/*--------------------------------*- C++ -*----------------------------------*\
  =========                 |
  \\      /  F ield         | OpenFOAM: The Open Source CFD Toolbox
   \\    /   O peration     | Website:  https://openfoam.org
    \\  /    A nd           | Version:  6
     \\/     M anipulation  |
\*---------------------------------------------------------------------------*/
FoamFile
{
    version     2.0;
    format      ascii;
    class       volScalarField;
    location    "109";
    object      p;
}
// * * * * * * * * * * * * * * * * * * * * * * * * * * * * * * * * * * * * * //

dimensions      [0 2 -2 0 0 0 0];

internalField   nonuniform List<scalar> 
8800
(
1.01984
0.970528
0.932565
0.9045
0.884346
0.869768
0.859183
0.851661
0.846801
0.844766
0.846173
0.850545
0.857363
0.866806
0.879556
0.896886
0.92077
0.953871
0.996811
1.04933
0.854328
0.860674
0.869827
0.873379
0.870776
0.864696
0.857766
0.851541
0.846762
0.843923
0.843729
0.846393
0.851064
0.857214
0.86433
0.871376
0.876264
0.876146
0.869477
0.860582
0.827827
0.834064
0.838569
0.842446
0.845402
0.846362
0.845289
0.843189
0.841237
0.840436
0.84151
0.844
0.846916
0.849208
0.849746
0.84797
0.844614
0.840608
0.835832
0.832117
0.823501
0.826268
0.82888
0.831045
0.832792
0.834374
0.835495
0.835872
0.835792
0.835934
0.836788
0.837973
0.838749
0.838626
0.837672
0.836333
0.834677
0.832384
0.829979
0.828413
0.818411
0.819837
0.821683
0.823773
0.825498
0.826807
0.827927
0.828936
0.829785
0.830573
0.831342
0.831854
0.83192
0.83159
0.830948
0.829853
0.828214
0.826332
0.824985
0.824182
0.813376
0.81428
0.815534
0.817172
0.81888
0.820433
0.821743
0.822901
0.824014
0.825095
0.825951
0.826404
0.826466
0.82614
0.82537
0.824208
0.822868
0.821618
0.820804
0.820279
0.808411
0.809068
0.810037
0.811368
0.812834
0.814376
0.815893
0.817302
0.818623
0.819905
0.820943
0.821515
0.821599
0.821215
0.820476
0.819568
0.818604
0.817719
0.817148
0.816762
0.803512
0.804017
0.804812
0.805969
0.807293
0.80874
0.81029
0.811885
0.813468
0.815019
0.816281
0.816988
0.81715
0.816895
0.816386
0.815741
0.81504
0.814401
0.813984
0.813683
0.798621
0.799022
0.799692
0.800734
0.801992
0.803395
0.804949
0.806655
0.808474
0.810336
0.811884
0.812813
0.813193
0.813189
0.812938
0.812528
0.812044
0.811605
0.8113
0.811055
0.793654
0.793981
0.794565
0.795533
0.796753
0.798155
0.799759
0.801585
0.803626
0.805821
0.807741
0.809013
0.809713
0.810003
0.810013
0.809851
0.809578
0.809308
0.809088
0.808882
0.788519
0.78879
0.789316
0.790243
0.791457
0.792899
0.794597
0.796589
0.798895
0.801481
0.803866
0.805579
0.806666
0.80729
0.807589
0.807679
0.807622
0.807504
0.807354
0.807175
0.783121
0.783349
0.783839
0.784756
0.786004
0.78753
0.789368
0.791586
0.794232
0.797301
0.800254
0.802494
0.804034
0.805043
0.805669
0.80602
0.806192
0.80622
0.806127
0.805966
0.777361
0.777555
0.778028
0.778965
0.780289
0.781945
0.783981
0.786497
0.789575
0.793242
0.79688
0.79975
0.801822
0.803276
0.804275
0.804938
0.805341
0.805502
0.805457
0.805308
0.771127
0.771293
0.771766
0.772752
0.774193
0.776033
0.778336
0.781236
0.784852
0.789253
0.793722
0.797345
0.800048
0.802022
0.803451
0.804461
0.805117
0.805414
0.805412
0.805268
0.764287
0.76443
0.764919
0.765983
0.767587
0.769672
0.772322
0.775707
0.779991
0.785286
0.790756
0.79528
0.798734
0.80132
0.803243
0.804652
0.805595
0.806033
0.806069
0.805927
0.75669
0.756811
0.757327
0.758499
0.760317
0.762718
0.765808
0.7698
0.774907
0.781289
0.787964
0.793561
0.797902
0.801215
0.803728
0.805601
0.806865
0.80745
0.80752
0.807375
0.748132
0.748235
0.748787
0.750102
0.752197
0.754999
0.758641
0.763387
0.769505
0.777207
0.785326
0.792201
0.797588
0.801754
0.804977
0.807395
0.80902
0.809758
0.809858
0.809706
0.738326
0.738428
0.739049
0.740542
0.742995
0.746301
0.750635
0.756317
0.763679
0.772982
0.782827
0.79121
0.797832
0.803004
0.807058
0.810114
0.812147
0.813044
0.813169
0.813007
0.726978
0.727057
0.727768
0.729515
0.732411
0.736357
0.741562
0.748414
0.757308
0.768552
0.780452
0.790606
0.798672
0.805026
0.810038
0.813844
0.816325
0.817379
0.817521
0.817345
0.713647
0.713715
0.714536
0.716599
0.720064
0.724831
0.731146
0.739472
0.750263
0.763861
0.778194
0.790411
0.80014
0.807861
0.813991
0.818641
0.821598
0.822797
0.822945
0.822751
0.697725
0.697783
0.698758
0.701246
0.70546
0.711299
0.719053
0.729259
0.742417
0.758864
0.776062
0.790649
0.802269
0.811549
0.818938
0.824521
0.827962
0.829275
0.829411
0.829197
0.678359
0.678413
0.679615
0.682702
0.687937
0.695225
0.704888
0.717536
0.733667
0.753554
0.774079
0.791348
0.805088
0.816101
0.824867
0.831454
0.835333
0.836703
0.836806
0.836573
0.654293
0.654352
0.655912
0.659902
0.666609
0.67593
0.688217
0.704091
0.723969
0.747976
0.772303
0.792547
0.808603
0.821503
0.831745
0.839319
0.843526
0.844869
0.844916
0.844667
0.623558
0.62365
0.625832
0.631292
0.640313
0.65264
0.668646
0.688821
0.713388
0.742256
0.770842
0.794303
0.812824
0.827691
0.839468
0.847906
0.852241
0.853447
0.853419
0.853162
0.582824
0.583057
0.58653
0.594712
0.607659
0.624678
0.646005
0.671849
0.702153
0.736606
0.769849
0.796697
0.817752
0.834627
0.847868
0.856896
0.861071
0.862022
0.861912
0.86166
0.525726
0.526926
0.533892
0.547777
0.567605
0.591906
0.620626
0.653637
0.690679
0.73132
0.769496
0.799823
0.82339
0.842183
0.856685
0.865877
0.869538
0.870159
0.86998
0.869744
0.443039
0.451174
0.467269
0.491637
0.521774
0.55583
0.593542
0.634739
0.679191
0.726501
0.769935
0.803996
0.830288
0.851095
0.86649
0.875363
0.878292
0.878592
0.87838
0.87819
0.354688
0.372613
0.39878
0.43442
0.475436
0.519353
0.566015
0.615436
0.667502
0.721922
0.771257
0.809681
0.839247
0.862229
0.878203
0.885975
0.887876
0.887908
0.887737
0.887624
0.278711
0.300657
0.33523
0.380506
0.431142
0.48435
0.539714
0.597186
0.656629
0.717772
0.772523
0.814827
0.847212
0.871877
0.887718
0.894139
0.895305
0.895254
0.895128
0.89505
0.216079
0.240484
0.280834
0.33302
0.391156
0.452088
0.515087
0.579891
0.646165
0.713538
0.773253
0.819062
0.85386
0.879714
0.895197
0.90067
0.90148
0.901405
0.901304
0.901241
0.163868
0.189781
0.234318
0.291856
0.355959
0.423196
0.492635
0.563835
0.636236
0.709286
0.773545
0.822547
0.85953
0.886384
0.901466
0.9062
0.906791
0.906704
0.906617
0.906559
0.119497
0.146302
0.193934
0.255791
0.324877
0.397456
0.47242
0.549209
0.627073
0.705266
0.773664
0.825561
0.864511
0.892191
0.906826
0.911003
0.911456
0.911357
0.911275
0.911219
0.0808831
0.108267
0.158307
0.223736
0.297069
0.374289
0.454135
0.535928
0.618743
0.701628
0.773795
0.828286
0.868936
0.897233
0.911432
0.915201
0.915559
0.915442
0.915357
0.915299
0.0465151
0.0743333
0.126341
0.19481
0.271827
0.353129
0.437363
0.523733
0.611133
0.698385
0.773996
0.830783
0.872854
0.901584
0.915357
0.918818
0.919107
0.918972
0.91888
0.918815
0.0153319
0.0435237
0.0971891
0.168316
0.248583
0.333522
0.421733
0.512334
0.604061
0.695457
0.774288
0.833108
0.87633
0.905276
0.918614
0.921839
0.922087
0.921947
0.921849
0.921775
-0.013518
0.015049
0.0701936
0.14372
0.226883
0.315097
0.406942
0.501489
0.597343
0.692766
0.774705
0.835368
0.879483
0.908411
0.92126
0.92429
0.924533
0.924416
0.924328
0.924245
-0.0404699
-0.011576
0.0449132
0.120595
0.206372
0.29756
0.392752
0.491002
0.590833
0.69026
0.775309
0.837707
0.882484
0.911158
0.923444
0.926295
0.926567
0.926514
0.926456
0.926368
-0.0660566
-0.0367605
0.0209676
0.0986209
0.186772
0.280673
0.378969
0.480711
0.584401
0.687876
0.776168
0.840302
0.885559
0.91376
0.9254
0.928072
0.928397
0.928437
0.928431
0.928347
-0.0904594
-0.0607653
-0.00187864
0.0775733
0.167878
0.264267
0.365441
0.470484
0.577925
0.685543
0.777341
0.843349
0.888974
0.916492
0.927394
0.929869
0.930257
0.930405
0.930464
0.930388
-0.113877
-0.0837751
-0.0238099
0.057295
0.149559
0.248217
0.352051
0.460204
0.571289
0.683147
0.778826
0.847035
0.89301
0.919618
0.929653
0.931899
0.932351
0.932597
0.932715
0.932653
-0.136458
-0.105902
-0.0449328
0.0376872
0.131711
0.232439
0.338722
0.449789
0.564389
0.680555
0.780555
0.851506
0.897986
0.923425
0.932319
0.934257
0.934791
0.935117
0.935262
0.935204
-0.158321
-0.127273
-0.0653033
0.0186884
0.11429
0.216879
0.325404
0.439175
0.557132
0.677618
0.782386
0.856834
0.904257
0.928299
0.935502
0.936837
0.937477
0.937949
0.938127
0.938041
-0.179382
-0.147872
-0.0849534
0.000250232
0.0972633
0.201528
0.31207
0.428331
0.549453
0.674211
0.784117
0.862965
0.912165
0.934817
0.939577
0.93955
0.940093
0.941038
0.94155
0.94145
-0.199667
-0.167725
-0.103923
-0.01764
0.0806266
0.186379
0.298732
0.417239
0.541311
0.670203
0.785519
0.8697
0.921921
0.943818
0.945631
0.943022
0.942734
0.944523
0.946282
0.946561
-0.21927
-0.186833
-0.122236
-0.0349932
0.0643951
0.171458
0.285411
0.405917
0.532682
0.665497
0.786331
0.876722
0.933471
0.956039
0.955359
0.949473
0.947298
0.949931
0.954049
0.955934
-0.238081
-0.205206
-0.139871
-0.0517802
0.0485854
0.156806
0.272152
0.394402
0.523581
0.660037
0.7863
0.883591
0.946429
0.971561
0.970002
0.961424
0.95646
0.957496
0.962173
0.964797
-0.256208
-0.222883
-0.156858
-0.0680573
0.0331387
0.14236
0.258878
0.382611
0.513902
0.653697
0.785175
0.889902
0.960378
0.990036
0.989645
0.979858
0.971344
0.964715
0.957697
0.962044
-0.273606
-0.239933
-0.173349
-0.0840268
0.0177572
0.127798
0.245192
0.370091
0.503153
0.645931
0.782426
0.895086
0.975224
1.01153
1.01386
1.00425
0.990597
0.975119
0.951793
0.956511
-0.290174
-0.256365
-0.189203
-0.0995153
0.00268091
0.113396
0.231256
0.357103
0.491528
0.636795
0.777715
0.897804
0.989135
1.03394
1.03831
1.02706
1.00873
0.975558
0.920887
0.89895
-0.305824
-0.273232
-0.204018
-0.114095
-0.0112854
0.0996381
0.217343
0.343912
0.479282
0.626394
0.770887
0.897024
0.999791
1.05464
1.05582
1.03841
1.00644
0.946272
0.884399
0.84734
-0.347617
-0.28992
-0.217504
-0.128754
-0.0249236
0.0855053
0.2036
0.330369
0.466155
0.614263
0.761242
0.891475
1.00333
1.06671
1.06381
1.0233
0.954913
0.878623
0.806836
0.767155
-0.320385
-0.301266
-0.237963
-0.148571
-0.0461365
0.0642324
0.181897
0.308509
0.444257
0.592586
0.740778
0.873173
0.981133
1.05185
1.01273
0.877997
0.772353
0.699051
0.629467
0.64825
-0.350028
-0.317737
-0.253538
-0.164534
-0.0624319
0.0478913
0.165946
0.292203
0.427426
0.574888
0.721755
0.851759
0.948065
0.98869
0.910922
0.748944
0.625236
0.541819
0.454202
0.490639
-0.372559
-0.337984
-0.272075
-0.183
-0.0809142
0.0294961
0.147601
0.273308
0.407548
0.553223
0.696946
0.821184
0.905315
0.907278
0.774901
0.602182
0.460459
0.358084
0.257845
0.280415
-0.394244
-0.358722
-0.291521
-0.201817
-0.0996323
0.0107302
0.128429
0.253349
0.386263
0.529476
0.668528
0.782949
0.848724
0.815988
0.634532
0.443928
0.274521
0.133729
0.00451048
0.00726417
-0.415489
-0.379685
-0.311663
-0.221413
-0.119096
-0.00891988
0.108178
0.232089
0.36326
0.503342
0.636264
0.73996
0.783742
0.697727
0.495489
0.287619
0.0945304
-0.0637423
-0.269616
-0.350677
-0.436985
-0.401354
-0.332906
-0.242308
-0.139868
-0.0298774
0.0866335
0.209417
0.338581
0.474999
0.600764
0.694494
0.708366
0.571563
0.367481
0.150162
-0.0466068
-0.209535
-0.331905
-0.443394
-0.459788
-0.424204
-0.355602
-0.264885
-0.162484
-0.0528167
0.0629614
0.184362
0.311042
0.442973
0.560803
0.640115
0.624297
0.451286
0.247027
0.0363946
-0.143432
-0.241926
-0.267617
-0.280507
-0.484051
-0.448529
-0.379875
-0.289229
-0.18709
-0.0779647
0.036774
0.156389
0.279989
0.406444
0.515221
0.57496
0.536672
0.335461
0.133833
-0.0561205
-0.19221
-0.230622
-0.238852
-0.239219
-0.510067
-0.474464
-0.405771
-0.315329
-0.213638
-0.105341
0.00802766
0.125415
0.245316
0.365389
0.46434
0.505762
0.42992
0.228837
0.0342881
-0.130757
-0.206948
-0.220991
-0.221947
-0.221819
-0.537841
-0.502043
-0.433316
-0.343192
-0.242158
-0.134953
-0.0233091
0.0913951
0.207015
0.319907
0.408065
0.431423
0.316874
0.131595
-0.0516424
-0.182313
-0.211344
-0.211943
-0.212454
-0.212047
-0.567128
-0.531115
-0.462426
-0.372753
-0.272582
-0.166769
-0.0572347
0.0543294
0.165137
0.270127
0.347355
0.349719
0.217306
0.0431672
-0.118571
-0.194118
-0.208762
-0.206687
-0.206371
-0.205969
-0.597383
-0.561339
-0.492848
-0.403795
-0.304737
-0.200649
-0.0936174
0.0143246
0.119915
0.216609
0.282415
0.267906
0.126607
-0.0339857
-0.163275
-0.202481
-0.201815
-0.202268
-0.202016
-0.201699
-0.628163
-0.592189
-0.524103
-0.435911
-0.338284
-0.23628
-0.132181
-0.0283432
0.0716565
0.16036
0.212389
0.191105
0.0459116
-0.0944091
-0.188974
-0.197434
-0.198986
-0.199325
-0.199261
-0.199084
-0.658486
-0.622811
-0.555481
-0.468481
-0.372679
-0.273188
-0.172458
-0.0731732
0.0208087
0.102265
0.142867
0.113903
-0.0222662
-0.136617
-0.193613
-0.20377
-0.198464
-0.197425
-0.197061
-0.196895
-0.686761
-0.651945
-0.585957
-0.500632
-0.407152
-0.31067
-0.213773
-0.119408
-0.0318118
0.0428003
0.0785397
0.0353839
-0.0771687
-0.168933
-0.191982
-0.195224
-0.195849
-0.195327
-0.195108
-0.194975
-0.711707
-0.678106
-0.614155
-0.531171
-0.440647
-0.34778
-0.255235
-0.166098
-0.084927
-0.0174431
0.0159386
-0.0318453
-0.118417
-0.187705
-0.208735
-0.198795
-0.19523
-0.194073
-0.193719
-0.19355
-0.730753
-0.699217
-0.638338
-0.5586
-0.471861
-0.383334
-0.295728
-0.212157
-0.137213
-0.0766135
-0.0461353
-0.0842929
-0.145477
-0.190196
-0.195884
-0.195381
-0.193872
-0.193276
-0.193054
-0.192883
-0.741922
-0.713231
-0.656473
-0.5812
-0.49928
-0.415954
-0.333923
-0.256319
-0.187533
-0.132084
-0.102816
-0.127948
-0.161473
-0.186835
-0.187383
-0.191387
-0.193034
-0.193266
-0.193271
-0.193197
-0.74257
-0.717821
-0.666508
-0.597155
-0.521291
-0.444182
-0.368399
-0.297088
-0.234638
-0.183226
-0.150193
-0.167513
-0.176088
-0.189472
-0.1926
-0.19343
-0.194189
-0.194495
-0.194616
-0.194622
-0.730314
-0.710325
-0.666328
-0.604755
-0.536451
-0.466654
-0.397836
-0.332942
-0.27675
-0.231237
-0.185799
-0.204958
-0.192739
-0.202046
-0.202042
-0.198985
-0.197867
-0.197877
-0.19803
-0.198023
-0.7032
-0.688643
-0.654178
-0.602823
-0.543736
-0.482395
-0.421212
-0.362799
-0.312111
-0.274124
-0.226115
-0.220996
-0.211777
-0.216775
-0.209585
-0.206427
-0.204487
-0.204461
-0.204748
-0.204769
-0.664713
-0.655453
-0.631364
-0.591703
-0.543211
-0.491177
-0.437963
-0.386086
-0.340151
-0.307677
-0.275997
-0.24712
-0.217536
-0.219336
-0.226854
-0.221344
-0.217712
-0.217187
-0.21775
-0.217806
-0.621872
-0.616588
-0.602782
-0.574507
-0.536991
-0.493869
-0.448226
-0.402427
-0.360337
-0.329066
-0.301015
-0.273206
-0.238271
-0.213011
-0.196278
-0.205016
-0.228218
-0.2418
-0.245696
-0.246043
-0.584329
-0.58109
-0.574477
-0.556492
-0.527913
-0.492279
-0.453024
-0.411832
-0.371749
-0.338994
-0.312965
-0.296794
-0.289839
-0.302371
-0.327503
-0.361119
-0.364735
-0.332258
-0.314171
-0.316093
-0.557267
-0.555347
-0.552009
-0.541376
-0.519572
-0.489506
-0.454247
-0.415326
-0.375037
-0.338349
-0.310631
-0.304286
-0.345191
-0.417996
-0.492272
-0.529288
-0.532199
-0.495093
-0.446626
-0.429571
-0.537417
-0.536742
-0.535626
-0.530373
-0.514436
-0.487987
-0.453941
-0.414704
-0.371483
-0.328351
-0.297607
-0.272065
-0.260353
-0.280204
-0.327162
-0.340112
-0.324628
-0.300862
-0.271058
-0.25563
-0.525774
-0.525553
-0.524949
-0.522562
-0.511761
-0.487464
-0.453091
-0.411656
-0.363837
-0.310971
-0.266117
-0.204596
-0.12568
-0.0531508
-0.00923527
0.0230036
0.0500359
0.0789834
0.103411
0.115976
-0.517688
-0.517544
-0.517144
-0.516484
-0.509917
-0.48807
-0.452595
-0.407717
-0.354111
-0.289213
-0.223066
-0.13737
0.00242971
0.171625
0.325179
0.441906
0.524773
0.578594
0.61231
0.626983
-0.512367
-0.512325
-0.512211
-0.51206
-0.508192
-0.48982
-0.453369
-0.404142
-0.344428
-0.26933
-0.184326
-0.0884255
0.0931706
0.344514
0.605148
0.830328
0.990086
1.08349
1.12979
1.14626
-0.508014
-0.508006
-0.507929
-0.50782
-0.506426
-0.492046
-0.455465
-0.402409
-0.337481
-0.254696
-0.158145
-0.0553533
0.141761
0.433202
0.753918
1.04855
1.27334
1.3979
1.44697
1.46013
-0.504348
-0.504341
-0.504214
-0.503944
-0.503742
-0.493768
-0.458879
-0.404078
-0.334641
-0.247842
-0.146511
-0.0408392
0.140342
0.422138
0.73327
1.0236
1.25503
1.38588
1.43376
1.44448
-0.501626
-0.501644
-0.501614
-0.501574
-0.501942
-0.494995
-0.463702
-0.408308
-0.336975
-0.249858
-0.150458
-0.0520856
0.0968339
0.343932
0.607626
0.84482
1.03503
1.14442
1.18542
1.19492
-0.498877
-0.498999
-0.499304
-0.499857
-0.500303
-0.496655
-0.469017
-0.414766
-0.344321
-0.25979
-0.167216
-0.0798919
0.0345735
0.235918
0.447194
0.623328
0.760511
0.841963
0.873827
0.881633
-0.495821
-0.496019
-0.496338
-0.496797
-0.497361
-0.496175
-0.472954
-0.422018
-0.355372
-0.275913
-0.192299
-0.117266
-0.0338105
0.119717
0.285352
0.417353
0.517235
0.576352
0.600087
0.605582
-0.493158
-0.493305
-0.493364
-0.493213
-0.493206
-0.492626
-0.474134
-0.42939
-0.368944
-0.295812
-0.221028
-0.158115
-0.0963419
0.0185759
0.14516
0.243777
0.317776
0.362281
0.379007
0.382344
-0.492125
-0.492077
-0.491533
-0.49
-0.48773
-0.486329
-0.473704
-0.437639
-0.383668
-0.31606
-0.25119
-0.198627
-0.153846
-0.0659546
0.0320586
0.106469
0.161349
0.194166
0.20595
0.207859
-0.4947
-0.494488
-0.493581
-0.49117
-0.486971
-0.484041
-0.477878
-0.448762
-0.39763
-0.335884
-0.279979
-0.235845
-0.201106
-0.13564
-0.0610664
-0.00482261
0.0367999
0.0608544
0.0691777
0.0697351
-0.501068
-0.501129
-0.501365
-0.502072
-0.502863
-0.502337
-0.495358
-0.463861
-0.410765
-0.354351
-0.306475
-0.267059
-0.239049
-0.186906
-0.13102
-0.0905573
-0.0612125
-0.0443964
-0.0392218
-0.0391042
-0.506609
-0.507418
-0.510424
-0.518983
-0.532116
-0.537252
-0.524734
-0.480163
-0.422857
-0.372814
-0.328977
-0.291061
-0.268535
-0.228667
-0.185774
-0.156493
-0.136452
-0.125976
-0.122735
-0.122966
-0.506315
-0.507465
-0.511949
-0.525423
-0.547977
-0.561111
-0.537241
-0.484572
-0.432459
-0.388983
-0.343725
-0.309074
-0.28776
-0.256541
-0.225083
-0.204372
-0.190314
-0.183326
-0.18125
-0.181435
-0.50474
-0.50546
-0.507552
-0.509915
-0.509638
-0.511245
-0.501067
-0.469338
-0.436303
-0.397226
-0.353188
-0.32154
-0.302856
-0.275164
-0.248306
-0.232129
-0.221597
-0.216849
-0.214951
-0.215102
-0.509127
-0.509226
-0.507935
-0.490114
-0.448703
-0.419272
-0.427875
-0.439587
-0.433419
-0.397726
-0.357397
-0.330152
-0.312251
-0.287409
-0.261831
-0.245489
-0.234715
-0.228663
-0.226402
-0.226628
-0.521293
-0.520086
-0.515176
-0.489852
-0.439679
-0.402283
-0.417903
-0.448197
-0.439269
-0.398745
-0.359248
-0.334982
-0.317122
-0.291104
-0.265424
-0.246875
-0.232916
-0.224889
-0.222237
-0.222658
-0.556535
-0.554225
-0.559429
-0.564794
-0.56
-0.532875
-0.519778
-0.505452
-0.463631
-0.402224
-0.360229
-0.335727
-0.31666
-0.289173
-0.260769
-0.238436
-0.221687
-0.212545
-0.209881
-0.210571
-0.645667
-0.652472
-0.680732
-0.718373
-0.730228
-0.708645
-0.663459
-0.586102
-0.487948
-0.402655
-0.357985
-0.329303
-0.308113
-0.280998
-0.251369
-0.226917
-0.208654
-0.199038
-0.196226
-0.196982
-0.738754
-0.751635
-0.782833
-0.812395
-0.823889
-0.80326
-0.74155
-0.625809
-0.49175
-0.395099
-0.342776
-0.30983
-0.291407
-0.263097
-0.23216
-0.208307
-0.191885
-0.183601
-0.181268
-0.181948
-0.755568
-0.766943
-0.787741
-0.80874
-0.818623
-0.799743
-0.731306
-0.590682
-0.455492
-0.364291
-0.305545
-0.275961
-0.261533
-0.233135
-0.203999
-0.18319
-0.169647
-0.162965
-0.1611
-0.161684
-0.673797
-0.682605
-0.699051
-0.716988
-0.727413
-0.711486
-0.642173
-0.504451
-0.387366
-0.302746
-0.247608
-0.228398
-0.215121
-0.188403
-0.164574
-0.148518
-0.138106
-0.133055
-0.131744
-0.132277
-0.509736
-0.519867
-0.538236
-0.559327
-0.572278
-0.555091
-0.482663
-0.377905
-0.289863
-0.217293
-0.179664
-0.16681
-0.154362
-0.133573
-0.116175
-0.104196
-0.0961407
-0.092499
-0.0920615
-0.0927698
-0.280498
-0.292345
-0.314239
-0.341147
-0.355492
-0.33718
-0.27939
-0.215041
-0.160752
-0.121457
-0.104856
-0.0932722
-0.0872374
-0.073813
-0.0635993
-0.0563262
-0.0500589
-0.0473273
-0.0478122
-0.0487806
0.0109857
-0.00760228
-0.0497481
-0.0752553
-0.0807116
-0.0758457
-0.0653206
-0.0507848
-0.0373308
-0.028122
-0.0247529
-0.0195637
-0.0179098
-0.0164187
-0.0131126
-0.0141539
-0.0137322
-0.0130579
-0.0114973
-0.0109172
0.129296
0.310686
0.475853
0.614465
0.723052
0.806401
0.874416
0.929552
0.942559
0.940059
0.402381
0.517629
0.625194
0.717232
0.793596
0.855801
0.904505
0.937413
0.95517
0.972346
0.586892
0.663152
0.738431
0.804044
0.859531
0.905384
0.941618
0.969561
0.990662
1.01001
0.72386
0.778228
0.832762
0.881579
0.923648
0.959507
0.989766
1.01528
1.03496
1.05387
0.835442
0.876535
0.917144
0.955256
0.989399
1.01969
1.04628
1.06894
1.0866
1.1047
0.928917
0.96324
0.99696
1.02935
1.05929
1.0865
1.11063
1.131
1.1465
1.16399
1.01494
1.04605
1.07739
1.10776
1.13607
1.16185
1.18452
1.20314
1.21684
1.23383
1.10042
1.1325
1.16436
1.19509
1.22345
1.24888
1.27071
1.28801
1.30023
1.31672
1.19394
1.23016
1.26463
1.29679
1.32568
1.35078
1.37168
1.38781
1.3993
1.4154
1.3066
1.3473
1.38408
1.41671
1.44496
1.46877
1.48825
1.50342
1.51522
1.53126
1.44797
1.48876
1.52387
1.55326
1.57831
1.59982
1.61824
1.63365
1.64671
1.66264
1.61917
1.65106
1.67799
1.70032
1.72035
1.73901
1.7567
1.77344
1.78832
1.80402
1.80516
1.82233
1.83939
1.85605
1.87213
1.88684
1.90072
1.91518
1.93039
1.94769
1.98852
1.99841
2.01156
2.02253
2.03193
2.04158
2.05216
2.06232
2.0716
2.09727
2.20628
2.20057
2.18762
2.17337
2.16705
2.17274
2.19088
2.2194
2.25316
2.28948
2.50911
2.37316
2.29363
2.25106
2.23373
2.23772
2.26514
2.323
2.43065
2.60906
0.923533
0.917232
0.909505
0.898396
0.884834
0.872197
0.861819
0.853834
0.848155
0.844878
0.844597
0.847497
0.852784
0.860181
0.86976
0.881611
0.895187
0.908127
0.917123
0.924667
0.832583
0.838504
0.846581
0.852721
0.855799
0.855301
0.852236
0.84827
0.844723
0.842497
0.842437
0.844764
0.848577
0.853067
0.857201
0.859469
0.858413
0.853788
0.846741
0.838911
0.825801
0.828174
0.831447
0.834229
0.836692
0.838899
0.840102
0.839988
0.839098
0.838356
0.838654
0.840152
0.842001
0.843281
0.843244
0.841806
0.839668
0.837322
0.834351
0.831337
0.820968
0.822057
0.82398
0.826329
0.828216
0.829635
0.830881
0.831913
0.832567
0.833021
0.833672
0.834513
0.835058
0.835
0.834418
0.83353
0.832225
0.830275
0.828181
0.826707
0.815886
0.81652
0.817655
0.819427
0.821289
0.822908
0.824192
0.825303
0.826349
0.827337
0.828238
0.828874
0.829105
0.82897
0.82849
0.827558
0.826163
0.824578
0.823256
0.822458
0.810887
0.811325
0.812121
0.813442
0.814987
0.816581
0.818099
0.819451
0.820682
0.821876
0.822966
0.823706
0.823998
0.823851
0.823256
0.82231
0.821198
0.820084
0.8192
0.81867
0.805959
0.806285
0.806906
0.807994
0.809319
0.810755
0.812283
0.813823
0.815307
0.816736
0.818047
0.81896
0.819324
0.819189
0.818678
0.817962
0.817168
0.816351
0.815711
0.815323
0.801074
0.801327
0.801828
0.802763
0.803969
0.805322
0.806803
0.80841
0.810099
0.811812
0.813406
0.814528
0.815039
0.815076
0.814802
0.81434
0.813772
0.813192
0.812737
0.812441
0.796157
0.796357
0.796776
0.797604
0.798739
0.800054
0.801534
0.803202
0.805053
0.807043
0.808973
0.810402
0.81119
0.811504
0.811497
0.811284
0.810939
0.810563
0.810252
0.81002
0.791118
0.791278
0.79164
0.792398
0.793495
0.794803
0.796326
0.798099
0.800136
0.802422
0.80475
0.806596
0.807759
0.808406
0.80869
0.808735
0.808627
0.808441
0.808249
0.808064
0.785864
0.785993
0.786314
0.787032
0.788121
0.789466
0.791075
0.793
0.795282
0.797931
0.800744
0.803105
0.804719
0.805754
0.806369
0.806697
0.806826
0.806828
0.806741
0.806592
0.780298
0.780401
0.780695
0.781399
0.782516
0.783944
0.785685
0.78782
0.79042
0.793527
0.796937
0.799915
0.802061
0.803546
0.804541
0.80518
0.805576
0.805764
0.805768
0.805646
0.774316
0.774397
0.774675
0.77539
0.776571
0.778123
0.780055
0.78247
0.785477
0.789153
0.79329
0.79701
0.79979
0.801802
0.803233
0.804248
0.804925
0.805299
0.805387
0.805285
0.767797
0.767857
0.76813
0.768878
0.77016
0.771886
0.774073
0.776853
0.780371
0.784748
0.789769
0.794381
0.797916
0.800552
0.802489
0.803919
0.804922
0.8055
0.80567
0.805584
0.7606
0.760637
0.760914
0.761719
0.763141
0.765096
0.767614
0.770857
0.775011
0.780246
0.786336
0.792019
0.796452
0.799827
0.802364
0.804275
0.805652
0.806453
0.806703
0.806628
0.752551
0.752569
0.752851
0.753734
0.755339
0.757589
0.760527
0.76435
0.769292
0.775577
0.782958
0.789921
0.795418
0.799662
0.802913
0.805405
0.807208
0.80825
0.808578
0.80851
0.743393
0.7434
0.743709
0.744698
0.746542
0.749166
0.752632
0.757177
0.763093
0.770661
0.779598
0.788082
0.794839
0.800108
0.804199
0.807382
0.809677
0.810981
0.811387
0.811321
0.732864
0.732845
0.733193
0.734332
0.736477
0.739575
0.743705
0.749153
0.756276
0.765411
0.776219
0.786506
0.794743
0.801219
0.806301
0.810282
0.813145
0.814732
0.815209
0.81514
0.720574
0.720534
0.720935
0.722264
0.72479
0.728495
0.733471
0.740057
0.748681
0.759735
0.772788
0.785197
0.795159
0.803037
0.80928
0.814179
0.817681
0.819559
0.820098
0.82002
0.706008
0.705946
0.706427
0.708011
0.711029
0.71552
0.721585
0.729625
0.740134
0.753544
0.769283
0.784169
0.796113
0.805594
0.813182
0.819121
0.823316
0.825478
0.826058
0.825962
0.688444
0.68836
0.688971
0.690912
0.694588
0.700125
0.707626
0.717555
0.73046
0.74677
0.7657
0.783449
0.797634
0.808929
0.818001
0.825106
0.830029
0.832433
0.833022
0.832901
0.666843
0.666741
0.667565
0.670029
0.674631
0.681618
0.691077
0.703523
0.719509
0.73939
0.762075
0.783069
0.799754
0.813043
0.823739
0.832098
0.837712
0.840274
0.840827
0.840674
0.639626
0.639526
0.640705
0.643982
0.650004
0.65911
0.671359
0.68724
0.70721
0.731461
0.758498
0.783097
0.802494
0.817927
0.830353
0.839981
0.846158
0.848739
0.849201
0.849013
0.604234
0.604193
0.606021
0.61071
0.619118
0.631581
0.647952
0.668568
0.693652
0.723149
0.755123
0.783631
0.805889
0.823557
0.837751
0.848553
0.855039
0.85745
0.857768
0.85755
0.556123
0.556322
0.559592
0.567269
0.580144
0.598153
0.620676
0.647703
0.679154
0.714752
0.752161
0.784807
0.809992
0.829881
0.845802
0.857531
0.863919
0.865941
0.866085
0.86585
0.486767
0.48829
0.496288
0.510888
0.532045
0.558917
0.590137
0.62533
0.66429
0.706673
0.749844
0.786721
0.814832
0.836826
0.854217
0.866409
0.872224
0.873677
0.873666
0.873447
0.403863
0.406795
0.422413
0.447728
0.480273
0.517572
0.558164
0.601916
0.648744
0.698406
0.748017
0.789893
0.821653
0.846324
0.865164
0.877185
0.88213
0.883091
0.88303
0.882901
0.318724
0.326357
0.349878
0.385884
0.4294
0.476917
0.526872
0.579201
0.633897
0.690779
0.746752
0.793534
0.828799
0.856098
0.876226
0.887529
0.891085
0.891497
0.891407
0.891333
0.248776
0.258635
0.287141
0.330711
0.3828
0.438932
0.497292
0.557625
0.619773
0.683463
0.745334
0.796553
0.834921
0.864263
0.884955
0.89533
0.898062
0.898295
0.898219
0.898172
0.191238
0.201872
0.234184
0.283342
0.341889
0.404866
0.470232
0.537535
0.606381
0.676305
0.743586
0.798861
0.840018
0.871104
0.892123
0.901719
0.903898
0.904034
0.903971
0.90394
0.14286
0.153877
0.18882
0.242316
0.306102
0.374719
0.445953
0.519234
0.593977
0.669513
0.741728
0.800699
0.844398
0.877049
0.898262
0.907153
0.908952
0.909029
0.908972
0.90895
0.101227
0.112415
0.149311
0.206273
0.274412
0.347843
0.424162
0.502685
0.582683
0.663284
0.739991
0.802316
0.848295
0.882272
0.903546
0.911853
0.913393
0.913424
0.913364
0.913343
0.0646215
0.0758667
0.114284
0.174108
0.245944
0.323545
0.40436
0.4876
0.572391
0.657651
0.73848
0.80383
0.851791
0.88686
0.908085
0.91591
0.917267
0.91726
0.917189
0.917163
0.0317829
0.0430429
0.082659
0.144943
0.21999
0.301259
0.386091
0.473633
0.562871
0.652513
0.737194
0.805277
0.854941
0.890854
0.911926
0.919337
0.920567
0.920532
0.920452
0.920417
0.00167683
0.0129672
0.0536382
0.118099
0.195998
0.280529
0.368983
0.46048
0.553897
0.647729
0.736103
0.80672
0.857835
0.894322
0.915112
0.922143
0.923287
0.92325
0.923176
0.923136
-0.0262839
-0.0149555
0.0266512
0.0930688
0.173519
0.260987
0.352741
0.4479
0.545269
0.643177
0.735201
0.808256
0.860613
0.897411
0.917762
0.924413
0.925503
0.925501
0.925459
0.925425
-0.0525969
-0.0412204
0.00125539
0.0694546
0.15221
0.242343
0.337126
0.435695
0.536835
0.638755
0.73449
0.810003
0.863463
0.900329
0.920076
0.926324
0.92738
0.927452
0.927475
0.927461
-0.0776673
-0.0661565
-0.0228728
0.0469719
0.131822
0.224374
0.32195
0.423711
0.528451
0.634361
0.733971
0.812096
0.866613
0.903336
0.922322
0.928132
0.929158
0.929326
0.929435
0.929452
-0.101648
-0.0899848
-0.0459343
0.025414
0.112171
0.206934
0.307074
0.411816
0.52
0.629872
0.733596
0.814657
0.870307
0.906708
0.92476
0.930081
0.931073
0.931339
0.931537
0.931592
-0.124754
-0.112888
-0.0681059
0.00465231
0.0931389
0.189904
0.292396
0.399913
0.511379
0.625176
0.733264
0.817752
0.8748
0.910747
0.927618
0.932339
0.933292
0.933654
0.933915
0.933998
-0.147004
-0.134955
-0.0894734
-0.0153938
0.0746492
0.17322
0.27786
0.387937
0.502504
0.620146
0.732832
0.821366
0.880337
0.915816
0.931121
0.934942
0.935822
0.936314
0.936612
0.936694
-0.16853
-0.156248
-0.110055
-0.0347695
0.0566531
0.156842
0.263425
0.375852
0.493313
0.614678
0.732127
0.825388
0.887109
0.922374
0.935619
0.937871
0.93842
0.939146
0.939653
0.939768
-0.189207
-0.176782
-0.12989
-0.0535172
0.0391352
0.140775
0.249081
0.363637
0.483773
0.60869
0.730966
0.82961
0.895169
0.930972
0.941879
0.941576
0.940967
0.941944
0.943292
0.943841
-0.209211
-0.196567
-0.148997
-0.0716635
0.022077
0.125005
0.234856
0.351294
0.473867
0.602131
0.729172
0.833748
0.904374
0.942056
0.951153
0.947618
0.94463
0.945413
0.948399
0.950365
-0.228434
-0.215568
-0.167403
-0.0891997
0.00551805
0.109569
0.220781
0.338879
0.463612
0.59494
0.72659
0.83746
0.914381
0.955675
0.964457
0.958179
0.952175
0.951788
0.956361
0.961153
-0.246968
-0.233885
-0.185083
-0.106099
-0.0105404
0.0944969
0.206899
0.326417
0.453044
0.587138
0.723099
0.840356
0.924643
0.971328
0.981787
0.974438
0.96576
0.961839
0.960636
0.956634
-0.26474
-0.251504
-0.202135
-0.122542
-0.0263259
0.0795104
0.192889
0.313533
0.441765
0.578307
0.718322
0.842092
0.935066
0.989225
1.00341
0.996847
0.986204
0.974884
0.96264
0.963588
-0.281753
-0.268525
-0.218588
-0.138487
-0.041846
0.064626
0.178757
0.300176
0.429691
0.568239
0.711899
0.841852
0.944416
1.00827
1.02729
1.02238
1.00853
0.993874
0.956918
0.920368
-0.297832
-0.284821
-0.23444
-0.153813
-0.0571223
0.0498182
0.164473
0.286442
0.416834
0.556869
0.70354
0.838861
0.950719
1.02636
1.05064
1.04347
1.02459
0.990435
0.936126
0.884508
-0.31568
-0.299314
-0.2495
-0.168058
-0.071876
0.035323
0.149646