/*--------------------------------*- C++ -*----------------------------------*\
  =========                 |
  \\      /  F ield         | OpenFOAM: The Open Source CFD Toolbox
   \\    /   O peration     | Website:  https://openfoam.org
    \\  /    A nd           | Version:  6
     \\/     M anipulation  |
\*---------------------------------------------------------------------------*/
FoamFile
{
    version     2.0;
    format      ascii;
    class       surfaceScalarField;
    location    "109";
    object      phi;
}
// * * * * * * * * * * * * * * * * * * * * * * * * * * * * * * * * * * * * * //

dimensions      [0 3 -1 0 0 0 0];

internalField   nonuniform List<scalar> 
17370
(
-0.0899999
0.0898488
0.289162
-0.0714622
0.0537522
0.364485
-0.0381191
0.02769
0.426597
-0.0196385
0.0146059
0.504284
-0.0107646
0.00827498
0.601892
-0.006276
0.0048998
0.720434
-0.00373571
0.00289461
0.863748
-0.00215234
0.00159251
1.03601
-0.00107522
0.000662121
1.24292
-0.000253945
-0.000145443
1.49159
0.000526
-0.000936351
1.4916
0.00133168
-0.00181323
1.24317
0.00233411
-0.00303775
1.03634
0.00385308
-0.00499939
0.864053
0.00636668
-0.00836041
0.721051
0.0108462
-0.0146826
0.603051
0.0197097
-0.027754
0.507484
0.0381753
-0.0537997
0.431793
0.0715014
-0.0898754
0.36515
0.0900164
0.198994
-0.128139
0.0882311
0.0399077
-0.364601
0.353384
-0.0746669
0.0858844
-0.446478
0.454324
-0.0843794
0.0765335
-0.521192
0.529905
-0.0684352
0.0597226
-0.612791
0.621572
-0.0515328
0.0427523
-0.726897
0.734168
-0.0352906
0.0280196
-0.867477
0.872596
-0.0224165
0.0172974
-1.03848
1.04193
-0.0134839
0.0100301
-1.2446
1.24704
-0.00741586
0.00497942
-1.49262
1.49461
-0.0030271
0.00104008
-1.49251
1.49423
0.000631596
-0.00235549
-1.24397
1.24585
0.00426614
-0.00614952
-1.03751
1.04002
0.00849285
-0.0110072
-0.866096
0.869825
0.0143538
-0.0180828
-0.724388
0.729931
0.0231239
-0.0286664
-0.608696
0.616108
0.0358791
-0.0432912
-0.514894
0.523037
0.0520197
-0.0601624
-0.439854
0.447911
0.0688234
-0.0768804
-0.375293
0.376736
0.0846738
-0.0861164
-0.257328
0.222472
0.0748239
-0.0399679
-0.0685274
0.0587044
0.00982296
-0.0517929
0.05837
-0.374136
0.367559
-0.0574492
0.0536933
-0.453601
0.457357
-0.0486004
0.044645
-0.527955
0.531911
-0.0408019
0.0371597
-0.621573
0.625215
-0.0330536
0.0289727
-0.735359
0.73944
-0.0243953
0.0202287
-0.87435
0.878517
-0.0158746
0.0121734
-1.0435
1.0472
-0.00842838
0.00524961
-1.24857
1.25175
-0.00191619
-0.00116225
-1.49666
1.49974
0.0042143
-0.00748308
-1.4972
1.50047
0.0105587
-0.0141473
-1.25006
1.25365
0.0176865
-0.0218657
-1.04591
1.05009
0.0258884
-0.0303254
-0.877749
0.882186
0.0342923
-0.038285
-0.739889
0.743882
0.0418307
-0.0455747
-0.626763
0.630507
0.0494447
-0.0544564
-0.534802
0.539813
0.0581209
-0.0589273
-0.457466
0.458272
0.0522136
-0.0320009
-0.335737
0.315524
0.0098912
-0.0683344
0.0584432
-0.0529577
0.0489666
0.00399112
-0.0331315
0.0436632
-0.358136
0.347605
-0.0473508
0.046716
-0.459303
0.459937
-0.0436537
0.0402956
-0.53582
0.539179
-0.0365171
0.0332072
-0.62855
0.631859
-0.0297619
0.0267217
-0.742671
0.745711
-0.0234523
0.0203349
-0.882043
0.88516
-0.0167927
0.0134029
-1.0508
1.05419
-0.00959913
0.00605204
-1.25519
1.25873
-0.00207459
-0.00172956
-1.50325
1.50705
0.00550109
-0.00937752
-1.50413
1.508
0.0127785
-0.0163676
-1.2574
1.26099
0.0195345
-0.0228326
-1.05389
1.05719
0.025744
-0.0288082
-0.885662
0.888726
0.031679
-0.0349554
-0.747132
0.750408
0.0381226
-0.0417567
-0.634283
0.637917
0.0449912
-0.0479117
-0.544115
0.547035
0.0483955
-0.0444949
-0.456547
0.452646
0.0337074
-0.0162382
-0.296141
0.278672
0.0040766
-0.0526185
0.0485419
-0.0458945
0.0434048
0.00248966
-0.0227648
0.0331222
-0.336934
0.326576
-0.038925
0.0399297
-0.459633
0.458629
-0.0387289
0.0364346
-0.541908
0.544202
-0.0337589
0.0311545
-0.634922
0.637527
-0.0280805
0.0251694
-0.748768
0.751679
-0.0218899
0.0188816
-0.888123
0.891132
-0.0155605
0.0124471
-1.05733
1.06044
-0.00890688
0.00548671
-1.2622
1.26562
-0.00151307
-0.00237944
-1.51094
1.51483
0.0062278
-0.010066
-1.51188
1.51572
0.0132927
-0.0165522
-1.26443
1.26769
0.0193748
-0.022376
-1.06028
1.06329
0.0251103
-0.0281131
-0.891759
0.894762
0.0307928
-0.0336343
-0.753601
0.756443
0.0360424
-0.0385222
-0.64097
0.64345
0.0406494
-0.0416281
-0.548825
0.549803
0.0403892
-0.0342424
-0.447345
0.441198
0.0235069
-0.0102601
-0.263427
0.25018
0.00259557
-0.0453719
0.0427763
-0.041337
0.0395773
0.0017597
-0.0166921
0.0259129
-0.316751
0.30753
-0.0324896
0.0346098
-0.457048
0.454927
-0.0341734
0.0324915
-0.546193
0.547875
-0.0302995
0.0281931
-0.639847
0.641954
-0.0257472
0.0233338
-0.754338
0.756752
-0.0204554
0.0176467
-0.894041
0.896849
-0.0143888
0.0113005
-1.0635
1.06659
-0.00779096
0.00444958
-1.26895
1.27229
-0.000602558
-0.00314149
-1.51862
1.52236
0.00682884
-0.0105022
-1.51944
1.52311
0.0135961
-0.0167487
-1.27094
1.2741
0.0194674
-0.0223167
-1.0663
1.06915
0.0247726
-0.0272921
-0.89755
0.90007
0.0294051
-0.0315499
-0.758875
0.761019
0.0334044
-0.0353432
-0.645588
0.647527
0.0367814
-0.0369157
-0.550301
0.550435
0.0344349
-0.0273526
-0.434499
0.427417
0.0176205
-0.00743813
-0.238613
0.228431
0.00188929
-0.0405884
0.0386991
-0.0380641
0.0367441
0.00132
-0.0127164
0.0206208
-0.298975
0.29107
-0.0273288
0.0302211
-0.452396
0.449504
-0.0304022
0.029264
-0.549325
0.550463
-0.0272561
0.0253239
-0.644009
0.645941
-0.0231037
0.0209447
-0.759009
0.761169
-0.0184025
0.0158926
-0.899441
0.901951
-0.0129207
0.0100148
-1.06955
1.07245
-0.00662538
0.0033617
-1.27557
1.27883
0.000405707
-0.00404932
-1.52602
1.52966
0.00762176
-0.0111703
-1.52669
1.53024
0.0141235
-0.0170672
-1.27723
1.28017
0.0195126
-0.0219747
-1.07186
1.07433
0.0240421
-0.0261316
-0.902325
0.904414
0.0279103
-0.0297478
-0.76298
0.764818
0.0313611
-0.0330603
-0.649327
0.651026
0.0338424
-0.033237
-0.550196
0.549591
0.0298272
-0.0224245
-0.420113
0.41271
0.0138613
-0.00578232
-0.219398
0.211319
0.00147781
-0.0370396
0.0355617
-0.0355942
0.0345813
0.0010129
-0.00990205
0.0165631
-0.283816
0.277155
-0.0229878
0.0263172
-0.446378
0.443049
-0.0270638
0.0263393
-0.551396
0.552121
-0.0245588
0.0227537
-0.647862
0.649667
-0.0206564
0.0186105
-0.763265
0.765311
-0.0162023
0.0138395
-0.904313
0.906676
-0.0110612
0.00834045
-1.07519
1.07791
-0.0051457
0.00203016
-1.28198
1.2851
0.00160826
-0.0051416
-1.53322
1.53676
0.00858644
-0.0119526
-1.53367
1.53704
0.0146836
-0.0173289
-1.28304
1.28568
0.0194835
-0.0216342
-1.07668
1.07883
0.02345
-0.0252966
-0.906352
0.908199
0.0268699
-0.0284919
-0.766538
0.76816
0.0299008
-0.0312515
-0.652581
0.653932
0.0315343
-0.0301843
-0.548618
0.547268
0.0261394
-0.0187975
-0.405306
0.397964
0.011307
-0.00468977
-0.204038
0.19742
0.00120499
-0.0342341
0.0330291
-0.0336959
0.0329122
0.000783752
-0.00780798
0.0133821
-0.27107
0.265496
-0.0193029
0.0228121
-0.439626
0.436117
-0.0240209
0.0235355
-0.55277
0.553255
-0.022014
0.0203121
-0.651481
0.653183
-0.0183015
0.0163326
-0.767311
0.76928
-0.0140064
0.0117219
-0.908926
0.911211
-0.0090369
0.00641785
-1.0805
1.08312
-0.00335558
0.000376019
-1.28809
1.29107
0.00309804
-0.00646295
-1.54017
1.54353
0.00971911
-0.0128589
-1.54024
1.54338
0.0153676
-0.0177592
-1.28828
1.29067
0.0196877
-0.0216055
-1.08093
1.08285
0.0232185
-0.0248535
-0.909915
0.91155
0.026241
-0.0276661
-0.769671
0.771097
0.0288718
-0.0298306
-0.655085
0.656044
0.029733
-0.0276999
-0.545562
0.543529
0.0232329
-0.0161332
-0.390732
0.383632
0.00952702
-0.00393955
-0.191364
0.185777
0.00101734
-0.0319278
0.0309104
-0.0322287
0.0316237
0.000604983
-0.00618378
0.010826
-0.26042
0.255778
-0.0161356
0.0196253
-0.432626
0.429136
-0.0211397
0.0208698
-0.553684
0.553954
-0.0195699
0.017921
-0.654919
0.656568
-0.015957
0.0140277
-0.771216
0.773145
-0.0117487
0.00951183
-0.913387
0.915624
-0.00688347
0.00432417
-1.08563
1.08819
-0.00134154
-0.00154204
-1.29395
1.29683
0.00487462
-0.00807073
-1.54676
1.54996
0.011134
-0.0140586
-1.54636
1.54928
0.0163683
-0.0185359
-1.29305
1.29522
0.0202574
-0.0219536
-1.08474
1.08644
0.0233713
-0.0248034
-0.913051
0.914483
0.0260189
-0.0272636
-0.772418
0.773663
0.0283246
-0.0288581
-0.656797
0.657331
0.0283599
-0.0257417
-0.541194
0.538575
0.0210006
-0.0142006
-0.376684
0.369884
0.00828293
-0.00342248
-0.180587
0.175726
0.000888778
-0.029965
0.0290762
-0.0311017
0.0306427
0.000459001
-0.00486773
0.00870213
-0.251571
0.247737
-0.0133544
0.0166742
-0.42575
0.42243
-0.0183516
0.0182594
-0.554196
0.554288
-0.0171404
0.0155183
-0.658283
0.659905
-0.0135651
0.0116386
-0.775052
0.776979
-0.00936425
0.00713857
-0.917757
0.919983
-0.00453328
0.00200664
-1.09064
1.09317
0.000924377
-0.0037401
-1.29962
1.30243
0.0069664
-0.0100266
-1.55303
1.55609
0.0129252
-0.0156558
-1.55204
1.55477
0.0177752
-0.0197197
-1.29739
1.29934
0.0212335
-0.0227112
-1.08812
1.08959
0.0239429
-0.0251883
-0.915783
0.917028
0.0262494
-0.0273307
-0.774807
0.775888
0.0281783
-0.0283396
-0.657663
0.657824
0.0274085
-0.0242785
-0.535694
0.532564
0.0193516
-0.0128342
-0.363238
0.35672
0.00742909
-0.00307436
-0.171147
0.166792
0.000803873
-0.0282367
0.0274328
-0.0302553
0.029921
0.00033431
-0.00375615
0.00687636
-0.24429
0.241169
-0.0108573
0.0138948
-0.41928
0.416242
-0.0156058
0.0156515
-0.554386
0.554341
-0.0146012
0.0130385
-0.661588
0.663151
-0.0110653
0.00910665
-0.778893
0.780852
-0.00679581
0.00454333
-0.922109
0.924362
-0.00192034
-0.000608428
-1.0956
1.09812
0.00352234
-0.00629994
-1.30516
1.30794
0.00945254
-0.0124063
-1.55904
1.56199
0.0151645
-0.0177167
-1.55734
1.55989
0.0196522
-0.0213755
-1.30131
1.30303
0.0226839
-0.0239481
-1.09107
1.09234
0.0249997
-0.0260648
-0.918138
0.919203
0.026979
-0.0279005
-0.776856
0.777777
0.0284847
-0.0283393
-0.657831
0.657686
0.0269225
-0.0233094
-0.529194
0.525581
0.0182291
-0.0119294
-0.35033
0.344031
0.00687957
-0.00285743
-0.162628
0.158606
0.000753272
-0.0266604
0.0259071
-0.0296515
0.0294297
0.000221787
-0.00277228
0.00524308
-0.238403
0.235932
-0.00855023
0.0112201
-0.413425
0.410755
-0.0128481
0.0129554
-0.554354
0.554246
-0.0119329
0.0103964
-0.664801
0.666338
-0.00837702
0.0063542
-0.782802
0.784825
-0.00396816
0.00165133
-0.926518
0.928835
0.00103261
-0.00360362
-1.10056
1.10313
0.00654346
-0.00931944
-1.31063
1.31341
0.0124333
-0.0153076
-1.56483
1.56771
0.0179458
-0.0203352
-1.56227
1.56466
0.0220957
-0.0236016
-1.30481
1.30631
0.0247043
-0.0257526
-1.09362
1.09467
0.0266183
-0.0274918
-0.920126
0.920999
0.0282434
-0.0289956
-0.778522
0.779274
0.0292916
-0.0287915
-0.65741
0.656909
0.0269037
-0.0228273
-0.521758
0.517681
0.0175861
-0.0114103
-0.337817
0.331641
0.00657465
-0.00274461
-0.154701
0.150871
0.000729785
-0.0251712
0.0244415
-0.0292698
0.0291562
0.000113652
-0.00185151
0.00370815
-0.233797
0.23194
-0.00633352
0.00856313
-0.40835
0.40612
-0.00999782
0.0100861
-0.554259
0.554171
-0.00905438
0.00750203
-0.668
0.669552
-0.00540445
0.00328371
-0.78684
0.788961
-0.000782325
-0.00163705
-0.931057
0.933476
0.00442527
-0.00707881
-1.10562
1.10828
0.0100883
-0.0129002
-1.31612
1.31893
0.0160115
-0.0188331
-1.57048
1.5733
0.0213703
-0.0236098
-1.56686
1.5691
0.0252005
-0.0264911
-1.30789
1.30918
0.027389
-0.0282175
-1.09575
1.09658
0.0288888
-0.0295631
-0.921725
0.9224
0.0301575
-0.0307579
-0.779842
0.780443
0.0306829
-0.0297612
-0.656236
0.655315
0.0273736
-0.0228206
-0.513401
0.508848
0.0173786
-0.011219
-0.325502
0.319342
0.00647131
-0.00271676
-0.1471
0.143345
0.000728422
-0.0237179
0.0229895
-0.0291049
0.0290997
5.20394e-06
-0.00094492
0.00219791
-0.230412
0.229159
-0.00412342
0.00584644
-0.404194
0.402471
-0.00698354
0.00696957
-0.554273
0.554287
-0.00587871
0.00426745
-0.671271
0.672882
-0.00204822
-0.00020809
-0.791074
0.79333
0.00286929
-0.00543365
-0.935801
0.938365
0.00837397
-0.011154
-1.11086
1.11364
0.0142802
-0.0171685
-1.32168
1.32457
0.020317
-0.0231162
-1.57602
1.57882
0.0255734
-0.0276747
-1.57115
1.57325
0.0290999
-0.0301798
-1.31057
1.31165
0.0308733
-0.031479
-1.09744
1.09805
0.0319494
-0.0324094
-0.92292
0.92338
0.0328134
-0.0331338
-0.780767
0.781088
0.0327518
-0.0313248
-0.654213
0.652786
0.0283944
-0.0233163
-0.504079
0.499001
0.0175992
-0.0113305
-0.313161
0.306892
0.00654888
-0.00276434
-0.139596
0.135811
0.000746648
-0.0222575
0.0215109
-0.0291603
0.0292702
-0.000109866
-3.36456e-06
0.000642923
-0.228233
0.227594
-0.0018357
0.00298487
-0.40109
0.399941
-0.00372284
0.0035211
-0.554574
0.554776
-0.00231041
0.000579647
-0.67471
0.676441
0.00180317
-0.00424063
-0.795577
0.798015
0.00711336
-0.00987095
-0.940837
0.943594
0.013017
-0.015972
-1.11635
1.1193
0.0192662
-0.0222742
-1.32741
1.33042
0.0255013
-0.0283087
-1.58152
1.58432
0.0307074
-0.0326825
-1.57513
1.57711
0.0339486
-0.0348168
-1.31283
1.3137
0.0352987
-0.0356695
-1.09868
1.09906
0.03593
-0.0361682
-0.923677
0.923916
0.0363611
-0.0363317
-0.781111
0.781081
0.0355912
-0.0335723
-0.651156
0.649137
0.0300256
-0.0243385
-0.493678
0.487991
0.0182435
-0.0117266
-0.300537
0.29402
0.00679133
-0.00287912
-0.131984
0.128072
0.000781909
-0.0207521
0.0199702
-0.0294515
0.0297002
-0.000248713
0.000979111
-0.00101742
-0.227298
0.227337
0.000617017
-0.000115706
-0.399177
0.398675
-0.000120636
-0.000364153
-0.555353
0.555838
0.00176511
-0.00367822
-0.67844
0.680353
0.00628689
-0.00895899
-0.800439
0.803111
0.0121029
-0.0151095
-0.946263
0.94927
0.0185232
-0.0217088
-1.12221
1.12539
0.0252286
-0.0284035
-1.33339
1.33656
0.0317517
-0.0345944
-1.58704
1.58988
0.036947
-0.038805
-1.57884
1.5807
0.0399215
-0.0405754
-1.31465
1.3153
0.0408308
-0.0409471
-1.09944
1.09956
0.0409777
-0.0409778
-0.92397
0.92397
0.0409808
-0.0404905
-0.780749
0.780258
0.0393071
-0.0365932
-0.646905
0.644191
0.0323285
-0.0259117
-0.482012
0.475595
0.0193087
-0.0123918
-0.287343
0.280427
0.00718388
-0.00305281
-0.124071
0.119939
0.000831459
-0.0191688
0.0183374
-0.030018
0.0304119
-0.000393849
0.0020979
-0.00277863
-0.227687
0.228367
0.00325819
-0.00352875
-0.3986
0.39887
0.00394945
-0.00482039
-0.55684
0.557711
0.00648147
-0.00864954
-0.682592
0.68476
0.0115601
-0.0145348
-0.805766
0.808741
0.0180221
-0.0213433
-0.952194
0.955515
0.0250955
-0.0285741
-1.12854
1.13202
0.0323825
-0.0357742
-1.33971
1.3431
0.0392871
-0.0421906
-1.59263
1.59553
0.0445043
-0.0462374
-1.58227
1.584
0.0471917
-0.0476372
-1.31601
1.31646
0.0476583
-0.047503
-1.09968
1.09952
0.0472897
-0.0470371
-0.923747
0.923495
0.0467904
-0.0457858
-0.779499
0.778495
0.0440536
-0.0405021
-0.641253
0.637702
0.0353746
-0.0280624
-0.46882
0.461508
0.0207923
-0.0133097
-0.273271
0.265789
0.00771056
-0.0032761
-0.115677
0.111242
0.000892094
-0.0174806
0.0165885
-0.030893
0.0314664
-0.000573362
0.00337424
-0.00486376
-0.22948
0.23097
0.00627011
-0.00737307
-0.399563
0.400666
0.00856366
-0.00995695
-0.559257
0.56065
0.0120205
-0.0145288
-0.687308
0.689816
0.0178318
-0.0211879
-0.811693
0.815049
0.0251037
-0.0288167
-0.958766
0.962479
0.0329893
-0.0368298
-1.13547
1.13931
0.0409933
-0.0446514
-1.34648
1.35013
0.0483675
-0.0513506
-1.59834
1.60132
0.0536292
-0.0552314
-1.5854
1.587
0.0560254
-0.0562403
-1.3169
1.31712
0.0560002
-0.0555545
-1.09935
1.0989
0.0550876
-0.0545541
-0.92298
0.922446
0.0539078
-0.0524097
-0.777313
0.775815
0.0499614
-0.0453947
-0.6339
0.629333
0.039218
-0.030799
-0.453751
0.445332
0.0226748
-0.0144507
-0.257984
0.24976
0.00834581
-0.00353469
-0.106638
0.101827
0.000959007
-0.0156673
0.0147083
-0.0321398
0.0329472
-0.000807398
0.00495334
-0.00735746
-0.232921
0.235325
0.00984469
-0.0118848
-0.402273
0.404313
0.013974
-0.0160163
-0.562856
0.564898
0.018619
-0.0215675
-0.692768
0.695716
0.0253793
-0.0292089
-0.818384
0.822213
0.0336543
-0.037849
-0.966138
0.970332
0.0425338
-0.0468105
-1.14314
1.14742
0.0513953
-0.0553627
-1.35378
1.35775
0.0593079
-0.0623727
-1.6042
1.60726
0.0645991
-0.0660413
-1.58821
1.58965
0.0666431
-0.0665895
-1.31722
1.31717
0.0660846
-0.0653255
-1.09842
1.09766
0.0645915
-0.0637941
-0.921613
0.920816
0.0626295
-0.0605266
-0.774193
0.77209
0.0571968
-0.0513643
-0.624455
0.618622
0.0438874
-0.0340952
-0.436357
0.426565
0.0249034
-0.0157585
-0.241126
0.231981
0.00904654
-0.00380612
-0.0968176
0.0915772
0.00102499
-0.0137196
0.0126946
-0.0338563
0.0349702
-0.00111394
0.00693822
-0.0104491
-0.238228
0.241739
0.0142139
-0.0173428
-0.407033
0.410162
0.0204596
-0.023277
-0.56793
0.570748
0.0265764
-0.0300939
-0.699197
0.702714
0.0345631
-0.0389877
-0.826032
0.830457
0.0440849
-0.0488625
-0.974492
0.97927
0.0541569
-0.0589409
-1.1517
1.15648
0.0640009
-0.0683005
-1.3617
1.366
0.0724692
-0.0755854
-1.61019
1.61331
0.0777186
-0.078958
-1.59064
1.59188
0.079331
-0.0789751
-1.31688
1.31652
0.0781797
-0.0770742
-1.09682
1.09572
0.0760665
-0.0749684
-0.919675
0.918577
0.0732364
-0.0703497
-0.769919
0.767032
0.0658846
-0.0584365
-0.612399
0.604951
0.0493331
-0.0378482
-0.416085
0.4046
0.027361
-0.0171319
-0.222345
0.212116
0.00974234
-0.00405635
-0.086125
0.0804391
0.00107984
-0.0116439
0.0105641
-0.0361774
0.0377124
-0.00153498
0.00954478
-0.0144322
-0.245758
0.250645
0.0197163
-0.0241033
-0.414205
0.418592
0.0284035
-0.0321503
-0.574809
0.578556
0.0363268
-0.040606
-0.706868
0.711148
0.0459019
-0.0510706
-0.83488
0.840049
0.0569634
-0.0624336
-0.984037
0.989507
0.0684288
-0.073771
-1.16127
1.16661
0.0793231
-0.0839344
-1.37026
1.37487
0.0882668
-0.0913514
-1.61624
1.61932
0.0933004
-0.0942464
-1.59256
1.59351
0.0943282
-0.0936701
-1.31581
1.31515
0.0925005
-0.0910407
-1.09452
1.09306
0.089761
-0.088172
-0.916999
0.91541
0.0859218
-0.0819605
-0.764066
0.760104
0.0760311
-0.0665185
-0.597005
0.587492
0.0553814
-0.0418394
-0.392282
0.37874
0.0298367
-0.0184083
-0.201337
0.189908
0.0103289
-0.00423861
-0.0745543
0.0684639
0.00111043
-0.00946858
0.00835815
-0.0393128
0.0414574
-0.00214459
0.0131379
-0.0197862
-0.256018
0.262666
0.0268991
-0.0327537
-0.424273
0.430128
0.0384228
-0.0433005
-0.583882
0.58876
0.0485716
-0.0538239
-0.716182
0.721434
0.0601977
-0.0662875
-0.845223
0.851312
0.0731178
-0.0793651
-0.994986
1.00123
0.0861049
-0.0919972
-1.17194
1.17784
0.0979799
-0.102805
-1.37937
1.3842
0.107156
-0.110053
-1.62214
1.62503
0.111666
-0.11218
-1.59379
1.5943
0.111884
-0.110849
-1.31395
1.31291
0.109289
-0.107445
-1.09151
1.08966
0.105874
-0.103737
-0.913205
0.911068
0.100824
-0.0954061
-0.756026
0.750608
0.0875136
-0.0753272
-0.577329
0.565143
0.0616602
-0.0456808
-0.364224
0.348244
0.0319968
-0.0193561
-0.177916
0.165276
0.0106693
-0.00429626
-0.0622252
0.0558522
0.00110211
-0.00724869
0.00614658
-0.0436037
0.0466887
-0.00308506
0.0183572
-0.0273097
-0.26976
0.278712
0.0366544
-0.0442855
-0.437918
0.445549
0.0516112
-0.0578453
-0.595654
0.601888
0.0645454
-0.0711452
-0.727561
0.73416
0.0787852
-0.0859014
-0.857385
0.864501
0.0937311
-0.100752
-1.00748
1.0145
0.108158
-0.114466
-1.18364
1.18995
0.120675
-0.125492
-1.3888
1.39361
0.129596
-0.132058
-1.62752
1.62999
0.133112
-0.133001
-1.59402
1.59391
0.132191
-0.130686
-1.31112
1.30962
0.128736
-0.126464
-1.08771
1.08544
0.12446
-0.121811
-0.908154
0.905505
0.117843
-0.110416
-0.744946
0.737519
0.0998962
-0.0842774
-0.552119
0.5365
0.0675245
-0.0487805
-0.331199
0.312455
0.0333814
-0.0196904
-0.152145
0.138453
0.0106113
-0.00417278
-0.0494286
0.0429901
0.00104182
-0.00506742
0.0040256
-0.0496471
0.0543235
-0.00467641
0.0264501
-0.0385116
-0.288172
0.300234
0.05073
-0.0607172
-0.456261
0.466248
0.0700908
-0.0779607
-0.610704
0.618574
0.0864233
-0.0945697
-0.741536
0.749682
0.103599
-0.111731
-0.871576
0.879708
0.120425
-0.127998
-1.02142
1.02899
0.135743
-0.142119
-1.19599
1.20236
0.148141
-0.152564
-1.398
1.40242
0.156008
-0.157684
-1.63186
1.63353
0.157883
-0.156902
-1.59285
1.59187
0.155413
-0.15332
-1.3071
1.30501
0.150922
-0.148141
-1.08301
1.08023
0.145694
-0.142291
-0.901677
0.898273
0.136777
-0.126426
-0.729576
0.719225
0.112342
-0.0923826
-0.519805
0.499846
0.0720105
-0.0503679
-0.292694
0.271051
0.0334647
-0.0191343
-0.124487
0.110157
0.0100279
-0.00382849
-0.036648
0.0304486
0.000920589
-0.00302902
0.00210844
-0.0585793
0.0665662
-0.00798693
0.0406308
-0.0572815
-0.313467
0.330118
0.0735473
-0.0866393
-0.48089
0.493982
0.0981413
-0.107625
-0.629557
0.63904
0.117847
-0.127432
-0.758313
0.767898
0.137554
-0.146226
-0.88756
0.896232
0.155143
-0.162635
-1.03618
1.04367
0.170036
-0.175852
-1.20816
1.21398
0.181048
-0.184497
-1.40611
1.40956
0.186724
-0.187146
-1.63437
1.63479
0.186105
-0.183967
-1.58977
1.58763
0.181603
-0.1788
-1.30162
1.29881
0.175862
-0.172498
-1.0772
1.07383
0.169439
-0.164807
-0.893059
0.888427
0.15688
-0.142241
-0.707919
0.69328
0.123292
-0.0981243
-0.478495
0.453327
0.0739352
-0.0497289
-0.248738
0.224532
0.0318906
-0.0175838
-0.0959754
0.0816686
0.00890045
-0.00326445
-0.0245296
0.0188936
0.000735639
-0.00124257
0.000506933
-0.0739794
0.0785105
-0.00453115
0.0312663
-0.0458918
-0.349692
0.364317
0.0605321
-0.0726047
-0.513067
0.52514
0.0837099
-0.0943531
-0.652089
0.662733
0.106566
-0.117771
-0.776785
0.78799
0.130298
-0.141547
-0.903919
0.915167
0.153702
-0.16469
-1.05029
1.06128
0.176452
-0.186829
-1.21879
1.22916
0.197584
-0.206652
-1.41194
1.42101
0.215475
-0.222198
-1.63411
1.64083
0.226874
-0.230241
-1.58417
1.58753
0.232268
-0.233794
-1.29434
1.29587
0.234594
-0.234131
-1.06981
1.06935
0.232672
-0.22699
-0.880782
0.875099
0.214267
-0.190162
-0.677046
0.652941
0.159342
-0.120958
-0.42661
0.388226
0.0869816
-0.0554035
-0.200423
0.168845
0.0338967
-0.0178141
-0.0682606
0.052178
0.00856133
-0.0029205
-0.0137539
0.00811305
0.000578122
0.000241274
-0.000819396
-0.086389
0.0845346
0.00185442
0.00898073
-0.0187123
-0.381937
0.391669
0.0300105
-0.0389041
-0.542231
0.551124
0.048041
-0.0570808
-0.676116
0.685156
0.0682515
-0.0787493
-0.798636
0.809133
0.0900982
-0.100545
-0.925867
0.936314
0.111826
-0.121696
-1.07205
1.08192
0.132488
-0.14168
-1.23943
1.24862
0.151253
-0.159163
-1.42991
1.43782
0.166583
-0.172213
-1.64708
1.65271
0.175982
-0.17852
-1.59021
1.59275
0.179676
-0.180531
-1.29559
1.29645
0.180889
-0.180037
-1.06723
1.06638
0.17706
-0.168718
-0.863886
0.855544
0.15376
-0.129538
-0.624247
0.600025
0.102418
-0.0724192
-0.347499
0.3175
0.0489294
-0.0294364
-0.13866
0.119167
0.0171425
-0.0085714
-0.0374852
0.0289141
0.00389
-0.00122992
-0.00280524
0.000145156
0.000195529
0.00157815
-0.00177368
-0.0882342
0.0852627
0.00297152
-0.000354558
-0.0054576
-0.404203
0.410015
0.0131094
-0.0198475
-0.564261
0.570999
0.026867
-0.0346834
-0.696727
0.704544
0.0444439
-0.053609
-0.818536
0.827701
0.0637469
-0.07294
-0.945967
0.95516
0.0826548
-0.0915854
-1.09168
1.10061
0.101182
-0.10951
-1.25747
1.2658
0.117805
-0.1246
-1.44525
1.45204
0.131174
-0.135931
-1.65798
1.66274
0.138916
-0.140746
-1.59474
1.59658
0.141342
-0.141749
-1.29569
1.2961
0.141444
-0.140135
-1.06266
1.06135
0.136156
-0.126402
-0.843021
0.833267
0.111112
-0.0887347
-0.572408
0.55003
0.066377
-0.0442623
-0.285729
0.263614
0.0288616
-0.0170233
-0.100187
0.0883482
0.00982466
-0.00491727
-0.0206024
0.015695
0.00224429
-0.000714661
0.00267572
-0.00420535
0.000117578
0.00216492
-0.0022825
-0.0870924
0.0842246
0.00286772
-0.00451295
0.00142508
-0.419408
0.422495
0.00368237
-0.00889365
-0.58105
0.586262
0.0149137
-0.0215163
-0.713784
0.720386
0.0299198
-0.0378311
-0.836083
0.843994
0.0465605
-0.0545158
-0.963795
0.97175
0.0633379
-0.0710415
-1.10911
1.11682
0.0795411
-0.0864949
-1.27376
1.28072
0.0938295
-0.0998149
-1.45871
1.4647
0.105395
-0.109163
-1.66731
1.67107
0.111691
-0.113189
-1.59797
1.59946
0.113499
-0.113139
-1.29523
1.29487
0.112409
-0.110596
-1.05664
1.05482
0.10592
-0.0960361
-0.819695
0.809811
0.0814856
-0.0623465
-0.52502
0.505881
0.0449679
-0.0293601
-0.240488
0.224881
0.0190669
-0.011384
-0.0759822
0.0682992
0.00669044
-0.00344214
-0.0104109
0.00716258
0.00163207
-0.000547766
0.00600132
-0.00708562
9.99341e-05
0.00252625
-0.00262619
-0.0856104
0.0830016
0.0026088
-0.00614311
0.00477759
-0.429804
0.43117
-0.000884861
-0.00308954
-0.594636
0.59861
0.00796572
-0.0139087
-0.728185
0.734128
0.0209813
-0.027928
-0.851087
0.858033
0.0355071
-0.0424429
-0.979227
0.986162
0.0500606
-0.056918
-1.12438
1.13123
0.0642099
-0.0705391
-1.28754
1.29387
0.0769266
-0.082104
-1.47035
1.47553
0.0868653
-0.0899808
-1.67483
1.67795
0.0919972
-0.0928932
-1.60035
1.60125
0.092913
-0.0923433
-1.29374
1.29317
0.0911999
-0.0887451
-1.04966
1.04721
0.0839912
-0.0744151
-0.796305
0.786729
0.0615476
-0.0456749
-0.48457
0.468697
0.0324313
-0.0212202
-0.207957
0.196745
0.01394
-0.00855066
-0.0597957
0.0544064
0.00519809
-0.0027746
-0.00339938
0.000975895
0.00137109
-0.000483163
0.00842424
-0.00931217
0.000101634
0.00280822
-0.00290985
-0.084103
0.0818006
0.00230244
-0.00647292
0.00575762
-0.437042
0.437758
-0.00335424
0.00010638
-0.605207
0.608455
0.00455412
-0.00961708
-0.740397
0.74546
0.0156661
-0.0216632
-0.864073
0.87007
0.0283457
-0.034495
-0.992704
0.998854
0.0413803
-0.0473577
-1.13778
1.14375
0.0538329
-0.0594395
-1.29987
1.30548
0.0650024
-0.0694561
-1.48042
1.48488
0.0734472
-0.0763206
-1.68105
1.68392
0.0778061
-0.0784773
-1.60175
1.60242
0.0782209
-0.077359
-1.29191
1.29105
0.076116
-0.0731037
-1.04203
1.03901
0.0682502
-0.0594371
-0.773858
0.765045
0.0482023
-0.0351853
-0.45084
0.437823
0.0249749
-0.0165912
-0.184121
0.175737
0.0112231
-0.00712613
-0.0480815
0.0439845
0.00446341
-0.00245978
0.00194974
-0.00395337
0.00124854
-0.000459865
0.010383
-0.0111717
0.000103023
0.00304499
-0.00314802
-0.0828049
0.0809318
0.00187315
-0.00597626
0.00577036
-0.442342
0.442547
-0.00383223
0.00138753
-0.614342
0.616786
0.00286079
-0.00738786
-0.750907
0.755434
0.0130126
-0.0181236
-0.875584
0.880695
0.0239168
-0.0292871
-1.00492
1.01029
0.0356487
-0.0409451
-1.14971
1.155
0.0465709
-0.0516397
-1.31084
1.3159
0.0569322
-0.0607843
-1.48929
1.49314
0.0642935
-0.0665483
-1.6864
1.68865
0.0679159
-0.0680002
-1.60289
1.60297
0.0676998
-0.0667841
-1.28966
1.28875
0.0651684
-0.0620953
-1.03401
1.03093
0.0572845
-0.0490385
-0.752861
0.744615
0.0394848
-0.0286938
-0.422755
0.411964
0.0206087
-0.0141715
-0.165966
0.159529
0.00990972
-0.00653483
-0.0389511
0.0355762
0.00423463
-0.00240854
0.00643527
-0.00826135
0.001254
-0.000474358
0.012108
-0.0128876
0.000112453
0.00325051
-0.00336297
-0.0819071
0.080374
0.00153312
-0.00520752
0.00531048
-0.446331
0.446228
-0.0036318
0.00140924
-0.622137
0.62436
0.0024835
-0.00648268
-0.76019
0.764189
0.0112256
-0.0160144
-0.885689
0.890478
0.0212308
-0.0265552
-1.01539
1.02072
0.0319095
-0.0367487
-1.16033
1.16517
0.0421719
-0.0466386
-1.32075
1.32522
0.0509767
-0.0547694
-1.4968
1.5006
0.0578542
-0.05979
-1.69092
1.69285
0.0606944
-0.0607482
-1.60322
1.60327
0.0602627
-0.0591423
-1.28721
1.28609
0.0574399
-0.0542081
-1.02616
1.02292
0.0495066
-0.0421369
-0.733476
0.726106
0.0336232
-0.0247287
-0.399243
0.390348
0.0182664
-0.0130427
-0.151704
0.14648
0.00949822
-0.0065639
-0.031291
0.0283567
0.0044092
-0.00260188
0.0105366
-0.0123439
0.00139882
-0.000543498
0.0137955
-0.0146508
0.000135164
0.00345457
-0.00358973
-0.0814758
0.0801338
0.00134198
-0.00415555
0.00415658
-0.449612
0.449611
-0.00280963
0.00071287
-0.629077
0.631174
0.00277357
-0.00653652
-0.768626
0.772389
0.0109505
-0.0151745
-0.894997
0.899221
0.020333
-0.0246392
-1.02537
1.02967
0.0297174
-0.0341161
-1.17009
1.17449
0.0390808
-0.0433798
-1.32955
1.33385
0.0475526
-0.0506126
-1.50401
1.50707
0.0533996
-0.0550559
-1.69459
1.69625
0.0559232
-0.0555781
-1.6031
1.60275
0.054949
-0.053651
-1.28483
1.28354
0.0518602
-0.0484786
-1.01823
1.01485
0.0440108
-0.0371603
-0.715848
0.708998
0.0297785
-0.0223201
-0.379605
0.372147
0.0169941
-0.0127545
-0.139997
0.135757
0.00969631
-0.00700502
-0.0244987
0.0218074
0.00489418
-0.00300856
0.0145689
-0.0164545
0.00167294
-0.000682678
0.0156064
-0.0165967
0.00017544
0.00368476
-0.0038602
-0.0812649
0.0802505
0.00101443
-0.00317473
0.00280315
-0.45269
0.453061
-0.00174059
-0.00032076
-0.635026
0.637087
0.00336885
-0.00689886
-0.77628
0.779811
0.0110006
-0.0152224
-0.903252
0.907473
0.0195698
-0.0238683
-1.03412
1.03842
0.0286773
-0.0326085
-1.17923
1.18317
0.037351
-0.0412554
-1.33781
1.34172
0.0450217
-0.0481284
-1.5104
1.5135
0.0507558
-0.051981
-1.69776
1.69899
0.0523203
-0.051943
-1.60243
1.60205
0.051237
-0.0496776
-1.28187
1.28031
0.0476284
-0.0443693
-1.0104
1.00714
0.0396477
-0.0335015
-0.69954
0.693394
0.027063
-0.0207498
-0.363086
0.356773
0.0163938
-0.0127835
-0.130211
0.126601
0.010085
-0.00754913
-0.0182645
0.0157287
0.00544879
-0.00347175
0.0187105
-0.0206876
0.00201172
-0.000856581
0.0176777
-0.0188329
0.000233762
0.00398159
-0.00421535
-0.0814263
0.0805849
0.000841346
-0.00232478
0.00207915
-0.455748
0.455994
-0.000574057
-0.00124041
-0.64084
0.642654
0.00437992
-0.00768769
-0.783204
0.786512
0.0115121
-0.0151985
-0.911305
0.914991
0.0195285
-0.0233413
-1.04265
1.04646
0.0278885
-0.0320533
-1.18747
1.19164
0.0361231
-0.0400433
-1.34554
1.34946
0.0438185
-0.04653
-1.51632
1.51903
0.0488837
-0.0501781
-1.70022
1.70151
0.0501797
-0.0496074
-1.60129
1.60072
0.0484
-0.0466208
-1.27854
1.27676
0.0444612
-0.0409165
-1.00265
0.999103
0.0363917
-0.0305838
-0.684678
0.67887
0.0249039
-0.0194901
-0.348892
0.343478
0.0157823
-0.0126975
-0.121852
0.118767
0.0102669
-0.00789078
-0.0124334
0.0100572
0.0058492
-0.00384893
0.0229499
-0.0249502
0.00230018
-0.00101774
0.0200331
-0.0213155
0.000290566
0.0043778
-0.00466837
-0.0818669
0.0811988
0.000668095
-0.00132515
0.000959688
-0.458781
0.459147
0.00032111
-0.00237704
-0.646069
0.648125
0.00538009
-0.00845293
-0.789693
0.792766
0.0122651
-0.015698
-0.91861
0.922043
0.019737
-0.023538
-1.0507
1.0545
0.0278098
-0.0317389
-1.19555
1.19948
0.0357766
-0.0394338
-1.35316
1.35682
0.0430025
-0.0460426
-1.52185
1.52489
0.0482253
-0.0490931
-1.70247
1.70334
0.0489762
-0.0478237
-1.59971
1.59856
0.0464125
-0.044419
-1.27462
1.27262
0.0417075
-0.0379113
-0.994584
0.990788
0.0333622
-0.0277317
-0.670886
0.665256
0.0227266
-0.0180245
-0.336782
0.33208
0.0148685
-0.0121444
-0.114586
0.111862
0.00998784
-0.00781316
-0.00701179
0.00483711
0.00592028
-0.00399958
0.0271569
-0.0290776
0.00245547
-0.00112784
0.0225743
-0.0239019
0.000343699
0.00486756
-0.00521126
-0.0825364
0.0819897
0.000546628
-0.000499899
6.35986e-05
-0.461848
0.462284
0.00123823
-0.0032872
-0.651234