/*--------------------------------*- C++ -*----------------------------------*\
  =========                 |
  \\      /  F ield         | OpenFOAM: The Open Source CFD Toolbox
   \\    /   O peration     | Website:  https://openfoam.org
    \\  /    A nd           | Version:  6
     \\/     M anipulation  |
\*---------------------------------------------------------------------------*/
FoamFile
{
    version     2.0;
    format      ascii;
    class       surfaceScalarField;
    location    "63";
    object      phi;
}
// * * * * * * * * * * * * * * * * * * * * * * * * * * * * * * * * * * * * * //

dimensions      [0 3 -1 0 0 0 0];

internalField   nonuniform List<scalar> 
4262
(
0.10679
0.471198
0.0925215
0.707854
0.0647697
0.860055
0.0423343
1.0212
0.02629
1.21456
0.0161933
1.44832
0.00992244
1.73213
0.00574281
2.07522
0.00250119
2.48849
-0.000470606
2.98526
-0.00339611
2.98522
-0.00652075
2.48837
-0.0106675
2.07518
-0.016842
1.73204
-0.0267752
1.44815
-0.0426041
1.21435
-0.0648492
1.02101
-0.0924894
0.859943
-0.106835
0.707931
0.471154
0.114783
0.356415
0.139958
0.682679
0.125308
0.874706
0.101767
1.04474
0.0735596
1.24277
0.0474441
1.47443
0.0268864
1.75269
0.0128344
2.08927
0.00446714
2.49685
-0.0012137
2.99094
-0.00669716
2.9907
-0.0152087
2.49688
-0.0289752
2.08895
-0.0492182
1.75228
-0.0751889
1.47412
-0.103371
1.24253
-0.126918
1.04456
-0.140787
0.873812
-0.115208
0.682352
0.355945
0.0916974
0.264718
0.126279
0.648097
0.124781
0.876204
0.110853
1.05867
0.0964032
1.25722
0.076576
1.49426
0.0544771
1.77479
0.0328713
2.11087
0.0135446
2.51618
-0.00239612
3.00689
-0.0182835
3.00659
-0.0369409
2.51554
-0.0581426
2.11015
-0.0798256
1.77396
-0.0990502
1.49335
-0.112716
1.25619
-0.125834
1.05767
-0.127616
0.875594
-0.0923256
0.647062
0.26362
0.0628335
0.201884
0.104016
0.606914
0.106783
0.873437
0.0972069
1.06824
0.0860837
1.26834
0.0754945
1.50485
0.0607897
1.7895
0.0418436
2.12982
0.0203323
2.53769
-0.00325636
3.03047
-0.0268094
3.03014
-0.0478087
2.53654
-0.065894
2.12824
-0.0797742
1.78784
-0.0897136
1.50329
-0.100491
1.26697
-0.109737
1.06692
-0.106133
0.87199
-0.0637582
0.604687
0.199862
0.0370281
0.164856
0.0793605
0.564582
0.0897133
0.863084
0.0829424
1.07502
0.0716462
1.27964
0.0625512
1.51394
0.0523347
1.79971
0.0384043
2.14375
0.0195279
2.55657
-0.00468035
3.05468
-0.02823
3.05369
-0.0462785
2.55458
-0.0594289
2.14139
-0.0688189
1.79723
-0.077051
1.51152
-0.0874978
1.27742
-0.0932767
1.0727
-0.0816348
0.860348
-0.0378457
0.560898
0.162016
0.0195071
0.145349
0.0565522
0.527537
0.0715332
0.848103
0.0689856
1.07756
0.0599168
1.28871
0.0498623
1.524
0.0403889
1.80919
0.0292938
2.15485
0.0144157
2.57145
-0.00592632
3.07502
-0.0261111
3.07388
-0.0401008
2.56857
-0.0498063
2.15109
-0.057818
1.80525
-0.0666425
1.52034
-0.074578
1.28535
-0.0759825
1.0741
-0.0593079
0.843674
-0.0203694
0.521959
0.141647
0.0107368
0.134612
0.0420939
0.49618
0.0576588
0.832538
0.0573045
1.07792
0.0503399
1.29567
0.0402556
1.53408
0.0303388
1.8191
0.0199479
2.16524
0.00762673
2.58377
-0.00774033
3.09039
-0.0223353
3.08847
-0.0334292
2.57967
-0.0426444
2.16031
-0.0511603
1.81376
-0.0599705
1.52915
-0.0653026
1.29068
-0.0638142
1.07262
-0.0458237
0.825683
-0.0118899
0.488026
0.129757
0.00665418
0.127958
0.032875
0.469959
0.0486559
0.816757
0.0495643
1.07701
0.043758
1.30148
0.0343147
1.54353
0.0238889
1.82953
0.0132816
2.17584
0.00223241
2.59482
-0.00982768
3.10245
-0.0215302
3.10017
-0.0311967
2.58933
-0.0395431
2.16865
-0.0475706
1.82179
-0.0549221
1.53651
-0.058844
1.29461
-0.0558589
1.06963
-0.0372454
0.80707
-0.00799009
0.45877
0.121767
0.00466961
0.123289
0.0263367
0.448292
0.041743
0.801351
0.0433374
1.07541
0.0381977
1.30662
0.0301094
1.55161
0.0204607
1.83918
0.00983249
2.18647
-0.00106684
2.60571
-0.0120051
3.11339
-0.0220583
3.11023
-0.0311525
2.59843
-0.0397817
2.17728
-0.0475199
1.82953
-0.0535477
1.54253
-0.0562256
1.29728
-0.051407
1.06481
-0.0319329
0.787596
-0.00636422
0.433202
0.115402
0.00373315
0.119556
0.0216742
0.430351
0.0367565
0.786269
0.0393464
1.07282
0.0346637
1.3113
0.0267099
1.55957
0.0171502
1.84874
0.00663913
2.19698
-0.00435056
2.6167
-0.015635
3.12467
-0.0259409
3.12053
-0.0345812
2.60707
-0.0419308
2.18463
-0.0482876
1.83588
-0.0531448
1.54739
-0.0544068
1.29855
-0.0481893
1.05859
-0.0283468
0.767753
-0.00580616
0.410661
0.109596
0.0031054
0.11645
0.0175701
0.415886
0.0314497
0.772389
0.0344256
1.06985
0.0303119
1.31541
0.0232488
1.56663
0.0146838
1.8573
0.00465648
2.20701
-0.00669884
2.62806
-0.0185656
3.13654
-0.0291582
3.13113
-0.0377127
2.61562
-0.0446448
2.19157
-0.0499854
1.84122
-0.0536998
1.55111
-0.0538933
1.29874
-0.0460321
1.05073
-0.0258438
0.747565
-0.00561773
0.390435
0.103978
0.00236615
0.114084
0.0138062
0.404446
0.026259
0.759937
0.0292438
1.06686
0.0252728
1.31938
0.0182345
1.57367
0.00960894
1.86593
-0.000327139
2.21695
-0.0115325
2.63927
-0.0238189
3.14883
-0.0348058
3.14211
-0.0425364
2.62335
-0.0479743
2.197
-0.0518993
1.84515
-0.0544429
1.55365
-0.0537535
1.29805
-0.0444679
1.04145
-0.0240832
0.72718
-0.0055287
0.37188
0.0984498
0.00174441
0.11234
0.0107138
0.395477
0.0216465
0.749004
0.0242935
1.06422
0.0201814
1.3235
0.0132946
1.58056
0.00502458
1.8742
-0.0046792
2.22665
-0.0158336
2.65042
-0.0284105
3.1614
-0.039249
3.15295
-0.046444
2.63055
-0.0514453
2.202
-0.0550974
1.8488
-0.0565052
1.55506
-0.0545988
1.29614
-0.0438412
1.03069
-0.0230181
0.706357
-0.00549211
0.354354
0.0929577
0.000876936
0.111463
0.0072375
0.389116
0.0163757
0.739866
0.0185643
1.06203
0.0141347
1.32792
0.00654176
1.58815
-0.0025853
1.88332
-0.0127893
2.23685
-0.023948
2.66158
-0.0358214
3.17328
-0.0453222
3.16245
-0.0514764
2.6367
-0.0552791
2.20581
-0.0578525
1.85138
-0.0585684
1.55577
-0.0558599
1.29344
-0.0437078
1.01854
-0.0223772
0.685026
-0.00548492
0.337462
0.0874727
6.38615e-05
0.111399
0.00394785
0.385232
0.0105996
0.733214
0.0114669
1.06116
0.00636541
1.33303
-0.0013812
1.5959
-0.0103703
1.89231
-0.0203769
2.24686
-0.0314499
2.67265
-0.0433147
3.18514
-0.0527235
3.17186
-0.0581943
2.64217
-0.0611097
2.20872
-0.0626961
1.85296
-0.0623884
1.55546
-0.0580433
1.28909
-0.0442021
1.0047
-0.02215
0.662974
-0.00551762
0.32083
0.0819551
-0.000972851
0.112372
0.00012839
0.384131
0.00467583
0.728666
0.00477951
1.06106
-0.00084598
1.33865
-0.00951136
1.60456
-0.0197046
1.90251
-0.0308813
2.25804
-0.0425933
2.68436
-0.0533745
3.19592
-0.0611159
3.1796
-0.0654526
2.64651
-0.0675649
2.21083
-0.0684579
1.85385
-0.0673042
1.55431
-0.0613225
1.28311
-0.0455237
0.988897
-0.022454
0.639905
-0.00566045
0.304036
0.0762947
-0.0019351
0.114307
-0.00313862
0.385334
-0.00178188
0.72731
-0.00362085
1.0629
-0.0102322
1.34526
-0.0195198
1.61385
-0.030187
1.91317
-0.0417199
2.26957
-0.0534909
2.69613
-0.0648415
3.20727
-0.0731336
3.18789
-0.0766095
2.64999
-0.0774626
2.21169
-0.0769254
1.85332
-0.0740113
1.5514
-0.0659473
1.27504
-0.0478882
0.970838
-0.0233461
0.615362
-0.00593877
0.286629
0.0703559
-0.00321742
0.117524
-0.00679223
0.388909
-0.00878108
0.729299
-0.0124961
1.06661
-0.0203199
1.35309
-0.0310551
1.62458
-0.0431532
1.92527
-0.0560774
2.28249
-0.0693186
2.70938
-0.0810824
3.21904
-0.0871809
3.19399
-0.089109
2.65192
-0.0887132
2.21129
-0.0869719
1.85158
-0.0827331
1.54716
-0.0722947
1.26461
-0.0513884
0.949932
-0.0248588
0.588833
-0.0063703
0.26814
0.0639856
-0.00459982
0.122124
-0.0113194
0.395629
-0.0167441
0.734723
-0.0233607
1.07323
-0.0327103
1.36244
-0.0446029
1.63648
-0.0577275
1.9384
-0.0718127
2.29658
-0.0857174
2.72328
-0.0974487
3.23077
-0.103602
3.20015
-0.104963
2.65328
-0.1031
2.20943
-0.0995331
1.84801
-0.0931724
1.5408
-0.0800456
1.25148
-0.0559315
0.925818
-0.026855
0.559756
-0.00687582
0.248161
0.0571098
-0.00604034
0.128164
-0.0162951
0.405884
-0.026066
0.744494
-0.0356222
1.08278
-0.0470417
1.37386
-0.0611159
1.65055
-0.0766521
1.95393
-0.0930835
2.31301
-0.108997
2.73919
-0.121524
3.2433
-0.125637
3.20426
-0.123886
2.65153
-0.119711
2.20525
-0.114258
1.84256
-0.106125
1.53267
-0.0896685
1.23502
-0.0614449
0.897594
-0.029213
0.527524
-0.00739654
0.226345
0.0497132
-0.00844033
0.136605
-0.023237
0.42068
-0.0380801
0.759337
-0.0510118
1.09572
-0.0643906
1.38723
-0.0804302
1.66659
-0.0984065
1.97191
-0.117383
2.33199
-0.134913
2.75672
-0.146724
3.25511
-0.149108
3.20664
-0.146105
2.64852
-0.140705
2.19985
-0.13335
1.8352
-0.122124
1.52144
-0.101576
1.21447
-0.0684087
0.864427
-0.0320371
0.491153
-0.00798362
0.202291
0.0417296
-0.0106212
0.147226
-0.0298488
0.439908
-0.0505423
0.780031
-0.0687507
1.11392
-0.0864501
1.40493
-0.106775
1.68691
-0.128918
1.99405
-0.151186
2.35425
-0.169762
2.7753
-0.179782
3.26513
-0.179449
3.20631
-0.172639
2.64171
-0.163753
2.19097
-0.153853
1.8253
-0.139778
1.50736
-0.114188
1.18888
-0.075159
0.825398
-0.0345053
0.450499
-0.00837234
0.176158
0.0333573
-0.0154765
0.162702
-0.0427024
0.467134
-0.0708672
0.808196
-0.0941225
1.13718
-0.115415
1.42623
-0.139774
1.71127
-0.165531
2.01981
-0.189629
2.37835
-0.207933
2.7936
-0.216297
3.27349
-0.212224
3.20224
-0.202437
2.63192
-0.191537
2.18007
-0.178808
1.81257
-0.160052
1.48861
-0.128778
1.15761
-0.0830766
0.779697
-0.0369815
0.404404
-0.00866367
0.147841
0.0246936
-0.0192956
0.181998
-0.0545423
0.50238
-0.0916402
0.845293
-0.123133
1.16867
-0.15189
1.45498
-0.183777
1.74316
-0.214241
2.05027
-0.239835
2.40395
-0.25573
2.8095
-0.256962
3.27472
-0.246703
3.19198
-0.233784
2.61901
-0.219801
2.16609
-0.204361
1.79713
-0.182012
1.46626
-0.143433
1.11903
-0.0893744
0.725638
-0.0382954
0.353325
-0.00846958
0.118015
0.016224
-0.0315679
0.213566
-0.0792896
0.550102
-0.127999
0.894002
-0.16718
1.20785
-0.201815
1.48962
-0.240363
1.78171
-0.273534
2.08345
-0.297184
2.4276
-0.307338
2.81965
-0.303485
3.27087
-0.289219
3.17771
-0.271339
2.60113
-0.254528
2.14927
-0.235772
1.77838
-0.206354
1.43684
-0.158862
1.07154
-0.0961896
0.662966
-0.039555
0.29669
-0.00824567
0.0867054
0.00797836
-0.045165
0.258731
-0.118252
0.62319
-0.183594
0.959344
-0.230749
1.25501
-0.272666
1.53154
-0.314063
1.8231
-0.34264
2.11202
-0.359198
2.44415
-0.363582
2.82404
-0.35416
3.26145
-0.333103
3.15665
-0.310797
2.57882
-0.287443
2.12592
-0.260937
1.75187
-0.22472
1.40062
-0.168331
1.01515
-0.096663
0.591298
-0.0376004
0.237628
-0.00788944
0.0569945
8.8923e-05
-0.0321275
0.290858
-0.0965607
0.687623
-0.156074
1.01886
-0.205301
1.30424
-0.258075
1.58431
-0.303762
1.86879
-0.345282
2.15354
-0.380482
2.47935
-0.406161
2.84971
-0.418453
3.27374
-0.414431
3.15263
-0.396824
2.56121
-0.373787
2.10288
-0.342372
1.72045
-0.287957
1.34621
-0.203784
0.930977
-0.108379
0.495893
-0.0406187
0.169868
-0.00916304
0.0255389
-0.00907412
-0.0135567
0.304415
-0.0479382
0.722004
-0.0880971
1.05902
-0.129825
1.34596
-0.171318
1.6258
-0.202553
1.90003
-0.233236
2.18423
-0.261311
2.50743
-0.282254
2.87066
-0.291167
3.28266
-0.285119
3.14658
-0.271986
2.54808
-0.252324
2.08322
-0.220299
1.68843
-0.173306
1.29922
-0.110306
0.867977
-0.0500871
0.435673
-0.0185435
0.138324
-0.00451852
0.0115139
-0.0135926
-0.00316697
0.307582
-0.0236607
0.742498
-0.0509601
1.08632
-0.0793087
1.37431
-0.106529
1.65302
-0.13363
1.92713
-0.16081
2.21141
-0.185965
2.53258
-0.204945
2.88964
-0.211308
3.28902
-0.201889
3.13716
-0.183897
2.53009
-0.159869
2.05919
-0.130912
1.65947
-0.0909616
1.25927
-0.0469552
0.823971
-0.0163327
0.405051
-0.0066016
0.128593
-0.00208316
0.00699548
-0.0156758
0.000883409
0.306699
-0.0137746
0.757156
-0.0336694
1.10621
-0.0540168
1.39466
-0.0736535
1.67266
-0.0950374
1.94851
-0.117169
2.23354
-0.137284
2.5527
-0.151355
2.90371
-0.154343
3.29201
-0.144131
3.12695
-0.12522
2.51118
-0.0997631
2.03374
-0.0678687
1.62758
-0.0351475
1.22654
-0.00767357
0.796497
0.003453
0.393924
0.00219276
0.129853
7.86123e-05
0.00910963
-0.0155972
0.00338181
0.303317
-0.00582378
0.766362
-0.0224369
1.12282
-0.0404804
1.4127
-0.0575441
1.68972
-0.074821
1.96579
-0.0923893
2.25111
-0.107989
2.5683
-0.11786
2.91358
-0.117808
3.29196
-0.104398
3.11354
-0.0830038
2.48978
-0.0573283
2.00806
-0.0303075
1.60056
-0.00302812
1.19927
0.0161153
0.777354
0.0174307
0.392609
0.0092602
0.138024
0.00219335
0.0161765
-0.0134038
0.00441723
0.2989
-0.0017166
0.772496
-0.016021
1.13713
-0.0325809
1.42926
-0.0487785
1.70592
-0.0640613
1.98107
-0.0782988
2.26534
-0.0899398
2.57994
-0.0962343
2.91987
-0.094108
3.28983
-0.0825005
3.10193
-0.0636112
2.47089
-0.038142
1.98259
-0.00931216
1.57173
0.0140023
1.17595
0.0251675
0.766188
0.0225358
0.395241
0.0120766
0.148483
0.00322589
0.0250271
-0.010178
0.00405848
0.294841
0.000234968
0.776319
-0.0119929
1.14936
-0.027592
1.44486
-0.0434785
1.72181
-0.0580945
1.99569
-0.0711785
2.27843
-0.0816938
2.59045
-0.0872114
2.92539
-0.0833312
3.28595
-0.0689796
3.08758
-0.047362
2.44928
-0.0238501
1.95908
-0.00248812
1.55037
0.0179035
1.15556
0.02807
0.756022
0.0235488
0.399762
0.0127445
0.159287
0.00355522
0.0342165
-0.00662273
0.00251308
0.292328
-0.00091358
0.779746
-0.0112045
1.15965
-0.0246803
1.45834
-0.0394901
1.73662
-0.0542002
2.0104
-0.0678218
2.29205
-0.0782955
2.60093
-0.0825341
2.92963
-0.0774341
3.28085
-0.0643405
3.07449
-0.0458803
2.43082
-0.0246626
1.93786
-0.000194876
1.5259
0.0178665
1.1375
0.0253086
0.74858
0.0217352
0.403335
0.0119884
0.169034
0.00344336
0.0427615
-0.00317937
0.00136494
0.290963
-0.00194434
0.783055
-0.0112186
1.16892
-0.0237193
1.47084
-0.037887
1.75078
-0.052623
2.02513
-0.0669578
2.30638
-0.0786477
2.61262
-0.0845769
2.93556
-0.0804668
3.27674
-0.0644452
3.05847
-0.0435618
2.40993
-0.0228277
1.91713
-0.00485776
1.50793
0.0121941
1.12045
0.0210535
0.739721
0.0181505
0.406238
0.0101559
0.177029
0.00303156
0.0498859
-0.000147804
-0.00048161
0.291445
-0.00450667
0.78708
-0.0128916
1.17731
-0.0239312
1.48188
-0.0369718
1.76383
-0.0515012
2.03966
-0.0666418
2.32152
-0.0799284
2.6259
-0.087459
2.94309
-0.0836666
3.27295
-0.0685165
3.04332
-0.0514543
2.39287
-0.0326285
1.8983
-0.0112219
1.48652
0.00456616
1.10466
0.0123953
0.731891
0.0122521
0.406382
0.00723291
0.182048
0.00231194
0.0548068
0.00216414
-0.00168484
0.293129
-0.00614787
0.791543
-0.01437
1.18553
-0.0251404
1.49265
-0.0377613
1.77645
-0.0518375
2.05374
-0.0671001
2.33679
-0.0819996
2.6408
-0.0928319
2.95392
-0.0924233
3.27254
-0.0769313
3.02782
-0.0558441
2.37178
-0.0360872
1.87855
-0.0207183
1.47115
-0.00521168
1.08915
0.00505084
0.721629
0.00663873
0.404794
0.00441928
0.184267
0.00165329
0.0575728
0.00381743
-0.00311012
0.29624
-0.00844042
0.796873
-0.0164831
1.19357
-0.0264857
1.50265
-0.0383311
1.78829
-0.0519288
2.06734
-0.0673077
2.35217
-0.0833748
2.65687
-0.0968315
2.96738
-0.100204
3.27591
-0.0878752
3.0155
-0.0686178
2.35253
-0.049627
1.85956
-0.0296641
1.45119
-0.0147195
1.07421
-0.00461631
0.711526
0.000308928
0.399868
0.00113099
0.183445
0.00070382
0.058
0.00452125
-0.00384794
0.300088
-0.00969095
0.802716
-0.0178994
1.20178
-0.0280174
1.51277
-0.0397839
1.80006
-0.0529432
2.0805
-0.0678554
2.36708
-0.0843443
2.67336
-0.100911
2.98394
-0.110306
3.28531
-0.100929
3.00612
-0.0784458
2.33004
-0.054561
1.83567
-0.0382619
1.43489
-0.0228782
1.05882
-0.0106217
0.699269
-0.00476559
0.394012
-0.00131652
0.179996
2.00353e-05
0.0566634
0.00454129
-0.00455564
0.304643
-0.0113035
0.809464
-0.019571
1.21005
-0.0292289
1.52243
-0.0404946
1.81132
-0.0532633
2.09327
-0.0679367
2.38175
-0.084644
2.69007
-0.103058
3.00236
-0.117402
3.29965
-0.114063
3.00278
-0.0953364
2.31132
-0.0701438
1.81048
-0.0446306
1.40938
-0.0279755
1.04217
-0.0161683
0.687462
-0.0076217
0.385466
-0.0026126
0.174987
-0.000398893
0.0544497
0.00414239
-0.00488139
0.309525
-0.011954
0.816537
-0.0204138
1.21851
-0.0302871
1.5323
-0.0416077
1.82264
-0.0540468
2.1057
-0.0681934
2.3959
-0.0848169
2.70669
-0.104424
3.02197
-0.122779
3.31801
-0.124346
3.00434
-0.106606
2.29358
-0.0777178
1.78159
-0.0509932
1.38265
-0.02947
1.02064
-0.0153308
0.673323
-0.00755441
0.377689
-0.00240944
0.169842
-0.000386558
0.0524269
0.00375583
-0.00520164
0.314726
-0.0129159
0.824251
-0.0214253
1.22702
-0.0309397
1.54182
-0.0417982
1.8335
-0.0538655
2.11777
-0.0679837
2.41002
-0.0849049
2.72361
-0.104765
3.04183
-0.124953
3.33819
-0.132407
3.0118
-0.121059
2.28223
-0.0956991
1.75623
-0.0588489
1.3458
-0.0287314
0.990527
-0.0123867
0.656978
-0.00301137
0.368314
0.000201028
0.16663
0.000421235
0.0522067
0.00417707
-0.00521849
0.319945
-0.0129973
0.83203
-0.0216486
1.23567
-0.0313314
1.5515
-0.0421275
1.8443
-0.0538937
2.12954
-0.0679397
2.42406
-0.085046
2.74072
-0.104978
3.06176
-0.125738
3.35895
-0.13677
3.02283
-0.128867
2.27433
-0.103267
1.73063
-0.0684515
1.31099
-0.0286979
0.950774
-0.00093765
0.629218
0.00832102
0.359055
0.00754171
0.167409
0.00284506
0.0569033
0.00702213
-0.00529859
0.325243
-0.013415
0.840146
-0.0220496
1.2443
-0.0313913
1.56084
-0.0415384
1.85445
-0.0529323
2.14093
-0.0674462
2.43858
-0.0852709
2.75854
-0.105182
3.08167
-0.125666
3.37944
-0.139424
3.03659
-0.138246
2.27315
-0.119747
1.71213
-0.0795326
1.27077
-0.0321485
0.90339
0.0102129
0.586856
0.0316254
0.337643
0.0282062
0.170828
0.0113372
0.0737723
0.0183593
-0.00512223
0.330366
-0.0130942
0.848118
-0.0217297
1.25294
-0.0311822
1.57029
-0.0409759
1.86424
-0.0521814
2.15214
-0.0671197
2.45351
-0.0854801
2.7769
-0.10529
3.10148
-0.125272
3.39942
-0.139834
3.05115
-0.141681
2.275
-0.123943
1.69439
-0.0894348
1.23626
-0.0358022
0.849757
0.0217098
0.529344
0.0690717
0.290281
0.0840967
0.155803
0.0545839
0.103285
0.0729432
-0.00503526
0.335401
-0.0127113
0.855794
-0.0206376
1.26086
-0.0293893
1.57904
-0.0402816
1.87513
-0.0539975
2.16585
-0.0709845
2.4705
-0.0905526
2.79647
-0.111066
3.12199
-0.130299
3.41865
-0.142973
3.06383
-0.145061
2.27708
-0.133503
1.68283
-0.0968144
1.19958
-0.0427866
0.795729
0.0297729
0.456785
0.105268
0.214786
0.156013
0.105058
0.148165
0.111133
0.221108
-0.00487951
0.34028
-0.0121157
0.863031
-0.0198835
1.26863
-0.0290068
1.58817
-0.0408303
1.88696
-0.0558189
2.18084
-0.0741403
2.48882
-0.0951347
2.81747
-0.117956
3.14481
-0.140695
3.44139
-0.157693
3.08082
-0.162963
2.28235
-0.149476
1.66935
-0.117837
1.16794
-0.0531476
0.73104
0.00883222
0.394805
-0.0456613
0.269279
-0.382857
0.442254
-1.00754
0.735812
0.929005
-1.71543
-0.00478944
0.34507
-0.0121883
0.870429
-0.0200439
1.27649
-0.0289648
1.59709
-0.0399274
1.89792
-0.0542202
2.19513
-0.0729811
2.50758
-0.0953269
2.83981
-0.119798
3.16928
-0.145547
3.46714
-0.168147
3.10342
-0.181551
2.29576
-0.182074
1.66987
-0.151333
1.1372
-0.116314
0.696021
-0.239596
0.518087
-0.76607
0.795753
-1.52292
1.19911
-2.10903
1.32191
1.20524
-2.38526
-0.00447586
0.349546
-0.0115486
0.877502
-0.019313
1.28425
-0.0281371
1.60591
-0.0390936
1.90887
-0.053698
2.20974
-0.0729922
2.52688
-0.0961327
2.86295
-0.122235
3.19539
-0.151356
3.49626
-0.179715
3.13178
-0.200027
2.31607
-0.201769
1.67161
-0.191059
1.12649
-0.310441
0.815403
-0.848635
1.05628
-1.63218
1.57929
-2.1509
1.71784
-2.36981
1.54082
1.30793
-2.4725
-0.0039842
0.35353
-0.0113275
0.884845
-0.0188888
1.29181
-0.0271027
1.61413
-0.0376906
1.91946
-0.0524726
2.22452
-0.0723806
2.54679
-0.0964907
2.88706
-0.124445
3.22334
-0.157699
3.52952
-0.192604
3.16669
-0.224724
2.34819
-0.244256
1.69114
-0.33003
1.21226
-0.726765
1.21214
-1.50718
1.83669
-2.05948
2.1316
-2.28371
1.94206
-2.38892
1.64603
1.37456
-2.45555
-0.00313018
0.35666
-0.00909383
0.890809
-0.0160747
1.29879
-0.0248878
1.62294
-0.0369259
1.9315
-0.0526104
2.24021
-0.0725276
2.5667
-0.0967992
2.91133
-0.126652
3.25319
-0.164366
3.56723
-0.20714
3.20946
-0.246019
2.38707
-0.287613
1.73274
-0.520323
1.44497
-1.20501
1.89683
-1.8692
2.50088
-2.15554
2.41793
-2.28954
2.07606
-2.36685
1.72334
1.4318
-2.42409
-0.00277094
0.359431
-0.00767243
0.895711
-0.0145561
1.30568
-0.0243449
1.63273
-0.0374729
1.94463
-0.0538953
2.25663
-0.0740865
2.58689
-0.0991272
2.93637
-0.131379
3.28544
-0.17415
3.61
-0.223512
3.25882
-0.272141
2.4357
-0.398125
1.85872
-0.822838
1.86968
-1.57468
2.64868
-1.999
2.92519
-2.17359
2.59253
-2.26458
2.16705
-2.3349
1.79367
1.49073
-2.39383
-0.00266
0.362091
-0.00780671
0.900857
-0.0152521
1.31312
-0.0258059
1.64328
-0.0397298
1.95855
-0.0569654
2.27386
-0.0780184
2.60795
-0.104252
2.96261
-0.138869
3.32006
-0.186777
3.65791
-0.244008
3.31605
-0.31158
2.50327
-0.526804
2.07395
-1.14267
2.48555
-1.75646
3.26246
-1.9933
3.16203
-2.12469
2.72393
-2.2247
2.26705
-2.3078
1.87677
1.54909
-2.36616
-0.00299519
0.365086
-0.00921886
0.907081
-0.0173261
1.32123
-0.0279394
1.6539
-0.0418492
1.97246
-0.0594026
2.29142
-0.081399
2.62994
-0.109293
2.9905
-0.146531
3.3573
-0.199499
3.71088
-0.261696
3.37825
-0.363787
2.60536
-0.693615
2.40377
-1.37932
3.17126
-1.80889
3.69203
-1.99765
3.3508
-2.12367
2.84994
-2.22215
2.36554
-2.2958
1.95042
1.5785
-2.32522
-0.00324517
0.368331
-0.00970831
0.913544
-0.0184837
1.33
-0.0298688
1.66528
-0.0444714
1.98707
-0.0627184
2.30966
-0.0855747
2.6528
-0.114764
3.01969
-0.154548
3.39708
-0.211486
3.76781
-0.28113
3.44789
-0.432804
2.75704
-0.868393
2.83936
-1.50655
3.80942
-1.81823
4.0037
-1.9711
3.50367
-2.06043
2.93927
-2.13771
2.44282
-2.18602
1.99874
1.52148
-2.129
-0.00365883
0.37199
-0.0110586
0.920944
-0.0204868
1.33943
-0.0321475
1.67694
-0.0468724
2.00179
-0.0653943
2.32819
-0.0890798
2.67649
-0.119851
3.05046
-0.162302
3.43954
-0.225492
3.831
-0.319998
3.5424
-0.520776
2.95782
-1.02608
3.34467
-1.55864
4.34197
-1.7918
4.23687
-1.92645
3.63831
-2.00508
3.0179
-2.01008
2.44782
-1.92394
1.9126
1.43621
-1.83868
-0.00359907
0.375589
-0.010954
0.928299
-0.0208953
1.34937
-0.0334714
1.68952
-0.0491591
2.01748
-0.068367
2.34739
-0.0923788
2.7005
-0.123395
3.08148
-0.166439
3.48258
-0.226987
3.89155
-0.329009
3.64442
-0.567384
3.19619
-1.10936
3.88665
-1.51228
4.74489
-1.66615
4.39074
-1.74128
3.71344
-1.76841
3.04504
-1.63451
2.31391
-1.11515
1.39324
0.321067
-0.00367044
0.37926
-0.0118867
0.936515
-0.0224418
1.35993
-0.0355031
1.70258
-0.0518962
2.03387
-0.0723275
2.36783
-0.0982713
2.72644
-0.132384
3.11559
-0.179976
3.53017
-0.246725
3.9583
-0.367975
3.76567
-0.671372
3.49959
-1.25507
4.47034
-1.5755
5.06532
-1.68321
4.49845
-1.71177
3.742
-1.60533
2.9386
-1.24464
1.95322
-0.472296
0.620894
-0.151229
-0.00333671
0.382596
-0.0111395
0.944318
-0.0222801
1.37107
-0.03654
1.71684
-0.0544471
2.05178
-0.0765687
2.38995
-0.104645
2.75452
-0.141594
3.15254
-0.193038
3.58162
-0.267341
4.0326
-0.419663
3.91799
-0.797073
3.877
-1.36678
5.04005
-1.59403
5.29257
-1.66038
4.56481
-1.62822
3.70984
-1.36342
2.67379
-0.637307
1.22711
-0.0167305
0.000318217
-0.167959
-0.00277468
0.385371
-0.0116936
0.953237
-0.0234763
1.38285
-0.0379577
1.73132
-0.056155
2.06998
-0.0792685
2.41306
-0.109338
2.78459
-0.14944
3.19264
-0.20442
3.6366
-0.295656
4.12384
-0.480963
4.1033
-0.919555
4.31559
-1.43918
5.55967
-1.59524
5.44863
-1.62941
4.59898
-1.47803
3.55846
-0.971937
2.1677
-0.165292
0.420468
0.03871
-0.203683
-0.129249
-0.002148
0.387519
-0.00966186
0.960751
-0.0215953
1.39479
-0.0372468
1.74697
-0.057047
2.08978
-0.0818964
2.43791
-0.114112
2.8168
-0.157208
3.23574
-0.215071
3.69446
-0.315315
4.22408
-0.527568
4.31555
-1.03946
4.82748
-1.47113
5.99135
-1.57145
5.54895
-1.54631
4.57384
-1.26067
3.27282
-0.499424
1.40645
0.00671486
-0.0856703
0.024766
-0.221735
-0.104483
-0.00117373
0.388693
-0.00920164
0.968779
-0.0213395
1.40692
-0.0368248
1.76246
-0.0564729
2.10942
-0.0819832
2.46342
-0.115931
2.85075
-0.162301
3.28211
-0.224626
3.75679
-0.334673
4.33413
-0.579368
4.56025
-1.1333
5.38141
-1.44727
6.30531
-1.5014
5.60308
-1.40908
4.48152
-0.970326
2.83407
-0.153251
0.589378
0.0191598
-0.258081
0.0174807
-0.220056
-0.0870027
0.00100816
0.387685
-0.0047962
0.974583
-0.0165165
1.41864
-0.0328017
1.77874
-0.0538632
2.13049
-0.0808178
2.49037
-0.116486
2.88642
-0.165274
3.33089
-0.231103
3.82261
-0.350159
4.45318
-0.631854
4.84194
-1.18606
5.93562
-1.40692
6.52617
-1.43001
5.62617
-1.20988
4.26139
-0.571977
2.19616
-0.00590388
0.0233051
0.0145044
-0.278489
0.00687711
-0.212428
-0.0801256
0.00245012
0.385234
-0.00221584
0.979249
-0.0132303
1.42966
-0.0286716
1.79418
-0.0487705
2.15058
-0.0756564
2.51726
-0.11215
2.92291
-0.162292
3.38104
-0.233884
3.89421
-0.365033
4.58433
-0.678829
5.15574
-1.18698
6.44378
-1.33422
6.6734
-1.30816
5.60011
-0.985197
3.93843
-0.281043
1.49201
-0.017668
-0.240069
-0.000985049
-0.295172
-0.00157942
-0.211834
-0.081705
0.00668673
0.378548
0.00587985
0.980056
-0.00325869
1.4388
-0.0187015
1.80963
-0.0396264
2.17151
-0.0672217
2.54486
-0.104295
2.95999
-0.155204
3.43194
-0.229767
3.96877
-0.369377
4.72394
-0.706348
5.49271
-1.1417
6.87913
-1.21205
6.74376
-1.15175
5.5398
-0.791963
3.57864
-0.0579362
0.757983
0.0182109
-0.316217
0.0241613
-0.301122
0.00995473
-0.197627
-0.0717503
0.0101944
0.368353
0.0126277
0.977623
0.00582752
1.4456
-0.00754593
1.823
-0.0262961
2.19026
-0.0526748
2.57123
-0.0891772
2.99649
-0.138735
3.4815
-0.217246
4.04728
-0.366363
4.87306
-0.707477
5.83383
-1.04915
7.2208
-1.0917
6.78631
-0.967941
5.41604
-0.521177
3.13188
0.0697273
0.167078
0.0729148
-0.319404
0.0572017
-0.285409
0.0217729
-0.162198
-0.0499774
0.0175304
0.350823
0.0271689
0.967984
0.02478
1.44799
0.0129029
1.83488
-0.00580968
2.20897
-0.031731
2.59716
-0.0671091
3.03187
-0.115166
3.52956
-0.189824
4.12194
-0.327043
5.01028
-0.663308
6.17009
-0.923607
7.4811
-0.94967
6.81237
-0.780119
5.24649
-0.296727
2.64849
0.036814
-0.166463
0.0658541
-0.348444
0.0547859
-0.274341
0.0193562
-0.126769
-0.0306212
0.0245861
0.326237
0.0415683
0.951002
0.0440298
1.44552
0.0361656
1.84274
0.0216158
2.22352
-0.001329
2.6201
-0.0343086
3.06485
-0.0802374
3.57549
-0.148967
4.19067
-0.272161
5.13348
-0.578926
6.47685
-0.764017
7.66619
-0.776922
6.82527
-0.61803
5.0876
-0.193695
2.22415
-0.0822837
-0.277874
-0.020713
-0.410015
0.0203288
-0.315383
0.012314
-0.118754
-0.0183072
0.0366331
0.289604
0.065998
0.921637
0.0766179
1.43491
0.07281
1.84655
0.060624
2.23571
0.0401181
2.64061
0.0110831
3.09388
-0.030665
3.61724
-0.0929821
4.25299
-0.195627
5.23612
-0.430335
6.71156
-0.563015
7.79887
-0.588586
6.85085
-0.459605
4.95862
-0.115804
1.88035
-0.109523
-0.284155
-0.0686331
-0.450905
-0.0153503
-0.368666
0.0151601
-0.149264
-0.00314709
0.0488579
0.240746
0.0921699
0.878325
0.111803
1.41527
0.115628
1.84272
0.111036
2.2403
0.0964352
2.65521
0.0730926
3.11722
0.0362451
3.65408
-0.0204365
4.30967
-0.111914
5.3276
-0.231767
6.83142
-0.317666
7.88477
-0.345557
6.87874
-0.284086
4.89714
-0.118565
1.71483
-0.208857
-0.193863
-0.172545
-0.487216
-0.0985197
-0.442691
-0.000248459
-0.247535
-0.00339555
0.0642186
0.176527
0.126902
0.815641
0.16355
1.37862
0.17776
1.82851
0.179108
2.23895
0.170035
2.66428
0.153456
3.1338
0.125786
3.68175
0.0853626
4.35009
0.0421951
5.37076
0.0154963
6.85812
-0.00578908
7.90606
-0.051856
6.9248
-0.091685
4.93697
-0.141108
1.76426
-0.354295
0.019323
-0.329289
-0.512222
-0.227891
-0.544089
-0.0649681
-0.410458
-0.0683636
0.066335
0.110192
0.160965
0.721011
0.221783
1.31781
0.252679
1.79762
0.265172
2.22646
0.265341
2.66411
0.2567
3.14244
0.240844
3.69761
0.216307
4.37463
0.208659
5.37841
0.28805
6.77872
0.339419
7.85469
0.356142
6.90808
0.233631
5.05948
-0.0399399
2.03783
-0.356045
0.335428
-0.428246
-0.440021
-0.329211
-0.643124
-0.15796
-0.58171
-0.226323
0.0570627
0.0531295
0.197422
0.580652
0.299499
1.21573
0.35122
1.7459
0.372974
2.2047
0.382773
2.65431
0.382882
3.14234
0.385383
3.69511
0.374527
4.38548
0.362086
5.39085
0.571243
6.56957
0.772361
7.65357
0.871004
6.80944
0.764945
5.16554
0.21585
2.58692
-0.0873246
0.638603
-0.242197
-0.285148
-0.268938
-0.616383
-0.173246
-0.677402
-0.399569
0.0427022
0.0104273
0.242835
0.380519
0.378231
1.08033
0.458088
1.66604
0.503705
2.15909
0.529535
2.62848
0.541774
3.1301
0.557944
3.67894
0.579659
4.36377
0.628705
5.34181
0.932551
6.26572
1.30456
7.28156
1.5238
6.5902
1.48642
5.20292
0.825861
3.24748
0.347387
1.11708
0.0556734
0.00656596
-0.126287
-0.434423
-0.13254
-0.671149
-0.53211
0.0256238
-0.0151965
0.240147
0.165996
0.467
0.853481
0.598685
1.53435
0.665922
2.09185
0.705474
2.58893
0.734745
3.10082
0.759128
3.65456
0.816011
4.30689
0.933897
5.22392
1.33844
5.86117
1.87527
6.74474
2.16918
6.29629
2.26809
5.104
1.93525
3.58033
1.20594
1.84639
0.599046
0.613455
0.196573
-0.0319497
0.0212734
-0.49585
-0.510836
0.0225946
-0.0377911
0.165548
0.0230424
0.524386
0.494643
0.748383
1.31036
0.860534
1.9797
0.918813
2.53065
0.963558
3.05608
0.997142
3.62097
1.07784
4.22619
1.24042
5.06134
1.66291
5.43868
2.38164
6.02601
2.69993
5.978
2.85959
4.94434
2.62794
3.81198
1.92177
2.55256
1.19297
1.34226
0.639369
0.52165
0.221331
-0.0778111
-0.289506
0.00209125
-0.0398824
0.0716815
-0.0465478
0.410112
0.156212
0.748787
0.971682
0.922152
1.80633
0.980514
2.47229
0.994145
3.04245
0.990488
3.62463
1.00714
4.20954
1.06717
5.0013
1.29106
5.2148
1.84139
5.47568
1.82221
5.99718
1.89133
4.87522
1.7844
3.91891
1.42645
2.91052
0.914018
1.85468
0.495376
0.940292
0.189835
0.22773
-0.0996708
0.000535464
-0.0404178
0.0343937
-0.0804061
0.188965
0.00164101
0.567849
0.592798
0.785888
1.5883
0.873468
2.38471
0.896153
3.01976
0.897208
3.62357
0.876485
4.23027
0.907956
4.96983
1.00857
5.11418
1.30427
5.17998
1.57361
5.72784
1.58016
4.86866
1.52483
3.97424
1.33146
3.10389
0.972942
2.2132
0.588291
1.32494
0.229979
0.586042
0.130308
-0.00554082
-0.034877
0.00152775
-0.0874746
0.0630769
-0.0599082
0.382233
0.273642
0.636478
1.33405
0.751041
2.27015
0.777321
2.99348
0.779822
3.62107
0.755072
4.25502
0.757412
4.96749
0.800818
5.07078
1.0313
4.9495
1.27103
5.48812
1.25134
4.88835
1.18982
4.03576
1.05345
3.24026
0.819873
2.44677
0.519637
1.62518
0.213138
0.892541
0.343446
-0.008304
-0.026573
-0.00427125
-0.0915074
0.0348693
-0.0990487
0.2293
0.0792108
0.492879
1.07047
0.622135
2.14089
0.652791
2.96283
0.649546
3.62432
0.62544
4.27912
0.615697
4.97723
0.632998
5.05348
0.770404
4.81209
0.946437
5.31208
0.921909
4.91288
0.859347
4.09832
0.75317
3.34644
0.590967
2.60898
0.380621
1.83553
0.162081
1.11108
0.505528
-0.00575849
-0.0208145
0.0152199
-0.112486
0.052192
-0.136021
0.142459
-0.0110561
0.376233
0.836699
0.48783
2.02929
0.515269
2.93539
0.513797
3.62579
0.498064
4.29486
0.491722
4.98357
0.491036
5.05416
0.54904
4.75409
0.644554
5.21657
0.646994
4.91044
0.580032
4.16528
0.48855