/*--------------------------------*- C++ -*----------------------------------*\
  =========                 |
  \\      /  F ield         | OpenFOAM: The Open Source CFD Toolbox
   \\    /   O peration     | Website:  https://openfoam.org
    \\  /    A nd           | Version:  6
     \\/     M anipulation  |
\*---------------------------------------------------------------------------*/
FoamFile
{
    version     2.0;
    format      ascii;
    class       surfaceScalarField;
    location    "15.5";
    object      phi;
}
// * * * * * * * * * * * * * * * * * * * * * * * * * * * * * * * * * * * * * //

dimensions      [0 3 -1 0 0 0 0];

internalField   nonuniform List<scalar> 
17370
(
-0.0899962
0.0898413
0.289166
-0.0714523
0.0537391
0.364489
-0.0380963
0.0276433
0.426621
-0.0195555
0.0144956
0.504312
-0.0106448
0.0081647
0.601882
-0.00617826
0.0048078
0.720428
-0.00364962
0.0028217
0.863734
-0.00211016
0.00158373
1.03598
-0.00109614
0.000708671
1.24289
-0.00031971
-5.59645e-05
1.49157
0.000419357
-0.000803857
1.49158
0.00119161
-0.00167799
1.24318
0.00219972
-0.00290364
1.03634
0.00372523
-0.00487587
0.864057
0.00623784
-0.00821525
0.721035
0.0106893
-0.0145357
0.603061
0.0195922
-0.0276758
0.507523
0.0381243
-0.0537623
0.431806
0.0714712
-0.0898539
0.365158
0.0900038
0.199007
-0.128154
0.0882823
0.0398719
-0.364612
0.353433
-0.0745822
0.0857612
-0.446473
0.454309
-0.0842293
0.0763934
-0.521208
0.529833
-0.0683456
0.0597203
-0.612771
0.62156
-0.0515914
0.0428021
-0.726845
0.734199
-0.0352627
0.0279091
-0.867444
0.872511
-0.0222756
0.0172091
-1.03846
1.04182
-0.0134767
0.0101172
-1.24462
1.24698
-0.0075703
0.00520283
-1.4927
1.4946
-0.00329964
0.00139891
-1.49244
1.49414
0.00027358
-0.00196593
-1.24401
1.24588
0.00384448
-0.00571393
-1.03749
1.04
0.00804009
-0.0105468
-0.866071
0.869769
0.0138628
-0.0175615
-0.724349
0.729961
0.0225984
-0.0282105
-0.608682
0.616192
0.0355406
-0.0430512
-0.514927
0.523029
0.0518075
-0.059909
-0.439876
0.447906
0.0685085
-0.0765389
-0.375307
0.376812
0.0843546
-0.08586
-0.257381
0.222629
0.0746492
-0.0398976
-0.0686025
0.0588133
0.00978921
-0.0515802
0.058097
-0.374195
0.367678
-0.0570913
0.0532264
-0.453585
0.457449
-0.047999
0.0439411
-0.527887
0.531945
-0.0400478
0.0364316
-0.621538
0.625155
-0.0324326
0.0285002
-0.735359
0.739291
-0.0240902
0.0200322
-0.874256
0.878314
-0.0158134
0.0122286
-1.04332
1.0469
-0.00866218
0.00564464
-1.2484
1.25142
-0.00247663
-0.000525371
-1.4965
1.4995
0.00349988
-0.00662317
-1.49709
1.50021
0.00959724
-0.0131112
-1.24994
1.25346
0.0166394
-0.020791
-1.04588
1.05003
0.0247807
-0.0291147
-0.877847
0.882181
0.0329853
-0.0369322
-0.740003
0.74395
0.0405071
-0.0443523
-0.626822
0.630667
0.0483679
-0.0535551
-0.534839
0.540026
0.057377
-0.0583311
-0.4576
0.458554
0.0517567
-0.0317512
-0.335994
0.315989
0.00981862
-0.0685211
0.0587025
-0.05313
0.0492221
0.00390792
-0.0326158
0.0429871
-0.358371
0.348
-0.0466309
0.0460437
-0.45944
0.460028
-0.0430641
0.0397422
-0.535923
0.539245
-0.0359439
0.0326234
-0.628503
0.631824
-0.0291818
0.0261406
-0.742408
0.74545
-0.022906
0.0198744
-0.881615
0.884647
-0.0164892
0.0132907
-1.05031
1.05351
-0.00974159
0.00644827
-1.25473
1.25802
-0.00276432
-0.000747782
-1.50294
1.50645
0.00425182
-0.00788541
-1.50378
1.50741
0.0111139
-0.0145757
-1.25705
1.26051
0.0176879
-0.0209844
-1.05362
1.05692
0.0239422
-0.027091
-0.885522
0.888671
0.0300449
-0.0333943
-0.747284
0.750633
0.0366421
-0.0403732
-0.634556
0.638287
0.0436355
-0.0465469
-0.544472
0.547383
0.0470652
-0.0433285
-0.456981
0.453244
0.0328501
-0.0158036
-0.29695
0.279904
0.00394316
-0.0529891
0.0490459
-0.0462364
0.0438603
0.00237611
-0.0218312
0.0317788
-0.337564
0.327616
-0.0372801
0.0381615
-0.459673
0.458792
-0.0369475
0.0347793
-0.54179
0.543958
-0.0322945
0.0298402
-0.634814
0.637269
-0.0269109
0.0241371
-0.748461
0.751235
-0.0210426
0.018286
-0.887595
0.890352
-0.0152671
0.0124561
-1.05655
1.05936
-0.00923851
0.00613187
-1.26123
1.26434
-0.00251034
-0.00104901
-1.50995
1.51351
0.00458179
-0.0081284
-1.511
1.51454
0.0111421
-0.0142269
-1.26384
1.26692
0.0169035
-0.0197745
-1.06003
1.0629
0.0224045
-0.0253695
-0.891817
0.894782
0.0280406
-0.0308617
-0.753882
0.756704
0.0332171
-0.0356024
-0.641342
0.643727
0.0376968
-0.0388179
-0.54915
0.550271
0.0378411
-0.032204
-0.448223
0.442586
0.022112
-0.00960623
-0.265195
0.252689
0.00241743
-0.0460212
0.0436037
-0.0419315
0.0403461
0.00158538
-0.0152365
0.0237621
-0.318338
0.309812
-0.0298516
0.0317764
-0.457419
0.455494
-0.0312947
0.0296412
-0.545918
0.547571
-0.0275416
0.0255839
-0.639337
0.641294
-0.0234097
0.0213568
-0.753605
0.755658
-0.0189289
0.0165311
-0.892918
0.895315
-0.0137324
0.0110941
-1.06204
1.06468
-0.00808509
0.00521963
-1.26733
1.27019
-0.00189049
-0.00136364
-1.51701
1.52026
0.00458372
-0.00782583
-1.51798
1.52122
0.0105781
-0.0134529
-1.26987
1.27274
0.0159513
-0.0185817
-1.06565
1.06828
0.0208172
-0.0230708
-0.897386
0.899639
0.0249832
-0.0270101
-0.758988
0.761015
0.0288407
-0.0308016
-0.645834
0.647794
0.0323275
-0.0326614
-0.55102
0.551354
0.0305815
-0.0242951
-0.436557
0.43027
0.0155814
-0.00650741
-0.242047
0.232973
0.00163709
-0.0416283
0.0399912
-0.0390445
0.0379763
0.00106826
-0.0103982
0.0170825
-0.302173
0.295489
-0.0228199
0.0253382
-0.453166
0.450648
-0.025598
0.0247152
-0.548828
0.549711
-0.0231561
0.0216463
-0.643077
0.644586
-0.0199305
0.0182715
-0.757507
0.759166
-0.0163239
0.014392
-0.897493
0.899425
-0.0120904
0.0097796
-1.06721
1.06953
-0.00704803
0.00436961
-1.27297
1.27565
-0.00125657
-0.00176026
-1.52334
1.52635
0.00474066
-0.00774274
-1.52433
1.52733
0.010261
-0.0127778
-1.27549
1.278
0.0148845
-0.0169604
-1.07067
1.07275
0.0186862
-0.0204078
-0.901592
0.903314
0.0218817
-0.0233907
-0.762841
0.76435
0.0247221
-0.0261179
-0.649507
0.650903
0.0268479
-0.0264145
-0.551252
0.550818
0.023704
-0.0177211
-0.424022
0.418039
0.0108092
-0.00442541
-0.225304
0.21892
0.00113052
-0.0386337
0.0375032
-0.037123
0.0365031
0.000619946
-0.00613613
0.0108301
-0.289781
0.285087
-0.0157248
0.0184671
-0.448018
0.445276
-0.0193551
0.0191771
-0.550252
0.55043
-0.0182994
0.0173585
-0.645793
0.646734
-0.0161831
0.0148949
-0.760635
0.761924
-0.0133198
0.0117377
-0.901161
0.902743
-0.00982687
0.00791913
-1.0716
1.07351
-0.00561012
0.0032937
-1.27816
1.28048
-0.000494014
-0.0023105
-1.5293
1.5321
0.00505982
-0.00770866
-1.53018
1.53283
0.00983114
-0.0118876
-1.28027
1.28233
0.0135396
-0.0151559
-1.07456
1.07618
0.0164712
-0.0177677
-0.904828
0.906125
0.0187477
-0.0196481
-0.765544
0.766444
0.0203625
-0.0210077
-0.651945
0.65259
0.0209534
-0.0197994
-0.550067
0.548913
0.0167851
-0.0115778
-0.412403
0.407196
0.00661779
-0.00263624
-0.213756
0.209774
0.000696064
-0.0365801
0.035884
-0.0361174
0.035928
0.000189347
-0.00265445
0.00539145
-0.281417
0.27868
-0.00896893
0.0115452
-0.442515
0.439939
-0.0129448
0.0132753
-0.550287
0.549957
-0.0129285
0.0123623
-0.64748
0.648046
-0.0116627
0.0109647
-0.762935
0.763633
-0.0100249
0.00894038
-0.904112
0.905196
-0.00750426
0.00595221
-1.07526
1.07681
-0.00400138
0.00200277
-1.28262
1.28462
0.000434185
-0.00287828
-1.53472
1.53717
0.00525372
-0.00749419
-1.53525
1.53749
0.00924443
-0.0108628
-1.28418
1.2858
0.012067
-0.0130976
-1.07755
1.07859
0.013781
-0.0142874
-0.907075
0.907581
0.014672
-0.0150724
-0.767089
0.767489
0.0153798
-0.0154286
-0.652887
0.652936
0.0148281
-0.0131127
-0.547383
0.545667
0.010222
-0.00628866
-0.402565
0.398631
0.00324115
-0.00116883
-0.20686
0.204788
0.000281436
-0.0354162
0.0351348
-0.035874
0.0358871
-1.31809e-05
-0.0010344
0.00258718
-0.276668
0.275116
-0.00492854
0.0068489
-0.437703
0.435782
-0.00809018
0.00853004
-0.549558
0.549118
-0.00857362
0.0083643
-0.648421
0.648631
-0.0079579
0.00749062
-0.764145
0.764613
-0.00683518
0.00608379
-0.906033
0.906785
-0.00502236
0.00382294
-1.07815
1.07934
-0.00224738
0.000563009
-1.28645
1.28814
0.00151609
-0.00358586
-1.53943
1.5415
0.00558119
-0.00743089
-1.53953
1.54138
0.00880285
-0.00996107
-1.28715
1.28831
0.0107551
-0.0113654
-1.07932
1.07993
0.0117583
-0.0120574
-0.907846
0.908145
0.0121525
-0.012036
-0.767622
0.767506
0.0118165
-0.0113741
-0.652751
0.652309
0.0105475
-0.00887407
-0.543945
0.542272
0.00654153
-0.00374172
-0.395362
0.392562
0.00178756
-0.000569499
-0.203274
0.202056
0.000104553
-0.0349747
0.0348701
-0.0359191
0.0359508
-3.16779e-05
-0.00068387
0.00189854
-0.273793
0.272578
-0.00389175
0.00570574
-0.434004
0.43219
-0.00707878
0.00772286
-0.548587
0.547943
-0.00790373
0.00786419
-0.648725
0.648765
-0.0075922
0.00709597
-0.765099
0.765595
-0.00634057
0.00546507
-0.907588
0.908464
-0.00428219
0.00298058
-1.08055
1.08185
-0.00129925
-0.000440813
-1.28978
1.29152
0.00252179
-0.00451329
-1.54346
1.54545
0.00640735
-0.00819478
-1.54313
1.54492
0.00954881
-0.0107356
-1.28943
1.29062
0.0115384
-0.0121334
-1.08054
1.08113
0.0124213
-0.0125088
-0.908406
0.908494
0.0124294
-0.0121843
-0.767254
0.767008
0.0117659
-0.0111098
-0.651707
0.651051
0.0100488
-0.00817147
-0.540581
0.538703
0.00585826
-0.00330313
-0.389983
0.387428
0.00159842
-0.000538388
-0.200956
0.199896
0.000110529
-0.0347736
0.0346631
-0.0359822
0.036018
-3.5825e-05
-0.000405276
0.00140561
-0.271455
0.270454
-0.00335129
0.00551262
-0.430225
0.428063
-0.00763035
0.00892063
-0.54709
0.5458
-0.00961012
0.00974165
-0.648772
0.648641
-0.00947168
0.00885048
-0.766092
0.766713
-0.00791225
0.00676938
-0.909433
0.910576
-0.00520053
0.00349741
-1.08332
1.08502
-0.00136071
-0.000801329
-1.29345
1.29561
0.00335061
-0.00579342
-1.54762
1.55007
0.00811607
-0.0103029
-1.54687
1.54906
0.0119808
-0.0134463
-1.29192
1.29338
0.0144726
-0.0152932
-1.08179
1.08261
0.0157753
-0.0160323
-0.908547
0.908804
0.0158783
-0.0153958
-0.766732
0.76625
0.014774
-0.0134034
-0.650175
0.648805
0.0114766
-0.00863946
-0.536413
0.533576
0.00581803
-0.003164
-0.384808
0.382154
0.00155268
-0.000573017
-0.198866
0.197887
0.000143721
-0.0345344
0.0343906
-0.0360651
0.0361358
-7.0675e-05
6.66907e-05
0.00054059
-0.269628
0.269021
-0.00208445
0.00423302
-0.425818
0.423669
-0.0069091
0.00901987
-0.544053
0.541942
-0.0105769
0.0109937
-0.648363
0.647946
-0.010873
0.0104114
-0.76731
0.767772
-0.00933441
0.00787994
-0.911902
0.913356
-0.00588039
0.00375184
-1.08697
1.08909
-0.00114011
-0.00145261
-1.29801
1.3006
0.00449733
-0.00742906
-1.55279
1.55572
0.0101979
-0.012761
-1.55147
1.55404
0.0146924
-0.0164559
-1.29505
1.29681
0.0177425
-0.0187435
-1.08356
1.08456
0.0192785
-0.0193535
-0.909037
0.909112
0.019079
-0.0184064
-0.765681
0.765008
0.0169959
-0.0144917
-0.64684
0.644336
0.0115731
-0.00803417
-0.530277
0.526738
0.00510727
-0.00271991
-0.379576
0.377189
0.00137387
-0.000549835
-0.196981
0.196157
0.000154925
-0.0342397
0.0340847
-0.0362282
0.0363551
-0.000126877
0.000573169
-0.000494215
-0.268669
0.26859
-0.000297134
0.00177219
-0.421787
0.420312
-0.00400256
0.00610381
-0.539708
0.537607
-0.00801406
0.00914028
-0.647193
0.646067
-0.0093588
0.0088405
-0.768214
0.768732
-0.00764422
0.00615018
-0.914887
0.916382
-0.00411157
0.00194224
-1.09129
1.09346
0.000726769
-0.00338144
-1.30328
1.30593
0.00647925
-0.0094276
-1.55873
1.56168
0.0121692
-0.0146465
-1.55664
1.55912
0.016483
-0.0180208
-1.29852
1.30006
0.019036
-0.0197561
-1.08547
1.08619
0.0199808
-0.0198561
-0.909058
0.908934
0.0193263
-0.017829
-0.76401
0.762513
0.015699
-0.0127603
-0.641491
0.638552
0.00972808
-0.00649048
-0.52324
0.520002
0.00408864
-0.00225998
-0.375071
0.373242
0.00122142
-0.000529264
-0.19541
0.194718
0.000159147
-0.0339302
0.0337711
-0.0365082
0.0366958
-0.000187654
0.00109343
-0.00142048
-0.268685
0.269012
0.00141386
-0.000857234
-0.419297
0.41874
-0.00032217
0.0015798
-0.535932
0.534674
-0.00279919
0.00357202
-0.645094
0.644321
-0.00385965
0.00356669
-0.769159
0.769452
-0.00273798
0.00156105
-0.917696
0.918873
0.0001352
-0.00199794
-1.09546
1.09732
0.00432909
-0.00665609
-1.30843
1.31076
0.00934462
-0.0118188
-1.56442
1.56689
0.0140256
-0.0158805
-1.56133
1.56318
0.017086
-0.0180474
-1.30137
1.30233
0.0185244
-0.0186523
-1.08665
1.08677
0.0183979
-0.0176491
-0.908534
0.907785
0.0164261
-0.0146369
-0.760705
0.758915
0.0125894
-0.0100392
-0.635762
0.633212
0.00762038
-0.00519856
-0.517175
0.514753
0.00345753
-0.00209551
-0.37168
0.370318
0.0012334
-0.000569162
-0.19406
0.193395
0.000176487
-0.0336112
0.0334347
-0.0369122
0.0371543
-0.00024209
0.00148768
-0.00216198
-0.269497
0.270171
0.00268685
-0.00284544
-0.418597
0.418756
0.00262249
-0.00221809
-0.533933
0.533529
0.00178683
-0.00158596
-0.643924
0.643723
0.00168247
-0.00209887
-0.769777
0.770194
0.00291596
-0.00396631
-0.919902
0.920953
0.00541593
-0.00697635
-1.09897
1.10053
0.00890716
-0.0108024
-1.31282
1.31472
0.0129263
-0.0147858
-1.56903
1.57089
0.0163018
-0.0174119
-1.5647
1.56581
0.017953
-0.0180962
-1.30284
1.30298
0.017942
-0.0173689
-1.08649
1.08591
0.0165402
-0.0153258
-0.906745
0.905531
0.0139606
-0.0122271
-0.757147
0.755414
0.0104625
-0.00842454
-0.630966
0.628928
0.00660105
-0.00480657
-0.512724
0.51093
0.00346335
-0.00229254
-0.369097
0.367927
0.00143391
-0.000686584
-0.192713
0.191966
0.000216866
-0.0332531
0.0330363
-0.0374405
0.0377457
-0.000305167
0.00191267
-0.00284524
-0.270983
0.271915
0.00377595
-0.0044182
-0.419175
0.419817
0.00483958
-0.00509652
-0.533633
0.53389
0.00537363
-0.0057477
-0.643925
0.644299
0.00636576
-0.00714341
-0.770724
0.771502
0.00822179
-0.00939035
-0.921918
0.923087
0.0108438
-0.0122955
-1.10194
1.10339
0.0139886
-0.0155636
-1.31637
1.31794
0.0172089
-0.0185039
-1.57241
1.57371
0.019372
-0.0197274
-1.56659
1.56695
0.0196045
-0.0191339
-1.30278
1.30231
0.0184338
-0.0173767
-1.08496
1.0839
0.01619
-0.0147232
-0.904114
0.902647
0.0132722
-0.0115963
-0.753695
0.752019
0.0100177
-0.00828542
-0.627124
0.625391
0.00676591
-0.0052312
-0.509378
0.507843
0.00398471
-0.0027647
-0.36679
0.36557
0.00177795
-0.000865421
-0.19117
0.190258
0.000276478
-0.0328163
0.0325398
-0.0381142
0.0384973
-0.000383093
0.00242113
-0.00363241
-0.273037
0.274248
0.00490466
-0.00591465
-0.420739
0.421749
0.00681467
-0.00757207
-0.534595
0.535353
0.00845945
-0.00939375
-0.645037
0.645971
0.0105566
-0.0117513
-0.772385
0.77358
0.0132056
-0.0146465
-0.924206
0.925647
0.0163199
-0.0178876
-1.10475
1.10631
0.0195791
-0.0210164
-1.31933
1.32077
0.0223553
-0.0232188
-1.57472
1.57558
0.0235577
-0.0233112
-1.567
1.56676
0.0226584
-0.0216209
-1.30154
1.3005
0.0204177
-0.0189294
-1.08253
1.08105
0.0174508
-0.0157668
-0.900985
0.899301
0.014206
-0.0124978
-0.750284
0.748576
0.0109519
-0.00928884
-0.623774
0.622111
0.0078167
-0.0062614
-0.506449
0.504894
0.00489211
-0.00344254
-0.364356
0.362906
0.00222454
-0.00108572
-0.189289
0.188151
0.000347045
-0.0322684
0.0319213
-0.038971
0.039462
-0.000491007
0.0030846
-0.00463999
-0.275719
0.277274
0.00631556
-0.00771737
-0.423126
0.424528
0.00907093
-0.0102568
-0.536574
0.537759
0.0116393
-0.0130635
-0.64717
0.648594
0.0147787
-0.0164715
-0.774884
0.776576
0.0184508
-0.0203181
-0.927054
0.928922
0.0223649
-0.024168
-1.10778
1.10958
0.0259953
-0.027431
-1.32206
1.3235
0.0286102
-0.0291661
-1.57622
1.57677
0.0290763
-0.0283266
-1.56623
1.56548
0.0271928
-0.0256005
-1.29915
1.29756
0.0239368
-0.0219891
-1.07926
1.07731
0.020171
-0.0181891
-0.897356
0.895374
0.0164187
-0.0145379
-0.746682
0.744801
0.0128671
-0.0110757
-0.620438
0.618647
0.00945845
-0.00768191
-0.503436
0.501659
0.0060622
-0.00430785
-0.361501
0.359746
0.00279388
-0.00135866
-0.186954
0.185519
0.000433033
-0.0315809
0.0311479
-0.0400678
0.0407234
-0.000655626
0.00404012
-0.00607061
-0.279169
0.2812
0.00827372
-0.0101288
-0.42635
0.428205
0.0119466
-0.0135638
-0.539499
0.541116
0.0154439
-0.0173645
-0.650304
0.652224
0.019696
-0.0219692
-0.778312
0.780586
0.0245489
-0.0268991
-0.930704
0.933054
0.0293995
-0.0315383
-1.11132
1.11346
0.0336213
-0.0351636
-1.32484
1.32638
0.036289
-0.0366104
-1.57712
1.57745
0.0361298
-0.03486
-1.56444
1.56317
0.0332176
-0.0310657
-1.29567
1.29352
0.0289108
-0.0264565
-1.07507
1.07261
0.0242112
-0.0218116
-0.893051
0.890651
0.019707
-0.0175084
-0.742603
0.740404
0.0155764
-0.0135084
-0.616742
0.614674
0.0116176
-0.00949993
-0.499985
0.497867
0.00754104
-0.00537267
-0.358017
0.355848
0.00349176
-0.00169703
-0.184043
0.182249
0.000539049
-0.0307278
0.0301888
-0.0414962
0.0423864
-0.000890166
0.00538942
-0.00807728
-0.283616
0.286303
0.0109854
-0.0134176
-0.43056
0.432993
0.015798
-0.0179283
-0.543436
0.545566
0.0204213
-0.0229592
-0.654514
0.657052
0.0259961
-0.0289031
-0.78285
0.785757
0.0321341
-0.0350382
-0.935363
0.938267
0.0380852
-0.0406418
-1.11557
1.11813
0.0430615
-0.0447618
-1.32783
1.32953
0.0458581
-0.0459411
-1.57754
1.57762
0.0450414
-0.0432016
-1.56157
1.55973
0.0409897
-0.0381964
-1.29104
1.28824
0.0354628
-0.0323937
-1.06981
1.06674
0.0296138
-0.0266667
-0.887838
0.884891
0.024103
-0.0214496
-0.737767
0.735113
0.0191357
-0.0166691
-0.61238
0.609913
0.0144001
-0.0118241
-0.495831
0.493255
0.00939759
-0.00669694
-0.353716
0.351015
0.00434571
-0.00210774
-0.180412
0.178174
0.000668386
-0.029672
0.0290036
-0.0433899
0.0446111
-0.00122117
0.00729725
-0.0108822
-0.28938
0.292965
0.0146967
-0.017835
-0.436032
0.439171
0.020889
-0.0236493
-0.548585
0.551345
0.0269197
-0.0302286
-0.660018
0.663327
0.0341311
-0.0378118
-0.788707
0.792388
0.0418566
-0.0454462
-0.941199
0.944789
0.0491573
-0.0521996
-1.12069
1.12373
0.0549783
-0.0568185
-1.33113
1.33297
0.0578283
-0.0575894
-1.57743
1.5772
0.0561702
-0.0536447
-1.5575
1.55497
0.050754
-0.0471955
-1.28505
1.28149
0.0437658
-0.0399515
-1.06326
1.05944
0.036517
-0.0328891
-0.88145
0.877822
0.0297445
-0.0265047
-0.731898
0.728658
0.0236929
-0.020707
-0.607092
0.604106
0.017951
-0.0147945
-0.49073
0.487574
0.0117615
-0.00838313
-0.348376
0.344998
0.00543568
-0.00263373
-0.175908
0.173106
0.000833637
-0.0283766
0.027543
-0.0459494
0.0476753
-0.00172589
0.0100801
-0.0148753
-0.29696
0.301755
0.0198205
-0.0238271
-0.443185
0.447192
0.0277313
-0.0313241
-0.555291
0.558884
0.0356055
-0.0398945
-0.667123
0.671412
0.0448866
-0.0495289
-0.796127
0.80077
0.054556
-0.0589405
-0.948407
0.952791
0.0633698
-0.0668985
-1.12674
1.13027
0.0699915
-0.0718926
-1.33466
1.33656
0.0726924
-0.0719852
-1.57661
1.57591
0.0698859
-0.0665026
-1.55196
1.54858
0.0627828
-0.0583006
-1.27744
1.27295
0.0540326
-0.0493204
-1.05512
1.0504
0.0450956
-0.0406426
-0.873595
0.869142
0.0367893
-0.032826
-0.724711
0.720748
0.0293956
-0.025765
-0.600604
0.596973
0.0224058
-0.0185332
-0.484402
0.480529
0.0147701
-0.0104871
-0.341743
0.33746
0.00677425
-0.00325975
-0.170324
0.16681
0.00102235
-0.0267844
0.0257621
-0.0494832
0.0520546
-0.00257138
0.0144998
-0.0210589
-0.307048
0.313608
0.0275171
-0.0326488
-0.452556
0.457688
0.0376633
-0.042359
-0.564061
0.568757
0.0479656
-0.0535049
-0.676256
0.681795
0.0598153
-0.0655448
-0.805476
0.811206
0.0716043
-0.0767533
-0.957176
0.962325
0.0818024
-0.0856796
-1.1337
1.13758
0.0888963
-0.0906541
-1.33819
1.33995
0.090996
-0.0895826
-1.57472
1.57331
0.0865786
-0.0821262
-1.5446
1.54015
0.0774066
-0.071829
-1.26789
1.26231
0.0665756
-0.0608091
-1.04509
1.03932
0.0556545
-0.0502268
-0.863976
0.858548
0.0455298
-0.0406973
-0.715914
0.711081
0.0365209
-0.0321109
-0.592624
0.588213
0.0280125
-0.0232472
-0.476535
0.471769
0.0185581
-0.0131807
-0.333392
0.328015
0.00846008
-0.00402725
-0.163398
0.158965
0.00124613
-0.0248401
0.023594
-0.0545935
0.0586385
-0.00404495
0.0217747
-0.0309048
-0.32082
0.329951
0.0394259
-0.0460328
-0.465057
0.471664
0.0525056
-0.0586606
-0.575619
0.581774
0.0659812
-0.0730084
-0.687919
0.694946
0.0807631
-0.087581
-0.816959
0.823776
0.094566
-0.100307
-0.967385
0.973126
0.105713
-0.109634
-1.1412
1.14512
0.112581
-0.11382
-1.34124
1.34248
0.113293
-0.110819
-1.57121
1.56874
0.10661
-0.100836
-1.53496
1.52918
0.0949318
-0.0880924
-1.25606
1.24922
0.0817245
-0.0747776
-1.03289
1.02594
0.068585
-0.0620609
-0.852312
0.845787
0.0564025
-0.0505689
-0.705216
0.699383
0.0455351
-0.0402272
-0.582817
0.577509
0.0352459
-0.0293849
-0.466708
0.460847
0.0235099
-0.0167
-0.322898
0.316088
0.0106814
-0.00503813
-0.154748
0.149105
0.00153383
-0.0224731
0.0209392
-0.0624146
0.0696374
-0.00722281
0.0352945
-0.0485739
-0.340551
0.35383
0.0600356
-0.0683679
-0.481883
0.490215
0.0764999
-0.0844141
-0.590651
0.598565
0.093571
-0.101942
-0.702366
0.710737
0.110756
-0.118187
-0.830359
0.837791
0.125509
-0.131257
-0.978463
0.984211
0.136373
-0.139741
-1.14847
1.15184
0.141813
-0.141977
-1.34297
1.34313
0.140048
-0.136061
-1.56534
1.56135
0.130284
-0.122907
-1.52249
1.51512
0.115623
-0.107376
-1.24161
1.23336
0.0997938
-0.0915917
-1.01826
1.01006
0.0843084
-0.0766474
-0.8384
0.830739
0.0699928
-0.0631093
-0.692383
0.6855
0.0571566
-0.0508724
-0.570871
0.564587
0.0448972
-0.0376324
-0.454383
0.447119
0.0302177
-0.0215366
-0.309493
0.300812
0.013742
-0.00639363
-0.143881
0.136533
0.00185455
-0.0195974
0.0177429
-0.0766265
0.0800485
-0.00342203
0.0247191
-0.0361242
-0.370095
0.3815
0.0464046
-0.0544754
-0.503854
0.511924
0.0633318
-0.0729572
-0.608891
0.618516
0.0837377
-0.0933678
-0.718675
0.728305
0.104082
-0.113534
-0.844413
0.853865
0.12335
-0.131757
-0.989013
0.997421
0.140111
-0.14678
-1.15413
1.1608
0.152683
-0.156483
-1.34215
1.34595
0.158401
-0.157586
-1.55615
1.55534
0.153916
-0.147795
-1.50665
1.50053
0.140656
-0.131626
-1.22425
1.21522
0.122822
-0.112295
-1.0011
0.990575
0.102666
-0.0921014
-0.822203
0.811639
0.0826815
-0.0727219
-0.677408
0.667448
0.0637203
-0.0543519
-0.556584
0.547216
0.0457856
-0.0353955
-0.43899
0.4286
0.0256096
-0.0157255
-0.292076
0.282192
0.00828513
-0.00287208
-0.129832
0.124419
0.000416241
-0.0161351
0.0157189
-0.0875238
0.0843419
0.0031819
0.00242118
-0.00881408
-0.395755
0.402148
0.0166576
-0.0232832
-0.524743
0.531368
0.0316993
-0.0401493
-0.62867
0.63712
0.0499054
-0.0587951
-0.737807
0.746697
0.0682565
-0.076813
-0.862866
0.871423
0.0857175
-0.0930679
-1.00556
1.01291
0.100589
-0.106279
-1.16731
1.173
0.111297
-0.114259
-1.34951
1.35247
0.115143
-0.113565
-1.55377
1.5522
0.109275
-0.102684
-1.49364
1.48705
0.0950777
-0.0857623
-1.20573
1.19641
0.0768079
-0.0665988
-0.979773
0.969564
0.0570593
-0.0465275
-0.800255
0.789723
0.0371394
-0.0275615
-0.655474
0.645896
0.0193964
-0.0110514
-0.535069
0.526724
0.00395166
0.00235662
-0.416817
0.410509
-0.00603614
0.00751334
-0.271038
0.269561
-0.00688342
0.00442193
-0.117656
0.120118
-0.00186572
-0.0141038
0.0159695
-0.0869293
0.0835364
0.00339293
-0.00540119
0.0024764
-0.412189
0.415114
0.00230904
-0.00755964
-0.541922
0.547173
0.0144961
-0.0217438
-0.645916
0.653163
0.0300524
-0.0376554
-0.755011
0.762614
0.0459685
-0.0533615
-0.879331
0.886724
0.0608545
-0.067414
-1.02013
1.02669
0.0739742
-0.0790683
-1.17834
1.18344
0.0831859
-0.0854629
-1.35488
1.35716
0.0861
-0.0843387
-1.55011
1.54835
0.0801017
-0.0738394
-1.48011
1.47385
0.0668227
-0.0585333
-1.18727
1.17898
0.050325
-0.0413156
-0.959382
0.950372
0.0329791
-0.0238694
-0.779626
0.770516
0.0160055
-0.00796511
-0.635622
0.627582
0.00133423
0.00526814
-0.51646
0.509858
-0.010179
0.0136041
-0.401613
0.398188
-0.0145179
0.0125629
-0.264215
0.26617
-0.00932282
0.00521407
-0.120024
0.124132
-0.0019063
-0.0161178
0.0180241
-0.0847054
0.0814418
0.00326358
-0.00824922
0.00732384
-0.422418
0.423343
-0.00437922
0.000176239
-0.555302
0.559505
0.00583555
-0.011886
-0.660266
0.666317
0.0189728
-0.0254796
-0.769903
0.77641
0.032563
-0.038899
-0.893694
0.90003
0.0457204
-0.0513403
-1.0329
1.03852
0.0571685
-0.0613018
-1.18824
1.19238
0.0649968
-0.0670524
-1.35937
1.36143
0.0674972
-0.065663
-1.54638
1.54455
0.0620187
-0.0566777
-1.46743
1.46208
0.050679
-0.0433546
-1.17094
1.16362
0.0365032
-0.0290852
-0.941638
0.93422
0.022173
-0.0149934
-0.762013
0.754833
0.00850959
-0.00212475
-0.61916
0.612775
-0.00306118
0.00774304
-0.501926
0.497244
-0.0109013
0.012847
-0.391673
0.389727
-0.0127817
0.0101953
-0.263049
0.265636
-0.00730095
0.00392607
-0.125
0.128375
-0.00140862
-0.0183782
0.0197868
-0.0824789
0.0797886
0.00269031
-0.00856588
0.00885016
-0.429009
0.428725
-0.00658111
0.00330391
-0.566383
0.569661
0.00156921
-0.00700061
-0.672423
0.677855
0.0129774
-0.0187236
-0.782504
0.78825
0.0248952
-0.0304478
-0.906038
0.91159
0.0363843
-0.0414926
-1.04408
1.04919
0.046572
-0.0505451
-1.19651
1.20048
0.053906
-0.0558034
-1.36331
1.3652
0.0563069
-0.0547686
-1.54279
1.54125
0.051673
-0.0469466
-1.45642
1.4517
0.0418316
-0.0357436
-1.15666
1.15057
0.0299945
-0.0236968
-0.926986
0.920688
0.0180828
-0.012208
-0.747884
0.742009
0.00716124
-0.00216402
-0.606352
0.601355
-0.00171522
0.00506598
-0.491226
0.487875
-0.00733833
0.00850161
-0.385047
0.383884
-0.00806095
0.0062412
-0.26295
0.26477
-0.00437675
0.00228507
-0.128274
0.130365
-0.000877151
-0.0197389
0.020616
-0.0807043
0.0784789
0.00222531
-0.00788193
0.0083492
-0.433325
0.432857
-0.00708866
0.00428841
-0.575072
0.577872
0.000311712
-0.00495932
-0.682843
0.68749
0.0101523
-0.0151948
-0.793464
0.798506
0.0207333
-0.0257562
-0.916919
0.921942
0.0312714
-0.035851
-1.0541
1.05868
0.0405702
-0.0443315
-1.20429
1.20805
0.0475111
-0.0493654
-1.36702
1.36887
0.0499574
-0.0490329
-1.53983
1.53891
0.0463376
-0.0423734
-1.44677
1.44281
0.0379132
-0.0326277
-1.14459
1.1393
0.0278891
-0.0224106
-0.9146
0.909121
0.0176268
-0.0128052
-0.736381
0.73156
0.00861814
-0.0044763
-0.596409
0.592268
0.00121661
0.0017613
-0.483243
0.480265
-0.00348245
0.00450025
-0.38008
0.379062
-0.00461547
0.00364977
-0.261928
0.262894
-0.00260638
0.00146384
-0.12925
0.130392
-0.000625775
-0.0201615
0.0207873
-0.0794612
0.0777562
0.00170498
-0.00660023
0.00719918
-0.436481
0.435882
-0.00605773
0.0038169
-0.582786
0.585027
0.000368742
-0.00457275
-0.691987
0.696191
0.0095249
-0.013922
-0.803351
0.807748
0.0188517
-0.0233742
-0.92704
0.931563
0.0286863
-0.0329455
-1.06335
1.06761
0.0372896
-0.0409867
-1.21171
1.21541
0.0444931
-0.0464312
-1.37088
1.37281
0.0473535
-0.0466627
-1.53779
1.5371
0.044659
-0.0409597
-1.4388
1.4351
0.0371534
-0.0325881
-1.13402
1.12946
0.0282628
-0.0235495
-0.903839
0.899125
0.0192443
-0.0147649
-0.726614
0.722135
0.0112333
-0.00742046
-0.587908
0.584095
0.00433985
-0.00172824
-0.476277
0.473666
-8.45921e-05
0.00141517
-0.375664
0.374334
-0.00186046
0.00169417
-0.260051
0.260218
-0.00136392
0.000880028
-0.12863
0.129114
-0.000454319
-0.0201081
0.0205624
-0.0788175
0.0774869
0.00133055
-0.00529518
0.00594684
-0.439025
0.438373
-0.00480025
0.00253883
-0.589539
0.5918
0.00132154
-0.00510376
-0.700269
0.704051
0.0094088
-0.0136873
-0.812255
0.816534
0.0183009
-0.0230035
-0.936001
0.940704
0.0276702
-0.0318165
-1.07204
1.07619
0.0363683
-0.0399307
-1.21905
1.22261
0.0431213
-0.0455964
-1.37474
1.37721
0.0468678
-0.0466288
-1.53659
1.53635
0.0449281
-0.0418995
-1.43167
1.42864
0.0384745
-0.0342581
-1.12463
1.12041
0.0303077
-0.0258826
-0.894299
0.889874
0.0218563
-0.0177846
-0.71768
0.713608
0.0141533
-0.0105771
-0.580025
0.576449
0.00769277
-0.00489996
-0.470041
0.467248
0.00287628
-0.00149666
-0.370911
0.369531
0.000572536
3.65301e-05
-0.257175
0.256566
-0.000389964
0.000460954
-0.126977
0.126906
-0.000345742
-0.0197339
0.0200797
-0.0787454
0.077624
0.00112139
-0.00388225
0.0042817
-0.441413
0.441013
-0.00327585
0.000939134
-0.595744
0.598081
0.0026043
-0.00624098
-0.708022
0.711658
0.0103877
-0.0143069
-0.82075
0.824669
0.0190683
-0.0230503
-0.944939
0.948921
0.0277393
-0.0317734
-1.08056
1.0846
0.0362758
-0.0400922
-1.22622
1.23004
0.043652
-0.0460001
-1.37951
1.38186
0.0477004
-0.0479389
-1.53611
1.53635
0.0469263
-0.04421
-1.42551
1.4228
0.04114
-0.0371775
-1.11624
1.11228
0.0334385
-0.0291054
-0.885154
0.880821
0.0252654
-0.0211306
-0.709214
0.705079
0.0175313
-0.0138753
-0.572529
0.568873
0.0107978
-0.00804505
-0.463664
0.460911
0.00573007
-0.0039424
-0.365863
0.364075
0.00251498
-0.00137821
-0.253356
0.252219
0.000517131
0.000123672
-0.124452
0.123812
-0.000253115
-0.0190973
0.0193504
-0.0789512
0.0781482
0.000802974
-0.00266362
0.00256325
-0.443995
0.444096
-0.00171036
-0.00067901
-0.601248
0.603638
0.00388022
-0.00738219
-0.715277
0.718779
0.0113676
-0.0154291
-0.828576
0.832638
0.019632
-0.0238001
-0.953181
0.957349
0.0284884
-0.0323582
-1.0891
1.09297
0.0370018
-0.0408386
-1.23373
1.23757
0.0445188
-0.0474558
-1.38467
1.38761
0.0497239
-0.0503189
-1.53669
1.53729
0.0495666
-0.0474739
-1.42021
1.41811
0.0447922
-0.040982
-1.10808
1.10427
0.0372668
-0.0331764
-0.876239
0.872149
0.0290008
-0.0249415
-0.700575
0.696515
0.0212434
-0.017373
-0.565051
0.56118
0.0142674
-0.011147
-0.457091
0.453971
0.00863144
-0.00627619
-0.360482
0.358127
0.00454012
-0.00287962
-0.248755
0.247095
0.0014072
-0.000279035
-0.121213
0.120085
-0.000158009
-0.0182336
0.0183916
-0.0795455
0.0788906
0.000654944
-0.00167881
0.00156315
-0.446817
0.446932
-0.000120806
-0.00200731
-0.606831
0.608959
0.00530894
-0.00867284
-0.722059
0.725423
0.0125154
-0.0162077
-0.836483
0.840176
0.0205507
-0.0244333
-0.961581
0.965463
0.0290925
-0.0334088
-1.09733
1.10165
0.0377433
-0.0419435
-1.24151
1.24571
0.0460905
-0.0491871
-1.39052
1.39362
0.0518956
-0.0532944
-1.53814
1.53954
0.0529936
-0.051453
-1.41588
1.41434
0.0488609
-0.0452942
-1.10037
1.0968
0.0417442
-0.0375466
-0.867442
0.863245
0.0334652
-0.0292133
-0.691852
0.6876
0.0253493
-0.0211876
-0.557021
0.552859
0.0177543
-0.0144406
-0.450124
0.44681
0.0114821
-0.00875603
-0.354291
0.351565
0.00654371
-0.00432698
-0.243279
0.241063
0.00241381
-0.000784688
-0.11728
0.115651
6.20667e-06
-0.0172063
0.0172001
-0.0803861
0.0798874
0.000498726
-0.000617504
0.000240398
-0.449788
0.450165
0.00109449
-0.00338236
-0.612005
0.614293
0.00655086
-0.00974504
-0.728595
0.731789
0.0136607
-0.017215
-0.843922
0.847477
0.0214142
-0.0254215
-0.969856
0.973863
0.0300054
-0.0343029
-1.10587
1.11017
0.0388757
-0.0431312
-1.24989
1.25415
0.0475075
-0.0513893
-1.39707
1.40095
0.0546079
-0.0563696
-1.54097
1.54273
0.0567761
-0.0555402
-1.41271
1.41147
0.0534209
-0.0502249
-1.09311
1.08992
0.0465419
-0.0423086
-0.858547
0.854314
0.038179
-0.0336659
-0.682821
0.678308
0.0297324
-0.0253018
-0.54868
0.54425
0.0216483
-0.0178643
-0.442665
0.438881
0.0146763
-0.0115142
-0.347383
0.344221
0.00866649
-0.00585373
-0.236896
0.234083