/*--------------------------------*- C++ -*----------------------------------*\
  =========                 |
  \\      /  F ield         | OpenFOAM: The Open Source CFD Toolbox
   \\    /   O peration     | Website:  https://openfoam.org
    \\  /    A nd           | Version:  6
     \\/     M anipulation  |
\*---------------------------------------------------------------------------*/
FoamFile
{
    version     2.0;
    format      ascii;
    class       surfaceScalarField;
    location    "113.3";
    object      phi;
}
// * * * * * * * * * * * * * * * * * * * * * * * * * * * * * * * * * * * * * //

dimensions      [0 3 -1 0 0 0 0];

internalField   nonuniform List<scalar> 
17370
(
-0.0899999
0.0898489
0.289162
-0.0714623
0.0537525
0.364485
-0.0381194
0.0276904
0.426597
-0.019639
0.0146067
0.504284
-0.0107657
0.00827637
0.601891
-0.00627766
0.00490157
0.720434
-0.00373744
0.0028962
0.863748
-0.00215369
0.00159365
1.03601
-0.00107613
0.000662793
1.24292
-0.000254209
-0.000145606
1.49159
0.00052645
-0.000937125
1.4916
0.00133168
-0.00181196
1.24317
0.00233246
-0.00303654
1.03634
0.00385234
-0.004999
0.864053
0.00636646
-0.00836031
0.721051
0.0108462
-0.0146827
0.603051
0.0197097
-0.027754
0.507484
0.0381754
-0.0537997
0.431793
0.0715014
-0.0898754
0.36515
0.0900164
0.198994
-0.128139
0.0882314
0.0399076
-0.364602
0.353384
-0.0746666
0.0858839
-0.446478
0.454324
-0.0843789
0.0765328
-0.521193
0.529905
-0.0684345
0.0597221
-0.612792
0.621572
-0.0515324
0.0427523
-0.726897
0.734168
-0.0352908
0.02802
-0.867477
0.872597
-0.0224168
0.0172975
-1.03848
1.04193
-0.0134835
0.0100292
-1.2446
1.24704
-0.00741457
0.00497773
-1.49262
1.49461
-0.003025
0.00103719
-1.49251
1.49423
0.000634701
-0.00235948
-1.24397
1.24585
0.0042705
-0.00615262
-1.03751
1.04002
0.00849358
-0.0110071
-0.866096
0.869826
0.0143547
-0.0180843
-0.724388
0.72993
0.0231256
-0.0286681
-0.608696
0.616108
0.0358807
-0.0432927
-0.514894
0.523037
0.0520211
-0.0601637
-0.439854
0.447911
0.0688245
-0.0768815
-0.375293
0.376735
0.0846746
-0.0861171
-0.257327
0.222471
0.0748243
-0.039968
-0.0685281
0.0587053
0.00982281
-0.0517918
0.0583685
-0.374137
0.36756
-0.0574475
0.0536915
-0.453601
0.457357
-0.0485987
0.0446434
-0.527956
0.531911
-0.0408005
0.0371585
-0.621574
0.625216
-0.0330524
0.0289712
-0.735359
0.739441
-0.0243933
0.0202261
-0.874351
0.878518
-0.0158714
0.0121695
-1.0435
1.0472
-0.00842395
0.00524466
-1.24857
1.25175
-0.0019106
-0.00116873
-1.49666
1.49974
0.00422162
-0.0074905
-1.4972
1.50047
0.0105644
-0.0141504
-1.25006
1.25365
0.0176888
-0.0218689
-1.04591
1.05009
0.0258922
-0.0303294
-0.877748
0.882185
0.034296
-0.0382885
-0.739889
0.743881
0.041834
-0.0455777
-0.626763
0.630506
0.0494476
-0.054459
-0.534801
0.539813
0.0581232
-0.0589292
-0.457465
0.458271
0.052215
-0.0320016
-0.335736
0.315522
0.00989143
-0.0683337
0.0584422
-0.0529589
0.048968
0.00399089
-0.0331297
0.0436608
-0.358138
0.347607
-0.0473479
0.0467129
-0.459304
0.459939
-0.0436505
0.0402925
-0.535822
0.53918
-0.0365141
0.0332043
-0.628551
0.631861
-0.0297588
0.0267182
-0.742673
0.745713
-0.023448
0.0203298
-0.882044
0.885162
-0.0167867
0.0133961
-1.0508
1.05419
-0.00959151
0.00604374
-1.25519
1.25874
-0.00206542
-0.00173976
-1.50325
1.50705
0.00551225
-0.00938854
-1.50412
1.508
0.0127871
-0.0163732
-1.2574
1.26099
0.0195395
-0.0228386
-1.05389
1.05719
0.0257507
-0.0288149
-0.88566
0.888724
0.0316853
-0.0349612
-0.74713
0.750406
0.038128
-0.0417617
-0.634281
0.637915
0.044996
-0.047916
-0.544113
0.547033
0.0483993
-0.044498
-0.456545
0.452644
0.0337095
-0.0162392
-0.296139
0.278668
0.0040769
-0.0526173
0.0485404
-0.0458962
0.0434069
0.00248937
-0.0227625
0.0331188
-0.336937
0.326581
-0.0389207
0.0399249
-0.459636
0.458632
-0.0387239
0.0364296
-0.54191
0.544204
-0.033754
0.0311495
-0.634925
0.637529
-0.0280752
0.0251634
-0.748771
0.751682
-0.0218828
0.0188735
-0.888126
0.891135
-0.0155511
0.0124367
-1.05733
1.06044
-0.00889545
0.00547437
-1.2622
1.26562
-0.00149964
-0.00239408
-1.51094
1.51483
0.00624358
-0.0100815
-1.51188
1.51572
0.0133051
-0.016561
-1.26443
1.26769
0.0193832
-0.0223856
-1.06028
1.06328
0.0251205
-0.0281231
-0.891756
0.894758
0.0308023
-0.033643
-0.753598
0.756439
0.0360506
-0.0385299
-0.640968
0.643447
0.0406565
-0.0416345
-0.548822
0.5498
0.0403948
-0.0342468
-0.447342
0.441194
0.0235097
-0.0102615
-0.263422
0.250174
0.00259596
-0.04537
0.042774
-0.0413395
0.0395801
0.00175934
-0.0166892
0.0259084
-0.316757
0.307538
-0.0324837
0.0346031
-0.457052
0.454932
-0.0341663
0.0324841
-0.546197
0.547879
-0.0302922
0.0281856
-0.639851
0.641958
-0.0257391
0.0233248
-0.754343
0.756757
-0.0204449
0.0176349
-0.894045
0.896855
-0.0143755
0.0112859
-1.06351
1.06659
-0.00777505
0.00443255
-1.26896
1.2723
-0.000584237
-0.00316122
-1.51862
1.52237
0.00684992
-0.0105228
-1.51944
1.52311
0.0136129
-0.0167614
-1.27094
1.27409
0.0194799
-0.0223309
-1.06629
1.06915
0.0247873
-0.0273064
-0.897545
0.900064
0.0294186
-0.0315624
-0.75887
0.761014
0.0334162
-0.0353543
-0.645584
0.647522
0.0367917
-0.0369249
-0.550296
0.55043
0.0344427
-0.0273584
-0.434493
0.427408
0.0176242
-0.00743987
-0.238605
0.22842
0.00188979
-0.0405856
0.0386958
-0.0380675
0.036748
0.00131956
-0.0127128
0.0206151
-0.298985
0.291083
-0.027321
0.030212
-0.452403
0.449512
-0.0303924
0.0292537
-0.54933
0.550469
-0.0272459
0.0253134
-0.644015
0.645948
-0.0230923
0.020932
-0.759016
0.761176
-0.018388
0.0158764
-0.899448
0.90196
-0.0129026
0.00999509
-1.06955
1.07246
-0.00660402
0.00333892
-1.27557
1.27884
0.000430076
-0.0040754
-1.52602
1.52967
0.00764942
-0.0111973
-1.52669
1.53024
0.0141459
-0.0170848
-1.27723
1.28016
0.0195302
-0.0219941
-1.07186
1.07432
0.024062
-0.0261509
-0.902317
0.904406
0.0279286
-0.0297651
-0.762973
0.76481
0.0313774
-0.0330757
-0.649321
0.651019
0.0338565
-0.0332495
-0.55019
0.549583
0.0298376
-0.022432
-0.420102
0.412696
0.0138661
-0.00578449
-0.219386
0.211304
0.00147844
-0.0370357
0.0355573
-0.0355988
0.0345865
0.00101236
-0.00989761
0.0165559
-0.283831
0.277173
-0.0229779
0.0263054
-0.446389
0.443062
-0.0270508
0.0263258
-0.551404
0.552129
-0.0245449
0.0227394
-0.64787
0.649676
-0.0206409
0.0185934
-0.763274
0.765322
-0.016183
0.0138181
-0.904322
0.906687
-0.0110374
0.0083147
-1.0752
1.07792
-0.00511785
0.00200049
-1.28199
1.28511
0.00163998
-0.00517548
-1.53323
1.53676
0.00862224
-0.0119876
-1.53367
1.53703
0.0147131
-0.0173529
-1.28303
1.28567
0.0195076
-0.0216604
-1.07667
1.07882
0.0234766
-0.0253222
-0.906342
0.908188
0.0268944
-0.0285152
-0.766528
0.768149
0.0299229
-0.0312721
-0.652573
0.653922
0.0315531
-0.0302007
-0.548608
0.547255
0.0261529
-0.0188071
-0.405289
0.397943
0.0113129
-0.00469245
-0.204019
0.197399
0.00120575
-0.0342289
0.0330231
-0.0337019
0.0329188
0.000783099
-0.00780259
0.0133734
-0.271092
0.265521
-0.0192905
0.022797
-0.439643
0.436136
-0.0240042
0.0235179
-0.552781
0.553267
-0.0219959
0.0202932
-0.651492
0.653195
-0.0182811
0.0163101
-0.767323
0.769294
-0.0139812
0.0116941
-0.908939
0.911226
-0.00900633
0.0063848
-1.08052
1.08314
-0.00331993
0.000338089
-1.2881
1.29108
0.00313853
-0.00650607
-1.54017
1.54354
0.00976455
-0.0129035
-1.54024
1.54338
0.0154056
-0.0177906
-1.28827
1.29066
0.0197193
-0.0216397
-1.08092
1.08284
0.023253
-0.0248867
-0.909901
0.911535
0.0262728
-0.0276966
-0.769658
0.771082
0.028901
-0.0298577
-0.655073
0.65603
0.0297576
-0.027721
-0.545547
0.543511
0.02325
-0.0161452
-0.390706
0.383601
0.00953438
-0.00394284
-0.191339
0.185747
0.00101827
-0.0319209
0.0309026
-0.0322363
0.0316321
0.000604189
-0.00617724
0.0108153
-0.26045
0.255812
-0.0161204
0.0196067
-0.432649
0.429163
-0.0211186
0.0208475
-0.553699
0.55397
-0.0195465
0.0178967
-0.654934
0.656584
-0.0159306
0.0139987
-0.771231
0.773163
-0.0117164
0.0094764
-0.913404
0.915644
-0.00684467
0.00428239
-1.08565
1.08821
-0.0012966
-0.00158981
-1.29396
1.29685
0.00492557
-0.00812491
-1.54677
1.54997
0.0111911
-0.0141149
-1.54635
1.54928
0.016417
-0.018577
-1.29304
1.2952
0.0202988
-0.0219983
-1.08472
1.08642
0.023416
-0.0248462
-0.913033
0.914463
0.02606
-0.0273032
-0.772401
0.773644
0.0283628
-0.0288932
-0.656781
0.657312
0.0283916
-0.0257686
-0.541171
0.538548
0.0210221
-0.0142154
-0.376647
0.369841
0.00829199
-0.00342651
-0.180553
0.175687
0.000889901
-0.0299561
0.0290662
-0.0311112
0.0306532
0.000458029
-0.00485982
0.00868928
-0.25161
0.247781
-0.013336
0.0166512
-0.425782
0.422467
-0.0183254
0.0182313
-0.554217
0.554311
-0.0171108
0.0154874
-0.658302
0.659925
-0.0135315
0.0116018
-0.775073
0.777003
-0.00932344
0.00709401
-0.91778
0.920009
-0.00448463
0.00195436
-1.09067
1.0932
0.000980535
-0.00379974
-1.29963
1.30245
0.00703001
-0.0100942
-1.55304
1.55611
0.0129966
-0.0157264
-1.55204
1.55477
0.0178367
-0.0197723
-1.29738
1.29932
0.0212871
-0.0227686
-1.08809
1.08957
0.0240003
-0.0252433
-0.91576
0.917003
0.0263023
-0.0273819
-0.774785
0.775865
0.0282274
-0.0283854
-0.657641
0.657799
0.0274491
-0.0243127
-0.535661
0.532525
0.0193785
-0.0128526
-0.363187
0.356661
0.00744025
-0.00307929
-0.171102
0.166741
0.000805238
-0.0282254
0.0274201
-0.0302671
0.029934
0.000333118
-0.00374663
0.0068609
-0.24434
0.241225
-0.010835
0.0138668
-0.419324
0.416292
-0.0155733
0.0156164
-0.554414
0.554371
-0.0145644
0.0129997
-0.661612
0.663176
-0.0110232
0.0090606
-0.778919
0.780882
-0.00674492
0.00448791
-0.922139
0.924396
-0.00185997
-0.000673243
-1.09563
1.09816
0.00359195
-0.00637389
-1.30518
1.30796
0.00953144
-0.0124904
-1.55905
1.56201
0.0152532
-0.0178048
-1.55733
1.55988
0.0197292
-0.0214424
-1.30129
1.303
0.0227528
-0.0240218
-1.09104
1.09231
0.0250731
-0.0261352
-0.918109
0.919171
0.0270467
-0.0279658
-0.776828
0.777747
0.0285475
-0.0283965
-0.657802
0.657651
0.026974
-0.0233525
-0.529148
0.525526
0.0182627
-0.0119521
-0.350261
0.34395
0.00689325
-0.00286342
-0.16257
0.15854
0.000754918
-0.0266461
0.0258911
-0.029666
0.0294457
0.000220331
-0.00276086
0.00522457
-0.238467
0.236003
-0.00852337
0.0111862
-0.413483
0.41082
-0.0128084
0.0129125
-0.554391
0.554287
-0.0118876
0.0103485
-0.664831
0.66637
-0.00832489
0.00629724
-0.782835
0.784863
-0.00390535
0.00158309
-0.926556
0.928878
0.00110684
-0.00368327
-1.1006
1.10318
0.00662902
-0.00941036
-1.31067
1.31345
0.0125304
-0.015411
-1.56485
1.56773
0.0180551
-0.0204444
-1.56226
1.56465
0.0221919
-0.0236862
-1.30479
1.30628
0.024792
-0.0258462
-1.09358
1.09464
0.0267115
-0.0275814
-0.92009
0.92096
0.0283297
-0.0290789
-0.778489
0.779238
0.0293703
-0.0288642
-0.657371
0.656865
0.0269688
-0.0228813
-0.521693
0.517605
0.0176279
-0.0114383
-0.337724
0.331534
0.00659141
-0.00275188
-0.154627
0.150787
0.000731763
-0.0251533
0.0244216
-0.0292876
0.0291757
0.000111876
-0.00183778
0.00368588
-0.233876
0.232028
-0.00630112
0.00852219
-0.408425
0.406203
-0.00995001
0.0100343
-0.554308
0.554224
-0.00899946
0.00744359
-0.668038
0.669594
-0.00534058
0.0032139
-0.786882
0.789009
-0.000705499
-0.00172037
-0.931104
0.93353
0.00451584
-0.00717603
-1.10567
1.10833
0.0101928
-0.0130114
-1.31616
1.31898
0.0161303
-0.0189598
-1.5705
1.57333
0.0215046
-0.0237447
-1.56686
1.5691
0.0253205
-0.026599
-1.30787
1.30915
0.0275012
-0.0283367
-1.0957
1.09654
0.0290075
-0.0296774
-0.921683
0.922353
0.0302682
-0.0308649
-0.779802
0.780398
0.0307837
-0.0298534
-0.656186
0.655256
0.0274555
-0.0228878
-0.513312
0.508744
0.0174301
-0.0112531
-0.325379
0.319202
0.00649154
-0.00272544
-0.147005
0.143239
0.00073076
-0.0236957
0.022965
-0.0291265
0.0291234
3.10496e-06
-0.000928044
0.0021709
-0.23051
0.229267
-0.00408438
0.0057975
-0.40429
0.402577
-0.0069267
0.00690782
-0.554337
0.554356
-0.00581284
0.00419668
-0.671319
0.672935
-0.00197063
-0.000292878
-0.791126
0.79339
0.00296243
-0.00553451
-0.93586
0.938432
0.0084835
-0.0112716
-1.11092
1.1137
0.0144068
-0.0173034
-1.32174
1.32463
0.0204614
-0.0232703
-1.57605
1.57886
0.0257371
-0.0278407
-1.57114
1.57325
0.0292507
-0.0303171
-1.31055
1.31161
0.0310159
-0.0316297
-1.09739
1.098
0.0320997
-0.0325546
-0.922869
0.923324
0.0329538
-0.0332677
-0.780718
0.781032
0.0328785
-0.0314404
-0.654146
0.652708
0.0284966
-0.0233995
-0.503957
0.498859
0.0176623
-0.0113719
-0.313
0.30671
0.00657311
-0.00277461
-0.139476
0.135678
0.000749365
-0.0222303
0.0214809
-0.0291865
0.0292992
-0.000112724
1.62361e-05
0.000610888
-0.228353
0.227726
-0.0017891
0.00292692
-0.40121
0.400073
-0.00365593
0.00344821
-0.554656
0.554864
-0.00223187
0.000494626
-0.67477
0.676508
0.00189674
-0.0043428
-0.795642
0.798088
0.00722546
-0.00999232
-0.940911
0.943678
0.0131488
-0.0161137
-1.11643
1.11939
0.0194189
-0.0224372
-1.32748
1.3305
0.0256759
-0.0284955
-1.58156
1.58438
0.0309063
-0.0328856
-1.57513
1.57711
0.0341368
-0.034991
-1.3128
1.31366
0.0354786
-0.0358588
-1.09862
1.099
0.0361189
-0.0363512
-0.923618
0.92385
0.0365391
-0.0365009
-0.781051
0.781013
0.0357502
-0.0337173
-0.651067
0.649034
0.030153
-0.0244409
-0.493513
0.487801
0.0183203
-0.0117763
-0.300329
0.293785
0.00682002
-0.00289107
-0.131835
0.127906
0.000785012
-0.0207191
0.0199341
-0.0294827
0.0297346
-0.000251883
0.00100576
-0.00105752
-0.227444
0.227496
0.0006734
-0.000184122
-0.399326
0.398837
-4.27226e-05
-0.000449862
-0.555457
0.555949
0.00185732
-0.00377881
-0.678515
0.680437
0.00639813
-0.00908076
-0.800519
0.803202
0.0122366
-0.0152544
-0.946355
0.949373
0.0186808
-0.0218786
-1.1223
1.1255
0.0254119
-0.0285994
-1.33348
1.33666
0.0319619
-0.034819
-1.5871
1.58995
0.0371862
-0.0390511
-1.57885
1.58071
0.0401538
-0.0407942
-1.31462
1.31526
0.0410565
-0.041183
-1.09938
1.0995
0.0412126
-0.0412066
-0.923902
0.923896
0.0412052
-0.0407023
-0.780675
0.780172
0.0395058
-0.0367737
-0.646786
0.644054
0.0324856
-0.0260363
-0.481792
0.475342
0.0194009
-0.0124503
-0.287077
0.280127
0.00721714
-0.00306637
-0.123886
0.119735
0.000834887
-0.0191292
0.0182943
-0.030056
0.030452
-0.00039601
0.00212222
-0.00282554
-0.227856
0.22856
0.00332474
-0.00360856
-0.398784
0.399068
0.00404006
-0.00491915
-0.556971
0.55785
0.00658926
-0.00876802
-0.682686
0.684864
0.0116918
-0.0146793
-0.805864
0.808852
0.0181809
-0.0215156
-0.952308
0.955642
0.0252833
-0.0287765
-1.12866
1.13215
0.0326014
-0.0360085
-1.33982
1.34323
0.0395391
-0.0424604
-1.59271
1.59563
0.0447922
-0.046536
-1.58228
1.58403
0.0474771
-0.0479097
-1.31598
1.31642
0.0479386
-0.0477953
-1.0996
1.09946
0.0475812
-0.0473208
-0.923671
0.923411
0.0470647
-0.046047
-0.779408
0.77839
0.0442995
-0.0407248
-0.641094
0.637519
0.0355665
-0.028212
-0.468528
0.461173
0.020901
-0.0133772
-0.272933
0.26541
0.00774805
-0.00329094
-0.11545
0.110993
0.000895709
-0.0174337
0.016538
-0.0309381
0.031515
-0.00057683
0.00340188
-0.00490826
-0.229691
0.231198
0.00633629
-0.0074576
-0.399785
0.400906
0.00866501
-0.0100705
-0.559417
0.560823
0.0121467
-0.0146681
-0.687423
0.689944
0.0179871
-0.0213583
-0.811813
0.815185
0.025291
-0.0290201
-0.958906
0.962635
0.0332115
-0.03707
-1.13562
1.13948
0.0412538
-0.0449306
-1.34662
1.3503
0.0486685
-0.0516739
-1.59844
1.60145
0.0539756
-0.0555941
-1.58543
1.58704
0.0563743
-0.0565765
-1.31688
1.31708
0.0563461
-0.0559147
-1.09927
1.09884
0.0554478
-0.054906
-0.922897
0.922355
0.0542474
-0.0527327
-0.777204
0.77569
0.050265
-0.0456668
-0.633685
0.629087
0.0394487
-0.0309752
-0.453365
0.444891
0.0227998
-0.014526
-0.257558
0.249284
0.00838629
-0.00355005
-0.106365
0.101529
0.000962534
-0.015613
0.0146505
-0.0321945
0.0330057
-0.000811207
0.00498366
-0.00740632
-0.233171
0.235594
0.00991659
-0.0119803
-0.402538
0.404602
0.0140882
-0.0161451
-0.56305
0.565107
0.018764
-0.0217295
-0.692908
0.695874
0.0255599
-0.0294081
-0.818531
0.82238
0.0338741
-0.0380884
-0.96631
0.970524
0.042796
-0.0470944
-1.14333
1.14763
0.0517042
-0.0556948
-1.35396
1.35795
0.0596663
-0.0627576
-1.60434
1.60743
0.065013
-0.0664829
-1.58825
1.58972
0.0670867
-0.0670127
-1.31721
1.31714
0.0665097
-0.0657642
-1.09834
1.09759
0.0650316
-0.0642283
-0.921525
0.920721
0.0630462
-0.0609232
-0.774063
0.77194
0.0575668
-0.0516905
-0.624166
0.61829
0.0441584
-0.0342961
-0.43585
0.425988
0.0250415
-0.0158381
-0.240595
0.231391
0.00908733
-0.00382059
-0.0964924
0.0912256
0.00102799
-0.0136582
0.0126302
-0.0339223
0.0350409
-0.00111864
0.00697388
-0.0105056
-0.238523
0.242055
0.0142932
-0.0174434
-0.407345
0.410495
0.020584
-0.0234211
-0.568163
0.571
0.0267417
-0.0302802
-0.699369
0.702908
0.0347734
-0.0392198
-0.826214
0.83066
0.0443418
-0.0491434
-0.974704
0.979505
0.0544655
-0.0592757
-1.15193
1.15674
0.0643655
-0.0686934
-1.36193
1.36625
0.0728942
-0.0760423
-1.61038
1.61352
0.0782092
-0.0794815
-1.59071
1.59198
0.0798667
-0.079489
-1.31687
1.3165
0.0786913
-0.077603
-1.09674
1.09566
0.0766007
-0.0754948
-0.919587
0.918481
0.0737477
-0.0708309
-0.769761
0.766844
0.066328
-0.0588183
-0.612008
0.604499
0.0496413
-0.0380675
-0.415424
0.40385
0.0275047
-0.0172094
-0.221691
0.211396
0.00977894
-0.00406779
-0.0857466
0.0800355
0.00108167
-0.0115768
0.0104951
-0.0362567
0.0377975
-0.00154075
0.00958629
-0.0144969
-0.246104
0.251015
0.0198068
-0.0242174
-0.414573
0.418983
0.0285437
-0.0323152
-0.575084
0.578856
0.0365185
-0.0408208
-0.707082
0.711384
0.0461463
-0.0513412
-0.835104
0.840299
0.0572638
-0.0627628
-0.984297
0.989796
0.0687915
-0.0741654
-1.16156
1.16693
0.0797531
-0.0843976
-1.37054
1.37518
0.0887678
-0.0918902
-1.61647
1.6196
0.0938799
-0.094866
-1.59267
1.59366
0.0949662
-0.0942835
-1.31582
1.31513
0.0931131
-0.091675
-1.09445
1.09301
0.0904033
-0.0888059
-0.916906
0.915308
0.0865384
-0.0825348
-0.763864
0.75986
0.0765497
-0.0669497
-0.596472
0.586872
0.0557151
-0.0420626
-0.391426
0.377774
0.0299722
-0.0184731
-0.200545
0.189046
0.0103547
-0.00424411
-0.0741265
0.0680159
0.00111032
-0.0093983
0.00828798
-0.0394082
0.0415606
-0.00215241
0.0131888
-0.0198632
-0.256422
0.263097
0.0270041
-0.0328859
-0.424702
0.430584
0.0385834
-0.0434882
-0.584206
0.589111
0.0487932
-0.0540772
-0.71644
0.721724
0.060483
-0.0666035
-0.845498
0.851619
0.0734701
-0.0797526
-0.995305
1.00159
0.0865327
-0.0924629
-1.17229
1.17822
0.0984878
-0.103351
-1.37972
1.38459
0.107745
-0.110686
-1.62243
1.62537
0.112345
-0.112909
-1.59394
1.5945
0.112634
-0.111578
-1.31398
1.31292
0.110016
-0.1082
-1.09144
1.08963
0.106639
-0.104493
-0.913102
0.910957
0.10155
-0.0960717
-0.755753
0.750275
0.0880976
-0.0757881
-0.576598
0.564288
0.0619938
-0.0458813
-0.363128
0.347015
0.0321015
-0.0193929
-0.176981
0.164272
0.0106755
-0.0042924
-0.0617603
0.0553772
0.00109925
-0.00717954
0.00608029
-0.0437197
0.0468161
-0.00309642
0.0184227
-0.0274043
-0.270231
0.279212
0.0367783
-0.0444401
-0.438417
0.446079
0.0518011
-0.058067
-0.59603
0.602296
0.0648049
-0.0714447
-0.727874
0.734514
0.0791217
-0.0862743
-0.857725
0.864878
0.0941474
-0.10121
-1.00787
1.01493
0.108664
-0.115017
-1.18407
1.19042
0.121275
-0.126136
-1.38923
1.39409
0.130289
-0.132799
-1.62789
1.6304
0.133905
-0.133852
-1.59422
1.59417
0.133079
-0.131574
-1.31118
1.30968
0.129613
-0.127356
-1.08767
1.08541
0.125367
-0.122709
-0.908048
0.90539
0.118687
-0.111161
-0.744563
0.737037
0.100518
-0.0847261
-0.551112
0.535321
0.0678121
-0.0489169
-0.329817
0.310922
0.0334244
-0.0196809
-0.151075
0.137331
0.0105886
-0.00415644
-0.0489496
0.0425174
0.0010356
-0.0050052
0.0039696
-0.04979
0.0544846
-0.00469459
0.0265412
-0.0386353
-0.28872
0.300814
0.0508813
-0.0609001
-0.456838
0.466857
0.0703087
-0.0782162
-0.611138
0.619045
0.0867284
-0.0949187
-0.741922
0.750112
0.103997
-0.112175
-0.871992
0.88017
0.120921
-0.128544
-1.02189
1.02952
0.136345
-0.142772
-1.19651
1.20293
0.14885
-0.153324
-1.39852
1.40299
0.156822
-0.15855
-1.63231
1.63404
0.158803
-0.157886
-1.5931
1.59219
0.156444
-0.154361
-1.3072
1.30512
0.151946
-0.149175
-1.08301
1.08024
0.146746
-0.143321
-0.901555
0.89813
0.137724
-0.127215
-0.729009
0.7185
0.112945
-0.0927503
-0.51842
0.498225
0.0721848
-0.0503873
-0.290991
0.269193
0.0334117
-0.0190623
-0.123321
0.108972
0.00997028
-0.00379841
-0.0361897
0.0300178
0.00091104
-0.00298044
0.0020694
-0.0587597
0.0667809
-0.00802128
0.0407719
-0.0574622
-0.314106
0.330796
0.0737545
-0.086868
-0.481556
0.494669
0.0984001
-0.107938
-0.630057
0.639594
0.118228
-0.127864
-0.758781
0.768416
0.138041
-0.146765
-0.888071
0.896795
0.155742
-0.16329
-1.03676
1.04431
0.170755
-0.176628
-1.20878
1.21466
0.181886
-0.18539
-1.40673
1.41024
0.187677
-0.188154
-1.63492
1.63539
0.187169
-0.185099
-1.59009
1.58802
0.182792
-0.180017
-1.30175
1.29898
0.17705
-0.173686
-1.07723
1.07387
0.170636
-0.165939
-0.892886
0.88819
0.157868
-0.142994
-0.707042
0.692169
0.123779
-0.0983138
-0.47661
0.451145
0.0739118
-0.0495773
-0.246718
0.222383
0.0317142
-0.0174411
-0.0947864
0.0805133
0.00880734
-0.00322194
-0.0241343
0.0185489
0.000723622
-0.0012138
0.000490179
-0.0742256
0.0787842
-0.00455858
0.031407
-0.046074
-0.350441
0.365108
0.0607464
-0.072839
-0.513815
0.525908
0.0839862
-0.0946895
-0.652679
0.663383
0.106986
-0.118248
-0.777347
0.78861
0.13084
-0.142155
-0.904539
0.915855
0.154392
-0.165461
-1.05098
1.06205
0.177318
-0.187786
-1.21953
1.22999
0.198648
-0.207819
-1.41267
1.42185
0.216761
-0.2236
-1.63475
1.64159
0.228401
-0.23192
-1.58456
1.58807
0.234087
-0.235716
-1.29453
1.29616
0.236519
-0.23607
-1.06988
1.06943
0.234613
-0.228759
-0.880486
0.874632
0.215736
-0.191159
-0.675673
0.651097
0.159842
-0.120972
-0.424099
0.385229
0.0867138
-0.0550372
-0.198162
0.166486
0.0335658
-0.0175809
-0.0671558
0.0511709
0.00842071
-0.0028605
-0.0134622
0.00790204
0.000562105
0.000246247
-0.000808352
-0.0866946
0.0848528
0.00184183
0.00908831
-0.0188725
-0.382796
0.39258
0.0302106
-0.039131
-0.543053
0.551974
0.04831
-0.0574204
-0.676816
0.685926
0.0686712
-0.0792342
-0.799319
0.809881
0.0906556
-0.101175
-0.926632
0.937151
0.112543
-0.122499
-1.07291
1.08286
0.133393
-0.142686
-1.24036
1.24965
0.152376
-0.1604
-1.43086
1.43888
0.167954
-0.173716
-1.64796
1.65372
0.177618
-0.180309
-1.59082
1.59351
0.181623
-0.182632
-1.29592
1.29693
0.183032
-0.182161
-1.06742
1.06655
0.179136
-0.17051
-0.86326
0.854633
0.155116
-0.13033
-0.621834
0.597048
0.102698
-0.0722943
-0.34399
0.313587
0.048626
-0.0291061
-0.136262
0.116742
0.0168635
-0.00837943
-0.0365954
0.0281113
0.00377566
-0.00118023
-0.00268035
8.49229e-05
0.000182013
0.00154931
-0.00173132
-0.0885811
0.0856119
0.00296924
-0.000259685
-0.00560919
-0.405174
0.411042
0.0133009
-0.0200778
-0.565173
0.57195
0.0271625
-0.0350448
-0.697543
0.705426
0.0448771
-0.054104
-0.819346
0.828573
0.0643143
-0.0735816
-0.946883
0.956151
0.0833868
-0.0924083
-1.09271
1.10174
0.102114
-0.11055
-1.25861
1.26705
0.118975
-0.125896
-1.44643
1.45335
0.132619
-0.137524
-1.65913
1.66403
0.140659
-0.14265
-1.59559
1.59759
0.143398
-0.14397
-1.29623
1.29681
0.143754
-0.142428
-1.06287
1.06154
0.1383
-0.12815
-0.841849
0.8317
0.112326
-0.0893265
-0.568785
0.545786
0.0664895
-0.0440685
-0.281405
0.258984
0.0285591
-0.0167228
-0.0977819
0.0859456
0.00957551
-0.00474441
-0.0199025
0.0150714
0.00213962
-0.000668488
0.0026648
-0.00413594
0.000104664
0.00210737
-0.00221204
-0.0874618
0.0846014
0.00286041
-0.00442588
0.00128145
-0.420498
0.423643
0.0038669
-0.00912122
-0.582069
0.587323
0.0152154
-0.0218819
-0.714713
0.721379
0.0303496
-0.0383225
-0.837023
0.844995
0.0471263
-0.0551575
-0.964866
0.972897
0.0640721
-0.0718694
-1.11034
1.11814
0.0804829
-0.0875507
-1.27513
1.2822
0.0950232
-0.101147
-1.46017
1.46629
0.106892
-0.110821
-1.66876
1.67268
0.113509
-0.115174
-1.59909
1.60076
0.115633
-0.115432
-1.29597
1.29577
0.114797
-0.112952
-1.0568
1.05496
0.108026
-0.0976782
-0.817794
0.807446
0.082554
-0.0627882
-0.520115
0.500349
0.0449787
-0.0291145
-0.235547
0.219683
0.0187354
-0.0110538
-0.0736203
0.0659387
0.0064135
-0.00324741
-0.00988944
0.00672335
0.00151263
-0.000494626
0.00586258
-0.00688058
8.50338e-05
0.00244144
-0.00252647
-0.0860045
0.0834005
0.00260399
-0.00606757
0.00464717
-0.431014
0.432434
-0.00071005
-0.00330976
-0.595764
0.599784
0.00825826
-0.0142633
-0.729227
0.735232
0.0213979
-0.0284051
-0.852154
0.859161
0.0360576
-0.0430688
-0.980454
0.987466
0.0507795
-0.0577322
-1.12579
1.13275
0.0651412
-0.07159
-1.28914
1.29558
0.0781235
-0.0834491
-1.4721
1.47742
0.0883897
-0.0916835
-1.67662
1.67991
0.0938765
-0.0949525
-1.60179
1.60287
0.0951241
-0.0947071
-1.29468
1.29426
0.0936664
-0.0911981
-1.0497
1.04724
0.0861258
-0.0759783
-0.793519
0.783372
0.0625007
-0.0460095
-0.478376
0.461885
0.0323753
-0.0209346
-0.202506
0.191065
0.0135723
-0.00818707
-0.057458
0.0520727
0.0048924
-0.00256049
-0.00306568
0.000733767
0.00123949
-0.000425116
0.00814153
-0.0089559
8.53858e-05
0.00269236
-0.00277774
-0.0845179
0.0822176
0.00230026
-0.00641034
0.00564329
-0.438364
0.439131
-0.00319597
-9.73136e-05
-0.606442
0.609736
0.00482728
-0.00994787
-0.741549
0.746669
0.0160557
-0.0221115
-0.865265
0.871321
0.0288659
-0.0350894
-0.994087
1.00031
0.042067
-0.0481398
-1.13939
1.14546
0.0547337
-0.0604636
-1.30172
1.30745
0.0661799
-0.0707919
-1.48247
1.48709
0.074978
-0.0780505
-1.6832
1.68628
0.0797345
-0.0806052
-1.60354
1.60441
0.0805099
-0.079785
-1.29307
1.29234
0.0786166
-0.0755812
-1.04186
1.03882
0.0703759
-0.0609222
-0.770055
0.760602
0.0490412
-0.0354054
-0.443381
0.429745
0.0248215
-0.0162117
-0.17821
0.1696
0.0107562
-0.00666686
-0.0457748
0.0416854
0.00407834
-0.00219186
0.00207157
-0.00395805
0.00108613
-0.000389953
0.00994122
-0.0106374
8.43804e-05
0.00289757
-0.00298195
-0.0832349
0.0813614
0.00187349
-0.00592887
0.00567684
-0.443767
0.444019
-0.00369631
0.00120875
-0.615679
0.618167
0.00310409
-0.00768444
-0.752163
0.756743
0.0133646
-0.0185311
-0.876897
0.882063
0.0243933
-0.0298352
-1.00646
1.0119
0.0362871
-0.0416775
-1.15152
1.15691
0.0474217
-0.0526158
-1.31293
1.31813
0.0580673
-0.0620865
-1.49167
1.49569
0.0658068
-0.068283
-1.68897
1.69145
0.0698773
-0.0701862
-1.60508
1.60539
0.0700652
-0.0692968
-1.29104
1.29027
0.0677394
-0.0646102
-1.03355
1.03043
0.0593933
-0.0504651
-0.747922
0.738994
0.0402125
-0.0287805
-0.414037
0.402605
0.020302
-0.0136088
-0.15959
0.152897
0.00924707
-0.00588609
-0.036684
0.033323
0.00368501
-0.00202202
0.00628117
-0.00794416
0.00101739
-0.000372055
0.0114588
-0.0121042
8.53151e-05
0.00306564
-0.00315096
-0.0823463
0.0808102
0.00153609
-0.00517716
0.00524074
-0.447849
0.447785
-0.00352093
0.00125924
-0.623569
0.625831
0.00269134
-0.00673817
-0.761544
0.765591
0.011531
-0.0163718
-0.887116
0.891957
0.021653
-0.027046
-1.01707
1.02247
0.032486
-0.0374161
-1.16233
1.16726
0.0429556
-0.0475465
-1.32311
1.3277
0.0520452
-0.056012
-1.49953
1.5035
0.0593224
-0.0615021
-1.69395
1.69613
0.0626661
-0.0629864
-1.60587
1.60619
0.0627128
-0.0617648
-1.28885
1.2879
0.0601141
-0.0567692
-1.02535
1.02201
0.0516843
-0.0435674
-0.727242
0.719126
0.0342982
-0.0246994
-0.389212
0.379613
0.0177858
-0.0122544
-0.144791
0.13926
0.0085846
-0.00566533
-0.0290763
0.026157
0.00363981
-0.0020457
0.0100083
-0.0116025
0.00104741
-0.000385706
0.0128441
-0.0135058
9.12402e-05
0.00321238
-0.00330362
-0.0819183
0.0805706
0.00134774
-0.00414255
0.004112
-0.451206
0.451237
-0.0027275
0.000591853
-0.630594
0.63273
0.00294176
-0.006746
-0.77007
0.773874
0.0112047
-0.0154759
-0.89653
0.900801
0.0206947
-0.0250633
-1.02718
1.03155
0.0302218
-0.0347061
-1.17227
1.17676
0.0397818
-0.0442014
-1.33216
1.33658
0.0485333
-0.05177
-1.50709
1.51033
0.0547946
-0.0567169
-1.69814
1.70006
0.057879
-0.0578508
-1.6063
1.60627
0.0574822
-0.0563968
-1.28681
1.28572
0.0546717
-0.0511479
-1.01705
1.01353
0.0462841
-0.0386642
-0.708137
0.700517
0.0304874
-0.0222649
-0.368133
0.35991
0.0164249
-0.0118141
-0.132439
0.127828
0.00859649
-0.00590273
-0.0223401
0.0196463
0.00392539
-0.00228179
0.0135705
-0.0152141
0.00119911
-0.000459802
0.0142324
-0.0149717
0.00010952
0.00335034
-0.00345986
-0.0817047
0.080682
0.00102266
-0.00317976
0.00278505
-0.454346
0.454741
-0.00169424
-0.000404674
-0.636615
0.638714
0.00349367
-0.00706007
-0.777803
0.781369
0.0112008
-0.0154653
-0.90488
0.909145
0.0198659
-0.024221
-1.03607
1.04042
0.0291028
-0.0331121
-1.18159
1.1856
0.0379581
-0.0419762
-1.34067
1.34468
0.0458952
-0.049177
-1.51384
1.51712
0.0520474
-0.0535551
-1.70186
1.70337
0.0542222
-0.0542154
-1.60629
1.60629
0.0538324
-0.0525539
-1.28428
1.283
0.0506231
-0.0472597
-1.00886
1.0055
0.0421524
-0.0352423
-0.690288
0.683378
0.027987
-0.0208736
-0.350057
0.342944
0.0159523
-0.0119253
-0.121893
0.117866
0.00902524
-0.0064355
-0.0161155
0.0135257
0.00442558
-0.00266728
0.0172058
-0.0189641
0.00146197
-0.000583229
0.0157796
-0.0166584
0.000147399
0.00351238
-0.00365978
-0.0818582
0.0810065
0.000851698
-0.00234576
0.00208756
-0.457452
0.45771
-0.000556979
-0.00128863
-0.64249
0.644336
0.00446376
-0.00780142
-0.784796
0.788134
0.0116586
-0.0153815
-0.913019
0.916742
0.0197581
-0.0236198
-1.0447
1.04857
0.0282309
-0.0324657
-1.18999
1.19422
0.036628
-0.0406528
-1.34862
1.35264
0.0445707
-0.0474483
-1.52012
1.523
0.0500405
-0.0516259
-1.7049
1.70648
0.0519795
-0.0518269
-1.60593
1.60578
0.0510038
-0.0495912
-1.28154
1.28013
0.0476332
-0.0440702
-1.00086
0.997292
0.0392216
-0.0327084
-0.673909
0.667396
0.0262428
-0.0200447
-0.334259
0.328061
0.0157725
-0.0122488
-0.112689
0.109166
0.00956852
-0.0070496
-0.0101737
0.00765477
0.00500177
-0.00312905
0.0210178
-0.0228905
0.00177542
-0.000737083
0.0175896
-0.018628
0.000195423
0.00374064
-0.00393607
-0.0822854
0.0816059
0.000679467
-0.00135916
0.000988031
-0.460514
0.460885
0.000311111
-0.00239309
-0.647769
0.649851
0.00542521
-0.00852092
-0.791343
0.794438
0.0123604
-0.0158237
-0.920396
0.923859
0.0199017
-0.0237441
-1.05285
1.0567
0.0280698
-0.0320585
-1.1982
1.20219
0.0361762
-0.0399253
-1.35645
1.3602
0.0436218
-0.046815
-1.52599
1.52918
0.0492218
-0.0503736
-1.70774
1.70889
0.050618
-0.0499163
-1.60522
1.60452
0.0489459
-0.0474063
-1.2784
1.27686
0.0449969
-0.0412984
-0.99274
0.989041
0.0365312
-0.0303134
-0.658739
0.652521
0.024616
-0.0192137
-0.320599
0.315197
0.0155356
-0.0123747
-0.104542
0.101381
0.0099086
-0.00748179
-0.00445292
0.00202611
0.00545402
-0.00352059
0.0250072
-0.0269407
0.00206069
-0.000890768
0.0196818
-0.0208517
0.000253461
0.00405664
-0.0043101
-0.0829376
0.0823782
0.000559323
-0.000544913
0.000109635
-0.463595
0.46403
0.00120346
-0.00327128
-0.652973
0.655041