/*--------------------------------*- C++ -*----------------------------------*\
  =========                 |
  \\      /  F ield         | OpenFOAM: The Open Source CFD Toolbox
   \\    /   O peration     | Website:  https://openfoam.org
    \\  /    A nd           | Version:  6
     \\/     M anipulation  |
\*---------------------------------------------------------------------------*/
FoamFile
{
    version     2.0;
    format      ascii;
    class       surfaceScalarField;
    location    "35";
    object      phi;
}
// * * * * * * * * * * * * * * * * * * * * * * * * * * * * * * * * * * * * * //

dimensions      [0 3 -1 0 0 0 0];

internalField   nonuniform List<scalar> 
17370
(
-0.0900001
0.0898528
0.289158
-0.0714596
0.0537538
0.364481
-0.0381205
0.0276937
0.426595
-0.0196423
0.0146074
0.504287
-0.0107607
0.00826514
0.601898
-0.00626132
0.00488557
0.720433
-0.00372924
0.00289998
0.863736
-0.00217246
0.00162438
1.036
-0.00111704
0.000710557
1.24291
-0.000306382
-8.44667e-05
1.49158
0.00046061
-0.000861393
1.49159
0.00125608
-0.00174962
1.24318
0.00228642
-0.00300432
1.03636
0.00382716
-0.00497771
0.864057
0.00634777
-0.00834429
0.721054
0.010833
-0.0146727
0.603054
0.0197018
-0.0277468
0.507484
0.0381678
-0.0537934
0.431794
0.0714913
-0.0898737
0.365158
0.0900121
0.198999
-0.128127
0.0882048
0.0399223
-0.364586
0.353395
-0.0746965
0.0858877
-0.446475
0.454312
-0.0843963
0.0765592
-0.521182
0.529891
-0.0684702
0.0597612
-0.612778
0.621557
-0.0515738
0.0427952
-0.726886
0.734148
-0.035337
0.0280745
-0.86747
0.872562
-0.0224871
0.017395
-1.03847
1.04189
-0.0136092
0.0101844
-1.2446
1.24702
-0.00759195
0.00517518
-1.49264
1.4946
-0.00323911
0.00127649
-1.4925
1.49421
0.000404006
-0.00211889
-1.24398
1.24587
0.00402142
-0.00590636
-1.03751
1.04005
0.00826997
-0.0108146
-0.866102
0.869846
0.0141895
-0.0179338
-0.724398
0.729947
0.022983
-0.0285316
-0.608705
0.616125
0.0357509
-0.0431702
-0.514902
0.523055
0.051908
-0.0600604
-0.439861
0.447921
0.0687326
-0.0767925
-0.375307
0.376754
0.0845975
-0.0860442
-0.257339
0.2225
0.0748032
-0.0399642
-0.0684955
0.0586671
0.00982837
-0.051854
0.0584522
-0.374108
0.36751
-0.0575464
0.0538005
-0.453582
0.457328
-0.0487131
0.0447615
-0.527926
0.531878
-0.0409206
0.0372821
-0.621536
0.625175
-0.033184
0.0291213
-0.73532
0.739382
-0.024577
0.0204487
-0.874311
0.878439
-0.0161411
0.012476
-1.04346
1.04712
-0.00876952
0.00561717
-1.24854
1.25169
-0.00230751
-0.000761963
-1.49664
1.49971
0.00380814
-0.00706157
-1.49722
1.50047
0.010136
-0.0137447
-1.25009
1.2537
0.0173169
-0.0215272
-1.04594
1.05015
0.0255737
-0.0300361
-0.877783
0.882246
0.0340274
-0.0380474
-0.739926
0.743946
0.0416152
-0.0453818
-0.626801
0.630568
0.0492716
-0.0543004
-0.534836
0.539865
0.0579861
-0.0588157
-0.457506
0.458336
0.0521311
-0.0319503
-0.335806
0.315625
0.00987413
-0.068374
0.0584998
-0.0529098
0.048908
0.00400177
-0.0332049
0.0437698
-0.358057
0.347492
-0.0474852
0.0468702
-0.459251
0.459866
-0.0438248
0.0404797
-0.535765
0.53911
-0.0367154
0.0334208
-0.628484
0.631778
-0.0299993
0.0269903
-0.742598
0.745607
-0.0237646
0.0206892
-0.881952
0.885028
-0.0171918
0.0138392
-1.05069
1.05405
-0.0100761
0.00656774
-1.2551
1.25861
-0.00263647
-0.00112611
-1.50321
1.50697
0.00486071
-0.00870786
-1.50414
1.50798
0.0121105
-0.0157345
-1.25744
1.26106
0.0189543
-0.0223088
-1.05396
1.05731
0.0252636
-0.0283702
-0.885752
0.888859
0.0312758
-0.0345855
-0.747231
0.750541
0.0377792
-0.0414378
-0.634378
0.638036
0.0446938
-0.0476411
-0.544195
0.547142
0.0481559
-0.0443008
-0.456645
0.45279
0.0335718
-0.0161727
-0.296302
0.278903
0.00405738
-0.0526939
0.0486365
-0.0458223
0.0433202
0.00250205
-0.0228552
0.03326
-0.336776
0.326371
-0.0391055
0.0401395
-0.459529
0.458495
-0.0389655
0.0366914
-0.541805
0.544079
-0.0340378
0.0314582
-0.634797
0.637377
-0.0284223
0.0255599
-0.748633
0.751496
-0.0223479
0.0194034
-0.887976
0.890921
-0.0161484
0.0130903
-1.05716
1.06022
-0.00960605
0.00623187
-1.26204
1.26541
-0.00230536
-0.00154961
-1.51082
1.51467
0.00536805
-0.00918927
-1.51187
1.51569
0.0124194
-0.0157181
-1.26452
1.26782
0.0185961
-0.0216539
-1.06043
1.06349
0.0244328
-0.0274823
-0.891932
0.894981
0.0302055
-0.0330919
-0.753768
0.756654
0.035536
-0.0380469
-0.641127
0.643638
0.0402008
-0.0412231
-0.548973
0.549995
0.0400345
-0.0339673
-0.447554
0.441487
0.0233238
-0.0101744
-0.263744
0.250595
0.00257065
-0.0454911
0.0429205
-0.0412364
0.0394627
0.0017737
-0.0167964
0.0260776
-0.316487
0.307205
-0.0327149
0.0348777
-0.456868
0.454706
-0.0344746
0.0328166
-0.546031
0.547689
-0.0306468
0.0285685
-0.63965
0.641728
-0.0261715
0.0238255
-0.754115
0.756461
-0.0210412
0.0183226
-0.893783
0.896502
-0.0151589
0.0121488
-1.06321
1.06622
-0.00871682
0.00544145
-1.26869
1.27196
-0.00165629
-0.00203639
-1.51844
1.52213
0.00568551
-0.00934099
-1.51943
1.52309
0.0124399
-0.0156391
-1.27107
1.27427
0.0184152
-0.0213185
-1.06652
1.06942
0.0238147
-0.026382
-0.897809
0.900376
0.0285486
-0.0307569
-0.759135
0.761343
0.0326652
-0.0346527
-0.645833
0.647821
0.0361383
-0.0363352
-0.550557
0.550754
0.0339369
-0.0269781
-0.434896
0.427937
0.017378
-0.00732629
-0.239146
0.229094
0.00185726
-0.0407642
0.0389069
-0.0379312
0.0365955
0.00133566
-0.0128304
0.0208042
-0.298577
0.290603
-0.0275893
0.0305437
-0.452106
0.449151
-0.0307803
0.029691
-0.549079
0.550168
-0.0277289
0.0258483
-0.643718
0.645599
-0.0237013
0.0216255
-0.758668
0.760744
-0.0191855
0.0167692
-0.899041
0.901457
-0.0138989
0.0110892
-1.06911
1.07192
-0.00780754
0.00464333
-1.27516
1.27833
-0.000967233
-0.00260951
-1.52573
1.52931
0.00613371
-0.00965104
-1.52668
1.53019
0.0126012
-0.0155923
-1.27741
1.28041
0.0181087
-0.0206514
-1.07217
1.07471
0.0227845
-0.0249445
-0.902694
0.904854
0.026789
-0.0286982
-0.763356
0.765265
0.0303667
-0.0321088
-0.649679
0.651421
0.0329496
-0.0324276
-0.550601
0.550079
0.029141
-0.021921
-0.420792
0.413572
0.0135416
-0.00563693
-0.220219
0.212314
0.00143681
-0.0372873
0.0358505
-0.0354262
0.0343963
0.00102989
-0.0100241
0.016762
-0.283268
0.27653
-0.0232773
0.0266806
-0.445942
0.442539
-0.0274896
0.0268141
-0.55102
0.551695
-0.0250821
0.0233327
-0.647434
0.649183
-0.021326
0.019392
-0.762768
0.764702
-0.0171298
0.0149059
-0.903738
0.905962
-0.012278
0.00969185
-1.07456
1.07714
-0.00663803
0.00364293
-1.28138
1.28437
-0.000122977
-0.0033198
-1.53281
1.53626
0.00669577
-0.0100146
-1.53362
1.53694
0.0127401
-0.0154319
-1.28327
1.28597
0.0176518
-0.0198636
-1.0771
1.07931
0.0217244
-0.0236241
-0.906861
0.908761
0.0252611
-0.0269734
-0.767039
0.768752
0.0284669
-0.0299091
-0.653041
0.654483
0.0302804
-0.0290717
-0.549233
0.548024
0.025216
-0.0181342
-0.406399
0.399317
0.0108909
-0.00450229
-0.205239
0.198851
0.00115259
-0.0345741
0.0334215
-0.0334901
0.032688
0.000802095
-0.00793043
0.013582
-0.27036
0.264708
-0.0196029
0.0232077
-0.439013
0.435408
-0.0245123
0.0241074
-0.552255
0.55266
-0.0226698
0.0210524
-0.650905
0.652522
-0.0191576
0.0173153
-0.766607
0.76845
-0.0151436
0.0130036
-0.908093
0.910233
-0.0104828
0.00801958
-1.0796
1.08206
-0.00513937
0.00232777
-1.28724
1.29005
0.000962383
-0.00416926
-1.53957
1.54278
0.00729447
-0.0103371
-1.54013
1.54318
0.0128154
-0.0152473
-1.28856
1.29099
0.0172579
-0.0192673
-1.08144
1.08345
0.0209564
-0.0226741
-0.910557
0.912274
0.0241476
-0.0256763
-0.770334
0.771862
0.0269724
-0.0280354
-0.655732
0.656795
0.0280392
-0.0261975
-0.54651
0.544668
0.0219974
-0.0152584
-0.392403
0.385664
0.00898441
-0.00369787
-0.193066
0.187779
0.000950688
-0.0323848
0.0314342
-0.0319837
0.03136
0.00062376
-0.00629689
0.0110097
-0.259549
0.254837
-0.0164171
0.0200081
-0.431798
0.428207
-0.0216343
0.0214665
-0.552961
0.553129
-0.0202839
0.0187521
-0.654128
0.655659
-0.0169454
0.0151818
-0.770275
0.772038
-0.0131005
0.01105
-0.912276
0.914327
-0.00863945
0.0062904
-1.0844
1.08675
-0.00355005
0.000886728
-1.29273
1.2954
0.00221419
-0.00521557
-1.54585
1.54885
0.00811247
-0.0109033
-1.54609
1.54888
0.0131496
-0.0153342
-1.29334
1.29553
0.0171238
-0.0188991
-1.08539
1.08717
0.0203832
-0.0218941
-0.913885
0.915396
0.0231977
-0.0245523
-0.773255
0.774609
0.0257088
-0.0264012
-0.657656
0.658349
0.0260607
-0.0237268
-0.542601
0.540267
0.0193653
-0.0130573
-0.379153
0.372846
0.00758042
-0.00311299
-0.182944
0.178477
0.000804594
-0.0305711
0.0297665
-0.0308173
0.0303392
0.000478085
-0.00496499
0.00885755
-0.250557
0.246664
-0.0136021
0.0170311
-0.424702
0.421273
-0.0188382
0.018863
-0.553238
0.553214
-0.0178764
0.0163913
-0.657231
0.658716
-0.014634
0.0129249
-0.77378
0.775489
-0.0109178
0.00894862
-0.916249
0.918218
-0.00663237
0.00437633
-1.08895
1.09121
-0.00174766
-0.00078623
-1.29794
1.30047
0.00370382
-0.00648708
-1.55172
1.5545
0.00914897
-0.011695
-1.55156
1.55411
0.0137266
-0.0156838
-1.29764
1.2996
0.0172663
-0.0188164
-1.08885
1.0904
0.0200971
-0.0213859
-0.916783
0.918072
0.0224988
-0.0236776
-0.775839
0.777018
0.0246638
-0.025019
-0.658851
0.659206
0.0243335
-0.0216127
-0.537777
0.535056
0.0172114
-0.0113547
-0.366792
0.360936
0.00652813
-0.00268123
-0.174359
0.170512
0.000697789
-0.0290302
0.0283324
-0.0299302
0.0295765
0.000353663
-0.00382965
0.00698693
-0.24316
0.240003
-0.0110425
0.0141924
-0.417994
0.414844
-0.0160683
0.0162866
-0.553132
0.552914
-0.0154398
0.0140858
-0.660207
0.661561
-0.0123753
0.0106833
-0.777197
0.778889
-0.00868391
0.00672715
-0.920083
0.92204
-0.00444745
0.00225102
-1.09334
1.09554
0.000280018
-0.00269646
-1.30288
1.3053
0.00545082
-0.00805004
-1.55715
1.55975
0.0104957
-0.0127893
-1.55653
1.55882
0.0145831
-0.0162836
-1.30149
1.30319
0.0176454
-0.0189733
-1.09187
1.0932
0.0200726
-0.0211865
-0.919284
0.920398
0.0221443
-0.0231382
-0.778081
0.779075
0.0238568
-0.0239196
-0.659412
0.659474
0.0228617
-0.0198219
-0.532205
0.529165
0.0154566
-0.0100353
-0.355324
0.349903
0.00573875
-0.00236635
-0.166935
0.163563
0.000623099
-0.0276857
0.0270626
-0.0292861
0.0290462
0.000239875
-0.0028102
0.00528692
-0.237209
0.234732
-0.00863454
0.0113986
-0.411911
0.409147
-0.0131968
0.0135052
-0.552703
0.552394
-0.0127356
0.0114679
-0.662942
0.664209
-0.00978584
0.00810117
-0.780568
0.782252
-0.00611117
0.00417549
-0.923874
0.92581
-0.00193873
-0.000196674
-1.09759
1.09973
0.00263544
-0.00494567
-1.30759
1.3099
0.0075566
-0.00998678
-1.56223
1.56466
0.0122271
-0.0142647
-1.561
1.56304
0.0158177
-0.017255
-1.3048
1.30624
0.0183839
-0.0194637
-1.09445
1.09553
0.0203429
-0.0212289
-0.921411
0.922297
0.0219846
-0.0227356
-0.779926
0.780677
0.0231909
-0.0229916
-0.659372
0.659173
0.0215883
-0.0183157
-0.526048
0.522775
0.0140397
-0.0090153
-0.34472
0.339696
0.00514657
-0.00213684
-0.160408
0.157398
0.000570827
-0.0264832
0.0259123
-0.0288671
0.0287359
0.000131237
-0.001839
0.00365687
-0.232604
0.230786
-0.00627852
0.0085832
-0.406651
0.404346
-0.0101965
0.0105126
-0.552171
0.551855
-0.00977596
0.00853984
-0.665556
0.666792
-0.00684933
0.00515067
-0.783911
0.78561
-0.00316141
0.00124442
-0.927588
0.929505
0.000957053
-0.00305208
-1.10171
1.10381
0.0054288
-0.00765431
-1.31208
1.31431
0.0101201
-0.0123594
-1.56694
1.56918
0.0143645
-0.0161308
-1.56495
1.56672
0.0174162
-0.0185478
-1.30758
1.30871
0.0193915
-0.020159
-1.0965
1.09726
0.0207687
-0.0213745
-0.923073
0.923679
0.0219242
-0.0225123
-0.781346
0.781934
0.0226688
-0.0222057
-0.658755
0.658292
0.0205057
-0.017056
-0.519463
0.516013
0.0128896
-0.00821762
-0.334899
0.330227
0.00469898
-0.0019716
-0.15457
0.151843
0.000536344
-0.0253788
0.0248425
-0.0286675
0.0286499
1.75381e-05
-0.000877829
0.00204261
-0.229317
0.228152
-0.00390987
0.0056865
-0.402359
0.400583
-0.00702679
0.00730555
-0.551677
0.551398
-0.00661514
0.00543297
-0.668112
0.669294
-0.00374385
0.002016
-0.787259
0.788987
2.97394e-05
-0.0020033
-0.931277
0.93325
0.00426025
-0.00637908
-1.10578
1.1079
0.0087451
-0.0109076
-1.3164
1.31857
0.0132392
-0.0152863
-1.57126
1.57331
0.0170466
-0.0185324
-1.56833
1.56982
0.0195585
-0.0204093
-1.30977
1.31062
0.0210062
-0.0215101
-1.09797
1.09847
0.021869
-0.0221996
-0.924207
0.924538
0.022477
-0.0227687
-0.78232
0.782612
0.0226083
-0.0217961
-0.657512
0.6567
0.0197429
-0.0160922
-0.512538
0.508887
0.0120185
-0.00764193
-0.325771
0.321394
0.00439656
-0.00187249
-0.149267
0.146743
0.000520995
-0.0243378
0.0238168
-0.0286865
0.028791
-0.000104527
0.000149579
0.00035194
-0.227334
0.226832
-0.0014291
0.0025984
-0.399174
0.398004
-0.00354534
0.00369077
-0.551333
0.551188
-0.00298939
0.00181096
-0.67059
0.671768
-9.64007e-05
-0.00169345
-0.790658
0.792448
0.00381716
-0.00584934
-0.93507
0.937102
0.00814197
-0.0102697
-1.10987
1.112
0.0126141
-0.0147386
-1.32061
1.32273
0.016991
-0.0188975
-1.57522
1.57712
0.0204645
-0.0216688
-1.57115
1.57236
0.0223773
-0.022849
-1.31136
1.31183
0.0230979
-0.0232443
-1.09886
1.09901
0.0233051
-0.0233397
-0.924769
0.924804
0.0233668
-0.0232966
-0.782614
0.782544
0.022855
-0.0215767
-0.655524
0.654246
0.0191875
-0.0153834
-0.505277
0.501473
0.0114013
-0.00725933
-0.317227
0.313085
0.00421394
-0.00182526
-0.144345
0.141956
0.000519653
-0.0233249
0.0228053
-0.0289616
0.0291999
-0.000238304
0.00117225
-0.00137488
-0.226718
0.226921
0.00114642
-0.000664807
-0.397254
0.396773
0.000239889
-0.000356786
-0.55138
0.551496
0.00118702
-0.00246279
-0.673131
0.674407
0.00427314
-0.0061503
-0.79416
0.796037
0.00835968
-0.010465
-0.938957
0.941062
0.0128387
-0.0150296
-1.11398
1.11617
0.0174134
-0.0195111
-1.32472
1.32682
0.0216441
-0.0233497
-1.57886
1.58056
0.0246182
-0.0254817
-1.57337
1.57423
0.0258721
-0.0259765
-1.3122
1.3123
0.0258877
-0.0256482
-1.09902
1.09878
0.0253572
-0.025021
-0.924667
0.924331
0.0247105
-0.0242879
-0.782148
0.781725
0.0234812
-0.0217182
-0.652698
0.650935
0.0190054
-0.0150265
-0.49776
0.493781
0.0110752
-0.00707652
-0.309134
0.305135
0.0041491
-0.00182575
-0.139671
0.137347
0.000529821
-0.0223122
0.0217824
-0.0295114
0.0298896
-0.00037817
0.00227904
-0.00319517
-0.227439
0.228355
0.00385404
-0.00412812
-0.396734
0.397008
0.00430179
-0.00472949
-0.552052
0.552479
0.00569124
-0.00708263
-0.675899
0.67729
0.00903195
-0.0110502
-0.797821
0.79984
0.0134265
-0.0156838
-0.942999
0.945256
0.0182164
-0.0205348
-1.11824
1.12056
0.0230265
-0.0251756
-1.3288
1.33095
0.0272821
-0.0288646
-1.58211
1.58369
0.029916
-0.0304451
-1.5749
1.57543
0.0305137
-0.0302215
-1.31227
1.31197
0.0297334
-0.0290679
-1.09833
1.09767
0.0283906
-0.0276278
-0.923742
0.922979
0.0269461
-0.0260727
-0.780892
0.780019
0.0248158
-0.0225163
-0.649
0.6467
0.0194023
-0.0151712
-0.489888
0.485657
0.011165
-0.00718749
-0.301297
0.29732
0.0042594
-0.0018957
-0.135092
0.132728
0.000555286
-0.0212765
0.0207212
-0.0303638
0.0309209
-0.000557094
0.00348541
-0.00512356
-0.229658
0.231296
0.00667231
-0.0077603
-0.3977
0.398788
0.0086689
-0.00953424
-0.553457
0.554322
0.0107552
-0.0123397
-0.678938
0.680523
0.0145143
-0.0167681
-0.801776
0.80403
0.0194255
-0.0219404
-0.947373
0.949888
0.0247364
-0.0272581
-1.12277
1.12529
0.0299083
-0.0321295
-1.33299
1.33521
0.0342208
-0.0356735
-1.58512
1.58657
0.03647
-0.0366156
-1.57572
1.57587
0.0362825
-0.0355373
-1.31147
1.31072
0.034636
-0.0335095
-1.09675
1.09562
0.032425
-0.0312258
-0.921902
0.920703
0.0301626
-0.0287564
-0.778697
0.777291
0.0269633
-0.0240926
-0.644275
0.641404
0.0205604
-0.0160279
-0.481536
0.477003
0.0118554
-0.0077198
-0.293453
0.289317
0.0046212
-0.00206887
-0.130378
0.127826
0.000605654
-0.0201837
0.0195781
-0.0315751
0.0323404
-0.00076528
0.00483964
-0.00726889
-0.233366
0.235795
0.00978124
-0.011735
-0.400321
0.402275
0.0134766
-0.0149161
-0.555855
0.557294
0.0165938
-0.0185216
-0.682448
0.684376
0.0210743
-0.023682
-0.806222
0.80883
0.0267291
-0.0295828
-0.952271
0.955125
0.0327181
-0.0355001
-1.12771
1.13049
0.0383622
-0.0406846
-1.33731
1.33964
0.0427624
-0.0440418
-1.58783
1.58911
0.044536
-0.0442558
-1.57575
1.57547
0.0434578
-0.0422012
-1.3097
1.30844
0.0408236
-0.0391925
-1.09417
1.09254
0.0376638
-0.0360054
-0.919124
0.917466
0.0345185
-0.0325139
-0.775415
0.77341
0.0302107
-0.0267829
-0.63848
0.635053
0.0227927
-0.0178298
-0.472583
0.46762
0.0132966
-0.00875263
-0.285206
0.280662
0.00527636
-0.00236629
-0.12522
0.12231
0.000689705
-0.0189795
0.0182898
-0.0331951
0.0342193
-0.00102423
0.00646669
-0.00979762
-0.238658
0.241989
0.0133753
-0.0162694
-0.404792
0.407686
0.0189379
-0.0211018
-0.559583
0.561747
0.0234412
-0.0259074
-0.686774
0.68924
0.02903
-0.0321436
-0.811409
0.814523
0.0357173
-0.0390167
-0.957861
0.96116
0.0425874
-0.0457031
-1.13317
1.13629
0.0488277
-0.0512649
-1.34183
1.34427
0.0532776
-0.0543049
-1.59014
1.59117
0.0543904
-0.05358
-1.57487
1.57405
0.0522581
-0.0504002
-1.30682
1.30497
0.0484922
-0.0462995
-1.09051
1.08832
0.044306
-0.0421842
-0.91535
0.913228
0.0402396
-0.0377092
-0.770988
0.768458
0.0348551
-0.0307855
-0.631598
0.627529
0.026195
-0.0205781
-0.462736
0.457119
0.0154403
-0.0102243
-0.276053
0.270837
0.00617762
-0.00276579
-0.11929
0.115878
0.000801746
-0.0175989
0.0167971
-0.0353243
0.0367103
-0.001386
0.00865198
-0.0131161
-0.245752
0.250216
0.0179478
-0.0218918
-0.411299
0.415243
0.0255545
-0.0285055
-0.564953
0.567904
0.031608
-0.034747
-0.692298
0.695437
0.038613
-0.0423798
-0.817629
0.821396
0.0466398
-0.0505187
-0.964376
0.968255
0.054653
-0.0581881
-1.13931
1.14285
0.0616396
-0.0642109
-1.34655
1.34912
0.0661524
-0.0668985
-1.59191
1.59266
0.0665133
-0.0650772
-1.57285
1.57142
0.063137
-0.060585
-1.3027
1.30015
0.0580601
-0.0552512
-1.08564
1.08283
0.0527307
-0.0500629
-0.910527
0.90786
0.0475947
-0.0444769
-0.765493
0.762375
0.0409801
-0.0360897
-0.623408
0.618517
0.03069
-0.0241609
-0.451544
0.445015
0.0181698
-0.0120366
-0.265492
0.259359
0.0072575
-0.00323544
-0.112325
0.108303
0.00093284
-0.0159914
0.0150585
-0.03815
0.040073
-0.00192302
0.0117751
-0.0177437
-0.255088
0.261057
0.0241204
-0.0293032
-0.420196
0.425378
0.0340863
-0.0379433
-0.57218
0.576037
0.0419376
-0.0458835
-0.699268
0.703214
0.0506377
-0.0552049
-0.825151
0.829719
0.0602957
-0.0648606
-0.972079
0.976643
0.0696408
-0.0736289
-1.1463
1.15029
0.07739
-0.080052
-1.35149
1.35416
0.0818711
-0.0822594
-1.59307
1.59345
0.081334
-0.0791898
-1.56954
1.56739
0.0765569
-0.0732225
-1.29713
1.29379
0.0699761
-0.0663724
-1.07942
1.07581
0.0631613
-0.0597908
-0.90445
0.901079
0.0566448
-0.0527881
-0.758684
0.754827
0.0484841
-0.042575
-0.613509
0.6076
0.0361657
-0.0284598
-0.438518
0.430812
0.0213571
-0.0140756
-0.253069
0.245787
0.00843403
-0.00373106
-0.10414
0.0994367
0.00106649
-0.0141292
0.0130627
-0.041993
0.0447641
-0.00277112
0.0164802
-0.0245132
-0.267386
0.275419
0.0328684
-0.0395961
-0.432156
0.438884
0.0457661
-0.0507722
-0.581664
0.58667
0.0559754
-0.0610622
-0.707971
0.713058
0.0669389
-0.0724243
-0.834278
0.839764
0.0784069
-0.0836558
-0.981137
0.986386
0.0890011
-0.0932971
-1.15412
1.15841
0.097136
-0.0996303
-1.35649
1.35899
0.100981
-0.100686
-1.59334
1.59304
0.0988967
-0.0957613
-1.56467
1.56154
0.0922369
-0.0879702
-1.28992
1.28565
0.0839149
-0.0794676
-1.07154
1.0671
0.0755146
-0.071317
-0.896791
0.892593
0.0673514
-0.0626009
-0.750214
0.745463
0.0573531
-0.0503031
-0.601488
0.594438
0.0426715
-0.0334526
-0.423127
0.413908
0.0249386
-0.0162846
-0.238363
0.229709
0.00966761
-0.00423026
-0.0946195
0.0891822
0.00119388
-0.0120132
0.0108193
-0.0474273
0.0516527
-0.00422543
0.0239466
-0.0348501
-0.283842
0.294746
0.0458187
-0.0546548
-0.448253
0.457089
0.0626589
-0.0691788
-0.594056
0.600576
0.0760459
-0.0825659
-0.719004
0.725524
0.0897673
-0.0961945
-0.845201
0.851628
0.102944
-0.10864
-0.991442
0.997138
0.114179
-0.118377
-1.16233
1.16653
0.121813
-0.123655
-1.3609
1.36274
0.123984
-0.122488
-1.59195
1.59045
0.119365
-0.114817
-1.55757
1.55302
0.110077
-0.10458
-1.28067
1.27517
0.0995157
-0.0941042
-1.06191
1.05649
0.0893933
-0.0844417
-0.887365
0.882414
0.0798091
-0.0742053
-0.739819
0.734215
0.0679866
-0.0594956
-0.587034
0.578543
0.0502232
-0.039045
-0.404627
0.393449
0.0288354
-0.0186236
-0.221011
0.210799
0.0109266
-0.00470897
-0.0837038
0.0774861
0.00130332
-0.00966471
0.00836139
-0.0555299
0.0627801
-0.0072502
0.0371697
-0.0523804
-0.306631
0.321841
0.0670494
-0.0786428
-0.470021
0.481614
0.088584
-0.0966758
-0.610033
0.618124
0.105339
-0.113271
-0.732708
0.740641
0.121549
-0.128511
-0.857796
0.864757
0.13544
-0.140967
-1.00236
1.00789
0.146016
-0.149495
-1.17002
1.1735
0.151887
-0.152516
-1.36367
1.3643
0.151305
-0.148182
-1.58787
1.58475
0.143427
-0.137254
-1.54745
1.54128
0.131143
-0.124285
-1.26881
1.26195
0.118099
-0.111627
-1.05022
1.04375
0.106103
-0.100423
-0.876356
0.870677
0.0951512
-0.088557
-0.727506
0.720912
0.0807659
-0.070021
-0.569292
0.558547
0.0584884
-0.0450288
-0.382053
0.368593
0.0330105
-0.0211366
-0.200759
0.188886
0.0122416
-0.00517173
-0.071409
0.0643391
0.00138592
-0.00713225
0.00574633
-0.069595
0.0734854
-0.0038904
0.0276734
-0.040835
-0.339652
0.352813
0.0539291
-0.0644009
-0.49853
0.509002
0.0739883
-0.0832603
-0.629559
0.638831
0.0938726
-0.103369
-0.748167
0.757663
0.113877
-0.12313
-0.870819
0.880072
0.132825
-0.141255
-1.01246
1.02089
0.14983
-0.156908
-1.17586
1.18294
0.163528
-0.168261
-1.36371
1.36844
0.171573
-0.172421
-1.58038
1.58123
0.17071
-0.166871
-1.534
1.53016
0.161931
-0.155465
-1.25419
1.24772
0.149176
-0.141643
-1.03634
1.02881
0.134963
-0.127527
-0.8636
0.856163
0.120069
-0.110138
-0.712363
0.702431
0.0978055
-0.0819428
-0.546548
0.530685
0.0662175
-0.0487564
-0.354802
0.337341
0.0340823
-0.0204924
-0.177362
0.163772
0.0110221
-0.00423741
-0.0579158
0.0511311
0.000959881
-0.00450158
0.0035417
-0.0807504
0.0785032
0.00224716
0.00603635
-0.0140872
-0.368722
0.376773
0.0237572
-0.0313165
-0.523918
0.531478
0.0390723
-0.0469018
-0.650503
0.658333
0.0564881
-0.065338
-0.766792
0.775642
0.0747287
-0.0832285
-0.888776
0.897275
0.0921539
-0.0996417
-1.02904
1.03653
0.107516
-0.11372
-1.18988
1.19608
0.119571
-0.123588
-1.37298
1.377
0.126058
-0.126381
-1.58147
1.58179
0.124312
-0.120219
-1.5259
1.5218
0.11485
-0.107855
-1.24102
1.23402
0.100793
-0.0922511
-1.02059
1.01205
0.0836162
-0.0731582
-0.845648
0.83519
0.0629387
-0.0517282
-0.686869
0.675659
0.0412181
-0.0297478
-0.512229
0.500759
0.0201823
-0.0119043
-0.319426
0.311148
0.0064638
-0.00266984
-0.150603
0.146809
0.000677085
0.000153127
-0.0446743
0.0438441
-0.000240908
-0.00224549
0.0024864
-0.0815799
0.0786069
0.00297306
-0.00256383
-0.00164075
-0.387918
0.392122
0.00764946
-0.0131138
-0.542612
0.548076
0.0189487
-0.0255108
-0.6681
0.674662
0.0335947
-0.0411123
-0.783559
0.791077
0.049363
-0.0567457
-0.905018
0.912401
0.0643415
-0.0711588
-1.04389
1.05071
0.0782001
-0.0839194
-1.20197
1.20769
0.0889837
-0.0923769
-1.38054
1.38394
0.094572
-0.094526
-1.58165
1.5816
0.0921163
-0.087678
-1.51723
1.5128
0.0820043
-0.0747426
-1.2268
1.21954
0.0669071
-0.0575691
-1.00253
0.993188
0.0481215
-0.0370339
-0.823305
0.812217
0.0269715
-0.0166584
-0.66108
0.650767
0.00828345
-0.000653579
-0.487469
0.479839
-0.00399488
0.00633615
-0.301351
0.29901
-0.00664295
0.00559164
-0.141348
0.142399
-0.00400713
0.00210803
-0.0422636
0.0441627
-0.000760081
-0.00207859
0.00283867
-0.0800899
0.0772221
0.00286785
-0.00593471
0.0041306
-0.400165
0.401969
-0.000572712
-0.00335727
-0.556418
0.560348
0.00820315
-0.0135261
-0.682189
0.687512
0.0202513
-0.0265896
-0.797986
0.804325
0.0335951
-0.0399556
-0.919286
0.925646
0.0469585
-0.0528969
-1.05716
1.0631
0.0592597
-0.0640401
-1.21311
1.21789
0.068629
-0.0716606
-1.38723
1.39026
0.0733345
-0.0726526
-1.58119
1.58051
0.0699996
-0.0653122
-1.50771
1.50303
0.0594172
-0.051624
-1.21181
1.20401
0.0437357
-0.0344968
-0.983207
0.973968
0.0252832
-0.0151807
-0.800518
0.790415
0.00603635
0.00255288
-0.638318
0.629728
-0.0087343
0.0131911
-0.470323
0.465866
-0.0148441
0.0140698
-0.293398
0.294172
-0.0119801
0.0087839
-0.141754
0.14495
-0.00586021
0.00283398
-0.0450812
0.0481074
-0.000911033
-0.00294561
0.00385665
-0.0784347
0.075989
0.00244564
-0.00670569
0.00631707
-0.408163
0.408552
-0.00378525
0.000990966
-0.567227
0.570021
0.00280013
-0.0075049
-0.693658
0.698362
0.0130059
-0.0185026
-0.81001
0.815506
0.024563
-0.0301524
-0.931624
0.937213
0.0362896
-0.0417197
-1.06897
1.0744
0.0472992
-0.0518479
-1.22261
1.22716
0.055944
-0.0585663
-1.39297
1.3956
0.0598214
-0.0588048
-1.57961
1.57859
0.0558917
-0.050858
-1.49754
1.49251
0.0449673
-0.0374876
-1.19605
1.18857
0.0299735
-0.0212583
-0.96437
0.955655
0.0130852
-0.00426923
-0.779946
0.77113
-0.0032715
0.0102828
-0.61986
0.612849
-0.0149239
0.0177197
-0.458832
0.456037
-0.0183466
0.0164759
-0.290915
0.292786
-0.0133938
0.00967845
-0.146139
0.149854
-0.00631727
0.00297238
-0.0500267
0.0533716
-0.000934035
-0.00426354
0.00519758
-0.0770425
0.0750186
0.00202395
-0.00624056
0.0061601
-0.413587
0.413667
-0.00481203
0.00256012
-0.575402
0.577653
0.00114118
-0.00509935
-0.703144
0.707102
0.00975691
-0.014493
-0.820277
0.825013
0.0198951
-0.0249524
-0.942519
0.947577
0.0306677
-0.0355439
-1.07961
1.08448
0.0406876
-0.0448833
-1.23147
1.23566
0.0485764
-0.050871
-1.39795
1.40025
0.0517979
-0.0509363
-1.57742
1.57656
0.0479109
-0.0431159
-1.48697
1.48218
0.0374899
-0.0305193
-1.18096
1.17399
0.0239081
-0.0160689
-0.946986
0.939147
0.00897318
-0.00164085
-0.762292
0.75496
-0.00457846
0.0102896
-0.604926
0.599215
-0.0141183
0.0165576
-0.450497
0.448058
-0.0167749
0.0150294
-0.290822
0.292568
-0.0123262
0.00882681
-0.151504
0.155003
-0.00567025
0.00268971
-0.0553144
0.0582949
-0.000850525
-0.00562308
0.00647361
-0.0761132
0.0745894
0.00152381
-0.00506471
0.00513207
-0.417723
0.417656
-0.00392013
0.00224423
-0.582598
0.584274
0.00123309
-0.00482567
-0.711282
0.714874
0.00927201
-0.0133559
-0.829439
0.833523
0.0181351
-0.0226731
-0.95266
0.957198
0.028155
-0.0326497
-1.08942
1.09391
0.0373062
-0.041312
-1.2397
1.2437
0.0451307
-0.0472382
-1.40254
1.40465
0.0481817
-0.0472376
-1.57527
1.57432
0.0446466
-0.0399353
-1.47717
1.47246
0.0349159
-0.0287535
-1.16697
1.16081
0.0227749
-0.0161048
-0.931551
0.924881
0.00995012
-0.00353396
-0.747454
0.741038
-0.00150203
0.00643201
-0.592631
0.587702
-0.00981109
0.0117602
-0.44326
0.441311
-0.0122101
0.0111898
-0.291025
0.292046
-0.0091731
0.00649668
-0.156111
0.158787
-0.00415178
0.00198452
-0.0596722
0.0618395
-0.000643044
-0.00675398
0.00739702
-0.0757683
0.0746143
0.00115397
-0.00377995
0.00381967
-0.42119
0.42115
-0.00250078
0.000749555
-0.588987
0.590738
0.00250087
-0.00574658
-0.718649
0.721895
0.00958264
-0.0135726
-0.837649
0.841639
0.0180354
-0.0227479
-0.961596
0.966308
0.0275273
-0.0318401
-1.09853
1.10284
0.0366099
-0.0403599
-1.24759
1.25134
0.0436703
-0.0461448
-1.40665
1.40913
0.0472287
-0.0465742
-1.57341
1.57276
0.044202
-0.0401841
-1.46795
1.46393
0.0356788
-0.0301386
-1.15443
1.14889
0.0248868
-0.018984
-0.918225
0.912323
0.0136008
-0.00813193
-0.73466
0.729191
0.00342471
0.000910698
-0.581964
0.577629
-0.00394511
0.00610404
-0.437103
0.434944
-0.0068205
0.00627674
-0.290301
0.290845
-0.00517649
0.0035877
-0.158929
0.160518
-0.00227244
0.00109827
-0.0624124
0.0635866
-0.000386554
-0.00750147
0.00788803
-0.0760071
0.0750564
0.000950697
-0.00238171
0.00208692
-0.424541
0.424836
-0.000854091
-0.00107418
-0.595016
0.596944
0.00412537
-0.00735455
-0.725626
0.728855
0.0111241
-0.0147957
-0.845521
0.849193
0.0194321
-0.0233897
-0.970495
0.974452
0.028146
-0.0322805
-1.10733
1.11146
0.0369112
-0.0408141
-1.25507
1.25897
0.044375
-0.0466115
-1.41135
1.41359
0.0480111
-0.0477533
-1.57201
1.57175
0.0460498
-0.042424
-1.4598
1.45618
0.0384599
-0.0334825
-1.14349
1.13851
0.0287992
-0.0234441
-0.906282
0.900927
0.0187212
-0.0137152
-0.723485
0.718479
0.00947655
-0.00543129
-0.572585
0.56854
0.0024123
-0.000296656
-0.430932
0.428817
-0.000887974
0.00115692
-0.288473
0.288204
-0.00118407
0.000884807
-0.159627
0.159926
-0.000636423
0.000414956
-0.0632867
0.0635081
-0.000198422
-0.0077804
0.00797882
-0.0765604
0.0759124
0.000648021
-0.0011925
0.000398865
-0.428177
0.428971
0.000756284
-0.00289883
-0.600525
0.602668
0.00576009
-0.00897606
-0.732295
0.735511
0.01268
-0.0165542
-0.852825
0.856699
0.0206411
-0.0247874
-0.978663
0.98281
0.0295125
-0.0334305
-1.11603
1.11995
0.0381327
-0.0419695
-1.26267
1.26651
0.0455573
-0.0482984
-1.41622
1.41896
0.0501723
-0.0502097
-1.57153
1.57156
0.0487664
-0.0458854
-1.45272
1.44984
0.042507
-0.0379601
-1.13342
1.12887
0.0336034
-0.0288772
-0.895515
0.890789
0.0241936
-0.0196934
-0.713189
0.708688
0.0157233
-0.0117532
-0.56405
0.56008
0.0088243
-0.00628091
-0.424709
0.422166
0.00463252
-0.00335872
-0.285371
0.284097
0.00239475
-0.00144669
-0.158129
0.157181
0.000640911
-6.62393e-05
-0.0623725
0.0617978
-0.000109649
-0.00756113
0.00767078
-0.07751
0.0770189
0.000491084
-0.000222355
-0.00055645
-0.432144
0.432922
0.00233621
-0.00439055
-0.606301
0.608356
0.00752527
-0.0107109
-0.738677
0.741863
0.0143568
-0.0179093
-0.860339
0.863891
0.0221745
-0.0260394
-0.987
0.990865
0.0307218
-0.0350681
-1.12433
1.12867
0.0393996
-0.043543
-1.2704
1.27454
0.0475333
-0.0503566
-1.4216
1.42442
0.0526021
-0.0534125
-1.57181
1.57262
0.0524344
-0.0501847
-1.44681
1.44456
0.0470283
-0.0429446
-1.12433
1.12025
0.0390057
-0.0344643
-0.885646
0.881104
0.0301692
-0.0257995
-0.70365
0.699281
0.0219456
-0.0179091
-0.555567
0.55153
0.0147028
-0.011806
-0.418077
0.415181
0.00941114
-0.00726768
-0.280575
0.278432
0.00535867
-0.00339673
-0.154476
0.152514
0.00183677
-0.000621495
-0.0600002
0.058785
6.30564e-05
-0.00707822
0.00701516
-0.0787227
0.0784031
0.000319552
0.000810131
-0.00180341
-0.436319
0.437312
0.00350022
-0.00588877
-0.611831
0.61422
0.00904036
-0.0121521
-0.744998
0.74811
0.0159585
-0.0194289
-0.867501
0.870971
0.0235892
-0.0275988
-0.99524
0.99925
0.0322009
-0.0365097
-1.13289
1.13719
0.0410494
-0.0452109
-1.27861
1.28277
0.0493742
-0.0529327
-1.42753
1.43108
0.055621
-0.0567384
-1.57336
1.57448
0.0564484
-0.0545238
-1.44219
1.44026
0.0519085
-0.0483303
-1.11607
1.11249
0.044439
-0.0400983
-0.876248
0.871907
0.0359628
-0.0315442
-0.694488
0.690069
0.0277801
-0.0236054
-0.547236
0.543061
0.0202001
-0.0166943
-0.410816
0.40731
0.0137595
-0.0107468
-0.274189
0.271176
0.00788699
-0.00504628
-0.148921
0.14608
0.00282318
-0.00106425
-0.056442
0.0546831
0.000194388
-0.00635811
0.00616372
-0.080144