/*--------------------------------*- C++ -*----------------------------------*\
  =========                 |
  \\      /  F ield         | OpenFOAM: The Open Source CFD Toolbox
   \\    /   O peration     | Website:  https://openfoam.org
    \\  /    A nd           | Version:  6
     \\/     M anipulation  |
\*---------------------------------------------------------------------------*/
FoamFile
{
    version     2.0;
    format      ascii;
    class       volVectorField;
    location    "35";
    object      U;
}
// * * * * * * * * * * * * * * * * * * * * * * * * * * * * * * * * * * * * * //

dimensions      [0 1 -1 0 0 0 0];

internalField   nonuniform List<vector> 
8800
(
(0.9872 -0.0767052 0)
(1.0019 -0.0551747 0)
(0.999753 -0.0285462 0)
(1.00004 -0.0151445 0)
(1.00005 -0.00853857 0)
(1.00003 -0.00503379 0)
(1 -0.00300147 0)
(0.999978 -0.00172436 0)
(0.999969 -0.000833265 0)
(1.00005 -0.000124871 0)
(0.999982 0.000597933 0)
(0.999998 0.00136043 0)
(1.00001 0.00239264 0)
(1.00002 0.00397684 0)
(1.00003 0.00661584 0)
(1.00003 0.0113602 0)
(0.999938 0.0208067 0)
(0.999164 0.0386503 0)
(1.0071 0.0724544 0)
(0.771227 0.0366889 0)
(0.363024 -0.0160172 0)
(1.0433 -0.0768366 0)
(1.08463 -0.0704621 0)
(1.04524 -0.0535689 0)
(1.02329 -0.0389192 0)
(1.01195 -0.0262465 0)
(1.00633 -0.016908 0)
(1.00351 -0.010412 0)
(1.00209 -0.00577634 0)
(1.00142 -0.00214092 0)
(1.0013 0.00115474 0)
(1.00168 0.00452644 0)
(1.00266 0.008472 0)
(1.00464 0.0138419 0)
(1.00859 0.0215708 0)
(1.01658 0.032549 0)
(1.03253 0.046476 0)
(1.06271 0.061612 0)
(1.09191 0.076052 0)
(0.838724 0.0565648 0)
(0.216767 -0.00242358 0)
(1.07584 -0.0501801 0)
(1.09987 -0.0483764 0)
(1.0646 -0.0405312 0)
(1.03993 -0.0336732 0)
(1.02377 -0.026165 0)
(1.01401 -0.0186301 0)
(1.00848 -0.0118628 0)
(1.00554 -0.00602691 0)
(1.00432 -0.00063767 0)
(1.00469 0.00458953 0)
(1.00662 0.00997701 0)
(1.01061 0.016094 0)
(1.01793 0.023154 0)
(1.03055 0.0306532 0)
(1.05064 0.0377123 0)
(1.08038 0.0444271 0)
(1.10633 0.0512705 0)
(0.942682 0.041576 0)
(0.216265 0.00244717 0)
(0.175057 -0.000816921 0)
(1.01754 -0.0355342 0)
(1.10514 -0.0414634 0)
(1.07819 -0.0361656 0)
(1.05331 -0.0302446 0)
(1.03601 -0.0246953 0)
(1.02384 -0.0190297 0)
(1.01576 -0.0130054 0)
(1.01095 -0.00685605 0)
(1.00879 -0.000576249 0)
(1.0094 0.00563423 0)
(1.01268 0.0116216 0)
(1.01888 0.017503 0)
(1.02879 0.0231345 0)
(1.04327 0.0284859 0)
(1.0638 0.0340045 0)
(1.09365 0.0400212 0)
(1.09359 0.0418258 0)
(0.827536 0.0228511 0)
(0.174212 0.000843328 0)
(0.153804 -0.000612135 0)
(0.955888 -0.0255175 0)
(1.10331 -0.0352336 0)
(1.08753 -0.0327857 0)
(1.06148 -0.028156 0)
(1.04384 -0.0231743 0)
(1.03143 -0.0180143 0)
(1.02262 -0.0125661 0)
(1.01686 -0.00669538 0)
(1.01409 -0.000275987 0)
(1.01482 0.00615943 0)
(1.01883 0.0120322 0)
(1.02586 0.0173552 0)
(1.03617 0.022336 0)
(1.05079 0.0271588 0)
(1.07203 0.0317357 0)
(1.10025 0.0357113 0)
(1.06845 0.0338379 0)
(0.740256 0.0142318 0)
(0.152536 0.00064216 0)
(0.139376 -0.000468815 0)
(0.898813 -0.0191401 0)
(1.09553 -0.0302013 0)
(1.09552 -0.0293425 0)
(1.06892 -0.0256313 0)
(1.05046 -0.021546 0)
(1.03758 -0.0168903 0)
(1.02854 -0.0117261 0)
(1.02251 -0.00606856 0)
(1.01948 0.000181844 0)
(1.02019 0.00644719 0)
(1.02433 0.0120741 0)
(1.03148 0.0170604 0)
(1.04203 0.0215764 0)
(1.05724 0.025623 0)
(1.07946 0.0291577 0)
(1.10261 0.0318459 0)
(1.03669 0.027854 0)
(0.674141 0.0101033 0)
(0.137592 0.000503478 0)
(0.128778 -0.000363608 0)
(0.849028 -0.0147742 0)
(1.08298 -0.0260746 0)
(1.10108 -0.0264229 0)
(1.07564 -0.0231935 0)
(1.05665 -0.0196378 0)
(1.04333 -0.0155142 0)
(1.03393 -0.0107092 0)
(1.02765 -0.00530819 0)
(1.02443 0.000729817 0)
(1.02505 0.00676145 0)
(1.02922 0.0120975 0)
(1.03652 0.0166816 0)
(1.04737 0.0206398 0)
(1.06301 0.0240314 0)
(1.08568 0.027041 0)
(1.1019 0.028859 0)
(1.00225 0.0232401 0)
(0.622908 0.00770494 0)
(0.126366 0.000404328 0)
(0.120682 -0.000282861 0)
(0.806714 -0.0116081 0)
(1.06753 -0.0224576 0)
(1.10444 -0.0237731 0)
(1.08173 -0.020946 0)
(1.06232 -0.0176292 0)
(1.04872 -0.0138751 0)
(1.03904 -0.00947401 0)
(1.0325 -0.00438363 0)
(1.0291 0.00140242 0)
(1.02958 0.0071627 0)
(1.03372 0.0121307 0)
(1.04112 0.0162235 0)
(1.05212 0.0196311 0)
(1.06801 0.0225934 0)
(1.09104 0.0253516 0)
(1.09841 0.0263353 0)
(0.967702 0.0195769 0)
(0.582055 0.00612755 0)
(0.11751 0.000331305 0)
(0.114403 -0.000219538 0)
(0.771109 -0.00922397 0)
(1.05056 -0.0192514 0)
(1.10665 -0.0213418 0)
(1.08742 -0.0189265 0)
(1.06757 -0.01578 0)
(1.0537 -0.0121907 0)
(1.04384 -0.00800675 0)
(1.03706 -0.00320965 0)
(1.03339 0.00222425 0)
(1.03372 0.00759593 0)
(1.03782 0.0121297 0)
(1.0452 0.0158098 0)
(1.05627 0.01888 0)
(1.07242 0.0215476 0)
(1.0952 0.0239723 0)
(1.09224 0.0241543 0)
(0.934385 0.0166766 0)
(0.548632 0.00502381 0)
(0.110308 0.000277432 0)
(0.109516 -0.000168312 0)
(0.741327 -0.00735213 0)
(1.03317 -0.016367 0)
(1.10779 -0.0189768 0)
(1.0927 -0.0169053 0)
(1.0726 -0.0139025 0)
(1.0585 -0.0104464 0)
(1.04844 -0.00646005 0)
(1.04147 -0.00192531 0)
(1.03759 0.00321038 0)
(1.03768 0.00821335 0)
(1.0416 0.0123259 0)
(1.04891 0.0155811 0)
(1.05998 0.0182864 0)
(1.07632 0.0206622 0)
(1.09809 0.0227365 0)
(1.08382 0.0222247 0)
(0.902982 0.0143852 0)
(0.520671 0.00422312 0)
(0.104297 0.000238106 0)
(0.105743 -0.000125636 0)
(0.716605 -0.00582195 0)
(1.01625 -0.0137487 0)
(1.10814 -0.0166632 0)
(1.09787 -0.0148675 0)
(1.07747 -0.0119292 0)
(1.06309 -0.00859574 0)
(1.05287 -0.00475882 0)
(1.0457 -0.00042099 0)
(1.04154 0.00440608 0)
(1.04135 0.00900116 0)
(1.04504 0.0127183 0)
(1.05218 0.0156135 0)
(1.06324 0.0179509 0)
(1.07982 0.0199815 0)
(1.09979 0.0217062 0)
(1.07368 0.0205364 0)
(0.873757 0.0125757 0)
(0.496828 0.00363296 0)
(0.0991574 0.00020987 0)
(0.102895 -8.83905e-05 0)
(0.696353 -0.00451421 0)
(1.00041 -0.011312 0)
(1.1077 -0.0143733 0)
(1.10275 -0.0128602 0)
(1.08222 -0.0099811 0)
(1.06751 -0.00667446 0)
(1.05704 -0.00289769 0)
(1.04962 0.00128503 0)
(1.04514 0.00583099 0)
(1.0446 0.0100602 0)
(1.048 0.013351 0)
(1.05496 0.0158521 0)
(1.06605 0.017862 0)
(1.08282 0.0195961 0)
(1.10052 0.0209021 0)
(1.0621 0.0190835 0)
(0.846654 0.0111476 0)
(0.476108 0.00319972 0)
(0.0946369 0.000191192 0)
(0.100867 -5.32459e-05 0)
(0.680192 -0.00333757 0)
(0.986224 -0.00897071 0)
(1.1067 -0.0119303 0)
(1.10724 -0.0105813 0)
(1.08691 -0.00773303 0)
(1.07187 -0.00444647 0)
(1.06105 -0.000762234 0)
(1.05327 0.00326587 0)
(1.04837 0.00756935 0)
(1.0474 0.0114503 0)
(1.05047 0.0143149 0)
(1.05729 0.0163827 0)
(1.06837 0.0179858 0)
(1.08523 0.0193657 0)
(1.10023 0.0202429 0)
(1.04943 0.0178224 0)
(0.821568 0.0100238 0)
(0.457788 0.00287991 0)
(0.0905641 0.000179259 0)
(0.0996069 -1.9269e-05 0)
(0.667868 -0.00221606 0)
(0.9741 -0.00665636 0)
(1.10559 -0.0093304 0)
(1.11158 -0.00804704 0)
(1.09158 -0.00518562 0)
(1.07618 -0.0018949 0)
(1.06503 0.0017296 0)
(1.05683 0.00563488 0)
(1.05143 0.00969874 0)
(1.04991 0.0131821 0)
(1.05258 0.0155654 0)
(1.05913 0.0171222 0)
(1.07015 0.0182336 0)
(1.08709 0.0192636 0)
(1.09893 0.0197235 0)
(1.03596 0.0167496 0)
(0.798308 0.00913191 0)
(0.441329 0.00264709 0)
(0.0867986 0.000173173 0)
(0.0991114 1.84541e-05 0)
(0.659333 -0.00111387 0)
(0.964397 -0.00430809 0)
(1.10462 -0.00654892 0)
(1.11587 -0.005342 0)
(1.09634 -0.00249111 0)
(1.08056 0.000880809 0)
(1.06908 0.00460242 0)
(1.06047 0.00848243 0)
(1.05446 0.0123051 0)
(1.05228 0.0153732 0)
(1.05437 0.017284 0)
(1.06049 0.0184096 0)
(1.07139 0.0190864 0)
(1.08828 0.0196131 0)
(1.09654 0.0195425 0)
(1.02182 0.0159241 0)
(0.776643 0.00847409 0)
(0.426295 0.00250254 0)
(0.0832177 0.000173442 0)
(0.0993893 4.95087e-05 0)
(0.654606 2.55301e-05 0)
(0.957477 -0.0018326 0)
(1.10402 -0.0034487 0)
(1.11999 -0.00221434 0)
(1.10109 0.000691271 0)
(1.08493 0.00419478 0)
(1.0729 0.00795265 0)
(1.06362 0.0117957 0)
(1.05684 0.0154822 0)
(1.05384 0.0182098 0)
(1.05528 0.0195829 0)
(1.06106 0.0200649 0)
(1.07183 0.020196 0)
(1.08843 0.0202471 0)
(1.09277 0.019533 0)
(1.00703 0.0153047 0)
(0.756308 0.00802273 0)
(0.412253 0.00242857 0)
(0.0797079 0.000178135 0)
(0.100559 0.000110806 0)
(0.653877 0.0012619 0)
(0.953655 0.00076088 0)
(1.10432 -2.84811e-05 0)
(1.12435 0.0014523 0)
(1.10606 0.00451151 0)
(1.08953 0.00814909 0)
(1.07697 0.0120481 0)
(1.06698 0.0159284 0)
(1.05924 0.0194071 0)
(1.05526 0.0216552 0)
(1.05588 0.0224514 0)
(1.06106 0.0223266 0)
(1.07155 0.0218209 0)
(1.08763 0.0212202 0)
(1.08765 0.0198387 0)
(0.99177 0.0150016 0)
(0.736977 0.00779135 0)
(0.398837 0.00242487 0)
(0.0761803 0.000185918 0)
(0.102704 0.00015468 0)
(0.656867 0.0024474 0)
(0.953289 0.00352601 0)
(1.10595 0.0036543 0)
(1.12913 0.00540624 0)
(1.11133 0.00868764 0)
(1.09436 0.0125971 0)
(1.0812 0.0167417 0)
(1.07038 0.0207902 0)
(1.06152 0.0242189 0)
(1.05626 0.0260988 0)
(1.05578 0.0263103 0)
(1.06021 0.0254825 0)
(1.07028 0.0242804 0)
(1.0857 0.0229556 0)
(1.08107 0.0207465 0)
(0.975736 0.0151547 0)
(0.718149 0.00788147 0)
(0.385569 0.00252261 0)
(0.0725515 0.000197773 0)
(0.105993 0.000221447 0)
(0.664401 0.00382568 0)
(0.956401 0.0063285 0)
(1.1091 0.00767896 0)
(1.13438 0.00986031 0)
(1.11699 0.0135275 0)
(1.09954 0.017898 0)
(1.08558 0.0224633 0)
(1.07358 0.0267633 0)
(1.06321 0.0301396 0)
(1.05645 0.0316025 0)
(1.05481 0.0311108 0)
(1.05834 0.0295309 0)
(1.06784 0.0276025 0)
(1.08239 0.0255374 0)
(1.07276 0.0223061 0)
(0.958722 0.0159657 0)
(0.699132 0.00843096 0)
(0.371721 0.00276503 0)
(0.0686865 0.000216996 0)
(0.1106 0.000301431 0)
(0.676461 0.00532854 0)
(0.963462 0.00940568 0)
(1.11434 0.0121214 0)
(1.14057 0.0150421 0)
(1.1235 0.0193595 0)
(1.10551 0.0243604 0)
(1.0906 0.0294667 0)
(1.07728 0.0341051 0)
(1.06519 0.0374394 0)
(1.05649 0.0383795 0)
(1.05326 0.0371189 0)
(1.05562 0.0346747 0)
(1.06439 0.0319582 0)
(1.07755 0.0290822 0)
(1.06274 0.0248434 0)
(0.940449 0.017676 0)
(0.678892 0.00953286 0)
(0.35636 0.00317405 0)
(0.0643793 0.000247051 0)
(0.116733 0.00040312 0)
(0.693294 0.00712629 0)
(0.975084 0.012958 0)
(1.12244 0.0171953 0)
(1.1483 0.0211659 0)
(1.1311 0.0264719 0)
(1.11223 0.0323213 0)
(1.09596 0.0381317 0)
(1.08082 0.0431815 0)
(1.06646 0.0464232 0)
(1.05557 0.0466865 0)
(1.0506 0.0444815 0)
(1.05173 0.0410746 0)
(1.05971 0.0375176 0)
(1.07114 0.0338782 0)
(1.05091 0.0285599 0)
(0.920251 0.0203347 0)
(0.656207 0.0111264 0)
(0.338582 0.00371951 0)
(0.0594149 0.000285999 0)
(0.124831 0.000547278 0)
(0.715589 0.00953245 0)
(0.991636 0.0174041 0)
(1.13388 0.0232766 0)
(1.15821 0.0284669 0)
(1.14029 0.0350538 0)
(1.12017 0.0420003 0)
(1.10212 0.0487262 0)
(1.08469 0.0543048 0)
(1.06758 0.0574517 0)
(1.05403 0.0569482 0)
(1.047 0.0536068 0)
(1.04672 0.0491059 0)
(1.05384 0.0445864 0)
(1.06329 0.0401044 0)
(1.03685 0.0334899 0)
(0.897225 0.0238423 0)
(0.629933 0.0131204 0)
(0.317693 0.00435916 0)
(0.0536362 0.000330728 0)
(0.135638 0.000763267 0)
(0.744605 0.0129509 0)
(1.01395 0.0233076 0)
(1.14914 0.0310554 0)
(1.17072 0.0376919 0)
(1.15139 0.0457873 0)
(1.1295 0.0540779 0)
(1.10903 0.0618603 0)
(1.08864 0.0679758 0)
(1.06818 0.0709476 0)
(1.05151 0.069533 0)
(1.04216 0.0649398 0)
(1.0403 0.0590947 0)
(1.04643 0.0533305 0)
(1.05356 0.0477411 0)
(1.01985 0.0395288 0)
(0.870463 0.0281073 0)
(0.599059 0.0153962 0)
(0.293252 0.00504215 0)
(0.0469835 0.00037451 0)
(0.150399 0.00110779 0)
(0.782257 0.0180469 0)
(1.04379 0.0315449 0)
(1.16908 0.0416883 0)
(1.18637 0.0504473 0)
(1.16477 0.0602195 0)
(1.14034 0.070012 0)
(1.11667 0.07875 0)
(1.09254 0.0850552 0)
(1.06811 0.0873081 0)
(1.04791 0.0844088 0)
(1.03597 0.0781585 0)
(1.03225 0.0708294 0)
(1.03709 0.0636608 0)
(1.04146 0.0565141 0)
(0.999292 0.0467079 0)
(0.838973 0.0331661 0)
(0.562726 0.0178955 0)
(0.265031 0.00574194 0)
(0.0394893 0.000413407 0)
(0.171276 0.00171207 0)
(0.831722 0.0259524 0)
(1.08386 0.0435846 0)
(1.195 0.0570189 0)
(1.20597 0.068589 0)
(1.18054 0.0803547 0)
(1.15248 0.0914618 0)
(1.12451 0.100614 0)
(1.09581 0.106303 0)
(1.06678 0.106908 0)
(1.04268 0.101667 0)
(1.02803 0.0931412 0)
(1.02247 0.0839389 0)
(1.02573 0.0753418 0)
(1.02674 0.0668355 0)
(0.974627 0.0553499 0)
(0.801327 0.0389073 0)
(0.520413 0.0205853 0)
(0.233065 0.00643138 0)
(0.031285 0.000441687 0)
(0.20159 0.00305084 0)
(0.898779 0.039276 0)
(1.13697 0.0630898 0)
(1.2275 0.0800336 0)
(1.2297 0.0948162 0)
(1.1983 0.108242 0)
(1.16501 0.119742 0)
(1.13164 0.12816 0)
(1.09763 0.132146 0)
(1.06357 0.130155 0)
(1.03539 0.12199 0)
(1.01794 0.110882 0)
(1.01066 0.0996013 0)
(1.01261 0.0894878 0)
(1.0095 0.0797079 0)
(0.944265 0.0655813 0)
(0.756008 0.0450433 0)
(0.472385 0.0235027 0)
(0.198121 0.00712214 0)
(0.0227461 0.000453909 0)
(0.243015 0.00924449 7.09283e-20)
(0.987247 0.0658581 6.14857e-20)
(1.20056 0.096585 -2.12171e-20)
(1.26445 0.114743 0)
(1.25496 0.132471 -5.1079e-34)
(1.21603 0.145619 7.38834e-21)
(1.17643 0.155718 -1.28537e-20)
(1.13707 0.162128 0)
(1.09737 0.163628 2.53945e-34)
(1.05791 0.158744 -1.49764e-20)
(1.02529 0.14778 0)
(1.00463 0.134453 -1.73543e-20)
(0.995274 0.121472 -5.08962e-20)
(0.99575 0.109924 -2.39464e-20)
(0.986653 0.0980012 -7.16514e-21)
(0.90338 0.0796068 -4.24263e-21)
(0.69898 0.0538735 0)
(0.415632 0.0279108 2.9714e-21)
(0.160824 0.00886298 3.51097e-21)
(0.0147189 0.000720507 6.31968e-20)
(0.270646 0.0246421 5.82718e-20)
(1.05955 0.10791 5.18587e-22)
(1.25189 0.144595 5.94093e-21)
(1.29826 0.162924 0)
(1.27739 0.180024 -2.68552e-20)
(1.23134 0.191059 -2.99325e-20)
(1.18551 0.199069 -1.32049e-20)
(1.14014 0.203442 -4.55791e-20)
(1.09452 0.202857 0)
(1.04916 0.195819 6.4056e-20)
(1.01125 0.182892 6.27595e-20)
(0.986214 0.167991 1.85037e-20)
(0.972957 0.153383 6.66461e-20)
(0.967351 0.138733 9.28404e-20)
(0.945125 0.121314 0)
(0.846038 0.0979497 1.30373e-19)
(0.63362 0.0666157 1.87167e-19)
(0.359224 0.0354445 2.0797e-19)
(0.128978 0.0117953 -2.3785e-19)
(0.00852368 0.000805698 -4.46609e-21)
(0.270738 0.0405962 0)
(1.10399 0.162688 1.16344e-20)
(1.28619 0.203504 0)
(1.32394 0.221898 -3.89993e-20)
(1.29482 0.235202 0)
(1.24299 0.242296 -6.0517e-20)
(1.19162 0.247004 2.73798e-20)
(1.14074 0.248421 -9.33711e-20)
(1.08962 0.245087 -1.5786e-21)
(1.03879 0.235268 3.34869e-20)
(0.995833 0.219602 1.37687e-19)
(0.966146 0.202211 -3.07524e-22)
(0.947589 0.185023 -4.83925e-20)
(0.93414 0.167426 -8.75295e-20)
(0.903144 0.146904 1.03503e-19)
(0.803158 0.120252 -1.83185e-19)
(0.598994 0.0840196 -2.41929e-20)
(0.340458 0.0463835 0)
(0.125942 0.0167326 8.82611e-24)
(0.00890669 0.00120612 0)
(0.263474 0.0542755 1.88216e-19)
(1.1264 0.221066 -8.64665e-20)
(1.30659 0.267328 -5.93554e-20)
(1.33984 0.285821 1.93864e-20)
(1.30565 0.294822 -3.20981e-20)
(1.24994 0.297572 1.27859e-19)
(1.19432 0.2984 5.76743e-20)
(1.13877 0.296272 0)
(1.08276 0.289475 -1.71631e-19)
(1.02677 0.276036 0)
(0.978889 0.256661 -7.27399e-20)
(0.944523 0.236011 -8.83699e-20)
(0.92071 0.216076 -5.27072e-20)
(0.9011 0.196317 -6.35376e-20)
(0.866421 0.174463 0)
(0.7724 0.146091 0)
(0.583068 0.105768 -1.58256e-19)
(0.342923 0.0619932 3.1232e-20)
(0.135536 0.0243884 -1.83529e-20)
(0.0121869 0.00230227 -2.14567e-20)
(0.255647 0.0664872 -1.01506e-19)
(1.13498 0.279333 0)
(1.3167 0.332277 1.34825e-19)
(1.34725 0.351234 5.7784e-20)
(1.30999 0.356315 7.20535e-20)
(1.25196 0.354914 0)
(1.19328 0.351812 5.80146e-20)
(1.13392 0.345876 1.04584e-19)
(1.07365 0.335168 8.89572e-20)
(1.01296 0.317486 1.5742e-19)
(0.960404 0.293961 0)
(0.92174 0.269913 -1.90699e-19)
(0.893616 0.247579 -1.13919e-19)
(0.869891 0.226399 -6.70861e-20)
(0.83426 0.20404 4.08884e-19)
(0.748206 0.174271 4.87206e-20)
(0.57458 0.130393 2.29435e-19)
(0.351109 0.0802834 -1.08394e-18)
(0.148799 0.0342651 6.44075e-19)
(0.0165796 0.00401005 -7.76268e-19)
(0.248639 0.0775346 -8.14089e-20)
(1.13519 0.335709 1.94318e-20)
(1.31953 0.396505 -1.78564e-20)
(1.34806 0.416315 -6.91254e-20)
(1.30891 0.418003 -6.70554e-20)
(1.24957 0.412792 1.76238e-21)
(1.1886 0.405903 -6.26556e-20)
(1.12617 0.396097 1.09272e-19)
(1.0622 0.381295 -1.91355e-19)
(0.997271 0.359162 0)
(0.940582 0.331436 -8.7019e-20)
(0.898237 0.304234 -1.61155e-21)
(0.866799 0.27987 -1.24195e-19)
(0.840444 0.257789 0)
(0.804854 0.234913 -8.84085e-20)
(0.726145 0.204045 -2.10445e-19)
(0.567795 0.156529 5.63079e-19)
(0.359265 0.0999718 -5.53828e-19)
(0.160851 0.0453204 7.87868e-19)
(0.0206898 0.00605558 -8.1866e-19)
(0.243126 0.0878809 -4.989e-22)
(1.13056 0.389596 -1.6494e-20)
(1.31738 0.458981 -6.61712e-20)
(1.34397 0.47987 3.25522e-20)
(1.30359 0.478723 -3.46522e-20)
(1.24351 0.470119 0)
(1.18082 0.459647 -6.0913e-20)
(1.1158 0.446042 -1.15098e-19)
(1.04859 0.427163 -1.00179e-19)
(0.979938 0.400608 0)
(0.919609 0.368815 -9.08336e-20)
(0.874303 0.338669 -1.10719e-19)
(0.840482 0.312408 1.34335e-19)
(0.812618 0.289398 -8.09545e-20)
(0.777651 0.265879 -3.84288e-19)
(0.704291 0.233652 2.29445e-19)
(0.55917 0.182964 6.87985e-20)
(0.363142 0.119659 0)
(0.168699 0.0562504 -7.59224e-19)
(0.0236389 0.00809703 -2.7818e-20)
(0.23908 0.09784 -8.47262e-21)
(1.12327 0.440828 1.49169e-20)
(1.31196 0.519689 3.40657e-20)
(1.3364 0.541188 1.09157e-19)
(1.29508 0.537682 -1.36785e-19)
(1.23459 0.526103 1.36256e-19)
(1.17051 0.512316 1.30806e-19)
(1.10328 0.495088 -1.84061e-19)
(1.03322 0.472267 5.98094e-20)
(0.961235 0.441446 -3.86927e-19)
(0.897737 0.40574 -1.01625e-19)
(0.849993 0.372693 0)
(0.814466 0.344513 1.45201e-19)
(0.78565 0.320268 1.72868e-19)
(0.751365 0.295751 2.06242e-19)
(0.682588 0.261845 -2.48111e-19)
(0.547851 0.20801 -7.34467e-20)
(0.361656 0.137984 8.65093e-20)
(0.171179 0.0658961 0)
(0.0251339 0.00980936 -6.013e-20)
(0.236274 0.107507 6.80473e-20)
(1.1148 0.489479 -5.23896e-20)
(1.3042 0.577615 -3.46693e-20)
(1.32641 0.59985 7.24835e-20)
(1.28429 0.594364 -6.7027e-20)
(1.2235 0.580194 -4.05879e-21)
(1.15827 0.563412 -1.41809e-19)
(1.08912 0.54282 -6.62979e-20)
(1.01651 0.516283 -1.73462e-19)
(0.941509 0.481401 2.52144e-22)
(0.875172 0.4419 -3.19351e-19)
(0.825373 0.405919 2.64089e-19)
(0.788575 0.375651 -1.58481e-19)
(0.759195 0.349937 1.8922e-19)
(0.725548 0.324233 0)
(0.66025 0.288289 -1.33839e-19)
(0.533556 0.230927 -7.23304e-22)
(0.354855 0.153874 -3.74784e-19)
(0.169049 0.0733948 -5.51505e-20)
(0.0252844 0.0110202 0)
(0.234561 0.117056 0)
(1.10589 0.535781 -5.24388e-20)
(1.29488 0.632716 -6.2714e-20)
(1.31482 0.655676 -7.2696e-20)
(1.27191 0.648483 -7.7991e-20)
(1.21086 0.632066 0)
(1.14464 0.612611 -6.79285e-20)
(1.0738 0.588962 -1.17317e-21)
(0.998881 0.559005 3.71203e-19)
(0.921086 0.520308 -5.35247e-20)
(0.852112 0.4771 -2.29921e-19)
(0.800524 0.438093 1.38009e-19)
(0.762715 0.405522 -2.05457e-21)
(0.733014 0.378051 2.012e-19)
(0.699938 0.350733 1.23178e-19)
(0.637275 0.312313 -2.88511e-19)
(0.516181 0.250713 3.42365e-19)
(0.343122 0.166358 1.01198e-19)
(0.162662 0.0782045 4.17391e-19)
(0.0240582 0.0115312 -1.11703e-18)
(0.233759 0.126614 7.61179e-21)
(1.09703 0.579872 -1.99495e-20)
(1.2846 0.685069 2.12841e-20)
(1.30223 0.708635 6.94113e-20)
(1.25852 0.699915 0)
(1.19719 0.681538 -7.01254e-20)
(1.13008 0.659728 2.24127e-19)
(1.05771 0.633349 1.46567e-19)
(0.980684 0.600303 0)
(0.90025 0.558068 -7.64161e-19)
(0.828747 0.511247 6.19507e-19)
(0.775436 0.469111 0)
(0.736749 0.433984 1.83995e-19)
(0.706801 0.404461 -2.03114e-21)
(0.674147 0.375136 -3.92961e-19)
(0.61326 0.333713 1.53972e-19)
(0.495962 0.267027 0)
(0.327388 0.175349 5.44948e-19)
(0.152754 0.0806293 0)
(0.0219118 0.0114702 -5.27031e-19)
(0.233669 0.13617 -4.7787e-21)
(1.08848 0.621898 -1.32907e-20)
(1.27371 0.734694 2.44418e-20)
(1.28906 0.75874 0)
(1.24455 0.748646 -7.63621e-20)
(1.18291 0.728553 0)
(1.11498 0.704671 -2.27064e-19)
(1.04124 0.675892 -7.07623e-20)
(0.96223 0.640105 6.65335e-20)
(0.879245 0.594637 -3.77553e-19)
(0.805195 0.544323 6.43454e-20)
(0.750129 0.498953 0)
(0.71055 0.461036 -3.92751e-19)
(0.680383 0.429151 2.06824e-21)
(0.647974 0.397407 0)
(0.588064 0.352442 2.16922e-21)
(0.473049 0.279833 4.96133e-19)
(0.308041 0.180567 -4.70163e-19)
(0.140154 0.0806354 1.38642e-19)
(0.019148 0.0108477 0)
(0.23393 0.145585 0)
(1.08039 0.66183 -7.87371e-21)
(1.26252 0.781687 -1.66961e-20)
(1.27561 0.806062 -2.33636e-21)
(1.23032 0.794709 -3.37355e-20)
(1.16834 0.77311 -1.57598e-19)
(1.09967 0.747424 8.34114e-20)
(1.02465 0.716555 -8.10176e-20)
(0.943783 0.678371 2.93482e-19)
(0.858269 0.630009 -6.02539e-19)
(0.781572 0.576365 -3.47441e-21)
(0.724599 0.527674 -1.73885e-19)
(0.684043 0.48672 6.3543e-19)
(0.653621 0.452167 -2.42514e-21)
(0.621271 0.417592 -3.03571e-19)
(0.561603 0.368418 -5.42229e-19)
(0.447735 0.28913 0)
(0.285755 0.182212 0)
(0.125537 0.0782345 1.49592e-19)
(0.0160009 0.00974916 -8.75791e-20)
(0.234744 0.154969 2.8728e-21)
(1.0728 0.699772 9.00225e-21)
(1.25122 0.826135 1.73884e-20)
(1.2621 0.850684 0)
(1.21607 0.838169 -1.58914e-21)
(1.15376 0.815248 -1.54509e-19)
(1.08441 0.788 2.08234e-19)
(1.00821 0.755336 3.26045e-19)
(0.925561 0.715101 3.8331e-19)
(0.837521 0.664198 -4.93228e-19)
(0.758023 0.607448 -5.29891e-19)
(0.698914 0.555403 4.64694e-19)
(0.657208 0.511157 0)
(0.626422 0.47359 -1.37927e-19)
(0.593959 0.435715 -3.27994e-19)
(0.533902 0.381589 -3.88907e-19)
(0.42006 0.294727 -4.62009e-19)
(0.261162 0.180279 1.36665e-19)
(0.109421 0.0734924 -8.0414e-20)
(0.0125481 0.0081995 3.04887e-22)
(0.235683 0.164164 0)
(1.06572 0.736048 0)
(1.23992 0.868113 2.64851e-21)
(1.24871 0.892699 0)
(1.20198 0.879123 9.99332e-20)
(1.13935 0.855037 1.13491e-19)
(1.06938 0.826438 0)
(0.992103 0.792256 3.99994e-20)
(0.907759 0.7503 6.42041e-19)
(0.817194 0.697233 -1.13181e-18)
(0.734721 0.637669 0)
(0.673174 0.582302 -2.98353e-19)
(0.629992 0.534513 -2.94616e-21)
(0.598664 0.493506 -2.39152e-21)
(0.565914 0.451742 3.50272e-19)
(0.504943 0.391797 -3.85083e-22)
(0.39023 0.296524 -9.93682e-19)
(0.234512 0.174727 2.93884e-19)
(0.0927345 0.0668849 8.68513e-20)
(0.00913289 0.00639003 0)
(0.236597 0.173196 -3.62831e-20)
(1.0589 0.770653 -8.23101e-21)
(1.22869 0.907683 1.3796e-20)
(1.23556 0.93221 -9.02862e-20)
(1.1882 0.917647 1.6121e-19)
(1.12527 0.89255 0)
(1.05474 0.862795 1.30911e-19)
(0.976483 0.827347 -8.77743e-20)
(0.890535 0.78399 3.89322e-21)
(0.797465 0.729153 8.26681e-20)
(0.711834 0.667123 6.85119e-19)
(0.647453 0.608555 -1.04851e-19)
(0.602361 0.557009 -3.903e-19)
(0.570183 0.512027 -1.6017e-19)
(0.536968 0.46556 1.90246e-19)
(0.474746 0.398777 -2.17195e-22)
(0.358975 0.294401 2.67767e-19)
(0.207028 0.165938 -6.31815e-19)
(0.0761785 0.0588807 7.47079e-19)
(0.00590683 0.00445417 1.08909e-19)
(0.237259 0.181956 1.72931e-20)
(1.05237 0.803657 -7.13986e-21)
(1.21766 0.944957 6.21413e-21)
(1.22273 0.969339 -3.56993e-20)
(1.17481 0.953857 -2.75671e-20)
(1.11162 0.927864 -2.05832e-19)
(1.04062 0.897129 4.11706e-20)
(0.96147 0.860638 -3.67988e-19)
(0.874021 0.816175 -7.11017e-19)
(0.778476 0.759962 -6.75495e-19)
(0.689515 0.695881 0)
(0.621882 0.634343 -4.57241e-19)
(0.574337 0.578933 5.60714e-19)
(0.54077 0.529334 0)
(0.50682 0.476978 -4.07001e-19)
(0.443296 0.402008 2.43342e-19)
(0.326866 0.287976 -2.87497e-19)
(0.179873 0.154175 -3.40029e-19)
(0.06066 0.0500214 -6.01619e-19)
(0.00305161 0.00254337 -4.69026e-19)
(0.238209 0.190537 -2.29958e-20)
(1.04598 0.835028 7.71116e-21)
(1.20687 0.979993 1.10302e-20)
(1.21029 1.00417 -3.843e-20)
(1.16188 0.987844 6.22345e-20)
(1.09847 0.961072 -1.20982e-19)
(1.02708 0.929497 1.34728e-19)
(0.947148 0.892177 -3.81681e-19)
(0.858302 0.84688 -4.21557e-19)
(0.760351 0.789678 7.07925e-19)
(0.667918 0.724003 1.50198e-18)
(0.596631 0.659831 0)
(0.545979 0.600602 0)
(0.51017 0.545761 -1.84123e-19)
(0.4749 0.48583 0)
(0.410278 0.400544 5.2359e-19)
(0.294713 0.276312 6.18732e-19)
(0.154848 0.139437 0)
(0.0474899 0.0408988 0)
(0.000739672 0.000819954 5.04013e-19)
(0.238766 0.198602 3.00651e-20)
(1.03976 0.864755 2.31787e-20)
(1.19637 1.0129 9.90714e-21)
(1.19826 1.03682 2.04832e-20)
(1.14946 1.01971 5.87255e-20)
(1.08589 0.99225 1.38168e-19)
(1.01419 0.959966 -1.87036e-19)
(0.933577 0.921997 2.20565e-22)
(0.843453 0.876112 -5.04419e-21)
(0.743188 0.818295 -5.68886e-21)
(0.647222 0.751529 7.72949e-19)
(0.571881 0.685137 0)
(0.517435 0.622317 5.64525e-19)
(0.478199 0.561829 3.92218e-19)
(0.440327 0.49231 9.47628e-19)
(0.374616 0.393234 2.81447e-19)
(0.26311 0.257154 -3.33642e-19)
(0.135487 0.119805 -1.95968e-19)
(0.0410796 0.0309071 0)
(-4.30254e-05 -0.000489328 5.41461e-19)
(0.239617 0.206649 -7.56873e-20)
(1.03367 0.892989 0)
(1.18614 1.04372 2.05263e-20)
(1.18667 1.06737 1.09204e-20)
(1.13758 1.04955 -5.06821e-20)
(1.07389 1.02149 -1.71518e-19)
(1.00198 0.988594 3.76334e-19)
(0.92079 0.950139 -3.03751e-20)
(0.829515 0.903886 0)
(0.727071 0.845784 -7.83434e-19)
(0.62758 0.778465 -1.68054e-18)
(0.547841 0.710356 6.74424e-20)
(0.48896 0.644318 7.75175e-19)
(0.444847 0.578168 0)
(0.40211 0.497329 6.37765e-19)
(0.333886 0.379693 0)
(0.229776 0.226501 0)
(0.125366 0.0840482 -2.12288e-19)
(0.0636397 0.00661383 0)
(0.0250655 0.00598674 1.45091e-19)
(0.239996 0.214074 -9.12562e-20)
(1.02771 0.919918 0)
(1.17619 1.07267 4.14579e-20)
(1.17548 1.09606 0)
(1.1262 1.07762 2.13373e-20)
(1.06241 1.04906 0)
(0.990381 1.0157 2.08332e-20)
(0.908695 0.976945 5.28446e-20)
(0.816374 0.930575 5.27063e-20)
(0.711849 0.872538 -8.61044e-19)
(0.608852 0.805266 5.08732e-20)
(0.524334 0.736079 5.39214e-19)
(0.460277 0.667225 7.5481e-19)
(0.409542 0.595664 1.01166e-19)
(0.358711 0.502879 4.98177e-19)
(0.283794 0.361898 0)
(0.184243 0.18411 7.03794e-19)
(0.0964374 0.0275672 -4.12355e-19)
(0.0338115 0.0572574 4.78067e-19)
(-0.0376982 0.445927 -5.69634e-19)
(0.240288 0.221295 7.94764e-20)
(1.02167 0.945445 1.12329e-19)
(1.16645 1.10005 0)
(1.16455 1.12331 5.35179e-21)
(1.11512 1.10449 -4.5251e-20)
(1.0512 1.07567 2.65995e-19)
(0.979089 1.04208 1.37916e-19)
(0.896897 1.00337 0)
(0.803518 0.95729 3.56256e-19)
(0.696862 0.899872 -4.57121e-20)
(0.590156 0.833424 0)
(0.500213 0.764086 0)
(0.429939 0.692858 6.73757e-19)
(0.370603 0.61571 -3.11149e-19)
(0.307637 0.51191 -5.02201e-19)
(0.220369 0.345158 0)
(0.103846 0.174404 3.53705e-19)
(0.0105716 0.459972 -4.1082e-19)
(0.0349839 1.90436 -2.31836e-19)
(0.0622417 2.81283 -2.91043e-19)
(0.240197 0.227912 -6.43129e-20)
(1.0156 0.969741 -1.52884e-19)
(1.15691 1.12585 2.98052e-20)
(1.15388 1.14898 9.28416e-21)
(1.10442 1.12997 0)
(1.04033 1.10104 1.72825e-19)
(0.9683 1.06742 1.99115e-19)
(0.885576 1.02898 -2.62417e-20)
(0.791212 0.983508 5.27452e-20)
(0.682485 0.927167 8.23467e-19)
(0.572102 0.862237 8.49481e-19)
(0.476466 0.794021 6.01984e-19)
(0.399023 0.720932 6.7508e-19)
(0.329975 0.636869 -7.25879e-19)
(0.255941 0.527101 -7.5464e-19)
(0.142556 0.378347 0)
(0.0494635 0.863369 0)
(0.0969903 2.56595 1.97853e-19)
(0.0992579 3.20162 0)
(0.0998977 3.38553 4.87601e-19)
(0.242803 0.234019 0)
(1.00972 0.993128 0)
(1.14733 1.14994 0)
(1.14325 1.17289 5.63315e-21)
(1.0938 1.15382 -3.4562e-20)
(1.0296 1.12502 1.11363e-19)
(0.957937 1.09164 1.31951e-19)
(0.87466 1.05364 -2.59997e-20)
(0.77939 1.00906 4.51895e-19)
(0.668707 0.954256 -1.01243e-20)
(0.554777 0.891482 1.6801e-18)
(0.453521 0.825916 -6.88638e-20)
(0.36776 0.751877 8.19678e-20)
(0.290066 0.656846 1.0456e-19)
(0.196986 0.549654 -7.31355e-22)
(0.107874 1.00345 1.61736e-21)
(0.138121 2.73412 -1.02003e-18)
(0.144354 3.29587 -3.88008e-19)
(0.132594 3.42462 2.05911e-19)
(0.119601 3.44521 -2.31402e-19)
(0.164912 0.17866 4.144e-20)
(0.999861 1.01849 0)
(1.13762 1.17258 -7.5313e-20)
(1.133 1.19532 -4.33168e-20)
(1.08372 1.17653 -3.55215e-20)
(1.01963 1.14804 -1.10772e-19)
(0.947783 1.11474 -1.41103e-19)
(0.86419 1.07739 3.08878e-19)
(0.76818 1.03394 -3.74232e-19)
(0.655807 0.981142 0)
(0.538536 0.921094 8.2898e-19)
(0.431926 0.859553 -4.90806e-19)
(0.336668 0.788318 0)
(0.24645 0.682102 9.75689e-20)
(0.152432 0.84512 2.36751e-19)
(0.152912 2.52239 -2.77136e-19)
(0.205298 3.32959 3.14146e-19)
(0.185196 3.43954 1.73883e-19)
(0.152623 3.45834 1.99056e-19)
(0.131634 3.46687 3.2764e-19)
(0.278326 0.273042 -7.68601e-20)
(0.983444 1.02937 0)
(1.12017 1.19854 9.17189e-20)
(1.11888 1.22863 6.80742e-20)
(1.06783 1.21045 1.00249e-20)
(1.00319 1.18247 8.38351e-20)
(0.930273 1.15052 1.62521e-19)
(0.845981 1.11439 2.38123e-20)
(0.74857 1.07307 3.65582e-19)
(0.633393 1.02413 7.24462e-19)
(0.511025 0.969926 4.75103e-20)
(0.396366 0.91641 4.37254e-19)
(0.282421 0.853111 7.71504e-20)
(0.216107 1.01826 -9.5702e-20)
(0.222992 2.38923 -2.19098e-19)
(0.274725 3.33808 2.20819e-19)
(0.258616 3.47081 -2.51796e-19)
(0.222699 3.48869 -1.47863e-19)
(0.187382 3.51224 -1.37537e-19)
(0.140973 3.50502 -1.60235e-20)
(0.268581 0.272035 0)
(0.981095 1.05253 3.30037e-20)
(1.11228 1.22222 -2.0999e-20)
(1.10903 1.25209 -1.03928e-20)
(1.05769 1.23378 -5.87288e-21)
(0.993112 1.20605 -7.44862e-20)
(0.919869 1.17436 -9.58023e-20)
(0.8354 1.13906 2.19167e-20)
(0.737544 1.09921 -3.85779e-19)
(0.62124 1.05308 -1.47439e-20)
(0.496459 1.00342 -1.51191e-18)
(0.377728 0.955307 6.20312e-20)
(0.272098 0.927834 -7.31515e-20)
(0.252117 1.56457 -8.94573e-20)
(0.31281 3.13244 1.75638e-20)
(0.32907 3.47519 2.19554e-21)
(0.286586 3.52372 3.99075e-19)
(0.251268 3.54392 2.10145e-19)
(0.204373 3.56306 -8.03911e-20)
(0.152839 3.55754 -8.75764e-20)
(0.254383 0.269961 8.98759e-20)
(0.977832 1.07827 2.31251e-19)
(1.10399 1.24795 -6.12485e-20)
(1.09874 1.27708 -3.93335e-20)
(1.04718 1.25859 0)
(0.982692 1.23088 -6.77791e-20)
(0.909367 1.19947 -1.22914e-19)
(0.824976 1.16494 1.99104e-20)
(0.72698 1.12662 -4.24666e-20)
(0.610057 1.08349 -6.6977e-19)
(0.483694 1.03883 -7.04134e-19)
(0.36273 0.997491 -5.1613e-19)
(0.277182 1.06815 -5.52402e-19)
(0.314926 2.28002 5.63828e-19)
(0.392328 3.39903 4.89941e-19)
(0.368199 3.53543 0)
(0.317884 3.5704 0)
(0.280495 3.60301 -6.62397e-20)
(0.233135 3.64893 0)
(0.162354 3.6291 -1.11854e-19)
(0.244221 0.27175 -1.41267e-19)
(0.97256 1.10488 -2.04993e-19)
(1.09433 1.27494 0)
(1.08727 1.30299 6.38658e-21)
(1.03555 1.28407 -3.10743e-20)
(0.971251 1.25628 -7.08598e-20)
(0.898154 1.22514 -6.94287e-20)
(0.814067 1.19129 1.45743e-20)
(0.71619 1.15443 -2.8684e-19)
(0.599064 1.11429 3.47149e-20)
(0.471915 1.07481 0)
(0.352753 1.04421 0)
(0.305357 1.33946 -5.08272e-19)
(0.391186 2.94771 2.06969e-19)
(0.458354 3.5051 2.7672e-19)
(0.406568 3.57177 0)
(0.363351 3.62564 -6.38642e-20)
(0.319689 3.67253 2.73069e-20)
(0.269469 3.6383 -4.89816e-20)