/*--------------------------------*- C++ -*----------------------------------*\
  =========                 |
  \\      /  F ield         | OpenFOAM: The Open Source CFD Toolbox
   \\    /   O peration     | Website:  https://openfoam.org
    \\  /    A nd           | Version:  6
     \\/     M anipulation  |
\*---------------------------------------------------------------------------*/
FoamFile
{
    version     2.0;
    format      ascii;
    class       volScalarField;
    location    "5";
    object      p;
}
// * * * * * * * * * * * * * * * * * * * * * * * * * * * * * * * * * * * * * //

dimensions      [0 2 -2 0 0 0 0];

internalField   nonuniform List<scalar> 
2200
(
0.628645
0.614014
0.597736
0.583249
0.570914
0.560832
0.552808
0.546556
0.542739
0.541021
0.541171
0.543151
0.547179
0.553595
0.561726
0.571882
0.584276
0.598793
0.615085
0.629723
0.573239
0.570156
0.566679
0.563584
0.559909
0.555354
0.551238
0.547303
0.543706
0.541349
0.541521
0.544181
0.547993
0.552057
0.556272
0.560913
0.564656
0.567791
0.571287
0.574373
0.529396
0.530229
0.533689
0.537215
0.538682
0.538327
0.53648
0.534316
0.532156
0.530731
0.530926
0.532686
0.535087
0.537418
0.539378
0.539802
0.53843
0.534936
0.531511
0.530693
0.506105
0.50715
0.509387
0.511223
0.512649
0.513795
0.513902
0.513435
0.512699
0.512192
0.51243
0.513362
0.514418
0.515087
0.515064
0.513864
0.512425
0.510849
0.50865
0.50762
0.497238
0.497983
0.499159
0.499995
0.500358
0.500513
0.500559
0.500512
0.500352
0.500272
0.500554
0.501131
0.501678
0.502002
0.502164
0.5022
0.501884
0.500962
0.499829
0.499101
0.496547
0.497067
0.498264
0.499773
0.501126
0.502119
0.502713
0.502969
0.503057
0.503178
0.503515
0.504001
0.504379
0.504478
0.50414
0.50335
0.502167
0.500664
0.499477
0.498951
0.497451
0.497871
0.498646
0.499592
0.500649
0.501695
0.502513
0.503078
0.503511
0.503893
0.504284
0.504622
0.504746
0.50465
0.504188
0.503374
0.502449
0.501556
0.500798
0.50037
0.493438
0.493461
0.493605
0.493814
0.494128
0.494575
0.495247
0.495988
0.496673
0.497307
0.497848
0.498194
0.498235
0.497997
0.497684
0.497467
0.497273
0.497134
0.496973
0.496928
0.487541
0.487522
0.487527
0.487566
0.487661
0.487808
0.488083
0.488557
0.489204
0.489928
0.490493
0.49099
0.491299
0.491473
0.491596
0.491688
0.491754
0.491805
0.491864
0.491919
0.482395
0.482397
0.482443
0.482553
0.482716
0.482952
0.483294
0.483758
0.484358
0.48515
0.486107
0.486803
0.487254
0.487531
0.487711
0.487832
0.487903
0.48794
0.487961
0.48797
0.477457
0.477497
0.477574
0.477681
0.477861
0.478147
0.47857
0.479131
0.479873
0.480854
0.481993
0.482923
0.483582
0.484026
0.484299
0.484458
0.484541
0.484577
0.484584
0.484577
0.471909
0.471938
0.472016
0.472148
0.472367
0.472692
0.473168
0.473857
0.474801
0.476024
0.477422
0.478644
0.47952
0.480108
0.480488
0.480726
0.480868
0.480948
0.480985
0.48099
0.46596
0.465983
0.466066
0.466222
0.466476
0.466877
0.467472
0.468331
0.46952
0.471083
0.472844
0.474379
0.475502
0.47628
0.476799
0.477134
0.477342
0.477464
0.477522
0.477537
0.459717
0.459742
0.459835
0.460024
0.46034
0.460837
0.461584
0.462668
0.464176
0.46617
0.468413
0.470363
0.4718
0.472805
0.473482
0.47392
0.474191
0.474347
0.474421
0.474438
0.453037
0.45307
0.453186
0.453419
0.453813
0.454436
0.455381
0.456758
0.458679
0.461222
0.464081
0.466563
0.468393
0.469676
0.470539
0.471097
0.471444
0.471643
0.471737
0.471759
0.445744
0.445786
0.445935
0.446232
0.446734
0.44753
0.448738
0.450498
0.452955
0.456203
0.459846
0.463001
0.465323
0.466949
0.468042
0.46875
0.469189
0.469442
0.469561
0.46959
0.43767
0.437725
0.437916
0.4383
0.438948
0.439974
0.441529
0.443791
0.446942
0.451098
0.455743
0.459747
0.462685
0.464738
0.466117
0.467009
0.467561
0.46788
0.46803
0.468066
0.428587
0.428661
0.428914
0.429415
0.430261
0.431593
0.433604
0.436524
0.440578
0.445902
0.451819
0.456892
0.460598
0.463179
0.464909
0.466027
0.46672
0.467119
0.467307
0.467351
0.418183
0.418279
0.418609
0.419268
0.420376
0.422119
0.424743
0.428535
0.433772
0.440602
0.448128
0.454533
0.459191
0.462427
0.464592
0.46599
0.466855
0.467352
0.467585
0.467639
0.405974
0.406116
0.406575
0.407464
0.408949
0.411257
0.41471
0.419669
0.426457
0.435217
0.44476
0.452809
0.458635
0.462674
0.465374
0.467118
0.468197
0.46882
0.469113
0.469181
0.391468
0.39164
0.392234
0.393429
0.395428
0.398533
0.403151
0.409708
0.418549
0.429767
0.441797
0.451842
0.459091
0.464122
0.467495
0.469675
0.471024
0.471796
0.472154
0.472232
0.373381
0.373708
0.374647
0.376367
0.379184
0.383476
0.389758
0.398511
0.410042
0.424338
0.439372
0.451794
0.460746
0.466988
0.4712
0.473942
0.475651
0.476646
0.47712
0.477237
0.351075
0.35144
0.352687
0.355171
0.359266
0.365399
0.374177
0.38599
0.401008
0.419065
0.437625
0.452798
0.463753
0.471475
0.47677
0.480272
0.482478
0.483749
0.48433
0.48445
0.321264
0.322161
0.3245
0.328527
0.334711
0.34381
0.35626
0.37218
0.391559
0.414064
0.436623
0.454885
0.468133
0.477613
0.484276
0.488817
0.491766
0.493557
0.494451
0.494666
0.282128
0.283611
0.287488
0.294169
0.304417
0.318555
0.336252
0.357478
0.382095
0.409641
0.436574
0.458183
0.47396
0.48547
0.493821
0.49981
0.503911
0.506443
0.507707
0.50797
0.230158
0.232193
0.239161
0.251438
0.269001
0.290255
0.314677
0.34233
0.372917
0.405911
0.437385
0.462437
0.480883
0.494623
0.504899
0.512625
0.518419
0.522276
0.52408
0.524248
0.157793
0.164896
0.181245
0.204459
0.23158
0.260721
0.292518
0.327061
0.363965
0.402786
0.43921
0.468234
0.490006
0.506733
0.519811
0.530215
0.538828
0.545891
0.54994
0.550984
0.0758531
0.0936312
0.123117
0.15839
0.194597
0.231762
0.271147
0.312561
0.355721
0.400393
0.442045
0.475439
0.500868
0.520855
0.53696
0.550146
0.561126
0.570648
0.578044
0.581824
0.0142287
0.0353317
0.0720276
0.115385
0.159442
0.204713
0.251522
0.299419
0.348299
0.39812
0.444202
0.481075
0.50915
0.531197
0.548887
0.563263
0.574951
0.584548
0.592651
0.596706
-0.0283807
-0.00700741
0.0327385
0.080168
0.12954
0.180994
0.23376
0.287139
0.340898
0.395002
0.444587
0.483993
0.513759
0.536875
0.555154
0.569797
0.581617
0.591091
0.598223
0.60138
-0.0603001
-0.0375926
0.00434068
0.0539842
0.10643
0.161655
0.218484
0.275992
0.333576
0.391041
0.443314
0.484598
0.515535
0.539307
0.557876
0.572562
0.584304
0.593689
0.600582
0.603906
-0.0852005
-0.061193
-0.0173292
0.0341608
0.088781
0.14646
0.20605
0.266469
0.326797
0.386658
0.44089
0.483662
0.515609
0.540009
0.558922
0.573757
0.585525
0.594895
0.601699
0.605005
-0.105639
-0.0807507
-0.0353777
0.0177733
0.0743658
0.13415
0.195913
0.258442
0.320619
0.381968
0.437496
0.48153
0.514518
0.539662
0.559041
0.574124
0.585986
0.595362
0.602115
0.60529
-0.123162
-0.0976746
-0.0510687
0.00346733
0.0618868
0.123628
0.187256
0.251411
0.314783
0.376834
0.433055
0.478241
0.512441
0.538571
0.558622
0.574099
0.586151
0.595589
0.602343
0.60545
-0.138734
-0.112501
-0.0648192
-0.00909489
0.0509639
0.11441
0.179613
0.245036
0.309075
0.371107
0.427408
0.473709
0.509451
0.536974
0.558043
0.574165
0.586571
0.596168
0.602977
0.606101
-0.153031
-0.125529
-0.0769484
-0.0200904
0.0414416
0.106335
0.172851
0.239214
0.303425
0.3647
0.420366
0.467754
0.505534
0.535054
0.557659
0.574795
0.587783
0.597669
0.604603
0.607774
-0.16614
-0.137257
-0.0878372
-0.0298181
0.0330838
0.0992675
0.16692
0.233934
0.297837
0.357554
0.411669
0.460028
0.500505
0.532895
0.557762
0.576434
0.590368
0.600759
0.607913
0.611153
-0.178176
-0.148053
-0.0977815
-0.0385792
0.0256436
0.0930695
0.161767
0.229206
0.292361
0.349677
0.401078
0.450119
0.494107
0.530505
0.55866
0.579587
0.594855
0.605959
0.613462
0.616846
-0.189373
-0.158159
-0.107015
-0.0466198
0.0189157
0.0876089
0.157331
0.225041
0.287074
0.341104
0.388261
0.437279
0.485648
0.527715
0.560524
0.584632
0.60193
0.614185
0.62225
0.625666
-0.19997
-0.167768
-0.115731
-0.0541241
0.012755
0.0827908
0.153572
0.221474
0.282115
0.332015
0.3731
0.420992
0.474636
0.524234
0.56369
0.592331
0.612263
0.625978
0.634703
0.638842
-0.210147
-0.177041
-0.124079
-0.0612176
0.007072
0.0785566
0.150467
0.218544
0.277652
0.322653
0.355391
0.400129
0.459556
0.519366
0.568147
0.603166
0.626789
0.642505
0.652281
0.656728
-0.220038
-0.186107
-0.132178
-0.0679997
0.00179039
0.0748423
0.147963
0.216252
0.273838
0.313327
0.335187
0.374038
0.43961
0.512322
0.573619
0.61773
0.646484
0.664544
0.675414
0.680068
-0.22974
-0.195077
-0.140129
-0.0745541
-0.00315527
0.0715821
0.145976
0.214595
0.270863
0.30454
0.312938
0.342108
0.413528
0.501697
0.579923
0.637005
0.672946
0.693899
0.70528
0.710098
-0.239328
-0.204046
-0.148011
-0.0809292
-0.00779602
0.0687201
0.144407
0.213565
0.268841
0.296556
0.288547
0.302259
0.378417
0.486664
0.586979
0.661717
0.708873
0.732411
0.742737
0.745742
-0.248852
-0.213096
-0.155868
-0.0871238
-0.0121362
0.0661743
0.143111
0.213103
0.267801
0.289773
0.263182
0.25564
0.332965
0.465782
0.593248
0.691246
0.754428
0.784025
0.788265
0.783314
-0.258389
-0.222276
-0.163686
-0.0931011
-0.0161865
0.0638074
0.141939
0.213175
0.267819
0.284618
0.237418
0.200873
0.275732
0.438566
0.59948
0.72362
0.806752
0.847695
0.843407
0.811296
-0.267977
-0.231563
-0.171434
-0.098863
-0.0200313
0.0614132
0.14079
0.213771
0.268866
0.280964
0.210082
0.133643
0.200251
0.401013
0.606682
0.759147
0.859253
0.919721
0.950643
0.967898
-0.277709
-0.240976
-0.179095
-0.104462
-0.0238957
0.0586574
0.139492
0.214704
0.270808
0.279358
0.182076
0.0538427
0.0975659
0.337306
0.600768
0.777169
0.878021
0.927077
0.922884
0.90078
-0.287662
-0.250457
-0.186476
-0.109817
-0.0279383
0.0553691
0.138001
0.215789
0.273497
0.280103
0.155205
-0.0397626
-0.0483682
0.22503
0.544258
0.733066
0.810809
0.800159
0.742972
0.722226
-0.297902
-0.259799
-0.193385
-0.114979
-0.0324264
0.0514405
0.136301
0.216879
0.27684
0.28304
0.131851
-0.159512
-0.27323
0.0224111
0.390205
0.585475
0.627706
0.572188
0.498819
0.491647
-0.308291
-0.268715
-0.19978
-0.120203
-0.0376579
0.0469028
0.134401
0.217802
0.280731
0.28891
0.115406
-0.311429
-0.57855
-0.298389
0.0997288
0.308968
0.347286
0.275682
0.21601
0.228875
-0.318779
-0.277328
-0.206278
-0.126183
-0.0439201
0.0418329
0.13218
0.218337
0.284944
0.297996
0.105807
-0.453566
-0.900347
-0.692175
-0.282947
-0.0458055
-0.0258981
-0.0706945
-0.107635
-0.0628822
-0.329495
-0.286348
-0.214045
-0.133725
-0.0513427
0.0362731
0.129449
0.21838
0.289243
0.308299
0.108905
-0.536285
-1.14605
-1.01861
-0.619753
-0.372209
-0.36164
-0.411659
-0.462842
-0.402989
-0.340618
-0.29633
-0.223668
-0.143072
-0.0597962
0.0302399
0.126076
0.217908
0.293641
0.319121
0.133225
-0.53254
-1.21527
-1.15801
-0.80334
-0.651947
-0.655516
-0.767905
-0.88701
-0.815834
-0.352651
-0.307616
-0.235029
-0.15398
-0.0691183
0.0236124
0.121893
0.216769
0.297936
0.333151
0.174264
-0.438087
-1.08662
-1.09723
-0.903496
-0.903502
-0.945232
-1.10844
-1.33493
-1.32659
-0.366241
-0.320513
-0.247962
-0.166178
-0.0792864
0.016118
0.116615
0.214578
0.301322
0.347519
0.222367
-0.279839
-0.836412
-0.941188
-0.954318
-1.08806
-1.19631
-1.42408
-1.90259
-2.26071
-0.381841
-0.335256
-0.26234
-0.179478
-0.0904146
0.00745003
0.109937
0.210821
0.302681
0.358455
0.272573
-0.100646
-0.561518
-0.770881
-0.971431
-1.25281
-1.45629
-1.70439
-2.35676
-3.6662
-0.399608
-0.351966
-0.278278
-0.194042
-0.102845
-0.00276353
0.101535
0.205126
0.301716
0.366833
0.320407
0.0702781
-0.299185
-0.602084
-0.95672
-1.38202
-1.66505
-1.81655
-2.00463
-2.42589
-0.419678
-0.370901
-0.29623
-0.21047
-0.117255
-0.0151794
0.0907974
0.196917
0.297937
0.372744
0.362232
0.215593
-0.0704197
-0.438157
-0.880413
-1.41252
-1.78756
-1.92962
-1.91658
-1.91285
-0.442265
-0.392385
-0.316653
-0.229304
-0.134109
-0.0301258
0.0775011
0.18593
0.290741
0.375118
0.394901
0.326715
0.116374
-0.261192
-0.749168
-1.3616
-1.84587
-2.04242
-2.05809
-1.99595
-0.467669
-0.416803
-0.33998
-0.250944
-0.153658
-0.0477426
0.0614804
0.171915
0.279696
0.373309
0.417968
0.402578
0.270531
-0.0923746
-0.585936
-1.20732
-1.76418
-2.02339
-2.02754
-1.93193
-0.496118
-0.444413
-0.366459
-0.275543
-0.175963
-0.068084
0.0426459
0.15502
0.265246
0.366763
0.432776
0.446034
0.372941
0.0432675
-0.396183
-0.921436
-1.41996
-1.67523
-1.6693
-1.59127
-0.527754
-0.475373
-0.396127
-0.303042
-0.200844
-0.0910314
0.0213115
0.135915
0.248492
0.35616
0.440313
0.472391
0.427245
0.185553
-0.144371
-0.482833
-0.790173
-0.960209
-0.962043
-0.917749
-0.562373
-0.509593
-0.42886
-0.33317
-0.227924
-0.116262
-0.00196815
0.115118
0.230327
0.343639
0.441438
0.497076
0.482687
0.362072
0.182317
0.0290378
-0.0869962
-0.154886
-0.158945
-0.140034
-0.599679
-0.546918
-0.464201
-0.365169
-0.25668
-0.143166
-0.0264605
0.0933372
0.212281
0.331239
0.440491
0.52072
0.55084
0.52727
0.472948
0.433171
0.417086
0.418977
0.433489
0.446729
-0.638646
-0.586453
-0.501031
-0.398087
-0.286518
-0.1708
-0.0512064
0.0717554
0.195423
0.319662
0.440306
0.536662
0.600162
0.63264
0.646023
0.661459
0.688586
0.725241
0.751267
0.761111
-0.678671
-0.626706
-0.537743
-0.430836
-0.316481
-0.198273
-0.0755513
0.0505331
0.178597
0.309193
0.438479
0.545076
0.626208
0.687497
0.73567
0.779971
0.8222
0.858571
0.883395
0.893353
-0.717874
-0.665283
-0.572527
-0.462156
-0.345445
-0.224755
-0.0989962
0.0299645
0.161593
0.29976
0.435136
0.550311
0.642069
0.717004
0.779598
0.832817
0.877132
0.911635
0.935088
0.945856
-0.754533
-0.699544
-0.603454
-0.49041
-0.371863
-0.248801
-0.120302
0.0116481
0.146792
0.290297
0.431251
0.55221
0.649534
0.729061
0.794497
0.847978
0.891239
0.925317
0.949217
0.960551
-0.784885
-0.728374
-0.629411
-0.514175
-0.393981
-0.26866
-0.138031
-0.00361855
0.134799
0.280832
0.424995
0.548364
0.647377
0.727588
0.792596
0.84496
0.887129
0.920911
0.945338
0.956759
-0.804922
-0.747999
-0.647358
-0.530988
-0.409729
-0.282927
-0.151387
-0.016023
0.123943
0.271059
0.415705
0.539098
0.637623
0.716994
0.780999
0.832438
0.873786
0.907138
0.93175
0.943285
-0.812252
-0.755904
-0.654478
-0.537895
-0.416531
-0.290065
-0.159498
-0.0251606
0.113992
0.260217
0.403164
0.524676
0.621179
0.698715
0.761237
0.811698
0.852458
0.885356
0.909802
0.921465
-0.800173
-0.745856
-0.64599
-0.53123
-0.412195
-0.288702
-0.161499
-0.030553
0.105298
0.247942
0.386664
0.504122
0.597149
0.671964
0.732551
0.78183
0.82208
0.854835
0.879229
0.891002
-0.765352
-0.714067
-0.6174
-0.507045
-0.39374
-0.276718
-0.156282
-0.0317286
0.0979897
0.234013
0.36569
0.476717
0.564543
0.635352
0.693071
0.740468
0.779636
0.811964
0.836306
0.848206
-0.699163
-0.653503
-0.564597
-0.463089
-0.359812
-0.253636
-0.143587
-0.0283034
0.0921601
0.218315
0.339973
0.441896
0.522192
0.586873
0.639829
0.683813
0.720903
0.752331
0.776591
0.788788
-0.599862
-0.560887
-0.483028
-0.394967
-0.308011
-0.21834
-0.121975
-0.0190815
0.0885468
0.201476
0.310104
0.400184
0.470306
0.52615
0.571407
0.608597
0.63989
0.666978
0.68838
0.699699
-0.454504
-0.42662
-0.369791
-0.305578
-0.241155
-0.170772
-0.0904244
-0.00359991
0.0883757
0.186434
0.281403
0.35971
0.419678
0.466337
0.502985
0.531675
0.55415
0.572999
0.588411
0.596976
-0.275291
-0.260855
-0.232906
-0.201233
-0.16288
-0.112634
-0.0517375
0.0161036
0.09149
0.174577
0.256285
0.323762
0.374922
0.413849
0.443392
0.465427
0.480864
0.491882
0.501039
0.506382
-0.126927
-0.120575
-0.110487
-0.0997258
-0.0801239
-0.0491554
-0.00925929
0.0394421
0.0981394
0.165731
0.233695
0.289957
0.331973
0.362835
0.384939
0.400316
0.410028
0.415415
0.419408
0.421915
-0.0312481
-0.0282307
-0.0251675
-0.0208658
-0.00985411
0.00753223
0.0313688
0.0644233
0.107798
0.160485
0.21523
0.260831
0.294309
0.318001
0.334053
0.344606
0.351175
0.354506
0.356575
0.357928
0.0227559
0.0231924
0.0237007
0.0266325
0.034245
0.045341
0.0613102
0.0847085
0.116536
0.156792
0.199922
0.236156
0.262522
0.280892
0.293169
0.301156
0.306286
0.309028
0.310407
0.311145
0.0514389
0.0508841
0.0506847
0.0528007
0.0580342
0.0661761
0.0786307
0.0966857
0.121085
0.15232
0.186248
0.214952
0.235893
0.250555
0.260448
0.266852
0.270866
0.27298
0.273823
0.274144
0.0690441
0.0686501
0.0686048
0.0700125
0.0733579
0.0792195
0.0887861
0.102846
0.122026
0.14673
0.173679
0.196564
0.213313
0.225053
0.232942
0.237952
0.240967
0.242546
0.243161
0.243352
0.0812099
0.0810715
0.0812742
0.0823636
0.0846614
0.0888374
0.0958212
0.10639
0.121243
0.140715
0.162143
0.180385
0.193697
0.202945
0.209079
0.212925
0.215205
0.216429
0.216953
0.217118
0.0888188
0.0888019
0.0890925
0.0899961
0.0917664
0.0949153
0.100097
0.108015
0.119372
0.134541
0.15144
0.165871
0.176359
0.183591
0.188357
0.191347
0.19312
0.194085
0.194517
0.194657
0.0926127
0.0926289
0.0928889
0.0936043
0.0950037
0.0974659
0.101457
0.107533
0.116283
0.128073
0.141326
0.15268
0.160924
0.166602
0.170343
0.172695
0.174089
0.174842
0.17518
0.175287
0.0936117
0.0936378
0.0938506
0.0944055
0.0954972
0.0974149
0.100518
0.105241
0.112048
0.121252
0.131646
0.140573
0.147059
0.151528
0.154471
0.156319
0.15741
0.157995
0.158255
0.158336
0.0926003
0.0926309
0.0928066
0.0932423
0.0940927
0.0955773
0.0979791
0.101646
0.10695
0.114149
0.12231
0.12933
0.13443
0.13794
0.140247
0.141693
0.142545
0.143
0.143201
0.143264
0.0900429
0.0900723
0.0902153
0.0905595
0.0912253
0.092378
0.0942385
0.0970829
0.101211
0.106838
0.113239
0.118752
0.122755
0.125506
0.127312
0.128443
0.129108
0.129462
0.129619
0.129667
0.0862665
0.0862915
0.0864053
0.0866759
0.0871968
0.0880947
0.0895414
0.0917532
0.0949675
0.0993615
0.104375
0.108698
0.111835
0.113991
0.115405
0.11629
0.116809
0.117085
0.117205
0.117242
0.081534
0.0815542
0.0816434
0.0818547
0.0822606
0.0829597
0.084086
0.0858079
0.0883122
0.091742
0.0956642
0.0990498
0.101507
0.103195
0.104302
0.104993
0.105398
0.105612
0.105705
0.105732
0.0760612
0.0760771
0.0761469
0.0763116
0.0766278
0.0771721
0.0780489
0.0793892
0.08134
0.0840156
0.0870812
0.0897298
0.091652
0.0929715
0.0938355
0.094374
0.094689
0.0948548
0.0949265
0.0949476
0.0700136
0.0700264
0.0700798
0.0702072
0.0704524
0.070875
0.0715559
0.0725976
0.0741152
0.0762001
0.0785927
0.0806606
0.0821604
0.0831888
0.0838614
0.08428
0.0845247
0.0846534
0.0847092
0.0847254
0.0635081
0.0635181
0.063561
0.0636603
0.0638508
0.0641786
0.0647067
0.0655149
0.0666933
0.0683137
0.0701753
0.0717849
0.0729519
0.0737515
0.0742743
0.0745996
0.0747894
0.0748891
0.0749319
0.0749445
0.0566678
0.0566751
0.0567068
0.0567834
0.0569306
0.0571839
0.0575921
0.0582172
0.0591293
0.0603848
0.0618276
0.0630745
0.0639779
0.0645965
0.0650005
0.0652514
0.0653974
0.0654736
0.0655062
0.0655153
0.0495452
0.049551
0.0495753
0.0496327
0.0497442
0.0499376
0.0502502
0.0507297
0.0514297
0.0523937
0.0535038
0.0544641
0.0551599
0.0556365
0.055948
0.0561414
0.0562535
0.0563111
0.056335
0.0563422
0.0422206
0.0422244
0.0422441
0.0422894
0.0423755
0.0425234
0.0427617
0.0431267
0.0436596
0.0443932
0.0452369
0.0459682
0.0464979
0.0468601
0.0470958
0.0472413
0.047325
0.0473676
0.0473852
0.04739
0.0347519
0.0347548
0.0347664
0.0347971
0.0348591
0.0349677
0.0351441
0.0354151
0.0358113
0.0363586
0.03699
0.0375336
0.0379266
0.0381947
0.038369
0.0384768
0.038539
0.0385711
0.0385845
0.0385876
0.027137
0.0271383
0.027147
0.0271701
0.0272152
0.0272934
0.0274198
0.0276136
0.0278957
0.0282841
0.028734
0.0291299
0.0294153
0.029609
0.0297345
0.0298118
0.0298556
0.0298765
0.0298842
0.0298865
0.019449
0.0194507
0.0194595
0.0194777
0.0195102
0.0195646
0.0196509
0.0197825
0.0199752
0.0202396
0.0205462
0.0208068
0.0209919
0.0211173
0.0211966
0.0212445
0.0212719
0.0212858
0.0212908
0.0212925
0.0117142
0.0117151
0.0117176
0.0117241
0.0117394
0.0117683
0.0118164
0.0118906
0.0119997
0.0121499
0.0123259
0.0124711
0.0125732
0.012645
0.0126939
0.0127245
0.0127426
0.0127524
0.0127564
0.0127577
0.00390914
0.00390763
0.00390541
0.00390515
0.00390849
0.00391659
0.00393121
0.00395424
0.00398804
0.00403765
0.00410025
0.00414635
0.00418052
0.00420693
0.00422847
0.00424262
0.00425015
0.00425248
0.0042513
0.00425017
-1.37185
-0.732821
-0.359476
-0.0590719
0.198356
0.422411
0.619546
0.795739
0.933952
0.975374
-0.470121
-0.130006
0.0666906
0.24508
0.416398
0.573111
0.700166
0.790633
0.813832
0.795716
-0.0134413
0.166254
0.313429
0.439069
0.554611
0.658864
0.73863
0.785632
0.799161
0.818463
0.271089
0.381222
0.485617
0.580435
0.661604
0.730134
0.781918
0.815813
0.836346
0.862026
0.461666
0.550226
0.626716
0.69788
0.755107
0.801246
0.838163
0.864682
0.885026
0.910331
0.614955
0.68596
0.748426
0.802346
0.841234
0.871094
0.896873
0.917262
0.935364
0.956396
0.757709
0.801403
0.843283
0.877581
0.904614
0.926595
0.945837
0.963478
0.982825
1.00727
0.867306
0.89217
0.914684
0.936739
0.959437
0.979843
0.996891
1.01561
1.03975
1.06282
0.950925
0.973455
0.990802
1.00766
1.02719
1.04743
1.06624
1.08547
1.1057
1.12179
1.02826
1.05421
1.07966
1.09969
1.11557
1.13083
1.14768
1.16318
1.1753
1.18432
1.13056
1.14447
1.16749
1.18859
1.20116
1.20943
1.22023
1.23259
1.244
1.25414
1.23754
1.23908
1.2476
1.26303
1.27729
1.2853
1.29187
1.30193
1.31398
1.32327
1.32928
1.33136
1.33498
1.34256
1.35453
1.36528
1.37191
1.37794
1.38446
1.39052
1.42151
1.4223
1.425
1.42702
1.43029
1.43712
1.44454
1.45016
1.4559
1.4623
1.52167
1.51283
1.50284
1.49573
1.49224
1.49397
1.5014
1.51309
1.52776
1.5408
1.62841
1.59085
1.55896
1.53859
1.52963
1.52975
1.53877
1.55862
1.58997
1.62901
)
;

boundaryField
{
    wall-4
    {
        type            zeroGradient;
    }
    pressure-outlet-7
    {
        type            fixedValue;
        value           uniform 0;
    }
    velocity-inlet-6
    {
        type            zeroGradient;
    }
    velocity-inlet-5
    {
        type            zeroGradient;
    }
    frontAndBackPlanes
    {
        type            empty;
    }
}


// ************************************************************************* //
