0.490941 	1.76396
0.561075 	1.76396
0.63121 	1.76396
0.701344 	1.76396
0.771478 	1.76396
0.841613 	1.76396
0.911747 	1.73891
0.981881 	1.73891
1.05202 	1.73891
1.12215 	1.73891
1.19228 	1.73891
1.26242 	1.73891
1.33255 	1.69494
1.40269 	1.69494
1.47282 	1.69494
1.54296 	1.69494
1.61309 	1.69494
1.68323 	1.69494
1.75336 	1.63456
1.82349 	1.63456
1.89363 	1.63456
1.96376 	1.63456
2.0339 	1.63456
2.10403 	1.63456
2.17417 	1.56332
2.2443 	1.56332
2.31443 	1.56332
2.38457 	1.56332
2.4547 	1.56332
2.52484 	1.56332
2.59497 	1.48701
2.66511 	1.48701
2.73524 	1.48701
2.80538 	1.48701
2.87551 	1.48701
2.94564 	1.48701
3.01578 	1.41074
3.08591 	1.41074
3.15605 	1.41074
3.22618 	1.41074
3.29632 	1.41074
3.36645 	1.41074
3.43659 	1.33631
3.50672 	1.33631
3.57685 	1.33631
3.64699 	1.33631
3.71712 	1.33631
3.78726 	1.32835
3.85739 	1.25521
3.92753 	1.25521
3.99766 	1.25521
4.06779 	1.25521
4.13793 	1.25521
4.20806 	1.25521
4.2782 	1.18401
4.34833 	1.18401
4.41847 	1.18401
4.4886 	1.18401
4.55874 	1.18401
4.62887 	1.18401
4.699 	1.18401
4.76914 	1.11464
4.83927 	1.11464
4.90941 	1.11464
4.97954 	1.11464
5.04968 	1.11464
5.11981 	1.11464
5.18994 	1.04695
5.26008 	1.04695
5.33021 	1.04695
5.40035 	1.04695
5.47048 	1.04695
5.54062 	1.04695
5.61075 	0.981897
5.68089 	0.981897
5.75102 	0.981897
5.82115 	0.981897
5.89129 	0.981897
5.96142 	0.981897
6.03156 	0.919995
6.10169 	0.919995
6.17183 	0.919995
6.24196 	0.919995
6.3121 	0.919995
6.38223 	0.919995
6.45236 	0.862146
6.5225 	0.862146
6.59263 	0.862146
6.66277 	0.862146
6.7329 	0.862146
6.80304 	0.862146
6.87317 	0.808363
6.9433 	0.808363
7.01344 	0.808363
7.08357 	0.808363
7.15371 	0.808363
7.22384 	0.808363
7.29398 	0.758891
7.36411 	0.758891
7.43425 	0.758891
7.50438 	0.758891
7.57451 	0.758891
7.64465 	0.758891
7.71478 	0.758891
7.78492 	0.713139
7.85505 	0.713139
7.92519 	0.713139
7.99532 	0.713139
8.06545 	0.713139
8.13559 	0.713139
8.20572 	0.670991
8.27586 	0.670991
8.34599 	0.670991
8.41613 	0.670991
8.48626 	0.670991
8.5564 	0.670991
8.62653 	0.63167
8.69666 	0.63167
8.7668 	0.63167
8.83693 	0.63167
8.90707 	0.63167
8.9772 	0.63167
9.04734 	0.595005
9.11747 	0.595005
9.18761 	0.595005
9.25774 	0.579298
9.32787 	0.579298
9.39801 	0.579298
9.46814 	0.579298
9.53828 	0.543324
9.60841 	0.543324
9.67855 	0.543324
9.74868 	0.543324
9.81881 	0.543324
9.88895 	0.543324
9.95908 	0.508735
10.0292 	0.508735
10.0994 	0.508735
10.1695 	0.508735
10.2396 	0.508735
10.3098 	0.508735
10.3799 	0.474874
10.45 	0.474874
10.5202 	0.474874
10.5903 	0.474874
10.6604 	0.474874
10.7306 	0.474874
10.8007 	0.44148
10.8708 	0.44148
10.941 	0.44148
11.0111 	0.44148
11.0812 	0.44148
11.1514 	0.44148
11.2215 	0.44148
11.2916 	0.407726
11.3618 	0.407726
11.4319 	0.407726
11.502 	0.407726
11.5722 	0.407726
11.6423 	0.407726
11.7124 	0.372985
11.7826 	0.372985
11.8527 	0.372985
11.9228 	0.372985
11.993 	0.372985
12.0631 	0.372985
12.1332 	0.335826
12.2034 	0.335826
12.2735 	0.335826
12.3437 	0.335826
12.4138 	0.335826
12.4839 	0.335826
12.5541 	0.335826
12.6242 	0.295157
12.6943 	0.295157
12.7645 	0.295157
12.8346 	0.295157
12.9047 	0.295157
12.9749 	0.295157
13.045 	0.249526
13.1151 	0.249526
13.1853 	0.249526
13.2554 	0.249526
13.3255 	0.249526
13.3957 	0.249526
13.4658 	0.249526
13.5359 	0.198463
13.6061 	0.198463
13.6762 	0.198463
13.7463 	0.198463
13.8165 	0.198463
13.8866 	0.198463
13.9567 	0.1425
14.0269 	0.1425
14.097 	0.1425
14.1671 	0.1425
14.2373 	0.1425
14.3074 	0.1425
14.3776 	0.113953
14.4477 	-0.00668766
14.5178 	-0.00668766
14.588 	-0.00668766
14.6581 	0.0146827
14.7282 	0.0146827
14.7984 	-0.0860493
14.8685 	-0.0519587
14.9386 	-0.0519587
15.0088 	-0.0519587
15.0789 	-0.0519587
15.149 	-0.00974613
15.2192 	-0.126222
15.2893 	-0.126222
15.3594 	-0.126222
15.4296 	-0.0840846
15.4997 	-0.0840846
15.5698 	-0.200271
15.64 	-0.200271
15.7101 	-0.200271
15.7802 	-0.150941
15.8504 	-0.150941
15.9205 	-0.265088
15.9906 	-0.265088
16.0608 	-0.265088
16.1309 	-0.202535
16.201 	-0.202535
16.2712 	-0.315998
16.3413 	-0.315998
16.4114 	-0.315998
16.4816 	-0.315998
16.5517 	-0.232685
16.6219 	-0.340653
16.692 	-0.340653
16.7621 	-0.340653
16.8323 	-0.340653
16.9024 	-0.340653
16.9725 	-0.330829
17.0427 	-0.330829
17.1128 	-0.330829
17.1829 	-0.330829
17.2531 	-0.423419
17.3232 	-0.423419
17.3933 	-0.423419
17.4635 	-0.294457
17.5336 	-0.294457
17.6037 	-0.37421
17.6739 	-0.37421
17.744 	-0.37421
17.8141 	-0.37421
17.8843 	-0.37421
17.9544 	-0.312332
18.0245 	-0.312332
18.0947 	-0.312332
18.1648 	-0.312332
18.2349 	-0.377842
18.3051 	-0.377842
18.3752 	-0.377842
18.4453 	-0.377842
18.5155 	-0.377842
18.5856 	-0.311463
18.6557 	-0.311463
18.7259 	-0.311463
18.796 	-0.311463
18.8662 	-0.373913
18.9363 	-0.373913
19.0064 	-0.373913
19.0766 	-0.373913
19.1467 	-0.373913
19.2168 	-0.433358
19.287 	-0.299526
19.3571 	-0.299526
19.4272 	-0.299526
19.4974 	-0.299526
19.5675 	-0.357368
19.6376 	-0.357368
19.7078 	-0.357368
19.7779 	-0.357368
19.848 	-0.357368
19.9182 	-0.413997
19.9883 	-0.413997
20.0584 	-0.27379
20.1286 	-0.27379
20.1987 	-0.27379
20.2688 	-0.330998
20.339 	-0.330998
20.4091 	-0.330998
20.4792 	-0.330998
20.5494 	-0.330998
20.6195 	-0.387759
20.6896 	-0.387759
20.7598 	-0.387759
20.8299 	-0.387759
20.9 	-0.263225
20.9702 	-0.308845
21.0403 	-0.308845
21.1105 	-0.308845
21.1806 	-0.308845
21.2507 	-0.308845
21.3209 	-0.357436
21.391 	-0.357436
21.4611 	-0.357436
21.5313 	-0.357436
21.6014 	-0.357436
21.6715 	-0.357436
21.7417 	-0.406105
21.8118 	-0.406105
21.8819 	-0.406105
21.9521 	-0.315892
22.0222 	-0.315892
22.0923 	-0.353653
22.1625 	-0.353653
22.2326 	-0.353653
22.3027 	-0.353653
22.3729 	-0.353653
22.443 	-0.353653
22.5131 	-0.391674
22.5833 	-0.391674
22.6534 	-0.391674
22.7235 	-0.391674
22.7937 	-0.391674
22.8638 	-0.429673
22.9339 	-0.429673
23.0041 	-0.429673
23.0742 	-0.360646
23.1443 	-0.360646
23.2145 	-0.360646
23.2846 	-0.395749
23.3548 	-0.395749
23.4249 	-0.395749
23.495 	-0.395749
23.5652 	-0.395749
23.6353 	-0.395749
23.7054 	-0.430087
23.7756 	-0.430087
23.8457 	-0.430087
23.9158 	-0.430087
23.986 	-0.430087
24.0561 	-0.430087
24.1262 	-0.46186
24.1964 	-0.46186
24.2665 	-0.46186
24.3366 	-0.46186
24.4068 	-0.46186
24.4769 	-0.413296
24.547 	-0.413296
24.6172 	-0.438437
24.6873 	-0.438437
24.7574 	-0.438437
24.8276 	-0.438437
24.8977 	-0.438437
24.9678 	-0.438437
25.038 	-0.463817
25.1081 	-0.463817
25.1782 	-0.463817
25.2484 	-0.463817
25.3185 	-0.463817
25.3886 	-0.463817
25.4588 	-0.49121
25.5289 	-0.49121
25.5991 	-0.49121
25.6692 	-0.49121
25.7393 	-0.49121
25.8095 	-0.49121
25.8796 	-0.49121
25.9497 	-0.517618
26.0199 	-0.517618
26.09 	-0.505238
26.1601 	-0.505238
26.2303 	-0.505238
26.3004 	-0.505238
26.3705 	-0.505238
26.4407 	-0.525219
26.5108 	-0.525219
26.5809 	-0.525219
26.6511 	-0.525219
26.7212 	-0.525219
26.7913 	-0.525219
26.8615 	-0.525219
26.9316 	-0.54092
27.0017 	-0.54092
27.0719 	-0.54092
27.142 	-0.54092
27.2121 	-0.54092
27.2823 	-0.54092
27.3524 	-0.550866
27.4225 	-0.550866
27.4927 	-0.550866
27.5628 	-0.550866
27.6329 	-0.550866
27.7031 	-0.550866
27.7732 	-0.550866
27.8434 	-0.550866
27.9135 	-0.554918
27.9836 	-0.554918
28.0538 	-0.554918
28.1239 	-0.554918
28.194 	-0.554918
28.2642 	-0.554918
28.3343 	-0.545029
28.4044 	-0.544468
28.4746 	-0.544468
28.5447 	-0.544468
28.6148 	-0.544468
28.685 	-0.544468
28.7551 	-0.544468
28.8252 	-0.544468
28.8954 	-0.544468
28.9655 	-0.536249
29.0356 	-0.536249
29.1058 	-0.536249
29.1759 	-0.536249
29.246 	-0.536249
29.3162 	-0.536249
29.3863 	-0.536249
29.4564 	-0.519935
29.5266 	-0.519935
29.5967 	-0.519935
29.6668 	-0.519935
29.737 	-0.519935
29.8071 	-0.519935
29.8773 	-0.519935
29.9474 	-0.519935
30.0175 	-0.498391
30.0877 	-0.498391
30.1578 	-0.498391
30.2279 	-0.498391
30.2981 	-0.498391
30.3682 	-0.498391
30.4383 	-0.498391
30.5085 	-0.498391
30.5786 	-0.474124
30.6487 	-0.474124
30.7189 	-0.474124
30.789 	-0.474124
30.8591 	-0.474124
30.9293 	-0.474124
30.9994 	-0.474124
31.0695 	-0.474124
31.1397 	-0.447477
31.2098 	-0.447477
31.2799 	-0.447477
31.3501 	-0.447477
31.4202 	-0.447477
31.4903 	-0.447477
31.5605 	-0.495881
31.6306 	-0.495881
31.7007 	-0.479145
31.7709 	-0.479145
31.841 	-0.479145
31.9111 	-0.479145
31.9813 	-0.479145
32.0514 	-0.479145
32.1216 	-0.479145
32.1917 	-0.479145
32.2618 	-0.479145
32.332 	-0.46642
32.4021 	-0.46642
32.4722 	-0.46642
32.5424 	-0.46642
32.6125 	-0.46642
32.6826 	-0.46642
32.7528 	-0.46642
32.8229 	-0.46642
32.893 	-0.46642
32.9632 	-0.459326
33.0333 	-0.459326
33.1034 	-0.459326
33.1736 	-0.459326
33.2437 	-0.459326
33.3138 	-0.459326
33.384 	-0.459326
33.4541 	-0.459326
33.5242 	-0.459326
33.5944 	-0.457275
33.6645 	-0.457275
33.7346 	-0.457275
33.8048 	-0.457275
33.8749 	-0.457275
33.945 	-0.457275
34.0152 	-0.457275
34.0853 	-0.457275
34.1554 	-0.457275
34.2256 	-0.464872
34.2957 	-0.464872
34.3659 	-0.464872
34.436 	-0.464872
34.5061 	-0.464872
34.5763 	-0.464872
34.6464 	-0.464872
34.7165 	-0.464872
34.7867 	-0.464872
34.8568 	-0.464872
34.9269 	-0.489436
34.9971 	-0.489436
35.0672 	-0.489436
35.1373 	-0.489436
35.2075 	-0.489436
35.2776 	-0.489436
35.3477 	-0.489436
35.4179 	-0.489436
35.488 	-0.489436
35.5581 	-0.489436
35.6283 	-0.533245
35.6984 	-0.533245
35.7685 	-0.533245
35.8387 	-0.533245
35.9088 	-0.533245
35.9789 	-0.533245
36.0491 	-0.533245
36.1192 	-0.533245
36.1893 	-0.533245
36.2595 	-0.533245
36.3296 	-0.61015
36.3997 	-0.61015
36.4699 	-0.61015
36.54 	-0.61015
36.6102 	-0.61015
36.6803 	-0.61015
36.7504 	-0.61015
36.8206 	-0.61015
36.8907 	-0.61015
36.9608 	-0.61015
37.031 	-0.61015
37.1011 	-0.72015
37.1712 	-0.72015
37.2414 	-0.72015
37.3115 	-0.72015
37.3816 	-0.72015
37.4518 	-0.72015
37.5219 	-0.72015
37.592 	-0.72015
37.6622 	-0.854905
37.7323 	-0.854905
37.8024 	-0.854905
37.8726 	-0.854905
37.9427 	-0.854905
38.0128 	-0.854905
38.083 	-0.854905
38.1531 	-0.854905
38.2232 	-0.854905
38.2934 	-1.02068
38.3635 	-1.02068
38.4336 	-1.02068
38.5038 	-1.02068
38.5739 	-1.02068
38.644 	-1.02068
38.7142 	-1.02068
38.7843 	-1.02068
38.8545 	-1.02068
38.9246 	-1.21558
38.9947 	-1.21558
39.0649 	-1.21558
39.135 	-1.21558
39.2051 	-1.21558
39.2753 	-1.21558
39.3454 	-1.21558
39.4155 	-1.21558
39.4857 	-1.21558
39.5558 	-1.40062
39.6259 	-1.40062
39.6961 	-1.40062
39.7662 	-1.40062
39.8363 	-1.40062
39.9065 	-1.40062
39.9766 	-1.40062
40.0467 	-1.40062
40.1169 	-1.54743
40.187 	-1.54743
40.2571 	-1.54743
40.3273 	-1.54743
40.3974 	-1.54743
40.4675 	-1.54743
40.5377 	-1.54743
40.6078 	-1.54743
40.6779 	-1.54743
40.7481 	-1.62336
40.8182 	-1.62336
40.8883 	-1.62336
40.9585 	-1.62336
41.0286 	-1.62336
41.0988 	-1.62336
41.1689 	-1.62336
41.239 	-1.62336
41.3092 	-1.62336
41.3793 	-1.61063
41.4494 	-1.61063
41.5196 	-1.61063
41.5897 	-1.61063
41.6598 	-1.61063
41.73 	-1.61063
41.8001 	-1.61063
41.8702 	-1.61063
41.9404 	-1.61063
42.0105 	-1.52324
42.0806 	-1.52324
42.1508 	-1.52324
42.2209 	-1.52324
42.291 	-1.52324
42.3612 	-1.52324
42.4313 	-1.52324
42.5014 	-1.52324
42.5716 	-1.52324
42.6417 	-1.37021
42.7118 	-1.37021
42.782 	-1.37021
42.8521 	-1.37021
42.9222 	-1.37021
42.9924 	-1.37021
43.0625 	-1.37021
43.1327 	-1.37021
43.2028 	-1.1716
43.2729 	-1.1716
43.3431 	-1.1716
43.4132 	-1.1716
43.4833 	-1.1716
43.5535 	-1.1716
43.6236 	-1.1716
43.6937 	-1.1716
43.7639 	-1.1716
43.834 	-0.952193
43.9041 	-0.952193
43.9743 	-0.952193
44.0444 	-0.952193
44.1145 	-0.952193
44.1847 	-0.952193
44.2548 	-0.952193
44.3249 	-0.952193
44.3951 	-0.952193
44.4652 	-0.73501
44.5353 	-0.73501
44.6055 	-0.73501
44.6756 	-0.73501
44.7457 	-0.73501
44.8159 	-0.73501
44.886 	-0.73501
44.9561 	-0.73501
45.0263 	-0.73501
45.0964 	-0.536511
45.1665 	-0.536511
45.2367 	-0.536511
45.3068 	-0.536511
45.377 	-0.536511
45.4471 	-0.536511
45.5172 	-0.536511
45.5874 	-0.536511
45.6575 	-0.367218
45.7276 	-0.367218
45.7978 	-0.367218
45.8679 	-0.367218
45.938 	-0.367218
46.0082 	-0.367218
46.0783 	-0.367218
46.1484 	-0.367218
46.2186 	-0.367218
46.2887 	-0.236599
46.3588 	-0.236599
46.429 	-0.236599
46.4991 	-0.236599
46.5692 	-0.236599
46.6394 	-0.236599
46.7095 	-0.236599
46.7796 	-0.229397
46.8498 	-0.229397
46.9199 	-0.128833
46.99 	-0.128833
47.0602 	-0.128833
47.1303 	-0.128833
47.2004 	-0.128833
47.2706 	-0.128833
47.3407 	-0.128833
47.4108 	-0.128833
47.481 	-0.128833
47.5511 	-0.0613088
47.6213 	-0.0613088
47.6914 	-0.0613088
47.7615 	-0.0613088
47.8317 	-0.0613088
47.9018 	-0.0613088
47.9719 	-0.0613088
48.0421 	-0.0613088
48.1122 	-0.0613088
48.1823 	-0.0172653
48.2525 	-0.0172653
48.3226 	-0.0172653
48.3927 	-0.0172653
48.4629 	-0.0172653
48.533 	-0.0172653
48.6031 	-0.0172653
48.6733 	-0.0172653
48.7434 	0.0106502
48.8135 	0.0106502
48.8837 	0.0106502
48.9538 	0.0106502
49.0239 	0.0106502
49.0941 	0.0106502
49.1642 	0.0106502
49.2343 	0.0106502
49.3045 	0.0106502
49.3746 	0.0279467
49.4447 	0.0279467
49.5149 	0.0279467
49.585 	0.0279467
49.6551 	0.0279467
49.7253 	0.0279467
49.7954 	0.0279467
49.8656 	0.0279467
49.9357 	0.0279467
50.0058 	0.0383569
50.076 	0.0383569
50.1461 	0.0383569
50.2162 	0.0383569
50.2864 	0.0383569
50.3565 	0.0383569
50.4266 	0.0383569
50.4968 	0.0383569
50.5669 	0.0383569
50.637 	0.0443454
50.7072 	0.0443454
50.7773 	0.0443454
50.8474 	0.0443454
50.9176 	0.0443454
50.9877 	0.0443454
51.0578 	0.0443454
51.128 	0.0443454
51.1981 	0.0443454
51.2682 	0.0475241
51.3384 	0.0475241
51.4085 	0.0475241
51.4786 	0.0475241
51.5488 	0.0475241
51.6189 	0.0475241
51.689 	0.0475241
51.7592 	0.0475241
51.8293 	0.0489292
51.8994 	0.0489292
51.9696 	0.0489292
52.0397 	0.0489292
52.1099 	0.0489292
52.18 	0.0489292
52.2501 	0.0489292
52.3203 	0.0489292
52.3904 	0.0489292
52.4605 	0.0491904
52.5307 	0.0491904
52.6008 	0.0491904
52.6709 	0.0491904
52.7411 	0.0491904
52.8112 	0.0491904
52.8813 	0.0491904
52.9515 	0.0491904
53.0216 	0.0491904
53.0917 	0.0486642
53.1619 	0.0486642
53.232 	0.0486642
53.3021 	0.0486642
53.3723 	0.0486642
53.4424 	0.0486642
53.5125 	0.0486642
53.5827 	0.0486642
53.6528 	0.0486642
53.7229 	0.0475842
53.7931 	0.0475842
53.8632 	0.0475842
53.9333 	0.0475842
54.0035 	0.0475842
54.0736 	0.0475842
54.1437 	0.0475842
54.2139 	0.0475842
54.284 	0.0461549
54.3542 	0.0461549
54.4243 	0.0461549
54.4944 	0.0461549
54.5646 	0.0461549
54.6347 	0.0461549
54.7048 	0.0461549
54.775 	0.0461549
54.8451 	0.0461549
54.9152 	0.0445366
54.9854 	0.0445366
55.0555 	0.0445366
55.1256 	0.0445366
55.1958 	0.0445366
55.2659 	0.0445366
55.336 	0.0445366
55.4062 	0.0445366
55.4763 	0.0445366
55.5464 	0.0428057
55.6166 	0.0428057
55.6867 	0.0428057
55.7568 	0.0428057
55.827 	0.0428057
55.8971 	0.0428057
55.9672 	0.0428057
56.0374 	0.0428057
56.1075 	0.0428057
56.1776 	0.0409771
56.2478 	0.0409771
56.3179 	0.0409771
56.3881 	0.0409771
56.4582 	0.0409771
56.5283 	0.0409771
56.5985 	0.0409771
56.6686 	0.0409771
56.7387 	0.0409771
56.8089 	0.0390656
56.879 	0.0390656
56.9491 	0.0390656
57.0193 	0.0390656
57.0894 	0.0390656
57.1595 	0.0390656
57.2297 	0.0390656
57.2998 	0.0390656
57.3699 	0.0371071
57.4401 	0.0371071
57.5102 	0.0371071
57.5803 	0.0371071
57.6505 	0.0371071
57.7206 	0.0371071
57.7907 	0.0371071
57.8609 	0.0371071
57.931 	0.0371071
58.0011 	0.0351324
58.0713 	0.0351324
58.1414 	0.0351324
58.2115 	0.0351324
58.2817 	0.0351324
58.3518 	0.0351324
58.4219 	0.0351324
58.4921 	0.0351324
58.5622 	0.0351324
58.6324 	0.03315
58.7025 	0.03315
58.7726 	0.03315
58.8428 	0.03315
58.9129 	0.03315
58.983 	0.03315
59.0532 	0.03315
59.1233 	0.03315
59.1934 	0.03315
59.2636 	0.0311572
59.3337 	0.0311572
59.4038 	0.0311572
59.474 	0.0311572
59.5441 	0.0311572
59.6142 	0.0311572
59.6844 	0.0311572
59.7545 	0.0311572
59.8246 	0.0291544
59.8948 	0.0291544
59.9649 	0.0291544
60.035 	0.0291544
60.1052 	0.0291544
60.1753 	0.0291544
60.2454 	0.0291544
60.3156 	0.0291544
60.3857 	0.0291544
60.4558 	0.0271469
60.526 	0.0271469
60.5961 	0.0271469
60.6662 	0.0271469
60.7364 	0.0271469
60.8065 	0.0271469
60.8767 	0.0271469
60.9468 	0.0271469
61.0169 	0.0271469
61.0871 	0.0251386
61.1572 	0.0251386
61.2273 	0.0251386
61.2975 	0.0251386
61.3676 	0.0251386
61.4377 	0.0251386
61.5079 	0.0251386
61.578 	0.0251386
61.6481 	0.0251386
61.7183 	0.0231304
61.7884 	0.0231304
61.8585 	0.0231304
61.9287 	0.0231304
61.9988 	0.0231304
62.0689 	0.0231304
62.1391 	0.0231304
62.2092 	0.0231304
62.2793 	0.0231304
62.3495 	0.021122
62.4196 	0.021122
62.4897 	0.021122
62.5599 	0.021122
62.63 	0.021122
62.7001 	0.021122
62.7703 	0.021122
62.8404 	0.021122
62.9105 	0.0191134
62.9807 	0.0191134
63.0508 	0.0191134
63.121 	0.0191134
63.1911 	0.0191134
63.2612 	0.0191134
63.3314 	0.0191134
63.4015 	0.0191134
63.4716 	0.0191134
63.5418 	0.0171042
63.6119 	0.0171042
63.682 	0.0171042
63.7522 	0.0171042
63.8223 	0.0171042
63.8924 	0.0171042
63.9626 	0.0171042
64.0327 	0.0171042
64.1028 	0.0171042
64.173 	0.0150945
64.2431 	0.0150945
64.3132 	0.0150945
64.3834 	0.0150945
64.4535 	0.0150945
64.5236 	0.0150945
64.5938 	0.0150945
64.6639 	0.0150945
64.734 	0.0150945
64.8042 	0.0130841
64.8743 	0.0130841
64.9444 	0.0130841
65.0146 	0.0130841
65.0847 	0.0130841
65.1548 	0.0130841
65.225 	0.0130841
65.2951 	0.0128516
65.3653 	0.0128516
65.4354 	0.0108769
65.5055 	0.0108769
65.5757 	0.0108769
65.6458 	0.0108769
65.7159 	0.0108769
65.7861 	0.0108769
65.8562 	0.0108769
65.9263 	0.0108769
65.9965 	0.00890294
66.0666 	0.00890294
66.1367 	0.00890294
66.2069 	0.00890294
66.277 	0.00890294
66.3471 	0.00890294
66.4173 	0.00890294
66.4874 	0.00890294
66.5575 	0.00890294
66.6277 	0.00692895
66.6978 	0.00692895
66.7679 	0.00692895
66.8381 	0.00692895
66.9082 	0.00692895
66.9783 	0.00692895
67.0485 	0.00692895
67.1186 	0.00692895
67.1887 	0.00692895
67.2589 	0.00495261
67.329 	0.00495261
67.3991 	0.00495261
67.4693 	0.00495261
67.5394 	0.00495261
67.6096 	0.00495261
67.6797 	0.00495261
67.7498 	0.00495261
67.82 	0.00495261
67.8901 	0.00297221
67.9602 	0.00297221
68.0304 	0.00297221
68.1005 	0.00297221
68.1706 	0.00297221
68.2408 	0.00297221
68.3109 	0.00297221
68.381 	0.00297221
68.4512 	0.000982504
68.5213 	0.000982504
68.5914 	0.000982504
68.6616 	0.000982504
68.7317 	0.000982504
68.8018 	0.000982504
68.872 	0.000982504
68.9421 	0.000982504
69.0122 	0.000982504
