/*--------------------------------*- C++ -*----------------------------------*\
  =========                 |
  \\      /  F ield         | OpenFOAM: The Open Source CFD Toolbox
   \\    /   O peration     | Website:  https://openfoam.org
    \\  /    A nd           | Version:  6
     \\/     M anipulation  |
\*---------------------------------------------------------------------------*/
FoamFile
{
    version     2.0;
    format      ascii;
    class       surfaceScalarField;
    location    "48";
    object      phi;
}
// * * * * * * * * * * * * * * * * * * * * * * * * * * * * * * * * * * * * * //

dimensions      [0 3 -1 0 0 0 0];

internalField   nonuniform List<scalar> 
17370
(
-0.0900006
0.0898547
0.289157
-0.0714629
0.0537589
0.364479
-0.0381276
0.0277025
0.426593
-0.0196538
0.0146218
0.504284
-0.0107788
0.00828655
0.601894
-0.00628544
0.00490916
0.720434
-0.00374717
0.00290851
0.863745
-0.00216835
0.00160963
1.03601
-0.00109332
0.000681514
1.24291
-0.000274691
-0.000114794
1.49158
0.00049221
-0.00089839
1.4916
0.00129313
-0.0017822
1.24318
0.00231424
-0.00302818
1.03635
0.00384939
-0.00500009
0.864057
0.00637084
-0.0083672
0.721054
0.0108539
-0.0146898
0.60305
0.0197154
-0.0277574
0.507481
0.0381769
-0.0538009
0.431792
0.0714972
-0.0898775
0.365156
0.0900139
0.198997
-0.128129
0.0882073
0.0399221
-0.364588
0.353399
-0.0746947
0.0858841
-0.446476
0.454315
-0.0843929
0.0765535
-0.521185
0.529893
-0.0684653
0.0597579
-0.612783
0.621558
-0.0515726
0.0427971
-0.72689
0.734152
-0.0353411
0.0280789
-0.867473
0.872578
-0.0224867
0.017382
-1.03847
1.04191
-0.0135807
0.0101379
-1.2446
1.24703
-0.00753157
0.00510304
-1.49263
1.4946
-0.00316009
0.0011895
-1.4925
1.49422
0.000493103
-0.00221316
-1.24398
1.24586
0.00411372
-0.00599568
-1.03751
1.04005
0.00835274
-0.0108882
-0.866104
0.869841
0.014253
-0.0179901
-0.724396
0.729944
0.0230361
-0.0285836
-0.608702
0.616118
0.0358023
-0.0432187
-0.5149
0.523047
0.0519509
-0.0600977
-0.439858
0.447914
0.0687649
-0.0768209
-0.375305
0.376746
0.0846248
-0.0860658
-0.257334
0.222486
0.0748187
-0.0399706
-0.0685023
0.0586746
0.00982773
-0.0518473
0.0584414
-0.374115
0.367521
-0.0575342
0.0537874
-0.453588
0.457335
-0.0487018
0.0447523
-0.527936
0.531886
-0.0409156
0.037281
-0.621549
0.625184
-0.0331858
0.0291189
-0.735332
0.739399
-0.0245596
0.02041
-0.874321
0.878471
-0.0160738
0.0123875
-1.04347
1.04716
-0.00865887
0.00549314
-1.24855
1.25171
-0.00217181
-0.00089793
-1.49665
1.49972
0.00394323
-0.00720356
-1.49721
1.50047
0.0102812
-0.0138902
-1.25008
1.25369
0.0174583
-0.0216633
-1.04594
1.05014
0.0257011
-0.0301519
-0.877776
0.882227
0.0341325
-0.0381423
-0.739915
0.743924
0.0417024
-0.0454602
-0.62679
0.630547
0.0493419
-0.054363
-0.534825
0.539846
0.0580414
-0.0588618
-0.457492
0.458312
0.052167
-0.0319694
-0.335783
0.315585
0.00987986
-0.0683588
0.0584789
-0.0529196
0.0489182
0.00400135
-0.0331984
0.0437597
-0.358074
0.347513
-0.0474726
0.0468558
-0.459265
0.459881
-0.0438104
0.0404669
-0.535781
0.539125
-0.0367051
0.0334109
-0.628502
0.631796
-0.029984
0.0269627
-0.742615
0.745637
-0.0237155
0.020619
-0.881979
0.885076
-0.0171001
0.0137316
-1.05073
1.0541
-0.00995085
0.00642228
-1.25514
1.25867
-0.00246326
-0.00132669
-1.50323
1.50702
0.00508663
-0.0089556
-1.50414
1.50801
0.012363
-0.0159813
-1.25744
1.26106
0.0191866
-0.0225208
-1.05395
1.05728
0.0254553
-0.0285408
-0.885728
0.888813
0.0314319
-0.0347314
-0.747196
0.750495
0.0379176
-0.0415677
-0.634344
0.637994
0.0448148
-0.0477509
-0.544167
0.547103
0.0482536
-0.0443802
-0.456609
0.452735
0.0336276
-0.0162003
-0.29624
0.278813
0.00406583
-0.0526657
0.0485999
-0.0458351
0.0433331
0.00250202
-0.022852
0.0332538
-0.336806
0.326404
-0.0390973
0.0401297
-0.459556
0.458523
-0.0389546
0.0366794
-0.541836
0.544111
-0.0340257
0.031443
-0.634835
0.637418
-0.0283962
0.0255128
-0.748668
0.751552
-0.0222662
0.0192877
-0.888013
0.890991
-0.0159984
0.0129128
-1.05722
1.0603
-0.009402
0.00600691
-1.26211
1.26551
-0.00205786
-0.00181544
-1.51089
1.51476
0.00564965
-0.0094818
-1.51191
1.51574
0.0127193
-0.0160197
-1.26451
1.26781
0.0188933
-0.0219396
-1.06039
1.06344
0.0247005
-0.0277256
-0.89188
0.894905
0.0304284
-0.0332996
-0.753714
0.756585
0.0357353
-0.0382398
-0.641074
0.643578
0.0403862
-0.0413917
-0.548922
0.549927
0.0401835
-0.0340834
-0.447476
0.441376
0.0234015
-0.0102111
-0.26362
0.25043
0.00258144
-0.0454449
0.0428634
-0.0412518
0.0394775
0.00177434
-0.0167991
0.0260794
-0.316527
0.307247
-0.0327152
0.0348779
-0.456908
0.454745
-0.0344774
0.0328234
-0.546077
0.547731
-0.0306602
0.0285816
-0.639707
0.641785
-0.0261699
0.0237915
-0.754177
0.756555
-0.0209553
0.0181867
-0.893864
0.896633
-0.0149746
0.0119281
-1.06333
1.06637
-0.00846174
0.00515496
-1.26881
1.27211
-0.00133658
-0.00238879
-1.51854
1.52227
0.00606453
-0.00973491
-1.51949
1.52316
0.0128421
-0.0160412
-1.27107
1.27427
0.0188177
-0.02172
-1.06647
1.06937
0.024209
-0.0267574
-0.89774
0.900288
0.0288995
-0.0310819
-0.759051
0.761234
0.0329716
-0.0349429
-0.645748
0.647719
0.0364102
-0.0365815
-0.550464
0.550635
0.0341494
-0.0271393
-0.434742
0.427732
0.0174832
-0.00737505
-0.238932
0.228824
0.00187123
-0.0406944
0.0388231
-0.037948
0.0366106
0.00133739
-0.0128457
0.0208256
-0.298624
0.290644
-0.0276136
0.0305655
-0.452164
0.449212
-0.0307954
0.0296965
-0.549146
0.550245
-0.0277219
0.0258242
-0.643802
0.6457
-0.0236474
0.0215333
-0.75877
0.760884
-0.0190459
0.016589
-0.899177
0.901634
-0.0136769
0.0108254
-1.06928
1.07213
-0.00749221
0.00427519
-1.27535
1.27856
-0.000548412
-0.00306664
-1.52591
1.52952
0.00662045
-0.0101626
-1.52676
1.53031
0.0131318
-0.016134
-1.27741
1.28041
0.0186512
-0.0211782
-1.07211
1.07464
0.0232852
-0.0254089
-0.902602
0.904725
0.0272216
-0.0291048
-0.763241
0.765124
0.0307644
-0.0325088
-0.649556
0.651301
0.0333357
-0.032784
-0.550454
0.549902
0.0294468
-0.0221473
-0.420523
0.413224
0.0136861
-0.00570262
-0.219881
0.211898
0.00145522
-0.0371871
0.0357318
-0.0354413
0.034408
0.00103334
-0.0100557
0.0168092
-0.283306
0.276552
-0.023337
0.0267473
-0.446016
0.442605
-0.0275629
0.0268894
-0.551126
0.5518
-0.0251572
0.0233976
-0.647571
0.649331
-0.0213568
0.0193683
-0.762926
0.764915
-0.0170282
0.0147303
-0.903938
0.906236
-0.0120251
0.00937234
-1.07481
1.07747
-0.00624966
0.00319455
-1.28166
1.28472
0.000389642
-0.0038857
-1.53306
1.53655
0.00730659
-0.0106637
-1.53376
1.53712
0.0134136
-0.0161283
-1.28329
1.286
0.0183694
-0.0206
-1.07702
1.07925
0.0224646
-0.0243518
-0.906737
0.908624
0.0259637
-0.0276372
-0.7669
0.768574
0.0291
-0.030512
-0.652898
0.65431
0.0308446
-0.0295788
-0.549005
0.547739
0.0256386
-0.0184398
-0.405952
0.398753
0.0110836
-0.00458886
-0.20473
0.198235
0.00117653
-0.0344332
0.0332567
-0.0334996
0.0326919
0.000807709
-0.0079892
0.0136746
-0.270365
0.26468
-0.0197236
0.0233373
-0.439089
0.435475
-0.0246362
0.0242146
-0.552386
0.552807
-0.0227528
0.0211056
-0.651083
0.652731
-0.019163
0.017265
-0.766847
0.768745
-0.0150256
0.0128259
-0.908412
0.910612
-0.0102372
0.00770574
-1.07998
1.08251
-0.00473556
0.00183308
-1.28764
1.29054
0.00156765
-0.00487931
-1.53994
1.54325
0.00809774
-0.0112194
-1.54035
1.54348
0.0137473
-0.0162165
-1.28861
1.29108
0.0182418
-0.0202472
-1.08139
1.08339
0.0219143
-0.0235959
-0.910428
0.91211
0.0250289
-0.0265164
-0.770155
0.771643
0.0277935
-0.0288444
-0.655517
0.656568
0.0288166
-0.0268998
-0.546151
0.544234
0.0225831
-0.015677
-0.391697
0.384791
0.0092448
-0.00381302
-0.192323
0.186891
0.000981855
-0.032191
0.0312092
-0.0319813
0.0313486
0.000632702
-0.00639476
0.0111683
-0.259481
0.254708
-0.0166334
0.0202552
-0.431863
0.428241
-0.0218875
0.0217017
-0.553155
0.553341
-0.0204843
0.0189036
-0.654394
0.655975
-0.0170276
0.0151885
-0.7706
0.77244
-0.0130165
0.010881
-0.912697
0.914832
-0.00836644
0.0059121
-1.08492
1.08738
-0.00304501
0.000262612
-1.29333
1.29611
0.00296862
-0.00608643
-1.54642
1.54954
0.00909145
-0.0119842
-1.54647
1.54936
0.0143129
-0.0165728
-1.29347
1.29573
0.0184122
-0.0202168
-1.08532
1.08713
0.0217014
-0.023189
-0.913717
0.915205
0.0244544
-0.0257647
-0.773055
0.774365
0.0268966
-0.0275444
-0.657399
0.658047
0.0271584
-0.0247028
-0.542063
0.539607
0.0201659
-0.013621
-0.378077
0.371532
0.00792697
-0.00326404
-0.181884
0.177221
0.000844696
-0.0303079
0.0294633
-0.0307946
0.0303035
0.000491076
-0.00511114
0.00909773
-0.250356
0.246369
-0.0139326
0.0174118
-0.424702
0.421223
-0.0192365
0.0192523
-0.553476
0.55346
-0.0182409
0.0167074
-0.657603
0.659136
-0.0148655
0.0130519
-0.774249
0.776063
-0.010912
0.00881513
-0.916855
0.918952
-0.00635615
0.00396485
-1.08971
1.0921
-0.00118099
-0.00150669
-1.29878
1.30147
0.00460482
-0.00756376
-1.55254
1.5555
0.0103862
-0.0130721
-1.55214
1.55483
0.0152062
-0.017247
-1.2979
1.29994
0.0188844
-0.0204722
-1.08886
1.09045
0.0217714
-0.0230782
-0.91663
0.917937
0.0241984
-0.0253548
-0.775613
0.77677
0.0262983
-0.0265966
-0.658491
0.658789
0.025833
-0.0229347
-0.536942
0.534044
0.0182857
-0.0121028
-0.365189
0.359006
0.00698342
-0.00287751
-0.172871
0.168765
0.000749524
-0.028678
0.0279284
-0.0298792
0.0295071
0.000372142
-0.00403818
0.00733407
-0.242753
0.239457
-0.0115289
0.0147588
-0.417887
0.414657
-0.0166536
0.0168365
-0.553424
0.553241
-0.0159137
0.0144619
-0.660712
0.662163
-0.0126242
0.010805
-0.777859
0.779678
-0.00866197
0.00657142
-0.920937
0.923027
-0.00413217
0.00177401
-1.09437
1.09673
0.000953387
-0.00356526
-1.30405
1.30666
0.00654833
-0.00936288
-1.55834
1.56115
0.0120118
-0.0144968
-1.5574
1.55988
0.0164411
-0.0182738
-1.3019
1.30373
0.0197246
-0.021112
-1.09198
1.09337
0.0222335
-0.0233589
-0.919189
0.920314
0.0243279
-0.0253163
-0.77787
0.778858
0.026014
-0.0260212
-0.658944
0.658952
0.0248679
-0.0215879
-0.530964
0.527684
0.0168788
-0.0110114
-0.35301
0.347143
0.00632439
-0.00261426
-0.16489
0.16118
0.000686797
-0.0272227
0.0265359
-0.0291952
0.0289291
0.000266074
-0.00309709
0.00576907
-0.236494
0.233822
-0.00932394
0.0122226
-0.411616
0.408717
-0.0140781
0.014362
-0.553081
0.552797
-0.0135054
0.0121154
-0.663676
0.665066
-0.010269
0.00841833
-0.781484
0.783334
-0.00623444
0.00411147
-0.925013
0.927136
-0.00164955
-0.000710559
-1.09897
1.10133
0.00341523
-0.00597928
-1.30916
1.31173
0.00887513
-0.0115692
-1.56385
1.56655
0.0140605
-0.0163498
-1.56224
1.56453
0.0181014
-0.0197166
-1.30548
1.3071
0.0209721
-0.0221544
-1.09471
1.09589
0.0230975
-0.0240454
-0.9214
0.922348
0.0248674
-0.025687
-0.779775
0.780595
0.0261209
-0.025869
-0.658818
0.658566
0.0242917
-0.0206492
-0.524244
0.520602
0.0158907
-0.0102679
-0.341438
0.335815
0.00588937
-0.00244748
-0.157638
0.154197
0.000649588
-0.0258817
0.0252321
-0.0287204
0.0285554
0.000164984
-0.00222404
0.00431009
-0.231463
0.229377
-0.00722031
0.00971696
-0.406052
0.403555
-0.0114213
0.0117201
-0.552597
0.552298
-0.0108852
0.00951104
-0.666553
0.667927
-0.00762306
0.0057155
-0.78517
0.787077
-0.00346939
0.00129806
-0.929143
0.931314
0.0012049
-0.00358943
-1.10358
1.10596
0.00630079
-0.00884561
-1.31419
1.31673
0.0116789
-0.0142672
-1.56913
1.57172
0.0166095
-0.018708
-1.5667
1.5688
0.0202708
-0.0216683
-1.30863
1.31003
0.0227177
-0.0236672
-1.09703
1.09798
0.0243997
-0.0251361
-0.923247
0.923984
0.0257915
-0.0264617
-0.781326
0.781996
0.0266062
-0.02602
-0.65809
0.657504
0.0240437
-0.0200722
-0.516842
0.512871
0.0152588
-0.00980434
-0.330329
0.324874
0.0056301
-0.00235573
-0.150876
0.147602
0.000632074
-0.024607
0.023975
-0.0284473
0.0283847
6.25506e-05
-0.00137168
0.00288515
-0.227597
0.226084
-0.00513427
0.00716478
-0.401329
0.399299
-0.00861853
0.00885728
-0.552139
0.5519
-0.00800551
0.0066155
-0.669431
0.670821
-0.00465164
0.00265506
-0.788971
0.790967
-0.000303137
-0.00196034
-0.93337
0.935634
0.00455223
-0.00700026
-1.10824
1.11069
0.00975237
-0.0122976
-1.31918
1.32172
0.015078
-0.0175572
-1.57418
1.57666
0.0197386
-0.0216276
-1.57076
1.57265
0.0229838
-0.0241474
-1.31133
1.31249
0.0249839
-0.0256988
-1.0989
1.09962
0.0262154
-0.0267339
-0.924695
0.925214
0.0272185
-0.0276897
-0.782517
0.782988
0.0275557
-0.0265834
-0.656655
0.655683
0.0241868
-0.0198669
-0.508799
0.504479
0.0149598
-0.00958625
-0.319526
0.314152
0.00552161
-0.00232861
-0.14441
0.141217
0.000631956
-0.0233608
0.0227289
-0.0283791
0.0284255
-4.63661e-05
-0.000488993
0.00142001
-0.224881
0.22395
-0.00297527
0.00447067
-0.397575
0.39608
-0.00557017
0.00566708
-0.551866
0.551769
-0.00475085
0.0033003
-0.672378
0.673829
-0.001241
-0.000874265
-0.792948
0.795063
0.00336971
-0.00576247
-0.937783
0.940176
0.00848376
-0.0110288
-1.11303
1.11557
0.013855
-0.0164298
-1.32417
1.32674
0.019189
-0.0215851
-1.57903
1.58142
0.0236195
-0.0252993
-1.57439
1.57607
0.0264367
-0.0273449
-1.31355
1.31446
0.0279406
-0.0283879
-1.10031
1.10076
0.0286629
-0.0289366
-0.92571
0.925983
0.0292233
-0.0294192
-0.783189
0.783385
0.029019
-0.0275717
-0.654421
0.652974
0.0247204
-0.0200291
-0.500084
0.495393
0.0149798
-0.00959609
-0.308854
0.303471
0.00555141
-0.00236071
-0.138074
0.134883
0.000647752
-0.0221089
0.0214612
-0.028529
0.0286924
-0.000163402
0.000442479
-0.000131528
-0.223342
0.223031
-0.000681742
0.00156535
-0.394927
0.394044
-0.00219938
0.00205524
-0.551958
0.552102
-0.000994387
-0.000586525
-0.675503
0.677084
0.00279169
-0.00506708
-0.79716
0.799435
0.00774449
-0.0102962
-0.942443
0.944995
0.0131785
-0.0158526
-1.11801
1.12069
0.0187909
-0.0214239
-1.32922
1.33186
0.0241805
-0.0264917
-1.58369
1.58601
0.0283673
-0.0298169
-1.57759
1.57904
0.0307172
-0.0313382
-1.31524
1.31586
0.0316652
-0.0318218
-1.10117
1.10133
0.031832
-0.0318339
-0.926223
0.926225
0.0319007
-0.031772
-0.783225
0.783096
0.0310446
-0.0290493
-0.65127
0.649275
0.0257044
-0.0205896
-0.49064
0.485525
0.0153242
-0.00982803
-0.298125
0.292629
0.00571368
-0.00244939
-0.13171
0.128445
0.000678841
-0.0208201
0.0201413
-0.028935
0.0292409
-0.000305881
0.00145959
-0.00180083
-0.223079
0.22342
0.00183648
-0.00166843
-0.393526
0.393358
0.00162246
-0.00210462
-0.552627
0.553109
0.00336739
-0.00512531
-0.678937
0.680695
0.00754473
-0.010035
-0.801689
0.80418
0.0129557
-0.0157246
-0.947421
0.95019
0.0188315
-0.0216863
-1.12326
1.12612
0.0247801
-0.0274985
-1.33439
1.33711
0.0302625
-0.0324857
-1.58819
1.59041
0.0341779
-0.0353546
-1.58031
1.58149
0.0359866
-0.0362781
-1.31632
1.31661
0.0363035
-0.0361413
-1.10141
1.10124
0.0358638
-0.0355656
-0.926161
0.925863
0.0353978
-0.0348409
-0.782519
0.781962
0.0337015
-0.0310807
-0.647087
0.644466
0.0271742
-0.0215602
-0.480352
0.474738
0.0159927
-0.0102766
-0.287135
0.281419
0.00600309
-0.00259144
-0.125169
0.121757
0.000724067
-0.0194647
0.0187407
-0.0296182
0.0300959
-0.00047762
0.00272781
-0.00381668
-0.224147
0.225236
0.00474611
-0.00539079
-0.393573
0.394218
0.00606108
-0.00697885
-0.554112
0.55503
0.00852561
-0.010523
-0.682784
0.684781
0.0132282
-0.0160001
-0.806646
0.809418
0.019239
-0.0222904
-0.952845
0.955897
0.0256835
-0.0287637
-1.12888
1.13196
0.0320485
-0.0348764
-1.33973
1.34256
0.0376672
-0.0397988
-1.59249
1.59462
0.0412834
-0.0421412
-1.58245
1.58331
0.0424351
-0.0423512
-1.31671
1.31663
0.0420311
-0.0415078
-1.10093
1.10041
0.0409074
-0.0402655
-0.925437
0.924795
0.0397715
-0.0387412
-0.780903
0.779873
0.0370711
-0.0337393
-0.641713
0.638381
0.0291879
-0.0229765
-0.469069
0.462857
0.0170014
-0.0109458
-0.275667
0.269612
0.00641934
-0.00278576
-0.118305
0.114672
0.000782736
-0.0180152
0.0172325
-0.0306533
0.0313464
-0.000693108
0.00420959
-0.00618882
-0.226768
0.228748
0.0081704
-0.00970908
-0.395289
0.396828
0.0112246
-0.0127333
-0.55665
0.558159
0.0147339
-0.0170838
-0.68718
0.68953
0.0201785
-0.0233079
-0.81216
0.81529
0.0269328
-0.0303215
-0.958836
0.962225
0.034059
-0.0374158
-1.13495
1.13831
0.0409393
-0.0438953
-1.34528
1.34823
0.0466982
-0.0486955
-1.59657
1.59857
0.0499165
-0.050409
-1.58392
1.58441
0.0502962
-0.0497855
-1.3163
1.31579
0.0490587
-0.0481069
-1.09965
1.0987
0.0471291
-0.0460893
-0.923952
0.922912
0.0451516
-0.0436122
-0.778312
0.776772
0.0412938
-0.0371417
-0.634956
0.630804
0.0318319
-0.0248877
-0.45658
0.449636
0.0183759
-0.0118461
-0.263477
0.256947
0.00696543
-0.00303183
-0.110968
0.107034
0.00085416
-0.0164447
0.0155906
-0.0321192
0.0330982
-0.000979056
0.00609253
-0.00914794
-0.231188
0.234244
0.0123661
-0.0149573
-0.398956
0.401547
0.0174429
-0.0196555
-0.56054
0.562753
0.0222437
-0.0250599
-0.692363
0.695179
0.0286638
-0.0322517
-0.818393
0.82198
0.0363662
-0.0401784
-0.965511
0.969323
0.0443406
-0.0480246
-1.14158
1.14526
0.0518126
-0.0548965
-1.35106
1.35415
0.0576819
-0.0594937
-1.60035
1.60216
0.0603823
-0.0604153
-1.58461
1.58464
0.05984
-0.0587951
-1.31495
1.3139
0.0575928
-0.056137
-1.09741
1.09595
0.0547182
-0.0532204
-0.921575
0.920077
0.0517574
-0.0496097
-0.774675
0.772528
0.0465217
-0.0413928
-0.626573
0.621444
0.0351742
-0.0273309
-0.442613
0.43477
0.0201314
-0.0129763
-0.250294
0.243139
0.00763403
-0.00332313
-0.103003
0.0986925
0.000935517
-0.0147295
0.013794
-0.0341499
0.0355247
-0.00137485
0.00857538
-0.0129579
-0.237756
0.242139
0.0176556
-0.0214721
-0.404917
0.408734
0.0250824
-0.0281395
-0.566079
0.569137
0.0314797
-0.0349094
-0.698567
0.701996
0.0391752
-0.0433525
-0.825547
0.829724
0.0480917
-0.0524339
-0.973059
0.977401
0.0571044
-0.0611542
-1.14886
1.15291
0.0652012
-0.0683655
-1.35707
1.36023
0.0710386
-0.0725414
-1.60368
1.60518
0.0729562
-0.0723832
-1.58428
1.58371
0.0712416
-0.0695575
-1.31241
1.31073
0.0678177
-0.0657966
-1.09405
1.09203
0.0638832
-0.0618761
-0.918182
0.916175
0.0597769
-0.0569128
-0.769775
0.766911
0.0528964
-0.0465962
-0.616249
0.609949
0.0392836
-0.0303341
-0.426838
0.417888
0.0222655
-0.014317
-0.235819
0.22787
0.00840329
-0.00364508
-0.0942626
0.0895043
0.00102122
-0.0128526
0.0118313
-0.0369443
0.0388884
-0.0019441
0.0119812
-0.0180634
-0.246947
0.253029
0.0245432
-0.0297873
-0.41366
0.418904
0.0347227
-0.0388251
-0.573653
0.577755
0.0431552
-0.0474217
-0.706116
0.710382
0.0525676
-0.0574824
-0.833886
0.838801
0.0629542
-0.0678765
-0.98167
0.986592
0.0730617
-0.0774402
-1.15684
1.16122
0.0816636
-0.0847945
-1.36316
1.36629
0.0871978
-0.088222
-1.6063
1.60732
0.0879964
-0.0866502
-1.58267
1.58132
0.0847863
-0.0823455
-1.30851
1.30607
0.0799698
-0.0773286
-1.08941
1.08677
0.0748971
-0.0722742
-0.913628
0.911006
0.0695049
-0.0657177
-0.763336
0.759549
0.0605849
-0.0528734
-0.603581
0.59587
0.0442284
-0.0339129
-0.408842
0.398526
0.02476
-0.0158306
-0.219723
0.210794
0.00923517
-0.00397301
-0.0846168
0.0793547
0.00110182
-0.0108099
0.00970813
-0.0408191
0.0436407
-0.00282163
0.0169286
-0.0252421
-0.259479
0.267792
0.0339057
-0.0408505
-0.42584
0.432785
0.047376
-0.0527652
-0.583758
0.589148
0.0583564
-0.06373
-0.715471
0.720844
0.0700035
-0.0757914
-0.843687
0.849474
0.0820588
-0.0875494
-0.991419
0.99691
0.0931666
-0.0977404
-1.16539
1.16996
0.101936
-0.104806
-1.36906
1.37193
0.106655
-0.106932
-1.60782
1.6081
0.105821
-0.103494
-1.57939
1.57707
0.100757
-0.0974034
-1.30299
1.29963
0.0942689
-0.0909023
-1.08334
1.07998
0.0878831
-0.0845424
-0.907621
0.90428
0.0810785
-0.0761898
-0.754935
0.750047
0.0697092
-0.0602909
-0.588059
0.57864
0.0500296
-0.038044
-0.388119
0.376134
0.0275586
-0.0174458
-0.201658
0.191545
0.0100673
-0.00427075
-0.073974
0.0681775
0.00116425
-0.00861788
0.00745363
-0.0463358
0.0506356
-0.00429981
0.0245916
-0.0359258
-0.276495
0.28783
0.0474027
-0.0566203
-0.442457
0.451675
0.065129
-0.0720344
-0.596989
0.603894
0.0791661
-0.0859851
-0.727078
0.733897
0.0934314
-0.100032
-0.855162
0.861762
0.106946
-0.112795
-1.00221
1.00806
0.118533
-0.122964
-1.17416
1.17859
0.126723
-0.128952
-1.37422
1.37645
0.129834
-0.129005
-1.60763
1.6068
0.126697
-0.123118
-1.574
1.57042
0.11932
-0.114906
-1.29556
1.29114
0.110908
-0.106729
-1.07567
1.07149
0.103063
-0.0989227
-0.899953
0.895814
0.0946383
-0.0883761
-0.744148
0.737886
0.0802652
-0.0688004
-0.569035
0.55757
0.0566098
-0.0426201
-0.36408
0.350091
0.030534
-0.0190402
-0.181277
0.169783
0.010806
-0.00449012
-0.0623168
0.0560009
0.00119234
-0.00631845
0.00512612
-0.0545537
0.0618966
-0.00734292
0.0379457
-0.0537224
-0.300106
0.315883
0.0691726
-0.081515
-0.465137
0.477479
0.0921174
-0.100382
-0.613773
0.622037
0.109048
-0.117145
-0.741251
0.749348
0.125522
-0.132515
-0.868058
0.875052
0.13949
-0.145103
-1.01345
1.01907
0.150314
-0.154002
-1.18234
1.18603
0.156707
-0.157726
-1.3778
1.37882
0.157087
-0.154669
-1.60496
1.60254
0.150762
-0.145619
-1.56593
1.56078
0.140532
-0.134885
-1.28591
1.28027
0.129907
-0.124837
-1.06622
1.06115
0.120493
-0.115584
-0.890403
0.885494
0.110214
-0.102256
-0.730398
0.72244
0.0921189
-0.0781247
-0.545689
0.531695
0.0636126
-0.0473418
-0.336048
0.319777
0.0334538
-0.0204741
-0.158333
0.145353
0.0113675
-0.00459317
-0.0497782
0.0430039
0.00116538
-0.0039834
0.00281801
-0.0687465
0.0728348
-0.00408832
0.0288815
-0.0426484
-0.33423
0.347997
0.0564288
-0.0677694
-0.49525
0.506591
0.0778471
-0.0872387
-0.633787
0.643178
0.0977075
-0.1073
-0.756835
0.766427
0.117876
-0.127159
-0.88105
0.890334
0.136927
-0.145484
-1.02375
1.03231
0.154258
-0.161562
-1.18861
1.19591
0.1685
-0.173599
-1.37861
1.3837
0.177446
-0.178951
-1.59883
1.60033
0.178064
-0.175323
-1.55451
1.55177
0.171596
-0.166719
-1.2737
1.26882
0.162191
-0.156892
-1.05479
1.04949
0.152351
-0.14692
-0.878668
0.873237
0.14021
-0.129041
-0.712799
0.70163
0.114387
-0.0948396
-0.517062
0.497514
0.0753053
-0.05398
-0.303281
0.281956
0.0366785
-0.0214245
-0.132861
0.117607
0.011309
-0.00430161
-0.0367671
0.0297597
0.00097891
-0.00169545
0.000716543
-0.080151
0.0782264
0.00192461
0.00755322
-0.0163938
-0.364491
0.373331
0.0268198
-0.0349875
-0.522517
0.530685
0.0431188
-0.05093
-0.655137
0.662948
0.0604954
-0.0693933
-0.775504
0.784402
0.0788407
-0.0873742
-0.89902
0.907554
0.0963249
-0.103816
-1.04056
1.04805
0.111658
-0.11779
-1.20297
1.2091
0.123511
-0.127354
-1.38838
1.39222
0.12958
-0.12965
-1.60085
1.60093
0.12738
-0.12324
-1.54813
1.54399
0.118071
-0.111691
-1.2633
1.25692
0.105701
-0.0990212
-1.0429
1.03622
0.0928173
-0.0857708
-0.863767
0.856721
0.0786056
-0.0689587
-0.686564
0.676917
0.058042
-0.0449271
-0.476404
0.463289
0.0330711
-0.0217922
-0.26064
0.249361
0.0136918
-0.00742489
-0.103
0.0967329
0.00366351
-0.00129221
-0.0229879
0.0206166
0.000243886
0.000537173
-0.000781059
-0.0815489
0.0787112
0.00283764
-0.00120114
-0.0038205
-0.384974
0.389996
0.010691
-0.0166753
-0.542684
0.548669
0.0227373
-0.0294657
-0.673196
0.679925
0.0377705
-0.0454895
-0.792363
0.800082
0.0538888
-0.0613147
-0.915288
0.922714
0.0688561
-0.07553
-1.05536
1.06204
0.0823027
-0.0876699
-1.21478
1.22014
0.0922101
-0.0949926
-1.39537
1.39815
0.0963727
-0.0954679
-1.60023
1.59933
0.0922237
-0.0871011
-1.53911
1.53398
0.0811529
-0.0741295
-1.25017
1.24315
0.0671643
-0.0596571
-1.0284
1.02089
0.0527156
-0.045027
-0.84712
0.839431
0.0380452
-0.0297748
-0.663654
0.655384
0.0216961
-0.0133168
-0.44836
0.439981
0.00739718
-0.00322357
-0.237305
0.233131
0.00107639
-4.58219e-05
-0.0900541
0.0890236
-0.000249538
0.000202017
-0.0178286
0.0178762
-0.000109111
0.00137552
-0.00126641
-0.0803714
0.0776432
0.00272819
-0.00484705
0.0023409
-0.398569
0.401076
0.00209046
-0.00659683
-0.55774
0.562246
0.0117199
-0.0173707
-0.68806
0.693711
0.0245244
-0.0311662
-0.807125
0.813767
0.038351
-0.0447281
-0.929592
0.93597
0.0515882
-0.0572562
-1.06827
1.07394
0.0631787
-0.067417
-1.2251
1.22934
0.071249
-0.0734383
-1.40069
1.40288
0.0740272
-0.0722461
-1.59791
1.59613
0.0685813
-0.0631165
-1.52819
1.52272
0.0569156
-0.0493259
-1.23576
1.22817
0.0422144
-0.0344983
-1.01261
1.00489
0.0271685
-0.0194532
-0.829826
0.822111
0.0124253
-0.00549559
-0.643929
0.637
-0.000339997
0.00481731
-0.430037
0.42556
-0.00668512
0.00673863
-0.226671
0.226617
-0.00583302
0.00412077
-0.0870063
0.0887185
-0.00265083
0.00122214
-0.0173303
0.018759
-0.000379472
0.00155094
-0.00117147
-0.0789608
0.0765756
0.00238516
-0.0059572
0.00498165
-0.407737
0.408713
-0.00164402
-0.00172607
-0.569827
0.573198
0.00585081
-0.0109907
-0.700562
0.705702
0.0170269
-0.0228915
-0.819681
0.825545
0.0291524
-0.0347395
-0.941908
0.947495
0.0406808
-0.04578
-1.07949
1.08459
0.0508381
-0.0547687
-1.23344
1.23738
0.0580328
-0.0597765
-1.40469
1.40644
0.0599629
-0.0579418
-1.59416
1.59214
0.0541899
-0.0485885
-1.51662
1.51102
0.0425306
-0.0352525
-1.22057
1.21329
0.0282322
-0.020301
-0.996538
0.988606
0.0129447
-0.00508331
-0.812653
0.804792
-0.00150064
0.0073687
-0.627208
0.62134
-0.0114774
0.0138155
-0.418409
0.416071
-0.013839
0.0119486
-0.223674
0.225564
-0.00956071
0.00664611
-0.0894133
0.0923279
-0.00413603
0.00185088
-0.0197246
0.0220098
-0.000544879
0.00107302
-0.000528145
-0.0776954
0.0756775
0.00201782
-0.00581438
0.00528638
-0.414129
0.414657
-0.00326349
0.000486924
-0.579221
0.581998
0.00358215
-0.0080156
-0.7112
0.715633
0.0132397
-0.018363
-0.830604
0.835727
0.0239743
-0.0290277
-0.952753
0.957806
0.0345423
-0.0390822
-1.08944
1.09398
0.0437063
-0.0473004
-1.24104
1.24464
0.0502115
-0.0517113
-1.40793
1.40943
0.0517262
-0.050083
-1.59009
1.58844
0.0464444
-0.0412193
-1.50508
1.49986
0.0353793
-0.0283196
-1.20589
1.19883
0.0217047
-0.0138678
-0.980347
0.97251
0.00676331
0.000505083
-0.795985
0.788717
-0.00653562
0.0117158
-0.612729
0.607549
-0.0150399
0.0167961
-0.410683
0.408927
-0.016065
0.0135042
-0.2244
0.226961
-0.0107577
0.0074359
-0.0942508
0.0975726
-0.00459363
0.00207225
-0.0237243
0.0262456
-0.000609663
0.000182999
0.000426664
-0.0767912
0.0752404
0.00155089
-0.00490032
0.00466491
-0.419002
0.419237
-0.00294757
0.000817704
-0.587509
0.589639
0.00302155
-0.0070883
-0.720484
0.724551
0.0120872
-0.0165409
-0.840458
0.844912
0.0215216
-0.02606
-0.962846
0.967384
0.0313615
-0.0355488
-1.09857
1.10276
0.0397324
-0.0432041
-1.24807
1.25155
0.0463523
-0.0478025
-1.41097
1.41242
0.0480201
-0.0464513
-1.58647
1.58491
0.043316
-0.0380976
-1.49446
1.48924
0.0326553
-0.0260506
-1.19162
1.18502
0.0196904
-0.0126318
-0.964692
0.957633
0.00614215
0.000609081
-0.780699
0.773948
-0.00588915
0.0108178
-0.599851
0.594922
-0.0138781
0.0154075
-0.404384
0.402854
-0.0150371
0.0129585
-0.226398
0.228476
-0.0103744
0.00718757
-0.0997324
0.102919
-0.00447115
0.00205013
-0.0280468
0.0304679
-0.000617965
-0.000811253
0.00142922
-0.0764066
0.075213
0.0011936
-0.00378839
0.00365117
-0.422986
0.423123
-0.00200862
-2.83051e-05
-0.594797
0.596834
0.00368296
-0.00738181
-0.728895
0.732594
0.0117121
-0.0160373
-0.849327
0.853652
0.0206872
-0.0254099
-0.971743
0.976466
0.0300311
-0.0340781
-1.10706
1.11111
0.0384439
-0.0417465
-1.25492
1.25822
0.0445108
-0.0464648
-1.41382
1.41577
0.0469746
-0.0457753
-1.58343
1.58223
0.0428429
-0.0382305
-1.48422
1.4796
0.0331943
-0.0271115
-1.17817
1.17209
0.0214411
-0.0151518
-0.95057
0.94428
0.00940212
-0.00341595
-0.766912
0.760925
-0.00192178
0.00681253
-0.587935
0.583044
-0.00985777
0.0115883
-0.398653
0.396922
-0.0116792
0.010164
-0.22793
0.229446
-0.00823917
0.00576785
-0.104499
0.10697
-0.00364043
0.0017037
-0.0319606
0.0338974
-0.000534657
-0.00177195
0.00230661
-0.0765715
0.0755771
0.000994458
-0.00249207
0.00209293
-0.426639
0.427038
-0.000610643
-0.00147884
-0.601561
0.603651
0.00485105
-0.00845807
-0.736786
0.740393
0.0126467
-0.0166022
-0.857792
0.861748
0.0214033
-0.0253649
-0.98062
0.984582
0.0299899
-0.0339021
-1.11533
1.11924
0.0382013
-0.041748
-1.26152
1.26506
0.0448832
-0.0467156
-1.41753
1.41936
0.0476582
-0.0469232
-1.58098
1.58024
0.0447164
-0.0405766
-1.47494
1.4708
0.0362226
-0.0309256
-1.1663
1.161
0.0260349
-0.0204465
-0.937956
0.932367
0.0153291
-0.00952555
-0.754362
0.748558
0.00425633
0.000853419
-0.576421
0.571311
-0.00429815
0.00614191
-0.392649
0.390806
-0.00674266
0.00610341
-0.228413
0.229052
-0.00508012
0.00360499
-0.107769
0.109244
-0.00231855
0.0011355
-0.0347883
0.0359713
-0.000373912
-0.00253258
0.00290649
-0.0770322
0.0763434
0.000688784
-0.00135074
0.000482814
-0.430412
0.43128
0.000814012
-0.00305853
-0.607617
0.609861
0.00615734
-0.00967155
-0.744202
0.747717
0.0137095
-0.0178135
-0.865585
0.869689
0.0220243
-0.0261715
-0.988762
0.992909
0.0307863
-0.0345217
-1.12358
1.12732
0.0389644
-0.0425296
-1.26844
1.272
0.0457978
-0.0482373
-1.42163
1.42407
0.0497563
-0.0494244
-1.57959
1.57926
0.0476387
-0.044509
-1.46697
1.46384
0.041043
-0.0365077
-1.15583
1.15129
0.0321499
-0.0272295
-0.926791
0.921871
0.0219631
-0.0163215
-0.742113
0.736472
0.0109884
-0.0056356
-0.565021
0.559668
0.00202429
0.000427731
-0.386129
0.383677
-0.00154524
0.00190463
-0.227451
0.227091
-0.00175713
0.00133048
-0.109094
0.109521
-0.000933622
0.000506469
-0.0361683
0.0365954
-0.00019028
-0.00297689
0.00316717
-0.0778937
0.0773667
0.000527038
-0.000393516
-0.000413651
-0.43444
0.435247
0.0022775
-0.0043873
-0.613787
0.615897
0.00769665
-0.0111087
-0.751166
0.754578
0.0150071
-0.0187298
-0.873483
0.877206
0.0230871
-0.0269429
-0.997064
1.00092
0.0315322
-0.0357368
-1.13152
1.13572
0.0398725
-0.0438198
-1.27564
1.27958
0.0475832
-0.0501898
-1.42644
1.42904
0.0521797
-0.0527681
-1.57921
1.5798
0.0516709
-0.0494789
-1.46076
1.45857
0.0465135
-0.0426622
-1.14697
1.14312
0.0387699
-0.0338742
-0.916484
0.911588
0.0287199
-0.0228742
-0.729905
0.72406
0.0174514
-0.0119225
-0.55325
0.547721
0.00795649
-0.00501733
-0.378984
0.376045
0.00311165
-0.001881
-0.224707
0.223476
0.00109371
-0.000507902
-0.108404
0.107818
0.000122368
8.98649e-05
-0.0361574
0.0359452
-9.38304e-05
-0.00307274
0.00316657
-0.07903
0.0786788
0.000351123
0.000648926
-0.00164597
-0.43861
0.439607
0.00338507
-0.00580182
-0.619589
0.622005
0.00907264
-0.0123458
-0.757923
0.761197
0.0163345
-0.0199238
-0.880922
0.884511
0.0241422
-0.0281364
-1.00526
1.00925
0.0326607
-0.0368626
-1.13979
1.144
0.0412641
-0.0452911
-1.28347
1.2875
0.0493
-0.0527136
-1.43196
1.43538
0.0552437
-0.0562854
-1.58041
1.58145
0.0560791
-0.0544374
-1.45642
1.45478
0.0521559
-0.0488418
-1.13928
1.13596
0.0448805
-0.039953
-0.906266
0.901338
0.0347408
-0.0287037
-0.717495
0.711458
0.0233837
-0.0178197
-0.541603
0.536039
0.0137152
-0.0101395
-0.371162
0.367586
0.00761145
-0.00544279
-0.220268
0.218099
0.00364944
-0.0020945
-0.105833
0.104278
0.00102118
-0.000285079
-0.0348841
0.034148
-4.44776e-06
-0.002904
0.00290844
-0.0803877