/*--------------------------------*- C++ -*----------------------------------*\
  =========                 |
  \\      /  F ield         | OpenFOAM: The Open Source CFD Toolbox
   \\    /   O peration     | Website:  https://openfoam.org
    \\  /    A nd           | Version:  6
     \\/     M anipulation  |
\*---------------------------------------------------------------------------*/
FoamFile
{
    version     2.0;
    format      ascii;
    class       volScalarField;
    location    "27.9";
    object      p;
}
// * * * * * * * * * * * * * * * * * * * * * * * * * * * * * * * * * * * * * //

dimensions      [0 2 -2 0 0 0 0];

internalField   nonuniform List<scalar> 
8800
(
1.06633
1.01701
0.979036
0.950953
0.930768
0.916141
0.905487
0.897873
0.892891
0.890683
0.891862
0.896035
0.902696
0.91202
0.924688
0.941961
0.965806
0.998881
1.0418
1.09431
0.900839
0.907181
0.916322
0.91986
0.917236
0.911122
0.904143
0.89784
0.89295
0.889957
0.889549
0.891984
0.896464
0.902473
0.909484
0.916453
0.921285
0.921127
0.91443
0.905519
0.874396
0.880628
0.88512
0.888977
0.891906
0.892827
0.891692
0.889494
0.887386
0.88637
0.8872
0.889482
0.892219
0.894367
0.894795
0.892935
0.889519
0.885467
0.880663
0.876941
0.870159
0.872922
0.875521
0.877664
0.879379
0.880914
0.881969
0.88223
0.881972
0.881875
0.882457
0.883403
0.883986
0.883692
0.882603
0.881165
0.879431
0.87708
0.87464
0.873071
0.865189
0.866612
0.868449
0.870522
0.872216
0.873473
0.874509
0.875394
0.876044
0.876547
0.877007
0.877245
0.877066
0.876537
0.875737
0.874513
0.872767
0.870803
0.869415
0.868613
0.86032
0.861223
0.862468
0.864088
0.865763
0.867252
0.868457
0.869458
0.870346
0.871107
0.871593
0.871698
0.871474
0.870918
0.869958
0.868632
0.867157
0.865805
0.864944
0.864424
0.855567
0.856219
0.857188
0.858514
0.859953
0.861441
0.86286
0.864113
0.865214
0.866145
0.866724
0.866843
0.866539
0.865846
0.864845
0.863716
0.862568
0.861547
0.860922
0.860546
0.850964
0.851465
0.852269
0.853437
0.854757
0.856172
0.857653
0.859098
0.860395
0.861514
0.862234
0.862418
0.862103
0.861413
0.860541
0.859592
0.858637
0.857821
0.85734
0.857052
0.846455
0.846849
0.847536
0.848602
0.849862
0.851232
0.852704
0.854247
0.855764
0.857127
0.858024
0.858281
0.858046
0.85751
0.856805
0.856008
0.8552
0.854537
0.854161
0.853937
0.842
0.84231
0.842915
0.843925
0.845157
0.846497
0.847951
0.849521
0.851168
0.852741
0.853886
0.854379
0.854382
0.854077
0.853567
0.852926
0.85223
0.851691
0.851399
0.851223
0.837562
0.837807
0.838348
0.83931
0.840522
0.841893
0.843416
0.845078
0.846871
0.848721
0.850164
0.850963
0.851243
0.851142
0.850791
0.850299
0.849746
0.849315
0.849093
0.848954
0.833112
0.833304
0.833811
0.834789
0.836062
0.837532
0.839213
0.841106
0.843153
0.8453
0.847161
0.848332
0.848848
0.848905
0.84869
0.8483
0.847834
0.847479
0.847311
0.847203
0.828594
0.828733
0.829205
0.830178
0.831473
0.832978
0.834706
0.836744
0.839152
0.841793
0.844098
0.84561
0.846496
0.84693
0.847005
0.846819
0.846493
0.846233
0.846125
0.846046
0.824015
0.824107
0.824548
0.825522
0.826866
0.828475
0.830391
0.832658
0.835314
0.838401
0.84135
0.843539
0.844923
0.845694
0.846023
0.846068
0.845899
0.845756
0.845709
0.845656
0.819382
0.819428
0.819831
0.820778
0.82216
0.823879
0.825994
0.828648
0.831903
0.835726
0.839375
0.842113
0.84396
0.845125
0.845815
0.846147
0.846241
0.846257
0.846265
0.846224
0.814297
0.81435
0.814724
0.815615
0.816993
0.818806
0.821138
0.824119
0.827886
0.832487
0.837107
0.840735
0.843322
0.845108
0.846291
0.847017
0.84743
0.847636
0.847696
0.847655
0.808402
0.808447
0.808823
0.809756
0.811261
0.813316
0.816048
0.819649
0.824266
0.82994
0.835663
0.840215
0.843528
0.845887
0.847571
0.848701
0.849416
0.849785
0.849882
0.849833
0.801352
0.801395
0.801831
0.802855
0.804578
0.806976
0.810214
0.814522
0.820135
0.827126
0.834257
0.840009
0.84427
0.847357
0.849583
0.851138
0.852158
0.852679
0.852811
0.852755
0.792822
0.792874
0.793398
0.794624
0.796688
0.7996
0.803565
0.80889
0.815823
0.824476
0.833318
0.840469
0.845778
0.849666
0.852495
0.854504
0.855826
0.856483
0.856644
0.856577
0.782402
0.782461
0.783118
0.784661
0.787226
0.790852
0.795805
0.802455
0.811107
0.821848
0.832776
0.841585
0.848134
0.852937
0.856457
0.858971
0.860608
0.861391
0.861584
0.861507
0.769577
0.769649
0.77049
0.772463
0.77573
0.780345
0.78665
0.795066
0.805921
0.819263
0.832706
0.843471
0.851448
0.85733
0.861657
0.864753
0.866733
0.867661
0.867893
0.867802
0.753597
0.753678
0.754767
0.757371
0.761664
0.767678
0.77584
0.786602
0.800276
0.816827
0.83327
0.84633
0.855994
0.863106
0.868365
0.872082
0.874434
0.875535
0.875815
0.875709
0.733506
0.733605
0.735053
0.738552
0.744315
0.752329
0.763046
0.776934
0.794191
0.814628
0.834581
0.850285
0.861893
0.870442
0.87675
0.881203
0.883979
0.885295
0.885621
0.88549
0.707654
0.707807
0.709876
0.714782
0.722755
0.733713
0.748034
0.766062
0.787808
0.812868
0.836839
0.855514
0.869303
0.879496
0.886997
0.892286
0.895581
0.897134
0.897495
0.897332
0.673102
0.673423
0.676769
0.684251
0.69587
0.711276
0.730673
0.754123
0.781373
0.811799
0.840248
0.862169
0.878335
0.890324
0.899177
0.905449
0.909361
0.911165
0.911544
0.911337
0.62416
0.625436
0.632151
0.644932
0.662829
0.684974
0.711309
0.74158
0.775311
0.811737
0.845007
0.870352
0.889004
0.902885
0.91322
0.920641
0.925278
0.92734
0.927708
0.927443
0.55217
0.560004
0.575377
0.597822
0.625115
0.65619
0.690944
0.729034
0.769984
0.813029
0.851629
0.880814
0.902316
0.91846
0.930683
0.939629
0.945307
0.9479
0.948425
0.948233
0.475749
0.492407
0.517334
0.550078
0.587113
0.627282
0.670546
0.716711
0.765367
0.815879
0.860949
0.895102
0.920446
0.939654
0.954488
0.965618
0.972791
0.976049
0.976897
0.976882
0.410935
0.431274
0.463994
0.505346
0.551039
0.599739
0.651229
0.705271
0.761438
0.819089
0.870199
0.908841
0.937584
0.959492
0.976408
0.989157
0.997596
1.00154
1.00228
1.00235
0.3584
0.380941
0.41877
0.466249
0.518666
0.574473
0.633208
0.694417
0.757543
0.82187
0.878489
0.92109
0.952631
0.976609
0.99508
1.00904
1.01855
1.02291
1.02382
1.02398
0.314892
0.33867
0.380158
0.432391
0.490189
0.551814
0.61667
0.684162
0.753557
0.823934
0.885514
0.931535
0.965393
0.990968
1.01064
1.02545
1.03556
1.04038
1.0416
1.0418
0.277624
0.302149
0.346338
0.402444
0.46474
0.531317
0.60145
0.674456
0.74945
0.825291
0.891323
0.940325
0.976108
1.00294
1.02342
1.0388
1.04925
1.05446
1.0559
1.05611
0.244633
0.26968
0.31598
0.375286
0.441436
0.512316
0.587111
0.665067
0.745147
0.825996
0.896114
0.947813
0.985244
1.01305
1.03407
1.04977
1.06033
1.06574
1.06729
1.06744
0.214513
0.240005
0.288068
0.350124
0.419586
0.494235
0.573221
0.655687
0.740479
0.826051
0.90007
0.954304
0.993243
1.02187
1.04327
1.05911
1.06973
1.0752
1.07683
1.07697
0.186358
0.21227
0.261865
0.326328
0.398708
0.476699
0.559451
0.646055
0.735268
0.825382
0.90321
0.959986
1.0004
1.02984
1.05163
1.06761
1.07824
1.0837
1.08539
1.08553
0.159462
0.185833
0.236831
0.303464
0.378422
0.459401
0.54557
0.635981
0.729352
0.823864
0.905528
0.964909
1.00693
1.03728
1.05954
1.07571
1.08636
1.09173
1.0934
1.09356
0.133552
0.160378
0.212661
0.28123
0.358498
0.442168
0.531428
0.625341
0.72263
0.82143
0.906996
0.969189
1.01303
1.04445
1.0673
1.08374
1.09445
1.09975
1.10131
1.10141
0.108272
0.135653
0.189112
0.259436
0.338786
0.424874
0.516942
0.614076
0.715045
0.818027
0.907643
0.972904
1.01876
1.05145
1.07504
1.09185
1.10266
1.10788
1.1093
1.10931
0.0835547
0.111492
0.166058
0.237982
0.319196
0.407463
0.502074
0.602163
0.706576
0.813639
0.907395
0.975945
1.02413
1.05832
1.0828
1.10006
1.11098
1.11608
1.11735
1.11727
0.0593307
0.0878329
0.143453
0.216838
0.29972
0.389938
0.486832
0.589603
0.697218
0.808186
0.906105
0.978244
1.0291
1.06506
1.09059
1.10837
1.11934
1.12426
1.12535
1.12518
0.03555
0.0646485
0.121306
0.196
0.280364
0.372325
0.471256
0.576437
0.686966
0.80161
0.903705
0.979682
1.03358
1.07165
1.09842
1.11674
1.12771
1.13233
1.1332
1.13297
0.0122008
0.0419672
0.0996081
0.175492
0.26118
0.354678
0.455408
0.562715
0.675859
0.793916
0.900112
0.980089
1.03743
1.07807
1.10635
1.12519
1.13597
1.14017
1.1408
1.1405
-0.0105412
0.0198417
0.0784127
0.155359
0.242229
0.337079
0.439364
0.548531
0.663981
0.785137
0.895227
0.979304
1.04045
1.08423
1.11449
1.13388
1.14415
1.14764
1.14796
1.14762
-0.0326322
-0.00166593
0.0577707
0.135673
0.22358
0.3196
0.423228
0.53398
0.651425
0.775297
0.889009
0.977162
1.04237
1.08991
1.12296
1.14322
1.1525
1.15469
1.15453
1.15419
-0.0541146
-0.0225117
0.0377198
0.11648
0.205306
0.302333
0.407099
0.519174
0.638291
0.764477
0.881431
0.973531
1.0429
1.09472
1.13166
1.15388
1.16207
1.16183
1.16044
1.1602
-0.0748271
-0.0426605
0.0183201
0.0978534
0.187474
0.285369
0.39108
0.50423
0.624705
0.752801
0.872506
0.968292
1.04175
1.09802
1.13999
1.16623
1.17498
1.17185
1.16685
1.1644
-0.0948528
-0.0621158
-0.000430782
0.0797658
0.170054
0.268662
0.375114
0.489083
0.610596
0.740201
0.862088
0.961193
1.0386
1.09908
1.14661
1.17928
1.19239
1.19005
1.17803
1.17439
-0.114106
-0.0809488
-0.0186687
0.0620248
0.152746
0.251864
0.358774
0.473228
0.595381
0.725987
0.849446
0.951348
1.03276
1.09675
1.14878
1.18856
1.2071
1.20209
1.18695
1.17785
-0.132453
-0.0991211
-0.036225
0.0448423
0.135791
0.235283
0.342284
0.457002
0.579388
0.710462
0.834771
0.938375
1.02378
1.0901
1.14165
1.18129
1.20337
1.18606
1.12533
1.09696
-0.149787
-0.11736
-0.052684
0.0287387
0.119831
0.219394
0.325904
0.440672
0.5629
0.69382
0.818189
0.921933
1.01102
1.07913
1.12204
1.15214
1.15741
1.11357
1.04984
1.01025
-0.193602
-0.134712
-0.0680049
0.0130656
0.10412
0.203314
0.309759
0.424129
0.545733
0.675765
0.799378
0.901781
0.991361
1.06475
1.08631
1.09046
1.0613
1.00529
0.937109
0.899405
-0.16809
-0.149905
-0.0908524
-0.0103788
0.080468
0.179285
0.284878
0.398255
0.518398
0.646133
0.766948
0.865831
0.946568
1.02118
1.0192
0.924169
0.839268
0.78099
0.718282
0.751882
-0.19948
-0.167866
-0.108081
-0.0279099
0.0627479
0.161133
0.266721
0.379245
0.498055
0.623528
0.74109
0.835979
0.907492
0.947237
0.905226
0.774276
0.668966
0.59826
0.516192
0.569517
-0.223783
-0.18972
-0.128114
-0.0477295
0.0428216
0.141066
0.246412
0.357949
0.475121
0.597799
0.711161
0.800451
0.860241
0.865501
0.76511
0.609698
0.48084
0.389752
0.291774
0.331402
-0.247355
-0.212194
-0.1492
-0.068174
0.0224948
0.120586
0.225344
0.335746
0.451078
0.57062
0.678948
0.761747
0.805122
0.776505
0.620052
0.438305
0.273972
0.13532
0.00693861
0.031966
-0.270552
-0.235001
-0.171126
-0.0895286
0.00133154
0.0992113
0.203255
0.312397
0.425636
0.541708
0.644318
0.719552
0.743035
0.674439
0.47728
0.270801
0.0731609
-0.0905783
-0.310092
-0.392166
-0.294038
-0.258578
-0.194194
-0.112164
-0.021098
0.0766183
0.18002
0.287887
0.398938
0.51136
0.607915
0.674066
0.676303
0.552241
0.346668
0.124216
-0.0833475
-0.258277
-0.394223
-0.536812
-0.318812
-0.283363
-0.218724
-0.136445
-0.045296
0.0521678
0.154837
0.26126
0.369796
0.478075
0.568056
0.623213
0.597939
0.432617
0.224305
0.00497681
-0.184151
-0.291784
-0.321338
-0.336342
-0.345024
-0.309606
-0.244815
-0.16244
-0.0713774
0.0256772
0.127386
0.232065
0.337638
0.4411
0.524135
0.564598
0.514181
0.317128
0.111728
-0.0886049
-0.234649
-0.277468
-0.288401
-0.288854
-0.372938
-0.337407
-0.272475
-0.190099
-0.0992528
-0.00281749
0.0976924
0.200309
0.302439
0.400405
0.475877
0.498305
0.422008
0.208438
0.0110528
-0.164607
-0.252137
-0.269274
-0.269682
-0.269383
-0.402499
-0.36677
-0.301681
-0.21937
-0.128882
-0.0332494
0.0658066
0.166053
0.264261
0.356124
0.422909
0.429758
0.310942
0.107342
-0.0804642
-0.219886
-0.257031
-0.258097
-0.259613
-0.259283
-0.43343
-0.397489
-0.332276
-0.250117
-0.160111
-0.0654865
0.0318286
0.129415
0.223247
0.308415
0.365784
0.351671
0.200907
0.0100953
-0.157216
-0.238656
-0.253346
-0.25442
-0.25486
-0.254726
-0.465116
-0.429169
-0.363953
-0.282056
-0.192678
-0.0992639
-0.0039937
0.0906092
0.179828
0.257473
0.305809
0.269756
0.092981
-0.0845059
-0.214047
-0.258022
-0.260252
-0.255156
-0.252459
-0.251972
-0.497085
-0.461239
-0.396207
-0.314711
-0.226158
-0.134129
-0.0412214
0.0499737
0.134661
0.204
0.242268
0.18734
-0.0154344
-0.192313
-0.268562
-0.26661
-0.26733
-0.261557
-0.254815
-0.252337
-0.528206
-0.492819
-0.428271
-0.347394
-0.259928
-0.169478
-0.0791303
0.00807404
0.0883818
0.149581
0.175186
0.110473
-0.116478
-0.325767
-0.373021
-0.345112
-0.322328
-0.30853
-0.29666
-0.290103
-0.557393
-0.522763
-0.459142
-0.379188
-0.293118
-0.204535
-0.116703
-0.0340163
0.0413456
0.0965837
0.108941
0.0350933
-0.18925
-0.454607
-0.562751
-0.50792
-0.401868
-0.357892
-0.349335
-0.346638
-0.583045
-0.54969
-0.487526
-0.408914
-0.324558
-0.238293
-0.152838
-0.0744635
-0.00593887
0.0467162
0.0476613
-0.0397341
-0.205321
-0.472473
-0.569859
-0.541759
-0.544404
-0.524841
-0.503174
-0.491157
-0.603124
-0.571751
-0.511862
-0.435138
-0.352851
-0.269312
-0.186567
-0.111053
-0.0509572
-0.000772768
-0.00259665
-0.111605
-0.166587
-0.221083
-0.376712
-0.51917
-0.683737
-0.682429
-0.656439
-0.648473
-0.615988
-0.587234
-0.530372
-0.456307
-0.376516
-0.29571
-0.216617
-0.142541
-0.0878199
-0.0495488
-0.0382557
-0.174135
-0.201356
0.0772568
0.0928803
-0.335294
-0.600732
-0.632328
-0.639439
-0.642592
-0.619261
-0.59416
-0.541398
-0.47076
-0.394006
-0.315852
-0.240372
-0.168809
-0.112767
-0.0922286
-0.0715601
-0.263224
-0.500385
-0.47211
-0.678194
-0.94491
-0.920359
-0.763435
-0.708887
-0.724249
-0.61194
-0.59093
-0.543323
-0.477031
-0.403835
-0.328647
-0.255169
-0.187308
-0.129638
-0.104355
-0.124149
-0.406872
-1.05541
-1.72813
-2.11034
-2.22705
-2.04031
-1.68727
-1.38986
-1.31337
-0.591473
-0.575239
-0.534772
-0.474264
-0.405079
-0.332876
-0.260681
-0.192969
-0.136299
-0.100896
-0.126178
-0.450078
-1.15846
-2.11604
-2.46576
-2.52138
-2.38405
-2.17732
-1.94672
-1.79565
-0.560291
-0.548993
-0.516342
-0.462724
-0.397879
-0.327851
-0.25651
-0.186498
-0.120806
-0.0848678
-0.0633697
-0.228956
-0.64918
-1.17913
-1.57226
-1.57729
-1.39926
-1.14552
-0.95266
-0.825099
-0.522229
-0.515412
-0.491289
-0.444735
-0.383507
-0.315784
-0.241283
-0.168792
-0.0920595
-0.0140227
0.038459
0.114439
0.137285
0.303012
0.540342
0.875872
1.22574
1.45394
1.57252
1.62222
-0.482938
-0.479202
-0.463559
-0.424066
-0.365977
-0.297107
-0.22277
-0.136697
-0.0542489
0.0573232
0.168715
0.326683
0.669149
1.21351
1.87543
2.47349
2.89865
3.13969
3.23721
3.26066
-0.447479
-0.445467
-0.43646
-0.40447
-0.349186
-0.279056
-0.198685
-0.111566
-0.00810507
0.101914
0.237749
0.359831
0.661922
1.21629
1.7912
2.32264
2.70831
2.94066
3.04667
3.07508
-0.413023
-0.412058
-0.408814
-0.386918
-0.33571
-0.262903
-0.179837
-0.0885268
0.0109597
0.124476
0.243375
0.355569
0.489485
0.892747
1.37701
1.77811
2.06581
2.24111
2.32501
2.35287
-0.389987
-0.389328
-0.388904
-0.372361
-0.321488
-0.246107
-0.161929
-0.0723394
0.022859
0.128529
0.231465
0.330677
0.406648
0.618146
0.969092
1.27448
1.4975
1.62938
1.68817
1.70445
-0.37015
-0.372493
-0.374455
-0.356975
-0.300668
-0.22143
-0.138672
-0.0553425
0.0321973
0.127301
0.216067
0.297397
0.364757
0.498047
0.723127
0.930118
1.07692
1.16394
1.20362
1.21178
-0.312374
-0.317008
-0.319745
-0.301842
-0.248457
-0.177509
-0.104789
-0.0316709
0.0424928
0.1237
0.200031
0.266201
0.327908
0.411003
0.559058
0.691182
0.78019
0.8322
0.853779
0.857999
-0.194159
-0.197832
-0.199792
-0.187958
-0.15331
-0.107082
-0.0559163
-0.00192889
0.0572241
0.121156
0.181009
0.229669
0.276375
0.32109
0.414461
0.500809
0.561718
0.598207
0.614599
0.616136
-0.0603979
-0.0616182
-0.062793
-0.0598521
-0.0486723
-0.0299794
-0.00309203
0.030542
0.0732824
0.120865
0.162398
0.190751
0.222665
0.241723
0.309113
0.3708
0.413629
0.438078
0.446547
0.446405
0.0352426
0.0350369
0.033674
0.0302475
0.0277611
0.0305651
0.0411338
0.0599792
0.0877436
0.121558
0.145248
0.15424
0.169374
0.179301
0.227185
0.274257
0.307588
0.326862
0.334142
0.333454
0.0843796
0.0841304
0.0824
0.0781246
0.0726943
0.069781
0.0725428
0.0825497
0.100949
0.125094
0.134753
0.13477
0.129101
0.137262
0.184746
0.220326
0.243221
0.254591
0.258292
0.257804
0.103774
0.1034
0.101847
0.0983038
0.093906
0.0908243
0.091252
0.097925
0.111797
0.132373
0.138622
0.13584
0.126157
0.134377
0.174218
0.201636
0.219593
0.227771
0.230533
0.229578
0.107926
0.107676
0.106688
0.10428
0.101469
0.0998033
0.100952
0.107301
0.12068
0.141171
0.153094
0.155042
0.156293
0.174835
0.199129
0.213453
0.221946
0.226904
0.228611
0.228064
0.102233
0.102306
0.102102
0.100981
0.099671
0.0996221
0.102373
0.110404
0.126431
0.149132
0.170189
0.18481
0.200324
0.223024
0.236834
0.243211
0.247154
0.249409
0.251363
0.250622
0.086456
0.0868619
0.0873746
0.0875116
0.0878977
0.0899212
0.0952604
0.106579
0.127846
0.156725
0.183763
0.20919
0.234866
0.254969
0.262268
0.26985
0.280169
0.289634
0.292945
0.290503
0.059073
0.0598562
0.060967
0.062194
0.0643247
0.0687794
0.0773513
0.0928823
0.121519
0.160139
0.191151
0.221214
0.251327
0.269288
0.275265
0.284348
0.290997
0.296985
0.299807
0.299108
0.0191651
0.0200952
0.0216609
0.0238223
0.0274056
0.0338795
0.0451925
0.0648748
0.10061
0.151039
0.187119
0.224391
0.260812
0.270202
0.278627
0.29358
0.310215
0.316391
0.318125
0.31578
-0.0349887
-0.0337828
-0.0319157
-0.0292346
-0.0249884
-0.0179455
-0.00619177
0.0145852
0.0544298
0.114216
0.158133
0.204906
0.228096
0.23389
0.25738
0.288858
0.307264
0.321711
0.321824
0.321378
-0.104561
-0.103262
-0.101482
-0.0990662
-0.0957067
-0.0909684
-0.0836343
-0.0690339
-0.0348745
0.020851
0.078701
0.157472
0.193933
0.203611
0.245633
0.301029
0.335664
0.347652
0.347441
0.347174
-0.188535
-0.187514
-0.186547
-0.185741
-0.185853
-0.188097
-0.193401
-0.198999
-0.192398
-0.165905
-0.0756782
0.0566255
0.124054
0.156059
0.233373
0.309267
0.367665
0.388217
0.383991
0.384998
-0.28086
-0.280649
-0.281446
-0.284059
-0.291075
-0.306479
-0.335907
-0.384242
-0.442009
-0.48213
-0.342929
-0.119763
0.0239614
0.0914394
0.215954
0.331862
0.407294
0.4275
0.422048
0.418405
-0.368553
-0.369649
-0.373034
-0.380702
-0.397665
-0.431815
-0.496725
-0.613413
-0.783554
-0.90639
-0.72697
-0.370828
-0.153404
-0.01763
0.147643
0.286855
0.361919
0.36322
0.358517
0.354684
-0.43275
-0.435319
-0.441402
-0.454434
-0.481854
-0.535708
-0.639111
-0.832029
-1.1242
-1.32481
-1.08357
-0.632525
-0.355538
-0.155588
0.043081
0.153807
0.196592
0.206494
0.208824
0.207758
-0.454226
-0.457822
-0.465735
-0.482376
-0.516596
-0.583416
-0.712619
-0.956833
-1.32509
-1.56686
-1.28762
-0.830713
-0.530999
-0.279893
-0.0353699
0.0523019
0.0548832
0.0543471
0.0535226
0.0516842
-0.422675
-0.426351
-0.434066
-0.450523
-0.485167
-0.552543
-0.683674
-0.932847
-1.29509
-1.54148
-1.28567
-0.905562
-0.680641
-0.446647
-0.167311
-0.105299
-0.104116
-0.112609
-0.120787
-0.126611
-0.342535
-0.345395
-0.3514
-0.364506
-0.392529
-0.447712
-0.555333
-0.761311
-1.04835
-1.2167
-1.0536
-0.830625
-0.785225
-0.762323
-0.55475
-0.444007
-0.407035
-0.395817
-0.39354
-0.397043
-0.232811
-0.234357
-0.237647
-0.245573
-0.263423
-0.299369
-0.370578
-0.509557
-0.709221
-0.791652
-0.688181
-0.654609
-0.816183
-1.37755
-1.37338
-1.02681
-0.816688
-0.718506
-0.673944
-0.659574
-0.118498
-0.118855
-0.119915
-0.122871
-0.130783
-0.147701
-0.182108
-0.253199
-0.370486
-0.417347
-0.372155
-0.356558
-0.580307
-0.996498
-1.2205
-0.964208
-0.755692
-0.651239
-0.601404
-0.583051
-0.0192014
-0.0189551
-0.0175336
-0.0161218
-0.0159495
-0.0171449
-0.0202113
-0.0268845
-0.0440744
-0.0773593
-0.0807987
-0.0927393
-0.0996592
-0.161051
-0.25002
-0.226697
-0.17265
-0.141324
-0.130891
-0.125357
0.175326
0.378948
0.56841
0.72834
0.858994
0.96487
1.05458
1.12741
1.14735
1.14336
0.493555
0.625935
0.750058
0.858596
0.950994
1.02823
1.08952
1.1312
1.15349
1.16968
0.710765
0.79847
0.885216
0.962077
1.02815
1.08319
1.12657
1.15936
1.18345
1.20259
0.868442
0.929887
0.992351
1.04882
1.09774
1.13924
1.17382
1.20241
1.22389
1.24284
0.990836
1.03748
1.08456
1.12788
1.16632
1.20012
1.22948
1.25417
1.27289
1.29102
1.09521
1.13248
1.16944
1.20505
1.2377
1.26711
1.29297
1.31458
1.33086
1.34841
1.18621
1.21959
1.253
1.28523
1.31519
1.34235
1.36611
1.38554
1.39981
1.4169
1.27514
1.30845
1.34164
1.3735
1.40286
1.42917
1.45173
1.46959
1.48224
1.49883
1.37073
1.4075
1.44272
1.47562
1.50519
1.53089
1.55232
1.56884
1.58063
1.59682
1.48442
1.52515
1.56251
1.59581
1.62459
1.64882
1.66865
1.68408
1.69609
1.7122
1.62609
1.66746
1.70292
1.73273
1.75812
1.77988
1.7985
1.81408
1.82727
1.84324
1.79804
1.83076
1.85769
1.88008
1.90026
1.91907
1.93688
1.9537
1.96866
1.9844
1.98466
2.00201
2.01921
2.03594
2.05208
2.06687
2.08081
2.09532
2.11059
2.1279
2.16812
2.17816
2.19141
2.20242
2.21184
2.22152
2.23217
2.24238
2.25169
2.27737
2.38616
2.38047
2.36753
2.35326
2.34698
2.35273
2.37089
2.39942
2.4332
2.46953
2.68894
2.55297
2.47351
2.43107
2.41377
2.41773
2.44518
2.50305
2.61073
2.78913
0.970024
0.963719
0.955983
0.94486
0.931275
0.918606
0.908177
0.900115
0.89433
0.890901
0.890409
0.893088
0.898189
0.905448
0.914927
0.926705
0.94023
0.953134
0.962106
0.969638
0.879115
0.885033
0.893102
0.899225
0.90228
0.901749
0.898634
0.894591
0.890921
0.888528
0.888248
0.890336
0.893962
0.898307
0.902327
0.904513
0.903395
0.898727
0.891647
0.883799
0.872408
0.87478
0.878044
0.880812
0.883254
0.885426
0.88658
0.886385
0.885366
0.884433
0.884484
0.885737
0.887373
0.88848
0.888305
0.886759
0.884541
0.882131
0.879115
0.876083
0.867679
0.868767
0.870682
0.873015
0.874877
0.876259
0.877447
0.878389
0.878885
0.879096
0.879465
0.880037
0.880362
0.880101
0.879352
0.878334
0.876927
0.874899
0.87275
0.871259
0.86274
0.863373
0.864502
0.86626
0.868099
0.869672
0.87088
0.871869
0.872743
0.873491
0.874065
0.874359
0.874294
0.873927
0.873259
0.872173
0.87065
0.86896
0.867568
0.866753
0.857926
0.858363
0.859156
0.86047
0.861996
0.863551
0.864991
0.86621
0.867257
0.868167
0.868869
0.869204
0.86913
0.868685
0.86785
0.866697
0.865411
0.864157
0.863183
0.862637
0.853252
0.853575
0.854195
0.855286
0.856601
0.858008
0.859475
0.860894
0.862173
0.863297
0.864164
0.864554
0.864457
0.863931
0.863082
0.862086
0.861058
0.860055
0.859308
0.858905
0.848701
0.848948
0.849455
0.85041
0.851631
0.852978
0.854415
0.855926
0.857407
0.858746
0.859798
0.860312
0.860249
0.859753
0.859024
0.858184
0.857299
0.85647
0.855877
0.855567
0.844227
0.844416
0.844839
0.845696
0.846857
0.84816
0.849566
0.851071
0.852647
0.854188
0.855465
0.85616
0.856262
0.855976
0.855443
0.854768
0.854028
0.853341
0.85287
0.85263
0.839781
0.839925
0.840284
0.841074
0.842201
0.843484
0.844886
0.846421
0.848102
0.849856
0.851402
0.852354
0.852701
0.852652
0.852333
0.851832
0.851235
0.850663
0.850293
0.850109
0.83534
0.835445
0.835757
0.836513
0.837642
0.838976
0.840492
0.842184
0.844001
0.84593
0.847798
0.849152
0.849855
0.850027
0.849841
0.849455
0.848972
0.848507
0.848219
0.84808
0.830862
0.830935
0.831214
0.83196
0.833125
0.834518
0.836103
0.837949
0.840098
0.842457
0.84476
0.846462
0.847396
0.847804
0.847863
0.84766
0.847296
0.846919
0.846701
0.846601
0.826312
0.826351
0.826592
0.827312
0.828479
0.829905
0.831559
0.833503
0.835789
0.838459
0.841276
0.843563
0.845063
0.845943
0.84633
0.846385
0.846223
0.845984
0.845852
0.845793
0.821717
0.821721
0.821934
0.822636
0.823835
0.825363
0.827199
0.829442
0.832168
0.835377
0.838831
0.841764
0.84373
0.844959
0.845652
0.845971
0.846007
0.845928
0.845889
0.845865
0.816928
0.816932
0.817108
0.817757
0.818917
0.820472
0.822424
0.824905
0.828033
0.831893
0.836172
0.83988
0.842557
0.844363
0.845492
0.846221
0.846637
0.846819
0.846896
0.84689
0.811478
0.811465
0.811654
0.812285
0.813459
0.815111
0.817302
0.820186
0.82389
0.828524
0.833796
0.838528
0.842002
0.844469
0.846196
0.847346
0.848103
0.84853
0.848708
0.848711
0.805046
0.805025
0.805236
0.80591
0.807203
0.80908
0.811636
0.815064
0.819559
0.825269
0.831807
0.837697
0.8421
0.845292
0.847584
0.849217
0.850323
0.850985
0.851251
0.851259
0.7973
0.797272
0.79752
0.798314
0.799802
0.802006
0.805069
0.80921
0.814697
0.821691
0.829788
0.837159
0.842711
0.846791
0.84975
0.851888
0.853373
0.854266
0.85461
0.854623
0.787873
0.787836
0.788156
0.789144
0.790954
0.793671
0.797461
0.802613
0.809432
0.818138
0.828161
0.837261
0.844124
0.849182
0.852869
0.855564
0.857445
0.858548
0.858961
0.85898
0.776303
0.776254
0.77667
0.777927
0.78021
0.783624
0.788403
0.79489
0.803439
0.814285
0.826692
0.837894
0.846319
0.852505
0.85706
0.8604
0.862731
0.864061
0.864549
0.864575
0.761974
0.761911
0.762467
0.764104
0.767054
0.771461
0.77761
0.785897
0.796728
0.810288
0.825599
0.839281
0.849507
0.857045
0.862589
0.866676
0.869471
0.871038
0.871622
0.871656
0.744014
0.743934
0.744692
0.746865
0.750786
0.756627
0.764701
0.775429
0.789214
0.806152
0.824942
0.841522
0.853865
0.862957
0.869663
0.874543
0.877894
0.879753
0.880453
0.880491
0.721195
0.721119
0.722225
0.725198
0.730512
0.738442
0.749239
0.763302
0.78091
0.802011
0.8249
0.844806
0.85955
0.870427
0.878453
0.884283
0.888235
0.890446
0.891268
0.891302
0.691302
0.691286
0.693038
0.697382
0.704933
0.716068
0.730823
0.749437
0.771956
0.79808
0.825683
0.849299
0.8667
0.87956
0.889064
0.895974
0.900662
0.903278
0.904219
0.904237
0.650284
0.650489
0.653666
0.660873
0.672522
0.688818
0.709367
0.734075
0.762687
0.794681
0.827543
0.855181
0.875426
0.890407
0.901526
0.909664
0.915223
0.918283
0.919314
0.919301
0.590516
0.591943
0.599616
0.613253
0.632473
0.656879
0.685463
0.717861
0.753652
0.792213
0.830716
0.862546
0.885709
0.902862
0.915672
0.92515
0.931696
0.935205
0.936284
0.936232
0.518444
0.521368
0.536214
0.559856
0.589475
0.623358
0.660701
0.701304
0.744865
0.790799
0.836035
0.873274
0.900484
0.920807
0.936186
0.947681
0.955708
0.96013
0.961454
0.961522
0.444975
0.452433
0.474651
0.508014
0.547481
0.590611
0.636689
0.685556
0.736942
0.790357
0.842482
0.885264
0.916599
0.940183
0.958255
0.972117
0.981807
0.986575
0.988291
0.988689
0.386068
0.395105
0.422025
0.462189
0.509273
0.560207
0.614117
0.67069
0.72951
0.790006
0.848578
0.896405
0.931337
0.957633
0.977788
0.993173
1.00393
1.00975
1.01221
1.01275
0.337897
0.347616
0.377939
0.423059
0.475884
0.533042
0.59351
0.65679
0.7223
0.789327
0.853781
0.906083
0.944084
0.972507
0.99426
1.01088
1.02267
1.0293
1.03208
1.03269
0.29747
0.307424
0.34003
0.389027
0.446546
0.508842
0.574825
0.643892
0.715322
0.78821
0.857988
0.914239
0.954813
0.984978
1.0079
1.02539
1.0379
1.04515
1.04819
1.04883
0.262213
0.272277
0.30658
0.358712
0.420141
0.486843
0.557613
0.631766
0.708486
0.786674
0.861279
0.92109
0.963893
0.995457
1.01925
1.03729
1.05018
1.05779
1.06098
1.06164
0.230565
0.240673
0.276328
0.331066
0.395802
0.466305
0.541303
0.620045
0.701586
0.784669
0.863784
0.926911
0.971744
1.00449
1.02892
1.04726
1.06032
1.06808
1.07128
1.07197
0.201366
0.211523
0.248283
0.305286
0.372894
0.446724
0.525486
0.608382
0.694382
0.782084
0.865546
0.931869
0.978665
1.01251
1.0375
1.05608
1.06922
1.07708
1.08027
1.08087
0.173782
0.184006
0.221777
0.280778
0.350943
0.427717
0.509847
0.596529
0.686671
0.778777
0.866484
0.936042
0.984819
1.01982
1.04542
1.06429
1.07753
1.08538
1.08858
1.08906
0.147325
0.157654
0.196371
0.257174
0.329602
0.409007
0.494183
0.584318
0.678305
0.774619
0.86654
0.939427
0.990359
1.02667
1.05302
1.07224
1.08563
1.09344
1.09659
1.09706
0.121661
0.132162
0.171773
0.234207
0.308667
0.39044
0.478362
0.571645
0.66921
0.769544
0.865672
0.942096
0.995437
1.03325
1.06048
1.08019
1.09378
1.10159
1.10462
1.10506
0.0965694
0.107317
0.147782
0.211714
0.288008
0.3719
0.462306
0.558465
0.659343
0.763521
0.863881
0.944041
1.00002
1.03958
1.06788
1.08819
1.10205
1.10986
1.11275
1.11311
0.0720114
0.0830199
0.124287
0.189621
0.267566
0.353363
0.446003
0.544767
0.6487
0.756522
0.861065
0.945122
1.00406
1.04566
1.07524
1.09627
1.11042
1.11817
1.12088
1.12114
0.0479229
0.0592085
0.101288
0.16792
0.247336
0.334834
0.429469
0.530574
0.637294
0.74851
0.857116
0.94525
1.00749
1.05148
1.08256
1.10441
1.11884
1.12649
1.12896
1.12909
0.0243289
0.0358965
0.0787807
0.146601
0.227337
0.316349
0.412758
0.51594
0.625153
0.739475
0.851998
0.944308
1.01016
1.05695
1.08987
1.11264
1.12727
1.13465
1.13681
1.13683
0.00119804
0.0131087
0.0567957
0.125699
0.207616
0.297968
0.395935
0.50094
0.612349
0.729469
0.845682
0.942147
1.01189
1.06196
1.09718
1.12105
1.13571
1.14259
1.14433
1.14421
-0.0212258
-0.0090903
0.0353842
0.10527
0.188243
0.27978
0.379079
0.485661
0.59898
0.718567
0.838134
0.938663
1.01247
1.06629
1.10449
1.12988
1.14438
1.15027
1.15135
1.15109
-0.043088
-0.0306286
0.0145977
0.0853627
0.169267
0.261836
0.362297
0.470203
0.585146
0.706857
0.829375
0.933758
1.01167
1.06962
1.11162
1.13946
1.15394
1.15806
1.15781
1.15733
-0.0641973
-0.0514561
-0.0055406
0.0660332
0.150778
0.244231
0.345681
0.454695
0.570963
0.694426
0.81947
0.927364
1.00931
1.07151
1.11808
1.14989
1.1656
1.16761
1.16443
1.16295
-0.0846439
-0.0715946
-0.0249676
0.0473445
0.13282
0.227041
0.32932
0.439224
0.55655
0.68143
0.80852
0.919431
1.00522
1.07153
1.12295
1.16036
1.18009
1.18246
1.17559
1.16471
-0.104313
-0.0910373
-0.043775
0.0291307
0.115172
0.209967
0.31286
0.423361
0.541423
0.667312
0.795933
0.909278
0.998791
1.06904
1.12492
1.1689
1.19577
1.20197
1.19359
1.1881
-0.123148
-0.10986
-0.0619596
0.0114649
0.0978627
0.193031
0.296341
0.407097
0.525567
0.651975
0.781578
0.896536
0.989446
1.06333
1.12159
1.16951
1.20043
1.21158
1.18063
1.13972
-0.140955
-0.12791
-0.0794829
-0.00553011
0.0809143
0.176216
0.279786
0.390574
0.509069
0.635492
0.765446
0.881038
0.976352
1.05403
1.11144
1.15184
1.1829
1.17629
1.12454
1.06583
-0.160431
-0.144074
-0.0959999
-0.0214674
0.0644655
0.159786
0.262876
0.373846
0.492033
0.617996
0.747514
0.862707
0.958132
1.04221
1.09379
1.13784
1.12436
1.09143
1.02998
0.968466
-0.149998
-0.126055
-0.0760332
0.00246516
0.0932556
0.192455
0.300766
0.414847
0.53602
0.66541
0.788399
0.890055
0.977773
1.06306
1.10293
1.04497
1.00899
0.955748
0.891347
0.849735
-0.164094
-0.156376
-0.116447
-0.0469922
0.0387754
0.133784
0.236947
0.347363
0.464605
0.589036
0.716307
0.829158
0.919502
1.00253
1.06618
1.06366
0.967581
0.897027
0.843561
0.769868
-0.185741
-0.175136
-0.131792
-0.0610635
0.025104
0.11966
0.221601
0.330939
0.44704
0.569779
0.694786
0.80528
0.89145
0.961237
0.986982
0.918861
0.79863
0.721078
0.659565
0.583872
-0.209502
-0.197655