/*--------------------------------*- C++ -*----------------------------------*\
  =========                 |
  \\      /  F ield         | OpenFOAM: The Open Source CFD Toolbox
   \\    /   O peration     | Website:  https://openfoam.org
    \\  /    A nd           | Version:  6
     \\/     M anipulation  |
\*---------------------------------------------------------------------------*/
FoamFile
{
    version     2.0;
    format      ascii;
    class       volScalarField;
    location    "31";
    object      p;
}
// * * * * * * * * * * * * * * * * * * * * * * * * * * * * * * * * * * * * * //

dimensions      [0 2 -2 0 0 0 0];

internalField   nonuniform List<scalar> 
8800
(
1.53203
1.48272
1.44474
1.41666
1.39647
1.38185
1.37119
1.36358
1.35861
1.3564
1.35761
1.3618
1.36848
1.37782
1.39049
1.40777
1.43162
1.4647
1.50762
1.56013
1.36655
1.37289
1.38203
1.38556
1.38294
1.37682
1.36984
1.36354
1.35865
1.35566
1.35526
1.35773
1.36223
1.36825
1.37528
1.38226
1.3871
1.38695
1.38026
1.37135
1.34011
1.34634
1.35083
1.35468
1.35761
1.35852
1.35738
1.35518
1.35308
1.35209
1.35294
1.35522
1.35799
1.36016
1.3606
1.35876
1.35535
1.3513
1.3465
1.34278
1.33587
1.33863
1.34123
1.34337
1.34508
1.34661
1.34766
1.34793
1.34769
1.3476
1.3482
1.34918
1.34977
1.3495
1.34843
1.347
1.34528
1.34294
1.3405
1.33894
1.33091
1.33233
1.33416
1.33622
1.3379
1.33915
1.34018
1.34106
1.34171
1.34224
1.34272
1.34298
1.34284
1.34234
1.34156
1.34036
1.33864
1.33669
1.33531
1.33451
1.32604
1.32694
1.32817
1.32978
1.33145
1.33293
1.33414
1.33515
1.33605
1.33683
1.33734
1.33748
1.33728
1.33675
1.33581
1.33451
1.33306
1.33172
1.33087
1.33035
1.32128
1.32194
1.32289
1.3242
1.32562
1.32709
1.32849
1.32973
1.33081
1.33173
1.33236
1.33255
1.33231
1.33166
1.33071
1.32962
1.3285
1.32751
1.3269
1.32652
1.31666
1.31716
1.31795
1.31909
1.32037
1.32174
1.32319
1.32461
1.32593
1.32709
1.32785
1.32806
1.32779
1.32718
1.32638
1.32549
1.32459
1.32382
1.32335
1.32306
1.31212
1.31252
1.31318
1.31421
1.31544
1.31678
1.31822
1.31974
1.32123
1.3226
1.32356
1.32391
1.32376
1.32329
1.32266
1.32193
1.32118
1.32057
1.32021
1.31997
1.30761
1.30792
1.30851
1.30947
1.31065
1.31196
1.3134
1.31497
1.31663
1.31825
1.31945
1.32
1.32007
1.31983
1.31939
1.31883
1.31823
1.31774
1.31746
1.31728
1.30306
1.30331
1.30384
1.30476
1.30593
1.30726
1.30876
1.31042
1.31225
1.31412
1.31564
1.31651
1.31686
1.31685
1.31659
1.31619
1.31572
1.31535
1.31514
1.31499
1.29841
1.29862
1.2991
1.30001
1.30121
1.30263
1.30427
1.30613
1.30819
1.31041
1.31232
1.31357
1.31421
1.31439
1.3143
1.31404
1.31369
1.31341
1.31326
1.31313
1.29363
1.29379
1.29426
1.2952
1.29649
1.29802
1.2998
1.30191
1.30435
1.30703
1.30943
1.31106
1.312
1.31246
1.31259
1.31247
1.31223
1.31203
1.31192
1.31182
1.28867
1.2888
1.28924
1.2902
1.29154
1.29317
1.2951
1.29742
1.3002
1.30342
1.30643
1.30863
1.31007
1.31093
1.31135
1.31147
1.31139
1.31129
1.31123
1.31115
1.28344
1.28352
1.28397
1.28498
1.28645
1.28827
1.2905
1.29323
1.29653
1.30041
1.30418
1.30706
1.30897
1.31018
1.31089
1.31122
1.3113
1.3113
1.31129
1.31122
1.27789
1.27795
1.27838
1.27943
1.28101
1.28303
1.28554
1.28872
1.29269
1.29747
1.30214
1.30576
1.30834
1.31006
1.31116
1.31181
1.31212
1.31226
1.3123
1.31225
1.27175
1.2718
1.27223
1.27331
1.27502
1.27727
1.28016
1.28388
1.28858
1.29436
1.30023
1.30491
1.30829
1.31067
1.31231
1.31337
1.31399
1.3143
1.31439
1.31434
1.26471
1.26475
1.26523
1.26638
1.26829
1.27089
1.27432
1.27884
1.28464
1.29179
1.29901
1.30481
1.30908
1.31218
1.31439
1.31591
1.31688
1.31736
1.31749
1.31743
1.25628
1.25632
1.25686
1.25817
1.26038
1.26344
1.26756
1.27303
1.2801
1.28888
1.29785
1.30511
1.31052
1.31447
1.31738
1.31943
1.32076
1.32142
1.32158
1.32151
1.24599
1.24603
1.24668
1.24827
1.25095
1.25473
1.25983
1.26663
1.2754
1.28627
1.29731
1.30624
1.31291
1.31783
1.32147
1.32406
1.32575
1.32658
1.32677
1.32669
1.23332
1.23338
1.2342
1.23619
1.23956
1.24431
1.25073
1.25923
1.27017
1.2836
1.29717
1.30809
1.31625
1.32229
1.32677
1.32997
1.33205
1.33304
1.33327
1.33317
1.21753
1.2176
1.21867
1.22127
1.2256
1.23172
1.23993
1.25073
1.26446
1.28108
1.29765
1.31087
1.32073
1.32804
1.3335
1.33741
1.33992
1.34108
1.34135
1.34123
1.19748
1.19759
1.19904
1.20254
1.20832
1.21636
1.22708
1.24097
1.25826
1.27879
1.29887
1.31472
1.3265
1.33526
1.34183
1.34655
1.34953
1.35087
1.35117
1.35102
1.17137
1.17153
1.17362
1.17858
1.18662
1.19757
1.21187
1.22991
1.25171
1.27688
1.30099
1.3198
1.33373
1.34411
1.35194
1.35757
1.36104
1.36257
1.36289
1.36271
1.13627
1.13658
1.13993
1.14753
1.15936
1.17486
1.19429
1.21778
1.24511
1.27565
1.30422
1.32624
1.34253
1.35472
1.36393
1.37053
1.37452
1.37624
1.37656
1.37635
1.08659
1.08782
1.09449
1.10748
1.12582
1.14827
1.17475
1.2051
1.2389
1.27541
1.30876
1.33418
1.35295
1.36707
1.37774
1.38537
1.38995
1.39184
1.39213
1.39186
1.01413
1.02178
1.03702
1.05974
1.08765
1.11923
1.15425
1.19246
1.23346
1.27652
1.31514
1.34437
1.36601
1.3824
1.39488
1.40384
1.40924
1.4115
1.4119
1.41169
0.937563
0.953869
0.978492
1.01152
1.04939
1.09017
1.13378
1.18008
1.22877
1.27924
1.32427
1.35845
1.38389
1.40326
1.41816
1.42904
1.43569
1.43841
1.43898
1.43895
0.872595
0.892532
0.924952
0.966611
1.01308
1.06246
1.11438
1.16861
1.22481
1.28245
1.33353
1.37219
1.401
1.42294
1.43979
1.4521
1.45973
1.46299
1.46355
1.46358
0.819971
0.842103
0.879625
0.927385
0.980566
1.03706
1.09626
1.15775
1.22099
1.28534
1.342
1.38465
1.41625
1.44025
1.45857
1.47217
1.48088
1.48443
1.48511
1.48522
0.776411
0.799802
0.840955
0.893441
0.951939
1.01427
1.07965
1.1475
1.2171
1.28762
1.34931
1.39547
1.42943
1.45507
1.47466
1.48912
1.49845
1.50248
1.50338
1.50354
0.739098
0.763273
0.807125
0.86344
0.9264
0.993669
1.06438
1.13783
1.21314
1.28923
1.35549
1.4047
1.44068
1.46763
1.48811
1.50317
1.51291
1.51736
1.51851
1.51868
0.706038
0.730756
0.776733
0.836244
0.903015
0.974588
1.05001
1.12848
1.20898
1.29019
1.36064
1.41263
1.45032
1.47834
1.49946
1.51493
1.52497
1.52968
1.53094
1.53108
0.675819
0.701018
0.748771
0.811022
0.881105
0.956463
1.03611
1.11916
1.20446
1.29048
1.3649
1.4195
1.45876
1.48766
1.50924
1.52495
1.53505
1.53989
1.5412
1.5413
0.647541
0.673193
0.722507
0.78717
0.860164
0.938876
1.02234
1.10959
1.19939
1.29002
1.36832
1.42548
1.46626
1.49599
1.51798
1.53386
1.54402
1.54892
1.55029
1.55036
0.620498
0.64664
0.697387
0.764238
0.839825
0.921549
1.00846
1.09958
1.19361
1.28872
1.37088
1.43067
1.47303
1.50367
1.52612
1.5422
1.55237
1.55719
1.55859
1.5587
0.594425
0.621047
0.673109
0.74192
0.819839
0.904278
0.994322
1.08901
1.18703
1.28648
1.37257
1.43514
1.47927
1.51095
1.53396
1.55027
1.5605
1.56525
1.56656
1.56661
0.568964
0.596163
0.649438
0.720026
0.800048
0.886936
0.979837
1.0778
1.17957
1.28326
1.37339
1.43898
1.48509
1.51798
1.54166
1.5583
1.56858
1.57325
1.57442
1.5744
0.544049
0.571834
0.626243
0.698462
0.780379
0.869476
0.964962
1.06594
1.17122
1.27904
1.37332
1.44217
1.49052
1.52481
1.54931
1.56632
1.57664
1.58117
1.58221
1.5821
0.519607
0.547977
0.603481
0.677192
0.760806
0.851886
0.949703
1.05342
1.16196
1.27376
1.37224
1.44461
1.49553
1.53149
1.55693
1.57435
1.58466
1.58898
1.58984
1.58965
0.495591
0.524584
0.581158
0.656209
0.741333
0.834194
0.934098
1.04029
1.15182
1.26737
1.37004
1.44622
1.50008
1.53802
1.56456
1.58238
1.59258
1.59658
1.59724
1.597
0.471987
0.501676
0.559269
0.63554
0.722022
0.816456
0.918208
1.02659
1.14082
1.25986
1.36668
1.44684
1.50406
1.54442
1.57227
1.59043
1.60032
1.60387
1.6043
1.60402
0.448973
0.479308
0.537865
0.615231
0.702926
0.798749
0.902109
1.01242
1.12903
1.25125
1.36205
1.44633
1.50729
1.55063
1.58023
1.59867
1.60789
1.61073
1.61089
1.61058
0.426596
0.457541
0.516998
0.59535
0.684114
0.781146
0.885903
0.997868
1.11656
1.2416
1.35612
1.44452
1.50953
1.5565
1.5886
1.60756
1.61557
1.61714
1.61688
1.61658
0.404812
0.436424
0.496708
0.575948
0.665664
0.763742
0.869688
0.983044
1.10349
1.23097
1.34884
1.44129
1.51049
1.56166
1.59739
1.61783
1.62441
1.62358
1.62223
1.62207
0.383788
0.41599
0.477057
0.5571
0.647641
0.746625
0.853568
0.968069
1.08997
1.21946
1.34022
1.43649
1.50989
1.56551
1.60605
1.62999
1.6366
1.63276
1.62801
1.62574
0.363438
0.39624
0.458044
0.538778
0.630016
0.729752
0.837487
0.952876
1.07591
1.20703
1.33012
1.42988
1.50741
1.56736
1.61335
1.64325
1.65358
1.64991
1.63792
1.63499
0.343851
0.377102
0.439533
0.520787
0.612486
0.71277
0.821013
0.936955
1.06072
1.19298
1.31782
1.42059
1.50237
1.56613
1.61663
1.65334
1.66861
1.66218
1.64582
1.63804
0.325168
0.358618
0.421696
0.50334
0.595298
0.695989
0.80437
0.920645
1.04474
1.17761
1.30347
1.40819
1.49428
1.56082
1.61112
1.64744
1.66662
1.64785
1.58767
1.56001
0.307502
0.340055
0.404945
0.486965
0.579102
0.679892
0.787823
0.904217
1.02825
1.16111
1.2872
1.39233
1.48245
1.55118
1.59348
1.6207
1.62353
1.57894
1.51608
1.47709
0.26321
0.322343
0.389316
0.471043
0.56314
0.663585
0.771498
0.887556
1.01106
1.14317
1.26869
1.3727
1.46373
1.53745
1.56082
1.56271
1.53135
1.4746
1.40709
1.36976
0.288395
0.306664
0.365988
0.447274
0.539053
0.639182
0.746297
0.861455
0.983632
1.11365
1.23665
1.33737
1.41973
1.49565
1.4926
1.39773
1.31376
1.25579
1.19384
1.22615
0.256553
0.288356
0.348437
0.429323
0.521009
0.620736
0.727886
0.842254
0.963192
1.09109
1.21101
1.30782
1.38095
1.42168
1.38023
1.25061
1.14697
1.07722
0.996442
1.04811
0.231775
0.266059
0.32798
0.409072
0.500704
0.600309
0.70726
0.820705
0.9401
1.06532
1.18119
1.2724
1.33384
1.34003
1.24153
1.08964
0.963302
0.873616
0.777935
0.815838
0.207659
0.24307
0.306416
0.38818
0.479955
0.579426
0.685832
0.798206
0.91586
1.03808
1.14907
1.23378
1.27864
1.25219
1.09911
0.922075
0.761643
0.626349
0.500681
0.522549
0.18385
0.219687
0.283954
0.366318
0.458312
0.557595
0.663328
0.774508
0.890177
1.00905
1.11449
1.19187
1.21679
1.15076
0.959171
0.75868
0.566968
0.408476
0.194875
0.11405
0.15968
0.19546
0.260277
0.343102
0.435332
0.534481
0.639614
0.749585
0.863179
0.978522
1.0781
1.14653
1.15001
1.02919
0.831293
0.615948
0.416078
0.247276
0.116764
-0.0174114
0.134116
0.169934
0.235048
0.318152
0.410493
0.509419
0.61386
0.722455
0.83365
0.944997
1.03823
1.09551
1.07207
0.911486
0.711256
0.500699
0.31857
0.215756
0.187724
0.173237
0.10701
0.142842
0.208154
0.291383
0.383659
0.482204
0.585719
0.692636
0.80099
0.907707
0.994115
1.03605
0.99007
0.798552
0.599867
0.408765
0.269908
0.229998
0.219515
0.219129
0.0780842
0.114074
0.179573
0.262828
0.354903
0.452852
0.555198
0.6601
0.765146
0.866618
0.945384
0.971035
0.897435
0.69319
0.502032
0.334925
0.253745
0.238613
0.237567
0.237706
0.0473706
0.0836101
0.149313
0.232522
0.324242
0.421402
0.522323
0.624864
0.726152
0.821793
0.891659
0.9024
0.788699
0.595066
0.413546
0.281225
0.248755
0.247828
0.246521
0.246848
0.0151379
0.051646
0.117515
0.200584
0.291807
0.387947
0.487165
0.587014
0.684081
0.773332
0.83399
0.824888
0.68582
0.501237
0.337409
0.264514
0.249654
0.25084
0.2514
0.251673
-0.0180057
0.0185615
0.0844734
0.167283
0.25784
0.352709
0.449914
0.546764
0.639198
0.721532
0.773269
0.74396
0.588713
0.415911
0.283224
0.242925
0.24658
0.252738
0.255852
0.256469
-0.0516097
-0.0150821
0.0506872
0.133079
0.22276
0.316104
0.410905
0.504464
0.591984
0.667079
0.708386
0.662789
0.495563
0.335725
0.239031
0.239479
0.242312
0.245065
0.250088
0.253525
-0.0845443
-0.0483812
0.0169284
0.0986493
0.187179
0.278736
0.370717
0.460584
0.543166
0.610814
0.641718
0.586352
0.407399
0.264499
0.184124
0.190248
0.220366
0.240508
0.247321
0.249373
-0.115522
-0.0801383
-0.0157688
0.0649191
0.151933
0.241437
0.330295
0.415779
0.493568
0.554004
0.578577
0.508309
0.331188
0.19647
0.162544
0.162084
0.200169
0.230907
0.239583
0.240527
-0.143055
-0.108915
-0.0460458
0.0331174
0.118145
0.205219
0.29093
0.371216
0.443803
0.498483
0.515602
0.435134
0.28136
0.147901
0.0993664
0.0888355
0.0628244
0.0722838
0.0905502
0.103041
-0.164883
-0.132755
-0.0722676
0.00478344
0.0872566
0.171322
0.253975
0.329056
0.39446
0.445314
0.450915
0.360626
0.251641
0.189498
0.0941797
-0.0583747
-0.1735
-0.178711
-0.152768
-0.140408
-0.179204
-0.149784
-0.0925202
-0.0184298
0.0609858
0.14141
0.220524
0.29207
0.348387
0.391743
0.39467
0.259017
0.186461
0.222337
0.178814
-0.0823863
-0.206773
-0.203635
-0.203548
-0.204805
-0.183507
-0.157833
-0.104932
-0.0347717
0.04108
0.117561
0.192128
0.261535
0.311539
0.33819
0.355209
0.135576
-0.0291368
0.00707027
0.0280317
-0.146156
-0.246109
-0.225953
-0.230276
-0.230874
-0.176315
-0.154973
-0.107648
-0.0425441
0.0289685
0.101608
0.17184
0.237118
0.287825
0.304757
0.284789
0.0209308
-0.350759
-0.67984
-0.886859
-1.00372
-0.867729
-0.568335
-0.407896
-0.404631
-0.155067
-0.138751
-0.0990904
-0.04058
0.0257745
0.0945363
0.162002
0.223388
0.273765
0.296301
0.242207
-0.038181
-0.589458
-1.21216
-1.56556
-1.69793
-1.58395
-1.31698
-1.04012
-0.935079
-0.122263
-0.111141
-0.0798344
-0.0291513
0.0318918
0.0969553
0.162447
0.225427
0.275766
0.297832
0.264702
0.0616638
-0.380105
-0.918347
-1.12133
-1.18431
-1.14234
-1.03472
-0.895614
-0.80153
-0.0823233
-0.075772
-0.0534962
-0.0105271
0.0455333
0.108333
0.174252
0.239062
0.302549
0.341382
0.380153
0.327425
0.226412
0.0782653
-0.0526976
-0.046823
0.146032
0.329248
0.472415
0.547036
-0.0419106
-0.0383377
-0.0245918
0.0108639
0.0636891
0.125509
0.195334
0.267272
0.343567
0.437077
0.508028
0.665698
0.826286
1.13503
1.51888
1.92811
2.26418
2.4879
2.59826
2.63859
-0.00682059
-0.00489907
0.00267085
0.0310043
0.0811527
0.146036
0.218425
0.304401
0.392665
0.50709
0.647608
0.807048
1.22844
1.76593
2.40905
2.97233
3.40027
3.66298
3.78433
3.81667
0.0266586
0.0272151
0.0297972
0.0493162
0.0958348
0.163121
0.24255
0.329938
0.434704
0.547268
0.685058
0.824826
1.06836
1.58569
2.13607
2.62431
2.99428
3.22031
3.32529
3.35573
0.0547505
0.0556796
0.0561119
0.0677463
0.109728
0.178827
0.262033
0.3527
0.452043
0.563913
0.680875
0.802226
0.909269
1.22232
1.66853
2.05068
2.34544
2.52471
2.60705
2.63106
0.0721278
0.0726429
0.0715233
0.0806723
0.123999
0.198149
0.282697
0.371853
0.465519
0.568278
0.668093
0.764008
0.848617
1.01257
1.31187
1.5976
1.803
1.92227
1.97391
1.98628
0.0921883
0.0893533
0.0859495
0.0971346
0.14752
0.226969
0.31128
0.394517
0.479292
0.570506
0.65251
0.72311
0.78625
0.907549
1.10977
1.28824
1.41148
1.48102
1.51017
1.51651
0.156723
0.151358
0.14662
0.159573
0.208845
0.279965
0.352415
0.424735
0.496366
0.57154
0.63823
0.689351
0.724779
0.803712
0.94699
1.06164
1.13486
1.17419
1.18987
1.19215
0.28735
0.282829
0.279018
0.287311
0.318524
0.362682
0.411192
0.463019
0.518083
0.576472
0.625928
0.660832
0.680976
0.726541
0.822099
0.897791
0.946648
0.972679
0.982945
0.983462
0.436376
0.434495
0.431808
0.431555
0.438605
0.452611
0.475304
0.504007
0.541927
0.584848
0.620735
0.646545
0.664509
0.697267
0.760337
0.806747
0.835109
0.850843
0.856433
0.856098
0.544391
0.543756
0.541065
0.534652
0.527168
0.523883
0.528184
0.540791
0.563184
0.594142
0.623126
0.645338
0.673403
0.698491
0.741573
0.765406
0.780127
0.786626
0.787996
0.787237
0.60036
0.59992
0.597281
0.590052
0.579319
0.569837
0.565752
0.568669
0.580722
0.603763
0.627616
0.653015
0.681561
0.704594
0.726421
0.738736
0.749001
0.754866
0.757718
0.7566
0.622174
0.621674
0.619422
0.61368
0.604579
0.595355
0.589009
0.587738
0.593266
0.609007
0.627982
0.651957
0.681948
0.697549
0.707636
0.717661
0.726653
0.733733
0.73641
0.735465
0.627828
0.627296
0.625513
0.621526
0.615309
0.608319
0.602438
0.600057
0.601085
0.60875
0.621391
0.636958
0.664096
0.673641
0.680009
0.690149
0.702898
0.713501
0.717553
0.716195
0.627704
0.627207
0.625806
0.622898
0.618728
0.613856
0.609174
0.606385
0.605419
0.606259
0.608267
0.607251
0.615085
0.616677
0.63103
0.651724
0.673338
0.686829
0.692092
0.689982
0.626006
0.62563
0.624618
0.622393
0.619276
0.615777
0.612147
0.609278
0.608327
0.603363
0.592842
0.56978
0.546748
0.546462
0.57541
0.606432
0.629777
0.6424
0.647717
0.647041
0.623117
0.622931
0.622384
0.620878
0.618471
0.615802
0.613194
0.61084
0.60973
0.604791
0.583205
0.548836
0.505624
0.510248
0.545469
0.578018
0.5971
0.605294
0.608349
0.608487
0.617573
0.617566
0.617439
0.616673
0.61526
0.613756
0.612644
0.612476
0.613261
0.611954
0.592889
0.559474
0.522607
0.531381
0.560955
0.585307
0.599779
0.607061
0.608366
0.606993
0.60793
0.6081
0.608362
0.608399
0.608271
0.608535
0.609975
0.613364
0.619484
0.624647
0.615627
0.597983
0.58014
0.589868
0.604481
0.612784
0.615731
0.617177
0.618979
0.619231
0.592944
0.593316
0.593981
0.594884
0.596168
0.598627
0.603297
0.611554
0.624831
0.640998
0.644761
0.647568
0.647993
0.654622
0.65719
0.651183
0.649444
0.650344
0.650466
0.649061
0.570818
0.571458
0.572634
0.574372
0.577104
0.581794
0.589742
0.603357
0.6251
0.651255
0.666957
0.687731
0.712526
0.707524
0.690829
0.686558
0.678533
0.677426
0.674703
0.673814
0.538358
0.539319
0.541066
0.543756
0.547932
0.554544
0.565084
0.583035
0.612322
0.642495
0.667357
0.701313
0.725768
0.718943
0.70662
0.705249
0.708932
0.705071
0.701391
0.700983
0.492266
0.493559
0.495832
0.499414
0.504743
0.512379
0.523611
0.542611
0.574068
0.601114
0.633318
0.66997
0.692041
0.683773
0.700241
0.722353
0.732923
0.734969
0.729034
0.729538
0.429987
0.431482
0.434096
0.438254
0.443901
0.450598
0.458514
0.471149
0.490676
0.503461
0.544304
0.595785
0.619189
0.619436
0.674519
0.729615
0.767464
0.767636
0.76022
0.758547
0.351513
0.352957
0.355584
0.359707
0.364174
0.366716
0.364432
0.355898
0.339135
0.329806
0.391771
0.483167
0.489921
0.514457
0.615689
0.694309
0.741514
0.734986
0.728178
0.725157
0.26132
0.262322
0.264619
0.268106
0.269941
0.264897
0.243581
0.193833
0.117223
0.0778088
0.196109
0.333894
0.357104
0.417796
0.520376
0.606368
0.622036
0.614468
0.607385
0.604285
0.169832
0.169884
0.171606
0.174294
0.173216
0.15978
0.114543
0.00926535
-0.149491
-0.183149
-0.0140324
0.183731
0.220825
0.308198
0.385103
0.425324
0.419538
0.418631
0.417811
0.417189
0.0870803
0.0870179
0.0889784
0.0909619
0.0901222
0.0770675
0.023204
-0.109854
-0.285066
-0.326034
-0.123842
0.0750654
0.0934458
0.190155
0.230077
0.216196
0.219438
0.220864
0.222831
0.223723
0.0207488
0.0204754
0.0214799
0.023579
0.0247285
0.0240509
0.0147764
-0.0259815
-0.0869823
-0.125781
-0.0808682
-0.0111477
-0.00798909
0.000196171
-0.0250047
0.0450489
0.0491162
0.0441375
0.0433575
0.0437232
0.662908
0.861794
1.04608
1.20233
1.32969
1.43261
1.51957
1.59006
1.60884
1.60482
0.972887
1.10192
1.22302
1.32896
1.41908
1.49426
1.5538
1.59417
1.61573
1.63199
1.18435
1.2701
1.355
1.43017
1.49474
1.54846
1.59076
1.62277
1.64645
1.66562
1.33874
1.39895
1.46029
1.51565
1.56357
1.60423
1.63815
1.66631
1.68745
1.7064
1.45942
1.50521
1.5514
1.59398
1.63177
1.66503
1.69397
1.71836
1.73687
1.75497
1.56241
1.59921
1.63559
1.6707
1.70293
1.732
1.75758
1.77899
1.79513
1.81266
1.65256
1.68561
1.71869
1.75061
1.7803
1.80724
1.83083
1.85012
1.8643
1.88137
1.74096
1.77406
1.80705
1.83872
1.86791
1.89407
1.91652
1.93429
1.94687
1.96344
1.83621
1.87286
1.90796
1.94074
1.9702
1.99582
2.01716
2.03363
2.04537
2.06155
1.94972
1.99037
2.02764
2.06087
2.08958
2.11376
2.13353
2.14892
2.1609
2.17701
2.09127
2.13259
2.16799
2.19775
2.2231
2.24482
2.26341
2.27897
2.29214
2.30811
2.26313
2.29583
2.32272
2.34508
2.36523
2.38402
2.40181
2.41862
2.43357
2.4493
2.4497
2.46704
2.48421
2.50093
2.51706
2.53183
2.54576
2.56026
2.57552
2.59283
2.63312
2.64316
2.6564
2.66741
2.67682
2.6865
2.69714
2.70734
2.71664
2.74231
2.85115
2.84545
2.83251
2.81825
2.81196
2.8177
2.83585
2.86438
2.89816
2.93449
3.15394
3.01797
2.9385
2.89604
2.87874
2.8827
2.91014
2.96801
3.07568
3.25409
1.43573
1.42943
1.42169
1.41057
1.39698
1.38431
1.37388
1.36582
1.36003
1.35661
1.35613
1.35883
1.36395
1.37123
1.38072
1.39251
1.40604
1.41895
1.42793
1.43546
1.34482
1.35074
1.35881
1.36493
1.36799
1.36746
1.36434
1.3603
1.35664
1.35425
1.35398
1.3561
1.35974
1.3641
1.36813
1.37033
1.36922
1.36455
1.35748
1.34963
1.33812
1.34049
1.34375
1.34651
1.34895
1.35112
1.35226
1.35206
1.35104
1.35011
1.35018
1.35146
1.35312
1.35425
1.3541
1.35257
1.35037
1.34797
1.34497
1.34194
1.33339
1.33448
1.33639
1.33872
1.34058
1.34195
1.34313
1.34407
1.34457
1.34482
1.34521
1.34579
1.34613
1.34589
1.34517
1.34417
1.34278
1.34077
1.33863
1.33714
1.32846
1.32909
1.33022
1.33197
1.3338
1.33536
1.33657
1.33756
1.33844
1.33917
1.33977
1.34011
1.34009
1.33974
1.3391
1.33803
1.33653
1.33486
1.33348
1.33267
1.32364
1.32408
1.32487
1.32617
1.32768
1.32921
1.33064
1.33185
1.33289
1.33382
1.33455
1.33491
1.33488
1.33448
1.33368
1.33256
1.33131
1.33009
1.32913
1.32859
1.31896
1.31929
1.3199
1.32097
1.32227
1.32365
1.32509
1.32649
1.32777
1.32889
1.32978
1.33023
1.33018
1.32971
1.32892
1.32797
1.32699
1.32602
1.3253
1.3249
1.31439
1.31464
1.31513
1.31605
1.31723
1.31854
1.31994
1.32141
1.32287
1.32421
1.3253
1.32586
1.32588
1.32547
1.32482
1.32405
1.32323
1.32246
1.3219
1.32159
1.30986
1.31006
1.31047
1.3113
1.31242
1.31369
1.31506
1.31657
1.31815
1.31971
1.32104
1.32179
1.32195
1.32172
1.32126
1.32066
1.31998
1.31936
1.31892
1.31868
1.30534
1.30549
1.30585
1.30661
1.30769
1.30893
1.31031
1.31184
1.31351
1.31526
1.31685
1.3179
1.31834
1.31837
1.31813
1.3177
1.31719
1.31669
1.31636
1.31617
1.30075
1.30087
1.30118
1.30189
1.30296
1.30423
1.30569
1.30734
1.30919
1.31121
1.31314
1.31453
1.31527
1.31554
1.31548
1.31521
1.31485
1.31448
1.31423
1.31408
1.29604
1.29613
1.29641
1.29711
1.29823
1.29959
1.30117
1.30303
1.30514
1.30746
1.30982
1.31167
1.31276
1.31328
1.31341
1.3133
1.31304
1.31276
1.31258
1.31247
1.29118
1.29124
1.29149
1.2922
1.29336
1.2948
1.29649
1.29851
1.30094
1.30377
1.30667
1.30897
1.31045
1.31134
1.3118
1.31192
1.31182
1.31165
1.31153
1.31146
1.28609
1.28612
1.28636
1.28708
1.28829
1.28984
1.29171
1.29399
1.29672
1.29996
1.3035
1.30656
1.30867
1.31001
1.31077
1.31116
1.31126
1.31123
1.31119
1.31114
1.28072
1.28072
1.28094
1.28168
1.28299
1.28471
1.28684
1.2895
1.29281
1.29682
1.3012
1.30498
1.30763
1.30942
1.31055
1.31118
1.31152
1.31164
1.31168
1.31166
1.27491
1.27491
1.27512
1.27586
1.27723
1.27908
1.28145
1.28448
1.2883
1.29307
1.29847
1.30329
1.30684
1.30933
1.31098
1.31208
1.31275
1.31309
1.31323
1.31323
1.26838
1.26835
1.26858
1.26935
1.27082
1.2729
1.27565
1.27926
1.28392
1.28976
1.29641
1.30241
1.30687
1.31007
1.31235
1.31394
1.31499
1.31558
1.31582
1.31583
1.26071
1.26067
1.26093
1.26179
1.26342
1.2658
1.26904
1.27336
1.27901
1.28618
1.29441
1.30186
1.30748
1.3116
1.31458
1.31672
1.31821
1.31907
1.3194
1.31942
1.25139
1.25134
1.25165
1.25266
1.25458
1.25743
1.26137
1.26666
1.27362
1.28244
1.2926
1.30184
1.30881
1.31397
1.31777
1.32056
1.32248
1.3236
1.32402
1.32404
1.23996
1.2399
1.2403
1.24156
1.24393
1.24749
1.2524
1.25901
1.26768
1.27864
1.29116
1.30248
1.31103
1.31739
1.32208
1.32553
1.32793
1.32932
1.32983
1.32985
1.2258
1.22573
1.22626
1.22789
1.23089
1.23543
1.24167
1.25003
1.26091
1.27453
1.28994
1.30377
1.31418
1.3219
1.32765
1.33187
1.33482
1.33649
1.33709
1.33711
1.20799
1.20791
1.20867
1.21084
1.21477
1.22067
1.22876
1.23952
1.25333
1.27032
1.28922
1.30594
1.31845
1.32774
1.33466
1.33979
1.34335
1.34533
1.34601
1.34603
1.18507
1.185
1.18613
1.18913
1.19446
1.2024
1.21319
1.22724
1.24487
1.26604
1.28905
1.3091
1.32399
1.33504
1.34331
1.34945
1.3537
1.35599
1.35677
1.35678
1.15475
1.15474
1.1565
1.16091
1.16859
1.17979
1.19456
1.21318
1.23574
1.26195
1.28969
1.31343
1.33095
1.34396
1.35374
1.36102
1.36597
1.36859
1.36947
1.36946
1.11307
1.11327
1.11642
1.1237
1.13565
1.15217
1.17285
1.19762
1.2263
1.25839
1.29136
1.31909
1.33943
1.35457
1.366
1.3745
1.38019
1.38315
1.38409
1.38405
1.0526
1.05399
1.06155
1.07531
1.09497
1.11985
1.14874
1.18128
1.21715
1.25577
1.29433
1.32621
1.34946
1.3668
1.3799
1.3896
1.39614
1.39944
1.40035
1.40027
0.980265
0.98309
0.997657
1.02135
1.05152
1.08608
1.12384
1.16466
1.20828
1.25422
1.29944
1.33668
1.36396
1.38446
1.40004
1.41159
1.41936
1.42334
1.42452
1.42454
0.906699
0.913966
0.935754
0.969131
1.00922
1.05312
1.09972
1.14885
1.20033
1.25372
1.3058
1.34857
1.37996
1.40362
1.42176
1.43547
1.44462
1.44882
1.45014
1.45042
0.847638
0.85649
0.883008
0.923181
0.970842
1.02255
1.07703
1.13392
1.19289
1.25342
1.31197
1.35981
1.3948
1.42115
1.44124
1.45637
1.46639
1.4715
1.4735
1.47392
0.799422
0.808955
0.838844
0.883941
0.937321
0.99523
1.0563
1.11999
1.18573
1.25286
1.31739
1.36977
1.40784
1.43634
1.45806
1.47444
1.48565
1.49151
1.49378
1.49423
0.758951
0.768744
0.800928
0.84987
0.907884
0.97091
1.03752
1.10707
1.17882
1.25192
1.32188
1.37831
1.41905
1.44932
1.47229
1.48958
1.50148
1.50793
1.51047
1.51097
0.72365
0.733566
0.767472
0.819524
0.881414
0.948813
1.02023
1.09494
1.17208
1.25059
1.32549
1.38557
1.42862
1.46038
1.48429
1.50223
1.51465
1.52156
1.52426
1.52478
0.691917
0.701898
0.737168
0.791823
0.857011
0.928208
1.00389
1.08322
1.16528
1.24878
1.32828
1.39176
1.43691
1.46993
1.49457
1.51294
1.52564
1.53277
1.53555
1.53607
0.662609
0.672654
0.709066
0.765991
0.834044
0.908571
0.988036
1.07159
1.15817
1.24639
1.3303
1.39705
1.44419
1.47835
1.5036
1.52224
1.53507
1.54232
1.54508
1.54561
0.634896
0.645013
0.682473
0.741418
0.812031
0.889509
0.972376
1.05977
1.15056
1.24325
1.33148
1.40148
1.45064
1.48596
1.51183
1.53077
1.54372
1.55102
1.55379
1.55416
0.608281
0.618523
0.656953
0.717726
0.790627
0.870759
0.956696
1.04759
1.1423
1.23927
1.33176
1.40511
1.45639
1.493
1.51958
1.53887
1.55195
1.55921
1.56194
1.5623
0.582445
0.59287
0.632224
0.694657
0.769609
0.852129
0.940852
1.03495
1.1333
1.23436
1.3311
1.40795
1.46159
1.49966
1.52708
1.54681
1.56006
1.5673
1.56992
1.57026
0.557164
0.56785
0.608087
0.672045
0.748858
0.833526
0.924771
1.02179
1.12352
1.22849
1.32948
1.41005
1.46629
1.50602
1.53444
1.5547
1.56816
1.57536
1.57784
1.57811
0.532407
0.543358
0.584428
0.649817
0.728315
0.814918
0.908431
1.00811
1.11296
1.22163
1.32685
1.41131
1.47042
1.5121
1.5417
1.56259
1.57625
1.58335
1.58565
1.58582
0.508095
0.519333
0.561241
0.627965
0.707963
0.796295
0.891847
0.993923
1.10162
1.21376
1.32311
1.41162
1.47396
1.51791
1.5489
1.57048
1.58432
1.59125
1.59331
1.59337
0.484255
0.495788
0.538534
0.606479
0.687826
0.777706
0.875075
0.979284
1.08955
1.20488
1.31819
1.41089
1.47678
1.52341
1.55607
1.57841
1.5923
1.5989
1.60066
1.60061
0.46086
0.472749
0.516332
0.585393
0.667954
0.759207
0.858176
0.964267
1.0768
1.19501
1.31209
1.40899
1.47873
1.52852
1.56329
1.5865
1.60024
1.60625
1.6076
1.60745
0.438157
0.450285
0.494687
0.564764
0.648411
0.740881
0.84123
0.948958
1.06348
1.18424
1.30478
1.4058
1.47959
1.53305
1.5706
1.59502
1.60834
1.61328
1.61402
1.61375
0.416001
0.428467
0.473651
0.544639
0.629249
0.722786
0.824342
0.933453
1.04967
1.17266
1.29626
1.40122
1.47918
1.53671
1.57788
1.60438
1.61728
1.62036
1.61987
1.61943
0.394583
0.407345
0.453251
0.525079
0.61056
0.705015
0.807604
0.917883
1.03551
1.16035
1.2866
1.3952
1.47728
1.5391
1.5847
1.61477
1.62837
1.62911
1.62585
1.62453
0.373817
0.386902
0.433552
0.506148
0.59239
0.687644
0.791109
0.902337
1.0211
1.14746
1.27589
1.38766
1.47373
1.53977
1.59018
1.62552
1.64254
1.64311
1.63606
1.62544
0.353818
0.367146
0.41446
0.48768
0.574514
0.670374
0.774497
0.886381
1.00596
1.13344
1.26354
1.37793
1.46793
1.53814
1.59311
1.63478
1.65846
1.66218
1.65275
1.64774
0.334643
0.347999
0.395983
0.469746
0.556961
0.653227
0.757809
0.870006
0.990074
1.11819
1.24942
1.36563
1.45928
1.53347
1.59112
1.63664
1.66409
1.67294
1.64099
1.60049
0.316504
0.329612
0.378169
0.452472
0.539759
0.636185
0.741066
0.853351
0.973524
1.10177
1.23351
1.35057
1.44694
1.52527
1.58267
1.62073
1.64845
1.6399
1.58835
1.53064
0.29669
0.313158
0.361362
0.436271
0.52306
0.619512
0.723947
0.836473
0.956414
1.08431
1.21578
1.33263
1.42946
1.51451
1.56665
1.60974
1.59357
1.55902
1.49763
1.43703
0.306849
0.330843
0.381171
0.460354
0.552105
0.652567
0.762394
0.878191
1.0013
1.13284
1.25782
1.36117
1.45046
1.53662
1.57556
1.51768
1.48058
1.42669
1.36279
1.3216
0.292518
0.300248
0.340404
0.410368
0.496947
0.593094
0.697664
0.809709
0.928818
1.05535
1.18483
1.29959
1.39167
1.47599
1.53989
1.53679
1.44045
1.36995
1.31662
1.244
0.27051
0.281165
0.324738
0.395978
0.48296
0.578719
0.682087
0.793096
0.911143
1.03609
1.16347
1.27605
1.36404
1.43532
1.46139
1.39253
1.2742
1.19757
1.13673
1.06236
0.246334
0.258251
0.304987
0.377233
0.464262
0.560089
0.663421
0.774096
0.89114
1.01443
1.13868
1.24682
1.32754
1.37904
1.3588
1.23954
1.1097
1.01721
0.942416
0.833427
0.222486
0.234464
0.283009
0.356426
0.443648
0.539459
0.64265
0.752681
0.868501
0.98973
1.1103
1.21312
1.28518
1.31398
1.25445
1.08648
0.929922
0.80656
0.704603
0.565061
0.198771
0.21073
0.260407
0.334841
0.4225
0.518289
0.621096
0.730218
0.844566
0.963379
1.07982
1.17661
1.23874
1.23556
1.12222
0.934156
0.74603
0.578812
0.435843
0.178144
0.174772
0.186589
0.236938
0.312063
0.400128
0.495955
0.598366
0.706559
0.819312
0.935474
1.04743
1.13726
1.18743
1.15053
0.991037
0.789909
0.581637
0.39829
0.222952
-0.0618651
0.149928
0.161599
0.212265
0.287852
0.376237
0.472108
0.574157
0.681443
0.792535
0.905865
1.01311
1.09511
1.13012
1.06924
0.868547
0.661991
0.45372
0.277311
0.186848
0.135088
0.123565
0.135149
0.186045
0.261897
0.350409
0.446162
0.547692
0.653836
0.762923
0.872903
0.974829
1.04787
1.0649
0.962302
0.753994
0.549126
0.364315
0.247518
0.209416
0.202669
0.0955073
0.107064
0.15819
0.234208
0.32271
0.418174
0.518971
0.623706
0.730397
0.836467
0.932363
0.99587
0.985412
0.847902
0.647412
0.455202
0.299013
0.243516
0.232869
0.230089
0.0656295
0.0772332
0.128653
0.204796
0.293174
0.388167
0.488012
0.591037
0.694942
0.796582
0.885677
0.939007
0.900731
0.738213
0.550524
0.37211
0.26752
0.243784
0.243045
0.242707
0.0340807
0.0457532
0.0974936
0.173724
0.261869
0.356218
0.454857
0.555887
0.656611
0.753268
0.835093
0.875286
0.820972
0.634656
0.459739
0.307436
0.25673
0.251388
0.249434
0.249105
0.00125532
0.0129532
0.0649667
0.141192
0.228971
0.322486
0.419641
0.518384
0.615541
0.706711
0.780926
0.807766
0.737078
0.541699
0.376679
0.269405
0.247834
0.25036
0.253091
0.253771
-0.0323686
-0.0206778
0.0314868
0.107572
0.194828
0.287293
0.382659
0.478777
0.572078
0.657333
0.723403
0.73803
0.639651
0.454114
0.306226
0.250857
0.243424
0.249327
0.252974
0.256106
-0.0660258
-0.0544214
-0.00229684
0.0734648
0.159971
0.251146
0.344395
0.437447
0.526715
0.60581
0.66348
0.662358