/*--------------------------------*- C++ -*----------------------------------*\
  =========                 |
  \\      /  F ield         | OpenFOAM: The Open Source CFD Toolbox
   \\    /   O peration     | Website:  https://openfoam.org
    \\  /    A nd           | Version:  6
     \\/     M anipulation  |
\*---------------------------------------------------------------------------*/
FoamFile
{
    version     2.0;
    format      ascii;
    class       volVectorField;
    location    "31";
    object      U;
}
// * * * * * * * * * * * * * * * * * * * * * * * * * * * * * * * * * * * * * //

dimensions      [0 1 -1 0 0 0 0];

internalField   nonuniform List<vector> 
8800
(
(0.987189 -0.0766663 0)
(1.0019 -0.0551904 0)
(0.999757 -0.0285493 0)
(1.00004 -0.0151406 0)
(1.00004 -0.00853291 0)
(1.00001 -0.00502736 0)
(0.999996 -0.00299302 0)
(0.999986 -0.00171807 0)
(0.999981 -0.000835324 0)
(1.00005 -0.000128293 0)
(0.99999 0.000592604 0)
(1 0.00136249 0)
(1.00001 0.00238858 0)
(1.00002 0.00396836 0)
(1.00003 0.00660513 0)
(1.00006 0.0113507 0)
(0.999973 0.0208006 0)
(0.999177 0.0386594 0)
(1.00709 0.0724519 0)
(0.771215 0.03666 0)
(0.363047 -0.0160196 0)
(1.04329 -0.0768285 0)
(1.08462 -0.0704714 0)
(1.04523 -0.0535741 0)
(1.02327 -0.0389317 0)
(1.01192 -0.0262594 0)
(1.0063 -0.0169116 0)
(1.00349 -0.0104062 0)
(1.00209 -0.00577098 0)
(1.00144 -0.00214818 0)
(1.00133 0.00111187 0)
(1.0017 0.00447333 0)
(1.00266 0.00843624 0)
(1.00464 0.0138199 0)
(1.00859 0.0215617 0)
(1.01659 0.0325404 0)
(1.03256 0.0464665 0)
(1.06273 0.0616008 0)
(1.0919 0.0760472 0)
(0.838754 0.0565415 0)
(0.216776 -0.00243144 0)
(1.07586 -0.0501627 0)
(1.09987 -0.0483518 0)
(1.06459 -0.040506 0)
(1.0399 -0.0336476 0)
(1.02372 -0.0261402 0)
(1.01396 -0.0186228 0)
(1.00844 -0.0118779 0)
(1.00551 -0.00606436 0)
(1.00429 -0.000682499 0)
(1.00466 0.00454998 0)
(1.00663 0.00993268 0)
(1.01062 0.0160459 0)
(1.01793 0.023092 0)
(1.03055 0.0305814 0)
(1.05067 0.0376491 0)
(1.08045 0.0443725 0)
(1.10639 0.0512257 0)
(0.942757 0.0415594 0)
(0.216305 0.00245326 0)
(0.175065 -0.000818923 0)
(1.01756 -0.03553 0)
(1.10516 -0.041458 0)
(1.0782 -0.0361573 0)
(1.05329 -0.0302329 0)
(1.03594 -0.0246829 0)
(1.02373 -0.0190179 0)
(1.01566 -0.0130172 0)
(1.01088 -0.0068956 0)
(1.00878 -0.000640706 0)
(1.00939 0.00553883 0)
(1.01265 0.0115288 0)
(1.01885 0.0174143 0)
(1.02877 0.0230607 0)
(1.04328 0.0284135 0)
(1.06387 0.0339403 0)
(1.09375 0.0399736 0)
(1.09369 0.0417917 0)
(0.827667 0.0228359 0)
(0.174273 0.000843677 0)
(0.153823 -0.000612227 0)
(0.95593 -0.0254998 0)
(1.1033 -0.0352016 0)
(1.08749 -0.0327541 0)
(1.06143 -0.0281333 0)
(1.0438 -0.0231537 0)
(1.03139 -0.0180081 0)
(1.02258 -0.0126011 0)
(1.01684 -0.0067568 0)
(1.01409 -0.00036161 0)
(1.01485 0.00605886 0)
(1.01888 0.0119244 0)
(1.0259 0.017249 0)
(1.03622 0.0222244 0)
(1.05082 0.0270435 0)
(1.07208 0.0316254 0)
(1.10034 0.0356128 0)
(1.06861 0.0337675 0)
(0.740509 0.0142023 0)
(0.152636 0.000640188 0)
(0.139414 -0.000468456 0)
(0.898901 -0.0191126 0)
(1.09556 -0.0301608 0)
(1.09552 -0.0292859 0)
(1.06888 -0.0255553 0)
(1.05036 -0.0214705 0)
(1.03746 -0.016857 0)
(1.02842 -0.0117561 0)
(1.0224 -0.00615453 0)
(1.01941 7.82844e-05 0)
(1.02014 0.00632397 0)
(1.02431 0.0119234 0)
(1.03146 0.016887 0)
(1.04202 0.0213807 0)
(1.05727 0.0254158 0)
(1.07955 0.0289707 0)
(1.10277 0.0317021 0)
(1.03697 0.0277535 0)
(0.674563 0.010061 0)
(0.137745 0.000500625 0)
(0.128845 -0.000362111 0)
(0.849211 -0.0147273 0)
(1.08299 -0.0259994 0)
(1.10102 -0.0263696 0)
(1.07557 -0.0231928 0)
(1.05658 -0.0196483 0)
(1.04325 -0.0155146 0)
(1.03384 -0.010723 0)
(1.02758 -0.00534672 0)
(1.02441 0.000612837 0)
(1.02504 0.00655283 0)
(1.02923 0.0118305 0)
(1.03655 0.0164375 0)
(1.04742 0.0204556 0)
(1.06307 0.023876 0)
(1.08573 0.0268557 0)
(1.10205 0.028661 0)
(1.00269 0.0230931 0)
(0.623577 0.00764613 0)
(0.12659 0.000400172 0)
(0.120793 -0.000280101 0)
(0.807077 -0.0115275 0)
(1.06763 -0.0223164 0)
(1.10436 -0.0235831 0)
(1.08159 -0.0207244 0)
(1.06218 -0.0174474 0)
(1.04858 -0.0138188 0)
(1.03886 -0.00950257 0)
(1.03229 -0.00447865 0)
(1.02888 0.00125163 0)
(1.02939 0.00696437 0)
(1.03361 0.0118672 0)
(1.04109 0.0159233 0)
(1.05214 0.0192731 0)
(1.06806 0.0221836 0)
(1.09109 0.0249625 0)
(1.09869 0.0260194 0)
(0.968455 0.0193656 0)
(0.583075 0.00604446 0)
(0.117828 0.000325654 0)
(0.11458 -0.000215634 0)
(0.77174 -0.00909921 0)
(1.05077 -0.0190512 0)
(1.10661 -0.0211396 0)
(1.08725 -0.0187378 0)
(1.06731 -0.0156136 0)
(1.05341 -0.0121041 0)
(1.04354 -0.0080052 0)
(1.03681 -0.00328742 0)
(1.03319 0.00203816 0)
(1.03355 0.00727822 0)
(1.03766 0.0117582 0)
(1.04508 0.0154005 0)
(1.05619 0.0184474 0)
(1.07246 0.0211334 0)
(1.09532 0.023552 0)
(1.09269 0.023748 0)
(0.935553 0.0163761 0)
(0.550143 0.00490921 0)
(0.110752 0.00027015 0)
(0.109789 -0.000162129 0)
(0.742444 -0.00716434 0)
(1.03359 -0.016022 0)
(1.10764 -0.0185711 0)
(1.09241 -0.0165407 0)
(1.07236 -0.0136223 0)
(1.05824 -0.0102694 0)
(1.04815 -0.00639007 0)
(1.04115 -0.00201119 0)
(1.03727 0.00297156 0)
(1.03743 0.00784692 0)
(1.04146 0.0118216 0)
(1.04884 0.0149936 0)
(1.05998 0.0176744 0)
(1.07638 0.0200197 0)
(1.09815 0.0220585 0)
(1.08445 0.0215858 0)
(0.904835 0.0139568 0)
(0.522888 0.00406715 0)
(0.10491 0.00022852 0)
(0.10615 -0.000118429 0)
(0.71841 -0.00556611 0)
(1.0171 -0.0132707 0)
(1.10803 -0.0160618 0)
(1.09743 -0.0142422 0)
(1.07703 -0.0114106 0)
(1.06264 -0.00828282 0)
(1.05238 -0.0046548 0)
(1.04522 -0.000519076 0)
(1.04116 0.00412107 0)
(1.04101 0.00855925 0)
(1.04474 0.0121223 0)
(1.05196 0.0148687 0)
(1.06309 0.0170644 0)
(1.07975 0.0189841 0)
(1.09987 0.0207175 0)
(1.07472 0.0196598 0)
(0.876558 0.0119987 0)
(0.499994 0.00343339 0)
(0.0999881 0.000198772 0)
(0.103469 -8.01998e-05 0)
(0.699091 -0.00418415 0)
(1.00179 -0.0106724 0)
(1.10766 -0.0136211 0)
(1.10223 -0.0121479 0)
(1.08159 -0.00941633 0)
(1.0668 -0.00631383 0)
(1.05632 -0.00273496 0)
(1.04894 0.00124275 0)
(1.0445 0.00551576 0)
(1.04404 0.00946067 0)
(1.0475 0.012547 0)
(1.05451 0.0148649 0)
(1.0657 0.0167241 0)
(1.08269 0.0184113 0)
(1.10068 0.0196835 0)
(1.06369 0.0179783 0)
(0.850737 0.0104152 0)
(0.4805 0.00295606 0)
(0.0957331 0.000178886 0)
(0.101656 -4.25586e-05 0)
(0.684137 -0.00288986 0)
(0.988287 -0.00808421 0)
(1.10656 -0.0108771 0)
(1.10635 -0.00966071 0)
(1.08595 -0.00707998 0)
(1.07091 -0.00399451 0)
(1.06007 -0.000560983 0)
(1.05225 0.00316319 0)
(1.0474 0.00718639 0)
(1.04649 0.0108054 0)
(1.04969 0.0133977 0)
(1.05664 0.0152176 0)
(1.06778 0.0166669 0)
(1.08471 0.0179073 0)
(1.1002 0.0186432 0)
(1.05168 0.0163024 0)
(0.827384 0.00904266 0)
(0.463775 0.00256277 0)
(0.0919913 0.000163229 0)
(0.100682 -5.19346e-06 0)
(0.673464 -0.00167945 0)
(0.977226 -0.00554263 0)
(1.10545 -0.00792077 0)
(1.11031 -0.00672336 0)
(1.09037 -0.00420657 0)
(1.07507 -0.00127751 0)
(1.06398 0.00204315 0)
(1.05589 0.00561031 0)
(1.05059 0.00925841 0)
(1.04914 0.0123294 0)
(1.05184 0.0143588 0)
(1.05839 0.0156249 0)
(1.06941 0.0164902 0)
(1.08629 0.0171953 0)
(1.09884 0.0175476 0)
(1.03929 0.0147782 0)
(0.80647 0.00791674 0)
(0.449358 0.00226977 0)
(0.0886388 0.000154461 0)
(0.100513 2.31727e-05 0)
(0.666903 -0.000450537 0)
(0.968827 -0.00299014 0)
(1.10461 -0.00493602 0)
(1.11414 -0.00383632 0)
(1.09443 -0.00141129 0)
(1.07871 0.00149484 0)
(1.06731 0.00477821 0)
(1.0588 0.00829068 0)
(1.0529 0.0117713 0)
(1.0508 0.0144838 0)
(1.0529 0.0160738 0)
(1.0591 0.016801 0)
(1.07003 0.0170937 0)
(1.08687 0.0172359 0)
(1.09643 0.0169799 0)
(1.02655 0.0136121 0)
(0.787639 0.00704166 0)
(0.436734 0.00206591 0)
(0.0855293 0.000152737 0)
(0.101216 8.87895e-05 0)
(0.664483 0.000798081 0)
(0.963257 -0.000345107 0)
(1.10392 -0.00167669 0)
(1.11762 -0.000706869 0)
(1.09858 0.00165464 0)
(1.08267 0.00472494 0)
(1.07088 0.00812641 0)
(1.06178 0.0115842 0)
(1.0551 0.0148653 0)
(1.05223 0.017194 0)
(1.0537 0.0181406 0)
(1.05936 0.0183033 0)
(1.06994 0.0180876 0)
(1.08646 0.0176066 0)
(1.09251 0.0165995 0)
(1.0133 0.0125627 0)
(0.770678 0.00634929 0)
(0.425582 0.00191929 0)
(0.0826136 0.000148315 0)
(0.102886 0.000122933 0)
(0.665858 0.00183356 0)
(0.961032 0.00215306 0)
(1.10408 0.00170701 0)
(1.12115 0.00289859 0)
(1.10288 0.0053851 0)
(1.08678 0.00857404 0)
(1.07461 0.0120484 0)
(1.06498 0.0155445 0)
(1.05751 0.0186917 0)
(1.0535 0.0206179 0)
(1.05395 0.0210143 0)
(1.05891 0.0204502 0)
(1.06894 0.0194932 0)
(1.08495 0.0185008 0)
(1.08714 0.0166734 0)
(0.999858 0.0121867 0)
(0.755032 0.00619665 0)
(0.415124 0.00195358 0)
(0.0797871 0.00015411 0)
(0.105463 0.000172612 0)
(0.670963 0.00286534 0)
(0.962224 0.00448984 0)
(1.10573 0.00504668 0)
(1.12513 0.00666765 0)
(1.10737 0.00954608 0)
(1.09092 0.0130861 0)
(1.07815 0.0168143 0)
(1.06764 0.0204314 0)
(1.05901 0.0233835 0)
(1.05379 0.0247971 0)
(1.05321 0.0245717 0)
(1.05737 0.0233423 0)
(1.06696 0.0217576 0)
(1.08227 0.0201166 0)
(1.08064 0.0176933 0)
(0.986072 0.0127059 0)
(0.739692 0.00664302 0)
(0.404276 0.00218307 0)
(0.0767869 0.000173082 0)
(0.108978 0.000224619 0)
(0.679492 0.00388993 0)
(0.966459 0.00666547 0)
(1.1092 0.00827246 0)
(1.1301 0.0104461 0)
(1.11263 0.0138584 0)
(1.09575 0.0179286 0)
(1.08234 0.0221759 0)
(1.07086 0.0261878 0)
(1.06082 0.0291994 0)
(1.05403 0.0302516 0)
(1.05212 0.0294569 0)
(1.05523 0.0275481 0)
(1.06412 0.0253052 0)
(1.0785 0.0229772 0)
(1.07293 0.0197733 0)
(0.971483 0.0141236 0)
(0.723536 0.00763089 0)
(0.392024 0.00256885 0)
(0.0733354 0.000204099 0)
(0.11354 0.000294395 0)
(0.691543 0.00514294 0)
(0.974044 0.00920296 0)
(1.11446 0.0119279 0)
(1.13596 0.0146416 0)
(1.11868 0.0186927 0)
(1.10131 0.0235095 0)
(1.08695 0.0285146 0)
(1.07408 0.033091 0)
(1.06222 0.0363834 0)
(1.05356 0.0372206 0)
(1.05011 0.0357577 0)
(1.05209 0.033079 0)
(1.06021 0.0301221 0)
(1.07334 0.0269299 0)
(1.06353 0.0227557 0)
(0.955434 0.0162752 0)
(0.705472 0.00901798 0)
(0.377625 0.00305852 0)
(0.069238 0.000242834 0)
(0.119497 0.00039247 0)
(0.707692 0.00680514 0)
(0.985556 0.0124063 0)
(1.12213 0.016559 0)
(1.14309 0.0202777 0)
(1.12593 0.0252825 0)
(1.108 0.0309975 0)
(1.09245 0.0368235 0)
(1.07783 0.0419332 0)
(1.06378 0.0452663 0)
(1.05276 0.0455832 0)
(1.04741 0.0433018 0)
(1.04794 0.0397187 0)
(1.05504 0.0356573 0)
(1.06657 0.0315411 0)
(1.05231 0.0263577 0)
(0.937608 0.019043 0)
(0.684539 0.0106644 0)
(0.360615 0.00360109 0)
(0.0643839 0.000285143 0)
(0.127375 0.000536394 0)
(0.728892 0.00913519 0)
(1.00185 0.0166053 0)
(1.13337 0.0224617 0)
(1.15255 0.0277742 0)
(1.13481 0.0341949 0)
(1.11584 0.0410894 0)
(1.09859 0.0477516 0)
(1.08162 0.0532101 0)
(1.0648 0.0561869 0)
(1.05107 0.0554144 0)
(1.04363 0.0517639 0)
(1.04258 0.0469395 0)
(1.04845 0.0421181 0)
(1.05819 0.0371664 0)
(1.03948 0.0311158 0)
(0.917082 0.0226389 0)
(0.65977 0.0125199 0)
(0.340711 0.00420051 0)
(0.0587463 0.000329421 0)
(0.137961 0.000748481 0)
(0.75645 0.0124546 0)
(1.02354 0.022148 0)
(1.14891 0.0298066 0)
(1.16532 0.037099 0)
(1.14589 0.0452644 0)
(1.12504 0.0536515 0)
(1.1053 0.0612426 0)
(1.08535 0.0670451 0)
(1.06511 0.0695904 0)
(1.04821 0.0676874 0)
(1.03838 0.062576 0)
(1.0358 0.0562361 0)
(1.04073 0.0501606 0)
(1.04872 0.044705 0)
(1.02457 0.0374978 0)
(0.892078 0.0268747 0)
(0.630553 0.0146135 0)
(0.31758 0.00487547 0)
(0.0522535 0.000376129 0)
(0.152444 0.00108521 0)
(0.792243 0.0174164 0)
(1.05157 0.0298798 0)
(1.16897 0.0394094 0)
(1.18171 0.048654 0)
(1.15968 0.0587972 0)
(1.13581 0.0686806 0)
(1.1127 0.07738 0)
(1.08907 0.0836673 0)
(1.06483 0.0859635 0)
(1.04439 0.0832161 0)
(1.03185 0.0770006 0)
(1.02736 0.0694698 0)
(1.03138 0.0620681 0)
(1.03758 0.0550864 0)
(1.00492 0.045418 0)
(0.861111 0.0315307 0)
(0.596614 0.0170436 0)
(0.290845 0.0056401 0)
(0.0448673 0.000423151 0)
(0.172931 0.00168462 0)
(0.839608 0.0252012 0)
(1.08826 0.0415536 0)
(1.19365 0.0535377 0)
(1.20153 0.064711 0)
(1.17571 0.0764629 0)
(1.14803 0.0876956 0)
(1.12081 0.0973469 0)
(1.09277 0.1039 0)
(1.06406 0.105699 0)
(1.03979 0.101858 0)
(1.02434 0.0944493 0)
(1.01752 0.0857126 0)
(1.01963 0.0767309 0)
(1.02172 0.0668687 0)
(0.978218 0.0536407 0)
(0.824415 0.0367192 0)
(0.5577 0.0199088 0)
(0.260184 0.0064685 0)
(0.0366202 0.00046344 0)
(0.202704 0.0030208 0)
(0.904258 0.0385424 0)
(1.13674 0.0608491 0)
(1.22285 0.0757461 0)
(1.22378 0.0888434 0)
(1.19335 0.101664 0)
(1.16124 0.11357 0)
(1.12908 0.123162 0)
(1.09596 0.12884 0)
(1.06236 0.129007 0)
(1.03404 0.12306 0)
(1.01547 0.113633 0)
(1.00585 0.102954 0)
(1.00431 0.0916008 0)
(0.999524 0.0785104 0)
(0.945158 0.0621621 0)
(0.782782 0.0428652 0)
(0.513438 0.0233035 0)
(0.225933 0.00736991 0)
(0.0278255 0.000490704 0)
(0.243609 0.00924043 3.07514e-20)
(0.990072 0.0652811 2.5952e-20)
(1.19504 0.0942128 -8.8082e-21)
(1.25494 0.110413 0)
(1.24635 0.125881 -1.98569e-34)
(1.21094 0.138208 2.83759e-21)
(1.17392 0.148992 -4.74043e-21)
(1.13624 0.156809 0)
(1.09756 0.160127 8.92667e-35)
(1.05859 0.157303 -5.11206e-21)
(1.02568 0.148109 0)
(1.00331 0.135683 -5.7381e-21)
(0.989896 0.12226 -1.67104e-20)
(0.9827 0.108125 -7.82421e-21)
(0.969722 0.0927799 -2.3209e-21)
(0.905175 0.0750543 -1.37099e-21)
(0.73214 0.0527358 0)
(0.459604 0.0287101 9.5998e-22)
(0.188557 0.0096173 1.13757e-21)
(0.0196594 0.000871077 2.07839e-20)
(0.270944 0.0247028 2.76901e-20)
(1.06059 0.107656 1.03443e-22)
(1.24223 0.142213 2.58562e-21)
(1.28445 0.15935 0)
(1.26622 0.174503 -1.08222e-20)
(1.22612 0.185121 -1.18107e-20)
(1.18409 0.193916 -4.96232e-21)
(1.14079 0.199362 -1.64731e-20)
(1.09616 0.199872 0)
(1.05099 0.19351 2.18584e-20)
(1.01214 0.180328 2.10483e-20)
(0.984283 0.164188 6.12219e-21)
(0.965088 0.147571 2.1698e-20)
(0.950528 0.130896 2.99035e-20)
(0.9282 0.113804 0)
(0.855362 0.0946901 4.16897e-20)
(0.674779 0.0681674 5.98788e-20)
(0.406101 0.0385153 6.66769e-20)
(0.157314 0.0139116 -7.65335e-20)
(0.0135593 0.00122409 -1.45728e-21)
(0.27105 0.0407204 0)
(1.10455 0.162903 6.01548e-21)
(1.27457 0.20141 0)
(1.30719 0.219293 -1.74732e-20)
(1.2817 0.231508 0)
(1.23737 0.238938 -2.45761e-20)
(1.1905 0.244302 1.04462e-20)
(1.14178 0.246195 -3.44267e-20)
(1.09145 0.242851 -3.16749e-22)
(1.04022 0.232273 1.15412e-20)
(0.995567 0.214891 4.57369e-20)
(0.962514 0.195378 -6.29995e-23)
(0.938273 0.176332 -1.56509e-20)
(0.918653 0.158383 -2.79082e-20)
(0.891869 0.140697 3.28653e-20)
(0.818706 0.119872 -5.81454e-20)
(0.643154 0.0884808 -7.68041e-21)
(0.389228 0.0523232 0)
(0.157086 0.0207808 4.38824e-24)
(0.0148935 0.00204496 0)
(0.264132 0.054529 1.11036e-19)
(1.12779 0.22181 -4.88882e-20)
(1.295 0.265616 -3.11042e-20)
(1.32184 0.283937 9.05702e-21)
(1.29128 0.292848 -1.476e-20)
(1.24362 0.296574 5.22732e-20)
(1.19269 0.297923 2.21775e-20)
(1.13924 0.295667 0)
(1.08375 0.288023 -6.08705e-20)
(1.02705 0.272962 0)
(0.977116 0.251544 -2.42889e-20)
(0.939512 0.229105 -2.87743e-20)
(0.911376 0.208276 -1.69338e-20)
(0.888445 0.189295 -2.01309e-20)
(0.859798 0.170903 0)
(0.790828 0.14797 0)
(0.627499 0.112917 -4.99326e-20)
(0.392537 0.07096 9.86777e-21)
(0.169129 0.0305885 -5.81666e-21)
(0.0192801 0.00368872 -6.88751e-21)
(0.256776 0.0668813 -6.73413e-20)
(1.13767 0.280539 0)
(1.30641 0.330885 7.50053e-20)
(1.3294 0.349687 2.81894e-20)
(1.29516 0.3554 3.22489e-20)
(1.24487 0.355465 0)
(1.19065 0.35281 2.29916e-20)
(1.1333 0.346323 3.89655e-20)
(1.07342 0.334325 3.1994e-20)
(1.01189 0.314817 5.3685e-20)
(0.957464 0.289528 0)
(0.916141 0.264423 -6.18949e-20)
(0.885023 0.241983 -3.6461e-20)
(0.859846 0.222158 -2.13581e-20)
(0.830442 0.203107 1.28229e-19)
(0.765473 0.179127 1.52267e-20)
(0.617597 0.140529 7.19027e-20)
(0.40029 0.0921688 -3.40923e-19)
(0.183191 0.0426619 2.02352e-19)
(0.0242512 0.00592479 -2.47022e-19)
(0.250163 0.0780767 -6.0966e-20)
(1.13923 0.33733 1.29256e-20)
(1.31118 0.395321 -1.09187e-20)
(1.33136 0.414711 -3.75891e-20)
(1.29427 0.417426 -3.25225e-20)
(1.24181 0.414003 3.48994e-22)
(1.1849 0.407544 -2.4719e-20)
(1.12432 0.397026 4.11661e-20)
(1.06073 0.380845 -6.86658e-20)
(0.995118 0.35704 0)
(0.936863 0.328017 -2.85605e-20)
(0.89258 0.300328 -3.19193e-22)
(0.85923 0.276287 -3.94674e-20)
(0.832509 0.255561 0)
(0.802984 0.235716 -2.76153e-20)
(0.742553 0.210501 -6.54693e-20)
(0.608222 0.169027 1.75208e-19)
(0.406577 0.114127 -1.72883e-19)
(0.194413 0.0553932 2.46055e-19)
(0.0283389 0.00835635 -2.58949e-19)
(0.244886 0.0885542 -1.0468e-22)
(1.13573 0.391547 -1.29555e-20)
(1.31125 0.458374 -4.46615e-20)
(1.329 0.478004 1.92306e-20)
(1.28965 0.477979 -1.71521e-20)
(1.23536 0.471293 0)
(1.17618 0.461296 -2.5224e-20)
(1.11285 0.447016 -4.36785e-20)
(1.04609 0.426885 -3.62945e-20)
(0.976966 0.39897 0)
(0.915469 0.366309 -3.00933e-20)
(0.868784 0.336012 -3.57295e-20)
(0.833779 0.310241 4.25096e-20)
(0.806019 0.288454 -2.52753e-20)
(0.77668 0.267933 -1.19338e-19)
(0.720034 0.241431 7.09055e-20)
(0.597075 0.197374 2.12122e-20)
(0.407623 0.135772 0)
(0.200175 0.0675264 -2.35938e-19)
(0.0309359 0.0106544 -8.74609e-21)
(0.240926 0.0986128 -8.07153e-21)
(1.12918 0.443055 1.33037e-20)
(1.30766 0.519079 2.3617e-20)
(1.32334 0.538983 6.26133e-20)
(1.28214 0.536498 -7.11085e-20)
(1.22632 0.526835 6.22772e-20)
(1.1652 0.513582 5.40643e-20)
(1.09948 0.495833 -6.99667e-20)
(1.02992 0.472004 2.0661e-20)
(0.957692 0.440153 -1.31739e-19)
(0.893387 0.403906 -3.30838e-20)
(0.844691 0.370903 0)
(0.808469 0.343257 4.5767e-20)
(0.780115 0.320165 5.3992e-20)
(0.751218 0.298706 6.39651e-20)
(0.697873 0.270691 -7.63647e-20)
(0.58328 0.223872 -2.26203e-20)
(0.402859 0.155319 2.67301e-20)
(0.199912 0.0776478 0)
(0.0317012 0.0124238 -1.88252e-20)
(0.238103 0.10834 8.16125e-20)
(1.1211 0.491925 -5.45812e-20)
(1.30145 0.577055 -2.48881e-20)
(1.3152 0.597334 4.35654e-20)
(1.27247 0.592645 -3.68135e-20)
(1.21535 0.580293 -8.10216e-22)
(1.15256 0.564112 -5.82122e-20)
(1.08474 0.543198 -2.5084e-20)
(1.01266 0.515928 -6.26068e-20)
(0.937589 0.480331 4.69099e-23)
(0.870705 0.44051 -1.04804e-19)
(0.82033 0.404653 8.38936e-20)
(0.783162 0.374866 -4.95824e-20)
(0.754525 0.35022 5.86108e-20)
(0.726143 0.32748 0)
(0.675366 0.297673 -4.10587e-20)
(0.566885 0.247363 -1.75091e-22)
(0.39294 0.171556 -1.15267e-19)
(0.195227 0.0851709 -1.70568e-20)
(0.0310429 0.0135533 0)
(0.236305 0.11792 0)
(1.11229 0.53839 -5.76331e-20)
(1.29332 0.632244 -5.09506e-20)
(1.30526 0.652923 -4.56267e-20)
(1.26123 0.646243 -4.06263e-20)
(1.20299 0.631495 0)
(1.13874 0.612697 -2.95576e-20)
(1.06906 0.588924 -2.39973e-22)
(0.994683 0.558506 1.33951e-19)
(0.916941 0.519361 -1.84791e-20)
(0.847638 0.475994 -7.51825e-20)
(0.795665 0.437129 4.42309e-20)
(0.757759 0.404954 -4.07112e-22)
(0.72894 0.378421 6.24609e-20)
(0.701031 0.354054 3.76307e-20)
(0.652119 0.322014 -8.83055e-20)
(0.547725 0.267564 1.04729e-19)
(0.378519 0.184399 3.10289e-20)
(0.186367 0.0898823 1.28603e-19)
(0.0290586 0.0139588 -3.48206e-19)
(0.235377 0.127476 1.70155e-20)
(1.10333 0.582588 -2.91536e-20)
(1.28391 0.684682 2.47631e-20)
(1.29407 0.705711 4.71273e-20)
(1.2489 0.697221 0)
(1.18969 0.680344 -3.54748e-20)
(1.12417 0.659228 9.60779e-20)
(1.05281 0.632907 5.63727e-20)
(0.97631 0.599642 0)
(0.895997 0.557185 -2.60944e-19)
(0.824294 0.510312 2.01965e-19)
(0.770755 0.468315 0)
(0.732075 0.433462 5.72741e-20)
(0.703135 0.404766 -4.0465e-22)
(0.675627 0.378412 -1.20319e-19)
(0.627941 0.343649 4.71533e-20)
(0.526123 0.284209 0)
(0.360495 0.193531 1.667e-19)
(0.174313 0.0922113 0)
(0.026262 0.0137619 -1.63842e-19)
(0.235148 0.137012 -1.74977e-20)
(1.09455 0.624669 -2.95262e-20)
(1.27361 0.734378 2.68317e-20)
(1.28205 0.755694 0)
(1.23588 0.745576 -4.39033e-20)
(1.17584 0.726819 0)
(1.10919 0.703654 -1.00261e-19)
(1.03631 0.67508 -2.86306e-20)
(0.9578 0.639284 2.46964e-20)
(0.874964 0.593787 -1.28906e-19)
(0.800781 0.543507 2.12231e-20)
(0.745532 0.498236 0)
(0.705999 0.460493 -1.22391e-19)
(0.67692 0.42932 4.14216e-22)
(0.649676 0.400613 0)
(0.6026 0.362598 4.56689e-22)
(0.502058 0.297377 1.51131e-19)
(0.339202 0.198916 -1.4346e-19)
(0.159859 0.0920558 4.24854e-20)
(0.0229129 0.0129872 0)
(0.235275 0.146407 0)
(1.08614 0.664653 -3.02816e-20)
(1.26282 0.781413 -2.67715e-20)
(1.26954 0.802929 -4.61846e-22)
(1.22249 0.791332 -2.20689e-20)
(1.16172 0.770921 -8.05954e-20)
(1.09407 0.745962 3.62359e-20)
(1.01979 0.715421 -3.1692e-20)
(0.939382 0.677401 1.07438e-19)
(0.854014 0.629166 -2.0617e-19)
(0.777175 0.57564 -6.84835e-22)
(0.720021 0.527024 -5.51493e-20)
(0.679532 0.486132 1.97474e-19)
(0.650209 0.452209 -4.87886e-22)
(0.62308 0.420771 -9.26132e-20)
(0.576021 0.378869 -1.64795e-19)
(0.475806 0.30712 0)
(0.315256 0.200769 0)
(0.143614 0.0894487 4.57023e-20)
(0.0192283 0.011715 -2.70954e-20)
(0.235908 0.155759 -1.82694e-20)
(1.0782 0.702537 6.31668e-20)
(1.25176 0.825871 2.85314e-20)
(1.25678 0.847481 0)
(1.20897 0.834547 -3.22417e-22)
(1.14757 0.812683 -8.33968e-20)
(1.07904 0.786165 9.39645e-20)
(1.00349 0.753928 1.31506e-19)
(0.921251 0.713997 1.41853e-19)
(0.833333 0.663362 -1.69952e-19)
(0.753671 0.606821 -1.7293e-19)
(0.694359 0.554844 1.47461e-19)
(0.652622 0.51058 0)
(0.622913 0.473567 -4.21837e-20)
(0.595727 0.438979 -9.977e-20)
(0.548117 0.392507 -1.18023e-19)
(0.447082 0.313315 -1.40077e-19)
(0.289112 0.199101 4.1508e-20)
(0.125958 0.0844588 -2.45356e-20)
(0.0152761 0.00997008 6.76038e-23)
(0.236712 0.164894 0)
(1.07077 0.738741 0)
(1.24059 0.867829 5.44703e-22)
(1.24399 0.889432 0)
(1.19551 0.875303 7.25298e-20)
(1.13357 0.852166 6.4812e-20)
(1.06428 0.824293 0)
(0.987558 0.790616 1.68625e-20)
(0.903586 0.749082 2.40004e-19)
(0.813122 0.696416 -3.89917e-19)
(0.730456 0.637164 0)
(0.668586 0.581874 -9.46874e-20)
(0.625254 0.534027 -5.94064e-22)
(0.594936 0.493525 -4.84289e-22)
(0.567546 0.455267 1.06657e-19)
(0.518918 0.403414 -8.07717e-23)
(0.416329 0.315916 -3.00921e-19)
(0.260795 0.193802 8.91628e-20)
(0.107521 0.0774004 2.64388e-20)
(0.0113523 0.00792532 0)
(0.237498 0.173859 5.70934e-20)
(1.06359 0.773244 3.33971e-20)
(1.22944 0.907358 5.99793e-20)
(1.23133 0.92888 -1.10935e-19)
(1.18227 0.913664 1.25912e-19)
(1.11988 0.889424 0)
(1.04992 0.860391 6.20982e-20)
(0.972147 0.82551 -3.65286e-20)
(0.886535 0.782677 7.8094e-22)
(0.79355 0.728365 2.82023e-20)
(0.70766 0.666758 2.24691e-19)
(0.642838 0.608326 -3.34629e-20)
(0.597432 0.556705 -1.21272e-19)
(0.566154 0.512245 -4.87929e-20)
(0.538374 0.469567 5.7671e-20)
(0.488398 0.411314 -5.02418e-23)
(0.384027 0.314654 8.09552e-20)
(0.231346 0.185023 -1.91506e-19)
(0.0890642 0.0686977 2.272e-19)
(0.00760211 0.00570302 3.35665e-20)
(0.238023 0.182545 -1.94448e-20)
(1.05672 0.806119 1.72919e-20)
(1.21843 0.944569 1.26722e-21)
(1.21889 0.965942 -5.67822e-20)
(1.16935 0.949735 -2.55395e-20)
(1.10658 0.924525 -1.21517e-19)
(1.03607 0.894506 2.10416e-20)
(0.95736 0.858633 -1.54823e-19)
(0.870223 0.814782 -2.70022e-19)
(0.774737 0.759209 -2.35009e-19)
(0.685459 0.695675 0)
(0.617277 0.634376 -1.44948e-19)
(0.569207 0.578936 1.73827e-19)
(0.536383 0.529971 0)
(0.5079 0.481761 -1.23427e-19)
(0.45646 0.415695 7.34576e-20)
(0.350591 0.309072 -8.68616e-20)
(0.201907 0.172958 -1.02942e-19)
(0.0715347 0.0588962 -1.82839e-19)
(0.00425468 0.00348553 -1.44349e-19)
(0.238852 0.191041 1.9818e-20)
(1.05 0.837341 -1.84765e-20)
(1.20762 0.979523 -4.67488e-20)
(1.20677 1.0007 -7.40194e-20)
(1.15682 0.9836 5.5259e-20)
(1.09376 0.95755 -7.57463e-20)
(1.02281 0.926685 6.80635e-20)
(0.943275 0.890026 -1.6325e-19)
(0.854718 0.845417 -1.61265e-19)
(0.75681 0.788961 2.48487e-19)
(0.664026 0.72397 4.95033e-19)
(0.592074 0.660169 0)
(0.540675 0.601039 0)
(0.505422 0.547098 -5.60535e-20)
(0.475554 0.491769 0)
(0.422677 0.415648 1.57893e-19)
(0.316629 0.298141 1.86734e-19)
(0.174171 0.157491 0)
(0.0562903 0.0485858 0)
(0.00151258 0.00146024 1.54999e-19)
(0.239282 0.199015 -2.00569e-20)
(1.04346 0.866901 -1.66775e-20)
(1.19709 1.01233 -3.29008e-20)
(1.19501 1.03327 6.07986e-20)
(1.14475 1.01536 5.75479e-20)
(1.08148 0.988568 9.19439e-20)
(1.01018 0.956989 -9.60668e-20)
(0.929942 0.919716 6.37971e-23)
(0.840094 0.874585 -1.0141e-21)
(0.739871 0.81762 -1.16888e-21)
(0.643527 0.751676 2.55416e-19)
(0.567423 0.685818 0)
(0.512026 0.623313 1.74801e-19)
(0.473141 0.564179 1.19604e-19)
(0.440483 0.499886 2.86081e-19)
(0.385865 0.410125 8.47727e-20)
(0.282445 0.279575 -1.00553e-19)
(0.151441 0.13671 -5.92787e-20)
(0.0476237 0.0373925 0)
(0.00034458 -0.000126472 1.66424e-19)
(0.240022 0.206967 4.03609e-20)
(1.03708 0.89494 0)
(1.18683 1.04305 -3.31434e-20)
(1.18365 1.06374 4.76244e-20)
(1.13319 1.04509 -5.91046e-20)
(1.06976 1.01766 -1.22744e-19)
(0.998219 0.985469 2.00757e-19)
(0.917393 0.947738 -1.23219e-20)
(0.82639 0.902299 0)
(0.723992 0.845147 -2.79219e-19)
(0.624109 0.778791 -5.59259e-19)
(0.543553 0.711405 2.16929e-20)
(0.483546 0.645975 2.40198e-19)
(0.439595 0.581848 0)
(0.401777 0.5071 1.9217e-19)
(0.343597 0.398957 0)
(0.245443 0.24964 0)
(0.136742 0.100107 -6.40316e-20)
(0.066999 0.0120346 0)
(0.0244078 0.0057798 4.46013e-20)
(0.240286 0.214295 4.09208e-20)
(1.03084 0.921676 0)
(1.17684 1.07187 -5.05659e-20)
(1.17265 1.09233 0)
(1.12207 1.07306 2.97586e-20)
(1.05854 1.0451 0)
(0.986861 1.01243 1.22148e-20)
(0.905534 0.974432 2.32405e-20)
(0.81349 0.928929 2.04257e-20)
(0.709021 0.871932 -3.09887e-19)
(0.605643 0.805764 1.72949e-20)
(0.520293 0.737505 1.72387e-19)
(0.454986 0.669626 2.34238e-19)
(0.40425 0.60102 3.09455e-20)
(0.357956 0.515424 1.49784e-19)
(0.291764 0.384394 0)
(0.194947 0.208981 2.10912e-19)
(0.101827 0.0416954 -1.24312e-19)
(0.03496 0.0577655 1.45749e-19)
(-0.037463 0.442691 -1.73039e-19)
(0.240459 0.221406 -3.14786e-20)
(1.02455 0.947001 -5.44062e-20)
(1.16705 1.09913 0)
(1.16189 1.11948 1.10286e-21)
(1.11125 1.09983 -7.59922e-20)
(1.04757 1.07159 2.12635e-19)
(0.975807 1.03868 7.78616e-20)
(0.893978 1.00074 0)
(0.800888 0.955579 1.42371e-19)
(0.694311 0.899289 -1.6954e-20)
(0.587258 0.834088 0)
(0.496511 0.765913 0)
(0.424962 0.696084 2.09329e-19)
(0.365525 0.623255 -9.45501e-20)
(0.306568 0.528012 -1.50728e-19)
(0.226567 0.372051 0)
(0.10935 0.195974 1.06541e-19)
(0.0117754 0.458669 -1.24885e-19)
(0.0359508 1.8967 -7.1767e-20)
(0.0636422 2.80842 -8.67981e-20)
(0.240265 0.227912 2.07212e-20)
(1.01825 0.971091 6.45426e-20)
(1.15747 1.1248 -2.70065e-20)
(1.15139 1.14504 -3.34485e-20)
(1.10078 1.12521 0)
(1.03694 1.09683 1.45611e-19)
(0.965249 1.0639 1.18186e-19)
(0.882899 1.02624 -1.20209e-20)
(0.788847 0.981728 2.09921e-20)
(0.680234 0.926599 3.0037e-19)
(0.569561 0.863054 2.87477e-19)
(0.473202 0.796255 1.9458e-19)
(0.394605 0.724967 2.1018e-19)
(0.325459 0.647108 -2.20908e-19)
(0.25447 0.547197 -2.26558e-19)
(0.147338 0.404297 0)
(0.0515143 0.861521 0)
(0.098976 2.56062 6.06083e-20)
(0.101718 3.19816 0)
(0.102372 3.38421 1.62343e-19)
(0.242829 0.233925 0)
(1.01217 0.994261 0)
(1.14784 1.14876 0)
(1.14091 1.16883 -8.1509e-21)
(1.09039 1.14897 -6.58554e-20)
(1.02642 1.12068 1.03342e-19)
(0.95511 1.08798 8.06001e-20)
(0.872227 1.05079 -1.21928e-20)
(0.7773 1.0072 1.86833e-19)
(0.66678 0.953697 -2.06959e-21)
(0.552636 0.892436 5.7471e-19)
(0.450797 0.828534 -2.2105e-20)
(0.364269 0.756723 2.58484e-20)
(0.286237 0.670207 3.17748e-20)
(0.196223 0.572831 -1.35512e-23)
(0.1107 1.00316 3.29429e-22)
(0.140442 2.72435 -3.10606e-19)
(0.148376 3.29404 -1.20083e-19)
(0.136101 3.42444 6.69655e-20)
(0.122577 3.44536 -7.71414e-20)
(0.164626 0.178485 -1.03027e-20)
(1.00175 1.01929 0)
(1.1381 1.17126 4.60087e-20)
(1.13085 1.19115 7.9058e-20)
(1.08053 1.17159 -1.22849e-19)
(1.01666 1.14358 -1.06718e-19)
(0.945177 1.11096 -8.97388e-20)
(0.861996 1.07443 1.57169e-19)
(0.766369 1.03202 -1.5856e-19)
(0.654227 0.980587 0)
(0.536854 0.922159 2.88149e-19)
(0.429828 0.862495 -1.61026e-19)
(0.334579 0.794144 0)
(0.247142 0.69895 3.09141e-20)
(0.158453 0.856181 7.3185e-20)
(0.154671 2.50727 -8.54571e-20)
(0.210252 3.32848 9.88762e-20)
(0.189304 3.44022 5.57465e-20)
(0.156303 3.45925 6.51259e-20)
(0.134844 3.46781 1.09622e-19)
(0.277972 0.272586 2.16462e-20)
(0.984995 1.02975 0)
(1.12049 1.19693 -4.25201e-20)
(1.11685 1.22445 -7.39205e-20)
(1.06487 1.20535 1.17343e-19)
(1.00054 1.17785 1.01158e-19)
(0.92806 1.14657 1.16729e-19)
(0.844232 1.11128 1.19722e-20)
(0.747271 1.07104 1.60985e-19)
(0.632436 1.02357 2.77681e-19)
(0.510089 0.971151 1.70589e-20)
(0.395406 0.9198 1.4631e-19)
(0.282005 0.862397 2.49524e-20)
(0.217869 1.02175 -3.01402e-20)
(0.225797 2.37172 -6.97227e-20)
(0.279079 3.33662 7.49479e-20)
(0.263263 3.47219 -8.54881e-20)
(0.227106 3.49036 -5.01747e-20)
(0.191189 3.51414 -5.23636e-20)
(0.144013 3.50702 -7.45556e-21)
(0.268105 0.271469 0)
(0.982442 1.05262 -7.65383e-21)
(1.11253 1.22042 7.28162e-21)
(1.10706 1.24772 7.13483e-21)
(1.05489 1.22854 7.21094e-20)
(0.990661 1.20129 -9.57435e-20)
(0.917872 1.17025 -7.32218e-20)
(0.833905 1.13581 1.13658e-20)
(0.736551 1.09705 -1.73442e-19)
(0.620676 1.05245 -2.99506e-21)
(0.49603 1.00467 -5.40583e-19)
(0.377518 0.959044 2.07203e-20)
(0.271492 0.936556 -2.41189e-20)
(0.254476 1.55198 -2.87339e-20)
(0.317161 3.124 3.65692e-21)
(0.334757 3.47617 4.7619e-22)
(0.291591 3.52623 1.48725e-19)
(0.255813 3.54626 8.26045e-20)
(0.2083 3.56556 -4.01841e-20)
(0.15579 3.5602 -4.54062e-20)
(0.253787 0.269229 -1.53672e-20)
(0.978933 1.07803 -4.77142e-20)
(1.10415 1.24594 2.03274e-20)
(1.09686 1.27254 2.7135e-20)
(1.04456 1.2532 0)
(0.980447 1.22596 -1.24016e-19)
(0.907605 1.1952 -1.02628e-19)
(0.823759 1.16154 1.07357e-20)
(0.726324 1.12433 -1.89104e-20)
(0.609933 1.08277 -2.69229e-19)
(0.48382 1.0401 -2.57995e-19)
(0.363791 1.00165 -1.77324e-19)
(0.277622 1.07726 -1.85329e-19)
(0.318222 2.25649 1.88888e-19)
(0.397882 3.3974 1.74626e-19)
(0.374717 3.53764 0)
(0.323447 3.57336 0)
(0.285739 3.6063 -3.32886e-20)
(0.237034 3.65334 0)
(0.165564 3.63282 -6.52495e-20)
(0.243503 0.270855 1.84815e-20)
(0.973408 1.10428 3.47703e-20)
(1.09442 1.27269 0)
(1.08549 1.29827 1.32086e-21)
(1.03311 1.27853 6.02027e-20)
(0.969224 1.25119 -1.72587e-19)
(0.896646 1.2207 -6.38843e-20)
(0.813148 1.18772 9.43198e-21)
(0.715891 1.152 -1.38315e-19)
(0.599397 1.11344 1.47255e-20)
(0.472577 1.07606 0)
(0.354408 1.0484 0)
(0.307121 1.33835 -1.75819e-19)
(0.395813 2.92549 7.39382e-20)
(0.465697 3.5058 1.05411e-19)
(0.413506 3.57511 0)
(0.369976 3.62894 -4.61592e-20)
(0.32495 3.67739 4.44043e-20)
(0.274126 3.64424 1.1453e-20)