/*--------------------------------*- C++ -*----------------------------------*\
  =========                 |
  \\      /  F ield         | OpenFOAM: The Open Source CFD Toolbox
   \\    /   O peration     | Website:  https://openfoam.org
    \\  /    A nd           | Version:  6
     \\/     M anipulation  |
\*---------------------------------------------------------------------------*/
FoamFile
{
    version     2.0;
    format      ascii;
    class       surfaceScalarField;
    location    "26.7";
    object      phi;
}
// * * * * * * * * * * * * * * * * * * * * * * * * * * * * * * * * * * * * * //

dimensions      [0 3 -1 0 0 0 0];

internalField   nonuniform List<scalar> 
17370
(
-0.0900011
0.0898494
0.289163
-0.0714625
0.0537515
0.364487
-0.0381166
0.0276851
0.4266
-0.019629
0.0145913
0.504289
-0.0107438
0.00824792
0.601898
-0.00624386
0.00486873
0.720433
-0.00371368
0.00288593
0.863734
-0.00216057
0.00161555
1.036
-0.00111121
0.000708503
1.24291
-0.000307758
-6.60348e-05
1.49156
0.000436695
-0.000841723
1.4916
0.00124177
-0.00173854
1.24319
0.00227587
-0.00299172
1.03635
0.00380955
-0.00495432
0.864051
0.0063217
-0.00831816
0.721054
0.0108068
-0.0146464
0.603054
0.0196775
-0.0277271
0.507489
0.038153
-0.0537819
0.431797
0.0714873
-0.089866
0.365154
0.090011
0.199
-0.12813
0.0882185
0.0399113
-0.364591
0.353367
-0.0746788
0.0859032
-0.446471
0.454309
-0.0844023
0.0765646
-0.521186
0.529887
-0.0684733
0.059772
-0.61278
0.621555
-0.0515912
0.0428165
-0.726884
0.734146
-0.0353586
0.0280958
-0.867463
0.872564
-0.0225041
0.0174028
-1.03845
1.04189
-0.0136041
0.0101712
-1.2446
1.247
-0.00758204
0.005185
-1.49265
1.49459
-0.00327257
0.00133624
-1.49248
1.49419
0.00033451
-0.00204091
-1.24399
1.24587
0.00393108
-0.00581092
-1.0375
1.04005
0.00817588
-0.0107315
-0.86609
0.869852
0.0141247
-0.0178864
-0.724398
0.729952
0.0229463
-0.0284997
-0.608706
0.616129
0.0357214
-0.0431437
-0.514908
0.523057
0.0518818
-0.0600308
-0.439865
0.44793
0.0686987
-0.0767641
-0.375302
0.376766
0.0845714
-0.0860355
-0.257347
0.222525
0.0747684
-0.0399459
-0.0685037
0.0586741
0.00982953
-0.0518334
0.0584255
-0.374109
0.367517
-0.0575133
0.0537595
-0.453577
0.457331
-0.0486581
0.0446911
-0.527916
0.531883
-0.0408335
0.0371809
-0.621526
0.625179
-0.0330704
0.0290078
-0.735305
0.739368
-0.0244805
0.0203821
-0.8743
0.878398
-0.0161239
0.0125048
-1.04345
1.04707
-0.00884424
0.00571851
-1.24853
1.25166
-0.00241662
-0.000663419
-1.49663
1.49971
0.0037304
-0.00698493
-1.49721
1.50046
0.0100525
-0.0136323
-1.25009
1.25367
0.0171723
-0.0213441
-1.04595
1.05012
0.0253645
-0.0298108
-0.877791
0.882238
0.0338047
-0.0378436
-0.739934
0.743973
0.0414341
-0.0452278
-0.626806
0.6306
0.0491413
-0.0541924
-0.534842
0.539893
0.0578924
-0.0587384
-0.457518
0.458364
0.0520696
-0.0319242
-0.335826
0.31568
0.00986828
-0.0683969
0.0585286
-0.0529209
0.0489257
0.00399519
-0.0331693
0.0437245
-0.358074
0.347518
-0.0474379
0.0468301
-0.459256
0.459864
-0.0437993
0.0404728
-0.535771
0.539097
-0.0367269
0.0334424
-0.628484
0.631769
-0.030019
0.0269922
-0.742581
0.745608
-0.0237373
0.0206385
-0.881903
0.885002
-0.0171303
0.0137845
-1.05063
1.05398
-0.0100528
0.00658926
-1.25504
1.25851
-0.00273653
-0.000947107
-1.50318
1.50687
0.00460991
-0.00841299
-1.50409
1.50789
0.0118043
-0.0154358
-1.25739
1.26102
0.0186796
-0.0220712
-1.05393
1.05732
0.0250663
-0.0282091
-0.885762
0.888905
0.0311352
-0.034453
-0.747273
0.75059
0.037646
-0.0412987
-0.634417
0.638069
0.0445473
-0.0474921
-0.54423
0.547175
0.0480125
-0.0441789
-0.456691
0.452858
0.0334829
-0.0161267
-0.296391
0.279035
0.00404239
-0.0527333
0.0486909
-0.0458457
0.0433535
0.00249217
-0.0227846
0.0331558
-0.336821
0.32645
-0.0389691
0.0399782
-0.459526
0.458517
-0.0387782
0.0364833
-0.541773
0.544068
-0.0338115
0.0312264
-0.634768
0.637353
-0.028206
0.0253743
-0.748622
0.751454
-0.0222091
0.0193161
-0.887959
0.890852
-0.0161252
0.0131288
-1.05709
1.06008
-0.00970926
0.00638464
-1.26191
1.26524
-0.00249789
-0.00132919
-1.51068
1.5145
0.00512828
-0.00893441
-1.51174
1.51554
0.0121456
-0.01542
-1.26445
1.26772
0.018271
-0.0212992
-1.06045
1.06348
0.0240465
-0.0270566
-0.892005
0.895015
0.0297483
-0.0326221
-0.753825
0.756699
0.0350842
-0.0376349
-0.641154
0.643704
0.0398302
-0.0409017
-0.549012
0.550083
0.0397611
-0.0337587
-0.447655
0.441653
0.0231836
-0.0101073
-0.263929
0.250853
0.00255059
-0.0455588
0.0430082
-0.0412801
0.0395184
0.00176169
-0.0166919
0.0259263
-0.316598
0.307364
-0.0325358
0.0346929
-0.456911
0.454754
-0.0342946
0.0326429
-0.546047
0.547699
-0.0304788
0.0284021
-0.639628
0.641704
-0.0260054
0.0236719
-0.754021
0.756354
-0.0209212
0.0182482
-0.893651
0.896324
-0.0151387
0.0121774
-1.06305
1.06601
-0.00879377
0.00557673
-1.26849
1.27171
-0.00186056
-0.00174685
-1.51823
1.52183
0.00531776
-0.00892442
-1.51925
1.52286
0.0119982
-0.015195
-1.27095
1.27415
0.0179696
-0.0208668
-1.06646
1.06936
0.0233494
-0.0259046
-0.897801
0.900356
0.0280702
-0.0302877
-0.759189
0.761407
0.0322079
-0.0342111
-0.645939
0.647942
0.0357126
-0.0359319
-0.550686
0.550905
0.0335722
-0.0266893
-0.435123
0.42824
0.0171848
-0.00723758
-0.239483
0.229536
0.00183293
-0.040872
0.0390391
-0.0380028
0.0366896
0.0013132
-0.0126525
0.0205273
-0.298808
0.290933
-0.0272207
0.0301302
-0.452153
0.449244
-0.0303685
0.029309
-0.549031
0.550091
-0.027406
0.0255677
-0.643651
0.645489
-0.0234482
0.0213884
-0.758562
0.760622
-0.0189688
0.0165923
-0.898868
0.901245
-0.0137947
0.0110726
-1.06887
1.07159
-0.00789291
0.0048213
-1.27484
1.27791
-0.00124523
-0.00225129
-1.52536
1.52886
0.00569353
-0.00911154
-1.52638
1.5298
0.0119854
-0.0149165
-1.27724
1.28018
0.0174003
-0.0199354
-1.0721
1.07464
0.0220786
-0.0242517
-0.902721
0.904894
0.0260963
-0.0279881
-0.763448
0.76534
0.0296308
-0.0313445
-0.64975
0.651464
0.0321998
-0.0317238
-0.550738
0.550262
0.0285345
-0.0214734
-0.421197
0.414136
0.0132554
-0.00550647
-0.22079
0.213041
0.00139976
-0.0374479
0.0360482
-0.0355435
0.0345404
0.00100309
-0.00977168
0.0163669
-0.283709
0.277114
-0.0227505
0.0260675
-0.446107
0.44279
-0.0268096
0.0260911
-0.550966
0.551684
-0.0243279
0.0225823
-0.647286
0.649032
-0.0206306
0.0187873
-0.762571
0.764414
-0.0166653
0.0145843
-0.903459
0.90554
-0.0121135
0.00965572
-1.07415
1.0766
-0.00673292
0.0038422
-1.28087
1.28376
-0.00044048
-0.00289119
-1.53228
1.53561
0.00615949
-0.00936547
-1.53315
1.53635
0.0120025
-0.0146143
-1.28295
1.28556
0.0167691
-0.0189002
-1.07694
1.07907
0.0206828
-0.0224974
-0.906843
0.908658
0.0240661
-0.0257346
-0.767096
0.768765
0.0272308
-0.0287237
-0.653115
0.654608
0.029173
-0.0280857
-0.549506
0.548419
0.0243831
-0.017522
-0.407144
0.400283
0.010503
-0.00433187
-0.206141
0.19997
0.00110814
-0.0348103
0.0337021
-0.0336692
0.0329108
0.000758355
-0.00753828
0.0129601
-0.271123
0.265701
-0.0187708
0.0222737
-0.439342
0.435839
-0.0235699
0.023213
-0.552235
0.552592
-0.0218488
0.0202857
-0.650713
0.652277
-0.0184414
0.0166586
-0.766257
0.768039
-0.0145806
0.0125451
-0.907594
0.909629
-0.0101519
0.00781307
-1.07896
1.0813
-0.00508788
0.00244404
-1.28648
1.28912
0.000631748
-0.00361415
-1.53874
1.54173
0.00652046
-0.00936549
-1.5394
1.54224
0.0116979
-0.0140202
-1.28804
1.29036
0.0159642
-0.0179199
-1.08111
1.08307
0.0195721
-0.0212626
-0.910398
0.912088
0.0227222
-0.0242235
-0.770345
0.771847
0.0254771
-0.0264965
-0.65588
0.656899
0.0265113
-0.0247664
-0.546985
0.54524
0.0207697
-0.0143644
-0.393627
0.387222
0.00842587
-0.00345374
-0.194448
0.189476
0.000886197
-0.0327195
0.0318333
-0.0322541
0.0316866
0.00056755
-0.00574721
0.0101161
-0.260821
0.256452
-0.0151746
0.0185443
-0.432381
0.429011
-0.0200696
0.0199182
-0.552833
0.552985
-0.0188221
0.0174179
-0.653758
0.655162
-0.0157608
0.014147
-0.769784
0.771398
-0.0122454
0.0103718
-0.911598
0.913471
-0.0081682
0.00602094
-1.08349
1.08564
-0.00351125
0.00106472
-1.29162
1.29407
0.00179423
-0.00456956
-1.54459
1.54736
0.00724568
-0.009802
-1.54496
1.54752
0.0118482
-0.0138426
-1.29255
1.29454
0.0154865
-0.0171388
-1.08489
1.08654
0.0185362
-0.019965
-0.913642
0.915071
0.0211762
-0.0224114
-0.773188
0.774423
0.0234443
-0.0240787
-0.657729
0.658364
0.0237739
-0.0216446
-0.543297
0.541168
0.0176322
-0.0118302
-0.381118
0.375316
0.00683034
-0.00279537
-0.185007
0.180972
0.000725061
-0.0310412
0.0303161
-0.031207
0.0308032
0.000403792
-0.00423687
0.00766395
-0.25257
0.249143
-0.0119314
0.0150504
-0.425764
0.422645
-0.0166934
0.0167035
-0.553072
0.553062
-0.0157741
0.01442
-0.656559
0.657913
-0.0128509
0.0113776
-0.772989
0.774462
-0.00967349
0.00798411
-0.915236
0.916925
-0.00595705
0.00396251
-1.08763
1.08962
-0.00162384
-0.000629949
-1.29636
1.29861
0.00322528
-0.00569153
-1.54996
1.55242
0.00803578
-0.0102737
-1.54995
1.55219
0.0120549
-0.0137758
-1.29643
1.29815
0.0151465
-0.0164537
-1.08806
1.08936
0.0175224
-0.0186059
-0.916295
0.917379
0.0195673
-0.020617
-0.775491
0.776541
0.0215147
-0.0218515
-0.658845
0.659182
0.0212549
-0.0188397
-0.538926
0.536511
0.0149192
-0.00974416
-0.369848
0.364673
0.00555306
-0.00227223
-0.17735
0.174069
0.000595636
-0.0296712
0.0290755
-0.0304759
0.0302161
0.000259721
-0.00288626
0.00542245
-0.246174
0.243637
-0.00882296
0.0115384
-0.419719
0.417004
-0.0131853
0.0133857
-0.552961
0.552761
-0.0126591
0.0115037
-0.659221
0.660376
-0.0100972
0.00874595
-0.775944
0.777295
-0.00716235
0.00557127
-0.918517
0.920108
-0.00367387
0.00180512
-1.09146
1.09333
0.000368019
-0.00245908
-1.30072
1.30281
0.00485355
-0.00710749
-1.55473
1.55699
0.00922061
-0.0111725
-1.55428
1.55623
0.0126723
-0.0140443
-1.29974
1.30111
0.0151146
-0.0161243
-1.09053
1.09154
0.0169387
-0.0177675
-0.918306
0.919135
0.0185043
-0.0192844
-0.777424
0.778204
0.0198367
-0.0198192
-0.659368
0.659351
0.0188331
-0.0161869
-0.534017
0.531371
0.0124696
-0.00796229
-0.359855
0.355347
0.00450025
-0.00185604
-0.171134
0.16849
0.000499293
-0.0285432
0.0280439
-0.0300234
0.0299056
0.000117849
-0.00157894
0.00324594
-0.24155
0.239883
-0.00573345
0.00792935
-0.414544
0.412348
-0.0094594
0.0098197
-0.552466
0.552106
-0.00932578
0.00842488
-0.661426
0.662327
-0.0071773
0.00590126
-0.778702
0.779978
-0.00434583
0.00278517
-0.921657
0.923217
-0.000948333
-0.000805586
-1.09505
1.09681
0.00280562
-0.00471069
-1.30474
1.30665
0.00685578
-0.0088543
-1.55908
1.56108
0.0106767
-0.0122853
-1.55801
1.55962
0.0134566
-0.014514
-1.30239
1.30345
0.0153079
-0.0160374
-1.09249
1.09322
0.0166022
-0.0171529
-0.919837
0.920387
0.0176019
-0.0180229
-0.77865
0.779071
0.0181581
-0.017715
-0.659099
0.658656
0.0163724
-0.013613
-0.528709
0.52595
0.0101985
-0.0063674
-0.351225
0.347394
0.00357144
-0.00149132
-0.166163
0.164083
0.000415996
-0.0276014
0.0271854
-0.0298588
0.029883
-2.41978e-05
-0.000338375
0.00118962
-0.238635
0.237784
-0.00277749
0.00437064
-0.410464
0.408871
-0.00559669
0.00590859
-0.551756
0.551444
-0.00544622
0.00463102
-0.663232
0.664047
-0.00349937
0.00234524
-0.781266
0.78242
-0.000949692
-0.00044409
-0.92462
0.926014
0.00208841
-0.00368702
-1.09838
1.09998
0.00554746
-0.0073053
-1.30842
1.31018
0.00927493
-0.0110621
-1.56293
1.56472
0.0126093
-0.0138946
-1.56108
1.56237
0.014749
-0.0153702
-1.30434
1.30496
0.015742
-0.0160128
-1.09375
1.09402
0.0161898
-0.0162933
-0.920707
0.920811
0.0163548
-0.0164362
-0.779261
0.779342
0.0163052
-0.015621
-0.658053
0.657369
0.0140882
-0.01134
-0.52325
0.520502
0.00825984
-0.00504416
-0.34393
0.340715
0.00281052
-0.00118528
-0.162281
0.160656
0.000338542
-0.0268279
0.0264894
-0.0299814
0.0301445
-0.000163021
0.000617287
-0.000475382
-0.237292
0.23715
-0.000275214
0.0012658
-0.407613
0.406622
-0.00214373
0.00236971
-0.551205
0.550979
-0.00195392
0.00121805
-0.664911
0.665647
-0.000150939
-0.000972255
-0.783601
0.784724
0.00236796
-0.00378001
-0.927286
0.928698
0.00544151
-0.00703248
-1.10145
1.10304
0.00882445
-0.0104765
-1.31179
1.31344
0.0122482
-0.0137492
-1.56631
1.56781
0.0149789
-0.0159112
-1.56347
1.5644
0.016455
-0.0168032
-1.3055
1.30584
0.0169155
-0.0168762
-1.09419
1.09416
0.0167455
-0.0165651
-0.920774
0.920594
0.0163792
-0.0161383
-0.779064
0.778823
0.0156535
-0.0145547
-0.656461
0.655362
0.0127425
-0.0099459
-0.51783
0.515033
0.00711255
-0.00433477
-0.337815
0.335038
0.00244384
-0.00104682
-0.159224
0.157827
0.000300757
-0.0262026
0.0259018
-0.0303486
0.030591
-0.000242492
0.00131611
-0.00164695
-0.237252
0.237583
0.00159817
-0.001175
-0.405964
0.405541
0.000655625
-0.00053246
-0.55085
0.550727
0.000929528
-0.00162101
-0.666458
0.66715
0.00265636
-0.00381451
-0.785914
0.787072
0.00530096
-0.00681528
-0.930019
0.931533
0.00860083
-0.0103071
-1.10454
1.10624
0.012218
-0.0139385
-1.31502
1.31674
0.0157301
-0.0171876
-1.56921
1.57066
0.0182937
-0.0190575
-1.56524
1.56601
0.0193867
-0.0194523
-1.30611
1.30617
0.0193212
-0.0190134
-1.09401
1.0937
0.0186012
-0.0180747
-0.920192
0.919665
0.0175719
-0.0169537
-0.778291
0.777673
0.0160131
-0.0145067
-0.654065
0.652559
0.0124457
-0.0095943
-0.512335
0.509483
0.00691143
-0.00434078
-0.33248
0.329909
0.00252787
-0.00110883
-0.156499
0.15508
0.000320617
-0.0256259
0.0253053
-0.0308775
0.0311989
-0.000321412
0.00184858
-0.00259861
-0.23811
0.23886
0.00314244
-0.00334156
-0.405463
0.405663
0.00334836
-0.0034621
-0.550789
0.550903
0.00391451
-0.00465234
-0.667994
0.668732
0.00577798
-0.0070626
-0.788304
0.789589
0.00873446
-0.0104345
-0.932959
0.934659
0.0124233
-0.0142919
-1.10788
1.10975
0.0163294
-0.0181458
-1.31842
1.32024
0.0199978
-0.021459
-1.57208
1.57354
0.0224792
-0.0230121
-1.56667
1.5672
0.0230797
-0.0228139
-1.3061
1.30584
0.0223499
-0.0216685
-1.09319
1.09251
0.0209765
-0.0201633
-0.918939
0.918126
0.0193513
-0.0183587
-0.776733
0.77574
0.0171217
-0.0152962
-0.650941
0.649115
0.0130395
-0.0101417
-0.506758
0.50386
0.0074927
-0.00487753
-0.327453
0.324838
0.00291629
-0.00130133
-0.153643
0.152028
0.000380044
-0.0249923
0.0246123
-0.0315745
0.031991
-0.000416489
0.00246205
-0.00356843
-0.239806
0.240912
0.00463202
-0.00540168
-0.406151
0.406921
0.0060639
-0.00670556
-0.55139
0.552032
0.0075812
-0.00862954
-0.669746
0.670794
0.0100512
-0.0115993
-0.790984
0.792532
0.0135242
-0.0154207
-0.936233
0.93813
0.0175998
-0.0196024
-1.11151
1.11351
0.0217625
-0.0236103
-1.32197
1.32381
0.0254034
-0.0267119
-1.57488
1.57619
0.0274826
-0.0276853
-1.56756
1.56776
0.0274435
-0.0268073
-1.30543
1.30479
0.0260195
-0.0249829
-1.09163
1.09059
0.0238963
-0.0226469
-0.916976
0.915727
0.0215123
-0.0201971
-0.774461
0.773146
0.0187359
-0.0167239
-0.647246
0.645234
0.0144025
-0.0114513
-0.501153
0.498202
0.00863461
-0.00571019
-0.322237
0.319313
0.00344518
-0.00154825
-0.150359
0.148462
0.00045493
-0.024238
0.0237831
-0.0324714
0.0330078
-0.000536422
0.00323936
-0.00474904
-0.242238
0.243748
0.00626944
-0.00750901
-0.407968
0.409208
0.00875013
-0.00994083
-0.553153
0.554343
0.0114309
-0.0130392
-0.672308
0.673916
0.0150125
-0.0169965
-0.794227
0.796211
0.0193454
-0.0215703
-0.939914
0.942139
0.0240133
-0.0262084
-1.11538
1.11758
0.0285048
-0.0303974
-1.32553
1.32742
0.0321096
-0.0331837
-1.57729
1.57836
0.0336025
-0.0333631
-1.56772
1.56748
0.0326757
-0.0315653
-1.30395
1.30284
0.0303381
-0.02887
-1.08931
1.08784
0.0275217
-0.0260537
-0.914227
0.912759
0.0246895
-0.0231616
-0.771531
0.770003
0.021568
-0.0194127
-0.643262
0.641107
0.0168642
-0.0134808
-0.495356
0.491972
0.0101846
-0.00673092
-0.31631
0.312857
0.00406919
-0.00184316
-0.1465
0.144274
0.000548304
-0.0233335
0.0227852
-0.0336258
0.0343304
-0.000704669
0.00433108
-0.00639629
-0.245535
0.247601
0.0084577
-0.0100665
-0.410704
0.412312
0.0116403
-0.0131509
-0.556005
0.557515
0.0150335
-0.0170707
-0.675969
0.678006
0.0196014
-0.022146
-0.798344
0.800888
0.0250918
-0.0277921
-0.944293
0.946993
0.0307344
-0.0333498
-1.11972
1.12233
0.0360543
-0.0382557
-1.32926
1.33146
0.0401842
-0.041305
-1.5793
1.58042
0.0416414
-0.0412027
-1.56704
1.5666
0.0402336
-0.0387601
-1.30149
1.30002
0.0371074
-0.0351661
-1.08612
1.08418
0.0334002
-0.0315511
-0.91103
0.909181
0.0299725
-0.0282577
-0.768219
0.766504
0.0263394
-0.0235842
-0.638828
0.636073
0.0202418
-0.0159002
-0.488465
0.484124
0.0118457
-0.00779364
-0.309317
0.305265
0.00473083
-0.00215931
-0.142005
0.139433
0.000647115
-0.0222521
0.0216049
-0.0351292
0.0360714
-0.000942242
0.0058481
-0.00869476
-0.250021
0.252868
0.0115264
-0.0135981
-0.414255
0.416327
0.0153616
-0.0169322
-0.559499
0.56107
0.0189043
-0.0211793
-0.68038
0.682655
0.0241726
-0.0272339
-0.803498
0.806559
0.030782
-0.0341366
-0.949661
0.953016
0.0378609
-0.0412013
-1.12502
1.12836
0.044668
-0.0474877
-1.33375
1.33657
0.0499911
-0.0515252
-1.5816
1.58314
0.0521277
-0.0518213
-1.56616
1.56585
0.0508763
-0.0493188
-1.29846
1.2969
0.0475619
-0.0453715
-1.08201
1.07982
0.0432072
-0.0407943
-0.906813
0.9044
0.0385842
-0.0358166
-0.764189
0.761421
0.0327691
-0.0284982
-0.632775
0.628504
0.0238404
-0.0183757
-0.479567
0.474102
0.0136274
-0.00901816
-0.301224
0.296615
0.005516
-0.00253243
-0.136826
0.133843
0.000761083
-0.020976
0.0202149
-0.037112
0.0384093
-0.00129734
0.00803861
-0.0120136
-0.256152
0.260127
0.0160152
-0.0188927
-0.418987
0.421865
0.0211035
-0.022761
-0.563281
0.564938
0.0247465
-0.0271789
-0.685202
0.687635
0.0304897
-0.0339967
-0.809504
0.813011
0.0383085
-0.0424881
-0.95641
0.96059
0.0471731
-0.0513727
-1.13186
1.13606
0.0556874
-0.059158
-1.33953
1.343
0.0622112
-0.0640723
-1.58473
1.58659
0.0647965
-0.0644335
-1.56549
1.56513
0.0633325
-0.061522
-1.29522
1.2934
0.0594581
-0.0568387
-1.07734
1.07472
0.0542004
-0.0510476
-0.901423
0.89827
0.0477353
-0.0434654
-0.757682
0.753412
0.0388539
-0.0329979
-0.623489
0.617633
0.0272489
-0.0209895
-0.468604
0.462345
0.0156998
-0.0105106
-0.292111
0.286921
0.00646971
-0.00297193
-0.130827
0.127329
0.000889105
-0.0194756
0.0185865
-0.0398053
0.0416334
-0.00182807
0.011127
-0.0165988
-0.264585
0.270057
0.02215
-0.0262555
-0.425774
0.42988
0.0294432
-0.0316994
-0.567707
0.569963
0.034137
-0.0369323
-0.690333
0.693128
0.0409113
-0.0452249
-0.816455
0.820769
0.0504693
-0.0554716
-0.964794
0.969797
0.0609882
-0.0658159
-1.1403
1.14513
0.0706466
-0.0744001
-1.34643
1.35019
0.0775225
-0.0792015
-1.58827
1.58995
0.0795242
-0.078569
-1.56445
1.5635
0.0768333
-0.0742334
-1.29122
1.28862
0.071386
-0.0678763
-1.07159
1.06808
0.064328
-0.0599831
-0.894253
0.889908
0.0554485
-0.0498219
-0.748084
0.742457
0.0441044
-0.0373646
-0.611326
0.604586
0.0310642
-0.0242889
-0.456318
0.449543
0.0184157
-0.0124448
-0.281857
0.275886
0.00767699
-0.00351299
-0.123785
0.119621
0.00104229
-0.0177245
0.0166822
-0.0435185
0.0461944
-0.00267591
0.0157748
-0.0232672
-0.276032
0.283524
0.0307767
-0.0364967
-0.435638
0.441358
0.0412271
-0.0448303
-0.574004
0.577608
0.0486827
-0.0527498
-0.696535
0.700602
0.0579441
-0.063183
-0.82503
0.830269
0.0692422
-0.0748138
-0.974681
0.980253
0.0807389
-0.0857318
-1.14976
1.15475
0.0904998
-0.0939501
-1.35359
1.35704
0.0964412
-0.0972449
-1.59108
1.59189
0.0964884
-0.0942693
-1.56187
1.55966
0.0913321
-0.0873851
-1.28533
1.28138
0.083316
-0.0784663
-1.06379
1.05894
0.0736954
-0.0680903
-0.884552
0.878947
0.062591
-0.0561658
-0.735923
0.729498
0.0499385
-0.042824
-0.597645
0.59053
0.0361367
-0.0287022
-0.443074
0.43564
0.0219512
-0.0148569
-0.27003
0.262936
0.00911956
-0.00412945
-0.115418
0.110427
0.00120732
-0.0156794
0.014472
-0.0488253
0.0529652
-0.00413995
0.0232281
-0.0335411
-0.291624
0.301937
0.0435862
-0.0514168
-0.449719
0.457549
0.0581783
-0.0636438
-0.583709
0.589174
0.0696784
-0.0755422
-0.705466
0.71133
0.0822569
-0.0884677
-0.835408
0.841619
0.0951954
-0.101041
-0.98553
0.991375
0.106922
-0.111582
-1.15925
1.16391
0.115657
-0.118182
-1.35979
1.36232
0.119335
-0.118615
-1.59176
1.59104
0.116178
-0.112143
-1.55643
1.5524
0.107609
-0.102001
-1.27653
1.27093
0.0964951
-0.0901553
-1.05318
1.04684
0.0841732
-0.0774941
-0.872346
0.865667
0.0712989
-0.0643982
-0.722203
0.715302
0.0578483
-0.0503199
-0.583166
0.575637
0.0429816
-0.0344557
-0.4284
0.419874
0.0264158
-0.0178087
-0.255959
0.247352
0.010827
-0.00482744
-0.10545
0.0994502
0.00138153
-0.0133218
0.0119403
-0.0568127
0.0640141
-0.00720137
0.0365441
-0.0510992
-0.313489
0.328044
0.0648042
-0.0751085
-0.469438
0.479742
0.0838661
-0.0912642
-0.597702
0.6051
0.0996633
-0.107248
-0.717777
0.725362
0.115253
-0.122095
-0.847575
0.854417
0.129015
-0.134631
-0.996672
1.00229
0.139879
-0.143607
-1.16776
1.17148
0.146336
-0.147317
-1.36379
1.36478
0.146512
-0.143734
-1.58906
1.58628
0.139191
-0.133019
-1.54714
1.54097
0.126677
-0.119276
-1.26432
1.25692
0.112274
-0.104498
-1.03959
1.03182
0.097418
-0.0897903
-0.858001
0.850373
0.0829602
-0.0755727
-0.707332
0.699945
0.0685962
-0.0602898
-0.567554
0.559248
0.0518201
-0.0416285
-0.411285
0.401094
0.031813
-0.0212947
-0.238872
0.228354
0.0127932
-0.00559582
-0.0936342
0.0864368
0.0015511
-0.0106472
0.00909606
-0.0708599
0.0746541
-0.00379418
0.0270351
-0.0397035
-0.345482
0.35815
0.051985
-0.0614505
-0.49529
0.504756
0.0703657
-0.0795413
-0.615893
0.625069
0.0899949
-0.0992674
-0.732587
0.74186
0.109564
-0.118679
-0.860464
0.869578
0.128243
-0.136553
-1.0069
1.01521
0.144976
-0.151883
-1.17397
1.18087
0.158273
-0.162722
-1.36436
1.36881
0.165593
-0.165841
-1.58198
1.58223
0.1633
-0.158328
-1.5334
1.52843
0.152117
-0.143969
-1.24844
1.2403
0.13585
-0.125965
-1.02314
1.01326
0.116884
-0.106921
-0.841731
0.831768
0.0980191
-0.0884374
-0.691111
0.681529
0.0791191
-0.068042
-0.549882
0.538804
0.0568066
-0.0433001
-0.390527
0.377021
0.0309866
-0.0188712
-0.217911
0.205796
0.0101156
-0.00382164
-0.0798206
0.0735267
0.000807963
-0.00774956
0.0069416
-0.0819619
0.0795527
0.00240919
0.00546835
-0.0133139
-0.37378
0.381626
0.0223577
-0.0296733
-0.518795
0.526111
0.0376471
-0.0456525
-0.636118
0.644124
0.0551865
-0.0638839
-0.750929
0.759626
0.0731122
-0.0814774
-0.878262
0.886627
0.0902219
-0.0974733
-1.02325
1.0305
0.104963
-0.110691
-1.18753
1.19326
0.115849
-0.11903
-1.37278
1.37596
0.120266
-0.119055
-1.58134
1.58013
0.115119
-0.108852
-1.52223
1.51596
0.101456
-0.0922896
-1.23134
1.22217
0.0834188
-0.073275
-1.0028
0.992656
0.0637876
-0.053358
-0.820403
0.809973
0.0441905
-0.0350635
-0.668664
0.659537
0.0273235
-0.0191823
-0.525232
0.517091
0.0119425
-0.00548991
-0.362757
0.356304
0.00138748
0.0011141
-0.193557
0.191056
-0.00198988
0.0015833
-0.0667935
0.0672001
-0.000760115
-0.00544384
0.00620396
-0.0825723
0.0795783
0.002994
-0.0027719
-0.00138525
-0.392764
0.396922
0.00705496
-0.0126056
-0.53721
0.54276
0.0191411
-0.0261264
-0.653522
0.660507
0.0343449
-0.0418764
-0.767692
0.775224
0.0500757
-0.0573477
-0.894348
0.90162
0.0647081
-0.07117
-1.03759
1.04405
0.0776478
-0.0826782
-1.19857
1.2036
0.0867367
-0.0889463
-1.37844
1.38065
0.089491
-0.0875917
-1.57812
1.57622
0.0831505
-0.0765744
-1.50898
1.5024
0.0691766
-0.0604061
-1.21281
1.20404
0.0516885
-0.0421037
-0.982161
0.972577
0.0332376
-0.0236101
-0.799488
0.78986
0.0153795
-0.00715118
-0.648579
0.640351
0.000537346
0.00569168
-0.506254
0.500025
-0.00972082
0.0115956
-0.347537
0.345662
-0.0112381
0.00924545
-0.18604
0.188033
-0.00661594
0.00352995
-0.0664645
0.0695504
-0.0012515
-0.00597324
0.00722474
-0.0810524
0.0781892
0.00286318
-0.0059848
0.00413007
-0.405039
0.406893
-0.000630666
-0.0036619
-0.551395
0.555687
0.00943609
-0.0153498
-0.668026
0.67394
0.0224304
-0.0289386
-0.782391
0.788899
0.0359804
-0.0422427
-0.908484
0.914746
0.048961
-0.0544728
-1.05013
1.05564
0.0601803
-0.0641799
-1.20826
1.21226
0.0676913
-0.0695244
-1.38269
1.38452
0.0696399
-0.0673521
-1.57395
1.57166
0.0631218
-0.057016
-1.49539
1.48929
0.0502035
-0.0418999
-1.19517
1.18687
0.034077
-0.0255352
-0.962851
0.954309
0.0175259
-0.00916088
-0.780217
0.771852
0.0016659
0.00556352
-0.630635
0.623405
-0.0111653
0.0155694
-0.491547
0.487143
-0.0176126
0.0173552
-0.339955
0.340212
-0.0150428
0.0112678
-0.187295
0.19107
-0.00772559
0.00385236
-0.0712341
0.0751073
-0.00126489
-0.00759836
0.00886326
-0.07943
0.0770005
0.00242952
-0.00671421
0.00623284
-0.413202
0.413684
-0.00358042
0.000327363
-0.563011
0.566265
0.00446474
-0.00984263
-0.68036
0.685738
0.0158559
-0.0216385
-0.794949
0.800732
0.0278048
-0.0333147
-0.920693
0.926203
0.0391685
-0.0441764
-1.0611
1.06611
0.0491106
-0.0529106
-1.21619
1.21999
0.0560218
-0.0576175
-1.38607
1.38767
0.0576637
-0.0555335
-1.56933
1.5672
0.051683
-0.0459954
-1.48271
1.47703
0.0398983
-0.0326437
-1.17876
1.1715
0.0257608
-0.0181594
-0.9457
0.938098
0.0113079
-0.00406864
-0.763371
0.756132
-0.00215646
0.00821363
-0.615393
0.609336
-0.0127109
0.0161155
-0.480325
0.47692
-0.0176597
0.0170165
-0.336457
0.337101
-0.0144208
0.0106564
-0.191721
0.195485
-0.00718559
0.00348127
-0.0771064
0.0808107
-0.00114511
-0.0093432
0.0104883
-0.0780846
0.0760557
0.0020289
-0.00633192
0.00616353
-0.418815
0.418984
-0.00458942
0.00180933
-0.572142
0.574922
0.00277891
-0.00740237
-0.690978
0.695602
0.0126413
-0.0177374
-0.805936
0.811032
0.0233037
-0.0283199
-0.931497
0.936514
0.0337931
-0.0382954
-1.07092
1.07542
0.0428747
-0.0464413
-1.2236
1.22717
0.049343
-0.0508638
-1.3891
1.39062
0.0509551
-0.0494182
-1.56509
1.56356
0.0459632
-0.0410499
-1.4711
1.46619
0.0356341
-0.0292247
-1.16431
1.1579
0.0234115
-0.0167055
-0.930614
0.923908
0.0107798
-0.00472178
-0.748964
0.742906
-0.000506531
0.00554465
-0.602834
0.597796
-0.0092607
0.012167
-0.471501
0.468594
-0.0131585
0.0126312
-0.334345
0.334873
-0.0108185
0.00782525
-0.195736
0.198729
-0.00516569
0.00254027
-0.0821802
0.0848057
-0.000853015
-0.0108057
0.0116587
-0.0771665
0.0756206
0.00154581
-0.00525591
0.00527377
-0.423071
0.423053
-0.00380776
0.00159725
-0.580299
0.58251
0.00258532
-0.00678503
-0.700329
0.704528
0.0118137
-0.0162836
-0.815904
0.820374
0.0212628
-0.0258018
-0.94161
0.946149
0.0311028
-0.0353056
-1.08003
1.08424
0.0395207
-0.0430426
-1.23064
1.23416
0.0462754
-0.0478559
-1.39225
1.39383
0.0482723
-0.0469838
-1.56174
1.56045
0.044272
-0.0397274
-1.4612
1.45665
0.0350983
-0.0295856
-1.15153
1.14602
0.0243694
-0.0186793
-0.917432
0.911742
0.0134962
-0.00811146
-0.736713
0.731328
0.0038605
0.000515649
-0.59225
0.587874
-0.00379068
0.00614212
-0.464067
0.461716
-0.00722095
0.00720073
-0.332417
0.332438
-0.00611012
0.00424489
-0.198261
0.200126
-0.0026998
0.00133161
-0.0851588
0.086527
-0.000479318
-0.0116999
0.0121792
-0.0767976
0.0756106
0.00118699
-0.00405702
0.00411869
-0.426574
0.426513
-0.00263278
0.000437631
-0.587509
0.589704
0.0034159
-0.00721775
-0.708837
0.712638
0.0116087
-0.0159753
-0.82493
0.829297
0.0206601
-0.0254078
-0.950599
0.955347
0.0300807
-0.0341877
-1.08861
1.09271
0.0386409
-0.0420507
-1.23763
1.24104
0.0449726
-0.0471156
-1.3954
1.39754
0.0479165
-0.0471305
-1.55931
1.55852
0.0448016
-0.0410536
-1.45237
1.44862
0.0369639
-0.0320379
-1.14029
1.13536
0.0274443
-0.0223265
-0.906037
0.900919
0.0176873
-0.0130017
-0.726021
0.721336
0.00890272
-0.00500899
-0.583018
0.579124
0.00209404
0.000355549
-0.457742
0.455293
-0.00169054
0.00198541
-0.329718
0.329423
-0.00188829
0.00141068
-0.198662
0.199139
-0.00100003
0.000590238
-0.0860038
0.0864136
-0.00029011
-0.0119403
0.0122304
-0.076986
0.0759966
0.000989387
-0.00272533
0.00253306
-0.429865
0.430057
-0.00122006
-0.0010834
-0.594165
0.596469
0.00463892
-0.00834132
-0.716829
0.720531
0.0125978
-0.0166184
-0.833581
0.837601
0.0214748
-0.0255065
-0.959615
0.963646
0.0302177
-0.0342316
-1.09704
1.10105
0.0386609
-0.0423502
-1.24449
1.24818
0.0456806
-0.0477383
-1.39951
1.40157
0.0490185
-0.0487584
-1.55771
1.55745
0.0472008
-0.0438662
-1.4448
1.44146
0.0402551
-0.0357461
-1.13051
1.126
0.0315529
-0.0267739
-0.895578
0.890799
0.022574
-0.0180982
-0.716411
0.711935
0.0142592
-0.010487
-0.574734
0.570962
0.00750151
-0.00512586
-0.451492
0.449116
0.00342586
-0.0024677
-0.326217
0.325258
0.00160782
-0.00091124
-0.197015
0.196318
0.000349554
8.99071e-05
-0.0849551
0.0845156
-0.000180434
-0.0116874
0.0118678
-0.0774634
0.0767756
0.000687796
-0.00157563
0.000933262
-0.43335
0.433993
0.000256161
-0.00267533
-0.600136
0.602555
0.00593184
-0.00953496
-0.724353
0.727956
0.0136526
-0.0178324
-0.841592
0.845771
0.0221371
-0.0263744
-0.967958
0.972195
0.0311059
-0.0349724
-1.10554
1.10941
0.0395676
-0.0432944
-1.25174
1.25546
0.0467737
-0.049446
-1.40408
1.40675
0.051317
-0.0514403
-1.55727
1.55739
0.0501825
-0.0475673
-1.43828
1.43566
0.0444822
-0.0402845
-1.12133
1.11714
0.0362538
-0.0318867
-0.88587
0.881503
0.0275264
-0.0233423
-0.707151
0.702967
0.0195943
-0.0157575
-0.566907
0.56307
0.0128073
-0.010028
-0.44514
0.442361
0.00796478
-0.00615359
-0.321766
0.319955
0.00461665
-0.00295501
-0.193529
0.191867
0.00151654
-0.000407385
-0.0824681
0.081359
-5.11776e-05
-0.0110744
0.0111256
-0.0783261
0.07779
0.000536136
-0.000621917
1.371e-05
-0.437076
0.437685
0.00175275
-0.00399192
-0.606221
0.60846
0.00742232
-0.0109159
-0.731429
0.734923
0.0149045
-0.0187234
-0.84972
0.853539
0.0231876
-0.0271576
-0.976498
0.980468
0.0318828
-0.0362243
-1.11376
1.1181
0.0405261
-0.044634
-1.25928
1.26339
0.0486029
-0.0514442
-1.40937
1.41221
0.0537657
-0.0547209
-1.55776
1.55871
0.0539472
-0.0519476
-1.4329
1.4309
0.0490234
-0.0451855
-1.11289
1.10905
0.0414558
-0.0371171
-0.876658
0.872319
0.0329746
-0.0287342
-0.698213
0.693973
0.0249598
-0.0209559
-0.558825
0.554821
0.0177014
-0.0146184
-0.438386
0.435303
0.0118931
-0.00936544
-0.315966
0.313438
0.00706572
-0.00461451
-0.188335
0.185884
0.00258802
-0.000939296
-0.0788784
0.0772297
0.000127902
-0.0102536
0.0101257
-0.0794433
0.0790747
0.000368575
0.000413459
-0.00123692
-0.440963
0.441786
0.00287376
-0.00537223
-0.611926
0.614424
0.00873064
-0.0120786
-0.738295
0.741643
0.0161606
-0.0198566
-0.857409
0.861105
0.0241971
-0.0283134
-0.984958
0.989075
0.0329824
-0.0373237
-1.12234
1.12668
0.0418843
-0.0460674
-1.26746
1.27164
0.0502746
-0.0539093
-1.41538
1.41901
0.0567353
-0.0580504
-1.55964
1.56095
0.0579891
-0.0563116
-1.42878
1.4271
0.053895
-0.0504934
-1.10508
1.10168
0.0467149
-0.0424407
-0.867599
0.863325
0.0383283
-0.0339078
-0.689283
0.684862
0.0301254
-0.0259181
-0.550677
0.54647
0.0224621
-0.0188298
-0.431049
0.427416
0.015685
-0.0124369
-0.308883
0.305635
0.00930272
-0.00610554
-0.18167
0.178473
0.00351505
-0.0013741
-0.0743131
0.0721722
0.000265675