/*--------------------------------*- C++ -*----------------------------------*\
  =========                 |
  \\      /  F ield         | OpenFOAM: The Open Source CFD Toolbox
   \\    /   O peration     | Website:  https://openfoam.org
    \\  /    A nd           | Version:  6
     \\/     M anipulation  |
\*---------------------------------------------------------------------------*/
FoamFile
{
    version     2.0;
    format      ascii;
    class       volScalarField;
    location    "8.5";
    object      T;
}
// * * * * * * * * * * * * * * * * * * * * * * * * * * * * * * * * * * * * * //

dimensions      [0 0 0 1 0 0 0];

internalField   nonuniform List<scalar> 
5250
(
1.00001
1.00001
1.00005
1.00009
1.0003
1.00054
1.00171
1.00318
1.00934
1.01963
1.05009
1.13076
1.30455
1.80448
2.79221
2.78059
2.77386
2.74639
2.73008
2.74723
2.75976
2.77524
2.78373
2.78693
2.79008
1.00001
1.00001
1.00005
1.00009
1.0003
1.00054
1.0017
1.00317
1.00932
1.01955
1.04993
1.13021
1.30336
1.80213
2.78987
2.78071
2.77243
2.74423
2.72888
2.74603
2.75849
2.77305
2.78141
2.78454
2.78797
1.00001
1.00001
1.00005
1.00009
1.0003
1.00054
1.00169
1.00314
1.00926
1.01937
1.0496
1.12895
1.3008
1.79666
2.78473
2.78123
2.76934
2.74031
2.7266
2.74352
2.75652
2.77032
2.77839
2.78055
2.78279
1.00001
1.00001
1.00005
1.00009
1.00029
1.00053
1.00167
1.0031
1.00915
1.01909
1.04902
1.127
1.29655
1.78733
2.77604
2.78283
2.76142
2.7349
2.72189
2.73755
2.75043
2.7648
2.77272
2.77564
2.77782
1.00001
1.00001
1.00005
1.00009
1.00029
1.00052
1.00164
1.00304
1.00899
1.01869
1.04813
1.12439
1.28998
1.77418
2.758
2.77561
2.755
2.73212
2.71889
2.73398
2.7436
2.75512
2.7634
2.76472
2.76595
1.00001
1.00001
1.00005
1.00009
1.00028
1.00051
1.0016
1.00296
1.00878
1.01817
1.04695
1.12103
1.28139
1.75709
2.73318
2.77091
2.74409
2.72517
2.7125
2.72586
2.73715
2.74544
2.75132
2.75487
2.7556
1.00001
1.00001
1.00005
1.00008
1.00027
1.00049
1.00154
1.00286
1.0085
1.01753
1.04548
1.11684
1.27079
1.73569
2.70033
2.76392
2.73186
2.72224
2.70534
2.71583
2.7218
2.73335
2.73572
2.73441
2.73217
1.00001
1.00001
1.00004
1.00008
1.00026
1.00047
1.00148
1.00273
1.00816
1.01673
1.04363
1.11176
1.25784
1.70979
2.65584
2.75559
2.71075
2.71127
2.70075
2.70913
2.711
2.71387
2.71655
2.71543
2.70871
1.00001
1.00001
1.00004
1.00008
1.00024
1.00044
1.0014
1.00257
1.00775
1.01575
1.04146
1.10527
1.24298
1.675
2.60619
2.73096
2.71238
2.69113
2.68466
2.69313
2.6972
2.69579
2.6889
2.67688
2.64663
1.00001
1.00001
1.00004
1.00007
1.00022
1.0004
1.00125
1.00237
1.00689
1.01464
1.03762
1.09934
1.22459
1.64031
2.55847
2.71001
2.70787
2.68632
2.66902
2.67099
2.67751
2.67327
2.65817
2.63562
2.57659
1
1.00001
1.00002
1.00008
1.00015
1.00046
1.00087
1.00246
1.00535
1.01337
1.03573
1.07877
1.23794
1.54713
2.39868
2.69241
2.70827
2.68885
2.65929
2.65339
2.6509
2.64206
2.61687
2.55899
2.4311
1
1.00001
1.00002
1.00007
1.00013
1.00041
1.00077
1.00223
1.00474
1.01205
1.03168
1.07077
1.21041
1.48196
2.23852
2.63901
2.70545
2.68788
2.65863
2.63482
2.62789
2.61257
2.57941
2.5117
2.37052
1
1.00001
1.00003
1.00005
1.00015
1.00028
1.00087
1.00165
1.00474
1.01018
1.02588
1.06858
1.15247
1.44608
2.18058
2.54133
2.67998
2.6724
2.65295
2.62386
2.59971
2.57873
2.54144
2.48758
2.37022
1
1.00001
1.00002
1.00004
1.00014
1.00024
1.00078
1.00142
1.00435
1.00839
1.02354
1.05317
1.12921
1.34255
1.96539
2.49298
2.6483
2.63238
2.62712
2.61041
2.58493
2.5534
2.50637
2.46522
2.3751
1
1.00001
1.00002
1.00004
1.00012
1.00021
1.00066
1.0012
1.00368
1.00705
1.02001
1.04388
1.10938
1.27939
1.78461
2.45828
2.63974
2.60621
2.59006
2.58053
2.56306
2.53875
2.48168
2.44458
2.37368
1
1
1.00002
1.00003
1.0001
1.00018
1.00055
1.00101
1.00311
1.00593
1.01672
1.03765
1.08985
1.24651
1.616
2.40015
2.61754
2.58647
2.57275
2.54976
2.5389
2.52087
2.47297
2.4267
2.36799
1
1
1.00001
1.00003
1.00008
1.00014
1.00046
1.00083
1.00256
1.00494
1.01347
1.03171
1.07421
1.21302
1.49035
2.2451
2.56405
2.5797
2.55588
2.53805
2.51363
2.50132
2.46856
2.42063
2.36679
1
1
1.00001
1.00002
1.00007
1.00012
1.00038
1.00068
1.00211
1.00399
1.01133
1.02512
1.06101
1.16775
1.38897
2.04104
2.47397
2.56772
2.54668
2.5316
2.50116
2.47363
2.45533
2.41714
2.37034
1
1
1.00001
1.00002
1.00005
1.00009
1.00029
1.00053
1.00165
1.00308
1.00894
1.01895
1.04735
1.12428
1.28369
1.80363
2.32496
2.52206
2.52279
2.51502
2.49377
2.46286
2.43341
2.40613
2.36955
1
1
1.00001
1.00001
1.00004
1.00007
1.00023
1.00042
1.0013
1.00238
1.00723
1.01422
1.03823
1.09169
1.21662
1.57847
2.28881
2.47325
2.48074
2.47725
2.47024
2.45283
2.4244
2.39522
2.36424
1
1
1.00001
1.00001
1.00003
1.00006
1.00018
1.00032
1.001
1.00183
1.00542
1.011
1.02863
1.0731
1.16103
1.47357
2.16326
2.42318
2.46968
2.45184
2.44538
2.43188
2.41552
2.39069
2.36501
1
1
1
1.00001
1.00002
1.00004
1.00014
1.00024
1.00077
1.0014
1.00427
1.00821
1.02288
1.05211
1.12336
1.33665
1.90089
2.32126
2.44764
2.44194
2.42549
2.41161
2.40052
2.38662
2.36947
1
1
1
1.00001
1.00002
1.00003
1.0001
1.00018
1.00057
1.00104
1.00316
1.006
1.01717
1.03613
1.0941
1.22145
1.65309
2.16944
2.40971
2.42208
2.41317
2.39619
2.3827
2.3754
2.37359
1
1
1
1
1.00001
1.00002
1.00007
1.00013
1.00041
1.00075
1.00229
1.00437
1.01236
1.02693
1.0659
1.17258
1.42157
1.99933
2.332
2.40378
2.40309
2.39323
2.37899
2.3755
2.38213
1
1
1
1
1.00001
1.00002
1.00004
1.00012
1.00023
1.0007
1.0013
1.00385
1.00765
1.0207
1.04762
1.11484
1.29733
1.81114
2.21257
2.36688
2.3819
2.38659
2.3837
2.38852
2.39863
1
1
1
1
1.00001
1.00002
1.00003
1.00009
1.00016
1.0005
1.00093
1.0028
1.00538
1.01525
1.03214
1.08445
1.19498
1.58299
2.05793
2.31358
2.35816
2.37271
2.3864
2.41008
2.42783
1
1
1
1
1
1.00001
1.00003
1.00005
1.00015
1.00027
1.00081
1.00153
1.00439
1.00915
1.02327
1.05955
1.13118
1.37581
1.92719
2.23896
2.35108
2.37562
2.39736
2.42443
2.4558
1
1
1
1
1
1.00001
1.00002
1.00003
1.0001
1.00019
1.00058
1.00108
1.00323
1.00623
1.0176
1.0372
1.09774
1.225
1.69606
2.078
2.32665
2.39255
2.4244
2.45547
2.47952
1
1
1
1
1
1.00001
1.00001
1.00003
1.00005
1.00016
1.00031
1.00092
1.00176
1.0049
1.01069
1.02626
1.07004
1.14998
1.45127
2.06481
2.27654
2.40438
2.45709
2.48917
2.50766
1
1
1
1
1
1
1.00001
1.00002
1.00005
1.00009
1.00028
1.00052
1.00156
1.00302
1.00832
1.01879
1.04445
1.1203
1.27115
1.70444
2.28025
2.44223
2.50357
2.51575
2.52691
1
1
1
1
1
1
1.00001
1.00002
1.00003
1.00009
1.00017
1.00051
1.00095
1.00286
1.00559
1.01552
1.03508
1.08503
1.22325
1.57732
2.24418
2.52885
2.59434
2.58005
2.56095
1
1
1
1
1
1
1
1.00001
1.00002
1.00007
1.00013
1.00042
1.00075
1.00234
1.00446
1.01264
1.02843
1.06862
1.19124
1.44512
2.1514
2.57336
2.69627
2.65534
2.61363
1
1
1
1
1
1
1
1.00001
1.00002
1.00006
1.00011
1.00034
1.00062
1.0019
1.00368
1.01026
1.02345
1.05674
1.15822
1.35997
1.94735
2.57261
2.75421
2.71211
2.66349
1
1
1
1
1
1
1
1.00001
1.00002
1.00004
1.00012
1.00023
1.0007
1.00133
1.00395
1.00822
1.0218
1.05454
1.12856
1.34963
1.99924
2.59472
2.80229
2.75255
2.70145
1
1
1
1
1
1
1
1.00001
1.00001
1.00004
1.00008
1.00025
1.00049
1.0014
1.00307
1.00774
1.02045
1.04658
1.13546
1.30556
1.81213
2.6894
2.84776
2.80784
2.7524
1
1
1
1
1
1
1
1.00001
1.00002
1.00003
1.00011
1.0002
1.00064
1.00119
1.00366
1.00737
1.02025
1.04872
1.11699
1.31725
1.90047
2.6314
2.84103
2.82527
2.78675
1
1
1
1
1
1
1
1.00001
1.00002
1.00003
1.00011
1.00019
1.00063
1.00116
1.00367
1.0071
1.02057
1.04593
1.11626
1.30212
1.89113
2.60747
2.83567
2.83714
2.81093
1
1
1
1
1
1
1
1
1.00002
1.00003
1.0001
1.00018
1.00058
1.00109
1.00339
1.00678
1.0192
1.04486
1.11183
1.29531
1.87561
2.59272
2.83242
2.84071
2.81394
1
1
1
1
1
1
1
1.00001
1.00001
1.00003
1.00006
1.0002
1.00039
1.00113
1.00251
1.00647
1.01735
1.04022
1.11793
1.26451
1.75812
2.66849
2.87851
2.86321
2.8167
1
1
1
1
1
1
1
1
1.00001
1.00002
1.00007
1.00014
1.00044
1.00088
1.00255
1.00602
1.01556
1.04261
1.09911
1.27983
1.80424
2.52987
2.89477
2.86028
2.81493
1
1
1
1
1
1
1
1
1.00001
1.00003
1.00005
1.00014
1.00032
1.00082
1.0022
1.00527
1.01511
1.03517
1.10427
1.23547
1.7119
2.5989
2.94703
2.84886
2.79633
1
1
1
1
1
1
1
1
1.00001
1.00002
1.00005
1.00012
1.00029
1.00077
1.00183
1.00521
1.01247
1.03602
1.08284
1.24293
1.66526
2.41079
2.9797
2.84416
2.79201
1
1
1
1
1
1
1
1
1.00001
1.00003
1.00005
1.00015
1.00028
1.00085
1.00174
1.00485
1.01166
1.02894
1.08422
1.18629
1.604
2.4178
3.01262
2.82589
2.78884
1
1
1
1
1
1
1
1
1.00001
1.00003
1.00005
1.00015
1.00027
1.00087
1.00161
1.00496
1.01027
1.02727
1.07312
1.16392
1.51435
2.31155
3.00384
2.80449
2.8003
1
1
1
1
1
1
1
1
1.00001
1.00002
1.00004
1.00014
1.00026
1.00083
1.00152
1.00473
1.00938
1.02578
1.06372
1.14797
1.43714
2.17242
2.91517
2.79888
2.82308
1
1
1
1
1
1
1
1
1.00001
1.00002
1.00004
1.00013
1.00025
1.00076
1.00145
1.00421
1.00898
1.02306
1.06126
1.13739
1.40314
2.07852
2.82546
2.80279
2.82985
1
1
1
1
1
1
1
1
1.00001
1.00002
1.00005
1.0001
1.00031
1.00058
1.00176
1.00348
1.0094
1.02252
1.05331
1.15062
1.35019
1.89986
2.84038
2.80877
2.81762
1
1
1
1
1
1
1
1
1.00001
1.00002
1.00006
1.0001
1.00032
1.00058
1.00182
1.00341
1.01003
1.02144
1.05403
1.1434
1.33987
1.8684
2.83486
2.8032
2.80395
1
1
1
1
1
1
1
1
1.00001
1.00002
1.00005
1.0001
1.0003
1.00056
1.00171
1.00337
1.00911
1.02172
1.05155
1.1456
1.3359
1.86549
2.83061
2.80362
2.80081
1
1
1
1
1
1
1
1
1.00001
1.00002
1.00004
1.00013
1.00023
1.00071
1.00135
1.0039
1.00838
1.02126
1.05656
1.12462
1.36929
1.95873
2.79297
2.78943
2.79856
2.41599
2.44136
2.8166
2.99641
3.16975
3.15053
3.14041
3.10834
3.09208
3.06558
3.05331
3.03757
3.03073
3.02969
3.02827
3.02994
3.03463
3.03924
3.04447
3.04966
3.05426
3.05805
3.06187
3.06483
3.06965
3.07213
3.07447
3.07655
3.07851
3.07923
3.07917
3.07655
3.07292
3.06848
3.06519
3.06041
3.05569
3.05136
3.04453
3.03962
3.03301
3.02552
3.01888
3.01025
3.0045
2.9954
2.98694
2.97628
2.96994
2.95864
2.94892
2.93924
2.92948
2.91771
2.9092
2.8956
2.88652
2.87279
2.86198
2.84886
2.83693
2.82533
2.81123
2.7989
2.78609
2.77202
2.76071
2.74569
2.73483
2.71981
2.70917
2.69466
2.6838
2.67098
2.65883
2.64812
2.6351
2.62518
2.61278
2.6023
2.5913
2.58011
2.57011
2.55878
2.54933
2.5379
2.52938
2.51755
2.51001
2.49827
2.49095
2.48035
2.4725
2.46394
2.45543
2.44955
2.44132
2.4381
2.43308
2.43137
2.33518
2.39815
2.58706
2.91419
3.12739
3.21841
3.26887
3.29058
3.3149
3.32269
3.32468
3.32467
3.32292
3.3291
3.32823
3.32549
3.31785
3.31069
3.30006
3.28751
3.27366
3.25683
3.23916
3.2222
3.2097
3.19746
3.18731
3.17285
3.16302
3.14826
3.13556
3.12132
3.10917
3.09376
3.08093
3.06525
3.05427
3.03795
3.0246
3.00997
2.99653
2.98015
2.96628
2.95174
2.93665
2.92376
2.90844
2.89411
2.88098
2.86617
2.85469
2.84043
2.8276
2.81381
2.80052
2.78807
2.77297
2.76191
2.74609
2.73485
2.72027
2.70776
2.69447
2.68109
2.66825
2.6543
2.64198
2.62758
2.61575
2.60188
2.58956
2.57729
2.56389
2.55336
2.53942
2.52962
2.5165
2.50627
2.49461
2.48399
2.47333
2.46271
2.45281
2.44207
2.43311
2.42198
2.41402
2.40251
2.39523
2.38407
2.37674
2.36691
2.35903
2.35125
2.34296
2.33766
2.32995
2.32693
2.32252
2.32105
2.33378
2.34559
2.44132
2.56548
2.70103
2.917
3.10848
3.22282
3.30555
3.34143
3.37578
3.41163
3.42445
3.42738
3.42076
3.4146
3.39489
3.37304
3.35007
3.32803
3.3044
3.27936
3.25608
3.23046
3.20713
3.18047
3.15626
3.12833
3.10325
3.07501
3.04788
3.02296
2.99703
2.97119
2.94681
2.92338
2.89959
2.879
2.85589
2.83711
2.81557
2.79722
2.77966
2.76111
2.74439
2.72671
2.71087
2.69446
2.6795
2.66427
2.64916
2.63578
2.6208
2.60939
2.59551
2.5842
2.57179
2.5593
2.54822
2.53515
2.52501
2.51207
2.50273
2.48979
2.48098
2.46804
2.4591
2.44671
2.43716
2.42596
2.41568
2.40583
2.39507
2.38609
2.37538
2.36652
2.3564
2.34723
2.3379
2.32864
2.31984
2.31084
2.30255
2.29344
2.28595
2.27655
2.26984
2.26031
2.25399
2.24497
2.23836
2.23088
2.22366
2.21816
2.21085
2.20711
2.20113
2.19908
2.1959
2.19619
2.32064
2.29836
2.33235
2.40423
2.47998
2.5563
2.7009
2.85589
3.0188
3.14971
3.22546
3.27452
3.29628
3.29863
3.28565
3.25513
3.22617
3.19417
3.16349
3.13508
3.10835
3.08141
3.05297
3.02338
2.99319
2.96225
2.93261
2.90189
2.8719
2.84316
2.81448
2.78803
2.76227
2.73823
2.71664
2.69415
2.67593
2.65485
2.63983
2.62129
2.60816
2.59259
2.58083
2.56771
2.55673
2.54408
2.53237
2.52108
2.5088
2.49829
2.48608
2.47574
2.46421
2.45351
2.44296
2.43219
2.42272
2.41211
2.40332
2.39263
2.38416
2.37351
2.36514
2.35478
2.34608
2.33632
2.32695
2.31798
2.30812
2.29979
2.28987
2.28176
2.27203
2.26398
2.25437
2.24667
2.23702
2.22979
2.2203
2.21301
2.20405
2.19629
2.18824
2.17994
2.17296
2.16414
2.15804
2.14927
2.14349
2.13557
2.12959
2.12323
2.11679
2.11225
2.10589
2.10279
2.09772
2.09602
2.09363
2.09417
2.32017
2.28081
2.2771
2.30685
2.3544
2.40188
2.45261
2.54307
2.63081
2.72769
2.81997
2.86722
2.90873
2.90476
2.89208
2.86598
2.84099
2.81628
2.79303
2.77101
2.74952
2.72941
2.70641
2.6873
2.66389
2.64537
2.62483
2.60746
2.58968
2.57295
2.55775
2.54283
2.53029
2.51756
2.50662
2.49572
2.48671
2.47772
2.47058
2.46285
2.45599
2.4496
2.44248
2.43717
2.42977
2.42465
2.41603
2.41065
2.40268
2.39739
2.39004
2.38411
2.37697
2.37037
2.3632
2.35606
2.34879
2.34106
2.33368
2.32529
2.31779
2.30897
2.30125
2.29248
2.2842
2.27581
2.26664
2.25868
2.24881
2.24109
2.23119
2.22346
2.21413
2.20622
2.19764
2.18951
2.18146
2.17297
2.16533
2.1567
2.1496
2.14078
2.13419
2.12511
2.11889
2.10974
2.10366
2.09499
2.08877
2.08109
2.07462
2.06834
2.06161
2.05688
2.05048
2.0469
2.04214
2.04017
2.03808
2.03882
2.31538
2.28088
2.25436
2.26106
2.28037
2.31475
2.35106
2.38762
2.44501
2.49026
2.52844
2.56236
2.56011
2.55218
2.53836
2.52011
2.50221
2.48438
2.47067
2.46438
2.4588
2.4522
2.44719
2.44257
2.43776
2.43302
2.42858
2.42467
2.42071
2.41739
2.41428
2.41113
2.40863
2.40525
2.40343
2.40026
2.39875
2.39581
2.39416
2.39093
2.3882
2.38468
2.38077
2.37701
2.37205
2.36758
2.36126
2.35569
2.34916
2.34325
2.33708
2.33085
2.325
2.31815
2.31271
2.30532
2.3004
2.29259
2.28791
2.27977
2.27481
2.2665
2.26071
2.25247
2.24565
2.23778
2.23004
2.22258
2.21405
2.20667
2.19761
2.1899
2.18075
2.17262
2.16346
2.155
2.14584
2.13753
2.12861
2.12046
2.11206
2.10406
2.09647
2.08856
2.0819
2.07416
2.06818
2.0609
2.05515
2.04876
2.04295
2.03771
2.03182
2.02773
2.0221
2.01918
2.01452
2.01312
2.01089
2.01066
2.31341
2.27652
2.25448
2.24222
2.25252
2.26815
2.29927
2.32796
2.35099
2.38138
2.39254
2.39467
2.38698
2.37166
2.35692
2.34166
2.33375
2.32496
2.32118
2.32165
2.32593
2.33132
2.33612
2.33954
2.34244
2.34463
2.3462
2.34751
2.34783
2.34831
2.34834
2.34842
2.34821
2.34764
2.34685
2.3452
2.34372
2.34182
2.33902
2.33681
2.33297
2.33033
2.32604
2.32356
2.31882
2.31509
2.30983
2.30543
2.29987
2.29444
2.28899
2.28328
2.27799
2.27157
2.26591
2.25883
2.25292
2.24545
2.23906
2.23133
2.22427
2.21681
2.20918
2.20228
2.19413
2.18769
2.17927
2.17314
2.16479
2.15871
2.15052
2.14425
2.13613
2.12938
2.12145
2.11443
2.10702
2.09959
2.0928
2.08492
2.07862
2.07038
2.06439
2.05601
2.05018
2.04207
2.03628
2.02885
2.02311
2.01663
2.01095
2.00568
2.00006
1.9962
1.99132
1.98868
1.9855
1.98467
1.98394
1.98466
2.31793
2.27946
2.25508
2.24158
2.24445
2.25993
2.27951
2.30653
2.3261
2.33539
2.34007
2.328
2.30826
2.2874
2.26529
2.25197
2.24027
2.23725
2.23446
2.23465
2.23915
2.24749
2.25606
2.26374
2.26932
2.27397
2.27676
2.27924
2.28064
2.28231
2.2831
2.28394
2.28376
2.28333
2.28256
2.28101
2.27936
2.27748
2.27478
2.27275
2.26949
2.26729
2.26383
2.26182
2.25787
2.2548
2.25006
2.24627
2.24142
2.2367
2.23169
2.22639
2.22147
2.21563
2.21059
2.20425
2.19911
2.19261
2.18722
2.18067
2.17467
2.16818
2.16155
2.15525
2.14804
2.14177
2.13396
2.1275
2.11924
2.11255
2.10407
2.097
2.08851
2.08127
2.07314
2.06575
2.05813
2.05061
2.04358
2.03595
2.02948
2.02188
2.01585
2.00848
2.00269
1.99581
1.99007
1.98388
1.97814
1.97277
1.9671
1.96255
1.95731
1.95365
1.94943
1.94709
1.94441
1.94427
1.94394
1.94413
2.32844
2.28769
2.266
2.25257
2.25242
2.2642
2.28111
2.29767
2.31368
2.32082
2.31276
2.29152
2.26634
2.24047
2.21933
2.20069
2.18885
2.18309
2.18055
2.181
2.18282
2.19038
2.19975
2.20875
2.2169
2.2229
2.22786
2.23126
2.23427
2.2367
2.23827
2.24029
2.24093
2.24196
2.2428
2.2427
2.24248
2.24206
2.24102
2.24006
2.23808
2.23682
2.23452
2.23305
2.23003
2.22743
2.22357
2.21984
2.21591
2.21102
2.20682
2.20104
2.19682
2.19053
2.18621
2.17966
2.17515
2.1687
2.16383
2.15761
2.1521
2.14608
2.13989
2.13408
2.12733
2.12157
2.11419
2.10816
2.10011
2.09358
2.08504
2.07806
2.06946
2.06207
2.05367
2.04594
2.03796
2.03
2.02252
2.01442
2.00742
1.99934
1.9927
1.98495
1.9785
1.97135
1.9651
1.95865
1.95281
1.94719
1.94189
1.93732
1.93283
1.92949
1.92644
1.92451
1.92374
1.92404
1.925
1.92492
2.33485
2.30466
2.28232
2.27552
2.27742
2.28891
2.30121
2.31029
2.31541
2.31339
2.29748
2.27134
2.24225
2.21416
2.18984
2.17089
2.15703
2.1487
2.14564
2.14396
2.14433
2.1466
2.15351
2.1615
2.17
2.17757
2.18388
2.18898
2.19305
2.19648
2.19934
2.20179
2.20349
2.20542
2.20639
2.20697
2.20735
2.20707
2.20656
2.2059
2.20456
2.20365
2.20182
2.20046
2.19785
2.19563
2.19276
2.18945
2.18642
2.18203
2.17858
2.17317
2.16949
2.16359
2.15961
2.15344
2.14894
2.14265
2.13742
2.13107
2.12507
2.11881
2.11225
2.10634
2.09957
2.09406
2.08714
2.08174
2.07453
2.06899
2.06158
2.05572
2.04827
2.04203
2.03466
2.02805
2.02085
2.01391
2.007
1.99976
1.99321
1.98589
1.97959
1.97257
1.96639
1.95996
1.95394
1.94812
1.94254
1.93732
1.93247
1.92807
1.92441
1.92125
1.91919
1.9181
1.91834
1.91896
1.92087
1.92051
2.33959
2.32426
2.30934
2.30674
2.31093
2.31924
2.32837
2.33185
2.32889
2.31398
2.28953
2.26061
2.23176
2.20476
2.18152
2.16222
2.14631
2.13554
2.12884
2.12629
2.12496
2.12543
2.12702
2.13275
2.13999
2.14728
2.155
2.16113
2.16679
2.17048
2.17435
2.17642
2.17965
2.18128
2.18339
2.1843
2.18501
2.18522
2.18509
2.18468
2.18371
2.18302
2.18151
2.1803
2.17769
2.17567
2.17227
2.16886
2.16503
2.16065
2.15638
2.15095
2.1465
2.14083
2.13655
2.13109
2.12662
2.12124
2.11606
2.11052
2.10451
2.09881
2.09228
2.08656
2.07981
2.0742
2.06732
2.06172
2.05464
2.04867
2.04128
2.03479
2.02724
2.02029
2.0129
2.00545
1.99849
1.99054
1.98402
1.97601
1.96959
1.96214
1.95568
1.94898
1.94278
1.93665
1.93099
1.92552
1.92032
1.91566
1.91112
1.90751
1.90419
1.90206
1.90071
1.90084
1.90167
1.90234
1.90576
1.90573
2.35103
2.34184
2.34155
2.34264
2.3494
2.35295
2.3574
2.35373
2.34052
2.31812
2.29043
2.26173
2.23396
2.20815
2.18526
2.1649
2.14847
2.13529
2.1257
2.11894
2.11526
2.11319
2.1134
2.11395
2.11753
2.12265
2.12831
2.13466
2.1405
2.1453
2.14915
2.15239
2.15487
2.15714
2.15833
2.15965
2.16001
2.16033
2.16104
2.16076
2.16003
2.15946
2.15822
2.1572
2.15513
2.1532
2.15072
2.14747
2.14442
2.14016
2.13689
2.13191
2.12809
2.12272
2.11857
2.11333
2.10879
2.10361
2.09838
2.09305
2.08709
2.08165
2.07531
2.06988
2.06331
2.05792
2.0512
2.04581
2.03884
2.03324
2.02603
2.0201
2.01276
2.00659
1.99923
1.99293
1.98561
1.97913
1.97193
1.96525
1.95827
1.95162
1.94497
1.93861
1.93243
1.92658
1.92108
1.9158
1.91116
1.90659
1.9031
1.89983
1.89781
1.89657
1.89672
1.89747
1.89837
1.90048
1.9049
1.90797
2.37155
2.36861
2.37045
2.37551
2.37911
2.38204
2.37724
2.36352
2.34243
2.31791
2.29124
2.26469
2.23933
2.21565
2.19347
2.17416
2.15714
2.14283
2.13037
2.12009
2.1123
2.10671
2.10357
2.10203
2.10214
2.10302
2.10622
2.10963
2.11566
2.12062
2.12563
2.12914
2.13205
2.13444
2.13563
2.13715
2.13771
2.13839
2.13878
2.13861
2.13792
2.13713
2.13577
2.1348
2.13289
2.13124
2.12853
2.12587
2.12237
2.1186
2.11491
2.1107
2.10645
2.10157
2.0969
2.09211
2.08723
2.08251
2.07718
2.0722
2.06648
2.06111
2.05535
2.04979
2.04417
2.0385
2.0328
2.02691
2.02108
2.01487
2.00896
2.00228
1.99634
1.98925
1.98328
1.97614
1.97001
1.96313
1.95672
1.95017
1.94366
1.93738
1.93116
1.92522
1.9195
1.91423
1.90905
1.90457
1.90022
1.89672
1.89379
1.89181
1.89085
1.89107
1.8918
1.89299
1.89547
1.90075
1.90581
1.91031
2.38922
2.40113
2.4081
2.40902
2.41212
2.40821
2.39655
2.37356
2.34685
2.32045
2.29524
2.27097
2.24724
2.22484
2.20346
2.18502
2.16693
2.15107
2.13549
2.12298
2.11148
2.10381
2.09687
2.09312
2.09011
2.08905
2.0888
2.08991
2.09324
2.09738
2.1025
2.10615
2.10953
2.11185
2.11337
2.11502
2.11579
2.11661
2.11708
2.11696
2.11647
2.11553
2.11452
2.11357
2.11247
2.11046
2.10904
2.10614
2.10395
2.09981
2.09719
2.09289
2.08927
2.08431
2.07973
2.07488
2.07007
2.06526
2.06007
2.05498
2.04937
2.04399
2.03821
2.03279
2.02709
2.02157
2.01574
2.00998
2.00382
1.99799
1.99152
1.98562
1.97892
1.97275
1.96606
1.95957
1.95314
1.94643
1.94026
1.93355
1.92755
1.92111
1.91547
1.90957
1.90459
1.89959
1.89529
1.89136
1.88806
1.88558
1.88383
1.8833
1.88363
1.88434
1.88572
1.88935
1.89313
1.90059
1.90675
1.91143
2.41114
2.42478
2.43539
2.43859
2.43574
2.42406
2.40297
2.37766
2.35179
2.32783
2.30417
2.2817
2.25892
2.2377
2.2176
2.19875
2.18038
2.1625
2.14573
2.13056
2.11752
2.10622
2.097
2.08929
2.08305
2.07939
2.07652
2.07596
2.07573
2.07736
2.08072
2.08392
2.08743
2.09027
2.09238
2.09437
2.09534
2.09628
2.09696
2.09704
2.09688
2.09647
2.09567
2.09513
2.09386
2.09262
2.09044
2.08834
2.08536
2.08198
2.0787
2.07503
2.07126
2.06654
2.06182
2.05674
2.05189
2.04685
2.04181
2.03658
2.03129
2.02597
2.02047
2.01517
2.00956
2.00424
1.99853
1.99292
1.98704
1.98117
1.97517
1.9692
1.96298
1.95693
1.95037
1.94433
1.93758
1.93164
1.92498
1.91914
1.91277
1.90711
1.90125
1.896
1.89106
1.88647
1.88264
1.87925
1.87708
1.8754
1.8754
1.87596
1.87676
1.87868
1.88184
1.88796
1.89409
1.90208
1.90854
1.91252
2.44022
2.45435
2.45657
2.4565
2.44689
2.42727
2.40238
2.37773
2.35444
2.33262
2.31147
2.29025
2.2697
2.25006
2.23151
2.21216
2.19372
2.17389
2.15609
2.13886
2.12337
2.10975
2.0973
2.08693
2.07803
2.07131
2.06611
2.06337
2.06141
2.06082
2.06083
2.06261
2.0655
2.06874
2.07139
2.07376
2.07545
2.07646
2.07738
2.07733
2.07722
2.07691
2.07623
2.07574
2.07469
2.07366
2.07183
2.06997
2.06734
2.0644
2.0612
2.05794
2.05424
2.05003
2.0453
2.04039
2.03544
2.03037
2.02536
2.01999
2.01496
2.00944
2.0045
1.99881
1.99392
1.98809
1.98319
1.97717
1.97208
1.96593
1.96061
1.95456
1.94901
1.943
1.93718
1.93101
1.92512
1.91887
1.91307
1.907
1.90136
1.89571
1.89038
1.88547
1.88075
1.87683
1.87331
1.87116
1.86945
1.8695
1.86998
1.87104
1.87296
1.87746
1.88279
1.89038
1.89704
1.90464
1.91048
1.91342
2.47529
2.48158
2.48347
2.47588
2.45846
2.4327
2.40613
2.38211
2.35995
2.33969
2.31929
2.29986
2.28053
2.26191
2.24304
2.22308
2.20359
2.18322
2.16483
2.14649
2.13011
2.11449
2.10034
2.08779
2.0766
2.06751
2.0597
2.05434
2.04988
2.04788
2.0459
2.04564
2.04595
2.04812
2.05034
2.05311
2.0549
2.05637
2.05737
2.05759
2.05747
2.05703
2.05653
2.05553
2.05488
2.05352
2.05219
2.05037
2.04831
2.04579
2.04286
2.03968
2.03619
2.03231
2.02771
2.02309
2.01786
2.01318
2.00784
2.00321
1.99783
1.99332
1.98781
1.98337
1.97767
1.9732
1.96746
1.96278
1.95709
1.95187
1.94635
1.94073
1.93539
1.92974
1.92426
1.91873
1.91309
1.90761
1.90218
1.89687
1.89187
1.88695
1.88257
1.87815
1.87457
1.87124
1.86925
1.86789
1.86792
1.86856
1.86971
1.87274
1.8762
1.88308
1.88977
1.89762
1.90428
1.91017
1.91516
1.91662
2.49316
2.49919
2.49476
2.48028
2.4546
2.42985
2.40617
2.38489
2.36507
2.34621
2.32723
2.30836
2.28985
2.27067
2.25152
2.23123
2.2115
2.19147
2.17234
2.15367
2.13593
2.11891
2.10347
2.08866
2.07626
2.06432
2.0548
2.04609
2.03988
2.03489
2.03164
2.02933
2.0279
2.02793
2.02863
2.03069
2.03244
2.03448
2.03512
2.03638
2.03623
2.03599
2.03544
2.03492
2.03431
2.03336
2.03213
2.03065
2.02894
2.02694
2.02437
2.02139
2.01816
2.01427
2.01026
2.00548
2.00082
1.9957
1.99093
1.98588
1.9812
1.97614
1.97149
1.96643
1.96168
1.95666
1.95173
1.94686
1.94169
1.93683
1.93144
1.92645
1.92105
1.91603
1.91063
1.9057
1.90026
1.89543
1.8903
1.88574
1.88123
1.8773
1.8735
1.87027
1.86772
1.86601
1.86523
1.86571
1.86653
1.86838
1.87108
1.87662
1.8832
1.89039
1.89826
1.9042
1.9109
1.91387
1.91848
1.91826
2.51667
2.51317
2.49954
2.47547
2.45085
2.42752
2.405
2.38524
2.36628
2.34815
2.33044
2.31192
2.2934
2.27396
2.2546
2.23439
2.21468
2.19485
2.17533
2.15649
2.13786
2.1204
2.10361
2.08829
2.07405
2.06141
2.04993
2.03995
2.03135
2.0243
2.01907
2.01507
2.0121
2.01016
2.00931
2.00946
2.01029
2.01172
2.01392
2.01456
2.01566
2.01553
2.01523
2.01461
2.01415
2.01347
2.01241
2.0111
2.00949
2.0078
2.00553
2.00289
1.99989
1.99644
1.99283
1.98848
1.98412
1.97908
1.97452
1.96929
1.96478
1.95948
1.95496
1.94978
1.94522
1.94026
1.93564
1.93087
1.92621
1.92146
1.91669
1.91175
1.90698
1.90191
1.89726
1.89232
1.88775
1.88319
1.87895
1.87498
1.87143
1.86829
1.86548
1.86363
1.86237
1.86245
1.8632
1.86429
1.86658
1.87004
1.87627
1.8827
1.89102
1.89734
1.90472
1.90896
1.91375
1.91513
1.91804
1.91694
2.52218
2.50852
2.48641
2.46393
2.44247
2.42245
2.40292
2.38491
2.36768
2.35021
2.33318
2.31521
2.2974
2.27865
2.25999
2.24049
2.22108
2.20135
2.18149
2.16219
2.1429
2.12503
2.10775
2.09181
2.07642
2.06281
2.04928
2.0379
2.02726
2.018
2.01081
2.00443
1.99999
1.99592
1.99327
1.99184
1.99093
1.99102
1.99156
1.99293
1.99344
1.99417
1.99393
1.99338
1.99275
1.99182
1.99077
1.98932
1.9876
1.98585
1.98377
1.98162
1.97867
1.97584
1.97216
1.96884
1.96433
1.9604
1.95534
1.95111
1.94613
1.94164
1.93701
1.93215
1.92791
1.92289
1.91887
1.91395
1.90998
1.90528
1.90127
1.89669
1.89253
1.88812
1.88387
1.87974
1.87564
1.87189
1.86829
1.86518
1.86245
1.86003
1.85884
1.85798
1.85875
1.85968
1.86162
1.86411
1.86946
1.8748
1.88288
1.88952
1.89719
1.9025
1.90764
1.9103
1.91259
1.91291
1.91403
1.91195
2.53507
2.50111
2.47133
2.44623
2.42432
2.40603
2.38977
2.37425
2.35853
2.34207
2.32542
2.30828
2.29055
2.27262
2.25428
2.23586
2.21709
2.19825
2.1794
2.16098
2.14296
2.12553
2.10878
2.09249
2.07696
2.06212
2.04789
2.03516
2.02288
2.01263
2.00276
1.99465
1.98761
1.98147
1.97627
1.97206
1.96968
1.96801
1.96715
1.96718
1.96786
1.96816
1.96875
1.96834
1.96794
1.96716
1.96644
1.96504
1.96346
1.96144
1.95939
1.95727
1.95481
1.95204
1.94888
1.94547
1.94175
1.93778
1.93342
1.92902
1.92423
1.91984
1.91499
1.91074
1.90605
1.90191
1.89748
1.89355
1.88934
1.88566
1.88172
1.87815
1.87454
1.87096
1.86764
1.8643
1.86133
1.85859
1.85615
1.85425
1.85264
1.85176
1.85219
1.85328
1.855
1.85699
1.86122
1.86608
1.87347
1.88036
1.88791
1.89408
1.89967
1.90333
1.90591
1.9067
1.90689
1.90607
1.90575
1.90335
2.56336
2.51428
2.47457
2.44429
2.41913
2.39819
2.37979
2.36312
2.34684
2.33086
2.31445
2.29852
2.28166
2.26538
2.24803
2.23103
2.21325
2.1956
2.17779
2.15995
2.14248
2.12528
2.10797
2.09162
2.0749
2.05932
2.04426
2.03006
2.01664
2.00424
1.99251
1.98191
1.9722
1.96423
1.95705
1.95129
1.94666
1.9439
1.94244
1.94197
1.94217
1.94265
1.94353
1.94475
1.94461
1.94426
1.94386
1.94287
1.94167
1.93936
1.93732
1.93458
1.93233
1.92922
1.92637
1.92278
1.91927
1.91542
1.91121
1.90692
1.90207
1.89754
1.89257
1.88821
1.88351
1.8794
1.87519
1.87133
1.86763
1.86403
1.86076
1.8574
1.85455
1.85141
1.84903
1.84641
1.84458
1.84295
1.84173
1.84114
1.84122
1.84228
1.84437
1.84618
1.85011
1.85416
1.86147
1.86833
1.87603
1.88289
1.88879
1.8936
1.89647
1.89828
1.89841
1.89795
1.89692
1.89534
1.89428
1.89161
2.58916
2.53297
2.48929
2.45381
2.42516
2.40111
2.38032
2.36088
2.34233
2.32444
2.30707
2.29084
2.2747
2.25914
2.24325
2.22709
2.21066
2.19375
2.17662
2.15959
2.1421
2.12494
2.10759
2.09062
2.07409
2.05812
2.04259
2.02775
2.01302
1.99896
1.9854
1.97289
1.96173
1.95191
1.94399
1.93765
1.93237
1.92856
1.9266
1.92526
1.9251
1.92547
1.926
1.92702
1.92811
1.92804
1.92793
1.92762
1.92678
1.92542
1.92306
1.92074
1.91787
1.91491
1.91172
1.90791
1.9043
1.89991
1.89596
1.89126
1.88676
1.88188
1.87711
1.87245
1.8679
1.86368
1.85951
1.85575
1.8519
1.84861
1.84503
1.84216
1.83904
1.8365
1.83431
1.83227
1.83127
1.83016
1.83023
1.83068
1.83234
1.83435
1.83729
1.84151
1.84785
1.85482
1.86291
1.87008
1.87728
1.88254
1.88695
1.88932
1.89043
1.89023
1.88934
1.88847
1.88681
1.88407
1.88263
1.87972
2.62629
2.56644
2.52299
2.48655
2.45554
2.42816
2.4037
2.38034
2.35862
2.33776
2.31765
2.29932
2.28179
2.26542
2.24913
2.23291
2.21656
2.19988
2.18296
2.16581
2.14849
2.13117
2.11379
2.09645
2.07916
2.06203
2.04505
2.02863
2.0126
1.99764
1.9835
1.97063
1.95927
1.94914
1.9408
1.93361
1.92762
1.92279
1.91857
1.91642
1.91574
1.91591
1.91646
1.91761
1.91849
1.91929
1.91987
1.9199
1.91969
1.91898
1.91748
1.91532
1.91233
1.90932
1.90566
1.90199
1.89769
1.89337
1.88882
1.88417
1.87937
1.87449
1.86959
1.86491
1.86043
1.85617
1.85221
1.84829
1.84466
1.84121
1.83783
1.83501
1.832
1.82988
1.82789
1.82643
1.82576
1.82564
1.82614
1.82788
1.82975
1.83351
1.83816
1.84539
1.85198
1.86026
1.86687
1.8736
1.8785
1.88219
1.88432
1.88489
1.88459
1.88392
1.88235
1.8809
1.87848
1.87547
1.87375
1.87096
2.66729
2.59877
2.54833
2.50961
2.47748
2.44935
2.42465
2.40138
2.37928
2.3586
2.33901
2.32066
2.30232
2.28449
2.26663
2.24907
2.23192
2.21445
2.19719
2.17942
2.16189
2.14393
2.12626
2.10814
2.09022
2.07241
2.05471
2.0379
2.02133
2.00612
1.99176
1.97882
1.96735
1.95688
1.948
1.93958
1.93306
1.92657
1.9217
1.91741
1.91508
1.9134
1.91329
1.91359
1.91455
1.91543
1.9166
1.9176
1.91801
1.91789
1.91731
1.91593
1.91358
1.91051
1.90682
1.90284
1.89827
1.89354
1.88868
1.88371
1.87884
1.87383
1.86896
1.86423
1.8598
1.85566
1.85187
1.84828
1.84499
1.84178
1.83887
1.8363
1.83378
1.83227
1.83067
1.82984
1.82988
1.82994
1.83089
1.833
1.83774
1.84228
1.84942
1.85617
1.86366
1.87019
1.87575
1.88011
1.88272
1.88438
1.8843
1.88381
1.88295
1.88172
1.87905
1.87712
1.87423
1.87134
1.86935
1.86675
2.70262
2.63184
2.58057
2.5413
2.51026
2.48219
2.45601
2.43211
2.40944
2.38867
2.36888
2.35043
2.33224
2.31451
2.29699
2.27862
2.26049
2.24186
2.22365
2.2056
2.18702
2.16864
2.14951
2.13053
2.11149
2.09262
2.07454
2.05705
2.04067
2.02535
2.01137
1.99894
1.98719
1.97659
1.96622
1.95709
1.9483
1.94111
1.93479
1.92976
1.92587
1.92359
1.92266
1.92296
1.92371
1.92535
1.92681
1.92781
1.92922
1.92925
1.92884
1.92761
1.92502
1.92108
1.91626
1.91102
1.90543
1.8997
1.89398
1.88821
1.88284
1.8774
1.87226
1.86714
1.86245
1.85799
1.8541
1.85044
1.84734
1.84437
1.84201
1.83984
1.83836
1.83741
1.83697
1.83716
1.8375
1.83907
1.84236
1.84773
1.85338
1.86007
1.86677
1.87324
1.87928
1.88387
1.88743
1.88955
1.89012
1.88974
1.88866
1.88787
1.88567
1.88397
1.88045
1.87831
1.87512
1.87243
1.87024
1.86784
2.72683
2.64956
2.60089
2.56729
2.54045
2.51579
2.49246
2.46882
2.44552
2.42277
2.4006
2.37998
2.36037
2.34217
2.32454
2.30776
2.29097