/*--------------------------------*- C++ -*----------------------------------*\
  =========                 |
  \\      /  F ield         | OpenFOAM: The Open Source CFD Toolbox
   \\    /   O peration     | Website:  https://openfoam.org
    \\  /    A nd           | Version:  6
     \\/     M anipulation  |
\*---------------------------------------------------------------------------*/
FoamFile
{
    version     2.0;
    format      ascii;
    class       surfaceScalarField;
    location    "26.5";
    object      phi;
}
// * * * * * * * * * * * * * * * * * * * * * * * * * * * * * * * * * * * * * //

dimensions      [0 3 -1 0 0 0 0];

internalField   nonuniform List<scalar> 
17370
(
-0.0900012
0.0898496
0.289162
-0.0714627
0.0537519
0.364486
-0.0381173
0.0276858
0.4266
-0.0196293
0.0145913
0.50429
-0.0107434
0.00824709
0.601898
-0.00624219
0.00486618
0.720434
-0.00371097
0.00288414
0.863733
-0.00216018
0.00161608
1.03599
-0.0011119
0.000708675
1.24291
-0.000307852
-6.71284e-05
1.49157
0.000437199
-0.000843144
1.4916
0.00124349
-0.00173989
1.24319
0.00227624
-0.00299062
1.03635
0.00380749
-0.00495226
0.864051
0.00632022
-0.00831725
0.721055
0.0108062
-0.0146462
0.603055
0.0196777
-0.0277277
0.507489
0.0381537
-0.0537823
0.431797
0.0714875
-0.0898661
0.365154
0.0900111
0.199
-0.12813
0.0882189
0.0399109
-0.364591
0.353367
-0.0746782
0.0859022
-0.446471
0.454309
-0.0844008
0.0765624
-0.521185
0.529886
-0.0684706
0.0597692
-0.612779
0.621553
-0.0515887
0.0428145
-0.726883
0.734144
-0.0353576
0.0280972
-0.867465
0.872564
-0.0225088
0.0174101
-1.03846
1.04189
-0.0136115
0.0101771
-1.2446
1.247
-0.00758605
0.00518728
-1.49265
1.49458
-0.00327435
0.00133707
-1.49248
1.49419
0.000331303
-0.00203921
-1.24399
1.24587
0.00392916
-0.00581035
-1.0375
1.04006
0.00817756
-0.010735
-0.866093
0.869854
0.0141292
-0.0178902
-0.724399
0.72995
0.0229473
-0.0284982
-0.608706
0.616127
0.0357186
-0.0431404
-0.514907
0.523056
0.0518779
-0.0600265
-0.439864
0.44793
0.0686945
-0.0767606
-0.375302
0.376767
0.0845689
-0.0860337
-0.257348
0.222526
0.0747672
-0.0399453
-0.0685039
0.0586745
0.00982933
-0.0518318
0.0584236
-0.374109
0.367517
-0.0575116
0.0537579
-0.453579
0.457332
-0.0486562
0.0446884
-0.527919
0.531887
-0.0408297
0.0371753
-0.621528
0.625182
-0.0330615
0.0289952
-0.735302
0.739368
-0.024466
0.0203682
-0.874294
0.878392
-0.0161123
0.0124963
-1.04345
1.04706
-0.00883942
0.00571649
-1.24853
1.25165
-0.00241734
-0.000661671
-1.49663
1.49971
0.00372586
-0.00697754
-1.49721
1.50046
0.0100415
-0.0136173
-1.25009
1.25367
0.0171556
-0.0213271
-1.04594
1.05011
0.0253484
-0.0297975
-0.877786
0.882235
0.0337946
-0.0378359
-0.739935
0.743977
0.0414277
-0.0452227
-0.62681
0.630605
0.0491375
-0.0541891
-0.534845
0.539896
0.0578891
-0.0587351
-0.457519
0.458365
0.052067
-0.0319228
-0.335827
0.315683
0.00986793
-0.0683975
0.0585296
-0.0529218
0.0489268
0.003995
-0.0331677
0.0437221
-0.358074
0.34752
-0.0474349
0.0468275
-0.459255
0.459862
-0.0437985
0.040475
-0.535767
0.539091
-0.0367325
0.0334509
-0.628483
0.631764
-0.0300308
0.0270052
-0.742586
0.745611
-0.0237479
0.0206448
-0.881907
0.88501
-0.0171325
0.0137847
-1.05063
1.05398
-0.0100528
0.00658926
-1.25504
1.2585
-0.00273811
-0.000944372
-1.50317
1.50686
0.00460537
-0.00840744
-1.50408
1.50788
0.0117992
-0.0154319
-1.25739
1.26102
0.0186777
-0.0220724
-1.05393
1.05733
0.0250708
-0.0282155
-0.885769
0.888914
0.0311411
-0.0344572
-0.747275
0.750592
0.0376482
-0.041298
-0.634414
0.638064
0.0445436
-0.0474871
-0.544228
0.547171
0.0480074
-0.0441748
-0.456692
0.452859
0.0334801
-0.0161253
-0.296395
0.27904
0.004042
-0.052735
0.048693
-0.0458473
0.0433556
0.00249164
-0.0227816
0.0331521
-0.336825
0.326454
-0.0389643
0.0399703
-0.459529
0.458523
-0.0387642
0.0364605
-0.541774
0.544078
-0.0337794
0.0311892
-0.634767
0.637357
-0.0281684
0.0253415
-0.748617
0.751444
-0.022187
0.0193058
-0.887956
0.890838
-0.0161251
0.013134
-1.05708
1.06007
-0.0097162
0.00639182
-1.26191
1.26524
-0.00250367
-0.00132377
-1.51068
1.5145
0.00512455
-0.00893356
-1.51173
1.51554
0.0121456
-0.0154189
-1.26444
1.26772
0.0182651
-0.0212836
-1.06045
1.06347
0.0240197
-0.0270194
-0.892002
0.895002
0.0297063
-0.0325806
-0.753823
0.756697
0.0350479
-0.037608
-0.641157
0.643717
0.0398122
-0.0408901
-0.549016
0.550094
0.0397528
-0.033752
-0.447662
0.441661
0.0231786
-0.0101047
-0.263936
0.250862
0.00254973
-0.0455615
0.0430117
-0.0412825
0.0395215
0.00176093
-0.0166844
0.0259147
-0.316604
0.307373
-0.0325232
0.0346853
-0.456912
0.45475
-0.0342989
0.0326624
-0.546052
0.547689
-0.0305138
0.0284438
-0.639631
0.641701
-0.0260438
0.0236995
-0.754016
0.75636
-0.0209324
0.0182452
-0.89364
0.896327
-0.0151251
0.0121603
-1.06305
1.06601
-0.00877868
0.00556827
-1.26849
1.2717
-0.00186101
-0.00173844
-1.51821
1.52181
0.00530148
-0.00890026
-1.51925
1.52285
0.0119696
-0.0151656
-1.27095
1.27415
0.0179444
-0.0208528
-1.06645
1.06936
0.0233507
-0.0259233
-0.897795
0.900367
0.0280995
-0.0303202
-0.759193
0.761414
0.0322337
-0.0342212
-0.645948
0.647935
0.0357082
-0.0359168
-0.55069
0.550899
0.0335536
-0.0266736
-0.435129
0.428249
0.0171747
-0.00723318
-0.239496
0.229555
0.00183178
-0.040876
0.0390443
-0.0380074
0.0366953
0.00131207
-0.012645
0.0205156
-0.298823
0.290953
-0.0272016
0.0301001
-0.452155
0.449257
-0.0303227
0.0292478
-0.549017
0.550092
-0.0273317
0.0254902
-0.643641
0.645483
-0.0233789
0.0213337
-0.758567
0.760613
-0.0189328
0.0165721
-0.898874
0.901234
-0.0137892
0.0110777
-1.06886
1.07157
-0.00790524
0.00483521
-1.27482
1.27789
-0.00125775
-0.00224431
-1.52535
1.52885
0.00569219
-0.00911227
-1.52636
1.52978
0.0119854
-0.0149103
-1.27723
1.28016
0.0173846
-0.0199044
-1.07211
1.07463
0.0220299
-0.0241828
-0.902735
0.904888
0.026013
-0.0278975
-0.763452
0.765336
0.0295449
-0.0312741
-0.649737
0.651466
0.0321462
-0.0316872
-0.550735
0.550276
0.0285098
-0.0214574
-0.421215
0.414163
0.0132451
-0.00550155
-0.220814
0.213071
0.00139828
-0.0374548
0.0360565
-0.0355496
0.034548
0.00100163
-0.00975716
0.0163451
-0.283732
0.277144
-0.0227261
0.0260469
-0.446124
0.442803
-0.0267963
0.0260835
-0.550982
0.551695
-0.0243229
0.0225757
-0.647289
0.649036
-0.0206188
0.0187708
-0.76255
0.764398
-0.0166464
0.0145654
-0.903431
0.905512
-0.0120949
0.00963725
-1.07412
1.07658
-0.00671617
0.00383029
-1.28085
1.28374
-0.000438978
-0.00287597
-1.53227
1.53558
0.00612843
-0.00932638
-1.53313
1.53633
0.011961
-0.0145737
-1.28293
1.28555
0.0167309
-0.0188658
-1.07692
1.07905
0.0206525
-0.0224721
-0.906819
0.908639
0.0240457
-0.0257191
-0.76709
0.768764
0.0272163
-0.0287055
-0.653134
0.654623
0.0291485
-0.0280544
-0.54953
0.548436
0.0243498
-0.0174941
-0.407175
0.400319
0.0104847
-0.00432397
-0.206178
0.200017
0.00110618
-0.0348195
0.0337133
-0.033679
0.0329228
0.000756126
-0.00751843
0.0129273
-0.271164
0.265755
-0.0187235
0.0222178
-0.439352
0.435858
-0.0235152
0.0231683
-0.552226
0.552573
-0.0218212
0.0202719
-0.650707
0.652256
-0.0184362
0.0166537
-0.76625
0.768033
-0.0145702
0.0125291
-0.907581
0.909622
-0.0101348
0.0078001
-1.07894
1.08127
-0.00508295
0.00244733
-1.28645
1.28909
0.000622018
-0.00360221
-1.5387
1.54168
0.00650579
-0.00934256
-1.53936
1.5422
0.0116652
-0.0139804
-1.28802
1.29033
0.0159212
-0.0178777
-1.0811
1.08306
0.0195347
-0.0212302
-0.910396
0.912092
0.02269
-0.0241837
-0.770348
0.771842
0.0254252
-0.0264313
-0.655875
0.656881
0.0264399
-0.0246978
-0.546991
0.545249
0.0207127
-0.0143248
-0.393675
0.387287
0.00840172
-0.00344326
-0.194507
0.189549
0.000883423
-0.0327335
0.03185
-0.0322684
0.0317037
0.000564713
-0.0057195
0.0100717
-0.26089
0.256537
-0.0151133
0.018469
-0.432416
0.42906
-0.0199793
0.0198155
-0.552821
0.552985
-0.0187087
0.0173022
-0.653729
0.655135
-0.0156504
0.014049
-0.769765
0.771367
-0.0121673
0.0103142
-0.91158
0.913433
-0.00813127
0.00599962
-1.08346
1.08559
-0.00350364
0.00106583
-1.29157
1.29401
0.00178477
-0.00455254
-1.54454
1.54731
0.00722221
-0.00977364
-1.54491
1.54746
0.0118148
-0.0137992
-1.29251
1.29449
0.0154312
-0.0170692
-1.08487
1.0865
0.0184491
-0.0198575
-0.913636
0.915045
0.0210538
-0.0222797
-0.773171
0.774397
0.023312
-0.0239553
-0.657712
0.658355
0.0236626
-0.0215503
-0.54332
0.541207
0.0175557
-0.0117757
-0.381203
0.375423
0.00679664
-0.0027811
-0.185096
0.18108
0.000721532
-0.0310605
0.030339
-0.0312275
0.0308272
0.000400268
-0.00420227
0.00760715
-0.252674
0.249269
-0.0118532
0.0149616
-0.425822
0.422713
-0.0166034
0.0166171
-0.553078
0.553064
-0.0156912
0.0143392
-0.656539
0.657891
-0.0127757
0.0113128
-0.772947
0.774409
-0.0096237
0.00794787
-0.915179
0.916855
-0.00593134
0.00394309
-1.08757
1.08955
-0.0016093
-0.00063629
-1.29629
1.29854
0.0032188
-0.00566777
-1.54989
1.55233
0.00799393
-0.010216
-1.54988
1.55211
0.0119873
-0.0137014
-1.29637
1.29809
0.0150654
-0.0163596
-1.088
1.0893
0.0174147
-0.0184879
-0.916248
0.917321
0.0194462
-0.0204977
-0.775466
0.776518
0.0213981
-0.0217359
-0.658849
0.659186
0.0211399
-0.0187308
-0.538977
0.536568
0.0148257
-0.00967728
-0.369977
0.364829
0.00551269
-0.00225556
-0.17748
0.174223
0.000591573
-0.0296982
0.0291067
-0.0305035
0.0302473
0.00025622
-0.00284266
0.00534922
-0.246325
0.243819
-0.00871941
0.0114178
-0.419802
0.417104
-0.0130634
0.0132775
-0.552955
0.552741
-0.0125766
0.0114482
-0.65918
0.660308
-0.0100624
0.0087184
-0.77588
0.777224
-0.0071349
0.00554292
-0.918444
0.920036
-0.00364962
0.0017879
-1.09139
1.09325
0.000372775
-0.00245463
-1.30064
1.30272
0.00484042
-0.00709082
-1.55464
1.55689
0.00920086
-0.0111439
-1.55419
1.55614
0.0126346
-0.0139998
-1.29967
1.30103
0.0150675
-0.01608
-1.09047
1.09148
0.0169016
-0.0177291
-0.918245
0.919073
0.0184486
-0.0191949
-0.777385
0.778131
0.0197146
-0.0196703
-0.659355
0.659311
0.0186724
-0.0160331
-0.534077
0.531438
0.0123408
-0.0078726
-0.360043
0.355575
0.00444693
-0.00183465
-0.171315
0.168703
0.00049455
-0.0285785
0.028084
-0.0300599
0.0299493
0.000110676
-0.00151748
0.00314724
-0.241765
0.240136
-0.0055954
0.00776417
-0.414666
0.412497
-0.00927971
0.00964009
-0.552434
0.552073
-0.00915377
0.00826281
-0.661334
0.662225
-0.00702851
0.00577068
-0.778624
0.779882
-0.00424055
0.00270382
-0.921579
0.923116
-0.000890547
-0.000841166
-1.09496
1.09669
0.00282219
-0.00471097
-1.30464
1.30653
0.0068403
-0.00882637
-1.55897
1.56096
0.010634
-0.0122263
-1.5579
1.5595
0.0133781
-0.0144081
-1.3023
1.30333
0.0151758
-0.0158751
-1.09241
1.09311
0.0164087
-0.0169372
-0.919766
0.920294
0.0173806
-0.0178055
-0.778559
0.778984
0.0179375
-0.0174895
-0.659038
0.65859
0.0161523
-0.0134148
-0.528791
0.526054
0.0100348
-0.00625154
-0.351497
0.347714
0.00350044
-0.00146101
-0.166412
0.164373
0.000408243
-0.0276476
0.0272393
-0.0299097
0.029942
-3.22496e-05
-0.000277983
0.00109334
-0.238928
0.238112
-0.00264304
0.00420941
-0.410642
0.409076
-0.0054172
0.00572039
-0.551733
0.55143
-0.00525663
0.00444832
-0.663125
0.663933
-0.00333555
0.00220601
-0.781149
0.782278
-0.000840603
-0.000528913
-0.924488
0.925858
0.00214975
-0.00373215
-1.09824
1.09982
0.00557384
-0.00731338
-1.30828
1.31002
0.00926201
-0.0110251
-1.56279
1.56456
0.0125509
-0.0138167
-1.56093
1.5622
0.0146579
-0.0152668
-1.30419
1.3048
0.0156249
-0.0158774
-1.09362
1.09387
0.016044
-0.0161322
-0.920583
0.920671
0.0161693
-0.0162177
-0.779154
0.779203
0.0160738
-0.0153885
-0.657999
0.657314
0.0138647
-0.01114
-0.523383
0.520659
0.00809543
-0.00492945
-0.344301
0.341135
0.00274059
-0.00115411
-0.162613
0.161027
0.000329344
-0.0268908
0.0265615
-0.030047
0.0302144
-0.000167409
0.000650651
-0.000532759
-0.237653
0.237535
-0.00019091
0.00116406
-0.40784
0.406866
-0.00203848
0.00227432
-0.551185
0.55095
-0.00188112
0.00116828
-0.664779
0.665492
-0.000123339
-0.000984939
-0.783445
0.784553
0.00237154
-0.00377754
-0.927122
0.928528
0.00543423
-0.00701994
-1.10128
1.10287
0.00880717
-0.0104549
-1.31162
1.31327
0.0122194
-0.0137108
-1.56613
1.56762
0.0149321
-0.0158602
-1.56329
1.56422
0.0164012
-0.0167518
-1.30533
1.30568
0.0168689
-0.0168336
-1.09403
1.09399
0.01669
-0.0164904
-0.92062
0.92042
0.0162907
-0.0160326
-0.778918
0.77866
0.0155241
-0.0143993
-0.656387
0.655263
0.0125827
-0.0098017
-0.518002
0.515221
0.0069992
-0.00426276
-0.338281
0.335544
0.00240332
-0.00102935
-0.159625
0.158251
0.000295451
-0.026282
0.0259866
-0.0304197
0.0306631
-0.000243331
0.00132059
-0.00166183
-0.237649
0.23799
0.00163264
-0.00122554
-0.406225
0.405818
0.000709277
-0.000575543
-0.550804
0.55067
0.000951919
-0.00162054
-0.666278
0.666946
0.00262844
-0.00376525
-0.785728
0.786865
0.00523551
-0.00674315
-0.929844
0.931351
0.0085266
-0.0102354
-1.10437
1.10608
0.0121503
-0.0138781
-1.31485
1.31658
0.015682
-0.0171564
-1.56902
1.5705
0.0182764
-0.0190474
-1.56506
1.56584
0.0193784
-0.0194397
-1.30594
1.306
0.0192992
-0.0189787
-1.09384
1.09352
0.0185644
-0.0180358
-0.92
0.919471
0.0175174
-0.0168689
-0.778103
0.777454
0.0159069
-0.014389
-0.653951
0.652433
0.0123303
-0.0095
-0.51254
0.50971
0.0068485
-0.00430901
-0.333024
0.330484
0.00251274
-0.00110257
-0.15694
0.15553
0.000318607
-0.0257144
0.0253958
-0.0309493
0.0312701
-0.000320796
0.00183881
-0.00258539
-0.238523
0.239269
0.00313685
-0.00335611
-0.405761
0.40598
0.00339376
-0.0035238
-0.550727
0.550857
0.00397593
-0.00470398
-0.667767
0.668495
0.00581902
-0.00709255
-0.788085
0.789358
0.00875141
-0.0104383
-0.932773
0.93446
0.0124154
-0.014273
-1.10771
1.10957
0.0163005
-0.0181091
-1.31826
1.32007
0.0199547
-0.0214134
-1.57192
1.57338
0.0224316
-0.0229557
-1.5665
1.56702
0.0230139
-0.0227408
-1.30593
1.30565
0.022273
-0.0215826
-1.09299
1.0923
0.0208729
-0.0200349
-0.918737
0.917899
0.0192083
-0.0182109
-0.776498
0.775501
0.0169756
-0.015163
-0.65081
0.648998
0.0129346
-0.0100804
-0.507014
0.50416
0.00746407
-0.00486661
-0.328054
0.325456
0.00291072
-0.00129838
-0.154097
0.152485
0.000378992
-0.0250839
0.0247049
-0.0316446
0.0320595
-0.000414912
0.00244373
-0.00353476
-0.240205
0.241296
0.00458391
-0.00535624
-0.406481
0.407253
0.0060443
-0.00672575
-0.551375
0.552057
0.00765177
-0.00873459
-0.669523
0.670605
0.0101713
-0.0117202
-0.790753
0.792302
0.0136338
-0.0155161
-0.936018
0.9379
0.017673
-0.019652
-1.11131
1.11329
0.0217857
-0.0236068
-1.32178
1.3236
0.0253689
-0.0266471
-1.5747
1.57598
0.0273883
-0.0275687
-1.56737
1.56755
0.0273129
-0.0266621
-1.30523
1.30458
0.0258646
-0.02482
-1.09142
1.09038
0.0237282
-0.0224795
-0.916726
0.915478
0.0213453
-0.020033
-0.774216
0.772904
0.0185923
-0.0166266
-0.647155
0.64519
0.0143536
-0.0114386
-0.5015
0.498585
0.00863195
-0.00570629
-0.322863
0.319937
0.00344013
-0.00154553
-0.150818
0.148923
0.000454249
-0.0243319
0.0238776
-0.0325375
0.0330723
-0.000534753
0.00322344
-0.00471483
-0.242602
0.244093
0.0062023
-0.00740805
-0.408286
0.409492
0.00862809
-0.00982074
-0.553195
0.554388
0.0113312
-0.0129614
-0.672159
0.673789
0.0149535
-0.0169473
-0.79401
0.796004
0.0193072
-0.0215333
-0.939679
0.941905
0.0239702
-0.0261592
-1.11515
1.11734
0.0284486
-0.030338
-1.32529
1.32718
0.0320457
-0.0331116
-1.57705
1.57812
0.0335241
-0.0332769
-1.56748
1.56724
0.032575
-0.0314517
-1.30373
1.3026
0.0302114
-0.0287417
-1.08909
1.08762
0.027412
-0.0259707
-0.914001
0.91256
0.0246283
-0.0231423
-0.771308
0.769822
0.0215859
-0.019456
-0.64326
0.641131
0.0169048
-0.0134948
-0.495747
0.492337
0.0101732
-0.0067089
-0.316925
0.313461
0.00405322
-0.00183683
-0.146967
0.14475
0.000547076
-0.0234289
0.0228818
-0.0336877
0.0343901
-0.000702404
0.00431943
-0.00637149
-0.245863
0.247915
0.00839815
-0.00994815
-0.410933
0.412483
0.0114412
-0.0128881
-0.556014
0.557461
0.0147179
-0.0167176
-0.675838
0.677838
0.0192264
-0.0217707
-0.798154
0.800698
0.0247207
-0.0274334
-0.944066
0.946778
0.0304045
-0.0330569
-1.11949
1.12214
0.0358131
-0.0380688
-1.32905
1.3313
0.0400649
-0.0412564
-1.57909
1.58028
0.0416679
-0.0413081
-1.56683
1.56647
0.040407
-0.039008
-1.30127
1.29987
0.0374103
-0.0354927
-1.08589
1.08397
0.0337055
-0.0318168
-0.910841
0.908952
0.0302262
-0.0284944
-0.768077
0.766345
0.0265334
-0.0237001
-0.638834
0.636001
0.0202726
-0.0158633
-0.488774
0.484364
0.0117899
-0.00775087
-0.309922
0.305883
0.00470725
-0.00215144
-0.142494
0.139938
0.00064593
-0.0223501
0.0217042
-0.0351865
0.0361268
-0.000940289
0.0058455
-0.00868976
-0.250324
0.253169
0.0115035
-0.0135272
-0.414363
0.416386
0.0151892
-0.0166442
-0.559344
0.560799
0.0184962
-0.0206848
-0.68015
0.682339
0.023608
-0.0266243
-0.803295
0.806312
0.0301667
-0.0335549
-0.94947
0.952858
0.0373416
-0.0407552
-1.12489
1.1283
0.0443123
-0.0472224
-1.33368
1.33659
0.049835
-0.0514795
-1.58156
1.58321
0.0521919
-0.0519952
-1.56613
1.56593
0.0511415
-0.0496709
-1.2984
1.29692
0.0479845
-0.0458491
-1.08186
1.07973
0.0437138
-0.0413001
-0.906576
0.904163
0.0390251
-0.0361271
-0.763938
0.76104
0.0329336
-0.028504
-0.632554
0.628125
0.0237535
-0.0182592
-0.479746
0.474252
0.0135314
-0.00896135
-0.301868
0.297298
0.0054881
-0.00252337
-0.13735
0.134385
0.00075965
-0.0210773
0.0203176
-0.0371675
0.0384664
-0.00129888
0.00804958
-0.0120339
-0.256458
0.260442
0.0160453
-0.0189147
-0.419012
0.421882
0.0210695
-0.0226277
-0.562889
0.564447
0.0244875
-0.026802
-0.684783
0.687097
0.0300104
-0.0334806
-0.809209
0.812679
0.0378028
-0.0420137
-0.95629
0.9605
0.0467509
-0.0510067
-1.13187
1.13613
0.0553899
-0.0589284
-1.33963
1.34317
0.0620614
-0.063999
-1.5849
1.58684
0.0647932
-0.0644945
-1.56567
1.56537
0.0634437
-0.0616773
-1.29531
1.29355
0.0596412
-0.0570407
-1.07729
1.07469
0.0543996
-0.0512001
-0.901167
0.897968
0.0477964
-0.043397
-0.757159
0.752759
0.0386804
-0.0327647
-0.62298
0.617064
0.0270245
-0.0208221
-0.468767
0.462565
0.0155927
-0.0104548
-0.292844
0.287706
0.00644345
-0.00296304
-0.131389
0.127909
0.000887291
-0.0195811
0.0186938
-0.0398633
0.0416912
-0.00182786
0.0111289
-0.0166064
-0.264908
0.270386
0.0221708
-0.0262937
-0.425795
0.429918
0.0294846
-0.0317182
-0.567152
0.569386
0.0341071
-0.0368516
-0.689691
0.692436
0.0408036
-0.0451052
-0.816111
0.820413
0.0503392
-0.0553363
-0.964724
0.969721
0.0608504
-0.065679
-1.1404
1.14523
0.0705148
-0.0742744
-1.34664
1.3504
0.077403
-0.0790853
-1.58856
1.59024
0.0794062
-0.0784426
-1.56473
1.56376
0.0766905
-0.0740603
-1.29137
1.28874
0.0711786
-0.067626
-1.07155
1.06799
0.064027
-0.059617
-0.893886
0.889476
0.0550352
-0.0493811
-0.747342
0.741688
0.0436789
-0.0370075
-0.610762
0.60409
0.0307995
-0.0241254
-0.456623
0.449949
0.0183223
-0.0124006
-0.282696
0.276774
0.00765802
-0.00350756
-0.124383
0.120232
0.00104161
-0.0178338
0.0167922
-0.0435785
0.0462545
-0.00267602
0.0157717
-0.023265
-0.276369
0.283862
0.0307862
-0.0365346
-0.435704
0.441452
0.0413174
-0.0449797
-0.573452
0.577115
0.0488939
-0.0530005
-0.695845
0.699951
0.0582009
-0.0634213
-0.824651
0.829872
0.0694438
-0.0749739
-0.974576
0.980106
0.0808483
-0.0857941
-1.14983
1.15477
0.0905094
-0.09391
-1.35378
1.35718
0.0963423
-0.0970854
-1.59134
1.59209
0.0962644
-0.0939742
-1.56209
1.5598
0.0909713
-0.0869533
-1.28539
1.28137
0.0828213
-0.0779036
-1.06365
1.05873
0.073081
-0.0674472
-0.884073
0.878439
0.0619609
-0.0555976
-0.735177
0.728814
0.0494652
-0.0424795
-0.597251
0.590265
0.0359062
-0.0285709
-0.44358
0.436245
0.0218806
-0.0148262
-0.270966
0.263911
0.00910832
-0.00412752
-0.116043
0.111062
0.00120768
-0.0157909
0.0145832
-0.0488872
0.0530282
-0.00414105
0.0232216
-0.0335273
-0.291965
0.302271
0.0435694
-0.0514208
-0.449843
0.457695
0.0582311
-0.0637627
-0.583279
0.588811
0.0698846
-0.0758122
-0.704864
0.710792
0.0825637
-0.0887788
-0.835001
0.841216
0.0954836
-0.10129
-0.985339
0.991145
0.107115
-0.111716
-1.15922
1.16382
0.115718
-0.118173
-1.35986
1.36232
0.119241
-0.118434
-1.59188
1.59107
0.115909
-0.111783
-1.5565
1.55237
0.107173
-0.101492
-1.27645
1.27077
0.0959276
-0.0895377
-1.05291
1.04652
0.0835329
-0.0768627
-0.871836
0.865166
0.0707118
-0.0638981
-0.7216
0.714786
0.0574531
-0.0500471
-0.583019
0.575613
0.0428062
-0.0343613
-0.429091
0.420646
0.0263711
-0.0177966
-0.256974
0.2484
0.0108287
-0.00483227
-0.106096
0.100099
0.00138414
-0.0134333
0.0120491
-0.0568764
0.064078
-0.00720163
0.0365322
-0.0510751
-0.313819
0.328362
0.0647727
-0.0750597
-0.469592
0.479879
0.0838335
-0.0912856
-0.597396
0.604848
0.0997606
-0.107404
-0.717299
0.724943
0.115453
-0.122314
-0.847186
0.854047
0.129231
-0.134828
-0.996414
1.00201
0.140037
-0.143717
-1.16761
1.17129
0.146383
-0.147298
-1.36372
1.36464
0.146413
-0.143555
-1.58901
1.58615
0.138931
-0.132681
-1.54703
1.54078
0.126277
-0.118819
-1.2641
1.25664
0.111778
-0.103978
-1.03923
1.03143
0.0968953
-0.0892894
-0.857522
0.849916
0.0825024
-0.0751855
-0.706899
0.699582
0.0682902
-0.0600772
-0.567627
0.559414
0.0516856
-0.0415631
-0.412125
0.402002
0.0317925
-0.0213027
-0.239951
0.229461
0.0128091
-0.00560762
-0.0942897
0.0870882
0.0015556
-0.0107546
0.00919897
-0.0709265
0.074716
-0.00378947
0.0270076
-0.0396664
-0.345793
0.358452
0.0519215
-0.0613745
-0.4954
0.504853
0.0703083
-0.0795212
-0.615679
0.624892
0.0900152
-0.0993239
-0.732215
0.741524
0.109653
-0.118786
-0.860115
0.869248
0.128357
-0.136661
-1.00661
1.01492
0.145065
-0.151942
-1.17373
1.18061
0.158283
-0.162676
-1.36417
1.36856
0.165473
-0.165646
-1.58178
1.58195
0.163028
-0.157978
-1.53314
1.52809
0.151706
-0.143504
-1.24812
1.23991
0.135352
-0.125448
-1.02275
1.01284
0.116365
-0.106417
-0.841303
0.831355
0.0975437
-0.0880101
-0.690814
0.68128
0.0787578
-0.0677776
-0.550122
0.539142
0.0566097
-0.0431658
-0.391493
0.37805
0.030899
-0.0188208
-0.21904
0.206962
0.0100873
-0.00380888
-0.0804659
0.0741874
0.000803097
-0.00784906
0.00704596
-0.0820264
0.0796078
0.00241861
0.00543057
-0.0132603
-0.374073
0.381903
0.0222824
-0.0295959
-0.518876
0.52619
0.037589
-0.0456177
-0.635948
0.643977
0.055173
-0.063891
-0.750625
0.759343
0.0731393
-0.0815174
-0.877951
0.886329
0.0902673
-0.0975154
-1.02295
1.0302
0.104993
-0.110704
-1.18724
1.19295
0.115836
-0.118986
-1.37249
1.37564
0.120179
-0.118922
-1.581
1.57974
0.114945
-0.108641
-1.52183
1.51553
0.101218
-0.0920302
-1.23092
1.22173
0.0831501
-0.0730065
-1.00237
0.992231
0.0635268
-0.0531104
-0.820011
0.809595
0.043956
-0.0348414
-0.668474
0.65936
0.0271088
-0.0189709
-0.525621
0.517484
0.0117511
-0.00532238
-0.363847
0.357418
0.0012462
0.00122388
-0.194738
0.192268
-0.0020689
0.00162571
-0.0674467
0.0678899
-0.000776223
-0.00554395
0.00632017
-0.0826223
0.0796233
0.00299897
-0.00280637
-0.00133262
-0.39303
0.397169
0.00698414
-0.0125321
-0.537283
0.542831
0.0190864
-0.0260863
-0.653376
0.660376
0.0343177
-0.0418607
-0.767428
0.774971
0.050071
-0.0573503
-0.89406
0.90134
0.0647156
-0.071178
-1.03729
1.04375
0.0776522
-0.0826733
-1.19825
1.20327
0.0867162
-0.0889093
-1.37809
1.38029
0.0894342
-0.0875166
-1.5777
1.57578
0.0830563
-0.0764664
-1.50852
1.50193
0.0690631
-0.0602903
-1.21236
1.20359
0.0515738
-0.041993
-0.981741
0.97216
0.0331321
-0.0235101
-0.799123
0.789501
0.0152813
-0.00704896
-0.648426
0.640193
0.000430695
0.00578985
-0.506657
0.500437
-0.00981592
0.0116986
-0.348663
0.34678
-0.0113377
0.00932763
-0.187257
0.189267
-0.00667643
0.00356426
-0.0671759
0.070288
-0.00126374
-0.00609557
0.0073593
-0.0810934
0.0782256
0.0028678
-0.00601318
0.0041728
-0.405276
0.407116
-0.000688027
-0.00360205
-0.551461
0.555751
0.00938994
-0.0153124
-0.667894
0.673816
0.0224001
-0.0289149
-0.782149
0.788664
0.035963
-0.0422299
-0.90821
0.914477
0.0489512
-0.0544648
-1.04983
1.05534
0.0601719
-0.0641693
-1.20793
1.21192
0.0676768
-0.0695023
-1.38231
1.38414
0.0696087
-0.0673141
-1.5735
1.57121
0.0630815
-0.0569771
-1.49491
1.48881
0.0501703
-0.0418783
-1.19473
1.18644
0.0340676
-0.0255396
-0.962446
0.953918
0.0175439
-0.00919328
-0.779874
0.771524
0.00170941
0.00551498
-0.630495
0.623271
-0.0111233
0.0155557
-0.491968
0.487535
-0.0176316
0.0174078
-0.341061
0.341285
-0.0151099
0.0113191
-0.188512
0.192303
-0.00776694
0.00387616
-0.0719827
0.0758735
-0.00127379
-0.00773768
0.00901146
-0.079464
0.0770315
0.00243258
-0.00673767
0.00626904
-0.413417
0.413886
-0.00362846
0.000378915
-0.563071
0.566321
0.00442278
-0.00980704
-0.680233
0.685617
0.0158249
-0.0216116
-0.79472
0.800506
0.0277823
-0.0332959
-0.920428
0.925942
0.0391536
-0.044164
-1.0608
1.06581
0.0490989
-0.0528996
-1.21586
1.21966
0.0560106
-0.0576069
-1.38569
1.38728
0.0576549
-0.0555266
-1.56887
1.56675
0.0516807
-0.046002
-1.48224
1.47656
0.0399161
-0.0326767
-1.17834
1.1711
0.0258115
-0.0182306
-0.945328
0.937747
0.0113974
-0.00417669
-0.763067
0.755846
-0.00203422
0.00808148
-0.615281
0.609233
-0.0125766
0.0159916
-0.480719
0.477304
-0.0175515
0.0169519
-0.337516
0.338115
-0.0143896
0.0106409
-0.192915
0.196664
-0.00718265
0.00348239
-0.077863
0.0815633
-0.0011468
-0.00949124
0.010638
-0.0781135
0.0760821
0.00203143
-0.00635226
0.00619359
-0.419009
0.419168
-0.0046259
0.00184395
-0.572194
0.574976
0.00274697
-0.0073718
-0.690856
0.695481
0.0126129
-0.0177115
-0.805716
0.810814
0.0232805
-0.0282996
-0.93124
0.936259
0.0337756
-0.0382803
-1.07063
1.07513
0.0428624
-0.0464317
-1.22327
1.22684
0.0493357
-0.0508603
-1.38872
1.39024
0.0509561
-0.0494264
-1.56465
1.56312
0.045981
-0.041081
-1.47065
1.46575
0.0356802
-0.0292901
-1.16393
1.15753
0.023496
-0.016812
-0.930285
0.923601
0.0109061
-0.00486787
-0.748704
0.742666
-0.000345196
0.00537246
-0.602754
0.597726
-0.00908594
0.0120024
-0.471888
0.468972
-0.0130182
0.0125203
-0.335337
0.335835
-0.0107365
0.00776492
-0.196865
0.199836
-0.00512648
0.00252387
-0.0829019
0.0855045
-0.000849533
-0.0109484
0.011798
-0.0771911
0.0756439
0.00154726
-0.0052717
0.00529777
-0.423248
0.423222
-0.0038369
0.00162595
-0.580347
0.582558
0.00255699
-0.00675746
-0.700206
0.704406
0.0117873
-0.0162588
-0.815688
0.82016
0.0212403
-0.0257814
-0.941359
0.9459
0.0310851
-0.0352902
-1.07974
1.08395
0.0395088
-0.0430339
-1.23031
1.23384
0.0462711
-0.0478563
-1.39187
1.39346
0.0482797
-0.0470011
-1.56131
1.56003
0.0442999
-0.0397693
-1.46077
1.45624
0.0351529
-0.0296561
-1.15118
1.14568
0.0244567
-0.0187871
-0.917145
0.911475
0.0136239
-0.00826
-0.736497
0.731133
0.00402531
0.000338193
-0.592206
0.587842
-0.00360929
0.00596637
-0.464454
0.462097
-0.00706137
0.00706657
-0.33335
0.333345
-0.0060064
0.00417381
-0.19932
0.201153
-0.00265555
0.00131199
-0.0858235
0.087167
-0.000474098
-0.0118287
0.0123028
-0.0768198
0.0756313
0.00118848
-0.00407151
0.00414082
-0.426737
0.426668
-0.0026603
0.000464481
-0.587551
0.589746
0.00338949
-0.00719193
-0.708713
0.712515
0.0115836
-0.0159513
-0.824718
0.829086
0.0206375
-0.025387
-0.950351
0.955101
0.0300619
-0.0341718
-1.08832
1.09243
0.0386284
-0.0420416
-1.23732
1.24073
0.0449689
-0.0471174
-1.39503
1.39718
0.0479263
-0.0471474
-1.5589
1.55812
0.0448299
-0.0410964
-1.45197
1.44824
0.0370205
-0.0321077
-1.13997
1.13506
0.0275239
-0.0224172
-0.905787
0.900681
0.0177903
-0.0131189
-0.725843
0.721171
0.00903097
-0.00514456
-0.583002
0.579115
0.0022307
0.000226229
-0.45813
0.455673
-0.00157719
0.00189049
-0.330606
0.330293
-0.00181619
0.00136546
-0.19965
0.200101
-0.000975736
0.000582454
-0.0866119
0.0870052
-0.000289864
-0.0120527
0.0123425
-0.0770055
0.0760148
0.000990672
-0.00273938
0.00255493
-0.430015
0.430199
-0.0012465
-0.00105706
-0.594201
0.596504
0.00461302
-0.00831579
-0.716704
0.720407
0.0125726
-0.0165939
-0.83337
0.837392
0.0214513
-0.0254846
-0.959371
0.963404
0.0301979
-0.0342146
-1.09676
1.10078
0.0386469
-0.0423402
-1.24418
1.24788
0.0456761
-0.0477392
-1.39916
1.40122
0.0490273
-0.0487768
-1.55731
1.55706
0.04723
-0.0439042
-1.44443
1.4411
0.0403021
-0.035806
-1.13022
1.12572
0.0316255
-0.0268584
-0.895356
0.890588
0.0226665
-0.0181973
-0.716261
0.711792
0.0143632
-0.0105934
-0.574738
0.570968
0.00760598
-0.00522256
-0.451876
0.449493
0.00350933
-0.00253645
-0.327068
0.326095
0.00166184
-0.000946468
-0.197948
0.197233
0.000368778
8.38438e-05
-0.0855201
0.0850675
-0.000180382
-0.0117883
0.0119687
-0.0774799
0.0767909
0.000688964
-0.00158926
0.000954276
-0.433488
0.434123
0.000230368
-0.00264917
-0.600165
0.602584
0.0059055
-0.00950862
-0.724227
0.72783
0.0136264
-0.0178068
-0.841383
0.845563
0.0221127
-0.0263513
-0.967717
0.971956
0.031085
-0.0349537
-1.10527
1.10914
0.0395522
-0.0432828
-1.25143
1.25516
0.0467672
-0.0494456
-1.40374
1.40642
0.0513244
-0.0514566
-1.55689
1.55702
0.050207
-0.0476019
-1.43793
1.43532
0.0445249
-0.0403325
-1.12106
1.11687
0.0363063
-0.0319454
-0.885665
0.881304
0.0275908
-0.023411
-0.707015
0.702835
0.0196648
-0.0158283
-0.566919
0.563082
0.0128757
-0.0100889
-0.44552
0.442734
0.00801399
-0.00619176
-0.322592
0.32077
0.0046465
-0.00297514
-0.194424
0.192753
0.00152778
-0.000411209
-0.0830031
0.0818865
-5.11044e-05
-0.0111671
0.0112182
-0.0783397
0.0778023
0.000537436
-0.000635224
3.41429e-05
-0.437201
0.437802
0.00172764
-0.00396582
-0.606243
0.608482
0.0073955
-0.0108887
-0.731303
0.734796
0.0148773
-0.0186966
-0.849513
0.853332
0.0231616
-0.0271328
-0.97626
0.980232
0.0318598
-0.0362036
-1.1135
1.11784
0.0405084
-0.0446202
-1.25899
1.2631
0.0485938
-0.0514413
-1.40905
1.41189
0.0537697
-0.054734
-1.5574
1.55836
0.0539689
-0.0519776
-1.43257
1.43058
0.049059
-0.0452284
-1.11263
1.1088
0.0415036
-0.0371665
-0.876464
0.872127
0.0330236
-0.0287822
-0.698083
0.693842
0.0250065
-0.0210003
-0.55884
0.554834
0.0177425
-0.014654
-0.43876
0.435672
0.0119208
-0.00938616
-0.316774
0.314239
0.0070833
-0.00462804
-0.189208
0.186753
0.00259653
-0.000942345
-0.0793947
0.0777405
0.000127921
-0.0103403
0.0102124
-0.0794539
0.0790839
0.000369996
0.000400813
-0.00121799
-0.441075
0.441892
0.00284985
-0.0053464
-0.611942
0.614439
0.00870312
-0.0120502
-0.738166
0.741514
0.0161321
-0.0198284
-0.857203
0.860899
0.0241696
-0.0282868
-0.984723
0.98884
0.0329573
-0.0373004
-1.12208
1.12642
0.041864
-0.0460506
-1.26717
1.27136
0.0502628
-0.0539029
-1.41506
1.4187
0.0567375
-0.0580617
-1.5593
1.56062
0.0580082
-0.0563385
-1.42846
1.42679
0.0539286
-0.0505306
-1.10484
1.10144
0.0467521
-0.0424771
-0.867407
0.863132
0.0383639
-0.0339417
-0.689151
0.684729
0.0301568
-0.0259465
-0.55069
0.54648
0.0224878
-0.0188524
-0.43142
0.427785
0.0157044
-0.0124553
-0.309681
0.306432
0.00931907
-0.00611932
-0.182531
0.179331
0.00352478
-0.0013786
-0.074815
0.0726688
0.000266391
-0.00931364