/*--------------------------------*- C++ -*----------------------------------*\
  =========                 |
  \\      /  F ield         | OpenFOAM: The Open Source CFD Toolbox
   \\    /   O peration     | Website:  https://openfoam.org
    \\  /    A nd           | Version:  6
     \\/     M anipulation  |
\*---------------------------------------------------------------------------*/
FoamFile
{
    version     2.0;
    format      ascii;
    class       surfaceScalarField;
    location    "22";
    object      phi;
}
// * * * * * * * * * * * * * * * * * * * * * * * * * * * * * * * * * * * * * //

dimensions      [0 3 -1 0 0 0 0];

internalField   nonuniform List<scalar> 
4262
(
0.10679
0.471198
0.0925348
0.707841
0.0647367
0.860101
0.0422575
1.02124
0.0261162
1.21466
0.0159125
1.44842
0.00971556
1.73206
0.00588057
2.07487
0.00301813
2.48811
-0.000219909
2.98553
-0.00343781
2.98551
-0.00637776
2.48818
-0.0102196
2.07488
-0.0163908
1.73203
-0.0265194
1.44835
-0.0425761
1.21457
-0.0649673
1.02115
-0.0926529
0.859989
-0.106871
0.707804
0.471117
0.114676
0.356522
0.139917
0.6826
0.125483
0.874535
0.102172
1.04455
0.0746237
1.24221
0.050205
1.47284
0.0309183
1.75135
0.0166128
2.08918
0.00622782
2.49849
-0.000614422
2.99237
-0.00759053
2.99249
-0.017948
2.49854
-0.0321458
2.08908
-0.0512272
1.75112
-0.0754859
1.47261
-0.102885
1.24197
-0.126
1.04427
-0.140317
0.874306
-0.114889
0.682375
0.356228
0.0911667
0.265356
0.125124
0.648643
0.123171
0.876487
0.108771
1.05896
0.0938771
1.2571
0.0739287
1.49279
0.0523534
1.77292
0.0318203
2.10971
0.0135048
2.51681
-0.00142282
3.0073
-0.0162633
3.00733
-0.0341905
2.51647
-0.0543173
2.1092
-0.0755928
1.77239
-0.0952182
1.49223
-0.109819
1.25657
-0.124099
1.05855
-0.125819
0.876026
-0.0914835
0.64804
0.264745
0.0622314
0.203124
0.103064
0.60781
0.105538
0.874013
0.0952976
1.0692
0.0830884
1.26931
0.0710322
1.50485
0.0559368
1.78802
0.0376911
2.12796
0.0185356
2.53596
-0.00177932
3.02762
-0.0218571
3.0274
-0.0408079
2.53542
-0.0588245
2.12722
-0.0735855
1.78715
-0.0853624
1.50401
-0.0973076
1.26852
-0.107135
1.06838
-0.104152
0.873043
-0.0627008
0.606589
0.202044
0.0368562
0.166268
0.078947
0.565719
0.0894189
0.863541
0.0827868
1.07583
0.0709486
1.28115
0.0604139
1.51538
0.0485572
1.79987
0.0340031
2.14251
0.0176424
2.55232
-0.00283404
3.04809
-0.0228782
3.04745
-0.0385279
2.55107
-0.0525978
2.14129
-0.0641282
1.79868
-0.0740724
1.51395
-0.0852901
1.27974
-0.091323
1.07441
-0.0802394
0.86196
-0.0373187
0.563668
0.164725
0.0187737
0.147494
0.0537501
0.530743
0.0677622
0.849529
0.0656816
1.07791
0.0579854
1.28884
0.0490966
1.52427
0.0394906
1.80948
0.0285227
2.15348
0.0152113
2.56563
-0.00361343
3.06692
-0.0221698
3.066
-0.0347368
2.56364
-0.0448841
2.15144
-0.0534858
1.80728
-0.0614855
1.52195
-0.0686161
1.28687
-0.0701148
1.07591
-0.0552157
0.847061
-0.0192489
0.527701
0.145476
0.00999716
0.137497
0.0392988
0.501441
0.0532728
0.835555
0.0529471
1.07823
0.0472558
1.29453
0.0387984
1.53273
0.0304193
1.81786
0.021912
2.16198
0.0107329
2.57681
-0.00413072
3.08178
-0.0187556
3.08063
-0.0294737
2.57435
-0.0372908
2.15925
-0.0443082
1.8143
-0.0520214
1.52967
-0.0569331
1.29178
-0.0563056
1.07528
-0.0411446
0.8319
-0.0105813
0.497138
0.134895
0.00632081
0.131176
0.0314475
0.476315
0.0458876
0.821115
0.0463062
1.07782
0.040869
1.29997
0.0328654
1.54073
0.0241818
1.82654
0.0154838
2.17068
0.00518614
2.58711
-0.00560264
3.09257
-0.0159663
3.09099
-0.0255498
2.58394
-0.0326643
2.16637
-0.0398059
1.82144
-0.0472296
1.53709
-0.0514438
1.29599
-0.0497186
1.07355
-0.0337098
0.815891
-0.00703041
0.470459
0.127865
0.00416386
0.127012
0.0242606
0.456218
0.0390148
0.806361
0.0406928
1.07614
0.0361414
1.30452
0.0289828
1.54789
0.0210183
1.83451
0.0123909
2.17931
0.00289585
2.59661
-0.00702605
3.10249
-0.0164101
3.10038
-0.0246994
2.59223
-0.0317416
2.17341
-0.0383555
1.82806
-0.0435805
1.54231
-0.0465796
1.29899
-0.0433819
1.07036
-0.0267786
0.799287
-0.00504062
0.448721
0.122824
0.00187554
0.125137
0.014773
0.44332
0.0274494
0.793684
0.030469
1.07312
0.0278799
1.30711
0.0228343
1.55294
0.016893
1.84045
0.00932304
2.18688
0.000445026
2.60548
-0.00926679
3.1122
-0.0180799
3.10919
-0.0246774
2.59882
-0.0301566
2.17889
-0.0339126
1.83181
-0.0369681
1.54537
-0.0377726
1.2998
-0.0327759
1.06536
-0.0178137
0.784325
-0.00295614
0.433863
0.119868
-0.00015707
0.125294
0.0056844
0.437479
0.0146436
0.784725
0.0179928
1.06977
0.0170089
1.3081
0.0142545
1.55569
0.0107262
1.84398
0.00521168
2.19239
-0.00220294
2.6129
-0.011115
3.12111
-0.019076
3.11715
-0.0242284
2.60398
-0.0271733
2.18183
-0.0286367
1.83328
-0.0292214
1.54596
-0.027795
1.29837
-0.0217281
1.05929
-0.00983774
0.772435
-0.00129864
0.425324
0.118569
-0.000876042
0.12617
0.000743203
0.43586
0.00631802
0.77915
0.00918689
1.0669
0.00859265
1.30869
0.00624351
1.55804
0.003004
1.84722
-0.00115836
2.19656
-0.00643723
2.61818
-0.0133594
3.12804
-0.0195833
3.12338
-0.0226932
2.60709
-0.0240897
2.18323
-0.0246631
1.83385
-0.0236527
1.54494
-0.0210702
1.29579
-0.0150788
1.0533
-0.00599671
0.763353
-0.000856415
0.420184
0.117713
-0.000942758
0.127113
-0.00108705
0.436004
0.00188404
0.776179
0.00353364
1.06525
0.00308322
1.30914
0.00127674
1.55985
-0.00214785
1.85064
-0.00650734
2.20092
-0.0114461
2.62312
-0.017058
3.13365
-0.0213399
3.12766
-0.0237192
2.60947
-0.0246876
2.1842
-0.0240041
1.83317
-0.0222725
1.54321
-0.019204
1.29272
-0.0134774
1.04758
-0.00582378
0.755699
-0.00139261
0.415753
0.11632
-0.00110382
0.128217
-0.00201245
0.436913
-0.0005245
0.774691
0.000249093
1.06448
-0.000401254
1.30979
-0.00231042
1.56175
-0.00614463
1.85448
-0.01093
2.2057
-0.0165244
2.62871
-0.02231
3.13943
-0.0261481
3.1315
-0.0274571
2.61077
-0.0270382
2.18378
-0.025331
1.83146
-0.0224356
1.54032
-0.0184229
1.28871
-0.0126648
1.04182
-0.00588854
0.748923
-0.00168452
0.411549
0.114636
-0.00175006
0.129967
-0.00394967
0.439112
-0.00431861
0.77506
-0.00399095
1.06415
-0.00457566
1.31038
-0.0064085
1.56359
-0.0101013
1.85817
-0.0152282
2.21083
-0.0215017
2.63498
-0.0276906
3.14562
-0.0317583
3.13556
-0.0327856
2.6118
-0.0314891
2.18248
-0.0291236
1.82909
-0.0249902
1.53618
-0.0195675
1.28328
-0.0127788
1.03503
-0.00590989
0.742054
-0.00170903
0.407348
0.112927
-0.00240007
0.132367
-0.00627035
0.442982
-0.00796523
0.776755
-0.00779063
1.06397
-0.00865576
1.31124
-0.0113003
1.56623
-0.0156355
1.8625
-0.0215024
2.2167
-0.0283298
2.64181
-0.0347293
3.15202
-0.0386158
3.13945
-0.0394651
2.61265
-0.0374711
2.18049
-0.0336417
1.82527
-0.0278894
1.53043
-0.0208049
1.2762
-0.0129797
1.0272
-0.00613518
0.735209
-0.00186192
0.403074
0.111065
-0.00319428
0.135561
-0.00852358
0.448312
-0.0117551
0.779986
-0.0126446
1.06486
-0.0135518
1.31215
-0.0163789
1.56906
-0.0214704
1.8676
-0.0284904
2.22372
-0.0364
2.64972
-0.0434231
3.15905
-0.0469604
3.14299
-0.0470016
2.61269
-0.0441204
2.17761
-0.0392084
1.82035
-0.0324954
1.52372
-0.0243207
1.26802
-0.0154645
1.01835
-0.00775943
0.727504
-0.00244556
0.397761
0.108619
-0.00353222
0.139093
-0.00983117
0.454611
-0.0144529
0.784608
-0.0166716
1.06708
-0.0189104
1.31439
-0.023301
1.57345
-0.0299465
1.87424
-0.0385136
2.23228
-0.0477503
2.65896
-0.0554243
3.16672
-0.0584646
3.14603
-0.0571715
2.6114
-0.0529796
2.17342
-0.0463664
1.81374
-0.0377296
1.51508
-0.0277861
1.25808
-0.0178219
1.00838
-0.00945142
0.719134
-0.00313475
0.391444
0.105485
-0.00491427
0.144008
-0.0137192
0.463416
-0.0208304
0.791719
-0.0248055
1.07106
-0.0281032
1.31768
-0.0333888
1.57874
-0.0413784
1.88223
-0.0513115
2.24222
-0.0614046
2.66905
-0.0691607
3.17448
-0.0710028
3.14787
-0.0675517
2.60795
-0.0610885
2.16695
-0.0525473
1.8052
-0.0426923
1.50523
-0.0320629
1.24745
-0.0214565
0.997777
-0.01177
0.709447
-0.0038773
0.383551
0.101607
-0.00579794
0.149805
-0.0161349
0.473753
-0.025496
0.80108
-0.0322816
1.07784
-0.0389279
1.32433
-0.0473221
1.58713
-0.0574991
1.89241
-0.0689238
2.25364
-0.0798365
2.67996
-0.0869908
3.18163
-0.0866938
3.14757
-0.0807239
2.60198
-0.0718734
2.1581
-0.0610797
1.79441
-0.0491064
1.49325
-0.0367273
1.23507
-0.0246575
0.985707
-0.0137316
0.698522
-0.00456262
0.374382
0.0970446
-0.00832658
0.158132
-0.0231057
0.488532
-0.0361598
0.814134
-0.0458803
1.08756
-0.0546468
1.3331
-0.0650041
1.59749
-0.077675
1.90508
-0.0912247
2.26719
-0.102819
2.69156
-0.108406
3.18722
-0.105088
3.14425
-0.0956856
2.59258
-0.0833598
2.14578
-0.0698696
1.78092
-0.0561615
1.47955
-0.0428305
1.22174
-0.0298746
0.972751
-0.0169206
0.685568
-0.00551901
0.362981
0.0915256
-0.0101996
0.168332
-0.0279047
0.506237
-0.0446897
0.83092
-0.0585284
1.1014
-0.0721596
1.34673
-0.087673
1.613
-0.104292
1.9217
-0.120026
2.28292
-0.131494
2.70303
-0.134664
3.19039
-0.127416
3.13701
-0.114369
2.57953
-0.0989107
2.13032
-0.0827588
1.76476
-0.0669623
1.46375
-0.0514985
1.20628
-0.035778
0.95703
-0.0201746
0.669964
-0.00659154
0.349398
0.0849341
-0.0148777
0.183209
-0.0390774
0.530437
-0.0607522
0.852594
-0.0789866
1.11964
-0.0971431
1.36488
-0.117021
1.63288
-0.137259
1.94194
-0.154839
2.3005
-0.165607
2.71379
-0.165689
3.19047
-0.154302
3.12562
-0.137251
2.56248
-0.117881
2.11095
-0.0980192
1.7449
-0.078759
1.44449
-0.0606933
1.18821
-0.0430808
0.939418
-0.0245711
0.651454
-0.00782072
0.332647
0.0771133
-0.0191114
0.202321
-0.0502516
0.561577
-0.0794104
0.881753
-0.104429
1.14466
-0.130275
1.39073
-0.157065
1.65967
-0.181325
1.9662
-0.199138
2.31832
-0.207443
2.7221
-0.203035
3.18606
-0.186403
3.10899
-0.164367
2.54044
-0.140836
2.08742
-0.118016
1.72208
-0.0965861
1.42306
-0.0755417
1.16717
-0.0529343
0.916811
-0.0292933
0.627813
-0.00906433
0.312418
0.068049
-0.0326638
0.234985
-0.0745418
0.603455
-0.111918
0.919129
-0.144633
1.17737
-0.179336
1.42543
-0.210533
1.69087
-0.235078
1.99074
-0.250341
2.33358
-0.254734
2.72649
-0.245444
3.17677
-0.223293
3.08684
-0.196632
2.51378
-0.16909
2.05988
-0.141856
1.69485
-0.115585
1.39679
-0.0901822
1.14176
-0.0641664
0.890795
-0.036168
0.599815
-0.0106773
0.286927
0.0573718
-0.0449924
0.279977
-0.110354
0.668816
-0.164148
0.972923
-0.209152
1.22238
-0.249859
1.46614
-0.279596
1.7206
-0.300013
2.01116
-0.310809
2.34438
-0.310259
2.72594
-0.295451
3.16196
-0.266684
3.05807
-0.233525
2.48062
-0.200774
2.02712
-0.17014
1.66421
-0.141188
1.36784
-0.111824
1.1124
-0.0789348
0.857906
-0.0413898
0.56227
-0.0108311
0.256369
0.0465406
-0.0296523
0.309629
-0.0854967
0.724661
-0.138602
1.02603
-0.185259
1.26903
-0.227329
1.50821
-0.265491
1.75876
-0.299759
2.04542
-0.327855
2.37247
-0.345808
2.74389
-0.346408
3.16256
-0.324997
3.03666
-0.291987
2.44761
-0.25241
1.98755
-0.210394
1.6222
-0.167765
1.32521
-0.123493
1.06813
-0.0765164
0.810929
-0.0339289
0.519683
-0.00796407
0.230404
0.0385765
-0.00905683
0.318686
-0.0353012
0.750905
-0.0685154
1.05924
-0.104831
1.30535
-0.142136
1.54552
-0.17899
1.79562
-0.212268
2.0787
-0.23906
2.39926
-0.254998
2.75983
-0.251306
3.15887
-0.227647
3.013
-0.193676
2.41364
-0.154543
1.94841
-0.113786
1.58144
-0.0744188
1.28584
-0.0390022
1.03271
-0.0107654
0.782692
0.00432791
0.504589
0.00500758
0.229724
0.0435841
0.00137416
0.317312
-0.0152303
0.767509
-0.0394859
1.0835
-0.0659048
1.33177
-0.0938475
1.57346
-0.123781
1.82555
-0.152923
2.10784
-0.177183
2.42352
-0.191381
2.77403
-0.186936
3.15443
-0.16447
2.99054
-0.133205
2.38238
-0.0988987
1.91411
-0.0653851
1.54793
-0.0345231
1.25498
-0.00832772
1.00652
0.00992052
0.764444
0.0148427
0.499667
0.00738273
0.237184
0.0509668
0.00118033
0.316132
-0.0107827
0.779472
-0.0281115
1.10083
-0.0480955
1.35175
-0.0695153
1.59488
-0.0928431
1.84888
-0.116633
2.13163
-0.137263
2.44415
-0.148875
2.78564
-0.144239
3.14979
-0.125417
2.97171
-0.0996761
2.35664
-0.0722494
1.88668
-0.0454057
1.52108
-0.0214495
1.23102
-0.00104825
0.986116
0.0129697
0.750426
0.0151173
0.49752
0.006493
0.245809
0.0574598
0.00501063
0.311121
-0.00326598
0.787749
-0.0204257
1.11799
-0.0392436
1.37057
-0.0578095
1.61344
-0.0770726
1.86814
-0.0966185
2.15118
-0.113717
2.46125
-0.12281
2.79474
-0.120287
3.14727
-0.105563
2.95699
-0.0832048
2.33428
-0.0596399
1.86312
-0.036852
1.49829
-0.0145951
1.20877
0.00321072
0.96831
0.0128185
0.740818
0.0123684
0.49797
0.00468589
0.253491
0.0621457
0.00522909
0.305892
0.00072177
0.792256
-0.0141595
1.13287
-0.0325249
1.38893
-0.050842
1.63176
-0.0689062
1.88621
-0.0863178
2.16859
-0.10116
2.47609
-0.108937
2.80251
-0.108475
3.1468
-0.0958623
2.94438
-0.0770055
2.31542
-0.056019
1.84213
-0.0357695
1.47805
-0.0182116
1.19121
-0.00336464
0.953463
0.00540833
0.732045
0.00626523
0.497113
0.002409
0.257347
0.0645547
0.00399491
0.301897
0.000841002
0.79541
-0.0115181
1.14523
-0.0281067
1.40552
-0.045989
1.64964
-0.0642061
1.90442
-0.0813229
2.18571
-0.0955056
2.49028
-0.103281
2.81029
-0.103456
3.14698
-0.0912892
2.93221
-0.0737138
2.29784
-0.0550957
1.82351
-0.0364235
1.45937
-0.0199973
1.17478
-0.00853068
0.941996
-0.00256947
0.726084
-0.000971959
0.495515
-0.000183782
0.256559
0.0643709
0.00256021
0.299337
-0.000368897
0.798339
-0.0112173
1.15607
-0.0262509
1.42056
-0.0433123
1.66671
-0.0614927
1.9226
-0.0788981
2.20311
-0.0932384
2.50462
-0.101813
2.81886
-0.102573
3.14774
-0.0913558
2.92099
-0.0753926
2.28188
-0.0577179
1.80584
-0.0424237
1.44408
-0.0291859
1.16154
-0.017542
0.930352
-0.00998492
0.718527
-0.00569382
0.491224
-0.00174798
0.252613
0.062623
0.000772437
0.298564
-0.00265977
0.801772
-0.0123601
1.16578
-0.0260854
1.43428
-0.0422943
1.68291
-0.0601985
1.94051
-0.0778872
2.2208
-0.0929942
2.51972
-0.103695
2.82956
-0.106108
3.15015
-0.095171
2.91006
-0.0790375
2.26575
-0.0628264
1.78963
-0.047421
1.42867
-0.0335785
1.1477
-0.0233743
0.920148
-0.0150252
0.710178
-0.00820191
0.484401
-0.00261109
0.247022
0.0600119
-0.00105572
0.29962
-0.00503939
0.805755
-0.0141425
1.17488
-0.0270737
1.44721
-0.0425443
1.69838
-0.0598798
1.95784
-0.0775889
2.23851
-0.0935024
2.53564
-0.106176
2.84224
-0.10909
3.15307
-0.0997651
2.90073
-0.0861727
2.25216
-0.0709215
1.77437
-0.0547225
1.41247
-0.0414094
1.13439
-0.0285184
0.907257
-0.0180898
0.699749
-0.00979017
0.476101
-0.00314922
0.240381
0.0568627
-0.00262294
0.302243
-0.00726643
0.810399
-0.0159816
1.18359
-0.0283495
1.45958
-0.0432968
1.71333
-0.0601281
1.97468
-0.077759
2.25614
-0.0945589
2.55244
-0.109482
2.85716
-0.116121
3.15971
-0.110936
2.89555
-0.0951808
2.2364
-0.0760816
1.75528
-0.0606711
1.39706
-0.045454
1.11917
-0.0333821
0.895185
-0.0222301
0.688597
-0.0114993
0.46537
-0.00360497
0.232487
0.0532577
-0.00367816
0.305921
-0.00912748
0.815848
-0.017882
1.19235
-0.0298988
1.4716
-0.0443203
1.72775
-0.060597
1.99095
-0.0780213
2.27357
-0.0954641
2.56988
-0.112077
2.87377
-0.121536
3.16916
-0.117084
2.8911
-0.103086
2.2224
-0.0867091
1.7389
-0.0683924
1.37875
-0.0526691
1.10345
-0.0375956
0.880112
-0.0244858
0.675488
-0.0130508
0.453935
-0.00403727
0.223474
0.0492204
-0.0042526
0.310174
-0.010382
0.821977
-0.0191578
1.20112
-0.0309562
1.4834
-0.0450696
1.74187
-0.0609566
2.00684
-0.0781248
2.29073
-0.0961235
2.58788
-0.114261
2.89191
-0.127303
3.18221
-0.12785
2.89164
-0.114025
2.20858
-0.0922848
1.71716
-0.0732387
1.3597
-0.0570982
1.08731
-0.043872
0.866886
-0.0297075
0.661323
-0.0151171
0.439345
-0.00458257
0.212939
0.0446378
-0.00466264
0.314836
-0.0113775
0.828692
-0.0202766
1.21002
-0.0318228
1.49494
-0.0455195
1.75556
-0.0609433
2.02226
-0.0777781
2.30757
-0.0960665
2.60617
-0.115316
2.91116
-0.131932
3.19882
-0.137022
2.89673
-0.126993
2.19855
-0.108083
1.69825
-0.0839841
1.3356
-0.0641114
1.06743
-0.046322
0.849096
-0.0307076
0.645709
-0.0165241
0.425161
-0.00482725
0.201242
0.0398106
-0.00486856
0.319705
-0.0119141
0.835738
-0.0207612
1.21887
-0.0320828
1.50626
-0.0454681
1.76895
-0.0604829
2.03728
-0.0770081
2.32409
-0.0957269
2.62489
-0.116479
2.93191
-0.135571
3.21791
-0.143352
2.90451
-0.137155
2.19235
-0.117184
1.67828
-0.0920863
1.31051
-0.0665937
1.04194
-0.0494029
0.831905
-0.0336753
0.629981
-0.0168885
0.408375
-0.00455848
0.188912
0.0352521
-0.00497355
0.324678
-0.0123241
0.843088
-0.0211658
1.22771
-0.032163
1.51726
-0.0450405
1.78183
-0.0594955
2.05173
-0.0757233
2.34032
-0.0946343
2.6438
-0.115857
2.95313
-0.136137
3.23819
-0.148174
2.91655
-0.147233
2.19141
-0.134209
1.66525
-0.106688
1.28298
-0.0760073
1.01126
-0.0490061
0.804904
-0.0311372
0.612112
-0.0165818
0.393819
-0.00350321
0.175834
0.0317489
-0.00494806
0.329626
-0.0123785
0.850519
-0.0210858
1.23642
-0.0317499
1.52793
-0.0441315
1.79421
-0.0580831
2.06568
-0.0741283
2.35637
-0.0934383
2.66311
-0.11603
2.97573
-0.139099
3.26126
-0.15432
2.93177
-0.155284
2.19237
-0.143672
1.65364
-0.121475
1.26079
-0.0858624
0.975649
-0.0501553
0.769197
-0.0255659
0.587523
-0.0102346
0.378488
-0.00147166
0.167071
0.0302772
-0.00486337
0.33449
-0.0123845
0.85804
-0.0209994
1.24503
-0.0311882
1.53811
-0.0428656
1.80589
-0.0563101
2.07913
-0.0723039
2.37236
-0.0919728
2.68278
-0.114696
2.99845
-0.137376
3.28394
-0.154266
2.94866
-0.16054
2.19865
-0.157291
1.65039
-0.138158
1.24165
-0.104815
0.942307
-0.0538149
0.718197
-0.011038
0.544746
0.00996985
0.35748
0.00762212
0.169419
0.0378994
-0.00467843
0.339168
-0.0121351
0.865497
-0.0205471
1.25345
-0.0301742
1.54774
-0.0412028
1.81691
-0.0544225
2.09235
-0.0704554
2.38839
-0.0903233
2.70264
-0.113328
3.02145
-0.138036
3.30865
-0.158081
2.96871
-0.166885
2.20745
-0.161465
1.64497
-0.148096
1.22828
-0.119008
0.913219
-0.0716231
0.670812
-0.000765879
0.473889
0.0515787
0.305135
0.0436764
0.177321
0.0815757
-0.00447804
0.343646
-0.011436
0.872455
-0.0192735
1.26128
-0.0287643
1.55723
-0.0401623
1.82831
-0.0536572
2.10584
-0.0701858
2.40492
-0.0904712
2.72293
-0.113798
3.04478
-0.139045
3.3339
-0.160336
2.99
-0.172548
2.21966
-0.173745
1.64617
-0.158354
1.21289
-0.133469
0.888334
-0.0794097
0.616753
0.0100456
0.384433
0.100192
0.214989
0.123225
0.154289
0.204801
-0.00435646
0.348003
-0.0109486
0.879047
-0.0185172
1.26885
-0.0281497
1.56686
-0.0399832
1.84015
-0.0541861
2.12005
-0.0719039
2.42264
-0.0939509
2.74498
-0.11965
3.07048
-0.148432
3.36268
-0.17552
3.01709
-0.193846
2.23799
-0.198338
1.65066
-0.189009
1.20356
-0.158573
0.857899
-0.123052
0.581232
-0.145471
0.406853
-0.399581
0.469099
-0.973195
0.727902
0.918634
-1.68703
-0.00423971
0.352243
-0.010796
0.885603
-0.0182517
1.27631
-0.0273433
1.57596
-0.0386026
1.8514
-0.0529376
2.13438
-0.0711208
2.44082
-0.093921
2.76778
-0.121027
3.09759
-0.154257
3.39591
-0.187053
3.04988
-0.211507
2.26244
-0.230872
1.67003
-0.236674
1.20937
-0.234776
0.856001
-0.329965
0.67642
-0.7467
0.823588
-1.46023
1.18263
-2.05898
1.32664
1.2136
-2.35394
-0.0040306
0.356273
-0.0103369
0.891909
-0.0174714
1.28344
-0.0260688
1.58455
-0.0372252
1.86256
-0.05189
2.14905
-0.0704991
2.45943
-0.0940915
2.79137
-0.122816
3.12631
-0.158427
3.43152
-0.195762
3.08722
-0.231253
2.29793
-0.259185
1.69796
-0.278137
1.22832
-0.392071
0.969935
-0.826512
1.11086
-1.5684
1.56548
-2.1155
1.72973
-2.34411
1.55526
1.3205
-2.45101
-0.00345866
0.359732
-0.00993096
0.898382
-0.0167319
1.29024
-0.0245568
1.59238
-0.0357478
1.87375
-0.0507962
2.16409
-0.0696718
2.47831
-0.0938516
2.81555
-0.124147
3.15661
-0.164756
3.47213
-0.210771
3.13323
-0.252422
2.33959
-0.296585
1.74212
-0.398045
1.32978
-0.741571
1.31346
-1.45824
1.82753
-2.03133
2.13856
-2.26423
1.96264
-2.3739
1.66492
1.38869
-2.44209
-0.00245668
0.362188
-0.00773543
0.90366
-0.0142483
1.29676
-0.022914
1.60104
-0.0348566
1.88569
-0.0498456
2.17908
-0.0686503
2.49711
-0.0932697
2.84017
-0.12527
3.18861
-0.16835
3.51521
-0.21757
3.18245
-0.273276
2.39529
-0.34444
1.81328
-0.552104
1.53744
-1.15807
1.91943
-1.82592
2.49538
-2.13546
2.4481
-2.27802
2.1052
-2.35914
1.74604
1.4486
-2.41905
-0.00183534
0.364024
-0.0057931
0.907618
-0.0125894
1.30355
-0.0227236
1.61118
-0.0354005
1.89837
-0.0504198
2.1941
-0.0696225
2.51632
-0.0950959
2.86564
-0.129044
3.22255
-0.17725
3.56342
-0.235719
3.24092
-0.295758
2.45533
-0.416385
1.93391
-0.811568
1.93263
-1.53365
2.64151
-1.9827
2.94442
-2.16408
2.62948
-2.25836
2.19949
-2.32979
1.81747
1.50828
-2.38947
-0.00165793
0.365682
-0.00597014
0.91193
-0.013219
1.3108
-0.0237595
1.62172
-0.0369731
1.91159
-0.052645
2.20978
-0.0726621
2.53633
-0.0992107
2.89219
-0.135136
3.25848
-0.18695
3.61523
-0.249001
3.30297
-0.32851
2.53484
-0.542742
2.14814
-1.10775
2.49763
-1.71844
3.2522
-1.97808
3.20406
-2.11493
2.76633
-2.21809
2.30265
-2.30211
1.9015
1.57085
-2.36469
-0.00176788
0.36745
-0.00683912
0.917002
-0.0145484
1.31851
-0.0250995
1.63227
-0.0385537
1.92504
-0.0548622
2.22608
-0.0756921
2.55716
-0.103286
2.91978
-0.141288
3.29648
-0.197499
3.67144
-0.267502
3.37298
-0.375027
2.64236
-0.681307
2.45442
-1.32878
3.14511
-1.78671
3.71012
-1.98427
3.40162
-2.1187
2.90077
-2.22314
2.40709
-2.30533
1.98369
1.60528
-2.33975
-0.00201113
0.369461
-0.00746673
0.922457
-0.0156628
1.32671
-0.0265403
1.64315
-0.0402925
1.93879
-0.0571658
2.24296
-0.0788949
2.57889
-0.107628
2.94852
-0.147705
3.33656
-0.207924
3.73166
-0.282874
3.44793
-0.423288
2.78278
-0.832388
2.86352
-1.46642
3.77914
-1.8011
4.0448
-1.96237
3.56289
-2.06219
3.00059
-2.14962
2.49451
-2.20861
2.04268
1.54915
-2.15249
-0.00215258
0.371613
-0.0079609
0.928265
-0.0166723
1.33542
-0.0279768
1.65445
-0.0420715
1.95289
-0.0594509
2.26034
-0.0818419
2.60128
-0.11135
2.97803
-0.153115
3.37832
-0.217823
3.79637
-0.315801
3.54591
-0.513329
2.9803
-0.972527
3.32272
-1.51568
4.3223
-1.77282
4.30194
-1.92508
3.71514
-2.01142
3.08694
-2.0286
2.51168
-1.95828
1.97237
1.49706
-1.9062
-0.00216273
0.373776
-0.00818694
0.93429
-0.0172665
1.3445
-0.0290221
1.66621
-0.0434793
1.96734
-0.0611657
2.27802
-0.0840097
2.62413
-0.113796
3.00781
-0.155676
3.4202
-0.217744
3.85843
-0.31865
3.64681
-0.547289
3.20894
-1.04431
3.81974
-1.47474
4.75273
-1.6497
4.4769
-1.73824
3.80368
-1.78008
3.12878
-1.65618
2.38778
-1.15031
1.4665
0.346758
-0.00189397
0.37567
-0.00794715
0.940343
-0.0174623
1.35401
-0.0299928
1.67874
-0.0454318
1.98278
-0.0643674
2.29696
-0.0889821
2.64874
-0.121004
3.03984
-0.165824
3.46502
-0.232433
3.92504
-0.35265
3.76703
-0.629978
3.48627
-1.18467
4.37444
-1.53827
5.10633
-1.66077
4.5994
-1.69949
3.8424
-1.60968
3.03897
-1.28175
2.05985
-0.500729
0.685475
-0.153972
-0.00158734
0.377257
-0.00779388
0.946549
-0.0176911
1.36391
-0.0306096
1.69166
-0.0467539
1.99893
-0.0670078
2.31721
-0.0935579
2.67529
-0.127911
3.07419
-0.175849
3.51296
-0.247833
3.99703
-0.386402
3.9056
-0.725797
3.82567
-1.29022
4.93886
-1.54845
5.36455
-1.62509
4.67604
-1.60732
3.82464
-1.3699
2.80155
-0.678155
1.36811
-0.0194382
0.0267577
-0.17341
-0.000886079
0.378143
-0.00682907
0.952492
-0.0169627
1.37404
-0.0303986
1.70509
-0.0473075
2.01584
-0.0688204
2.33873
-0.097359
2.70383
-0.134187
3.11102
-0.183512
3.56229
-0.268113
4.08163
-0.439425
4.07691
-0.828457
4.2147
-1.35681
5.46722
-1.53701
5.54474
-1.58157
4.72061
-1.47861
3.72167
-1.03173
2.35467
-0.209667
0.546048
0.0292448
-0.212154
-0.144165
-0.000139863
0.378283
-0.00572596
0.958079
-0.0159665
1.38428
-0.0295826
1.71871
-0.0468167
2.03307
-0.0692489
2.36116
-0.0995474
2.73413
-0.138884
3.15035
-0.190364
3.61377
-0.280569
4.17183
-0.476573
4.27291
-0.921614
4.65974
-1.38193
5.92754
-1.50251
5.66533
-1.49474
4.71284
-1.23252
3.45944
-0.565577
1.68773
-0.00819346
-0.0113355
0.0214897
-0.241838
-0.122675
0.00119202
0.377091
-0.00319277
0.962463
-0.0132087
1.3943
-0.0270709
1.73257
-0.0446968
2.0507
-0.0679497
2.38441
-0.100344
2.76652
-0.142769
3.19278
-0.194611
3.66561
-0.284981
4.2622
-0.496181
4.48411
-0.990481
5.15404
-1.35351
6.29056
-1.41469
5.72651
-1.34843
4.64658
-1.00807
3.11909
-0.223873
0.903529
0.0186932
-0.253902
0.0138198
-0.236964
-0.108856
0.0026395
0.374452
-0.000502661
0.965605
-0.0101145
1.40391
-0.0237004
1.74616
-0.040961
2.06796
-0.0640089
2.40746
-0.096843
2.79936
-0.142079
3.23801
-0.19786
3.72139
-0.289256
4.3536
-0.518913
4.71377
-1.02835
5.66348
-1.29312
6.55533
-1.32942
5.76281
-1.16575
4.48291
-0.660575
2.61392
0.0251677
0.217787
0.0527532
-0.281488
0.0293955
-0.213607
-0.07946
0.00523619
0.369216
0.00446515
0.966376
-0.00390697
1.41228
-0.0173
1.75955
-0.0343101
2.08497
-0.0568796
2.43003
-0.0902337
2.83271
-0.137602
3.28538
-0.198336
3.78212
-0.28714
4.4424
-0.519693
4.94633
-1.00165
6.14543
-1.20083
6.75452
-1.21928
5.78126
-0.964078
4.2277
-0.33837
1.98821
0.0508718
-0.171455
0.0657962
-0.296412
0.0461293
-0.19394
-0.0333307
0.00818202
0.361034
0.00997833
0.96458
0.00309971
1.41916
-0.00943458
1.77208
-0.0254342
2.10097
-0.0462143
2.45081
-0.076699
2.8632
-0.123737
3.33242
-0.190779
3.84916
-0.283113
4.53474
-0.502868
5.16608
-0.91918
6.56174
-1.06725
6.90258
-1.09094
5.80495
-0.868033
4.0048
-0.211368
1.33155
-0.0875874
-0.295236
-0.0258888
-0.358111
0.0169531
-0.236782
-0.0163776
0.0126267
0.348407
0.0190139
0.958193
0.0150577
1.42312
0.00365275
1.78349
-0.0117837
2.1164
-0.0305457
2.46957
-0.0566519
2.8893
-0.100502
3.37627
-0.173267
3.92193
-0.270329
4.6318
-0.460897
5.35665
-0.777138
6.87798
-0.892461
7.01791
-0.921118
5.83361
-0.724339
3.80802
-0.207294
0.814501
-0.254173
-0.248357
-0.17555
-0.436734
-0.0648993
-0.347432
-0.081277
0.0176122
0.330795
0.0291395
0.946666
0.0286387
1.42362
0.0197726
1.79235
0.00595168
2.13022
-0.0108305
2.48635
-0.0312047
2.90968
-0.0653426
3.41041
-0.133802
3.99039
-0.253413
4.75141
-0.390997
5.49423
-0.569458
7.05644
-0.649493
7.09794
-0.726774
5.91089
-0.55459
3.63583
-0.378928
0.638839
-0.497315
-0.129969
-0.3754
-0.558649
-0.181058
-0.541775
-0.262335
0.0242616
0.306533
0.0434614
0.927466
0.0484365
1.41864
0.0427896
1.798
0.0307915
2.14222
0.016475
2.50067
0.0039638
2.92219
-0.015141
3.42951
-0.0644033
4.03965
-0.163222
4.85023
-0.258855
5.58986
-0.332652
7.13024
-0.350369
7.11566
-0.372078
5.9326
-0.343489
3.60724
-0.495077
0.790427
-0.553563
-0.0714832
-0.462502
-0.64971
-0.245118
-0.759159
-0.507453
0.0316269
0.274906
0.0597615
0.899331
0.0713602
1.40705
0.0712962
1.79807
0.0643196
2.1492
0.0521178
2.51287
0.0434383
2.93087
0.0399079
3.43304
0.0189002
4.06066
-0.0296666
4.89879
-0.0377501
5.59795
-0.0341366
7.12663
0.0585266
7.023
0.16515
5.82597
0.0535538
3.71884
-0.250285
1.09427
-0.283945
-0.037823
-0.29371
-0.639946
-0.180519
-0.872349
-0.687972
0.0399176
0.234988
0.0799082
0.859341
0.100138
1.38682
0.105468
1.79274
0.104696
2.14997
0.0976624
2.5199
0.0928535
2.93568
0.102275
3.42362
0.114158
4.04877
0.101084
4.91187
0.175123
5.52391
0.374942
6.92681
0.566443
6.83149
0.7275
5.66492
0.504322
3.94202
0.0749755
1.52361
-0.102854
0.140006
-0.197199
-0.5456
-0.147241
-0.922307
-0.835213
0.0468286
0.18816
0.101136
0.805033
0.133711
1.35424
0.147827
1.77862
0.154804
2.14299
0.155777
2.51893
0.157837
2.93362
0.179614
3.40185
0.229084
3.99931
0.273034
4.86792
0.454441
5.3425
0.91
6.47125
1.21295
6.52854
1.5182
5.35967
1.47753
3.98269
0.921942
2.0792
0.445381
0.616567
0.112673
-0.212892
-0.00350532
-0.806129
-0.838718
0.0513925
0.136767
0.122842
0.733584
0.169768
1.30731
0.193971
1.75442
0.209701
2.12726
0.220748
2.50788
0.231853
2.92251
0.257976
3.37572
0.340194
3.91709
0.466692
4.74142
0.778863
5.03033
1.46027
5.78984
1.8124
6.1764
2.0945
5.07757
2.18197
3.89523
1.76736
2.49381
1.16882
1.2151
0.645942
0.30999
0.229257
-0.389443
-0.609461
0.0485529
0.0882144
0.142131
0.640006
0.210628
1.23882
0.247531
1.71751
0.270989
2.1038
0.291976
2.4869
0.318048
2.89644
0.346205
3.34757
0.433519
3.82977
0.624041
4.5509
0.920079
4.73429
1.67822
5.0317
2.07444
5.78019
2.31694
4.83507
2.41678
3.79539
2.14459
2.76599
1.60155
1.75815
0.989759
0.921779
0.415817
0.184499
-0.193645
0.0410297
0.0471847
0.160093
0.520942
0.253026
1.14588
0.309155
1.66139
0.346104
2.06685
0.376768
2.45623
0.414074
2.85913
0.446833
3.31481
0.508171
3.76843
0.710653
4.34842
0.967396
4.47755
1.5485
4.45059
2.00219
5.3265
2.16779
4.66946
2.16659
3.79658
1.92431
3.00828
1.48832
2.19414
1.00368
1.40641
0.47271
0.715469
0.279066
0.0328804
0.0143042
0.174955
0.378867
0.293336
1.0275
0.367626
1.5871
0.415367
2.01911
0.455816
2.41578
0.492363
2.82258
0.537043
3.27013
0.565203
3.74027
0.66709
4.24653
0.846622
4.29802
1.20223
4.09498
1.58299
4.94574
1.59811
4.65434
1.47205
3.92265
1.28558
3.19475
1.02165
2.45807
0.713362
1.7147
0.315586
1.11325
0.594651
0.0308151
-0.0165108
0.17191
0.237772
0.328614
0.8708
0.434443
1.48127
0.496934
1.95662
0.548418
2.3643
0.586627
2.78438
0.629167
3.22759
0.639334
3.73011
0.596945
4.28892
0.636813
4.25815
0.780426
3.95137
1.04751
4.67866
1.06293
4.63892
0.955207
4.03037
0.820606
3.32935
0.629243
2.64943
0.392847
1.9511
0.139257
1.36684
0.733909
0.0306472
-0.047158
0.111993
0.156426
0.259516
0.723278
0.383187
1.3576
0.462213
1.8776
0.510122
2.31639
0.53585
2.75865
0.530335
3.2331
0.504842
3.7556
0.396652
4.39711
0.318805
4.336
0.339256
3.93092
0.462701
4.55522
0.486323
4.61529
0.464604
4.05209
0.39362
3.40033
0.286231
2.75682
0.141475
2.09586
0.0278402
1.48047
0.761749
0.00302145
-0.0501794
0.00456789
0.15488
0.0748222
0.653024
0.173493
1.25892
0.26588
1.78521
0.33616
2.24611
0.388795
2.70601
0.397712
3.22419
0.391752
3.76156
0.308661
4.4802
0.209022
4.43564
0.191397
3.94855
0.329594
4.41702
0.373477
4.57141
0.328106
4.09746
0.250373
3.47806
0.154881
2.85231
0.0487891
2.20195
-0.0155966
1.54486
0.746153
-0.0206847
-0.0294947
-0.0477072
0.181902
-0.0361944
0.641511
0.0316024
1.19113
0.120983
1.69583
0.205689
2.16141
0.282256
2.62945
0.336418
3.17002
0.363548
3.73443
0.327627
4.51612
0.201789
4.56147
0.137922
4.01241
0.203262
4.35168
0.221368
4.5533
0.185895
4.13294
0.121643
3.54232
0.0443161
2.92964
-0.00935341
2.25562
-0.0369449
1.57245
0.709208
-0.030477
0.000982265
-0.0764914
0.227917
-0.0918539
0.656873
-0.0470493
1.14632
0.0350283
1.61375
0.127064
2.06937
0.224051
2.53246
0.324603
3.06947
0.395159
3.66387
0.418439
4.49284
0.280844
4.69907
0.130902
4.16236
0.14177
4.34081
0.131077
4.564
0.0836674
4.18035
0.0242006
3.60178
-0.0232298
2.97707
-0.0567149
2.2891
-0.0540722
1.5698
0.655135
-0.0305349
0.0315172
-0.0809663
0.278348
-0.106144
0.682051
-0.0759768
1.11616
-0.000278131
1.53805
0.103319
1.96577
0.226037
2.40974
0.375428
2.92008
0.510863
3.52844
0.587497
4.41621
0.428238
4.85833
0.158107
4.43249
0.101827
4.39709
0.049811
4.61601
-0.00911904
4.23928
-0.0587587
3.65142
-0.075542
2.99385
-0.100562
2.31412
-0.0772465