/*--------------------------------*- C++ -*----------------------------------*\
  =========                 |
  \\      /  F ield         | OpenFOAM: The Open Source CFD Toolbox
   \\    /   O peration     | Website:  https://openfoam.org
    \\  /    A nd           | Version:  6
     \\/     M anipulation  |
\*---------------------------------------------------------------------------*/
FoamFile
{
    version     2.0;
    format      ascii;
    class       volVectorField;
    location    "22";
    object      U;
}
// * * * * * * * * * * * * * * * * * * * * * * * * * * * * * * * * * * * * * //

dimensions      [0 1 -1 0 0 0 0];

internalField   nonuniform List<vector> 
2200
(
(0.877681 -0.0202143 0)
(1.00482 -0.0400157 0)
(1.00298 -0.0342161 0)
(1.00033 -0.0231229 0)
(0.999851 -0.0154615 0)
(1.00001 -0.00992113 0)
(0.999852 -0.00624411 0)
(0.999776 -0.00394487 0)
(0.999838 -0.00225543 0)
(1.00009 -0.000752911 0)
(1.00001 0.000937376 0)
(0.999784 0.00243767 0)
(0.999714 0.00415967 0)
(0.99983 0.00644817 0)
(0.999988 0.0101312 0)
(0.999838 0.0156 0)
(1.00037 0.0232451 0)
(1.00305 0.0342971 0)
(1.0048 0.0400465 0)
(0.877672 0.0202369 0)
(0.70063 -0.0264853 0)
(0.993465 -0.0586278 0)
(1.0296 -0.0599757 0)
(1.022 -0.0493966 0)
(1.0143 -0.0365784 0)
(1.00858 -0.0254966 0)
(1.00519 -0.0170732 0)
(1.0032 -0.0106423 0)
(1.00209 -0.0057901 0)
(1.0017 -0.00173648 0)
(1.00172 0.00232526 0)
(1.00217 0.00638698 0)
(1.00323 0.0111351 0)
(1.00516 0.0175635 0)
(1.00852 0.0258304 0)
(1.0142 0.0369638 0)
(1.02182 0.0496362 0)
(1.02932 0.0601305 0)
(0.993303 0.0587622 0)
(0.700384 0.0265127 0)
(0.531135 -0.0213649 0)
(0.966499 -0.0547523 0)
(1.05257 -0.0601223 0)
(1.04772 -0.0524957 0)
(1.03158 -0.0411118 0)
(1.0208 -0.0318247 0)
(1.01365 -0.0231012 0)
(1.00897 -0.0153537 0)
(1.00652 -0.00878451 0)
(1.00528 -0.00259153 0)
(1.00524 0.00373851 0)
(1.00629 0.00981921 0)
(1.00873 0.0163164 0)
(1.01335 0.0238407 0)
(1.02046 0.0325469 0)
(1.03121 0.0415744 0)
(1.04735 0.0529187 0)
(1.05232 0.0604873 0)
(0.965969 0.0549385 0)
(0.530419 0.0214306 0)
(0.394504 -0.0133153 0)
(0.910952 -0.0453086 0)
(1.05619 -0.0505604 0)
(1.06686 -0.0466944 0)
(1.05106 -0.0381695 0)
(1.03562 -0.0304038 0)
(1.02413 -0.0234338 0)
(1.01643 -0.0170199 0)
(1.0119 -0.0105815 0)
(1.00895 -0.0032793 0)
(1.00877 0.00461267 0)
(1.01155 0.0119325 0)
(1.01601 0.0183557 0)
(1.02374 0.0246651 0)
(1.03517 0.0313783 0)
(1.05056 0.0391403 0)
(1.06635 0.047487 0)
(1.05522 0.0510432 0)
(0.90968 0.0456352 0)
(0.393007 0.0134137 0)
(0.311399 -0.00583065 0)
(0.847453 -0.0329549 0)
(1.0489 -0.042879 0)
(1.07816 -0.0391541 0)
(1.0658 -0.0328552 0)
(1.0483 -0.0265413 0)
(1.03528 -0.0216536 0)
(1.0267 -0.0166333 0)
(1.02051 -0.0100527 0)
(1.01608 -0.00252423 0)
(1.016 0.00477027 0)
(1.02026 0.0121734 0)
(1.02615 0.0184315 0)
(1.03444 0.0233333 0)
(1.04736 0.028058 0)
(1.06486 0.0340519 0)
(1.07698 0.0400343 0)
(1.04743 0.0435818 0)
(0.84518 0.0332961 0)
(0.309133 0.00593527 0)
(0.268788 -0.00157337 0)
(0.792221 -0.0208288 0)
(1.03333 -0.0322494 0)
(1.08184 -0.0301915 0)
(1.07493 -0.0258413 0)
(1.05806 -0.0218636 0)
(1.04508 -0.0192188 0)
(1.03565 -0.0154917 0)
(1.02784 -0.0088788 0)
(1.02329 -0.00158263 0)
(1.02286 0.00456573 0)
(1.02673 0.0117061 0)
(1.03436 0.0180296 0)
(1.04378 0.0212386 0)
(1.05673 0.0235922 0)
(1.07339 0.0271966 0)
(1.08003 0.0313819 0)
(1.03088 0.0330449 0)
(0.788548 0.0212223 0)
(0.265711 0.00170148 0)
(0.245447 -0.000226677 0)
(0.744659 -0.0133199 0)
(1.0151 -0.0248266 0)
(1.08254 -0.0240265 0)
(1.08126 -0.0207065 0)
(1.06704 -0.0177129 0)
(1.05442 -0.0157089 0)
(1.04346 -0.0122578 0)
(1.03442 -0.00657424 0)
(1.02983 -0.000825077 0)
(1.02941 0.00432956 0)
(1.03346 0.00987204 0)
(1.04214 0.0151962 0)
(1.05264 0.0184038 0)
(1.06496 0.0199681 0)
(1.07909 0.0227177 0)
(1.08003 0.0255208 0)
(1.01149 0.0258284 0)
(0.739516 0.013832 0)
(0.241506 0.000385466 0)
(0.231464 0.000375482 0)
(0.704017 -0.00901996 0)
(0.9966 -0.0212407 0)
(1.08142 -0.0214292 0)
(1.08547 -0.018483 0)
(1.07291 -0.015252 0)
(1.06114 -0.0127396 0)
(1.05089 -0.0084632 0)
(1.04303 -0.00394963 0)
(1.03872 0.000193756 0)
(1.03842 0.00461203 0)
(1.04187 0.00829851 0)
(1.04889 0.0124236 0)
(1.05853 0.0161046 0)
(1.0702 0.018217 0)
(1.08249 0.0209603 0)
(1.07774 0.0233185 0)
(0.991201 0.0225545 0)
(0.696628 0.00964062 0)
(0.226352 -0.000182405 0)
(0.22234 0.000769457 0)
(0.670083 -0.00530605 0)
(0.97753 -0.0179305 0)
(1.07909 -0.0195422 0)
(1.08778 -0.0168237 0)
(1.0754 -0.0136434 0)
(1.063 -0.0107 0)
(1.05337 -0.00656097 0)
(1.04681 -0.00298608 0)
(1.04273 0.000704406 0)
(1.04193 0.00514278 0)
(1.04466 0.00854969 0)
(1.05023 0.0115528 0)
(1.0597 0.0152042 0)
(1.07181 0.0172674 0)
(1.08346 0.0194558 0)
(1.07386 0.0218169 0)
(0.970077 0.0194094 0)
(0.660291 0.00600852 0)
(0.215909 -0.000517891 0)
(0.217387 0.000813244 0)
(0.645979 -0.00174849 0)
(0.960301 -0.0124128 0)
(1.07582 -0.0148659 0)
(1.08887 -0.0128053 0)
(1.07689 -0.0109646 0)
(1.06358 -0.00880088 0)
(1.05384 -0.00524364 0)
(1.04713 -0.00204509 0)
(1.04273 0.0016423 0)
(1.04192 0.00610377 0)
(1.04492 0.00931778 0)
(1.05062 0.0114998 0)
(1.05941 0.0138554 0)
(1.0719 0.0151348 0)
(1.08345 0.016315 0)
(1.06901 0.0175267 0)
(0.950505 0.01413 0)
(0.633795 0.00263129 0)
(0.209322 -0.000500306 0)
(0.216305 0.000616459 0)
(0.633053 0.000614894 0)
(0.947123 -0.00637962 0)
(1.07233 -0.00842094 0)
(1.09025 -0.00757284 0)
(1.07936 -0.00714419 0)
(1.06573 -0.00591415 0)
(1.05545 -0.00360888 0)
(1.04841 -0.000885038 0)
(1.04372 0.00266103 0)
(1.04283 0.00666616 0)
(1.04579 0.0095134 0)
(1.05164 0.0113037 0)
(1.06072 0.0121974 0)
(1.07392 0.0126945 0)
(1.08326 0.012433 0)
(1.06311 0.0120274 0)
(0.93391 0.00858148 0)
(0.61739 0.00066924 0)
(0.205952 -0.000202963 0)
(0.217269 0.000378799 0)
(0.628434 0.00114191 0)
(0.93826 -0.00235984 0)
(1.06949 -0.00405591 0)
(1.092 -0.00399438 0)
(1.08276 -0.00360542 0)
(1.06949 -0.00223343 0)
(1.05921 -0.000726818 0)
(1.05137 0.00111057 0)
(1.04633 0.00403488 0)
(1.04506 0.00705875 0)
(1.04766 0.00922924 0)
(1.05351 0.0101447 0)
(1.06262 0.0108024 0)
(1.07483 0.0108471 0)
(1.08255 0.00975384 0)
(1.0575 0.0083015 0)
(0.921837 0.00531762 0)
(0.60874 0.000422188 0)
(0.204365 0.000111221 0)
(0.219108 0.000245716 0)
(0.628257 0.00112124 0)
(0.934064 -0.000558482 0)
(1.06756 -0.00163056 0)
(1.09298 -0.00170521 0)
(1.08527 -0.00132535 0)
(1.07288 0.00013546 0)
(1.06341 0.00156929 0)
(1.05608 0.00341034 0)
(1.05109 0.00589657 0)
(1.04896 0.00808301 0)
(1.05025 0.00962609 0)
(1.05491 0.0104452 0)
(1.06257 0.0108516 0)
(1.07406 0.0102455 0)
(1.08035 0.00912441 0)
(1.0517 0.00742746 0)
(0.911951 0.00455803 0)
(0.602196 0.000995205 0)
(0.202457 0.000292885 0)
(0.220707 0.000346714 0)
(0.628942 0.00120054 0)
(0.931442 0.000255956 0)
(1.06647 -0.000412609 0)
(1.09313 -0.000311545 0)
(1.08599 0.000239622 0)
(1.07445 0.00172379 0)
(1.06522 0.00334554 0)
(1.05822 0.00550625 0)
(1.05347 0.00806198 0)
(1.05088 0.0101871 0)
(1.05135 0.0115722 0)
(1.05515 0.0117593 0)
(1.06195 0.0114163 0)
(1.07232 0.010347 0)
(1.07714 0.00911643 0)
(1.04605 0.00705696 0)
(0.903784 0.00420973 0)
(0.596425 0.00129203 0)
(0.199823 0.000334658 0)
(0.223362 0.000553719 0)
(0.631334 0.00163589 0)
(0.930814 0.00170191 0)
(1.06589 0.00145429 0)
(1.09326 0.0014923 0)
(1.08651 0.00208396 0)
(1.07552 0.00321487 0)
(1.06611 0.0050031 0)
(1.05883 0.00742873 0)
(1.05365 0.0101258 0)
(1.05066 0.0124372 0)
(1.05065 0.01389 0)
(1.05405 0.0139598 0)
(1.06041 0.0129095 0)
(1.06924 0.0118388 0)
(1.07285 0.00992375 0)
(1.03975 0.00719412 0)
(0.895588 0.00404729 0)
(0.590159 0.00137617 0)
(0.196836 0.000378945 0)
(0.226538 0.000699371 0)
(0.635085 0.00219105 0)
(0.931879 0.00323015 0)
(1.06544 0.00305564 0)
(1.09388 0.00322455 0)
(1.08806 0.004027 0)
(1.07766 0.00538684 0)
(1.06829 0.00749436 0)
(1.0607 0.0100881 0)
(1.05469 0.0128922 0)
(1.05088 0.0152543 0)
(1.05 0.0165995 0)
(1.05241 0.0166997 0)
(1.05797 0.0153434 0)
(1.06557 0.01353 0)
(1.0674 0.0107673 0)
(1.03203 0.00723908 0)
(0.887094 0.00390225 0)
(0.584242 0.0016059 0)
(0.193892 0.000503451 0)
(0.232033 0.000858105 0)
(0.643182 0.00282428 0)
(0.935338 0.00456649 0)
(1.06583 0.00516153 0)
(1.09486 0.0052868 0)
(1.09057 0.00598914 0)
(1.08117 0.00768904 0)
(1.07245 0.0101521 0)
(1.06481 0.0131906 0)
(1.058 0.0162878 0)
(1.05299 0.0187429 0)
(1.05094 0.0198581 0)
(1.05182 0.0196678 0)
(1.05598 0.0180428 0)
(1.0617 0.0156882 0)
(1.06146 0.0124626 0)
(1.02422 0.00846923 0)
(0.87893 0.00476858 0)
(0.577479 0.00218691 0)
(0.19014 0.000667494 0)
(0.23698 0.00101628 0)
(0.649685 0.00312747 0)
(0.939377 0.00529683 0)
(1.06755 0.00652391 0)
(1.09651 0.00728214 0)
(1.09342 0.00871385 0)
(1.08506 0.0109454 0)
(1.07674 0.0140051 0)
(1.0688 0.0176443 0)
(1.06103 0.0210827 0)
(1.05453 0.0236156 0)
(1.05095 0.0243855 0)
(1.05019 0.0236566 0)
(1.05248 0.0215657 0)
(1.05605 0.01841 0)
(1.05333 0.0142917 0)
(1.01388 0.00966022 0)
(0.868333 0.00555692 0)
(0.56882 0.00279481 0)
(0.185321 0.000847856 0)
(0.245222 0.0013388 0)
(0.662777 0.00443583 0)
(0.947599 0.00750511 0)
(1.07078 0.00971155 0)
(1.09863 0.0109768 0)
(1.09674 0.0126607 0)
(1.08913 0.0154793 0)
(1.0809 0.0190912 0)
(1.07233 0.0230389 0)
(1.06323 0.0266626 0)
(1.05512 0.0290621 0)
(1.04992 0.0292376 0)
(1.04771 0.0275682 0)
(1.04826 0.0246344 0)
(1.04984 0.0206625 0)
(1.04524 0.0162159 0)
(1.0047 0.0113058 0)
(0.859125 0.00697485 0)
(0.559407 0.0035143 0)
(0.179407 0.0010228 0)
(0.253411 0.0016596 0)
(0.674476 0.00496068 0)
(0.956486 0.00894532 0)
(1.07614 0.0120987 0)
(1.1031 0.014943 0)
(1.10157 0.0182166 0)
(1.09431 0.0218475 0)
(1.08586 0.0260361 0)
(1.07616 0.0304144 0)
(1.06535 0.0341178 0)
(1.0551 0.036034 0)
(1.04777 0.0353562 0)
(1.0437 0.0326415 0)
(1.0423 0.0288246 0)
(1.04182 0.0239181 0)
(1.0349 0.0185257 0)
(0.991962 0.0130076 0)
(0.844619 0.00797574 0)
(0.545928 0.00413573 0)
(0.171891 0.0012278 0)
(0.266511 0.00230555 0)
(0.694211 0.00739332 0)
(0.971128 0.0125927 0)
(1.08486 0.0173508 0)
(1.10967 0.0212478 0)
(1.10843 0.025057 0)
(1.10111 0.029741 0)
(1.09175 0.0348345 0)
(1.08045 0.039729 0)
(1.06732 0.043276 0)
(1.05435 0.0444473 0)
(1.04463 0.0425326 0)
(1.03867 0.0383653 0)
(1.03538 0.0330652 0)
(1.0331 0.0272426 0)
(1.02475 0.0212562 0)
(0.980953 0.0152278 0)
(0.83326 0.00996404 0)
(0.533088 0.00514449 0)
(0.163665 0.00147899 0)
(0.281895 0.00281408 0)
(0.717223 0.00843246 0)
(0.988865 0.0155906 0)
(1.09689 0.0219005 0)
(1.11948 0.0273512 0)
(1.11747 0.0337358 0)
(1.10925 0.0399907 0)
(1.09843 0.0461968 0)
(1.08499 0.0515204 0)
(1.06889 0.0549377 0)
(1.05295 0.0549583 0)
(1.04054 0.0513521 0)
(1.03234 0.0456914 0)
(1.02713 0.0391396 0)
(1.02295 0.0321928 0)
(1.01247 0.0254108 0)
(0.965239 0.0185919 0)
(0.81259 0.0117927 0)
(0.512535 0.00607541 0)
(0.152559 0.00177399 0)
(0.303237 0.00420061 0)
(0.746956 0.0125635 0)
(1.01216 0.0209082 0)
(1.11312 0.0293884 0)
(1.13263 0.0369838 0)
(1.1293 0.0448284 0)
(1.11925 0.0525076 0)
(1.10595 0.0600299 0)
(1.08908 0.0661013 0)
(1.06925 0.0691574 0)
(1.04962 0.0677157 0)
(1.03429 0.0623606 0)
(1.02387 0.0547665 0)
(1.0168 0.0464304 0)
(1.01113 0.0380848 0)
(0.999064 0.0296726 0)
(0.950311 0.0216196 0)
(0.796875 0.0144533 0)
(0.494624 0.00753332 0)
(0.141199 0.00210929 0)
(0.334068 0.00529393 0)
(0.788929 0.015149 0)
(1.0434 0.0275035 0)
(1.13496 0.0388114 0)
(1.15031 0.0485352 0)
(1.1442 0.0594209 0)
(1.13083 0.0696575 0)
(1.11364 0.0786373 0)
(1.09256 0.0850111 0)
(1.06859 0.0869195 0)
(1.04524 0.083447 0)
(1.02703 0.0755267 0)
(1.01414 0.065748 0)
(1.00496 0.0555113 0)
(0.99746 0.0457677 0)
(0.983202 0.0366251 0)
(0.929456 0.0272313 0)
(0.76682 0.0174576 0)
(0.463301 0.00869722 0)
(0.125149 0.0024699 0)
(0.369994 0.008956 0)
(0.837928 0.0241568 0)
(1.08186 0.0384968 0)
(1.16212 0.0532697 0)
(1.17244 0.0657373 0)
(1.16169 0.0801105 0)
(1.14367 0.092137 0)
(1.1214 0.101862 0)
(1.09537 0.10765 0)
(1.0663 0.107726 0)
(1.03869 0.101493 0)
(1.0171 0.0910532 0)
(1.00194 0.0792009 0)
(0.991002 0.0670825 0)
(0.981494 0.0551246 0)
(0.964507 0.0433231 0)
(0.906972 0.0318407 0)
(0.74283 0.0211024 0)
(0.438754 0.0110275 0)
(0.110969 0.00295453 0)
(0.4518 0.0141889 0)
(0.915331 0.0332205 0)
(1.13342 0.0549081 0)
(1.19612 0.0733896 0)
(1.19974 0.0915883 1.18813e-34)
(1.18115 0.109131 -6.83288e-35)
(1.15664 0.122282 0)
(1.12804 0.131884 0)
(1.09618 0.135806 0)
(1.06233 0.132824 0)
(1.03097 0.123186 0)
(1.0063 0.109558 0)
(0.988151 0.0947195 0)
(0.974752 0.0803828 0)
(0.963356 0.06704 0)
(0.943176 0.0539409 0)
(0.878367 0.0402834 0)
(0.699123 0.0259068 0)
(0.388712 0.0119482 0)
(0.0874628 0.0028523 0)
(0.513057 0.0285793 -1.85749e-21)
(1.00299 0.0551972 8.57206e-22)
(1.18957 0.0830899 0)
(1.23301 0.106607 3.0738e-21)
(1.22664 0.130213 -2.49033e-21)
(1.19934 0.148771 7.20895e-35)
(1.16765 0.161773 0)
(1.13243 0.169646 5.84794e-21)
(1.09486 0.170275 -2.06093e-20)
(1.05599 0.163488 4.47739e-21)
(1.01869 0.150154 0)
(0.989471 0.133583 -1.40137e-20)
(0.969073 0.116787 -1.73846e-20)
(0.953064 0.1004 3.05507e-20)
(0.937593 0.0842867 -2.44955e-20)
(0.911168 0.0677998 0)
(0.835178 0.0501949 -9.30475e-21)
(0.642495 0.0333051 0)
(0.341125 0.0177723 -5.04091e-20)
(0.0705882 0.00372864 5.96701e-20)
(0.54194 0.0543863 -5.34862e-22)
(1.05535 0.0925241 -2.89196e-20)
(1.23367 0.126305 9.32129e-21)
(1.26633 0.152544 1.00676e-20)
(1.25063 0.178443 -4.51245e-21)
(1.21479 0.196784 8.13803e-21)
(1.17573 0.208592 0)
(1.1343 0.213504 0)
(1.09133 0.210543 3.24349e-20)
(1.0464 0.200756 0)
(1.0034 0.185317 4.8608e-20)
(0.970167 0.165775 1.50347e-20)
(0.944172 0.146641 3.14657e-22)
(0.923839 0.129919 -3.4128e-20)
(0.905254 0.113184 0)
(0.874955 0.0941306 0)
(0.796542 0.0724351 -1.56366e-19)
(0.611737 0.0536205 3.91834e-19)
(0.329547 0.0275458 -2.32936e-19)
(0.0699973 0.00842193 -2.76485e-19)
(0.546545 0.0740831 6.26652e-20)
(1.08334 0.14015 -1.79344e-20)
(1.26645 0.181972 -4.37824e-21)
(1.29249 0.20919 -2.09294e-20)
(1.26877 0.235096 1.37625e-20)
(1.22588 0.251414 -1.70576e-20)
(1.18065 0.259774 9.7085e-21)
(1.134 0.260144 0)
(1.0859 0.253514 -6.74813e-20)
(1.0343 0.241553 7.18881e-20)
(0.985232 0.223291 -1.32601e-19)
(0.946407 0.200619 6.42694e-20)
(0.918137 0.180014 -4.63498e-20)
(0.895726 0.162308 1.01968e-19)
(0.874344 0.146956 0)
(0.842949 0.12846 -3.96343e-20)
(0.767623 0.104948 0)
(0.597648 0.0757728 2.23938e-19)
(0.330988 0.0467458 -5.3244e-19)
(0.080076 0.0139674 3.34197e-19)
(0.541793 0.105877 -3.13537e-19)
(1.10193 0.192652 1.24332e-19)
(1.28819 0.242218 2.05614e-20)
(1.31051 0.271843 0)
(1.28081 0.296914 9.28153e-21)
(1.23248 0.30995 -8.78843e-21)
(1.1827 0.313435 -1.05837e-20)
(1.13166 0.30877 0)
(1.07826 0.298719 4.76769e-20)
(1.01981 0.283923 -4.95652e-20)
(0.966268 0.261479 1.16508e-19)
(0.924857 0.237049 0)
(0.891568 0.215421 -9.79003e-20)
(0.864844 0.197236 5.40742e-20)
(0.84176 0.181264 1.45381e-19)
(0.811004 0.164464 -1.27946e-19)
(0.741325 0.138815 2.10466e-19)
(0.586407 0.103391 -4.67008e-19)
(0.339768 0.0660074 2.9652e-19)
(0.0914464 0.0205122 -3.72235e-19)
(0.527766 0.133188 1.99756e-19)
(1.10756 0.24444 -1.47322e-19)
(1.30023 0.304104 6.44845e-20)
(1.32013 0.336716 -8.58296e-20)
(1.28614 0.360612 5.57064e-20)
(1.23438 0.369899 -7.60107e-21)
(1.18163 0.36802 3.81622e-21)
(1.12694 0.358657 -3.59632e-20)
(1.06831 0.345542 -4.80272e-20)
(1.00459 0.327471 -1.06904e-19)
(0.948225 0.301422 -2.51396e-19)
(0.902703 0.274516 -8.33972e-20)
(0.867899 0.251984 2.66932e-21)
(0.840283 0.232658 -1.93781e-19)
(0.816595 0.21672 -6.32161e-21)
(0.786926 0.197542 1.87968e-19)
(0.722862 0.170953 -5.81667e-20)
(0.581083 0.132216 -3.39539e-20)
(0.348993 0.0859327 0)
(0.100077 0.027691 7.97715e-19)
(0.510392 0.157643 0)
(1.10243 0.293078 4.67245e-20)
(1.30432 0.363825 3.28632e-20)
(1.3234 0.400542 -1.21485e-20)
(1.28632 0.423808 -6.98656e-20)
(1.23234 0.429326 9.65293e-21)
(1.17759 0.422372 8.03302e-21)
(1.1196 0.409012 6.29277e-20)
(1.0558 0.393012 -2.86117e-20)
(0.987716 0.371167 4.77177e-20)
(0.926677 0.340456 1.35604e-19)
(0.877528 0.310943 1.84236e-19)
(0.841365 0.287031 -1.14437e-19)
(0.813213 0.267075 2.10214e-19)
(0.789234 0.249109 -1.68433e-19)
(0.762573 0.23189 0)
(0.705805 0.20345 -4.44847e-19)
(0.574244 0.161005 5.98168e-19)
(0.353339 0.105158 4.51624e-20)
(0.10464 0.0347331 -8.449e-19)
(0.494408 0.180427 -7.00227e-21)
(1.09428 0.340912 -3.23352e-19)
(1.30298 0.421873 -2.48216e-19)
(1.32149 0.46213 2.04066e-19)
(1.28207 0.484733 -3.961e-20)
(1.22677 0.486946 1.85246e-20)
(1.17034 0.475681 3.67239e-21)
(1.10931 0.459154 -8.9031e-21)
(1.04118 0.440455 -1.02894e-19)
(0.971265 0.414449 8.09575e-22)
(0.909365 0.379643 -1.47544e-19)
(0.860512 0.348076 -1.96379e-19)
(0.823915 0.322063 1.28241e-19)
(0.796374 0.301174 -7.55099e-20)
(0.772898 0.282983 1.82987e-19)
(0.744354 0.262235 0)
(0.689682 0.233822 -2.75591e-19)
(0.565468 0.187986 4.07517e-19)
(0.350338 0.123805 7.79469e-19)
(0.104601 0.0400615 -9.15831e-19)
(0.479715 0.201303 -6.27174e-19)
(1.08254 0.385918 3.14742e-19)
(1.29782 0.477394 2.43975e-19)
(1.31597 0.521241 -2.22383e-19)
(1.27456 0.543151 1.10511e-20)
(1.21819 0.542137 5.44965e-20)
(1.16027 0.5273 -8.58088e-21)
(1.09664 0.508171 -2.34673e-20)
(1.02542 0.486647 -6.26544e-20)
(0.954136 0.455603 1.07814e-19)
(0.888813 0.416902 1.40982e-19)
(0.836393 0.381981 3.0843e-19)
(0.798533 0.353472 0)
(0.76868 0.329884 5.44779e-21)
(0.746454 0.311823 -5.07263e-19)
(0.723694 0.294249 1.16716e-19)
(0.674239 0.262967 5.92173e-19)
(0.553954 0.212252 -1.73847e-19)
(0.340576 0.138441 3.69176e-19)
(0.101521 0.0429282 -3.03926e-20)
(0.467685 0.221314 8.50758e-21)
(1.07056 0.429745 2.95229e-19)
(1.28968 0.530822 1.86804e-19)
(1.30732 0.577521 -4.02254e-19)
(1.26427 0.598486 2.49115e-19)
(1.20718 0.594573 -7.03352e-20)
(1.14804 0.576769 5.69924e-21)
(1.08225 0.555515 5.55896e-20)
(1.0091 0.53134 1.1326e-19)
(0.936882 0.496225 -1.35651e-19)
(0.869305 0.455009 0)
(0.817681 0.416489 -1.20635e-19)
(0.780809 0.385206 1.385e-19)
(0.754402 0.362436 1.84671e-19)
(0.728294 0.341677 -1.06024e-19)
(0.700332 0.318034 -2.66788e-19)
(0.652736 0.287846 -8.08801e-20)
(0.53759 0.232042 -1.21199e-21)
(0.32861 0.148634 0)
(0.0963289 0.0451906 0)
(0.458204 0.240365 -3.17373e-19)
(1.05814 0.471488 0)
(1.27954 0.581901 2.15589e-19)
(1.29664 0.631248 -1.0049e-19)
(1.2522 0.651087 -2.57744e-19)
(1.19458 0.644151 7.13643e-20)
(1.13447 0.623807 2.62004e-23)
(1.06694 0.60073 -2.96547e-20)
(0.992497 0.57396 7.39301e-20)
(0.918456 0.534629 -5.38682e-20)
(0.847809 0.488643 7.91244e-20)
(0.793995 0.446855 3.77667e-19)
(0.753325 0.41414 1.34556e-20)
(0.720719 0.386295 -1.89108e-19)
(0.701703 0.364059 3.63224e-19)
(0.682008 0.346393 4.53504e-21)
(0.635952 0.308929 8.65318e-20)
(0.521032 0.249814 -4.19637e-19)
(0.315362 0.156385 4.24818e-19)
(0.0901456 0.0465193 -5.08428e-19)
(0.451803 0.259389 6.90487e-23)
(1.04624 0.511851 0)
(1.26798 0.630619 0)
(1.28449 0.682102 9.23921e-20)
(1.23899 0.700656 1.02481e-19)
(1.18113 0.69097 -5.63993e-20)
(1.12027 0.668438 2.51097e-20)
(1.05106 0.643902 0)
(0.975409 0.614767 -1.17915e-19)
(0.898856 0.572121 1.97882e-19)
(0.825931 0.52435 2.39269e-19)
(0.77024 0.480064 -1.41842e-19)
(0.73206 0.442452 -1.76942e-19)
(0.707667 0.413596 4.17973e-19)
(0.682128 0.391474 -1.28563e-19)
(0.65536 0.361423 -1.55837e-19)
(0.61118 0.328341 -9.5133e-20)
(0.500396 0.262909 -4.54942e-19)
(0.300744 0.161925 6.3905e-20)
(0.0832751 0.0469726 5.51831e-19)
(0.447036 0.278844 -1.29828e-19)
(1.03485 0.550512 -2.00048e-19)
(1.25573 0.677263 2.29467e-20)
(1.27164 0.730594 4.30021e-22)
(1.22543 0.747762 3.04868e-20)
(1.16743 0.735251 -1.57519e-19)
(1.10582 0.710796 0)
(1.03493 0.684959 2.17815e-20)
(0.958156 0.653501 -1.71751e-20)
(0.87908 0.608032 3.1506e-19)
(0.803751 0.556342 -5.92134e-20)
(0.746763 0.506041 6.58161e-20)
(0.705122 0.467039 0)
(0.671696 0.435179 -2.27942e-19)
(0.652665 0.406575 2.83017e-19)
(0.635679 0.385932 0)
(0.591543 0.342225 -2.07923e-19)
(0.480203 0.274424 6.08809e-19)
(0.284783 0.165705 7.22989e-20)
(0.0759632 0.0464794 -6.83478e-19)
(0.443367 0.297585 -2.90455e-19)
(1.0239 0.587274 3.64593e-19)
(1.24307 0.721066 0)
(1.25844 0.77603 2.32046e-19)
(1.21167 0.791971 0)
(1.15367 0.777104 1.43924e-19)
(1.09136 0.751014 0)
(1.0189 0.72413 0)
(0.941059 0.690659 -3.98346e-20)
(0.859647 0.643105 -3.05901e-19)
(0.781968 0.588456 -4.44336e-19)
(0.722916 0.536321 8.23188e-20)
(0.681813 0.492149 3.06281e-19)
(0.657076 0.457301 2.55739e-19)
(0.633764 0.430524 -9.08249e-19)
(0.607583 0.396708 -3.74242e-19)
(0.565481 0.35843 2.17728e-19)
(0.45683 0.282142 0)
(0.267379 0.167306 6.26092e-19)
(0.0680442 0.0449965 -7.40874e-19)
(0.440752 0.315223 3.21914e-19)
(1.01386 0.622382 -4.02023e-19)
(1.23052 0.762819 0)
(1.24517 0.819097 -1.01429e-20)
(1.19802 0.833766 -9.51578e-20)
(1.14007 0.816592 0)
(1.07702 0.789122 -8.5299e-21)
(1.00311 0.76128 2.49772e-20)
(0.924326 0.72567 -5.48883e-20)
(0.840701 0.67637 3.17211e-20)
(0.75976 0.619893 0)
(0.696831 0.563335 3.30575e-19)
(0.652973 0.515824 4.29322e-21)
(0.620279 0.476781 1.38843e-19)
(0.602018 0.442521 1.66918e-19)
(0.586317 0.417097 0)
(0.542449 0.36476 -3.66379e-19)
(0.432867 0.287629 7.18875e-19)
(0.248825 0.166604 -7.64892e-19)
(0.0598478 0.042532 1.60719e-18)
(0.438914 0.331795 0)
(1.00432 0.655433 0)
(1.21806 0.80174 -2.21903e-19)
(1.23197 0.85919 0)
(1.18443 0.872767 0)
(1.12656 0.853748 2.15924e-19)
(1.06278 0.825166 -1.20035e-20)
(0.987709 0.796594 1.73059e-20)
(0.908229 0.75948 -6.13103e-21)
(0.822981 0.709946 0)
(0.74029 0.651373 -7.05637e-20)
(0.674729 0.591158 -2.73558e-19)
(0.628712 0.540038 -3.41313e-19)
(0.601558 0.495031 -1.41195e-19)
(0.580048 0.462437 1.83537e-19)
(0.556345 0.419437 -4.35535e-19)
(0.515065 0.376507 7.92651e-19)
(0.409722 0.288923 7.08546e-21)
(0.229553 0.16391 -7.39208e-19)
(0.0519438 0.0392908 -1.09714e-19)
(0.437702 0.347376 0)
(0.995747 0.687065 -3.15073e-19)
(1.20594 0.838852 2.46941e-19)
(1.21886 0.897098 0)
(1.17103 0.909457 0)
(1.11329 0.888615 -4.79707e-19)
(1.04889 0.859162 0)
(0.9731 0.829985 0)
(0.893561 0.791307 -9.86084e-20)
(0.806838 0.740304 5.73645e-20)
(0.720026 0.679617 -5.68525e-19)
(0.648761 0.61819 0)
(0.597489 0.561083 -3.70765e-19)
(0.562831 0.512456 1.13941e-20)
(0.544077 0.466335 -5.88507e-19)
(0.532244 0.436292 2.35837e-19)
(0.491044 0.374967 3.80799e-21)
(0.382284 0.288466 -8.47647e-19)
(0.211016 0.158446 4.02061e-19)
(0.0455799 0.0358031 1.17386e-19)
(0.436816 0.362136 0)
(0.987528 0.716736 -3.73585e-19)
(1.19406 0.873402 2.6461e-19)
(1.20598 0.932317 5.48358e-19)
(1.15782 0.943563 1.08429e-19)
(1.10021 0.92124 -7.41061e-20)
(1.03531 0.89113 4.4463e-20)
(0.959094 0.861361 -5.28952e-20)
(0.879021 0.821511 1.05483e-19)
(0.788907 0.770818 3.61155e-19)
(0.698468 0.71105 4.71699e-19)
(0.625062 0.647709 8.95675e-20)
(0.572984 0.587041 5.37781e-19)
(0.539905 0.529812 3.47425e-19)
(0.519573 0.485266 4.24528e-19)
(0.498027 0.430002 -2.63962e-19)
(0.460808 0.380026 -3.12301e-19)
(0.362315 0.282042 3.68385e-19)
(0.19214 0.150698 -2.19254e-19)
(0.041423 0.0317118 3.832e-19)
(0.436144 0.376136 4.95273e-19)
(0.980049 0.745149 5.93732e-19)
(1.18249 0.906387 1.46644e-19)
(1.19325 0.965628 1.66389e-20)
(1.14489 0.975585 -3.79367e-19)
(1.08751 0.951711 1.39595e-19)
(1.02226 0.921039 -5.13354e-20)
(0.945806 0.890798 -2.17952e-20)
(0.865473 0.850198 -1.00858e-19)
(0.774304 0.799068 -4.01488e-19)
(0.683335 0.737895 2.86457e-20)
(0.605159 0.674145 0)
(0.542452 0.610849 0)
(0.498173 0.550551 -1.7712e-19)
(0.474377 0.484763 -6.99604e-19)
(0.465805 0.438815 5.72074e-19)
(0.434824 0.362031 3.47843e-19)
(0.336977 0.269293 0)
(0.188871 0.135744 7.01241e-19)
(0.046561 0.0285389 -4.16903e-19)
(0.435509 0.389396 -2.6303e-19)
(0.972742 0.771672 2.2955e-19)
(1.17123 0.937088 -3.26291e-19)
(1.18088 0.996568 -3.4722e-19)
(1.1323 1.00532 -1.5106e-19)
(1.07511 0.98013 3.32326e-20)
(1.00962 0.949066 0)
(0.933197 0.918451 8.47631e-20)
(0.852563 0.877119 1.66437e-20)
(0.758843 0.825994 0)
(0.663417 0.766055 0)
(0.57933 0.701343 6.1652e-20)
(0.517294 0.638822 9.34892e-20)
(0.473377 0.569959 -1.90198e-19)
(0.445097 0.508174 5.05992e-19)
(0.418575 0.41982 -6.29721e-19)
(0.393996 0.351164 -7.48324e-19)
(0.329535 0.237653 6.64801e-19)
(0.219971 0.11852 -2.56618e-19)
(0.0960156 0.0365611 1.47809e-19)
(0.43484 0.401768 3.06003e-19)
(0.965965 0.796986 0)
(1.16021 0.966348 0)
(1.1687 1.02584 -1.16444e-19)
(1.12008 1.03327 9.42667e-20)
(1.06332 1.0067 -2.07652e-20)
(0.997795 0.975282 -1.9369e-19)
(0.921517 0.944297 -1.57953e-19)
(0.840467 0.902633 1.32756e-19)
(0.744559 0.851876 -3.19841e-20)
(0.646383 0.791876 7.51178e-20)
(0.561767 0.730041 -5.10653e-19)
(0.488993 0.666642 -5.54767e-19)
(0.432007 0.598815 -1.01076e-19)
(0.389402 0.510478 0)
(0.374757 0.434541 -1.13666e-20)
(0.348102 0.303827 4.12733e-19)
(0.280993 0.16732 -7.13998e-19)
(0.225668 0.0198638 5.44119e-19)
(0.0659989 -0.0159441 4.62726e-19)
(0.434082 0.413689 -6.66828e-19)
(0.958988 0.820399 -2.89694e-19)
(1.14939 0.993562 7.73307e-21)
(1.15691 1.05325 1.50944e-19)
(1.10831 1.05953 0)
(1.05189 1.03188 4.25584e-19)
(0.986268 1.00025 2.38871e-19)
(0.910061 0.969051 -4.32594e-20)
(0.828201 0.92731 -5.58967e-20)
(0.730627 0.876773 -3.02564e-20)
(0.632215 0.817606 2.81018e-20)
(0.540318 0.756722 4.51013e-19)
(0.464161 0.695281 5.4248e-19)
(0.403321 0.623191 9.7207e-20)
(0.359719 0.553593 5.33044e-19)
(0.303771 0.423717 0)
(0.211509 0.303145 0)
(0.0792404 0.320456 4.94633e-19)
(-0.0244851 0.711158 -1.97192e-20)
(-0.00153525 1.64913 -5.61226e-19)
(0.433298 0.424983 3.63859e-19)
(0.952515 0.842974 8.6797e-19)
(1.13873 1.0197 -1.30439e-18)
(1.14528 1.07949 7.77381e-19)
(1.0969 1.08477 -8.83821e-20)
(1.04101 1.05618 5.6242e-19)
(0.975356 1.02459 0)
(0.89932 0.993408 1.74548e-19)
(0.817047 0.951926 0)
(0.717765 0.902701 3.10529e-19)
(0.613363 0.845201 -4.24412e-20)
(0.519005 0.786265 4.75864e-20)
(0.437751 0.726377 6.02374e-19)
(0.362962 0.666152 -2.19361e-19)
(0.275624 0.566963 -2.78996e-19)
(0.215985 0.496593 0)
(0.109068 0.627724 0)
(0.0437639 1.35429 0)
(0.0639827 2.47203 -2.85842e-19)
(0.0816161 2.91051 -1.71743e-19)
(0.43229 0.435661 0)
(0.945959 0.863922 0)
(1.1284 1.04412 4.67701e-19)
(1.13416 1.10408 -6.46932e-19)
(1.08613 1.1086 4.38821e-19)
(1.03077 1.0795 -5.14721e-19)
(0.965105 1.0481 -2.7648e-20)
(0.889093 1.01698 2.15269e-20)
(0.805436 0.975843 1.12467e-20)
(0.704012 0.927436 -3.53756e-19)
(0.601479 0.870746 6.64377e-20)
(0.503012 0.81561 4.2708e-19)
(0.411976 0.764496 -5.94604e-19)
(0.3286 0.693314 -6.90523e-19)
(0.26238 0.640479 2.40926e-19)
(0.180586 0.797337 0)
(0.111889 1.61048 3.52117e-19)
(0.120631 2.69738 4.06822e-19)
(0.122518 3.07739 -4.59072e-19)
(0.110467 3.20671 5.03729e-19)
(0.431063 0.446015 0)
(0.939845 0.884015 7.10681e-19)
(1.11829 1.06741 -1.20799e-19)
(1.12328 1.12746 8.18207e-19)
(1.07584 1.13137 -4.6061e-19)
(1.02113 1.10191 0)
(0.955244 1.07087 0)
(0.879111 1.03998 0)
(0.794872 0.999722 -4.22423e-20)
(0.693322 0.953713 6.39766e-21)
(0.585081 0.900869 0)
(0.480657 0.849638 -4.17969e-19)
(0.391509 0.796236 0)
(0.294641 0.748164 4.89897e-19)
(0.217946 0.846561 -3.18864e-19)
(0.169414 1.5314 -2.63711e-19)
(0.167196 2.69902 -6.57529e-19)
(0.180294 3.12561 -3.42801e-19)
(0.15622 3.25813 -4.29832e-19)
(0.137445 3.29374 3.94307e-19)
(0.428835 0.454923 -2.42036e-19)
(0.933623 0.902541 1.64053e-20)
(1.10858 1.08927 -1.30463e-19)
(1.11301 1.14939 -6.53247e-19)
(1.06629 1.15286 0)
(1.0121 1.12345 0)
(0.946022 1.09291 0)
(0.869958 1.0624 -1.23602e-20)
(0.784681 1.02281 4.41399e-20)
(0.680979 0.977696 0)
(0.574705 0.925902 0)
(0.475121 0.878522 0)
(0.371263 0.839979 0)
(0.303184 0.849104 3.26227e-19)
(0.265845 1.27068 8.41145e-19)
(0.234078 2.44525 2.62737e-19)
(0.23836 3.09782 4.97164e-19)
(0.224031 3.28216 -3.31719e-19)
(0.183073 3.33785 1.22075e-19)
(0.162093 3.34879 0)
(0.425862 0.462656 2.45642e-19)
(0.926819 0.919842 -1.53829e-18)
(1.09875 1.11044 -4.36497e-19)
(1.10293 1.17088 -1.05501e-19)
(1.05711 1.17395 1.18221e-19)
(1.00334 1.14456 -8.31053e-19)
(0.93684 1.11463 5.5669e-20)
(0.860583 1.0844 3.59565e-19)
(0.774492 1.04604 0)
(0.671308 1.00405 -2.02636e-20)
(0.561869 0.957003 1.84328e-20)
(0.454171 0.916174 0)
(0.373206 0.889578 0)
(0.31123 1.0507 -4.01718e-19)
(0.269563 1.93736 5.76519e-21)
(0.258253 2.9739 -1.52364e-19)
(0.279476 3.28965 2.76747e-19)
(0.261068 3.3763 1.51468e-19)
(0.203755 3.39815 -9.42002e-20)
(0.182307 3.40573 5.01944e-20)
(0.422043 0.469823 4.7407e-19)
(0.919175 0.936935 1.47369e-18)
(1.08869 1.13215 5.35429e-19)
(1.09301 1.193 0)
(1.048 1.19547 0)
(0.994329 1.16612 6.37153e-19)
(0.927511 1.13675 -3.88923e-19)
(0.851502 1.10705 -3.31316e-19)
(0.765097 1.06983 -1.26034e-20)
(0.661147 1.02908 1.04389e-19)
(0.553739 0.984244 -3.376e-19)
(0.452564 0.947025 0)
(0.385478 0.97315 0)
(0.337886 1.42187 -2.1864e-19)
(0.32212 2.56841 -2.96755e-19)
(0.355008 3.21414 0)
(0.375505 3.36545 -9.5606e-20)
(0.300679 3.41988 1.45162e-19)
(0.224286 3.45146 -2.4024e-19)
(0.195604 3.46871 1.65702e-19)
(0.417699 0.477362 -8.99663e-19)
(0.910812 0.954714 -7.0148e-19)
(1.07786 1.15476 0)
(1.08249 1.21633 0)
(1.0383 1.21813 0)
(0.984673 1.18847 0)
(0.917597 1.15958 4.14958e-19)
(0.841854 1.12991 -4.41776e-19)
(0.755172 1.09386 0)
(0.652472 1.05621 -8.96191e-20)
(0.544971 1.01453 5.6643e-19)
(0.449058 0.99245 2.73154e-20)
(0.393899 1.11442 4.17262e-20)
(0.372636 1.85233 3.18624e-19)
(0.379839 2.95203 -1.11693e-19)
(0.410884 3.32644 0)
(0.383886 3.43378 -8.85141e-21)
(0.294582 3.50606 8.0781e-20)
(0.234694 3.55233 2.4018e-19)
(0.203298 3.55416 -2.09687e-19)
(0.412947 0.485488 4.266e-19)
(0.901957 0.973455 -6.90853e-19)
(1.06672 1.17856 0)
(1.07157 1.2407 -1.69982e-19)
(1.02792 1.24165 6.45574e-19)
(0.974138 1.21158 0)
(0.906892 1.18296 0)
(0.83177 1.1537 8.31052e-19)
(0.745406 1.11918 1.0365e-20)
(0.643113 1.08306 -2.12823e-20)
(0.536762 1.04565 -2.46237e-19)
(0.461531 1.03876 1.65472e-19)
(0.429821 1.30412 0)
(0.418651 2.29798 -1.48374e-19)
(0.443035 3.18367 1.22132e-19)
(0.485418 3.42787 -1.3359e-20)
(0.463423 3.51147 0)
(0.394609 3.57548 -1.30497e-19)
(0.340233 3.59719 -5.82228e-19)
(0.251435 3.53259 -1.36478e-19)
(0.407885 0.49434 -8.28038e-19)
(0.892359 0.992843 9.84171e-19)
(1.05454 1.20272 7.35667e-19)
(1.05951 1.26575 -1.90018e-19)