/*--------------------------------*- C++ -*----------------------------------*\
  =========                 |
  \\      /  F ield         | OpenFOAM: The Open Source CFD Toolbox
   \\    /   O peration     | Website:  https://openfoam.org
    \\  /    A nd           | Version:  6
     \\/     M anipulation  |
\*---------------------------------------------------------------------------*/
FoamFile
{
    version     2.0;
    format      ascii;
    class       volScalarField;
    location    "103.3";
    object      p;
}
// * * * * * * * * * * * * * * * * * * * * * * * * * * * * * * * * * * * * * //

dimensions      [0 2 -2 0 0 0 0];

internalField   nonuniform List<scalar> 
8800
(
0.925571
0.876257
0.838294
0.810229
0.790073
0.775494
0.764907
0.757382
0.752519
0.750478
0.75188
0.756249
0.763063
0.772503
0.785251
0.80258
0.826463
0.859564
0.902504
0.955019
0.760058
0.766404
0.775556
0.779108
0.776504
0.770423
0.763492
0.757264
0.752481
0.749638
0.749439
0.752098
0.756765
0.762913
0.770027
0.777071
0.781957
0.781839
0.775169
0.766274
0.733559
0.739796
0.7443
0.748176
0.751131
0.75209
0.751015
0.748911
0.746956
0.746149
0.747217
0.749703
0.752614
0.754904
0.755439
0.753662
0.750305
0.746299
0.741522
0.737806
0.729236
0.732003
0.734614
0.736778
0.738524
0.740104
0.741222
0.741596
0.741511
0.741647
0.742494
0.743674
0.744446
0.74432
0.743363
0.742023
0.740365
0.738071
0.735666
0.734099
0.72415
0.725576
0.727421
0.72951
0.731233
0.73254
0.733656
0.734662
0.735505
0.736287
0.737048
0.737554
0.737615
0.737281
0.736636
0.735539
0.733898
0.732014
0.730667
0.729864
0.71912
0.720024
0.721277
0.722913
0.72462
0.726169
0.727477
0.72863
0.729736
0.730809
0.731657
0.732102
0.732158
0.731827
0.731054
0.729889
0.728547
0.727295
0.72648
0.725956
0.714162
0.714818
0.715786
0.717116
0.71858
0.720118
0.721631
0.723034
0.724348
0.725621
0.726648
0.727211
0.727287
0.726898
0.726154
0.725243
0.724276
0.723389
0.722817
0.722432
0.70927
0.709776
0.710569
0.711724
0.713045
0.714489
0.716033
0.717621
0.719196
0.720736
0.721985
0.722681
0.722833
0.722572
0.722057
0.721408
0.720704
0.720062
0.719644
0.719343
0.704389
0.704791
0.705459
0.706498
0.707753
0.709151
0.7107
0.712398
0.714206
0.716054
0.717587
0.718502
0.718871
0.718859
0.718601
0.718185
0.717697
0.717255
0.716949
0.716704
0.699434
0.699761
0.700344
0.701309
0.702525
0.703921
0.705518
0.707334
0.709363
0.711542
0.713444
0.714699
0.715386
0.715664
0.715666
0.715497
0.715218
0.714944
0.714724
0.714518
0.694313
0.694584
0.695109
0.696032
0.697241
0.698677
0.700367
0.702348
0.704639
0.707205
0.709568
0.711262
0.712331
0.712941
0.713229
0.713312
0.713247
0.713125
0.712974
0.712795
0.688932
0.68916
0.689648
0.690561
0.691804
0.693323
0.695151
0.697356
0.699985
0.70303
0.705956
0.708172
0.709691
0.710684
0.711295
0.711635
0.711799
0.711822
0.711728
0.711567
0.683192
0.683386
0.683857
0.68479
0.686108
0.687755
0.68978
0.69228
0.695337
0.698977
0.702583
0.705423
0.70747
0.708903
0.709885
0.710534
0.710926
0.711081
0.711036
0.710886
0.676982
0.677149
0.67762
0.678601
0.680035
0.681865
0.684154
0.687036
0.690628
0.694996
0.699426
0.703014
0.705686
0.707634
0.709043
0.710035
0.710677
0.710968
0.710964
0.710821
0.670171
0.670315
0.670801
0.67186
0.673456
0.675529
0.678164
0.681528
0.685784
0.69104
0.696464
0.700945
0.704362
0.706917
0.708813
0.7102
0.711127
0.711557
0.711592
0.71145
0.662608
0.662729
0.663244
0.66441
0.666219
0.668608
0.67168
0.675648
0.680721
0.687058
0.693679
0.699225
0.70352
0.706795
0.709275
0.711121
0.712365
0.712941
0.713009
0.712866
0.654094
0.654197
0.654747
0.656055
0.658139
0.660927
0.66455
0.669268
0.675347
0.682996
0.691051
0.697865
0.703197
0.707318
0.710499
0.712883
0.714485
0.715212
0.715311
0.715161
0.644341
0.644445
0.645063
0.646547
0.648986
0.652276
0.656588
0.662239
0.669556
0.678796
0.688566
0.696879
0.703435
0.708551
0.712556
0.715571
0.717576
0.718462
0.718586
0.718425
0.633049
0.633128
0.633836
0.635577
0.638461
0.64239
0.64757
0.654386
0.663229
0.674401
0.686213
0.696284
0.704273
0.710559
0.715512
0.719269
0.721718
0.722762
0.722904
0.722729
0.619795
0.619862
0.62068
0.622735
0.626186
0.630935
0.637222
0.645507
0.656239
0.669753
0.683987
0.696105
0.705744
0.713386
0.719446
0.724038
0.726962
0.728151
0.7283
0.728107
0.603967
0.604026
0.604997
0.607475
0.611675
0.617493
0.625214
0.635373
0.648462
0.664811
0.681894
0.696369
0.707886
0.717073
0.724381
0.7299
0.733307
0.734613
0.734751
0.734539
0.58472
0.584775
0.585972
0.589048
0.594266
0.60153
0.611156
0.623748
0.639798
0.659571
0.679961
0.697104
0.710728
0.721637
0.730312
0.736829
0.740677
0.742046
0.742154
0.741922
0.560807
0.560868
0.562421
0.566396
0.573085
0.582377
0.594618
0.610424
0.630204
0.654079
0.678253
0.698354
0.71428
0.727066
0.737208
0.744714
0.748899
0.750249
0.750302
0.750055
0.530275
0.530367
0.53254
0.53798
0.546977
0.559267
0.575213
0.595303
0.619751
0.648463
0.676875
0.700173
0.718556
0.733299
0.744973
0.75335
0.757681
0.758903
0.758883
0.758627
0.489817
0.49005
0.493506
0.501658
0.514566
0.531532
0.552779
0.578513
0.608671
0.642937
0.675983
0.702652
0.723551
0.740294
0.753437
0.762428
0.766624
0.767602
0.767499
0.767246
0.433121
0.434313
0.441241
0.455065
0.474828
0.499044
0.527653
0.560521
0.597381
0.637799
0.675743
0.705875
0.729279
0.747934
0.76235
0.771541
0.775252
0.775905
0.775731
0.775493
0.351041
0.359112
0.375105
0.399357
0.429385
0.463314
0.500872
0.541885
0.586116
0.633161
0.676324
0.710167
0.736286
0.756963
0.772297
0.781223
0.784233
0.784565
0.784356
0.784162
0.263413
0.281166
0.307162
0.34262
0.383476
0.427226
0.473697
0.5229
0.574708
0.628826
0.677853
0.716023
0.745404
0.768272
0.784261
0.792167
0.79417
0.794227
0.794056
0.793939
0.188095
0.209827
0.244169
0.289212
0.339644
0.392643
0.447778
0.504997
0.564149
0.624948
0.679355
0.72137
0.753552
0.77812
0.794065
0.80069
0.801962
0.801931
0.801804
0.801722
0.126082
0.150241
0.190315
0.242232
0.300128
0.360819
0.423559
0.488078
0.554031
0.621026
0.680345
0.72582
0.760392
0.786173
0.801859
0.807596
0.808513
0.808456
0.808352
0.808285
0.0744509
0.100088
0.144312
0.201554
0.265394
0.332369
0.401528
0.472424
0.544481
0.617123
0.680936
0.729532
0.766245
0.793097
0.808467
0.813523
0.814224
0.814147
0.814056
0.813992
0.0306121
0.0571187
0.104408
0.165949
0.234759
0.307064
0.381739
0.458217
0.535729
0.613493
0.681401
0.732827
0.771436
0.799118
0.814155
0.81871
0.819279
0.819187
0.819097
0.819031
-0.00751569
0.0195529
0.0692245
0.134323
0.207373
0.284316
0.363873
0.445359
0.527834
0.610292
0.681934
0.73587
0.77608
0.804369
0.819055
0.823247
0.823736
0.823634
0.823541
0.823469
-0.0414488
-0.0139584
0.0376619
0.105792
0.182521
0.263548
0.3475
0.43358
0.520669
0.607526
0.682612
0.738769
0.780288
0.80895
0.823256
0.827179
0.827631
0.827534
0.827444
0.827363
-0.0722505
-0.0443943
0.00886907
0.0796484
0.159629
0.244299
0.332241
0.422576
0.514038
0.605108
0.683467
0.741639
0.784213
0.813024
0.826896
0.8306
0.83105
0.830991
0.83092
0.830834
-0.100771
-0.0725455
-0.0178167
0.0553582
0.138236
0.226188
0.317781
0.412095
0.507743
0.602944
0.684527
0.74461
0.788056
0.816823
0.830202
0.833707
0.834183
0.834195
0.834167
0.83408
-0.127448
-0.0988955
-0.042833
0.0324913
0.117984
0.208916
0.303874
0.401927
0.501617
0.600955
0.685834
0.747825
0.792045
0.820631
0.833473
0.83678
0.837294
0.837398
0.83743
0.837349
-0.15281
-0.123855
-0.0665616
0.0107285
0.098593
0.192242
0.290319
0.3919
0.495515
0.599041
0.687412
0.751426
0.796398
0.824723
0.837002
0.8401
0.840639
0.840834
0.840933
0.840867
-0.177037
-0.14768
-0.0892346
-0.0101552
0.0798582
0.175996
0.276959
0.38187
0.489298
0.597099
0.689256
0.755529
0.801304
0.829305
0.840999
0.843856
0.844395
0.844661
0.844819
0.84477
-0.200323
-0.170551
-0.111033
-0.0303136
0.0616498
0.160054
0.26368
0.371716
0.482837
0.59499
0.691296
0.76022
0.806909
0.834535
0.845541
0.848114
0.848621
0.848926
0.849124
0.849093
-0.222812
-0.192582
-0.132061
-0.049841
0.04387
0.144335
0.250406
0.361359
0.476021
0.592563
0.693402
0.765529
0.813395
0.840504
0.850622
0.852808
0.853264
0.853582
0.853787
0.853766
-0.24462
-0.21389
-0.152374
-0.0687943
0.0264809
0.128792
0.237092
0.350739
0.46876
0.589659
0.695402
0.771411
0.820945
0.847435
0.856241
0.857754
0.858135
0.858496
0.858699
0.858665
-0.265657
-0.234457
-0.171996
-0.087217
0.00945333
0.113421
0.223716
0.339831
0.460994
0.586152
0.697078
0.777741
0.829724
0.855737
0.862627
0.862801
0.862919
0.863498
0.863881
0.863846
-0.285945
-0.254302
-0.190963
-0.105117
-0.00721095
0.0982221
0.210301
0.328627
0.452694
0.581923
0.698204
0.784287
0.839795
0.865952
0.870552
0.868402
0.867554
0.868576
0.869785
0.870009
-0.305572
-0.273424
-0.209294
-0.122501
-0.0234918
0.0832281
0.196875
0.317155
0.443848
0.576895
0.698538
0.790732
0.851016
0.878559
0.881368
0.876224
0.873314
0.874627
0.877621
0.879144
-0.324426
-0.291828
-0.226964
-0.139334
-0.0393675
0.0684844
0.18349
0.305463
0.434488
0.571031
0.697863
0.796677
0.863001
0.893555
0.896083
0.888601
0.882854
0.882271
0.885517
0.887531
-0.342609
-0.309552
-0.243999
-0.155671
-0.0548928
0.0539334
0.170074
0.293475
0.424517
0.564224
0.695951
0.801762
0.875389
0.910577
0.914787
0.90666
0.897888
0.890444
0.882793
0.886386
-0.360075
-0.32666
-0.260548
-0.171711
-0.0703635
0.0392554
0.156233
0.280738
0.413444
0.555926
0.692269
0.805399
0.888055
0.929627
0.936962
0.929822
0.917006
0.90139
0.878308
0.88186
-0.376718
-0.343156
-0.27647
-0.18728
-0.0855357
0.0247278
0.142133
0.267522
0.401476
0.54622
0.686545
0.806355
0.899346
0.948775
0.958313
0.950759
0.93383
0.901115
0.845644
0.822976
-0.392445
-0.360082
-0.291371
-0.201949
-0.099607
0.0108377
0.12805
0.254093
0.388873
0.535229
0.678667
0.80369
0.907212
0.965709
0.972354
0.958601
0.928763
0.868976
0.806542
0.769037
-0.434197
-0.376816
-0.304957
-0.216695
-0.113355
-0.00342814
0.114132
0.240309
0.375387
0.522508
0.667986
0.796296
0.907635
0.973993
0.974977
0.93963
0.873517
0.798154
0.72629
0.686556
-0.407387
-0.388423
-0.325537
-0.236648
-0.134735
-0.0249017
0.0921758
0.218103
0.352975
0.500008
0.64611
0.775691
0.882001
0.955797
0.921035
0.790394
0.686559
0.614466
0.545406
0.565355
-0.437062
-0.404971
-0.341197
-0.252715
-0.151149
-0.0413854
0.0760418
0.201553
0.335797
0.481769
0.626264
0.753063
0.848142
0.889205
0.816597
0.658611
0.537008
0.454921
0.367932
0.405664
-0.459679
-0.425302
-0.359833
-0.271287
-0.16975
-0.0599246
0.0575151
0.182421
0.315594
0.459625
0.600804
0.721622
0.804392
0.80727
0.6797
0.509843
0.370015
0.26908
0.169419
0.193369
-0.481479
-0.44615
-0.379391
-0.290223
-0.188601
-0.0788451
0.0381562
0.162228
0.294002
0.43546
0.571882
0.682928
0.747788
0.716425
0.538996
0.350418
0.182336
0.0424269
-0.0861705
-0.0815917
-0.502867
-0.467246
-0.399664
-0.309955
-0.208212
-0.0986605
0.0177146
0.140737
0.270713
0.408969
0.539273
0.639924
0.682987
0.599757
0.399694
0.193359
0.00095464
-0.156948
-0.363118
-0.443802
-0.524534
-0.489073
-0.421056
-0.331
-0.229141
-0.119789
-0.00402006
0.117846
0.245777
0.380341
0.503578
0.594538
0.608021
0.47387
0.271685
0.0554132
-0.140928
-0.304045
-0.427105
-0.54002
-0.54754
-0.512103
-0.443919
-0.35374
-0.251924
-0.142904
-0.0278825
0.0925813
0.218006
0.348098
0.463503
0.540486
0.524296
0.354006
0.151367
-0.0583013
-0.2378
-0.336447
-0.362306
-0.375329
-0.572029
-0.536634
-0.468379
-0.378262
-0.276707
-0.168233
-0.0542579
0.0644125
0.186755
0.311424
0.418149
0.47566
0.437834
0.238647
0.0385124
-0.150617
-0.286428
-0.324914
-0.333307
-0.333656
-0.598294
-0.562796
-0.494481
-0.404554
-0.303441
-0.195793
-0.0831872
0.0332597
0.151925
0.270299
0.367522
0.406941
0.332709
0.132567
-0.060593
-0.224934
-0.301131
-0.315212
-0.316215
-0.31609
-0.62634
-0.590625
-0.522252
-0.432624
-0.332156
-0.225591
-0.114699
-0.000916257
0.113515
0.224833
0.311415
0.33357
0.220309
0.0358019
-0.146194
-0.276295
-0.305513
-0.306131
-0.30667
-0.30627
-0.655921
-0.619968
-0.551604
-0.462405
-0.362781
-0.257591
-0.148788
-0.0381111
0.0715755
0.175151
0.250959
0.25261
0.121311
-0.0522912
-0.213011
-0.288174
-0.302892
-0.300846
-0.30053
-0.300135
-0.68649
-0.650482
-0.582283
-0.493677
-0.395142
-0.29165
-0.185319
-0.0782161
0.0263348
0.121779
0.186452
0.17139
0.031119
-0.129114
-0.257872
-0.296889
-0.296171
-0.296409
-0.29612
-0.295793
-0.717606
-0.681642
-0.613811
-0.526033
-0.428896
-0.327455
-0.224014
-0.120957
-0.021898
0.0657122
0.116917
0.0950566
-0.0492932
-0.189389
-0.284013
-0.292292
-0.29354
-0.293774
-0.293614
-0.293383
-0.748292
-0.712589
-0.645472
-0.558849
-0.463498
-0.364529
-0.264407
-0.165834
-0.072682
0.0078311
0.0477647
0.0186504
-0.11721
-0.231253
-0.288639
-0.298649
-0.293164
-0.29211
-0.291716
-0.29152
-0.776915
-0.742059
-0.676241
-0.591247
-0.498174
-0.402166
-0.305821
-0.212092
-0.125218
-0.0513828
-0.0162095
-0.0593408
-0.171832
-0.263008
-0.285943
-0.289574
-0.29043
-0.290018
-0.289827
-0.289709
-0.802232
-0.768562
-0.704734
-0.622035
-0.531869
-0.439421
-0.34737
-0.258788
-0.178239
-0.111371
-0.0784269
-0.126352
-0.213127
-0.281516
-0.302655
-0.29295
-0.289564
-0.288543
-0.288281
-0.288152
-0.821644
-0.790015
-0.729212
-0.649706
-0.563273
-0.475111
-0.387934
-0.304846
-0.230424
-0.170328
-0.14018
-0.178741
-0.240724
-0.285231
-0.290625
-0.290217
-0.288607
-0.28804
-0.28785
-0.28768
-0.833156
-0.804355
-0.747628
-0.672534
-0.59087
-0.507856
-0.426187
-0.349006
-0.280646
-0.225638
-0.196662
-0.222315
-0.257501
-0.284262
-0.283853
-0.28729
-0.28877
-0.28882
-0.288708
-0.288591
-0.834111
-0.809241
-0.75792
-0.688696
-0.613041
-0.536194
-0.460718
-0.389769
-0.327676
-0.276622
-0.243806
-0.261265
-0.271254
-0.287323
-0.289313
-0.289259
-0.289776
-0.289879
-0.289864
-0.289847
-0.822142
-0.802034
-0.757969
-0.696473
-0.628336
-0.558755
-0.490211
-0.425614
-0.369747
-0.32445
-0.279175
-0.297363
-0.283437
-0.291915
-0.293406
-0.291523
-0.290988
-0.291293
-0.291597
-0.291666
-0.795197
-0.780532
-0.745988
-0.694673
-0.635719
-0.57457
-0.513629
-0.455477
-0.405086
-0.367304
-0.319194
-0.312868
-0.301656
-0.300806
-0.296247
-0.296679
-0.296388
-0.296981
-0.297493
-0.297595
-0.756749
-0.747412
-0.723238
-0.683612
-0.635243
-0.583399
-0.530403
-0.478821
-0.433139
-0.400944
-0.369353
-0.341095
-0.314282
-0.317813
-0.325692
-0.318325
-0.312359
-0.311027
-0.311435
-0.311484
-0.713818
-0.708492
-0.694627
-0.666393
-0.629013
-0.586087
-0.540706
-0.495188
-0.453426
-0.422543
-0.3947
-0.368799
-0.338856
-0.320525
-0.301664
-0.304458
-0.323406
-0.335342
-0.338674
-0.338753
-0.676121
-0.672862
-0.666234
-0.648292
-0.619871
-0.584476
-0.545494
-0.504603
-0.464996
-0.432458
-0.40641
-0.390538
-0.378888
-0.388058
-0.408944
-0.436349
-0.438446
-0.41104
-0.396503
-0.39868
-0.648973
-0.647042
-0.643681
-0.633077
-0.611441
-0.581627
-0.546686
-0.508137
-0.468114
-0.431894
-0.404603
-0.39498
-0.424455
-0.483463
-0.551332
-0.598057
-0.606103
-0.572115
-0.524859
-0.509934
-0.629081
-0.6284
-0.62727
-0.622026
-0.606208
-0.580037
-0.546363
-0.50748
-0.464713
-0.421972
-0.390708
-0.361894
-0.350574
-0.373055
-0.414704
-0.424284
-0.427678
-0.417921
-0.394604
-0.381181
-0.617465
-0.617241
-0.616628
-0.614218
-0.603491
-0.579459
-0.545446
-0.504496
-0.45726
-0.404745
-0.360975
-0.304649
-0.233881
-0.182092
-0.16954
-0.172357
-0.148765
-0.110611
-0.0746621
-0.0568623
-0.609459
-0.609311
-0.6089
-0.608207
-0.601673
-0.580048
-0.545019
-0.500651
-0.447547
-0.38372
-0.318421
-0.234135
-0.104723
0.0496508
0.183601
0.285212
0.373615
0.443252
0.493927
0.515714
-0.604285
-0.604238
-0.604113
-0.603942
-0.600065
-0.581874
-0.545866
-0.497158
-0.438189
-0.363612
-0.279003
-0.182135
-0.000149155
0.256952
0.537148
0.78803
0.968485
1.07159
1.11567
1.12898
-0.600135
-0.600128
-0.600051
-0.599936
-0.598547
-0.584327
-0.548069
-0.495688
-0.431191
-0.348814
-0.25246
-0.148006
0.0520179
0.352622
0.684562
0.993279
1.23029
1.35465
1.39416
1.40157
-0.596679
-0.596698
-0.596612
-0.596402
-0.596232
-0.586312
-0.551664
-0.497355
-0.42852
-0.34244
-0.241435
-0.13567
0.0438044
0.323792
0.631369
0.916271
1.13558
1.25157
1.29239
1.30203
-0.594032
-0.594082
-0.594147
-0.59424
-0.594747
-0.587751
-0.556528
-0.501636
-0.431331
-0.344942
-0.245616
-0.147688
0.00182911
0.245723
0.501118
0.726383
0.902346
1.00234
1.04267
1.05405
-0.591273
-0.591423
-0.591735
-0.592276
-0.59266
-0.588825
-0.561427
-0.50842
-0.439534
-0.35503
-0.262757
-0.176162
-0.0618358
0.13978
0.351147
0.526768
0.664666
0.749756
0.785189
0.794452
-0.588962
-0.589094
-0.589079
-0.588794
-0.588368
-0.586766
-0.56481
-0.516986
-0.451645
-0.371575
-0.287981
-0.214226
-0.130352
0.0260999
0.197777
0.337766
0.446732
0.514138
0.540942
0.546741
-0.589172
-0.589109
-0.588453
-0.586592
-0.583935
-0.582388
-0.567873
-0.527579
-0.466446
-0.391286
-0.316871
-0.254523
-0.191932
-0.0705873
0.0617691
0.166814
0.248571
0.298918
0.317678
0.320779
-0.593188
-0.593059
-0.592409
-0.590595
-0.587502
-0.58555
-0.5774
-0.541521
-0.48184
-0.411932
-0.347687
-0.293778
-0.248332
-0.156928
-0.0544164
0.0237443
0.0817946
0.116301
0.128129
0.129652
-0.599587
-0.599955
-0.601252
-0.604603
-0.609201
-0.611029
-0.600717
-0.558789
-0.496269
-0.433486
-0.376472
-0.328129
-0.289847
-0.223719
-0.149663
-0.0942211
-0.0532424
-0.0305163
-0.0225824
-0.0217574
-0.603189
-0.604374
-0.60874
-0.620916
-0.639354
-0.646826
-0.628686
-0.573
-0.51002
-0.455168
-0.40227
-0.357171
-0.32671
-0.274874
-0.22042
-0.18306
-0.157217
-0.143434
-0.138795
-0.138791
-0.603329
-0.604464
-0.60882
-0.620937
-0.64309
-0.656798
-0.627402
-0.57186
-0.521708
-0.474288
-0.422406
-0.381694
-0.356944
-0.31876
-0.278139
-0.251177
-0.234036
-0.225302
-0.222643
-0.222721
-0.60864
-0.609231
-0.610409
-0.605517
-0.588701
-0.574807
-0.570062
-0.550586
-0.527258
-0.485768
-0.436355
-0.401877
-0.380102
-0.347001
-0.315014
-0.295382
-0.282472
-0.276502
-0.274418
-0.274387
-0.621335
-0.6212
-0.61884
-0.595043
-0.537994
-0.491181
-0.502051
-0.530325
-0.529775
-0.492133
-0.447107
-0.416952
-0.397512
-0.366387
-0.336347
-0.317676
-0.306014
-0.299876
-0.297303
-0.297336
-0.642279
-0.640208
-0.635641
-0.614284
-0.565945
-0.522408
-0.528727
-0.561123
-0.551374
-0.501535
-0.454897
-0.428351
-0.406105
-0.376542
-0.346862
-0.325686
-0.310353
-0.301764
-0.298668
-0.298859
-0.698959
-0.698173
-0.713335
-0.736486
-0.743911
-0.720159
-0.692282
-0.654832
-0.590448
-0.512308
-0.463959
-0.433739
-0.409058
-0.377767
-0.3454
-0.320026
-0.300889
-0.290156
-0.286846
-0.287391
-0.814631
-0.825433
-0.862144
-0.907612
-0.926431
-0.908078
-0.854439
-0.75762
-0.62854
-0.522525
-0.467581
-0.428375
-0.404183
-0.371729
-0.335513
-0.306749
-0.285595
-0.27419
-0.270775
-0.271487
-0.913706
-0.928772
-0.962365
-0.994773
-1.01083
-0.993168
-0.926194
-0.79044
-0.631353
-0.520051
-0.452058
-0.409632
-0.387089
-0.35346
-0.3165
-0.287761
-0.267051
-0.256043
-0.252713
-0.253433
-0.916518
-0.928025
-0.95048
-0.974297
-0.988166
-0.973715
-0.903534
-0.745037
-0.590654
-0.485618
-0.411683
-0.374928
-0.355803
-0.320525
-0.285329
-0.259892
-0.24243
-0.233368
-0.230713
-0.231371
-0.812762
-0.822238
-0.840378
-0.861135
-0.875275
-0.863013
-0.794328
-0.649235
-0.521353
-0.418588
-0.351011
-0.325512
-0.306027
-0.273161
-0.243969
-0.223607
-0.209741
-0.202772
-0.200771
-0.201332
-0.623421
-0.633647
-0.653414
-0.677618
-0.697045
-0.68806
-0.619282
-0.513051
-0.414824
-0.327614
-0.281479
-0.260081
-0.241076
-0.214768
-0.192467
-0.176619
-0.16582
-0.160668
-0.159465
-0.16006
-0.38361
-0.393942
-0.414623
-0.443776
-0.46804
-0.461953
-0.412116
-0.343789
-0.276495
-0.226346
-0.199364
-0.180378
-0.169435
-0.150481
-0.133399
-0.121397
-0.113129
-0.109345
-0.108919
-0.109682
-0.137903
-0.149475
-0.174625
-0.205521
-0.229365
-0.231296
-0.208353
-0.177191
-0.144983
-0.12318
-0.10644
-0.0974841
-0.0950036
-0.0820194
-0.0724026
-0.0652134
-0.058688
-0.0557448
-0.0562296
-0.0572583
0.016546
0.00712582
-0.00901986
-0.0249079
-0.036234
-0.0415228
-0.0433527
-0.0394659
-0.0324813
-0.0279869
-0.0232394
-0.0199598
-0.0184434
-0.0168941
-0.0148153
-0.016063
-0.0159274
-0.0153652
-0.0134981
-0.0128518
0.0421096
0.22505
0.391961
0.53224
0.642497
0.72747
0.796916
0.85311
0.866351
0.863639
0.318523
0.434985
0.543719
0.63692
0.714401
0.777606
0.827098
0.860511
0.878457
0.895506
0.505249
0.582335
0.658401
0.724781
0.780972
0.827408
0.864069
0.892276
0.913544
0.932852
0.643508
0.698433
0.753534
0.802859
0.845364
0.88157
0.91208
0.937747
0.957575
0.976489
0.755941
0.79737
0.838381
0.876831
0.911245
0.941754
0.968502
0.991287
1.00903
1.02714
0.849999
0.884536
0.91849
0.951087
0.98121
1.00856
1.0328
1.05325
1.0688
1.0863
0.936373
0.967625
0.999111
1.02961
1.05802
1.0839
1.10664
1.12531
1.13905
1.15605
1.02208
1.05424
1.08619
1.117
1.14543
1.17091
1.19279
1.21013
1.22237
1.23888
1.11573
1.152
1.18652
1.21873
1.24767
1.2728
1.29374
1.3099
1.3214
1.33751
1.22847
1.26919
1.306
1.33867
1.36695
1.39079
1.41029
1.42547
1.43729
1.45333
1.36988
1.41071
1.44583
1.47524
1.50032
1.52184
1.54027
1.5557
1.56876
1.58469
1.54113
1.57304
1.59998
1.62231
1.64235
1.66103
1.67873
1.69547
1.71035
1.72606
1.72714
1.74432
1.76139
1.77806
1.79414
1.80886
1.82274
1.8372
1.85242
1.86972
1.91051
1.9204
1.93356
1.94453
1.95394
1.96359
1.97418
1.98434
1.99362
2.01929
2.12828
2.12258
2.10962
2.09537
2.08906
2.09475
2.11289
2.14141
2.17517
2.2115
2.43111
2.29516
2.21564
2.17308
2.15574
2.15974
2.18716
2.24502
2.35267
2.53108
0.829262
0.822961
0.815234
0.804125
0.790561
0.777924
0.767544
0.759557
0.753875
0.750593
0.750307
0.753202
0.758485
0.76588
0.775457
0.787306
0.800881
0.81382
0.822816
0.83036
0.738314
0.744235
0.752311
0.75845
0.761528
0.761029
0.757961
0.753993
0.750443
0.748212
0.748147
0.750469
0.754278
0.758765
0.762896
0.765163
0.764105
0.75948
0.752432
0.744602
0.731535
0.733908
0.73718
0.739961
0.742423
0.744628
0.745829
0.745713
0.744819
0.744072
0.744364
0.745857
0.747701
0.748977
0.748938
0.747497
0.745358
0.743011
0.740039
0.737025
0.726705
0.727794
0.729716
0.732064
0.73395
0.735367
0.736611
0.73764
0.73829
0.738738
0.739382
0.740216
0.740756
0.740694
0.740109
0.739219
0.737912
0.73596
0.733865
0.732392
0.721627
0.722261
0.723396
0.725166
0.727027
0.728644
0.729926
0.731032
0.732073
0.733055
0.733948
0.734576
0.734801
0.734661
0.734177
0.733243
0.731846
0.730258
0.728936
0.728138
0.716634
0.717072
0.717868
0.719187
0.72073
0.722321
0.723837
0.725184
0.726409
0.727595
0.728676
0.729407
0.729691
0.729539
0.728939
0.72799
0.726874
0.725759
0.724873
0.724343
0.711713
0.71204
0.712659
0.713747
0.715068
0.716502
0.718026
0.719561
0.721037
0.722457
0.723757
0.724659
0.725015
0.724872
0.724355
0.723634
0.722837
0.722018
0.721377
0.720988
0.706837
0.70709
0.707591
0.708523
0.709727
0.711076
0.712553
0.714154
0.715834
0.717536
0.719116
0.720225
0.720726
0.720753
0.720472
0.720005
0.719432
0.718849
0.718392
0.718096
0.70193
0.702131
0.70255
0.703375
0.704507
0.705818
0.707292
0.708952
0.710794
0.712771
0.714684
0.716097
0.716871
0.717174
0.717159
0.716938
0.716588
0.716209
0.715895
0.715663
0.696905
0.697065
0.697426
0.698182
0.699275
0.700578
0.702095
0.703858
0.705884
0.708154
0.710462
0.712289
0.713435
0.714069
0.714342
0.714378
0.714263
0.714072
0.713877
0.713692
0.691666
0.691795
0.692115
0.692831
0.693915
0.695255
0.696856
0.698771
0.701038
0.703668
0.706459
0.708795
0.710389
0.711407
0.712009
0.712326
0.712446
0.712441
0.712352
0.712203
0.686119
0.686222
0.686515
0.687216
0.688328
0.689749
0.691481
0.693604
0.696188
0.699272
0.702654
0.705603
0.707725
0.709189
0.710167
0.710792
0.711177
0.711357
0.711358
0.711236
0.680158
0.680239
0.680517
0.681228
0.682404
0.683949
0.685869
0.688271
0.691258
0.694908
0.699012
0.702697
0.705447
0.707434
0.708844
0.70984
0.710503
0.710868
0.710953
0.710851
0.673665
0.673726
0.673999
0.674743
0.676019
0.677736
0.67991
0.682674
0.68617
0.690515
0.695496
0.700067
0.703566
0.706171
0.708081
0.709489
0.710475
0.711043
0.711208
0.711122
0.6665
0.666538
0.666814
0.667614
0.669029
0.670975
0.673479
0.676703
0.680831
0.68603
0.692073
0.697706
0.702096
0.705432
0.707936
0.70982
0.711176
0.711964
0.712209
0.712134
0.65849
0.658508
0.658788
0.659667
0.661265
0.663504
0.666427
0.670227
0.675139
0.681382
0.688708
0.695611
0.701056
0.705254
0.708465
0.710923
0.7127
0.713726
0.71405
0.713982
0.649379
0.649387
0.649695
0.650678
0.652514
0.655125
0.658573
0.663093
0.668974
0.676493
0.685365
0.69378
0.700474
0.705688
0.70973
0.712872
0.715135
0.716422
0.716822
0.716757
0.638902
0.638883
0.639231
0.640367
0.642503
0.645586
0.649697
0.655117
0.662199
0.671278
0.68201
0.692215
0.70038
0.706789
0.711812
0.715743
0.718568
0.720135
0.720608
0.720541
0.626678
0.626639
0.627039
0.628363
0.63088
0.634571
0.639525
0.64608
0.654658
0.665646
0.678613
0.690924
0.700801
0.708601
0.714774
0.719613
0.723072
0.72493
0.725465
0.725388
0.612197
0.612136
0.612616
0.614194
0.617202
0.621678
0.627718
0.635722
0.646178
0.659511
0.675149
0.689927
0.701767
0.711159
0.718665
0.724535
0.728683
0.730824
0.731402
0.731309
0.594739
0.594656
0.595266
0.597201
0.600865
0.606384
0.613857
0.623744
0.636586
0.652807
0.67162
0.689243
0.703315
0.714505
0.723483
0.730511
0.735383
0.73777
0.738361
0.738243
0.573272
0.573172
0.573992
0.57645
0.58104
0.588006
0.597431
0.609826
0.625737
0.645514
0.668063
0.688914
0.705471
0.718643
0.729235
0.73751
0.743076
0.745629
0.746187
0.746038
0.546231
0.546133
0.547308
0.550576
0.556581
0.56566
0.577867
0.593685
0.613564
0.637691
0.664571
0.689005
0.708262
0.723568
0.73588
0.745423
0.751561
0.754146
0.754618
0.754435
0.511077
0.511035
0.512854
0.517529
0.525914
0.53834
0.554655
0.575189
0.600159
0.629506
0.661298
0.689625
0.711724
0.729252
0.743329
0.754053
0.760522
0.762954
0.763286
0.763071
0.4633
0.463495
0.466744
0.474394
0.487228
0.505178
0.527621
0.554539
0.585847
0.621262
0.658457
0.690899
0.71591
0.735653
0.751453
0.763124
0.769528
0.771588
0.771748
0.771515
0.394447
0.395952
0.403891
0.418428
0.439505
0.466278
0.497379
0.532425
0.571202
0.613363
0.65628
0.692925
0.720847
0.742692
0.759965
0.772133
0.778005
0.779508
0.77951
0.77929
0.312175
0.315083
0.330577
0.355759
0.388162
0.425321
0.465755
0.509322
0.555931
0.605332
0.65465
0.69626
0.727809
0.75233
0.771085
0.783156
0.788204
0.789221
0.789171
0.789041
0.22775
0.235318
0.258638
0.294442
0.337762
0.385094
0.434849
0.486956
0.541398
0.597982
0.653626
0.7001
0.735136
0.762272
0.782369
0.793815
0.797521
0.797982
0.797898
0.797823
0.158464
0.168215
0.196478
0.239795
0.291647
0.347557
0.405682
0.465759
0.52762
0.590979
0.652474
0.703349
0.741454
0.770629
0.79135
0.801957
0.804866
0.805149
0.805077
0.805029
0.10152
0.112037
0.14407
0.192939
0.251219
0.313946
0.379051
0.446071
0.514603
0.584168
0.651035
0.705902
0.746741
0.777661
0.798804
0.808712
0.811091
0.811272
0.811211
0.811179
0.0536999
0.064588
0.0992186
0.152397
0.215896
0.284247
0.355205
0.428189
0.502605
0.57776
0.649526
0.70803
0.751347
0.783834
0.805218
0.814525
0.816546
0.816664
0.816605
0.816578
0.012578
0.0236267
0.060185
0.116806
0.184645
0.257802
0.333839
0.412062
0.491735
0.571954
0.648187
0.709985
0.755491
0.789249
0.810764
0.81957
0.821357
0.821434
0.82137
0.821342
-0.0235648
-0.0124656
0.0255929
0.0850582
0.156586
0.23391
0.314445
0.397391
0.481873
0.566773
0.647131
0.711898
0.759283
0.794048
0.815548
0.823928
0.825563
0.82562
0.825556
0.825524
-0.0559935
-0.0448837
-0.00564114
0.0562692
0.131003
0.211998
0.296555
0.38382
0.472777
0.562105
0.646357
0.71385
0.762848
0.798346
0.819685
0.82768
0.82922
0.829285
0.829239
0.829209
-0.0857433
-0.0746058
-0.0343211
0.0297544
0.10734
0.191601
0.279791
0.371032
0.464206
0.557795
0.645832
0.71592
0.766341
0.80234
0.823371
0.830987
0.832462
0.83257
0.832572
0.832556
-0.113401
-0.102225
-0.061015
0.00500791
0.0851431
0.172344
0.263847
0.358775
0.455948
0.553701
0.64553
0.7182
0.769941
0.806271
0.826879
0.834105
0.835528
0.835707
0.835783
0.835796
-0.139463
-0.128239
-0.0861653
-0.0183697
0.0640682
0.153936
0.248477
0.346841
0.447834
0.549693
0.645421
0.720783
0.773843
0.810403
0.83051
0.837336
0.838702
0.838959
0.839121
0.839174
-0.164332
-0.152972
-0.110094
-0.0406622
0.0438655
0.136151
0.233491
0.335068
0.439709
0.545649
0.645455
0.723745
0.778217
0.814967
0.834522
0.840935
0.842221
0.84254
0.84278
0.842875
-0.188158
-0.176642
-0.132999
-0.0620733
0.0243521
0.118844
0.218751
0.323321
0.431443
0.541426
0.645536
0.727128
0.783201
0.820135
0.839081
0.845032
0.846208
0.84656
0.846857
0.846988
-0.211153
-0.199428
-0.155054
-0.0827281
0.00541313
0.1019
0.204155
0.311502
0.422928
0.536898
0.645525
0.730905
0.78893
0.826063
0.844255
0.849642
0.850667
0.851023
0.851341
0.851495
-0.23333
-0.221416
-0.176342
-0.102705
-0.0130211
0.0852589
0.189651
0.299553
0.414081
0.53193
0.645257
0.734976
0.795509
0.832927
0.850096
0.854669
0.855466
0.85583
0.856145
0.85629
-0.254813
-0.242667
-0.196879
-0.122044
-0.0309945
0.0688868
0.175204
0.287439
0.404847
0.526415
0.644546
0.739178
0.802976
0.841034
0.856833
0.860024
0.860333
0.860753
0.861154
0.861303
-0.275482
-0.263184
-0.216695
-0.140783
-0.048518
0.052796
0.160813
0.27515
0.395201
0.520284
0.643211
0.743284
0.811285
0.850704
0.865018
0.865984
0.865123
0.865539
0.866414
0.866827
-0.295499
-0.282974
-0.235806
-0.158943
-0.0656054
0.0369755
0.146513
0.262697
0.385136
0.513498
0.64109
0.747013
0.820234
0.862171
0.875505
0.873732
0.870572
0.870467
0.872441
0.873909
-0.314757
-0.302003
-0.254234
-0.176511
-0.0822123
0.0214695
0.132338
0.250143
0.374684
0.506012
0.638051
0.750049
0.829475
0.875386
0.889096
0.885099
0.87898
0.877304
0.880291
0.884034
-0.33334
-0.320363
-0.271953
-0.193457
-0.0983328
0.00631267
0.118342
0.237525
0.363891
0.497869
0.634006
0.752052
0.838525
0.889856
0.905713
0.901174
0.892697
0.887593
0.885219
0.880491
-0.351175
-0.338038
-0.289056
-0.209958
-0.114193
-0.00877055
0.104203
0.224466
0.35236
0.488649
0.628571
0.752664
0.847282
0.905765
0.925554
0.92246
0.91279
0.901349
0.888729
0.889027
-0.368259
-0.355124
-0.30557
-0.225972
-0.129796
-0.0237605
0.0899323
0.21092
0.340015
0.478156
0.62142
0.751123
0.854584
0.922079
0.946626
0.945793
0.934087
0.919922
0.883003
0.845883
-0.384414
-0.371494
-0.321485
-0.241379
-0.14516
-0.0386798
0.0755035
0.196992
0.326877
0.466345
0.612295
0.746737
0.858603
0.936948
0.966258
0.963528