/*--------------------------------*- C++ -*----------------------------------*\
  =========                 |
  \\      /  F ield         | OpenFOAM: The Open Source CFD Toolbox
   \\    /   O peration     | Website:  https://openfoam.org
    \\  /    A nd           | Version:  6
     \\/     M anipulation  |
\*---------------------------------------------------------------------------*/
FoamFile
{
    version     2.0;
    format      ascii;
    class       volVectorField;
    location    "43";
    object      U;
}
// * * * * * * * * * * * * * * * * * * * * * * * * * * * * * * * * * * * * * //

dimensions      [0 1 -1 0 0 0 0];

internalField   nonuniform List<vector> 
8800
(
(0.987188 -0.0766663 0)
(1.0019 -0.0551908 0)
(0.999746 -0.0285488 0)
(1.00004 -0.0151412 0)
(1.00007 -0.00853794 0)
(1.00006 -0.00503886 0)
(1.00004 -0.00300555 0)
(1.00002 -0.00171686 0)
(0.999996 -0.000817031 0)
(1.00005 -0.00010402 0)
(0.999986 0.000622644 0)
(0.999996 0.00138302 0)
(1.00001 0.00240546 0)
(1.00002 0.00398684 0)
(1.00003 0.00662773 0)
(1 0.0113675 0)
(0.999891 0.0208115 0)
(0.999146 0.0386692 0)
(1.00709 0.072456 0)
(0.771212 0.0366606 0)
(0.363048 -0.0160196 0)
(1.04329 -0.0768285 0)
(1.0846 -0.0704691 0)
(1.04521 -0.0535694 0)
(1.02327 -0.0389213 0)
(1.01196 -0.0262449 0)
(1.00636 -0.016899 0)
(1.00356 -0.0103886 0)
(1.00213 -0.00574214 0)
(1.00145 -0.00210089 0)
(1.00131 0.00120734 0)
(1.00168 0.00458276 0)
(1.00265 0.00851775 0)
(1.00463 0.0138708 0)
(1.00858 0.0216012 0)
(1.01655 0.0325874 0)
(1.03246 0.0465084 0)
(1.06263 0.0616327 0)
(1.09188 0.0760814 0)
(0.838699 0.0565537 0)
(0.216783 -0.00243248 0)
(1.07585 -0.0501695 0)
(1.09986 -0.0483609 0)
(1.06461 -0.0405237 0)
(1.03996 -0.0336741 0)
(1.02381 -0.0261686 0)
(1.01404 -0.0186149 0)
(1.00852 -0.0118165 0)
(1.00557 -0.005963 0)
(1.00432 -0.000561287 0)
(1.00468 0.00467836 0)
(1.00661 0.010068 0)
(1.0106 0.0161717 0)
(1.01792 0.0232261 0)
(1.03053 0.0307214 0)
(1.05062 0.0377681 0)
(1.08033 0.044461 0)
(1.10627 0.0512914 0)
(0.942613 0.0415903 0)
(0.216225 0.00245845 0)
(0.175069 -0.000819744 0)
(1.01756 -0.0355343 0)
(1.10514 -0.04146 0)
(1.07819 -0.0361579 0)
(1.05335 -0.0302328 0)
(1.03606 -0.0246785 0)
(1.02388 -0.0189914 0)
(1.0158 -0.0129434 0)
(1.01097 -0.00677951 0)
(1.0088 -0.000470746 0)
(1.0094 0.00576721 0)
(1.01267 0.011764 0)
(1.01887 0.0176208 0)
(1.02877 0.0232321 0)
(1.04324 0.0285712 0)
(1.06377 0.0340853 0)
(1.09358 0.0400926 0)
(1.09348 0.0418827 0)
(0.827365 0.0228785 0)
(0.174128 0.000849037 0)
(0.153819 -0.000613909 0)
(0.955907 -0.0255204 0)
(1.10332 -0.0352364 0)
(1.08755 -0.0327891 0)
(1.06154 -0.0281638 0)
(1.04391 -0.0231805 0)
(1.03149 -0.0179788 0)
(1.02269 -0.0124783 0)
(1.01692 -0.00657227 0)
(1.01412 -0.000130175 0)
(1.01483 0.00631921 0)
(1.01884 0.0122028 0)
(1.02584 0.0175323 0)
(1.03614 0.0225059 0)
(1.05074 0.0273033 0)
(1.07199 0.0318676 0)
(1.10016 0.0358254 0)
(1.06827 0.0339211 0)
(0.739945 0.0142676 0)
(0.152405 0.000646992 0)
(0.139389 -0.000470542 0)
(0.898821 -0.019151 0)
(1.09553 -0.0302135 0)
(1.09553 -0.0293551 0)
(1.06899 -0.0256461 0)
(1.05054 -0.0215438 0)
(1.03766 -0.016833 0)
(1.0286 -0.0116154 0)
(1.02255 -0.00592355 0)
(1.0195 0.000371668 0)
(1.02017 0.00667249 0)
(1.0243 0.0123043 0)
(1.03143 0.0172898 0)
(1.04198 0.021794 0)
(1.05716 0.0258086 0)
(1.07937 0.0293306 0)
(1.10245 0.0320043 0)
(1.03636 0.0279694 0)
(0.673631 0.0101516 0)
(0.1374 0.000508481 0)
(0.128783 -0.000365699 0)
(0.849 -0.0148017 0)
(1.08299 -0.0261162 0)
(1.10112 -0.0264677 0)
(1.07576 -0.0232319 0)
(1.05677 -0.0196508 0)
(1.04344 -0.0154678 0)
(1.03405 -0.0105922 0)
(1.02777 -0.00511473 0)
(1.02454 0.000976637 0)
(1.02511 0.0070409 0)
(1.02922 0.0123977 0)
(1.03647 0.0170053 0)
(1.04731 0.020949 0)
(1.06291 0.0243048 0)
(1.08559 0.027297 0)
(1.10168 0.0291005 0)
(1.00171 0.023409 0)
(0.622119 0.00777257 0)
(0.126094 0.000410326 0)
(0.120668 -0.000285342 0)
(0.806598 -0.0116533 0)
(1.06751 -0.0225291 0)
(1.10449 -0.0238653 0)
(1.08188 -0.0210515 0)
(1.0625 -0.017689 0)
(1.04892 -0.013832 0)
(1.03924 -0.00934701 0)
(1.03269 -0.00417433 0)
(1.02923 0.00170434 0)
(1.02967 0.0075408 0)
(1.03376 0.0125428 0)
(1.04111 0.0166517 0)
(1.05206 0.020063 0)
(1.06788 0.0230103 0)
(1.09089 0.0257376 0)
(1.09803 0.0266737 0)
(0.966817 0.0198081 0)
(0.580878 0.00621814 0)
(0.117129 0.000338595 0)
(0.114357 -0.000222656 0)
(0.770837 -0.00930044 0)
(1.05051 -0.0193831 0)
(1.10675 -0.0214845 0)
(1.08763 -0.0190452 0)
(1.06784 -0.0158396 0)
(1.054 -0.0121604 0)
(1.04415 -0.00788634 0)
(1.03738 -0.00297485 0)
(1.03367 0.00259442 0)
(1.03392 0.00807397 0)
(1.03793 0.0126886 0)
(1.04522 0.0164085 0)
(1.05621 0.0194618 0)
(1.07228 0.0220824 0)
(1.09501 0.024488 0)
(1.09167 0.0246321 0)
(0.933009 0.0170029 0)
(0.546915 0.0051461 0)
(0.109784 0.000286332 0)
(0.109416 -0.000171909 0)
(0.740793 -0.00746934 0)
(1.03302 -0.0165762 0)
(1.10796 -0.0192257 0)
(1.09302 -0.0171445 0)
(1.07298 -0.0140623 0)
(1.05891 -0.0104795 0)
(1.04887 -0.0063472 0)
(1.04188 -0.00164978 0)
(1.03793 0.00365483 0)
(1.03794 0.00881236 0)
(1.04176 0.0130452 0)
(1.04896 0.0163959 0)
(1.05994 0.0191325 0)
(1.07617 0.0214644 0)
(1.09784 0.0234807 0)
(1.08295 0.0228883 0)
(0.900893 0.0148267 0)
(0.518225 0.00438338 0)
(0.103586 0.000248692 0)
(0.105563 -0.000129981 0)
(0.715657 -0.00599101 0)
(1.01592 -0.0140584 0)
(1.10835 -0.0170144 0)
(1.09829 -0.0151835 0)
(1.07799 -0.0121099 0)
(1.06362 -0.00862606 0)
(1.05338 -0.00464257 0)
(1.04618 -0.000110959 0)
(1.04196 0.00494263 0)
(1.04165 0.00976798 0)
(1.0452 0.013638 0)
(1.05222 0.0166148 0)
(1.06321 0.0189782 0)
(1.07969 0.0210332 0)
(1.09943 0.0227152 0)
(1.07235 0.0214508 0)
(0.870652 0.0131753 0)
(0.493392 0.00384339 0)
(0.0982054 0.000223129 0)
(0.102609 -9.38409e-05 0)
(0.694795 -0.00474889 0)
(0.999788 -0.0117573 0)
(1.108 -0.0148897 0)
(1.1034 -0.0133223 0)
(1.08297 -0.0102622 0)
(1.06829 -0.00674221 0)
(1.05782 -0.00275411 0)
(1.05036 0.00166922 0)
(1.04579 0.00648743 0)
(1.04511 0.0109696 0)
(1.04835 0.0144725 0)
(1.05517 0.0171248 0)
(1.06611 0.0192214 0)
(1.08273 0.0210151 0)
(1.10007 0.0222445 0)
(1.06014 0.0203192 0)
(0.842169 0.0119385 0)
(0.471379 0.0034652 0)
(0.0933872 0.000206636 0)
(0.100438 -6.01302e-05 0)
(0.677764 -0.00364908 0)
(0.985114 -0.00958196 0)
(1.10708 -0.0126436 0)
(1.10816 -0.0112135 0)
(1.08797 -0.00814523 0)
(1.07298 -0.00462235 0)
(1.06218 -0.000661456 0)
(1.05434 0.00368775 0)
(1.04933 0.008364 0)
(1.04819 0.012595 0)
(1.05107 0.0157519 0)
(1.05769 0.0180304 0)
(1.06861 0.0197529 0)
(1.08528 0.0212226 0)
(1.09969 0.0220949 0)
(1.04658 0.0194542 0)
(0.815232 0.0110458 0)
(0.4514 0.0032117 0)
(0.0889438 0.00019745 0)
(0.0989863 -2.72428e-05 0)
(0.66426 -0.00262252 0)
(0.97227 -0.00747283 0)
(1.10603 -0.0103082 0)
(1.11289 -0.00892557 0)
(1.09303 -0.00577961 0)
(1.07764 -0.00218524 0)
(1.06649 0.00180953 0)
(1.05825 0.00613351 0)
(1.05271 0.0106379 0)
(1.05101 0.0145521 0)
(1.05342 0.0173345 0)
(1.05972 0.0192005 0)
(1.07059 0.0205252 0)
(1.08737 0.0217373 0)
(1.09823 0.022215 0)
(1.03185 0.0188991 0)
(0.78951 0.0104447 0)
(0.432822 0.0030599 0)
(0.084725 0.000194655 0)
(0.0982369 6.62985e-06 0)
(0.654145 -0.00161619 0)
(0.961543 -0.00534673 0)
(1.10505 -0.00778974 0)
(1.11761 -0.00644184 0)
(1.09827 -0.00323161 0)
(1.08247 0.00054241 0)
(1.07089 0.00469261 0)
(1.06211 0.00905091 0)
(1.05588 0.0134177 0)
(1.05351 0.0170306 0)
(1.0554 0.0194071 0)
(1.06138 0.0208945 0)
(1.07215 0.0218623 0)
(1.08889 0.0226913 0)
(1.09563 0.0226609 0)
(1.01596 0.0186017 0)
(0.764664 0.0100826 0)
(0.415151 0.00298825 0)
(0.0806022 0.000196981 0)
(0.0982184 3.88537e-05 0)
(0.647424 -0.000589113 0)
(0.953297 -0.00313766 0)
(1.10449 -0.00498564 0)
(1.1224 -0.00350482 0)
(1.10374 -0.000161218 0)
(1.08753 0.00379911 0)
(1.07542 0.00808562 0)
(1.066 0.0124994 0)
(1.05902 0.0168023 0)
(1.05579 0.0201358 0)
(1.05699 0.0220841 0)
(1.06254 0.0230557 0)
(1.07317 0.0235421 0)
(1.08961 0.0239692 0)
(1.09163 0.0234183 0)
(0.998957 0.0186122 0)
(0.740344 0.00995801 0)
(0.397946 0.00299691 0)
(0.0764718 0.000204718 0)
(0.0989936 8.45781e-05 0)
(0.644255 0.000485476 0)
(0.947873 -0.000772537 0)
(1.10485 -0.00188375 0)
(1.12763 -0.000126634 0)
(1.10953 0.00347912 0)
(1.09277 0.00767346 0)
(1.08003 0.0121652 0)
(1.06985 0.0167271 0)
(1.06188 0.0209408 0)
(1.05763 0.0239066 0)
(1.05801 0.0253905 0)
(1.06305 0.025853 0)
(1.07355 0.0258002 0)
(1.08947 0.0257713 0)
(1.08621 0.0245794 0)
(0.980757 0.0189728 0)
(0.716124 0.0100628 0)
(0.380781 0.00308074 0)
(0.0722209 0.000217476 0)
(0.10072 0.000140975 0)
(0.644954 0.00166658 0)
(0.945613 0.00180925 0)
(1.1064 0.0016261 0)
(1.13336 0.00371208 0)
(1.11573 0.00759814 0)
(1.09839 0.0121897 0)
(1.08492 0.0170527 0)
(1.07372 0.0218009 0)
(1.06449 0.0259831 0)
(1.05902 0.0286565 0)
(1.05847 0.0295657 0)
(1.06289 0.0294231 0)
(1.07316 0.0288332 0)
(1.08821 0.0282105 0)
(1.07914 0.0261806 0)
(0.961116 0.0196575 0)
(0.691584 0.010389 0)
(0.363253 0.00323593 0)
(0.0677492 0.000234779 0)
(0.103493 0.00020054 0)
(0.649987 0.00312174 0)
(0.94704 0.00483258 0)
(1.10965 0.00579519 0)
(1.13968 0.00836026 0)
(1.12256 0.012674 0)
(1.10461 0.0177478 0)
(1.09019 0.023017 0)
(1.07782 0.0280215 0)
(1.06713 0.0321622 0)
(1.06012 0.0344141 0)
(1.05837 0.0347096 0)
(1.06203 0.0338703 0)
(1.07196 0.0326254 0)
(1.0856 0.0313147 0)
(1.07014 0.0282704 0)
(0.939897 0.0207614 0)
(0.666263 0.010969 0)
(0.344953 0.00346962 0)
(0.062961 0.000256755 0)
(0.107615 0.000283766 0)
(0.659819 0.00482412 0)
(0.952463 0.00823088 0)
(1.11521 0.0106173 0)
(1.14706 0.0139363 0)
(1.13014 0.0189186 0)
(1.11138 0.0245408 0)
(1.09582 0.0302678 0)
(1.08197 0.0355943 0)
(1.06944 0.0397088 0)
(1.06058 0.0414915 0)
(1.05744 0.0410451 0)
(1.06017 0.0393589 0)
(1.06972 0.0373162 0)
(1.08154 0.0352568 0)
(1.05902 0.0310571 0)
(0.916666 0.0223725 0)
(0.639558 0.0118296 0)
(0.325411 0.00378502 0)
(0.0577473 0.000283205 0)
(0.113407 0.000393847 0)
(0.675101 0.00693374 0)
(0.962745 0.0123955 0)
(1.12352 0.0163107 0)
(1.15584 0.0204973 0)
(1.13871 0.0263387 0)
(1.11889 0.0327614 0)
(1.10191 0.0391958 0)
(1.08617 0.0449264 0)
(1.07136 0.0489333 0)
(1.06035 0.0500569 0)
(1.05558 0.0487053 0)
(1.05716 0.0461081 0)
(1.06626 0.0432074 0)
(1.07598 0.0402386 0)
(1.04539 0.03464 0)
(0.890918 0.0245462 0)
(0.610811 0.012987 0)
(0.304154 0.00417476 0)
(0.0520295 0.000311126 0)
(0.121372 0.000548153 0)
(0.696803 0.00967042 0)
(0.978568 0.0175286 0)
(1.13511 0.0232626 0)
(1.16635 0.0285758 0)
(1.14869 0.035546 0)
(1.12761 0.0429656 0)
(1.10878 0.0501957 0)
(1.09073 0.0563301 0)
(1.07322 0.0601906 0)
(1.05956 0.0605218 0)
(1.05277 0.058039 0)
(1.05301 0.0543909 0)
(1.06141 0.0505409 0)
(1.06855 0.0465259 0)
(1.02878 0.0392229 0)
(0.862063 0.0274529 0)
(0.57919 0.0145096 0)
(0.280642 0.00464403 0)
(0.0457543 0.000339021 0)
(0.132265 0.000773616 0)
(0.726187 0.0133609 0)
(1.00104 0.0240331 0)
(1.15085 0.0319504 0)
(1.17927 0.0388273 0)
(1.16037 0.0473565 0)
(1.13743 0.0559522 0)
(1.11608 0.064025 0)
(1.09499 0.070453 0)
(1.07416 0.0738525 0)
(1.05754 0.0730189 0)
(1.04862 0.0691626 0)
(1.04745 0.0642431 0)
(1.05496 0.059307 0)
(1.05894 0.0541062 0)
(1.00868 0.0450636 0)
(0.829244 0.0312474 0)
(0.543647 0.0164442 0)
(0.254254 0.00518874 0)
(0.0388792 0.000366046 0)
(0.147287 0.00112388 0)
(0.765049 0.0186441 0)
(1.03168 0.0326887 0)
(1.17179 0.0432253 0)
(1.19559 0.0521989 0)
(1.17418 0.0626403 0)
(1.1486 0.0725434 0)
(1.12398 0.0813755 0)
(1.09922 0.0878187 0)
(1.07449 0.0903279 0)
(1.05452 0.0879587 0)
(1.04316 0.0824589 0)
(1.04045 0.0760592 0)
(1.04692 0.0697661 0)
(1.04676 0.0633745 0)
(0.984408 0.0522814 0)
(0.79147 0.035969 0)
(0.503049 0.0187295 0)
(0.224487 0.00576414 0)
(0.0314035 0.000388456 0)
(0.168527 0.00172912 0)
(0.816341 0.0266518 0)
(1.07303 0.0450385 0)
(1.19886 0.058887 0)
(1.21587 0.0706267 0)
(1.19024 0.0828501 0)
(1.16081 0.0939403 0)
(1.1319 0.103127 0)
(1.10261 0.108991 0)
(1.07343 0.110032 0)
(1.04984 0.105592 0)
(1.03599 0.0980637 0)
(1.03174 0.0900387 0)
(1.03695 0.0824006 0)
(1.03161 0.0743977 0)
(0.95506 0.0608558 0)
(0.7476 0.0415027 0)
(0.456505 0.0211912 0)
(0.191275 0.00629042 0)
(0.0234411 0.000399943 0)
(0.199256 0.00306679 0)
(0.885628 0.0400659 0)
(1.12817 0.0649016 0)
(1.23232 0.0825788 0)
(1.23977 0.0970702 0)
(1.20796 0.110561 0)
(1.17336 0.121986 0)
(1.13919 0.130441 0)
(1.10477 0.13466 0)
(1.0708 0.133207 0)
(1.04339 0.125914 0)
(1.02699 0.115918 0)
(1.02119 0.105983 0)
(1.02483 0.0969715 0)
(1.01279 0.0871526 0)
(0.919569 0.0706305 0)
(0.696459 0.0473891 0)
(0.40417 0.0235755 0)
(0.155676 0.00669093 0)
(0.0153917 0.000390478 0)
(0.241209 0.00919978 9.95613e-21)
(0.976855 0.066782 8.52181e-21)
(1.19476 0.0988815 -2.96462e-21)
(1.26936 0.118127 0)
(1.26462 0.135392 -7.44309e-35)
(1.22535 0.148424 1.08564e-21)
(1.18476 0.158413 -1.94677e-21)
(1.14475 0.164719 0)
(1.10476 0.166173 3.97511e-35)
(1.06557 0.161308 -2.38948e-21)
(1.03402 0.150506 0)
(1.01482 0.137755 -2.82747e-21)
(1.00718 0.12593 -8.33522e-21)
(1.0088 0.115781 -3.93853e-21)
(0.988304 0.104498 -1.18606e-21)
(0.873671 0.0839481 -7.05067e-22)
(0.632473 0.0549278 0)
(0.343497 0.0265148 4.95243e-22)
(0.118523 0.00764468 5.86752e-22)
(0.00774022 0.000497457 1.06876e-20)
(0.270073 0.0242553 7.40071e-21)
(1.05217 0.10906 1.05881e-22)
(1.24928 0.147479 7.96765e-22)
(1.30312 0.166734 0)
(1.28655 0.18423 -3.80476e-21)
(1.24022 0.195255 -4.30647e-21)
(1.19357 0.203041 -1.9709e-21)
(1.14748 0.206929 -6.98978e-21)
(1.10147 0.205621 0)
(1.05633 0.197574 1.0189e-20)
(1.01968 0.183657 1.00896e-20)
(0.996899 0.168434 2.99892e-21)
(0.986968 0.154655 1.09111e-20)
(0.98404 0.142159 1.53097e-20)
(0.950909 0.12705 0)
(0.812437 0.101183 2.16534e-20)
(0.557727 0.0647241 3.11524e-20)
(0.281142 0.0306218 3.4701e-20)
(0.0843387 0.00860246 -3.98353e-20)
(0.000982128 0.000176418 -7.57058e-22)
(0.271331 0.040707 0)
(1.09985 0.16391 1.30597e-21)
(1.28632 0.206976 0)
(1.32959 0.22624 -5.03409e-21)
(1.30381 0.240833 0)
(1.25145 0.248099 -8.50547e-21)
(1.19904 0.252277 4.04193e-21)
(1.14718 0.252728 -1.41221e-20)
(1.09547 0.248049 -3.15373e-22)
(1.04479 0.23662 5.29301e-21)
(1.00332 0.219515 2.22526e-20)
(0.976832 0.201712 -5.93034e-23)
(0.963692 0.185758 -7.94755e-21)
(0.955779 0.170775 -1.44968e-20)
(0.915437 0.152082 1.71962e-20)
(0.768175 0.120401 -3.0527e-20)
(0.516942 0.0765907 -4.05393e-21)
(0.256944 0.0364562 0)
(0.0755947 0.0103492 -3.69325e-25)
(-0.000499358 -7.94676e-05 0)
(0.265019 0.0546563 1.77408e-20)
(1.12552 0.222489 -8.50984e-21)
(1.30945 0.271265 -6.40078e-21)
(1.34703 0.291026 2.39245e-21)
(1.31487 0.301673 -4.01295e-21)
(1.25793 0.304554 1.78771e-20)
(1.20078 0.304483 8.466e-21)
(1.14395 0.301001 0)
(1.08721 0.292527 -2.66457e-20)
(1.03134 0.277172 0)
(0.98519 0.256149 -1.17196e-20)
(0.955008 0.235162 -1.44475e-20)
(0.938788 0.217126 -8.68511e-21)
(0.927593 0.20099 -1.05604e-20)
(0.882791 0.179771 0)
(0.736666 0.142408 0)
(0.498495 0.0922709 -2.65767e-20)
(0.256145 0.0464578 5.2685e-21)
(0.0803226 0.0141829 -3.08584e-21)
(0.000772465 8.18733e-05 -3.65443e-21)
(0.257764 0.067034 -7.34305e-21)
(1.13682 0.281084 0)
(1.32226 0.336724 1.32152e-20)
(1.35641 0.357173 6.77556e-21)
(1.31981 0.363967 9.27338e-21)
(1.25952 0.362495 0)
(1.19873 0.358199 8.31694e-21)
(1.13785 0.350714 1.57067e-20)
(1.07669 0.338245 1.36838e-20)
(1.01602 0.318604 2.50501e-20)
(0.96535 0.293686 0)
(0.931828 0.270139 -3.12393e-20)
(0.913342 0.250827 -1.88196e-20)
(0.899725 0.23369 -1.11268e-20)
(0.851711 0.20912 6.85113e-20)
(0.712006 0.16697 8.2019e-21)
(0.491499 0.111625 3.87081e-20)
(0.264303 0.0594821 -1.83583e-19)
(0.091315 0.0204159 1.08894e-19)
(0.00406639 0.000907548 -1.32919e-19)
(0.251012 0.0782422 -3.78795e-21)
(1.13922 0.337836 1.32833e-21)
(1.32757 0.401474 -1.45059e-21)
(1.35933 0.422909 -6.95293e-21)
(1.31955 0.426137 -7.88677e-21)
(1.25682 0.420544 3.57221e-22)
(1.19321 0.412281 -9.01802e-21)
(1.12901 0.4009 1.62804e-20)
(1.06397 0.384414 -2.94859e-20)
(0.999006 0.360646 0)
(0.944436 0.332515 -1.41658e-20)
(0.908003 0.30731 -3.24406e-22)
(0.887257 0.286983 -2.0613e-20)
(0.870406 0.267704 0)
(0.820181 0.239021 -1.48629e-20)
(0.690244 0.192892 -3.54963e-20)
(0.488123 0.133052 9.53572e-20)
(0.274434 0.0747213 -9.40268e-20)
(0.103459 0.0282761 1.3381e-19)
(0.00788649 0.00222682 -1.40821e-19)
(0.245519 0.0886941 -1.04947e-22)
(1.13617 0.392085 -5.19921e-22)
(1.32757 0.464474 -4.0884e-21)
(1.35729 0.487132 2.8134e-21)
(1.31516 0.487202 -3.97303e-21)
(1.25066 0.47784 0)
(1.18483 0.465887 -8.41783e-21)
(1.11779 0.450746 -1.70584e-20)
(1.04939 0.430352 -1.53385e-20)
(0.980785 0.402816 0)
(0.923011 0.372016 -1.47127e-20)
(0.883985 0.345085 -1.8216e-20)
(0.860446 0.32295 2.23732e-20)
(0.839647 0.300499 -1.36088e-20)
(0.788346 0.26822 -6.49144e-20)
(0.669299 0.219315 3.88688e-20)
(0.483665 0.155756 1.16807e-20)
(0.282168 0.0908799 0)
(0.113566 0.0368895 -1.29482e-19)
(0.0112899 0.00378576 -4.80929e-21)
(0.241349 0.098706 1.33147e-22)
(1.12992 0.443657 -1.91716e-23)
(1.32377 0.525184 1.90849e-21)
(1.35156 0.549157 9.98621e-21)
(1.3076 0.546484 -1.46664e-20)
(1.24183 0.533751 1.71314e-20)
(1.17418 0.518366 1.81125e-20)
(1.10468 0.499614 -2.72505e-20)
(1.0334 0.475513 9.45105e-21)
(0.961731 0.444512 -6.16652e-20)
(0.90125 0.410972 -1.66345e-20)
(0.859714 0.381561 0)
(0.83301 0.356443 2.42562e-20)
(0.808465 0.330537 2.90805e-20)
(0.757496 0.295553 3.48935e-20)
(0.648113 0.244812 -4.21734e-20)
(0.476391 0.177757 -1.25291e-20)
(0.285252 0.106562 1.47595e-20)
(0.119868 0.0450889 0)
(0.0136571 0.00526331 -1.04294e-20)
(0.238326 0.108366 -6.24065e-21)
(1.12202 0.492574 2.48327e-21)
(1.31752 0.583825 -1.66723e-21)
(1.34316 0.608602 6.02427e-21)
(1.2977 0.603524 -6.59461e-21)
(1.23098 0.587778 -8.22337e-22)
(1.1618 0.569219 -1.97611e-20)
(1.09018 0.547063 -9.85225e-21)
(1.01641 0.51951 -2.66367e-20)
(0.942104 0.485212 4.97437e-23)
(0.879087 0.448481 -5.20481e-20)
(0.835051 0.41577 4.39005e-20)
(0.805176 0.387111 -2.66197e-20)
(0.777524 0.358137 3.20189e-20)
(0.727593 0.32124 0)
(0.626369 0.268841 -2.28219e-20)
(0.46601 0.198274 -8.77542e-23)
(0.283472 0.120721 -6.4214e-20)
(0.121737 0.0520483 -9.48022e-21)
(0.0148913 0.00644923 0)
(0.236324 0.117862 0)
(1.11331 0.539034 3.44303e-21)
(1.30937 0.63961 -1.19956e-21)
(1.3329 0.665252 -5.45549e-21)
(1.28615 0.658041 -8.34981e-21)
(1.21866 0.639598 0)
(1.14815 0.618104 -8.97483e-21)
(1.07471 0.592817 -2.36559e-22)
(0.998783 0.562114 5.70187e-20)
(0.922058 0.524573 -8.45977e-21)
(0.856505 0.484215 -3.75685e-20)
(0.809956 0.447716 2.28271e-20)
(0.777291 0.415526 -4.25977e-22)
(0.747421 0.384058 3.40099e-20)
(0.698701 0.34575 2.10331e-20)
(0.603383 0.291301 -4.92564e-20)
(0.452346 0.216618 5.85786e-20)
(0.276964 0.132444 1.73793e-20)
(0.119737 0.0570819 7.19645e-20)
(0.015047 0.00719016 -1.94746e-19)
(0.235218 0.127325 -3.12989e-21)
(1.1044 0.583199 3.53999e-21)
(1.29998 0.692625 -1.89716e-21)
(1.32138 0.719042 4.11941e-21)
(1.27348 0.70989 0)
(1.20532 0.689001 -7.80609e-21)
(1.13367 0.664827 3.00558e-20)
(1.05865 0.636739 2.15263e-20)
(0.980796 0.603203 0)
(0.9017 0.562455 -1.21676e-19)
(0.833543 0.51822 1.0148e-19)
(0.784536 0.47779 0)
(0.749556 0.442276 3.10315e-20)
(0.718223 0.408581 -4.18495e-22)
(0.670558 0.368622 -6.70538e-20)
(0.579475 0.311257 2.6316e-20)
(0.435387 0.231808 0)
(0.266121 0.141041 9.3656e-20)
(0.114224 0.0597793 0)
(0.0141119 0.00735636 -9.20108e-20)
(0.234826 0.136755 4.066e-21)
(1.09559 0.625216 5.47627e-21)
(1.28973 0.742879 -1.68278e-21)
(1.30905 0.769964 0)
(1.26012 0.759033 -6.93962e-21)
(1.19135 0.73591 0)
(1.1187 0.709319 -2.96058e-20)
(1.04231 0.678782 -9.98377e-21)
(0.962672 0.642737 1.00284e-20)
(0.881188 0.598872 -6.01595e-20)
(0.810297 0.550711 1.04737e-20)
(0.758886 0.506407 0)
(0.721988 0.467722 -6.62159e-20)
(0.689641 0.43176 4.19819e-22)
(0.64262 0.389591 0)
(0.554448 0.328603 3.87726e-22)
(0.415447 0.24369 8.51475e-20)
(0.251483 0.146318 -8.08577e-20)
(0.105813 0.0604653 2.39379e-20)
(0.0125161 0.00707833 0)
(0.234807 0.146052 0)
(1.08703 0.665163 7.19506e-21)
(1.27896 0.790457 3.75918e-21)
(1.29625 0.818069 -4.87804e-22)
(1.24638 0.805483 -2.25574e-21)
(1.17705 0.780317 -1.73238e-20)
(1.10354 0.75159 1.10617e-20)
(1.02594 0.718956 -1.17604e-20)
(0.944611 0.680707 4.47107e-20)
(0.860663 0.633904 -9.59814e-20)
(0.786904 0.581939 -7.24088e-22)
(0.733076 0.533867 -2.90109e-20)
(0.694509 0.492047 1.07354e-19)
(0.661374 0.453607 -4.9118e-22)
(0.614619 0.408679 -5.1911e-20)
(0.528126 0.343369 -9.29541e-20)
(0.392822 0.252256 0)
(0.233508 0.14823 0)
(0.0950819 0.0590163 2.58208e-20)
(0.0104969 0.00638749 -1.5322e-20)
(0.235276 0.15532 6.42749e-21)
(1.0789 0.702938 -1.70569e-20)
(1.2679 0.835445 -4.11661e-21)
(1.28321 0.863428 0)
(1.23248 0.849291 -3.28827e-22)
(1.16268 0.822265 -1.56919e-20)
(1.08843 0.791692 2.66083e-20)
(1.00977 0.757297 4.62101e-20)
(0.926782 0.717141 5.80082e-20)
(0.840292 0.667646 -7.83141e-20)
(0.763512 0.612123 -8.69988e-20)
(0.707175 0.560397 7.75673e-20)
(0.667041 0.515331 0)
(0.633213 0.474057 -2.35371e-20)
(0.586422 0.42574 -5.61617e-20)
(0.500681 0.355267 -6.67225e-20)
(0.367786 0.257149 -7.93612e-20)
(0.212941 0.146729 2.35283e-20)
(0.0826104 0.0554053 -1.38906e-20)
(0.0080988 0.00530119 5.48483e-23)
(0.235995 0.164366 0)
(1.07125 0.739035 0)
(1.25669 0.877922 5.51007e-22)
(1.27011 0.906127 0)
(1.21864 0.890546 4.53735e-21)
(1.14842 0.861841 1.04786e-20)
(1.07358 0.829695 0)
(0.993937 0.793848 5.46121e-21)
(0.909341 0.752065 9.65956e-20)
(0.82025 0.700192 -1.79959e-19)
(0.740283 0.64144 0)
(0.681258 0.586173 -4.98633e-20)
(0.639476 0.537634 -5.94763e-22)
(0.604926 0.493019 -4.76333e-22)
(0.557871 0.440556 5.99694e-20)
(0.472189 0.364019 -6.87066e-23)
(0.340452 0.258185 -1.70782e-19)
(0.190292 0.141753 5.06034e-20)
(0.0694814 0.0501344 1.50093e-20)
(0.00565054 0.00397851 0)
(0.23673 0.173258 -2.76953e-20)
(1.06385 0.773431 -1.25691e-20)
(1.24542 0.917946 -1.48222e-20)
(1.25708 0.946259 9.85545e-21)
(1.20499 0.929324 4.65197e-21)
(1.13444 0.899135 0)
(1.0591 0.86568 1.58847e-20)
(0.97859 0.828654 -1.21455e-20)
(0.892422 0.785516 7.86903e-22)
(0.800706 0.731621 1.32494e-20)
(0.717387 0.670025 1.12489e-19)
(0.655405 0.611363 -1.74884e-20)
(0.611713 0.559088 -6.60878e-20)
(0.576252 0.510445 -2.74011e-20)
(0.528758 0.452879 3.26264e-20)
(0.442771 0.3693 -3.09011e-23)
(0.311965 0.255288 4.60257e-20)
(0.167016 0.133837 -1.08842e-19)
(0.0564326 0.04369 1.29145e-19)
(0.00330642 0.00254256 1.90692e-20)
(0.23724 0.181897 1.08027e-20)
(1.05674 0.806218 -7.29848e-21)
(1.23422 0.955627 1.30256e-21)
(1.24426 0.983943 7.86089e-21)
(1.19163 0.965744 4.25928e-22)
(1.12084 0.934243 -1.79195e-20)
(1.04513 0.899719 4.55351e-21)
(0.963826 0.861747 -5.05231e-20)
(0.876148 0.817507 -1.06113e-19)
(0.781808 0.761968 -1.07091e-19)
(0.694994 0.697971 0)
(0.629708 0.636124 -7.66913e-20)
(0.583668 0.57989 9.51678e-20)
(0.546876 0.52637 0)
(0.498763 0.462392 -6.98374e-20)
(0.412523 0.370575 4.18124e-20)
(0.283087 0.248216 -4.94504e-20)
(0.144384 0.1234 -5.85809e-20)
(0.0443685 0.0366389 -1.04028e-19)
(0.00123355 0.00112576 -8.21309e-20)
(0.238086 0.190376 -1.25236e-20)
(1.0498 0.837382 7.82452e-21)
(1.22316 0.991023 1.74707e-20)
(1.2317 1.01926 1.24224e-20)
(1.17865 0.999905 -1.84264e-22)
(1.10771 0.967273 -9.27505e-21)
(1.03173 0.931877 1.51844e-20)
(0.949721 0.893173 -5.17362e-20)
(0.860602 0.848066 -6.27227e-20)
(0.763692 0.791268 1.1188e-19)
(0.673255 0.725343 2.46801e-19)
(0.604284 0.660602 0)
(0.555312 0.600299 0)
(0.516441 0.541 -3.15637e-20)
(0.467308 0.468786 0)
(0.381293 0.366887 9.00005e-20)
(0.254915 0.236219 1.06439e-19)
(0.124333 0.110619 0)
(0.0345448 0.0295612 0)
(-0.000425598 -0.000137937 8.82774e-20)
(0.238564 0.19837 1.45669e-20)
(1.04307 0.866918 1.1487e-20)
(1.21231 1.02424 1.2882e-20)
(1.21947 1.05234 -1.31745e-20)
(1.16611 1.03192 -1.79445e-21)
(1.09512 0.998314 9.00416e-21)
(1.01896 0.962219 -2.06803e-20)
(0.936329 0.922956 2.00888e-23)
(0.845863 0.8772 -1.0266e-21)
(0.746466 0.819522 -1.08944e-21)
(0.652334 0.752181 1.27078e-19)
(0.579281 0.684913 0)
(0.526709 0.620609 9.61918e-20)
(0.484628 0.554753 6.73004e-20)
(0.433478 0.472073 1.63118e-19)
(0.348208 0.356975 4.84544e-20)
(0.228452 0.217077 -5.7386e-20)
(0.110709 0.0934217 -3.37791e-20)
(0.0316434 0.0215496 0)
(-0.000616588 -0.00103377 9.48723e-20)
(0.23938 0.206372 -3.36321e-20)
(1.03652 0.894976 0)
(1.20169 1.05534 1.58563e-20)
(1.20759 1.08327 -1.16866e-20)
(1.15406 1.06189 4.39753e-21)
(1.08308 1.02746 -8.6506e-21)
(1.00685 0.990802 3.95473e-20)
(0.923682 0.951126 -4.32379e-21)
(0.831975 0.904921 0)
(0.730216 0.846701 -1.23215e-19)
(0.632386 0.778493 -2.75933e-19)
(0.554885 0.709156 1.12918e-20)
(0.498023 0.64107 1.32411e-19)
(0.451283 0.568218 0)
(0.396163 0.473002 1.10062e-19)
(0.310888 0.34017 0)
(0.201778 0.186193 0)
(0.107958 0.0590099 -3.66032e-20)
(0.0590491 -0.00126168 0)
(0.0260213 0.00639894 2.54348e-20)
(0.239746 0.213781 -3.81527e-20)
(1.03014 0.921768 0)
(1.19131 1.08451 2.69871e-20)
(1.19605 1.11227 0)
(1.14247 1.09008 -3.31673e-21)
(1.07156 1.055 0)
(0.995334 1.01793 1.87249e-21)
(0.911691 0.97802 7.05815e-21)
(0.818832 0.931598 7.84636e-21)
(0.714796 0.873193 -1.35126e-19)
(0.613272 0.804728 8.27675e-21)
(0.53088 0.733928 9.08921e-20)
(0.46891 0.662328 1.29192e-19)
(0.415694 0.582239 1.74315e-20)
(0.353694 0.473453 8.62522e-20)
(0.264795 0.318055 0)
(0.164252 0.141612 1.21293e-19)
(0.0876885 0.00670017 -7.13878e-20)
(0.032511 0.0574819 8.3267e-20)
(-0.038414 0.451927 -9.88902e-20)
(0.240047 0.221015 3.195e-20)
(1.02374 0.947182 4.76674e-20)
(1.18109 1.11209 0)
(1.1847 1.1398 1.11245e-21)
(1.13116 1.11708 1.096e-20)
(1.06029 1.08162 6.94099e-21)
(0.984114 1.04441 1.33281e-20)
(0.899963 1.00459 0)
(0.805923 0.95834 5.177e-20)
(0.699546 0.900306 -7.02515e-21)
(0.594086 0.832354 0)
(0.506076 0.760969 0)
(0.437722 0.686064 1.15363e-19)
(0.375892 0.597948 -5.37945e-20)
(0.303287 0.475937 -8.71291e-20)
(0.205939 0.295222 0)
(0.0922699 0.139068 6.167e-20)
(0.00827766 0.465213 -7.19094e-20)
(0.0327153 1.9183 -4.04741e-20)
(0.0596423 2.82021 -4.94766e-20)
(0.239972 0.227667 -2.44655e-20)
(1.01736 0.971397 -6.2048e-20)
(1.17106 1.13807 1.6537e-20)
(1.17358 1.16571 1.28107e-20)
(1.12021 1.14269 0)
(1.04935 1.10706 2.33047e-21)
(0.973387 1.06993 1.75828e-20)
(0.888678 1.03039 -3.37532e-21)
(0.793517 0.984626 7.71261e-21)
(0.684848 0.92743 1.28312e-19)
(0.57545 0.860692 1.38933e-19)
(0.481464 0.789992 1.01213e-19)
(0.405433 0.712085 1.15719e-19)
(0.333681 0.614152 -1.25767e-19)
(0.251793 0.483359 -1.31191e-19)
(0.132435 0.332664 0)
(0.0447716 0.870144 0)
(0.092112 2.57489 3.42624e-20)
(0.0942859 3.20713 0)
(0.0950541 3.3877 8.97414e-20)
(0.242673 0.233841 0)
(1.01128 0.994769 0)
(1.16095 1.1623 0)
(1.16245 1.18982 4.04793e-21)
(1.10932 1.1667 1.06891e-20)
(1.03855 1.13117 -1.31606e-21)
(0.963078 1.09438 1.10194e-20)
(0.877765 1.05529 -3.27015e-21)
(0.78155 1.01028 6.41494e-20)
(0.670694 0.954399 -1.98402e-21)
(0.557456 0.889527 2.73752e-19)
(0.457485 0.821059 -1.16467e-20)
(0.372186 0.740932 1.39972e-20)
(0.291492 0.628602 1.81664e-20)
(0.190212 0.502557 -2.70481e-22)
(0.100546 1.01136 3.35065e-22)
(0.131478 2.75112 -1.7827e-19)
(0.136562 3.29964 -6.79246e-20)
(0.125679 3.42466 3.63314e-20)
(0.113791 3.4447 -4.10615e-20)
(0.164965 0.17873 1.52618e-20)
(1.00112 1.01998 0)
(1.15063 1.18509 -3.51159e-20)
(1.15169 1.21241 -3.6229e-20)
(1.09898 1.18959 2.78142e-20)
(1.02854 1.15441 2.52405e-21)
(0.953025 1.11772 -1.09881e-20)
(0.867283 1.07929 3.56597e-20)
(0.770142 1.03532 -5.24743e-20)
(0.657331 0.981269 0)
(0.540387 0.918913 1.34504e-19)
(0.434727 0.853965 -8.23145e-20)
(0.338495 0.775518 0)
(0.243037 0.646199 1.73957e-20)
(0.143331 0.825724 4.1992e-20)
(0.145705 2.54868 -4.83782e-20)
(0.19568 3.33124 5.54119e-20)
(0.176633 3.43813 3.01159e-20)
(0.145921 3.45646 3.47404e-20)
(0.12579 3.46478 5.56812e-20)
(0.278084 0.272956 -2.93528e-20)
(0.984528 1.03103 0)
(1.13245 1.21102 3.86555e-20)
(1.13706 1.24573 4.14609e-20)
(1.08234 1.22338 -3.30027e-20)
(1.01168 1.18886 -7.9116e-21)
(0.935237 1.15389 8.5632e-21)
(0.848925 1.11679 2.78427e-21)
(0.750246 1.07481 4.93608e-20)
(0.634354 1.02436 1.09825e-19)
(0.511908 0.967552 7.53948e-21)
(0.397024 0.909725 7.26798e-20)
(0.280317 0.833386 1.30821e-20)
(0.209176 1.00107 -1.6624e-20)
(0.215236 2.41833 -3.82073e-20)
(0.265951 3.33886 3.83568e-20)
(0.249211 3.4674 -4.24497e-20)
(0.214451 3.48484 -2.47431e-20)
(0.180098 3.50834 -2.27387e-20)
(0.134951 3.50199 -3.34161e-21)
(0.268569 0.272056 0)
(0.981995 1.05432 1.15483e-20)
(1.12407 1.23474 -8.07063e-21)
(1.12662 1.26928 -5.05099e-21)
(1.0718 1.2468 -2.35589e-20)
(1.00142 1.21264 8.83953e-21)
(0.924736 1.17806 -3.69859e-21)
(0.83821 1.14182 2.45698e-21)
(0.738934 1.1012 -5.10399e-20)
(0.621673 1.0534 -2.94073e-21)
(0.496483 1.00098 -2.41122e-19)
(0.377009 0.947923 1.03396e-20)
(0.270488 0.909577 -1.23491e-20)
(0.244231 1.57388 -1.52899e-20)
(0.303954 3.14495 3.60505e-21)
(0.318772 3.4716 3.98392e-22)
(0.276922 3.51796 6.33996e-20)
(0.242592 3.53897 3.25144e-20)
(0.196732 3.55786 -1.1053e-20)
(0.146768 3.55323 -1.68099e-20)
(0.25453 0.270207 2.99214e-20)
(0.978578 1.08022 7.88121e-20)
(1.11529 1.26057 -2.31975e-20)
(1.11574 1.29438 -1.91059e-20)
(1.06088 1.27173 0)
(0.990792 1.23776 1.92562e-20)
(0.91413 1.2036 -2.0906e-21)
(0.827633 1.16814 2.10728e-21)
(0.728068 1.12895 -5.67701e-21)
(0.609961 1.084 -9.8108e-20)
(0.482887 1.03646 -1.10678e-19)
(0.35925 0.988912 -8.48188e-20)
(0.273301 1.05333 -9.23124e-20)
(0.306667 2.30808 9.55168e-20)
(0.382116 3.39947 8.22928e-20)
(0.356472 3.52996 0)
(0.307928 3.56406 0)
(0.271119 3.59611 -8.6027e-21)
(0.22635 3.64069 0)
(0.15732 3.62365 -1.42228e-20)
(0.244589 0.272277 -4.51216e-20)
(0.973209 1.10703 -6.73344e-20)
(1.10513 1.28767 0)
(1.10363 1.32039 1.34109e-21)
(1.04877 1.29736 -2.67919e-20)
(0.979112 1.2635 3.31806e-20)
(0.902787 1.22977 6.20716e-22)
(0.816535 1.19499 1.0648e-21)
(0.716929 1.15717 -3.51758e-20)
(0.598382 1.11505 4.85412e-21)
(0.470233 1.07252 0)
(0.34811 1.03536 0)
(0.300017 1.33646 -8.36036e-20)
(0.381816 2.97186 3.42971e-20)
(0.446073 3.50111 4.42581e-20)
(0.394116 3.56494 0)
(0.35221 3.61901 -5.00196e-21)