/*--------------------------------*- C++ -*----------------------------------*\
  =========                 |
  \\      /  F ield         | OpenFOAM: The Open Source CFD Toolbox
   \\    /   O peration     | Website:  https://openfoam.org
    \\  /    A nd           | Version:  6
     \\/     M anipulation  |
\*---------------------------------------------------------------------------*/
FoamFile
{
    version     2.0;
    format      ascii;
    class       surfaceScalarField;
    location    "57.3";
    object      phi;
}
// * * * * * * * * * * * * * * * * * * * * * * * * * * * * * * * * * * * * * //

dimensions      [0 3 -1 0 0 0 0];

internalField   nonuniform List<scalar> 
17370
(
-0.0900014
0.0898512
0.289161
-0.0714657
0.0537566
0.364485
-0.0381244
0.0276963
0.426596
-0.019646
0.0146143
0.504283
-0.0107735
0.00828377
0.601892
-0.00628447
0.0049082
0.720434
-0.00374454
0.00290418
0.863747
-0.00216295
0.00160418
1.03601
-0.00108798
0.000675667
1.24292
-0.000267559
-0.000124443
1.49158
0.000503101
-0.000911104
1.4916
0.00130724
-0.00179723
1.24318
0.00232875
-0.00304
1.03635
0.00385685
-0.00500179
0.864051
0.00636762
-0.00836017
0.72105
0.010845
-0.0146806
0.60305
0.0197076
-0.0277525
0.507484
0.0381752
-0.0538
0.431793
0.0715013
-0.089875
0.365149
0.0900155
0.198995
-0.128133
0.0882201
0.0399129
-0.364595
0.353371
-0.0746807
0.0859047
-0.446474
0.454315
-0.0844052
0.0765639
-0.521189
0.529896
-0.0684696
0.0597618
-0.612787
0.621563
-0.0515761
0.0427999
-0.726892
0.734158
-0.0353419
0.0280757
-0.867472
0.872585
-0.0224776
0.0173649
-1.03847
1.04192
-0.0135571
0.0101091
-1.2446
1.24703
-0.00749992
0.00506904
-1.49262
1.4946
-0.00312372
0.00114841
-1.4925
1.49422
0.000531099
-0.00225611
-1.24398
1.24586
0.00415845
-0.00604199
-1.03751
1.04004
0.00840067
-0.010936
-0.866103
0.869835
0.0142977
-0.0180301
-0.724394
0.729938
0.0230706
-0.0286144
-0.6087
0.616116
0.035831
-0.0432469
-0.514899
0.523046
0.0519788
-0.0601249
-0.439858
0.447918
0.0687907
-0.0768513
-0.375298
0.376744
0.0846533
-0.0860995
-0.257333
0.222485
0.0748133
-0.0399646
-0.0685105
0.0586817
0.0098288
-0.0518297
0.058419
-0.374118
0.367529
-0.0575084
0.0537604
-0.453588
0.457336
-0.0486743
0.0447259
-0.52794
0.531888
-0.0408908
0.0372564
-0.621556
0.62519
-0.03316
0.029089
-0.73534
0.739411
-0.0245233
0.0203676
-0.874331
0.878487
-0.0160256
0.0123349
-1.04348
1.04717
-0.00860096
0.00543048
-1.24855
1.25173
-0.00210391
-0.000969028
-1.49666
1.49973
0.00401707
-0.00728212
-1.49721
1.50047
0.0103621
-0.0139713
-1.25008
1.25369
0.0175371
-0.0217379
-1.04593
1.05013
0.02577
-0.0302124
-0.877772
0.882215
0.0341846
-0.0381851
-0.739911
0.743911
0.0417387
-0.0454899
-0.626783
0.630534
0.0493663
-0.0543838
-0.534817
0.539835
0.0580582
-0.0588752
-0.457481
0.458298
0.0521766
-0.0319818
-0.335763
0.315568
0.00988553
-0.0683545
0.058469
-0.052928
0.0489295
0.00399848
-0.0331823
0.0437365
-0.358089
0.347535
-0.0474424
0.0468202
-0.459271
0.459893
-0.0437691
0.0404206
-0.535787
0.539136
-0.0366539
0.0333565
-0.628512
0.631809
-0.0299273
0.0269037
-0.74263
0.745654
-0.0236534
0.0205532
-0.881999
0.885099
-0.0170283
0.0136525
-1.05075
1.05413
-0.00986238
0.00632616
-1.25515
1.25869
-0.00235992
-0.0014354
-1.50324
1.50703
0.00519946
-0.00907269
-1.50414
1.50802
0.0124829
-0.0161021
-1.25743
1.26105
0.0193043
-0.0226299
-1.05394
1.05726
0.0255529
-0.0286239
-0.885714
0.888785
0.0315027
-0.0347915
-0.747179
0.750468
0.0379717
-0.041618
-0.634325
0.637972
0.0448627
-0.0477954
-0.54415
0.547083
0.0482933
-0.0444127
-0.456591
0.45271
0.0336501
-0.0162109
-0.296213
0.278774
0.00406865
-0.0526524
0.0485837
-0.0458485
0.0433496
0.00249882
-0.0228307
0.0332215
-0.336835
0.326444
-0.0390538
0.0400778
-0.459571
0.458547
-0.0388946
0.0366138
-0.54185
0.544131
-0.0339548
0.0313679
-0.634855
0.637442
-0.0283157
0.025426
-0.748693
0.751583
-0.022171
0.0191856
-0.888044
0.89103
-0.0158896
0.0127982
-1.05725
1.06034
-0.00927992
0.00587658
-1.26214
1.26554
-0.00191729
-0.00196534
-1.51091
1.51479
0.0058072
-0.00964408
-1.51191
1.51575
0.012882
-0.0161769
-1.26449
1.26779
0.0190412
-0.0220756
-1.06037
1.0634
0.0248259
-0.0278404
-0.891851
0.894866
0.0305333
-0.0333928
-0.753684
0.756544
0.0358196
-0.0383167
-0.641044
0.643541
0.0404574
-0.0414566
-0.548893
0.549892
0.0402403
-0.0341276
-0.44744
0.441327
0.0234308
-0.0102247
-0.263566
0.25036
0.00258534
-0.0454245
0.0428392
-0.041271
0.0395
0.00177101
-0.016775
0.0260415
-0.316577
0.307311
-0.0326623
0.0348128
-0.456938
0.454788
-0.0344009
0.0327381
-0.546102
0.547765
-0.0305672
0.0284827
-0.639741
0.641826
-0.0260646
0.0236798
-0.75422
0.756605
-0.0208351
0.0180575
-0.893913
0.896691
-0.0148324
0.0117719
-1.06338
1.06644
-0.00828992
0.00497116
-1.26885
1.27217
-0.00114438
-0.00258476
-1.51858
1.5223
0.00626164
-0.00993323
-1.51949
1.52316
0.0130434
-0.0162431
-1.27104
1.27424
0.019015
-0.0219055
-1.06643
1.06932
0.0243805
-0.0269139
-0.897695
0.900228
0.029043
-0.0312113
-0.759007
0.761175
0.0330913
-0.0350545
-0.645704
0.647667
0.0365137
-0.0366758
-0.550418
0.55058
0.0342305
-0.0272001
-0.434674
0.427644
0.0175224
-0.00739312
-0.238843
0.228714
0.00187644
-0.0406648
0.0387883
-0.037974
0.0366404
0.00133357
-0.0128178
0.0207809
-0.298702
0.290739
-0.0275497
0.0304864
-0.452215
0.449278
-0.0307034
0.0295952
-0.549187
0.550295
-0.0276142
0.0257108
-0.643853
0.645756
-0.0235261
0.021402
-0.758831
0.760955
-0.0189001
0.0164278
-0.89925
0.901722
-0.0134974
0.0106293
-1.06936
1.07223
-0.00727883
0.00404593
-1.27542
1.27865
-0.000303007
-0.00332615
-1.52595
1.52958
0.00689061
-0.0104394
-1.52676
1.53031
0.0134104
-0.0164067
-1.27737
1.28037
0.0189129
-0.0214232
-1.07205
1.07456
0.0235148
-0.0256247
-0.902534
0.904644
0.027426
-0.0292939
-0.763173
0.765041
0.0309388
-0.0326688
-0.649494
0.651224
0.0334795
-0.0329137
-0.550381
0.549815
0.0295563
-0.0222277
-0.420408
0.413079
0.0137372
-0.0057259
-0.219745
0.211734
0.00146185
-0.0371457
0.0356838
-0.035475
0.0344459
0.00102909
-0.0100245
0.0167586
-0.283417
0.276682
-0.0232632
0.0266536
-0.446096
0.442706
-0.02745
0.0267617
-0.551189
0.551877
-0.0250151
0.0232424
-0.647642
0.649415
-0.0211859
0.0191824
-0.763015
0.765018
-0.0168258
0.0145128
-0.904042
0.906355
-0.0117893
0.00911693
-1.07492
1.07759
-0.00597106
0.00289561
-1.28176
1.28484
0.000705942
-0.00421213
-1.53313
1.53663
0.00763845
-0.0110001
-1.53376
1.53712
0.0137534
-0.0164644
-1.28323
1.28594
0.0186917
-0.0208973
-1.07694
1.07915
0.0227388
-0.0246088
-0.906645
0.908515
0.0262109
-0.0278731
-0.766805
0.768467
0.0293257
-0.0307272
-0.652809
0.65421
0.0310482
-0.0297566
-0.5489
0.547608
0.0257876
-0.018547
-0.40577
0.398529
0.0111508
-0.00461925
-0.204533
0.198001
0.00118512
-0.034377
0.0331918
-0.0335419
0.0327388
0.000803082
-0.00795498
0.0136186
-0.270514
0.26485
-0.0196409
0.0232318
-0.439208
0.435617
-0.02451
0.0240736
-0.552478
0.552914
-0.022598
0.020939
-0.651186
0.652845
-0.0189819
0.0170677
-0.76697
0.768884
-0.0148055
0.0125803
-0.908553
0.910778
-0.00995985
0.00739882
-1.08013
1.08269
-0.00439778
0.00146942
-1.28778
1.29071
0.00195756
-0.0052891
-1.54002
1.54335
0.0085226
-0.011656
-1.54035
1.54349
0.0141916
-0.0166637
-1.28854
1.29101
0.0186833
-0.0206714
-1.08129
1.08327
0.0223176
-0.02398
-0.910307
0.91197
0.0253977
-0.0268651
-0.770035
0.771502
0.0281219
-0.0291482
-0.655403
0.656429
0.029097
-0.0271439
-0.545989
0.544036
0.0227809
-0.0158157
-0.391423
0.384458
0.00933062
-0.00385146
-0.192047
0.186568
0.000992635
-0.032116
0.0311234
-0.0320333
0.0314054
0.000627898
-0.00635877
0.0111089
-0.259673
0.254923
-0.016544
0.0201376
-0.432027
0.428434
-0.0217415
0.0215332
-0.553278
0.553486
-0.0202924
0.0186913
-0.654524
0.656125
-0.0167895
0.0149246
-0.770762
0.772627
-0.0127233
0.0105621
-0.912892
0.915053
-0.00802004
0.00553921
-1.08513
1.08761
-0.002638
-0.000178982
-1.29352
1.29634
0.00344951
-0.00659965
-1.54656
1.54971
0.00962967
-0.0125409
-1.54649
1.5494
0.0148772
-0.0171304
-1.29339
1.29564
0.018947
-0.0207126
-1.08521
1.08697
0.0221639
-0.0236338
-0.913561
0.915031
0.0248953
-0.0262007
-0.772886
0.774191
0.0273232
-0.0279418
-0.657236
0.657855
0.0275248
-0.0250205
-0.541821
0.539316
0.0204224
-0.0137997
-0.377676
0.371053
0.00803681
-0.00331275
-0.181506
0.176782
0.000858134
-0.0302092
0.0293511
-0.0308573
0.0303712
0.000486168
-0.0050752
0.00903876
-0.250594
0.24663
-0.0138444
0.0172955
-0.424924
0.421473
-0.0190897
0.0190771
-0.553648
0.553661
-0.0180329
0.0164687
-0.65778
0.659344
-0.0145924
0.0127481
-0.774466
0.77631
-0.0105725
0.00843963
-0.917105
0.919238
-0.00593571
0.00350022
-1.08998
1.09242
-0.000667357
-0.00206235
-1.29905
1.30178
0.00520198
-0.00819341
-1.55274
1.55573
0.0110397
-0.0137461
-1.55219
1.5549
0.0158986
-0.0179547
-1.29781
1.29986
0.0195928
-0.0211599
-1.0887
1.09027
0.0224286
-0.0237101
-0.916436
0.917718
0.0248166
-0.0259618
-0.775415
0.77656
0.0268903
-0.0271432
-0.658278
0.658531
0.0263309
-0.0233573
-0.536595
0.533621
0.0186213
-0.0123335
-0.36462
0.358332
0.00712408
-0.00293939
-0.172362
0.168177
0.000766473
-0.0285495
0.027783
-0.0299531
0.0295867
0.000366372
-0.00400072
0.00727374
-0.243038
0.239765
-0.0114379
0.0146357
-0.418168
0.41497
-0.0164939
0.0166448
-0.553648
0.553497
-0.015688
0.014206
-0.660939
0.662421
-0.0123303
0.0104713
-0.778137
0.779996
-0.0082782
0.006138
-0.921271
0.923411
-0.00364264
0.00123255
-1.09474
1.09715
0.0015539
-0.0042237
-1.30441
1.30708
0.00727349
-0.0101492
-1.55862
1.56149
0.0128469
-0.0153653
-1.55748
1.56
0.0173268
-0.0191623
-1.30182
1.30366
0.0205992
-0.0219538
-1.09181
1.09317
0.0230444
-0.0241539
-0.918953
0.920062
0.0251182
-0.0260953
-0.777614
0.778591
0.026772
-0.0267306
-0.658654
0.658613
0.0255063
-0.0221262
-0.530462
0.527082
0.0173036
-0.0113014
-0.352215
0.346213
0.00649965
-0.00269036
-0.164211
0.160402
0.000707222
-0.0270568
0.0263496
-0.0292813
0.0290216
0.000259729
-0.0030604
0.00571123
-0.236828
0.234177
-0.00923606
0.0120993
-0.411966
0.409103
-0.0139065
0.0141401
-0.553373
0.553139
-0.0132243
0.0117789
-0.663967
0.665413
-0.00987207
0.00796977
-0.781845
0.783748
-0.00573242
0.00356042
-0.925447
0.927619
-0.00103995
-0.00138172
-1.09945
1.10188
0.00416188
-0.00679823
-1.30965
1.31229
0.00977004
-0.012527
-1.56426
1.56702
0.0150708
-0.0174054
-1.5624
1.56473
0.0191927
-0.0208323
-1.3054
1.30704
0.0220844
-0.0232252
-1.09451
1.09565
0.0241237
-0.0250507
-0.921126
0.922053
0.0258712
-0.0266848
-0.77948
0.780294
0.027082
-0.0267815
-0.658436
0.658136
0.0251173
-0.0213476
-0.523529
0.519759
0.016438
-0.0106376
-0.340348
0.334548
0.00611059
-0.00254254
-0.156745
0.153176
0.0006748
-0.0256702
0.0249954
-0.0288197
0.0286611
0.000158565
-0.00219013
0.00425712
-0.231843
0.229776
-0.00713801
0.00959884
-0.406472
0.404011
-0.011255
0.0115056
-0.552978
0.552727
-0.0106149
0.00918706
-0.666946
0.668374
-0.00723643
0.00526632
-0.785639
0.787609
-0.00294227
0.00069128
-0.929696
0.931947
0.00190635
-0.0043804
-1.1042
1.10668
0.00719084
-0.00982519
-1.31483
1.31746
0.012756
-0.0154295
-1.56967
1.57234
0.0178438
-0.0200006
-1.56694
1.5691
0.0216052
-0.0230386
-1.30858
1.31002
0.0241023
-0.0250328
-1.09682
1.09775
0.0257372
-0.026467
-0.922934
0.923663
0.0271297
-0.0277897
-0.780994
0.781654
0.0278756
-0.0272058
-0.65761
0.65694
0.0251103
-0.02096
-0.515841
0.511691
0.0159471
-0.0102645
-0.328853
0.32317
0.00590269
-0.00247135
-0.14971
0.146278
0.000662245
-0.0243393
0.023677
-0.0285603
0.0285044
5.58878e-05
-0.00134059
0.00283817
-0.228016
0.226519
-0.00506048
0.00705287
-0.40182
0.399828
-0.00844779
0.00862379
-0.552609
0.552433
-0.0077001
0.00624247
-0.669924
0.671381
-0.00420081
0.00212808
-0.78957
0.791642
0.000312554
-0.00266228
-0.934095
0.936445
0.00535615
-0.00790562
-1.10906
1.11161
0.0107798
-0.0134452
-1.32002
1.32268
0.0163644
-0.0189712
-1.57492
1.57753
0.0212654
-0.0232511
-1.57114
1.57312
0.0246784
-0.0258961
-1.31134
1.31256
0.0267445
-0.0274238
-1.09871
1.09939
0.0279096
-0.0284264
-0.924358
0.924875
0.0289278
-0.029389
-0.782133
0.782594
0.0292005
-0.0281072
-0.656025
0.654932
0.0255494
-0.0209944
-0.507409
0.502854
0.0158279
-0.0101607
-0.317553
0.311886
0.0058585
-0.00246972
-0.142905
0.139516
0.000668224
-0.0230257
0.0223575
-0.0285061
0.0285592
-5.31399e-05
-0.000464787
0.00138751
-0.225331
0.224408
-0.00292555
0.00438862
-0.398138
0.396674
-0.0054274
0.00544944
-0.552456
0.552434
-0.00443767
0.0028926
-0.673015
0.67456
-0.000724988
-0.00148958
-0.793708
0.795922
0.00409472
-0.00659264
-0.938692
0.94119
0.00944074
-0.0121141
-1.11407
1.11674
0.0150926
-0.0178118
-1.32527
1.32799
0.0207305
-0.02327
-1.58003
1.58257
0.0254327
-0.0272276
-1.57497
1.57677
0.0284591
-0.0294526
-1.31365
1.31464
0.0300961
-0.0305445
-1.10013
1.10058
0.0308066
-0.0310933
-0.925358
0.925644
0.0314043
-0.0315966
-0.782759
0.782952
0.0311358
-0.0295218
-0.65359
0.651976
0.02646
-0.0214538
-0.498177
0.49317
0.0160642
-0.0103045
-0.306241
0.300482
0.00596179
-0.00253011
-0.136146
0.132714
0.000690563
-0.0216933
0.0210028
-0.0286693
0.0288394
-0.000170124
0.000461835
-0.000151589
-0.223809
0.223499
-0.000652969
0.00150834
-0.395548
0.394693
-0.00208174
0.00186214
-0.552679
0.552898
-0.000705823
-0.000970371
-0.676322
0.677998
0.00329525
-0.00569109
-0.798127
0.800523
0.00851288
-0.0112088
-0.943594
0.94629
0.0142623
-0.0171026
-1.11934
1.12218
0.0202321
-0.023049
-1.33064
1.33345
0.026016
-0.028527
-1.58502
1.58753
0.0305839
-0.0321943
-1.57842
1.58003
0.0332188
-0.0339523
-1.31549
1.31622
0.0343467
-0.0345266
-1.10106
1.10124
0.0345503
-0.0345892
-0.925893
0.925932
0.0346999
-0.0345419
-0.782757
0.782599
0.0337191
-0.0315092
-0.650159
0.647949
0.0278828
-0.0223554
-0.488039
0.482512
0.0166536
-0.0106841
-0.294696
0.288727
0.00620205
-0.00264705
-0.129264
0.125709
0.000727522
-0.0203103
0.0195828
-0.0290897
0.0294016
-0.000311878
0.00146532
-0.00180009
-0.223545
0.22388
0.00183347
-0.0016897
-0.394198
0.394054
0.00171519
-0.00229341
-0.553487
0.554065
0.00368017
-0.00556271
-0.679949
0.681831
0.00813059
-0.0107661
-0.802907
0.805542
0.0138533
-0.0167835
-0.948885
0.951815
0.0200815
-0.0231269
-1.12494
1.12798
0.0264488
-0.0293935
-1.3362
1.33914
0.0324218
-0.034893
-1.58994
1.59241
0.036821
-0.0382205
-1.58148
1.58288
0.0390183
-0.0394689
-1.31678
1.31723
0.0396014
-0.0394914
-1.10143
1.10132
0.0392452
-0.0390092
-0.925904
0.925668
0.0389082
-0.0382993
-0.781982
0.781373
0.037031
-0.0341528
-0.645581
0.642703
0.0298781
-0.0237261
-0.476844
0.470692
0.0176011
-0.0112943
-0.28268
0.276373
0.00657336
-0.0028171
-0.122101
0.118345
0.00077799
-0.018848
0.01807
-0.0297847
0.0302683
-0.000483583
0.00272436
-0.00379738
-0.2246
0.225673
0.00469676
-0.00535004
-0.39428
0.394933
0.00609478
-0.00712524
-0.55514
0.556171
0.00882614
-0.0109791
-0.684056
0.686209
0.0138641
-0.0168123
-0.808167
0.811115
0.020249
-0.023494
-0.954656
0.957901
0.027121
-0.0304365
-1.13097
1.13428
0.0339998
-0.0370945
-1.34202
1.34511
0.0401892
-0.0426087
-1.59476
1.59718
0.0443723
-0.0455084
-1.58408
1.58521
0.0460225
-0.0461841
-1.31748
1.31764
0.046038
-0.0456077
-1.10116
1.10073
0.0450666
-0.0445346
-0.925312
0.92478
0.0441138
-0.0430647
-0.780305
0.779256
0.0412255
-0.0375511
-0.63969
0.636016
0.0325067
-0.0255937
-0.464372
0.457459
0.0189139
-0.0121312
-0.269935
0.263152
0.00706933
-0.00303575
-0.114503
0.11047
0.00084017
-0.0172804
0.0164402
-0.0308286
0.0315295
-0.000700985
0.00420496
-0.00615708
-0.227179
0.229131
0.0081215
-0.0096689
-0.396019
0.397567
0.0112414
-0.0128513
-0.557865
0.559475
0.0150048
-0.0175159
-0.688768
0.691279
0.0208031
-0.0241356
-0.814049
0.817381
0.0280032
-0.0316349
-0.961071
0.964703
0.0356599
-0.039296
-1.13754
1.14118
0.0431452
-0.0464224
-1.34813
1.35141
0.0496051
-0.0519752
-1.59948
1.60185
0.0535559
-0.0543896
-1.58614
1.58697
0.0545596
-0.0543667
-1.3175
1.3173
0.0538848
-0.0530919
-1.10019
1.09939
0.0522212
-0.0513459
-0.924057
0.923182
0.0505162
-0.0489529
-0.777736
0.776172
0.0464032
-0.0417846
-0.632229
0.62761
0.0358229
-0.0279795
-0.450341
0.442498
0.0205911
-0.0131833
-0.25618
0.248772
0.00767785
-0.00329533
-0.106319
0.101937
0.000911172
-0.0155854
0.0146742
-0.032305
0.0332929
-0.00098795
0.00608116
-0.00909251
-0.231538
0.234549
0.0122929
-0.0148976
-0.399688
0.402292
0.0174457
-0.0197764
-0.561949
0.564279
0.0225445
-0.0255502
-0.694282
0.697287
0.02939
-0.0332117
-0.820712
0.824534
0.0376062
-0.0416941
-0.968263
0.972351
0.0461792
-0.050182
-1.14476
1.14876
0.0543481
-0.0578052
-1.3546
1.35806
0.0610315
-0.0632758
-1.60405
1.60629
0.0645918
-0.0650447
-1.58756
1.58801
0.0648267
-0.0641954
-1.31671
1.31608
0.0633267
-0.0621165
-1.09839
1.09718
0.0608779
-0.0596586
-0.922037
0.920818
0.0582864
-0.0561113
-0.774128
0.771953
0.0527129
-0.0469478
-0.622881
0.617116
0.0398694
-0.0308838
-0.434403
0.425418
0.0226124
-0.0144236
-0.241117
0.232928
0.00837618
-0.00358302
-0.097412
0.0926189
0.000986679
-0.0137474
0.0127607
-0.0343418
0.0357264
-0.00138457
0.00853489
-0.0128904
-0.238007
0.242363
0.0175728
-0.0214037
-0.405655
0.409485
0.0250784
-0.0282702
-0.56774
0.570932
0.0318226
-0.0354849
-0.700892
0.704554
0.0400324
-0.0444756
-0.828365
0.832808
0.049519
-0.0541589
-0.97638
0.98102
0.0591844
-0.0635898
-1.1527
1.15711
0.068064
-0.0716523
-1.36139
1.36497
0.074835
-0.0768505
-1.60829
1.61031
0.077783
-0.0777303
-1.58814
1.58809
0.0770338
-0.0758509
-1.31494
1.31375
0.074546
-0.0728704
-1.09566
1.09399
0.0712289
-0.0695754
-0.919213
0.91756
0.0676334
-0.0647006
-0.769267
0.766334
0.0602494
-0.0530811
-0.611236
0.604068
0.0446437
-0.0342685
-0.416138
0.405763
0.0249233
-0.0157987
-0.224441
0.215317
0.00912356
-0.003877
-0.0876685
0.0824219
0.00105928
-0.0117611
0.0107018
-0.0371354
0.0390866
-0.00195124
0.0119629
-0.0180224
-0.247102
0.253161
0.0244938
-0.0297595
-0.414407
0.419672
0.0347618
-0.0389983
-0.575609
0.579845
0.0435379
-0.0480409
-0.708924
0.713427
0.0534892
-0.0587021
-0.83726
0.842472
0.0645271
-0.0697985
-0.985621
0.990892
0.0753938
-0.0801734
-1.16143
1.16621
0.084872
-0.0884773
-1.36837
1.37197
0.0914517
-0.0930565
-1.61199
1.6136
0.0934245
-0.092695
-1.58761
1.58688
0.0913833
-0.0895393
-1.31198
1.31013
0.0877025
-0.0855476
-1.09186
1.0897
0.0834917
-0.0812377
-0.915386
0.913132
0.0787456
-0.0748141
-0.762785
0.758853
0.0690591
-0.0601724
-0.596762
0.587876
0.0500845
-0.0380361
-0.395057
0.383009
0.0274184
-0.0172186
-0.205862
0.195662
0.00985679
-0.00414601
-0.0770197
0.0713089
0.00111925
-0.00963635
0.00851709
-0.0410066
0.0438398
-0.00283322
0.0169403
-0.0252523
-0.259544
0.267856
0.0339386
-0.0409276
-0.42662
0.433608
0.0475557
-0.0530891
-0.586037
0.591571
0.0589014
-0.0645133
-0.718782
0.724394
0.0711155
-0.0772297
-0.847676
0.85379
0.0838769
-0.089737
-0.996093
1.00195
0.0957869
-0.100788
-1.17081
1.17581
0.105495
-0.108882
-1.37525
1.37864
0.111358
-0.112279
-1.61473
1.61565
0.111839
-0.110226
-1.58563
1.58402
0.108145
-0.105524
-1.30763
1.30501
0.103043
-0.100309
-1.08687
1.08413
0.0977856
-0.0948379
-0.910172
0.907225
0.0916819
-0.0864779
-0.754177
0.748973
0.0791012
-0.0681027
-0.578792
0.567794
0.0560224
-0.041997
-0.370621
0.356596
0.0299187
-0.0185435
-0.185141
0.173766
0.0104835
-0.00434705
-0.065473
0.0593365
0.00115384
-0.0074037
0.00624986
-0.0465255
0.0508414
-0.00431593
0.0246448
-0.0360103
-0.276507
0.287873
0.0475543
-0.0568476
-0.443318
0.452612
0.0655005
-0.0725862
-0.599663
0.606749
0.079964
-0.0870499
-0.730919
0.738005
0.0948397
-0.101768
-0.859796
0.866724
0.109058
-0.115276
-1.00763
1.01385
0.121454
-0.126326
-1.18046
1.18533
0.130615
-0.133382
-1.38147
1.38424
0.134931
-0.134803
-1.61587
1.61575
0.133242
-0.130467
-1.58174
1.57896
0.12741
-0.123835
-1.30164
1.29806
0.120616
-0.11723
-1.08055
1.07716
0.114173
-0.110478
-0.903402
0.899708
0.106381
-0.0995214
-0.742846
0.735987
0.0901069
-0.0765436
-0.55648
0.542917
0.062116
-0.045835
-0.342281
0.326
0.0321548
-0.0195794
-0.162168
0.149592
0.0108804
-0.00442445
-0.0531529
0.046697
0.00114617
-0.00511832
0.00397214
-0.0547534
0.062115
-0.00736166
0.0380408
-0.0538903
-0.300122
0.315971
0.0694831
-0.0819852
-0.466177
0.478679
0.0928021
-0.101252
-0.616922
0.625372
0.110145
-0.118503
-0.745667
0.754025
0.127219
-0.134538
-0.87334
0.88066
0.141888
-0.14787
-1.01962
1.0256
0.15352
-0.157649
-1.18954
1.19367
0.160893
-0.16247
-1.38616
1.38774
0.162536
-0.16087
-1.61467
1.613
0.15777
-0.153512
-1.57533
1.57107
0.14925
-0.144537
-1.29362
1.28891
0.140453
-0.136343
-1.07266
1.06855
0.13261
-0.128082
-0.894894
0.890366
0.122649
-0.113602
-0.727913
0.718867
0.101554
-0.0848446
-0.528768
0.512058
0.0677546
-0.0491021
-0.309558
0.290906
0.0338163
-0.0201535
-0.137066
0.123403
0.010948
-0.00433289
-0.0403561
0.033741
0.00107231
-0.00286366
0.00179135
-0.0689667
0.0730729
-0.00410619
0.0289921
-0.0428483
-0.334335
0.348192
0.0567609
-0.0683157
-0.496616
0.508171
0.0785658
-0.0881142
-0.637414
0.646962
0.098719
-0.108561
-0.761834
0.771676
0.119487
-0.129109
-0.886954
0.896576
0.139277
-0.148244
-1.03065
1.03962
0.157535
-0.165391
-1.1967
1.20455
0.173045
-0.178928
-1.3881
1.39399
0.183817
-0.186484
-1.61009
1.61275
0.186905
-0.185654
-1.56574
1.56448
0.183352
-0.180144
-1.28323
1.28002
0.177273
-0.173872
-1.06297
1.05956
0.170809
-0.166236
-0.883979
0.879406
0.158753
-0.145463
-0.708102
0.694812
0.12754
-0.103717
-0.494593
0.47077
0.0805228
-0.0562484
-0.272181
0.247907
0.0374297
-0.0214922
-0.110356
0.0944187
0.0112299
-0.00424128
-0.02761
0.0206214
0.000972767
-0.000721283
-0.000251485
-0.0804008
0.0784828
0.00191807
0.00762586
-0.0165365
-0.364717
0.373628
0.0270669
-0.0353909
-0.524286
0.53261
0.0437075
-0.0515684
-0.659191
0.667052
0.0612326
-0.0703259
-0.78099
0.790084
0.080036
-0.0888323
-0.905542
0.914338
0.0981026
-0.105926
-1.04826
1.05609
0.114197
-0.120793
-1.21215
1.21874
0.127126
-0.131645
-1.39945
1.40397
0.134779
-0.135881
-1.61449
1.61559
0.134792
-0.132022
-1.56246
1.55969
0.128181
-0.12334
-1.27615
1.27131
0.118855
-0.113913
-1.05425
1.04931
0.109215
-0.103314
-0.87
0.864099
0.0954696
-0.0837689
-0.677776
0.666075
0.0701647
-0.0539435
-0.445499
0.429278
0.0396521
-0.0263528
-0.22397
0.210671
0.0169126
-0.00945391
-0.0793687
0.07191
0.00483761
-0.00179888
-0.0138998
0.0108611
0.000394207
0.0014543
-0.00184851
-0.0818155
0.0789622
0.00285328
-0.0011962
-0.00386218
-0.385289
0.390348
0.0108176
-0.0168613
-0.54476
0.550803
0.0229838
-0.0297747
-0.677492
0.684283
0.0381436
-0.0460123
-0.798248
0.806117
0.0546248
-0.0622624
-0.922296
0.929933
0.0700564
-0.0769934
-1.06371
1.07065
0.0841007
-0.089825
-1.22486
1.23059
0.0948306
-0.0981316
-1.40777
1.41107
0.100216
-0.10013
-1.61591
1.61582
0.0978478
-0.0938766
-1.55618
1.55221
0.0890703
-0.0834031
-1.26607
1.2604
0.0777699
-0.0717386
-1.04275
1.03672
0.0660068
-0.0593176
-0.854358
0.847669
0.0522056
-0.0426256
-0.651233
0.641653
0.0329055
-0.0226532
-0.411447
0.401194
0.0151019
-0.00923615
-0.196802
0.190936
0.00565733
-0.0031945
-0.0643328
0.06187
0.00168551
-0.000670161
-0.00760817
0.00659282
0.00015284
0.00249167
-0.00264451
-0.080613
0.0778473
0.00276571
-0.00493913
0.00243288
-0.398914
0.40142
0.00204925
-0.00657646
-0.559923
0.56445
0.0117178
-0.0173989
-0.692521
0.698202
0.0245675
-0.0313043
-0.813319
0.820056
0.0386359
-0.0451609
-0.936986
0.943511
0.0521979
-0.0580419
-1.07713
1.08297
0.0641846
-0.0686538
-1.23586
1.24033
0.0727956
-0.07534
-1.41408
1.41662
0.0764358
-0.075287
-1.61521
1.61406
0.0724042
-0.0678881
-1.54759
1.54307
0.0626066
-0.0560455
-1.25432
1.24775
0.0498638
-0.0431137
-1.02942
1.02267
0.0365944
-0.029708
-0.837849
0.830963
0.0230722
-0.0156311
-0.629106
0.621665
0.00919821
-0.00396645
-0.389852
0.38462
0.00120756
0.00010766
-0.183677
0.182362
-0.000512044
0.000336383
-0.058443
0.0586187
-0.000198892
4.96293e-05
-0.00504898
0.00519824
-1.97393e-05
0.003075
-0.00305526
-0.0791376
0.0767018
0.00243581
-0.00613077
0.0051971
-0.408043
0.408977
-0.00184039
-0.00151088
-0.572026
0.575378
0.00560108
-0.0107356
-0.705126
0.710261
0.0167515
-0.0226669
-0.826072
0.831987
0.0290112
-0.0346787
-0.949556
0.955224
0.0407094
-0.0458939
-1.08866
1.09384
0.051056
-0.0551023
-1.24463
1.24867
0.0585264
-0.0604631
-1.41874
1.42068
0.0609485
-0.0593113
-1.61268
1.61105
0.0560247
-0.0509591
-1.53783
1.53276
0.045388
-0.0386514
-1.24101
1.23427
0.0321895
-0.0249559
-1.01497
1.00773
0.0183132
-0.0113111
-0.821598
0.814596
0.0053568
0.000556769
-0.611651
0.605738
-0.00466148
0.00682903
-0.377099
0.374932
-0.00700791
0.00598801
-0.17895
0.179969
-0.00457313
0.00293587
-0.0580255
0.0596628
-0.00169107
0.000665275
-0.00494102
0.00596681
-0.000171283
0.00325997
-0.00308869
-0.0777789
0.0757042
0.00207468
-0.00605278
0.00560836
-0.414328
0.414773
-0.00359842
0.000874322
-0.581356
0.58408
0.00312313
-0.00752118
-0.715783
0.720181
0.0126881
-0.0178162
-0.837095
0.842223
0.0234516
-0.0285216
-0.960523
0.965593
0.034043
-0.0385786
-1.09874
1.10328
0.0431966
-0.0467919
-1.25241
1.256
0.0497172
-0.0512538
-1.4223
1.42384
0.0513416
-0.0497745
-1.60927
1.6077
0.0462012
-0.0410621
-1.52718
1.52204
0.035347
-0.0285183
-1.22727
1.22044
0.0222364
-0.0148703
-0.999973
0.992607
0.00821086
-0.00142786
-0.805811
0.799028
-0.0040629
0.00882896
-0.597378
0.592612
-0.0117152
0.0126099
-0.369719
0.368825
-0.0114093
0.0092894
-0.179008
0.181128
-0.00712355
0.00467601
-0.06066
0.0631075
-0.00273612
0.00113733
-0.00672532
0.00832411
-0.00030219
0.00302333
-0.00272114
-0.0767632
0.0751537
0.00160951
-0.00518485
0.00505969
-0.419029
0.419154
-0.00338744
0.00133491
-0.589516
0.591568
0.00241222
-0.00641355
-0.725013
0.729014
0.0113182
-0.0157306
-0.846956
0.851368
0.0206758
-0.0251684
-0.970612
0.975105
0.0304039
-0.0345125
-1.10783
1.11193
0.0385991
-0.0419763
-1.2594
1.26278
0.0450177
-0.0463615
-1.42536
1.42671
0.0464337
-0.0446886
-1.6057
1.60395
0.0413881
-0.0360764
-1.51665
1.51134
0.0306761
-0.0242392
-1.21346
1.20703
0.0180636
-0.0111389
-0.985048
0.978123
0.00465255
0.0020979
-0.790773
0.784022
-0.0071069
0.0113121
-0.58513
0.580925
-0.0137925
0.0142905
-0.364873
0.364375
-0.0130584
0.0107305
-0.181245
0.183573
-0.0083256
0.00554777
-0.0649005
0.0676783
-0.00331197
0.0014274
-0.00961344
0.011498
-0.000393661
0.00249472
-0.00210106
-0.0762572
0.075008
0.00124923
-0.00409558
0.00409051
-0.422798
0.422803
-0.00253687
0.000582706
-0.596626
0.59858
0.00296861
-0.00657756
-0.733306
0.736914
0.01078
-0.0150274
-0.855741
0.859989
0.0195919
-0.0242235
-0.979383
0.984014
0.028719
-0.0326339
-1.11614
1.12005
0.036839
-0.0399711
-1.26602
1.26915
0.0425179
-0.0442426
-1.42794
1.42966
0.0444429
-0.0429473
-1.60224
1.60075
0.0398
-0.0351057
-1.50627
1.50158
0.0300815
-0.0239961
-1.20034
1.19425
0.0182039
-0.0115884
-0.970909
0.964293
0.00544022
0.000826201
-0.776451
0.770184
-0.00594489
0.00989059
-0.573945
0.57
-0.0121062
0.0129597
-0.361091
0.360237
-0.0122201
0.010182
-0.183705
0.185743
-0.00802845
0.00544269
-0.0694839
0.0720696
-0.00331783
0.00147204
-0.0129278
0.0147735
-0.000422806
0.00180217
-0.00137937
-0.0762977
0.0752587
0.001039
-0.00279437
0.00253812
-0.426211
0.426467
-0.00117398
-0.000788409
-0.603171
0.605133
0.00407739
-0.00757803
-0.741025
0.744525
0.0116176
-0.0154651
-0.864048
0.867895
0.0201469
-0.0239775
-0.988044
0.991875
0.0284386
-0.0321789
-1.12411
1.12785
0.0362656
-0.0395841
-1.27225
1.27557
0.0424189
-0.0439202
-1.43113
1.43264
0.0444546
-0.0433775
-1.59919
1.59811
0.0409265
-0.036583
-1.49683
1.49248
0.0319927
-0.0262854
-1.1883
1.1826
0.0208668
-0.0146085
-0.957368
0.951109
0.00898641
-0.00299214
-0.763095
0.757101
-0.0019272
0.00599861
-0.563465
0.559394
-0.00835372
0.009389
-0.356989
0.355954
-0.00933076
0.00806967
-0.185502
0.186763
-0.00653578
0.00453199
-0.0735157
0.0755195
-0.00282027
0.00129574
-0.0160193
0.0175438
-0.00038856
0.00108319
-0.000694634
-0.0766377
0.075914
0.000723741
-0.00163577
0.000898121
-0.429727
0.430465
0.000286837
-0.00238377
-0.608991
0.611088
0.00536899
-0.00875309
-0.748233
0.751617
0.0126347
-0.0166152
-0.871622
0.875603
0.0206783
-0.024674
-0.995903
0.999899
0.0290998
-0.0326339
-1.13201
1.13555
0.0368242
-0.0401111
-1.27868
1.28196
0.0430116
-0.0450556
-1.43454
1.43659
0.0461052
-0.0453571
-1.59709
1.59634
0.0431646
-0.0395124
-1.48833
1.48468
0.0354321
-0.0300986
-1.1768
1.17146
0.0250133
-0.0194737
-0.944783
0.939244
0.0139505
-0.00846496
-0.750446
0.74496
0.00367046
0.000707813
-0.553454
0.549075
-0.00326464
0.00481974
-0.352245
0.35069
-0.00532701
0.00501077
-0.186092
0.186408
-0.00420316
0.00302576
-0.0762816
0.077459
-0.00196504
0.000944181
-0.0183929
0.0194138
-0.000298764
0.000464586
-0.000165822
-0.0773939
0.0768336
0.00056037
-0.000656135
-4.07086e-05
-0.433489
0.434186
0.00178008
-0.00374238
-0.614921
0.616883
0.00691614
-0.0101879
-0.754955
0.758227
0.0139355
-0.0175224
-0.879265
0.882852
0.0217182
-0.0254069
-1.00388
1.00757
0.0297907
-0.0337773
-1.13953
1.14352
0.0376233
-0.0412536
-1.28529
1.28893
0.0445995
-0.0467615
-1.43853
1.44069
0.0482227
-0.0482659
-1.59582
1.59586
0.0465099
-0.0434432
-1.48089
1.47782
0.0395951
-0.0348376
-1.16624
1.16149
0.0303487
-0.0251809
-0.933355
0.928187
0.0201818
-0.0148747
-0.738643
0.733336
0.0101461
-0.00547361
-0.543208
0.538536
0.00229569
-8.85394e-05
-0.346653
0.344446
-0.00120103
0.00168901
-0.185017
0.184529
-0.0016771
0.00133653
-0.0774171
0.0777577
-0.000940737
0.000498752
-0.0197546
0.0201966
-0.000176222
3.30336e-05
0.000143189
-0.0784353
0.0780546
0.000380701
0.000412734
-0.00130494
-0.437416
0.438308
0.00292454
-0.00519899
-0.620477
0.622752
0.00832059
-0.0114532
-0.761454
0.764586
0.0153032
-0.0187521
-0.886424
0.889872
0.0228002
-0.0266206
-1.01173
1.01555
0.0309273
-0.0348935
-1.14735
1.15132
0.0389793
-0.0426578
-1.29247
1.29615
0.0462114
-0.0491479
-1.44314
1.44607
0.0510801
-0.0514251
-1.59584
1.59618
0.0503313
-0.047614
-1.47466
1.47194
0.0444166
-0.0403685
-1.15679
1.15274
0.0361017
-0.0312841
-0.922791
0.917973
0.0265171
-0.0211853
-0.727342
0.72201
0.0165108
-0.0115171
-0.532894
0.5279
0.0078307
-0.00475015
-0.33996
0.336879
0.00278608
-0.00143447
-0.182259
0.180907
0.000581691
-9.23366e-05
-0.0769129
0.0764236
-0.000126322
0.000167937
-0.0200173
0.0199757
-9.51674e-05
-0.000159523
0.00025469
-0.0797117