/*--------------------------------*- C++ -*----------------------------------*\
  =========                 |
  \\      /  F ield         | OpenFOAM: The Open Source CFD Toolbox
   \\    /   O peration     | Website:  https://openfoam.org
    \\  /    A nd           | Version:  6
     \\/     M anipulation  |
\*---------------------------------------------------------------------------*/
FoamFile
{
    version     2.0;
    format      ascii;
    class       surfaceScalarField;
    location    "12";
    object      phi;
}
// * * * * * * * * * * * * * * * * * * * * * * * * * * * * * * * * * * * * * //

dimensions      [0 3 -1 0 0 0 0];

internalField   nonuniform List<scalar> 
17370
(
-0.0899784
0.089808
0.289181
-0.0713954
0.0536427
0.364528
-0.0379603
0.0274861
0.426642
-0.019404
0.0143699
0.504286
-0.0105569
0.00811745
0.601842
-0.006179
0.00482153
0.720415
-0.00364712
0.0028054
0.863748
-0.00206674
0.00151855
1.036
-0.00102077
0.000637463
1.24289
-0.000284183
-4.29739e-05
1.49152
0.000359066
-0.000728548
1.49156
0.00111416
-0.00160763
1.24318
0.00214907
-0.0028797
1.03637
0.00371494
-0.00488269
0.864074
0.00623503
-0.00816751
0.72099
0.010601
-0.0144065
0.60302
0.0194353
-0.0275135
0.507517
0.0379851
-0.0536641
0.431847
0.0714129
-0.0898196
0.365182
0.0899855
0.199025
-0.128186
0.0883366
0.0398497
-0.364651
0.353468
-0.0745123
0.0856953
-0.446523
0.454285
-0.0841804
0.076419
-0.521328
0.529943
-0.0684421
0.0598266
-0.612779
0.621652
-0.0516536
0.0427801
-0.726756
0.734148
-0.0351576
0.0277658
-0.86734
0.872416
-0.0221179
0.0170418
-1.03841
1.04176
-0.0132809
0.00992994
-1.24461
1.24692
-0.00742334
0.00511836
-1.49273
1.49462
-0.00325791
0.00137158
-1.49248
1.49415
0.000252736
-0.0019225
-1.24401
1.24584
0.00378708
-0.00561757
-1.03746
1.03994
0.00788915
-0.0103617
-0.865984
0.869703
0.0136671
-0.0173856
-0.724242
0.729859
0.0224203
-0.0280375
-0.608619
0.616227
0.0354067
-0.0430152
-0.515004
0.523151
0.051866
-0.0600135
-0.439976
0.447929
0.0685974
-0.07655
-0.375327
0.376818
0.0842908
-0.0857819
-0.257401
0.222702
0.0745708
-0.0398722
-0.0687634
0.0590626
0.00970074
-0.051116
0.0574814
-0.374272
0.367907
-0.0562956
0.0523282
-0.453453
0.45742
-0.0471475
0.043189
-0.527885
0.531843
-0.0394074
0.0358318
-0.621671
0.625247
-0.0317566
0.0276885
-0.735307
0.739375
-0.0231979
0.0191948
-0.87414
0.878143
-0.0151486
0.011727
-1.04326
1.04668
-0.00834016
0.00547215
-1.24832
1.25119
-0.00245804
-0.000461828
-1.49641
1.49933
0.00333911
-0.00630903
-1.497
1.49997
0.00914917
-0.0124943
-1.24986
1.25321
0.015865
-0.0198527
-1.04578
1.04976
0.0238013
-0.028235
-0.877701
0.882134
0.0322502
-0.0362713
-0.740102
0.744123
0.0398106
-0.043549
-0.626932
0.63067
0.0474706
-0.0526196
-0.534728
0.539877
0.0565502
-0.0576902
-0.457568
0.458708
0.0512741
-0.0314956
-0.336216
0.316438
0.00972657
-0.0686911
0.0589645
-0.053433
0.0496608
0.00377222
-0.0315689
0.0416346
-0.358752
0.348687
-0.0451548
0.0444697
-0.459648
0.460333
-0.0413377
0.0378792
-0.535885
0.539343
-0.0340264
0.0307951
-0.628478
0.63171
-0.027576
0.0248212
-0.742414
0.745169
-0.0219132
0.0191458
-0.88145
0.884218
-0.0159814
0.0129559
-1.04994
1.05297
-0.00954543
0.00633731
-1.25431
1.25752
-0.00273656
-0.000707117
-1.50265
1.5061
0.00413689
-0.00769658
-1.50335
1.50691
0.010832
-0.014152
-1.25659
1.25991
0.0170961
-0.0201683
-1.05331
1.05638
0.0228586
-0.0256834
-0.885468
0.888292
0.0283572
-0.031493
-0.747315
0.750451
0.0346377
-0.0384165
-0.634494
0.638273
0.0418163
-0.0448813
-0.544577
0.547642
0.0455042
-0.0419074
-0.45733
0.453733
0.0317562
-0.0152504
-0.297577
0.281072
0.00380039
-0.0533072
0.0495068
-0.0468783
0.0446824
0.00219587
-0.0204847
0.0298045
-0.338816
0.329496
-0.0349379
0.0358476
-0.459938
0.459028
-0.0348867
0.0330421
-0.541803
0.543648
-0.0307925
0.0284916
-0.634501
0.636802
-0.0257808
0.0232211
-0.747963
0.750523
-0.020255
0.0175638
-0.886929
0.889621
-0.0145724
0.0118
-1.05583
1.0586
-0.00866157
0.00570644
-1.26063
1.26359
-0.00231233
-0.000943032
-1.50943
1.51268
0.00417876
-0.00751772
-1.51041
1.51374
0.0103933
-0.013423
-1.26311
1.26614
0.0160708
-0.018917
-1.05931
1.06215
0.0214771
-0.0243062
-0.891208
0.894037
0.0267596
-0.029386
-0.753436
0.756063
0.0316029
-0.0337574
-0.641257
0.643412
0.0355314
-0.0364141
-0.549292
0.550175
0.035425
-0.030176
-0.448953
0.443704
0.0207308
-0.00896046
-0.267154
0.255383
0.00223409
-0.0466904
0.0444563
-0.0429275
0.0416191
0.0013084
-0.0125469
0.01998
-0.320942
0.313509
-0.0253906
0.0271473
-0.457786
0.456029
-0.0268594
0.0256179
-0.54522
0.546461
-0.0241368
0.0227325
-0.638541
0.639945
-0.0211363
0.0195282
-0.752717
0.754325
-0.0175722
0.0155208
-0.892064
0.894116
-0.0130592
0.0106601
-1.06119
1.06359
-0.00787072
0.00515022
-1.2664
1.26912
-0.00192952
-0.00130211
-1.51594
1.51917
0.00449187
-0.00760873
-1.51696
1.52008
0.0102119
-0.0128579
-1.26896
1.2716
0.0151159
-0.0174158
-1.06478
1.06708
0.0193147
-0.0211028
-0.89649
0.898278
0.0225656
-0.0239877
-0.758126
0.759548
0.0252716
-0.0266309
-0.645014
0.646373
0.0277534
-0.0278975
-0.550741
0.550885
0.0259957
-0.020412
-0.438222
0.432638
0.0128253
-0.00523765
-0.24563
0.238043
0.00135311
-0.0426624
0.0413093
-0.040781
0.0403377
0.000443321
-0.00553894
0.0101299
-0.307501
0.30291
-0.014701
0.017137
-0.453783
0.451347
-0.0179128
0.0176895
-0.547217
0.54744
-0.0169034
0.0160971
-0.64117
0.641976
-0.0151137
0.0141697
-0.755451
0.756395
-0.0130301
0.011844
-0.895635
0.896822
-0.0102911
0.00858404
-1.06565
1.06735
-0.00638598
0.00408253
-1.27167
1.27398
-0.00124919
-0.00160492
-1.52227
1.52513
0.0044205
-0.00713735
-1.52304
1.52575
0.00929141
-0.0112857
-1.27396
1.27596
0.0127833
-0.014106
-1.06884
1.07016
0.0150946
-0.0160113
-0.899436
0.900353
0.0167961
-0.017595
-0.760695
0.761493
0.0182314
-0.0188481
-0.647506
0.648123
0.0189266
-0.0179912
-0.550431
0.549495
0.0153951
-0.0106356
-0.427297
0.422537
0.00587411
-0.00212795
-0.232587
0.228841
0.000497511
-0.0404212
0.0399237
-0.040134
0.0400501
8.39209e-05
-0.00240178
0.0051469
-0.299429
0.296684
-0.00859102
0.0110064
-0.448933
0.446517
-0.0124523
0.013106
-0.547192
0.546538
-0.0133712
0.0134265
-0.642242
0.642186
-0.0132167
0.0126524
-0.757117
0.757681
-0.0117191
0.0106014
-0.897966
0.899084
-0.00906932
0.00741476
-1.06898
1.07063
-0.00532104
0.00317105
-1.27613
1.27828
-0.000573732
-0.00198015
-1.52774
1.5303
0.0045027
-0.0069863
-1.52828
1.53076
0.00896794
-0.0108369
-1.27782
1.27969
0.0122705
-0.0135431
-1.07144
1.07271
0.0144274
-0.0151359
-0.901185
0.901894
0.0154072
-0.0153623
-0.761722
0.761677
0.0151037
-0.0146221
-0.648124
0.647642
0.0137693
-0.0121041
-0.548197
0.546532
0.00947532
-0.005786
-0.418408
0.414719
0.00282202
-0.000870285
-0.226218
0.224266
0.000151322
-0.0396595
0.0395081
-0.0400267
0.0400244
2.38869e-06
-0.00133501
0.003341
-0.294387
0.292381
-0.00645579
0.00925972
-0.443961
0.441157
-0.0115629
0.0129396
-0.545526
0.54415
-0.0135673
0.013749
-0.64203
0.641848
-0.0135485
0.0130434
-0.758199
0.758704
-0.0121575
0.0110279
-0.900157
0.901287
-0.00944733
0.00767703
-1.07231
1.07408
-0.00539368
0.00301737
-1.28053
1.28291
-0.000159575
-0.00263667
-1.53296
1.53576
0.00536739
-0.00803664
-1.53332
1.53599
0.0101765
-0.0121563
-1.28158
1.28356
0.0136226
-0.0148606
-1.07391
1.07515
0.0156669
-0.0162069
-0.902426
0.902966
0.0164499
-0.0163005
-0.761599
0.761449
0.0158371
-0.0149099
-0.646905
0.645978
0.0132528
-0.0106448
-0.544458
0.54185
0.0075547
-0.00412651
-0.411232
0.407803
0.00184962
-0.000535902
-0.222714
0.2214
8.47812e-05
-0.0394105
0.0393257
-0.0400207
0.0400204
3.43926e-07
-0.000814723
0.00229721
-0.29062
0.289138
-0.00506441
0.00815294
-0.438117
0.435028
-0.0113758
0.0136596
-0.542306
0.540022
-0.0151244
0.0155429
-0.641493
0.641074
-0.0154956
0.0150257
-0.759286
0.759756
-0.0139789
0.0125592
-0.902591
0.904011
-0.0105683
0.00842192
-1.07606
1.07821
-0.00574023
0.00302544
-1.28546
1.28818
0.000240691
-0.00347765
-1.53877
1.54201
0.00664429
-0.00969526
-1.53886
1.54191
0.0121035
-0.0143638
-1.28571
1.28797
0.016083
-0.0175784
-1.07657
1.07806
0.0185414
-0.0191414
-0.903645
0.904245
0.0191862
-0.0188657
-0.761097
0.760776
0.0180654
-0.0161439
-0.644617
0.642695
0.0134781
-0.00985428
-0.53865
0.535026
0.00640935
-0.00326494
-0.404445
0.4013
0.00145585
-0.000472213
-0.220252
0.219269
0.000104031
-0.0392294
0.0391254
-0.0400345
0.040071
-3.64748e-05
-0.0002102
0.00102534
-0.287984
0.287169
-0.00288237
0.0053364
-0.432146
0.429692
-0.00835124
0.0108329
-0.537485
0.535004
-0.0129399
0.0140701
-0.640398
0.639268
-0.0143482
0.0139332
-0.760122
0.760537
-0.0128457
0.0114599
-0.905464
0.90685
-0.00953149
0.00742889
-1.0804
1.0825
-0.00477288
0.00205498
-1.29096
1.29368
0.00123097
-0.00448292
-1.54534
1.54859
0.00763717
-0.0106216
-1.54502
1.548
0.0129354
-0.0150588
-1.29023
1.29235
0.0166179
-0.0179134
-1.0795
1.0808
0.0187129
-0.0190577
-0.904633
0.904977
0.0189211
-0.0181114
-0.760427
0.759617
0.016433
-0.0138196
-0.640305
0.637691
0.0108969
-0.00741193
-0.531306
0.527821
0.0045414
-0.00223245
-0.39853
0.396221
0.00101062
-0.000355863
-0.218458
0.217804
9.03203e-05
-0.0390264
0.0389361
-0.0401327
0.0402147
-8.20387e-05
0.000253069
-8.88613e-06
-0.286655
0.286411
-0.000861822
0.00222757
-0.42779
0.426424
-0.00411081
0.00580841
-0.53287
0.531172
-0.00735579
0.00834188
-0.638105
0.637119
-0.00886769
0.00882224
-0.760782
0.760827
-0.00828376
0.0073739
-0.907999
0.908909
-0.00594717
0.00428899
-1.08441
1.08606
-0.00210912
-0.000171425
-1.29621
1.29849
0.00294213
-0.00565271
-1.55162
1.55433
0.00822508
-0.0106079
-1.55073
1.55311
0.0123797
-0.0138598
-1.2942
1.29568
0.0148191
-0.0154633
-1.08181
1.08245
0.0156483
-0.0154287
-0.905145
0.904925
0.0147463
-0.0134225
-0.758366
0.757042
0.0118082
-0.00959741
-0.635191
0.63298
0.0073303
-0.0048572
-0.524807
0.522334
0.00296835
-0.00152373
-0.394377
0.392932
0.000751711
-0.000296777
-0.217269
0.216814
8.26506e-05
-0.0388518
0.0387692
-0.0403152
0.0404292
-0.000113948
0.000583775
-0.000661604
-0.286367
0.286445
0.00046917
5.77366e-05
-0.425518
0.424991
-0.000918938
0.00176635
-0.529918
0.52907
-0.00258667
0.0031394
-0.636337
0.635785
-0.00346127
0.00347177
-0.760798
0.760788
-0.00315121
0.00255232
-0.909631
0.91023
-0.00155765
0.000355972
-1.08748
1.08868
0.00126288
-0.00297664
-1.30049
1.3022
0.0050522
-0.00703592
-1.55668
1.55866
0.00885478
-0.0104137
-1.55509
1.55664
0.0114579
-0.0122397
-1.2968
1.29759
0.0125979
-0.0126047
-1.08275
1.08275
0.0122821
-0.0116132
-0.904427
0.903758
0.0107259
-0.0094847
-0.755745
0.754504
0.00814622
-0.00651316
-0.631066
0.629433
0.00497046
-0.00338582
-0.520351
0.518767
0.00220402
-0.00127225
-0.39179
0.390859
0.000712126
-0.000314416
-0.216402
0.216004
9.37338e-05
-0.0386832
0.0385894
-0.0405588
0.0407015
-0.000142694
0.000816611
-0.00113936
-0.286648
0.286971
0.0013186
-0.00131065
-0.424758
0.42475
0.00113019
-0.000911663
-0.528567
0.528349
0.000702965
-0.000598441
-0.635463
0.635358
0.000619965
-0.000789994
-0.760853
0.761023
0.00116732
-0.00170149
-0.91077
0.911304
0.00250696
-0.00343872
-1.08972
1.09065
0.00466057
-0.00592307
-1.30367
1.30493
0.00741017
-0.00877257
-1.56031
1.56168
0.0099296
-0.0108275
-1.55785
1.55875
0.0113
-0.0114144
-1.298
1.29812
0.0112591
-0.0108298
-1.08253
1.0821
0.0102352
-0.00938782
-0.902986
0.902139
0.00847442
-0.00736279
-0.75333
0.752219
0.00628034
-0.00506468
-0.628038
0.626822
0.00398123
-0.0028941
-0.517478
0.516391
0.00205776
-0.00132963
-0.390059
0.389331
0.000814396
-0.000383915
-0.215599
0.215168
0.00011914
-0.0384844
0.0383653
-0.0408624
0.0410396
-0.000177234
0.00106007
-0.00154691
-0.287375
0.287862
0.00200756
-0.00232279
-0.424908
0.425224
0.00256978
-0.00276914
-0.528359
0.528558
0.0030055
-0.00327077
-0.63545
0.635716
0.00363655
-0.00405643
-0.761317
0.761736
0.00462642
-0.00525775
-0.911873
0.912504
0.00607633
-0.00693267
-1.09152
1.09238
0.00797135
-0.00897316
-1.30604
1.30704
0.0100673
-0.0109743
-1.56279
1.5637
0.011624
-0.0119503
-1.55934
1.55967
0.0119344
-0.0116836
-1.29804
1.29779
0.0111998
-0.0104827
-1.0815
1.08078
0.00969443
-0.0087346
-0.901229
0.900269
0.00780425
-0.00675747
-0.751151
0.750104
0.00580148
-0.00477978
-0.625731
0.624709
0.00389391
-0.00299881
-0.515431
0.514536
0.00226828
-0.001562
-0.38863
0.387924
0.000998921
-0.000484806
-0.214701
0.214187
0.000153336
-0.0382303
0.038077
-0.041243
0.041467
-0.000223979
0.00136229
-0.00202334
-0.288432
0.289093
0.00270848
-0.00327091
-0.425656
0.426219
0.0038306
-0.00433348
-0.528915
0.529418
0.00491039
-0.00548092
-0.636145
0.636716
0.00616427
-0.00685107
-0.762295
0.762982
0.00767648
-0.00849709
-0.913221
0.914041
0.00946098
-0.0103829
-1.09325
1.09417
0.0114069
-0.0123079
-1.30797
1.30887
0.0131849
-0.0137893
-1.56444
1.56504
0.0140755
-0.0139999
-1.55978
1.55971
0.0136428
-0.0130015
-1.29733
1.29669
0.0122463
-0.0112879
-1.07995
1.07899
0.010336
-0.00925151
-0.899252
0.898167
0.00825141
-0.00717034
-0.749053
0.747972
0.00621346
-0.0052125
-0.62372
0.622719
0.00434995
-0.00346302
-0.513667
0.51278
0.00270255
-0.00191582
-0.387189
0.386403
0.00124806
-0.000613208
-0.213618
0.212983
0.000195641
-0.0379048
0.0377092
-0.0417245
0.0420109
-0.00028643
0.00174901
-0.00261566
-0.289847
0.290714
0.00354512
-0.00434515
-0.426879
0.42768
0.00517289
-0.00593279
-0.530062
0.530822
0.00680424
-0.00765398
-0.637451
0.638301
0.00864941
-0.00962204
-0.763822
0.764795
0.0107506
-0.0118273
-0.914973
0.916049
0.013032
-0.0141222
-1.09515
1.09624
0.0152555
-0.0161736
-1.30976
1.31068
0.0169626
-0.0173772
-1.56553
1.56595
0.0173902
-0.0169816
-1.55946
1.55905
0.016313
-0.0153477
-1.29589
1.29492
0.0143226
-0.0131026
-1.0779
1.07668
0.0119471
-0.0106735
-0.896989
0.895715
0.00952887
-0.00831449
-0.746833
0.745619
0.00725302
-0.00614963
-0.621689
0.620585
0.00519659
-0.00420239
-0.511864
0.51087
0.00332551
-0.00238711
-0.385553
0.384614
0.00156769
-0.000774615
-0.212277
0.211484
0.000248428
-0.0374923
0.0372439
-0.0423388
0.0427092
-0.000370421
0.00225512
-0.00337641
-0.291691
0.292812
0.00458789
-0.0056373
-0.428592
0.429642
0.00674146
-0.00775732
-0.531758
0.532774
0.00892357
-0.0100687
-0.639359
0.640504
0.0114151
-0.0127263
-0.765942
0.767253
0.0142279
-0.0156271
-0.917244
0.918643
0.0171489
-0.0184872
-1.09739
1.09873
0.0198255
-0.0208479
-1.3116
1.31263
0.0216383
-0.0219333
-1.56628
1.56657
0.0217217
-0.0210038
-1.55847
1.55776
0.0200247
-0.0187121
-1.29378
1.29247
0.0173818
-0.015848
-1.07529
1.07376
0.0144289
-0.0128918
-0.894298
0.892761
0.0115281
-0.0100931
-0.744294
0.742859
0.00884306
-0.00754228
-0.619412
0.618111
0.00641207
-0.00522009
-0.50982
0.508628
0.00415401
-0.00299662
-0.383588
0.382431
0.00197539
-0.000979393
-0.210604
0.209608
0.000315802
-0.0369747
0.0366589
-0.0431322
0.0436127
-0.000480473
0.00291117
-0.00435058
-0.294082
0.295521
0.0058969
-0.00723083
-0.430863
0.432197
0.00862189
-0.0099114
-0.534064
0.535353
0.0114224
-0.0129376
-0.641915
0.64343
0.0147433
-0.0165022
-0.768723
0.770482
0.0184967
-0.0203185
-0.920147
0.921969
0.0222412
-0.0238779
-1.10015
1.10179
0.0254786
-0.0266638
-1.31366
1.31485
0.0275086
-0.0277139
-1.56678
1.56699
0.0272834
-0.0262344
-1.55686
1.55581
0.0249081
-0.0231927
-1.29094
1.28923
0.0214927
-0.0195667
-1.07201
1.07008
0.0178085
-0.015925
-0.891013
0.889129
0.0142675
-0.0125317
-0.741249
0.739513
0.01102
-0.00944005
-0.616707
0.615127
0.00805484
-0.00657649
-0.507377
0.505899
0.00524199
-0.00378474
-0.381175
0.379718
0.00249847
-0.00124172
-0.208514
0.207257
0.000402974
-0.0363295
0.0359266
-0.0441666
0.0447917
-0.000625076
0.00376631
-0.00561555
-0.297177
0.299026
0.00759043
-0.00927902
-0.433831
0.435519
0.0110305
-0.0126654
-0.537094
0.538729
0.014602
-0.0165755
-0.645252
0.647225
0.01895
-0.0212402
-0.772322
0.774613
0.0238041
-0.0261282
-0.923835
0.926159
0.0285805
-0.0306477
-1.10352
1.10559
0.032619
-0.0340187
-1.31604
1.31744
0.0349382
-0.0350425
-1.56709
1.56719
0.0343545
-0.0329093
-1.55454
1.55309
0.0311623
-0.0289539
-1.28725
1.28504
0.0267951
-0.024375
-1.06787
1.06545
0.022185
-0.0198581
-0.886943
0.884616
0.0178254
-0.0157082
-0.737507
0.73539
0.0138668
-0.0119346
-0.613396
0.611464
0.0102222
-0.0083668
-0.504383
0.502527
0.0066718
-0.00480953
-0.378184
0.376322
0.00316872
-0.00157431
-0.205906
0.204312
0.000512942
-0.0355287
0.0350158
-0.0455288
0.046359
-0.0008302
0.00494246
-0.00735437
-0.301194
0.303606
0.00991763
-0.0120921
-0.437661
0.439836
0.0143292
-0.0164295
-0.541019
0.54312
0.0189388
-0.0214999
-0.649558
0.652119
0.0245706
-0.027517
-0.776933
0.77988
0.0307968
-0.0337446
-0.92849
0.931437
0.0368152
-0.0393662
-1.10767
1.11022
0.0417307
-0.0433465
-1.31881
1.32042
0.0443165
-0.0442656
-1.56715
1.5671
0.0432394
-0.0412935
-1.55137
1.54943
0.0390196
-0.036195
-1.28251
1.27969
0.033462
-0.0304192
-1.06267
1.05963
0.0276806
-0.0247879
-0.881877
0.878985
0.0222774
-0.0196812
-0.732867
0.730271
0.017434
-0.0150779
-0.609289
0.606933
0.0129737
-0.0106614
-0.50066
0.498348
0.00851645
-0.00612247
-0.374456
0.372062
0.00400833
-0.0019723
-0.202655
0.200619
0.000638811
-0.0345342
0.0338954
-0.0473372
0.0484869
-0.00114976
0.00670056
-0.00991754
-0.306427
0.309644
0.0132693
-0.0160594
-0.442637
0.445427
0.0189007
-0.0216017
-0.546107
0.548808
0.0248706
-0.028214
-0.655086
0.65843
0.0321765
-0.0359299
-0.782817
0.786571
0.0400535
-0.0436986
-0.934342
0.937987
0.0474403
-0.0504919
-1.11276
1.11581
0.0532622
-0.0550792
-1.32198
1.3238
0.0560438
-0.0557455
-1.56684
1.56654
0.0542627
-0.0516761
-1.54713
1.54455
0.0487428
-0.0451549
-1.27647
1.27288
0.0417113
-0.0378941
-1.05615
1.05233
0.0344672
-0.0308556
-0.875573
0.871961
0.0277315
-0.024519
-0.727107
0.723894
0.0217548
-0.0188697
-0.604181
0.601296
0.0162849
-0.013416
-0.496009
0.49314
0.010713
-0.00769506
-0.369783
0.366765
0.00505255
-0.0024834
-0.19859
0.196021
0.000800022
-0.0333004
0.0325004
-0.0497828
0.051444
-0.00166121
0.00943495
-0.0138067
-0.313326
0.317698
0.0182055
-0.0217974
-0.44915
0.452742
0.0254441
-0.0289658
-0.552732
0.556254
0.0332485
-0.0375758
-0.662219
0.666546
0.0426173
-0.0472996
-0.790303
0.794986
0.0523586
-0.0567701
-0.941611
0.946022
0.0612354
-0.0647991
-1.11883
1.1224
0.0679272
-0.0698515
-1.32547
1.3274
0.0706618
-0.0699522
-1.56593
1.56522
0.067841
-0.0644365
-1.54151
1.53811
0.0606922
-0.0561816
-1.26882
1.26431
0.0518851
-0.0471385
-1.04801
1.04326
0.0428799
-0.0383881
-0.867746
0.863254
0.0345011
-0.0305126
-0.719967
0.715978
0.0270948
-0.0235478
-0.597834
0.594287
0.0203764
-0.016851
-0.49018
0.486654
0.0134971
-0.00969245
-0.363912
0.360107
0.00634038
-0.00311087
-0.193504
0.190275
0.000995912
-0.0317738
0.0307779
-0.0532011
0.0556893
-0.00248825
0.0137169
-0.0197287
-0.32258
0.328591
0.0255104
-0.0301674
-0.457742
0.462399
0.0349309
-0.0395996
-0.561386
0.566055
0.0452596
-0.0508541
-0.671398
0.676992
0.0572172
-0.0629925
-0.799732
0.805507
0.0691004
-0.0743066
-0.950446
0.955653
0.0794262
-0.0833631
-1.12585
1.12979
0.0866304
-0.0884273
-1.32905
1.33084
0.0888024
-0.0874169
-1.56404
1.56265
0.0844325
-0.0799883
-1.53411
1.52967
0.0752618
-0.0696631
-1.25923
1.25363
0.0643781
-0.0585624
-1.03793
1.03212
0.0533476
-0.0478369
-0.858082
0.852571
0.0430582
-0.0381475
-0.71114
0.706229
0.0339384
-0.0295812
-0.589959
0.585602
0.0256903
-0.0213485
-0.482888
0.478546
0.0171708
-0.0123784
-0.356507
0.351714
0.00808023
-0.00392542
-0.187165
0.18301
0.00124294
-0.0298875
0.0286445
-0.0581962
0.0621667
-0.00397056
0.0208121
-0.0292066
-0.335357
0.343751
0.036884
-0.0429822
-0.46929
0.475388
0.049261
-0.0554818
-0.572772
0.578993
0.0629171
-0.0700305
-0.683135
0.690248
0.0778534
-0.0847326
-0.811311
0.81819
0.0917905
-0.0976037
-0.960764
0.966578
0.103091
-0.107094
-1.13346
1.13746
0.110131
-0.111447
-1.33219
1.33351
0.110996
-0.108583
-1.56061
1.55819
0.104418
-0.0986686
-1.52449
1.51874
0.0927685
-0.0859138
-1.24735
1.24049
0.0795135
-0.0725078
-1.02563
1.01862
0.0662379
-0.0596048
-0.84629
0.839656
0.0538371
-0.0478829
-0.700314
0.69436
0.0427666
-0.0374775
-0.580216
0.574926
0.032744
-0.0273814
-0.473755
0.468393
0.0221278
-0.0159925
-0.347155
0.34102
0.0104294
-0.00503874
-0.179138
0.173747
0.00157406
-0.0275469
0.0259728
-0.0659085
0.0731462
-0.00723773
0.034566
-0.0469059
-0.35383
0.36617
0.0572966
-0.0650412
-0.484985
0.49273
0.0731096
-0.0811298
-0.587617
0.595637
0.0904039
-0.0988501
-0.697721
0.706167
0.107722
-0.115196
-0.824887
0.832361
0.122561
-0.128357
-0.972026
0.977822
0.133539
-0.136992
-1.14089
1.14435
0.13918
-0.139465
-1.33407
1.33436
0.137664
-0.133786
-1.55487
1.551
0.128092
-0.12077
-1.51209
1.50477
0.113511
-0.105264
-1.23287
1.22462
0.0976554
-0.0893929
-1.01089
1.00263
0.082023
-0.0742337
-0.832186
0.824396
0.0674435
-0.0604019
-0.68727
0.680228
0.0543287
-0.0480528
-0.568284
0.562008
0.0424237
-0.035911
-0.462295
0.455783
0.0292491
-0.0212626
-0.335094
0.327108
0.0138281
-0.00652965
-0.168813
0.161514
0.0019296
-0.0246197
0.0226901
-0.0801968
0.0834534
-0.00325659
0.0235502
-0.0339905
-0.381468
0.391909
0.0435503
-0.0513764
-0.50587
0.513696
0.0604142
-0.0701489
-0.605624
0.615358
0.0809582
-0.0905996
-0.71422
0.723861
0.101322
-0.110788
-0.839129
0.848596
0.12062
-0.129038
-0.982771
0.991189
0.137389
-0.144055
-1.14678
1.15345
0.149967
-0.153805
-1.33349
1.33733
0.155797
-0.155069
-1.54591
1.54518
0.151486
-0.145439
-1.49639
1.49034
0.138344
-0.129333
-1.21553
1.20652
0.120507
-0.109909
-0.993628
0.983029
0.100165
-0.0894224
-0.815778
0.805036
0.0797816
-0.0695167
-0.672046
0.661781
0.0602558
-0.050777
-0.554082
0.544604
0.0424735
-0.0328451
-0.447998
0.438369
0.0238115
-0.0145332
-0.31917
0.309891
0.00749813
-0.00243676
-0.154894
0.149832
0.000212405
-0.0209085
0.0206961
-0.0909899
0.0873911
0.00359876
0.000762419
-0.00658458
-0.40536
0.411182
0.0141048
-0.0208191
-0.526016
0.532731
0.0294456
-0.0379114
-0.625376
0.633842
0.0476252
-0.0564983
-0.733448
0.742321
0.0659825
-0.0745801
-0.857628
0.866226
0.0835332
-0.0909322
-0.999366
1.00677
0.0985069
-0.104242
-1.16007
1.1658
0.109306
-0.112332
-1.34103
1.34405
0.113318
-0.111885
-1.54377
1.54234
0.107771
-0.101386
-1.48361
1.47722
0.0939722
-0.084856
-1.19714
1.18802
0.0760796
-0.0660528
-0.972281
0.962254
0.0566602
-0.0462389
-0.793663
0.783242
0.0368953
-0.0272893
-0.649872
0.640266
0.0190456
-0.0105749
-0.532598
0.524127
0.00333214
0.00324336
-0.426537
0.419962
-0.00741702
0.00922549
-0.299201
0.297393
-0.00847823
0.00552202
-0.143104
0.14606
-0.00230979
-0.0190707
0.0213805
-0.0897928
0.0861156
0.00367719
-0.00678519
0.00425025
-0.42082
0.423355
0.000314945
-0.00573507
-0.542872
0.548292
0.0127925
-0.0200347
-0.642618
0.649861
0.0282756
-0.0358371
-0.750679
0.758241
0.0441288
-0.0515162
-0.874154
0.881541
0.0590303
-0.0656362
-1.01401
1.02062
0.0722526
-0.077415
-1.17121
1.17637
0.0816349
-0.0840156
-1.34662
1.349
0.0847965
-0.0832326
-1.5405
1.53893
0.0792517
-0.073315
-1.4706
1.46466
0.0666296
-0.0587236
-1.17922
1.17131
0.0508893
-0.0423014
-0.952403
0.943815
0.0343831
-0.0257555
-0.773478
0.764851
0.0183466
-0.0107797
-0.630391
0.622824
0.00456074
0.00168705
-0.514214
0.507966
-0.00646352
0.0103293
-0.411154
0.407289
-0.0120429
0.0112587
-0.291487
0.292271
-0.00858881
0.00501056
-0.145377
0.148955
-0.0019157
-0.0215754
0.0234911
-0.08714
0.0836567
0.00348329
-0.00942414
0.00880951
-0.430427
0.431041
-0.00601783
0.00162866
-0.556065
0.560454
0.00448519
-0.0105151
-0.656896
0.662926
0.0175228
-0.0239697
-0.765523
0.771969
0.0310105
-0.0373258
-0.88851
0.894825
0.0441477
-0.0497799
-1.02685
1.03249
0.0556489
-0.0598658
-1.18123
1.18545
0.063669
-0.065863
-1.35135
1.35355
0.0665164
-0.0649287
-1.53727
1.53568
0.0615845
-0.0565928
-1.45866
1.45367
0.0509541
-0.0440583
-1.16373
1.15684
0.0376336
-0.0307214
-0.935615
0.928703
0.0243061
-0.0176912
-0.756956
0.750341
0.0117323
-0.00588586
-0.615115
0.609269
0.00112727
0.00323715
-0.50068
0.496316
-0.00630235
0.00855677
-0.400793
0.398539
-0.00927243
0.00778337
-0.287929
0.289418
-0.0056969
0.00320106
-0.148551
0.151047
-0.00123147
-0.0234586
0.0246901
-0.084583
0.0817294
0.00285362
-0.00953158
0.0100998
-0.436518
0.43595
-0.00797999
0.0045
-0.566993
0.570473
0.000488126
-0.00589963
-0.668959
0.67437
0.0118018
-0.0174795
-0.778043
0.783721
0.0235813
-0.029076
-0.900827
0.906322
0.0349483
-0.0400173
-1.03804
1.04311
0.0451074
-0.0491267
-1.18963
1.19365
0.0525924
-0.054644
-1.35555
1.3576
0.0553635
-0.0540674
-1.53419
1.5329
0.051252
-0.0468718
-1.44842
1.44404
0.0421112
-0.0364524
-1.15037
1.14471
0.0311232
-0.0252979
-0.922021
0.916195
0.0201225
-0.0147214
-0.743977
0.738576
0.0100825
-0.00547658
-0.603462
0.598856
0.00185928
0.0013713
-0.490811
0.487581
-0.00372924
0.00529961
-0.39377
0.3922
-0.00560854
0.00476857
-0.285801
0.286641
-0.00358002
0.00197581
-0.149692
0.151297
-0.000859805
-0.0242033
0.0250631
-0.082579
0.0802569
0.00232213
-0.00861191
0.0093603
-0.440427
0.439679
-0.00824774
0.00522417
-0.575526
0.57855
-0.00053463
-0.00405172
-0.679271
0.683857
0.00912805
-0.0140731
-0.788874
0.793819
0.0195255
-0.0244774
-0.9116
0.916552
0.0299138
-0.0344413
-1.04801
1.05254
0.039126
-0.0428692
-1.19749
1.20123
0.0461001
-0.0480664
-1.35951
1.36148
0.0488575
-0.0482017
-1.53169
1.53104
0.0458211
-0.0422136
-1.43952
1.43592
0.0380848
-0.0331609
-1.13918
1.13426
0.0287489
-0.0236084
-0.91057
0.90543
0.019119
-0.0145971
-0.733389
0.728867
0.0106618
-0.00674926
-0.594325
0.590413
0.00363007
-0.00067712
-0.48327
0.480317
-0.0011727
0.00256883
-0.388238
0.386842
-0.00328744
0.00297008
-0.283131
0.283448
-0.00232844
0.00139713
-0.149217
0.150148
-0.000652129
-0.0242961
0.0249482
-0.0811983
0.0794244
0.00177392
-0.00716112
0.00804172
-0.443265
0.442384
-0.00700249
0.0045514
-0.583062
0.585513
-0.000313792
-0.00379858
-0.688235
0.692347
0.00861064
-0.0128895
-0.798579
0.802857
0.0176978
-0.0221174
-0.921558
0.925977
0.0273361
-0.0315319
-1.05719
1.06138
0.0358074
-0.0394733
-1.20491
1.20858
0.0429968
-0.0449905
-1.36359
1.36558
0.0460635
-0.0456124
-1.53012
1.52967
0.0438947
-0.0405051
-1.43223
1.42884
0.0369675
-0.0326735
-1.12932
1.12502
0.0285715
-0.024087
-0.900458
0.895974
0.0199714
-0.0156811
-0.724213
0.719923
0.0123004
-0.00862368
-0.586337
0.58266
0.00561413
-0.00297609
-0.476566
0.473928
0.00102671
0.0006079
-0.383364
0.38173
-0.00144718
0.00158126
-0.280148
0.280014
-0.00140646
0.000964121
-0.147819
0.148261
-0.000514811
-0.0240451
0.0245599
-0.0804645
0.0790802
0.00138431
-0.00573626
0.00664431
-0.445522
0.444614
-0.00556455
0.00314569
-0.589631
0.59205
0.000708221
-0.00437417
-0.696297
0.699963
0.00851534
-0.0126508
-0.807244
0.81138
0.0171191
-0.0217038
-0.930294
0.934879
0.0262706
-0.0303327
-1.06574
1.0698
0.0348096
-0.0383369
-1.21224
1.21577
0.0415002
-0.0439989
-1.3676
1.3701
0.0453755
-0.0453213
-1.52936
1.52931
0.043868
-0.0411055
-1.42565
1.42289
0.0378949
-0.0338897
-1.12043
1.11643
0.0301004
-0.0258345
-0.891368
0.887102
0.0219352
-0.0179796
-0.715672
0.711717
0.0144351
-0.0109253
-0.578777
0.575268
0.00805824
-0.00520812
-0.470464
0.467614
0.0030635
-0.00148622
-0.378323
0.376746
0.000364256
0.000277716
-0.276692
0.27605
-0.000595795
0.000578255
-0.145834
0.145851
-0.000403778
-0.0235898
0.0239936
-0.0803196
0.0791531
0.00116647
-0.00421227
0.00479091
-0.447611
0.447033
-0.00379448
0.00143581
-0.595666
0.598025
0.00199349
-0.00549479
-0.703774
0.707275
0.00945867
-0.0132176
-0.815447
0.819206
0.0178135
-0.0216617
-0.938978
0.942826
0.0262226
-0.0301482
-1.07407
1.078
0.0345644
-0.0383381
-1.21935
1.22313
0.0418838
-0.0442704
-1.3725
1.37488
0.0460717
-0.0464582
-1.52927
1.52966
0.0456296
-0.0431177
-1.41998
1.41747
0.0402169
-0.0364221
-1.11244
1.10865
0.032798
-0.0285709
-0.882555
0.878328
0.0248167
-0.0207659
-0.707464
0.703413
0.017222
-0.0135986
-0.571471
0.567848
0.0105207
-0.00772075
-0.464149
0.461349
0.00533384
-0.00344983
-0.373143
0.371259
0.00196163
-0.000958294
-0.272716
0.271713
0.000246609
0.000258006
-0.143243
0.142738
-0.000300712
-0.0229206
0.0232213
-0.0804678
0.0796251
0.000842663
-0.00292635
0.00294932
-0.44993
0.449907
-0.00209636
-0.000205525
-0.600945
0.603247
0.00323263
-0.00658302
-0.710702
0.714053
0.0103716
-0.0142491
-0.822939
0.826817
0.0182619
-0.0222713
-0.946921
0.950931
0.026809
-0.0305599
-1.08238
1.08613
0.035106
-0.0388897
-1.22677
1.23055
0.0425716
-0.0455639
-1.37777
1.38076
0.0479311
-0.0486566
-1.5302
1.53093
0.048062
-0.0461481
-1.4151
1.41319
0.0436291
-0.0399653
-1.10464
1.10097
0.036335
-0.0323081
-0.873909
0.869882
0.0281906
-0.0242019
-0.699005
0.695017
0.0205632
-0.0167227
-0.564103
0.560262
0.0136257
-0.0104929
-0.457616
0.454483
0.00795117
-0.00555829
-0.367806
0.365413
0.00383478
-0.00236816
-0.268245
0.266778
0.00109321
-0.000129303
-0.140071
0.139108
-0.000209556
-0.0220254
0.0222349
-0.0810091
0.0803153
0.000693895
-0.00191201
0.00190313
-0.452517
0.452526
-0.000491443
-0.00148801
-0.606239
0.608219
0.00459642
-0.0077923
-0.717113
0.720309
0.01142
-0.0149138
-0.830467
0.833961
0.0190454
-0.0227522
-0.954984
0.958691
0.0272361
-0.0314149
-1.09035
1.09453
0.0356396
-0.0397782
-1.23443
1.23857
0.0439223
-0.0470798
-1.38372
1.38688
0.0499282
-0.0514943
-1.53198
1.53355
0.0513656
-0.0500095
-1.4112
1.40985
0.0475879
-0.0441771
-1.09726
1.09385
0.0407171
-0.0365601
-0.865336
0.861179
0.0325092
-0.0282945
-0.690406
0.686191
0.0244945
-0.0203774
-0.556122
0.552005
0.0169467
-0.0136267
-0.450704
0.447384
0.0106567
-0.00791528
-0.361814
0.359073
0.0057444
-0.00375755
-0.263063
0.261076
0.00208132
-0.000624966
-0.136281
0.134824
-5.87384e-05
-0.0209575
0.0210162
-0.081795
0.0812543
0.00054073
-0.000852836
0.000591451
-0.455261
0.455522
0.000667353
-0.00278459
-0.611067
0.613184
0.00575282
-0.00876522
-0.723245
0.726258
0.0124479
-0.0157858
-0.837497
0.840835
0.0197551
-0.0235632
-0.962887
0.966695
0.0279448
-0.0320854
-1.09859
1.10273
0.0365323
-0.0407262
-1.24267
1.24686
0.0450991
-0.0490354
-1.39037
1.39431
0.0523926
-0.0543438
-1.53517
1.53712
0.0549771
-0.0539912
-1.40849
1.4075
0.0520786
-0.049063
-1.09034
1.08732
0.0455212
-0.0413714
-0.856612
0.852462
0.0372584
-0.0327202
-0.681461
0.676922
0.0287684
-0.024333
-0.547786
0.54335
0.0206415
-0.0168071
-0.443312
0.439478
0.0136083
-0.010488
-0.355185