/*--------------------------------*- C++ -*----------------------------------*\
  =========                 |
  \\      /  F ield         | OpenFOAM: The Open Source CFD Toolbox
   \\    /   O peration     | Website:  https://openfoam.org
    \\  /    A nd           | Version:  6
     \\/     M anipulation  |
\*---------------------------------------------------------------------------*/
FoamFile
{
    version     2.0;
    format      ascii;
    class       volScalarField;
    location    "92.2";
    object      p;
}
// * * * * * * * * * * * * * * * * * * * * * * * * * * * * * * * * * * * * * //

dimensions      [0 2 -2 0 0 0 0];

internalField   nonuniform List<scalar> 
8800
(
0.855396
0.806082
0.768118
0.740051
0.719893
0.705311
0.694719
0.687188
0.682315
0.680262
0.68165
0.686009
0.692814
0.702248
0.714992
0.732318
0.756199
0.789299
0.832238
0.884752
0.689886
0.696231
0.705383
0.708933
0.706327
0.700243
0.693307
0.687074
0.682283
0.679429
0.679216
0.681862
0.68652
0.69266
0.699769
0.706809
0.711693
0.711572
0.704901
0.696005
0.663391
0.669628
0.67413
0.678005
0.680957
0.681912
0.680831
0.67872
0.676754
0.675933
0.676987
0.67946
0.682362
0.684645
0.685175
0.683394
0.680034
0.676026
0.671248
0.667532
0.659076
0.661843
0.664452
0.666613
0.668356
0.669931
0.671043
0.671408
0.671312
0.671433
0.672263
0.673429
0.67419
0.674056
0.673093
0.671748
0.670086
0.66779
0.665383
0.663817
0.654
0.655426
0.657269
0.659354
0.661073
0.662375
0.663484
0.664479
0.665309
0.666074
0.666816
0.667305
0.667353
0.667009
0.666357
0.665255
0.663609
0.661723
0.660374
0.659571
0.648983
0.649887
0.651138
0.65277
0.654472
0.656015
0.657313
0.658455
0.659545
0.660597
0.661422
0.661848
0.661888
0.661546
0.660764
0.659592
0.658244
0.656989
0.656172
0.655648
0.644042
0.644698
0.645664
0.646989
0.648446
0.649977
0.651479
0.652868
0.654163
0.655411
0.656411
0.656952
0.657009
0.656605
0.65585
0.65493
0.653956
0.653065
0.65249
0.652106
0.639171
0.639676
0.640467
0.641617
0.64293
0.644364
0.645896
0.647467
0.649019
0.650529
0.651747
0.652414
0.652544
0.652264
0.651736
0.651075
0.650362
0.649715
0.649295
0.648994
0.634315
0.634716
0.635382
0.636414
0.637661
0.639047
0.64058
0.642258
0.64404
0.645852
0.647346
0.648227
0.648568
0.648533
0.648258
0.647828
0.647329
0.64688
0.646572
0.646328
0.62939
0.629717
0.630297
0.631254
0.63246
0.633842
0.635421
0.637213
0.63921
0.641346
0.643201
0.644415
0.645066
0.645317
0.645297
0.64511
0.644818
0.644536
0.644313
0.644107
0.624306
0.624577
0.625098
0.626013
0.627209
0.628629
0.630297
0.63225
0.634503
0.637018
0.639324
0.640966
0.641993
0.642569
0.642829
0.642889
0.642807
0.642676
0.642522
0.642343
0.618969
0.619197
0.619681
0.620584
0.621813
0.623312
0.625115
0.627287
0.62987
0.632854
0.635711
0.637865
0.639331
0.640281
0.640858
0.641172
0.641313
0.641323
0.641226
0.641066
0.613281
0.613476
0.613942
0.614864
0.616165
0.617791
0.619786
0.622247
0.62525
0.628816
0.63234
0.635104
0.637086
0.638467
0.639405
0.640018
0.640384
0.640525
0.640476
0.640327
0.607134
0.607301
0.607768
0.608737
0.610151
0.611956
0.614211
0.617047
0.620575
0.624856
0.629187
0.632682
0.635275
0.637158
0.638512
0.639461
0.64007
0.640343
0.640335
0.640194
0.600399
0.600543
0.601025
0.60207
0.603644
0.605688
0.608284
0.611594
0.615775
0.620928
0.626233
0.630603
0.633923
0.636397
0.638226
0.639559
0.640444
0.640854
0.640885
0.640746
0.592927
0.593047
0.593558
0.59471
0.596494
0.59885
0.601878
0.605782
0.610768
0.616983
0.623462
0.628875
0.633053
0.636229
0.638625
0.640402
0.641597
0.642149
0.642214
0.642073
0.584525
0.584629
0.585173
0.586465
0.58852
0.59127
0.594842
0.599487
0.605465
0.612971
0.620858
0.627512
0.632703
0.636703
0.639782
0.64208
0.643622
0.644323
0.644419
0.644272
0.574906
0.575011
0.575624
0.577089
0.579495
0.582744
0.586997
0.592565
0.599763
0.608838
0.618409
0.626532
0.632918
0.637889
0.641767
0.644677
0.646612
0.647469
0.647591
0.647434
0.563776
0.563858
0.564557
0.566276
0.569128
0.573011
0.578124
0.584845
0.59355
0.604528
0.616109
0.625954
0.633742
0.639853
0.644653
0.648283
0.650653
0.651667
0.651808
0.651637
0.55072
0.55079
0.551598
0.55363
0.557046
0.561744
0.567957
0.576131
0.586703
0.59999
0.613954
0.62581
0.635212
0.642647
0.648524
0.652969
0.655804
0.656965
0.657115
0.656928
0.535142
0.535203
0.536163
0.538615
0.542776
0.548537
0.556173
0.566204
0.579106
0.595191
0.611958
0.626132
0.637373
0.646318
0.653413
0.658764
0.662078
0.663362
0.663506
0.663299
0.516208
0.516265
0.517448
0.520495
0.525672
0.53287
0.542396
0.554835
0.570665
0.59013
0.610155
0.626952
0.640259
0.65089
0.659325
0.665657
0.669419
0.670778
0.670895
0.670669
0.492697
0.492759
0.494294
0.498235
0.504874
0.51409
0.526209
0.54183
0.561349
0.584862
0.608614
0.628318
0.643891
0.65636
0.666237
0.673554
0.677674
0.679033
0.679102
0.678857
0.462691
0.462784
0.464933
0.470325
0.479257
0.49145
0.507241
0.527104
0.551234
0.579519
0.607447
0.630297
0.648279
0.662683
0.674071
0.682275
0.68658
0.687835
0.687834
0.687578
0.422945
0.423176
0.426593
0.434669
0.447479
0.464307
0.485349
0.510796
0.540565
0.574323
0.606808
0.632976
0.653436
0.669803
0.682663
0.691526
0.695756
0.696791
0.696708
0.696452
0.36727
0.368439
0.375275
0.388953
0.408555
0.432561
0.460887
0.493385
0.52977
0.569581
0.606872
0.636436
0.659366
0.677625
0.691773
0.700919
0.704735
0.705462
0.705304
0.70506
0.286704
0.294618
0.31037
0.334344
0.364108
0.397725
0.434905
0.475453
0.519109
0.56544
0.60784
0.641028
0.666625
0.686901
0.702029
0.711041
0.714233
0.714647
0.714447
0.714245
0.200852
0.218199
0.24379
0.278823
0.319297
0.362643
0.408654
0.457316
0.508474
0.561783
0.609946
0.647354
0.676137
0.698608
0.71455
0.722732
0.724979
0.725106
0.724937
0.724812
0.127148
0.148375
0.182177
0.226678
0.276634
0.32914
0.383737
0.440344
0.498778
0.558692
0.612129
0.653269
0.684768
0.708947
0.725024
0.732107
0.733651
0.733677
0.733547
0.733457
0.0666251
0.0902142
0.129649
0.180943
0.238289
0.298429
0.360575
0.424434
0.489621
0.555672
0.613922
0.658375
0.692126
0.717544
0.733536
0.739889
0.741097
0.741088
0.740979
0.740899
0.016368
0.0413746
0.0848812
0.141448
0.204695
0.271087
0.339627
0.409845
0.481125
0.552797
0.615464
0.662901
0.698618
0.725029
0.740891
0.746697
0.747717
0.747696
0.7476
0.747521
-0.0262382
-0.000402768
0.0461075
0.10694
0.175138
0.24685
0.320906
0.396723
0.473496
0.550322
0.617057
0.66719
0.704608
0.731781
0.747424
0.752824
0.753752
0.753746
0.753667
0.753584
-0.0632712
-0.0369015
0.0119461
0.0763125
0.148743
0.225099
0.304058
0.38493
0.466745
0.548379
0.618912
0.671514
0.710389
0.738082
0.753448
0.758549
0.759447
0.759484
0.759436
0.75935
-0.096255
-0.0694785
-0.0187167
0.0486654
0.124776
0.205231
0.288619
0.374154
0.460701
0.546923
0.621099
0.676027
0.716213
0.744282
0.75936
0.764227
0.765119
0.765218
0.76522
0.765139
-0.126254
-0.0991184
-0.0467376
0.0232818
0.102647
0.186763
0.274181
0.364053
0.455121
0.545802
0.62359
0.680816
0.722276
0.750715
0.76555
0.770221
0.771124
0.77129
0.77135
0.771282
-0.154116
-0.12661
-0.0727857
-0.00037831
0.0818875
0.169299
0.260408
0.35434
0.44975
0.544852
0.626307
0.68592
0.728721
0.757594
0.772298
0.776851
0.77774
0.777941
0.778047
0.777995
-0.180274
-0.152431
-0.0972883
-0.0227424
0.0621326
0.15253
0.247036
0.344779
0.444376
0.543914
0.629168
0.691324
0.735592
0.765036
0.779692
0.784155
0.784997
0.785197
0.785324
0.785287
-0.205243
-0.176984
-0.120624
-0.0441281
0.0431036
0.136218
0.233859
0.335182
0.438823
0.542816
0.632077
0.696965
0.742822
0.772907
0.787597
0.791987
0.792748
0.792908
0.79303
0.793006
-0.229195
-0.200516
-0.143013
-0.0647536
0.0246058
0.120197
0.220724
0.3254
0.432934
0.541403
0.634897
0.702765
0.750328
0.781078
0.795793
0.800065
0.800721
0.800813
0.800908
0.800905
-0.252311
-0.223189
-0.164626
-0.0847578
0.00652379
0.104356
0.207527
0.315323
0.426577
0.539513
0.637477
0.708652
0.758047
0.789393
0.804026
0.808094
0.808616
0.808625
0.80868
0.808685
-0.274723
-0.245126
-0.185557
-0.104222
-0.011226
0.0886312
0.194209
0.304886
0.419654
0.536994
0.63966
0.714537
0.765999
0.797812
0.812077
0.815815
0.816166
0.8161
0.816117
0.816119
-0.296531
-0.266409
-0.205849
-0.123189
-0.0286665
0.0729912
0.180744
0.29405
0.412101
0.533715
0.641276
0.720322
0.77423
0.806448
0.819979
0.823067
0.82319
0.823079
0.823073
0.823065
-0.317636
-0.287018
-0.225514
-0.141688
-0.0458111
0.0574505
0.167132
0.282818
0.403889
0.52959
0.642147
0.725873
0.782815
0.81561
0.827983
0.829896
0.829577
0.829472
0.829525
0.829514
-0.338047
-0.306955
-0.244576
-0.159713
-0.0626431
0.0420263
0.153417
0.271208
0.395023
0.524545
0.642109
0.731004
0.791763
0.825679
0.836755
0.836779
0.835409
0.835286
0.835675
0.835792
-0.357838
-0.326214
-0.263042
-0.177258
-0.0791294
0.0267674
0.139646
0.259273
0.385529
0.518552
0.640995
0.735484
0.800934
0.836947
0.847248
0.844984
0.841559
0.840954
0.842108
0.843003
-0.376892
-0.344786
-0.280881
-0.194282
-0.0952372
0.0117323
0.125887
0.247085
0.375469
0.51163
0.638668
0.739029
0.810025
0.849325
0.860191
0.856404
0.850429
0.847697
0.848061
0.848757
-0.395302
-0.362703
-0.298109
-0.21083
-0.111014
-0.00312804
0.112079
0.234577
0.364765
0.503699
0.634949
0.741356
0.818778
0.862489
0.875604
0.872218
0.864414
0.85655
0.848074
0.850417
-0.41301
-0.380031
-0.314871
-0.227098
-0.126752
-0.0181323
0.0978272
0.221295
0.352917
0.4942
0.629284
0.741844
0.826997
0.876301
0.892748
0.89167
0.881913
0.867207
0.845623
0.847277
-0.429902
-0.396756
-0.331019
-0.24291
-0.1422
-0.0329949
0.0833096
0.207526
0.340163
0.483272
0.62152
0.739479
0.833373
0.889182
0.907525
0.906938
0.895363
0.864694
0.808202
0.784574
-0.445879
-0.413874
-0.346161
-0.257836
-0.156561
-0.0472296
0.0688067
0.193543
0.326773
0.47106
0.611625
0.733474
0.83629
0.899379
0.914289
0.908088
0.883501
0.826086
0.763455
0.725637
-0.487734
-0.430741
-0.359997
-0.272826
-0.170604
-0.0618331
0.0544657
0.179209
0.312516
0.457156
0.599046
0.722924
0.831755
0.901649
0.908669
0.881595
0.821396
0.749104
0.67792
0.638628
-0.461706
-0.44305
-0.380998
-0.293164
-0.19242
-0.0838083
0.0319136
0.156233
0.289037
0.43303
0.574705
0.698523
0.800823
0.878228
0.850325
0.727185
0.627621
0.558473
0.490947
0.513285
-0.491581
-0.459823
-0.396897
-0.309519
-0.209141
-0.10064
0.0153545
0.139147
0.271146
0.413761
0.553379
0.674141
0.765187
0.8085
0.743759
0.592107
0.474589
0.395311
0.309857
0.350218
-0.514483
-0.480415
-0.415803
-0.32838
-0.228048
-0.119527
-0.00358656
0.119506
0.250291
0.390748
0.526749
0.641556
0.720419
0.72554
0.605628
0.440759
0.304459
0.206327
0.107963
0.134563
-0.53663
-0.501588
-0.435676
-0.347633
-0.247233
-0.138817
-0.0233654
0.0988173
0.228089
0.36584
0.496932
0.602552
0.663775
0.635022
0.464499
0.279763
0.114319
-0.0237274
-0.150996
-0.143291
-0.55842
-0.52306
-0.456307
-0.367719
-0.26721
-0.159023
-0.0442344
0.0768418
0.204234
0.338723
0.463788
0.559807
0.599656
0.521214
0.325146
0.121794
-0.0690334
-0.225907
-0.4322
-0.512224
-0.580544
-0.545308
-0.478093
-0.389146
-0.288524
-0.18055
-0.0663919
0.0534923
0.178796
0.309603
0.427898
0.514348
0.525974
0.396308
0.197513
-0.016601
-0.211805
-0.37485
-0.49875
-0.613894
-0.604065
-0.568809
-0.501389
-0.412297
-0.311712
-0.204075
-0.0906755
0.0277911
0.150581
0.276988
0.387766
0.46084
0.443265
0.277528
0.077799
-0.129976
-0.308478
-0.407023
-0.433092
-0.446331
-0.629118
-0.593858
-0.526323
-0.437261
-0.336921
-0.229823
-0.117467
-0.000786615
0.118952
0.240064
0.342819
0.396611
0.358886
0.163191
-0.0341746
-0.221599
-0.356638
-0.395096
-0.403718
-0.404049
-0.655991
-0.620584
-0.552938
-0.464026
-0.3641
-0.257809
-0.146801
-0.0323126
0.0838229
0.198827
0.292673
0.328667
0.256605
0.0582674
-0.132336
-0.295167
-0.371126
-0.385285
-0.386329
-0.386195
-0.684689
-0.649019
-0.581258
-0.492597
-0.393277
-0.288034
-0.178702
-0.0668193
0.0451994
0.153398
0.236958
0.256869
0.145536
-0.0373686
-0.217006
-0.345837
-0.375314
-0.376062
-0.376705
-0.376313
-0.714963
-0.679008
-0.611192
-0.522903
-0.424377
-0.320458
-0.213157
-0.104297
0.00313017
0.103901
0.177022
0.177116
0.0474595
-0.124744
-0.28344
-0.357428
-0.37243
-0.370808
-0.370624
-0.370278
-0.746263
-0.710204
-0.642482
-0.55472
-0.457218
-0.354932
-0.250025
-0.144633
-0.0421639
0.0507916
0.113269
0.0968144
-0.0422777
-0.201255
-0.328398
-0.366926
-0.366235
-0.366389
-0.366161
-0.365885
-0.778145
-0.742078
-0.674643
-0.587634
-0.491454
-0.391138
-0.289026
-0.187552
-0.0903824
-0.0049581
0.044531
0.0212491
-0.122916
-0.261695
-0.355344
-0.363409
-0.364032
-0.363846
-0.36358
-0.363338
-0.80964
-0.773762
-0.706954
-0.621014
-0.526532
-0.428595
-0.329691
-0.232556
-0.141096
-0.0624645
-0.0240956
-0.0541259
-0.191401
-0.30477
-0.360914
-0.371165
-0.364927
-0.363391
-0.362809
-0.362472
-0.839028
-0.803979
-0.738378
-0.653973
-0.561673
-0.466592
-0.371344
-0.278898
-0.193512
-0.121292
-0.0876785
-0.131413
-0.246636
-0.339122
-0.360441
-0.363844
-0.36454
-0.363898
-0.363465
-0.363192
-0.865134
-0.831222
-0.767519
-0.685308
-0.595811
-0.504181
-0.413098
-0.325646
-0.246373
-0.180909
-0.149266
-0.198055
-0.28761
-0.362089
-0.380731
-0.368864
-0.365002
-0.36368
-0.363222
-0.363067
-0.885301
-0.853393
-0.79262
-0.713498
-0.627629
-0.540172
-0.45384
-0.371725
-0.298395
-0.239462
-0.210234
-0.249884
-0.312632
-0.364922
-0.368652
-0.365102
-0.362254
-0.361425
-0.361246
-0.361134
-0.897492
-0.86839
-0.811613
-0.736798
-0.655595
-0.573177
-0.492246
-0.415893
-0.348471
-0.294276
-0.265939
-0.291527
-0.321644
-0.349809
-0.351709
-0.356907
-0.359363
-0.359997
-0.360195
-0.360144
-0.899017
-0.873837
-0.8224
-0.753361
-0.678077
-0.601728
-0.526891
-0.456686
-0.39534
-0.344864
-0.312527
-0.328602
-0.329899
-0.33288
-0.346766
-0.355437
-0.360165
-0.361988
-0.362636
-0.362782
-0.887533
-0.867134
-0.82285
-0.761443
-0.693599
-0.624445
-0.556456
-0.492555
-0.437352
-0.39267
-0.348096
-0.367002
-0.357329
-0.354508
-0.363943
-0.367841
-0.369571
-0.37033
-0.370591
-0.370714
-0.860789
-0.845874
-0.811105
-0.759816
-0.701104
-0.640332
-0.579901
-0.522399
-0.47283
-0.435742
-0.388482
-0.397133
-0.405887
-0.425747
-0.4041
-0.39055
-0.383059
-0.380177
-0.379251
-0.379073
-0.822232
-0.812725
-0.788341
-0.748744
-0.700601
-0.649127
-0.596624
-0.545694
-0.500815
-0.469726
-0.439477
-0.420564
-0.408791
-0.434547
-0.428015
-0.401876
-0.385082
-0.379717
-0.37887
-0.378544
-0.7789
-0.773485
-0.759482
-0.731308
-0.694175
-0.651652
-0.606773
-0.561884
-0.520925
-0.490939
-0.462742
-0.429578
-0.379709
-0.339668
-0.326359
-0.339754
-0.36298
-0.377835
-0.382264
-0.38249
-0.740654
-0.737352
-0.730696
-0.712825
-0.684702
-0.649777
-0.611298
-0.571037
-0.531943
-0.499844
-0.473929
-0.442137
-0.405624
-0.378607
-0.390232
-0.430676
-0.449877
-0.442664
-0.437277
-0.441
-0.713094
-0.711135
-0.707738
-0.697205
-0.675896
-0.646555
-0.612222
-0.57422
-0.53475
-0.499441
-0.472078
-0.45994
-0.494197
-0.570988
-0.657126
-0.713142
-0.723381
-0.688396
-0.636188
-0.620622
-0.69288
-0.692183
-0.691027
-0.685832
-0.670298
-0.644642
-0.611657
-0.573605
-0.53194
-0.489883
-0.459089
-0.438544
-0.452428
-0.516537
-0.608332
-0.631899
-0.622866
-0.597085
-0.559718
-0.540016
-0.681137
-0.680903
-0.680279
-0.677855
-0.667321
-0.643864
-0.610526
-0.570554
-0.524384
-0.472876
-0.429599
-0.375485
-0.328351
-0.295832
-0.311873
-0.321073
-0.284466
-0.231469
-0.184857
-0.161848
-0.673099
-0.672947
-0.672532
-0.67182
-0.665388
-0.644257
-0.610066
-0.566853
-0.514837
-0.45227
-0.388324
-0.305757
-0.180792
-0.0210706
0.13255
0.259599
0.36399
0.432834
0.47915
0.497977
-0.667932
-0.667883
-0.667751
-0.667587
-0.663735
-0.645986
-0.610851
-0.563446
-0.505538
-0.432313
-0.349165
-0.252614
-0.0685043
0.202747
0.500376
0.77048
0.958112
1.05542
1.08827
1.09569
-0.663806
-0.663819
-0.663786
-0.663716
-0.662375
-0.648373
-0.612916
-0.56185
-0.49869
-0.417878
-0.322657
-0.2183
-0.0189376
0.282662
0.610678
0.913678
1.14223
1.25761
1.29199
1.29875
-0.660184
-0.660281
-0.660349
-0.660347
-0.660249
-0.65023
-0.616326
-0.563326
-0.496734
-0.411892
-0.311463
-0.206881
-0.026711
0.250572
0.552107
0.826871
1.03256
1.14269
1.18593
1.19852
-0.657359
-0.657409
-0.657312
-0.657046
-0.657308
-0.650472
-0.620707
-0.569053
-0.500754
-0.414205
-0.315668
-0.218461
-0.0657854
0.179871
0.435857
0.663473
0.843018
0.949284
0.994916
1.0081
-0.65587
-0.65581
-0.655432
-0.65451
-0.653167
-0.650255
-0.626969
-0.579141
-0.50958
-0.42403
-0.333656
-0.247223
-0.131269
0.0749916
0.294594
0.479734
0.629561
0.72412
0.763281
0.773012
-0.657814
-0.65789
-0.657723
-0.656954
-0.655351
-0.654713
-0.63918
-0.592054
-0.521546
-0.441429
-0.359876
-0.284664
-0.198244
-0.0364687
0.141518
0.287801
0.403045
0.47601
0.504607
0.510604
-0.662459
-0.663267
-0.665561
-0.670691
-0.67709
-0.678415
-0.661162
-0.60613
-0.53592
-0.46409
-0.389822
-0.323464
-0.260138
-0.134428
0.00297785
0.111601
0.195622
0.246622
0.265773
0.26832
-0.665748
-0.667165
-0.672147
-0.685392
-0.705366
-0.711434
-0.681989
-0.615992
-0.553004
-0.490465
-0.420085
-0.361703
-0.314425
-0.223449
-0.120618
-0.0418293
0.0173399
0.0508841
0.0621176
0.0630425
-0.674831
-0.675942
-0.679417
-0.684845
-0.691974
-0.69728
-0.663119
-0.614647
-0.572382
-0.515207
-0.447299
-0.396667
-0.357181
-0.288958
-0.216326
-0.163935
-0.127276
-0.106978
-0.100427
-0.0997301
-0.694758
-0.69532
-0.695363
-0.677585
-0.63156
-0.596005
-0.600626
-0.605583
-0.589466
-0.534544
-0.472867
-0.428797
-0.396812
-0.344887
-0.291297
-0.255923
-0.233668
-0.223055
-0.219363
-0.21909
-0.7185
-0.717779
-0.713998
-0.683539
-0.613315
-0.555645
-0.574326
-0.619676
-0.609437
-0.55132
-0.495534
-0.457064
-0.42757
-0.386573
-0.346208
-0.320438
-0.303998
-0.295227
-0.292139
-0.291685
-0.757317
-0.754275
-0.758279
-0.761278
-0.751673
-0.718423
-0.707483
-0.700999
-0.649967
-0.572808
-0.517253
-0.48066
-0.452297
-0.414635
-0.377334
-0.352273
-0.336238
-0.327685
-0.324175
-0.324021
-0.86023
-0.867347
-0.905097
-0.957244
-0.984159
-0.967644
-0.917883
-0.831172
-0.707883
-0.598657
-0.537165
-0.495896
-0.468475
-0.434058
-0.39557
-0.367217
-0.346344
-0.334733
-0.330899
-0.331164
-0.995298
-1.01308
-1.05895
-1.1067
-1.13169
-1.11718
-1.05046
-0.913549
-0.740739
-0.616149
-0.545978
-0.497494
-0.474588
-0.439402
-0.398837
-0.367826
-0.344789
-0.331825
-0.32798
-0.328695
-1.05163
-1.06804
-1.09998
-1.13318
-1.15386
-1.1405
-1.06693
-0.89666
-0.722126
-0.607177
-0.526505
-0.484081
-0.466627
-0.428804
-0.388125
-0.359201
-0.338211
-0.327042
-0.323756
-0.324537
-0.97847
-0.991202
-1.0143
-1.04052
-1.05906
-1.04868
-0.978539
-0.811592
-0.667392
-0.560295
-0.481767
-0.45359
-0.435101
-0.399234
-0.366259
-0.343007
-0.326435
-0.317878
-0.315409
-0.316049
-0.792393
-0.804117
-0.82661
-0.854305
-0.876568
-0.871408
-0.80274
-0.684153
-0.577328
-0.481149
-0.427621
-0.400736
-0.381318
-0.35352
-0.329296
-0.313338
-0.303203
-0.298427
-0.296886
-0.297356
-0.528018
-0.53966
-0.563078
-0.594399
-0.622472
-0.625397
-0.58313
-0.517757
-0.450303
-0.392787
-0.360738
-0.331269
-0.317498
-0.297261
-0.281503
-0.272557
-0.266993
-0.264251
-0.263366
-0.263866
-0.248147
-0.256978
-0.276705
-0.30735
-0.340567
-0.362447
-0.361607
-0.34793
-0.322888
-0.303099
-0.277144
-0.260799
-0.250376
-0.234676
-0.227014
-0.222622
-0.219328
-0.217598
-0.217297
-0.217938
-0.0369604
-0.0427923
-0.0580571
-0.0854008
-0.123488
-0.16432
-0.197128
-0.21496
-0.217709
-0.210429
-0.199652
-0.191203
-0.183919
-0.176628
-0.172214
-0.169404
-0.166828
-0.165613
-0.165663
-0.166379
0.0663011
0.0621456
0.050349
0.0267255
-0.00839008
-0.0505035
-0.0910636
-0.118614
-0.1308
-0.134973
-0.132498
-0.124653
-0.123675
-0.120124
-0.11782
-0.115492
-0.113345
-0.112695
-0.113159
-0.113907
0.0766385
0.0735955
0.0652393
0.0488631
0.0234766
-0.00574787
-0.0326479
-0.0527753
-0.0652324
-0.0687587
-0.069319
-0.067398
-0.070149
-0.066608
-0.0646444
-0.0627927
-0.0611499
-0.0608851
-0.0616839
-0.0624216
0.0259633
0.0253453
0.0240886
0.0198645
0.0130116
0.00477723
-0.0026684
-0.00868529
-0.0116676
-0.0129013
-0.0137847
-0.0146664
-0.0134504
-0.013982
-0.0138521
-0.015022
-0.0156945
-0.0160471
-0.0146787
-0.0139989
-0.016401
0.16913
0.338912
0.481994
0.595332
0.683548
0.756117
0.814888
0.829154
0.826076
0.265883
0.384421
0.495213
0.590666
0.67039
0.735717
0.78698
0.821606
0.840195
0.857058
0.456686
0.535357
0.613004
0.680921
0.738567
0.786254
0.823849
0.852673
0.874444
0.893717
0.597809
0.653736
0.709945
0.760302
0.803717
0.840672
0.87176
0.897907
0.917878
0.936784
0.711961
0.754079
0.795856
0.834981
0.869971
0.900959
0.928106
0.951174
0.968962
0.987047
0.807197
0.842174
0.876608
0.909638
0.940124
0.967776
0.992245
1.01284
1.02847
1.04595
0.894319
0.925847
0.957622
0.988385
1.01702
1.04308
1.06596
1.08472
1.09852
1.11553
0.980482
1.0128
1.04493
1.07589
1.10445
1.13005
1.15202
1.16943
1.18172
1.19823
1.07441
1.11075
1.14536
1.17767
1.20669
1.23191
1.25291
1.26911
1.28066
1.29678
1.18729
1.228
1.26488
1.29764
1.32599
1.34988
1.36943
1.38464
1.39649
1.41254
1.32873
1.36963
1.4048
1.43426
1.45938
1.48093
1.49939
1.51484
1.52792
1.54386
1.50007
1.5321
1.55903
1.58137
1.60143
1.62012
1.63784
1.65459
1.66949
1.6852
1.68617
1.70337
1.72046
1.73713
1.75322
1.76795
1.78184
1.79631
1.81154
1.82883
1.86954
1.87946
1.89263
1.90361
1.91302
1.92267
1.93327
1.94343
1.95272
1.97838
2.08736
2.08165
2.0687
2.05445
2.04814
2.05384
2.07198
2.1005
2.13427
2.17059
2.39017
2.25423
2.17472
2.13217
2.11484
2.11882
2.14625
2.20411
2.31177
2.49018
0.759088
0.752786
0.745059
0.733948
0.720383
0.707743
0.697359
0.689366
0.683676
0.680384
0.680084
0.682967
0.68824
0.695628
0.705199
0.717045
0.730618
0.743555
0.75255
0.760093
0.668143
0.674064
0.682139
0.688277
0.691352
0.69085
0.687779
0.683804
0.680246
0.678003
0.677924
0.680233
0.684031
0.688511
0.692637
0.6949
0.693839
0.689212
0.682163
0.674332
0.661371
0.663744
0.667015
0.669794
0.672253
0.674454
0.67565
0.675527
0.674624
0.673864
0.674141
0.675619
0.677452
0.678719
0.678673
0.677228
0.675086
0.672736
0.669762
0.666748
0.65655
0.657638
0.65956
0.661905
0.663788
0.665201
0.666439
0.667459
0.668099
0.668533
0.66916
0.669977
0.670503
0.670431
0.669838
0.668942
0.667631
0.665676
0.663579
0.662104
0.651484
0.652117
0.653251
0.655018
0.656875
0.658487
0.659762
0.660859
0.661888
0.662852
0.663725
0.664333
0.664542
0.664391
0.663897
0.662956
0.661553
0.659962
0.658636
0.657837
0.646505
0.646944
0.647737
0.649053
0.650592
0.652177
0.653684
0.65502
0.65623
0.657397
0.658453
0.65916
0.659426
0.659258
0.658647
0.657689
0.656567
0.655446
0.654557
0.654026
0.641603
0.64193
0.642547
0.643631
0.644947
0.646373
0.647887
0.649409
0.650867
0.652264
0.653535
0.654408
0.654741
0.65458
0.654049
0.653317
0.652511
0.651685
0.65104
0.650652
0.636749
0.637002
0.637502
0.638429
0.639626
0.640967
0.642431
0.644016
0.645675
0.647349
0.648895
0.649969
0.650441
0.650447
0.650147
0.649666
0.649083
0.648492
0.648031
0.647734
0.63187
0.632071
0.632488
0.633308
0.634432
0.635732
0.637192
0.638834
0.64065
0.642593
0.644464
0.645835
0.646575
0.64685
0.646812
0.646575
0.646211
0.645821
0.645503
0.64527
0.626877
0.627039
0.627398
0.628148
0.629231
0.630521
0.632022
0.633762
0.635758
0.637987
0.640245
0.642021
0.643125
0.643725
0.643969
0.643984
0.643851
0.643648
0.643448
0.643262
0.621679
0.621809
0.622127
0.622836
0.623909
0.625234
0.626815
0.628703
0.630935
0.633516
0.636246
0.638521
0.640063
0.641039
0.641606
0.641895
0.641993
0.641974
0.641877
0.641728
0.61618
0.616284
0.616575
0.617268
0.618368
0.619771
0.62148
0.623571
0.626112
0.629139
0.632448
0.635322
0.637381
0.638793
0.639728
0.640318
0.640674
0.640836
0.64083
0.640707
0.610277
0.610359
0.610635
0.611337
0.612498
0.614023
0.615917
0.618281
0.621218
0.6248
0.628817
0.632411
0.635084
0.637006
0.638363
0.639314
0.639943
0.640285
0.640361
0.640259
0.603853
0.603915
0.604185
0.60492
0.606179
0.607874
0.610017
0.612738
0.616174
0.620439
0.625316
0.629778
0.633184
0.635708
0.637552
0.638906
0.639848
0.640388
0.640543
0.640457
0.596767
0.59681
0.597084
0.597873
0.59927
0.60119
0.603659
0.606833
0.610892
0.615996
0.621915
0.627417
0.631694
0.634933
0.637354
0.63917
0.640473
0.641227
0.64146
0.641386
0.588864
0.588882
0.589158
0.590025
0.591603
0.593814
0.596695
0.600438
0.60527
0.611402
0.618582
0.625329
0.630638
0.634717
0.637827
0.640198
0.64191
0.642897
0.643207
0.643141
0.579874
0.579885
0.580188
0.581158
0.582971
0.585549
0.588951
0.593405
0.599194
0.606583
0.615283
0.623513
0.630044
0.635114
0.639032
0.642068
0.644251
0.645492
0.645879
0.645816
0.569535
0.56952
0.569865
0.570989
0.573103
0.576151
0.58021
0.585555
0.59253
0.601457
0.611989
0.621975
0.629945
0.636181
0.641053
0.644857
0.647586
0.649102
0.649563
0.649497
0.557492
0.557456
0.557851
0.559162
0.561656
0.565308
0.570204
0.576673
0.585127
0.595939
0.608671
0.620729
0.630373
0.63797
0.64396
0.648648
0.651995
0.653797
0.654322
0.654249
0.543233
0.543174
0.543651
0.545215
0.548197
0.552628
0.558603
0.566509
0.576821
0.589948
0.605312
0.619795
0.631366
0.64052
0.647808
0.653502
0.657523
0.659609
0.660181
0.660094
0.526054
0.525973
0.526578
0.528499
0.532134
0.537603
0.544999
0.554772
0.567446
0.583426
0.601919
0.619201
0.632963
0.643877
0.652608
0.659432
0.664169
0.666507
0.667098
0.666988
0.504942
0.504845
0.505657
0.508095
0.512653
0.519561
0.528898
0.541156
0.556866
0.57636
0.598538
0.618994
0.635199
0.648059
0.658367
0.666419
0.671853
0.674374
0.674942
0.674802
0.47836
0.478264
0.479427
0.482674
0.488635
0.497643
0.509741
0.52539
0.545025
0.568814
0.595263
0.619249
0.638105
0.653061
0.665063
0.674372
0.680398
0.68298
0.683474
0.6833
0.443819
0.443777
0.445572
0.450212
0.458536
0.470867
0.487037
0.507357
0.532026
0.560967
0.592255
0.620074
0.641723
0.658866
0.672607
0.683108
0.689511
0.69198
0.692346
0.692138
0.396895
0.397081
0.40028
0.407862
0.420596
0.438398
0.460636
0.487274
0.518206
0.553131
0.589732
0.621592
0.646109
0.665435
0.680882
0.692367
0.698781
0.700921
0.701121
0.700891
0.329309
0.330769
0.33857
0.352951
0.373835
0.400365
0.43117
0.465843
0.50415
0.54572
0.587936
0.623909
0.651275
0.67269
0.689604
0.701656
0.70764
0.709254
0.709291
0.709069
0.248611
0.251457
0.266656
0.291519
0.323585
0.360409
0.400458
0.443567
0.489622
0.538338
0.586851
0.627681
0.658587
0.68264
0.701101
0.713231
0.718502
0.71966
0.719638
0.719506
0.165932
0.173345
0.196196
0.231522
0.274383
0.321273
0.370556
0.422127
0.475942
0.531766
0.586507
0.632096
0.666407
0.692997
0.712894
0.724608
0.728672
0.729262
0.729194
0.729117
0.0982481
0.107747
0.135449
0.178175
0.22948
0.284875
0.342455
0.401931
0.463105
0.525643
0.586154
0.636017
0.673259
0.701859
0.722476
0.733547
0.736893
0.73731
0.73725
0.737198
0.0427253
0.0529741
0.0843692
0.13257
0.190238
0.2524
0.316918
0.3833
0.451115
0.519822
0.58564
0.639378
0.679201
0.709429
0.730541
0.741125
0.744014
0.744332
0.744283
0.744243
-0.00378534
0.0068078
0.0407327
0.0931872
0.156039
0.223802
0.294157
0.366496
0.440203
0.514512
0.585206
0.642479
0.6846
0.71622
0.737655
0.747789
0.750385
0.750664
0.750629
0.750597
-0.0437391
-0.0330022
0.00280188
0.0586569
0.12583
0.198392
0.273831
0.35143
0.430437
0.509884
0.585095
0.645623
0.689781
0.722526
0.744095
0.753832
0.756251
0.756532
0.756528
0.75651
-0.0788529
-0.0680762
-0.0308092
0.0278586
0.0987102
0.175445
0.255399
0.337764
0.421658
0.505911
0.585404
0.648982
0.694988
0.728642
0.750213
0.759595
0.7619
0.762215
0.762265
0.762273
-0.110403
-0.0996189
-0.0611904
-0.000102917
0.0739502
0.154365
0.238368
0.325106
0.413579
0.50243
0.58608
0.652625
0.700384
0.734858
0.756396
0.765481
0.767685
0.768042
0.768171
0.76822
-0.139417
-0.128607
-0.0891553
-0.0259218
0.0509824
0.134673
0.222335
0.313108
0.405913
0.499233
0.587006
0.656555
0.706093
0.741415
0.762972
0.771831
0.773971
0.774367
0.774558
0.774649
-0.166482
-0.15563
-0.115264
-0.0500991
0.0293505
0.115985
0.20698
0.301496
0.398408
0.496108
0.588061
0.660737
0.712164
0.748438
0.770141
0.778852
0.780931
0.781325
0.781547
0.781673
-0.192087
-0.181177
-0.139953
-0.0730318
0.00870929
0.0980043
0.192051
0.290044
0.390869
0.492868
0.589122
0.66511
0.718586
0.755921
0.77786
0.786495
0.788503
0.788851
0.789066
0.789211
-0.216622
-0.205565
-0.163535
-0.0949983
-0.0111878
0.0805135
0.17736
0.278586
0.383123
0.489356
0.590039
0.669582
0.72527
0.763738
0.785974
0.794545
0.796461
0.796725
0.796904
0.797039
-0.240226
-0.228996
-0.186198
-0.116191
-0.0305096
0.0633758
0.162775
0.266991
0.375036
0.48541
0.590649
0.674049
0.73216
0.77179
0.794271
0.80272
0.804497
0.804659
0.804778
0.804889
-0.263096
-0.251641
-0.208106
-0.136721
-0.0493565
0.0464928
0.14821
0.255178
0.366512
0.480895
0.590788
0.678386
0.739214
0.78003
0.802594
0.810747
0.812324
0.812375
0.812421
0.812508
-0.285238
-0.273576
-0.22933
-0.156658
-0.0677848
0.0298192
0.133629
0.243103
0.357488
0.475701
0.590297
0.68245
0.746413
0.788505
0.810861
0.818453
0.819705
0.819652
0.819644
0.819704
-0.306751
-0.29485
-0.249873
-0.176025
-0.0858233
0.0133374
0.119018
0.230757
0.347934
0.469753
0.589023
0.686082
0.753719
0.797387
0.819313
0.825852
0.826525
0.826351
0.826338
0.826389
-0.327519
-0.315445
-0.269753
-0.194848
-0.103468
-0.00292358
0.104394
0.218152
0.337855
0.463017
0.586831
0.689096
0.761062
0.806887
0.828375
0.833305
0.832813
0.832387
0.832522
0.832671
-0.347679
-0.335362
-0.288976
-0.213137
-0.120719
-0.0189597
0.0898103
0.205323
0.327277
0.455495
0.58362
0.691287
0.768274
0.817128
0.838696
0.84173
0.839226
0.837948
0.838408
0.839079
-0.367109
-0.354559
-0.307553
-0.230868
-0.137522
-0.0347135
0.0753192
0.192355
0.316257
0.447187
0.579321
0.692437
0.775092
0.828016
0.850771
0.852496
0.84753
0.844308
0.844709
0.846502
-0.385912
-0.373106
-0.325449
-0.248003
-0.153861
-0.0501393
0.0609849
0.179299
0.304866
0.438172
0.573911
0.692306
0.781174
0.839148
0.86447
0.866531
0.860013
0.853876
0.849684
0.843507
-0.403988
-0.390999
-0.342755
-0.264713
-0.169959
-0.0655098
0.0464891
0.165779
0.292704
0.428023
0.566989
0.690498
0.786368
0.850633
0.879816
0.884201
0.877823
0.86792
0.855129
0.855003
-0.421319
-0.408322
-0.359488
-0.280953
-0.185814
-0.0807987
0.0318486
0.15176
0.27971
0.416569
0.558283
0.686361
0.789687
0.861576
0.894964
0.902155
0.895871
0.884507
0.84842
0.810713
-0.43772
-0.42494
-0.37562
-0.296602
-0.201436
-0.0960221
0.017047
0.137355
0.265922