/*--------------------------------*- C++ -*----------------------------------*\
  =========                 |
  \\      /  F ield         | OpenFOAM: The Open Source CFD Toolbox
   \\    /   O peration     | Website:  https://openfoam.org
    \\  /    A nd           | Version:  6
     \\/     M anipulation  |
\*---------------------------------------------------------------------------*/
FoamFile
{
    version     2.0;
    format      ascii;
    class       volVectorField;
    location    "58.2";
    object      U;
}
// * * * * * * * * * * * * * * * * * * * * * * * * * * * * * * * * * * * * * //

dimensions      [0 1 -1 0 0 0 0];

internalField   nonuniform List<vector> 
8800
(
(0.987184 -0.0766669 0)
(1.00189 -0.0551933 0)
(0.999721 -0.0285528 0)
(1.00002 -0.0151502 0)
(1.00007 -0.008553 0)
(1.00008 -0.00505558 0)
(1.00005 -0.00301034 0)
(1.00002 -0.00170985 0)
(0.999999 -0.000804189 0)
(1.00006 -8.78895e-05 0)
(0.999987 0.000641213 0)
(0.999994 0.00140522 0)
(1.00002 0.00242797 0)
(1.00004 0.00400053 0)
(1.00004 0.0066319 0)
(1.00001 0.0113704 0)
(0.999893 0.020814 0)
(0.999148 0.038671 0)
(1.0071 0.072457 0)
(0.771213 0.0366611 0)
(0.363056 -0.0160186 0)
(1.0433 -0.0768237 0)
(1.08459 -0.0704601 0)
(1.04518 -0.0535609 0)
(1.02326 -0.0389179 0)
(1.01198 -0.0262459 0)
(1.00639 -0.01689 0)
(1.00358 -0.0103615 0)
(1.00214 -0.00570321 0)
(1.00145 -0.0020472 0)
(1.00131 0.00127554 0)
(1.00168 0.0046584 0)
(1.00265 0.00859408 0)
(1.00465 0.0139361 0)
(1.00859 0.0216448 0)
(1.01655 0.0326149 0)
(1.03246 0.0465316 0)
(1.06263 0.0616517 0)
(1.09187 0.0760946 0)
(0.838679 0.0565591 0)
(0.216816 -0.0024312 0)
(1.07587 -0.0501533 0)
(1.09986 -0.0483369 0)
(1.06461 -0.0404964 0)
(1.03998 -0.0336466 0)
(1.02386 -0.0261357 0)
(1.01408 -0.0185602 0)
(1.00854 -0.0117439 0)
(1.00558 -0.00587791 0)
(1.00433 -0.000460866 0)
(1.00468 0.00478779 0)
(1.0066 0.0101795 0)
(1.0106 0.0162801 0)
(1.01793 0.0233133 0)
(1.03053 0.0307811 0)
(1.05061 0.0378168 0)
(1.08032 0.0445051 0)
(1.10625 0.0513266 0)
(0.942551 0.0416079 0)
(0.216176 0.00246063 0)
(0.175123 -0.000818086 0)
(1.01762 -0.0355085 0)
(1.10516 -0.041418 0)
(1.07821 -0.0361107 0)
(1.0534 -0.0301865 0)
(1.03614 -0.0246246 0)
(1.02395 -0.0189082 0)
(1.01585 -0.0128352 0)
(1.011 -0.00664965 0)
(1.00881 -0.00031624 0)
(1.0094 0.00594061 0)
(1.01265 0.0119425 0)
(1.01887 0.0177874 0)
(1.02877 0.023371 0)
(1.04321 0.0286764 0)
(1.06373 0.0341692 0)
(1.09354 0.0401626 0)
(1.09342 0.0419356 0)
(0.827211 0.0229024 0)
(0.174044 0.000851736 0)
(0.153899 -0.000612156 0)
(0.95605 -0.0254887 0)
(1.10338 -0.0351801 0)
(1.0876 -0.0327165 0)
(1.06163 -0.0280777 0)
(1.04402 -0.0230718 0)
(1.03158 -0.0178394 0)
(1.02275 -0.0123164 0)
(1.01695 -0.00638517 0)
(1.01412 8.29458e-05 0)
(1.01481 0.00654901 0)
(1.01879 0.0124377 0)
(1.0258 0.0177453 0)
(1.03611 0.0226754 0)
(1.05068 0.0274391 0)
(1.07191 0.0319813 0)
(1.10007 0.0359267 0)
(1.06812 0.0339995 0)
(0.739651 0.014301 0)
(0.152274 0.000650272 0)
(0.139501 -0.000468575 0)
(0.899067 -0.019113 0)
(1.09566 -0.030144 0)
(1.09564 -0.0292696 0)
(1.06914 -0.0255539 0)
(1.05071 -0.0214321 0)
(1.0378 -0.0166754 0)
(1.02871 -0.0114039 0)
(1.02261 -0.00567054 0)
(1.01951 0.000652371 0)
(1.02015 0.00696647 0)
(1.02425 0.0126085 0)
(1.03139 0.0175886 0)
(1.04192 0.022067 0)
(1.05706 0.0260426 0)
(1.07925 0.0295229 0)
(1.1023 0.0321624 0)
(1.03607 0.0280809 0)
(0.673142 0.0101968 0)
(0.137207 0.00051252 0)
(0.128932 -0.000363356 0)
(0.849379 -0.0147562 0)
(1.08321 -0.0260252 0)
(1.10129 -0.0263408 0)
(1.07597 -0.0230754 0)
(1.05701 -0.0194543 0)
(1.04364 -0.0152297 0)
(1.0342 -0.0103211 0)
(1.02787 -0.00479876 0)
(1.02457 0.0013437 0)
(1.02508 0.00744648 0)
(1.02914 0.0128133 0)
(1.03639 0.0173867 0)
(1.04721 0.0212631 0)
(1.06275 0.0245756 0)
(1.08539 0.0275398 0)
(1.10142 0.0293114 0)
(1.00121 0.0235582 0)
(0.621374 0.00783086 0)
(0.125824 0.00041511 0)
(0.120857 -0.000282892 0)
(0.807124 -0.0116041 0)
(1.06786 -0.0224284 0)
(1.10477 -0.0237241 0)
(1.08219 -0.020876 0)
(1.06281 -0.0174697 0)
(1.04918 -0.0135534 0)
(1.03946 -0.0089935 0)
(1.03285 -0.00375397 0)
(1.02931 0.00216987 0)
(1.02965 0.00802843 0)
(1.03367 0.0130478 0)
(1.04099 0.0171517 0)
(1.05192 0.0205228 0)
(1.06767 0.023426 0)
(1.09064 0.0260945 0)
(1.09767 0.0269783 0)
(0.966011 0.0200091 0)
(0.579796 0.00629409 0)
(0.116761 0.000344473 0)
(0.114589 -0.000219954 0)
(0.771524 -0.00924825 0)
(1.051 -0.019266 0)
(1.10711 -0.0213081 0)
(1.08802 -0.0188318 0)
(1.06826 -0.0155739 0)
(1.05438 -0.0118289 0)
(1.04447 -0.00748147 0)
(1.03762 -0.00248438 0)
(1.03382 0.0031738 0)
(1.03395 0.00871881 0)
(1.03784 0.0133623 0)
(1.04511 0.017057 0)
(1.05605 0.0200419 0)
(1.072 0.0226264 0)
(1.09464 0.0249631 0)
(1.09111 0.0250397 0)
(0.931785 0.0172674 0)
(0.545399 0.00524399 0)
(0.109292 0.000293633 0)
(0.109692 -0.000169347 0)
(0.741636 -0.00742059 0)
(1.03369 -0.0164637 0)
(1.10849 -0.0190353 0)
(1.09356 -0.0168764 0)
(1.07352 -0.0137187 0)
(1.05937 -0.0100653 0)
(1.04928 -0.00584589 0)
(1.04221 -0.00103396 0)
(1.03812 0.00438238 0)
(1.03797 0.00961881 0)
(1.04165 0.0139007 0)
(1.04878 0.0172283 0)
(1.05969 0.0198705 0)
(1.07584 0.0221655 0)
(1.09735 0.0241309 0)
(1.08212 0.0234413 0)
(0.899097 0.0151805 0)
(0.516137 0.00451071 0)
(0.102938 0.00025783 0)
(0.105884 -0.000127344 0)
(0.716641 -0.00594775 0)
(1.01676 -0.0139517 0)
(1.10902 -0.0168366 0)
(1.09899 -0.0149499 0)
(1.07869 -0.0117992 0)
(1.06425 -0.00818712 0)
(1.05393 -0.00404601 0)
(1.04663 0.000640802 0)
(1.04224 0.00583812 0)
(1.04173 0.0107632 0)
(1.04509 0.0147027 0)
(1.05204 0.0176839 0)
(1.06293 0.0199838 0)
(1.07925 0.0220187 0)
(1.09874 0.0236067 0)
(1.0711 0.0221799 0)
(0.86807 0.0136325 0)
(0.490563 0.00400387 0)
(0.0973574 0.000234039 0)
(0.102975 -9.10105e-05 0)
(0.695895 -0.00471353 0)
(1.00082 -0.011662 0)
(1.10887 -0.0146885 0)
(1.10426 -0.0130075 0)
(1.08385 -0.00983668 0)
(1.0691 -0.00620474 0)
(1.05852 -0.00206629 0)
(1.05091 0.0025523 0)
(1.04613 0.0075875 0)
(1.0452 0.0122482 0)
(1.04821 0.0158618 0)
(1.05493 0.0185101 0)
(1.06576 0.0204845 0)
(1.08221 0.0222556 0)
(1.09915 0.0234147 0)
(1.05833 0.0212652 0)
(0.838543 0.0125315 0)
(0.467593 0.00366829 0)
(0.0922924 0.000219928 0)
(0.100845 -5.75937e-05 0)
(0.678928 -0.00363034 0)
(0.986311 -0.0095217 0)
(1.10822 -0.0124848 0)
(1.10932 -0.0109208 0)
(1.08908 -0.00769237 0)
(1.07399 -0.00398521 0)
(1.0631 0.000184999 0)
(1.05513 0.00478124 0)
(1.04987 0.00970389 0)
(1.04842 0.0141283 0)
(1.05099 0.017419 0)
(1.05745 0.0197166 0)
(1.06819 0.0213369 0)
(1.08468 0.0228422 0)
(1.09856 0.0236061 0)
(1.04398 0.020713 0)
(0.810208 0.0118103 0)
(0.446385 0.00346641 0)
(0.0875443 0.000213505 0)
(0.0994332 -2.49283e-05 0)
(0.665437 -0.00262942 0)
(0.973602 -0.00746014 0)
(1.10742 -0.0101886 0)
(1.11435 -0.00866201 0)
(1.09446 -0.00533733 0)
(1.07898 -0.00149609 0)
(1.06772 0.00279192 0)
(1.0593 0.00743235 0)
(1.05346 0.0122611 0)
(1.05138 0.0164427 0)
(1.05344 0.0194205 0)
(1.05957 0.02139 0)
(1.0702 0.0226611 0)
(1.08671 0.0238935 0)
(1.09676 0.024205 0)
(1.02812 0.0205029 0)
(0.782652 0.0114064 0)
(0.426253 0.00337134 0)
(0.0829502 0.000213274 0)
(0.098723 9.27838e-06 0)
(0.65527 -0.00165433 0)
(0.962995 -0.00539834 0)
(1.10676 -0.00772195 0)
(1.11942 -0.00616039 0)
(1.10006 -0.00270452 0)
(1.08418 0.00134076 0)
(1.07247 0.00580714 0)
(1.06348 0.0105522 0)
(1.05693 0.0153651 0)
(1.05408 0.0193592 0)
(1.05553 0.022016 0)
(1.06129 0.0236138 0)
(1.07177 0.0244932 0)
(1.08818 0.0254237 0)
(1.09367 0.0252318 0)
(1.01074 0.0206625 0)
(0.755429 0.0112951 0)
(0.406632 0.00336954 0)
(0.0783804 0.00021866 0)
(0.098736 4.25256e-05 0)
(0.648401 -0.000659462 0)
(0.954802 -0.00326834 0)
(1.1066 -0.00501571 0)
(1.12472 -0.00327933 0)
(1.10599 0.000400145 0)
(1.08964 0.00471017 0)
(1.0774 0.00940653 0)
(1.06774 0.0143148 0)
(1.06034 0.0191356 0)
(1.05657 0.022927 0)
(1.05725 0.0252469 0)
(1.06253 0.026448 0)
(1.07287 0.0269205 0)
(1.0889 0.0274903 0)
(1.08911 0.0267142 0)
(0.991708 0.0212234 0)
(0.728031 0.0114575 0)
(0.387005 0.00345262 0)
(0.0737142 0.000229079 0)
(0.0995096 8.17616e-05 0)
(0.64491 0.000371958 0)
(0.94933 -0.000993023 0)
(1.10731 -0.00200359 0)
(1.13048 4.28302e-06 0)
(1.11235 0.00397839 0)
(1.09548 0.00864858 0)
(1.08259 0.0136886 0)
(1.07211 0.0188393 0)
(1.06365 0.023712 0)
(1.05879 0.0273052 0)
(1.05859 0.0292585 0)
(1.06331 0.0300462 0)
(1.07344 0.0300919 0)
(1.08876 0.0302351 0)
(1.08287 0.028719 0)
(0.970786 0.0222099 0)
(0.699909 0.0118839 0)
(0.36689 0.0036137 0)
(0.0688441 0.000243947 0)
(0.101252 0.000142406 0)
(0.645191 0.00152939 0)
(0.94695 0.00151272 0)
(1.10928 0.00144514 0)
(1.13682 0.00386537 0)
(1.11926 0.00823539 0)
(1.10183 0.0133526 0)
(1.08816 0.0188054 0)
(1.07667 0.0242682 0)
(1.06694 0.0292581 0)
(1.06074 0.0326819 0)
(1.05949 0.0342198 0)
(1.06354 0.0345357 0)
(1.07341 0.0341063 0)
(1.08748 0.033758 0)
(1.07468 0.0313353 0)
(0.947633 0.0236589 0)
(0.670476 0.0125717 0)
(0.345832 0.0038484 0)
(0.0636732 0.000262748 0)
(0.104014 0.00020281 0)
(0.649582 0.00293354 0)
(0.948106 0.00439287 0)
(1.11303 0.00545419 0)
(1.14402 0.00845402 0)
(1.1269 0.0133844 0)
(1.10877 0.0190624 0)
(1.09415 0.0250294 0)
(1.08142 0.0308803 0)
(1.07015 0.0359732 0)
(1.06235 0.0391494 0)
(1.05986 0.0402098 0)
(1.06314 0.040043 0)
(1.07269 0.0390749 0)
(1.0849 0.0381746 0)
(1.06421 0.0346596 0)
(0.921777 0.0256144 0)
(0.639095 0.0135205 0)
(0.32339 0.00415145 0)
(0.0581151 0.000284716 0)
(0.108075 0.000284453 0)
(0.658636 0.00460474 0)
(0.953265 0.00778057 0)
(1.11906 0.010183 0)
(1.1524 0.0139296 0)
(1.13548 0.0195692 0)
(1.1165 0.0259648 0)
(1.1007 0.0325924 0)
(1.08643 0.0389047 0)
(1.07327 0.0441326 0)
(1.0636 0.0470282 0)
(1.05969 0.0475076 0)
(1.06201 0.0467475 0)
(1.07121 0.0451609 0)
(1.08108 0.0436509 0)
(1.05102 0.0387831 0)
(0.892619 0.0281019 0)
(0.605076 0.0147182 0)
(0.299137 0.00451188 0)
(0.0520995 0.00030836 0)
(0.11378 0.000395154 0)
(0.673104 0.00669717 0)
(0.96316 0.0119115 0)
(1.12791 0.0158879 0)
(1.16222 0.0206048 0)
(1.14524 0.0271801 0)
(1.12521 0.0344461 0)
(1.10791 0.0418375 0)
(1.09172 0.0486687 0)
(1.07628 0.0539998 0)
(1.0644 0.0564904 0)
(1.05883 0.0562896 0)
(1.06008 0.054839 0)
(1.06881 0.052593 0)
(1.07576 0.0503141 0)
(1.03456 0.0438102 0)
(0.859434 0.0311426 0)
(0.5677 0.0161425 0)
(0.2727 0.00491338 0)
(0.0455844 0.000331902 0)
(0.121643 0.00055019 0)
(0.693947 0.00943436 0)
(0.978637 0.0170751 0)
(1.14028 0.0228928 0)
(1.174 0.0288753 0)
(1.15648 0.0367084 0)
(1.13506 0.0450163 0)
(1.11584 0.0532655 0)
(1.09727 0.0606087 0)
(1.07906 0.0658921 0)
(1.0646 0.0677556 0)
(1.05711 0.0666841 0)
(1.05724 0.0644676 0)
(1.06546 0.0614361 0)
(1.06861 0.0582868 0)
(1.01411 0.0498005 0)
(0.821362 0.0347168 0)
(0.526249 0.0177388 0)
(0.243791 0.0053268 0)
(0.0385669 0.000352345 0)
(0.132392 0.000773663 0)
(0.722452 0.0131983 0)
(1.00084 0.023733 0)
(1.15697 0.0317298 0)
(1.18837 0.0392848 0)
(1.16956 0.0487211 0)
(1.1462 0.0582785 0)
(1.12446 0.0674684 0)
(1.10288 0.0752141 0)
(1.08138 0.0802149 0)
(1.06399 0.0811501 0)
(1.05441 0.078954 0)
(1.05331 0.0757583 0)
(1.06088 0.0718086 0)
(1.05905 0.0675767 0)
(0.988756 0.056771 0)
(0.777452 0.0387461 0)
(0.480087 0.0194114 0)
(0.212288 0.00570883 0)
(0.0311057 0.000365891 0)
(0.147287 0.00112733 0)
(0.760622 0.0186171 0)
(1.0314 0.0326753 0)
(1.17886 0.0433501 0)
(1.20603 0.0529254 0)
(1.18479 0.0643049 0)
(1.15873 0.075225 0)
(1.13365 0.0852262 0)
(1.10834 0.093055 0)
(1.08301 0.0973223 0)
(1.06238 0.0969073 0)
(1.05057 0.0932968 0)
(1.04819 0.0889324 0)
(1.05464 0.0840394 0)
(1.0464 0.0783167 0)
(0.95737 0.0646514 0)
(0.726737 0.0430635 0)
(0.428807 0.0210085 0)
(0.178349 0.00599981 0)
(0.0233433 0.000367978 0)
(0.168487 0.0017375 0)
(0.811656 0.0268141 0)
(1.0729 0.0454165 0)
(1.20713 0.0595811 0)
(1.22768 0.0719758 0)
(1.20227 0.0851653 0)
(1.17232 0.0972303 0)
(1.14293 0.107529 0)
(1.11317 0.114757 0)
(1.08352 0.117512 0)
(1.05943 0.11511 0)
(1.04536 0.109734 0)
(1.04171 0.104019 0)
(1.04674 0.0981439 0)
(1.02975 0.0904302 0)
(0.918533 0.0731712 0)
(0.668439 0.0473722 0)
(0.372534 0.022316 0)
(0.142591 0.00612473 0)
(0.0155308 0.000353127 0)
(0.199296 0.00307472 0)
(0.881221 0.0403613 0)
(1.12899 0.0657137 0)
(1.24224 0.0840022 0)
(1.25304 0.0990916 0)
(1.22134 0.113544 0)
(1.18615 0.125835 0)
(1.15149 0.135325 0)
(1.11663 0.140833 0)
(1.08234 0.141112 0)
(1.05476 0.135958 0)
(1.03853 0.128301 0)
(1.03374 0.120981 0)
(1.03682 0.113928 0)
(1.00784 0.103712 0)
(0.870608 0.0818403 0)
(0.602416 0.0511871 0)
(0.312629 0.0231219 0)
(0.106534 0.00602711 0)
(0.00812651 0.000313355 0)
(0.241362 0.00919083 1.20617e-20)
(0.973296 0.0671297 1.02843e-20)
(1.19731 0.100051 -3.55553e-21)
(1.28094 0.120357 0)
(1.27922 0.137856 -8.71872e-35)
(1.23984 0.151787 1.26643e-21)
(1.19866 0.162569 -2.23812e-21)
(1.1582 0.169842 0)
(1.11793 0.172564 4.50254e-35)
(1.07871 0.169546 -2.68121e-21)
(1.04736 0.161133 0)
(1.02875 0.151003 -3.14612e-21)
(1.02282 0.142107 -9.25821e-21)
(1.02351 0.134357 -4.37077e-21)
(0.977274 0.12083 -1.31193e-21)
(0.808324 0.0923282 -7.78656e-22)
(0.523319 0.0550461 0)
(0.247426 0.0237838 5.45508e-22)
(0.07043 0.00601178 6.46142e-22)
(0.00118456 0.000264022 1.17968e-20)
(0.270551 0.0241652 9.40588e-21)
(1.0495 0.109395 1.08124e-22)
(1.25369 0.148985 9.74214e-22)
(1.31548 0.169239 0)
(1.30211 0.187026 -4.50773e-21)
(1.25562 0.198815 -5.06302e-21)
(1.20849 0.207276 -2.27714e-21)
(1.16217 0.212038 -7.96705e-21)
(1.1162 0.211968 0)
(1.07152 0.205726 1.14103e-20)
(1.03579 0.194118 1.12421e-20)
(1.01439 0.181484 3.32481e-21)
(1.0063 0.170571 1.2052e-20)
(0.999683 0.160074 1.68769e-20)
(0.930131 0.141323 0)
(0.725438 0.10443 2.3749e-20)
(0.431231 0.0596713 3.40997e-20)
(0.179483 0.0242258 3.79583e-20)
(0.0350611 0.00498059 -4.35517e-20)
(-0.00561599 -0.000375737 -8.29783e-22)
(0.272017 0.0407531 0)
(1.09796 0.164104 1.75897e-21)
(1.29175 0.208844 0)
(1.34233 0.228851 -6.24093e-21)
(1.31996 0.243996 0)
(1.26749 0.25191 -1.00979e-20)
(1.21473 0.256638 4.68729e-21)
(1.16279 0.257822 -1.61791e-20)
(1.11134 0.254136 -3.17324e-22)
(1.06149 0.244085 5.93084e-21)
(1.02162 0.228905 2.46621e-20)
(0.997437 0.213583 -5.03329e-23)
(0.98689 0.200526 -8.74398e-21)
(0.973316 0.187076 -1.58629e-20)
(0.887688 0.162746 1.8768e-20)
(0.66721 0.116999 -3.32558e-20)
(0.379392 0.0644291 -4.39595e-21)
(0.146705 0.0247129 0)
(0.0190269 0.00355408 -2.25553e-24)
(-0.00886052 -0.00119635 0)
(0.265707 0.0547364 2.66139e-20)
(1.12422 0.222494 -1.23433e-20)
(1.31525 0.273241 -8.74062e-21)
(1.36002 0.29379 3.03011e-21)
(1.33137 0.305316 -5.04077e-21)
(1.27439 0.308724 2.12543e-20)
(1.21702 0.309046 9.82779e-21)
(1.16024 0.305994 0)
(1.10393 0.29815 -3.00801e-20)
(1.04932 0.283858 0)
(1.00547 0.264793 -1.29802e-20)
(0.97859 0.246615 -1.58869e-20)
(0.965643 0.231351 -9.51254e-21)
(0.946557 0.214655 -1.15072e-20)
(0.852392 0.184994 0)
(0.629982 0.131531 0)
(0.353805 0.0720401 -2.86353e-20)
(0.133757 0.0270382 5.66722e-21)
(0.0126632 0.00257364 -3.32731e-21)
(-0.0106364 -0.00205343 -3.94114e-21)
(0.258235 0.067074 -1.29659e-20)
(1.13585 0.280852 0)
(1.32817 0.338671 1.89816e-20)
(1.36957 0.360197 8.7984e-21)
(1.3365 0.368069 1.14786e-20)
(1.27622 0.366991 0)
(1.21523 0.362823 9.75712e-21)
(1.15444 0.355375 1.80142e-20)
(1.09388 0.34315 1.55032e-20)
(1.03496 0.324403 2.78918e-20)
(0.98746 0.30141 0)
(0.957936 0.280332 -3.42668e-20)
(0.942558 0.262709 -2.05531e-20)
(0.919464 0.243057 -1.21375e-20)
(0.82254 0.208443 7.41305e-20)
(0.606238 0.148263 8.82878e-21)
(0.343474 0.0824657 4.15565e-20)
(0.133491 0.031262 -1.96805e-19)
(0.0131869 0.00265115 1.16634e-19)
(-0.0110381 -0.00272839 -1.42369e-19)
(0.251125 0.0781905 -9.09893e-21)
(1.13825 0.337304 2.40498e-21)
(1.33345 0.403295 -2.32498e-21)
(1.37258 0.426156 -9.80498e-21)
(1.33628 0.430559 -1.02179e-20)
(1.27351 0.425194 3.63416e-22)
(1.20965 0.416703 -1.05586e-20)
(1.14557 0.404954 1.87376e-20)
(1.0814 0.388366 -3.33676e-20)
(1.0187 0.365201 0)
(0.967845 0.338296 -1.5583e-20)
(0.93568 0.314126 -3.24928e-22)
(0.917969 0.29416 -2.24603e-20)
(0.891998 0.27178 0)
(0.795958 0.232671 -1.60627e-20)
(0.589679 0.166989 -3.82112e-20)
(0.341611 0.0952221 1.02006e-19)
(0.139398 0.0376026 -1.00524e-19)
(0.0185492 0.00427852 1.4301e-19)
(-0.0100353 -0.00300419 -1.50493e-19)
(0.245189 0.088492 -1.04597e-22)
(1.13494 0.3912 -1.66672e-21)
(1.33327 0.466104 -7.82405e-21)
(1.37051 0.490527 4.33105e-21)
(1.33178 0.491794 -5.22457e-21)
(1.26713 0.482412 0)
(1.20098 0.469835 -1.00594e-20)
(1.13413 0.453989 -1.96937e-20)
(1.06682 0.433208 -1.74178e-20)
(1.00071 0.405745 0)
(0.946694 0.374839 -1.62384e-20)
(0.912096 0.34768 -1.99512e-20)
(0.892239 0.325522 2.436e-20)
(0.864038 0.300542 -1.47325e-20)
(0.770714 0.257444 -7.01548e-20)
(0.575744 0.187029 4.17509e-20)
(0.34266 0.10926 1.24319e-20)
(0.147843 0.0456064 0)
(0.0263121 0.00736632 -1.38385e-19)
(-0.00816602 -0.00286698 -5.14203e-21)
(0.24055 0.0983093 -6.2564e-22)
(1.12822 0.442385 1.21076e-21)
(1.3291 0.526545 3.90783e-21)
(1.36457 0.552616 1.49068e-20)
(1.32396 0.551118 -2.00276e-20)
(1.25789 0.538056 2.14993e-20)
(1.18985 0.521691 2.16596e-20)
(1.12062 0.502002 -3.15076e-20)
(1.05054 0.477257 1.05748e-20)
(0.981315 0.445612 -6.86879e-20)
(0.924382 0.410846 -1.82743e-20)
(0.887574 0.380992 0)
(0.865714 0.356677 2.6419e-20)
(0.835719 0.329239 3.16054e-20)
(0.745458 0.282331 3.77899e-20)
(0.561719 0.207686 -4.53729e-20)
(0.342696 0.124183 -1.34525e-20)
(0.155714 0.0549915 1.58062e-20)
(0.0344985 0.0115324 0)
(-0.00589048 -0.00236855 -1.11695e-20)
(0.237085 0.107743 1.92641e-21)
(1.11973 0.490918 -2.80689e-21)
(1.32225 0.584621 -3.82656e-21)
(1.35577 0.612062 9.55793e-21)
(1.31363 0.608118 -9.47216e-21)
(1.24646 0.591724 -8.24748e-22)
(1.17686 0.571922 -2.36011e-20)
(1.10559 0.548692 -1.13842e-20)
(1.03303 0.520235 -3.02582e-20)
(0.960911 0.4846 6.25408e-23)
(0.901286 0.446284 -5.74215e-20)
(0.862396 0.413782 4.7977e-20)
(0.838668 0.387247 -2.89971e-20)
(0.807194 0.357321 3.47918e-20)
(0.719259 0.307027 0)
(0.546251 0.22821 -2.46433e-20)
(0.339938 0.139315 1.55482e-23)
(0.161244 0.0647717 -6.89747e-20)
(0.0415332 0.0161813 -1.01661e-20)
(-0.00364387 -0.00165583 0)
(0.23469 0.117015 0)
(1.11041 0.537009 -2.25026e-21)
(1.31348 0.640262 -5.8458e-21)
(1.34491 0.668681 -9.25849e-21)
(1.30147 0.662563 -1.14694e-20)
(1.23343 0.643182 0)
(1.16255 0.620293 -1.10327e-20)
(1.08949 0.59386 -2.16841e-22)
(1.01466 0.561974 6.48759e-20)
(0.939832 0.522627 -9.48877e-21)
(0.877674 0.480935 -4.1434e-20)
(0.836796 0.445601 2.50251e-20)
(0.811345 0.416736 -4.47157e-22)
(0.77857 0.384472 3.70464e-20)
(0.692492 0.330542 2.2757e-20)
(0.528963 0.24739 -5.31893e-20)
(0.333832 0.15367 6.30687e-20)
(0.163161 0.0739813 1.8701e-20)
(0.0462337 0.020569 7.73715e-20)
(-0.0018127 -0.000920196 -2.0929e-19)
(0.233276 0.126253 -1.21703e-21)
(1.10091 0.58084 4.5783e-22)
(1.30338 0.69312 6.25998e-22)
(1.33264 0.722415 8.24219e-21)
(1.28804 0.714336 0)
(1.21931 0.692292 -1.05548e-20)
(1.14735 0.66667 3.67839e-20)
(1.07271 0.63738 2.5133e-20)
(0.995765 0.602379 0)
(0.918369 0.559612 -1.36215e-19)
(0.853724 0.514547 1.12033e-19)
(0.810919 0.476226 0)
(0.78398 0.445159 3.38674e-20)
(0.749897 0.410452 -4.4906e-22)
(0.665041 0.352546 -7.28761e-20)
(0.509385 0.264756 2.8556e-20)
(0.324517 0.166349 0)
(0.161244 0.0817479 1.00899e-19)
(0.0480767 0.024037 0)
(-0.000616231 -0.000342063 -9.90325e-20)
(0.232661 0.135494 1.99335e-21)
(1.0916 0.62258 2.13245e-21)
(1.29238 0.743221 1.02662e-21)
(1.31944 0.773273 0)
(1.27379 0.763416 -1.06138e-20)
(1.20452 0.739014 0)
(1.13163 0.710986 -3.68516e-20)
(1.05557 0.679174 -1.19227e-20)
(0.976655 0.6414 1.15693e-20)
(0.896756 0.595484 -6.73996e-20)
(0.829567 0.547014 1.16142e-20)
(0.784914 0.505802 0)
(0.756622 0.472586 -7.2377e-20)
(0.721092 0.435 4.427e-22)
(0.636928 0.372676 0)
(0.487796 0.279742 2.85339e-22)
(0.31198 0.176585 9.20167e-20)
(0.156044 0.0873538 -8.7129e-20)
(0.0473243 0.0261137 2.57925e-20)
(-8.34214e-05 -3.88286e-05 0)
(0.232503 0.144637 0)
(1.08268 0.662293 3.56648e-21)
(1.28087 0.790659 8.11599e-22)
(1.3057 0.82132 -5.05448e-22)
(1.2591 0.809831 -4.21652e-21)
(1.18938 0.783349 -2.38412e-20)
(1.1157 0.753225 1.36958e-20)
(1.03834 0.719207 -1.38731e-20)
(0.957572 0.678989 5.13845e-20)
(0.87518 0.630198 -1.07845e-19)
(0.805362 0.578426 -7.9096e-22)
(0.758868 0.534524 -3.18552e-20)
(0.729211 0.498882 1.17391e-19)
(0.692108 0.457731 -5.21487e-22)
(0.608192 0.390421 -5.65214e-20)
(0.464309 0.291922 -1.00714e-19)
(0.296719 0.184067 0)
(0.147864 0.0905742 0)
(0.0445601 0.026752 2.78112e-20)
(-0.000105122 -3.34549e-05 -1.65161e-20)
(0.232901 0.153785 3.98611e-21)
(1.07431 0.699921 -9.18718e-21)
(1.26913 0.835524 -9.29989e-22)
(1.2917 0.866639 0)
(1.24424 0.853637 -3.16109e-22)
(1.17417 0.825328 -2.27392e-20)
(1.09982 0.793396 3.37119e-20)
(1.02128 0.757466 5.53217e-20)
(0.938724 0.715132 6.70546e-20)
(0.853828 0.663751 -8.83225e-20)
(0.781277 0.608955 -9.6421e-20)
(0.732819 0.562444 8.52454e-20)
(0.701634 0.523772 0)
(0.662864 0.478419 -2.56929e-20)
(0.57878 0.405523 -6.10824e-20)
(0.439111 0.301152 -7.23351e-20)
(0.279138 0.188581 -8.56605e-20)
(0.137136 0.091331 2.53658e-20)
(0.0400884 0.0261182 -1.49694e-20)
(-0.000461124 -0.000241785 5.87165e-23)
(0.233611 0.162746 0)
(1.06654 0.735938 0)
(1.25734 0.877904 5.26815e-22)
(1.27766 0.909327 0)
(1.22943 0.894923 1.14956e-20)
(1.1591 0.865014 1.6203e-20)
(1.08417 0.831522 0)
(1.00455 0.793955 6.69479e-21)
(0.920298 0.749822 1.12312e-19)
(0.832876 0.696176 -2.03115e-19)
(0.757457 0.638734 0)
(0.706785 0.589487 -5.48887e-20)
(0.673831 0.547114 -6.14896e-22)
(0.633315 0.497034 -4.82643e-22)
(0.548762 0.417862 6.53489e-20)
(0.412769 0.307297 -3.42744e-23)
(0.259593 0.19004 -1.84375e-19)
(0.124497 0.0896748 5.45334e-20)
(0.0344332 0.0242452 1.61732e-20)
(-0.00104249 -0.000622034 0)
(0.234385 0.171577 -1.90871e-20)
(1.05914 0.770303 -7.94763e-21)
(1.24556 0.917858 -7.29066e-21)
(1.26374 0.949466 -2.4188e-21)
(1.21486 0.933762 1.7255e-20)
(1.14433 0.90247 0)
(1.06891 0.867647 2.09169e-20)
(0.988309 0.828696 -1.4824e-20)
(0.90244 0.78307 7.90341e-22)
(0.81249 0.727531 1.49217e-20)
(0.734039 0.667827 1.2513e-19)
(0.680794 0.615606 -1.92946e-20)
(0.645768 0.569037 -7.24172e-20)
(0.603312 0.513585 -2.99091e-20)
(0.518141 0.42712 3.54541e-20)
(0.385795 0.310098 3.54008e-24)
(0.238786 0.188332 4.96333e-20)
(0.11083 0.0857517 -1.17285e-19)
(0.0283683 0.0214514 1.3911e-19)
(-0.00171448 -0.0011158 2.05461e-20)
(0.234956 0.180184 7.69435e-21)
(1.05212 0.803108 -4.78718e-21)
(1.23396 0.955497 1.29156e-21)
(1.2501 0.987167 1.1786e-21)
(1.20064 0.970265 -2.29301e-21)
(1.12997 0.937769 -2.90516e-20)
(1.05416 0.901815 6.35221e-21)
(0.972673 0.861705 -6.20856e-20)
(0.885275 0.814876 -1.24519e-19)
(0.792812 0.757849 -1.21518e-19)
(0.711154 0.696244 0)
(0.654905 0.640896 -8.45896e-20)
(0.617395 0.589878 1.04345e-19)
(0.572557 0.527995 0)
(0.486831 0.432848 -7.59555e-20)
(0.358621 0.309155 4.52121e-20)
(0.217931 0.183267 -5.33435e-20)
(0.0974553 0.0799423 -6.30749e-20)
(0.0226038 0.0181544 -1.1201e-19)
(-0.00235107 -0.00163516 -8.84354e-20)
(0.235875 0.188651 -9.15976e-21)
(1.04533 0.834331 5.13698e-21)
(1.22259 0.99088 1.08231e-20)
(1.23681 1.02251 3.43251e-21)
(1.18686 1.00453 5.70493e-21)
(1.11613 0.970995 -1.65423e-20)
(1.04 0.934074 2.10137e-20)
(0.957729 0.893024 -6.42341e-20)
(0.868891 0.845263 -7.39425e-20)
(0.773969 0.78716 1.27569e-19)
(0.688914 0.72398 2.75488e-19)
(0.629212 0.665581 0)
(0.588643 0.61003 0)
(0.540631 0.540206 -3.44529e-20)
(0.454498 0.434659 0)
(0.331402 0.303636 9.71839e-20)
(0.198309 0.174107 1.14666e-19)
(0.0863553 0.0722907 0)
(0.0183694 0.0147785 0)
(-0.0028344 -0.00209649 9.50014e-20)
(0.236436 0.196648 1.09222e-20)
(1.0388 0.863957 8.51839e-21)
(1.21152 1.02412 8.10968e-21)
(1.22393 1.05564 -5.34975e-21)
(1.1736 1.03666 4.57712e-21)
(1.10285 1.00222 1.8149e-20)
(1.02649 0.964482 -2.90926e-20)
(0.94354 0.922681 -4.83828e-23)
(0.853368 0.87424 -1.03156e-21)
(0.756058 0.815459 -1.00398e-21)
(0.667456 0.751048 1.42073e-19)
(0.603837 0.689928 0)
(0.559468 0.629819 1.05707e-19)
(0.507121 0.550339 7.35908e-20)
(0.420444 0.432544 1.77074e-19)
(0.303546 0.292233 5.23328e-20)
(0.181235 0.158382 -6.16981e-20)
(0.0817155 0.0600767 -3.63367e-20)
(0.0209466 0.0101714 0)
(-0.0018418 -0.00219698 1.02048e-19)
(0.237336 0.204661 -2.575e-20)
(1.03248 0.892141 0)
(1.20075 1.05526 1.06655e-20)
(1.2115 1.08663 -5.33648e-21)
(1.1609 1.06675 -2.52118e-21)
(1.09018 1.03153 -2.13238e-20)
(1.01368 0.993091 5.77455e-20)
(0.930146 0.950711 -5.17404e-21)
(0.838749 0.901819 0)
(0.739157 0.842706 -1.41539e-19)
(0.64692 0.777478 -3.09643e-19)
(0.578933 0.714185 1.25512e-20)
(0.529911 0.649444 1.45924e-19)
(0.471805 0.55883 0)
(0.38361 0.427258 1.19481e-19)
(0.272706 0.273946 0)
(0.164924 0.130553 0)
(0.088774 0.0287946 -3.92618e-20)
(0.0547081 -0.00971356 0)
(0.0270614 0.00670537 2.73459e-20)
(0.237785 0.21209 -2.96503e-20)
(1.02635 0.919064 0)
(1.19027 1.0845 1.87234e-20)
(1.19947 1.11572 0)
(1.14872 1.09507 3.279e-22)
(1.07804 1.05921 0)
(1.0015 1.02022 3.04511e-21)
(0.917452 0.977457 8.93229e-21)
(0.824916 0.92837 9.32071e-21)
(0.723093 0.869273 -1.55866e-19)
(0.627126 0.803756 9.35943e-21)
(0.554233 0.739061 1.00976e-19)
(0.499517 0.66949 1.42559e-19)
(0.43387 0.566451 1.9152e-20)
(0.342239 0.420587 9.36246e-20)
(0.234093 0.249871 0)
(0.138299 0.0869684 1.29822e-19)
(0.0766254 -0.0145627 -7.63297e-20)
(0.032585 0.0580644 8.92592e-20)
(-0.0382514 0.454598 -1.06042e-19)
(0.238172 0.219352 2.50852e-20)
(1.0202 0.944622 3.66499e-20)
(1.18002 1.11217 0)
(1.18769 1.14336 1.0714e-21)
(1.13687 1.1222 1.3337e-21)
(1.06619 1.08595 3.01457e-20)
(0.989639 1.04666 2.07167e-20)
(0.905045 1.00387 0)
(0.811337 0.955004 6.24313e-20)
(0.707182 0.896472 -8.20833e-21)
(0.607165 0.831439 0)
(0.528453 0.766316 0)
(0.466338 0.691288 1.27684e-19)
(0.391016 0.573901 -5.90585e-20)
(0.293287 0.414657 -9.47472e-20)
(0.183668 0.223418 0)
(0.0785946 0.096977 6.58658e-20)
(0.00691783 0.465786 -7.67791e-20)
(0.0317619 1.923 -4.34259e-20)
(0.0584654 2.82277 -5.30164e-20)
(0.238169 0.226035 -1.9522e-20)
(1.01407 0.968986 -4.82696e-20)
(1.16999 1.13827 1.18189e-20)
(1.17617 1.16941 7.74333e-21)
(1.12541 1.14794 0)
(1.0547 1.11147 1.86015e-20)
(0.978304 1.07211 2.91933e-20)
(0.893119 1.02951 -4.39254e-21)
(0.798292 0.981199 9.29635e-21)
(0.691811 0.923683 1.49067e-19)
(0.587659 0.859909 1.57335e-19)
(0.502541 0.795632 1.13417e-19)
(0.431222 0.714603 1.28527e-19)
(0.344898 0.580458 -1.38703e-19)
(0.243206 0.413011 -1.43023e-19)
(0.12009 0.270525 0)
(0.0414327 0.875505 0)
(0.0892107 2.57789 3.681e-20)
(0.091732 3.20999 0)
(0.0928135 3.38871 9.67184e-20)
(0.240949 0.232236 0)
(1.00821 0.992524 0)
(1.15992 1.16264 0)
(1.1647 1.19373 2.70686e-21)
(1.11402 1.17205 2.07557e-21)
(1.04339 1.13563 1.07078e-20)
(0.967421 1.09647 1.91047e-20)
(0.881606 1.05426 -4.32751e-21)
(0.785715 1.00678 7.88303e-20)
(0.676967 0.95074 -1.90121e-21)
(0.568703 0.889006 3.11691e-19)
(0.476859 0.826916 -1.30643e-20)
(0.394154 0.739983 1.56489e-20)
(0.297849 0.584493 2.0071e-20)
(0.182679 0.431279 -4.15753e-22)
(0.0948778 1.01172 3.46371e-22)
(0.12738 2.75852 -1.92846e-19)
(0.132133 3.30091 -7.33883e-20)
(0.121979 3.42425 3.9457e-20)
(0.110958 3.44418 -4.47833e-20)
(0.163582 0.177401 1.24249e-20)
(0.998347 1.01795 0)
(1.14965 1.18553 -2.61536e-20)
(1.15366 1.21669 -2.35287e-20)
(1.10315 1.19501 1.07115e-20)
(1.03291 1.1589 -1.00621e-20)
(0.956848 1.11969 -2.02205e-20)
(0.870563 1.07813 5.01518e-20)
(0.773686 1.03183 -6.52607e-20)
(0.662862 0.977757 0)
(0.550575 0.918825 1.54144e-19)
(0.451943 0.859738 -9.29011e-20)
(0.356229 0.770384 0)
(0.243543 0.590686 1.93915e-20)
(0.135742 0.787952 4.63258e-20)
(0.141744 2.55945 -5.30506e-20)
(0.190498 3.33015 6.06639e-20)
(0.172356 3.43628 3.31215e-20)
(0.142781 3.45483 3.80743e-20)
(0.123164 3.4633 6.16198e-20)
(0.276454 0.271323 -2.36733e-20)
(0.982095 1.02926 0)
(1.13213 1.21201 2.95926e-20)
(1.13959 1.24887 2.84615e-20)
(1.08614 1.22894 -1.57763e-20)
(1.01535 1.19322 4.82048e-21)
(0.938117 1.15554 2.13737e-20)
(0.851296 1.11533 3.89018e-21)
(0.753035 1.07133 6.29771e-20)
(0.639336 1.02134 1.30689e-19)
(0.521726 0.969107 8.7599e-21)
(0.412127 0.915335 8.28731e-20)
(0.288193 0.810883 1.48005e-20)
(0.206657 0.961926 -1.86759e-20)
(0.212384 2.43245 -4.26109e-20)
(0.263147 3.33623 4.31244e-20)
(0.246155 3.46374 -4.79078e-20)
(0.211673 3.48179 -2.78427e-20)
(0.177705 3.50575 -2.62933e-20)
(0.132638 3.49996 -3.81717e-21)
(0.267009 0.27045 0)
(0.979797 1.0527 9.39613e-21)
(1.12388 1.23599 -6.34926e-21)
(1.12895 1.2727 -3.67615e-21)
(1.07537 1.25246 -1.25225e-20)
(1.00461 1.21695 -3.40335e-21)
(0.927074 1.17951 -1.19941e-20)
(0.840028 1.14019 3.53597e-21)
(0.741188 1.09772 -6.60655e-20)
(0.626087 1.05063 -2.88361e-21)
(0.505567 1.00358 -2.8029e-19)
(0.390162 0.952298 1.18181e-20)
(0.275776 0.884957 -1.40652e-20)
(0.241244 1.56017 -1.73128e-20)
(0.302793 3.14505 3.6555e-21)
(0.316575 3.46698 3.28074e-22)
(0.274802 3.51359 7.42478e-20)
(0.240702 3.53569 3.87703e-20)
(0.194904 3.55504 -1.45855e-20)
(0.144981 3.55096 -2.01876e-20)
(0.253059 0.268684 2.48141e-20)
(0.976626 1.07879 6.45415e-20)
(1.11528 1.26209 -1.82677e-20)
(1.11794 1.29813 -1.38355e-20)
(1.06418 1.27747 0)
(0.993518 1.24199 2.33942e-21)
(0.915941 1.20483 -1.41431e-20)
(0.828922 1.16634 3.15819e-21)
(0.729809 1.1255 -7.31489e-21)
(0.613832 1.08157 -1.19727e-19)
(0.491289 1.0402 -1.30077e-19)
(0.37145 0.990938 -9.76969e-20)
(0.274979 1.02795 -1.06135e-19)
(0.30506 2.31089 1.095e-19)
(0.382029 3.39512 9.53599e-20)
(0.354903 3.52462 0)
(0.306656 3.55985 0)
(0.269915 3.59252 -1.16767e-20)
(0.225604 3.63731 0)
(0.156365 3.62109 -2.03495e-20)
(0.243228 0.270823 -3.78854e-20)
(0.971524 1.10584 -5.57451e-20)
(1.10534 1.2895 0)
(1.10573 1.32445 1.30236e-21)
(1.05178 1.30317 -1.66671e-20)
(0.981372 1.26762 8.76458e-21)
(0.904077 1.23078 -7.16569e-21)
(0.817307 1.19304 2.08286e-21)
(0.718177 1.15377 -4.79637e-20)
(0.601753 1.11302 6.09674e-21)
(0.478057 1.0773 0)
(0.354331 1.03393 0)
(0.299157 1.31507 -9.7165e-20)
(0.382017 2.97455 4.00608e-20)
(0.446323 3.49559 5.28607e-20)
(0.393675 3.55939 0)