/*--------------------------------*- C++ -*----------------------------------*\
  =========                 |
  \\      /  F ield         | OpenFOAM: The Open Source CFD Toolbox
   \\    /   O peration     | Website:  https://openfoam.org
    \\  /    A nd           | Version:  6
     \\/     M anipulation  |
\*---------------------------------------------------------------------------*/
FoamFile
{
    version     2.0;
    format      ascii;
    class       surfaceScalarField;
    location    "10";
    object      phi;
}
// * * * * * * * * * * * * * * * * * * * * * * * * * * * * * * * * * * * * * //

dimensions      [0 3 -1 0 0 0 0];

internalField   nonuniform List<scalar> 
4262
(
0.105762
0.472227
0.0907739
0.708573
0.0627851
0.860292
0.0410274
1.02052
0.0246408
1.2149
0.0149474
1.44791
0.00905458
1.73176
0.00467031
2.07542
0.00167906
2.48823
-0.000173798
2.98415
-0.00215845
2.98428
-0.00525228
2.48834
-0.00956823
2.07535
-0.0153472
1.73164
-0.0249058
1.44778
-0.0412512
1.21486
-0.0629299
1.02044
-0.0908515
0.860225
-0.105814
0.708548
0.472174
0.114931
0.357296
0.139846
0.683658
0.12426
0.875878
0.0988047
1.04598
0.0724889
1.24122
0.0496922
1.47071
0.0309142
1.75053
0.0170512
2.08928
0.00740359
2.49788
-0.000371688
2.99192
-0.00805597
2.99196
-0.017691
2.49797
-0.031537
2.0892
-0.0502956
1.7504
-0.0730318
1.47051
-0.0992323
1.24106
-0.124606
1.04582
-0.140093
0.875712
-0.115065
0.683521
0.357109
0.0880888
0.269207
0.122901
0.648847
0.120136
0.878642
0.103918
1.06219
0.0862631
1.25887
0.065281
1.49169
0.0455054
1.77031
0.0285609
2.10623
0.0134552
2.51299
-0.00101392
3.00639
-0.0154554
3.0064
-0.0303394
2.51286
-0.0470082
2.10587
-0.0665199
1.76991
-0.0873293
1.49132
-0.104767
1.2585
-0.120751
1.0618
-0.123347
0.878308
-0.0882767
0.648451
0.268832
0.0495626
0.219644
0.0841271
0.614282
0.0892782
0.873491
0.082961
1.06851
0.0733228
1.26851
0.0624223
1.50259
0.0487542
1.78398
0.0336624
2.12132
0.017144
2.52951
-0.00151351
3.02505
-0.0199794
3.02487
-0.0360322
2.52891
-0.0507468
2.12058
-0.0640623
1.78323
-0.0746507
1.50191
-0.0840946
1.26794
-0.0902962
1.068
-0.0848495
0.872861
-0.0498558
0.613457
0.218977
0.0260111
0.193633
0.0507674
0.589526
0.0581452
0.866113
0.0570906
1.06957
0.0524045
1.2732
0.0464283
1.50857
0.0383729
1.79203
0.0275845
2.13211
0.0139915
2.5431
-0.00177136
3.04081
-0.0171111
3.04021
-0.0303459
2.54214
-0.0408102
2.13105
-0.0486597
1.79108
-0.0543598
1.50761
-0.0586291
1.27221
-0.0592268
1.0686
-0.0514097
0.865044
-0.0262486
0.588296
0.192728
0.011965
0.181668
0.0296467
0.571844
0.0365648
0.859195
0.0372035
1.06893
0.0352713
1.27513
0.0315618
1.51228
0.0265265
1.79707
0.0191145
2.13952
0.00963198
2.55258
-0.00229916
3.05274
-0.0144311
3.05234
-0.0238821
2.5516
-0.0306984
2.13786
-0.0348097
1.79519
-0.0376114
1.51041
-0.0388998
1.2735
-0.0378149
1.06751
-0.0304991
0.857728
-0.012323
0.57012
0.180405
0.00237724
0.179291
0.0135713
0.56065
0.0216442
0.851122
0.0262524
1.06432
0.0280868
1.2733
0.0271906
1.51317
0.0238431
1.80042
0.0176219
2.14574
0.00843535
2.56177
-0.00365247
3.06483
-0.0154375
3.06413
-0.0236576
2.55982
-0.0289253
2.14313
-0.0310967
1.79736
-0.0311169
1.51043
-0.0286582
1.27104
-0.0233918
1.06225
-0.0146761
0.849012
-0.00281213
0.558256
0.177593
-0.00205348
0.181345
0.00211236
0.556484
0.0091291
0.844106
0.0159682
1.05748
0.0206578
1.26861
0.0219488
1.51188
0.0197387
1.80263
0.0144142
2.15107
0.00619457
2.56999
-0.00476797
3.07579
-0.0150525
3.07441
-0.0219174
2.56668
-0.0259806
2.14719
-0.0269745
1.79835
-0.0250086
1.50847
-0.0193119
1.26535
-0.0115016
1.05444
-0.00349959
0.84101
0.00150815
0.553248
0.179101
-0.00185211
0.183197
-0.00118219
0.555814
0.00330153
0.839622
0.00919731
1.05158
0.0140047
1.2638
0.0161935
1.50969
0.0153795
1.80344
0.0112008
2.15524
0.00398768
2.5772
-0.00531034
3.08509
-0.0144181
3.08352
-0.0211686
2.57343
-0.0241945
2.15022
-0.0237941
1.79795
-0.019896
1.50457
-0.0135278
1.25898
-0.00620426
1.04711
-0.000434902
0.835241
0.00125132
0.551562
0.180352
-0.000409491
0.183606
-0.00018964
0.555595
0.00256126
0.836871
0.00648157
1.04766
0.00956973
1.26071
0.0105428
1.50872
0.00940204
1.80458
0.00601136
2.15864
0.000360412
2.58285
-0.00696678
3.09242
-0.0137893
3.09034
-0.0182462
2.57789
-0.0196032
2.15158
-0.0187259
1.79708
-0.01579
1.50163
-0.0110798
1.25427
-0.00578924
1.04182
-0.0018368
0.831288
-0.000303172
0.550028
0.180049
-0.000145798
0.183752
-0.00019092
0.55564
0.00121596
0.835464
0.00354722
1.04533
0.00538101
1.25888
0.005867
1.50824
0.00468633
1.80576
0.00171414
2.16161
-0.00301562
2.58758
-0.00914366
3.09854
-0.0142427
3.09544
-0.016295
2.57994
-0.0167636
2.15204
-0.0156223
1.79594
-0.0130036
1.49902
-0.00925137
1.25052
-0.00524213
1.03781
-0.00220202
0.828248
-0.000762576
0.548589
0.179287
-0.000770586
0.184523
-0.0015472
0.556416
-0.00135518
0.835272
-0.000389962
1.04437
0.000536024
1.25795
0.000726854
1.50804
-0.00028553
1.80677
-0.00272722
2.16405
-0.00657302
2.59143
-0.0114009
3.10337
-0.0150479
3.09909
-0.0160142
2.58091
-0.0156516
2.15168
-0.0138128
1.7941
-0.0109453
1.49615
-0.00754273
1.24711
-0.0042283
1.0345
-0.00174024
0.82576
-0.000519053
0.547368
0.178768
-0.00107373
0.185596
-0.00231848
0.557661
-0.00281979
0.835773
-0.00297527
1.04452
-0.00314177
1.25812
-0.00381571
1.50872
-0.00524028
1.8082
-0.00754059
2.16635
-0.0106465
2.59453
-0.0140861
3.10681
-0.0162017
3.1012
-0.016565
2.58127
-0.0151716
2.15029
-0.0128376
1.79176
-0.00992195
1.49323
-0.00688718
1.24408
-0.00410338
1.03172
-0.00192478
0.823581
-0.000579159
0.546022
0.178188
-0.00112177
0.186718
-0.0026994
0.559239
-0.00370034
0.836774
-0.0046155
1.04544
-0.00587554
1.25938
-0.00757383
1.51042
-0.00974727
1.81037
-0.0123761
2.16898
-0.0152634
2.59742
-0.0177919
3.10934
-0.0186986
3.10211
-0.0180114
2.58058
-0.0159008
2.14818
-0.0131603
1.78902
-0.0102073
1.49028
-0.00735109
1.24122
-0.00478961
1.02915
-0.00262418
0.821416
-0.000935981
0.544334
0.177252
-0.00134717
0.188065
-0.00337492
0.561266
-0.00517999
0.838579
-0.00697866
1.04724
-0.00909824
1.2615
-0.0116046
1.51292
-0.0144772
1.81324
-0.0175838
2.17208
-0.0205691
2.60041
-0.0226035
3.11137
-0.0224957
3.102
-0.0207312
2.57882
-0.0179659
2.14541
-0.014751
1.78581
-0.0115115
1.48704
-0.00847811
1.23819
-0.0057571
1.02643
-0.00332979
0.818989
-0.00123715
0.542241
0.176015
-0.001775
0.18984
-0.00445147
0.563943
-0.00697496
0.841103
-0.00958092
1.04984
-0.0125672
1.26448
-0.0159779
1.51633
-0.0197275
1.81699
-0.0235575
2.17591
-0.0269284
2.60378
-0.0288028
3.11325
-0.0279654
3.10116
-0.0251445
2.576
-0.0213882
2.14166
-0.0173828
1.7818
-0.0135282
1.48319
-0.0100223
1.23468
-0.00690492
1.02332
-0.00405768
0.816141
-0.0015081
0.539692
0.174507
-0.00236441
0.192205
-0.00591323
0.567492
-0.00940047
0.84459
-0.0130205
1.05346
-0.0170207
1.26848
-0.0214273
1.52074
-0.0261423
1.82171
-0.0308159
2.18059
-0.034718
2.60768
-0.0365344
3.11507
-0.0349386
3.09957
-0.0310446
2.5721
-0.0262153
2.13683
-0.0212636
1.77685
-0.0166011
1.47852
-0.0123908
1.23047
-0.00861492
1.01954
-0.00509701
0.812624
-0.00189792
0.536492
0.172609
-0.00295015
0.195155
-0.00737713
0.571919
-0.0116896
0.848903
-0.0162816
1.05806
-0.021561
1.27376
-0.0274693
1.52665
-0.0337299
1.82797
-0.0397885
2.18665
-0.044628
2.61252
-0.046554
3.11699
-0.0440793
3.09709
-0.0388458
2.56687
-0.0325766
2.13056
-0.0262528
1.77053
-0.0203682
1.47264
-0.0151324
1.22524
-0.0105092
1.01492
-0.00623689
0.808351
-0.00232774
0.532583
0.170282
-0.00406081
0.199216
-0.0101276
0.577985
-0.0160352
0.85481
-0.0221151
1.06414
-0.0287955
1.28044
-0.0360586
1.53391
-0.043728
1.83564
-0.0511292
2.19405
-0.0568958
2.61829
-0.0588378
3.11893
-0.0552951
3.09355
-0.0485215
2.5601
-0.0406502
2.12269
-0.0328632
1.76274
-0.0257033
1.46548
-0.0193219
1.21886
-0.0135801
1.00917
-0.00809451
0.802866
-0.00300057
0.527489
0.167281
-0.00492948
0.204145
-0.0120775
0.585133
-0.0193067
0.862039
-0.0271503
1.07198
-0.0361285
1.28942
-0.0460428
1.54383
-0.0563477
1.84594
-0.0659624
2.20366
-0.0730939
2.62542
-0.075012
3.12085
-0.0700008
3.08854
-0.0611433
2.55124
-0.0509949
2.11254
-0.0409277
1.75267
-0.0316281
1.45618
-0.0233768
1.2106
-0.0161177
1.00192
-0.00951177
0.79626
-0.0035502
0.521528
0.163731
-0.00726711
0.211412
-0.0178114
0.595678
-0.0274805
0.871708
-0.0373199
1.08182
-0.0482257
1.30033
-0.0602908
1.55589
-0.0728758
1.85853
-0.0845774
2.21536
-0.0928607
2.6337
-0.0944158
3.12241
-0.087543
3.08167
-0.0762354
2.53993
-0.0635822
2.09988
-0.0512659
1.74036
-0.0400755
1.44499
-0.0302274
1.20076
-0.0213926
0.993081
-0.0127937
0.787661
-0.00468231
0.513416
0.159048
-0.00868568
0.220098
-0.0208411
0.607833
-0.0335073
0.884375
-0.0472359
1.09555
-0.062629
1.31572
-0.0789855
1.57225
-0.0953903
1.87493
-0.109627
2.2296
-0.118807
2.64288
-0.119363
3.12296
-0.109883
3.07219
-0.0954833
2.52553
-0.0795733
2.08397
-0.0639037
1.72469
-0.0493964
1.43048
-0.0364065
1.18777
-0.0249283
0.981603
-0.0145605
0.777293
-0.00538573
0.504242
0.153663
-0.01377
0.233868
-0.0322635
0.626327
-0.048591
0.900702
-0.0652588
1.11221
-0.0838332
1.33429
-0.104326
1.59274
-0.124354
1.89496
-0.140667
2.24591
-0.150285
2.6525
-0.149205
3.12188
-0.136504
3.05949
-0.118466
2.50749
-0.0989376
2.06445
-0.0798833
1.70563
-0.0624023
1.413
-0.0470115
1.17238
-0.0332007
0.967792
-0.0198536
0.763946
-0.00723711
0.491625
0.146426
-0.017431
0.251299
-0.0403582
0.649254
-0.0630317
0.923376
-0.087497
1.13668
-0.114489
1.36129
-0.141036
1.61929
-0.163814
1.91774
-0.181055
2.26316
-0.189784
2.66123
-0.185695
3.11779
-0.168711
3.0425
-0.146391
2.48517
-0.122816
2.04087
-0.0998875
1.6827
-0.0782352
1.39135
-0.0583072
1.15245
-0.0402716
0.949756
-0.0233024
0.746977
-0.00823476
0.476558
0.138191
-0.0323382
0.283637
-0.0652969
0.682212
-0.0951705
0.953249
-0.127817
1.16933
-0.160577
1.39405
-0.189642
1.64835
-0.213587
1.94169
-0.23064
2.28021
-0.236922
2.66751
-0.228501
3.10937
-0.206441
3.02044
-0.179313
2.45805
-0.151057
2.01262
-0.123776
1.65542
-0.0985524
1.36612
-0.0752602
1.12916
-0.0536289
0.928125
-0.0328821
0.72623
-0.0111405
0.454816
0.12705
-0.0429018
0.326539
-0.100022
0.739332
-0.147396
1.00062
-0.190517
1.21245
-0.225835
1.42936
-0.254738
1.67726
-0.277878
1.96483
-0.292014
2.29435
-0.293418
2.66891
-0.278808
3.09476
-0.250653
2.99228
-0.218423
2.42582
-0.185771
1.97996
-0.154374
1.62403
-0.125133
1.33688
-0.0979756
1.102
-0.0708317
0.900981
-0.0412581
0.696656
-0.0133341
0.426892
0.113716
-0.025455
0.351994
-0.0729717
0.786849
-0.121319
1.04897
-0.165641
1.25677
-0.206002
1.46972
-0.245067
1.71632
-0.281151
2.00091
-0.309992
2.32319
-0.327854
2.68677
-0.328455
3.09536
-0.308179
2.97201
-0.275226
2.39286
-0.23544
1.94018
-0.192362
1.58095
-0.148426
1.29295
-0.105889
1.05946
-0.0660332
0.861125
-0.0298893
0.660512
-0.00708564
0.404088
0.106631
-0.0040843
0.356078
-0.0242196
0.806984
-0.0538464
1.0786
-0.0907748
1.2937
-0.129998
1.50895
-0.168414
1.75474
-0.202167
2.03466
-0.228237
2.34926
-0.243627
2.70216
-0.241866
3.0936
-0.220484
2.95063
-0.188272
2.36065
-0.151144
1.90305
-0.11297
1.54277
-0.0760558
1.25603
-0.0419892
1.02539
-0.0134484
0.832584
0.00384137
0.643222
0.00712542
0.400804
0.113756
0.00342771
0.352651
-0.0108105
0.821223
-0.0327793
1.10057
-0.0581633
1.31908
-0.0875005
1.53828
-0.119049
1.78629
-0.148024
2.06364
-0.171474
2.37271
-0.185428
2.71612
-0.183865
3.09204
-0.165172
2.93193
-0.138002
2.33348
-0.108163
1.87321
-0.0789949
1.51361
-0.0521517
1.22919
-0.0281519
1.0014
-0.00805744
0.81249
0.00476978
0.630395
0.005738
0.399836
0.119494
0.00366295
0.348988
-0.00691172
0.831797
-0.0247677
1.11842
-0.0443353
1.33865
-0.0668477
1.5608
-0.091185
1.81062
-0.114665
2.08712
-0.135081
2.39312
-0.147727
2.72877
-0.147171
3.09148
-0.131997
2.91676
-0.110029
2.31151
-0.086416
1.8496
-0.0637082
1.4909
-0.0430757
1.20856
-0.0250608
0.98338
-0.0103928
0.797822
-0.000983893
0.620986
0.00148344
0.397369
0.120977
0.00718376
0.341804
0.000456138
0.838525
-0.0167978
1.13568
-0.0358442
1.3577
-0.0560884
1.58104
-0.0762631
1.8308
-0.0958524
2.10671
-0.113315
2.41058
-0.124416
2.73987
-0.124517
3.09158
-0.11198
2.90422
-0.0935288
2.29306
-0.0737018
1.82977
-0.0547577
1.47195
-0.0378156
1.19161
-0.0233883
0.968953
-0.0118321
0.786266
-0.00399626
0.61315
-0.000556202
0.393929
0.120421
0.00639639
0.335407
0.00286229
0.842059
-0.0116054
1.15014
-0.0295944
1.37569
-0.0489177
1.60036
-0.0674456
1.84933
-0.0851914
2.12445
-0.100626
2.42602
-0.110638
2.74988
-0.111264
3.09221
-0.100488
2.89345
-0.0841391
2.27671
-0.0665539
1.81218
-0.0499553
1.45536
-0.0352453
1.1769
-0.0228261
0.956534
-0.0128531
0.776293
-0.005509
0.605806
-0.00124648
0.389666
0.119175
0.00425473
0.331153
0.00172939
0.844584
-0.0103328
1.16221
-0.02634
1.39169
-0.0441166
1.61814
-0.0616464
1.86686
-0.0786951
2.1415
-0.0933774
2.4407
-0.103281
2.75978
-0.104604
3.09353
-0.0951913
2.88403
-0.0804187
2.26194
-0.064254
1.79602
-0.0487979
1.4399
-0.0351795
1.16329
-0.0236441
0.944998
-0.0141253
0.766774
-0.00669472
0.598376
-0.00185419
0.384826
0.117321
0.00176365
0.329389
-0.00130747
0.847655
-0.0115828
1.17248
-0.0257291
1.40584
-0.0416171
1.63403
-0.0580874
1.88333
-0.0747087
2.15812
-0.0894184
2.45541
-0.0999273
2.77029
-0.102387
3.09599
-0.0942008
2.87585
-0.0801907
2.24793
-0.0647776
1.78061
-0.0500855
1.42521
-0.0367591
1.14996
-0.0251919
0.933431
-0.0155349
0.757117
-0.00779621
0.590637
-0.00231548
0.379345
0.115005
-0.000816725
0.330206
-0.00478297
0.851622
-0.013843
1.18154
-0.0265481
1.41854
-0.0407865
1.64827
-0.0562662
1.89881
-0.0724353
2.17429
-0.0874893
2.47046
-0.0991181
2.78192
-0.103336
3.10021
-0.096949
2.86946
-0.0841119
2.23509
-0.068652
1.76515
-0.0532362
1.40979
-0.0393329
1.13606
-0.0273057
0.921404
-0.0172411
0.747052
-0.00905524
0.582451
-0.00295555
0.373245
0.11205
-0.00277907
0.332985
-0.00742996
0.856273
-0.0158567
1.18997
-0.0275861
1.43027
-0.0407135
1.6614
-0.0554865
1.91358
-0.0713048
2.19011
-0.0868551
2.48601
-0.0998281
2.79489
-0.10604
3.10642
-0.100695
2.86412
-0.0876625
2.22206
-0.0726567
1.75014
-0.0575939
1.39473
-0.0437168
1.12218
-0.0314039
0.909091
-0.0203286
0.735977
-0.0107576
0.57288
-0.00350306
0.365991
0.108546
-0.00377063
0.336755
-0.00897078
0.861473
-0.0171374
1.19813
-0.0282018
1.44134
-0.0406821
1.67388
-0.0550167
1.92791
-0.070655
2.20575
-0.0867758
2.50214
-0.101319
2.80944
-0.110219
3.11532
-0.108133
2.86203
-0.0969362
2.21086
-0.0803802
1.73358
-0.063508
1.37786
-0.0472019
1.10587
-0.0327798
0.894669
-0.0212871
0.724484
-0.0118911
0.563484
-0.00417003
0.35827
0.104376
-0.00397139
0.340727
-0.00969112
0.867192
-0.0177972
1.20624
-0.0283669
1.45191
-0.0404423
1.68595
-0.0544639
1.94193
-0.0700684
2.22135
-0.0868095
2.51888
-0.103108
2.82573
-0.115104
3.12732
-0.114694
2.86162
-0.103463
2.19963
-0.0876659
1.71779
-0.0699237
1.36011
-0.0546723
1.09062
-0.0407077
0.880704
-0.0269339
0.71071
-0.0145083
0.551058
-0.00494451
0.348706
0.0994319
-0.00404812
0.344775
-0.010093
0.873237
-0.0180585
1.21421
-0.0281669
1.46202
-0.0399039
1.69769
-0.0536172
1.95565
-0.0691714
2.23691
-0.0863629
2.53607
-0.104287
2.84366
-0.119332
3.14236
-0.122662
2.86495
-0.11406
2.19103
-0.0970754
1.7008
-0.0782481
1.34129
-0.0578993
1.07027
-0.0405782
0.863383
-0.0270422
0.697174
-0.015271
0.539287
-0.00548728
0.338922
0.0939446
-0.00411091
0.348886
-0.0103269
0.879453
-0.0180891
1.22197
-0.0277585
1.47169
-0.0391132
1.70904
-0.0524447
1.96898
-0.0678575
2.25232
-0.0854161
2.55363
-0.105032
2.86328
-0.123902
3.16123
-0.131338
2.87239
-0.125657
2.18535
-0.109981
1.68513
-0.087343
1.31865
-0.067117
1.05005
-0.0492165
0.845483
-0.0327671
0.680725
-0.0184597
0.52498
-0.00646553
0.326928
0.0874791
-0.00411855
0.353004
-0.0103675
0.885702
-0.0178741
1.22947
-0.0271237
1.48094
-0.0380382
1.71996
-0.0509257
1.98187
-0.06611
2.2675
-0.0839165
2.57143
-0.104879
2.88424
-0.12708
3.18344
-0.138271
2.88358
-0.134636
2.18171
-0.120795
1.67129
-0.0995314
1.29739
-0.0745874
1.0251
-0.0532729
0.824169
-0.0361065
0.663559
-0.0199304
0.508804
-0.00695699
0.313955
0.0805221
-0.00407703
0.357081
-0.0102705
0.891896
-0.0175208
1.23673
-0.0263458
1.48976
-0.0367222
1.73033
-0.0490849
1.99423
-0.0639698
2.28239
-0.081933
2.5894
-0.103822
2.90613
-0.128519
3.20813
-0.144783
2.89984
-0.145339
2.18227
-0.13583
1.66178
-0.115373
1.27693
-0.0861579
0.995887
-0.0568118
0.794822
-0.0353544
0.642101
-0.0204991
0.493948
-0.00692166
0.300377
0.0736004
-0.00395995
0.361041
-0.010019
0.897955
-0.0169872
1.24369
-0.0253576
1.49813
-0.0351289
1.7401
-0.0469186
2.00602
-0.0614707
2.29694
-0.0795654
2.60749
-0.102164
2.92873
-0.129022
3.23499
-0.150109
2.92093
-0.154258
2.18642
-0.148554
1.65607
-0.129682
1.25806
-0.099747
0.965953
-0.0675115
0.762587
-0.0391194
0.613709
-0.0199021
0.474731
-0.00485926
0.285334
0.0687412
-0.00381131
0.364853
-0.00974799
0.903891
-0.0164178
1.25036
-0.024224
1.50594
-0.033299
1.74918
-0.0444914
2.01721
-0.0587232
2.31117
-0.0769986
2.62577
-0.100093
2.95182
-0.128413
3.26331
-0.154414
2.94693
-0.165827
2.19783
-0.161309
1.65156
-0.147536
1.24428
-0.125716
0.944133
-0.0816685
0.71854
-0.036108
0.568149
-0.00812576
0.446749
0.00279818
0.27441
0.0715394
-0.00366544
0.368518
-0.00945187
0.909678
-0.0157164
1.25663
-0.0228502
1.51307
-0.0312522
1.75758
-0.0419027
2.02786
-0.0558425
2.32511
-0.0742027
2.64413
-0.0977504
2.97537
-0.126992
3.29255
-0.156101
2.97604
-0.171226
2.21295
-0.169769
1.6501
-0.159697
1.23421
-0.13922
0.923655
-0.106838
0.686157
-0.0493556
0.510666
0.0174594
0.379934
0.0335519
0.258318
0.105091
-0.00352809
0.372046
-0.0087519
0.914902
-0.0145377
1.26241
-0.0213064
1.51984
-0.0293352
1.76561
-0.0396775
2.0382
-0.053358
2.33879
-0.0716348
2.6624
-0.0953342
2.99907
-0.125213
3.32243
-0.157594
3.00842
-0.179105
2.23447
-0.188243
1.65924
-0.180315
1.22628
-0.162877
0.906218
-0.127899
0.651179
-0.0531189
0.435887
0.0447972
0.282018
0.0951323
0.207983
0.200224
-0.00346968
0.375516
-0.00826871
0.919701
-0.013773
1.26792
-0.0203682
1.52643
-0.0283586
1.7736
-0.0389283
2.04877
-0.0531743
2.35304
-0.0727129
2.68194
-0.0987995
3.02515
-0.133269
3.3569
-0.17212
3.04727
-0.201894
2.26424
-0.212919
1.67026
-0.210757
1.22412
-0.194247
0.889707
-0.179721
0.636653
-0.208856
0.465022
-0.415297
0.488458
-0.937982
0.730668
0.906035
-1.64379
-0.00336306
0.378879
-0.00803253
0.92437
-0.0131318
1.27302
-0.019029
1.53233
-0.0266223
1.78119
-0.0371238
2.05928
-0.0514713
2.36739
-0.0714961
2.70197
-0.0990953
3.05275
-0.138173
3.39598
-0.182235
3.09133
-0.218624
2.30063
-0.24273
1.69437
-0.260217
1.24161
-0.275716
0.905206
-0.364409
0.725346
-0.72491
0.825523
-1.40791
1.17146
-2.00679
1.32955
1.21939
-2.32015
-0.00319171
0.382071
-0.00757854
0.928757
-0.0121405
1.27758
-0.0174954
1.53769
-0.0249658
1.78866
-0.0354471
2.06976
-0.049733
2.38167
-0.070016
2.72225
-0.0990456
3.08178
-0.143013
3.43994
-0.192799
3.14112
-0.238417
2.34625
-0.26755
1.7235
-0.294329
1.26839
-0.403258
1.01413
-0.787801
1.10989
-1.51324
1.55096
-2.07959
1.73781
-2.31716
1.56712
1.33186
-2.42963
-0.00289819
0.384969
-0.00720156
0.93306
-0.0109897
1.28137
-0.0158085
1.54251
-0.0233278
1.79618
-0.0337026
2.08013
-0.0477506
2.39572
-0.068039
2.74254
-0.0982245
3.11197
-0.146511
3.48823
-0.205158
3.19977
-0.255193
2.39628
-0.3069
1.77521
-0.406296
1.36778
-0.722608
1.33045
-1.40913
1.79642
-1.99822
2.14004
-2.24026
1.97985
-2.35582
1.68268
1.40253
-2.42649
-0.00170276
0.386672
-0.00510216
0.93646
-0.00907708
1.28534
-0.0145509
1.54798
-0.0220914
1.80372
-0.031987
2.09003
-0.0455472
2.40928
-0.0656273
2.76262
-0.0966995
3.14304
-0.149038
3.54057
-0.213549
3.26428
-0.270315
2.45305
-0.338951
1.84384
-0.526669
1.5555
-1.08524
1.88902
-1.76705
2.47822
-2.1032
2.47619
-2.25823
2.13488
-2.34488
1.76933
1.46714
-2.40949
-0.000578869
0.38725
-0.0030692
0.93895
-0.00787564
1.29015
-0.0141805
1.55428
-0.0216418
1.81119
-0.0311533
2.09954
-0.0445021
2.42263
-0.0646696
2.78279
-0.0969958
3.17537
-0.153904
3.59748
-0.226708
3.33708
-0.288147
2.51449
-0.398608
1.9543
-0.777349
1.93424
-1.47586
2.58753
-1.95142
2.95378
-2.14592
2.6707
-2.24951
2.23847
-2.32625
1.84607
1.52884
-2.38796
-0.000461121
0.387712
-0.00313591
0.941625
-0.00800395
1.29502
-0.01431
1.56059
-0.02181
1.81869
-0.0313039
2.10903
-0.0446189
2.43594
-0.0647768
2.80294
-0.0983435
3.20893
-0.159794
3.65893
-0.240147
3.41743
-0.329324
2.60367
-0.5315
2.15648
-1.03434
2.43709
-1.64995
3.20314
-1.93906
3.24289
-2.08237
2.81401
-2.18823
2.34432
-2.2829
1.94075
1.60372
-2.35779
-0.000833462
0.388545
-0.00392064
0.944712
-0.0084972
1.29959
-0.0143647
1.56646
-0.021745
1.82607
-0.031167
2.11845
-0.044291
2.44907
-0.0644311
2.82308
-0.098964
3.24347
-0.164881
3.72484
-0.253961
3.50651
-0.358475
2.70818
-0.637938
2.43594
-1.2383
3.03744
-1.7302
3.69504
-1.94189
3.45457
-2.09865
2.97078
-2.22886
2.47453
-2.32952
2.04141
1.63744
-2.36323
-0.00123991
0.389785
-0.00451446
0.947987
-0.00901552
1.30409
-0.0145967
1.57204
-0.0217155
1.83318
-0.0308909
2.12763
-0.0436139
2.46179
-0.0634998
2.84297
-0.0992215
3.27919
-0.168483
3.79411
-0.269667
3.6077
-0.409173
2.84769
-0.765051
2.79182
-1.37366
3.64605
-1.74271
4.0641
-1.91936
3.63122
-2.03503
3.08645
-2.14139
2.58089
-2.20383
2.10384
1.59885
-2.16524
-0.00147551
0.39126
-0.00491489
0.951426
-0.00932889
1.30851
-0.0146141
1.57732
-0.0214122
1.83998
-0.030132
2.13635
-0.0421601
2.47382
-0.061235
2.86204
-0.0983151
3.31627
-0.168895
3.86469
-0.279358
3.71816
-0.463731
3.03206
-0.871361
3.19945
-1.41304
4.18773
-1.70498
4.35604
-1.89689
3.82314
-1.9955
3.18506
-2.03099
2.61637
-1.99967
2.07253
1.60114
-2.00196
-0.00167925
0.39294
-0.00523383
0.954981
-0.00958771
1.31286
-0.0146697
1.58241
-0.0209287
1.84624
-0.0288135
2.14424
-0.0396771
2.48468
-0.0572165
2.87958
-0.0928356
3.35189
-0.163383
3.93523
-0.285323
3.8401
-0.497768
3.2445
-0.909198
3.61088
-1.36502
4.64355
-1.57988
4.5709
-1.69015
3.93341
-1.77052
3.26542
-1.66865
2.5145
-1.1976
1.60149
0.403537
-0.00164758
0.394587
-0.00507022
0.958403
-0.00928686
1.31708
-0.0141963
1.58732
-0.0200282
1.85207
-0.0273045
2.15151
-0.0373341
2.49471
-0.0535449
2.89579
-0.0888942
3.38724
-0.16953
4.01587
-0.315185
3.98576
-0.559259
3.48858
-1.00931
4.06093
-1.40539
5.03963
-1.55528
4.72079
-1.61913
3.99726
-1.56968
3.21597
-1.2936
2.23842
-0.559068
0.866957
-0.155531
-0.00185578
0.396443
-0.00540913
0.961956
-0.00933354
1.321
-0.0137419
1.59172
-0.0187864
1.85712
-0.0248824
2.15761
-0.0331755
2.50301
-0.0471032
2.90972
-0.0797549
3.41989
-0.165549
4.10166
-0.333617
4.15382
-0.615067
3.77003
-1.09004
4.5359
-1.41111
5.3607
-1.51618
4.82586
-1.51865
3.99973
-1.31129
3.00861
-0.768295
1.69543
-0.0671691
0.16583
-0.2227
-0.00167473
0.398118
-0.00493065
0.965212
-0.00845574
1.32453
-0.0123224
1.59559
-0.0164345
1.86123
-0.0208543
2.16203
-0.0265344
2.50869
-0.0361361
2.91932
-0.0614591
3.44521
-0.136067
4.17627
-0.327437
4.34519
-0.640269
4.08286
-1.10134
4.99697
-1.33991
5.59927
-1.41297
4.89892
-1.37439
3.96115
-1.0906
2.72483
-0.327455
0.932277
0.0266263
-0.188251
-0.196074
-0.0018252
0.399943
-0.00523173
0.968619
-0.00832333
1.32762
-0.0113073
1.59857
-0.0139673
1.86389
-0.0158355
2.1639
-0.0169096
2.50976
-0.0183513
2.92077
-0.0292346
3.4561
-0.0683796
4.21542
-0.263195
4.54001
-0.620138
4.4398
-1.05971
5.43654
-1.25211
5.79168
-1.31354
4.96034
-1.18972
3.83733
-0.736399
2.2715
-0.0318936
0.227772
0.0149858
-0.23513
-0.181088
-0.00134424
0.401287
-0.00415477
0.971429
-0.00669
1.33016
-0.00886251
1.60075
-0.0100714
1.8651
-0.00900106
2.16282
-0.00328742
2.50405
0.00597943
2.9115
0.026372
3.4357
0.0453091
4.19648
-0.149955
4.73527
-0.561648
4.85149
-0.955321
5.83022
-1.12113
5.95749
-1.17113
5.01035
-1.00235
3.66854
-0.419297
1.68845
-0.0794739
-0.112051
-0.0305271
-0.284077
-0.211615
-0.00147141
0.402759
-0.00476461
0.974723
-0.00677413
1.33216
-0.00771793
1.60169
-0.00677897
1.86416
-0.00207418
2.15812
0.0115754
2.4904
0.0366169
2.88646
0.11377
3.35855
0.196326
4.11392
-0.0111955
4.94279
-0.485231
5.32553
-0.820671
6.16566
-0.951422
6.08824
-0.986117
5.04504
-0.81045
3.49288
-0.240547
1.11855
-0.149476
-0.203122
-0.0664783
-0.367075
-0.278094
-0.000822744
0.403581
-0.00341307
0.977313
-0.0050288
1.33378
-0.00533347
1.602
-0.00278689
1.86161
0.00559229
2.14974
0.0271735
2.46882
0.0799306
2.8337
0.21315
3.22533
0.339985
3.98709
0.163366
5.11941
-0.340695
5.82959
-0.634651
6.45961
-0.752236
6.20582
-0.807151
5.09996
-0.618619
3.30435
-0.297604
0.797537
-0.23376
-0.266966
-0.105149
-0.495686
-0.383242
-0.000958688
0.40454
-0.0048616
0.981216
-0.00638587
1.3353
-0.00585631
1.60147
-0.00158989
1.85735
0.0107127
2.13744
0.0404768
2.43905
0.120156
2.75402
0.283715
3.06177
0.440379
3.83042
0.346424
5.21337
-0.150145
6.32616
-0.459655
6.76912
-0.560121
6.30629
-0.567839
5.10767
-0.433392
3.1699
-0.392737
0.756881
-0.287515
-0.372187
-0.129487
-0.653714
-0.51273
-0.000301723
0.404842
-0.00402469
0.984939
-0.00632606
1.33761
-0.00664937
1.60179
-0.00268437
1.85338
0.0106035
2.12415
0.0452919
2.40436
0.136958
2.66235
0.296972
2.90176
0.472593
3.6548
0.441279
5.24468
0.019703
6.74774
-0.253235
7.04206
-0.292999
6.34605
-0.245305
5.05998
-0.189642
3.11424
-0.260807
0.828046
-0.228394
-0.4046
-0.123407
-0.758701
-0.636137
-0.000148313
0.40499
-0.00675828
0.991549
-0.0108875
1.34174
-0.0127707
1.60367
-0.0108961
1.85151
-0.000567299
2.11382
0.0290996
2.3747
0.1026
2.58885
0.210947
2.79341
0.352148
3.5136
0.371626
5.2252
0.082098
7.03726
-0.00884239
7.133
0.0965744
6.24064
0.262464
4.89409
0.293056
3.08364
0.181606
0.939496
0.0792123
-0.302206
0.00474567
-0.684234
-0.631391
0.000132552
0.404858
-0.007613
0.999294
-0.014754
1.34888
-0.0214072
1.61033
-0.0262143
1.85631
-0.0270501
2.11466
-0.0183433
2.36599
0.00605633
2.56445
0.0330168
2.76645
0.0924318
3.45419
0.166842
5.15079
0.0695409
7.13456
0.18364
7.0189
0.429271
5.99501
0.70318
4.62018
0.818421
2.9684
0.747153
1.01076
0.495656
-0.0507094
0.199933
-0.388512
-0.431458
0.000144096
0.404713
-0.0115756
1.01101
-0.0237453
1.36105
-0.0367851
1.62337
-0.0521518
1.87168
-0.0723309
2.13484
-0.0999282
2.39359
-0.14821
2.61274
-0.230905
2.84914
-0.303027
3.52631
-0.255766
5.10353
-0.1201
6.9989
0.172313
6.72649
0.465467
5.70185
0.822848
4.2628
1.07748
2.71377
1.02336
1.06489
0.681485
0.291167
0.285705
0.00726783
-0.145753
0.00220595
0.402507
-0.0103462
1.02357
-0.0283349
1.37903
-0.0517441
1.64677
-0.0834639
1.9034
-0.129782
2.18115
-0.201242
2.46505
-0.32696
2.73845
-0.531905
3.05409
-0.77124
3.76564
-0.82841
5.1607
-0.595979
6.76647
-0.221091
6.3516
0.208818
5.27194
0.704394
3.76722
1.04985
2.36831
0.930113
1.18463
0.586129
0.635151
0.235615
0.357782
0.089862
0.00634437
0.396163
-0.00859516
1.03851
-0.034186
1.40463
-0.0673388
1.67993
-0.113908
1.94997
-0.183491
2.25074
-0.292969
2.57452
-0.478188
2.92367
-0.776871
3.35277
-1.14711
4.13588
-1.25257
5.26617
-0.899827
6.41372
-0.429315
5.88109
0.133148
4.70948
0.603875
3.2965
0.813966
2.15822
0.65535
1.34324
0.3843
0.906201
0.139826
0.602255
0.229688
0.0147023
0.381461
0.00500508
1.0482
-0.0251804
1.43481
-0.0679901
1.72274
-0.127835
2.00982
-0.214528
2.33743
-0.346474
2.70647
-0.558859
3.13606
-0.890109
3.68402
-1.2993
4.54507
-1.39739
5.36426
-0.92008
5.93641
-0.353107
5.31412
0.203856
4.15252
0.525567
2.97479
0.585422
2.09836
0.435282
1.49338
0.233622
1.10786
0.0723107
0.763567
0.301999
0.0281938
0.353267
0.0268918
1.0495
-0.00403589
1.46574
-0.0511253
1.76983
-0.116571
2.07526
-0.209181
2.43004
-0.345522
2.84281
-0.552412
3.34295
-0.855066
3.98668
-1.22411
4.91412
-1.30671
5.44685
-0.801191
5.43089
-0.227997
4.74092
0.209022
3.7155
0.391693
2.79211
0.384618
2.10544
0.266877
1.61112
0.132739
1.242
0.0357333
0.860572
0.337732
0.0487367
0.30453
0.0659285
1.03231
0.0424419
1.48923
-0.00320415
1.81547
-0.0661708
2.13823
-0.154482
2.51835
-0.279609
2.96794
-0.456669
3.52001
-0.693267
4.22328
-0.958761
5.17962
-1.00586
5.49396
-0.610481
5.03551
-0.162707
4.29315
0.124092
3.4287
0.226013
2.69019
0.212942
2.11851
0.143127
1.68094
0.0685156
1.31661
0.0188972
0.910191
0.35663
0.0752652
0.229265
0.118836
0.988742
0.111255
1.49681
0.0754052
1.85132
0.0201848
2.19345
-0.0520415
2.59058
-0.152315
3.06821
-0.286708
3.6544
-0.449172
4.38574
-0.602508
5.33295
-0.608788
5.50024
-0.36224
4.78896
-0.0843784
4.01529
0.0824418
3.26188
0.142465
2.63017
0.137547
2.12343
0.101033
1.71745
0.0579116
1.35973
0.0219318
0.94617
0.378561
0.0884079
0.140857
0.182246
0.894904
0.208945
1.47011
0.19314
1.86713
0.156496
2.23009
0.106467
2.64061
0.0368389
3.13784
-0.0512822
3.74252
-0.147344
4.4818
-0.223327
5.40894
-0.208011
5.48492
-0.0669811
4.64793
0.0809385
3.86737
0.164685
3.17813
0.187996
2.60686
0.169671
2.14175
0.129679
1.75744
0.0830551
1.40636
0.0347311
0.994494
0.413292
0.0481457
0.0927114
0.148242
0.794808
0.200913
1.41744
0.2102
1.85784
0.193128
2.24717
0.15886
2.67487
0.115603
3.1811
0.0685834
3.78954
0.0225669
4.52782
-0.0094618
5.44096
0.00105279
5.4744
0.0540854
4.5949
0.100687
3.82076
0.121463
3.15736
0.122315
2.60601
0.10973
2.15434
0.0868006
1.78037
0.0557954
1.43736
0.0202722
1.03002
0.433565
-0.00819661
0.100908
0.023354
0.763257
0.051991
1.3888
0.0716839
1.83815
0.0777744
2.24107
0.0721117
2.68054
0.0590252
3.19418
0.0401394
3.80843
0.0158986
4.55206
-0.00202934
5.45889
0.00164309
5.47073
0.026671
4.56987
0.048165
3.79927
0.0555568
3.14997
0.0518475
2.60972
0.042152
2.16404
0.0297874
1.79274
0.0148028
1.45235
7.10691e-05
1.04475
0.433636
-0.0335987
0.134507
-0.0359118
0.765571
-0.0244112
1.3773
-0.0127519
1.82649
-0.0026911
2.23101
0.00675361
2.67109
0.0119014
3.18903
0.00938839
3.81094
-0.00016026
4.56161
-0.00628015
5.46501
-0.00339961
5.46785
0.00796089
4.55851
0.0167863
3.79045
0.0179623
3.14879
0.0134878
2.61419
0.00668612
2.17084
-0.00147502
1.8009
-0.00920884
1.46008
-0.00957388
1.04511
0.424062
-0.0451629
0.17967
-0.0644582
0.784866
-0.0557027
1.36854
-0.0451125
1.8159
-0.0369122
2.22281
-0.0278338
2.66201
-0.0193249
3.18053
-0.0158883
3.8075
-0.0156015
4.56132
-0.0146403
5.46405
-0.0110758
5.46429
-0.00515674
4.55259
-0.00150761
3.7868
-0.00178968
3.14907
-0.00528384
2.61768
-0.010111
2.17566
-0.0161392
1.80693
-0.021602
1.46554
-0.0187742
1.04229
0.405288
-0.042568
0.222238
-0.0725965
0.814894
-0.0690461
1.36499
-0.0580254