/*--------------------------------*- C++ -*----------------------------------*\
  =========                 |
  \\      /  F ield         | OpenFOAM: The Open Source CFD Toolbox
   \\    /   O peration     | Website:  https://openfoam.org
    \\  /    A nd           | Version:  6
     \\/     M anipulation  |
\*---------------------------------------------------------------------------*/
FoamFile
{
    version     2.0;
    format      ascii;
    class       volScalarField;
    location    "103";
    object      p;
}
// * * * * * * * * * * * * * * * * * * * * * * * * * * * * * * * * * * * * * //

dimensions      [0 2 -2 0 0 0 0];

internalField   nonuniform List<scalar> 
8800
(
0.922626
0.873312
0.835349
0.807284
0.787128
0.772549
0.761962
0.754437
0.749573
0.747532
0.748934
0.753302
0.760116
0.769557
0.782305
0.799634
0.823516
0.856618
0.899557
0.952072
0.757113
0.763459
0.772611
0.776163
0.77356
0.767478
0.760547
0.754319
0.749536
0.746693
0.746493
0.749152
0.753819
0.759966
0.76708
0.774124
0.779011
0.778892
0.772222
0.763327
0.730614
0.736851
0.741355
0.745231
0.748187
0.749145
0.74807
0.745966
0.74401
0.743203
0.744271
0.746756
0.749668
0.751957
0.752493
0.750715
0.747358
0.743352
0.738575
0.734859
0.726291
0.729058
0.731669
0.733833
0.735579
0.737159
0.738277
0.738651
0.738566
0.738701
0.739548
0.740728
0.7415
0.741373
0.740416
0.739076
0.737417
0.735124
0.732718
0.731152
0.721205
0.722632
0.724476
0.726565
0.728288
0.729595
0.730712
0.731717
0.73256
0.733341
0.734102
0.734607
0.734668
0.734334
0.733689
0.732591
0.73095
0.729067
0.72772
0.726917
0.716176
0.71708
0.718332
0.719969
0.721676
0.723225
0.724532
0.725685
0.726791
0.727863
0.72871
0.729155
0.72921
0.72888
0.728106
0.726941
0.725599
0.724347
0.723532
0.723008
0.711218
0.711874
0.712842
0.714172
0.715636
0.717174
0.718687
0.720089
0.721402
0.722675
0.723701
0.724264
0.72434
0.72395
0.723206
0.722295
0.721328
0.720441
0.719868
0.719483
0.706327
0.706832
0.707626
0.708781
0.710101
0.711545
0.713089
0.714677
0.716251
0.71779
0.719039
0.719734
0.719886
0.719624
0.719109
0.718459
0.717755
0.717113
0.716695
0.716394
0.701446
0.701848
0.702517
0.703555
0.70481
0.706208
0.707756
0.709454
0.711261
0.713108
0.71464
0.715555
0.715923
0.71591
0.715652
0.715236
0.714747
0.714305
0.714
0.713755
0.696492
0.696819
0.697402
0.698366
0.699582
0.700978
0.702574
0.70439
0.706418
0.708596
0.710497
0.711752
0.712437
0.712715
0.712716
0.712547
0.712268
0.711994
0.711773
0.711567
0.691372
0.691643
0.692168
0.693091
0.694299
0.695735
0.697424
0.699405
0.701695
0.704259
0.706621
0.708313
0.709382
0.709992
0.710279
0.710361
0.710295
0.710173
0.710022
0.709843
0.685992
0.68622
0.686708
0.687621
0.688863
0.690381
0.692209
0.694413
0.697041
0.700085
0.703009
0.705224
0.706741
0.707733
0.708344
0.708683
0.708847
0.708869
0.708775
0.708614
0.680253
0.680447
0.680918
0.68185
0.683168
0.684815
0.686838
0.689338
0.692394
0.696032
0.699636
0.702475
0.70452
0.705952
0.706933
0.707581
0.707972
0.708127
0.708081
0.707932
0.674044
0.67421
0.674681
0.675662
0.677096
0.678925
0.681214
0.684095
0.687686
0.692051
0.696479
0.700065
0.702735
0.704682
0.706089
0.707081
0.707722
0.708012
0.708008
0.707865
0.667235
0.667378
0.667865
0.668923
0.670518
0.672591
0.675225
0.678588
0.682842
0.688096
0.693517
0.697996
0.70141
0.703964
0.705858
0.707244
0.70817
0.7086
0.708634
0.708493
0.659673
0.659794
0.660309
0.661475
0.663283
0.665671
0.668743
0.672709
0.677781
0.684114
0.690732
0.696276
0.700568
0.70384
0.706319
0.708163
0.709406
0.709981
0.71005
0.709906
0.651162
0.651265
0.651814
0.653123
0.655206
0.657993
0.661614
0.666331
0.672408
0.680053
0.688105
0.694915
0.700244
0.704362
0.707541
0.709923
0.711523
0.712251
0.712349
0.712199
0.641413
0.641516
0.642134
0.643617
0.646055
0.649345
0.653655
0.659304
0.666619
0.675856
0.685621
0.693929
0.700482
0.705595
0.709596
0.712609
0.714612
0.715497
0.715622
0.715461
0.630123
0.630202
0.63091
0.63265
0.635535
0.639462
0.644641
0.651455
0.660294
0.671462
0.683269
0.693334
0.701319
0.707602
0.712551
0.716305
0.718753
0.719795
0.719937
0.719762
0.616874
0.616941
0.617759
0.619813
0.623263
0.628011
0.634297
0.642579
0.653308
0.666816
0.681045
0.693156
0.70279
0.710428
0.716484
0.721073
0.723994
0.725183
0.725331
0.725139
0.601051
0.60111
0.602081
0.604559
0.608757
0.614575
0.622294
0.63245
0.645535
0.661878
0.678953
0.693423
0.704933
0.714115
0.721418
0.726933
0.730338
0.731643
0.731782
0.73157
0.581812
0.581867
0.583063
0.586138
0.591356
0.598618
0.608242
0.62083
0.636876
0.656642
0.677024
0.69416
0.707776
0.718679
0.727349
0.733862
0.737708
0.739077
0.739185
0.738953
0.557908
0.557968
0.559521
0.563496
0.570183
0.579474
0.591712
0.607514
0.627289
0.651156
0.67532
0.695412
0.711331
0.72411
0.734246
0.741747
0.745931
0.747281
0.747335
0.747087
0.527388
0.52748
0.529652
0.535092
0.544086
0.556374
0.572317
0.592402
0.616843
0.645545
0.673947
0.697236
0.715609
0.730345
0.742012
0.750386
0.754717
0.75594
0.75592
0.755664
0.486946
0.487179
0.490634
0.498784
0.511691
0.528653
0.549895
0.575623
0.605772
0.640027
0.67306
0.699719
0.720608
0.737344
0.75048
0.759469
0.763666
0.764645
0.764543
0.76429
0.430274
0.431465
0.438391
0.452211
0.471971
0.496182
0.524784
0.557643
0.594493
0.634898
0.672828
0.702948
0.726341
0.744988
0.759398
0.768589
0.772302
0.772957
0.772784
0.772546
0.348229
0.356296
0.372284
0.396529
0.426551
0.460472
0.498022
0.539024
0.583241
0.630271
0.673417
0.707246
0.733355
0.754024
0.769353
0.778282
0.781296
0.781631
0.781422
0.781228
0.260644
0.278386
0.304373
0.339821
0.380668
0.424407
0.470868
0.520058
0.571851
0.62595
0.674959
0.713112
0.742482
0.765342
0.781331
0.789245
0.791253
0.791312
0.791141
0.791024
0.185364
0.207083
0.241413
0.286442
0.336863
0.38985
0.444972
0.502175
0.561311
0.62209
0.676475
0.718472
0.75064
0.775202
0.791152
0.797788
0.799066
0.799036
0.798909
0.798827
0.123387
0.147532
0.18759
0.239492
0.297374
0.358052
0.420777
0.485279
0.551214
0.618187
0.677482
0.722935
0.757493
0.783268
0.798964
0.804716
0.80564
0.805583
0.805479
0.805412
0.0717893
0.0974105
0.141617
0.198842
0.262668
0.329628
0.398772
0.46965
0.541687
0.614306
0.678092
0.726663
0.763357
0.790206
0.805591
0.810665
0.811373
0.811297
0.811205
0.811141
0.027981
0.0544709
0.101741
0.163264
0.232059
0.304349
0.379008
0.455468
0.532961
0.610701
0.67858
0.729976
0.768561
0.796238
0.811297
0.815873
0.816449
0.816358
0.816268
0.816201
-0.0101191
0.0169318
0.0665829
0.131663
0.204697
0.281625
0.361166
0.442636
0.525093
0.607528
0.679139
0.733041
0.773222
0.801504
0.816214
0.820429
0.820928
0.820827
0.820734
0.820661
-0.0440277
-0.0165556
0.0350431
0.103154
0.179868
0.26088
0.344816
0.430881
0.517955
0.604791
0.679849
0.73597
0.777454
0.806106
0.820436
0.824384
0.824847
0.824753
0.824664
0.824583
-0.0748081
-0.0469705
0.0062705
0.0770307
0.156995
0.241651
0.329579
0.419901
0.51135
0.602405
0.68074
0.738879
0.781415
0.810214
0.824111
0.827841
0.828303
0.828249
0.828181
0.828094
-0.103311
-0.0751039
-0.0203981
0.0527574
0.13562
0.223558
0.315138
0.409441
0.505079
0.600272
0.68184
0.741897
0.78531
0.814067
0.827473
0.831003
0.831492
0.831511
0.831487
0.8314
-0.129973
-0.101439
-0.0454
0.0299046
0.115382
0.2063
0.301246
0.399291
0.498975
0.598313
0.68319
0.745167
0.789366
0.817952
0.830827
0.834158
0.834683
0.834795
0.834832
0.834753
-0.155323
-0.126386
-0.0691171
0.00815293
0.0960018
0.189638
0.287703
0.389277
0.492891
0.596425
0.684809
0.748828
0.793799
0.822142
0.834463
0.837585
0.838133
0.838334
0.838437
0.838372
-0.179541
-0.150203
-0.0917813
-0.0127225
0.077275
0.173399
0.274352
0.379257
0.486687
0.594503
0.686688
0.752989
0.798789
0.826834
0.838583
0.841464
0.842007
0.842275
0.842436
0.842389
-0.202821
-0.173066
-0.113573
-0.0328751
0.0590718
0.157463
0.261078
0.369108
0.480234
0.592408
0.688754
0.75773
0.804476
0.832179
0.843252
0.845849
0.846356
0.846658
0.846857
0.846827
-0.225306
-0.195093
-0.134597
-0.0523992
0.0412947
0.141746
0.247805
0.358753
0.473421
0.589987
0.690876
0.763076
0.811033
0.838251
0.848457
0.850665
0.851114
0.851425
0.85163
0.85161
-0.247112
-0.216399
-0.154908
-0.071351
0.0239062
0.126202
0.23449
0.348131
0.466157
0.58708
0.692879
0.768977
0.818635
0.845276
0.854189
0.855722
0.856088
0.856438
0.856639
0.856607
-0.268149
-0.236966
-0.17453
-0.089774
0.00687739
0.110829
0.221111
0.337218
0.458384
0.583564
0.694545
0.775306
0.827442
0.853647
0.86067
0.860871
0.860967
0.861523
0.861899
0.861865
-0.288438
-0.256811
-0.193498
-0.107676
-0.00978955
0.095626
0.20769
0.326006
0.450073
0.57932
0.695649
0.781831
0.837509
0.863898
0.868666
0.866554
0.865681
0.866663
0.867844
0.868065
-0.308068
-0.275935
-0.21183
-0.125062
-0.0260742
0.0806268
0.194257
0.314524
0.441213
0.574271
0.695952
0.788234
0.848695
0.876501
0.879512
0.874424
0.871483
0.87273
0.875665
0.877168
-0.326926
-0.294343
-0.229503
-0.141899
-0.0419546
0.065877
0.180864
0.302822
0.431837
0.568383
0.695237
0.794122
0.860614
0.891446
0.894205
0.886802
0.881026
0.88036
0.883532
0.885505
-0.345113
-0.31207
-0.246542
-0.15824
-0.0574853
0.0513192
0.16744
0.290822
0.421849
0.561548
0.69328
0.799135
0.872907
0.908373
0.912837
0.904819
0.896055
0.888573
0.880899
0.884448
-0.362584
-0.329182
-0.263095
-0.174285
-0.0729619
0.0366337
0.153589
0.278072
0.410757
0.553219
0.689546
0.802686
0.88545
0.927281
0.934884
0.927892
0.915158
0.899534
0.876484
0.879974
-0.379232
-0.345683
-0.279022
-0.18986
-0.0881404
0.0220984
0.139479
0.264842
0.39877
0.543482
0.683766
0.803547
0.896598
0.946248
0.956053
0.948697
0.931908
0.899223
0.843708
0.821004
-0.394965
-0.362613
-0.293929
-0.204535
-0.102218
0.00819999
0.125386
0.2514
0.386147
0.532458
0.675832
0.800784
0.904316
0.96298
0.969903
0.956353
0.926653
0.866912
0.804456
0.766931
-0.436717
-0.37935
-0.307522
-0.219286
-0.115974
-0.00607397
0.111457
0.237602
0.372641
0.519706
0.665096
0.793295
0.904586
0.971078
0.972261
0.937161
0.871199
0.795907
0.724051
0.684321
-0.409929
-0.390973
-0.32811
-0.239248
-0.137364
-0.0275598
0.0894861
0.215377
0.350202
0.497162
0.643149
0.772569
0.878791
0.952704
0.918159
0.787736
0.684019
0.612004
0.54298
0.562996
-0.439608
-0.407527
-0.343776
-0.255322
-0.153785
-0.0440522
0.0733413
0.198812
0.333004
0.478894
0.623261
0.749884
0.844896
0.885981
0.813638
0.655841
0.534352
0.452343
0.365393
0.4032
-0.462231
-0.427864
-0.362418
-0.273901
-0.172394
-0.0626002
0.0548039
0.179667
0.312784
0.456727
0.597768
0.718405
0.801109
0.804029
0.676695
0.506986
0.367257
0.2664
0.166772
0.190799
-0.484038
-0.448719
-0.381983
-0.292845
-0.191253
-0.08153
0.0354342
0.159461
0.291175
0.432541
0.568822
0.679689
0.744499
0.713206
0.535976
0.347506
0.179497
0.0396363
-0.0889266
-0.0842536
-0.505436
-0.469824
-0.402265
-0.312586
-0.210874
-0.101356
0.0149813
0.137958
0.267871
0.406032
0.536198
0.636685
0.679711
0.596616
0.396666
0.190413
-0.00195152
-0.159831
-0.366013
-0.446677
-0.527114
-0.491661
-0.423666
-0.33364
-0.231812
-0.122494
-0.00676455
0.115054
0.242922
0.377391
0.500495
0.591303
0.60476
0.470748
0.268661
0.0524477
-0.143868
-0.306991
-0.430084
-0.54307
-0.550133
-0.514703
-0.44654
-0.356391
-0.254606
-0.14562
-0.0306382
0.0897776
0.215139
0.34514
0.460419
0.537266
0.521053
0.35091
0.148355
-0.0612605
-0.240737
-0.339389
-0.365256
-0.378285
-0.574637
-0.539247
-0.471013
-0.380924
-0.2794
-0.170961
-0.0570249
0.0615975
0.183877
0.308459
0.415077
0.472475
0.434663
0.235578
0.0355234
-0.153559
-0.28935
-0.327838
-0.33624
-0.336588
-0.600918
-0.565424
-0.497128
-0.407229
-0.306146
-0.198532
-0.0859654
0.0304343
0.14904
0.267332
0.364471
0.403781
0.329628
0.129536
-0.063556
-0.227855
-0.304045
-0.318128
-0.319134
-0.31901
-0.628981
-0.593269
-0.524914
-0.435312
-0.334874
-0.228342
-0.117488
-0.00375111
0.110624
0.221869
0.308384
0.330472
0.217274
0.0328081
-0.149135
-0.279207
-0.308426
-0.309044
-0.309584
-0.309184
-0.65858
-0.622629
-0.554282
-0.465108
-0.365512
-0.260354
-0.151588
-0.0409544
0.0686791
0.172194
0.247949
0.249571
0.11832
-0.0552562
-0.215941
-0.291093
-0.305803
-0.303754
-0.303438
-0.303043
-0.689169
-0.653162
-0.584978
-0.496395
-0.397887
-0.294426
-0.188129
-0.0810672
0.0234355
0.11883
0.183471
0.168392
0.028158
-0.13204
-0.260787
-0.299813
-0.299082
-0.299303
-0.29901
-0.298682
-0.720307
-0.684342
-0.616523
-0.528767
-0.431655
-0.330243
-0.226835
-0.123815
-0.0247985
0.0627698
0.11396
0.0920829
-0.0522435
-0.192279
-0.286889
-0.295187
-0.296427
-0.296657
-0.296495
-0.296262
-0.751016
-0.71531
-0.648204
-0.5616
-0.466272
-0.36733
-0.267237
-0.168698
-0.0755838
0.00489443
0.0448225
0.0157039
-0.120169
-0.234122
-0.291445
-0.301512
-0.296054
-0.295011
-0.294618
-0.294421
-0.779661
-0.744802
-0.678992
-0.594016
-0.500963
-0.404979
-0.308661
-0.21496
-0.128122
-0.054314
-0.0191568
-0.0622815
-0.174835
-0.265953
-0.288785
-0.292463
-0.293342
-0.292946
-0.292758
-0.292641
-0.805003
-0.771328
-0.707506
-0.624821
-0.534673
-0.442246
-0.350219
-0.261662
-0.181144
-0.1143
-0.0813795
-0.1293
-0.21619
-0.284731
-0.305713
-0.295939
-0.292527
-0.291488
-0.291222
-0.291093
-0.824439
-0.792805
-0.732004
-0.65251
-0.566093
-0.477949
-0.390791
-0.307726
-0.233325
-0.173257
-0.143133
-0.181682
-0.243754
-0.288626
-0.293894
-0.293269
-0.291554
-0.290955
-0.290753
-0.290579
-0.835975
-0.807168
-0.750442
-0.675357
-0.593705
-0.510707
-0.429054
-0.351893
-0.283543
-0.228562
-0.199605
-0.2252
-0.260192
-0.287219
-0.28676
-0.290139
-0.291603
-0.291648
-0.291532
-0.291413
-0.836954
-0.812077
-0.760754
-0.691537
-0.615892
-0.539056
-0.463597
-0.39266
-0.330576
-0.279534
-0.246701
-0.264111
-0.273283
-0.289189
-0.291552
-0.291781
-0.292457
-0.292624
-0.292632
-0.292621
-0.825008
-0.804893
-0.760824
-0.699331
-0.631203
-0.561631
-0.4931
-0.428511
-0.372655
-0.327345
-0.282039
-0.300017
-0.285698
-0.293176
-0.295361
-0.294031
-0.293732
-0.294124
-0.294461
-0.294545
-0.798081
-0.783411
-0.748861
-0.697548
-0.6386
-0.577463
-0.516526
-0.458392
-0.408001
-0.370215
-0.322074
-0.316079
-0.305446
-0.304785
-0.299948
-0.300126
-0.299636
-0.300127
-0.300601
-0.300698
-0.759645
-0.750305
-0.726126
-0.686501
-0.63814
-0.586302
-0.53332
-0.481756
-0.436069
-0.403889
-0.372307
-0.344697
-0.31926
-0.324167
-0.331188
-0.322453
-0.31567
-0.314008
-0.314295
-0.314307
-0.716721
-0.711393
-0.697525
-0.669294
-0.63192
-0.589007
-0.543641
-0.498131
-0.456423
-0.425595
-0.397705
-0.371798
-0.341858
-0.322924
-0.303423
-0.306121
-0.324943
-0.336816
-0.340096
-0.34014
-0.679028
-0.675768
-0.66914
-0.6512
-0.622789
-0.58741
-0.548435
-0.507578
-0.467995
-0.435436
-0.409409
-0.392477
-0.379013
-0.386123
-0.406087
-0.432938
-0.435986
-0.409765
-0.395927
-0.398242
-0.651887
-0.649955
-0.646594
-0.635993
-0.614368
-0.584568
-0.549653
-0.511106
-0.471111
-0.43496
-0.407673
-0.397224
-0.424011
-0.479982
-0.547021
-0.596443
-0.607699
-0.575815
-0.529726
-0.51543
-0.632005
-0.631324
-0.630194
-0.624952
-0.609144
-0.582994
-0.549332
-0.51048
-0.467765
-0.425022
-0.393792
-0.366094
-0.357592
-0.385104
-0.435753
-0.450184
-0.454809
-0.442428
-0.416306
-0.401542
-0.620403
-0.620179
-0.619566
-0.617155
-0.606436
-0.582427
-0.548431
-0.507532
-0.460272
-0.407817
-0.364224
-0.307681
-0.2414
-0.195075
-0.19213
-0.200409
-0.170349
-0.124581
-0.0829756
-0.0626872
-0.612415
-0.612267
-0.611856
-0.611163
-0.604632
-0.583032
-0.548041
-0.503677
-0.450633
-0.386894
-0.32136
-0.237082
-0.106231
0.0514683
0.192806
0.306282
0.401532
0.472454
0.521441
0.541945
-0.60726
-0.607214
-0.607089
-0.606919
-0.603042
-0.584866
-0.548896
-0.500216
-0.441338
-0.366688
-0.28212
-0.185169
-0.00222533
0.261053
0.549122
0.807838
0.992404
1.09255
1.1304
1.14062
-0.603125
-0.603118
-0.603044
-0.602931
-0.601545
-0.587328
-0.551109
-0.498789
-0.434313
-0.352025
-0.255743
-0.151237
0.0483745
0.347201
0.675462
0.979977
1.21098
1.32947
1.36622
1.37324
-0.599677
-0.599698
-0.599616
-0.599411
-0.599243
-0.589323
-0.554684
-0.500447
-0.431652
-0.345756
-0.244972
-0.139755
0.0386089
0.316267
0.619324
0.897487
1.10882
1.221
1.26277
1.27387
-0.597033
-0.597084
-0.597151
-0.597243
-0.597745
-0.590739
-0.559527
-0.504693
-0.434535
-0.348214
-0.249017
-0.151446
-0.00137804
0.241752
0.496037
0.721665
0.899114
1.00168
1.04419
1.05628
-0.594289
-0.594438
-0.594743
-0.595268
-0.59563
-0.591785
-0.564417
-0.511558
-0.442753
-0.358216
-0.266162
-0.1798
-0.0657917
0.137215
0.351553
0.530409
0.673275
0.762897
0.799797
0.809102
-0.592067
-0.592192
-0.592149
-0.591805
-0.591306
-0.589705
-0.567926
-0.520252
-0.45486
-0.374769
-0.291068
-0.217523
-0.133241
0.0245502
0.198275
0.340663
0.451592
0.520579
0.547754
0.55346
-0.592477
-0.592405
-0.591729
-0.589805
-0.587052
-0.585516
-0.571272
-0.53102
-0.469696
-0.394295
-0.319848
-0.2572
-0.194705
-0.0719951
0.0611678
0.166542
0.248696
0.298443
0.316992
0.319391
-0.596707
-0.596595
-0.59601
-0.594359
-0.591502
-0.589697
-0.581498
-0.545224
-0.485065
-0.41505
-0.350512
-0.295928
-0.249541
-0.159068
-0.0577184
0.0193738
0.0766499
0.110323
0.121471
0.122643
-0.603031
-0.603458
-0.604965
-0.608869
-0.614279
-0.616527
-0.605608
-0.562624
-0.499506
-0.436759
-0.379327
-0.330227
-0.291121
-0.225618
-0.153077
-0.0993274
-0.0604807
-0.0389998
-0.0317419
-0.0309018
-0.60625
-0.607475
-0.612005
-0.624681
-0.643949
-0.651801
-0.632942
-0.576126
-0.513346
-0.458714
-0.405503
-0.359962
-0.329621
-0.278951
-0.225809
-0.18965
-0.165208
-0.152807
-0.148655
-0.148581
-0.606575
-0.607675
-0.611874
-0.623245
-0.644349
-0.657778
-0.628112
-0.573881
-0.525033
-0.477952
-0.425693
-0.385183
-0.360403
-0.322727
-0.282803
-0.256774
-0.240612
-0.232222
-0.229605
-0.229555
-0.612838
-0.613404
-0.614385
-0.607903
-0.587313
-0.570709
-0.567746
-0.551618
-0.530655
-0.489315
-0.440114
-0.405875
-0.384296
-0.351112
-0.318591
-0.298434
-0.285155
-0.278935
-0.276592
-0.27651
-0.626409
-0.626248
-0.623621
-0.598891
-0.539938
-0.491085
-0.502833
-0.534066
-0.53395
-0.496239
-0.451261
-0.42155
-0.402349
-0.370553
-0.339122
-0.318967
-0.305752
-0.298425
-0.2955
-0.295539
-0.648678
-0.646393
-0.642139
-0.622878
-0.577834
-0.535739
-0.539958
-0.569537
-0.557862
-0.506279
-0.459515
-0.433629
-0.411529
-0.381149
-0.349737
-0.326063
-0.308421
-0.298577
-0.295317
-0.29563
-0.709876
-0.709671
-0.72726
-0.753675
-0.763653
-0.741123
-0.711229
-0.668106
-0.598257
-0.517338
-0.46908
-0.438653
-0.414714
-0.381995
-0.347592
-0.320943
-0.300582
-0.289304
-0.285885
-0.286505
-0.828306
-0.839914
-0.877457
-0.922702
-0.941754
-0.92361
-0.868136
-0.768461
-0.635455
-0.527773
-0.471659
-0.432133
-0.407968
-0.375102
-0.338617
-0.309634
-0.288387
-0.276987
-0.273502
-0.274184
-0.923126
-0.938358
-0.971315
-1.0032
-1.01924
-1.00178
-0.934385
-0.795832
-0.635281
-0.523625
-0.45438
-0.411584
-0.388651
-0.354755
-0.318499
-0.290779
-0.271121
-0.260716
-0.257536
-0.258206
-0.918882
-0.929982
-0.952064
-0.975672
-0.989651
-0.975638
-0.905629
-0.746125
-0.592281
-0.486763
-0.411948
-0.374951
-0.355061
-0.320251
-0.286334
-0.262356
-0.246217
-0.237866
-0.23532
-0.235899
-0.807955
-0.817465
-0.835679
-0.856738
-0.871323
-0.859446
-0.790522
-0.647429
-0.52115
-0.417898
-0.35008
-0.323913
-0.303521
-0.271252
-0.243281
-0.224053
-0.210997
-0.204423
-0.20253
-0.203068
-0.613345
-0.62377
-0.643841
-0.668325
-0.688189
-0.679627
-0.612029
-0.508487
-0.411711
-0.325702
-0.279935
-0.256942
-0.237528
-0.211888
-0.190379
-0.175022
-0.164259
-0.159048
-0.157871
-0.158504
-0.369808
-0.380074
-0.40087
-0.430606
-0.455719
-0.450929
-0.403618
-0.338134
-0.272946
-0.224325
-0.196842
-0.176851
-0.166051
-0.147702
-0.130956
-0.118733
-0.11011
-0.106
-0.105612
-0.106467
-0.127947
-0.139258
-0.163902
-0.194459
-0.21881
-0.222602
-0.202604
-0.173778
-0.143016
-0.1215
-0.104163
-0.0950426
-0.0923999
-0.0799799
-0.070678
-0.0634265
-0.0565841
-0.053447
-0.0539283
-0.0549912
0.017618
0.00888731
-0.00636356
-0.0219689
-0.0335724
-0.0392798
-0.0417069
-0.0384989
-0.0318937
-0.0276276
-0.0228087
-0.0195928
-0.0174485
-0.0161805
-0.014302
-0.0154745
-0.0154058
-0.0149775
-0.0131321
-0.0124674
0.0395391
0.22256
0.389561
0.529925
0.640273
0.725337
0.794864
0.851121
0.86438
0.861655
0.316128
0.432654
0.541449
0.634713
0.712255
0.775517
0.825054
0.858495
0.876455
0.893497
0.502975
0.580104
0.656212
0.722634
0.778863
0.825332
0.862017
0.89024
0.911519
0.930826
0.641303
0.696259
0.751391
0.800743
0.843272
0.879498
0.910023
0.935701
0.955536
0.97445
0.753783
0.79523
0.836264
0.874732
0.909162
0.939683
0.966441
0.989234
1.00698
1.02509
0.847873
0.882422
0.916388
0.948998
0.97913
1.00649
1.03073
1.05119
1.06674
1.08424
0.934267
0.965527
0.99702
1.02753
1.05595
1.08183
1.10457
1.12325
1.13698
1.15399
1.01998
1.05215
1.08411
1.11491
1.14335
1.16884
1.19072
1.20806
1.22031
1.23681
1.11365
1.14992
1.18444
1.21665
1.24559
1.27073
1.29167
1.30782
1.31933
1.33544
1.22639
1.26711
1.30392
1.33659
1.36487
1.38871
1.40822
1.4234
1.43522
1.45126
1.3678
1.40863
1.44375
1.47317
1.49824
1.51976
1.53819
1.55362
1.56669
1.58261
1.53905
1.57096
1.5979
1.62024
1.64028
1.65895
1.67665
1.69339
1.70828
1.72398
1.72506
1.74224
1.75931
1.77598
1.79206
1.80678
1.82066
1.83512
1.85034
1.86764
1.90843
1.91833
1.93148
1.94245
1.95186
1.96151
1.9721
1.98226
1.99154
2.01721
2.1262
2.1205
2.10755
2.09329
2.08698
2.09268
2.11081
2.13933
2.1731
2.20942
2.42903
2.29308
2.21356
2.171
2.15366
2.15766
2.18508
2.24294
2.35059
2.529
0.826317
0.820016
0.812289
0.80118
0.787616
0.774979
0.764599
0.756611
0.750929
0.747648
0.747361
0.750256
0.755539
0.762933
0.77251
0.784359
0.797934
0.810873
0.819869
0.827413
0.735369
0.74129
0.749366
0.755505
0.758583
0.758084
0.755016
0.751048
0.747498
0.745267
0.745201
0.747523
0.751331
0.755818
0.759949
0.762216
0.761158
0.756533
0.749485
0.741655
0.72859
0.730963
0.734236
0.737017
0.739479
0.741683
0.742884
0.742768
0.741873
0.741126
0.741418
0.74291
0.744754
0.74603
0.745991
0.74455
0.742411
0.740064
0.737092
0.734078
0.72376
0.724849
0.726772
0.72912
0.731005
0.732423
0.733666
0.734695
0.735345
0.735792
0.736436
0.73727
0.73781
0.737748
0.737162
0.736272
0.734965
0.733013
0.730918
0.729444
0.718683
0.719317
0.720452
0.722222
0.724083
0.725699
0.726981
0.728087
0.729128
0.730109
0.731002
0.731629
0.731854
0.731714
0.73123
0.730295
0.728898
0.727311
0.725988
0.72519
0.71369
0.714129
0.714924
0.716243
0.717786
0.719377
0.720892
0.722239
0.723464
0.72465
0.72573
0.72646
0.726744
0.726591
0.725991
0.725042
0.723926
0.722811
0.721925
0.721395
0.70877
0.709096
0.709716
0.710803
0.712125
0.713558
0.715081
0.716617
0.718092
0.719512
0.720811
0.721712
0.722067
0.721924
0.721407
0.720686
0.719888
0.719069
0.718428
0.71804
0.703894
0.704147
0.704648
0.70558
0.706784
0.708133
0.709609
0.711209
0.712889
0.71459
0.71617
0.717278
0.717778
0.717805
0.717523
0.717056
0.716483
0.7159
0.715443
0.715147
0.698988
0.699188
0.699607
0.700432
0.701564
0.702875
0.704348
0.706009
0.70785
0.709826
0.711738
0.71315
0.713923
0.714226
0.71421
0.713989
0.713638
0.713259
0.712945
0.712713
0.693963
0.694123
0.694484
0.69524
0.696333
0.697635
0.699152
0.700915
0.70294
0.705209
0.707516
0.709341
0.710487
0.71112
0.711392
0.711428
0.711312
0.711121
0.710926
0.710741
0.688725
0.688854
0.689174
0.689889
0.690974
0.692313
0.693914
0.695828
0.698094
0.700724
0.703512
0.705848
0.707441
0.708458
0.709058
0.709375
0.709494
0.709489
0.7094
0.709251
0.683179
0.683282
0.683575
0.684276
0.685388
0.686808
0.68854
0.690662
0.693244
0.696328
0.699708
0.702655
0.704776
0.706239
0.707215
0.70784
0.708224
0.708404
0.708405
0.708282
0.67722
0.677301
0.677579
0.678289
0.679465
0.681009
0.682929
0.68533
0.688316
0.691964
0.696066
0.699749
0.702497
0.704482
0.705891
0.706887
0.707549
0.707913
0.707998
0.707896
0.670728
0.670789
0.671061
0.671805
0.673081
0.674797
0.676971
0.679734
0.683228
0.687572
0.692551
0.697119
0.700616
0.703219
0.705127
0.706535
0.707519
0.708086
0.708251
0.708165
0.663564
0.663602
0.663879
0.664679
0.666093
0.668038
0.670542
0.673764
0.677891
0.683088
0.689128
0.694758
0.699145
0.702479
0.704982
0.706864
0.708219
0.709006
0.70925
0.709176
0.655557
0.655575
0.655855
0.656733
0.658331
0.66057
0.663491
0.66729
0.6722
0.678441
0.685764
0.692663
0.698105
0.7023
0.705509
0.707964
0.70974
0.710766
0.711089
0.711021
0.646449
0.646457
0.646764
0.647747
0.649582
0.652192
0.65564
0.660158
0.666038
0.673554
0.682421
0.690832
0.697523
0.702733
0.706773
0.709912
0.712173
0.713459
0.713859
0.713794
0.635974
0.635956
0.636304
0.637439
0.639574
0.642657
0.646767
0.652185
0.659265
0.668341
0.679068
0.689268
0.697428
0.703834
0.708853
0.712781
0.715604
0.71717
0.717643
0.717575
0.623754
0.623716
0.624115
0.625439
0.627956
0.631646
0.636599
0.643152
0.651727
0.662711
0.675673
0.687978
0.69785
0.705645
0.711814
0.71665
0.720106
0.721962
0.722498
0.722421
0.609278
0.609217
0.609697
0.611275
0.614283
0.618757
0.624796
0.632798
0.643251
0.656579
0.672211
0.686982
0.698817
0.708204
0.715704
0.721571
0.725715
0.727855
0.728433
0.72834
0.591827
0.591743
0.592353
0.594288
0.597952
0.60347
0.61094
0.620825
0.633664
0.649879
0.668685
0.6863
0.700365
0.71155
0.720522
0.727545
0.732415
0.734801
0.735391
0.735274
0.570368
0.570268
0.571088
0.573545
0.578134
0.585099
0.594522
0.606914
0.622821
0.642592
0.665133
0.685974
0.702523
0.715689
0.726275
0.734545
0.740108
0.74266
0.743218
0.74307
0.543338
0.543239
0.544414
0.547682
0.553686
0.562763
0.574968
0.590782
0.610656
0.634775
0.661645
0.68607
0.705318
0.720616
0.732921
0.742459
0.748595
0.75118
0.751652
0.751469
0.508197
0.508156
0.509973
0.514648
0.523031
0.535455
0.551767
0.572296
0.597259
0.626597
0.658379
0.686694
0.708783
0.726303
0.740373
0.751092
0.75756
0.759993
0.760326
0.760111
0.46044
0.460634
0.463882
0.471531
0.484363
0.502309
0.524747
0.551659
0.582958
0.618362
0.655544
0.687974
0.712974
0.732708
0.7485
0.760168
0.766573
0.768634
0.768796
0.768563
0.391617
0.39312
0.401057
0.415589
0.436662
0.463429
0.494523
0.52956
0.568327
0.610474
0.653376
0.690007
0.717917
0.739753
0.757019
0.769184
0.77506
0.776565
0.776568
0.776348
0.309381
0.312288
0.327775
0.352949
0.385344
0.422495
0.46292
0.506476
0.553073
0.602457
0.651758
0.693351
0.724887
0.749398
0.768148
0.780222
0.785275
0.786295
0.786246
0.786116
0.224998
0.232562
0.255871
0.291664
0.334973
0.382293
0.432037
0.484131
0.538559
0.595125
0.650748
0.697203
0.732225
0.75935
0.779445
0.790898
0.794613
0.795076
0.794992
0.794917
0.15575
0.165495
0.193745
0.237048
0.288886
0.344783
0.402895
0.462957
0.524801
0.588141
0.649614
0.700467
0.738555
0.767718
0.78844
0.79906
0.801979
0.802265
0.802193
0.802145
0.0988407
0.109351
0.141368
0.190221
0.248486
0.311199
0.376289
0.443294
0.511808
0.581352
0.648194
0.703036
0.743854
0.774764
0.795912
0.805836
0.808227
0.80841
0.80835
0.808317
0.0510531
0.0619338
0.0965469
0.149707
0.21319
0.281527
0.352469
0.425437
0.499835
0.574968
0.646707
0.705183
0.748475
0.780947
0.80234
0.81167
0.813704
0.813825
0.813766
0.813738
0.0099603
0.0210012
0.0575406
0.114143
0.181964
0.255107
0.331128
0.409335
0.48899
0.569188
0.645394
0.70716
0.752636
0.786376
0.807901
0.816733
0.818535
0.818615
0.818552
0.818523
-0.0261562
-0.0150651
0.0229732
0.0824186
0.153929
0.231239
0.311758
0.394689
0.479154
0.564035
0.644367
0.709101
0.756451
0.791192
0.812701
0.821111
0.822763
0.822824
0.822761
0.82273
-0.058562
-0.0474605
-0.00823868
0.0536509
0.128368
0.209347
0.29389
0.381141
0.470083
0.559396
0.643626
0.711088
0.760048
0.795518
0.816865
0.82489
0.826447
0.82652
0.826477
0.826447
-0.088292
-0.077163
-0.0368997
0.0271545
0.104723
0.188969
0.277145
0.368373
0.461535
0.555114
0.643136
0.713199
0.763585
0.799555
0.820595
0.82824
0.829734
0.829851
0.829858
0.829844
-0.115933
-0.104766
-0.0635775
0.00242364
0.0825415
0.169728
0.261217
0.356134
0.453298
0.551046
0.64287
0.715525
0.767241
0.803549
0.824172
0.831428
0.832868
0.833057
0.83314
0.833155
-0.141981
-0.130766
-0.0887146
-0.0209413
0.0614792
0.151332
0.245861
0.344215
0.445202
0.547061
0.642796
0.718159
0.771209
0.807763
0.827896
0.834755
0.836136
0.836402
0.83657
0.836626
-0.166841
-0.155489
-0.112633
-0.0432239
0.041286
0.133558
0.230885
0.332453
0.437091
0.543036
0.642859
0.721169
0.775653
0.812422
0.832019
0.838472
0.839769
0.840093
0.840338
0.840437
-0.190659
-0.17915
-0.13553
-0.0646277
0.0217795
0.116257
0.216151
0.320713
0.428834
0.538827
0.642963
0.724595
0.780706
0.81769
0.836703
0.842695
0.843881
0.844233
0.844531
0.844666
-0.213648
-0.201931
-0.15758
-0.0852776
0.0028447
0.0993163
0.201559
0.308898
0.420322
0.534306
0.642966
0.728403
0.786496
0.823711
0.841996
0.847433
0.848463
0.848813
0.849129
0.849285
-0.235823
-0.223916
-0.178865
-0.105251
-0.0155875
0.0826765
0.187056
0.296948
0.411475
0.529337
0.642702
0.732491
0.793119
0.830658
0.847949
0.852579
0.853374
0.853727
0.854038
0.854184
-0.257305
-0.245165
-0.199399
-0.12459
-0.0335609
0.0663035
0.172607
0.284832
0.402238
0.523817
0.641987
0.736694
0.800608
0.838827
0.854784
0.858043
0.858345
0.858746
0.859137
0.859286
-0.277974
-0.265683
-0.219215
-0.143329
-0.0510858
0.0502102
0.158212
0.272536
0.392583
0.517676
0.640637
0.740785
0.808915
0.84853
0.863041
0.864094
0.863228
0.863613
0.864464
0.864869
-0.297994
-0.285475
-0.238328
-0.161491
-0.0681759
0.0343858
0.143906
0.260076
0.382508
0.510875
0.638493
0.744483
0.817835
0.859994
0.873564
0.871904
0.868744
0.868596
0.870519
0.871961
-0.317255
-0.304506
-0.256759
-0.179062
-0.0847865
0.0188748
0.129725
0.247514
0.372044
0.50337
0.635427
0.747477
0.827023
0.873167
0.887144
0.883289
0.877178
0.87544
0.878345
0.88203
-0.335841
-0.32287
-0.274481
-0.196012
-0.100912
0.00371227
0.115721
0.234886
0.361237
0.495206
0.631348
0.749426
0.835999
0.887557
0.9037
0.89933
0.890884
0.885728
0.883296
0.878523
-0.353681
-0.340549
-0.291588
-0.212517
-0.116776
-0.0113773
0.101574
0.221816
0.349691
0.485964
0.625876
0.749974
0.84466
0.903349
0.923428
0.920534
0.910936
0.899508
0.886881
0.887151
-0.370771
-0.35764
-0.308106
-0.228536
-0.132385
-0.0263741
0.0872947
0.208259
0.337331
0.475448
0.618683
0.748362
0.851849
0.91951
0.944337
0.943739
0.932171
0.918055
0.881142
0.843997
-0.386931
-0.374016
-0.324026
-0.243948
-0.147756
-0.0413005
0.0728571
0.194319
0.324176
0.463612
0.609517
0.743901
0.855748
0.934205
0.963768