/*--------------------------------*- C++ -*----------------------------------*\
  =========                 |
  \\      /  F ield         | OpenFOAM: The Open Source CFD Toolbox
   \\    /   O peration     | Website:  https://openfoam.org
    \\  /    A nd           | Version:  6
     \\/     M anipulation  |
\*---------------------------------------------------------------------------*/
FoamFile
{
    version     2.0;
    format      ascii;
    class       surfaceScalarField;
    location    "79";
    object      phi;
}
// * * * * * * * * * * * * * * * * * * * * * * * * * * * * * * * * * * * * * //

dimensions      [0 3 -1 0 0 0 0];

internalField   nonuniform List<scalar> 
17370
(
-0.0900004
0.0898494
0.289162
-0.0714629
0.053753
0.364485
-0.0381199
0.0276907
0.426597
-0.0196388
0.0146057
0.504285
-0.0107637
0.00827313
0.601893
-0.00627328
0.00489671
0.720434
-0.00373285
0.00289244
0.863747
-0.00215118
0.00159223
1.03601
-0.00107573
0.000663336
1.24292
-0.000256084
-0.000138404
1.49159
0.000517801
-0.000928588
1.4916
0.00132709
-0.00181667
1.24318
0.00234412
-0.00304923
1.03634
0.0038622
-0.00500556
0.86405
0.00637115
-0.00836373
0.72105
0.0108487
-0.0146842
0.60305
0.0197107
-0.0277548
0.507483
0.0381764
-0.0538007
0.431792
0.071502
-0.0898756
0.365149
0.0900161
0.198995
-0.128136
0.0882266
0.0399097
-0.364599
0.353379
-0.0746724
0.0858926
-0.446476
0.45432
-0.0843895
0.0765453
-0.52119
0.529902
-0.068448
0.0597364
-0.612789
0.621569
-0.0515472
0.0427671
-0.726894
0.734165
-0.0353058
0.0280356
-0.867475
0.872592
-0.022434
0.0173176
-1.03847
1.04192
-0.0135072
0.0100569
-1.2446
1.24703
-0.00744574
0.00501225
-1.49262
1.4946
-0.00306359
0.00108345
-1.4925
1.49423
0.000592404
-0.00231757
-1.24398
1.24586
0.00422194
-0.00610734
-1.03751
1.04004
0.00846376
-0.0109911
-0.866101
0.869827
0.0143415
-0.0180674
-0.72439
0.729933
0.0231058
-0.0286485
-0.608697
0.616111
0.0358628
-0.0432762
-0.514897
0.52304
0.0520055
-0.0601488
-0.439856
0.447914
0.0688111
-0.0768691
-0.375295
0.376739
0.0846661
-0.0861099
-0.25733
0.222477
0.0748199
-0.0399667
-0.0685198
0.0586945
0.00982533
-0.0518081
0.0583902
-0.374128
0.367546
-0.0574732
0.05372
-0.453595
0.457349
-0.0486289
0.0446753
-0.527948
0.531902
-0.0408339
0.0371935
-0.621565
0.625205
-0.03309
0.0290125
-0.735351
0.739428
-0.0244403
0.0202793
-0.874343
0.878504
-0.0159317
0.0122361
-1.04349
1.04719
-0.00849657
0.00532184
-1.24856
1.25174
-0.00199169
-0.00108259
-1.49666
1.49973
0.00413072
-0.00739803
-1.4972
1.50047
0.0104796
-0.0140862
-1.25007
1.25367
0.0176413
-0.0218257
-1.04592
1.05011
0.0258465
-0.0302823
-0.87776
0.882196
0.0342508
-0.0382469
-0.739898
0.743894
0.0417959
-0.0455424
-0.626772
0.630518
0.0494143
-0.0544275
-0.534809
0.539822
0.0580957
-0.058906
-0.457473
0.458283
0.0521986
-0.0319932
-0.335748
0.315543
0.00988894
-0.0683431
0.0584542
-0.0529446
0.0489504
0.00399421
-0.0331532
0.0436944
-0.358115
0.347574
-0.0473891
0.0467591
-0.459289
0.459919
-0.0437006
0.0403453
-0.535805
0.539161
-0.0365698
0.0332631
-0.628532
0.631839
-0.0298222
0.0267877
-0.742653
0.745687
-0.0235262
0.020417
-0.882024
0.885133
-0.016884
0.013502
-1.05078
1.05416
-0.00970569
0.00616429
-1.25517
1.25871
-0.00219227
-0.00160669
-1.50324
1.50704
0.00537287
-0.00924725
-1.50413
1.50801
0.0126559
-0.0162672
-1.25741
1.26102
0.0194538
-0.0227588
-1.05391
1.05722
0.0256694
-0.0287344
-0.885684
0.888749
0.031609
-0.0348911
-0.747152
0.750434
0.0380637
-0.0417023
-0.634301
0.63794
0.0449401
-0.0478647
-0.54413
0.547055
0.0483537
-0.0444609
-0.456566
0.452673
0.0336836
-0.0162268
-0.296172
0.278715
0.00407333
-0.0526331
0.0485597
-0.0458742
0.0433806
0.00249352
-0.0227932
0.0331649
-0.33689
0.326518
-0.0389799
0.0399923
-0.459606
0.458594
-0.0387978
0.0365076
-0.541882
0.544172
-0.0338362
0.0312364
-0.634892
0.637492
-0.0281689
0.0252658
-0.748735
0.751638
-0.0219972
0.019
-0.88809
0.891087
-0.0156913
0.0125884
-1.0573
1.0604
-0.00905839
0.00564601
-1.26218
1.26559
-0.00167959
-0.00220652
-1.51093
1.51481
0.00604873
-0.00988472
-1.5119
1.51573
0.013121
-0.0164083
-1.26446
1.26774
0.0192551
-0.0222644
-1.06032
1.06333
0.0249981
-0.028003
-0.891799
0.894804
0.0306886
-0.0335381
-0.753636
0.756486
0.0359542
-0.0384407
-0.641002
0.643489
0.0405723
-0.0415583
-0.548854
0.54984
0.0403279
-0.0341947
-0.447386
0.441253
0.0234751
-0.0102454
-0.263486
0.250257
0.00259132
-0.0453944
0.0428031
-0.0413077
0.0395433
0.00176443
-0.0167277
0.0259682
-0.316674
0.307434
-0.0325634
0.0346958
-0.456999
0.454867
-0.0342683
0.0325927
-0.546152
0.547828
-0.0304065
0.0283063
-0.639799
0.6419
-0.0258694
0.023467
-0.754286
0.756688
-0.0206032
0.0178091
-0.893986
0.896781
-0.0145672
0.0114927
-1.06345
1.06652
-0.00799683
0.00466623
-1.26891
1.27224
-0.000828972
-0.00290701
-1.5186
1.52234
0.00658698
-0.0102577
-1.51946
1.52314
0.0133634
-0.0165495
-1.27098
1.27417
0.0192969
-0.0221559
-1.06636
1.06922
0.0246123
-0.0271363
-0.897612
0.900136
0.0292576
-0.0314132
-0.758931
0.761086
0.0332784
-0.0352268
-0.645638
0.647586
0.0366726
-0.036817
-0.550351
0.550496
0.0343501
-0.0272889
-0.434574
0.427513
0.0175794
-0.00741929
-0.238711
0.228551
0.00188391
-0.0406209
0.038737
-0.0380241
0.0366984
0.00132573
-0.0127603
0.0206902
-0.298854
0.290924
-0.0274239
0.0303341
-0.452316
0.449405
-0.0305281
0.0293998
-0.549263
0.550392
-0.0273988
0.0254748
-0.643939
0.645863
-0.0232666
0.0211218
-0.758932
0.761077
-0.0185983
0.0161068
-0.899361
0.901852
-0.0131551
0.0102669
-1.06947
1.07236
-0.00689521
0.0036459
-1.27551
1.27875
0.000108095
-0.00374061
-1.526
1.52963
0.00730327
-0.0108488
-1.52673
1.53027
0.0138173
-0.0168028
-1.27729
1.28027
0.0192827
-0.0217552
-1.07195
1.07442
0.0238234
-0.0259197
-0.902415
0.904512
0.0277093
-0.0295604
-0.763062
0.764914
0.0311873
-0.0328997
-0.649398
0.651111
0.0336934
-0.0331031
-0.550276
0.549686
0.0297143
-0.0223421
-0.420239
0.412867
0.0138093
-0.00575861
-0.219546
0.211495
0.00147108
-0.0370847
0.0356136
-0.0355412
0.0345214
0.00101984
-0.00995562
0.0166486
-0.283638
0.276945
-0.0231075
0.0264621
-0.446253
0.442899
-0.0272275
0.0265155
-0.551304
0.552016
-0.0247452
0.0229505
-0.647765
0.649559
-0.0208687
0.0188411
-0.763157
0.765184
-0.0164567
0.014117
-0.904198
0.906538
-0.0113637
0.00866475
-1.07508
1.07778
-0.00549188
0.00239424
-1.28189
1.28499
0.00122728
-0.00474669
-1.53319
1.53671
0.00817929
-0.0115411
-1.53371
1.53708
0.0142898
-0.0169845
-1.28312
1.28581
0.0191785
-0.0213399
-1.0768
1.07896
0.0231567
-0.0250126
-0.906479
0.908335
0.0266002
-0.0282395
-0.766652
0.768292
0.0296658
-0.0310371
-0.652679
0.654051
0.0313346
-0.0300066
-0.54874
0.547412
0.0259923
-0.0186924
-0.405504
0.398204
0.0112414
-0.00466007
-0.204248
0.197667
0.00119658
-0.0342947
0.0330982
-0.0336272
0.0328351
0.000792127
-0.00787289
0.0134864
-0.270822
0.265208
-0.019451
0.0229941
-0.43944
0.435897
-0.0242292
0.0237606
-0.55264
0.553109
-0.022253
0.0205645
-0.65135
0.653039
-0.0185736
0.0166277
-0.767164
0.76911
-0.0143307
0.0120745
-0.908769
0.911025
-0.0094205
0.0068287
-1.08035
1.08294
-0.00379422
0.00083734
-1.28796
1.29092
0.00261534
-0.00596275
-1.54012
1.54346
0.00920365
-0.0123376
-1.5403
1.54344
0.0148672
-0.0173169
-1.28839
1.29084
0.01929
-0.0212187
-1.0811
1.08303
0.0228336
-0.0244813
-0.910084
0.911732
0.0258863
-0.0273324
-0.769826
0.771272
0.0285607
-0.0295484
-0.655221
0.656209
0.0294693
-0.0274673
-0.545746
0.543744
0.0230433
-0.016
-0.391025
0.383982
0.0094445
-0.00390245
-0.191653
0.186111
0.00100686
-0.0320075
0.0310006
-0.0321412
0.0315262
0.000615059
-0.00626194
0.0109521
-0.260085
0.255394
-0.0163165
0.0198505
-0.432359
0.428825
-0.0214004
0.0211527
-0.553504
0.553752
-0.0198721
0.0182392
-0.654747
0.65638
-0.0162999
0.0143995
-0.771021
0.772922
-0.0121569
0.009955
-0.913178
0.91538
-0.00736487
0.0048391
-1.08542
1.08795
-0.00189098
-0.000963713
-1.29377
1.29663
0.00426785
-0.00744002
-1.54669
1.54986
0.0104824
-0.0133985
-1.54643
1.54934
0.0157337
-0.0179709
-1.29319
1.29543
0.0197427
-0.021448
-1.08496
1.08666
0.0228677
-0.0243174
-0.913272
0.914722
0.0255557
-0.0268256
-0.772621
0.773891
0.0279089
-0.0284716
-0.65699
0.657552
0.0280138
-0.0254398
-0.541464
0.53889
0.0207582
-0.0140326
-0.377104
0.370379
0.00817978
-0.00337642
-0.180975
0.176171
0.000875831
-0.0300681
0.0291922
-0.0309918
0.0305207
0.000471131
-0.00496147
0.00885386
-0.25113
0.247238
-0.0135737
0.0169498
-0.425379
0.422003
-0.0186741
0.0186112
-0.553953
0.554015
-0.0175177
0.0159162
-0.658063
0.659664
-0.0139942
0.0121037
-0.7748
0.776691
-0.00987395
0.00769062
-0.917482
0.919666
-0.00513172
0.00264646
-1.09037
1.09285
0.000241119
-0.00302012
-1.29938
1.30216
0.0062103
-0.00924022
-1.55292
1.55595
0.0121124
-0.0148309
-1.55213
1.55484
0.0169806
-0.0190078
-1.29757
1.2996
0.0205785
-0.0220634
-1.08839
1.08988
0.0232971
-0.0245636
-0.916065
0.917331
0.0256507
-0.0267596
-0.775068
0.776177
0.0276395
-0.0278406
-0.657927
0.658128
0.0269549
-0.0238938
-0.536075
0.533014
0.0190478
-0.0126265
-0.36382
0.357399
0.00730263
-0.0030183
-0.171658
0.167373
0.000788237
-0.0283682
0.02758
-0.0301189
0.0297699
0.000348915
-0.00386832
0.00705816
-0.243722
0.240532
-0.0111214
0.0142291
-0.41878
0.415672
-0.0160001
0.016084
-0.554059
0.553975
-0.0150638
0.013529
-0.661306
0.66284
-0.0115949
0.00968
-0.77857
0.780485
-0.00742304
0.00522182
-0.921756
0.923957
-0.00265555
0.000177683
-1.09524
1.09772
0.00268263
-0.0054144
-1.30485
1.30758
0.00852076
-0.0114347
-1.55889
1.5618
0.014157
-0.0166902
-1.55743
1.55996
0.0186585
-0.0204768
-1.30153
1.30334
0.0218465
-0.0231132
-1.09142
1.09269
0.0241673
-0.0252601
-0.91849
0.919583
0.0262043
-0.0271505
-0.777186
0.778132
0.0277694
-0.0276727
-0.658186
0.658089
0.0263334
-0.0228196
-0.529732
0.526218
0.0178467
-0.01167
-0.351123
0.344946
0.00672248
-0.00278816
-0.163291
0.159357
0.000734045
-0.0268265
0.0260925
-0.0294835
0.0292441
0.000239412
-0.00290648
0.00546058
-0.237683
0.235129
-0.00886723
0.0116233
-0.412765
0.410009
-0.013326
0.0134816
-0.553918
0.553763
-0.0124967
0.0109961
-0.664441
0.665942
-0.0090263
0.00705819
-0.782395
0.784363
-0.00473856
0.00248433
-0.926067
0.928321
0.000130633
-0.00263928
-1.1001
1.10261
0.00551231
-0.00823022
-1.31024
1.31295
0.0112853
-0.0141094
-1.56462
1.56745
0.0167024
-0.0190661
-1.56236
1.56473
0.020865
-0.0224835
-1.30507
1.30668
0.0236544
-0.0246987
-1.09404
1.09509
0.0255665
-0.0264753
-0.92056
0.921469
0.0272656
-0.0280469
-0.778941
0.779722
0.0283806
-0.0279701
-0.657848
0.657438
0.0261679
-0.0222168
-0.522509
0.518557
0.017113
-0.0110924
-0.338877
0.332856
0.0063837
-0.00266123
-0.155553
0.151831
0.000706916
-0.0253796
0.0246727
-0.0290645
0.0289296
0.000134924
-0.00201236
0.00396819
-0.232898
0.230942
-0.00671251
0.00904563
-0.407495
0.405162
-0.0105708
0.0107184
-0.553687
0.553539
-0.00973427
0.00822873
-0.667543
0.669048
-0.00619415
0.0041402
-0.786329
0.788383
-0.00171835
-0.000626019
-0.930486
0.932831
0.00333031
-0.00590663
-1.10504
1.10761
0.00883254
-0.0115711
-1.3156
1.31834
0.0146067
-0.0173622
-1.57019
1.57294
0.0198387
-0.0220406
-1.56695
1.56916
0.0236733
-0.0250912
-1.3082
1.30962
0.0260566
-0.026871
-1.09626
1.09708
0.0275425
-0.0282548
-0.922255
0.922967
0.0288894
-0.0295295
-0.780339
0.780979
0.0295313
-0.0287124
-0.656835
0.656016
0.0264447
-0.0220585
-0.514432
0.510045
0.0167935
-0.0108296
-0.3269
0.320936
0.00623927
-0.00261635
-0.148183
0.14456
0.000701134
-0.0239764
0.0232753
-0.028855
0.0288258
2.92199e-05
-0.00113879
0.00250943
-0.229301
0.22793
-0.00457543
0.0064201
-0.403107
0.401262
-0.00766294
0.00771977
-0.553531
0.553474
-0.00668768
0.00513741
-0.670694
0.672244
-0.00299603
0.000821644
-0.790439
0.792613
0.00174245
-0.00421494
-0.935086
0.937558
0.00705235
-0.00973772
-1.11011
1.1128
0.012761
-0.0155577
-1.32101
1.32381
0.0186099
-0.0213233
-1.57562
1.57833
0.0237006
-0.0257486
-1.57122
1.57327
0.0272165
-0.0284314
-1.31092
1.31214
0.0291902
-0.0297697
-1.09805
1.09863
0.0302377
-0.0307416
-0.923554
0.924057
0.0311996
-0.0315956
-0.78137
0.781766
0.0313057
-0.0300077
-0.655005
0.653707
0.0272297
-0.0223674
-0.50548
0.500618
0.0168768
-0.0108543
-0.314984
0.308962
0.0062678
-0.00264407
-0.140963
0.137339
0.000714372
-0.0225757
0.0218613
-0.0288579
0.0289372
-7.93555e-05
-0.000240674
0.00101624
-0.226876
0.2261
-0.00237233
0.00366167
-0.399726
0.398437
-0.00452129
0.00440463
-0.553623
0.55374
-0.00326926
0.00161798
-0.673984
0.675635
0.000664967
-0.00300137
-0.79479
0.797126
0.00575691
-0.00840422
-0.939943
0.94259
0.0114256
-0.0142642
-1.11541
1.11825
0.0174302
-0.0203238
-1.32655
1.32945
0.0234309
-0.0261317
-1.58097
1.58367
0.0284287
-0.0303281
-1.57517
1.57707
0.031627
-0.0326301
-1.31323
1.31423
0.0331777
-0.0335188
-1.0994
1.09974
0.0337745
-0.0340584
-0.924427
0.924711
0.0343144
-0.0343937
-0.78184
0.78192
0.0337775
-0.0319172
-0.652214
0.650354
0.0285709
-0.023166
-0.495564
0.490159
0.0173606
-0.011152
-0.302895
0.296686
0.00645622
-0.00273777
-0.133695
0.129977
0.000744595
-0.0211404
0.0203958
-0.02909
0.0292977
-0.000207778
0.000710952
-0.000576338
-0.225648
0.225514
-2.11689e-05
0.000679981
-0.397485
0.396826
-0.00104918
0.000665843
-0.554147
0.55453
0.000645681
-0.00245931
-0.677532
0.679346
0.00494142
-0.00749073
-0.799467
0.802016
0.0104941
-0.0133672
-0.945152
0.948025
0.016628
-0.0196698
-1.12103
1.12407
0.0230301
-0.0260606
-1.3323
1.33533
0.0292539
-0.0319565
-1.58631
1.58901
0.0341765
-0.0359262
-1.57881
1.58056
0.037056
-0.0378448
-1.31507
1.31586
0.038172
-0.0382539
-1.10025
1.10034
0.0382778
-0.0383287
-0.924839
0.92489
0.0383945
-0.0380632
-0.781652
0.781321
0.0370349
-0.0345261
-0.64831
0.645801
0.0305255
-0.0244759
-0.484531
0.478481
0.0182411
-0.0117075
-0.290368
0.283835
0.00679089
-0.00289014
-0.126194
0.122294
0.000789483
-0.0196374
0.0188479
-0.0295828
0.0299371
-0.000354251
0.00176872
-0.00226803
-0.225716
0.226216
0.00252455
-0.00260359
-0.396528
0.396607
0.00286723
-0.00362706
-0.555323
0.556082
0.0051789
-0.00721954
-0.681466
0.683507
0.00997426
-0.0127992
-0.804568
0.807393
0.0161161
-0.0192751
-0.950817
0.953976
0.0228413
-0.0261438
-1.12707
1.13037
0.0297553
-0.0329672
-1.33832
1.34153
0.0362864
-0.0390142
-1.59164
1.59437
0.041162
-0.042749
-1.58213
1.58371
0.0436889
-0.0442525
-1.31645
1.31701
0.0443512
-0.0441535
-1.10058
1.10038
0.0439248
-0.0437254
-0.924736
0.924537
0.0435657
-0.0427341
-0.780625
0.779794
0.041204
-0.0379321
-0.643121
0.639849
0.0331589
-0.0263248
-0.472162
0.465328
0.0195203
-0.0125104
-0.277123
0.270113
0.00726061
-0.00309444
-0.118289
0.114123
0.000846647
-0.0180387
0.017192
-0.0303641
0.0308967
-0.000532615
0.00306018
-0.00433932
-0.227134
0.228413
0.00548315
-0.00636526
-0.397054
0.397937
0.00736666
-0.00861137
-0.557386
0.55863
0.0105175
-0.0128615
-0.68592
0.688264
0.0159704
-0.0191449
-0.810217
0.813392
0.0228561
-0.0263734
-0.957063
0.96058
0.0303192
-0.0339437
-1.13364
1.13726
0.0378648
-0.0413009
-1.34471
1.34815
0.0447774
-0.0475424
-1.59703
1.5998
0.0496117
-0.0510177
-1.5851
1.58651
0.0517426
-0.0520675
-1.3173
1.31762
0.0519162
-0.0514163
-1.10032
1.09982
0.0509205
-0.0504562
-0.924073
0.923609
0.049942
-0.0486414
-0.778674
0.777373
0.0464356
-0.0422399
-0.636394
0.632198
0.0365338
-0.0287332
-0.458159
0.450358
0.0211927
-0.0135431
-0.26285
0.255201
0.0078487
-0.00334086
-0.109815
0.105308
0.000912687
-0.0163211
0.0154084
-0.0315078
0.0322666
-0.000758834
0.00458911
-0.00675938
-0.230124
0.232294
0.00899282
-0.0107954
-0.399285
0.401087
0.0126432
-0.0144932
-0.560586
0.562436
0.0168955
-0.0196436
-0.691055
0.693803
0.0232222
-0.026835
-0.816568
0.820181
0.0310328
-0.0349879
-0.964036
0.967991
0.0393945
-0.043406
-1.14086
1.14487
0.0476923
-0.0513835
-1.35156
1.35525
0.0550263
-0.0578147
-1.60248
1.60527
0.0597775
-0.0609656
-1.58768
1.58887
0.0614431
-0.0615069
-1.31757
1.31763
0.0610841
-0.0602471
-1.09944
1.09861
0.0594551
-0.0587072
-0.922799
0.922051
0.0577462
-0.0558842
-0.775822
0.77396
0.0528675
-0.0475384
-0.627804
0.622475
0.0406896
-0.0316953
-0.44214
0.433145
0.0232281
-0.0147689
-0.24722
0.23876
0.00852502
-0.00361286
-0.100626
0.0957142
0.000982044
-0.0144694
0.0134873
-0.0331004
0.0341551
-0.00105474
0.00651275
-0.00976643
-0.234923
0.238177
0.0132587
-0.016133
-0.403486
0.406361
0.018967
-0.0215492
-0.565205
0.567788
0.0245916
-0.0278771
-0.697088
0.700373
0.0320582
-0.0362196
-0.823802
0.827964
0.0410168
-0.0455041
-0.971901
0.976389
0.0504609
-0.0549222
-1.14887
1.15333
0.0596181
-0.0635821
-1.3589
1.36287
0.0673848
-0.0701664
-1.60795
1.61073
0.0719765
-0.0728894
-1.5898
1.59071
0.0730505
-0.0727882
-1.31713
1.31687
0.0720754
-0.0708725
-1.09786
1.09665
0.0697636
-0.0687195
-0.920892
0.919848
0.0671963
-0.0646601
-0.771886
0.76935
0.0606352
-0.0538943
-0.616912
0.610171
0.0456299
-0.0351623
-0.423634
0.413166
0.0255567
-0.0161209
-0.229893
0.220458
0.00924067
-0.00388573
-0.0906078
0.0852529
0.001047
-0.0124803
0.0114333
-0.0352718
0.0367364
-0.00146455
0.00902605
-0.0136465
-0.241872
0.246493
0.018637
-0.0227508
-0.41003
0.414144
0.0267298
-0.0301994
-0.571571
0.57504
0.0340672
-0.0380526
-0.7043
0.708286
0.0430095
-0.047862
-0.832136
0.836989
0.0533897
-0.0585053
-0.980849
0.985965
0.0640893
-0.0690403
-1.15778
1.16273
0.0741528
-0.0783589
-1.36676
1.37097
0.0822478
-0.0849252
-1.61335
1.61603
0.0864807
-0.0870244
-1.59131
1.59185
0.0868197
-0.0861707
-1.31591
1.31526
0.0851171
-0.0835315
-1.09549
1.09391
0.0821037
-0.0806048
-0.918287
0.916788
0.0785792
-0.0750981
-0.766563
0.763082
0.0697983
-0.0612775
-0.603132
0.594611
0.0512561
-0.0389936
-0.402075
0.389812
0.0280339
-0.0174814
-0.210552
0.199999
0.00991637
-0.00412191
-0.0797021
0.0739076
0.00109636
-0.0103678
0.00927145
-0.0382232
0.0402708
-0.00204761
0.0125313
-0.0188758
-0.251489
0.257834
0.0256628
-0.031219
-0.419409
0.424965
0.0365482
-0.0411035
-0.580079
0.584634
0.0460094
-0.0509083
-0.713042
0.717941
0.0568682
-0.0625717
-0.84185
0.847553
0.0689579
-0.0747763
-0.991066
0.996884
0.0810205
-0.0864414
-1.16764
1.17306
0.0918933
-0.0962281
-1.37504
1.37937
0.100044
-0.102455
-1.61845
1.62086
0.103599
-0.103632
-1.59199
1.59202
0.102976
-0.101822
-1.31379
1.31264
0.100389
-0.0984183
-1.0923
1.09033
0.096642
-0.0945737
-0.914631
0.912562
0.0919793
-0.0872886
-0.759289
0.754599
0.0803342
-0.0695493
-0.585698
0.574913
0.0573504
-0.0429366
-0.376823
0.362409
0.0304272
-0.0186778
-0.188945
0.177195
0.0104441
-0.00427406
-0.067944
0.061774
0.00111713
-0.00816873
0.0070516
-0.0422817
0.0452354
-0.00295366
0.0176066
-0.0262221
-0.2645
0.273116
0.0352266
-0.042516
-0.432294
0.439584
0.0494585
-0.05532
-0.591224
0.597085
0.0615835
-0.0677
-0.723757
0.729873
0.074876
-0.0815483
-0.853234
0.859907
0.0888525
-0.0953608
-1.00267
1.00918
0.102176
-0.107926
-1.17835
1.1841
0.113508
-0.11775
-1.38345
1.38769
0.121229
-0.123125
-1.62288
1.62478
0.123636
-0.12296
-1.59153
1.59086
0.121697
-0.119937
-1.31058
1.30882
0.118094
-0.115709
-1.08821
1.08582
0.113516
-0.110853
-0.909693
0.90703
0.107449
-0.10111
-0.749454
0.743115
0.0919845
-0.0783334
-0.563602
0.54995
0.0634754
-0.0465647
-0.347205
0.330295
0.0323829
-0.0194721
-0.164978
0.152067
0.010686
-0.00428595
-0.0555026
0.0491026
0.00109466
-0.00594616
0.00485151
-0.0480298
0.0525087
-0.00447887
0.0254565
-0.0371467
-0.282083
0.293773
0.0490248
-0.0586404
-0.449737
0.459353
0.0676317
-0.0750759
-0.60559
0.613035
0.0829669
-0.0905962
-0.736861
0.74449
0.0990413
-0.106619
-0.866493
0.874071
0.114674
-0.121639
-1.01555
1.02252
0.128691
-0.134417
-1.18955
1.19528
0.139713
-0.143469
-1.39146
1.39522
0.146183
-0.147199
-1.62609
1.6271
0.146772
-0.145147
-1.58954
1.58791
0.143112
-0.14065
-1.30605
1.30359
0.13831
-0.135479
-1.08308
1.08025
0.132778
-0.129482
-0.903377
0.900081
0.12484
-0.116203
-0.736089
0.727452
0.104196
-0.0869529
-0.535577
0.518334
0.0689415
-0.0492863
-0.312636
0.292981
0.0334585
-0.0195994
-0.138839
0.12498
0.0105021
-0.00410527
-0.0427192
0.0363224
0.0010153
-0.00378898
0.00277368
-0.0565609
0.0641884
-0.00762752
0.039144
-0.0553544
-0.306407
0.322617
0.0712908
-0.084115
-0.473382
0.486206
0.0952766
-0.104175
-0.623667
0.632565
0.113658
-0.122639
-0.752676
0.761658
0.132106
-0.140147
-0.881344
0.889385
0.14833
-0.155121
-1.02906
1.03585
0.161726
-0.166796
-1.20038
1.20545
0.171157
-0.173839
-1.39819
1.40087
0.175226
-0.174888
-1.62727
1.62694
0.173133
-0.170266
-1.58549
1.58262
0.167254
-0.163937
-1.29999
1.29667
0.161007
-0.157679
-1.07678
1.07345
0.154421
-0.150123
-0.89531
0.891012
0.143671
-0.131775
-0.717738
0.705842
0.115887
-0.0942359
-0.500038
0.478388
0.0728022
-0.0504644
-0.272831
0.250493
0.0332799
-0.018902
-0.111157
0.0967788
0.0098276
-0.00370984
-0.0301181
0.0240003
0.000866359
-0.00180302
0.000936664
-0.0712713
0.0755339
-0.00426254
0.0298598
-0.0440431
-0.341457
0.355641
0.0583053
-0.070137
-0.504642
0.516474
0.0807933
-0.0908177
-0.645181
0.655206
0.102125
-0.112646
-0.77003
0.780551
0.124395
-0.134844
-0.896386
0.906836
0.146023
-0.156029
-1.04174
1.05174
0.166613
-0.175814
-1.20947
1.21868
0.185165
-0.192839
-1.40243
1.41011
0.200015
-0.205121
-1.62548
1.63058
0.208162
-0.209766
-1.57874
1.58035
0.210148
-0.210041
-1.29206
1.29195
0.209999
-0.209239
-1.06894
1.06818
0.207691
-0.203101
-0.884378
0.879788
0.193503
-0.174749
-0.692256
0.673503
0.149718
-0.117301
-0.455565
0.423148
0.0872347
-0.0577813
-0.228183
0.19873
0.0366021
-0.0199419
-0.083138
0.0664779
0.00991684
-0.00352328
-0.0183516
0.011958
0.000741676
-5.7016e-05
-0.00068466
-0.0830852
0.0811418
0.00194341
0.00800611
-0.017215
-0.372583
0.381792
0.0280741
-0.0366676
-0.532995
0.541588
0.0453723
-0.0537152
-0.66801
0.676353
0.064014
-0.0737576
-0.790516
0.80026
0.0842576
-0.0938569
-0.916647
0.926246
0.104112
-0.112947
-1.06146
1.0703
0.122482
-0.130404
-1.22767
1.2356
0.138429
-0.144768
-1.41748
1.42382
0.150279
-0.153993
-1.63501
1.63872
0.155802
-0.156272
-1.5815
1.58197
0.155485
-0.154169
-1.2909
1.28958
0.15301
-0.151566
-1.06495
1.0635
0.149164
-0.143117
-0.870518
0.864471
0.132497
-0.114747
-0.650733
0.632983
0.0938942
-0.0695473
-0.38883
0.364483
0.0492067
-0.0312885
-0.170032
0.152114
0.0192433
-0.010258
-0.0509388
0.0419535
0.00499228
-0.00173604
-0.00577454
0.0025183
0.000339822
0.00164681
-0.00198664
-0.0845817
0.0816321
0.00294957
-0.00110338
-0.00418386
-0.393762
0.39905
0.0114105
-0.0177373
-0.554117
0.560444
0.0241902
-0.031383
-0.687336
0.694528
0.040333
-0.0487831
-0.809004
0.817454
0.0581008
-0.0664583
-0.934995
0.943352
0.0751412
-0.0830069
-1.07895
1.08682
0.0912882
-0.0982621
-1.24308
1.25005
0.104879
-0.109939
-1.42951
1.43457
0.114361
-0.116897
-1.64183
1.64437
0.117582
-0.117003
-1.58193
1.58135
0.115427
-0.113447
-1.2877
1.28572
0.111263
-0.108921
-1.05919
1.05685
0.105778
-0.0993903
-0.854495
0.848107
0.08944
-0.0742623
-0.612363
0.597185
0.0582845
-0.0413608
-0.338645
0.321721
0.0287201
-0.0183697
-0.134108
0.123757
0.0115697
-0.00645943
-0.033029
0.0279188
0.00331317
-0.0012371
0.000980938
-0.003057
0.000272241
0.00254635
-0.00281859
-0.0833045
0.0804287
0.00287571
-0.00508657
0.00245421
-0.407867
0.4105
0.00223701
-0.00701934
-0.569867
0.574649
0.0124345
-0.0184511
-0.703213
0.709229
0.0261214
-0.0333557
-0.825171
0.832405
0.0412895
-0.0484302
-0.951105
0.958245
0.056235
-0.0628818
-1.09421
1.10086
0.0700537
-0.0756222
-1.25657
1.26214
0.0812037
-0.0853376
-1.43936
1.4435
0.0885708
-0.0898579
-1.64647
1.64775
0.0897609
-0.0884662
-1.58023
1.57894
0.0862855
-0.0832581
-1.28319
1.28016
0.0803623
-0.0770966
-1.052
1.04873
0.0731877
-0.0672575
-0.837645
0.831715
0.0585481
-0.0468616
-0.579597
0.567911
0.0357225
-0.0252068
-0.303918
0.293403
0.0179231
-0.012145
-0.112779
0.107001
0.0082187
-0.00504902
-0.0222249
0.0190552
0.00284236
-0.00118727
0.0056086
-0.00726368
0.00030537
0.0032902
-0.00359557
-0.0817009
0.0791251
0.00257581
-0.00650199
0.00554284
-0.417288
0.418248
-0.00203989
-0.00151084
-0.582452
0.586002
0.00580542
-0.0112177
-0.716517
0.72193
0.0176399
-0.02396
-0.838853
0.845173
0.0307894
-0.036951
-0.964873
0.971035
0.0435969
-0.0494314
-1.10732
1.11315
0.055427
-0.0603776
-1.2675
1.27246
0.0649956
-0.0682663
-1.44718
1.45045
0.0705545
-0.0709798
-1.64879
1.64922
0.0700755
-0.0677962
-1.57685
1.57457
0.0649573
-0.0613785
-1.27677
1.27319
0.0578364
-0.053639
-1.04352
1.03933
0.0493182
-0.0436722
-0.821595
0.815949
0.0366807
-0.0280842
-0.554081
0.545484
0.0208499
-0.0147978
-0.281617
0.275565
0.0109366
-0.00805755
-0.100365
0.0974859
0.00597353
-0.0040475
-0.0152358
0.0133097
0.00250191
-0.00114704
0.00931693
-0.0106718
0.000333008
0.00404462
-0.00437763
-0.0801459
0.0779113
0.0022346
-0.00662014
0.00624058
-0.423673
0.424053
-0.00417705
0.00132003
-0.592113
0.59497
0.00281667
-0.00742053
-0.727723
0.732327
0.0128896
-0.0183211
-0.850623
0.856054
0.0243215
-0.0297623
-0.976787
0.982228
0.0357482
-0.0407729
-1.11865
1.12368
0.0460236
-0.0503089
-1.27704
1.28132
0.054148
-0.0567082
-1.45333
1.45589
0.0581851
-0.058238
-1.64941
1.64947
0.0565783
-0.0537361
-1.57167
1.56883
0.0502635
-0.0459845
-1.2691
1.26482
0.042011
-0.0369629
-1.03375
1.02871
0.0321218
-0.0268782
-0.806611
0.801367
0.0211195
-0.0148613
-0.534929
0.528671
0.0103764
-0.00728399
-0.268121
0.265028
0.00580008
-0.00478261
-0.0935295
0.092512
0.00392962
-0.00299703
-0.0107674
0.00983482
0.00204069
-0.00103675
0.0123106
-0.0133145
0.000334133
0.00479594
-0.00513007
-0.0788781
0.0771001
0.00177802
-0.0059121
0.00594551
-0.428287
0.428253
-0.00429436
0.00218617
-0.600455
0.602564
0.00163044
-0.00576325
-0.737343
0.741475
0.0108706
-0.0154885
-0.861041
0.865659
0.0206858
-0.0254338
-0.987581
0.992329
0.0309943
-0.0354381
-1.12867
1.13312
0.0399557
-0.0438068
-1.28534
1.28919
0.0474779
-0.0495195
-1.45835
1.46039
0.0505637
-0.0499844
-1.64896
1.64838
0.0480912
-0.0444378
-1.56556
1.5619
0.040637
-0.0359706
-1.26004
1.25538
0.0313506
-0.0259791
-1.02276
1.01739
0.0207347
-0.0152861
-0.792512
0.787064
0.0105375
-0.00573077
-0.520378
0.515571
0.00294549
-0.00181163
-0.260169
0.259035
0.00162316
-0.00174684
-0.0903926
0.0905163
0.00179678
-0.00167646
-0.00844144
0.00832111
0.00131376
-0.00076276
0.0144246
-0.0149756
0.00028446
0.00546069
-0.00574515
-0.0780804
0.0766632
0.00141716
-0.00494096
0.00518201
-0.431787
0.431546
-0.00373454
0.00178151
-0.607593
0.609546
0.00177808
-0.00545242
-0.745865
0.749539
0.00975989
-0.0141307
-0.870202
0.874573
0.0188461
-0.0236368
-0.996821
1.00161
0.0283162
-0.0324226
-1.1376
1.14171
0.0368769
-0.0402734
-1.29283
1.29623
0.0431674
-0.0452969
-1.46222
1.46435
0.0460703
-0.0452785
-1.6477
1.64691
0.0429624
-0.0392155
-1.55823
1.55449
0.0350926
-0.0300121
-1.25007
1.24499
0.0250912
-0.0193059
-1.01112
1.00533
0.0138049
-0.00842716
-0.778781
0.773403
0.00388269
-7.47609e-05
-0.50868
0.504872
-0.00176993
0.00213629
-0.255683
0.255317
-0.0016913
0.000899743
-0.089679
0.0904706
-0.000256835
-0.000282868
-0.00785884
0.00839854
0.000474118
-0.000391958
0.0154834
-0.0155656
0.000186144
0.00594392
-0.00613007
-0.0778071
0.076604
0.00120302
-0.00370807
0.00375419
-0.434777
0.434731
-0.00256598
0.000685072
-0.614018
0.615899
0.00257967
-0.00608426
-0.753678
0.757183
0.0101425
-0.0140336
-0.878723
0.882614
0.0187836
-0.02267
-1.00575
1.00964
0.0271994
-0.0310013
-1.14592
1.14972
0.0351666
-0.0385668
-1.29952
1.30292
0.0415094
-0.0431378
-1.46612
1.46774
0.0438738
-0.0430388
-1.64588
1.64505
0.0408734
-0.036864
-1.55041
1.54641
0.0326405
-0.0273668
-1.23974
1.23447
0.0222945
-0.0162548
-0.998761
0.992721
0.0107095
-0.0050609
-0.76549
0.759841
0.000784285
0.00263811
-0.498752
0.49533
-0.00432714
0.00439067
-0.252741
0.252677
-0.00375852
0.00270622
-0.0902131
0.0912654
-0.0017677
0.000828616
-0.00860135
0.00954044
-0.000261924
-4.70383e-05
0.0155476
-0.0152387
7.54008e-05
0.00617727
-0.00625267
-0.0778147
0.0769456
0.000869038
-0.00257626
0.00216616
-0.437751
0.438161
-0.00117839
-0.00074532
-0.619613
0.621537
0.00364792
-0.00697783
-0.760854
0.764184
0.0108096
-0.0147765
-0.886361
0.890328
0.0188236
-0.0228003
-1.01369
1.01767
0.0271916
-0.0306715
-1.1539
1.15738
0.0347948
-0.0379992
-1.30604
1.30924
0.0407919
-0.0427341
-1.46969
1.47163
0.0436579
-0.0427553
-1.64411
1.64321
0.0404166
-0.036694
-1.54241
1.53868
0.0326241
-0.0272891
-1.22887
1.22353
0.0220815
-0.0162041
-0.986199
0.980321
0.0102344
-0.00455801
-0.752205
0.746528
0.000314635
0.00301423
-0.489618
0.486289
-0.00466934
0.00509081
-0.250334
0.249912
-0.00461881
0.00368588
-0.0912869
0.0922199
-0.00269225
0.00160485
-0.010097
0.0111844
-0.00081624
0.00024514
0.0148625
-0.0142914
-1.96163e-05
0.00618361
-0.00616399
-0.0782366
0.0775432
0.000693376
-0.00160488
0.00123852
-0.440877
0.441243
0.000250506
-0.00200717
-0.625217
0.626974
0.00505673
-0.00822617
-0.767438
0.770607
0.011869
-0.0153854
-0.893952
0.897468
0.0195047
-0.0231009
-1.0216
1.0252
0.0273608
-0.0312066
-1.16127
1.16512
0.0348542
-0.0382749
-1.31243
1.31585
0.0413438
-0.0432003
-1.47337
1.47523
0.04426
-0.0438659
-1.64241
1.64201
0.0416769
-0.0382452
-1.53468
1.53125
0.0340996
-0.028942
-1.21809
1.21293
0.0239275
-0.0179895
-0.973741
0.967803
0.0122389
-0.0064108
-0.739171
0.733343
0.0019046
0.00170948
-0.480468
0.476854
-0.0036287
0.00443792
-0.247585
0.246776
-0.00446994
0.00386355
-0.0921438
0.0927502
-0.00302847
0.00199013
-0.0118427
0.012881
-0.00114812
0.000448734
0.0137005
-0.0130011
-9.90183e-05
0.0060089
-0.00590988
-0.0789619
0.0784483
0.000513654
-0.000522153
-2.30131e-05
-0.44413
0.444675
0.00136363
-0.00341693
-0.630378
0.632431
0.00638317
-0.00937658
-0.773714
0.776708
0.0130851
-0.0164219
-0.900952
0.904289
0.0203392
-0.0240139
-1.02924
1.03292
0.0281231
-0.0318704
-1.16877
1.17251
0.0356637
-0.0390269
-1.31912
1.32249
0.0421654
-0.0446499
-1.4773
1.47978
0.0459708
-0.0456659
-1.64144
1.64114
0.0439319
-0.0405711
-1.52758
1.52422
0.0367751
-0.0319817
-1.20761
1.20282
0.0268872
-0.0210686
-0.961394
0.955575
0.015418
-0.009427
-0.726263
0.720272
0.00475274
-0.000725501
-0.471215
0.467188
-0.00157157
0.00294181
-0.244092
0.242722
-0.00338371
0.00320186
-0.0922976
0.0924794
-0.00270933
0.00191842
-0.0134191
0.01421
-0.00118806
0.000512941
0.0123577
-0.0116826
-0.000127827
0.00570543
-0.00557761
-0.0799333
0.0795476