/*--------------------------------*- C++ -*----------------------------------*\
  =========                 |
  \\      /  F ield         | OpenFOAM: The Open Source CFD Toolbox
   \\    /   O peration     | Website:  https://openfoam.org
    \\  /    A nd           | Version:  6
     \\/     M anipulation  |
\*---------------------------------------------------------------------------*/
FoamFile
{
    version     2.0;
    format      ascii;
    class       surfaceScalarField;
    location    "74";
    object      phi;
}
// * * * * * * * * * * * * * * * * * * * * * * * * * * * * * * * * * * * * * //

dimensions      [0 3 -1 0 0 0 0];

internalField   nonuniform List<scalar> 
17370
(
-0.0899994
0.0898527
0.289158
-0.0714599
0.0537552
0.36448
-0.038123
0.0276974
0.426594
-0.0196488
0.0146173
0.504283
-0.0107751
0.0082834
0.601894
-0.00628189
0.00490384
0.720436
-0.00373875
0.00289743
0.863748
-0.0021554
0.00159583
1.03601
-0.00107878
0.000665919
1.24292
-0.000258065
-0.000135873
1.49158
0.000515451
-0.000926101
1.4916
0.0013247
-0.00181508
1.24318
0.00234403
-0.0030509
1.03634
0.00386512
-0.0050097
0.864051
0.00637679
-0.00837128
0.721052
0.0108577
-0.0146936
0.60305
0.0197188
-0.0277601
0.507481
0.0381786
-0.0538021
0.431792
0.0714984
-0.0898784
0.365156
0.0900148
0.198996
-0.128134
0.0882155
0.0399181
-0.364593
0.353408
-0.0746843
0.0858688
-0.446478
0.454321
-0.0843731
0.0765298
-0.521188
0.529899
-0.0684388
0.0597277
-0.612786
0.621565
-0.0515394
0.042761
-0.726894
0.734161
-0.0353023
0.0280355
-0.867476
0.87259
-0.0224372
0.0173237
-1.03847
1.04192
-0.0135152
0.0100663
-1.2446
1.24703
-0.00745577
0.00502283
-1.49262
1.4946
-0.00307524
0.00109804
-1.4925
1.49423
0.00058295
-0.00230631
-1.24398
1.24586
0.00420956
-0.00609465
-1.03751
1.04004
0.00845157
-0.0109804
-0.866103
0.869828
0.0143323
-0.0180576
-0.724393
0.729933
0.0230938
-0.0286342
-0.608698
0.61611
0.0358465
-0.0432588
-0.514896
0.523039
0.0519876
-0.0601311
-0.439855
0.447908
0.0687941
-0.0768468
-0.375301
0.376738
0.0846444
-0.0860818
-0.257329
0.222474
0.0748291
-0.0399741
-0.0685148
0.0586922
0.00982263
-0.0518173
0.0584023
-0.374128
0.367543
-0.0574871
0.0537339
-0.453597
0.45735
-0.0486424
0.0446868
-0.527947
0.531903
-0.0408431
0.0372015
-0.621562
0.625204
-0.0330973
0.0290204
-0.735346
0.739423
-0.0244496
0.0202905
-0.874339
0.878498
-0.0159452
0.0122517
-1.04349
1.04718
-0.00851432
0.00534101
-1.24856
1.25173
-0.00201159
-0.00106166
-1.49666
1.49973
0.00410936
-0.00737549
-1.4972
1.50047
0.0104558
-0.0140619
-1.25007
1.25367
0.0176184
-0.0218047
-1.04592
1.05011
0.0258256
-0.0302616
-0.87776
0.882196
0.0342314
-0.0382307
-0.739898
0.743897
0.0417834
-0.0455344
-0.626773
0.630524
0.0494102
-0.0544255
-0.534811
0.539826
0.0580958
-0.0589067
-0.457479
0.45829
0.0521995
-0.0319863
-0.33576
0.315547
0.00988492
-0.0683422
0.0584573
-0.0529419
0.0489466
0.00399531
-0.0331584
0.0437017
-0.358109
0.347566
-0.0473991
0.0467711
-0.459287
0.459916
-0.0437147
0.0403614
-0.535806
0.539159
-0.0365885
0.0332836
-0.628531
0.631836
-0.0298441
0.0268105
-0.742648
0.745682
-0.0235495
0.0204411
-0.882017
0.885125
-0.0169091
0.0135284
-1.05077
1.05415
-0.00973375
0.00619389
-1.25517
1.25871
-0.00222329
-0.0015747
-1.50324
1.50704
0.00534009
-0.00921395
-1.50413
1.50801
0.0126227
-0.0162355
-1.25741
1.26103
0.0194256
-0.0227349
-1.05392
1.05723
0.0256474
-0.0287137
-0.885689
0.888755
0.03159
-0.0348743
-0.747158
0.750443
0.0380486
-0.0416878
-0.63431
0.637949
0.044926
-0.0478515
-0.544137
0.547063
0.0483418
-0.0444508
-0.456572
0.452681
0.0336766
-0.0162238
-0.29618
0.278727
0.0040727
-0.0526374
0.0485647
-0.0458694
0.0433748
0.00249462
-0.0228006
0.0331759
-0.336879
0.326504
-0.0389942
0.0400088
-0.459601
0.458587
-0.0388165
0.0365278
-0.541878
0.544167
-0.0338587
0.0312613
-0.634886
0.637484
-0.0281968
0.0252965
-0.748728
0.751628
-0.0220308
0.019036
-0.88808
0.891075
-0.0157294
0.0126284
-1.05728
1.06039
-0.00910026
0.00568957
-1.26217
1.26558
-0.00172465
-0.00216067
-1.51092
1.51481
0.0060026
-0.00983891
-1.5119
1.51573
0.013076
-0.0163655
-1.26446
1.26775
0.0192167
-0.0222308
-1.06033
1.06334
0.024966
-0.0279712
-0.891809
0.894814
0.0306579
-0.0335098
-0.753647
0.756498
0.0359283
-0.0384168
-0.641013
0.643502
0.0405502
-0.0415389
-0.548865
0.549853
0.0403112
-0.034182
-0.447397
0.441268
0.0234669
-0.0102416
-0.263502
0.250277
0.00259027
-0.0454004
0.0428101
-0.0413007
0.0395349
0.00176575
-0.0167372
0.0259828
-0.316656
0.30741
-0.032583
0.0347191
-0.456989
0.454853
-0.0342949
0.0326217
-0.546146
0.547819
-0.030438
0.0283401
-0.63979
0.641888
-0.0259058
0.0235061
-0.754273
0.756673
-0.0206455
0.0178545
-0.893971
0.896762
-0.0146164
0.0115452
-1.06343
1.0665
-0.00805253
0.00472435
-1.2689
1.27223
-0.000889021
-0.00284596
-1.5186
1.52233
0.00652567
-0.0101972
-1.51947
1.52314
0.0133044
-0.0164938
-1.27099
1.27418
0.0192469
-0.0221112
-1.06637
1.06924
0.0245688
-0.027093
-0.897628
0.900152
0.0292162
-0.0313755
-0.758946
0.761105
0.0332443
-0.0351956
-0.645653
0.647605
0.0366436
-0.036791
-0.550367
0.550515
0.034328
-0.0272725
-0.434594
0.427539
0.017569
-0.00741458
-0.238737
0.228582
0.00188259
-0.0406295
0.0387469
-0.0380143
0.036687
0.00132729
-0.0127718
0.0207083
-0.298824
0.290888
-0.027449
0.0303645
-0.452298
0.449382
-0.0305629
0.0294383
-0.549252
0.550376
-0.0274403
0.0255193
-0.643925
0.645846
-0.0233146
0.0211732
-0.758913
0.761054
-0.0186538
0.0161663
-0.899338
0.901826
-0.0132191
0.0103347
-1.06944
1.07233
-0.00696701
0.00372068
-1.27549
1.27873
3.10628e-05
-0.00366247
-1.52598
1.52962
0.00722466
-0.0107702
-1.52673
1.53028
0.0137393
-0.0167279
-1.2773
1.28029
0.0192148
-0.0216946
-1.07197
1.07445
0.023765
-0.0258624
-0.902438
0.904536
0.0276546
-0.0295103
-0.763085
0.76494
0.0311416
-0.0328578
-0.64942
0.651136
0.0336544
-0.0330685
-0.5503
0.549714
0.0296854
-0.0223212
-0.420272
0.412908
0.0137962
-0.0057527
-0.219584
0.211541
0.00146943
-0.0370964
0.035627
-0.0355281
0.0345065
0.00102168
-0.00996952
0.0166708
-0.283595
0.276893
-0.0231389
0.0265006
-0.446224
0.442862
-0.027272
0.0265644
-0.551285
0.551992
-0.0247982
0.0230071
-0.647743
0.649534
-0.0209295
0.0189062
-0.76313
0.765153
-0.0165269
0.0141922
-0.904167
0.906502
-0.0114447
0.00875106
-1.07505
1.07774
-0.0055836
0.00249011
-1.28186
1.28496
0.00112812
-0.00464559
-1.53317
1.53669
0.00807723
-0.0114392
-1.53372
1.53708
0.0141893
-0.0168893
-1.28314
1.28584
0.0190931
-0.0212638
-1.07683
1.079
0.0230831
-0.0249402
-0.906511
0.908368
0.0265305
-0.0281744
-0.766683
0.768327
0.0296058
-0.0309822
-0.652708
0.654084
0.0312831
-0.0299611
-0.548774
0.547452
0.0259549
-0.0186658
-0.405556
0.398266
0.0112249
-0.00465267
-0.204302
0.19773
0.00119453
-0.0343104
0.0331158
-0.0336103
0.032816
0.000794297
-0.00788955
0.0135133
-0.270761
0.265137
-0.0194895
0.023042
-0.439396
0.435843
-0.0242851
0.0238219
-0.552611
0.553074
-0.0223192
0.0206351
-0.65132
0.653005
-0.0186494
0.0167089
-0.767127
0.769067
-0.0144187
0.0121691
-0.908728
0.910977
-0.00952246
0.006937
-1.08031
1.08289
-0.00390886
0.000957199
-1.28793
1.29088
0.00249067
-0.00583481
-1.5401
1.54344
0.00907369
-0.012207
-1.54031
1.54344
0.0147379
-0.0171943
-1.28842
1.29087
0.01918
-0.0211193
-1.08113
1.08307
0.0227365
-0.0243857
-0.910128
0.911777
0.0257944
-0.0272462
-0.769868
0.771319
0.0284812
-0.0294769
-0.655259
0.656255
0.0294022
-0.0274087
-0.545795
0.543802
0.0229956
-0.0159665
-0.391102
0.384073
0.00942384
-0.00389322
-0.191728
0.186197
0.00100431
-0.032028
0.0310237
-0.0321196
0.031502
0.000617619
-0.00628181
0.0109844
-0.260003
0.2553
-0.0163632
0.0199092
-0.432295
0.428749
-0.0214694
0.0212287
-0.553463
0.553704
-0.0199549
0.0183271
-0.654707
0.656334
-0.0163944
0.0145007
-0.770973
0.772866
-0.0122663
0.0100723
-0.913122
0.915316
-0.0074911
0.00497356
-1.08537
1.08788
-0.00203409
-0.000813685
-1.29372
1.29657
0.00411207
-0.00728091
-1.54666
1.54983
0.0103216
-0.0132371
-1.54644
1.54936
0.0155734
-0.0178184
-1.29323
1.29547
0.0196058
-0.0213241
-1.085
1.08672
0.0227463
-0.0241976
-0.913329
0.91478
0.0254398
-0.0267154
-0.772675
0.773951
0.0278047
-0.0283765
-0.657041
0.657613
0.0279275
-0.0253647
-0.541535
0.538972
0.0206976
-0.0139905
-0.377213
0.370506
0.00815393
-0.00336492
-0.181075
0.176286
0.000872644
-0.0300946
0.029222
-0.0309647
0.0304906
0.000474136
-0.00498506
0.00889229
-0.251022
0.247115
-0.0136296
0.0170204
-0.42529
0.421899
-0.0187577
0.0187037
-0.553895
0.553949
-0.0176187
0.0160235
-0.65801
0.659605
-0.0141093
0.0122268
-0.774737
0.776619
-0.0100071
0.00783373
-0.917411
0.919584
-0.00528614
0.00281104
-1.09029
1.09277
6.60417e-05
-0.00283625
-1.29932
1.30209
0.0060179
-0.00904146
-1.55289
1.55591
0.0119093
-0.0146257
-1.55214
1.55486
0.0167753
-0.0188112
-1.29761
1.29965
0.0204004
-0.0218996
-1.08845
1.08995
0.0231357
-0.0244058
-0.916137
0.917407
0.0254995
-0.0266164
-0.775136
0.776253
0.0275047
-0.0277129
-0.657999
0.658207
0.0268416
-0.0237958
-0.536177
0.533131
0.01897
-0.0125731
-0.363971
0.357574
0.00727011
-0.0030039
-0.171789
0.167523
0.000784244
-0.028402
0.0276178
-0.0300852
0.0297327
0.000352472
-0.00389623
0.00710362
-0.243583
0.240375
-0.0111876
0.0143132
-0.418658
0.415532
-0.0161007
0.0161964
-0.553981
0.553885
-0.0151866
0.0136602
-0.661238
0.662764
-0.0117361
0.00983187
-0.77849
0.780394
-0.00758798
0.0053993
-0.921664
0.923853
-0.00284686
0.000381564
-1.09514
1.09761
0.00246526
-0.00518562
-1.30477
1.30749
0.00828143
-0.0111881
-1.55884
1.56174
0.0139059
-0.0164373
-1.55744
1.55997
0.0184062
-0.0202362
-1.30158
1.30341
0.0216293
-0.0229126
-1.0915
1.09278
0.0239676
-0.0250624
-0.918582
0.919676
0.0260119
-0.0269626
-0.777273
0.778223
0.0275896
-0.0275039
-0.65828
0.658194
0.0261854
-0.0226964
-0.529872
0.526383
0.0177502
-0.0116046
-0.351327
0.345182
0.00668293
-0.00277079
-0.163462
0.15955
0.000729278
-0.0268694
0.0261401
-0.0294422
0.0291985
0.000243644
-0.00293932
0.00551386
-0.237508
0.234933
-0.00894474
0.0117223
-0.412604
0.409826
-0.0134456
0.0136161
-0.553813
0.553642
-0.0126443
0.0111543
-0.664353
0.665843
-0.0091966
0.0072408
-0.782292
0.784248
-0.0049362
0.00269685
-0.925951
0.92819
-9.92175e-05
-0.00239321
-1.09998
1.10248
0.00524903
-0.00795246
-1.31013
1.31283
0.0109936
-0.0138068
-1.56456
1.56737
0.0163916
-0.01875
-1.56238
1.56474
0.0205463
-0.0221757
-1.30513
1.30676
0.023372
-0.0244343
-1.09414
1.0952
0.0253037
-0.0262196
-0.920671
0.921587
0.0270213
-0.0278092
-0.779048
0.779836
0.0281484
-0.0277607
-0.657962
0.657574
0.0259799
-0.0220606
-0.522703
0.518783
0.0169918
-0.0110107
-0.33915
0.333169
0.00633458
-0.00263979
-0.155773
0.152078
0.00070106
-0.0254332
0.0247322
-0.0290141
0.0288741
0.000140034
-0.00205072
0.00403017
-0.232678
0.230699
-0.00680312
0.00916253
-0.407287
0.404927
-0.0107133
0.0108793
-0.553548
0.553382
-0.00991011
0.00841701
-0.667431
0.668924
-0.00639668
0.00435831
-0.786201
0.788239
-0.00195616
-0.000368861
-0.93034
0.932665
0.00305155
-0.0056083
-1.10488
1.10744
0.00851317
-0.0112332
-1.31546
1.31818
0.0142505
-0.0169918
-1.5701
1.57284
0.0194578
-0.0216527
-1.56697
1.56916
0.0232825
-0.0247138
-1.30828
1.30971
0.0257081
-0.0265377
-1.09638
1.09721
0.0272086
-0.0279283
-0.922389
0.923109
0.0285741
-0.0292189
-0.78047
0.781115
0.0292385
-0.0284445
-0.656989
0.656195
0.0262057
-0.0218614
-0.514698
0.510354
0.0166418
-0.0107284
-0.32726
0.321346
0.00617898
-0.00259028
-0.148462
0.144874
0.000694081
-0.0240431
0.0233491
-0.0287939
0.0287586
3.52641e-05
-0.00118399
0.00258242
-0.229031
0.227632
-0.00468285
0.00655944
-0.402842
0.400965
-0.00783313
0.00791209
-0.55335
0.553271
-0.0068985
0.00536454
-0.670551
0.672084
-0.00324177
0.00108691
-0.790277
0.792432
0.00145377
-0.00390382
-0.934901
0.937351
0.00671554
-0.00937641
-1.10992
1.11258
0.0123726
-0.0151456
-1.32084
1.32361
0.0181747
-0.0208701
-1.5755
1.5782
0.0232335
-0.0252708
-1.57122
1.57326
0.0267325
-0.0279606
-1.31101
1.31224
0.0287477
-0.0293417
-1.09819
1.09879
0.0298096
-0.0303234
-0.923713
0.924227
0.0307969
-0.0312107
-0.781522
0.781936
0.03094
-0.029671
-0.65521
0.653941
0.0269306
-0.022123
-0.505841
0.501034
0.0166905
-0.0107313
-0.315455
0.309496
0.00619513
-0.00261295
-0.141316
0.137734
0.000706033
-0.0226581
0.0219521
-0.0287849
0.0288564
-7.14622e-05
-0.000299693
0.00110777
-0.226547
0.225739
-0.00250282
0.0038283
-0.399395
0.39807
-0.00472161
0.00462849
-0.55339
0.553483
-0.00351291
0.00188046
-0.673801
0.675434
0.000380466
-0.00269361
-0.794589
0.796903
0.00542061
-0.00803981
-0.939713
0.942332
0.0110289
-0.0138375
-1.11517
1.11798
0.0169702
-0.0198336
-1.32633
1.32919
0.0229085
-0.0255815
-1.58082
1.58349
0.0278556
-0.0297383
-1.57516
1.57704
0.0310282
-0.0320444
-1.31332
1.31434
0.0326198
-0.0329711
-1.09956
1.09991
0.0332246
-0.0335178
-0.924615
0.924908
0.0337914
-0.0338969
-0.782024
0.78213
0.0333107
-0.0314906
-0.652485
0.650665
0.0281951
-0.0228621
-0.496049
0.490716
0.0171311
-0.0110022
-0.303503
0.297374
0.00636873
-0.00270086
-0.134138
0.13047
0.000734893
-0.0212411
0.0205062
-0.0290033
0.0291988
-0.000195577
0.000639253
-0.000459942
-0.225252
0.225073
-0.000180532
0.000876721
-0.397073
0.396377
-0.00128082
0.000924504
-0.553852
0.554209
0.000361838
-0.00215098
-0.677305
0.679094
0.00460326
-0.0071224
-0.79922
0.801739
0.0100899
-0.0129287
-0.944865
0.947704
0.0161508
-0.0191562
-1.12072
1.12373
0.0224753
-0.0254683
-1.332
1.335
0.028623
-0.0312939
-1.58609
1.58876
0.0334864
-0.0352114
-1.57877
1.5805
0.0363256
-0.0371213
-1.31518
1.31597
0.0374742
-0.0375674
-1.10044
1.10053
0.0375894
-0.0376482
-0.925056
0.925115
0.0377272
-0.0374329
-0.78188
0.781586
0.0364437
-0.0339894
-0.648667
0.646213
0.0300567
-0.0241013
-0.485179
0.479223
0.0179614
-0.0115275
-0.291151
0.284717
0.00668722
-0.00284713
-0.126746
0.122906
0.000778386
-0.0197594
0.018981
-0.0294773
0.0298217
-0.000344382
0.00169425
-0.00215527
-0.22524
0.225701
0.00235986
-0.00238723
-0.396031
0.396058
0.00260553
-0.00333313
-0.554952
0.55568
0.00485516
-0.00686406
-0.681183
0.683192
0.00958065
-0.0123689
-0.804262
0.80705
0.0156435
-0.0187615
-0.950462
0.95358
0.0222799
-0.0255366
-1.12668
1.12994
0.0290965
-0.0322612
-1.33795
1.34111
0.0355299
-0.038215
-1.59137
1.59405
0.0403261
-0.04188
-1.58206
1.58361
0.0427974
-0.0433607
-1.31654
1.31711
0.0434825
-0.0432953
-1.10078
1.1006
0.0430631
-0.0428713
-0.924982
0.92479
0.0427305
-0.0419442
-0.780908
0.780122
0.0404628
-0.0372623
-0.643596
0.640396
0.0325794
-0.025868
-0.473022
0.46631
0.0191843
-0.012298
-0.278122
0.271236
0.00714049
-0.00304573
-0.11897
0.114875
0.000834434
-0.0181848
0.0173503
-0.0302377
0.0307599
-0.000522179
0.0029848
-0.00421678
-0.226573
0.227805
0.0052965
-0.00612784
-0.396454
0.397286
0.00707905
-0.0082846
-0.556928
0.558134
0.0101529
-0.0124587
-0.685569
0.687875
0.0155227
-0.0186531
-0.809841
0.812971
0.022312
-0.025778
-0.956623
0.960089
0.0296646
-0.0332326
-1.13315
1.13672
0.0370894
-0.0404651
-1.34424
1.34762
0.0438749
-0.0465809
-1.59666
1.59937
0.0485995
-0.0499612
-1.58498
1.58634
0.050653
-0.0509722
-1.31739
1.3177
0.0508416
-0.0503495
-1.10054
1.10005
0.0498444
-0.0493838
-0.924346
0.923885
0.0488963
-0.0476464
-0.779011
0.777761
0.0455095
-0.0414114
-0.637028
0.63293
0.0358263
-0.0281853
-0.459294
0.451653
0.020797
-0.0132988
-0.264117
0.256618
0.00771386
-0.00328784
-0.110648
0.106222
0.000899914
-0.0164935
0.0155936
-0.0313587
0.0321045
-0.000745795
0.00449828
-0.0066162
-0.229462
0.23158
0.00878696
-0.0105317
-0.39857
0.400315
0.0123201
-0.0141216
-0.560031
0.561833
0.0164744
-0.019176
-0.690625
0.693326
0.0226963
-0.026255
-0.816104
0.819663
0.0303901
-0.0342846
-0.963492
0.967387
0.0386205
-0.0425635
-1.14026
1.1442
0.0467714
-0.0503902
-1.35096
1.35458
0.053955
-0.0566741
-1.60199
1.60471
0.0585746
-0.0597033
-1.58749
1.58862
0.0601295
-0.0601651
-1.31763
1.31767
0.0597569
-0.0589338
-1.09966
1.09884
0.0581305
-0.0573792
-0.923091
0.92234
0.0564654
-0.0546643
-0.776225
0.774424
0.0517286
-0.0465301
-0.628652
0.623453
0.0398422
-0.0310531
-0.443632
0.434843
0.0227753
-0.0144981
-0.248812
0.240535
0.00838071
-0.00355869
-0.101631
0.0968093
0.000969825
-0.0146688
0.0136989
-0.0329227
0.0339634
-0.00104067
0.00641379
-0.00960213
-0.234152
0.237341
0.0130276
-0.0158412
-0.402642
0.405456
0.0186111
-0.0211397
-0.564537
0.567066
0.0241238
-0.0273517
-0.69656
0.699788
0.0314642
-0.0355608
-0.823232
0.827328
0.0402827
-0.0446957
-0.971233
0.975646
0.0495652
-0.0539423
-1.14813
1.1525
0.0585423
-0.0624159
-1.35815
1.36202
0.0661175
-0.0688065
-1.60732
1.61
0.0705325
-0.0713669
-1.58951
1.59034
0.0714618
-0.0711565
-1.31716
1.31686
0.0704519
-0.0692611
-1.09806
1.09687
0.0681271
-0.0670769
-0.921185
0.920135
0.065612
-0.0631558
-0.772365
0.769909
0.0592423
-0.0526797
-0.618056
0.611494
0.0446311
-0.0344286
-0.425585
0.415383
0.0250567
-0.0158354
-0.231876
0.222654
0.00909616
-0.00383523
-0.0918003
0.0865394
0.00103685
-0.0127051
0.0116683
-0.0350621
0.0365077
-0.00144562
0.00890572
-0.0134627
-0.24097
0.245527
0.0183816
-0.0224301
-0.409046
0.413094
0.0263377
-0.0297456
-0.570782
0.574189
0.0335451
-0.0374635
-0.703656
0.707574
0.0423395
-0.0471138
-0.831438
0.836212
0.0525496
-0.057575
-0.980027
0.985052
0.0630534
-0.0679022
-1.15686
1.16171
0.0728964
-0.0769904
-1.36582
1.36991
0.0807545
-0.0833181
-1.61252
1.61509
0.0847688
-0.0852118
-1.59088
1.59132
0.0849207
-0.0841909
-1.31588
1.31515
0.0831327
-0.0815595
-1.09566
1.09408
0.0801061
-0.0786089
-0.91858
0.917082
0.0766345
-0.0732719
-0.767158
0.763796
0.0681289
-0.0598596
-0.60468
0.596411
0.0501262
-0.0381987
-0.404613
0.392685
0.0275186
-0.0172077
-0.212989
0.202678
0.00978965
-0.00408361
-0.0810864
0.0753804
0.00109079
-0.010613
0.00952219
-0.0379726
0.0399996
-0.00202694
0.0123885
-0.0186649
-0.250449
0.256725
0.0253795
-0.030868
-0.418269
0.423757
0.036118
-0.0406002
-0.579155
0.583637
0.0454253
-0.0502413
-0.712259
0.717075
0.0560977
-0.0617042
-0.840995
0.846602
0.0679801
-0.0736919
-0.990057
0.995769
0.0798111
-0.0851111
-1.1665
1.1718
0.0904245
-0.0946288
-1.37386
1.37807
0.0982996
-0.100575
-1.61739
1.61966
0.101591
-0.101497
-1.59138
1.59129
0.100732
-0.0994651
-1.31366
1.31239
0.0980034
-0.0960309
-1.0924
1.09043
0.0942183
-0.0921599
-0.914935
0.912877
0.0896237
-0.0851005
-0.760073
0.75555
0.0783767
-0.0679463
-0.587808
0.577378
0.0561293
-0.0421325
-0.3801
0.366103
0.0299468
-0.0184538
-0.19189
0.180397
0.0103587
-0.00425793
-0.0695041
0.0634033
0.00111866
-0.00842407
0.00730541
-0.0419832
0.0449073
-0.00292412
0.0174413
-0.0259816
-0.263305
0.271845
0.0349094
-0.0421252
-0.430987
0.438203
0.0489875
-0.0547688
-0.59015
0.595931
0.0609338
-0.066938
-0.722805
0.728809
0.0740011
-0.080564
-0.852188
0.858751
0.0877383
-0.0941185
-1.00144
1.00782
0.100784
-0.106388
-1.17697
1.18258
0.111805
-0.115887
-1.38199
1.38608
0.119186
-0.120915
-1.62154
1.62326
0.121269
-0.120443
-1.5907
1.58987
0.119049
-0.117158
-1.31029
1.3084
0.115243
-0.112844
-1.08819
1.08579
0.11063
-0.107938
-0.910018
0.907326
0.104638
-0.0985523
-0.75052
0.744435
0.0897735
-0.0766223
-0.566495
0.553344
0.0622641
-0.0458544
-0.351396
0.334987
0.0320231
-0.0193549
-0.168452
0.155784
0.0106741
-0.00430443
-0.0571922
0.0508224
0.00110621
-0.00619622
0.00509001
-0.0476694
0.0521074
-0.00443803
0.0252497
-0.0368592
-0.280716
0.292326
0.0486593
-0.0581961
-0.448239
0.457776
0.0671066
-0.0744602
-0.604363
0.611717
0.0822284
-0.0897424
-0.735706
0.74322
0.0980515
-0.105497
-0.865221
0.872666
0.113398
-0.120212
-1.01406
1.02087
0.127089
-0.132646
-1.18787
1.19342
0.137746
-0.141316
-1.38967
1.39325
0.143819
-0.144637
-1.62439
1.62521
0.14402
-0.142208
-1.58842
1.5866
0.140009
-0.13738
-1.30558
1.30295
0.134927
-0.132072
-1.08291
1.08005
0.129332
-0.126016
-0.903704
0.900388
0.121553
-0.113319
-0.737614
0.729379
0.101829
-0.0852833
-0.539558
0.523012
0.0679091
-0.0488232
-0.31791
0.298824
0.0333343
-0.0196558
-0.142801
0.129123
0.0105967
-0.00416927
-0.0444522
0.0380247
0.00103909
-0.00401287
0.00297379
-0.0561194
0.0636793
-0.0075599
0.0388518
-0.0549706
-0.304843
0.320962
0.0708313
-0.083589
-0.471685
0.484443
0.0946788
-0.103453
-0.622266
0.63104
0.112783
-0.121631
-0.7513
0.760148
0.130942
-0.138833
-0.879803
0.887694
0.146842
-0.153464
-1.02726
1.03388
0.159871
-0.16475
-1.19835
1.20323
0.168891
-0.171362
-1.39602
1.39849
0.172506
-0.171932
-1.62516
1.62459
0.169949
-0.166856
-1.58401
1.58091
0.163645
-0.160115
-1.29927
1.29574
0.157035
-0.153671
-1.07642
1.07305
0.15038
-0.146105
-0.895696
0.89142
0.139952
-0.128692
-0.720032
0.708772
0.113571
-0.0928516
-0.505502
0.484783
0.072195
-0.0504433
-0.279305
0.257554
0.0335199
-0.0191964
-0.115465
0.101142
0.0100556
-0.00382627
-0.0317689
0.0255395
0.000902238
-0.00197708
0.00107484
-0.0706946
0.0749084
-0.00421385
0.0296075
-0.0437038
-0.339665
0.353761
0.0578846
-0.0696629
-0.502746
0.514525
0.0802287
-0.0901301
-0.643555
0.653457
0.101254
-0.111622
-0.7684
0.778769
0.123192
-0.133458
-0.89454
0.904806
0.144412
-0.15419
-1.03959
1.04937
0.164495
-0.173408
-1.20705
1.21596
0.182401
-0.189706
-1.39982
1.40713
0.196424
-0.20106
-1.62287
1.6275
0.203614
-0.204707
-1.57682
1.57791
0.204619
-0.203987
-1.29102
1.29039
0.20352
-0.20249
-1.06838
1.06735
0.200835
-0.196324
-0.884976
0.880465
0.18736
-0.169886
-0.695804
0.67833
0.146334
-0.115559
-0.462983
0.432207
0.0867025
-0.0580538
-0.235836
0.207187
0.0371381
-0.0204459
-0.0875215
0.0708293
0.0102674
-0.00368974
-0.0197731
0.0131954
0.000788911
-0.000160627
-0.000628284
-0.0823987
0.0804523
0.00194646
0.00786462
-0.0169834
-0.37058
0.379699
0.0277566
-0.0362907
-0.530939
0.539473
0.0449122
-0.0531256
-0.666139
0.674352
0.0632539
-0.0728403
-0.788589
0.798176
0.0831575
-0.0925725
-0.914423
0.923838
0.102602
-0.111206
-1.05885
1.06745
0.120454
-0.128076
-1.22466
1.23228
0.135723
-0.141663
-1.4141
1.42004
0.146666
-0.149838
-1.63139
1.63457
0.151059
-0.150887
-1.5785
1.57833
0.14951
-0.147527
-1.28892
1.28693
0.145796
-0.143875
-1.06377
1.06185
0.141304
-0.135566
-0.871529
0.865791
0.12577
-0.109536
-0.656906
0.640673
0.0903271
-0.0676563
-0.399661
0.37699
0.0484221
-0.0312369
-0.179161
0.161976
0.0194986
-0.0105838
-0.0552151
0.0463004
0.005253
-0.00187273
-0.00680002
0.00341975
0.000383106
0.00165189
-0.00203499
-0.0838546
0.0809203
0.0029343
-0.00118287
-0.00402531
-0.391572
0.39678
0.0111758
-0.0174258
-0.551898
0.558148
0.0237889
-0.0308765
-0.685207
0.692295
0.0396659
-0.0479691
-0.806789
0.815092
0.057117
-0.0653021
-0.932399
0.940584
0.073771
-0.0814123
-1.07586
1.0835
0.0894104
-0.0960852
-1.23944
1.24612
0.102319
-0.106963
-1.4253
1.42995
0.110838
-0.112779
-1.63707
1.63901
0.112811
-0.111501
-1.57759
1.57628
0.109241
-0.106491
-1.28448
1.28173
0.103601
-0.100551
-1.05725
1.0542
0.0970548
-0.0911043
-0.8561
0.850149
0.0820848
-0.0684644
-0.621595
0.607974
0.0541134
-0.0387992
-0.352889
0.337575
0.0272554
-0.017747
-0.144626
0.135117
0.0114193
-0.00657136
-0.0374081
0.0325602
0.00348881
-0.00136709
0.000226562
-0.00234827
0.000324436
0.00265479
-0.00297923
-0.0825773
0.0797174
0.0028599
-0.00511387
0.00253973
-0.405508
0.408082
0.00208483
-0.00679066
-0.567475
0.572181
0.0121256
-0.0180502
-0.70086
0.706784
0.025571
-0.0326718
-0.822688
0.829789
0.0404532
-0.0474393
-0.948163
0.955149
0.0550498
-0.0614915
-1.09067
1.09711
0.0683999
-0.0736865
-1.25233
1.25762
0.0788993
-0.0826287
-1.4343
1.43803
0.0853216
-0.0859918
-1.64047
1.64114
0.0851943
-0.0830994
-1.57436
1.57227
0.0801523
-0.0762627
-1.27844
1.27455
0.0725911
-0.0685156
-1.04897
1.0449
0.0640625
-0.0583779
-0.839966
0.834281
0.0504777
-0.0401746
-0.59184
0.581537
0.0304372
-0.0213438
-0.321342
0.312249
0.0151571
-0.010373
-0.124954
0.12017
0.00715494
-0.00454084
-0.027163
0.0245489
0.00265024
-0.00116107
0.00492432
-0.0064135
0.00031628
0.00351061
-0.00382689
-0.0809824
0.0784308
0.00255165
-0.00647711
0.0055554
-0.414798
0.41572
-0.00210813
-0.00137567
-0.579902
0.583386
0.00560563
-0.0109374
-0.713971
0.719302
0.01723
-0.0234353
-0.83613
0.842335
0.0301342
-0.0361632
-0.961624
0.967653
0.0426415
-0.0482974
-1.10337
1.10903
0.0540623
-0.0587613
-1.2627
1.2674
0.0630459
-0.0659448
-1.4413
1.4442
0.0677297
-0.0675713
-1.64154
1.64138
0.0659837
-0.0629048
-1.56934
1.56626
0.0592892
-0.0548093
-1.27029
1.26581
0.0504263
-0.0453637
-1.03914
1.03407
0.0404301
-0.0346999
-0.824293
0.818562
0.0282228
-0.0206285
-0.568976
0.561382
0.0145348
-0.00979766
-0.301883
0.297146
0.00707565
-0.00530021
-0.114458
0.112683
0.00409789
-0.00295994
-0.0212868
0.0201488
0.001943
-0.00095429
0.00829099
-0.0092797
0.000297695
0.0042933
-0.00459099
-0.0794531
0.0772485
0.00220457
-0.00654691
0.00618672
-0.421094
0.421455
-0.0041582
0.0013538
-0.589436
0.592241
0.00273393
-0.00727267
-0.725014
0.729553
0.0126347
-0.0179734
-0.847696
0.853034
0.0238682
-0.029201
-0.973278
0.97861
0.0350492
-0.0399268
-1.11435
1.11923
0.0449856
-0.0490602
-1.27174
1.27581
0.0526178
-0.0548586
-1.44672
1.44896
0.0558951
-0.0554337
-1.64099
1.64053
0.053167
-0.0495908
-1.56256
1.55898
0.045393
-0.0402816
-1.26084
1.25573
0.0355528
-0.0297454
-1.02785
1.02204
0.0243243
-0.0187148
-0.80925
0.803641
0.0131901
-0.00754798
-0.551842
0.546199
0.00388536
-0.00185099
-0.290604
0.28857
0.00136908
-0.00138861
-0.109598
0.109617
0.00141542
-0.00136196
-0.0184591
0.0184056
0.00109032
-0.000638595
0.0104653
-0.010917
0.000232759
0.00495181
-0.00518457
-0.0782259
0.0764814
0.00174447
-0.00579727
0.00582847
-0.42566
0.425629
-0.00419619
0.00212279
-0.597684
0.599757
0.00166296
-0.00574677
-0.734508
0.738591
0.0107698
-0.0153174
-0.857951
0.862498
0.0204343
-0.0250995
-0.983861
0.988526
0.0305529
-0.0348833
-1.12409
1.12842
0.0392532
-0.042941
-1.27963
1.28332
0.0463918
-0.0481823
-1.45111
1.4529
0.0488735
-0.0478769
-1.63953
1.63853
0.0454893
-0.0412388
-1.555
1.55075
0.036836
-0.0314704
-1.25018
1.24481
0.026217
-0.0202051
-1.01548
1.00947
0.0144468
-0.00858932
-0.794809
0.788951
0.00393851
0.000493691
-0.538401
0.533969
-0.00286072
0.00334782
-0.284252
0.283765
-0.00282478
0.00189973
-0.108506
0.109431
-0.00103858
0.000258242
-0.0179505
0.0187309
0.000137693
-0.000234029
0.011421
-0.0113246
0.000128988
0.00539834
-0.00552733
-0.0774804
0.0760976
0.00138279
-0.00479283
0.00501052
-0.429156
0.428938
-0.00356679
0.00163254
-0.604764
0.606698
0.00191274
-0.00555418
-0.742939
0.74658
0.00980113
-0.0141215
-0.86699
0.87131
0.0187802
-0.0235109
-0.992942
0.997673
0.0281166
-0.032144
-1.1328
1.13683
0.0364942
-0.039777
-1.28681
1.29009
0.0425184
-0.0444716
-1.4545
1.45645
0.0449975
-0.0439027
-1.63747
1.63637
0.0412217
-0.0370368
-1.54653
1.54235
0.032476
-0.0268886
-1.23889
1.2333
0.0215148
-0.0152879
-1.00274
0.996508
0.00943254
-0.0036792
-0.780796
0.775042
-0.000829708
0.00450319
-0.527189
0.523515
-0.00625313
0.00634097
-0.280687
0.2806
-0.00542528
0.00401643
-0.109245
0.110654
-0.00276304
0.00150406
-0.0191215
0.0203805
-0.000678095
0.000154672
0.0112083
-0.0106849
1.42006e-05
0.00557642
-0.00559062
-0.0772659
0.0760991
0.0011668
-0.00353495
0.00354223
-0.432183
0.432176
-0.00234319
0.000468404
-0.611164
0.613039
0.00279852
-0.00628507
-0.750692
0.754179
0.0103031
-0.0141631
-0.875427
0.879287
0.0188769
-0.0227287
-1.00176
1.00562
0.0272138
-0.03097
-1.14097
1.14473
0.0350759
-0.0384109
-1.29329
1.29662
0.0412652
-0.0427927
-1.45807
1.4596
0.0433837
-0.0423671
-1.63508
1.63407
0.0399727
-0.0356871
-1.5379
1.53361
0.0311915
-0.0256123
-1.22765
1.22207
0.020273
-0.0139831
-0.989642
0.983352
0.00823312
-0.00227341
-0.767316
0.761356
-0.00210491
0.00549246
-0.517288
0.513901
-0.00724456
0.00731608
-0.278101
0.278029
-0.00648302
0.00505656
-0.110799
0.112226
-0.00372075
0.00226733
-0.021213
0.0226664
-0.00121282
0.000424735
0.0101645
-0.00937643
-7.66911e-05
0.0055115
-0.00543481
-0.0773394
0.0765042
0.000835188
-0.00238818
0.00192806
-0.435226
0.435686
-0.000919386
-0.00101796
-0.616763
0.6187
0.00393415
-0.00725846
-0.757838
0.761163
0.0110679
-0.0150188
-0.883017
0.886968
0.0190512
-0.0230136
-1.00964
1.0136
0.0273886
-0.0308542
-1.14887
1.15234
0.0349578
-0.0381423
-1.2997
1.30288
0.0409069
-0.0428122
-1.46147
1.46337
0.0436795
-0.0427065
-1.63299
1.63202
0.0402736
-0.0364259
-1.5294
1.52555
0.0322301
-0.0267632
-1.21625
1.21078
0.0214593
-0.015521
-0.976709
0.970771
0.0095332
-0.00374928
-0.753944
0.74816
-0.000738208
0.00422736
-0.508052
0.504562
-0.00600177
0.00663255
-0.275534
0.274904
-0.00624875
0.00524336
-0.11241
0.113416
-0.00404297
0.00264137
-0.0236051
0.0250067
-0.00153063
0.000618527
0.00864773
-0.00773563
-0.000148675
0.0052655
-0.00511683
-0.0778316
0.0771687
0.000662882
-0.00140786
0.000983837
-0.438448
0.438872
0.000539254
-0.00232085
-0.622398
0.62418
0.00539207
-0.0085668
-0.764418
0.767592
0.0122028
-0.0157186
-0.890588
0.894104
0.0198395
-0.0234411
-1.01753
1.02113
0.0277092
-0.0315647
-1.15622
1.16008
0.0352273
-0.0386627
-1.30606
1.3095
0.041752
-0.043631
-1.4651
1.46698
0.0447152
-0.0443424
-1.63119
1.63081
0.0421715
-0.0387467
-1.52148
1.51806
0.0346031
-0.0294566
-1.20528
1.20014
0.0244798
-0.0186257
-0.964239
0.958385
0.0129715
-0.00716766
-0.740997
0.735193
0.00248174
0.00138346
-0.498584
0.494718
-0.00356255
0.00462959
-0.272276
0.271209
-0.00487057
0.00436999
-0.11323
0.11373
-0.00355771
0.00246839
-0.0257911
0.0268804
-0.00151571
0.000663485
0.00696667
-0.00611445
-0.000180943
0.00489996
-0.00471901
-0.078624
0.0781413
0.000482748
-0.000322273
-0.00028764
-0.441816
0.442426
0.00167286
-0.00375836
-0.627611
0.629696
0.0067526
-0.0097603
-0.770711
0.773719
0.0134745
-0.0168226
-0.897597
0.900945
0.0207558
-0.0244498
-1.02519
1.02888
0.0285864
-0.0323644
-1.16375
1.16753
0.0361992
-0.0396078
-1.3128
1.31621
0.0428077
-0.04536
-1.4691
1.47165
0.0467735
-0.0465705
-1.63031
1.6301
0.0449442
-0.0416965
-1.51445
1.5112
0.0380028
-0.0333316
-1.19489
1.19022
0.0283773
-0.022744
-0.952144
0.94651
0.0172711
-0.011383
-0.728336
0.722448
0.00659959
-0.00225538
-0.48896
0.484616
-0.000370107
0.00210418
-0.268081
0.266347
-0.00284355
0.00291544
-0.113
0.112929
-0.00260559
0.0019424
-0.0273168
0.02798
-0.00126346
0.000589498
0.00547035
-0.00479639
-0.000169113
0.00450025
-0.00433114
-0.0796614
0.0793068
0.000354598