/*--------------------------------*- C++ -*----------------------------------*\
  =========                 |
  \\      /  F ield         | OpenFOAM: The Open Source CFD Toolbox
   \\    /   O peration     | Website:  https://openfoam.org
    \\  /    A nd           | Version:  6
     \\/     M anipulation  |
\*---------------------------------------------------------------------------*/
FoamFile
{
    version     2.0;
    format      ascii;
    class       volVectorField;
    location    "74";
    object      U;
}
// * * * * * * * * * * * * * * * * * * * * * * * * * * * * * * * * * * * * * //

dimensions      [0 1 -1 0 0 0 0];

internalField   nonuniform List<vector> 
8800
(
(0.987195 -0.0767049 0)
(1.0019 -0.0551759 0)
(0.999723 -0.0285483 0)
(1.00003 -0.0151514 0)
(1.0001 -0.00855299 0)
(1.00012 -0.00505236 0)
(1.00007 -0.00300493 0)
(1.00003 -0.00170348 0)
(0.999997 -0.000796598 0)
(1.00006 -8.00566e-05 0)
(0.999971 0.000651507 0)
(0.999984 0.00142003 0)
(1.00003 0.00243819 0)
(1.00006 0.00400609 0)
(1.00004 0.00664004 0)
(1.00003 0.0113803 0)
(0.999918 0.0208196 0)
(0.999159 0.0386589 0)
(1.00711 0.0724582 0)
(0.771226 0.03669 0)
(0.363048 -0.0160148 0)
(1.04332 -0.0768235 0)
(1.08462 -0.0704387 0)
(1.04522 -0.05354 0)
(1.02331 -0.0388892 0)
(1.01204 -0.0262141 0)
(1.00644 -0.0168565 0)
(1.0036 -0.0103269 0)
(1.00215 -0.00566719 0)
(1.00145 -0.00200936 0)
(1.0013 0.001315 0)
(1.00166 0.00469901 0)
(1.00266 0.00863192 0)
(1.00468 0.0139586 0)
(1.00861 0.0216616 0)
(1.01658 0.0326278 0)
(1.03251 0.0465414 0)
(1.06268 0.0616617 0)
(1.09189 0.0760896 0)
(0.838666 0.0565797 0)
(0.216839 -0.0024209 0)
(1.07589 -0.0501436 0)
(1.09987 -0.0483219 0)
(1.06464 -0.0404679 0)
(1.04003 -0.0336048 0)
(1.02392 -0.0260809 0)
(1.01412 -0.0184973 0)
(1.00856 -0.0116768 0)
(1.00559 -0.00580713 0)
(1.00432 -0.00038754 0)
(1.00465 0.00486012 0)
(1.00658 0.0102531 0)
(1.01061 0.0163382 0)
(1.01794 0.023353 0)
(1.03052 0.0308186 0)
(1.05061 0.0378518 0)
(1.08034 0.0445419 0)
(1.10625 0.0513581 0)
(0.942511 0.0416193 0)
(0.216139 0.00245303 0)
(0.175174 -0.000813976 0)
(1.01769 -0.0354854 0)
(1.1052 -0.0413822 0)
(1.07826 -0.0360663 0)
(1.05346 -0.0301313 0)
(1.0362 -0.0245527 0)
(1.024 -0.0188204 0)
(1.01588 -0.0127364 0)
(1.01101 -0.00654418 0)
(1.0088 -0.000205231 0)
(1.00936 0.00605294 0)
(1.01262 0.012054 0)
(1.01886 0.0178812 0)
(1.02876 0.0234457 0)
(1.04318 0.0287473 0)
(1.06371 0.03423 0)
(1.09355 0.040213 0)
(1.0934 0.0419713 0)
(0.82712 0.0229164 0)
(0.173992 0.000850941 0)
(0.153973 -0.000609067 0)
(0.956189 -0.0254579 0)
(1.10346 -0.035127 0)
(1.08768 -0.0326492 0)
(1.06172 -0.0279942 0)
(1.04411 -0.0229676 0)
(1.03164 -0.0177168 0)
(1.02278 -0.0121799 0)
(1.01696 -0.00623705 0)
(1.0141 0.000238575 0)
(1.01476 0.00670475 0)
(1.01874 0.0125916 0)
(1.02579 0.0178759 0)
(1.03609 0.0227792 0)
(1.05063 0.0275369 0)
(1.07188 0.0320658 0)
(1.10006 0.0359972 0)
(1.06805 0.0340496 0)
(0.739474 0.0143215 0)
(0.152192 0.000651011 0)
(0.139605 -0.000465734 0)
(0.899304 -0.0190737 0)
(1.0958 -0.0300732 0)
(1.09575 -0.0291791 0)
(1.06925 -0.0254428 0)
(1.05082 -0.0212979 0)
(1.03789 -0.0165196 0)
(1.02877 -0.0112263 0)
(1.02264 -0.00547418 0)
(1.01949 0.000861078 0)
(1.02009 0.0071781 0)
(1.02418 0.0128168 0)
(1.03136 0.0177691 0)
(1.04187 0.0222169 0)
(1.05698 0.0261814 0)
(1.07918 0.0296417 0)
(1.10225 0.032262 0)
(1.03592 0.0281489 0)
(0.67285 0.0102237 0)
(0.137088 0.000514097 0)
(0.129072 -0.000360458 0)
(0.849744 -0.014708 0)
(1.08343 -0.025934 0)
(1.10144 -0.0262198 0)
(1.07612 -0.0229271 0)
(1.05715 -0.0192754 0)
(1.04376 -0.0150217 0)
(1.03429 -0.0100889 0)
(1.02791 -0.00454511 0)
(1.02457 0.00161322 0)
(1.02502 0.00771806 0)
(1.02906 0.0130804 0)
(1.03634 0.01762 0)
(1.04713 0.02146 0)
(1.06264 0.0247598 0)
(1.08527 0.0276988 0)
(1.10132 0.0294451 0)
(1.00093 0.0236472 0)
(0.620932 0.00786496 0)
(0.125659 0.000417351 0)
(0.121041 -0.000279778 0)
(0.80765 -0.0115459 0)
(1.06819 -0.0223154 0)
(1.10499 -0.0235704 0)
(1.08238 -0.0206882 0)
(1.063 -0.0172486 0)
(1.04933 -0.0132996 0)
(1.03958 -0.00870193 0)
(1.03292 -0.00342702 0)
(1.02932 0.0025159 0)
(1.02958 0.00837449 0)
(1.03357 0.0133889 0)
(1.04091 0.0174555 0)
(1.05179 0.0207844 0)
(1.06752 0.0236728 0)
(1.09049 0.0263099 0)
(1.09749 0.0271566 0)
(0.965556 0.020124 0)
(0.579162 0.00633703 0)
(0.116539 0.000347435 0)
(0.114825 -0.000216478 0)
(0.772246 -0.00917845 0)
(1.05147 -0.0191266 0)
(1.1074 -0.021115 0)
(1.08827 -0.0185997 0)
(1.0685 -0.0153014 0)
(1.0546 -0.0115118 0)
(1.04464 -0.0071212 0)
(1.03773 -0.00208344 0)
(1.03384 0.00360957 0)
(1.03387 0.00917011 0)
(1.03773 0.0138076 0)
(1.04501 0.0174523 0)
(1.05587 0.0203898 0)
(1.07179 0.0229534 0)
(1.09441 0.0252425 0)
(1.09081 0.0252708 0)
(0.931088 0.0174143 0)
(0.544521 0.00529765 0)
(0.108999 0.000297373 0)
(0.109989 -0.000165444 0)
(0.742595 -0.00733818 0)
(1.03436 -0.016296 0)
(1.10888 -0.0187961 0)
(1.09388 -0.0165828 0)
(1.07383 -0.0133728 0)
(1.05965 -0.00966883 0)
(1.0495 -0.00539532 0)
(1.04236 -0.000527687 0)
(1.03817 0.00492648 0)
(1.03789 0.0101747 0)
(1.04151 0.0144525 0)
(1.04864 0.0177243 0)
(1.05947 0.0203121 0)
(1.07557 0.0225845 0)
(1.09704 0.0244909 0)
(1.08166 0.0237411 0)
(0.898076 0.0153681 0)
(0.514948 0.00457773 0)
(0.102556 0.000262497 0)
(0.106252 -0.000122924 0)
(0.717881 -0.00585103 0)
(1.01766 -0.0137517 0)
(1.10954 -0.0165501 0)
(1.0994 -0.0146047 0)
(1.07909 -0.0114013 0)
(1.06461 -0.00772251 0)
(1.05423 -0.0035058 0)
(1.04683 0.001252 0)
(1.0423 0.00650897 0)
(1.04164 0.0114665 0)
(1.04494 0.0154066 0)
(1.05188 0.0183226 0)
(1.06263 0.0205713 0)
(1.0789 0.0225778 0)
(1.09831 0.0240704 0)
(1.07041 0.0225694 0)
(0.866622 0.0138706 0)
(0.488982 0.00408756 0)
(0.0968658 0.000239831 0)
(0.103427 -8.59544e-05 0)
(0.697464 -0.0046007 0)
(1.00201 -0.0114259 0)
(1.10955 -0.0143405 0)
(1.10477 -0.0125781 0)
(1.08435 -0.00933352 0)
(1.06956 -0.00562126 0)
(1.05891 -0.00140073 0)
(1.05119 0.00330489 0)
(1.04624 0.00841574 0)
(1.04511 0.0131172 0)
(1.04803 0.0167364 0)
(1.05473 0.0193023 0)
(1.06538 0.0212158 0)
(1.08178 0.0229597 0)
(1.09854 0.024065 0)
(1.05731 0.0217673 0)
(0.836548 0.0128339 0)
(0.465524 0.00377177 0)
(0.0916682 0.000226948 0)
(0.101395 -5.18501e-05 0)
(0.680876 -0.00349973 0)
(0.987853 -0.00924756 0)
(1.10912 -0.0120796 0)
(1.10998 -0.0104206 0)
(1.08971 -0.00710764 0)
(1.07457 -0.0033004 0)
(1.0636 0.000989187 0)
(1.05549 0.00570279 0)
(1.05003 0.0107173 0)
(1.04833 0.0151928 0)
(1.05079 0.018503 0)
(1.0572 0.020717 0)
(1.06772 0.0222928 0)
(1.08415 0.0237596 0)
(1.09776 0.0244494 0)
(1.04251 0.0213468 0)
(0.8075 0.0121868 0)
(0.4437 0.00359285 0)
(0.0867563 0.000221893 0)
(0.100095 -1.83645e-05 0)
(0.66782 -0.00247866 0)
(0.975559 -0.00714256 0)
(1.10857 -0.0097099 0)
(1.11517 -0.00807118 0)
(1.09525 -0.00464697 0)
(1.07973 -0.000681007 0)
(1.06837 0.00374544 0)
(1.05978 0.00853217 0)
(1.0537 0.0135007 0)
(1.05132 0.0177766 0)
(1.05322 0.0207884 0)
(1.05928 0.0226414 0)
(1.06964 0.0238668 0)
(1.08606 0.0250514 0)
(1.09575 0.0252642 0)
(1.02605 0.0212999 0)
(0.779029 0.0118754 0)
(0.422803 0.00352528 0)
(0.0819654 0.000223156 0)
(0.0995136 1.7422e-05 0)
(0.658145 -0.00148438 0)
(0.965443 -0.00503981 0)
(1.10824 -0.00716962 0)
(1.12047 -0.00545721 0)
(1.10105 -0.00186645 0)
(1.08511 0.00232823 0)
(1.07329 0.0069638 0)
(1.06412 0.0118928 0)
(1.05728 0.0168724 0)
(1.05408 0.020977 0)
(1.05532 0.0236906 0)
(1.06096 0.0251706 0)
(1.07112 0.0260333 0)
(1.08743 0.0268938 0)
(1.09243 0.0265466 0)
(1.00786 0.0216697 0)
(0.750636 0.0118765 0)
(0.402235 0.00355593 0)
(0.077159 0.000230218 0)
(0.0996723 4.84923e-05 0)
(0.651838 -0.000471546 0)
(0.957813 -0.00286488 0)
(1.10847 -0.00438795 0)
(1.12605 -0.00249199 0)
(1.10721 0.00133761 0)
(1.09081 0.0058393 0)
(1.07843 0.0107628 0)
(1.06856 0.0159088 0)
(1.06081 0.0209548 0)
(1.05662 0.024911 0)
(1.05706 0.0273229 0)
(1.06221 0.0284254 0)
(1.07213 0.028898 0)
(1.088 0.0293793 0)
(1.08747 0.0283619 0)
(0.987744 0.0224874 0)
(0.721749 0.0121738 0)
(0.381441 0.00367585 0)
(0.0722123 0.000242322 0)
(0.100644 9.58762e-05 0)
(0.649028 0.000586882 0)
(0.952989 -0.000532918 0)
(1.10963 -0.00128448 0)
(1.13211 0.00092232 0)
(1.11386 0.00508225 0)
(1.09694 0.00997994 0)
(1.08391 0.0152817 0)
(1.07317 0.0207255 0)
(1.06432 0.025895 0)
(1.05894 0.0297221 0)
(1.05844 0.0318175 0)
(1.063 0.0325304 0)
(1.07261 0.0325863 0)
(1.08764 0.0326388 0)
(1.08064 0.0307977 0)
(0.965395 0.0237873 0)
(0.691745 0.0127572 0)
(0.359908 0.00387664 0)
(0.0670163 0.000258638 0)
(0.102583 0.000153175 0)
(0.650025 0.00176712 0)
(0.951333 0.0020239 0)
(1.11217 0.00224566 0)
(1.13886 0.0048986 0)
(1.12113 0.00950964 0)
(1.10362 0.0149107 0)
(1.08979 0.0206939 0)
(1.07802 0.0265233 0)
(1.06783 0.0318734 0)
(1.06103 0.0355838 0)
(1.05941 0.0373172 0)
(1.06327 0.0376279 0)
(1.07249 0.0372311 0)
(1.08608 0.0367802 0)
(1.07165 0.0339452 0)
(0.940358 0.0256109 0)
(0.65995 0.0136212 0)
(0.33715 0.00415102 0)
(0.0614768 0.000278288 0)
(0.105572 0.000216768 0)
(0.655287 0.00321914 0)
(0.953284 0.0049622 0)
(1.11655 0.00634669 0)
(1.14654 0.0095925 0)
(1.1292 0.0148051 0)
(1.111 0.0208357 0)
(1.09621 0.0272166 0)
(1.08315 0.0335229 0)
(1.07135 0.0390981 0)
(1.06288 0.0426754 0)
(1.05996 0.0440148 0)
(1.06296 0.0438878 0)
(1.07173 0.0429877 0)
(1.08323 0.0420093 0)
(1.06009 0.0379148 0)
(0.912038 0.028 0)
(0.62563 0.014756 0)
(0.312709 0.00448815 0)
(0.055517 0.000299966 0)
(0.109904 0.000300967 0)
(0.665209 0.00491682 0)
(0.959327 0.00842601 0)
(1.12329 0.0111688 0)
(1.15545 0.0152021 0)
(1.1383 0.0212029 0)
(1.11926 0.0280123 0)
(1.10327 0.0351216 0)
(1.08864 0.0419929 0)
(1.07488 0.0478198 0)
(1.06443 0.0512233 0)
(1.06 0.0521041 0)
(1.062 0.0514962 0)
(1.07023 0.0500258 0)
(1.07912 0.0484354 0)
(1.0454 0.0428143 0)
(0.879668 0.0309713 0)
(0.588003 0.0161328 0)
(0.286171 0.00486899 0)
(0.0490869 0.000321577 0)
(0.115918 0.000414925 0)
(0.680643 0.00704651 0)
(0.970149 0.0126173 0)
(1.13296 0.0169496 0)
(1.16595 0.021994 0)
(1.14868 0.0290287 0)
(1.12859 0.0367924 0)
(1.11108 0.0447657 0)
(1.0945 0.0522715 0)
(1.07838 0.0583327 0)
(1.06561 0.0614687 0)
(1.05937 0.0617714 0)
(1.06034 0.060641 0)
(1.068 0.058544 0)
(1.07345 0.0562258 0)
(1.02687 0.0487164 0)
(0.842319 0.0345096 0)
(0.546277 0.0176949 0)
(0.257223 0.00526324 0)
(0.0421797 0.000340283 0)
(0.124142 0.000573079 0)
(0.702487 0.00982835 0)
(0.986602 0.0178408 0)
(1.14621 0.0240303 0)
(1.17854 0.0303635 0)
(1.16068 0.0387416 0)
(1.13918 0.0476568 0)
(1.11974 0.0566186 0)
(1.10071 0.0647739 0)
(1.08177 0.0709676 0)
(1.06632 0.0736684 0)
(1.05804 0.0732471 0)
(1.05788 0.0714755 0)
(1.06491 0.0686703 0)
(1.0658 0.0653213 0)
(1.00355 0.0556815 0)
(0.798899 0.0385382 0)
(0.499716 0.0193382 0)
(0.225719 0.00562551 0)
(0.0348487 0.000352373 0)
(0.135311 0.000802618 0)
(0.73206 0.0136526 0)
(1.00985 0.0245662 0)
(1.16385 0.0329597 0)
(1.19383 0.0409089 0)
(1.17465 0.0510106 0)
(1.15123 0.0612753 0)
(1.12924 0.0712885 0)
(1.10717 0.0799972 0)
(1.08487 0.08609 0)
(1.0664 0.0880796 0)
(1.05593 0.0867459 0)
(1.05457 0.0842623 0)
(1.06056 0.0805598 0)
(1.05541 0.0760189 0)
(0.974206 0.063647 0)
(0.748206 0.0428688 0)
(0.447777 0.0208904 0)
(0.191788 0.00589277 0)
(0.0272278 0.000353423 0)
(0.150692 0.00116256 0)
(0.771345 0.0191395 0)
(1.04155 0.0335745 0)
(1.18682 0.0446734 0)
(1.21265 0.0548337 0)
(1.19094 0.0668936 0)
(1.16478 0.0786234 0)
(1.13943 0.0895747 0)
(1.1136 0.0985172 0)
(1.08741 0.104063 0)
(1.06561 0.104917 0)
(1.05285 0.102406 0)
(1.05029 0.0990867 0)
(1.05474 0.0946093 0)
(1.04138 0.0883092 0)
(0.937244 0.072404 0)
(0.689071 0.0471658 0)
(0.390335 0.0221075 0)
(0.155964 0.00598956 0)
(0.0195472 0.000339107 0)
(0.172484 0.00178643 0)
(0.823594 0.027428 0)
(1.08437 0.0464197 0)
(1.21627 0.0610542 0)
(1.23554 0.074071 0)
(1.20963 0.0880322 0)
(1.17956 0.101041 0)
(1.14987 0.112437 0)
(1.11954 0.120939 0)
(1.08898 0.125214 0)
(1.0637 0.124345 0)
(1.04863 0.120318 0)
(1.0449 0.115964 0)
(1.04742 0.110524 0)
(1.02238 0.102046 0)
(0.890701 0.0814743 0)
(0.620698 0.0509163 0)
(0.328085 0.0226873 0)
(0.119342 0.00584018 0)
(0.0121413 0.000305395 0)
(0.204074 0.00315906 0)
(0.894575 0.0411525 0)
(1.14182 0.0669186 0)
(1.25256 0.0856826 0)
(1.26225 0.101483 0)
(1.23007 0.116806 0)
(1.19473 0.130151 0)
(1.15972 0.14085 0)
(1.12429 0.147778 0)
(1.08911 0.149762 0)
(1.06032 0.146432 0)
(1.0431 0.140481 0)
(1.03829 0.134891 0)
(1.03798 0.128383 0)
(0.996539 0.116771 0)
(0.83228 0.0900287 0)
(0.543426 0.053449 0)
(0.263285 0.022406 0)
(0.0838485 0.00541307 0)
(0.00549978 0.000247727 0)
(0.247168 0.00941705 3.81202e-20)
(0.988235 0.068313 3.34752e-20)
(1.21149 0.101679 -1.18073e-20)
(1.2926 0.122248 0)
(1.28986 0.140729 -3.11838e-34)
(1.25005 0.155584 4.58623e-21)
(1.20868 0.167457 -8.41564e-21)
(1.16789 0.176012 0)
(1.12707 0.180284 1.76569e-34)
(1.08702 0.179181 -1.07514e-20)
(1.05457 0.172927 0)
(1.03515 0.164934 -1.29397e-20)
(1.02964 0.1584 -3.82927e-20)
(1.02493 0.151428 -1.81353e-20)
(0.959205 0.134879 -5.47487e-21)
(0.755357 0.0990429 -3.25617e-21)
(0.452296 0.0548365 0)
(0.19487 0.0216033 2.27535e-21)
(0.0496508 0.00492709 2.68582e-21)
(-0.000394987 0.000156411 4.8446e-20)
(0.277049 0.0247349 2.54124e-20)
(1.06582 0.111245 5.53781e-22)
(1.26895 0.151209 3.02414e-21)
(1.32863 0.171733 0)
(1.31413 0.19039 -1.53971e-20)
(1.26726 0.203123 -1.77164e-20)
(1.21995 0.212721 -8.3869e-21)
(1.17337 0.218841 -3.03691e-20)
(1.127 0.220455 0)
(1.08178 0.216385 4.55943e-20)
(1.04537 0.207341 4.55199e-20)
(1.02359 0.197393 1.35728e-20)
(1.0157 0.189231 4.98641e-20)
(1.00079 0.179947 7.03983e-20)
(0.899346 0.155201 0)
(0.649736 0.107802 9.94021e-20)
(0.344924 0.0556321 1.42454e-19)
(0.12416 0.0200246 1.58118e-19)
(0.0158305 0.00328298 -1.80704e-19)
(-0.0061438 -0.000452997 -3.40292e-21)
(0.278517 0.0417371 0)
(1.11533 0.166766 3.81664e-21)
(1.30804 0.211785 0)
(1.35679 0.231987 -1.83068e-20)
(1.33327 0.247839 0)
(1.28045 0.256668 -3.39993e-20)
(1.2276 0.262515 1.69286e-20)
(1.17552 0.265052 -6.03452e-20)
(1.12391 0.263104 -1.60616e-21)
(1.07388 0.255373 2.33961e-20)
(1.03383 0.243037 1.00055e-19)
(1.00994 0.230847 -1.83125e-22)
(0.99948 0.220776 -3.61964e-20)
(0.974289 0.207739 -6.60994e-20)
(0.844145 0.174511 7.836e-20)
(0.571414 0.115235 -1.38694e-19)
(0.279203 0.0560248 -1.82748e-20)
(0.0847995 0.0181867 0)
(-0.00282649 0.000980054 -1.73007e-23)
(-0.00946596 -0.00127736 0)
(0.271889 0.0560138 3.33208e-20)
(1.14224 0.225952 -1.87975e-20)
(1.33235 0.276912 -1.76688e-20)
(1.37552 0.297536 8.18654e-21)
(1.3458 0.309602 -1.39599e-20)
(1.28855 0.31386 7.06016e-20)
(1.23115 0.315233 3.50051e-20)
(1.17435 0.313484 0)
(1.1181 0.307338 -1.15492e-19)
(1.06374 0.295386 0)
(1.02043 0.279334 -5.21842e-20)
(0.994597 0.264498 -6.50688e-20)
(0.98161 0.252031 -3.93136e-20)
(0.947614 0.234498 -4.79221e-20)
(0.798611 0.192603 0)
(0.518965 0.123133 0)
(0.241694 0.0578301 -1.1863e-19)
(0.0618195 0.0165051 2.3397e-20)
(-0.0155995 -0.0019051 -1.37081e-20)
(-0.0123483 -0.0023416 -1.60348e-20)
(0.263929 0.0685292 -7.1701e-22)
(1.15411 0.285012 0)
(1.34579 0.342997 2.93737e-20)
(1.38585 0.364492 2.13768e-20)
(1.35182 0.372757 3.32288e-20)
(1.29136 0.372434 0)
(1.23042 0.369204 3.34554e-20)
(1.16978 0.362943 6.60076e-20)
(1.10957 0.352302 5.85986e-20)
(1.05136 0.335801 1.0992e-19)
(1.00506 0.315727 0)
(0.977326 0.297915 -1.39914e-19)
(0.961938 0.282722 -8.46182e-20)
(0.920937 0.260385 -5.01148e-20)
(0.762365 0.210269 3.0732e-19)
(0.485598 0.132114 3.65013e-20)
(0.221159 0.0607397 1.71468e-19)
(0.0487408 0.0150219 -8.09603e-19)
(-0.0244566 -0.00511501 4.78013e-19)
(-0.0148748 -0.00358564 -5.76164e-19)
(0.256196 0.07973 1.55086e-20)
(1.15633 0.342019 -3.57782e-22)
(1.35135 0.408167 -1.52898e-21)
(1.38943 0.430917 -1.64631e-20)
(1.35232 0.435578 -2.49702e-20)
(1.28945 0.430841 1.80718e-21)
(1.22574 0.423136 -3.62982e-20)
(1.16195 0.412411 6.76044e-20)
(1.09838 0.397245 -1.2595e-19)
(1.03676 0.376101 0)
(0.987672 0.351825 -6.30871e-20)
(0.958071 0.330843 -1.56942e-21)
(0.940396 0.312675 -9.26149e-20)
(0.894225 0.285647 0)
(0.732832 0.228278 -6.64778e-20)
(0.464641 0.142391 -1.57462e-19)
(0.211076 0.06505 4.18707e-19)
(0.0430318 0.0141906 -4.12332e-19)
(-0.0294605 -0.00816006 5.84217e-19)
(-0.0168012 -0.00488769 -6.07222e-19)
(0.249548 0.0900176 -5.2231e-22)
(1.15248 0.396285 4.95726e-21)
(1.3512 0.471391 4.27638e-21)
(1.38775 0.495653 4.13655e-21)
(1.34835 0.497049 -1.2068e-20)
(1.28365 0.488152 0)
(1.21772 0.476203 -3.25081e-20)
(1.1513 0.461192 -7.04059e-20)
(1.08481 0.441612 -6.5084e-20)
(1.02014 0.415878 0)
(0.968408 0.387381 -6.50468e-20)
(0.936906 0.363112 -8.12922e-20)
(0.917099 0.341903 1.00423e-19)
(0.867518 0.310277 -6.10675e-20)
(0.707831 0.246606 -2.89895e-19)
(0.450956 0.15407 1.71604e-19)
(0.208084 0.0706844 5.08246e-20)
(0.0428213 0.0144439 0)
(-0.0307863 -0.0104804 -5.64319e-19)
(-0.0178763 -0.00606886 -2.07211e-20)
(0.244145 0.0997306 5.57059e-21)
(1.1449 0.447643 -8.17062e-21)
(1.34684 0.532115 -3.70606e-21)
(1.38201 0.558015 1.82168e-20)
(1.34088 0.556526 -3.97806e-20)
(1.2748 0.543804 5.93711e-20)
(1.20705 0.527904 7.0104e-20)
(1.13838 0.508849 -1.12356e-19)
(1.0693 0.485046 4.10598e-20)
(1.00181 0.454854 -2.69618e-19)
(0.947567 0.422221 -7.40129e-20)
(0.914164 0.394635 0)
(0.892325 0.370408 1.09081e-19)
(0.840426 0.334458 1.31029e-19)
(0.684932 0.265321 1.56324e-19)
(0.440391 0.16684 -1.86716e-19)
(0.207846 0.0775251 -5.51487e-20)
(0.0459116 0.0161044 6.47976e-20)
(-0.028994 -0.0116812 0)
(-0.0179794 -0.00694511 -4.5069e-20)
(0.239894 0.108967 -8.29049e-20)
(1.13529 0.496171 4.68104e-20)
(1.33955 0.590189 5.74805e-21)
(1.37325 0.61765 7.56193e-21)
(1.33074 0.613618 -1.49999e-20)
(1.2636 0.597417 -4.15055e-21)
(1.19435 0.577914 -7.71188e-20)
(1.12373 0.555119 -4.07873e-20)
(1.05229 0.527336 -1.133e-19)
(0.982139 0.492864 3.28964e-22)
(0.925492 0.456216 -2.31266e-19)
(0.890208 0.425381 1.97231e-19)
(0.866425 0.398206 -1.2025e-19)
(0.812937 0.358193 1.4478e-19)
(0.66273 0.283846 0)
(0.430467 0.180169 -1.01826e-19)
(0.208224 0.0852786 3.398e-22)
(0.0504605 0.0190081 -2.83501e-19)
(-0.0253041 -0.0117702 -4.15614e-20)
(-0.0173471 -0.00748174 0)
(0.236721 0.117975 0)
(1.12467 0.542099 5.36546e-20)
(1.33024 0.645904 2.40401e-20)
(1.36227 0.674394 -3.25028e-21)
(1.31862 0.668109 -2.27771e-20)
(1.25066 0.648784 0)
(1.18017 0.62603 -3.32437e-20)
(1.10782 0.599825 -1.05659e-21)
(1.03422 0.568355 2.4309e-19)
(0.961551 0.529833 -3.68709e-20)
(0.902514 0.489291 -1.67333e-19)
(0.865373 0.455319 1.02351e-19)
(0.839718 0.425231 -2.23819e-21)
(0.784959 0.381321 1.5436e-19)
(0.640214 0.301922 9.4574e-20)
(0.419521 0.193483 -2.19986e-19)
(0.207833 0.0932673 2.60075e-19)
(0.0550261 0.0226556 7.71132e-20)
(-0.0206583 -0.0109703 3.1741e-19)
(-0.0161881 -0.00769101 -8.48109e-19)
(0.234533 0.126895 -2.69695e-20)
(1.11376 0.585609 3.68616e-20)
(1.31948 0.698736 -2.53166e-20)
(1.34974 0.728197 -4.77695e-21)
(1.30511 0.719899 0)
(1.23651 0.697784 -2.32381e-20)
(1.16496 0.672132 1.13787e-19)
(1.09108 0.642859 8.8831e-20)
(1.01547 0.608021 0)
(0.940335 0.565705 -5.34416e-19)
(0.878924 0.521418 4.54123e-19)
(0.83995 0.484346 0)
(0.812508 0.451391 1.41218e-19)
(0.756564 0.403615 -2.20032e-21)
(0.616704 0.319155 -3.04616e-19)
(0.406808 0.20617 1.18836e-19)
(0.205275 0.101104 0)
(0.0584372 0.02669 4.17239e-19)
(-0.01602 -0.00954299 0)
(-0.0147469 -0.0076291 -4.02568e-19)
(0.233198 0.135762 3.21221e-20)
(1.10301 0.626912 4.74752e-20)
(1.30774 0.748745 -2.52345e-20)
(1.33617 0.779076 0)
(1.29068 0.768978 -1.36509e-20)
(1.22157 0.744385 0)
(1.14913 0.716164 -1.09269e-19)
(1.07386 0.684155 -3.99096e-20)
(0.996337 0.646291 4.24116e-20)
(0.918764 0.600459 -2.64709e-19)
(0.854954 0.552579 4.67718e-20)
(0.814141 0.512424 0)
(0.784984 0.476532 -3.02264e-19)
(0.727846 0.424785 2.08612e-21)
(0.591956 0.335138 0)
(0.392162 0.217509 8.18702e-22)
(0.200304 0.108133 3.82687e-19)
(0.0599116 0.0304429 -3.61266e-19)
(-0.0122426 -0.00799237 1.06507e-19)
(-0.0133191 -0.00741418 0)
(0.23237 0.144508 0)
(1.09259 0.666188 5.69757e-20)
(1.29545 0.796038 3.638e-20)
(1.32198 0.827102 -2.573e-21)
(1.27572 0.815377 1.55298e-23)
(1.2062 0.788589 -5.21596e-20)
(1.13299 0.75811 4.1883e-20)
(1.05645 0.723691 -4.84037e-20)
(0.977097 0.683137 1.91116e-19)
(0.897096 0.634116 -4.24208e-19)
(0.830792 0.582785 -4.32258e-21)
(0.788112 0.539531 -1.3181e-19)
(0.757269 0.50053 4.91745e-19)
(0.698866 0.444561 -2.55012e-21)
(0.566074 0.349541 -2.37847e-19)
(0.375584 0.227064 -4.21334e-19)
(0.193078 0.113852 0)
(0.0593084 0.033389 0)
(-0.00967342 -0.00671049 1.15168e-19)
(-0.0120717 -0.00717264 -6.75835e-20)
(0.23218 0.153302 4.4782e-20)
(1.08276 0.703245 -1.29269e-19)
(1.2829 0.840712 -3.9048e-20)
(1.30748 0.872359 0)
(1.26051 0.859154 -1.53651e-21)
(1.19069 0.83043 -4.22329e-20)
(1.11681 0.797982 9.75711e-20)
(1.0391 0.761467 1.8709e-19)
(0.957998 0.718565 2.47695e-19)
(0.875536 0.666694 -3.4652e-19)
(0.806605 0.612094 -3.92921e-19)
(0.761939 0.56567 3.53153e-19)
(0.729423 0.523273 0)
(0.669702 0.462609 -1.0858e-19)
(0.53949 0.361864 -2.57259e-19)
(0.357376 0.234501 -3.03552e-19)
(0.183831 0.117794 -3.57827e-19)
(0.056984 0.0351418 1.05661e-19)
(-0.00825765 -0.00594077 -6.20691e-20)
(-0.0110614 -0.0069759 3.23658e-22)
(0.23219 0.16192 0)
(1.07363 0.738578 0)
(1.27029 0.882867 2.53094e-21)
(1.29291 0.91495 0)
(1.24531 0.900398 -1.4166e-20)
(1.17526 0.869971 2.39532e-20)
(1.1008 0.835812 0)
(1.02203 0.797495 2.15653e-20)
(0.939235 0.752585 4.12654e-19)
(0.854274 0.69822 -7.98483e-19)
(0.782544 0.64058 0)
(0.735694 0.590899 -2.28153e-19)
(0.701394 0.544662 -2.9884e-21)
(0.640263 0.478663 -2.18399e-21)
(0.512336 0.371727 2.76123e-19)
(0.337884 0.239438 4.44717e-23)
(0.172982 0.119722 -7.71814e-19)
(0.0532108 0.0356411 2.27466e-19)
(-0.00780137 -0.00570004 6.72357e-20)
(-0.0102663 -0.00682905 0)
(0.232471 0.170348 -1.78559e-19)
(1.06497 0.772257 -8.67891e-20)
(1.25772 0.922572 -1.13962e-19)
(1.27845 0.954983 1.13969e-19)
(1.23031 0.939184 -4.06714e-20)
(1.16008 0.907277 0)
(1.08514 0.871646 5.64597e-20)
(1.0054 0.8318 -4.8789e-20)
(0.920971 0.785213 3.97388e-21)
(0.833496 0.728742 5.92418e-20)
(0.758748 0.668331 5.10808e-19)
(0.709403 0.615317 -8.00547e-20)
(0.673085 0.564692 -3.0475e-19)
(0.610477 0.492476 -1.26915e-19)
(0.484786 0.378715 1.49753e-19)
(0.317438 0.241539 1.90311e-22)
(0.161206 0.11949 2.08067e-19)
(0.0485161 0.0349014 -4.90094e-19)
(-0.00797855 -0.00591209 5.7928e-19)
(-0.00963449 -0.00672879 8.44496e-20)
(0.232634 0.178536 6.77577e-20)
(1.05677 0.804361 -4.88416e-20)
(1.24535 0.95995 6.37733e-21)
(1.26424 0.992584 7.2723e-20)
(1.21563 0.975622 1.55417e-20)
(1.14529 0.942419 -3.72923e-20)
(1.06997 0.905536 1.46287e-20)
(0.989329 0.864407 -2.02417e-19)
(0.903355 0.816454 -4.54081e-19)
(0.813346 0.75827 -4.76583e-19)
(0.735358 0.695438 0)
(0.683107 0.639078 -3.53525e-19)
(0.644358 0.583446 4.40532e-19)
(0.580069 0.503802 0)
(0.456854 0.382316 -3.21307e-19)
(0.297019 0.24034 1.90526e-19)
(0.149499 0.116906 -2.23958e-19)
(0.0438837 0.0331512 -2.63878e-19)
(-0.00839681 -0.00636579 -4.66668e-19)
(-0.00915603 -0.00666792 -3.6405e-19)
(0.233172 0.186604 -7.64811e-20)
(1.0489 0.834883 5.22575e-20)
(1.23324 0.995067 1.19301e-19)
(1.25038 1.02783 1.06066e-19)
(1.20139 1.00981 -2.8866e-20)
(1.131 0.975485 -1.40475e-20)
(1.05536 0.937532 5.03099e-20)
(0.973932 0.89536 -2.06222e-19)
(0.886486 0.84633 -2.69065e-19)
(0.793959 0.78683 4.99318e-19)
(0.712508 0.721982 1.12649e-18)
(0.65686 0.662362 0)
(0.61506 0.601118 0)
(0.548637 0.512551 -1.46299e-19)
(0.428265 0.381952 0)
(0.277106 0.234802 4.09443e-19)
(0.139701 0.11111 4.81497e-19)
(0.0414934 0.0301401 0)
(-0.00794949 -0.00691657 0)
(-0.00888509 -0.00670512 3.91464e-19)
(0.233407 0.194222 8.69378e-20)
(1.04138 0.86382 7.0279e-20)
(1.22147 1.02804 8.66735e-20)
(1.23695 1.06086 -1.01978e-19)
(1.18766 1.04185 -3.81027e-20)
(1.11727 1.00655 5.55782e-21)
(1.0414 0.967695 -6.78375e-20)
(0.959277 0.924685 -6.94577e-22)
(0.870453 0.874847 -5.19415e-21)
(0.775447 0.814425 -4.31092e-21)
(0.69035 0.748029 5.81183e-19)
(0.630748 0.685343 0)
(0.585095 0.617995 4.48693e-19)
(0.515688 0.518886 3.13276e-19)
(0.398203 0.377226 7.51527e-19)
(0.257352 0.223156 2.20969e-19)
(0.133714 0.0987495 -2.59098e-19)
(0.0467115 0.0219767 -1.5215e-19)
(-5.46665e-06 -0.00919403 0)
(-0.00730972 -0.00655127 4.20861e-19)
(0.234019 0.201875 -1.95866e-19)
(1.03416 0.891301 0)
(1.21003 1.05891 1.01926e-19)
(1.22397 1.09173 -8.64413e-20)
(1.17449 1.07185 5.19526e-20)
(1.10414 1.0357 9.86589e-21)
(1.02814 0.996077 1.23821e-19)
(0.945413 0.952415 -1.72943e-20)
(0.855311 0.902014 0)
(0.757905 0.841029 -5.51096e-19)
(0.669035 0.773621 -1.26573e-18)
(0.604898 0.708187 5.24318e-20)
(0.554462 0.634407 6.22113e-19)
(0.480813 0.523316 0)
(0.365302 0.368464 5.08553e-19)
(0.235151 0.203729 0)
(0.1296 0.0721915 0)
(0.0663417 -0.0090932 -1.6452e-19)
(0.0438312 -0.0266033 0)
(0.0246801 0.00400764 1.12861e-19)
(0.234222 0.20897 -2.1893e-19)
(1.02721 0.917564 0)
(1.19892 1.08789 1.69671e-19)
(1.2114 1.12071 0)
(1.16185 1.10007 -3.16323e-20)
(1.09156 1.06323 0)
(1.01552 1.02299 4.70029e-21)
(0.932243 0.978886 2.81997e-20)
(0.840938 0.928191 3.38734e-20)
(0.741157 0.867016 -6.04142e-19)
(0.648368 0.799213 3.78175e-20)
(0.579003 0.731558 4.24247e-19)
(0.522634 0.651165 6.08188e-19)
(0.442985 0.526581 8.20502e-20)
(0.32747 0.357111 3.99866e-19)
(0.204875 0.17721 0)
(0.113804 0.0269233 5.46291e-19)
(0.0654821 -0.0446036 -3.18649e-19)
(0.0301185 0.0513288 3.70254e-19)
(-0.0384267 0.456978 -4.41262e-19)
(0.234395 0.215912 1.81373e-19)
(1.0203 0.942471 2.79859e-19)
(1.18805 1.11529 0)
(1.19911 1.14823 5.05021e-21)
(1.14954 1.12709 9.35748e-20)
(1.07925 1.08982 -5.67274e-20)
(1.0032 1.04923 3.81439e-20)
(0.919348 1.00504 0)
(0.82679 0.954475 2.20919e-19)
(0.724508 0.893689 -3.11475e-20)
(0.62741 0.826302 0)
(0.551714 0.757137 0)
(0.487466 0.669558 5.47011e-19)
(0.399517 0.529051 -2.54307e-19)
(0.281381 0.344868 -4.06959e-19)
(0.161884 0.146478 0)
(0.0659748 0.0479691 2.7631e-19)
(0.00542278 0.460952 -3.18125e-19)
(0.0305178 1.92961 -1.77583e-19)
(0.0568886 2.82621 -2.24267e-19)
(0.234239 0.222314 -1.36028e-19)
(1.01349 0.966191 -3.59071e-19)
(1.17745 1.14113 1.00777e-19)
(1.18709 1.17417 8.39186e-20)
(1.13763 1.15273 0)
(1.06731 1.11519 -5.06523e-20)
(0.991414 1.07449 4.46474e-20)
(0.906927 1.03044 -1.32733e-20)
(0.813158 0.980351 3.32289e-20)
(0.70836 0.920451 5.75168e-19)
(0.606799 0.854251 6.42214e-19)
(0.524011 0.784764 4.78571e-19)
(0.449736 0.689803 5.52765e-19)
(0.351615 0.52998 -6.00964e-19)
(0.232896 0.335509 -6.17136e-19)
(0.10801 0.202271 0)
(0.0382955 0.889295 0)
(0.0857524 2.58364 1.52723e-19)
(0.0886425 3.21304 0)
(0.090205 3.38979 3.6863e-19)
(0.236815 0.228299 0)
(1.00706 0.989103 0)
(1.16682 1.16525 0)
(1.17514 1.1984 2.52732e-20)
(1.12575 1.17672 8.58121e-20)
(1.05556 1.13921 -5.0291e-20)
(0.980082 1.09867 2.58251e-20)
(0.894912 1.05496 -1.272e-20)
(0.799976 1.00564 2.72093e-19)
(0.692703 0.947141 -8.71941e-21)
(0.586627 0.882849 1.26972e-18)
(0.496264 0.814512 -5.55784e-20)
(0.409323 0.712765 6.71219e-20)
(0.301147 0.527618 8.73966e-20)
(0.173873 0.353344 -2.79969e-21)
(0.0887553 1.01596 1.71789e-21)
(0.122492 2.76527 -8.13661e-19)
(0.127184 3.30152 -3.03653e-19)
(0.118175 3.42371 1.56036e-19)
(0.107939 3.44345 -1.73529e-19)
(0.160366 0.174036 8.02338e-20)
(0.99671 1.01412 0)
(1.15595 1.18784 -2.0149e-19)
(1.16364 1.22132 -2.2707e-19)
(1.11438 1.19955 2.00742e-19)
(1.04466 1.16234 5.78038e-20)
(0.969016 1.12175 -2.26167e-20)
(0.883334 1.07866 1.29759e-19)
(0.78732 1.03043 -2.20666e-19)
(0.677759 0.973877 0)
(0.567185 0.912162 6.23942e-19)
(0.469014 0.846163 -3.91418e-19)
(0.369169 0.742092 0)
(0.242159 0.526168 8.254e-20)
(0.127318 0.750482 1.97845e-19)
(0.137011 2.56945 -2.24937e-19)
(0.184871 3.32832 2.52383e-19)
(0.167953 3.43381 1.36195e-19)
(0.139415 3.45264 1.52308e-19)
(0.12039 3.46142 2.44364e-19)
(0.271664 0.26625 -1.53396e-19)
(0.979321 1.02437 0)
(1.13778 1.2139 2.19742e-19)
(1.14892 1.25245 2.48791e-19)
(1.09688 1.23324 -2.22073e-19)
(1.02655 1.19641 -8.1724e-20)
(0.949709 1.15738 7.27651e-22)
(0.863448 1.11559 1.03849e-20)
(0.765948 1.06964 2.05628e-19)
(0.653295 1.01726 4.91214e-19)
(0.536695 0.961889 3.48169e-20)
(0.426595 0.899738 3.48068e-19)
(0.293377 0.775278 6.32219e-20)
(0.203118 0.917963 -8.10855e-20)
(0.20879 2.44611 -1.80593e-19)
(0.260099 3.33245 1.73754e-19)
(0.24309 3.45911 -1.93369e-19)
(0.208875 3.47797 -1.11797e-19)
(0.175501 3.50237 -9.64877e-20)
(0.13054 3.49701 -1.13603e-20)
(0.261878 0.265198 0)
(0.976563 1.04738 6.33056e-20)
(1.12912 1.23766 -4.52732e-20)
(1.13795 1.27625 -2.95772e-20)
(1.08577 1.25666 -1.53212e-19)
(1.0154 1.22001 8.42444e-20)
(0.938235 1.1812 7.69626e-21)
(0.851702 1.14027 8.96288e-21)
(0.753524 1.09585 -2.11547e-19)
(0.63928 1.04648 -1.37504e-20)
(0.519244 0.996043 -1.1238e-18)
(0.402572 0.936518 4.99216e-20)
(0.275378 0.848574 -5.95497e-20)
(0.238337 1.54245 -7.45984e-20)
(0.301271 3.1435 1.77262e-20)
(0.314339 3.46105 1.13781e-21)
(0.272956 3.50818 2.83655e-19)
(0.239143 3.53137 1.41493e-19)
(0.193548 3.55138 -4.08525e-20)
(0.14366 3.54768 -5.49938e-20)
(0.247984 0.263313 1.60411e-19)
(0.972903 1.07295 4.31032e-19)
(1.1201 1.26347 -1.29716e-19)
(1.12651 1.30158 -1.11709e-19)
(1.07416 1.28152 0)
(1.00387 1.2449 1.48851e-19)
(0.926659 1.20638 2.64452e-20)
(0.840108 1.16627 7.4195e-21)
(0.741566 1.12349 -2.38449e-20)
(0.626276 1.07741 -4.36919e-19)
(0.503746 1.03252 -5.15293e-19)
(0.381278 0.97467 -4.04914e-19)
(0.278653 0.994232 -4.49893e-19)
(0.303841 2.31242 4.61444e-19)
(0.38218 3.38881 3.83025e-19)
(0.353689 3.51758 0)
(0.305821 3.5543 0)
(0.269197 3.58796 -3.27376e-20)
(0.225104 3.63304 0)
(0.155657 3.61727 -4.52401e-20)
(0.238217 0.265308 -2.39903e-19)
(0.967306 1.09938 -3.65931e-19)
(1.10968 1.29051 0)
(1.11379 1.32771 6.08552e-21)
(1.06131 1.30705 -1.64987e-19)
(0.991265 1.27038 2.39746e-19)
(0.914331 1.23217 2.59811e-20)
(0.82799 1.19281 2.36119e-21)
(0.729344 1.15165 -1.41413e-19)
(0.613451 1.1089 2.11735e-20)
(0.48939 1.06965 0)
(0.362249 1.0171 0)
(0.300988 1.28781 -4.06319e-19)
(0.38312 2.97417 1.62314e-19)
(0.447359 3.488 2.05058e-19)
(0.393947 3.55205 0)