/*--------------------------------*- C++ -*----------------------------------*\
  =========                 |
  \\      /  F ield         | OpenFOAM: The Open Source CFD Toolbox
   \\    /   O peration     | Website:  https://openfoam.org
    \\  /    A nd           | Version:  6
     \\/     M anipulation  |
\*---------------------------------------------------------------------------*/
FoamFile
{
    version     2.0;
    format      ascii;
    class       volVectorField;
    location    "26.4";
    object      U;
}
// * * * * * * * * * * * * * * * * * * * * * * * * * * * * * * * * * * * * * //

dimensions      [0 1 -1 0 0 0 0];

internalField   nonuniform List<vector> 
8800
(
(0.987189 -0.0766658 0)
(1.0019 -0.0551898 0)
(0.999758 -0.028547 0)
(1.00005 -0.0151337 0)
(1.00005 -0.00852439 0)
(1.00002 -0.00501653 0)
(1.00002 -0.00298518 0)
(1.00002 -0.00171594 0)
(1.00002 -0.000831699 0)
(1.00005 -0.000124926 0)
(1.00002 0.000582362 0)
(1.00003 0.00135234 0)
(1.00003 0.00238396 0)
(1.00003 0.00395581 0)
(1.00004 0.00659272 0)
(1.00007 0.0113386 0)
(0.999982 0.0207906 0)
(0.999181 0.0386539 0)
(1.00709 0.0724501 0)
(0.771217 0.0366596 0)
(0.363055 -0.0160184 0)
(1.04329 -0.076822 0)
(1.0846 -0.0704579 0)
(1.04521 -0.0535643 0)
(1.02325 -0.0389332 0)
(1.01192 -0.0262664 0)
(1.00632 -0.0169283 0)
(1.00352 -0.0103986 0)
(1.00213 -0.00575514 0)
(1.00144 -0.002169 0)
(1.0013 0.00109538 0)
(1.0017 0.00441841 0)
(1.00268 0.00838049 0)
(1.00465 0.0137968 0)
(1.0086 0.021542 0)
(1.01659 0.0325223 0)
(1.03257 0.0464427 0)
(1.06273 0.0615705 0)
(1.0919 0.0760224 0)
(0.838782 0.0565314 0)
(0.216795 -0.00243053 0)
(1.07587 -0.0501573 0)
(1.09989 -0.0483394 0)
(1.06461 -0.0404758 0)
(1.03989 -0.033588 0)
(1.02367 -0.0260666 0)
(1.0139 -0.0185558 0)
(1.00839 -0.0118613 0)
(1.00547 -0.00609658 0)
(1.00429 -0.000726097 0)
(1.00463 0.00450487 0)
(1.00655 0.00987922 0)
(1.01053 0.0159455 0)
(1.01787 0.0229616 0)
(1.03055 0.0304641 0)
(1.05073 0.0375607 0)
(1.08053 0.0443202 0)
(1.10646 0.0511905 0)
(0.942836 0.0415399 0)
(0.216363 0.00245013 0)
(0.175111 -0.000815809 0)
(1.01762 -0.0354972 0)
(1.10515 -0.0414208 0)
(1.07817 -0.0361494 0)
(1.05327 -0.0302684 0)
(1.03595 -0.024713 0)
(1.02374 -0.0190098 0)
(1.01569 -0.0129847 0)
(1.01094 -0.0068678 0)
(1.00883 -0.000697745 0)
(1.00945 0.00539484 0)
(1.01269 0.0113808 0)
(1.01888 0.0172961 0)
(1.02882 0.022984 0)
(1.04334 0.0283691 0)
(1.06393 0.033886 0)
(1.09383 0.0398826 0)
(1.09381 0.0417038 0)
(0.827901 0.0227935 0)
(0.174388 0.000838039 0)
(0.153912 -0.00060818 0)
(0.956104 -0.0254413 0)
(1.10337 -0.0350994 0)
(1.08749 -0.0325919 0)
(1.06139 -0.0279089 0)
(1.04372 -0.0229474 0)
(1.03131 -0.0178839 0)
(1.02252 -0.0125849 0)
(1.01677 -0.00683941 0)
(1.01404 -0.000460371 0)
(1.01479 0.00595365 0)
(1.01884 0.0118068 0)
(1.0259 0.0170439 0)
(1.03624 0.0219371 0)
(1.05086 0.0266964 0)
(1.07219 0.0313163 0)
(1.10053 0.0353966 0)
(1.06891 0.033626 0)
(0.740982 0.0141391 0)
(0.152828 0.000633456 0)
(0.139562 -0.000463753 0)
(0.899238 -0.019017 0)
(1.09566 -0.0300332 0)
(1.09556 -0.0292017 0)
(1.06883 -0.025536 0)
(1.05021 -0.0214505 0)
(1.03731 -0.0167993 0)
(1.02832 -0.0117049 0)
(1.02236 -0.00614235 0)
(1.0194 -4.06154e-05 0)
(1.02015 0.00608036 0)
(1.02431 0.0116507 0)
(1.03145 0.0166356 0)
(1.042 0.02118 0)
(1.05731 0.0252513 0)
(1.07973 0.0287903 0)
(1.10305 0.0314766 0)
(1.03746 0.0275507 0)
(0.67538 0.00997085 0)
(0.138039 0.000493039 0)
(0.129091 -0.000354376 0)
(0.849929 -0.014569 0)
(1.08317 -0.0257086 0)
(1.1009 -0.0260072 0)
(1.07544 -0.0228273 0)
(1.05647 -0.0193411 0)
(1.04308 -0.0153192 0)
(1.03365 -0.0106487 0)
(1.02734 -0.00543229 0)
(1.02416 0.000438855 0)
(1.02485 0.00634089 0)
(1.02914 0.0115152 0)
(1.03654 0.0160406 0)
(1.04749 0.019969 0)
(1.06315 0.0233024 0)
(1.0858 0.0262811 0)
(1.10235 0.0281686 0)
(1.00362 0.0227661 0)
(0.624958 0.00751393 0)
(0.127036 0.000389069 0)
(0.121168 -0.000272284 0)
(0.808301 -0.0113005 0)
(1.06811 -0.0219494 0)
(1.10443 -0.0231561 0)
(1.08141 -0.020278 0)
(1.06178 -0.0170343 0)
(1.04805 -0.0135186 0)
(1.0383 -0.00937481 0)
(1.03182 -0.00449396 0)
(1.02853 0.00107598 0)
(1.02906 0.00659941 0)
(1.03326 0.0114031 0)
(1.04076 0.0153863 0)
(1.05192 0.0186496 0)
(1.068 0.0215062 0)
(1.09129 0.0242723 0)
(1.0993 0.0254042 0)
(0.970004 0.0189179 0)
(0.585204 0.0058649 0)
(0.118466 0.000313668 0)
(0.115152 -0.000203467 0)
(0.773819 -0.00874422 0)
(1.0515 -0.0184251 0)
(1.10651 -0.0204852 0)
(1.08695 -0.018205 0)
(1.06694 -0.0151584 0)
(1.05293 -0.0117104 0)
(1.04302 -0.00775598 0)
(1.03627 -0.00325216 0)
(1.03268 0.00183 0)
(1.03312 0.00682199 0)
(1.03734 0.0110738 0)
(1.04484 0.0145962 0)
(1.05604 0.0176006 0)
(1.07241 0.0202455 0)
(1.09538 0.0225745 0)
(1.09341 0.0227881 0)
(0.938019 0.0156943 0)
(0.5534 0.00465147 0)
(0.111665 0.000253393 0)
(0.110626 -0.000149458 0)
(0.745792 -0.00667044 0)
(1.03497 -0.0151139 0)
(1.10748 -0.0174947 0)
(1.09182 -0.0155344 0)
(1.07176 -0.0127998 0)
(1.05763 -0.00969192 0)
(1.04748 -0.00609127 0)
(1.04047 -0.00198378 0)
(1.03665 0.00272527 0)
(1.03685 0.00734214 0)
(1.04097 0.0110492 0)
(1.04849 0.0140215 0)
(1.05972 0.016522 0)
(1.07612 0.0186861 0)
(1.0981 0.020575 0)
(1.08561 0.0202015 0)
(0.908738 0.0130148 0)
(0.527704 0.00373238 0)
(0.106178 0.000210611 0)
(0.107328 -0.000101424 0)
(0.723533 -0.00491596 0)
(1.0194 -0.0120571 0)
(1.10788 -0.014677 0)
(1.09656 -0.0129695 0)
(1.07612 -0.0103886 0)
(1.06165 -0.00761132 0)
(1.0514 -0.00426394 0)
(1.04438 -0.000407883 0)
(1.04038 0.0038355 0)
(1.04029 0.00783803 0)
(1.04404 0.0110593 0)
(1.05128 0.0135745 0)
(1.06248 0.0154954 0)
(1.07925 0.0172176 0)
(1.09979 0.0188016 0)
(1.07658 0.0178566 0)
(0.88248 0.0107614 0)
(0.5069 0.00300704 0)
(0.101708 0.000175986 0)
(0.105086 -5.94994e-05 0)
(0.706602 -0.00333646 0)
(1.0054 -0.00903558 0)
(1.10735 -0.0116896 0)
(1.1007 -0.0104114 0)
(1.07997 -0.00810116 0)
(1.06519 -0.00547697 0)
(1.05467 -0.00236913 0)
(1.04726 0.001203 0)
(1.04291 0.00513971 0)
(1.04249 0.00878683 0)
(1.04606 0.0115317 0)
(1.05323 0.0134501 0)
(1.0645 0.0149629 0)
(1.08163 0.0162453 0)
(1.10024 0.0171841 0)
(1.06643 0.0155284 0)
(0.859407 0.00877872 0)
(0.490104 0.0024148 0)
(0.0980109 0.000152266 0)
(0.103831 -1.44428e-05 0)
(0.694903 -0.00180587 0)
(0.993769 -0.00595702 0)
(1.10616 -0.0084113 0)
(1.10416 -0.00752554 0)
(1.08394 -0.00548265 0)
(1.06913 -0.00297904 0)
(1.05856 -3.14214e-06 0)
(1.051 0.00323485 0)
(1.0463 0.00674538 0)
(1.04546 0.00986553 0)
(1.04862 0.0119806 0)
(1.05538 0.0133844 0)
(1.06631 0.0143324 0)
(1.08311 0.0151306 0)
(1.09939 0.0154351 0)
(1.05573 0.0131736 0)
(0.839767 0.00697608 0)
(0.476894 0.00189835 0)
(0.0949599 0.000130282 0)
(0.103608 2.37906e-05 0)
(0.68808 -0.000396062 0)
(0.984914 -0.00303551 0)
(1.10481 -0.00500773 0)
(1.10708 -0.00418508 0)
(1.08726 -0.00235328 0)
(1.07214 -0.000120549 0)
(1.06126 0.00254566 0)
(1.05346 0.00553514 0)
(1.04844 0.00873202 0)
(1.047 0.0113889 0)
(1.04952 0.012928 0)
(1.05598 0.0136048 0)
(1.06686 0.0139143 0)
(1.08361 0.0139126 0)
(1.09742 0.0137312 0)
(1.04489 0.0110865 0)
(0.823294 0.0055039 0)
(0.466729 0.00150007 0)
(0.0925164 0.000108522 0)
(0.10434 8.09995e-05 0)
(0.685505 0.00067375 0)
(0.97892 -0.000591724 0)
(1.10373 -0.00203592 0)
(1.10974 -0.00135974 0)
(1.09042 0.000347117 0)
(1.07527 0.00263103 0)
(1.06429 0.00535532 0)
(1.05613 0.00828108 0)
(1.05051 0.0111631 0)
(1.04843 0.0132946 0)
(1.0504 0.0143378 0)
(1.05625 0.0146065 0)
(1.06673 0.0143397 0)
(1.08307 0.0139821 0)
(1.09436 0.0131069 0)
(1.03401 0.0098502 0)
(0.809396 0.00473855 0)
(0.458527 0.0013612 0)
(0.0905019 0.000101485 0)
(0.105757 0.000102813 0)
(0.686196 0.00136213 0)
(0.975761 0.00127183 0)
(1.10305 0.00040662 0)
(1.11224 0.00106945 0)
(1.09368 0.00269078 0)
(1.07855 0.00512758 0)
(1.06743 0.00805187 0)
(1.05894 0.011189 0)
(1.05267 0.0141335 0)
(1.04974 0.016123 0)
(1.05085 0.0168288 0)
(1.05599 0.0165864 0)
(1.06577 0.015844 0)
(1.08162 0.0148953 0)
(1.08986 0.0132652 0)
(1.02295 0.00953465 0)
(0.797033 0.00473541 0)
(0.450762 0.00147472 0)
(0.0885086 0.00011256 0)
(0.107714 0.000132205 0)
(0.689256 0.00196369 0)
(0.975414 0.0028827 0)
(1.10307 0.00289438 0)
(1.11471 0.00373411 0)
(1.09695 0.00554766 0)
(1.08196 0.00829655 0)
(1.07063 0.0114969 0)
(1.06153 0.0148229 0)
(1.05437 0.0178039 0)
(1.0504 0.0196067 0)
(1.05054 0.0198023 0)
(1.05485 0.01898 0)
(1.06407 0.0176859 0)
(1.07908 0.0161709 0)
(1.08435 0.0140254 0)
(1.01183 0.010004 0)
(0.785026 0.00530382 0)
(0.442238 0.00173566 0)
(0.0862158 0.000135787 0)
(0.110285 0.000168907 0)
(0.694599 0.00263397 0)
(0.977703 0.00429625 0)
(1.10494 0.00543029 0)
(1.11797 0.00708997 0)
(1.10087 0.00947175 0)
(1.08586 0.01264 0)
(1.07423 0.0161369 0)
(1.0645 0.0195636 0)
(1.05632 0.0223955 0)
(1.05099 0.0237001 0)
(1.0499 0.0233226 0)
(1.05319 0.0219111 0)
(1.06146 0.0199684 0)
(1.0757 0.0178532 0)
(1.07816 0.0153192 0)
(1.00081 0.011246 0)
(0.772114 0.00621496 0)
(0.432296 0.00205842 0)
(0.0834705 0.000164733 0)
(0.113592 0.000215956 0)
(0.702087 0.00349414 0)
(0.982457 0.00585846 0)
(1.10917 0.00781979 0)
(1.12295 0.0104421 0)
(1.10572 0.013731 0)
(1.09026 0.0176342 0)
(1.07793 0.0216171 0)
(1.06721 0.0253074 0)
(1.05768 0.0280629 0)
(1.05078 0.0288362 0)
(1.04837 0.0277038 0)
(1.05065 0.0255012 0)
(1.05817 0.0231041 0)
(1.07154 0.0206495 0)
(1.0717 0.0179146 0)
(0.988891 0.0133147 0)
(0.757063 0.00728875 0)
(0.420632 0.00243322 0)
(0.080167 0.000200711 0)
(0.11789 0.000280602 0)
(0.712312 0.004706 0)
(0.988972 0.00795532 0)
(1.11503 0.0102829 0)
(1.1295 0.0134123 0)
(1.11196 0.0175242 0)
(1.09568 0.0223839 0)
(1.08239 0.0272376 0)
(1.07041 0.0317556 0)
(1.05909 0.0350283 0)
(1.05029 0.0359004 0)
(1.04627 0.0345137 0)
(1.04728 0.0317543 0)
(1.05427 0.0285461 0)
(1.06705 0.0255226 0)
(1.06393 0.0220412 0)
(0.973877 0.0157866 0)
(0.73938 0.0083803 0)
(0.407166 0.00284493 0)
(0.076245 0.000238936 0)
(0.123538 0.000374088 0)
(0.726366 0.00640329 0)
(0.997384 0.0109568 0)
(1.1215 0.0134919 0)
(1.13685 0.0166853 0)
(1.1195 0.0214388 0)
(1.10238 0.0272574 0)
(1.088 0.0334865 0)
(1.07442 0.039327 0)
(1.06092 0.0436552 0)
(1.04991 0.0450969 0)
(1.04395 0.0437884 0)
(1.04331 0.0408785 0)
(1.04894 0.0370835 0)
(1.06045 0.0326977 0)
(1.05212 0.0267813 0)
(0.954625 0.0181931 0)
(0.719388 0.00963892 0)
(0.391721 0.00333843 0)
(0.0716319 0.000281737 0)
(0.131098 0.000518163 0)
(0.745757 0.00883876 0)
(1.00912 0.0153349 0)
(1.12835 0.0187113 0)
(1.14459 0.0219016 0)
(1.12798 0.0271613 0)
(1.11078 0.0342134 0)
(1.09519 0.0420081 0)
(1.07949 0.049193 0)
(1.0633 0.0543645 0)
(1.04963 0.0559396 0)
(1.04143 0.0542472 0)
(1.03873 0.0506578 0)
(1.04225 0.0459093 0)
(1.04988 0.0396418 0)
(1.03477 0.0309843 0)
(0.932077 0.020587 0)
(0.697301 0.0112114 0)
(0.373899 0.00393391 0)
(0.0662455 0.00032793 0)
(0.141425 0.000731995 0)
(0.772103 0.012194 0)
(1.02641 0.0211967 0)
(1.13725 0.0264063 0)
(1.15294 0.0304066 0)
(1.13815 0.0370374 0)
(1.12105 0.0455239 0)
(1.10372 0.0545339 0)
(1.08524 0.0624348 0)
(1.06569 0.0675756 0)
(1.04879 0.0682977 0)
(1.03792 0.0652703 0)
(1.03274 0.0600809 0)
(1.03306 0.0535433 0)
(1.03525 0.0451972 0)
(1.01392 0.0348475 0)
(0.90781 0.0236424 0)
(0.672502 0.0132902 0)
(0.352957 0.00467989 0)
(0.0599639 0.000381853 0)
(0.15575 0.00107979 0)
(0.807357 0.017189 0)
(1.05153 0.0293468 0)
(1.15111 0.0372903 0)
(1.16435 0.0439635 0)
(1.15065 0.0525727 0)
(1.13272 0.0623832 0)
(1.11281 0.0719764 0)
(1.09078 0.0796835 0)
(1.06722 0.0836692 0)
(1.04658 0.0823686 0)
(1.03253 0.0769988 0)
(1.02442 0.0694937 0)
(1.02092 0.0607245 0)
(1.01795 0.0507686 0)
(0.991629 0.0396795 0)
(0.881907 0.0278408 0)
(0.643822 0.0159423 0)
(0.328153 0.00554192 0)
(0.0526793 0.000437187 0)
(0.176259 0.00169437 0)
(0.854617 0.0250258 0)
(1.08698 0.0411937 0)
(1.17246 0.0526705 0)
(1.18084 0.0630711 0)
(1.16554 0.0740828 0)
(1.14517 0.085093 0)
(1.12158 0.0946887 0)
(1.09521 0.101274 0)
(1.06703 0.103016 0)
(1.04219 0.0987108 0)
(1.02464 0.0903524 0)
(1.0133 0.0802147 0)
(1.00613 0.069301 0)
(0.999048 0.0581136 0)
(0.968309 0.0464431 0)
(0.853049 0.0334123 0)
(0.609876 0.0192332 0)
(0.298948 0.00654378 0)
(0.0443814 0.000491383 0)
(0.206232 0.00305412 0)
(0.919236 0.0384249 0)
(1.13519 0.0603818 0)
(1.20179 0.075206 0)
(1.20273 0.0898261 0)
(1.18272 0.102918 0)
(1.15778 0.114423 0)
(1.12924 0.123061 0)
(1.09775 0.127462 0)
(1.06446 0.125941 0)
(1.03517 0.117919 0)
(1.01401 0.106237 0)
(0.999426 0.0934019 0)
(0.989099 0.0805125 0)
(0.978661 0.0681287 0)
(0.943055 0.0555439 0)
(0.819368 0.0404419 0)
(0.569522 0.0231475 0)
(0.265522 0.00768083 0)
(0.0353178 0.000534916 0)
(0.247509 0.00937659 7.42402e-22)
(1.00474 0.0653384 8.16746e-22)
(1.19263 0.0933816 -3.85638e-22)
(1.23742 0.110702 0)
(1.22735 0.127925 -1.93492e-35)
(1.20034 0.141204 3.06715e-22)
(1.16923 0.151562 -6.99665e-22)
(1.13481 0.158025 0)
(1.09763 0.159389 1.75985e-35)
(1.05874 0.154023 -1.17269e-21)
(1.02455 0.142 0)
(0.999385 0.126971 -1.52598e-21)
(0.981298 0.111584 -4.58678e-21)
(0.967797 0.0969683 -2.19472e-21)
(0.954047 0.0835916 -6.76941e-22)
(0.912621 0.0701718 -4.06361e-22)
(0.776627 0.0518435 0)
(0.519077 0.0296989 2.88977e-22)
(0.227864 0.0106506 3.42797e-22)
(0.0269414 0.00108869 6.18985e-21)
(0.274748 0.0250411 -1.53617e-21)
(1.07504 0.108293 1.0318e-22)
(1.24041 0.141089 1.20428e-23)
(1.27029 0.159926 0)
(1.24984 0.176081 -7.01617e-22)
(1.21574 0.187926 -9.79459e-22)
(1.17812 0.196454 -6.39208e-22)
(1.13739 0.200655 -2.76304e-21)
(1.09401 0.199191 0)
(1.04874 0.190416 4.9928e-21)
(1.00845 0.174797 5.21524e-21)
(0.9781 0.156867 1.61424e-21)
(0.955497 0.139283 6.12747e-21)
(0.937921 0.122985 8.81529e-21)
(0.919193 0.107969 0)
(0.871437 0.0924475 1.28156e-20)
(0.725415 0.0701448 1.85971e-20)
(0.468303 0.0422405 2.07776e-20)
(0.197506 0.0169743 -2.39301e-20)
(0.0210855 0.00183313 -4.50798e-22)
(0.274275 0.0412596 0)
(1.11876 0.164166 -7.41814e-22)
(1.27452 0.200343 0)
(1.29582 0.21912 3.90783e-22)
(1.26758 0.231966 0)
(1.22728 0.240551 -1.40199e-21)
(1.18356 0.2459 1.19564e-21)
(1.13679 0.246886 -5.08987e-21)
(1.08745 0.242011 -3.16512e-22)
(1.03617 0.22957 2.51832e-21)
(0.990293 0.210595 1.18558e-20)
(0.955283 0.190177 -6.21591e-23)
(0.928825 0.17099 -4.54475e-21)
(0.90786 0.153576 -8.57608e-21)
(0.886027 0.137775 1.02957e-20)
(0.836081 0.120483 -1.84258e-20)
(0.695678 0.0939714 -2.49251e-21)
(0.45337 0.0602041 0)
(0.201177 0.0265952 8.31712e-24)
(0.0240493 0.00333117 0)
(0.266884 0.0551235 -2.26994e-20)
(1.14119 0.223508 8.95191e-21)
(1.29628 0.264695 4.25424e-21)
(1.3126 0.283027 -5.01142e-22)
(1.27903 0.29212 6.66542e-22)
(1.23393 0.296848 2.68154e-21)
(1.18518 0.298387 2.3822e-21)
(1.13325 0.295566 0)
(1.07857 0.286927 -1.14446e-20)
(1.02182 0.270665 0)
(0.971015 0.248371 -6.15911e-21)
(0.932022 0.225627 -8.12677e-21)
(0.902423 0.205069 -5.04828e-21)
(0.878937 0.186821 -6.3395e-21)
(0.855284 0.170142 0)
(0.806874 0.151682 0)
(0.678583 0.122141 -1.66255e-20)
(0.456284 0.0828694 3.31342e-21)
(0.215211 0.0393573 -1.93276e-21)
(0.0296247 0.00574058 -2.28775e-21)
(0.25912 0.0675289 1.84342e-20)
(1.15008 0.282642 0)
(1.30849 0.330145 -1.32398e-20)
(1.3217 0.348161 -2.48944e-21)
(1.28435 0.353675 -7.79724e-22)
(1.23567 0.354563 0)
(1.18297 0.352216 1.81781e-21)
(1.12676 0.345508 5.37789e-21)
(1.06757 0.332949 5.5508e-21)
(1.0061 0.312805 1.23448e-20)
(0.951029 0.287174 0)
(0.908788 0.262191 -1.76851e-20)
(0.876744 0.240206 -1.10112e-20)
(0.851412 0.221245 -6.58496e-21)
(0.826782 0.204084 4.19831e-20)
(0.780939 0.18475 5.10816e-21)
(0.665602 0.152771 2.42958e-20)
(0.462405 0.107245 -1.16458e-19)
(0.228952 0.05401 6.92657e-20)
(0.0349074 0.00859634 -8.45557e-20)
(0.252153 0.0787304 2.06122e-20)
(1.15061 0.339721 -3.61514e-21)
(1.31382 0.395216 2.57355e-21)
(1.32473 0.412737 6.16369e-21)
(1.28457 0.414931 2.79967e-21)
(1.2331 0.412177 3.43101e-22)
(1.17729 0.406087 -2.06076e-21)
(1.11758 0.395595 5.22596e-21)
(1.05458 0.37921 -1.2066e-20)
(0.98913 0.355168 0)
(0.930485 0.326191 -7.79453e-21)
(0.885585 0.298874 -3.13533e-22)
(0.851709 0.27544 -1.22188e-20)
(0.825104 0.255661 0)
(0.800083 0.2381 -9.14958e-21)
(0.757007 0.217872 -2.21247e-20)
(0.652693 0.184072 6.05156e-20)
(0.464452 0.132135 -6.00681e-20)
(0.23753 0.0687229 8.56157e-20)
(0.0386274 0.0114796 -9.01245e-20)
(0.246578 0.0892016 -1.06143e-22)
(1.14607 0.394167 4.73943e-21)
(1.31395 0.4585 1.3084e-20)
(1.32309 0.475714 -4.17241e-21)
(1.2808 0.474927 1.74749e-21)
(1.22715 0.468762 0)
(1.16877 0.459166 -9.9037e-22)
(1.10614 0.445083 -5.2254e-21)
(1.03989 0.425004 -6.0119e-21)
(0.970988 0.397138 0)
(0.909333 0.36477 -7.85804e-21)
(0.862292 0.334979 -1.03919e-20)
(0.827029 0.309887 1.3332e-20)
(0.799653 0.289083 -8.34497e-21)
(0.774671 0.270955 -4.02035e-20)
(0.734182 0.249942 2.44873e-20)
(0.63822 0.21416 7.58058e-21)
(0.460897 0.155607 0)
(0.239106 0.0817691 -8.30519e-20)
(0.040143 0.0138996 -3.08814e-21)
(0.242379 0.0992366 3.60291e-21)
(1.13859 0.445843 -5.63144e-21)
(1.31023 0.51922 -7.26156e-21)
(1.31789 0.536413 -1.25248e-20)
(1.27394 0.532996 9.74801e-21)
(1.21855 0.523756 -2.66498e-21)
(1.15806 0.510932 2.19625e-21)
(1.09292 0.493487 -8.24294e-21)
(1.02383 0.469886 4.44752e-21)
(0.95184 0.438295 -3.03811e-20)
(0.887522 0.40246 -9.28281e-21)
(0.838735 0.370046 0)
(0.80245 0.343066 1.45319e-20)
(0.774698 0.320897 1.77291e-20)
(0.750081 0.301797 2.15984e-20)
(0.711816 0.279654 -2.66546e-20)
(0.621823 0.241306 -7.99029e-21)
(0.452038 0.175768 9.46301e-21)
(0.235704 0.092093 0)
(0.0398572 0.015652 -6.71473e-21)
(0.239349 0.10893 -4.32197e-20)
(1.12966 0.494788 2.6477e-20)
(1.30379 0.577157 8.13634e-21)
(1.31008 0.594519 -1.00166e-20)
(1.26479 0.588771 6.43235e-21)
(1.208 0.576772 -8.02482e-22)
(1.14571 0.561041 -2.70455e-21)
(1.0784 0.54051 -3.06529e-21)
(1.00676 0.513592 -1.05846e-20)
(0.93194 0.478388 4.25712e-23)
(0.865138 0.439077 -2.83651e-20)
(0.814784 0.403773 2.58278e-20)
(0.777787 0.374598 -1.61372e-20)
(0.749883 0.350808 1.97823e-20)
(0.725691 0.330392 0)
(0.689136 0.306729 -1.44469e-20)
(0.603263 0.265223 -2.05714e-22)
(0.438673 0.192581 -4.1287e-20)
(0.227849 0.0996492 -6.11046e-21)
(0.0382204 0.0167165 0)
(0.237345 0.118463 0)
(1.12007 0.541247 2.90338e-20)
(1.29539 0.632256 1.97296e-20)
(1.30038 0.649857 1.16879e-20)
(1.25397 0.642041 5.66478e-21)
(1.19601 0.627609 0)
(1.13222 0.609275 1.22925e-22)
(1.06299 0.585946 -2.43001e-22)
(0.989027 0.555975 2.26159e-20)
(0.911541 0.517338 -3.96919e-21)
(0.842386 0.474512 -2.06459e-20)
(0.790557 0.436181 1.31657e-20)
(0.752885 0.404482 -4.01513e-22)
(0.724873 0.378688 2.0917e-20)
(0.701105 0.356606 1.33607e-20)
(0.665858 0.330987 -3.13464e-20)
(0.58261 0.28557 3.76904e-20)
(0.421619 0.20579 1.12428e-20)
(0.216496 0.104581 4.66261e-20)
(0.0354739 0.0170595 -1.26184e-19)
(0.23622 0.127949 -1.15573e-20)
(1.11038 0.585373 1.7205e-20)
(1.28569 0.684549 -1.30397e-20)
(1.28937 0.702376 -1.42007e-20)
(1.24201 0.692706 0)
(1.18307 0.676132 4.28798e-21)
(1.11797 0.655496 7.7735e-22)
(1.04704 0.62967 5.95182e-21)
(0.970935 0.596934 0)
(0.890899 0.555069 -5.90422e-20)
(0.819358 0.50879 5.60548e-20)
(0.765932 0.467232 0)
(0.727482 0.432786 1.89778e-20)
(0.699395 0.404669 -4.00851e-22)
(0.676005 0.380574 -4.24071e-20)
(0.641594 0.352522 1.66788e-20)
(0.559859 0.302518 0)
(0.401617 0.215398 6.07855e-20)
(0.202551 0.107121 0)
(0.0320618 0.0168005 -5.98995e-20)
(0.235791 0.137396 1.30637e-20)
(1.10092 0.627318 2.00777e-20)
(1.27511 0.734057 -1.36083e-20)
(1.27749 0.752084 0)
(1.22931 0.740765 9.08041e-21)
(1.16954 0.722308 0)
(1.10331 0.699637 1.69489e-21)
(1.03085 0.671606 -1.66663e-21)
(0.952735 0.636411 3.44868e-21)
(0.870169 0.591581 -2.91887e-20)
(0.796057 0.541927 5.61074e-21)
(0.740901 0.497078 0)
(0.701615 0.459579 -4.04402e-20)
(0.673351 0.428853 4.12233e-22)
(0.650229 0.402446 0)
(0.616182 0.37151 4.74705e-22)
(0.534859 0.316241 5.51982e-20)
(0.378826 0.221474 -5.287e-20)
(0.186547 0.107226 1.56742e-20)
(0.0281703 0.0159561 0)
(0.23572 0.146691 0)
(1.09184 0.667179 2.27912e-20)
(1.26404 0.780867 1.64797e-20)
(1.26509 0.799036 -4.55498e-22)
(1.21621 0.786236 6.26037e-21)
(1.15573 0.766129 1.04686e-20)
(1.0885 0.741678 -1.31299e-22)
(1.01466 0.711722 -2.82944e-21)
(0.934624 0.674371 1.64929e-20)
(0.849496 0.626895 -4.61108e-20)
(0.772706 0.574045 -6.64158e-22)
(0.715576 0.525817 -1.70759e-20)
(0.675212 0.485062 6.59778e-20)
(0.64665 0.451469 -4.88336e-22)
(0.623666 0.422423 -3.31836e-20)
(0.589533 0.388067 -6.02085e-20)
(0.507756 0.326818 0)
(0.353586 0.22417 0)
(0.168843 0.104853 1.7035e-20)
(0.0239745 0.0145854 -1.01101e-20)
(0.236114 0.155943 1.66853e-20)
(1.08328 0.704805 -5.03656e-20)
(1.25269 0.825069 -1.77187e-20)
(1.25243 0.843296 0)
(1.20296 0.82917 -3.20938e-22)
(1.14187 0.80762 1.39987e-20)
(1.07378 0.781624 -3.30755e-21)
(0.998667 0.750012 8.00426e-21)
(0.916807 0.71082 2.021e-20)
(0.829133 0.661042 -3.6704e-20)
(0.749487 0.605263 -4.77813e-20)
(0.690032 0.553667 4.56054e-20)
(0.648256 0.509457 0)
(0.619218 0.472676 -1.49762e-20)
(0.596235 0.440624 -3.62193e-20)
(0.561585 0.402218 -4.34586e-20)
(0.478542 0.334084 -5.23465e-20)
(0.326118 0.223382 1.56087e-20)
(0.149659 0.0999664 -9.1986e-21)
(0.0194814 0.0126848 7.35797e-23)
(0.236675 0.164944 0)
(1.07526 0.740734 0)
(1.24126 0.866744 5.40192e-22)
(1.23974 0.884951 0)
(1.18975 0.869647 -2.47128e-20)
(1.12815 0.846836 -1.33225e-20)
(1.05931 0.819501 0)
(0.983061 0.78649 3.56302e-22)
(0.899484 0.74577 3.17506e-20)
(0.809271 0.694062 -8.43445e-20)
(0.726519 0.635669 0)
(0.664354 0.580822 -2.92798e-20)
(0.620797 0.532973 -5.96445e-22)
(0.590991 0.492663 -4.88349e-22)
(0.567848 0.4571 3.8674e-20)
(0.532287 0.413894 -8.32418e-23)
(0.447305 0.337962 -1.13268e-19)
(0.296436 0.218928 3.37976e-20)
(0.12934 0.0926896 1.00448e-20)
(0.01493 0.0103814 0)
(0.237243 0.173748 -6.27771e-20)
(1.06754 0.774925 -3.15749e-20)
(1.22986 0.905974 -4.58543e-20)
(1.22715 0.924098 6.07734e-20)
(1.17674 0.907731 -4.75112e-20)
(1.11471 0.88383 0)
(1.04525 0.855353 -4.69038e-21)
(0.967978 0.821178 -1.18667e-21)
(0.88279 0.779232 7.72331e-22)
(0.790036 0.725986 6.40425e-21)
(0.703998 0.66537 6.08701e-20)
(0.638731 0.607472 -1.01366e-20)
(0.592833 0.555914 -4.07287e-20)
(0.56185 0.511617 -1.76562e-20)
(0.538336 0.471855 2.13326e-20)
(0.501575 0.42289 -5.78376e-23)
(0.414342 0.338192 3.08232e-20)
(0.265108 0.210797 -7.30652e-20)
(0.108653 0.0833941 8.69618e-20)
(0.0105111 0.00782246 1.28044e-20)
(0.237551 0.182249 2.32921e-20)
(1.06015 0.807453 -1.74415e-20)
(1.21863 0.942866 1.25891e-21)
(1.21479 0.960853 3.50615e-20)
(1.16402 0.943524 1.15386e-20)
(1.10166 0.918667 2.75384e-20)
(1.03169 0.889222 -2.75746e-21)
(0.953516 0.854093 -3.57629e-21)
(0.866833 0.811201 -3.15687e-20)
(0.77158 0.756812 -4.84386e-20)
(0.682117 0.69443 0)
(0.61332 0.633817 -4.50913e-20)
(0.564481 0.578569 5.895e-20)
(0.531662 0.529842 0)
(0.507396 0.484863 -4.56808e-20)
(0.469267 0.428773 2.79128e-20)
(0.379874 0.334274 -3.32362e-20)
(0.233224 0.199025 -3.96719e-20)
(0.0885536 0.0725976 -7.04329e-20)
(0.00648324 0.0052045 -5.56289e-20)
(0.238161 0.190544 -2.58491e-20)
(1.05293 0.8383 1.86732e-20)
(1.20761 0.97749 4.39926e-20)
(1.20274 0.995299 4.87332e-20)
(1.1517 0.977111 -2.40305e-20)
(1.08909 0.951427 1.99068e-20)
(1.0187 0.921154 -8.32916e-21)
(0.93975 0.885276 -1.46022e-21)
(0.85169 0.841698 -1.77257e-20)
(0.754043 0.786553 4.88498e-20)
(0.661037 0.722885 1.3157e-19)
(0.588331 0.659992 0)
(0.535882 0.60125 0)
(0.500287 0.547779 -2.04082e-20)
(0.474491 0.496193 0)
(0.434844 0.430761 6.04957e-20)
(0.344234 0.325052 7.21343e-20)
(0.202254 0.183253 0)
(0.0704472 0.0608231 0)
(0.00310431 0.00275172 6.01723e-20)
(0.238373 0.198301 2.88027e-20)
(1.04591 0.867461 2.30331e-20)
(1.19689 1.00996 3.17814e-20)
(1.19105 1.02756 -4.42161e-20)
(1.13982 1.00859 -2.72965e-20)
(1.07703 0.982178 -2.73654e-20)
(1.00634 0.951207 1.28944e-20)
(0.926734 0.914752 8.14185e-23)
(0.837439 0.870726 -1.00103e-21)
(0.737511 0.815194 -1.19396e-21)
(0.640931 0.75076 6.72508e-20)
(0.563983 0.686072 0)
(0.507268 0.62425 5.96475e-20)
(0.467677 0.566037 4.32969e-20)
(0.438846 0.506332 1.08151e-19)
(0.397002 0.428 3.26551e-20)
(0.307279 0.30817 -3.93557e-20)
(0.175126 0.161487 -2.31296e-20)
(0.0585658 0.0479124 0)
(0.00135374 0.000744496 6.50316e-20)
(0.2389 0.206027 -6.39845e-20)
(1.03908 0.89506 0)
(1.18645 1.04033 3.60289e-20)
(1.17976 1.05772 -3.65781e-20)
(1.12842 1.03805 3.16477e-20)
(1.06552 1.011 4.12985e-20)
(0.994642 0.979436 -3.2283e-20)
(0.914498 0.942558 -7.56104e-22)
(0.824108 0.898293 0)
(0.722052 0.842697 -5.06252e-20)
(0.621953 0.778045 -1.42894e-19)
(0.540499 0.712112 6.39019e-21)
(0.478972 0.647744 8.16501e-20)
(0.433998 0.585278 0)
(0.399689 0.516376 7.31268e-20)
(0.35334 0.420646 0)
(0.265934 0.280271 0)
(0.153927 0.124143 -2.54351e-20)
(0.0731541 0.0213194 0)
(0.0240041 0.00584375 1.74968e-20)
(0.238954 0.213121 -7.05158e-20)
(1.0324 0.921363 0)
(1.17629 1.06882 5.88577e-20)
(1.16883 1.086 0)
(1.11747 1.06574 -1.74961e-20)
(1.05451 1.03818 0)
(0.983536 1.00615 -2.71706e-21)
(0.902947 0.969029 -2.9648e-22)
(0.811582 0.924767 2.04154e-21)
(0.707521 0.869446 -5.34799e-20)
(0.603971 0.805176 4.02815e-21)
(0.517736 0.738673 5.22202e-20)
(0.450797 0.672294 7.9419e-20)
(0.398821 0.606464 1.1067e-20)
(0.355673 0.528389 5.74061e-20)
(0.300045 0.411314 0)
(0.20931 0.242973 8.48365e-20)
(0.110532 0.0639401 -5.01141e-20)
(0.0372184 0.0597182 5.80282e-20)
(-0.0365268 0.436113 -6.88549e-20)
(0.238926 0.219984 5.78669e-20)
(1.02569 0.94624 8.93068e-20)
(1.16635 1.09572 0)
(1.15815 1.11283 1.08557e-21)
(1.1068 1.09223 4.8138e-20)
(1.04374 1.06438 -8.30269e-20)
(0.972732 1.03213 -1.54362e-20)
(0.891705 0.995103 0)
(0.799373 0.951244 1.00051e-20)
(0.693292 0.896752 -2.39053e-21)
(0.586138 0.833645 0)
(0.494603 0.767543 0)
(0.421451 0.699727 7.02575e-20)
(0.360785 0.631369 -3.4428e-20)
(0.30454 0.545893 -5.76822e-20)
(0.233537 0.406093 0)
(0.117005 0.226592 4.34918e-20)
(0.0150434 0.454426 -5.08059e-20)
(0.038599 1.87999 -2.79991e-20)
(0.0666454 2.79964 -3.44057e-20)
(0.238564 0.226244 -4.28525e-20)
(1.01901 0.969869 -1.13584e-19)
(1.15663 1.12105 3.43965e-20)
(1.14772 1.13807 3.21088e-20)
(1.09648 1.11732 0)
(1.0333 1.08934 -6.03103e-20)
(0.962419 1.05707 -2.72262e-20)
(0.880942 1.02035 5.63914e-22)
(0.787734 0.977203 1.55145e-21)
(0.679727 0.923993 4.7393e-20)
(0.56906 0.862729 6.79542e-20)
(0.472094 0.798328 5.58352e-20)
(0.392109 0.729571 6.96993e-20)
(0.322194 0.65847 -7.94124e-20)
(0.253172 0.571243 -8.61229e-20)
(0.153962 0.438189 0)
(0.0562203 0.854713 0)
(0.104089 2.54827 2.32926e-20)
(0.107254 3.19128 0)
(0.107742 3.38183 5.95718e-20)
(0.240951 0.232047 0)
(1.01258 0.992555 0)
(1.14686 1.14466 0)
(1.13734 1.16155 9.1001e-21)
(1.08624 1.14081 4.34859e-20)
(1.02298 1.11291 -4.70473e-20)
(0.952522 1.08088 -1.99824e-20)
(0.870589 1.04464 7.9905e-22)
(0.776601 1.00247 7.34456e-21)
(0.666815 0.951006 -2.08903e-21)
(0.552824 0.892214 1.28782e-19)
(0.450614 0.830996 -6.50007e-21)
(0.363166 0.762278 8.12587e-21)
(0.28499 0.685178 1.14053e-20)
(0.197216 0.602685 1.94842e-22)
(0.116945 0.995538 3.25545e-22)
(0.147052 2.70484 -1.19036e-19)
(0.156624 3.29014 -4.51725e-20)
(0.143359 3.42428 2.2934e-20)
(0.128891 3.44594 -2.50779e-20)
(0.162865 0.176717 2.56164e-20)
(1.00159 1.01712 0)
(1.13699 1.16679 -6.83777e-20)
(1.12741 1.18357 -8.43002e-20)
(1.07651 1.16317 9.20912e-20)
(1.01339 1.13553 5.02332e-20)
(0.94283 1.10356 2.41142e-20)
(0.860676 1.06802 -1.95476e-20)
(0.766102 1.02705 -3.28626e-21)
(0.654849 0.977754 0)
(0.537834 0.921955 5.99652e-20)
(0.430728 0.865128 -4.35052e-20)
(0.335291 0.800609 0)
(0.250101 0.716761 1.05504e-20)
(0.164669 0.862503 2.58621e-20)
(0.161749 2.47771 -3.0425e-20)
(0.2199 3.3259 3.47781e-20)
(0.198175 3.4414 1.79888e-20)
(0.163805 3.46117 2.08076e-20)
(0.141431 3.46999 3.04925e-20)
(0.275506 0.269825 -5.00125e-20)
(0.984109 1.02668 0)
(1.11907 1.19189 7.1693e-20)
(1.11367 1.21644 8.93516e-20)
(1.06103 1.19644 -9.69744e-20)
(0.997582 1.16933 -5.54089e-20)
(0.926123 1.1387 -3.94993e-20)
(0.843448 1.10441 -1.41073e-21)
(0.74769 1.06567 -2.52349e-21)
(0.633966 1.02046 2.99605e-20)
(0.512244 0.970905 2.92121e-21)
(0.397725 0.922533 3.58183e-20)
(0.285736 0.871402 7.05853e-21)
(0.223188 1.01894 -9.62485e-21)
(0.232815 2.33891 -2.24533e-20)
(0.288482 3.33415 2.01176e-20)
(0.27344 3.47521 -2.08776e-20)
(0.236465 3.49381 -1.21812e-20)
(0.199546 3.51791 -7.69566e-21)
(0.150701 3.51066 -1.30743e-21)
(0.265329 0.268464 0)
(0.981234 1.04903 1.92833e-20)
(1.11099 1.21497 -1.42905e-20)
(1.10383 1.23934 -1.00667e-20)
(1.05117 1.21931 -6.41774e-20)
(0.987889 1.19243 5.43447e-20)
(0.916191 1.16205 2.71679e-20)
(0.833473 1.12861 -1.61082e-21)
(0.737443 1.09139 5.92782e-21)
(0.622853 1.04911 -2.99168e-21)
(0.499005 1.00437 -9.42803e-20)
(0.380997 0.961946 5.09064e-21)
(0.27523 0.944574 -6.37278e-21)
(0.260656 1.52344 -8.31411e-21)
(0.326812 3.10751 3.69401e-21)
(0.34683 3.478 4.99985e-22)
(0.302697 3.53155 1.89191e-20)
(0.265843 3.55101 6.13563e-21)
(0.217196 3.57109 4.79754e-21)
(0.16261 3.56549 -1.93529e-21)
(0.250837 0.265939 4.81098e-20)
(0.977338 1.07383 1.2965e-19)
(1.10244 1.24002 -4.08142e-20)
(1.0936 1.26377 -3.81841e-20)
(1.04098 1.2436 0)
(0.977863 1.21673 8.13074e-20)
(0.906187 1.18661 4.24356e-20)
(0.82369 1.15396 -1.82999e-21)
(0.727709 1.11831 5.16217e-22)
(0.612785 1.07913 -1.62248e-20)
(0.487626 1.03963 -3.81752e-20)
(0.368508 1.00465 -3.83245e-20)
(0.282513 1.07994 -4.44169e-20)
(0.326495 2.21044 4.70719e-20)
(0.410461 3.39367 3.3886e-20)
(0.388728 3.54244 0)
(0.335927 3.57876 0)
(0.297271 3.61354 5.07601e-21)
(0.244935 3.66304 0)
(0.172521 3.64035 1.39646e-20)
(0.240377 0.267246 -7.05289e-20)
(0.971393 1.09938 -1.08201e-19)
(1.09254 1.26625 0)
(1.08224 1.28909 1.28717e-21)
(1.02968 1.26852 -6.34536e-20)
(0.966838 1.24154 1.22063e-19)
(0.895506 1.21169 2.91326e-20)
(0.813465 1.17972 -2.70382e-21)
(0.717801 1.14559 1.27759e-20)
(0.60297 1.10943 1.64506e-22)
(0.477298 1.07539 0)
(0.360221 1.05117 0)
(0.313137 1.32579 -3.6111e-20)
(0.406771 2.88264 1.35862e-20)
(0.482038 3.50688 1.14906e-20)
(0.428969 3.58154 0)
(0.384593 3.63543 1.93797e-20)
(0.336629 3.68789 -3.27811e-20)
(0.284938 3.65735 -3.38853e-20)