/*--------------------------------*- C++ -*----------------------------------*\
  =========                 |
  \\      /  F ield         | OpenFOAM: The Open Source CFD Toolbox
   \\    /   O peration     | Website:  https://openfoam.org
    \\  /    A nd           | Version:  6
     \\/     M anipulation  |
\*---------------------------------------------------------------------------*/
FoamFile
{
    version     2.0;
    format      ascii;
    class       surfaceScalarField;
    location    "50.1";
    object      phi;
}
// * * * * * * * * * * * * * * * * * * * * * * * * * * * * * * * * * * * * * //

dimensions      [0 3 -1 0 0 0 0];

internalField   nonuniform List<scalar> 
17370
(
-0.0900017
0.0898518
0.289161
-0.0714666
0.0537577
0.364484
-0.0381255
0.027697
0.426597
-0.0196456
0.0146128
0.504284
-0.0107712
0.00828117
0.601892
-0.00628248
0.00490771
0.720432
-0.00374634
0.00290785
0.863745
-0.00216778
0.00160922
1.03601
-0.00109284
0.000680497
1.24292
-0.000272685
-0.000117862
1.49158
0.000495513
-0.000901463
1.4916
0.00129597
-0.00178509
1.24318
0.00231692
-0.00302982
1.03635
0.00384899
-0.00499663
0.864054
0.00636445
-0.00835819
0.721051
0.0108433
-0.0146789
0.60305
0.0197061
-0.0277515
0.507485
0.0381746
-0.0537995
0.431793
0.0715009
-0.0898746
0.365149
0.0900152
0.198996
-0.128132
0.0882176
0.0399143
-0.364594
0.353368
-0.074684
0.0859096
-0.446473
0.454314
-0.0844116
0.0765712
-0.521188
0.529895
-0.0684774
0.0597708
-0.612786
0.621561
-0.0515861
0.0428109
-0.726891
0.734155
-0.035354
0.0280895
-0.867472
0.87258
-0.0224944
0.0173858
-1.03847
1.04192
-0.0135809
0.0101344
-1.2446
1.24703
-0.00752526
0.00509435
-1.49263
1.4946
-0.00314984
0.00117705
-1.4925
1.49422
0.000502
-0.00222427
-1.24398
1.24586
0.00412543
-0.00600802
-1.03751
1.04005
0.0083657
-0.0109009
-0.866103
0.86984
0.0142647
-0.0180018
-0.724394
0.729943
0.023049
-0.028598
-0.608702
0.616119
0.0358178
-0.0432348
-0.514901
0.523047
0.0519669
-0.0601135
-0.439859
0.44792
0.0687803
-0.0768422
-0.375299
0.376746
0.0846463
-0.0860938
-0.257335
0.222489
0.0748096
-0.0399633
-0.068507
0.058676
0.00983094
-0.0518408
0.0584326
-0.374114
0.367523
-0.0575248
0.0537791
-0.453586
0.457331
-0.0486955
0.0447496
-0.527937
0.531883
-0.0409167
0.0372839
-0.621551
0.625184
-0.0331887
0.0291191
-0.735334
0.739404
-0.0245557
0.0204025
-0.874325
0.878478
-0.0160641
0.0123771
-1.04348
1.04716
-0.00864792
0.00548077
-1.24855
1.25172
-0.00215703
-0.000915515
-1.49666
1.49973
0.00396311
-0.00722543
-1.49721
1.50047
0.0103033
-0.0139115
-1.25008
1.25369
0.0174789
-0.0216834
-1.04594
1.05014
0.0257208
-0.0301703
-0.877776
0.882226
0.0341495
-0.038157
-0.739914
0.743922
0.0417148
-0.0454686
-0.626788
0.630542
0.0493464
-0.054365
-0.534822
0.539841
0.0580413
-0.058861
-0.457486
0.458306
0.0521665
-0.0319767
-0.335771
0.315581
0.0098841
-0.0683601
0.058476
-0.0529211
0.0489206
0.00400048
-0.0331956
0.0437561
-0.358079
0.347518
-0.0474678
0.0468501
-0.459265
0.459883
-0.0438035
0.0404587
-0.535781
0.539126
-0.0366949
0.0333992
-0.628503
0.631799
-0.0299714
0.0269497
-0.742619
0.745641
-0.0237025
0.020605
-0.881985
0.885082
-0.0170835
0.0137115
-1.05074
1.05411
-0.00992706
0.00639654
-1.25514
1.25867
-0.00243695
-0.00135269
-1.50323
1.50702
0.00511205
-0.00898214
-1.50414
1.50801
0.012392
-0.0160138
-1.25744
1.26106
0.0192212
-0.0225542
-1.05395
1.05728
0.0254841
-0.0285621
-0.885728
0.888806
0.0314477
-0.0347441
-0.747191
0.750487
0.0379296
-0.0415803
-0.634336
0.637987
0.0448283
-0.0477645
-0.54416
0.547096
0.0482663
-0.0443908
-0.456604
0.452728
0.0336347
-0.0162034
-0.296234
0.278802
0.00406644
-0.0526618
0.0485954
-0.0458379
0.0433369
0.00250104
-0.0228465
0.0332458
-0.336813
0.326413
-0.0390868
0.0401178
-0.459558
0.458527
-0.0389418
0.0366666
-0.541838
0.544113
-0.0340125
0.0314289
-0.634838
0.637421
-0.0283798
0.0254933
-0.748672
0.751559
-0.0222429
0.0192621
-0.888022
0.891003
-0.0159724
0.0128878
-1.05723
1.06032
-0.00937743
0.00598034
-1.26212
1.26552
-0.00202578
-0.00185425
-1.5109
1.51478
0.00569481
-0.00953073
-1.51191
1.51575
0.0127679
-0.0160641
-1.26451
1.26781
0.0189332
-0.0219767
-1.06039
1.06343
0.0247372
-0.0277621
-0.891872
0.894897
0.030463
-0.0333301
-0.753705
0.756572
0.0357616
-0.0382622
-0.641065
0.643565
0.0404058
-0.0414086
-0.548912
0.549915
0.0401979
-0.0340945
-0.447466
0.441362
0.0234088
-0.0102143
-0.263606
0.250411
0.00258228
-0.0454392
0.0428569
-0.041256
0.0394825
0.00177354
-0.0167937
0.026071
-0.316539
0.307261
-0.0327034
0.0348628
-0.456914
0.454754
-0.0344584
0.0328005
-0.54608
0.547738
-0.030633
0.0285504
-0.639714
0.641796
-0.0261348
0.0237538
-0.754188
0.756569
-0.0209163
0.0181474
-0.893878
0.896646
-0.0149343
0.0118855
-1.06334
1.06639
-0.00841544
0.00510635
-1.26882
1.27213
-0.001288
-0.0024348
-1.51856
1.52228
0.0061072
-0.00977537
-1.51949
1.52316
0.0128836
-0.0160858
-1.27106
1.27426
0.0188638
-0.0217637
-1.06646
1.06936
0.0242478
-0.0267905
-0.897731
0.900273
0.0289286
-0.0311088
-0.759041
0.761221
0.0329991
-0.0349717
-0.645734
0.647706
0.0364385
-0.0366079
-0.55045
0.550619
0.0341721
-0.0271561
-0.434724
0.427708
0.017494
-0.00738002
-0.238908
0.228794
0.00187269
-0.0406864
0.0388137
-0.0379537
0.0366172
0.00133649
-0.0128396
0.020816
-0.298641
0.290665
-0.0276001
0.0305495
-0.452174
0.449225
-0.0307783
0.0296793
-0.549154
0.550253
-0.0277061
0.0258097
-0.643814
0.64571
-0.0236334
0.0215177
-0.758784
0.7609
-0.0190251
0.0165609
-0.899196
0.90166
-0.0136398
0.0107812
-1.0693
1.07216
-0.0074423
0.00422038
-1.27537
1.27859
-0.000488285
-0.00313321
-1.52592
1.52954
0.0066927
-0.0102382
-1.52676
1.53031
0.0132077
-0.0162086
-1.27741
1.28041
0.0187259
-0.0212541
-1.0721
1.07463
0.0233613
-0.0254828
-0.902585
0.904707
0.027291
-0.0291662
-0.763223
0.765099
0.0308173
-0.0325536
-0.64954
0.651276
0.0333741
-0.0328182
-0.550432
0.549877
0.0294755
-0.0221684
-0.420491
0.413184
0.0136995
-0.00570858
-0.219844
0.211854
0.00145683
-0.0371759
0.0357191
-0.0354487
0.0344163
0.00103236
-0.0100495
0.0167993
-0.28333
0.27658
-0.0233222
0.0267271
-0.446033
0.442628
-0.0275358
0.0268558
-0.551137
0.551817
-0.0251163
0.0233499
-0.647583
0.64935
-0.0213017
0.0193078
-0.762947
0.764941
-0.0169648
0.0146672
-0.903967
0.906265
-0.0119632
0.00930919
-1.07484
1.0775
-0.00618194
0.00312081
-1.28169
1.28475
0.000469471
-0.00396918
-1.53309
1.53659
0.0073921
-0.0107511
-1.53377
1.53713
0.0135013
-0.0162125
-1.28328
1.28599
0.0184451
-0.0206636
-1.07701
1.07922
0.0225199
-0.0244025
-0.906716
0.908598
0.0260126
-0.0276843
-0.766874
0.768545
0.0291467
-0.0305606
-0.652869
0.654283
0.0308941
-0.0296234
-0.548974
0.547703
0.025677
-0.0184679
-0.405902
0.398693
0.0111012
-0.00459677
-0.204676
0.198172
0.00117872
-0.034418
0.0332393
-0.0335085
0.032702
0.000806516
-0.0079821
0.0136633
-0.270396
0.264715
-0.019707
0.0233162
-0.439115
0.435505
-0.0246108
0.0241866
-0.552408
0.552833
-0.0227235
0.0210768
-0.651112
0.652759
-0.019136
0.017238
-0.76688
0.768778
-0.0149935
0.0127832
-0.908446
0.910656
-0.0101776
0.00763029
-1.08002
1.08257
-0.00464659
0.00173719
-1.28768
1.29059
0.0016671
-0.00497875
-1.53996
1.54327
0.00819765
-0.0113215
-1.54036
1.54348
0.0138541
-0.0163311
-1.2886
1.29107
0.0183644
-0.0203762
-1.08136
1.08337
0.0220438
-0.0237213
-0.910399
0.912076
0.0251469
-0.0266236
-0.770131
0.771608
0.0278911
-0.028933
-0.65549
0.656532
0.0288984
-0.0269706
-0.546108
0.54418
0.0226398
-0.0157165
-0.391623
0.384699
0.00926927
-0.00382409
-0.192248
0.186803
0.000985036
-0.0321709
0.0311859
-0.031992
0.0313603
0.000631692
-0.0063879
0.0111564
-0.259519
0.254751
-0.0166134
0.0202262
-0.431895
0.428282
-0.0218496
0.021659
-0.553179
0.553369
-0.0204397
0.0188591
-0.654423
0.656003
-0.0169807
0.0151365
-0.770641
0.772485
-0.012958
0.0108181
-0.912754
0.914894
-0.00830026
0.00584257
-1.08499
1.08744
-0.00296694
0.000171007
-1.29339
1.29618
0.00308042
-0.00621939
-1.54646
1.5496
0.00924323
-0.0121485
-1.54649
1.54939
0.0144799
-0.0167318
-1.29346
1.29571
0.0185561
-0.0203414
-1.08531
1.0871
0.021813
-0.0232954
-0.913683
0.915165
0.0245617
-0.0258722
-0.773005
0.774315
0.0270019
-0.0276445
-0.65735
0.657992
0.0272506
-0.0247854
-0.541993
0.539528
0.0202344
-0.0136695
-0.377966
0.371402
0.00795684
-0.00327713
-0.18178
0.177101
0.000848198
-0.0302811
0.0294329
-0.0308076
0.0303168
0.000490855
-0.0051079
0.00909153
-0.250401
0.246418
-0.013922
0.0173962
-0.424748
0.421274
-0.0192133
0.0192191
-0.553516
0.55351
-0.0181943
0.0166471
-0.657647
0.659194
-0.0147924
0.0129705
-0.774305
0.776127
-0.0108236
0.00872011
-0.916917
0.919021
-0.0062508
0.00384683
-1.08978
1.09218
-0.00104809
-0.0016506
-1.29886
1.30156
0.00475567
-0.00771766
-1.55261
1.55557
0.0105408
-0.013231
-1.55217
1.55486
0.0153733
-0.017426
-1.29788
1.29993
0.0190717
-0.0206615
-1.08882
1.09041
0.0219554
-0.023253
-0.916586
0.917883
0.0243666
-0.0255186
-0.775571
0.776723
0.0264565
-0.0267457
-0.658437
0.658726
0.0259729
-0.0230557
-0.536849
0.533932
0.0183822
-0.0121691
-0.365033
0.35882
0.00702391
-0.00289539
-0.172731
0.168603
0.000754475
-0.0286432
0.0278887
-0.0298937
0.0295222
0.000371522
-0.00403491
0.00732857
-0.242803
0.23951
-0.0115197
0.0147457
-0.417941
0.414715
-0.016638
0.0168214
-0.553477
0.553293
-0.0159011
0.0144519
-0.660774
0.662223
-0.0126114
0.0107817
-0.777932
0.779762
-0.00861794
0.00650382
-0.921026
0.92314
-0.00403891
0.00166111
-1.09447
1.09685
0.00108417
-0.003713
-1.30415
1.30678
0.00671845
-0.00955642
-1.55842
1.56126
0.0122243
-0.0147205
-1.55743
1.55993
0.0166682
-0.0184998
-1.3019
1.30374
0.0199479
-0.0213326
-1.09196
1.09334
0.0224556
-0.0235874
-0.919134
0.920266
0.0245599
-0.0255432
-0.777807
0.778791
0.0262307
-0.0262201
-0.658871
0.658861
0.0250502
-0.0217415
-0.530826
0.527518
0.0170002
-0.0110947
-0.352789
0.346884
0.00637481
-0.0026362
-0.164702
0.160963
0.000692765
-0.0271774
0.0264846
-0.0292113
0.0289461
0.000265206
-0.00309552
0.00576777
-0.23655
0.233877
-0.00932179
0.0122156
-0.411683
0.408789
-0.0140581
0.0143237
-0.553143
0.552877
-0.0134429
0.0120307
-0.66374
0.665152
-0.0101632
0.00829919
-0.781577
0.783441
-0.00610835
0.00398328
-0.925136
0.927261
-0.00151783
-0.00085212
-1.09911
1.10148
0.00357668
-0.00616537
-1.3093
1.31189
0.0090897
-0.0118076
-1.56399
1.56671
0.0143218
-0.0166343
-1.56231
1.56462
0.018404
-0.0200311
-1.30548
1.30711
0.0212842
-0.0224478
-1.09468
1.09585
0.0233671
-0.024299
-0.921346
0.922278
0.0251184
-0.025945
-0.779699
0.780526
0.0263788
-0.0261192
-0.658714
0.658454
0.0245219
-0.0208474
-0.52405
0.520375
0.0160471
-0.0103735
-0.341136
0.335462
0.00595219
-0.00247413
-0.157389
0.153911
0.000656451
-0.0258238
0.0251673
-0.028738
0.0285736
0.000164482
-0.00222675
0.00431602
-0.231519
0.22943
-0.00722848
0.00972473
-0.406127
0.403631
-0.011425
0.0117163
-0.552689
0.552398
-0.0108683
0.00947865
-0.666662
0.668051
-0.00757131
0.00564357
-0.785293
0.787221
-0.00336975
0.00116883
-0.929281
0.931482
0.00136913
-0.00378439
-1.10375
1.10616
0.00652521
-0.00909099
-1.31438
1.31694
0.0119429
-0.0145448
-1.5693
1.5719
0.016899
-0.0190083
-1.5668
1.56891
0.020582
-0.021994
-1.30865
1.31006
0.0230578
-0.0240206
-1.09699
1.09795
0.0247621
-0.0255078
-0.923179
0.923925
0.0261701
-0.0268366
-0.781262
0.781929
0.026966
-0.0263624
-0.657971
0.657368
0.024354
-0.0203294
-0.516572
0.512547
0.0154573
-0.00993662
-0.329915
0.324394
0.00570822
-0.00238867
-0.150548
0.147229
0.000640623
-0.0245333
0.0238927
-0.0284659
0.0284035
6.24172e-05
-0.00137719
0.00289529
-0.227648
0.22613
-0.00514663
0.00717386
-0.401406
0.399379
-0.00861786
0.00884629
-0.55224
0.552011
-0.00798479
0.00658686
-0.669558
0.670956
-0.00461083
0.00259574
-0.789134
0.791149
-0.000215915
-0.00207756
-0.933576
0.935869
0.00470363
-0.00718297
-1.10847
1.11095
0.00997081
-0.0125532
-1.31942
1.322
0.0153816
-0.0179108
-1.5744
1.57693
0.0201377
-0.0220651
-1.57089
1.57282
0.0234488
-0.0246336
-1.31138
1.31256
0.0254771
-0.0261814
-1.0989
1.0996
0.0266882
-0.0272095
-0.924637
0.925158
0.0277001
-0.0281655
-0.782432
0.782897
0.0280129
-0.0270048
-0.6565
0.655492
0.0245665
-0.0201846
-0.508414
0.504032
0.0152063
-0.00974953
-0.31897
0.313513
0.00561688
-0.002368
-0.143986
0.140737
0.000641827
-0.0232682
0.0226264
-0.0283989
0.028445
-4.60542e-05
-0.000500129
0.00144112
-0.224921
0.22398
-0.00300631
0.00450432
-0.397657
0.396159
-0.00559291
0.00566617
-0.551993
0.55192
-0.00471319
0.00322571
-0.672536
0.674023
-0.00112796
-0.00101575
-0.79315
0.795294
0.00353489
-0.00594604
-0.938036
0.940447
0.00869017
-0.0112637
-1.11332
1.1159
0.0141313
-0.0167489
-1.32449
1.32711
0.0195555
-0.0219921
-1.57935
1.58178
0.0240647
-0.025782
-1.57461
1.57633
0.0269521
-0.0278867
-1.31363
1.31456
0.0284988
-0.0289523
-1.1003
1.10075
0.0292245
-0.0295027
-0.925654
0.925932
0.0298054
-0.0300138
-0.783098
0.783306
0.0296068
-0.0281255
-0.654208
0.652726
0.0252196
-0.0204401
-0.499561
0.494781
0.0152925
-0.00979982
-0.308115
0.302622
0.00566898
-0.00240895
-0.137528
0.134268
0.000659855
-0.0219942
0.0213343
-0.0285477
0.0287116
-0.000163874
0.000431473
-0.000106549
-0.223364
0.223039
-0.000720515
0.00161115
-0.395001
0.39411
-0.00224421
0.00209202
-0.552121
0.552273
-0.0010127
-0.000593042
-0.675731
0.677336
0.00283411
-0.00514717
-0.797424
0.799737
0.00787124
-0.0104714
-0.942748
0.945348
0.0134124
-0.0161408
-1.11838
1.12111
0.0191352
-0.0218172
-1.32963
1.33232
0.0246245
-0.0269847
-1.5841
1.58646
0.0289028
-0.0303909
-1.57788
1.57937
0.0313293
-0.0319948
-1.31537
1.31603
0.0323564
-0.0325399
-1.10119
1.10138
0.0325655
-0.0325836
-0.926185
0.926204
0.0326683
-0.0325391
-0.783153
0.783024
0.0317967
-0.0297481
-0.650998
0.64895
0.026325
-0.0210931
-0.48992
0.484688
0.0157036
-0.010072
-0.297151
0.291519
0.0058522
-0.00250494
-0.131016
0.127669
0.000692349
-0.0206791
0.0199868
-0.0289544
0.0292587
-0.000304304
0.0014361
-0.00176187
-0.223073
0.223399
0.00177956
-0.00160476
-0.393583
0.393408
0.00156602
-0.00206373
-0.552802
0.5533
0.00334878
-0.0051321
-0.679205
0.680988
0.00758578
-0.0101141
-0.80203
0.804558
0.013086
-0.015907
-0.947838
0.950659
0.0190719
-0.0219804
-1.12374
1.12665
0.0251365
-0.0279206
-1.33491
1.33769
0.0307709
-0.0330775
-1.58871
1.59102
0.0348507
-0.036099
-1.58069
1.58194
0.0367786
-0.0371135
-1.31653
1.31686
0.0371768
-0.037047
-1.10149
1.10136
0.0367904
-0.0365154
-0.926167
0.925892
0.0363721
-0.0358047
-0.782437
0.781869
0.034632
-0.0319435
-0.646714
0.644025
0.0279385
-0.0221761
-0.479381
0.473618
0.0164506
-0.0105655
-0.285869
0.279983
0.00616405
-0.00265446
-0.124299
0.120789
0.000738822
-0.0192945
0.0185556
-0.0296347
0.0301104
-0.000475715
0.00269869
-0.00376444
-0.224107
0.225172
0.00466614
-0.0052968
-0.393615
0.394245
0.00597475
-0.00692596
-0.554321
0.555273
0.00853044
-0.010587
-0.68311
0.685167
0.0133507
-0.0161724
-0.807068
0.809889
0.0194548
-0.0225437
-0.953361
0.95645
0.0259863
-0.0291254
-1.12947
1.13261
0.03249
-0.0353959
-1.34038
1.34329
0.0382695
-0.0404775
-1.59317
1.59538
0.0420407
-0.0429898
-1.58298
1.58393
0.0433568
-0.0433452
-1.31702
1.31701
0.043075
-0.0425834
-1.1011
1.10061
0.0419993
-0.0413953
-0.925503
0.924899
0.0409381
-0.0399229
-0.780812
0.779796
0.0382274
-0.0348134
-0.641207
0.637793
0.0301282
-0.0237188
-0.467769
0.461359
0.0175437
-0.0112813
-0.274036
0.267774
0.00660268
-0.0028558
-0.117226
0.113479
0.000798666
-0.0178124
0.0170137
-0.0306653
0.0313585
-0.000693192
0.00418499
-0.00613499
-0.226681
0.228631
0.00808732
-0.00960522
-0.395299
0.396817
0.0111149
-0.0126383
-0.556909
0.558432
0.0146779
-0.0170712
-0.687624
0.690017
0.0202238
-0.0234077
-0.812687
0.815871
0.0270987
-0.0305563
-0.95944
0.962898
0.034379
-0.037817
-1.13567
1.13911
0.0414292
-0.0444707
-1.34609
1.34913
0.0473763
-0.0494805
-1.59742
1.59952
0.0508083
-0.0513997
-1.58463
1.58522
0.0513685
-0.050943
-1.31676
1.31633
0.0502917
-0.0493942
-1.09992
1.09902
0.0484454
-0.0474561
-0.924105
0.923116
0.0465703
-0.0450548
-0.778265
0.776749
0.0426922
-0.0384229
-0.634276
0.630007
0.0329389
-0.0257497
-0.454849
0.44766
0.0189954
-0.0122199
-0.261403
0.254628
0.00716405
-0.00310486
-0.10965
0.105591
0.000869797
-0.0162074
0.0153376
-0.0321291
0.0331053
-0.000976135
0.00605037
-0.00907636
-0.231043
0.234069
0.0122657
-0.0148419
-0.398922
0.401498
0.0173258
-0.0195536
-0.560814
0.563042
0.0221714
-0.0250234
-0.69288
0.695732
0.0286793
-0.0323339
-0.819038
0.822692
0.036541
-0.040445
-0.966276
0.97018
0.0447047
-0.0484758
-1.14247
1.14624
0.0523609
-0.0555399
-1.35206
1.35524
0.0584445
-0.0603772
-1.60142
1.60335
0.0613817
-0.0615262
-1.58552
1.58566
0.0610481
-0.0601254
-1.31557
1.31465
0.0590326
-0.0576744
-1.09782
1.09646
0.0563206
-0.0549055
-0.921851
0.920436
0.053481
-0.051353
-0.774671
0.772543
0.0481968
-0.0429095
-0.625654
0.620367
0.0364669
-0.0283152
-0.44035
0.432198
0.0208211
-0.0133799
-0.247697
0.240256
0.00784162
-0.00339601
-0.101423
0.0969774
0.000949855
-0.0144588
0.013509
-0.0341514
0.0355225
-0.00137114
0.00852439
-0.0128768
-0.237546
0.241898
0.0175448
-0.0213474
-0.404853
0.408655
0.0249687
-0.0280732
-0.566401
0.569505
0.0314919
-0.0350009
-0.699169
0.702678
0.0393504
-0.0435967
-0.826334
0.83058
0.0484026
-0.0528037
-0.973994
0.978395
0.0575457
-0.0616746
-1.14992
1.15405
0.0658272
-0.0691004
-1.35827
1.36154
0.0719029
-0.0735334
-1.60502
1.60665
0.074081
-0.0736475
-1.58545
1.58502
0.0726309
-0.0710841
-1.31326
1.31171
0.0694642
-0.0675592
-1.09467
1.09276
0.065745
-0.0638574
-0.918642
0.916755
0.0618149
-0.0589686
-0.76981
0.766964
0.054866
-0.0483507
-0.615008
0.608493
0.0407433
-0.0314131
-0.423908
0.414577
0.0230012
-0.0147331
-0.232617
0.224349
0.00860964
-0.00371389
-0.0924025
0.0875068
0.00103342
-0.0125511
0.0115176
-0.0369349
0.0388755
-0.00194059
0.0119426
-0.0179985
-0.246669
0.252725
0.0244517
-0.0296818
-0.413563
0.418793
0.0346234
-0.0387637
-0.574071
0.578212
0.0431693
-0.0475181
-0.706878
0.711227
0.0527502
-0.0577367
-0.834816
0.839802
0.0632866
-0.0682891
-0.982732
0.987734
0.0735757
-0.0780568
-1.15807
1.16255
0.0824001
-0.085646
-1.36458
1.36782
0.088181
-0.089341
-1.60789
1.60905
0.0892614
-0.0880802
-1.58413
1.58294
0.0863666
-0.0840817
-1.30962
1.30734
0.0818343
-0.0793147
-1.09029
1.08777
0.0769838
-0.0744766
-0.91434
0.911833
0.0718137
-0.0680356
-0.763411
0.759633
0.0627735
-0.0547777
-0.6019
0.593904
0.0457696
-0.0350115
-0.405104
0.394346
0.0254806
-0.0162188
-0.215854
0.206592
0.00941839
-0.00403037
-0.0824753
0.0770872
0.00111065
-0.0104815
0.0093709
-0.0407994
0.0436184
-0.002819
0.0168998
-0.0251983
-0.259144
0.267442
0.0338528
-0.0407937
-0.425713
0.432654
0.0473303
-0.0527365
-0.58425
0.589656
0.0583649
-0.0637829
-0.716373
0.721791
0.0701273
-0.0759978
-0.844772
0.850642
0.0823713
-0.0879661
-0.992663
0.998258
0.0936992
-0.098378
-1.16684
1.17151
0.102695
-0.105693
-1.37071
1.37371
0.107707
-0.108158
-1.60969
1.61014
0.107224
-0.105076
-1.58118
1.57903
0.102502
-0.0993356
-1.30441
1.30125
0.0963659
-0.0931596
-1.08452
1.08131
0.0902573
-0.0870178
-0.908594
0.905355
0.0836459
-0.0787071
-0.755018
0.750079
0.0720243
-0.0622326
-0.585793
0.576001
0.0515309
-0.0390434
-0.38345
0.370962
0.0281664
-0.0177429
-0.197103
0.18668
0.0101936
-0.00430513
-0.0715809
0.0656925
0.00116795
-0.00826897
0.00710102
-0.0463066
0.0506048
-0.00429821
0.0245797
-0.0359143
-0.276123
0.287457
0.0474044
-0.0566404
-0.442324
0.45156
0.0651829
-0.0721284
-0.597544
0.604489
0.0793097
-0.0861883
-0.728069
0.734948
0.0937105
-0.10039
-0.856412
0.863091
0.107397
-0.113334
-1.00366
1.0096
0.119171
-0.1237
-1.17582
1.18035
0.127574
-0.129916
-1.37614
1.37848
0.130933
-0.130245
-1.60985
1.60916
0.128093
-0.124693
-1.57616
1.57275
0.121066
-0.116858
-1.29736
1.29315
0.113074
-0.109137
-1.07716
1.07323
0.105648
-0.101631
-0.901152
0.897136
0.0973987
-0.0910033
-0.74413
0.737734
0.0825778
-0.0706048
-0.566
0.554027
0.057879
-0.0433487
-0.358368
0.343838
0.0308961
-0.0191621
-0.176098
0.164364
0.0108286
-0.00448303
-0.05975
0.0534044
0.00118653
-0.00596059
0.00477406
-0.0545181
0.0618577
-0.00733956
0.0379517
-0.0537477
-0.299723
0.315519
0.0692423
-0.0816413
-0.465047
0.477446
0.0923271
-0.100655
-0.614453
0.622781
0.109392
-0.117561
-0.742375
0.750544
0.126013
-0.133062
-0.869457
0.876507
0.140092
-0.145761
-1.01507
1.02074
0.151046
-0.154816
-1.1842
1.18797
0.157628
-0.158757
-1.37995
1.38108
0.158262
-0.156004
-1.60749
1.60523
0.152282
-0.147345
-1.56848
1.56354
0.142442
-0.136991
-1.2881
1.28265
0.132204
-0.127358
-1.06813
1.06328
0.123189
-0.118381
-0.891866
0.887059
0.112972
-0.104756
-0.730102
0.721885
0.0941637
-0.0795303
-0.541617
0.526984
0.0644241
-0.0476255
-0.329248
0.312449
0.033443
-0.0203374
-0.152692
0.139586
0.0112344
-0.00451908
-0.0471668
0.0404514
0.00114098
-0.00363762
0.00249664
-0.0687046
0.0728004
-0.00409584
0.0289183
-0.0427108
-0.33387
0.347662
0.0565232
-0.0679282
-0.495271
0.506676
0.0780526
-0.0874854
-0.634619
0.644052
0.0979795
-0.10763
-0.758109
0.76776
0.118272
-0.127608
-0.882545
0.891881
0.137437
-0.146064
-1.02547
1.0341
0.154936
-0.162348
-1.19063
1.19804
0.169437
-0.174711
-1.38098
1.38625
0.178805
-0.180589
-1.60169
1.60347
0.180008
-0.177614
-1.55746
1.55507
0.174212
-0.169701
-1.27628
1.27177
0.16551
-0.160571
-1.05709
1.05215
0.156311
-0.151062
-0.880342
0.875094
0.144138
-0.132502
-0.71198
0.700343
0.11711
-0.0966112
-0.5117
0.491202
0.0762773
-0.0543234
-0.295472
0.273518
0.0367167
-0.0213431
-0.127011
0.111637
0.0112274
-0.00425758
-0.034265
0.0272951
0.000968424
-0.00139078
0.000422358
-0.0801132
0.0782021
0.00191108
0.00761091
-0.0164794
-0.364164
0.373032
0.0269288
-0.0351286
-0.52266
0.530859
0.0432882
-0.0510834
-0.656059
0.663855
0.0606415
-0.0695614
-0.776875
0.785795
0.0790495
-0.0876304
-0.90061
0.90919
0.0966443
-0.104202
-1.04243
1.04999
0.112127
-0.118352
-1.20521
1.21143
0.124198
-0.128178
-1.39112
1.3951
0.130577
-0.13082
-1.60428
1.60452
0.12873
-0.124805
-1.55178
1.54785
0.119871
-0.113804
-1.2666
1.26053
0.108168
-0.101941
-1.04583
1.0396
0.0961611
-0.0894801
-0.865538
0.858857
0.0823174
-0.0722444
-0.684854
0.674781
0.0607644
-0.0470252
-0.469195
0.455456
0.0346866
-0.0229866
-0.251648
0.239948
0.0145763
-0.00799706
-0.0969304
0.0903511
0.00399492
-0.00143503
-0.0205502
0.0179903
0.000286573
0.00080845
-0.00109502
-0.081533
0.0787015
0.00283149
-0.00114711
-0.00390188
-0.384685
0.389734
0.0108005
-0.0167894
-0.542894
0.548883
0.0228444
-0.0295581
-0.674121
0.680834
0.037845
-0.0455777
-0.79378
0.801513
0.0540163
-0.0614884
-0.916968
0.92444
0.069086
-0.0758139
-1.05736
1.06409
0.0826496
-0.0880738
-1.21719
1.22262
0.0926745
-0.0955117
-1.39834
1.40118
0.0969619
-0.0961713
-1.60395
1.60316
0.0931195
-0.0882814
-1.5432
1.53836
0.0826313
-0.0759564
-1.25414
1.24746
0.0693121
-0.0621216
-1.03217
1.02498
0.0553934
-0.0478815
-0.84934
0.841829
0.0409658
-0.0324904
-0.661241
0.652765
0.0241254
-0.0154511
-0.439938
0.431263
0.00926201
-0.00477538
-0.22748
0.222994
0.00231447
-0.000925084
-0.0834799
0.0820905
0.000298531
-5.48916e-05
-0.0150748
0.0148312
-2.96217e-05
0.00169787
-0.00166825
-0.0803654
0.0776379
0.00272751
-0.00481749
0.00228797
-0.398319
0.400848
0.0021738
-0.00668835
-0.557969
0.562483
0.0118052
-0.0174486
-0.688981
0.694624
0.0245966
-0.0312541
-0.808578
0.815236
0.0384707
-0.0448802
-0.931357
0.937767
0.0517741
-0.0574678
-1.07037
1.07607
0.0634123
-0.0676638
-1.22761
1.23186
0.0715126
-0.0737349
-1.40376
1.40598
0.0744198
-0.072817
-1.60192
1.60032
0.0693912
-0.0641917
-1.53293
1.52773
0.0582043
-0.0507889
-1.2404
1.23299
0.0437752
-0.0361369
-1.0168
1.00916
0.0289294
-0.0214329
-0.832075
0.824578
0.0145932
-0.00755383
-0.641218
0.634178
0.00165181
0.00288301
-0.421151
0.416616
-0.0048651
0.00516112
-0.216373
0.216077
-0.00453405
0.00317368
-0.0797336
0.0810939
-0.00202194
0.000914808
-0.0140187
0.0151258
-0.000282915
0.00200172
-0.0017188
-0.0789549
0.0765649
0.00238998
-0.00595475
0.00496813
-0.407516
0.408502
-0.00159967
-0.0017799
-0.570077
0.573456
0.0058932
-0.0110329
-0.701502
0.706642
0.017077
-0.0229565
-0.821167
0.827046
0.0292304
-0.0348198
-0.943722
0.949311
0.0407516
-0.045833
-1.08162
1.0867
0.0508641
-0.0547737
-1.23597
1.23988
0.0580298
-0.0597911
-1.40783
1.40959
0.0600295
-0.0580441
-1.59851
1.59652
0.054271
-0.0485809
-1.52174
1.51605
0.0424192
-0.0350637
-1.22542
1.21806
0.0280782
-0.0203353
-1.00089
0.993144
0.0132632
-0.005762
-0.81528
0.807779
-0.000560083
0.00625496
-0.624422
0.618727
-0.0103123
0.0124986
-0.409444
0.407258
-0.0124494
0.0106975
-0.213112
0.214864
-0.00848469
0.00580358
-0.0815167
0.0841978
-0.00357676
0.00156925
-0.0157999
0.0178074
-0.000451187
0.00170447
-0.00125328
-0.07768
0.0756537
0.00202627
-0.00583857
0.00531299
-0.413917
0.414442
-0.00327337
0.000496118
-0.579488
0.582265
0.0035524
-0.0079848
-0.712165
0.716597
0.0132153
-0.0183403
-0.83211
0.837235
0.0239381
-0.0289629
-0.954552
0.959577
0.034431
-0.0389207
-1.09151
1.096
0.0434892
-0.0470409
-1.24351
1.24706
0.0499167
-0.0513871
-1.41109
1.41256
0.0513344
-0.049543
-1.5944
1.59261
0.0457063
-0.0403029
-1.50993
1.50453
0.0343857
-0.0273779
-1.21061
1.2036
0.0209404
-0.0133739
-0.985137
0.977571
0.00646395
0.000731022
-0.799102
0.791907
-0.00670937
0.01173
-0.610277
0.605256
-0.0148982
0.0163515
-0.402004
0.40055
-0.0154014
0.0128215
-0.213839
0.216419
-0.010136
0.00694483
-0.0859601
0.0891512
-0.00425851
0.00189758
-0.0193536
0.0217146
-0.000549622
0.000962798
-0.000413176
-0.0767587
0.0751977
0.00156096
-0.0049413
0.00471957
-0.418777
0.418999
-0.00300264
0.000886125
-0.587772
0.589888
0.00292113
-0.00697457
-0.721459
0.725512
0.011964
-0.0163999
-0.841952
0.846388
0.0213438
-0.0258335
-0.964574
0.969063
0.0310725
-0.0352004
-1.10053
1.10466
0.0393248
-0.0427475
-1.25045
1.25387
0.0458375
-0.0472107
-1.41405
1.41542
0.0472877
-0.0455724
-1.59047
1.58875
0.0423635
-0.0371987
-1.49906
1.4939
0.0319264
-0.0255636
-1.1966
1.19023
0.0193598
-0.0123046
-0.969924
0.962869
0.00563955
0.00136372
-0.783682
0.776679
-0.00672548
0.0114873
-0.59748
0.592718
-0.0143462
0.0155625
-0.396284
0.395067
-0.0149322
0.0127188
-0.216041
0.218254
-0.0101274
0.00697262
-0.0913359
0.0944907
-0.00430553
0.0019517
-0.0234655
0.0258193
-0.000579041
4.70493e-05
0.000531991
-0.0763532
0.0751515
0.00120173
-0.0038294
0.00371233
-0.422731
0.422848
-0.00208651
7.52199e-05
-0.595028
0.597039
0.00353421
-0.00720272
-0.729847
0.733516
0.0115038
-0.0157948
-0.850771
0.855062
0.0203951
-0.0250658
-0.973365
0.978036
0.0296285
-0.0336259
-1.10891
1.11291
0.0379444
-0.0411981
-1.25719
1.26045
0.0438869
-0.0457416
-1.41672
1.41858
0.0461197
-0.044871
-1.58718
1.58593
0.0420127
-0.0375758
-1.48905
1.48461
0.032688
-0.0266434
-1.1836
1.17756
0.0208158
-0.0141546
-0.955592
0.948931
0.0080329
-0.00182869
-0.769275
0.763071
-0.00339934
0.00788248
-0.585765
0.581282
-0.0105228
0.0120621
-0.391107
0.389567
-0.0120134
0.0103826
-0.217865
0.219496
-0.00839078
0.00584333
-0.0961992
0.0987466
-0.00366123
0.00168951
-0.0273533
0.029325
-0.000517072
-0.000876687
0.00139376
-0.0764998
0.0755004
0.00099941
-0.00252184
0.00214137
-0.426347
0.426727
-0.000682593
-0.00136449
-0.601736
0.603783
0.00468518
-0.00824922
-0.737679
0.741243
0.0123955
-0.0163077
-0.859155
0.863067
0.0210591
-0.0249759
-0.982137
0.986054
0.0295583
-0.0334357
-1.11709
1.12096
0.0376951
-0.0411872
-1.2637
1.26719
0.0442307
-0.0459529
-1.42022
1.42195
0.0467913
-0.0460381
-1.58467
1.58392
0.043856
-0.0396815
-1.48006
1.47589
0.0351453
-0.0294601
-1.1716
1.16591
0.0241115
-0.018047
-0.942101
0.936037
0.0127061
-0.0070069
-0.756387
0.750688
0.00208046
0.00255587
-0.574964
0.570328
-0.0056156
0.00721716
-0.385517
0.383916
-0.00769731
0.00689888
-0.218648
0.219446
-0.00571017
0.00403842
-0.0997607
0.101432
-0.00257703
0.00124049
-0.0303591
0.0316957
-0.000397331
-0.00164835
0.00204568
-0.0769472
0.0762559
0.000691209
-0.00136643
0.000509931
-0.430085
0.430942
0.000761787
-0.00296323
-0.607722
0.609924
0.00600521
-0.00946922
-0.74501
0.748474
0.0134611
-0.0175215
-0.866854
0.870914
0.0216882
-0.025803
-0.990192
0.994307
0.0303896
-0.0340975
-1.12528
1.12899
0.0384943
-0.0419878
-1.2705
1.27399
0.0451433
-0.0474634
-1.4241
1.42642
0.0488729
-0.0484402
-1.58322
1.58279
0.0464636
-0.0429456
-1.47185
1.46834
0.0389692
-0.0338166
-1.16018
1.15502
0.029013
-0.0239127
-0.930074
0.924973
0.0188389
-0.0136956
-0.744533
0.73939
0.00885766
-0.00391245
-0.56438
0.559435
0.000541418
0.00173454
-0.379445
0.377169
-0.00268991
0.00284042
-0.218124
0.217974
-0.00248333
0.00182645
-0.101561
0.102218
-0.00123923
0.000643431
-0.0321074
0.0327032
-0.000227988
-0.00217444
0.00240243
-0.077801
0.0772739
0.000527155
-0.000395876
-0.000407094
-0.43409
0.434893
0.00225143
-0.00432234
-0.613826
0.615897
0.00757791
-0.0109414
-0.751877
0.755241
0.014797
-0.0184801
-0.87466
0.878344
0.0228023
-0.0266344
-0.998431
1.00226
0.0312011
-0.0353741
-1.13316
1.13733
0.0394447
-0.0432989
-1.27754
1.2814
0.0469291
-0.0494015
-1.42866
1.43113
0.0512363
-0.051588
-1.58257
1.58292
0.0500769
-0.0472597
-1.46471
1.46189
0.0436922
-0.0393398
-1.15009
1.14574
0.0353031
-0.0306676
-0.919636
0.915001
0.0260558
-0.0208793
-0.733459
0.728283
0.0158926
-0.010581
-0.553291
0.547979
0.00667745
-0.00381535
-0.372558
0.369696
0.00201829
-0.000955977
-0.215816
0.214753
0.000367868
-2.20983e-05
-0.101373
0.101028
-0.000157422
0.000193524
-0.0324744
0.0324383
-0.000112664
-0.00237867
0.00249133
-0.078935
0.0785853
0.000349781
0.000655682
-0.00165523
-0.438251
0.43925
0.0033837
-0.00577057
-0.619572
0.621959
0.00899759
-0.0122309
-0.758541
0.761775
0.0161827
-0.0197385
-0.882019
0.885575
0.0239287
-0.0279028
-1.00658
1.01055
0.0323996
-0.0365548
-1.14136
1.14552
0.040868
-0.0447825
-1.28518
1.28909
0.0486437
-0.0519078
-1.43391
1.43717
0.0542234
-0.0549171
-1.58322
1.58392
0.054183
-0.0519076
-1.45906
1.45679
0.0491803
-0.0456893
-1.14154
1.13805
0.0419243
-0.0375417
-0.910136
0.905754
0.032926
-0.0273853
-0.722342
0.716801
0.022229
-0.0165939
-0.541879
0.536244
0.0123796
-0.00879651
-0.364741
0.361158
0.00637401
-0.00440316
-0.211763
0.209792
0.00284402
-0.00155667
-0.0993337
0.0980464
0.000702875
-0.000147198
-0.0316022
0.0310465
-3.76437e-05
-0.00229553