/*--------------------------------*- C++ -*----------------------------------*\
| =========                 |                                                 |
| \\      /  F ield         | OpenFOAM: The Open Source CFD Toolbox           |
|  \\    /   O peration     | Version:  2106                                  |
|   \\  /    A nd           | Website:  www.openfoam.com                      |
|    \\/     M anipulation  |                                                 |
\*---------------------------------------------------------------------------*/
FoamFile
{
    version     2.0;
    format      ascii;
    arch        "LSB;label=32;scalar=64";
    class       volScalarField;
    location    "3";
    object      T;
}
// * * * * * * * * * * * * * * * * * * * * * * * * * * * * * * * * * * * * * //

dimensions      [0 0 0 1 0 0 0];

internalField   nonuniform List<scalar> 
1000
(
8.45177e-141
9.52774e-141
1.28844e-140
2.12031e-140
4.04347e-140
8.37664e-140
1.80393e-139
3.949e-139
8.70075e-139
1.9214e-138
4.24549e-138
9.37964e-138
2.07143e-137
4.57229e-137
1.00868e-136
2.22393e-136
4.9004e-136
1.07916e-135
2.3751e-135
5.22418e-135
1.1484e-134
2.52295e-134
5.53939e-134
1.2155e-133
2.66552e-133
5.84181e-133
1.27952e-132
2.80081e-132
6.1271e-132
1.33955e-131
2.92683e-131
6.391e-131
1.39467e-130
3.04162e-130
6.62934e-130
1.44399e-129
3.14333e-129
6.83821e-129
1.4867e-128
3.23022e-128
7.01401e-128
1.52205e-127
3.30076e-127
7.15361e-127
1.54939e-126
3.35366e-126
7.25437e-126
1.5682e-125
3.38787e-125
7.31428e-125
1.57811e-124
3.40267e-124
7.332e-124
1.57886e-123
3.39766e-123
7.30691e-123
1.57038e-122
3.37278e-122
7.23914e-122
1.55274e-121
3.32832e-121
7.12955e-121
1.5262e-120
3.2649e-120
6.97975e-120
1.49114e-119
3.18351e-119
6.79207e-119
1.44812e-118
3.08541e-118
6.56944e-118
1.39781e-117
2.97215e-117
6.31537e-117
1.341e-116
2.84551e-116
6.03384e-116
1.27858e-115
2.70745e-115
5.72918e-115
1.2115e-114
2.56007e-114
5.406e-114
1.14077e-113
2.40554e-113
5.06902e-113
1.0674e-112
2.24608e-112
4.72296e-112
9.92418e-112
2.08385e-111
4.37247e-111
9.16806e-111
1.92095e-110
4.022e-110
8.415e-110
1.75935e-109
3.67567e-109
7.67369e-109
1.60087e-108
3.33726e-108
6.95195e-108
1.44712e-107
3.01011e-107
6.25662e-107
1.2995e-106
2.69706e-106
5.59347e-106
1.15917e-105
2.40045e-105
4.96718e-105
1.02707e-104
2.1221e-104
4.3813e-104
9.03882e-104
1.86333e-103
3.83831e-103
7.90055e-103
1.62496e-102
3.33961e-102
6.85829e-102
1.40735e-101
2.8857e-101
5.91241e-101
1.21043e-100
2.47617e-100
5.06152e-100
1.03381e-99
2.1099e-99
4.3027e-99
8.76756e-99
1.78514e-98
3.63181e-98
7.38294e-98
1.49965e-97
3.04372e-97
6.17264e-97
1.2508e-96
2.53256e-96
5.12364e-96
1.03573e-95
2.09202e-95
4.22212e-95
8.51415e-95
1.71553e-94
3.45383e-94
6.94779e-94
1.39648e-93
2.80457e-93
5.6278e-93
1.12837e-92
2.26049e-92
4.52474e-92
9.04945e-92
1.80837e-91
3.61067e-91
7.20316e-91
1.4358e-90
2.85954e-90
5.69024e-90
1.13135e-89
2.24746e-89
4.46086e-89
8.84652e-89
1.75289e-88
3.47026e-88
6.8643e-88
1.35661e-87
2.67878e-87
5.28498e-87
1.04177e-86
2.05172e-86
4.03726e-86
7.93733e-86
1.55912e-85
3.05987e-85
5.99986e-85
1.17543e-84
2.30072e-84
4.49931e-84
8.79105e-84
1.71612e-83
3.34706e-83
6.52212e-83
1.26977e-82
2.46982e-82
4.79971e-82
9.319e-82
1.80771e-81
3.50341e-81
6.78355e-81
1.31227e-80
2.53626e-80
4.89735e-80
9.44775e-80
1.82093e-79
3.50635e-79
6.74548e-79
1.29648e-78
2.4895e-78
4.77586e-78
9.1534e-78
1.75269e-77
3.35288e-77
6.40794e-77
1.22351e-76
2.33391e-76
4.44781e-76
8.46825e-76
1.61074e-75
3.06083e-75
5.81079e-75
1.10208e-74
2.08819e-74
3.9528e-74
7.47514e-74
1.41225e-73
2.66549e-73
5.02595e-73
9.46747e-73
1.78165e-72
3.34952e-72
6.29092e-72
1.18036e-71
2.21251e-71
4.14307e-71
7.75044e-71
1.44843e-70
2.70415e-70
5.04347e-70
9.39704e-70
1.7491e-69
3.25235e-69
6.04144e-69
1.12109e-68
2.07827e-68
3.84872e-68
7.12013e-68
1.31587e-67
2.42936e-67
4.48048e-67
8.25481e-67
1.51929e-66
2.79333e-66
5.13043e-66
9.41308e-66
1.72527e-65
3.15882e-65
5.77749e-65
1.05559e-64
1.92661e-64
3.51265e-64
6.39756e-64
1.16395e-63
2.11539e-63
3.84047e-63
6.96488e-63
1.26176e-62
2.28337e-62
4.1277e-62
7.45368e-62
1.34451e-61
2.42263e-61
4.36053e-61
7.84006e-61
1.40807e-60
2.52614e-60
4.52704e-60
8.10389e-60
1.44909e-59
2.58833e-59
4.61811e-59
8.23054e-59
1.46525e-58
2.60561e-58
4.62834e-58
8.21215e-58
1.45547e-57
2.57668e-57
4.55651e-57
8.04849e-57
1.42006e-56
2.5027e-56
4.40573e-56
7.74703e-56
1.36069e-55
2.38719e-55
4.1833e-55
7.32242e-55
1.28024e-54
2.23579e-54
3.90005e-54
6.7953e-54
1.18262e-53
2.05579e-53
3.56951e-53
6.1906e-53
1.07239e-52
1.85551e-52
3.20677e-52
5.53558e-52
9.54441e-52
1.6437e-51
2.8274e-51
4.85777e-51
8.33631e-51
1.42888e-50
2.44626e-50
4.18304e-50
7.14438e-50
1.21876e-49
2.0766e-49
3.534e-49
6.00702e-49
1.01983e-48
1.72932e-48
2.92886e-48
4.95445e-48
8.3708e-48
1.41258e-47
2.38083e-47
4.00789e-47
6.73865e-47
1.13162e-46
1.898e-46
3.1795e-46
5.31971e-46
8.88961e-46
1.48369e-45
2.47324e-45
4.11768e-45
6.84702e-45
1.13713e-44
1.88617e-44
3.12472e-44
5.1701e-44
8.54368e-44
1.41009e-43
2.32438e-43
3.82667e-43
6.292e-43
1.03326e-42
1.69467e-42
2.77594e-42
4.54137e-42
7.42017e-42
1.21085e-41
1.9734e-41
3.21209e-41
5.22164e-41
8.47759e-41
1.37462e-40
2.22607e-40
3.60029e-40
5.81539e-40
9.3813e-40
1.51143e-39
2.43195e-39
3.90805e-39
6.272e-39
1.00529e-38
1.6092e-38
2.57258e-38
4.10736e-38
6.54927e-38
1.04294e-37
1.65866e-37
2.63444e-37
4.17882e-37
6.61989e-37
1.04732e-36
1.65477e-36
2.61112e-36
4.11477e-36
6.47579e-36
1.01781e-35
1.59761e-35
2.50438e-35
3.92063e-35
6.12966e-35
9.57068e-35
1.49236e-34
2.32395e-34
3.61414e-34
5.61313e-34
8.70617e-34
1.34856e-33
2.0861e-33
3.2227e-33
4.97193e-33
7.66035e-33
1.17867e-32
1.81114e-32
2.77927e-32
4.25919e-32
6.51839e-32
9.96252e-32
1.5206e-31
2.31779e-31
3.52817e-31
5.36339e-31
8.14222e-31
1.23441e-30
1.86892e-30
2.82575e-30
4.26666e-30
6.43362e-30
9.68801e-30
1.45688e-29
2.18789e-29
3.28122e-29
4.91425e-29
7.35001e-29
1.09781e-28
1.63748e-28
2.43913e-28
3.62828e-28
5.38984e-28
7.99573e-28
1.18453e-27
1.75245e-27
2.5891e-27
3.81997e-27
5.62829e-27
8.28133e-27
1.21683e-26
1.78552e-26
2.61641e-26
3.82871e-26
5.59505e-26
8.16508e-26
1.18993e-25
1.73176e-25
2.51686e-25
3.65287e-25
5.29435e-25
7.66296e-25
1.1076e-24
1.59873e-24
2.30447e-24
3.31719e-24
4.7684e-24
6.84509e-24
9.81271e-24
1.40476e-23
2.00826e-23
2.86708e-23
4.08756e-23
5.81957e-23
8.27412e-23
1.17478e-22
1.66569e-22
2.35849e-22
3.33488e-22
4.70899e-22
6.64018e-22
9.35052e-22
1.31491e-21
1.84654e-21
2.58956e-21
3.62658e-21
5.07194e-21
7.0836e-21
9.87959e-21
1.37603e-20
1.91391e-20
2.65841e-20
3.68745e-20
5.10782e-20
7.06564e-20
9.76051e-20
1.34648e-19
1.85495e-19
2.55195e-19
3.50606e-19
4.81031e-19
6.59073e-19
9.01783e-19
1.23219e-18
1.68137e-18
2.29116e-18
3.11786e-18
4.23708e-18
5.75024e-18
7.79319e-18
1.05476e-17
1.42562e-17
1.92427e-17
2.5938e-17
3.49157e-17
4.6937e-17
6.3012e-17
8.44781e-17
1.13104e-16
1.51225e-16
2.01923e-16
2.69254e-16
3.58553e-16
4.76826e-16
6.3326e-16
8.39887e-16
1.11244e-15
1.47146e-15
1.94375e-15
2.56419e-15
3.37815e-15
4.44455e-15
5.83977e-15
7.66276e-15
1.00414e-14
1.3141e-14
1.71744e-14
2.2416e-14
2.92186e-14
3.80352e-14
4.94465e-14
6.41964e-14
8.32362e-14
1.07781e-13
1.39379e-13
1.80003e-13
2.32162e-13
2.99043e-13
3.84685e-13
4.94205e-13
6.34075e-13
8.12469e-13
1.03969e-12
1.32873e-12
1.69592e-12
2.16175e-12
2.75196e-12
3.49878e-12
4.4425e-12
5.63348e-12
7.13452e-12
9.02385e-12
1.13988e-11
1.43803e-11
1.81184e-11
2.27989e-11
2.86517e-11
3.5961e-11
4.50774e-11
5.64328e-11
7.05588e-11
8.81087e-11
1.09884e-10
1.36867e-10
1.70261e-10
2.11535e-10
2.62484e-10
3.25293e-10
4.02624e-10
4.97715e-10
6.14493e-10
7.57722e-10
9.33169e-10
1.14781e-09
1.41006e-09
1.73008e-09
2.12009e-09
2.59482e-09
3.17191e-09
3.87258e-09
4.7222e-09
5.75114e-09
6.9957e-09
8.49916e-09
1.03131e-08
1.2499e-08
1.51296e-08
1.82917e-08
2.20879e-08
2.66396e-08
3.20905e-08
3.86102e-08
4.63984e-08
5.56908e-08
6.67639e-08
7.99431e-08
9.56096e-08
1.1421e-07
1.36267e-07
1.6239e-07
1.93293e-07
2.29804e-07
2.7289e-07
3.23673e-07
3.83456e-07
4.53748e-07
5.36298e-07
6.33127e-07
7.46569e-07
8.79314e-07
1.03446e-06
1.21558e-06
1.42676e-06
1.67269e-06
1.95877e-06
2.29115e-06
2.67687e-06
3.12395e-06
3.64156e-06
4.24011e-06
4.93146e-06
5.72904e-06
6.64813e-06
7.70598e-06
8.92214e-06
1.03187e-05
1.19205e-05
1.37556e-05
1.58556e-05
1.8256e-05
2.09965e-05
2.41219e-05
2.76819e-05
3.17325e-05
3.63361e-05
4.15621e-05
4.7488e-05
5.42e-05
6.17936e-05
7.03751e-05
8.00621e-05
9.09846e-05
0.000103287
0.000117127
0.00013268
0.000150139
0.000169715
0.000191641
0.000216172
0.000243587
0.000274191
0.000308318
0.000346332
0.000388628
0.000435639
0.000487833
0.000545718
0.000609846
0.000680812
0.000759261
0.000845888
0.000941445
0.00104674
0.00116263
0.00129007
0.00143004
0.00158361
0.00175193
0.00193622
0.00213778
0.00235801
0.00259836
0.00286042
0.00314583
0.00345637
0.00379388
0.00416033
0.00455779
0.00498844
0.00545457
0.00595857
0.00650299
0.00709043
0.00772368
0.00840559
0.00913916
0.00992751
0.0107739
0.0116816
0.0126541
0.0136951
0.0148081
0.0159971
0.0172659
0.0186185
0.0200591
0.0215918
0.0232209
0.0249508
0.0267859
0.0287307
0.0307897
0.0329675
0.0352688
0.0376981
0.0402601
0.0429595
0.0458008
0.0487886
0.0519275
0.055222
0.0586764
0.0622951
0.0660823
0.0700421
0.0741784
0.0784949
0.0829954
0.0876832
0.0925615
0.0976334
0.102902
0.108369
0.114037
0.119908
0.125983
0.132265
0.138753
0.14545
0.152354
0.159465
0.166785
0.174311
0.182042
0.189977
0.198114
0.20645
0.214982
0.223708
0.232624
0.241725
0.251007
0.260465
0.270095
0.279889
0.289843
0.299949
0.310202
0.320592
0.331115
0.34176
0.352521
0.363388
0.374354
0.385408
0.396542
0.407747
0.419011
0.430327
0.441683
0.453069
0.464476
0.475891
0.487306
0.49871
0.510091
0.52144
0.532745
0.543996
0.555182
0.566293
0.577318
0.588247
0.599069
0.609776
0.620355
0.630798
0.641095
0.651237
0.661213
0.671016
0.680636
0.690064
0.699292
0.708311
0.717114
0.725694
0.734041
0.74215
0.750013
0.757624
0.764975
0.772062
0.778877
0.785415
0.79167
0.797638
0.803314
0.808692
0.813769
0.818539
0.823
0.827147
0.830977
0.834487
0.837674
0.840535
0.843067
0.845269
0.847138
0.848673
0.849872
0.850734
0.851258
0.851443
0.851289
0.850795
0.849962
0.84879
0.847279
0.845431
0.843246
0.840725
0.837872
0.834687
0.831173
0.827333
0.82317
0.818686
0.813886
0.808773
0.803352
0.797626
0.791602
0.785284
0.778678
0.771789
0.764624
0.75719
0.749493
0.74154
0.733338
0.724897
0.716223
0.707325
0.698212
0.688893
0.679376
0.669671
0.659788
0.649737
0.639528
0.629171
0.618676
0.608054
0.597315
0.586471
0.575532
0.564509
0.553413
0.542256
0.531048
0.519799
0.508522
0.497227
0.485924
0.474625
0.463339
0.452078
0.440852
0.42967
0.418542
0.407478
0.396488
0.38558
0.374763
0.364045
0.353436
0.342942
0.332571
0.32233
0.312227
0.302267
0.292457
0.282803
0.273309
0.263981
0.254823
0.245839
0.237033
0.228409
0.21997
0.211718
0.203655
0.195783
0.188104
0.180619
0.173329
0.166234
0.159334
0.15263
0.14612
0.139804
0.13368
0.127748
0.122006
0.116452
0.111083
0.105898
0.100894
0.0960689
0.0914188
0.0869412
0.0826328
0.0784903
0.0745102
0.0706891
0.0670232
0.0635089
0.0601423
0.0569195
0.0538368
0.05089
0.0480754
0.0453888
0.0428263
0.040384
0.0380578
0.0358439
0.0337382
0.031737
0.0298363
0.0280325
0.0263218
0.0247005
0.023165
0.0217118
0.0203375
0.0190387
0.017812
0.0166543
0.0155625
0.0145335
0.0135643
0.0126522
0.0117942
0.0109879
0.0102305
0.00951968
0.0088529
0.00822789
0.00764244
0.0070944
0.00658174
0.00610248
0.00565475
0.00523675
0.00484678
0.00448318
0.0041444
0.00382895
0.00353542
0.00326247
0.00300882
0.00277325
0.00255462
0.00235185
0.0021639
0.0019898
0.00182864
0.00167956
0.00154173
0.00141438
0.0012968
0.0011883
0.00108825
0.000996049
0.000911131
0.000832971
0.000761077
0.000694989
0.000634274
0.000578532
0.000527386
0.000480487
0.000437509
0.000398148
0.000362122
0.000329169
0.000299045
0.000271524
0.000246397
0.000223468
0.000202559
0.000183504
0.000166147
0.000150348
0.000135975
0.000122908
0.000111035
0.000100252
9.04667e-05
8.15912e-05
7.35458e-05
6.62574e-05
5.96588e-05
5.3689e-05
4.82925e-05
4.34202e-05
3.90308e-05
3.50939e-05
3.15993e-05
2.85761e-05
2.61364e-05
2.45723e-05
)
;

boundaryField
{
    sides
    {
        type            zeroGradient;
    }
    empty
    {
        type            empty;
    }
}


// ************************************************************************* //
