/*--------------------------------*- C++ -*----------------------------------*\
  =========                 |
  \\      /  F ield         | OpenFOAM: The Open Source CFD Toolbox
   \\    /   O peration     | Website:  https://openfoam.org
    \\  /    A nd           | Version:  6
     \\/     M anipulation  |
\*---------------------------------------------------------------------------*/
FoamFile
{
    version     2.0;
    format      ascii;
    class       volScalarField;
    location    "19";
    object      p;
}
// * * * * * * * * * * * * * * * * * * * * * * * * * * * * * * * * * * * * * //

dimensions      [0 2 -2 0 0 0 0];

internalField   nonuniform List<scalar> 
918
(
0.208632
0.970968
0.00891533
0.208414
-0.000661228
0.939194
-0.830914
0.391003
0.189534
-0.451678
-0.0371335
0.18029
0.796008
0.565833
-1.51333
0.00744718
0.349306
-0.713085
0.187054
-0.00049904
0.457943
0.19647
0.198925
0.189598
0.247681
0.531151
0.6732
0.000672456
-0.00155575
-0.00431892
0.00386971
-0.00374011
0.00118558
0.822356
0.874275
0.897357
0.158351
-0.00749153
-0.71285
-0.770732
-0.740924
-0.874492
0.377007
0.380593
-0.500424
0.390278
0.405457
0.175477
0.188777
0.189616
0.191231
0.189868
0.191314
0.149226
-0.467019
-0.499484
-0.419599
-0.383504
-0.0315568
-0.0616958
-0.0934461
-0.0149689
-0.0078201
0.115044
0.177725
0.176462
0.185214
0.19547
0.91114
0.884838
0.910796
0.821854
0.839298
0.772956
0.745835
0.585699
0.608876
0.55129
0.53818
-1.98399
-2.9498
-0.922729
-0.63241
0.000533433
0.0100396
0.0122815
0.334649
0.336183
0.346278
0.358057
0.721663
-0.696517
-0.856207
0.187383
0.186066
0.195726
0.196757
0.191666
0.191769
0.00567161
0.0124595
-0.00876009
-0.00249448
-0.0051259
0.443003
0.439216
0.189045
0.186483
0.205411
0.230557
0.217676
-0.0489598
0.25772
0.275356
0.374341
0.531418
0.522472
0.533395
0.64865
0.617244
0.704515
0.726105
0.0133892
0.00371778
0.00158711
0.00240204
0.00080567
0.154529
0.148691
0.17167
0.161594
0.16453
-0.102439
-0.254312
0.0731697
0.0938908
-0.619683
-0.668848
-0.794053
-0.782183
-0.865952
0.195508
0.37218
0.370858
-0.51831
-0.436761
-0.573086
-0.375681
-0.439802
0.168239
0.173607
0.170418
0.184215
0.177843
0.180662
0.192866
0.190033
0.191602
0.178679
0.300113
0.109105
0.0411061
-0.589299
-0.523232
-0.574671
-0.342991
-0.288086
-0.0339609
-0.0478486
-0.0362628
-0.0100664
-0.241874
-0.131556
-0.188677
0.00369606
0.00369605
0.107266
0.0969963
0.124026
0.130062
0.168776
0.170725
0.173387
0.171723
0.69632
0.719202
0.725702
0.701981
-3.94629
-6.61374
-0.272797
-0.104961
0.00273723
0.00278268
0.00196951
0.00348654
0.00257937
0.000800134
0.00528999
0.00687717
0.0123405
0.0121436
0.322772
0.325424
0.674694
0.703167
0.692397
0.693504
0.176575
0.178641
0.183407
0.180074
0.0109028
0.0155578
0.0132958
0.406872
0.422734
0.41843
-0.0873228
-0.174157
-0.0017184
0.0276045
0.314374
0.29007
0.310231
0.436716
0.478686
0.742918
0.767455
0.751355
0.764532
0.815592
0.838468
0.803426
0.134854
0.14373
0.138556
0.175344
0.173331
0.174063
0.168663
0.169881
0.167429
-0.369075
-0.746597
0.149545
0.156218
0.130422
0.134989
0.276105
0.365434
0.354045
0.36094
0.364233
-0.329683
-0.382067
-0.000219054
-0.0149821
0.0535441
0.0859654
0.0692777
0.672319
0.633159
0.680734
0.656109
0.620895
0.644117
-0.684281
-2.47623
-1.45447
0.313126
0.107442
0.203268
0.0073188
-0.00263946
0.00571917
0.696547
0.730523
0.361544
0.546812
0.504613
0.504033
0.530815
0.592172
0.526167
0.559073
0.589548
0.564128
0.163313
0.147259
0.14247
0.452847
0.517561
-0.20833
-0.27524
-0.308801
-0.0722023
-0.0446713
-0.0664632
0.697655
0.582929
0.654462
0.187158
0.187908
0.011653
0.0180018
0.19149
0.191372
0.00527969
0.00541611
0.218268
-1.29284
-0.18948
0.180792
0.171102
0.187367
-0.43743
-0.0248523
-0.0692486
0.0322453
0.0672593
0.177813
0.125137
0.0917517
0.00517262
0.0148246
-0.00135183
-0.51312
0.184936
0.183441
0.186919
0.187952
0.188657
0.00579169
0.0078329
0.00543643
0.00172711
0.00230213
0.000623658
0.153764
0.169887
-0.504256
0.186958
0.189136
0.188927
0.182655
0.187922
0.186197
0.0117494
0.00645853
0.00480851
-0.104067
0.0224739
0.420081
0.50944
0.356957
0.180226
-0.127821
0.34577
0.404657
0.320568
0.463931
0.358234
0.370031
-0.128282
-0.271664
-0.133668
-0.189903
0.178336
0.177408
0.168776
0.166685
0.182667
0.18049
0.185023
0.182207
0.184934
0.186193
-0.460109
-0.399386
-0.432445
-0.474474
-0.010554
0.254291
-0.174621
-0.000103405
-0.0964339
-0.0393319
-0.0180976
-0.112465
-0.133552
-0.089249
0.0432894
0.0574543
-0.00978597
0.0634288
0.0118557
-0.0641784
0.0156761
-0.014138
0.172198
0.169803
0.177969
0.185041
0.132925
0.134954
0.107362
0.123415
0.111156
0.0607594
0.0876905
0.0655479
0.00595451
0.00641888
0.00495493
0.0185023
0.0167867
0.00717129
0.0077262
0.0112299
0.00572604
0.00646448
0.00285596
0.0100175
-0.476735
-0.596962
0.652167
0.631988
-0.132932
0.174213
0.18037
0.176972
0.18218
0.184979
0.18551
0.183422
0.179963
0.170381
0.172296
0.16836
0.168627
-0.448695
-0.552842
-0.383885
-0.448489
-0.184625
0.297047
0.0287112
-0.0203727
-0.0339565
0.178672
0.359437
0.328381
0.434744
0.438106
-0.740328
-0.31044
-0.658429
-0.116745
-0.141014
0.439832
0.484012
0.503664
0.459647
0.412078
-0.362532
0.18667
-0.366282
-0.324383
-0.142732
-0.241948
0.403562
0.338708
0.344073
0.362046
0.385593
0.350108
0.330752
0.326882
0.35556
0.360837
0.171535
-0.072045
-0.101617
-0.150479
0.326679
0.205152
0.258411
0.177485
0.173022
0.175926
0.174354
0.158609
0.16427
0.160736
0.164905
0.168756
0.17748
0.177642
0.17329
0.17522
-0.379247
-0.351368
-0.450537
-0.460619
-0.467306
-0.519334
-0.423439
-0.330693
-0.477312
-0.0412189
0.00635148
-0.293843
-0.403905
-0.373084
-0.345442
-0.141994
-0.102079
-0.386694
-0.0976046
-0.260026
-0.289173
-0.0783372
-0.0590935
-0.0980018
-0.139738
-0.216639
-0.132427
-0.0272539
-0.115513
-0.109358
0.0110866
-0.00983928
-0.014644
0.00102501
-0.2753
-0.261638
-0.227663
-0.394973
0.0135783
0.0164057
0.0181593
0.0191273
0.0239175
0.0259285
0.167482
0.166653
0.168351
0.180205
0.19205
0.206695
0.176672
0.152187
0.144104
0.14634
0.121552
0.129915
0.125127
0.138838
0.157728
0.164917
0.162354
0.164788
0.150516
0.151374
0.139003
0.143414
0.120295
0.104181
0.0973625
0.00968106
0.00707299
0.008162
0.00761149
0.00783793
0.00825008
0.0276473
0.0235357
0.0259999
0.021028
0.0123517
0.0131511
0.010747
-0.398643
-0.338944
-0.5103
-0.549073
-0.611301
0.565893
0.682767
0.505867
0.26734
0.274948
0.500184
0.608835
0.270737
0.448667
0.489566
0.171176
0.464202
0.178916
0.178208
0.176386
0.175265
0.176249
-0.349841
-0.255441
-0.230164
-0.182993
-0.0645785
0.044709
-0.0486948
-0.174556
-0.0379528
-0.00698717
0.293085
0.306652
0.250083
0.276325
0.278186
0.0988549
0.174939
0.219931
0.168607
0.233438
0.264803
0.212726
0.256457
0.182668
0.138406
0.132635
0.0815316
0.117321
0.0979422
0.0717907
0.168414
0.149082
0.158128
0.151918
0.168142
0.199686
0.196313
0.213511
0.231226
0.155844
0.111523
0.126282
0.150841
0.113109
0.126954
0.144192
-0.159992
-0.256319
-0.0871785
-0.437184
-0.329129
-0.291751
-0.331975
-0.386879
-0.0734395
-0.731752
-0.663192
-1.35205
0.126093
0.532698
0.363471
0.379229
0.381676
0.359243
0.368927
0.393289
0.400903
0.31682
0.327332
0.333316
0.291406
0.323673
0.329332
0.336056
0.158212
0.0823127
0.0705079
0.0209466
-0.110594
-0.0743739
0.101228
0.0402455
-0.0243325
-0.0231595
0.13716
0.019287
0.0882525
0.135542
0.081843
0.0183474
0.226515
0.286667
0.272238
0.242416
0.159818
0.176308
0.201303
0.241326
0.262718
0.292669
0.165869
0.171125
0.171849
0.169224
0.167569
0.169838
0.169628
0.172402
0.173202
0.175664
0.175012
-0.196505
-0.242718
-0.317436
-0.246312
-0.57841
-0.568594
-0.527176
-0.51194
-0.331928
-0.416621
-0.519008
-0.433005
-0.347466
-0.312367
-0.352583
-0.350818
-0.299412
-0.383494
-0.061513
0.143285
0.185829
0.0430982
-0.109693
-0.0753742
0.00777165
-0.234873
-0.0990505
-0.116941
-0.14746
-0.260154
-0.0292023
-0.0275793
-0.0307403
-0.0203343
-0.049196
-0.0184679
0.00976831
0.00522842
-0.00132855
0.00437203
0.0094942
0.154685
0.147975
0.146522
0.14148
0.141454
0.152375
0.157529
0.159156
0.163465
0.165335
0.157732
0.162946
0.165116
0.0197485
0.014782
0.0192912
0.00716241
0.0108099
0.0128051
0.00917853
-0.231732
-0.283582
-0.235671
-0.329952
-0.451755
-0.396051
0.118088
0.102579
0.130647
0.334081
0.182821
0.0889621
0.169967
0.278543
-0.0886669
0.118675
-0.0534316
0.540172
0.426583
0.566266
0.209997
-0.0994622
0.0502377
0.0645574
-0.090704
0.0288956
0.000489527
-0.115589
-0.0764907
-0.0605225
0.0161363
-0.0950501
-0.115848
-0.370752
-0.195517
-0.0671622
-0.0888656
0.0520488
0.111138
-0.0995229
-0.171198
-0.224483
0.286074
0.303311
0.316059
0.286173
0.309684
0.238398
0.230896
0.247795
0.258981
0.250201
-0.994015
-0.582074
-1.79397
-1.20727
-0.763656
0.152256
0.135332
0.381933
0.296217
0.369963
0.355638
0.300471
0.26906
0.280018
0.314746
0.0169916
0.124999
0.0872916
0.107402
0.0406613
-0.0381397
0.254458
0.25126
0.278855
0.301426
0.27723
0.303203
0.163637
0.162688
0.163729
0.160869
0.159386
0.161005
-0.476198
-0.476786
-0.447228
-0.467416
-0.538396
-0.519755
0.0247425
0.00525895
0.00650765
0.00955269
0.0275282
0.0266431
-0.202265
-0.252473
-0.315882
-0.299484
-0.349656
-0.400837
-0.417693
-0.323664
-0.247586
-0.26575
0.0541411
0.329668
0.159441
0.333233
0.135685
0.229761
0.126327
0.110165
0.144035
0.0159551
0.0929653
-0.338083
-0.5241
-0.587435
0.437038
0.392524
0.192016
-0.0624823
-0.184621
0.119301
0.185734
0.151957
0.187382
0.231913
0.228553
-0.353392
-0.255833
-0.195797
0.102356
-0.0677328
-0.0583675
-0.0503233
0.077804
0.0603592
)
;

boundaryField
{
    wall-4
    {
        type            zeroGradient;
    }
    velocity-inlet-5
    {
        type            zeroGradient;
    }
    velocity-inlet-6
    {
        type            zeroGradient;
    }
    pressure-outlet-7
    {
        type            fixedValue;
        value           uniform 0;
    }
    wall-8
    {
        type            zeroGradient;
    }
    frontAndBackPlanes
    {
        type            empty;
    }
}


// ************************************************************************* //
