/*--------------------------------*- C++ -*----------------------------------*\
  =========                 |
  \\      /  F ield         | OpenFOAM: The Open Source CFD Toolbox
   \\    /   O peration     | Website:  https://openfoam.org
    \\  /    A nd           | Version:  6
     \\/     M anipulation  |
\*---------------------------------------------------------------------------*/
FoamFile
{
    version     2.0;
    format      ascii;
    class       volVectorField;
    location    "60";
    object      U;
}
// * * * * * * * * * * * * * * * * * * * * * * * * * * * * * * * * * * * * * //

dimensions      [0 1 -1 0 0 0 0];

internalField   nonuniform List<vector> 
2200
(
(0.877633 -0.0201772 0)
(1.00471 -0.0399797 0)
(1.00284 -0.0342361 0)
(1.00037 -0.0231695 0)
(0.999973 -0.0154461 0)
(1.00004 -0.0100823 0)
(0.999998 -0.00637546 0)
(0.999986 -0.00389249 0)
(1.00001 -0.00203962 0)
(1.00014 -0.000533583 0)
(1.00011 0.00097261 0)
(1.00017 0.00240794 0)
(1.00024 0.00421666 0)
(1.00018 0.00666941 0)
(1.00015 0.0103348 0)
(1.00006 0.0156372 0)
(1.00055 0.0232436 0)
(1.00308 0.0341393 0)
(1.00473 0.0400435 0)
(0.877662 0.0201923 0)
(0.700823 -0.0265926 0)
(0.993624 -0.05862 0)
(1.02974 -0.0597371 0)
(1.02173 -0.0488403 0)
(1.01378 -0.0361068 0)
(1.00827 -0.0250377 0)
(1.00509 -0.0167386 0)
(1.00325 -0.010581 0)
(1.00221 -0.00581347 0)
(1.00163 -0.00162078 0)
(1.00148 0.00253699 0)
(1.00185 0.00677329 0)
(1.00284 0.0114329 0)
(1.00474 0.0174238 0)
(1.00797 0.0256061 0)
(1.01348 0.0366245 0)
(1.02132 0.0494409 0)
(1.02925 0.0604511 0)
(0.993507 0.0587384 0)
(0.700533 0.0266287 0)
(0.530472 -0.0214128 0)
(0.966293 -0.0552608 0)
(1.05278 -0.0605568 0)
(1.04853 -0.0532509 0)
(1.03244 -0.0415148 0)
(1.0213 -0.0316141 0)
(1.01375 -0.0227685 0)
(1.00907 -0.0152248 0)
(1.0063 -0.0085594 0)
(1.00496 -0.00218011 0)
(1.0051 0.004084 0)
(1.00651 0.0102716 0)
(1.00913 0.0167632 0)
(1.01366 0.024199 0)
(1.02103 0.032872 0)
(1.03212 0.0425672 0)
(1.04832 0.0539579 0)
(1.05272 0.0605247 0)
(0.965501 0.0556333 0)
(0.529341 0.0215506 0)
(0.393103 -0.0132635 0)
(0.909794 -0.0453719 0)
(1.05579 -0.0513933 0)
(1.06642 -0.0472689 0)
(1.05107 -0.0389475 0)
(1.03577 -0.0310989 0)
(1.02478 -0.0239479 0)
(1.01714 -0.0168316 0)
(1.0122 -0.00971214 0)
(1.00936 -0.00246569 0)
(1.00903 0.00498551 0)
(1.01142 0.0122466 0)
(1.01622 0.0191303 0)
(1.02374 0.0259467 0)
(1.03477 0.0327633 0)
(1.05012 0.0403207 0)
(1.06518 0.0482641 0)
(1.05411 0.0522105 0)
(0.907606 0.0458498 0)
(0.390406 0.0134463 0)
(0.309222 -0.00618416 0)
(0.846413 -0.0330524 0)
(1.04822 -0.0428616 0)
(1.07727 -0.039133 0)
(1.06532 -0.0330432 0)
(1.04868 -0.0270699 0)
(1.03581 -0.0217429 0)
(1.02624 -0.01602 0)
(1.01964 -0.00948963 0)
(1.01606 -0.00198862 0)
(1.01604 0.00575853 0)
(1.01945 0.0128727 0)
(1.02564 0.0191809 0)
(1.03491 0.0246154 0)
(1.04745 0.0295367 0)
(1.06381 0.0351037 0)
(1.07561 0.0406622 0)
(1.04585 0.044062 0)
(0.842404 0.0336467 0)
(0.305099 0.00637637 0)
(0.265366 -0.00191144 0)
(0.788819 -0.0218973 0)
(1.03216 -0.0337981 0)
(1.08154 -0.0321424 0)
(1.07501 -0.0275981 0)
(1.05871 -0.0225701 0)
(1.04557 -0.0184848 0)
(1.03525 -0.013797 0)
(1.02755 -0.00807754 0)
(1.0228 -0.00133297 0)
(1.02223 0.00596351 0)
(1.02612 0.0127216 0)
(1.0333 0.0179438 0)
(1.0433 0.0221147 0)
(1.05637 0.0257602 0)
(1.07268 0.0302624 0)
(1.07852 0.0342187 0)
(1.02783 0.0352872 0)
(0.782358 0.0226267 0)
(0.25988 0.00215471 0)
(0.241143 -0.000338295 0)
(0.738528 -0.0139765 0)
(1.01276 -0.0266497 0)
(1.08245 -0.0264967 0)
(1.08127 -0.0230289 0)
(1.06618 -0.0187005 0)
(1.05322 -0.0151143 0)
(1.0429 -0.0110484 0)
(1.0351 -0.00608655 0)
(1.03041 -4.47042e-05 0)
(1.03017 0.00628525 0)
(1.03414 0.0117509 0)
(1.04115 0.0163726 0)
(1.05078 0.0199084 0)
(1.06323 0.022921 0)
(1.07765 0.0266289 0)
(1.07819 0.0292877 0)
(1.00634 0.028597 0)
(0.729028 0.014946 0)
(0.233963 0.000667827 0)
(0.226377 -3.05143e-05 0)
(0.695629 -0.00917646 0)
(0.992092 -0.0217201 0)
(1.08065 -0.0229136 0)
(1.08545 -0.0200201 0)
(1.07242 -0.0160092 0)
(1.05971 -0.0125527 0)
(1.04985 -0.00885196 0)
(1.04232 -0.00431692 0)
(1.03729 0.000945312 0)
(1.03631 0.00667351 0)
(1.03977 0.0118878 0)
(1.0463 0.0156889 0)
(1.05558 0.0185589 0)
(1.06803 0.0212035 0)
(1.08052 0.0242379 0)
(1.07431 0.0263131 0)
(0.982395 0.0240463 0)
(0.682116 0.0103328 0)
(0.217119 0.000433868 0)
(0.216686 -4.97346e-05 0)
(0.660315 -0.00635969 0)
(0.972063 -0.0182384 0)
(1.07844 -0.020333 0)
(1.08916 -0.0178044 0)
(1.07755 -0.0142007 0)
(1.06513 -0.0107542 0)
(1.05545 -0.00708433 0)
(1.04814 -0.00268526 0)
(1.04363 0.00238476 0)
(1.04294 0.00749258 0)
(1.04594 0.0117776 0)
(1.05183 0.0155535 0)
(1.06041 0.0185129 0)
(1.07199 0.0211242 0)
(1.08229 0.0237509 0)
(1.06966 0.0248522 0)
(0.958507 0.0212258 0)
(0.642019 0.00790149 0)
(0.20489 0.000567594 0)
(0.20941 -9.70244e-05 0)
(0.631502 -0.00466277 0)
(0.953023 -0.0155857 0)
(1.07531 -0.018588 0)
(1.09236 -0.0165194 0)
(1.08235 -0.0129641 0)
(1.06985 -0.00926451 0)
(1.06027 -0.00550688 0)
(1.05299 -0.0012061 0)
(1.04796 0.00362362 0)
(1.04637 0.00862345 0)
(1.04879 0.0131494 0)
(1.05436 0.016364 0)
(1.06282 0.0188374 0)
(1.07471 0.0211924 0)
(1.08336 0.0231593 0)
(1.06303 0.0238505 0)
(0.934134 0.0191699 0)
(0.607218 0.00653147 0)
(0.194456 0.000704575 0)
(0.203598 -6.33756e-05 0)
(0.608412 -0.00338217 0)
(0.935455 -0.013033 0)
(1.07246 -0.0162233 0)
(1.09577 -0.0143502 0)
(1.08697 -0.0112943 0)
(1.07452 -0.00790869 0)
(1.06487 -0.00419217 0)
(1.05761 0.000195016 0)
(1.05286 0.00508386 0)
(1.05151 0.00995072 0)
(1.05356 0.0139866 0)
(1.05857 0.0173206 0)
(1.06645 0.019863 0)
(1.07742 0.0219671 0)
(1.08384 0.0235685 0)
(1.05629 0.0232138 0)
(0.910519 0.0175912 0)
(0.577044 0.00577779 0)
(0.184822 0.000828668 0)
(0.198947 -4.33438e-06 0)
(0.590111 -0.00239226 0)
(0.920004 -0.0108537 0)
(1.06943 -0.0144984 0)
(1.09909 -0.0128854 0)
(1.09195 -0.00968898 0)
(1.07928 -0.00601676 0)
(1.06918 -0.00222159 0)
(1.06121 0.00214666 0)
(1.05542 0.00702549 0)
(1.05311 0.0119777 0)
(1.05485 0.0161612 0)
(1.05983 0.0190096 0)
(1.06798 0.0209524 0)
(1.07947 0.0226973 0)
(1.0836 0.0238414 0)
(1.04734 0.0227443 0)
(0.886032 0.0164298 0)
(0.549323 0.00540659 0)
(0.175244 0.000924124 0)
(0.195197 9.84482e-05 0)
(0.575032 -0.00158684 0)
(0.905277 -0.00871585 0)
(1.06668 -0.0123322 0)
(1.10267 -0.0108004 0)
(1.09673 -0.00770284 0)
(1.08388 -0.00410102 0)
(1.07336 -0.000304281 0)
(1.0652 0.00410362 0)
(1.05947 0.00914448 0)
(1.05689 0.0138446 0)
(1.05825 0.0176667 0)
(1.06292 0.0204342 0)
(1.07076 0.0224025 0)
(1.08108 0.0239755 0)
(1.08277 0.0243892 0)
(1.03824 0.0227011 0)
(0.861998 0.0155807 0)
(0.523953 0.00525107 0)
(0.165909 0.000990055 0)
(0.193038 0.000268485 0)
(0.564552 -0.000588187 0)
(0.893923 -0.00628016 0)
(1.06416 -0.00976634 0)
(1.10604 -0.0083404 0)
(1.10168 -0.00506931 0)
(1.08856 -0.0010721 0)
(1.0774 0.00295245 0)
(1.06817 0.0074002 0)
(1.06104 0.012137 0)
(1.05785 0.0168603 0)
(1.05881 0.0204643 0)
(1.06335 0.0227069 0)
(1.07138 0.0239854 0)
(1.08154 0.024967 0)
(1.08063 0.0251278 0)
(1.02621 0.0226222 0)
(0.836475 0.0149838 0)
(0.499299 0.00522935 0)
(0.156473 0.00103843 0)
(0.192126 0.000457256 0)
(0.556717 1.81321e-05 0)
(0.883627 -0.00423024 0)
(1.06271 -0.00704684 0)
(1.11022 -0.00545162 0)
(1.10707 -0.00226443 0)
(1.09402 0.00163689 0)
(1.08265 0.00576219 0)
(1.07336 0.0102912 0)
(1.06628 0.0152074 0)
(1.06214 0.0196667 0)
(1.06238 0.023023 0)
(1.06626 0.0250401 0)
(1.07359 0.0264006 0)
(1.08192 0.0269597 0)
(1.07815 0.026066 0)
(1.01426 0.02297 0)
(0.81141 0.0147294 0)
(0.475947 0.00532394 0)
(0.147256 0.00108637 0)
(0.192864 0.000516502 0)
(0.552835 0.0013031 0)
(0.877268 -0.00198949 0)
(1.06185 -0.00434339 0)
(1.1145 -0.00242771 0)
(1.11276 0.00116242 0)
(1.09936 0.00555928 0)
(1.08725 0.0101694 0)
(1.07674 0.0149398 0)
(1.06784 0.0196311 0)
(1.06293 0.0236082 0)
(1.06246 0.0263963 0)
(1.06565 0.0281662 0)
(1.07308 0.0287819 0)
(1.08097 0.0288257 0)
(1.0732 0.0277495 0)
(0.998739 0.0236336 0)
(0.784127 0.014911 0)
(0.452015 0.00554352 0)
(0.137695 0.00115907 0)
(0.195258 0.000689396 0)
(0.553349 0.00204726 0)
(0.872949 0.000337481 0)
(1.06298 -0.000913735 0)
(1.11975 0.00159243 0)
(1.11896 0.00556534 0)
(1.10553 0.00999711 0)
(1.09308 0.01457 0)
(1.08245 0.0192954 0)
(1.07363 0.0240543 0)
(1.06792 0.028484 0)
(1.06575 0.0313148 0)
(1.0682 0.0326398 0)
(1.07458 0.0328642 0)
(1.08004 0.0319908 0)
(1.0682 0.0297379 0)
(0.983223 0.0250335 0)
(0.75679 0.015452 0)
(0.428343 0.00589729 0)
(0.128003 0.00127461 0)
(0.19972 0.00105003 0)
(0.556383 0.00296211 0)
(0.873589 0.00317049 0)
(1.06547 0.00234577 0)
(1.12581 0.00552064 0)
(1.12624 0.0102425 0)
(1.11236 0.0153317 0)
(1.09907 0.0202527 0)
(1.08723 0.025418 0)
(1.0764 0.0302838 0)
(1.06821 0.0337803 0)
(1.0653 0.0358704 0)
(1.06649 0.0368689 0)
(1.0725 0.0364743 0)
(1.07726 0.0354524 0)
(1.05999 0.0328709 0)
(0.963129 0.0267012 0)
(0.726197 0.0163538 0)
(0.402814 0.00642162 0)
(0.117466 0.00141923 0)
(0.206536 0.00148099 0)
(0.563905 0.00430736 0)
(0.877878 0.00580261 0)
(1.07078 0.00661778 0)
(1.13307 0.0103955 0)
(1.13439 0.0158048 0)
(1.12045 0.0212989 0)
(1.10657 0.0265316 0)
(1.09377 0.0317655 0)
(1.08186 0.0368443 0)
(1.07249 0.0414175 0)
(1.06785 0.0437172 0)
(1.06818 0.0436251 0)
(1.07302 0.0425156 0)
(1.07429 0.0403986 0)
(1.05142 0.0362263 0)
(0.942579 0.029224 0)
(0.694624 0.0176284 0)
(0.376354 0.00708741 0)
(0.106402 0.00156874 0)
(0.215192 0.00192604 0)
(0.575478 0.00576381 0)
(0.886456 0.00861705 0)
(1.07855 0.0108205 0)
(1.14185 0.0156382 0)
(1.14388 0.0217883 0)
(1.12895 0.0283269 0)
(1.11358 0.0345123 0)
(1.09864 0.0406771 0)
(1.08414 0.0465333 0)
(1.07226 0.0503686 0)
(1.06633 0.0512069 0)
(1.06495 0.0510553 0)
(1.06859 0.048992 0)
(1.06916 0.0462024 0)
(1.03881 0.0411787 0)
(0.915868 0.0320948 0)
(0.658132 0.0193461 0)
(0.346638 0.0078619 0)
(0.0941213 0.00171421 0)
(0.227886 0.00251753 0)
(0.594224 0.00811834 0)
(0.90187 0.0130189 0)
(1.08994 0.0166813 0)
(1.15228 0.0224592 0)
(1.15427 0.0295219 0)
(1.13837 0.0368503 0)
(1.12179 0.0440029 0)
(1.10548 0.050832 0)
(1.08911 0.0564337 0)
(1.07495 0.0600243 0)
(1.06665 0.0613975 0)
(1.06429 0.0603305 0)
(1.06681 0.0574232 0)
(1.0629 0.053288 0)
(1.02477 0.0461114 0)
(0.8879 0.0359415 0)
(0.619354 0.0213363 0)
(0.315003 0.00863591 0)
(0.0811503 0.00183818 0)
(0.244031 0.003184 0)
(0.618448 0.010053 0)
(0.92327 0.0174712 0)
(1.10547 0.0236737 0)
(1.16502 0.0311297 0)
(1.16673 0.0395554 0)
(1.14893 0.0481349 0)
(1.12997 0.0562473 0)
(1.11046 0.0640113 0)
(1.09022 0.0701951 0)
(1.073 0.073639 0)
(1.06293 0.0732463 0)
(1.05883 0.0708911 0)
(1.0595 0.0664193 0)
(1.05385 0.060675 0)
(1.0055 0.0526705 0)
(0.851517 0.039605 0)
(0.573693 0.0234947 0)
(0.27926 0.00933551 0)
(0.0669754 0.00192498 0)
(0.266274 0.00447585 0)
(0.651891 0.014226 0)
(0.952903 0.0244349 0)
(1.12607 0.0329797 0)
(1.18105 0.0418875 0)
(1.18156 0.0521194 0)
(1.16151 0.0618531 0)
(1.13984 0.0708441 0)
(1.11767 0.0791836 0)
(1.09494 0.0853941 0)
(1.07419 0.0878715 0)
(1.06071 0.0866952 0)
(1.05573 0.0831221 0)
(1.05529 0.0770877 0)
(1.04321 0.0700605 0)
(0.983613 0.0590961 0)
(0.813063 0.0445588 0)
(0.525178 0.0258588 0)
(0.241612 0.009952 0)
(0.0524716 0.00197881 0)
(0.29773 0.00556067 0)
(0.697581 0.0175277 0)
(0.992247 0.0314586 0)
(1.15294 0.0438222 0)
(1.20061 0.055522 0)
(1.19883 0.0687496 0)
(1.17503 0.0807005 0)
(1.14919 0.0910344 0)
(1.12146 0.0999444 0)
(1.09219 0.105321 0)
(1.0678 0.105941 0)
(1.05466 0.102609 0)
(1.04811 0.0965073 0)
(1.04505 0.0885076 0)
(1.02918 0.0794185 0)
(0.955374 0.0672247 0)
(0.763287 0.0487172 0)
(0.466934 0.027727 0)
(0.199486 0.0102965 0)
(0.037079 0.00192442 0)
(0.333413 0.00880191 0)
(0.754983 0.0261244 0)
(1.04145 0.0448206 0)
(1.18628 0.0610204 0)
(1.22473 0.0746247 0)
(1.21847 0.0908024 0)
(1.19 0.104318 0)
(1.15974 0.115404 0)
(1.12811 0.123666 0)
(1.09626 0.12763 0)
(1.06891 0.126338 0)
(1.05013 0.119885 0)
(1.04179 0.111644 0)
(1.03708 0.102089 0)
(1.01202 0.0909987 0)
(0.921655 0.0743603 0)
(0.710147 0.0539704 0)
(0.407854 0.0298777 0)
(0.157521 0.0103789 0)
(0.0230558 0.00181706 0)
(0.411162 0.0136277 0)
(0.840424 0.036362 0)
(1.10786 0.0619789 0)
(1.22783 0.0840481 0)
(1.25284 0.101049 6.43505e-34)
(1.24011 0.120465 -2.88796e-34)
(1.20501 0.135387 0)
(1.16899 0.146779 0)
(1.13075 0.154375 0)
(1.0914 0.155468 0)
(1.05826 0.14891 0)
(1.04092 0.139007 0)
(1.0318 0.128087 0)
(1.02275 0.115419 0)
(0.990269 0.101147 0)
(0.880396 0.0830348 0)
(0.642867 0.0574161 0)
(0.334219 0.0299302 0)
(0.108381 0.00950335 0)
(0.00746272 0.00164139 0)
(0.476224 0.0281004 4.88225e-20)
(0.940153 0.0566284 -3.6884e-20)
(1.17805 0.0917966 0)
(1.26954 0.119671 2.79316e-20)
(1.28236 0.137849 -2.26425e-20)
(1.25971 0.159876 3.04716e-34)
(1.21697 0.174994 0)
(1.17505 0.185841 1.63089e-20)
(1.13214 0.190927 -5.37645e-20)
(1.09052 0.188308 1.10014e-20)
(1.05684 0.179222 0)
(1.03268 0.165475 -2.81875e-20)
(1.01933 0.149785 -3.37483e-20)
(1.00713 0.134911 5.90046e-20)
(0.957633 0.117849 -4.65618e-20)
(0.817809 0.09121 0)
(0.553057 0.0612372 -1.66845e-20)
(0.251572 0.0296001 0)
(0.0604601 0.00875908 -9.21789e-20)
(-0.008837 0.000871429 1.08636e-19)
(0.512018 0.0532875 -6.35289e-21)
(1.00332 0.0943643 1.11984e-19)
(1.22869 0.134495 -7.32779e-21)
(1.30324 0.163925 -6.96702e-20)
(1.30729 0.185147 -4.7536e-20)
(1.27551 0.207186 7.72461e-20)
(1.22581 0.22161 0)
(1.17771 0.230966 0)
(1.12821 0.233995 8.57699e-20)
(1.07871 0.228628 0)
(1.03592 0.213328 1.0182e-19)
(1.0118 0.193428 3.02454e-20)
(0.998898 0.176653 3.93058e-22)
(0.977232 0.157403 -6.43041e-20)
(0.915096 0.132266 0)
(0.754798 0.10407 0)
(0.478348 0.0660222 -2.71873e-19)
(0.193601 0.030443 6.8368e-19)
(0.0296072 0.00655344 -4.04188e-19)
(-0.02003 -0.00132616 -4.76052e-19)
(0.523284 0.077451 -6.62422e-20)
(1.03975 0.141574 2.50158e-20)
(1.26398 0.18788 1.31226e-20)
(1.32989 0.217877 1.20617e-19)
(1.32683 0.23907 1.38042e-20)
(1.28724 0.259923 -2.01562e-19)
(1.23065 0.273093 6.87707e-20)
(1.1759 0.280365 0)
(1.12067 0.280196 -1.81978e-19)
(1.06765 0.269969 1.62472e-19)
(1.0255 0.250566 -2.74748e-19)
(0.998538 0.228564 1.28791e-19)
(0.978541 0.20577 -8.30443e-20)
(0.955122 0.181636 1.87479e-19)
(0.882259 0.155547 0)
(0.71002 0.116015 -6.78663e-20)
(0.43342 0.0737252 0)
(0.174893 0.0324179 3.73465e-19)
(0.0217143 0.00487475 -8.85267e-19)
(-0.0236211 -0.00325184 5.5418e-19)
(0.52314 0.102454 1.86399e-19)
(1.06358 0.194542 -8.20021e-20)
(1.28844 0.247778 -1.64708e-20)
(1.34787 0.278678 0)
(1.33908 0.29917 -8.84914e-20)
(1.29333 0.317772 1.09195e-19)
(1.23117 0.328196 -7.42536e-20)
(1.17142 0.33167 0)
(1.1116 0.326468 1.29453e-19)
(1.05452 0.310964 -1.14118e-19)
(1.00705 0.287121 2.37632e-19)
(0.975766 0.2607 0)
(0.955907 0.235895 -1.76539e-19)
(0.926107 0.208691 9.96374e-20)
(0.849633 0.172751 2.49158e-19)
(0.678313 0.132678 -2.19293e-19)
(0.415335 0.0847361 3.46637e-19)
(0.172407 0.035956 -7.65872e-19)
(0.02245 0.00538994 4.8478e-19)
(-0.0239356 -0.00470374 -6.06168e-19)
(0.51207 0.130206 -6.66448e-20)
(1.0709 0.24455 4.78051e-20)
(1.30093 0.307297 -5.39517e-20)
(1.35771 0.341253 1.07127e-19)
(1.34511 0.361072 -1.0042e-19)
(1.29485 0.377159 3.46817e-20)
(1.22845 0.384491 3.50605e-21)
(1.16486 0.383515 -1.46442e-19)
(1.10189 0.373348 -1.36119e-19)
(1.04187 0.353502 -2.4519e-19)
(0.992041 0.325207 -5.10765e-19)
(0.958894 0.29568 -1.57061e-19)
(0.934487 0.266347 2.23287e-21)
(0.903544 0.235801 -3.39857e-19)
(0.826243 0.200114 -4.96479e-21)
(0.657403 0.15012 3.19002e-19)
(0.408347 0.096147 -9.58509e-20)
(0.177977 0.0442407 -5.54882e-20)
(0.0312169 0.00764235 0)
(-0.0202297 -0.00529086 1.28909e-18)
(0.497775 0.154761 0)
(1.07103 0.293934 -5.07181e-21)
(1.30623 0.367051 -9.20135e-21)
(1.36063 0.404031 -1.24834e-20)
(1.34496 0.423438 9.69967e-20)
(1.29146 0.436997 -8.0684e-20)
(1.22223 0.440669 8.12524e-20)
(1.15579 0.435005 2.40689e-19)
(1.08903 0.419957 -7.59001e-20)
(1.02372 0.394683 1.20927e-19)
(0.9702 0.361823 2.74452e-19)
(0.93527 0.328823 3.42183e-19)
(0.908781 0.299478 -2.05726e-19)
(0.874 0.266593 3.67836e-19)
(0.797784 0.221408 -2.91231e-19)
(0.637243 0.172732 0)
(0.404909 0.112196 -7.27447e-19)
(0.188401 0.0548108 9.79105e-19)
(0.0439669 0.0124751 7.30767e-20)
(-0.0143355 -0.00457808 -1.36359e-18)
(0.481792 0.176562 -6.49659e-21)
(1.06258 0.339524 9.26902e-21)
(1.3045 0.423698 6.66364e-20)
(1.35833 0.464781 -8.86133e-20)
(1.34058 0.48396 8.03911e-20)
(1.28459 0.495219 -7.85322e-20)
(1.21271 0.495942 1.61584e-19)
(1.14305 0.486153 -7.21619e-20)
(1.07322 0.466413 -3.06967e-19)
(1.0067 0.435846 -3.0537e-22)
(0.953573 0.398517 -2.98247e-19)
(0.914395 0.362259 -3.68264e-19)
(0.885061 0.330423 2.27196e-19)
(0.852785 0.293932 -1.32157e-19)
(0.776242 0.252345 3.16738e-19)
(0.622744 0.192874 0)
(0.402697 0.129167 -4.5208e-19)
(0.197863 0.0660989 6.67724e-19)
(0.0561096 0.018433 1.26309e-18)
(-0.00818316 -0.00312144 -1.48546e-18)
(0.468334 0.197271 -5.17403e-20)
(1.05357 0.38473 1.84759e-20)
(1.29954 0.479227 -4.45379e-20)
(1.35208 0.523471 9.12136e-20)
(1.33218 0.542524 1.18538e-20)
(1.27376 0.55194 -1.54159e-19)
(1.19971 0.549728 -9.43914e-20)
(1.12841 0.535789 -9.32873e-20)
(1.05713 0.510979 -1.73497e-19)
(0.988376 0.474936 2.78937e-19)
(0.929108 0.433419 3.01819e-19)
(0.887534 0.396022 5.84579e-19)
(0.859171 0.362597 0)
(0.822143 0.324675 6.29591e-21)
(0.749893 0.272684 -8.7006e-19)
(0.605503 0.216527 2.0396e-19)
(0.400535 0.146343 9.80398e-19)
(0.206948 0.0782607 -2.89308e-19)
(0.0679971 0.0257924 6.00619e-19)
(-0.00189882 -0.000905025 -5.01592e-20)
(0.455683 0.216112 7.91633e-21)
(1.04084 0.426363 4.17254e-20)
(1.29069 0.531408 -1.89409e-20)
(1.34263 0.579543 1.00849e-19)
(1.32103 0.598624 -1.6109e-19)
(1.26079 0.606162 1.53731e-19)
(1.18539 0.601321 9.79545e-20)
(1.11288 0.583722 2.78138e-19)
(1.04024 0.554843 3.48117e-19)
(0.969417 0.514968 -3.21833e-19)
(0.909684 0.469375 0)
(0.866958 0.427487 -2.20971e-19)
(0.834539 0.391256 2.53699e-19)
(0.801139 0.350803 3.19457e-19)
(0.729313 0.30358 -1.84971e-19)
(0.591322 0.236043 -4.48938e-19)
(0.39664 0.163929 -1.33797e-19)
(0.213451 0.0911064 -1.95859e-21)
(0.0773636 0.0335062 0)
(0.00344012 0.00151841 0)
(0.446444 0.234802 -7.02121e-20)
(1.03008 0.468004 0)
(1.28067 0.582555 -4.51268e-21)
(1.33112 0.63327 -1.12408e-20)
(1.30796 0.652012 1.83993e-19)
(1.24626 0.657857 -4.62361e-20)
(1.16985 0.650439 9.98855e-20)
(1.09683 0.629471 -1.88215e-19)
(1.02292 0.596744 2.63993e-19)
(0.949322 0.55218 -1.05282e-19)
(0.885738 0.501905 1.73024e-19)
(0.840952 0.45911 7.00858e-19)
(0.80915 0.421829 1.43261e-20)
(0.772036 0.379808 -3.33588e-19)
(0.704005 0.322005 6.16339e-19)
(0.573024 0.259535 3.60558e-21)
(0.390568 0.180705 1.43143e-19)
(0.215542 0.103536 -6.82574e-19)
(0.0830798 0.0404332 7.03548e-19)
(0.00736111 0.00371572 -8.28772e-19)
(0.438945 0.252147 5.07831e-23)
(1.01755 0.506171 0)
(1.26856 0.630176 0)
(1.31806 0.684183 -3.70744e-21)
(1.29368 0.702869 -5.47547e-20)
(1.23088 0.706901 7.29229e-20)
(1.15391 0.697074 -1.85593e-19)
(1.08003 0.673068 0)
(1.00465 0.637409 -3.89219e-19)
(0.929983 0.590283 4.6582e-19)
(0.866727 0.537077 4.92644e-19)
(0.819845 0.489122 -2.57116e-19)
(0.785409 0.447443 -3.10744e-19)
(0.751854 0.403215 7.2828e-19)
(0.683725 0.351909 -2.19148e-19)
(0.556078 0.277067 -2.61143e-19)
(0.380386 0.196575 -1.56177e-19)
(0.213863 0.113668 -7.37145e-19)
(0.0852831 0.0458656 1.08152e-19)
(0.00982488 0.00538859 8.96672e-19)
(0.433894 0.270503 -3.61236e-20)
(1.0074 0.544467 -4.53481e-20)
(1.25642 0.676761 2.2907e-20)
(1.30413 0.732635 1.14413e-22)
(1.27864 0.750732 -5.6254e-20)
(1.21494 0.753085 1.19336e-19)
(1.13736 0.74101 0)
(1.063 0.714356 1.13832e-19)
(0.986665 0.67576 -8.97572e-20)
(0.909783 0.624923 7.76935e-19)
(0.84131 0.566827 -1.11585e-19)
(0.792934 0.517038 1.27594e-19)
(0.761074 0.475747 0)
(0.723694 0.430052 -3.94156e-19)
(0.657588 0.367094 4.76838e-19)
(0.53432 0.29852 0)
(0.368975 0.209802 -3.36409e-19)
(0.2088 0.122136 9.89432e-19)
(0.0840655 0.0492666 1.17337e-19)
(0.0107645 0.00629655 -1.10411e-18)
(0.429665 0.288812 -9.1721e-20)
(0.996151 0.579335 1.14987e-19)
(1.2432 0.719682 0)
(1.28954 0.778243 1.11323e-20)
(1.26305 0.796242 0)
(1.1985 0.796831 -1.53654e-19)
(1.12064 0.782577 0)
(1.04584 0.753408 0)
(0.968424 0.712731 -1.18574e-19)
(0.889839 0.660223 -7.38431e-19)
(0.82148 0.600268 -9.10268e-19)
(0.772117 0.545235 1.48863e-19)
(0.736499 0.497765 5.36433e-19)
(0.702646 0.449092 4.33516e-19)
(0.636129 0.393884 -1.52972e-18)
(0.514966 0.311169 -6.12784e-19)
(0.354302 0.220985 3.5908e-19)
(0.200751 0.127597 0)
(0.0808429 0.0505979 1.00538e-18)
(0.0103451 0.00662463 -1.1892e-18)
(0.427095 0.306077 1.10896e-19)
(0.987262 0.61442 -1.34764e-19)
(1.23053 0.761687 0)
(1.27468 0.821496 -1.13321e-20)
(1.24719 0.838771 1.58152e-21)
(1.18204 0.837697 0)
(1.10402 0.821425 5.76134e-20)
(1.02916 0.790262 7.87726e-20)
(0.950848 0.747585 -2.2339e-19)
(0.869494 0.691966 9.79858e-20)
(0.79567 0.627261 0)
(0.743817 0.570197 6.18095e-19)
(0.710843 0.523163 5.986e-21)
(0.673168 0.472475 2.33812e-19)
(0.608233 0.40306 2.77606e-19)
(0.491543 0.327263 0)
(0.340317 0.228313 -5.85425e-19)
(0.191508 0.130413 1.14583e-18)
(0.0759959 0.0507968 -1.21596e-18)
(0.00921929 0.00639607 2.56026e-18)
(0.425363 0.322495 0)
(0.977573 0.646096 0)
(1.21731 0.800137 -6.65746e-20)
(1.25967 0.86208 0)
(1.23126 0.879229 0)
(1.16555 0.87644 -1.31627e-19)
(1.08765 0.858182 5.91641e-20)
(1.01272 0.824985 1.79385e-20)
(0.933526 0.781048 -5.11867e-20)
(0.850488 0.724695 0)
(0.776186 0.659209 -1.38569e-19)
(0.721997 0.596952 -5.03948e-19)
(0.683357 0.541008 -6.05745e-19)
(0.649405 0.48524 -2.43334e-19)
(0.584956 0.424375 3.00511e-19)
(0.471843 0.331992 -7.08046e-19)
(0.323703 0.23279 1.25958e-18)
(0.181879 0.130841 1.86834e-21)
(0.0712724 0.0498128 -1.16321e-18)
(0.00810172 0.00582283 -1.72607e-19)
(0.424691 0.337927 0)
(0.970171 0.678208 -1.11066e-19)
(1.20494 0.837969 8.08494e-20)
(1.24481 0.900576 0)
(1.21549 0.916854 0)
(1.14949 0.912414 2.66104e-19)
(1.07191 0.892366 0)
(0.997306 0.857731 0)
(0.917466 0.812641 -4.887e-19)
(0.831895 0.754479 1.35071e-19)
(0.750653 0.684642 -1.23004e-18)
(0.691789 0.619546 0)
(0.655225 0.563613 -6.60416e-19)
(0.616813 0.504147 1.00744e-20)
(0.5551 0.424751 -9.66896e-19)
(0.448024 0.34028 3.8083e-19)
(0.310392 0.23284 1.4423e-21)
(0.1731 0.127936 -1.3196e-18)
(0.0681599 0.0476714 6.25307e-19)
(0.00757183 0.00510481 1.84704e-19)
(0.424402 0.352709 0)
(0.961983 0.706991 -1.54816e-19)
(1.1923 0.872428 8.65779e-20)
(1.23015 0.936668 1.06363e-19)
(1.20002 0.952739 -1.49763e-20)
(1.1338 0.946613 2.90821e-20)
(1.05676 0.924782 -3.64472e-20)
(0.982409 0.888531 4.7318e-19)
(0.901881 0.842801 5.22775e-19)
(0.81443 0.784844 1.0261e-18)
(0.732264 0.715763 1.02197e-18)
(0.670132 0.646134 1.79707e-19)
(0.625053 0.579271 9.49207e-19)
(0.58885 0.510168 5.856e-19)
(0.528677 0.438466 6.93585e-19)
(0.428311 0.333896 -4.16492e-19)
(0.296483 0.227279 -4.84425e-19)
(0.171464 0.121837 5.67613e-19)
(0.0703515 0.0451762 -3.37139e-19)
(0.00952834 0.00464889 5.96602e-19)
(0.424598 0.366819 2.20787e-19)
(0.955798 0.736353 2.42849e-19)
(1.18063 0.906527 5.11952e-20)
(1.2159 0.970951 1.61313e-20)
(1.185 0.985989 1.29598e-20)
(1.11883 0.978201 -7.373e-20)
(1.04251 0.954786 3.55415e-20)
(0.968734 0.917567 -2.0409e-20)
(0.887554 0.871266 -6.06362e-19)
(0.797589 0.812561 -1.11359e-18)
(0.708425 0.740681 7.08182e-20)
(0.639837 0.668669 0)
(0.595492 0.601568 0)
(0.551863 0.527275 -3.05836e-19)
(0.492429 0.427946 -1.1376e-18)
(0.402191 0.33014 8.96809e-19)
(0.28983 0.212423 5.27891e-19)
(0.177519 0.109381 0)
(0.0852147 0.0394706 1.08427e-18)
(0.0207061 0.00582539 -6.41233e-19)
(0.424777 0.380401 -1.16139e-19)
(0.948719 0.762335 1.04083e-19)
(1.16878 0.937314 -1.22191e-19)
(1.20202 1.00302 -9.59042e-20)
(1.17048 1.01779 -1.13924e-20)
(1.10446 1.00836 -2.25854e-20)
(1.02901 0.983331 0)
(0.95552 0.944792 -5.9438e-19)
(0.873485 0.898191 7.51883e-20)
(0.781536 0.840266 0)
(0.691846 0.770709 0)
(0.620341 0.696617 1.14808e-19)
(0.564218 0.618635 1.5397e-19)
(0.518906 0.5295 -3.30904e-19)
(0.459337 0.436052 8.16932e-19)
(0.373391 0.303876 -9.76859e-19)
(0.278171 0.18651 -1.12997e-18)
(0.200286 0.0817983 1.00121e-18)
(0.152243 0.0280525 -3.88085e-19)
(0.0897085 0.0234877 2.25345e-19)
(0.425092 0.393161 1.47668e-19)
(0.94334 0.788928 0)
(1.15788 0.967911 0)
(1.18865 1.03347 -2.5482e-20)
(1.15657 1.04713 2.0633e-20)
(1.09098 1.03606 -2.01334e-20)
(1.01647 1.00963 1.58432e-19)
(0.943442 0.97045 6.09122e-19)
(0.860573 0.923609 1.09785e-18)
(0.76645 0.86565 -8.36822e-20)
(0.670373 0.794585 1.7333e-19)
(0.591602 0.719778 -1.02592e-18)
(0.534796 0.643135 -1.02426e-18)
(0.477845 0.551348 -1.77719e-19)
(0.409514 0.41888 0)
(0.335791 0.292815 -4.59154e-21)
(0.260261 0.128922 6.21952e-19)
(0.212487 0.00482659 -1.06688e-18)
(0.163801 -0.0803079 8.17618e-19)
(0.0765606 -0.0463771 6.94773e-19)
(0.425141 0.405649 -3.26864e-19)
(0.936663 0.811931 -1.47626e-19)
(1.14657 0.995152 8.50408e-21)
(1.1756 1.06201 5.72449e-20)
(1.14314 1.07555 0)
(1.07795 1.06304 -8.59974e-20)
(1.00431 1.03522 -2.26394e-19)
(0.931244 0.994937 -1.78542e-21)
(0.847147 0.947962 -5.7523e-19)
(0.750812 0.890981 -8.20851e-20)
(0.654652 0.823518 7.62407e-20)
(0.573937 0.749863 9.01382e-19)
(0.503168 0.664923 9.99487e-19)
(0.439875 0.555151 1.73211e-19)
(0.368899 0.436458 8.79835e-19)
(0.268079 0.24846 0)
(0.163619 0.114155 0)
(0.0189981 0.217412 7.04797e-19)
(-0.0432868 0.702209 -1.65831e-20)
(0.00364832 1.6754 -7.98756e-19)
(0.425325 0.417482 1.8106e-19)
(0.931644 0.836025 4.14764e-19)
(1.13619 1.0228 -5.70984e-19)
(1.16297 1.08949 2.79903e-19)
(1.13029 1.10214 -5.33578e-21)
(1.06584 1.08842 -3.94666e-20)
(0.993068 1.05968 0)
(0.92006 1.01929 -5.07473e-19)
(0.834634 0.972474 0)
(0.735996 0.916054 1.15541e-18)
(0.6334 0.848069 -9.32244e-20)
(0.54398 0.775095 1.04531e-19)
(0.472106 0.695306 1.14625e-18)
(0.393932 0.594249 -3.74554e-19)
(0.279638 0.422123 -4.46812e-19)
(0.18783 0.310423 0)
(0.0752472 0.534317 0)
(0.0214867 1.46877 0)
(0.054989 2.51526 -4.08596e-19)
(0.0677101 2.92849 -2.46533e-19)
(0.424906 0.428799 0)
(0.92536 0.856506 0)
(1.12547 1.04715 2.09056e-19)
(1.15076 1.11515 -2.26382e-19)
(1.11804 1.12808 9.46776e-20)
(1.05429 1.11352 4.57014e-20)
(0.982332 1.08402 2.86293e-20)
(0.908845 1.04297 -2.22901e-20)
(0.821761 0.996329 8.11833e-20)
(0.720592 0.941073 -1.32627e-18)
(0.618117 0.877869 1.68882e-19)
(0.52795 0.809317 9.029e-19)
(0.440435 0.724934 -1.1419e-18)
(0.348134 0.599645 -1.25516e-18)
(0.249936 0.490903 4.21783e-19)
(0.149185 0.689914 0)
(0.0803423 1.71334 5.79063e-19)
(0.0940702 2.73009 6.41391e-19)
(0.0988713 3.08703 -7.23266e-19)
(0.0880078 3.20994 7.86183e-19)
(0.424578 0.439625 0)
(0.920751 0.878274 3.698e-19)
(1.11583 1.07214 -5.20472e-20)
(1.1391 1.13984 3.2096e-19)
(1.10649 1.15208 -9.93797e-20)
(1.0437 1.1368 0)
(0.972447 1.10698 0)
(0.898621 1.0664 0)
(0.809906 1.02033 4.57364e-19)
(0.706633 0.966192 6.13296e-20)
(0.598057 0.903086 0)
(0.498844 0.835961 -8.97541e-19)
(0.411724 0.758741 0)
(0.298933 0.652486 8.93705e-19)
(0.199935 0.732821 -6.07577e-19)
(0.137511 1.57045 -4.84234e-19)
(0.134653 2.72702 -1.12243e-18)
(0.150274 3.12515 -6.0226e-19)
(0.12875 3.25073 -8.5336e-19)
(0.113719 3.28596 7.53944e-19)
(0.42302 0.449182 -1.30554e-19)
(0.91476 0.896109 1.66443e-20)
(1.10582 1.09373 -5.81545e-20)
(1.12793 1.1628 -2.46771e-19)
(1.09558 1.1756 0)
(1.0336 1.16002 0)
(0.962906 1.13002 0)
(0.88823 1.08921 3.50355e-20)
(0.797808 1.0437 -5.78269e-19)
(0.692225 0.990898 0)
(0.584577 0.933259 0)
(0.487518 0.873208 0)
(0.375656 0.785071 0)
(0.307409 0.762735 6.54798e-19)
(0.23718 1.25293 1.6153e-18)
(0.192897 2.51582 4.75329e-19)
(0.204888 3.09844 9.65129e-19)
(0.193014 3.26903 -7.41979e-19)
(0.157133 3.32187 2.63698e-19)
(0.138423 3.33305 0)
(0.421428 0.457811 1.34775e-19)
(0.909695 0.915376 -8.24525e-19)
(1.09654 1.11669 -2.23597e-19)
(1.1172 1.18569 -4.85296e-20)
(1.08527 1.19787 2.36454e-20)
(1.02418 1.18186 -7.92721e-20)
(0.953822 1.15189 -3.33729e-21)
(0.878564 1.1121 -3.8653e-19)
(0.786676 1.06769 0)
(0.679792 1.01678 -7.83694e-20)
(0.567117 0.9596 7.129e-20)
(0.461536 0.899039 0)
(0.369534 0.845661 0)
(0.300978 1.01545 -8.2222e-19)
(0.230811 1.96778 1.06174e-19)
(0.22459 2.99092 -3.6482e-19)
(0.251581 3.2732 7.79176e-19)
(0.231332 3.35426 5.86616e-19)
(0.178813 3.37432 -8.82555e-19)
(0.159862 3.38377 4.42304e-19)
(0.418576 0.466151 2.65683e-19)
(0.902262 0.931434 8.04763e-19)
(1.08599 1.13756 2.67775e-19)
(1.1063 1.20865 0)
(1.07494 1.2216 0)
(1.01443 1.20532 6.21222e-20)
(0.94426 1.17524 6.62315e-20)
(0.868052 1.13533 3.44509e-19)
(0.77495 1.09186 2.25079e-20)
(0.666467 1.04244 1.00332e-18)
(0.556293 0.990875 -1.18905e-18)
(0.450457 0.937105 0)
(0.375579 0.931202 0)
(0.319112 1.38169 -5.57583e-19)
(0.283656 2.63478 -6.79837e-19)
(0.322091 3.20721 0)
(0.339777 3.34142 -8.71004e-19)
(0.266058 3.39232 -1.19147e-20)
(0.200372 3.42563 5.86421e-19)
(0.176352 3.44286 -2.48981e-19)
(0.415799 0.475091 -5.05276e-19)
(0.896081 0.951993 -3.86538e-19)
(1.0758 1.16241 0)
(1.09504 1.23347 0)
(1.06426 1.24551 0)
(1.00444 1.22846 0)
(0.934304 1.19814 -7.82495e-20)
(0.857675 1.15944 2.96652e-19)
(0.763787 1.11746 0)
(0.655465 1.0707 -9.134e-19)
(0.541984 1.01949 2.13173e-18)
(0.442079 0.974999 8.68001e-20)
(0.382183 1.07711 1.14274e-19)
(0.34491 1.90242 9.01293e-19)
(0.33668 2.97935 -4.96564e-19)
(0.374722 3.30807 0)
(0.348271 3.40523 2.58567e-19)
(0.267522 3.47707 7.2346e-20)
(0.219625 3.51863 4.5833e-20)
(0.185049 3.5122 9.67517e-20)
(0.412035 0.485035 2.39624e-19)
(0.887187 0.969128 -3.95057e-19)
(1.06391 1.18471 0)
(1.0831 1.25835 -7.17296e-20)
(1.05281 1.27142 2.47823e-19)
(0.993342 1.2539 0)
(0.923324 1.22319 0)
(0.846064 1.18409 -5.1144e-19)
(0.751868 1.14321 -5.8105e-20)
(0.643037 1.09793 8.93048e-19)
(0.530389 1.05083 -1.01429e-18)
(0.452309 1.03343 5.83464e-19)
(0.406137 1.31161 0)
(0.380832 2.34455 -4.76414e-19)
(0.401866 3.1895 3.09932e-19)
(0.449621 3.40139 2.1572e-19)
(0.422112 3.47677 0)
(0.364671 3.52673 1.86018e-20)
(0.316137 3.53875 -2.13098e-19)
(0.236456 3.47696 -3.60994e-20)
(0.40877 0.495723 -4.7539e-19)
(0.880345 0.992708 5.66531e-19)
(1.05269 1.21216 3.97578e-19)