/*--------------------------------*- C++ -*----------------------------------*\
  =========                 |
  \\      /  F ield         | OpenFOAM: The Open Source CFD Toolbox
   \\    /   O peration     | Website:  https://openfoam.org
    \\  /    A nd           | Version:  6
     \\/     M anipulation  |
\*---------------------------------------------------------------------------*/
FoamFile
{
    version     2.0;
    format      ascii;
    class       volScalarField;
    location    "107";
    object      p;
}
// * * * * * * * * * * * * * * * * * * * * * * * * * * * * * * * * * * * * * //

dimensions      [0 2 -2 0 0 0 0];

internalField   nonuniform List<scalar> 
8800
(
0.988243
0.938929
0.900967
0.872902
0.852746
0.838168
0.827583
0.82006
0.815199
0.813161
0.814567
0.818938
0.825755
0.835197
0.847946
0.865276
0.889159
0.922261
0.965201
1.01772
0.82273
0.829075
0.838228
0.841781
0.839177
0.833096
0.826166
0.81994
0.81516
0.81232
0.812124
0.814786
0.819456
0.825606
0.832721
0.839766
0.844654
0.844535
0.837866
0.828971
0.796229
0.802466
0.806971
0.810848
0.813804
0.814763
0.813689
0.811588
0.809635
0.808832
0.809904
0.812393
0.815307
0.817598
0.818135
0.816359
0.813003
0.808997
0.804221
0.800505
0.791904
0.794671
0.797283
0.799448
0.801194
0.802776
0.803896
0.804272
0.80419
0.80433
0.805182
0.806365
0.80714
0.807016
0.806061
0.804722
0.803064
0.800771
0.798366
0.7968
0.786815
0.788242
0.790087
0.792177
0.793901
0.795209
0.796328
0.797336
0.798183
0.79897
0.799736
0.800246
0.80031
0.799979
0.799336
0.79824
0.7966
0.794718
0.793371
0.792568
0.781782
0.782686
0.783939
0.785577
0.787285
0.788837
0.790146
0.791303
0.792413
0.793491
0.794345
0.794795
0.794855
0.794527
0.793756
0.792593
0.791253
0.790002
0.789188
0.788663
0.776819
0.777476
0.778445
0.779775
0.781241
0.782781
0.784298
0.785704
0.787023
0.788302
0.789336
0.789906
0.789987
0.789601
0.788861
0.787952
0.786987
0.786101
0.785529
0.785144
0.771923
0.772428
0.773222
0.774379
0.775701
0.777148
0.778696
0.780288
0.781869
0.783416
0.784674
0.785377
0.785536
0.785279
0.784768
0.784122
0.78342
0.78278
0.782362
0.782062
0.767035
0.767437
0.768106
0.769147
0.770404
0.771805
0.773358
0.775061
0.776876
0.778733
0.780277
0.781201
0.781577
0.781571
0.781317
0.780906
0.78042
0.77998
0.779675
0.77943
0.762072
0.762399
0.762983
0.763949
0.765168
0.766568
0.76817
0.769993
0.77203
0.774219
0.776134
0.777401
0.778096
0.778382
0.778389
0.778225
0.77795
0.777679
0.777459
0.777252
0.756941
0.757213
0.757738
0.758664
0.759876
0.761316
0.763011
0.765
0.767301
0.76988
0.772259
0.773965
0.775046
0.775666
0.775961
0.776049
0.775989
0.77587
0.77572
0.77554
0.751549
0.751777
0.752266
0.753182
0.754429
0.755952
0.757787
0.760001
0.762641
0.765702
0.768646
0.770879
0.772412
0.773415
0.774036
0.774384
0.774553
0.774579
0.774486
0.774325
0.745796
0.745989
0.746462
0.747397
0.748719
0.750373
0.752405
0.754916
0.757987
0.761645
0.765273
0.768133
0.770197
0.771644
0.772637
0.773296
0.773695
0.773854
0.773809
0.77366
0.739569
0.739735
0.740208
0.741192
0.742631
0.744468
0.746766
0.74966
0.753269
0.757659
0.762115
0.765726
0.76842
0.770385
0.771808
0.772812
0.773463
0.773758
0.773755
0.773611
0.732739
0.732882
0.73337
0.734432
0.736033
0.738115
0.74076
0.744138
0.748413
0.753695
0.75915
0.76366
0.767102
0.769678
0.771592
0.772994
0.773932
0.774368
0.774403
0.774261
0.725152
0.725273
0.725789
0.726959
0.728774
0.731171
0.734256
0.73824
0.743336
0.749703
0.756361
0.761942
0.766267
0.769568
0.77207
0.773934
0.775192
0.775773
0.775843
0.775699
0.716609
0.716712
0.717263
0.718576
0.720667
0.723464
0.727101
0.731837
0.737943
0.745628
0.753726
0.760581
0.76595
0.770102
0.773311
0.775718
0.777335
0.778069
0.778169
0.778018
0.70682
0.706922
0.707542
0.709032
0.711481
0.714782
0.719108
0.724781
0.732128
0.741411
0.751232
0.759592
0.766193
0.771347
0.775384
0.778427
0.780451
0.781344
0.781469
0.781307
0.69549
0.69557
0.696279
0.698024
0.700916
0.704857
0.710053
0.716894
0.725772
0.736993
0.748864
0.758991
0.767033
0.773364
0.778357
0.782146
0.784618
0.785668
0.78581
0.785634
0.682183
0.68225
0.683071
0.685131
0.688592
0.693353
0.69966
0.707972
0.718745
0.732315
0.746617
0.758802
0.768502
0.776197
0.782304
0.786935
0.789882
0.791078
0.791226
0.791032
0.666292
0.66635
0.667324
0.669809
0.674018
0.679851
0.687594
0.697785
0.710921
0.727337
0.744498
0.759049
0.770636
0.779885
0.787248
0.792811
0.79624
0.797551
0.797688
0.797474
0.646964
0.647019
0.648219
0.651302
0.656531
0.663812
0.673464
0.686094
0.702199
0.722049
0.742531
0.75976
0.773462
0.784442
0.793179
0.799743
0.803612
0.804982
0.805087
0.804854
0.622947
0.623007
0.624565
0.62855
0.635251
0.644563
0.656835
0.672688
0.692534
0.7165
0.740778
0.760977
0.77699
0.789855
0.800063
0.807616
0.811816
0.813162
0.813211
0.812962
0.592278
0.59237
0.594549
0.600003
0.609016
0.621331
0.637318
0.657466
0.681995
0.710813
0.739344
0.762754
0.781231
0.796058
0.807802
0.81622
0.820555
0.821766
0.821741
0.821485
0.551634
0.551867
0.555334
0.563506
0.576441
0.593443
0.614744
0.640553
0.67081
0.705204
0.738384
0.765176
0.786182
0.803014
0.816225
0.825242
0.829424
0.830385
0.830277
0.830024
0.494666
0.495864
0.502818
0.516682
0.536489
0.560763
0.589447
0.622412
0.659396
0.699966
0.738069
0.768335
0.791851
0.810599
0.825075
0.834269
0.837947
0.838578
0.838401
0.838165
0.412178
0.420292
0.436353
0.460683
0.490784
0.524799
0.562461
0.603598
0.647979
0.695205
0.738554
0.772547
0.798786
0.819554
0.834929
0.843822
0.846779
0.847089
0.846878
0.846687
0.324064
0.341932
0.368042
0.403622
0.444585
0.488447
0.535047
0.584397
0.63638
0.690704
0.739943
0.778288
0.807797
0.830746
0.846727
0.854546
0.856481
0.856521
0.85635
0.856236
0.248303
0.270177
0.304674
0.349873
0.400441
0.45358
0.508869
0.566258
0.625607
0.686641
0.741283
0.7835
0.815825
0.840464
0.856342
0.862832
0.864033
0.863988
0.863862
0.863782
0.185874
0.210197
0.250455
0.302552
0.360608
0.42146
0.484373
0.549083
0.615254
0.682504
0.742097
0.787804
0.822537
0.848373
0.863928
0.86949
0.870334
0.870265
0.870162
0.870098
0.133854
0.159675
0.204107
0.261546
0.325561
0.392711
0.462057
0.533155
0.605444
0.678362
0.742479
0.791357
0.828262
0.855123
0.87031
0.87515
0.875778
0.875694
0.875606
0.875546
0.0896585
0.116364
0.163881
0.225632
0.294626
0.367112
0.441979
0.518664
0.59641
0.674463
0.742704
0.794453
0.833308
0.861006
0.87578
0.880085
0.880575
0.880478
0.880393
0.880334
0.051206
0.0784842
0.1284
0.193718
0.266956
0.344082
0.42383
0.505519
0.588218
0.670961
0.742957
0.797277
0.837799
0.866124
0.880494
0.884403
0.884801
0.884686
0.884597
0.884534
0.0169831
0.0446908
0.0965682
0.164923
0.241842
0.323051
0.407188
0.493458
0.580751
0.667867
0.743301
0.799885
0.841791
0.870528
0.884501
0.888118
0.888456
0.888328
0.888233
0.888162
-0.0140718
0.0140064
0.0675362
0.138546
0.218715
0.303563
0.391681
0.482188
0.573821
0.665099
0.743765
0.802363
0.84538
0.874307
0.887847
0.891237
0.891549
0.89143
0.891337
0.891256
-0.04281
-0.0143589
0.040645
0.114053
0.197119
0.285243
0.377
0.471464
0.567241
0.662576
0.74438
0.804831
0.848715
0.877601
0.890646
0.893844
0.894165
0.894088
0.894015
0.893929
-0.0696674
-0.04089
0.0154547
0.091015
0.176696
0.267796
0.362906
0.461084
0.56086
0.66024
0.745207
0.807437
0.851997
0.880631
0.89311
0.896123
0.896483
0.896484
0.896455
0.896367
-0.095176
-0.0659965
-0.00841605
0.0691143
0.157168
0.250983
0.349202
0.450884
0.554539
0.658016
0.746304
0.810354
0.855463
0.883669
0.895512
0.898332
0.898742
0.898845
0.898877
0.898797
-0.119516
-0.089938
-0.0312013
0.0481244
0.138331
0.234633
0.335734
0.440728
0.548154
0.655819
0.747707
0.813757
0.859366
0.886987
0.89812
0.900725
0.901181
0.901387
0.901486
0.90142
-0.142886
-0.112898
-0.0530845
0.0278894
0.120052
0.218624
0.322385
0.430496
0.541585
0.65353
0.749393
0.817798
0.863947
0.890816
0.901133
0.903479
0.903969
0.904258
0.904415
0.904365
-0.165432
-0.134989
-0.0741728
0.0083125
0.102231
0.202871
0.30908
0.420107
0.534723
0.651006
0.751272
0.822585
0.869476
0.895408
0.904644
0.906643
0.907168
0.907518
0.907699
0.907656
-0.187273
-0.156336
-0.0945207
-0.0106674
0.084825
0.187321
0.29577
0.409498
0.527475
0.648095
0.753185
0.828147
0.876248
0.901055
0.90873
0.910092
0.910655
0.911115
0.911317
0.911256
-0.208322
-0.17692
-0.114158
-0.0290968
0.0678017
0.171967
0.282427
0.39864
0.519777
0.64467
0.754923
0.834392
0.884535
0.908289
0.913708
0.913709
0.914111
0.91494
0.915419
0.915346
-0.228604
-0.196766
-0.133123
-0.0469868
0.0511595
0.156805
0.269068
0.387517
0.51159
0.640602
0.756257
0.841108
0.894483
0.917834
0.920538
0.918041
0.917555
0.919078
0.920645
0.920908
-0.248211
-0.215876
-0.151438
-0.0643469
0.034915
0.141864
0.255717
0.37615
0.502897
0.635801
0.756929
0.847974
0.905997
0.930304
0.930772
0.925085
0.922632
0.924801
0.928533
0.930297
-0.267033
-0.234256
-0.169082
-0.0811464
0.0190865
0.127185
0.242419
0.364581
0.493716
0.630216
0.756695
0.854557
0.918678
0.945747
0.945564
0.937293
0.932014
0.932475
0.936679
0.93912
-0.285175
-0.251945
-0.186082
-0.0974405
0.00361644
0.112707
0.229102
0.352729
0.483945
0.623726
0.755314
0.860467
0.93213
0.963804
0.964994
0.955709
0.947032
0.940115
0.93283
0.936927
-0.302593
-0.269012
-0.202589
-0.113431
-0.0117922
0.0981096
0.215367
0.34014
0.473092
0.615787
0.752256
0.86513
0.946241
0.984509
0.988615
0.979787
0.966305
0.950789
0.927465
0.931764
-0.319183
-0.285462
-0.218464
-0.128944
-0.0268981
0.0836676
0.201379
0.327079
0.461356
0.606462
0.747204
0.867237
0.959238
1.00581
1.01211
1.00206
0.984063
0.951016
0.896047
0.873828
-0.334856
-0.302347
-0.233305
-0.143552
-0.0408974
0.069868
0.187412
0.313811
0.448994
0.595865
0.740021
0.865787
0.968903
1.02521
1.02846
1.01231
0.980949
0.920792
0.858678
0.821438
-0.376628
-0.319048
-0.246823
-0.158238
-0.0545704
0.0556926
0.173612
0.300189
0.435748
0.583537
0.730019
0.859579
0.971344
1.03596
1.03464
0.99573
0.928096
0.852056
0.78019
0.740462
-0.349544
-0.330479
-0.267319
-0.178097
-0.0758365
0.034355
0.151827
0.278216
0.41368
0.561584
0.709058
0.840486
0.947741
1.01981
0.982329
0.848882
0.743881
0.670985
0.601561
0.620745
-0.379192
-0.346973
-0.28292
-0.194093
-0.0921701
0.0179676
0.135816
0.261828
0.396733
0.543704
0.689752
0.818625
0.914283
0.955339
0.879585
0.718883
0.595872
0.512907
0.425496
0.462379
-0.401749
-0.367245
-0.301489
-0.212592
-0.110691
-0.000474498
0.117411
0.242855
0.376746
0.521878
0.664726
0.787714
0.871247
0.87336
0.742947
0.571342
0.430277
0.328399
0.228353
0.251406
-0.423469
-0.388017
-0.320969
-0.231448
-0.129452
-0.019291
0.0981769
0.222818
0.355357
0.49799
0.63614
0.749332
0.81468
0.782381
0.602407
0.412584
0.243668
0.103188
-0.0258093
-0.0224018
-0.444759
-0.409022
-0.341153
-0.251087
-0.148964
-0.0389955
0.0778627
0.201481
0.332258
0.471736
0.603767
0.70637
0.749806
0.664785
0.463328
0.256006
0.0631549
-0.0949849
-0.300969
-0.381885
-0.46631
-0.430742
-0.362444
-0.272031
-0.169787
-0.0600095
0.0562548
0.178735
0.307492
0.443296
0.568214
0.660967
0.674621
0.538722
0.335323
0.118383
-0.0782511
-0.241257
-0.363881
-0.475879
-0.489179
-0.45365
-0.385194
-0.294662
-0.192458
-0.0830074
0.0325189
0.15361
0.279875
0.411199
0.528222
0.606745
0.590761
0.418624
0.214903
0.00461072
-0.175107
-0.273661
-0.299409
-0.312348
-0.513515
-0.478042
-0.409529
-0.319064
-0.217123
-0.108216
0.00626824
0.12557
0.248755
0.374621
0.482737
0.541757
0.503594
0.303011
0.101849
-0.0878529
-0.223853
-0.262286
-0.270572
-0.270931
-0.539614
-0.504052
-0.435492
-0.345227
-0.243733
-0.135654
-0.02254
0.0945349
0.214029
0.333541
0.431962
0.472752
0.397434
0.196597
0.00246956
-0.162392
-0.238596
-0.252637
-0.253605
-0.253478
-0.567478
-0.531713
-0.463112
-0.373159
-0.272318
-0.165328
-0.0539364
0.0604613
0.17569
0.288064
0.375739
0.398765
0.284626
0.0995267
-0.0833439
-0.213897
-0.243001
-0.243579
-0.244086
-0.243679
-0.596863
-0.560876
-0.492303
-0.402794
-0.302809
-0.197207
-0.0879183
0.0233508
0.133788
0.238315
0.315104
0.317311
0.185264
0.0112349
-0.15022
-0.225708
-0.240372
-0.238278
-0.23795
-0.237545
-0.627224
-0.591197
-0.522811
-0.433913
-0.335034
-0.231148
-0.124352
-0.0166904
0.0885554
0.18484
0.250295
0.235657
0.0947516
-0.0657483
-0.194928
-0.234115
-0.233433
-0.233815
-0.233541
-0.233216
-0.658118
-0.622153
-0.554159
-0.466111
-0.368652
-0.266839
-0.162962
-0.0593861
0.0403029
0.128642
0.180415
0.158962
0.0141798
-0.126062
-0.220709
-0.229136
-0.2306
-0.230918
-0.230825
-0.230631
-0.688565
-0.652885
-0.585634
-0.498766
-0.403119
-0.303806
-0.203281
-0.104234
-0.0105296
0.0706131
0.11101
0.0820445
-0.0538892
-0.168013
-0.225246
-0.235371
-0.230024
-0.228995
-0.228628
-0.228457
-0.71696
-0.682135
-0.616211
-0.531002
-0.437663
-0.341342
-0.244632
-0.150477
-0.0631303
0.0112387
0.0467839
0.00372569
-0.108699
-0.199968
-0.223001
-0.226505
-0.227268
-0.226808
-0.226614
-0.226491
-0.742037
-0.708416
-0.644512
-0.561629
-0.471228
-0.378504
-0.286126
-0.197174
-0.116215
-0.0489179
-0.0156951
-0.0634114
-0.150067
-0.21864
-0.239659
-0.230017
-0.226582
-0.225495
-0.225183
-0.225028
-0.761212
-0.729648
-0.6688
-0.589144
-0.50251
-0.414109
-0.326645
-0.243238
-0.16846
-0.108028
-0.0776408
-0.115879
-0.177482
-0.222302
-0.227725
-0.22713
-0.225534
-0.224924
-0.2247
-0.224524
-0.772506
-0.743781
-0.687037
-0.611828
-0.529995
-0.446775
-0.364867
-0.287399
-0.218747
-0.163464
-0.134235
-0.159616
-0.193783
-0.220318
-0.220114
-0.223613
-0.225081
-0.225201
-0.225143
-0.225049
-0.77327
-0.748482
-0.697169
-0.627861
-0.552069
-0.475045
-0.399371
-0.328166
-0.265838
-0.21455
-0.181488
-0.198918
-0.20722
-0.221926
-0.22457
-0.225123
-0.225857
-0.226133
-0.226229
-0.226237
-0.761127
-0.741099
-0.69708
-0.635532
-0.567284
-0.497555
-0.428831
-0.364029
-0.307944
-0.262467
-0.217106
-0.235255
-0.221663
-0.228929
-0.230791
-0.229083
-0.228546
-0.22881
-0.229079
-0.229117
-0.734089
-0.719495
-0.685003
-0.63366
-0.574613
-0.513335
-0.452224
-0.39391
-0.343289
-0.305387
-0.257354
-0.251727
-0.242908
-0.245424
-0.239265
-0.237285
-0.235679
-0.23573
-0.236035
-0.236071
-0.695636
-0.68635
-0.662229
-0.622577
-0.574121
-0.522141
-0.469001
-0.417213
-0.371372
-0.338969
-0.307423
-0.280024
-0.253696
-0.259134
-0.264545
-0.255928
-0.250118
-0.248742
-0.249035
-0.249021
-0.652786
-0.647487
-0.633658
-0.605392
-0.567915
-0.524846
-0.479284
-0.43358
-0.391617
-0.3605
-0.332385
-0.305095
-0.272106
-0.248135
-0.229389
-0.235724
-0.257568
-0.270555
-0.274296
-0.274514
-0.615211
-0.611965
-0.605343
-0.587368
-0.558831
-0.523275
-0.484065
-0.443011
-0.403013
-0.370244
-0.344291
-0.326142
-0.314078
-0.319892
-0.3422
-0.375819
-0.38166
-0.352978
-0.337216
-0.339533
-0.588141
-0.586217
-0.582869
-0.572241
-0.550487
-0.520484
-0.485323
-0.446439
-0.40626
-0.369875
-0.341827
-0.334477
-0.368806
-0.435878
-0.510424
-0.554795
-0.562298
-0.527651
-0.480148
-0.464156
-0.568302
-0.567625
-0.566503
-0.561251
-0.54535
-0.518975
-0.485021
-0.445884
-0.402837
-0.359661
-0.328989
-0.303861
-0.299298
-0.328227
-0.386077
-0.401226
-0.392106
-0.368572
-0.33698
-0.320302
-0.556697
-0.556476
-0.555869
-0.553472
-0.542692
-0.518472
-0.484161
-0.442911
-0.395191
-0.342429
-0.298172
-0.236856
-0.164063
-0.105752
-0.0845772
-0.0714968
-0.0339188
0.00744478
0.0438989
0.0618195
-0.54866
-0.548516
-0.548114
-0.547443
-0.54088
-0.519109
-0.483788
-0.439038
-0.385595
-0.321138
-0.254762
-0.169962
-0.0318143
0.139273
0.302383
0.435872
0.529059
0.59073
0.626964
0.641742
-0.543408
-0.543365
-0.543245
-0.543082
-0.539199
-0.52092
-0.484631
-0.435602
-0.376203
-0.301066
-0.216133
-0.120418
0.0646746
0.328325
0.606481
0.852734
1.02541
1.116
1.14909
1.15842
-0.539155
-0.539146
-0.539065
-0.538948
-0.537546
-0.523191
-0.486834
-0.434075
-0.369017
-0.28651
-0.190235
-0.0867151
0.109112
0.398487
0.714122
1.00223
1.21767
1.33149
1.37206
1.38291
-0.535609
-0.535608
-0.535487
-0.53522
-0.535003
-0.525064
-0.490359
-0.435499
-0.366313
-0.279912
-0.17896
-0.0744629
0.10511
0.380593
0.681186
0.957702
1.17078
1.28986
1.33753
1.35094
-0.532981
-0.533012
-0.533023
-0.533046
-0.533485
-0.526543
-0.495114
-0.439665
-0.368779
-0.28187
-0.182851
-0.085221
0.0642971
0.3101
0.571399
0.805594
0.99408
1.1077
1.15411
1.16605
-0.53023
-0.530375
-0.530721
-0.531351
-0.531875
-0.528139
-0.500087
-0.446181
-0.376131
-0.29164
-0.199545
-0.1131
0.000295989
0.204795
0.423944
0.609619
0.758869
0.850555
0.887584
0.896298
-0.527253
-0.527446
-0.527704
-0.528015
-0.528353
-0.526886
-0.50362
-0.453717
-0.387442
-0.30792
-0.22359
-0.149059
-0.0641558
0.0950684
0.267484
0.407713
0.518253
0.585548
0.610825
0.615718
-0.525318
-0.525392
-0.525187
-0.52441
-0.523451
-0.522372
-0.505046
-0.461934
-0.401618
-0.327167
-0.252042
-0.188277
-0.126926
-0.00702051
0.122914
0.224423
0.300704
0.346204
0.362876
0.365171
-0.526091
-0.525938
-0.525125
-0.522919
-0.519501
-0.517499
-0.507079
-0.471934
-0.416608
-0.347809
-0.281528
-0.227337
-0.179743
-0.0941803
0.000767516
0.0720393
0.123158
0.151314
0.160931
0.162237
-0.53102
-0.530868
-0.530267
-0.528704
-0.525807
-0.523571
-0.517014
-0.485832
-0.431225
-0.367682
-0.310839
-0.263217
-0.224567
-0.160535
-0.0936546
-0.0464202
-0.0139823
0.00330245
0.00933402
0.0101973
-0.538116
-0.538545
-0.540116
-0.54438
-0.55059
-0.552965
-0.542916
-0.503915
-0.44501
-0.388123
-0.338677
-0.294985
-0.26506
-0.217679
-0.165889
-0.130992
-0.109181
-0.097435
-0.0935254
-0.0929369
-0.541445
-0.542618
-0.547005
-0.559681
-0.579605
-0.588288
-0.570879
-0.517006
-0.457507
-0.408396
-0.360804
-0.321985
-0.297116
-0.259655
-0.218488
-0.189796
-0.170028
-0.159336
-0.155556
-0.155334
-0.54015
-0.541169
-0.545021
-0.555455
-0.574809
-0.588109
-0.562303
-0.512419
-0.466657
-0.423602
-0.377412
-0.343119
-0.324589
-0.290225
-0.251994
-0.225436
-0.206392
-0.19555
-0.192121
-0.192351
-0.542636
-0.543143
-0.543774
-0.536291
-0.514607
-0.498877
-0.499878
-0.487577
-0.468199
-0.429935
-0.386868
-0.359081
-0.343441
-0.312516
-0.277066
-0.250538
-0.230712
-0.219603
-0.21628
-0.216775
-0.552407
-0.552087
-0.548813
-0.524153
-0.46927
-0.427065
-0.440787
-0.468571
-0.4668
-0.431054
-0.391497
-0.368564
-0.353774
-0.322181
-0.289397
-0.265107
-0.246767
-0.236652
-0.233547
-0.23412
-0.572607
-0.570194
-0.566285
-0.549294
-0.5123
-0.476994
-0.481248
-0.502685
-0.485716
-0.434919
-0.393165
-0.370708
-0.353589
-0.322677
-0.29191
-0.269752
-0.254122
-0.246166
-0.243564
-0.244073
-0.634163
-0.634798
-0.652727
-0.67921
-0.687198
-0.664509
-0.633309
-0.586091
-0.515859
-0.438824
-0.392366
-0.36446
-0.340686
-0.312121
-0.285385
-0.265531
-0.252104
-0.245106
-0.242699
-0.24309
-0.74349
-0.754838
-0.789256
-0.827871
-0.841959
-0.821123
-0.765745
-0.666367
-0.539842
-0.439025
-0.385001
-0.34623
-0.319766
-0.29207
-0.266056
-0.247729
-0.235895
-0.22974
-0.227565
-0.227901
-0.818417
-0.832327
-0.860662
-0.88743
-0.899138
-0.879129
-0.811997
-0.677028
-0.529432
-0.424925
-0.35921
-0.315393
-0.291273
-0.263434
-0.237143
-0.218482
-0.205956
-0.199353
-0.197228
-0.197716
-0.798063
-0.807209
-0.826408
-0.846797
-0.858006
-0.84152
-0.770976
-0.619869
-0.479577
-0.381872
-0.311015
-0.274383
-0.253189
-0.224818
-0.198526
-0.17927
-0.16584
-0.158453
-0.1565
-0.157197
-0.679647
-0.688427
-0.704905
-0.724137
-0.736912
-0.722588
-0.651032
-0.517822
-0.402495
-0.308744
-0.248083
-0.222733
-0.204259
-0.177354
-0.152931
-0.134257
-0.120281
-0.112883
-0.111429
-0.112377
-0.490586
-0.501167
-0.520417
-0.543583
-0.559547
-0.544019
-0.472773
-0.375641
-0.289911
-0.216936
-0.179591
-0.160515
-0.146569
-0.125971
-0.105625
-0.0888214
-0.0760442
-0.0698553
-0.0692947
-0.0704221
-0.244408
-0.2562
-0.281008
-0.311304
-0.328185
-0.311976
-0.261583
-0.204151
-0.153219
-0.119939
-0.102315
-0.0897554
-0.0861446
-0.0716717
-0.0579461
-0.0467807
-0.0377796
-0.0339449
-0.0343768
-0.035513
0.0112163
-0.00689768
-0.0408991
-0.0615123
-0.0680388
-0.0664294
-0.0592267
-0.0473147
-0.035432
-0.0279541
-0.0236619
-0.0184411
-0.0182405
-0.0167286
-0.0124046
-0.0127285
-0.0121649
-0.0120703
-0.0100204
-0.00909052
0.100216
0.282163
0.447957
0.587164
0.696338
0.780245
0.848739
0.90421
0.917271
0.914703
0.374475
0.490154
0.598134
0.690579
0.767328
0.829871
0.878836
0.911905
0.92972
0.946851
0.559758
0.636309
0.711862
0.777739
0.833466
0.879515
0.91589
0.943918
0.965075
0.984405
0.697171
0.751733
0.806462
0.855453
0.897669
0.933644
0.963986
0.989548
1.00928
1.02819
0.809045
0.850253
0.891
0.929227
0.963461
0.993826
1.02046
1.04317
1.06086
1.07896
0.902717
0.937114
0.970913
1.00337
1.03338
1.06063
1.0848
1.1052
1.12071
1.13821
0.988855
1.02002
1.05141
1.08182
1.11016
1.13598
1.15867
1.17731
1.19102
1.20802
1.07441
1.10652
1.13842
1.16917
1.19755
1.223
1.24485
1.26216
1.27439
1.29089
1.16798
1.20422
1.23871
1.27088
1.29979
1.3249
1.34582
1.36195
1.37345
1.38955
1.28067
1.32138
1.35816
1.39081
1.41907
1.44289
1.46237
1.47755
1.48935
1.50539
1.42205
1.46285
1.49797
1.52737
1.55243
1.57394
1.59236
1.60778
1.62084
1.63677
1.59327
1.62516
1.6521
1.67443
1.69446
1.71313
1.73083
1.74756
1.76244
1.77815
1.77926
1.79644
1.8135
1.83017
1.84624
1.86096
1.87484
1.8893
1.90451
1.92181
1.96263
1.97252
1.98567
1.99664
2.00605
2.01569
2.02628
2.03644
2.04572
2.07139
2.18039
2.17468
2.16173
2.14748
2.14117
2.14686
2.16499
2.19351
2.22728
2.2636
2.48322
2.34727
2.26775
2.22518
2.20784
2.21184
2.23926
2.29712
2.40477
2.58318
0.891934
0.885633
0.877906
0.866797
0.853234
0.840598
0.830219
0.822233
0.816553
0.813275
0.812992
0.81589
0.821176
0.828573
0.838151
0.850001
0.863577
0.876516
0.885512
0.893057
0.800985
0.806906
0.814983
0.821122
0.824201
0.823702
0.820636
0.816669
0.813121
0.810894
0.810832
0.813157
0.816969
0.821458
0.825591
0.827859
0.826802
0.822178
0.81513
0.8073
0.794204
0.796577
0.79985
0.802632
0.805094
0.8073
0.808502
0.808388
0.807496
0.806753
0.807049
0.808546
0.810393
0.811671
0.811634
0.810195
0.808057
0.80571
0.802739
0.799725
0.789372
0.790461
0.792384
0.794732
0.796619
0.798038
0.799283
0.800314
0.800967
0.801418
0.802068
0.802906
0.80345
0.80339
0.802807
0.801918
0.800612
0.798662
0.796567
0.795094
0.784292
0.784925
0.78606
0.787832
0.789694
0.791311
0.792595
0.793704
0.794749
0.795734
0.796633
0.797266
0.797495
0.797359
0.796877
0.795945
0.794549
0.792963
0.791641
0.790843
0.779294
0.779733
0.780528
0.781848
0.783393
0.784986
0.786503
0.787853
0.789083
0.790274
0.791361
0.792098
0.792388
0.792239
0.791642
0.790695
0.789582
0.788468
0.787583
0.787053
0.774369
0.774695
0.775315
0.776403
0.777727
0.779162
0.780689
0.782228
0.783708
0.785135
0.786442
0.787351
0.787713
0.787575
0.787062
0.786344
0.785549
0.784732
0.784092
0.783704
0.769486
0.769739
0.770241
0.771174
0.77238
0.773731
0.775211
0.776816
0.778502
0.780211
0.781801
0.782918
0.783427
0.78346
0.783184
0.78272
0.782151
0.78157
0.781114
0.780818
0.764573
0.764773
0.765192
0.766019
0.767153
0.768467
0.769944
0.77161
0.773458
0.775444
0.777368
0.778792
0.779576
0.779886
0.779876
0.779661
0.779314
0.778937
0.778625
0.778393
0.759538
0.759698
0.76006
0.760818
0.761913
0.763219
0.764741
0.76651
0.768543
0.770824
0.773145
0.774985
0.776143
0.776786
0.777066
0.777108
0.776997
0.77681
0.776617
0.776432
0.754289
0.754418
0.754739
0.755456
0.756543
0.757887
0.759493
0.761415
0.763692
0.766335
0.769141
0.771493
0.773101
0.77413
0.774741
0.775066
0.775191
0.775191
0.775104
0.774955
0.748729
0.748832
0.749126
0.749829
0.750944
0.75237
0.754108
0.756239
0.758834
0.761933
0.765334
0.768302
0.770441
0.77192
0.772908
0.773543
0.773935
0.774121
0.774124
0.774001
0.742754
0.742835
0.743113
0.743827
0.745006
0.746556
0.748484
0.750895
0.753895
0.757563
0.761689
0.765398
0.768168
0.770171
0.771596
0.772604
0.773277
0.773648
0.773734
0.773633
0.736243
0.736304
0.736577
0.737323
0.738604
0.740327
0.742509
0.745284
0.748795
0.753162
0.758169
0.762768
0.766292
0.768917
0.770845
0.772268
0.773265
0.77384
0.774008
0.773922
0.729056
0.729094
0.729371
0.730174
0.731594
0.733546
0.736059
0.739296
0.743442
0.748665
0.75474
0.760407
0.764826
0.768187
0.770714
0.772616
0.773986
0.774783
0.775031
0.774956
0.72102
0.721038
0.72132
0.722201
0.723804
0.726051
0.728984
0.732799
0.737731
0.744003
0.751366
0.758309
0.76379
0.768019
0.771257
0.773737
0.775532
0.776568
0.776895
0.776827
0.711877
0.711885
0.712193
0.71318
0.715022
0.717642
0.721102
0.725639
0.731544
0.739096
0.748012
0.756474
0.76321
0.768461
0.772536
0.775706
0.77799
0.779289
0.779692
0.779627
0.701365
0.701346
0.701695
0.702832
0.704974
0.708067
0.712192
0.717631
0.72474
0.733857
0.744641
0.754901
0.763115
0.769569
0.774632
0.778596
0.781447
0.783027
0.783503
0.783435
0.689096
0.689057
0.689457
0.690785
0.693308
0.697008
0.701977
0.708554
0.717163
0.728196
0.741221
0.753598
0.763534
0.771386
0.777606
0.782485
0.785973
0.787844
0.788382
0.788304
0.674558
0.674496
0.674977
0.676559
0.679573
0.68406
0.690117
0.698146
0.708638
0.722023
0.73773
0.752581
0.764491
0.773943
0.781505
0.787421
0.791601
0.793756
0.794336
0.794241
0.657028
0.656944
0.657555
0.659494
0.663166
0.668698
0.676189
0.686105
0.69899
0.715272
0.734164
0.751873
0.766021
0.777283
0.786325
0.793404
0.79831
0.800709
0.801299
0.801179
0.63547
0.635369
0.636191
0.638654
0.643252
0.650232
0.65968
0.67211
0.688072
0.70792
0.730562
0.75151
0.768154
0.781405
0.792068
0.8004
0.805999
0.808558
0.809112
0.808961
0.60831
0.608211
0.609388
0.612662
0.618679
0.627777
0.640012
0.655873
0.675814
0.700025
0.727012
0.751559
0.770911
0.786304
0.798693
0.808294
0.814458
0.817042
0.817507
0.817321
0.572995
0.572954
0.574778
0.579463
0.587864
0.600315
0.616668
0.637258
0.662305
0.691754
0.723671
0.752121
0.774329
0.791953
0.806109
0.816887
0.823368
0.825787
0.826109
0.825892
0.524992
0.52519
0.528453
0.536121
0.548983
0.566973
0.58947
0.616462
0.647868
0.683407
0.720749
0.75333
0.77846
0.798303
0.814186
0.825897
0.832292
0.834326
0.834476
0.834242
0.455801
0.457317
0.465296
0.479875
0.501006
0.527846
0.559027
0.594173
0.633074
0.675387
0.718477
0.755281
0.783333
0.80528
0.822635
0.834821
0.840656
0.842126
0.842119
0.841899
0.373103
0.376027
0.391604
0.416875
0.449373
0.486626
0.527167
0.570859
0.617617
0.667195
0.716713
0.758507
0.790202
0.814827
0.833641
0.845681
0.85066
0.85164
0.851583
0.851454
0.288199
0.29581
0.319264
0.355203
0.398654
0.44611
0.495999
0.548256
0.602869
0.659656
0.715525
0.762212
0.797407
0.824657
0.84478
0.856132
0.859739
0.860167
0.860079
0.860004
0.218467
0.228291
0.256716
0.300202
0.352212
0.408271
0.466553
0.526802
0.588856
0.652439
0.714192
0.765303
0.803593
0.832888
0.853595
0.86405
0.86684
0.86709
0.867014
0.866967
0.161125
0.171719
0.203938
0.253
0.311459
0.374352
0.439631
0.50684
0.575583
0.645391
0.712539
0.76769
0.808754
0.839794
0.860858
0.870561
0.872805
0.872955
0.872893
0.872862
0.112931
0.123905
0.158743
0.212133
0.275823
0.344351
0.415492
0.488674
0.563308
0.638719
0.71079
0.769613
0.813196
0.845801
0.867091
0.876122
0.877993
0.878084
0.878027
0.878003
0.071467
0.082608
0.119391
0.176239
0.244276
0.317616
0.393839
0.472261
0.552149
0.632623
0.709175
0.771334
0.817168
0.851095
0.872465
0.880944
0.882563
0.882608
0.882546
0.882522
0.0350152
0.0462113
0.0845079
0.144211
0.215943
0.293451
0.37417
0.45731
0.541995
0.627132
0.707804
0.772965
0.82075
0.855748
0.877084
0.885103
0.886549
0.886558
0.886486
0.886457
0.00231385
0.0135232
0.0530132
0.115171
0.190112
0.271288
0.356026
0.443472
0.532613
0.622143
0.706675
0.774559
0.824009
0.859808
0.880999
0.888617
0.889949
0.889941
0.889867
0.889831
-0.027672
-0.0164334
0.0241069
0.0884373
0.16623
0.250669
0.339032
0.43044
0.52377
0.617512
0.705762
0.776189
0.827066
0.863402
0.884298
0.891539
0.892795
0.892802
0.892748
0.892714
-0.0555293
-0.0442529
-0.00278069
0.0635032
0.143846
0.231223
0.322891
0.417968
0.515265
0.61311
0.705049
0.777952
0.830079
0.866712
0.887159
0.894015
0.895221
0.895281
0.895278
0.895256
-0.0817555
-0.0704311
-0.0280923
0.0399701
0.122618
0.21266
0.30736
0.405855
0.506938
0.608827
0.704536
0.779967
0.833249
0.869978
0.889835
0.89628
0.89745
0.897592
0.897666
0.897672
-0.106755
-0.0952962
-0.052151
0.0175537
0.102295
0.194756
0.29225
0.393946
0.498645
0.604554
0.704206
0.782348
0.836795
0.873468
0.892611
0.898613
0.899738
0.899973
0.900137
0.900182
-0.130681
-0.119068
-0.0751569
-0.00395178
0.0826931
0.177364
0.277423
0.382105
0.490263
0.60016
0.703994
0.785195
0.840931
0.877435
0.895728
0.901242
0.902305
0.902622
0.90287
0.902955
-0.153746
-0.141929
-0.0972862
-0.0246741
0.0636955
0.160367
0.262778
0.370236
0.481685
0.59553
0.703785
0.788542
0.845868
0.882139
0.899386
0.90429
0.905273
0.905657
0.90596
0.906074
-0.175968
-0.163965
-0.118624
-0.0446937
0.0452284
0.143702
0.248258
0.358275
0.472827
0.590533
0.703426
0.792343
0.851806
0.887883
0.903741
0.907761
0.908609
0.909081
0.909411
0.909524
-0.197475
-0.18524
-0.139187
-0.0640537
0.0272438
0.12733
0.233824
0.346186
0.46363
0.585062
0.702739
0.79646
0.858877
0.89505
0.909097
0.911609
0.912065
0.912703
0.913189
0.913326
-0.218145
-0.205765
-0.159012
-0.0827949
0.00972777
0.111259
0.219469
0.333952
0.454062
0.579038
0.701539
0.800678
0.867084
0.904122
0.916137
0.916209
0.915497
0.91629
0.917477
0.917983
-0.23815
-0.225547
-0.178117
-0.100942
-0.00733671
0.095476
0.205223
0.321578
0.44411
0.572413
0.699652
0.804709
0.876262
0.915441
0.925971
0.922972
0.919894
0.920364
0.922997
0.924792
-0.25738
-0.244554
-0.196527
-0.118486
-0.0239085
0.0800202
0.191119
0.309121
0.433796
0.565132
0.69693
0.808217
0.886057
0.929011
0.93949
0.933934
0.92784
0.926987
0.931011
0.93546
-0.275927
-0.262882
-0.214217
-0.135398
-0.0399846
0.0649228
0.177202
0.296612
0.423157
0.557223
0.693263
0.810825
0.895936
0.944327
0.956685
0.950246
0.941566
0.937208
0.935596
0.931356
-0.293717
-0.280517
-0.231282
-0.151858
-0.0557922
0.0499068
0.163152
0.283673
0.411798
0.548267
0.688272
0.812187
0.905807
0.961588
0.977784
0.97238
0.96199
0.950583
0.938166
0.938844
-0.310751
-0.297557
-0.247753
-0.167823
-0.0713376
0.0349898
0.148977
0.270256
0.399638
0.538062
0.681609
0.811505
0.914456
0.979705
1.00077
0.997255
0.983999
0.969501
0.93252
0.895735
-0.326852
-0.313874
-0.263624
-0.183173
-0.0866412
0.020147
0.134647
0.256459
0.38669
0.526547
0.672993
0.808032
0.919962
0.996651
1.02288
1.01733
0.999498
0.965528
0.911032
0.859096