/*--------------------------------*- C++ -*----------------------------------*\
  =========                 |
  \\      /  F ield         | OpenFOAM: The Open Source CFD Toolbox
   \\    /   O peration     | Website:  https://openfoam.org
    \\  /    A nd           | Version:  6
     \\/     M anipulation  |
\*---------------------------------------------------------------------------*/
FoamFile
{
    version     2.0;
    format      ascii;
    class       volVectorField;
    location    "28";
    object      U;
}
// * * * * * * * * * * * * * * * * * * * * * * * * * * * * * * * * * * * * * //

dimensions      [0 1 -1 0 0 0 0];

internalField   nonuniform List<vector> 
8800
(
(0.98719 -0.0766656 0)
(1.0019 -0.0551887 0)
(0.999752 -0.0285457 0)
(1.00004 -0.0151389 0)
(1.00005 -0.008535 0)
(1.00003 -0.00503153 0)
(1.00001 -0.00299308 0)
(1.00001 -0.00170684 0)
(1 -0.000823609 0)
(1.00005 -0.000129079 0)
(0.999996 0.000572908 0)
(1.00001 0.00133592 0)
(1.00001 0.00237824 0)
(1.00002 0.00397045 0)
(1.00004 0.00660728 0)
(1.00006 0.0113491 0)
(0.999977 0.020794 0)
(0.999177 0.038653 0)
(1.00709 0.0724498 0)
(0.771217 0.0366596 0)
(0.363047 -0.0160191 0)
(1.04329 -0.0768277 0)
(1.08461 -0.0704684 0)
(1.04522 -0.0535692 0)
(1.02326 -0.0389118 0)
(1.0119 -0.0262207 0)
(1.00627 -0.0168644 0)
(1.00348 -0.0103784 0)
(1.00209 -0.00578138 0)
(1.00142 -0.00217928 0)
(1.00129 0.00112234 0)
(1.00167 0.00449236 0)
(1.00263 0.00841711 0)
(1.00459 0.013765 0)
(1.00856 0.0214972 0)
(1.01659 0.0324958 0)
(1.03258 0.0464438 0)
(1.06275 0.0615892 0)
(1.0919 0.0760375 0)
(0.838766 0.0565373 0)
(0.216786 -0.00243115 0)
(1.07586 -0.0501639 0)
(1.09987 -0.0483594 0)
(1.06459 -0.0405307 0)
(1.03989 -0.0336933 0)
(1.02372 -0.0262 0)
(1.01396 -0.0186551 0)
(1.00844 -0.0118743 0)
(1.00552 -0.00604482 0)
(1.00432 -0.000715617 0)
(1.00469 0.00445718 0)
(1.00662 0.00986826 0)
(1.01061 0.0160202 0)
(1.01794 0.0231068 0)
(1.03056 0.0306061 0)
(1.05071 0.0376587 0)
(1.08049 0.0443635 0)
(1.10643 0.0512111 0)
(0.942805 0.0415487 0)
(0.216341 0.00245137 0)
(0.175089 -0.000816875 0)
(1.01761 -0.0355069 0)
(1.10517 -0.0414152 0)
(1.07819 -0.0360911 0)
(1.05328 -0.0301364 0)
(1.03592 -0.0245704 0)
(1.02373 -0.0189516 0)
(1.01569 -0.0130175 0)
(1.01093 -0.00693898 0)
(1.00881 -0.000693035 0)
(1.00943 0.0055182 0)
(1.01271 0.0114943 0)
(1.01888 0.0173296 0)
(1.02879 0.0229099 0)
(1.04331 0.0282477 0)
(1.06393 0.0338072 0)
(1.09383 0.0398768 0)
(1.09379 0.0417269 0)
(0.827818 0.022808 0)
(0.174342 0.000839996 0)
(0.153869 -0.000610336 0)
(0.956008 -0.0254684 0)
(1.10333 -0.0351684 0)
(1.08751 -0.0327433 0)
(1.06141 -0.0281561 0)
(1.04373 -0.023174 0)
(1.03127 -0.0179761 0)
(1.02247 -0.012547 0)
(1.01675 -0.00674386 0)
(1.01403 -0.000412927 0)
(1.01478 0.00591645 0)
(1.0188 0.0117645 0)
(1.02585 0.0171004 0)
(1.03619 0.0221397 0)
(1.05085 0.0269949 0)
(1.07216 0.0315658 0)
(1.10047 0.0355329 0)
(1.06877 0.0336897 0)
(0.740781 0.0141664 0)
(0.152748 0.000636695 0)
(0.139496 -0.000465374 0)
(0.899107 -0.0190629 0)
(1.0956 -0.0300637 0)
(1.09545 -0.0291466 0)
(1.0688 -0.0254007 0)
(1.05033 -0.0213527 0)
(1.03746 -0.0168047 0)
(1.0284 -0.0117763 0)
(1.0224 -0.00621535 0)
(1.01943 -1.0458e-05 0)
(1.02017 0.00621567 0)
(1.02435 0.0118025 0)
(1.03154 0.0167399 0)
(1.04211 0.0211878 0)
(1.05731 0.0251645 0)
(1.07958 0.0287248 0)
(1.10289 0.0315113 0)
(1.03729 0.0276358 0)
(0.67505 0.0100101 0)
(0.13792 0.000495859 0)
(0.128972 -0.000358649 0)
(0.849578 -0.0146414 0)
(1.08315 -0.0258745 0)
(1.10111 -0.0262362 0)
(1.07555 -0.0230334 0)
(1.0564 -0.0194877 0)
(1.04302 -0.015421 0)
(1.03365 -0.0107007 0)
(1.02739 -0.00539023 0)
(1.02422 0.000512261 0)
(1.02491 0.0064064 0)
(1.02913 0.0116522 0)
(1.03646 0.0162376 0)
(1.04733 0.0202009 0)
(1.06309 0.0235938 0)
(1.08594 0.0266044 0)
(1.10237 0.0284396 0)
(1.00324 0.0229133 0)
(0.624367 0.00757139 0)
(0.126845 0.000394428 0)
(0.120995 -0.000275549 0)
(0.807728 -0.0114046 0)
(1.06777 -0.0220972 0)
(1.10425 -0.0233852 0)
(1.08145 -0.0206457 0)
(1.06205 -0.0173947 0)
(1.04836 -0.0137197 0)
(1.0386 -0.00942227 0)
(1.03206 -0.0044851 0)
(1.0287 0.00112466 0)
(1.02926 0.00672212 0)
(1.03349 0.0115331 0)
(1.041 0.0155798 0)
(1.05214 0.0189842 0)
(1.06808 0.0219361 0)
(1.09109 0.0246242 0)
(1.09889 0.0256406 0)
(0.969318 0.0190993 0)
(0.584305 0.00594157 0)
(0.1182 0.000318325 0)
(0.114888 -0.000208998 0)
(0.772877 -0.00890727 0)
(1.05124 -0.0187062 0)
(1.10656 -0.0206591 0)
(1.08702 -0.0181719 0)
(1.06709 -0.015108 0)
(1.05317 -0.0117836 0)
(1.04322 -0.00789455 0)
(1.03644 -0.00333203 0)
(1.03285 0.0018999 0)
(1.03322 0.00705193 0)
(1.03743 0.0114026 0)
(1.04496 0.0149073 0)
(1.05613 0.0178002 0)
(1.0724 0.0203614 0)
(1.09535 0.0228137 0)
(1.09318 0.0231661 0)
(0.937021 0.0159947 0)
(0.552006 0.00476361 0)
(0.111278 0.000260686 0)
(0.110242 -0.000155704 0)
(0.744214 -0.0068984 0)
(1.03431 -0.0155587 0)
(1.10769 -0.0181062 0)
(1.09219 -0.0161336 0)
(1.07193 -0.0132598 0)
(1.05775 -0.0100099 0)
(1.04772 -0.00623719 0)
(1.04079 -0.00196639 0)
(1.03697 0.00282474 0)
(1.03714 0.00746416 0)
(1.04118 0.0112965 0)
(1.04854 0.0144079 0)
(1.05969 0.0170146 0)
(1.07627 0.0193247 0)
(1.09829 0.0213281 0)
(1.0852 0.0208647 0)
(0.90703 0.0134315 0)
(0.525618 0.00387939 0)
(0.105642 0.000218479 0)
(0.106784 -0.000109123 0)
(0.721184 -0.00520642 0)
(1.01828 -0.0125845 0)
(1.10783 -0.0152948 0)
(1.09692 -0.0136564 0)
(1.0766 -0.011043 0)
(1.06221 -0.00801191 0)
(1.05193 -0.00444719 0)
(1.04477 -0.000480751 0)
(1.04067 0.00392599 0)
(1.04059 0.00816069 0)
(1.04441 0.0115137 0)
(1.05171 0.0141449 0)
(1.06293 0.0163433 0)
(1.07959 0.0181949 0)
(1.0998 0.0196885 0)
(1.07573 0.0186109 0)
(0.879934 0.0112852 0)
(0.503916 0.00318938 0)
(0.100969 0.000185734 0)
(0.104357 -6.64448e-05 0)
(0.703223 -0.00369923 0)
(1.0038 -0.00973616 0)
(1.10739 -0.0124382 0)
(1.10123 -0.0109494 0)
(1.08072 -0.00840197 0)
(1.06592 -0.00567153 0)
(1.05531 -0.00248436 0)
(1.04795 0.00119183 0)
(1.04366 0.0052509 0)
(1.04318 0.00899926 0)
(1.04664 0.0118597 0)
(1.0538 0.013883 0)
(1.06508 0.0153843 0)
(1.08202 0.0168446 0)
(1.10035 0.0180762 0)
(1.06534 0.0165223 0)
(0.855744 0.00946979 0)
(0.485977 0.00263817 0)
(0.097049 0.000161842 0)
(0.102858 -2.8929e-05 0)
(0.690086 -0.00229753 0)
(0.991449 -0.00691756 0)
(1.10657 -0.00947064 0)
(1.10531 -0.00831598 0)
(1.08479 -0.00603618 0)
(1.06979 -0.00335576 0)
(1.0591 -0.00021136 0)
(1.05135 0.00324486 0)
(1.04653 0.00691118 0)
(1.04572 0.0101626 0)
(1.04897 0.0124893 0)
(1.05584 0.014076 0)
(1.06692 0.015271 0)
(1.08406 0.0161316 0)
(1.10007 0.0167047 0)
(1.05428 0.0145092 0)
(0.834533 0.00787317 0)
(0.471239 0.00219239 0)
(0.0937033 0.000146017 0)
(0.102253 1.09542e-05 0)
(0.681541 -0.000937731 0)
(0.981567 -0.0040984 0)
(1.10522 -0.00633648 0)
(1.1086 -0.00553789 0)
(1.08861 -0.00347763 0)
(1.07342 -0.000842666 0)
(1.06251 0.00217977 0)
(1.05462 0.00546192 0)
(1.04948 0.00890824 0)
(1.04806 0.011788 0)
(1.05066 0.0135912 0)
(1.05708 0.0145694 0)
(1.06802 0.0151041 0)
(1.08489 0.015559 0)
(1.09822 0.0155006 0)
(1.04269 0.0126408 0)
(0.81619 0.00649921 0)
(0.459244 0.00182351 0)
(0.0908194 0.000132067 0)
(0.102597 6.23816e-05 0)
(0.677457 0.000300937 0)
(0.974626 -0.00135534 0)
(1.10399 -0.00294928 0)
(1.11147 -0.00210696 0)
(1.0921 -0.000153343 0)
(1.07672 0.00232905 0)
(1.06546 0.00520204 0)
(1.05705 0.00826583 0)
(1.05129 0.0113734 0)
(1.04921 0.0137752 0)
(1.0513 0.0148959 0)
(1.05744 0.0152111 0)
(1.06808 0.015186 0)
(1.08465 0.0149194 0)
(1.09521 0.0142435 0)
(1.03107 0.0110368 0)
(0.800509 0.00545046 0)
(0.449501 0.00156477 0)
(0.0883752 0.000117525 0)
(0.10388 9.99123e-05 0)
(0.677407 0.00128605 0)
(0.970798 0.000911062 0)
(1.10357 8.34349e-06 0)
(1.1145 0.000913873 0)
(1.09569 0.00288219 0)
(1.08021 0.00548741 0)
(1.06885 0.00845573 0)
(1.06018 0.0115466 0)
(1.05382 0.0144058 0)
(1.05084 0.0162892 0)
(1.05202 0.016964 0)
(1.05733 0.0167709 0)
(1.06755 0.0160794 0)
(1.08367 0.0154114 0)
(1.09118 0.01414 0)
(1.01945 0.0103883 0)
(0.786682 0.00513079 0)
(0.440858 0.00156499 0)
(0.0861381 0.000120742 0)
(0.105822 0.000132464 0)
(0.680129 0.00200916 0)
(0.969836 0.00281582 0)
(1.10391 0.0025656 0)
(1.11758 0.00361606 0)
(1.09932 0.00570006 0)
(1.08365 0.00859359 0)
(1.07188 0.0118616 0)
(1.06254 0.0151985 0)
(1.05524 0.0181225 0)
(1.05131 0.0198273 0)
(1.05165 0.0200986 0)
(1.05631 0.0193761 0)
(1.06594 0.0182027 0)
(1.08161 0.0168692 0)
(1.08586 0.0148533 0)
(1.00756 0.0106207 0)
(0.773606 0.00545398 0)
(0.431995 0.0017686 0)
(0.0837532 0.000138663 0)
(0.108442 0.000170598 0)
(0.685705 0.00278107 0)
(0.971644 0.00451734 0)
(1.10528 0.00525656 0)
(1.12099 0.00655187 0)
(1.10343 0.00891836 0)
(1.08777 0.0122469 0)
(1.07566 0.0159562 0)
(1.06562 0.0196608 0)
(1.05722 0.0227406 0)
(1.05197 0.0242766 0)
(1.0511 0.0240374 0)
(1.05476 0.0226973 0)
(1.06369 0.0209568 0)
(1.07839 0.0189775 0)
(1.07933 0.0162836 0)
(0.995213 0.0115907 0)
(0.760175 0.00626788 0)
(0.421922 0.00209646 0)
(0.0809506 0.000167111 0)
(0.111844 0.000219905 0)
(0.693909 0.0036591 0)
(0.976335 0.00636329 0)
(1.10853 0.00826212 0)
(1.12515 0.0103831 0)
(1.10822 0.0134375 0)
(1.09241 0.0173177 0)
(1.07972 0.0214912 0)
(1.06868 0.0254296 0)
(1.05892 0.0284791 0)
(1.05204 0.0295803 0)
(1.04979 0.0287113 0)
(1.05236 0.0266912 0)
(1.06035 0.0241491 0)
(1.0741 0.0214738 0)
(1.07175 0.0182262 0)
(0.98237 0.0132845 0)
(0.745187 0.00740077 0)
(0.410057 0.00249749 0)
(0.0775978 0.000201758 0)
(0.116254 0.000287382 0)
(0.70499 0.00484526 0)
(0.984175 0.00855437 0)
(1.11453 0.0115846 0)
(1.13117 0.01489 0)
(1.11412 0.0190292 0)
(1.09779 0.0237506 0)
(1.0842 0.0284866 0)
(1.07183 0.0327007 0)
(1.06032 0.0355616 0)
(1.05153 0.0359459 0)
(1.04773 0.0341463 0)
(1.04905 0.0312365 0)
(1.05611 0.0281134 0)
(1.06878 0.0248979 0)
(1.06354 0.0213008 0)
(0.968281 0.0157319 0)
(0.727668 0.00870972 0)
(0.396112 0.00293695 0)
(0.0736015 0.000239956 0)
(0.122033 0.000382808 0)
(0.719738 0.00648931 0)
(0.994823 0.0114291 0)
(1.12309 0.0152575 0)
(1.13939 0.0195324 0)
(1.12163 0.0248604 0)
(1.10422 0.0307068 0)
(1.08925 0.0363053 0)
(1.07517 0.0411961 0)
(1.06142 0.0443057 0)
(1.05035 0.0444054 0)
(1.04467 0.0419149 0)
(1.04472 0.0380495 0)
(1.05115 0.0340268 0)
(1.06285 0.0302597 0)
(1.05401 0.0259438 0)
(0.950917 0.0187317 0)
(0.707057 0.0101248 0)
(0.379961 0.00343923 0)
(0.0689083 0.000281918 0)
(0.129667 0.000517764 0)
(0.739274 0.00879126 0)
(1.00841 0.0153572 0)
(1.13349 0.0198449 0)
(1.14933 0.0246887 0)
(1.13099 0.0311322 0)
(1.11208 0.0381545 0)
(1.09541 0.0451397 0)
(1.07915 0.051226 0)
(1.06268 0.0551059 0)
(1.04895 0.0554215 0)
(1.04106 0.0526906 0)
(1.03935 0.0483719 0)
(1.04464 0.0434552 0)
(1.05504 0.0384091 0)
(1.04051 0.0316175 0)
(0.92889 0.021814 0)
(0.6834 0.011748 0)
(0.361297 0.00403636 0)
(0.0634229 0.000329548 0)
(0.139976 0.000732493 0)
(0.765432 0.0121859 0)
(1.02634 0.0210936 0)
(1.14537 0.0267095 0)
(1.16067 0.0320912 0)
(1.14183 0.0393705 0)
(1.12182 0.0477982 0)
(1.10313 0.0564471 0)
(1.08406 0.0638226 0)
(1.0643 0.0683833 0)
(1.04747 0.0686306 0)
(1.03706 0.0653662 0)
(1.03315 0.0602747 0)
(1.03643 0.0542459 0)
(1.04326 0.0469719 0)
(1.02098 0.0371772 0)
(0.902677 0.0251132 0)
(0.656587 0.0137585 0)
(0.339568 0.00474882 0)
(0.0570577 0.000380742 0)
(0.154259 0.00107669 0)
(0.800474 0.0172155 0)
(1.05109 0.0292204 0)
(1.15999 0.0368303 0)
(1.1733 0.0433971 0)
(1.15464 0.052155 0)
(1.13354 0.0622604 0)
(1.11217 0.0722114 0)
(1.0895 0.080233 0)
(1.06578 0.08457 0)
(1.04534 0.0837553 0)
(1.03204 0.0790234 0)
(1.02548 0.072273 0)
(1.02544 0.064317 0)
(1.02659 0.054574 0)
(0.996878 0.0425451 0)
(0.873659 0.0291387 0)
(0.626037 0.0162922 0)
(0.314125 0.00557508 0)
(0.0497246 0.000432804 0)
(0.17468 0.0016858 0)
(0.8475 0.0250703 0)
(1.08561 0.0411511 0)
(1.17988 0.0519824 0)
(1.18906 0.0613996 0)
(1.16987 0.0721992 0)
(1.14666 0.083595 0)
(1.12162 0.0938929 0)
(1.09454 0.101306 0)
(1.06619 0.104005 0)
(1.04169 0.10079 0)
(1.02503 0.0934802 0)
(1.01534 0.0842426 0)
(1.01111 0.0738464 0)
(1.00637 0.0621547 0)
(0.970371 0.0489622 0)
(0.841808 0.0343986 0)
(0.590548 0.0194269 0)
(0.284464 0.00650854 0)
(0.0414456 0.000480372 0)
(0.204583 0.00304414 0)
(0.912259 0.0385222 0)
(1.13316 0.0606153 0)
(1.20725 0.0751758 0)
(1.20947 0.0885527 0)
(1.18699 0.101148 0)
(1.15994 0.112812 0)
(1.13013 0.122068 0)
(1.09797 0.127383 0)
(1.06452 0.126972 0)
(1.03561 0.12012 0)
(1.01532 0.109441 0)
(1.0022 0.0973112 0)
(0.993836 0.0845634 0)
(0.984069 0.0714775 0)
(0.942132 0.057508 0)
(0.805742 0.0411714 0)
(0.548981 0.0231874 0)
(0.250763 0.00756525 0)
(0.0324812 0.000518151 0)
(0.245817 0.0093282 1.85861e-20)
(0.998115 0.0654059 1.57639e-20)
(1.19102 0.0938309 -5.39448e-21)
(1.24103 0.110736 0)
(1.23266 0.127402 -1.25843e-34)
(1.20426 0.140142 1.81038e-21)
(1.17178 0.150518 -3.09991e-21)
(1.1364 0.157378 0)
(1.09869 0.159457 6.01663e-35)
(1.0597 0.155041 -3.51247e-21)
(1.02587 0.14394 0)
(1.00147 0.129644 -4.02759e-21)
(0.984426 0.114648 -1.17867e-20)
(0.971965 0.0999708 -5.53749e-21)
(0.957747 0.0860747 -1.65295e-21)
(0.909015 0.0715691 -9.79012e-22)
(0.760728 0.0521241 0)
(0.497397 0.0293518 6.87469e-22)
(0.213202 0.0102645 8.14828e-22)
(0.024189 0.00100649 1.48568e-20)
(0.273184 0.0249133 1.58478e-20)
(1.06873 0.108116 1.03053e-22)
(1.23905 0.141642 1.54321e-21)
(1.27306 0.160221 0)
(1.25416 0.17618 -6.71663e-21)
(1.21931 0.187597 -7.41547e-21)
(1.18087 0.196053 -3.20735e-21)
(1.13948 0.200496 -1.0907e-20)
(1.0957 0.19948 0)
(1.0504 0.191317 1.50114e-20)
(1.01044 0.17629 1.46206e-20)
(0.980656 0.158728 4.29225e-21)
(0.95872 0.141277 1.53762e-20)
(0.941584 0.124854 2.13386e-20)
(0.921598 0.109381 0)
(0.865972 0.0931383 2.99659e-20)
(0.707719 0.0695148 4.31239e-20)
(0.445663 0.0408788 4.80427e-20)
(0.182447 0.0158179 -5.51916e-20)
(0.0181966 0.00159954 -1.04884e-21)
(0.273026 0.0410609 0)
(1.11299 0.163765 3.27923e-21)
(1.27314 0.200844 0)
(1.29808 0.21958 -1.0238e-20)
(1.27125 0.232464 0)
(1.23053 0.240774 -1.51747e-20)
(1.18633 0.246009 6.69114e-21)
(1.13916 0.247078 -2.25166e-20)
(1.08952 0.242482 -3.16762e-22)
(1.0382 0.23039 7.87828e-21)
(0.992592 0.211709 3.19833e-20)
(0.958012 0.191418 -6.2567e-23)
(0.931993 0.172228 -1.11419e-20)
(0.911232 0.154727 -2.00588e-20)
(0.887881 0.138543 2.37026e-20)
(0.831008 0.120236 -4.20309e-20)
(0.677524 0.0919472 -5.57648e-21)
(0.430136 0.0573155 0)
(0.18481 0.0244031 6.66671e-24)
(0.020579 0.00283971 0)
(0.265875 0.0549082 5.68686e-20)
(1.13605 0.222923 -2.54657e-20)
(1.29492 0.265075 -1.67911e-20)
(1.31458 0.283609 5.18608e-21)
(1.28229 0.292873 -8.50966e-21)
(1.23698 0.297412 3.21536e-20)
(1.18792 0.29884 1.41427e-20)
(1.1357 0.296034 0)
(1.08084 0.287492 -4.08039e-20)
(1.02405 0.271412 0)
(0.973414 0.249212 -1.69284e-20)
(0.934747 0.226454 -2.03914e-20)
(0.905498 0.205798 -1.21078e-20)
(0.882148 0.187365 -1.45312e-20)
(0.857062 0.170266 0)
(0.801855 0.150468 0)
(0.661121 0.118931 -3.64291e-20)
(0.433295 0.0786177 7.21e-21)
(0.198276 0.0361236 -4.24279e-21)
(0.0257894 0.00497907 -5.02347e-21)
(0.258281 0.0672958 -3.25991e-20)
(1.14545 0.281876 0)
(1.30718 0.330405 3.92872e-20)
(1.32352 0.348808 1.5763e-20)
(1.28733 0.354603 1.88604e-20)
(1.23853 0.35536 0)
(1.18563 0.3529 1.4399e-20)
(1.12923 0.346143 2.53302e-20)
(1.06989 0.333608 2.12578e-20)
(1.0084 0.313481 3.68973e-20)
(0.953435 0.287829 0)
(0.91137 0.262723 -4.39398e-20)
(0.87957 0.240558 -2.61234e-20)
(0.854304 0.221362 -1.5356e-20)
(0.828293 0.203596 9.31939e-20)
(0.776351 0.182809 1.11172e-20)
(0.64933 0.148421 5.25821e-20)
(0.440336 0.101764 -2.49951e-19)
(0.212309 0.0498309 1.48399e-19)
(0.0309776 0.00760459 -1.8116e-19)
(0.251438 0.0784911 -2.79238e-20)
(1.14643 0.338841 6.22799e-21)
(1.31251 0.395154 -5.45719e-21)
(1.32646 0.413469 -1.98746e-20)
(1.28737 0.415998 -1.82115e-20)
(1.23583 0.413137 3.45032e-22)
(1.17985 0.40694 -1.55236e-20)
(1.12 0.396364 2.65758e-20)
(1.05688 0.379926 -4.56824e-20)
(0.991379 0.35583 0)
(0.932818 0.326727 -2.01269e-20)
(0.88803 0.299226 -3.1528e-22)
(0.854245 0.275537 -2.83947e-20)
(0.827604 0.255457 0)
(0.801286 0.237225 -2.01111e-20)
(0.752594 0.215414 -4.78559e-20)
(0.637691 0.178856 1.28657e-19)
(0.44408 0.125739 -1.2713e-19)
(0.222149 0.0639072 1.80973e-19)
(0.034952 0.0103625 -1.90466e-19)
(0.245957 0.0889618 -1.05603e-22)
(1.14229 0.393194 -5.79065e-21)
(1.31279 0.458412 -2.12853e-20)
(1.32476 0.476516 9.75622e-21)
(1.28345 0.476093 -9.4944e-21)
(1.22973 0.46985 0)
(1.17124 0.460139 -1.53926e-20)
(1.10847 0.445955 -2.80679e-20)
(1.04212 0.425771 -2.39971e-20)
(0.973158 0.397799 0)
(0.91154 0.365245 -2.10577e-20)
(0.864569 0.33526 -2.54303e-20)
(0.829326 0.309943 3.06471e-20)
(0.801819 0.288787 -1.83923e-20)
(0.775553 0.269912 -8.71536e-20)
(0.729873 0.247053 5.20336e-20)
(0.62438 0.208363 1.56792e-20)
(0.442183 0.148602 0)
(0.2252 0.0766987 -1.73792e-19)
(0.0368795 0.0127435 -6.44742e-21)
(0.241829 0.0989986 -3.34335e-21)
(1.13514 0.444802 5.6372e-21)
(1.30919 0.519114 1.11178e-20)
(1.31954 0.537291 3.21884e-20)
(1.27648 0.534265 -3.83527e-20)
(1.22104 0.524953 3.59481e-20)
(1.16043 0.51201 3.30199e-20)
(1.09517 0.494442 -4.49073e-20)
(1.02597 0.470712 1.40733e-20)
(0.953935 0.438959 -9.05514e-20)
(0.889575 0.402949 -2.34087e-20)
(0.840806 0.370276 0)
(0.804521 0.343096 3.30621e-20)
(0.77657 0.320667 3.92376e-20)
(0.750671 0.300852 4.67263e-20)
(0.707527 0.276795 -5.61403e-20)
(0.608819 0.235418 -1.66707e-20)
(0.434764 0.168627 1.9712e-20)
(0.222967 0.0869658 0)
(0.0369838 0.0145151 -1.39031e-20)
(0.238861 0.108698 3.10636e-20)
(1.12651 0.493716 -2.17621e-20)
(1.30287 0.57707 -1.15213e-20)
(1.31171 0.595472 2.18702e-20)
(1.26722 0.590131 -1.92975e-20)
(1.21037 0.578069 -8.04347e-22)
(1.14798 0.562207 -3.56885e-20)
(1.08056 0.541538 -1.61434e-20)
(1.00881 0.514472 -4.14756e-20)
(0.933928 0.479093 4.38152e-23)
(0.867104 0.439559 -7.37203e-20)
(0.816691 0.404078 6.02721e-20)
(0.779629 0.374665 -3.59711e-20)
(0.751484 0.350601 4.28046e-20)
(0.726051 0.329507 0)
(0.684876 0.303845 -3.0225e-20)
(0.590971 0.259244 -1.95622e-22)
(0.422567 0.185217 -8.51721e-20)
(0.216185 0.0944724 -1.26058e-20)
(0.0356845 0.0155985 0)
(0.236922 0.118243 0)
(1.11719 0.540177 -2.25527e-20)
(1.29459 0.632214 -2.23457e-20)
(1.30198 0.650905 -2.24219e-20)
(1.25631 0.643498 -2.18713e-20)
(1.19829 0.628996 0)
(1.13438 0.610522 -1.75187e-20)
(1.06505 0.587041 -2.41501e-22)
(0.990983 0.556903 8.87188e-20)
(0.913434 0.518058 -1.25812e-20)
(0.844222 0.475026 -5.30013e-20)
(0.792323 0.4365 3.15928e-20)
(0.754543 0.404657 -4.02764e-22)
(0.726298 0.378654 4.55465e-20)
(0.701305 0.355911 2.77471e-20)
(0.661612 0.328201 -6.51159e-20)
(0.570769 0.279556 7.7449e-20)
(0.406351 0.198294 2.29793e-20)
(0.205632 0.099307 9.52592e-20)
(0.0331922 0.0159577 -2.57907e-19)
(0.235862 0.127749 5.45028e-21)
(1.10776 0.584332 -1.03912e-20)
(1.28499 0.684567 9.4676e-21)
(1.29093 0.703522 2.23014e-20)
(1.24426 0.694264 0)
(1.18524 0.677611 -1.93605e-20)
(1.12003 0.656826 5.74146e-20)
(1.04899 0.63083 3.58972e-20)
(0.972783 0.597903 0)
(0.892665 0.555815 -1.78848e-19)
(0.821078 0.509313 1.42597e-19)
(0.767631 0.46762 0)
(0.729082 0.433038 4.1681e-20)
(0.700735 0.404777 -4.01565e-22)
(0.676126 0.38004 -8.85859e-20)
(0.637387 0.349804 3.47415e-20)
(0.548389 0.296395 0)
(0.386951 0.207681 1.23604e-19)
(0.19227 0.101721 0)
(0.0299741 0.0157075 -1.21561e-19)
(0.235502 0.137225 -5.13058e-21)
(1.09855 0.626328 -9.45372e-21)
(1.27452 0.734145 1.04704e-20)
(1.27901 0.753329 0)
(1.23147 0.742417 -2.24431e-20)
(1.17161 0.723873 0)
(1.10526 0.701046 -5.89045e-20)
(1.03269 0.672829 -1.76851e-20)
(0.954465 0.637421 1.60637e-20)
(0.871827 0.592353 -8.83538e-20)
(0.797714 0.542478 1.48706e-20)
(0.742507 0.497476 0)
(0.703157 0.459928 -8.90193e-20)
(0.674652 0.429111 4.12329e-22)
(0.650311 0.402041 0)
(0.612003 0.368782 4.69069e-22)
(0.523761 0.309883 1.12082e-19)
(0.364622 0.213441 -1.06607e-19)
(0.176758 0.101681 3.15797e-20)
(0.0262625 0.0148781 0)
(0.235501 0.146556 0)
(1.08972 0.666234 -8.80989e-21)
(1.26354 0.781035 -9.27711e-21)
(1.26658 0.800382 -4.57781e-22)
(1.21829 0.787985 -1.05998e-20)
(1.15771 0.76778 -4.36884e-20)
(1.09035 0.743166 2.14809e-20)
(1.01638 0.71301 -1.99705e-20)
(0.936248 0.675423 7.04772e-20)
(0.851062 0.627677 -1.41059e-19)
(0.774259 0.574601 -6.68651e-22)
(0.717142 0.526247 -3.9647e-20)
(0.676737 0.48548 1.43921e-19)
(0.647966 0.451813 -4.87435e-22)
(0.623752 0.422088 -6.84079e-20)
(0.585369 0.385255 -1.22212e-19)
(0.49684 0.320155 0)
(0.339794 0.2158 0)
(0.159545 0.0991884 3.40454e-20)
(0.0222494 0.0135405 -2.01879e-20)
(0.235966 0.155843 -4.13381e-21)
(1.08139 0.703953 1.72514e-20)
(1.2523 0.825328 9.82737e-21)
(1.2539 0.844745 0)
(1.20495 0.831012 -3.20744e-22)
(1.14375 0.809358 -4.39332e-20)
(1.07553 0.783191 5.45081e-20)
(1.00028 0.751364 8.13607e-20)
(0.918319 0.711914 9.24142e-20)
(0.830585 0.661833 -1.15739e-19)
(0.750953 0.605797 -1.21974e-19)
(0.691559 0.554093 1.05982e-19)
(0.649817 0.509879 0)
(0.620598 0.473068 -3.11019e-20)
(0.596375 0.440303 -7.389e-20)
(0.557451 0.399255 -8.76666e-20)
(0.467748 0.327033 -1.04389e-19)
(0.312727 0.214658 3.09767e-20)
(0.140872 0.0942312 -1.82995e-20)
(0.0179502 0.0116945 7.11101e-23)
(0.236622 0.164882 0)
(1.07359 0.739981 0)
(1.24096 0.8671 5.40286e-22)
(1.24117 0.886501 0)
(1.19166 0.871582 3.31715e-20)
(1.12994 0.84866 3.31604e-20)
(1.06096 0.821146 0)
(0.98456 0.787905 1.01624e-20)
(0.900872 0.7469 1.55357e-19)
(0.810601 0.694861 -2.65569e-19)
(0.727913 0.636176 0)
(0.66586 0.581192 -6.80422e-20)
(0.622386 0.533363 -5.95285e-22)
(0.592478 0.493041 -4.86906e-22)
(0.568084 0.456747 7.89718e-20)
(0.528189 0.410696 -8.30365e-23)
(0.436634 0.330441 -2.24599e-19)
(0.283464 0.209844 6.66595e-20)
(0.121199 0.0869974 1.97764e-20)
(0.0136282 0.00948525 0)
(0.237265 0.173739 8.65081e-21)
(1.06607 0.774284 7.13448e-21)
(1.22966 0.906433 1.72042e-20)
(1.22856 0.925752 -4.1503e-20)
(1.17857 0.909759 5.5735e-20)
(1.11642 0.885741 0)
(1.04679 0.857076 3.50119e-20)
(0.969362 0.822657 -2.21792e-20)
(0.884051 0.780397 7.74112e-22)
(0.791252 0.726781 1.93284e-20)
(0.705294 0.665825 1.57957e-19)
(0.640208 0.607767 -2.3959e-20)
(0.594498 0.556193 -8.84579e-20)
(0.563488 0.511932 -3.61103e-20)
(0.53872 0.471381 4.28777e-20)
(0.497542 0.419328 -5.57688e-23)
(0.403849 0.330104 6.05774e-20)
(0.252753 0.201413 -1.43376e-19)
(0.101309 0.0778908 1.70228e-19)
(0.00945601 0.00705071 2.51303e-20)
(0.237648 0.182303 -2.17919e-21)
(1.05886 0.806937 3.25789e-21)
(1.2185 0.943436 1.26049e-21)
(1.21618 0.962613 -1.96577e-20)
(1.16579 0.945648 -1.05416e-20)
(1.10329 0.920668 -6.11433e-20)
(1.03313 0.891024 1.13944e-20)
(0.954789 0.855638 -9.34148e-20)
(0.867968 0.812402 -1.73081e-19)
(0.772669 0.757596 -1.59063e-19)
(0.683307 0.694818 0)
(0.614755 0.633989 -1.04244e-19)
(0.56621 0.578696 1.27014e-19)
(0.533469 0.530001 0)
(0.507972 0.484128 -9.17745e-20)
(0.465353 0.424677 5.49341e-20)
(0.369686 0.325526 -6.50656e-20)
(0.221707 0.189469 -7.72474e-20)
(0.082154 0.0674424 -1.37191e-19)
(0.00568685 0.00458599 -1.08321e-19)
(0.238335 0.190666 1.37561e-21)
(1.05183 0.83792 -3.46606e-21)
(1.20756 0.978175 -1.0098e-20)
(1.2041 0.997167 -2.44103e-20)
(1.1534 0.979332 2.31854e-20)
(1.09063 0.953518 -3.70128e-20)
(1.02005 0.923038 3.70933e-20)
(0.940911 0.886887 -9.75641e-20)
(0.852698 0.842937 -1.02902e-19)
(0.754993 0.787327 1.67198e-19)
(0.662105 0.723205 3.46891e-19)
(0.589699 0.660005 0)
(0.537646 0.601185 0)
(0.502252 0.547676 -4.15332e-20)
(0.475282 0.495011 0)
(0.431127 0.425919 1.18296e-19)
(0.334581 0.315629 1.40183e-19)
(0.191878 0.173751 0)
(0.0651153 0.0562051 0)
(0.00255111 0.00229875 1.16509e-19)
(0.238623 0.198497 -3.33108e-22)
(1.04498 0.867226 -6.46405e-22)
(1.1969 1.01076 -6.78018e-21)
(1.19239 1.02954 1.83749e-20)
(1.14145 1.01091 2.3236e-20)
(1.07849 0.984362 4.36435e-20)
(1.0076 0.953175 -5.18952e-20)
(0.927783 0.916432 7.5092e-23)
(0.838314 0.872005 -1.0035e-21)
(0.738321 0.815965 -1.18746e-21)
(0.64186 0.751008 1.78703e-19)
(0.565251 0.685918 0)
(0.509033 0.623928 1.27839e-19)
(0.469769 0.565538 8.85022e-20)
(0.439856 0.504438 2.13637e-19)
(0.393622 0.42214 6.35796e-20)
(0.298561 0.298065 -7.57194e-20)
(0.166339 0.152295 -4.46114e-20)
(0.0544371 0.0439599 0)
(0.00101566 0.000451227 1.25287e-19)
(0.239225 0.206301 -1.74198e-21)
(1.03831 0.894985 0)
(1.18652 1.04126 -5.22369e-21)
(1.18107 1.05981 1.36181e-20)
(1.13 1.04047 -2.24183e-20)
(1.06691 1.01328 -5.63533e-20)
(0.995805 0.981489 1.06305e-19)
(0.915435 0.944308 -7.62584e-21)
(0.824852 0.899617 0)
(0.722718 0.843467 -1.86104e-19)
(0.622735 0.778221 -3.89441e-19)
(0.541648 0.711795 1.54483e-20)
(0.480688 0.647128 1.75484e-19)
(0.436151 0.584232 0)
(0.400876 0.513487 1.43676e-19)
(0.350432 0.413367 0)
(0.258737 0.26933 0)
(0.147537 0.115201 -4.8389e-20)
(0.0708259 0.0178336 0)
(0.0241754 0.00584578 3.36084e-20)
(0.239355 0.213478 -4.02602e-21)
(1.0318 0.921447 0)
(1.17642 1.06987 -6.40987e-21)
(1.17012 1.0882 0)
(1.11899 1.06826 1.06631e-20)
(1.05582 1.04055 0)
(0.984609 1.00829 6.16613e-21)
(0.903774 0.970852 1.3683e-20)
(0.812195 0.92614 1.29468e-20)
(0.708035 0.870219 -2.05424e-19)
(0.604603 0.805288 1.18838e-20)
(0.51873 0.738193 1.23325e-19)
(0.452399 0.67136 1.71021e-19)
(0.400952 0.604707 2.283e-20)
(0.356954 0.524214 1.12128e-19)
(0.297618 0.402074 0)
(0.204272 0.230733 1.59802e-19)
(0.107245 0.0556151 -9.42506e-20)
(0.036467 0.0589391 1.10213e-19)
(-0.0368027 0.438494 -1.30832e-19)
(0.239394 0.220428 4.54808e-21)
(1.02524 0.94649 3.55275e-21)
(1.16653 1.0969 0)
(1.1594 1.11514 1.08726e-21)
(1.10827 1.09485 -2.58456e-20)
(1.04498 1.06685 9.30291e-20)
(0.973717 1.03436 4.0059e-20)
(0.89242 0.997006 0)
(0.799848 0.952673 8.85419e-20)
(0.693639 0.897534 -1.10229e-20)
(0.586598 0.833702 0)
(0.495394 0.766905 0)
(0.422846 0.698442 1.52497e-19)
(0.362737 0.628673 -6.99876e-20)
(0.305775 0.54 -1.12756e-19)
(0.231438 0.394178 0)
(0.114456 0.215445 8.09917e-20)
(0.0137479 0.455813 -9.48865e-20)
(0.0376702 1.88604 -5.40495e-20)
(0.065608 2.80279 -6.55747e-20)
(0.239094 0.226775 -4.90181e-21)
(1.01869 0.97029 -7.26651e-21)
(1.15686 1.12235 -2.24421e-21)
(1.14894 1.1405 -6.99749e-21)
(1.09789 1.12005 0)
(1.03447 1.09192 6.23249e-20)
(0.963317 1.0594 5.9284e-20)
(0.881544 1.02234 -6.91158e-21)
(0.788067 0.978697 1.30828e-20)
(0.679895 0.924792 1.97273e-19)
(0.569308 0.862732 1.97851e-19)
(0.472626 0.797522 1.37849e-19)
(0.393185 0.727925 1.5272e-19)
(0.323614 0.654665 -1.63015e-19)
(0.254125 0.563159 -1.69179e-19)
(0.151821 0.426067 0)
(0.0545714 0.856958 0)
(0.102317 2.5528 4.54616e-20)
(0.105312 3.19385 0)
(0.105852 3.38271 1.20648e-19)
(0.241548 0.232651 0)
(1.01239 0.993156 0)
(1.14713 1.14609 0)
(1.13852 1.16409 -1.19449e-21)
(1.0876 1.14363 -2.16966e-20)
(1.02408 1.11559 4.25389e-20)
(0.953333 1.08331 3.98639e-20)
(0.871077 1.04672 -6.91881e-21)
(0.776789 1.00404 1.1384e-19)
(0.666794 0.951831 -2.08499e-21)
(0.552824 0.892157 3.92553e-19)
(0.450839 0.830016 -1.57188e-20)
(0.363835 0.76026 1.85921e-20)
(0.285732 0.680115 2.34284e-20)
(0.197443 0.592295 1.25131e-22)
(0.114997 0.997902 3.26709e-22)
(0.144832 2.71199 -2.32557e-19)
(0.153745 3.29163 -8.96093e-20)
(0.140806 3.42438 4.90423e-20)
(0.126666 3.44576 -5.59323e-20)
(0.163409 0.177273 4.16018e-21)
(1.00161 1.01789 0)
(1.13731 1.16836 -6.82968e-23)
(1.12854 1.18622 1.32117e-20)
(1.07782 1.16609 -3.60915e-20)
(1.01443 1.1383 -4.32706e-20)
(0.943554 1.1061 -4.3636e-20)
(0.861054 1.07018 8.5481e-20)
(0.766141 1.02868 -9.54194e-20)
(0.654628 0.97861 0)
(0.537561 0.92186 1.94899e-19)
(0.430541 0.864056 -1.12927e-19)
(0.335408 0.798218 0)
(0.249632 0.710696 2.25632e-20)
(0.163049 0.860318 5.37537e-20)
(0.159507 2.48874 -6.29367e-20)
(0.216604 3.32702 7.26634e-20)
(0.195082 3.44109 4.03032e-20)
(0.161156 3.46056 4.7033e-20)
(0.139087 3.46928 7.72743e-20)
(0.276331 0.270752 -7.19066e-21)
(0.984396 1.02779 0)
(1.1195 1.19366 3.46519e-21)
(1.11471 1.21924 -8.12919e-21)
(1.06226 1.19953 3.08871e-20)
(0.998497 1.17227 3.79101e-20)
(0.926677 1.1414 5.35121e-20)
(0.843605 1.10672 6.54181e-21)
(0.747454 1.06742 9.45082e-20)
(0.633391 1.02139 1.76683e-19)
(0.511531 0.970776 1.1283e-20)
(0.397292 0.921394 1.01039e-19)
(0.28458 0.868168 1.76127e-20)
(0.222106 1.02029 -2.17161e-20)
(0.230605 2.3515 -5.03309e-20)
(0.285249 3.33538 5.24431e-20)
(0.269833 3.47433 -5.89561e-20)
(0.233116 3.49276 -3.45872e-20)
(0.196525 3.51674 -3.39947e-20)
(0.148287 3.50946 -4.93186e-21)
(0.266267 0.269479 0)
(0.981645 1.05033 3.18406e-21)
(1.11146 1.2169 -1.3997e-21)
(1.10487 1.24228 2.0782e-22)
(1.05236 1.22252 1.71569e-20)
(0.988731 1.19549 -3.51233e-20)
(0.916647 1.16486 -3.26136e-20)
(0.833496 1.13103 6.10135e-21)
(0.73703 1.09324 -1.00521e-19)
(0.622044 1.0501 -2.99453e-21)
(0.497984 1.00424 -3.58068e-19)
(0.380143 0.960665 1.4311e-20)
(0.273948 0.94162 -1.68381e-20)
(0.259102 1.53502 -2.03429e-20)
(0.323455 3.11419 3.68335e-21)
(0.342508 3.47773 4.95879e-22)
(0.298659 3.52989 9.52669e-20)
(0.262179 3.54956 5.10867e-20)
(0.213916 3.56926 -2.15964e-20)
(0.160111 3.56372 -2.75021e-20)
(0.251838 0.267055 1.01566e-20)
(0.977895 1.07537 2.36071e-20)
(1.10297 1.24212 -4.26287e-21)
(1.09465 1.26685 8.40067e-22)
(1.04211 1.24694 0)
(0.978629 1.21992 -4.11484e-20)
(0.906537 1.18955 -4.39746e-20)
(0.823573 1.15651 5.63945e-21)
(0.727107 1.12027 -1.10089e-20)
(0.611719 1.0802 -1.66059e-19)
(0.486235 1.03952 -1.68077e-19)
(0.366983 1.00321 -1.20359e-19)
(0.280838 1.07922 -1.27433e-19)
(0.323889 2.22882 1.30605e-19)
(0.405927 3.3957 1.1668e-19)
(0.383567 3.54102 0)
(0.331304 3.57728 0)
(0.292998 3.61112 -1.74201e-20)
(0.242038 3.6597 0)
(0.169928 3.63778 -3.24991e-20)
(0.241442 0.268474 -1.72755e-20)
(0.97211 1.10118 -2.26828e-20)
(1.09313 1.26854 0)
(1.08328 1.29232 1.29208e-21)
(1.03075 1.27202 1.03916e-20)
(0.967525 1.24489 -5.3722e-20)
(0.895746 1.21478 -2.62929e-20)
(0.8132 1.18242 4.51794e-21)
(0.716999 1.14767 -7.69217e-20)
(0.601631 1.11062 8.79354e-21)
(0.475529 1.07531 0)
(0.357975 1.04976 0)
(0.31118 1.33373 -1.18426e-19)
(0.402942 2.89999 4.91009e-20)
(0.475973 3.50704 6.66741e-20)
(0.423177 3.57968 0)
(0.379138 3.63347 -1.89147e-20)
(0.332274 3.68435 1.22519e-20)