/*--------------------------------*- C++ -*----------------------------------*\
| =========                 |                                                 |
| \\      /  F ield         | OpenFOAM: The Open Source CFD Toolbox           |
|  \\    /   O peration     | Version:  2106                                  |
|   \\  /    A nd           | Website:  www.openfoam.com                      |
|    \\/     M anipulation  |                                                 |
\*---------------------------------------------------------------------------*/
FoamFile
{
    version     2.0;
    format      ascii;
    arch        "LSB;label=32;scalar=64";
    class       volScalarField;
    location    "2";
    object      T;
}
// * * * * * * * * * * * * * * * * * * * * * * * * * * * * * * * * * * * * * //

dimensions      [0 0 0 1 0 0 0];

internalField   nonuniform List<scalar> 
1000
(
1.0393e-17
5.76368e-19
8.84328e-18
-6.98458e-18
1.38134e-17
-1.79071e-17
2.74005e-17
-3.89859e-17
5.70651e-17
-8.23821e-17
1.19394e-16
-1.72423e-16
2.48897e-16
-3.58661e-16
5.16206e-16
-7.41882e-16
1.06477e-15
-1.52604e-15
2.18409e-15
-3.12147e-15
4.45485e-15
-6.34872e-15
9.03473e-15
-1.28386e-14
1.82174e-14
-2.58119e-14
3.65187e-14
-5.15903e-14
7.27734e-14
-1.02501e-13
1.44153e-13
-2.02425e-13
2.83818e-13
-3.97327e-13
5.55372e-13
-7.75075e-13
1.08e-12
-1.50251e-12
2.087e-12
-2.89424e-12
4.00726e-12
-5.53934e-12
7.6447e-12
-1.0533e-11
1.44885e-11
-1.98964e-11
2.72772e-11
-3.7333e-11
5.10093e-11
-6.95766e-11
9.47395e-11
-1.28779e-10
1.74745e-10
-2.36701e-10
3.20058e-10
-4.31999e-10
5.82046e-10
-7.82795e-10
1.05087e-09
-1.40816e-09
1.88345e-09
-2.51449e-09
3.35066e-09
-4.45647e-09
5.91596e-09
-7.83841e-09
1.03655e-08
-1.36808e-08
1.80209e-08
-2.36912e-08
3.10835e-08
-4.07008e-08
5.31858e-08
-6.93591e-08
9.02648e-08
-1.17229e-07
1.51929e-07
-1.96486e-07
2.53573e-07
-3.26544e-07
4.19607e-07
-5.38019e-07
6.88333e-07
-8.78692e-07
1.11919e-06
-1.4223e-06
1.8034e-06
-2.28136e-06
2.87932e-06
-3.62553e-06
4.55437e-06
-5.70758e-06
7.13561e-06
-8.89932e-06
1.10718e-05
-1.37406e-05
1.70102e-05
-2.10048e-05
2.58716e-05
-3.1784e-05
3.89463e-05
-4.75975e-05
5.80163e-05
-7.05265e-05
8.55024e-05
-0.000103375
0.000124638
-0.000149855
0.000179665
-0.00021479
0.00025604
-0.000304319
0.000360634
-0.000426091
0.000501904
-0.000589395
0.000689991
-0.000805218
0.000936699
-0.00108614
0.00125531
-0.00144603
0.00166013
-0.00189947
0.00216581
-0.00246087
0.00278621
-0.00314321
0.00353299
-0.00395638
0.00441381
-0.00490529
0.00543027
-0.00598767
0.00657572
-0.00719196
0.00783318
-0.00849537
0.00917371
-0.00986257
0.0105555
-0.0112454
0.0119243
-0.0125837
0.0132146
-0.0138079
0.0143539
-0.0148433
0.0152669
-0.015616
0.0158824
-0.0160593
0.0161407
-0.0161221
0.0160006
-0.0157752
0.0154464
-0.0150172
0.014492
-0.0138776
0.0131823
-0.0124162
0.011591
-0.0107194
0.00981489
-0.00889168
0.00796399
-0.00704579
0.00615042
-0.00529021
0.00447615
-0.00371764
0.00302221
-0.00239544
0.00184082
-0.00135981
0.00095189
-0.000614697
0.00034427
-0.000135299
-1.8577e-05
0.000124439
-0.000189764
0.000222105
-0.000228801
0.00021672
-0.000192055
0.000160172
-0.000125517
9.1582e-05
-6.09176e-05
3.5201e-05
-1.53369e-05
1.585e-06
6.29433e-06
-8.8917e-06
7.00453e-06
-1.50699e-06
-6.76006e-06
1.7075e-05
-2.88958e-05
4.1895e-05
-5.59725e-05
7.125e-05
-8.80507e-05
0.000106872
-0.000128355
0.000153251
-0.000182399
0.000216706
-0.000257134
0.000304697
-0.000360465
0.000425569
-0.000501215
0.000588693
-0.000689385
0.000804771
-0.000936431
0.00108604
-0.00125533
0.00144614
-0.00166029
0.00189962
-0.00216594
0.00246096
-0.00278626
0.00314322
-0.00353297
0.00395635
-0.00441378
0.00490525
-0.00543025
0.00598766
-0.00657572
0.00719196
-0.00783318
0.00849538
-0.00917372
0.00986258
-0.0105555
0.0112454
-0.0119243
0.0125837
-0.0132146
0.0138079
-0.0143539
0.0148433
-0.0152669
0.015616
-0.0158824
0.0160593
-0.0161407
0.0161221
-0.0160006
0.0157752
-0.0154465
0.0150172
-0.014492
0.0138776
-0.0131823
0.0124163
-0.011591
0.0107194
-0.0098149
0.00889169
-0.007964
0.0070458
-0.00615043
0.00529023
-0.00447618
0.00371768
-0.00302226
0.00239551
-0.00184091
0.00135993
-0.000952041
0.000614893
-0.000344524
0.000135625
1.81574e-05
-0.000123901
0.000189076
-0.000221227
0.000227682
-0.000215298
0.000190251
-0.00015789
0.000122638
-8.79565e-05
5.63632e-05
-2.94935e-05
8.20124e-06
7.31431e-06
-1.73661e-05
2.26323e-05
-2.40148e-05
2.25118e-05
-1.91115e-05
1.4709e-05
-1.00505e-05
5.7025e-06
-2.04374e-06
-7.23506e-07
2.54834e-06
-3.49724e-06
3.71652e-06
-3.39542e-06
2.73373e-06
-1.91606e-06
1.09419e-06
-3.77517e-07
-1.69088e-07
5.21522e-07
-6.88592e-07
7.01968e-07
-6.05733e-07
4.46955e-07
-2.68272e-07
1.03008e-07
2.71408e-08
-1.12132e-07
1.51888e-07
-1.53553e-07
1.28366e-07
-8.87239e-08
4.58336e-08
-8.18671e-09
-1.91161e-08
3.42893e-08
-3.82423e-08
3.36582e-08
-2.40081e-08
1.26911e-08
-2.42118e-09
-5.09244e-09
9.18757e-09
-1.00797e-08
8.56802e-09
-5.70766e-09
2.52032e-09
2.07761e-10
-2.02336e-09
2.80682e-09
-2.70149e-09
2.0061e-09
-1.06317e-09
1.69043e-10
4.80436e-10
-8.05982e-10
8.29455e-10
-6.3905e-10
3.48609e-10
-6.22761e-11
-1.48398e-10
2.52799e-10
-2.56929e-10
1.91069e-10
-9.47051e-11
3.42104e-12
5.94403e-11
-8.54257e-11
7.88614e-11
-5.18402e-11
1.85347e-11
9.44205e-12
-2.55839e-11
2.88541e-11
-2.234e-11
1.1108e-11
-8.39341e-14
-7.38935e-12
1.01045e-11
-8.71322e-12
4.96519e-12
-8.17846e-13
-2.24917e-12
3.5703e-12
-3.26211e-12
1.94832e-12
-3.9646e-13
-7.84903e-13
1.3043e-12
-1.19229e-12
6.90138e-13
-1.03261e-13
-3.30325e-13
5.00727e-13
-4.31067e-13
2.23183e-13
-1.01614e-15
-1.48092e-13
1.8915e-13
-1.42744e-13
5.36812e-14
2.75602e-14
-7.27855e-14
7.38956e-14
-4.62874e-14
8.97291e-15
1.80038e-14
-2.83143e-14
2.16191e-14
-7.78178e-15
-6.29627e-15
1.3035e-14
-1.31592e-14
7.42984e-15
-1.48634e-15
-3.19962e-15
3.82922e-15
-2.60762e-15
-2.86805e-16
1.91383e-15
-2.79665e-15
1.8544e-15
-8.59567e-16
-4.32801e-16
7.44831e-16
-7.92542e-16
2.77945e-16
2.60334e-17
-1.92875e-16
7.39738e-17
2.24889e-16
-3.84373e-16
6.09325e-16
-4.59972e-16
5.45975e-16
-2.82486e-16
4.62341e-16
-2.61081e-16
5.37655e-16
-3.26545e-16
5.75473e-16
-3.0445e-16
5.18047e-16
-2.46649e-16
4.69676e-16
-2.31449e-16
4.54576e-16
-2.29702e-16
4.31776e-16
-2.13752e-16
4.04454e-16
-2.04173e-16
3.95818e-16
-2.1201e-16
4.02509e-16
-2.27867e-16
4.14759e-16
-2.50614e-16
4.3381e-16
-2.85672e-16
4.59172e-16
-3.31948e-16
4.84752e-16
-3.85847e-16
5.06757e-16
-4.46037e-16
5.241e-16
-5.10317e-16
5.35436e-16
-5.7483e-16
5.40336e-16
-6.36184e-16
5.4002e-16
-6.91435e-16
5.35964e-16
-7.37617e-16
5.29456e-16
-7.72617e-16
5.22046e-16
-7.95965e-16
5.15684e-16
-8.09169e-16
5.12977e-16
-8.1603e-16
5.17474e-16
-8.2236e-16
5.33292e-16
-8.34833e-16
5.64158e-16
-8.59436e-16
6.12304e-16
-8.9995e-16
6.77517e-16
-9.569e-16
7.56762e-16
-1.02738e-15
8.4461e-16
-1.10582e-15
9.34385e-16
-1.18546e-15
1.01974e-15
-1.26012e-15
1.09621e-15
-1.32574e-15
1.16226e-15
-1.38117e-15
1.21943e-15
-1.42792e-15
1.27152e-15
-1.46912e-15
1.32314e-15
-1.50808e-15
1.37832e-15
-1.54715e-15
1.43952e-15
-1.58717e-15
1.50737e-15
-1.62766e-15
1.58094e-15
-1.66731e-15
1.65838e-15
-1.70468e-15
1.73757e-15
-1.73897e-15
1.81692e-15
-1.77065e-15
1.89615e-15
-1.80206e-15
1.97684e-15
-1.83747e-15
2.0622e-15
-1.88225e-15
2.15592e-15
-1.94108e-15
2.26011e-15
-2.01554e-15
2.37301e-15
-2.10226e-15
2.48774e-15
-2.19233e-15
2.59256e-15
-2.27259e-15
2.67286e-15
-2.32818e-15
2.71405e-15
-2.3457e-15
2.70476e-15
-2.31623e-15
2.63975e-15
-2.23731e-15
2.52225e-15
-2.11235e-15
2.36645e-15
-1.94315e-15
2.20637e-15
-1.70243e-15
2.1383e-15
-1.23587e-15
2.50033e-15
1.00823e-16
4.56841e-15
4.78849e-15
1.3134e-14
2.20381e-14
4.57409e-14
8.50703e-14
1.64795e-13
3.10298e-13
5.85836e-13
1.09384e-12
2.03142e-12
3.74373e-12
6.85152e-12
1.24495e-11
2.24577e-11
4.02207e-11
7.15067e-11
1.26204e-10
2.21098e-10
3.84492e-10
6.63666e-10
1.13701e-09
1.93337e-09
3.26277e-09
5.46469e-09
9.08327e-09
1.49831e-08
2.45265e-08
3.98413e-08
6.42222e-08
1.02727e-07
1.63051e-07
2.568e-07
4.01327e-07
6.22338e-07
9.57589e-07
1.46203e-06
2.2149e-06
3.32951e-06
4.96631e-06
7.35056e-06
1.07956e-05
1.57333e-05
2.27534e-05
3.26541e-05
4.65058e-05
6.57304e-05
9.21997e-05
0.000128355
0.000177351
0.000243225
0.0003311
0.000447411
0.000600168
0.000799248
0.00105671
0.00138716
0.00180807
0.00234019
0.0030079
0.00383958
0.0048679
0.00613013
0.00766832
0.00952943
0.0117653
0.0144326
0.0175925
0.0213103
0.0256546
0.0306967
0.0365099
0.0431676
0.0507428
0.0593061
0.0689246
0.0796598
0.0915665
0.104691
0.119068
0.134723
0.151667
0.169897
0.189397
0.210134
0.232061
0.255113
0.279215
0.304273
0.330184
0.356831
0.38409
0.411827
0.439904
0.468177
0.496502
0.524738
0.552744
0.580385
0.607532
0.634067
0.65988
0.684871
0.708956
0.732059
0.75412
0.775092
0.794939
0.81364
0.831183
0.84757
0.862812
0.87693
0.889951
0.901912
0.912854
0.922824
0.931872
0.940052
0.947416
0.954022
0.959925
0.965179
0.969839
0.973957
0.977582
0.980761
0.98354
0.985961
0.988061
0.989878
0.991444
0.992789
0.99394
0.994923
0.995758
0.996466
0.997063
0.997566
0.997988
0.998339
0.998631
0.998872
0.999069
0.999227
0.999352
0.999447
0.999514
0.999555
0.999568
0.999552
0.999506
0.999422
0.999296
0.999119
0.998878
0.998561
0.998151
0.997628
0.996967
0.996141
0.995117
0.993858
0.992323
0.990463
0.988229
0.985563
0.982404
0.978687
0.974344
0.969302
0.963489
0.956832
0.949257
0.940693
0.931075
0.92034
0.908433
0.895309
0.880932
0.865277
0.848333
0.830103
0.810603
0.789866
0.767939
0.744887
0.720785
0.695727
0.669816
0.643169
0.61591
0.588173
0.560096
0.531823
0.503498
0.475262
0.447256
0.419615
0.392468
0.365933
0.34012
0.315129
0.291044
0.267941
0.24588
0.224908
0.205061
0.18636
0.168817
0.15243
0.137188
0.12307
0.110049
0.0980881
0.0871458
0.0771757
0.0681275
0.0599484
0.0525837
0.0459777
0.040075
0.0348206
0.0301606
0.0260432
0.0224184
0.0192388
0.0164597
0.0140393
0.0119387
0.0101219
0.00855596
0.00721087
0.00605935
0.00507682
0.00424126
0.00353299
0.00293456
0.00243056
0.00200743
0.0016533
0.00135786
0.00111212
0.000908356
0.000739901
0.000601055
0.000486952
0.000393458
0.000317073
0.000254846
0.000204296
0.00016335
0.000130274
0.000103631
8.22283e-05
6.50818e-05
5.13823e-05
4.04662e-05
3.17909e-05
2.49145e-05
1.94783e-05
1.51917e-05
1.18202e-05
9.17518e-06
7.10533e-06
5.48961e-06
4.23149e-06
3.25422e-06
2.49696e-06
1.91158e-06
1.46015e-06
1.11285e-06
8.46276e-07
6.42148e-07
4.86196e-07
3.67323e-07
2.76918e-07
2.08319e-07
1.56383e-07
1.17148e-07
8.75744e-08
6.53311e-08
4.86373e-08
3.61355e-08
2.67929e-08
1.98258e-08
1.46412e-08
1.0791e-08
7.93764e-09
5.82738e-09
4.26986e-09
3.12261e-09
2.27925e-09
1.66051e-09
1.20746e-09
8.76377e-10
6.34896e-10
4.59106e-10
3.31381e-10
2.38755e-10
1.71709e-10
1.23269e-10
8.83364e-11
6.31914e-11
4.51246e-11
3.2167e-11
2.28904e-11
1.62611e-11
1.1532e-11
8.16433e-12
5.77037e-12
4.07155e-12
2.86809e-12
2.017e-12
1.41615e-12
9.9266e-13
6.94688e-13
4.85377e-13
3.3859e-13
2.35819e-13
1.63983e-13
1.13851e-13
7.89218e-14
5.46243e-14
3.77491e-14
2.60473e-14
1.79457e-14
1.23453e-14
8.47995e-15
5.81617e-15
3.98326e-15
2.72396e-15
1.86006e-15
1.2683e-15
8.63561e-16
5.87136e-16
3.98626e-16
2.70257e-16
1.82969e-16
1.237e-16
8.35136e-17
5.63047e-17
3.79084e-17
2.54878e-17
1.71135e-17
1.14752e-17
7.68424e-18
5.13879e-18
3.43198e-18
2.28906e-18
1.52476e-18
1.01433e-18
6.73899e-19
4.47149e-19
2.96315e-19
1.96111e-19
1.29629e-19
8.55769e-20
5.64246e-20
3.71569e-20
2.44385e-20
1.60538e-20
1.05329e-20
6.90227e-21
4.51764e-21
2.95332e-21
1.92837e-21
1.25763e-21
8.19228e-22
5.33023e-22
3.46402e-22
2.24859e-22
1.45794e-22
9.44214e-23
6.10808e-23
3.94681e-23
2.5474e-23
1.64233e-23
1.05764e-23
6.80351e-24
4.37168e-24
2.806e-24
1.79908e-24
1.15224e-24
7.37163e-25
4.71105e-25
3.00751e-25
1.91794e-25
1.22181e-25
7.77523e-26
4.94275e-26
3.13886e-26
1.99124e-26
1.26191e-26
7.98892e-27
5.05247e-27
3.19212e-27
2.01472e-27
1.27032e-27
8.00167e-28
5.03517e-28
3.16532e-28
1.9879e-28
1.24723e-28
7.81758e-29
4.89529e-29
3.06243e-29
1.91397e-29
1.19506e-29
7.45476e-30
4.64586e-30
2.8926e-30
1.79931e-30
1.11819e-30
6.94265e-31
4.30659e-31
2.66897e-31
1.65255e-31
1.02229e-31
6.31826e-32
3.90149e-32
2.40699e-32
1.48365e-32
9.13698e-33
5.62199e-33
3.45618e-33
2.12286e-33
1.30277e-33
7.98804e-34
4.89369e-34
2.99544e-34
1.83194e-34
1.11943e-34
6.83453e-35
4.16929e-35
2.54118e-35
1.5477e-35
9.41624e-36
5.72735e-36
3.4759e-36
2.11504e-36
1.27504e-36
7.84287e-37
4.57547e-37
3.02781e-37
1.44234e-37
)
;

boundaryField
{
    sides
    {
        type            zeroGradient;
    }
    empty
    {
        type            empty;
    }
}


// ************************************************************************* //
