/*--------------------------------*- C++ -*----------------------------------*\
  =========                 |
  \\      /  F ield         | OpenFOAM: The Open Source CFD Toolbox
   \\    /   O peration     | Website:  https://openfoam.org
    \\  /    A nd           | Version:  6
     \\/     M anipulation  |
\*---------------------------------------------------------------------------*/
FoamFile
{
    version     2.0;
    format      ascii;
    class       surfaceScalarField;
    location    "14";
    object      phi;
}
// * * * * * * * * * * * * * * * * * * * * * * * * * * * * * * * * * * * * * //

dimensions      [0 3 -1 0 0 0 0];

internalField   nonuniform List<scalar> 
17370
(
-0.0899905
0.0898403
0.289161
-0.0714446
0.0537421
0.364478
-0.038117
0.027706
0.426579
-0.01967
0.0146442
0.504278
-0.0107941
0.00828224
0.601914
-0.00624965
0.00484753
0.72046
-0.00366343
0.00282175
0.863748
-0.0020964
0.00155775
1.03599
-0.001063
0.000671344
1.24289
-0.000291725
-4.59874e-05
1.49153
0.000384835
-0.000778608
1.49158
0.00117375
-0.00166471
1.24318
0.00219621
-0.00291006
1.03635
0.00374099
-0.00491501
0.864081
0.00630871
-0.00833571
0.721084
0.0108455
-0.0146906
0.60306
0.0197104
-0.0277391
0.507468
0.0381442
-0.0537643
0.431788
0.0714627
-0.0898524
0.365165
0.0899977
0.199013
-0.128176
0.0882975
0.0398787
-0.364634
0.353492
-0.074591
0.0857335
-0.44649
0.45439
-0.0842005
0.0763008
-0.52112
0.529962
-0.0681121
0.0592701
-0.612733
0.621539
-0.0509972
0.0421912
-0.726896
0.734057
-0.0347739
0.0276135
-0.867484
0.872503
-0.022094
0.0170759
-1.03847
1.0418
-0.0133512
0.0100172
-1.24462
1.24693
-0.0075222
0.00521063
-1.49267
1.49456
-0.00334554
0.00144959
-1.4924
1.49412
0.000255404
-0.00197168
-1.24399
1.24583
0.00383571
-0.00567563
-1.0375
1.03997
0.00796337
-0.0104317
-0.866083
0.869783
0.0137358
-0.0174357
-0.724406
0.729896
0.0224181
-0.0279079
-0.608692
0.616081
0.0350329
-0.0424216
-0.514852
0.523106
0.0512016
-0.0594556
-0.439844
0.448014
0.0682763
-0.0764462
-0.375345
0.376851
0.0843236
-0.08583
-0.257407
0.222655
0.074656
-0.0399037
-0.0686317
0.0588979
0.00973384
-0.0513125
0.0578007
-0.374219
0.367731
-0.0568946
0.0532104
-0.453711
0.457395
-0.0482347
0.0443063
-0.528069
0.531997
-0.0403811
0.0365804
-0.621492
0.625293
-0.0323106
0.0282345
-0.735145
0.739221
-0.0238219
0.0198442
-0.874137
0.878115
-0.0157206
0.0121698
-1.04327
1.04682
-0.0086161
0.00560543
-1.24839
1.2514
-0.00245745
-0.000509287
-1.49654
1.49951
0.00346184
-0.00656937
-1.49712
1.50022
0.00953092
-0.0130163
-1.24991
1.2534
0.0165017
-0.0205546
-1.0458
1.04986
0.024468
-0.0288179
-0.877625
0.881974
0.0328446
-0.037066
-0.739831
0.744053
0.0408212
-0.0446942
-0.626915
0.630788
0.0485764
-0.0535093
-0.535064
0.539997
0.057154
-0.0580151
-0.457667
0.458528
0.0514742
-0.0315819
-0.33605
0.316158
0.00976001
-0.0685536
0.0587936
-0.0532521
0.0493653
0.00388678
-0.0324143
0.0426784
-0.358493
0.348229
-0.0461624
0.0454248
-0.459295
0.460033
-0.0423243
0.03901
-0.535763
0.539077
-0.0353062
0.0321175
-0.628601
0.63179
-0.0288427
0.0258763
-0.742569
0.745535
-0.0226153
0.019539
-0.88162
0.884696
-0.0161439
0.01299
-1.05024
1.0534
-0.00952549
0.00632265
-1.25459
1.25779
-0.00273202
-0.000730847
-1.50275
1.50621
0.00416766
-0.00769445
-1.5036
1.50713
0.0108389
-0.0142238
-1.25694
1.26032
0.0172903
-0.0205837
-1.05358
1.05687
0.0235711
-0.0267347
-0.885628
0.888792
0.0296139
-0.0328213
-0.747476
0.750683
0.0359471
-0.0395885
-0.634542
0.638184
0.0428495
-0.0458917
-0.544236
0.547278
0.0465673
-0.0429964
-0.456972
0.453401
0.0326329
-0.0156984
-0.297203
0.280268
0.00392091
-0.0531179
0.0491969
-0.0464321
0.0441333
0.00229878
-0.0212519
0.0309767
-0.337984
0.328259
-0.0363848
0.0372341
-0.459913
0.459064
-0.0359467
0.0336578
-0.541821
0.54411
-0.0310729
0.0286403
-0.634668
0.6371
-0.0258421
0.0232552
-0.74833
0.750917
-0.020405
0.0178338
-0.88737
0.889941
-0.0149449
0.0122334
-1.05622
1.05893
-0.0090957
0.00604383
-1.26096
1.26401
-0.00247423
-0.00100976
-1.50982
1.51331
0.00447002
-0.00797907
-1.51074
1.51425
0.0109372
-0.0139553
-1.26348
1.2665
0.0165539
-0.01932
-1.05972
1.06248
0.0217808
-0.0245144
-0.891659
0.894392
0.0269894
-0.0296591
-0.753743
0.756413
0.0319951
-0.0344836
-0.641253
0.643742
0.0366921
-0.0378775
-0.549343
0.550528
0.0369282
-0.0313864
-0.448582
0.443041
0.0215226
-0.00932913
-0.265819
0.253626
0.00233876
-0.046229
0.0438903
-0.042281
0.0407698
0.00151115
-0.0145424
0.0227103
-0.319233
0.311065
-0.0285419
0.0304565
-0.457571
0.455657
-0.0301896
0.0288418
-0.545908
0.547256
-0.0270536
0.0252579
-0.639223
0.641019
-0.0231615
0.0211359
-0.753221
0.755247
-0.0186973
0.0162856
-0.892515
0.894926
-0.0134824
0.0108303
-1.06166
1.06431
-0.00783351
0.00501752
-1.26693
1.26974
-0.00179441
-0.00130663
-1.51653
1.51963
0.00437957
-0.00752464
-1.51754
1.52069
0.0102352
-0.0130839
-1.26948
1.27232
0.0155773
-0.0181913
-1.06527
1.06788
0.0204376
-0.022702
-0.896941
0.899205
0.0245989
-0.0265509
-0.758733
0.760685
0.028214
-0.0298683
-0.645833
0.647488
0.0311062
-0.0312496
-0.551055
0.551199
0.0292018
-0.0231948
-0.437108
0.431101
0.0148563
-0.00618133
-0.243294
0.234619
0.00155881
-0.0419926
0.0404338
-0.03956
0.0386511
0.000908826
-0.00885966
0.0148772
-0.303918
0.297901
-0.0202113
0.0226319
-0.453479
0.451059
-0.0229897
0.0223073
-0.548276
0.548958
-0.0210793
0.0199133
-0.642416
0.643582
-0.0185474
0.0171483
-0.756929
0.758328
-0.0154715
0.0137732
-0.896997
0.898695
-0.011715
0.00960594
-1.06675
1.06886
-0.00704249
0.00445959
-1.27249
1.27507
-0.00136656
-0.00173398
-1.52276
1.52586
0.00478827
-0.00775019
-1.52378
1.52674
0.0101689
-0.0125313
-1.27498
1.27734
0.01445
-0.0163037
-1.07017
1.07202
0.0178064
-0.0192604
-0.901052
0.902506
0.020459
-0.021634
-0.762176
0.763351
0.0226368
-0.0236925
-0.648786
0.649842
0.0242075
-0.0236589
-0.551041
0.550492
0.0210404
-0.0154689
-0.425246
0.419674
0.00924161
-0.0037246
-0.227547
0.22203
0.000969178
-0.0391707
0.0382015
-0.0380444
0.0376968
0.000347611
-0.00420929
0.00794579
-0.293057
0.289321
-0.0121724
0.0147766
-0.448457
0.445853
-0.0158679
0.0159579
-0.549236
0.549146
-0.0153511
0.0146206
-0.64457
0.645301
-0.0137688
0.0128697
-0.75951
0.760409
-0.0117213
0.0104919
-0.900117
0.901346
-0.00891196
0.00726048
-1.07068
1.07233
-0.00519374
0.00306889
-1.27741
1.27954
-0.000451819
-0.00218986
-1.52878
1.53142
0.00477613
-0.00724345
-1.52947
1.53194
0.00917964
-0.010994
-1.27939
1.28121
0.0123854
-0.0136627
-1.07352
1.0748
0.0146126
-0.0154722
-0.903638
0.904498
0.0160842
-0.0166817
-0.764268
0.764865
0.0171937
-0.0175805
-0.650597
0.650983
0.0172821
-0.0159579
-0.549508
0.548184
0.013119
-0.00862369
-0.414556
0.410061
0.00465244
-0.00171754
-0.217935
0.215
0.000417795
-0.0375293
0.0371116
-0.0375338
0.0374823
5.14501e-05
-0.00177092
0.00394828
-0.286499
0.284322
-0.00691396
0.00912521
-0.443428
0.441216
-0.0104295
0.0109049
-0.548823
0.548348
-0.0109433
0.0107886
-0.645701
0.645856
-0.0104033
0.00992265
-0.761
0.761481
-0.00919782
0.00832264
-0.902379
0.903254
-0.00707982
0.00567412
-1.07387
1.07528
-0.00385252
0.00193749
-1.28153
1.28345
0.000401629
-0.00272869
-1.53386
1.53619
0.0050014
-0.00717121
-1.53422
1.53639
0.00885527
-0.0103666
-1.28287
1.28438
0.0114594
-0.012344
-1.07586
1.07675
0.0129018
-0.0132876
-0.905031
0.905417
0.0134993
-0.0134961
-0.765121
0.765117
0.0133466
-0.0130178
-0.650999
0.65067
0.0122601
-0.0106406
-0.546677
0.545058
0.00812573
-0.00481915
-0.406227
0.402921
0.00234218
-0.000750402
-0.212893
0.211301
0.000142452
-0.0368697
0.0367272
-0.0374792
0.0374875
-8.27075e-06
-0.0010259
0.00260888
-0.282525
0.280942
-0.00509898
0.00730453
-0.439086
0.43688
-0.00898833
0.00985806
-0.547688
0.546819
-0.0101934
0.0102241
-0.64589
0.645859
-0.0100101
0.00951526
-0.761996
0.762491
-0.00870662
0.00774685
-0.904114
0.905074
-0.00644001
0.00499621
-1.07662
1.07806
-0.00312174
0.00116525
-1.28533
1.28728
0.00118736
-0.00346653
-1.53844
1.54072
0.00567574
-0.00779733
-1.53848
1.5406
0.00944206
-0.010913
-1.2858
1.28727
0.0119624
-0.0128142
-1.07756
1.07842
0.0133223
-0.0136232
-0.905855
0.906156
0.013671
-0.0135117
-0.764995
0.764836
0.0131379
-0.0124401
-0.650092
0.649395
0.0112446
-0.00917662
-0.543277
0.541209
0.00659558
-0.00368216
-0.399908
0.396995
0.00172694
-0.000546463
-0.209984
0.208804
0.000101231
-0.0366242
0.036523
-0.0374974
0.0375111
-1.37695e-05
-0.000658275
0.00191491
-0.279514
0.278258
-0.00424039
0.00676661
-0.434509
0.431982
-0.00926729
0.0108969
-0.54564
0.544011
-0.0118605
0.0121441
-0.645726
0.645443
-0.0119745
0.0114114
-0.762983
0.763546
-0.0104656
0.00925119
-0.906158
0.907372
-0.00755593
0.00571109
-1.07971
1.08155
-0.00339196
0.00104162
-1.28942
1.29177
0.00176009
-0.0044822
-1.54318
1.5459
0.00711011
-0.00962445
-1.54289
1.5454
0.0115789
-0.0133644
-1.28889
1.29068
0.0146824
-0.0157916
-1.0794
1.08051
0.0164852
-0.0169159
-0.906443
0.906873
0.0168826
-0.01645
-0.764559
0.764127
0.0157485
-0.0142573
-0.64841
0.646918
0.0121427
-0.00910818
-0.538683
0.535649
0.00609091
-0.00323696
-0.394093
0.391239
0.00152478
-0.000528875
-0.207712
0.206716
0.000123628
-0.0364092
0.0362855
-0.0375372
0.0375819
-4.47113e-05
-0.000155098
0.000936409
-0.277225
0.276444
-0.00273286
0.00510081
-0.429442
0.427074
-0.00796477
0.0102221
-0.541991
0.539734
-0.01198
0.0126064
-0.64505
0.644423
-0.0125869
0.0122016
-0.764024
0.76441
-0.011149
0.00974004
-0.908704
0.910113
-0.00779116
0.00569715
-1.08355
1.08565
-0.00310075
0.000482928
-1.29429
1.29691
0.00266203
-0.00573872
-1.54885
1.55193
0.00868576
-0.0114547
-1.5481
1.55087
0.0135974
-0.0155547
-1.29259
1.29455
0.016964
-0.0180975
-1.08167
1.08281
0.0187242
-0.0189305
-0.907255
0.907461
0.0187876
-0.0181893
-0.76364
0.763042
0.0168033
-0.0143365
-0.644896
0.64243
0.0114727
-0.00795568
-0.532249
0.528732
0.00500234
-0.00257498
-0.388544
0.386117
0.00123604
-0.000465034
-0.205832
0.205061
0.000124236
-0.0361599
0.0360356
-0.037651
0.0377457
-9.46606e-05
0.000324484
-7.98793e-05
-0.27592
0.275675
-0.000895832
0.00248615
-0.425044
0.423454
-0.00472607
0.00674507
-0.537463
0.535444
-0.00854112
0.00963567
-0.643423
0.642328
-0.0100006
0.00963453
-0.764831
0.765198
-0.00871093
0.00744777
-0.911519
0.912782
-0.00564788
0.00367664
-1.08773
1.0897
-0.00119402
-0.00132761
-1.29953
1.30205
0.00434978
-0.00728459
-1.555
1.55794
0.010048
-0.0125982
-1.55359
1.55614
0.0145173
-0.0161596
-1.29641
1.29806
0.017261
-0.0180878
-1.08383
1.08466
0.0184861
-0.018448
-0.907516
0.907478
0.0178683
-0.0164433
-0.76208
0.760655
0.0145319
-0.0118571
-0.639729
0.637054
0.00907727
-0.00604146
-0.525355
0.522319
0.00373971
-0.00198058
-0.384019
0.38226
0.00101752
-0.000420447
-0.204389
0.203792
0.000122313
-0.0359131
0.0357908
-0.0378661
0.0380101
-0.000143924
0.000781242
-0.000914649
-0.275647
0.27578
0.000703296
-4.49089e-06
-0.422326
0.421627
-0.00120565
0.00241143
-0.533816
0.53261
-0.00354752
0.00426093
-0.641412
0.640698
-0.00458345
0.00443961
-0.765403
0.765547
-0.00383599
0.00290405
-0.913864
0.914796
-0.00149591
-0.000106854
-1.0915
1.0931
0.00217266
-0.00428862
-1.30439
1.30651
0.00679127
-0.00915434
-1.56062
1.56298
0.0113127
-0.013172
-1.55839
1.56025
0.0144461
-0.0154583
-1.29942
1.30043
0.0159961
-0.0161509
-1.08514
1.0853
0.015909
-0.015261
-0.907128
0.90648
0.0142455
-0.0127264
-0.759127
0.757608
0.0109868
-0.0087921
-0.634598
0.632403
0.00667493
-0.00450861
-0.519725
0.517559
0.00292663
-0.00170286
-0.380803
0.379579
0.000966186
-0.000433489
-0.203243
0.20271
0.000131595
-0.035667
0.0355354
-0.0381759
0.038364
-0.000188023
0.00111337
-0.00157834
-0.276064
0.276528
0.00186006
-0.00184669
-0.4213
0.421287
0.00150755
-0.00107255
-0.531833
0.531398
0.000645261
-0.000421926
-0.640241
0.640018
0.000426023
-0.000683547
-0.765729
0.765987
0.00126111
-0.00205786
-0.915628
0.916425
0.00321976
-0.00452219
-1.09452
1.09582
0.00618029
-0.00784731
-1.30838
1.31005
0.00975383
-0.0114702
-1.56501
1.56672
0.0129251
-0.0140649
-1.56174
1.56288
0.0146721
-0.0148986
-1.30104
1.30126
0.0148062
-0.0143924
-1.08515
1.08474
0.0137363
-0.0127388
-0.905627
0.904629
0.0116026
-0.0101536
-0.756117
0.754668
0.00867998
-0.00697283
-0.630475
0.628768
0.00543183
-0.00389999
-0.515761
0.514229
0.00275296
-0.00177783
-0.378515
0.37754
0.00109194
-0.00051629
-0.202169
0.201593
0.000160921
-0.0353934
0.0352325
-0.038577
0.0388146
-0.000237592
0.00145318
-0.00214092
-0.277089
0.277777
0.00280946
-0.00323889
-0.421479
0.421909
0.00351404
-0.00367717
-0.531331
0.531494
0.00384557
-0.00407816
-0.640087
0.64032
0.00447986
-0.00500689
-0.766388
0.766915
0.00577171
-0.00664248
-0.917219
0.91809
0.00777843
-0.0089624
-1.09701
1.09819
0.0103835
-0.0117334
-1.31151
1.31286
0.0131735
-0.0143501
-1.56814
1.56932
0.0151956
-0.0156382
-1.56367
1.56411
0.0156428
-0.0153465
-1.30121
1.30091
0.014833
-0.0139835
-1.08403
1.08318
0.0130192
-0.0118147
-0.903502
0.902297
0.0106163
-0.00923144
-0.753258
0.751873
0.00793272
-0.0065158
-0.627251
0.625834
0.00527812
-0.00403681
-0.512898
0.511656
0.00304234
-0.00209308
-0.376605
0.375655
0.00133838
-0.0006488
-0.200973
0.200283
0.000205435
-0.0350566
0.0348511
-0.0390869
0.0393865
-0.00029955
0.00185487
-0.00276974
-0.278573
0.279487
0.00372413
-0.00448819
-0.422494
0.423258
0.00518038
-0.00574999
-0.531935
0.532505
0.00638518
-0.00704278
-0.640869
0.641527
0.00787656
-0.00875928
-0.767623
0.768506
0.009856
-0.0109567
-0.919009
0.920109
0.0122442
-0.0134746
-1.09933
1.10056
0.0148452
-0.0160476
-1.31408
1.31528
0.0172041
-0.0179963
-1.57026
1.57105
0.0183768
-0.0182966
-1.56427
1.56419
0.0178484
-0.017066
-1.30036
1.29958
0.0161317
-0.0149451
-1.08214
1.08095
0.0137532
-0.0123805
-0.900987
0.899614
0.011098
-0.00969011
-0.750482
0.749075
0.00842237
-0.0070743
-0.624505
0.623157
0.00590027
-0.00468828
-0.510495
0.509283
0.00365337
-0.00258537
-0.374676
0.373608
0.00168188
-0.000824775
-0.199528
0.198671
0.000263974
-0.0346318
0.0343678
-0.039735
0.0401145
-0.000379501
0.00235973
-0.00353699
-0.280547
0.281724
0.00479087
-0.00583239
-0.424206
0.425248
0.00684609
-0.00774122
-0.533382
0.534277
0.00878337
-0.00985147
-0.642475
0.643543
0.0111565
-0.0124589
-0.769531
0.770833
0.0139777
-0.0154151
-0.92125
0.922687
0.0170001
-0.0184161
-1.1018
1.10322
0.0198892
-0.0210859
-1.31639
1.31759
0.022108
-0.0226426
-1.57166
1.57219
0.0226622
-0.0221465
-1.56386
1.56335
0.021302
-0.0200799
-1.29855
1.29733
0.0187851
-0.0172499
-1.07955
1.07802
0.0157973
-0.0141956
-0.89808
0.896479
0.0127511
-0.0112068
-0.747581
0.746037
0.00983843
-0.00838922
-0.621818
0.620369
0.00711192
-0.00575376
-0.508097
0.506739
0.00454591
-0.00324905
-0.37248
0.371184
0.00212679
-0.00104813
-0.197739
0.196661
0.000337889
-0.0340978
0.0337599
-0.0405649
0.0410494
-0.000484558
0.00301055
-0.00451532
-0.283107
0.284611
0.00613275
-0.00749665
-0.426583
0.427946
0.00886151
-0.0100969
-0.535588
0.536823
0.0115523
-0.0130485
-0.644871
0.646367
0.0148524
-0.0166039
-0.772211
0.773963
0.0185956
-0.0204406
-0.924135
0.92598
0.0224417
-0.0241826
-1.10464
1.10638
0.0259037
-0.0272034
-1.31873
1.32003
0.0281891
-0.0285378
-1.57257
1.57292
0.0282435
-0.0273098
-1.56259
1.56166
0.0260553
-0.0243833
-1.29586
1.29419
0.0226955
-0.0207602
-1.07624
1.0743
0.0189787
-0.0170607
-0.894634
0.892716
0.0153654
-0.0135802
-0.744304
0.742519
0.0120101
-0.0103441
-0.618863
0.617197
0.00885507
-0.00723335
-0.505403
0.503782
0.00574776
-0.00410252
-0.369846
0.3682
0.00267561
-0.00131657
-0.195511
0.194152
0.000424221
-0.0334297
0.0330055
-0.0416393
0.0422743
-0.00063496
0.00389854
-0.00584337
-0.286413
0.288358
0.00794214
-0.00972046
-0.4297
0.431478
0.0115067
-0.0131343
-0.53859
0.540217
0.0150571
-0.0170236
-0.648139
0.650105
0.0193984
-0.0216992
-0.775751
0.778052
0.0242981
-0.0266678
-0.927802
0.930172
0.0291731
-0.03129
-1.10808
1.1102
0.0333142
-0.0347712
-1.32127
1.32273
0.03577
-0.0359563
-1.57312
1.5733
0.0353452
-0.033963
-1.56047
1.55909
0.0322504
-0.0300567
-1.29224
1.29004
0.0278958
-0.0254608
-1.07207
1.06963
0.0232506
-0.0209016
-0.890458
0.888109
0.0188506
-0.0167147
-0.740419
0.738283
0.0148478
-0.0128656
-0.615385
0.613403
0.0110727
-0.00907928
-0.502191
0.500197
0.00722119
-0.00516665
-0.366593
0.364538
0.00336902
-0.00164488
-0.192732
0.191008
0.000527169
-0.0325961
0.032069
-0.0430393
0.0439
-0.000860676
0.00517968
-0.00774117
-0.290681
0.293243
0.0104841
-0.012787
-0.433751
0.436054
0.0150858
-0.0171905
-0.542529
0.544634
0.0196992
-0.0222668
-0.652419
0.654987
0.0253427
-0.0282957
-0.78034
0.783293
0.0315826
-0.0345237
-0.932468
0.935409
0.0375905
-0.0401434
-1.11229
1.11484
0.0425352
-0.0441913
-1.32413
1.32578
0.0452184
-0.0452228
-1.57331
1.57332
0.0442456
-0.0423371
-1.55742
1.55551
0.0400812
-0.0372608
-1.28753
1.28471
0.0345205
-0.0314605
-1.06684
1.06378
0.0287012
-0.0257857
-0.885331
0.882416
0.023256
-0.0206425
-0.735698
0.733085
0.0183727
-0.01597
-0.611169
0.608766
0.0137828
-0.0113236
-0.498255
0.495796
0.0090177
-0.00645515
-0.362533
0.359971
0.00421221
-0.00205624
-0.189263
0.187107
0.000656793
-0.0315657
0.0309089
-0.0448926
0.0460901
-0.00119756
0.00706372
-0.0104981
-0.296227
0.299661
0.014109
-0.0170931
-0.439007
0.441991
0.0200508
-0.0227854
-0.547652
0.550386
0.0260555
-0.0293773
-0.657956
0.661278
0.0333048
-0.0370106
-0.786228
0.789934
0.0410775
-0.0446829
-0.938329
0.941935
0.0484012
-0.051448
-1.11738
1.12043
0.0542268
-0.0560582
-1.32734
1.32917
0.0570456
-0.0567752
-1.57307
1.5728
0.0553199
-0.0527574
-1.55323
1.55067
0.0498398
-0.0462608
-1.2815
1.27792
0.0428187
-0.0389973
-1.0603
1.05648
0.0355619
-0.0319382
-0.878994
0.87537
0.0288015
-0.0255761
-0.729897
0.726671
0.0227909
-0.0198589
-0.605981
0.603049
0.0171886
-0.01417
-0.493365
0.490346
0.0112901
-0.00807545
-0.357486
0.354271
0.00526267
-0.00256579
-0.184935
0.182239
0.000817663
-0.0302946
0.0294769
-0.0474034
0.0491043
-0.00170089
0.00984037
-0.0144803
-0.303519
0.308159
0.0192057
-0.023043
-0.445863
0.4497
0.026835
-0.0303972
-0.554319
0.557881
0.0346759
-0.0389814
-0.665077
0.669382
0.0439919
-0.0486437
-0.793699
0.798351
0.0536745
-0.0580624
-0.945578
0.949966
0.0624989
-0.0660354
-1.12345
1.12699
0.0691309
-0.0710288
-1.33085
1.33275
0.0718188
-0.0710997
-1.57219
1.57147
0.0689865
-0.0655889
-1.54763
1.54423
0.061856
-0.0573599
-1.27386
1.26936
0.053079
-0.0483513
-1.05216
1.04743
0.0441106
-0.0396384
-0.871156
0.866684
0.0357685
-0.0317946
-0.72274
0.718766
0.0283721
-0.0247845
-0.599572
0.595984
0.0215167
-0.0178064
-0.487274
0.483564
0.0142289
-0.0101546
-0.351188
0.347114
0.00659649
-0.0032009
-0.179566
0.17617
0.00101317
-0.0287308
0.0277176
-0.0508995
0.0534259
-0.00252636
0.0141402
-0.0204576
-0.313292
0.319609
0.0266163
-0.0315563
-0.454898
0.459838
0.0364575
-0.0411477
-0.563039
0.567729
0.0467897
-0.0523606
-0.67423
0.679801
0.0586983
-0.0644551
-0.80307
0.808827
0.0705463
-0.0757272
-0.954358
0.959539
0.0808141
-0.08472
-1.13042
1.13433
0.0879549
-0.0897228
-1.33439
1.33616
0.090068
-0.0886533
-1.57028
1.56887
0.0856455
-0.0811861
-1.54024
1.53578
0.0764575
-0.0708679
-1.26428
1.25869
0.0656003
-0.0598138
-1.0421
1.03632
0.0546351
-0.0491738
-0.861514
0.856053
0.0444452
-0.0395839
-0.713931
0.70907
0.0353997
-0.0310251
-0.591651
0.587276
0.0270307
-0.0224553
-0.479683
0.475108
0.0179926
-0.0128624
-0.343254
0.338124
0.00831493
-0.0039925
-0.172889
0.168566
0.00124781
-0.0268119
0.0255641
-0.0559545
0.0599766
-0.0040221
0.0214049
-0.0302453
-0.326662
0.335502
0.0384226
-0.0448065
-0.466961
0.473345
0.0512064
-0.0573974
-0.574522
0.580713
0.0647685
-0.0718327
-0.685926
0.69299
0.0796081
-0.086435
-0.814609
0.821436
0.0934279
-0.0991799
-0.964628
0.97038
0.104603
-0.108549
-1.13797
1.14192
0.111535
-0.112809
-1.33746
1.33874
0.112314
-0.109863
-1.56679
1.56434
0.105665
-0.0998908
-1.53059
1.52481
0.0939805
-0.0871274
-1.25242
1.24556
0.0807403
-0.0737637
-1.02985
1.02287
0.0675357
-0.0609654
-0.849792
0.843222
0.0552624
-0.0493817
-0.703179
0.697298
0.0443212
-0.0390407
-0.581886
0.576606
0.0341856
-0.0285403
-0.470195
0.46455
0.0229379
-0.0164142
-0.333256
0.326732
0.010584
-0.00504093
-0.164494
0.158951
0.00155063
-0.024453
0.0229024
-0.0637308
0.0709636
-0.00723279
0.0349864
-0.0479452
-0.345872
0.358831
0.0589884
-0.0670298
-0.483324
0.491365
0.0751169
-0.0830788
-0.589481
0.597443
0.0922769
-0.100668
-0.700436
0.708827
0.109502
-0.116953
-0.828074
0.835525
0.124297
-0.130067
-0.975778
0.981547
0.135202
-0.138592
-1.14531
1.1487
0.140698
-0.140905
-1.33925
1.33946
0.139024
-0.135079
-1.56096
1.55701
0.129332
-0.121974
-1.51814
1.51078
0.114694
-0.106441
-1.23794
1.22969
0.0988405
-0.0906056
-1.01517
1.00694
0.0832787
-0.0755567
-0.835795
0.828073
0.0688391
-0.0618829
-0.690261
0.683304
0.0558791
-0.049617
-0.569975
0.563713
0.0438279
-0.0369279
-0.458255
0.451355
0.029848
-0.0214637
-0.32043
0.312046
0.0138151
-0.00646566
-0.153845
0.146496
0.00189024
-0.0215558
0.0196656
-0.0779678
0.0813167
-0.00334887
0.0243019
-0.0353253
-0.374742
0.385765
0.0453216
-0.053251
-0.504775
0.512705
0.0621528
-0.0718095
-0.607595
0.617252
0.0825854
-0.0922174
-0.716815
0.726447
0.102937
-0.112402
-0.842203
0.851668
0.122236
-0.130658
-0.9864
0.994822
0.139018
-0.145682
-1.15106
1.15772
0.151575
-0.15537
-1.33853
1.34233
0.157298
-0.156505
-1.55186
1.55107
0.152861
-0.146764
-1.50234
1.49624
0.139636
-0.130604
-1.22058
1.21155
0.121782
-0.111214
-0.997954
0.987386
0.101528
-0.0908785
-0.819496
0.808846
0.0813541
-0.0712569
-0.675171
0.665074
0.06215
-0.0527569
-0.555737
0.546344
0.0443327
-0.034292
-0.443457
0.433416
0.0248063
-0.015204
-0.303632
0.29403
0.00794424
-0.00268795
-0.139831
0.134575
0.000332265
-0.0179913
0.017659
-0.0888202
0.085476
0.00334417
0.00177759
-0.00793982
-0.39965
0.405813
0.0156834
-0.0223331
-0.525343
0.531993
0.0308029
-0.0392294
-0.627347
0.635774
0.0489481
-0.0578192
-0.73599
0.744861
0.0672814
-0.0758509
-0.860672
0.869242
0.0847739
-0.0921425
-1.00297
1.01034
0.0996888
-0.105413
-1.16427
1.16999
0.110461
-0.113452
-1.34595
1.34894
0.114375
-0.112852
-1.54957
1.54805
0.108627
-0.102109
-1.48941
1.48289
0.0945746
-0.0853301
-1.20209
1.19285
0.0764384
-0.0662958
-0.976592
0.966449
0.0568066
-0.0463088
-0.797459
0.786961
0.0369277
-0.0273215
-0.653135
0.643528
0.0191023
-0.0106818
-0.534297
0.525876
0.00350765
0.00287369
-0.421498
0.415117
-0.00671274
0.00829211
-0.283078
0.281498
-0.00757863
0.00491335
-0.127843
0.130508
-0.00204492
-0.0160439
0.0180889
-0.0879933
0.0844851
0.00350812
-0.00597641
0.00322474
-0.41566
0.418412
0.00147024
-0.00677107
-0.542378
0.547679
0.0137494
-0.0209981
-0.644552
0.651801
0.0292868
-0.0368744
-0.753194
0.760781
0.0451799
-0.0525736
-0.877164
0.884558
0.060077
-0.0666591
-1.01757
1.02415
0.0732503
-0.0783713
-1.17536
1.18048
0.0825407
-0.0848734
-1.35141
1.35374
0.0855688
-0.0838788
-1.54606
1.54437
0.0797399
-0.0736083
-1.47608
1.46995
0.0667247
-0.058596
-1.18384
1.17571
0.0505447
-0.0417064
-0.956397
0.947559
0.0335385
-0.0246193
-0.776984
0.768064
0.0169319
-0.00907301
-0.633388
0.625529
0.00259746
0.00387851
-0.515704
0.509228
-0.00877013
0.0124179
-0.406277
0.402629
-0.013701
0.012183
-0.275968
0.277486
-0.00911747
0.00520712
-0.130298
0.134208
-0.00192499
-0.0182894
0.0202144
-0.0855913
0.0822468
0.00334452
-0.00870729
0.00791946
-0.425603
0.42639
-0.00504917
0.000789623
-0.555659
0.559918
0.00525526
-0.0113008
-0.658878
0.664924
0.0183603
-0.0248463
-0.768073
0.774559
0.0319135
-0.0382333
-0.891539
0.897858
0.045041
-0.0506621
-1.03037
1.036
0.0565072
-0.0606797
-1.1853
1.18947
0.0644262
-0.0665401
-1.356
1.35812
0.0670874
-0.0653689
-1.54253
1.54081
0.0618569
-0.0566716
-1.46371
1.45852
0.0508297
-0.0436828
-1.16787
1.16072
0.037006
-0.0297984
-0.939047
0.93184
0.0230945
-0.0161568
-0.759816
0.752878
0.00990151
-0.00375498
-0.617406
0.61126
-0.00123697
0.00577016
-0.50155
0.497017
-0.00888035
0.0109772
-0.396076
0.393979
-0.0112566
0.00912731
-0.273823
0.275953
-0.00655842
0.00357219
-0.134604
0.13759
-0.00132205
-0.0204448
0.0217668
-0.0832386
0.0804867
0.00275189
-0.00894304
0.0093372
-0.431968
0.431574
-0.00712464
0.00378504
-0.566664
0.570004
0.00112012
-0.00654007
-0.670998
0.676418
0.0124878
-0.018208
-0.780645
0.786365
0.024354
-0.0298868
-0.903863
0.909396
0.0358027
-0.0408868
-1.04158
1.04666
0.0459491
-0.0499363
-1.19363
1.19762
0.0533349
-0.0553024
-1.36004
1.36201
0.0559094
-0.0544967
-1.53916
1.53774
0.0515329
-0.0469471
-1.45303
1.44845
0.0419734
-0.0360634
-1.15397
1.14806
0.0304925
-0.0244011
-0.924837
0.918746
0.018982
-0.0133186
-0.746185
0.740522
0.00845552
-0.00363449
-0.605116
0.600295
-0.000129799
0.00343268
-0.49123
0.487927
-0.00575048
0.00710127
-0.389263
0.387912
-0.00698586
0.00556149
-0.272778
0.274203
-0.00399554
0.0021323
-0.136973
0.138836
-0.000868551
-0.0215332
0.0224017
-0.0813717
0.0791012
0.00227052
-0.00819513
0.00875372
-0.436104
0.435545
-0.00753506
0.00466883
-0.575301
0.578167
-3.76639e-05
-0.00458318
-0.681373
0.685994
0.00972086
-0.0147189
-0.791549
0.796547
0.0202192
-0.0252173
-0.914697
0.919695
0.0307109
-0.0352729
-1.05156
1.05612
0.0399879
-0.043734
-1.20147
1.20521
0.0469212
-0.0488219
-1.36388
1.36578
0.0494913
-0.048674
-1.53641
1.53559
0.0461183
-0.0423157
-1.44368
1.43988
0.0380077
-0.0328943
-1.14226
1.13715
0.0283124
-0.0229948
-0.912867
0.90755
0.0183491
-0.013666
-0.735098
0.730415
0.00959202
-0.00554886
-0.595537
0.591494
0.0023445
0.000633231
-0.483426
0.480449
-0.002423
0.00361523
-0.38403
0.382838
-0.00399516
0.00331995
-0.271057
0.271733
-0.00245937
0.00141778
-0.13731
0.138352
-0.000630722
-0.0218177
0.0224485
-0.0800564
0.0783121
0.00174433
-0.00688278
0.0075984
-0.439114
0.438398
-0.00651963
0.00420732
-0.582958
0.58527
6.22842e-06
-0.00417875
-0.690442
0.694615
0.00908545
-0.013448
-0.80136
0.805723
0.0183453
-0.0228453
-0.924765
0.929265
0.0281346
-0.0323815
-1.06079
1.06504
0.0367131
-0.0404003
-1.20889
1.21257
0.0439143
-0.0458577
-1.36785
1.36979
0.0468248
-0.0462202
-1.53456
1.53396
0.0443344
-0.0407858
-1.43599
1.43245
0.0371093
-0.0326723
-1.13202
1.12758
0.0284556
-0.0238476
-0.902407
0.897799
0.0196288
-0.015234
-0.725601
0.721206
0.0117702
-0.0080193
-0.587259
0.583508
0.0049718
-0.0023508
-0.476552
0.473931
0.000480561
0.000982744
-0.379369
0.377906
-0.00160072
0.0015931
-0.2687
0.268707
-0.00135558
0.000908529
-0.13634
0.136787
-0.000480227
-0.0216727
0.0221529
-0.0793516
0.0779931
0.00135846
-0.00552364
0.00630153
-0.441497
0.440719
-0.00519922
0.0028952
-0.589633
0.591937
0.000966805
-0.00471701
-0.698653
0.702403
0.00897196
-0.0132069
-0.810196
0.814431
0.0177784
-0.0224479
-0.933665
0.938334
0.0270886
-0.0312203
-1.06944
1.07358
0.035754
-0.0393194
-1.21622
1.21979
0.0425198
-0.0450018
-1.37177
1.37425
0.0463039
-0.0461244
-1.53354
1.53336
0.0445126
-0.0415869
-1.42912
1.4262
0.0382585
-0.0341359
-1.12286
1.11873
0.0302492
-0.02589
-0.893068
0.888708
0.0219156
-0.0178955
-0.71684
0.712819
0.0143043
-0.0107599
-0.579521
0.575977
0.00788571
-0.00506794
-0.470375
0.467557
0.00299034
-0.00152299
-0.374473
0.373006
0.000510553
0.00012323
-0.265532
0.264898
-0.000469911
0.000508917
-0.134518
0.134479
-0.000369601
-0.0212642
0.0216338
-0.0792343
0.0780925
0.00114183
-0.00404552
0.00453853
-0.443719
0.443226
-0.00357027
0.00124783
-0.595744
0.598066
0.00223853
-0.00584903
-0.706318
0.709929
0.00994336
-0.013815
-0.818605
0.822476
0.0185271
-0.0224635
-0.942527
0.946464
0.0271104
-0.0311135
-1.07792
1.08192
0.0355918
-0.0394071
-1.22339
1.22721
0.042968
-0.0453485
-1.37657
1.37895
0.0471109
-0.0474124
-1.53322
1.53352
0.0464577
-0.043795
-1.42319
1.42053
0.040778
-0.0368733
-1.11464
1.11073
0.0331722
-0.0288756
-0.88406
0.879763
0.0250683
-0.0209694
-0.708482
0.704383
0.0173977
-0.0137576
-0.572109
0.568469
0.0106851
-0.00792016
-0.464018
0.461253
0.0055791
-0.00375727
-0.36935
0.367528
0.00231387
-0.00122571
-0.261624
0.260536
0.000414197
0.000177879
-0.131961
0.131369
-0.000272558
-0.0206169
0.0208894
-0.0794068
0.0785822
0.000824629
-0.00281417
0.00278286
-0.446158
0.44619
-0.00193686
-0.000399127
-0.601129
0.603465
0.00351773
-0.00699218
-0.713471
0.716945
0.0109223
-0.0149255
-0.826329
0.830333
0.0190633
-0.0231706
-0.950669
0.954777
0.0278015
-0.0316259
-1.08638
1.09021
0.0362374
-0.0400614
-1.23088
1.2347
0.0437478
-0.0467178
-1.38179
1.38476
0.0490337
-0.0496834
-1.53395
1.5346
0.0489865
-0.0469539
-1.41804
1.41601
0.0443245
-0.0405585
-1.10662
1.10285
0.0368712
-0.032801
-0.875249
0.871179
0.0286501
-0.0246295
-0.699911
0.69589
0.0209745
-0.0171303
-0.564672
0.560828
0.0140308
-0.0109058
-0.457457
0.454332
0.00837503
-0.00599517
-0.363983
0.361604
0.00426052
-0.00267888
-0.257079
0.255498
0.00127919
-0.000214023
-0.128749
0.127684
-0.000182248
-0.0197451
0.0199274
-0.0799598
0.0792822
0.000677641
-0.00181876
0.00175162
-0.448847
0.448914
-0.000317701
-0.00173886
-0.606594
0.60865
0.00496175
-0.00828109
-0.72013
0.72345
0.0120543
-0.0156744
-0.834111
0.837731
0.0199361
-0.0237533
-0.958943
0.96276
0.028351
-0.032617
-1.09452
1.09879
0.0369148
-0.0410906
-1.23863
1.2428
0.0452425
-0.0483652
-1.38769
1.39081
0.0511192
-0.0525816
-1.53553
1.53699
0.0523546
-0.0508968
-1.41385
1.41239
0.0483613
-0.0448508
-1.09902
1.09551
0.0413516
-0.03718
-0.866534
0.862362
0.0331141
-0.0288745
-0.691238
0.686999
0.0250352
-0.0209028
-0.556654
0.552521
0.0174632
-0.014123
-0.450525
0.447185
0.0111434
-0.00840634
-0.357886
0.355149
0.00622008
-0.00410474
-0.251724
0.249609
0.00228119
-0.000716351
-0.124872
0.123307
-2.4861e-05
-0.018705
0.0187298
-0.0807568
0.0802362
0.000520664
-0.000754519
0.000431202
-0.45171
0.452033
0.000869672
-0.00309384
-0.611641
0.613865
0.00619947
-0.0093336
-0.726526
0.72966
0.0131668
-0.0166392
-0.841401
0.844873
0.0207516
-0.024688
-0.967084
0.97102
0.0292013
-0.0334422
-1.10295
1.10719
0.037972
-0.0422026
-1.24695
1.25118
0.0465752
-0.0504734
-1.39427
1.39817
0.053733
-0.0555638
-1.53848
1.54031
0.0560604
-0.0549206
-1.41085
1.40971
0.0528756
-0.0497463
-1.09188
1.08875
0.0461379
-0.041965
-0.857689
0.853516
0.0378423
-0.0333023
-0.682254
0.677714
0.0293137
-0.0248419
-0.548341
0.543869
0.0211668
-0.0173625
-0.443099
0.439294
0.0141811
-0.0110644
-0.351092
0.347975
0.00829546