/*--------------------------------*- C++ -*----------------------------------*\
  =========                 |
  \\      /  F ield         | OpenFOAM: The Open Source CFD Toolbox
   \\    /   O peration     | Website:  https://openfoam.org
    \\  /    A nd           | Version:  6
     \\/     M anipulation  |
\*---------------------------------------------------------------------------*/
FoamFile
{
    version     2.0;
    format      ascii;
    class       volVectorField;
    location    "14";
    object      U;
}
// * * * * * * * * * * * * * * * * * * * * * * * * * * * * * * * * * * * * * //

dimensions      [0 1 -1 0 0 0 0];

internalField   nonuniform List<vector> 
8800
(
(0.987175 -0.0766955 0)
(1.00184 -0.055163 0)
(0.999794 -0.0285513 0)
(1.00009 -0.0151748 0)
(1.00002 -0.00855914 0)
(1.00006 -0.00501723 0)
(1.00009 -0.00293711 0)
(1.00007 -0.00166003 0)
(1.00005 -0.000798784 0)
(1.00004 -0.000131646 0)
(1.00004 0.000532782 0)
(1.00007 0.00129072 0)
(1.00009 0.00231387 0)
(1.00007 0.0039076 0)
(1.00004 0.00659587 0)
(1.00005 0.0113746 0)
(1.00004 0.020808 0)
(0.999138 0.0386262 0)
(1.00703 0.0724373 0)
(0.771219 0.0366812 0)
(0.36326 -0.0159942 0)
(1.04349 -0.0767131 0)
(1.0847 -0.0702837 0)
(1.0452 -0.0531988 0)
(1.02326 -0.0384647 0)
(1.01199 -0.0258653 0)
(1.00636 -0.0165806 0)
(1.00341 -0.0101405 0)
(1.00193 -0.00563967 0)
(1.00124 -0.00215505 0)
(1.00115 0.000999514 0)
(1.0015 0.00421214 0)
(1.00251 0.00808842 0)
(1.00461 0.0133547 0)
(1.0087 0.021093 0)
(1.01664 0.0319865 0)
(1.03256 0.0459348 0)
(1.06283 0.0612866 0)
(1.09204 0.0758404 0)
(0.839099 0.0564851 0)
(0.217404 -0.00236938 0)
(1.07628 -0.0496658 0)
(1.10015 -0.0478382 0)
(1.06483 -0.0401209 0)
(1.03974 -0.0331719 0)
(1.02309 -0.0254974 0)
(1.01319 -0.0181765 0)
(1.00781 -0.0116447 0)
(1.00519 -0.00593491 0)
(1.00423 -0.000771843 0)
(1.00448 0.00416343 0)
(1.00611 0.00946111 0)
(1.00989 0.0154545 0)
(1.01721 0.0222487 0)
(1.03023 0.0297805 0)
(1.05082 0.03708 0)
(1.08089 0.0437973 0)
(1.10678 0.0505448 0)
(0.94375 0.0411514 0)
(0.217091 0.00238259 0)
(0.176389 -0.000742929 0)
(1.01911 -0.0347841 0)
(1.10526 -0.040274 0)
(1.07801 -0.0348649 0)
(1.05315 -0.0290333 0)
(1.03571 -0.0236382 0)
(1.02349 -0.0180862 0)
(1.01554 -0.0123147 0)
(1.01083 -0.00666029 0)
(1.00885 -0.000826815 0)
(1.0094 0.00500947 0)
(1.0126 0.0105719 0)
(1.01873 0.0161176 0)
(1.02863 0.0216949 0)
(1.04324 0.0269126 0)
(1.06395 0.0324035 0)
(1.09379 0.0384438 0)
(1.09466 0.0406332 0)
(0.830662 0.0222615 0)
(0.175868 0.00075888 0)
(0.156248 -0.00051342 0)
(0.960246 -0.0238727 0)
(1.10455 -0.032818 0)
(1.08773 -0.0301386 0)
(1.06138 -0.0256252 0)
(1.04376 -0.0210305 0)
(1.03128 -0.0164646 0)
(1.02241 -0.0116889 0)
(1.01663 -0.0064739 0)
(1.01395 -0.00061738 0)
(1.01469 0.0053465 0)
(1.01876 0.0106623 0)
(1.02593 0.0154517 0)
(1.03638 0.0198963 0)
(1.05104 0.02426 0)
(1.07244 0.0286147 0)
(1.10147 0.0327541 0)
(1.07163 0.0314199 0)
(0.747543 0.013098 0)
(0.155477 0.000530748 0)
(0.143354 -0.000345387 0)
(0.908045 -0.0167725 0)
(1.09736 -0.0265114 0)
(1.09497 -0.025665 0)
(1.06782 -0.0226519 0)
(1.04873 -0.0191938 0)
(1.03576 -0.0150042 0)
(1.0269 -0.0103841 0)
(1.02117 -0.00544884 0)
(1.01839 -0.000170034 0)
(1.01909 0.00504911 0)
(1.02305 0.00997173 0)
(1.03006 0.0144634 0)
(1.04062 0.0185825 0)
(1.05632 0.0221708 0)
(1.07923 0.0251027 0)
(1.10364 0.0274242 0)
(1.04302 0.0242402 0)
(0.687838 0.0084777 0)
(0.142277 0.000365738 0)
(0.13506 -0.000211133 0)
(0.866973 -0.010457 0)
(1.08699 -0.019393 0)
(1.09917 -0.0197675 0)
(1.07281 -0.0177146 0)
(1.05356 -0.0154279 0)
(1.03994 -0.0126882 0)
(1.03041 -0.00922004 0)
(1.02431 -0.00493324 0)
(1.02142 0.000168423 0)
(1.02202 0.00538682 0)
(1.02607 0.00977101 0)
(1.03352 0.013328 0)
(1.04478 0.0160389 0)
(1.06074 0.0181774 0)
(1.08382 0.0200394 0)
(1.1031 0.0211476 0)
(1.01501 0.0169401 0)
(0.647201 0.00494977 0)
(0.133612 0.000236209 0)
(0.130906 -5.95295e-05 0)
(0.839063 -0.0051455 0)
(1.07451 -0.0122534 0)
(1.10031 -0.0139461 0)
(1.07633 -0.0129977 0)
(1.05747 -0.011556 0)
(1.04468 -0.00963378 0)
(1.03579 -0.0070036 0)
(1.02986 -0.0035934 0)
(1.02692 0.000740989 0)
(1.02737 0.00519852 0)
(1.03123 0.00873833 0)
(1.03812 0.0112849 0)
(1.04838 0.0130338 0)
(1.06368 0.0141891 0)
(1.08637 0.0150691 0)
(1.09916 0.0148548 0)
(0.990426 0.00994909 0)
(0.623612 0.00228692 0)
(0.129008 8.82367e-05 0)
(0.129739 1.97886e-05 0)
(0.822712 -0.0023124 0)
(1.06276 -0.00727047 0)
(1.09888 -0.00936568 0)
(1.07741 -0.00945613 0)
(1.05849 -0.00884829 0)
(1.04583 -0.00765455 0)
(1.0373 -0.00556508 0)
(1.03172 -0.00252261 0)
(1.02896 0.00134887 0)
(1.02915 0.00526601 0)
(1.03252 0.00835355 0)
(1.03891 0.0103454 0)
(1.04883 0.0113767 0)
(1.06407 0.0117794 0)
(1.08624 0.0114553 0)
(1.09301 0.0102603 0)
(0.971907 0.0057762 0)
(0.611378 0.00105433 0)
(0.12729 1.6891e-05 0)
(0.12968 2.69618e-05 0)
(0.812295 -0.00141014 0)
(1.0525 -0.00556295 0)
(1.0963 -0.00832777 0)
(1.07756 -0.00894745 0)
(1.06016 -0.00849924 0)
(1.04854 -0.00715709 0)
(1.04071 -0.00500741 0)
(1.03548 -0.00189122 0)
(1.03266 0.00200492 0)
(1.03265 0.00583152 0)
(1.03552 0.00885159 0)
(1.04113 0.0107819 0)
(1.05005 0.0117136 0)
(1.06383 0.0118494 0)
(1.08442 0.0111987 0)
(1.08589 0.00913226 0)
(0.957382 0.00446637 0)
(0.603729 0.000777721 0)
(0.126539 1.68175e-05 0)
(0.129748 2.11801e-05 0)
(0.804066 -0.000935644 0)
(1.04108 -0.00485509 0)
(1.09149 -0.00894095 0)
(1.07709 -0.0104809 0)
(1.06147 -0.0102405 0)
(1.05074 -0.00859976 0)
(1.04354 -0.0057907 0)
(1.03865 -0.00195277 0)
(1.03572 0.00268306 0)
(1.03545 0.00724387 0)
(1.03783 0.0108293 0)
(1.0427 0.0132561 0)
(1.05067 0.0145847 0)
(1.06298 0.0144652 0)
(1.08107 0.0131554 0)
(1.07575 0.00944409 0)
(0.943444 0.00393523 0)
(0.597447 0.000719077 0)
(0.125754 3.37883e-05 0)
(0.129941 2.39507e-05 0)
(0.798131 -0.000311064 0)
(1.02889 -0.00336581 0)
(1.0834 -0.00809953 0)
(1.07576 -0.0109249 0)
(1.06284 -0.0108793 0)
(1.05389 -0.00912476 0)
(1.04745 -0.00589243 0)
(1.0427 -0.00159483 0)
(1.03965 0.00361206 0)
(1.03905 0.00873287 0)
(1.04092 0.0126641 0)
(1.045 0.0152473 0)
(1.05157 0.0163864 0)
(1.06162 0.0162164 0)
(1.07431 0.0136702 0)
(1.06215 0.00852628 0)
(0.930509 0.00311133 0)
(0.592363 0.000615534 0)
(0.124894 4.06661e-05 0)
(0.130422 4.58651e-05 0)
(0.795126 0.000291278 0)
(1.01914 -0.00139334 0)
(1.07431 -0.00508797 0)
(1.07246 -0.00794954 0)
(1.06394 -0.00854437 0)
(1.05711 -0.00708328 0)
(1.05149 -0.00409766 0)
(1.04696 4.66477e-06 0)
(1.04382 0.00500779 0)
(1.04275 0.00981371 0)
(1.04397 0.0133444 0)
(1.04699 0.0153774 0)
(1.05172 0.0161157 0)
(1.05894 0.0150354 0)
(1.06531 0.0116337 0)
(1.04863 0.00656985 0)
(0.920431 0.00232321 0)
(0.588489 0.000549873 0)
(0.12405 4.43507e-05 0)
(0.131253 6.02226e-05 0)
(0.794972 0.000785563 0)
(1.01371 0.000377665 0)
(1.06774 -0.00161666 0)
(1.06932 -0.00347018 0)
(1.06449 -0.00399479 0)
(1.05957 -0.00299751 0)
(1.05488 -0.000670807 0)
(1.05065 0.00273814 0)
(1.04734 0.00687112 0)
(1.04569 0.010606 0)
(1.04611 0.0129844 0)
(1.0479 0.0139918 0)
(1.0509 0.0136061 0)
(1.05463 0.0118038 0)
(1.05708 0.00868019 0)
(1.03823 0.00482765 0)
(0.913418 0.0019061 0)
(0.585313 0.000565548 0)
(0.123188 5.06235e-05 0)
(0.132396 7.6632e-05 0)
(0.796615 0.0011944 0)
(1.01214 0.00168453 0)
(1.06456 0.00110096 0)
(1.06771 0.000408893 0)
(1.06493 0.000419435 0)
(1.06144 0.0013733 0)
(1.05758 0.00328675 0)
(1.05362 0.00601112 0)
(1.05003 0.0091382 0)
(1.04765 0.0116751 0)
(1.04708 0.0129018 0)
(1.0476 0.0126966 0)
(1.04891 0.0115317 0)
(1.05047 0.00949474 0)
(1.05063 0.00682784 0)
(1.031 0.00401939 0)
(0.908279 0.00191024 0)
(0.582171 0.000671682 0)
(0.122194 6.3517e-05 0)
(0.133862 9.66901e-05 0)
(0.799835 0.00157737 0)
(1.01306 0.00264044 0)
(1.06419 0.00312508 0)
(1.06782 0.00340026 0)
(1.06597 0.00406999 0)
(1.06322 0.00532921 0)
(1.05979 0.00719132 0)
(1.05589 0.00951057 0)
(1.05184 0.0118549 0)
(1.04864 0.0133469 0)
(1.04692 0.0134458 0)
(1.04623 0.0125533 0)
(1.04627 0.0107959 0)
(1.04653 0.00863311 0)
(1.04553 0.00627939 0)
(1.02562 0.00401884 0)
(0.903724 0.00220016 0)
(0.578546 0.000841603 0)
(0.12095 8.17421e-05 0)
(0.135723 0.000121738 0)
(0.804378 0.00201405 0)
(1.0158 0.00357732 0)
(1.0658 0.00474103 0)
(1.06952 0.00579999 0)
(1.06793 0.0071779 0)
(1.06536 0.00898158 0)
(1.06194 0.0110837 0)
(1.05777 0.0133063 0)
(1.05302 0.015168 0)
(1.04876 0.015853 0)
(1.04592 0.0150986 0)
(1.04418 0.0134815 0)
(1.04322 0.0113446 0)
(1.04264 0.00902457 0)
(1.04103 0.00672499 0)
(1.02084 0.00457876 0)
(0.898876 0.0026927 0)
(0.574083 0.00106712 0)
(0.11937 0.000105243 0)
(0.138092 0.000154581 0)
(0.810391 0.00256347 0)
(1.02018 0.0046205 0)
(1.06909 0.00632077 0)
(1.07267 0.00805788 0)
(1.07096 0.0102139 0)
(1.06816 0.0127042 0)
(1.0644 0.0152866 0)
(1.05957 0.017664 0)
(1.05379 0.0192873 0)
(1.04827 0.0193551 0)
(1.04422 0.0179049 0)
(1.04147 0.0156126 0)
(1.03968 0.0130029 0)
(1.03849 0.0103906 0)
(1.03646 0.00790826 0)
(1.01585 0.00557318 0)
(0.893169 0.00337447 0)
(0.568479 0.00135356 0)
(0.117374 0.000134716 0)
(0.141134 0.000198381 0)
(0.818201 0.00326994 0)
(1.02631 0.0059197 0)
(1.07407 0.00821483 0)
(1.07723 0.0106371 0)
(1.07512 0.0136154 0)
(1.07182 0.01688 0)
(1.06737 0.0201382 0)
(1.06153 0.0229063 0)
(1.05435 0.0244548 0)
(1.04726 0.0239926 0)
(1.04185 0.0218224 0)
(1.03806 0.0188196 0)
(1.03548 0.0156138 0)
(1.03374 0.012547 0)
(1.03132 0.0096994 0)
(1.01012 0.00697938 0)
(0.886252 0.00426914 0)
(0.561452 0.00170057 0)
(0.114875 0.000168932 0)
(0.145115 0.000261232 0)
(0.828359 0.00422921 0)
(1.03427 0.00767443 0)
(1.08065 0.0106652 0)
(1.08324 0.0138641 0)
(1.08055 0.0177801 0)
(1.07656 0.0220444 0)
(1.07105 0.0261221 0)
(1.06377 0.029371 0)
(1.05474 0.0309295 0)
(1.04574 0.029938 0)
(1.03876 0.0269591 0)
(1.03381 0.0231043 0)
(1.0304 0.019122 0)
(1.02807 0.0154098 0)
(1.02521 0.0120242 0)
(1.00326 0.00875389 0)
(0.877865 0.00536803 0)
(0.552727 0.00213653 0)
(0.111764 0.000208821 0)
(0.150396 0.000355576 0)
(0.841607 0.00561334 0)
(1.04452 0.010117 0)
(1.08912 0.0139413 0)
(1.09103 0.018142 0)
(1.08756 0.0232149 0)
(1.08245 0.028591 0)
(1.07542 0.0335732 0)
(1.06621 0.0374172 0)
(1.05486 0.0390175 0)
(1.04355 0.0374152 0)
(1.03475 0.0334708 0)
(1.02849 0.028571 0)
(1.02415 0.023595 0)
(1.02118 0.0190137 0)
(1.01783 0.0148964 0)
(0.994958 0.0109092 0)
(0.867372 0.00671331 0)
(0.541963 0.00267009 0)
(0.107921 0.000259206 0)
(0.157498 0.000496104 0)
(0.858937 0.00764986 0)
(1.05777 0.0135618 0)
(1.10009 0.018452 0)
(1.10102 0.0239664 0)
(1.09633 0.0304291 0)
(1.0896 0.0370677 0)
(1.0805 0.0431169 0)
(1.06879 0.0475963 0)
(1.05455 0.0491395 0)
(1.0405 0.0467346 0)
(1.02958 0.0416017 0)
(1.02181 0.0354307 0)
(1.01641 0.0292301 0)
(1.0127 0.0235468 0)
(1.00879 0.0184921 0)
(0.984763 0.0136225 0)
(0.854362 0.00841867 0)
(0.52852 0.00332852 0)
(0.103193 0.000322787 0)
(0.167185 0.000706879 0)
(0.881536 0.0106374 0)
(1.07488 0.0183324 0)
(1.11436 0.0246091 0)
(1.11383 0.0318505 0)
(1.10743 0.0400638 0)
(1.09844 0.0482751 0)
(1.08654 0.0555105 0)
(1.07155 0.0605269 0)
(1.05372 0.0617691 0)
(1.0364 0.0582464 0)
(1.02303 0.0516305 0)
(1.01348 0.043929 0)
(1.00682 0.0362658 0)
(1.00223 0.0292515 0)
(0.997628 0.0230382 0)
(0.972143 0.0170787 0)
(0.83832 0.0106128 0)
(0.511927 0.00416121 0)
(0.0974151 0.00039797 0)
(0.180755 0.00105683 0)
(0.911469 0.0151924 0)
(1.09722 0.0251665 0)
(1.133 0.0333366 0)
(1.13024 0.0428642 0)
(1.12133 0.0532274 0)
(1.10916 0.0631889 0)
(1.0935 0.0715256 0)
(1.07436 0.0768161 0)
(1.0522 0.0773572 0)
(1.03109 0.0722897 0)
(1.01489 0.0638411 0)
(1.00328 0.0543273 0)
(0.995091 0.0449507 0)
(0.989367 0.0363755 0)
(0.983827 0.0287701 0)
(0.956489 0.0214942 0)
(0.818509 0.0134316 0)
(0.491646 0.00522786 0)
(0.0904232 0.000486784 0)
(0.200488 0.00170839 0)
(0.952191 0.0227169 0)
(1.12689 0.0358826 0)
(1.15735 0.0467194 0)
(1.15081 0.0590388 0)
(1.13799 0.0717607 0)
(1.12135 0.0832661 0)
(1.10082 0.0922216 0)
(1.07668 0.0971554 0)
(1.04956 0.0963328 0)
(1.02423 0.0891775 0)
(1.0049 0.0785354 0)
(0.990952 0.0669583 0)
(0.980939 0.0556525 0)
(0.973774 0.0453017 0)
(0.966924 0.0360717 0)
(0.937124 0.0272359 0)
(0.793932 0.0171366 0)
(0.466783 0.0066368 0)
(0.0819604 0.000601878 0)
(0.229805 0.00316786 0)
(1.00942 0.0362103 0)
(1.16653 0.0541678 0)
(1.18847 0.0683526 0)
(1.17563 0.0834866 0)
(1.15682 0.0980457 0)
(1.13413 0.110198 0)
(1.10766 0.118717 0)
(1.07778 0.122202 0)
(1.04524 0.119054 0)
(1.01542 0.109151 0)
(0.992771 0.0959642 0)
(0.976264 0.0821549 0)
(0.964166 0.0688378 0)
(0.955209 0.0566153 0)
(0.946535 0.0456394 0)
(0.913082 0.0350491 0)
(0.763283 0.0223087 0)
(0.436687 0.00861843 0)
(0.0722398 0.000726977 0)
(0.270813 0.010047 -1.19064e-20)
(1.08568 0.063809 -8.99232e-21)
(1.21424 0.0862128 2.41544e-21)
(1.22374 0.103934 0)
(1.20236 0.120234 -4.4199e-36)
(1.176 0.134528 2.24645e-22)
(1.14618 0.145568 -1.37198e-21)
(1.11305 0.152253 0)
(1.07691 0.15327 4.96596e-35)
(1.03845 0.147092 -3.73105e-21)
(1.00363 0.13409 0)
(0.977123 0.118289 -5.32514e-21)
(0.957479 0.102332 -1.62815e-20)
(0.942628 0.0872047 -7.87708e-21)
(0.931082 0.0735195 -2.47979e-21)
(0.919476 0.0612187 -1.50229e-21)
(0.882236 0.0492995 0)
(0.723562 0.0328832 1.08093e-21)
(0.399725 0.015131 1.28279e-21)
(0.0629457 0.00221922 2.27478e-20)
(0.295957 0.0267994 -2.301e-20)
(1.14649 0.109305 5.09928e-22)
(1.25676 0.134713 -1.26314e-21)
(1.25565 0.153004 0)
(1.2263 0.167666 1.73405e-21)
(1.19258 0.180146 7.37144e-22)
(1.15576 0.189252 -9.2071e-22)
(1.11586 0.193816 -6.4978e-21)
(1.07315 0.192481 0)
(1.02806 0.183615 1.58092e-20)
(0.987084 0.167989 1.74411e-20)
(0.955373 0.150136 5.59879e-21)
(0.931237 0.13267 2.2096e-20)
(0.912333 0.116391 3.25631e-20)
(0.896923 0.101756 0)
(0.881052 0.0890375 4.8483e-20)
(0.838268 0.0759907 7.10933e-20)
(0.681197 0.0556111 7.93822e-20)
(0.374921 0.0311224 -9.20355e-20)
(0.0598146 0.00516915 -1.69363e-21)
(0.291206 0.0439512 0)
(1.18149 0.167764 -7.14944e-21)
(1.28905 0.196066 0)
(1.2807 0.21209 1.10783e-20)
(1.24504 0.22311 0)
(1.20493 0.232112 5.05689e-21)
(1.1618 0.23795 1.0922e-21)
(1.11575 0.239345 -9.77909e-21)
(1.06694 0.234914 -1.54673e-21)
(1.01574 0.223003 7.66159e-21)
(0.969214 0.204789 4.05864e-20)
(0.932962 0.185274 -2.733e-22)
(0.905003 0.166985 -1.65865e-20)
(0.88272 0.150512 -3.21842e-20)
(0.864271 0.136153 3.90918e-20)
(0.845884 0.123802 -7.02867e-20)
(0.80458 0.111077 -9.65364e-21)
(0.664654 0.0872496 0)
(0.382703 0.0522634 2.04341e-22)
(0.0673049 0.00968584 0)
(0.280765 0.0581589 -1.8008e-19)
(1.1974 0.229549 7.39704e-20)
(1.30932 0.262285 3.92242e-20)
(1.29705 0.275799 -7.36318e-21)
(1.25705 0.28287 1.12141e-20)
(1.21223 0.287845 -1.25325e-20)
(1.1641 0.289764 1.37567e-21)
(1.11283 0.287467 0)
(1.05875 0.279474 -3.02104e-20)
(1.00223 0.264206 0)
(0.950968 0.243343 -2.06701e-20)
(0.911046 0.222251 -2.90494e-20)
(0.880314 0.203313 -1.85554e-20)
(0.855912 0.18687 -2.39422e-20)
(0.83593 0.172971 0)
(0.816937 0.161288 0)
(0.779119 0.148815 -6.4706e-20)
(0.654845 0.122265 1.29328e-20)
(0.389516 0.0752049 -7.54536e-21)
(0.0727477 0.0144817 -8.85773e-21)
(0.270771 0.0708329 1.3336e-19)
(1.20111 0.290702 0)
(1.32024 0.329214 -1.10152e-19)
(1.3057 0.34054 -2.7921e-20)
(1.26266 0.343881 -2.08697e-20)
(1.21439 0.34489 0)
(1.16245 0.342922 -2.17147e-21)
(1.10704 0.336802 8.72683e-21)
(1.04863 0.325093 1.32418e-20)
(0.987665 0.306263 3.84783e-20)
(0.932609 0.282532 0)
(0.890032 0.259629 -6.31115e-20)
(0.85754 0.239796 -4.03413e-20)
(0.83204 0.223071 -2.42995e-20)
(0.811443 0.209294 1.59269e-19)
(0.79261 0.197977 1.95431e-20)
(0.758196 0.185396 9.35697e-20)
(0.643899 0.15563 -4.52745e-19)
(0.389353 0.0961907 2.69067e-19)
(0.0745514 0.0187725 -3.25694e-19)
(0.262176 0.0821293 1.41084e-19)
(1.19731 0.34936 -2.60516e-20)
(1.32414 0.394928 1.94537e-20)
(1.30827 0.404499 5.24954e-20)
(1.26306 0.404381 3.18781e-20)
(1.21229 0.401639 1.63944e-21)
(1.15736 0.396011 1.82288e-21)
(1.09863 0.38619 6.54791e-21)
(1.03661 0.370807 -2.89305e-20)
(0.97199 0.348304 0)
(0.91372 0.321464 -2.70886e-20)
(0.868969 0.296475 -1.48333e-21)
(0.83521 0.275346 -4.50781e-20)
(0.809068 0.257902 0)
(0.788319 0.243737 -3.46994e-20)
(0.770022 0.232146 -8.43745e-20)
(0.738345 0.218804 2.33595e-19)
(0.630533 0.185099 -2.33092e-19)
(0.383955 0.114219 3.31572e-19)
(0.0740302 0.0223113 -3.45681e-19)
(0.255304 0.092606 -5.53987e-22)
(1.18899 0.404944 3.19579e-20)
(1.32293 0.458285 9.33318e-20)
(1.3063 0.466578 -3.23027e-20)
(1.25949 0.463344 1.82769e-20)
(1.20672 0.45723 0)
(1.14938 0.448176 7.88605e-21)
(1.08792 0.434854 -5.09626e-21)
(1.0228 0.415921 -1.32193e-20)
(0.954907 0.389764 0)
(0.893916 0.359633 -2.64044e-20)
(0.847503 0.332205 -3.70399e-20)
(0.81291 0.309335 4.92483e-20)
(0.786526 0.290656 -3.15181e-20)
(0.765937 0.275604 -1.5258e-19)
(0.748235 0.263319 9.38079e-20)
(0.718424 0.248784 2.97047e-20)
(0.614839 0.210973 0)
(0.375 0.129504 -3.21554e-19)
(0.0722463 0.0252203 -1.18207e-20)
(0.249998 0.102578 2.31579e-20)
(1.17805 0.457355 -3.68042e-20)
(1.31787 0.51884 -5.10346e-20)
(1.30083 0.526271 -9.93485e-20)
(1.25284 0.520263 8.91655e-20)
(1.19853 0.511121 -4.68536e-20)
(1.13927 0.49889 -1.66867e-20)
(1.07544 0.482337 -7.28266e-21)
(1.00764 0.460045 1.29564e-20)
(0.936904 0.430314 -9.35129e-20)
(0.87362 0.396788 -3.2422e-20)
(0.825729 0.366599 0)
(0.790443 0.341565 5.38129e-20)
(0.763911 0.32123 6.65097e-20)
(0.74355 0.30492 8.18799e-20)
(0.726424 0.291576 -1.02285e-19)
(0.697868 0.275493 -3.08136e-20)
(0.597253 0.233471 3.65971e-20)
(0.363606 0.142295 0)
(0.0696408 0.0275007 -2.57705e-20)
(0.245952 0.112128 -2.69049e-19)
(1.16588 0.506722 1.6897e-19)
(1.31 0.576392 5.6154e-20)
(1.2928 0.58322 -7.60194e-20)
(1.24394 0.574775 5.3547e-20)
(1.1884 0.562949 -3.85961e-21)
(1.12758 0.547866 1.63142e-20)
(1.06181 0.528362 -3.12761e-21)
(0.991677 0.502918 -2.35866e-20)
(0.918241 0.469768 1.46597e-22)
(0.852662 0.432792 -9.65772e-20)
(0.803348 0.399573 9.41598e-20)
(0.767403 0.372055 -6.02721e-20)
(0.740769 0.349707 7.49561e-20)
(0.720702 0.331809 0)
(0.704113 0.317104 -5.55432e-20)
(0.67645 0.299224 -1.31132e-21)
(0.578116 0.252957 -1.59959e-19)
(0.350417 0.152876 -2.36632e-20)
(0.0663766 0.0290864 0)
(0.242958 0.121449 0)
(1.1533 0.553258 1.83127e-19)
(1.30016 0.630804 1.31242e-19)
(1.28289 0.637228 8.59308e-20)
(1.23335 0.626659 5.14843e-20)
(1.17685 0.612476 0)
(1.11478 0.594861 1.63054e-20)
(1.04734 0.572703 -1.24484e-21)
(0.975057 0.544411 4.97765e-20)
(0.899067 0.507996 -1.14222e-20)
(0.831145 0.467588 -7.07743e-20)
(0.780375 0.431196 4.71485e-20)
(0.743695 0.400922 -1.94391e-21)
(0.716917 0.376254 7.9005e-20)
(0.697135 0.356456 5.15917e-20)
(0.681061 0.340117 -1.20998e-19)
(0.654068 0.320135 1.46562e-19)
(0.557608 0.269418 4.38617e-20)
(0.335571 0.161134 1.81483e-19)
(0.0624907 0.0300478 -4.85756e-19)
(0.240821 0.130614 -6.90789e-20)
(1.14074 0.597118 1.05881e-19)
(1.28907 0.682142 -8.20758e-20)
(1.27168 0.688302 -9.99519e-20)
(1.22165 0.675844 0)
(1.16438 0.659591 4.15702e-20)
(1.10122 0.639768 -4.69927e-20)
(1.03229 0.615261 1.64103e-21)
(0.958062 0.584436 0)
(0.87967 0.545047 -1.76622e-19)
(0.809243 0.501293 1.92778e-19)
(0.756805 0.461596 0)
(0.719222 0.428335 7.14164e-20)
(0.692199 0.40105 -1.97015e-21)
(0.672685 0.378984 -1.63526e-19)
(0.657179 0.360758 6.42902e-20)
(0.630663 0.338431 0)
(0.535543 0.282987 2.37769e-19)
(0.319059 0.167087 0)
(0.0580428 0.0303466 -2.31674e-19)
(0.239374 0.13962 7.6949e-20)
(1.1285 0.638537 1.21196e-19)
(1.27711 0.730477 -8.59562e-20)
(1.25962 0.736463 0)
(1.2092 0.722327 7.13261e-20)
(1.15132 0.704269 0)
(1.08728 0.68253 6.24613e-20)
(1.01706 0.656002 6.44379e-21)
(0.941024 0.622959 5.15893e-21)
(0.860178 0.580928 -8.71354e-20)
(0.78713 0.533995 1.86985e-20)
(0.732698 0.490935 0)
(0.694036 0.454432 -1.52076e-19)
(0.666635 0.424249 2.04848e-21)
(0.647319 0.399608 0)
(0.632274 0.379183 2.42945e-21)
(0.605968 0.35412 2.16125e-19)
(0.511805 0.293557 -2.08564e-19)
(0.300831 0.17061 6.1606e-20)
(0.0530289 0.029924 0)
(0.238264 0.148386 0)
(1.11671 0.67768 1.35594e-19)
(1.26465 0.775953 1.00968e-19)
(1.24704 0.781754 -2.15734e-21)
(1.19634 0.766142 4.47702e-20)
(1.13802 0.74652 9.84327e-20)
(1.07326 0.72313 -2.01129e-20)
(1.00191 0.694881 1.98448e-21)
(0.924169 0.65997 3.01498e-20)
(0.840852 0.615648 -1.35362e-19)
(0.764984 0.565794 -3.07274e-21)
(0.708216 0.519436 -6.21807e-20)
(0.668222 0.47948 2.49478e-19)
(0.640194 0.446093 -2.46932e-21)
(0.620799 0.418664 -1.29353e-19)
(0.605934 0.395595 -2.36312e-19)
(0.57967 0.367357 0)
(0.486265 0.301204 0)
(0.280863 0.171592 6.78432e-20)
(0.0475279 0.0287627 -3.96496e-20)
(0.237628 0.157056 9.56914e-20)
(1.10549 0.714422 -2.96843e-19)
(1.25197 0.818651 -1.08074e-19)
(1.23422 0.824241 0)
(1.18335 0.807348 -1.512e-21)
(1.1247 0.786375 1.1856e-19)
(1.05934 0.761575 -6.79747e-20)
(0.987004 0.731886 -2.83548e-20)
(0.907692 0.695468 3.09755e-20)
(0.821894 0.649293 -1.03936e-19)
(0.742937 0.596946 -1.62658e-19)
(0.683387 0.547452 1.65777e-19)
(0.641493 0.503965 0)
(0.612544 0.466983 -5.83116e-20)
(0.592922 0.436249 -1.42228e-19)
(0.578184 0.410162 -1.7162e-19)
(0.551724 0.378095 -2.08615e-19)
(0.458605 0.305756 6.25437e-20)
(0.258969 0.16962 -3.66969e-20)
(0.0415133 0.0268245 4.69917e-22)
(0.237033 0.165415 0)
(1.09496 0.749067 0)
(1.23927 0.858652 2.46016e-21)
(1.22138 0.864033 0)
(1.17041 0.846034 -1.68598e-19)
(1.11153 0.823889 -1.0496e-19)
(1.04571 0.797891 0)
(0.972526 0.767034 -7.23298e-21)
(0.891752 0.729435 3.84618e-20)
(0.803499 0.681832 -2.38232e-19)
(0.721219 0.627433 0)
(0.658364 0.575078 -1.06127e-19)
(0.61374 0.52797 -3.03423e-21)
(0.583421 0.487055 -2.50843e-21)
(0.563487 0.452616 1.52175e-19)
(0.548811 0.423091 -3.80386e-22)
(0.521939 0.386674 -4.54185e-19)
(0.428288 0.307104 1.36722e-19)
(0.235026 0.164694 4.06287e-20)
(0.0350089 0.0240947 0)
(0.236474 0.173402 -3.52272e-19)
(1.08482 0.781788 -1.82194e-19)
(1.22666 0.896075 -2.70899e-19)
(1.20866 0.901254 3.76824e-19)
(1.15768 0.882282 -3.16386e-19)
(1.09866 0.859131 0)
(1.03251 0.83213 -5.83379e-20)
(0.958615 0.800352 1.35586e-20)
(0.876495 0.761898 3.68232e-21)
(0.785864 0.713316 1.87803e-20)
(0.700113 0.657309 2.03203e-19)
(0.633587 0.602416 -3.62534e-20)
(0.585556 0.551711 -1.54142e-19)
(0.553028 0.506631 -6.94649e-20)
(0.532388 0.468071 8.48948e-20)
(0.517588 0.434264 -3.2152e-22)
(0.489983 0.392595 1.25056e-19)
(0.395337 0.304955 -2.97106e-19)
(0.208561 0.156245 3.54663e-19)
(0.0280874 0.0205665 5.13233e-20)
(0.235756 0.181005 1.29308e-19)
(1.07506 0.812655 -9.96222e-20)
(1.21426 0.931059 5.87615e-21)
(1.19619 0.936037 2.12966e-19)
(1.14525 0.916204 7.39818e-20)
(1.0862 0.892175 2.09893e-19)
(1.01983 0.864345 -2.58863e-20)
(0.945362 0.831862 6.53991e-20)
(0.862044 0.792851 -1.94698e-20)
(0.769093 0.743714 -1.29114e-19)
(0.679799 0.686701 0)
(0.609201 0.629785 -1.63e-19)
(0.557296 0.575947 2.23774e-19)
(0.521592 0.526623 0)
(0.499401 0.482993 -1.81867e-19)
(0.484108 0.444119 1.13053e-19)
(0.455555 0.395836 -1.35397e-19)
(0.359654 0.298782 -1.63517e-19)
(0.180196 0.144406 -2.89552e-19)
(0.0209507 0.0163452 -2.25998e-19)
(0.235205 0.188299 -1.4204e-19)
(1.06555 0.841673 1.06514e-19)
(1.20214 0.963704 2.52707e-19)
(1.18404 0.968482 2.9279e-19)
(1.13321 0.947891 -1.54932e-19)
(1.07421 0.923105 1.44983e-19)
(1.00774 0.89459 -8.0625e-20)
(0.932833 0.861606 8.14409e-20)
(0.848466 0.82231 -5.0219e-21)
(0.753326 0.773015 1.22357e-19)
(0.660457 0.715532 4.29891e-19)
(0.585485 0.657191 0)
(0.529119 0.60066 0)
(0.489165 0.547362 -8.03699e-20)
(0.464193 0.498229 0)
(0.447698 0.452202 2.46676e-19)
(0.418091 0.395335 2.96895e-19)
(0.321465 0.287662 0)
(0.151031 0.129176 0)
(0.014183 0.0117837 2.4707e-19)
(0.234371 0.195026 1.56592e-19)
(1.05631 0.868872 1.27678e-19)
(1.19037 0.99414 1.81543e-19)
(1.17226 0.998721 -2.61368e-19)
(1.12161 0.977452 -1.72764e-19)
(1.06273 0.952004 -1.9234e-19)
(0.996289 0.922934 1.19722e-19)
(0.921075 0.889619 5.87654e-22)
(0.835815 0.850274 -4.71886e-21)
(0.738661 0.801206 -6.22613e-21)
(0.642254 0.743817 2.17333e-19)
(0.562701 0.684689 0)
(0.501211 0.626235 2.25431e-19)
(0.455915 0.569438 1.69138e-19)
(0.426449 0.514485 4.33517e-19)
(0.407026 0.459352 1.33052e-19)
(0.375955 0.389484 -1.64884e-19)
(0.281326 0.26879 -9.72423e-20)
(0.124366 0.110021 0)
(0.00901067 0.00736112 2.69509e-19)
(0.233738 0.201619 -3.44252e-19)
(1.04732 0.894434 0)
(1.17895 1.02246 2.02728e-19)
(1.1609 1.02685 -2.14093e-19)
(1.11049 1.00498 1.95572e-19)
(1.05181 0.978961 2.80943e-19)
(0.985494 0.94944 -2.77801e-19)
(0.910102 0.915941 2.6419e-21)
(0.824116 0.876749 0)
(0.725146 0.828233 -1.12284e-19)
(0.625375 0.771497 -4.48392e-19)
(0.54115 0.712251 2.20495e-20)
(0.474226 0.65254 3.05318e-19)
(0.422365 0.593446 0)
(0.386117 0.533595 2.91845e-19)
(0.360426 0.466926 0)
(0.324832 0.376845 0)
(0.237432 0.234069 -1.08924e-19)
(0.113894 0.0769596 0)
(0.024224 0.00821231 7.28235e-20)
(0.232748 0.207553 -3.75821e-19)
(1.03856 0.918546 0)
(1.16788 1.04886 3.28196e-19)
(1.14992 1.0531 0)
(1.09981 1.03073 -1.06123e-19)
(1.04137 1.00425 0)
(0.975284 0.974403 -2.07566e-20)
(0.899818 0.940895 -1.43424e-20)
(0.813251 0.902078 -6.19638e-22)
(0.712647 0.85447 -1.0878e-19)
(0.609688 0.798963 1.16559e-20)
(0.520738 0.7404 1.82076e-19)
(0.448025 0.680246 2.95094e-19)
(0.388601 0.620261 4.22587e-20)
(0.342778 0.557492 2.27514e-19)
(0.305626 0.479205 0)
(0.25427 0.361406 3.60564e-19)
(0.168632 0.172481 -2.15236e-19)
(0.0571272 0.0834389 2.4797e-19)
(-0.0319461 0.404226 -2.95679e-19)
(0.231714 0.213204 3.06226e-19)
(1.02984 0.941141 4.84005e-19)
(1.15708 1.07366 0)
(1.1392 1.07787 4.73097e-21)
(1.08941 1.05524 2.88209e-19)
(1.03119 1.02852 -5.43724e-19)
(0.965396 0.998569 -1.22585e-19)
(0.889897 0.965371 0)
(0.802801 0.927317 -2.677e-20)
(0.700632 0.881199 -3.07452e-21)
(0.594448 0.827696 0)
(0.500523 0.770934 0)
(0.421538 0.711019 2.57774e-19)
(0.353911 0.651963 -1.31523e-19)
(0.294964 0.590507 -2.25547e-19)
(0.240399 0.504767 0)
(0.141667 0.353517 1.8238e-19)
(0.0358724 0.467271 -2.17147e-19)
(0.0485534 1.7695 -1.18581e-19)
(0.0807188 2.74588 -1.49155e-19)
(0.230381 0.218248 -2.2367e-19)
(1.02126 0.962404 -6.10191e-19)
(1.14657 1.09687 1.88962e-19)
(1.12876 1.10104 1.8162e-19)
(1.07935 1.07833 0)
(1.02134 1.0515 -3.89302e-19)
(0.955998 1.02165 -2.05408e-19)
(0.880481 0.988956 9.58878e-21)
(0.792981 0.951955 -3.63519e-21)
(0.68942 0.907785 7.98298e-20)
(0.580192 0.856943 1.96172e-19)
(0.481405 0.803193 1.84683e-19)
(0.395939 0.744336 2.51649e-19)
(0.321061 0.686499 -2.97878e-19)
(0.248858 0.633852 -3.31319e-19)
(0.169658 0.551161 0)
(0.0782962 0.837284 0)
(0.127604 2.46648 9.55825e-20)
(0.135221 3.16116 0)
(0.13463 3.36969 2.26117e-19)
(0.231785 0.223028 0)
(1.01301 0.982586 0)
(1.13606 1.11836 0)
(1.11842 1.12244 5.05562e-20)
(1.06941 1.09983 2.57437e-19)
(1.0116 1.07309 -2.97229e-19)
(0.947014 1.04354 -1.47171e-19)
(0.871499 1.01153 1.09119e-20)
(0.783729 0.975831 -6.63304e-20)
(0.678998 0.934037 -1.04372e-20)
(0.567017 0.886515 3.49297e-19)
(0.463714 0.836927 -2.16166e-20)
(0.371675 0.780524 2.80744e-20)
(0.291274 0.721026 4.21585e-20)
(0.21225 0.684293 2.63812e-21)
(0.139513 0.942976 1.52727e-21)
(0.177048 2.60235 -4.62365e-19)
(0.196669 3.26956 -1.7567e-19)
(0.178992 3.42339 8.37297e-20)
(0.160676 3.44887 -8.67098e-20)
(0.153868 0.167917 1.27474e-19)
(0.999324 1.00472 0)
(1.12553 1.13833 -3.70861e-19)
(1.10864 1.14245 -4.70758e-19)
(1.05995 1.12019 5.35893e-19)
(1.00258 1.09367 3.15504e-19)
(0.938247 1.06428 1.71999e-19)
(0.862967 1.03313 -1.8693e-19)
(0.775139 0.998965 7.14727e-20)
(0.66967 0.959788 0)
(0.555445 0.91605 1.47552e-19)
(0.448219 0.871276 -1.35603e-19)
(0.349443 0.821264 0)
(0.265504 0.760992 3.67749e-20)
(0.196929 0.877301 9.01913e-20)
(0.184747 2.2686 -1.10323e-19)
(0.264288 3.30776 1.23773e-19)
(0.241814 3.4456 6.0475e-20)
(0.201477 3.47013 6.98506e-20)
(0.174952 3.48073 8.95717e-20)
(0.263935 0.256747 -2.48061e-19)
(0.978092 1.00952 0)
(1.10611 1.15992 3.78821e-19)
(1.09517 1.17253 4.86756e-19)
(1.04501 1.15014 -5.51561e-19)
(0.987924 1.12421 -3.35692e-19)
(0.923469 1.09624 -2.65513e-19)
(0.848401 1.0666 -1.39222e-20)
(0.760181 1.03518 -1.03954e-19)
(0.653129 1.00078 -3.075e-21)
(0.53511 0.964658 5.3342e-21)
(0.421938 0.929044 1.01099e-19)
(0.312857 0.895672 2.22306e-20)
(0.242525 1.0051 -3.22576e-20)
(0.270364 2.17174 -7.52274e-20)
(0.338753 3.31028 5.3403e-20)
(0.326201 3.48575 -4.79182e-20)
(0.28439 3.50967 -2.81343e-20)
(0.242947 3.53764 4.23479e-21)
(0.185583 3.52822 -7.77608e-22)
(0.252157 0.253982 0)
(0.973571 1.029 9.96958e-20)
(1.09733 1.18054 -7.50877e-20)
(1.08508 1.19294 -5.42689e-20)
(1.03547 1.17065 -3.62191e-19)
(0.978921 1.14499 3.27763e-19)
(0.91469 1.11732 1.7879e-19)
(0.840128 1.08872 -1.46317e-20)
(0.752279 1.05918 1.29081e-19)
(0.645042 1.02804 -1.43279e-20)
(0.525702 0.997568 -1.72534e-19)
(0.410075 0.968594 1.42316e-20)
(0.304179 0.960696 -1.8836e-20)
(0.288453 1.4077 -2.58072e-20)
(0.376547 3.00254 1.9447e-20)
(0.414024 3.47963 2.46813e-21)
(0.361774 3.55409 -3.31122e-20)
(0.320039 3.57652 -4.83845e-20)
(0.262409 3.59948 7.37562e-20)
(0.199141 3.59135 2.77808e-20)
(0.236595 0.24991 2.4491e-19)
(0.967717 1.05047 6.70154e-19)
(1.08786 1.2027 -2.14122e-19)
(1.07465 1.21468 -2.0602e-19)
(1.02561 1.19229 0)
(0.969597 1.16665 4.79464e-19)
(0.905882 1.13932 2.7274e-19)
(0.832136 1.1117 -1.54142e-20)
(0.744982 1.08406 1.34722e-20)
(0.638059 1.05634 7.23619e-20)
(0.518174 1.03181 -4.42191e-20)
(0.402114 1.01081 -9.28472e-20)
(0.315047 1.06689 -1.17702e-19)
(0.368049 1.99431 1.26405e-19)
(0.474211 3.35965 4.83613e-20)
(0.467448 3.55877 0)
(0.406429 3.60573 0)
(0.360263 3.6506 7.10956e-20)
(0.284606 3.71388 0)
(0.209636 3.6791 1.50834e-19)
(0.225063 0.249457 -3.56964e-19)
(0.959588 1.07221 -5.57399e-19)
(1.07697 1.22573 0)
(1.06311 1.23703 5.28844e-21)
(1.01467 1.21429 -3.5238e-19)
(0.959344 1.18856 7.12293e-19)
(0.896498 1.16155 1.83478e-19)
(0.82385 1.13484 -1.91042e-20)
(0.737681 1.10897 1.44774e-19)
(0.631618 1.08487 -7.70332e-21)
(0.512063 1.06638 0)
(0.397995 1.05554 0)
(0.348189 1.24443 -7.83726e-20)
(0.467037 2.65054 1.95054e-20)
(0.563931 3.50388 -2.80175e-20)
(0.515975 3.6088 0)
(0.470109 3.66641 1.85674e-19)
(0.400954 3.74456 -2.76814e-19)