/*--------------------------------*- C++ -*----------------------------------*\
  =========                 |
  \\      /  F ield         | OpenFOAM: The Open Source CFD Toolbox
   \\    /   O peration     | Website:  https://openfoam.org
    \\  /    A nd           | Version:  6
     \\/     M anipulation  |
\*---------------------------------------------------------------------------*/
FoamFile
{
    version     2.0;
    format      ascii;
    class       volScalarField;
    location    "32.3";
    object      p;
}
// * * * * * * * * * * * * * * * * * * * * * * * * * * * * * * * * * * * * * //

dimensions      [0 2 -2 0 0 0 0];

internalField   nonuniform List<scalar> 
8800
(
1.43505
1.38573
1.34775
1.31967
1.29949
1.28486
1.27421
1.2666
1.26162
1.25942
1.26063
1.26483
1.27152
1.28086
1.29354
1.31082
1.33467
1.36775
1.41068
1.46319
1.26956
1.2759
1.28504
1.28858
1.28595
1.27983
1.27285
1.26655
1.26166
1.25868
1.25829
1.26075
1.26526
1.2713
1.27833
1.28531
1.29015
1.29
1.28331
1.2744
1.24311
1.24935
1.25384
1.25769
1.26062
1.26153
1.26039
1.25819
1.2561
1.25511
1.25597
1.25826
1.26103
1.2632
1.26365
1.26181
1.25841
1.25436
1.24956
1.24584
1.23888
1.24165
1.24424
1.24638
1.24809
1.24962
1.25066
1.25093
1.25069
1.2506
1.25122
1.2522
1.25281
1.25254
1.25148
1.25006
1.24834
1.24601
1.24357
1.24201
1.23392
1.23534
1.23717
1.23923
1.24091
1.24215
1.24319
1.24407
1.24473
1.24527
1.24575
1.24602
1.24589
1.24539
1.24462
1.24343
1.24171
1.23977
1.23839
1.23759
1.22905
1.22995
1.23118
1.23279
1.23445
1.23593
1.23714
1.23815
1.23905
1.23983
1.24036
1.24052
1.24033
1.23981
1.23888
1.23759
1.23614
1.23482
1.23397
1.23345
1.22429
1.22495
1.2259
1.2272
1.22861
1.23007
1.23147
1.23271
1.23379
1.23474
1.23537
1.23557
1.23535
1.23472
1.23378
1.2327
1.2316
1.23062
1.23001
1.22963
1.21966
1.22016
1.22094
1.22208
1.22335
1.22472
1.22616
1.22757
1.2289
1.23006
1.23083
1.23107
1.23083
1.23024
1.22946
1.22859
1.2277
1.22694
1.22647
1.22618
1.21511
1.21551
1.21617
1.21719
1.2184
1.21972
1.22116
1.22267
1.22416
1.22554
1.22651
1.22689
1.22677
1.22633
1.22573
1.22503
1.2243
1.22371
1.22335
1.22312
1.21057
1.21089
1.21147
1.21242
1.21359
1.2149
1.21634
1.21791
1.21958
1.22122
1.22243
1.22301
1.2231
1.22289
1.22247
1.22193
1.22135
1.22089
1.22062
1.22043
1.20599
1.20625
1.20677
1.20767
1.20884
1.21016
1.21165
1.21331
1.21513
1.21702
1.21857
1.21948
1.21987
1.21989
1.21966
1.21929
1.21885
1.2185
1.21829
1.21814
1.2013
1.20152
1.20199
1.20289
1.20407
1.20547
1.20709
1.20895
1.21103
1.21328
1.21522
1.21648
1.21715
1.21739
1.21734
1.21713
1.21683
1.21657
1.21642
1.21629
1.19644
1.19661
1.19707
1.198
1.19927
1.20078
1.20257
1.20468
1.20711
1.20979
1.21224
1.21394
1.21493
1.21542
1.21558
1.21551
1.21532
1.21514
1.21504
1.21493
1.19137
1.1915
1.19195
1.1929
1.19425
1.19589
1.19783
1.20019
1.20303
1.2063
1.20934
1.21154
1.21299
1.21387
1.21432
1.21446
1.21441
1.21433
1.21427
1.21419
1.18599
1.18609
1.18654
1.18755
1.18902
1.19084
1.19308
1.19581
1.1991
1.203
1.20682
1.20977
1.21175
1.21301
1.21376
1.21413
1.21425
1.21427
1.21425
1.21418
1.18025
1.18031
1.18076
1.18184
1.18346
1.18552
1.18809
1.19134
1.19538
1.20021
1.20492
1.20855
1.21113
1.21286
1.21397
1.21461
1.21493
1.21506
1.2151
1.21504
1.17392
1.17398
1.17443
1.17556
1.17733
1.17964
1.18259
1.18636
1.19111
1.19694
1.20285
1.20757
1.21098
1.21337
1.215
1.21605
1.21665
1.21694
1.21702
1.21696
1.16676
1.1668
1.16729
1.1685
1.1705
1.17319
1.1767
1.18128
1.18713
1.19433
1.20161
1.20744
1.21173
1.21483
1.21704
1.21854
1.21948
1.21994
1.22006
1.22
1.15834
1.15838
1.15893
1.16029
1.16257
1.16572
1.16992
1.17545
1.18259
1.19143
1.20045
1.20774
1.21317
1.21714
1.22005
1.22208
1.2234
1.22405
1.22421
1.22414
1.14809
1.14813
1.14878
1.1504
1.15313
1.15696
1.16212
1.16897
1.1778
1.18872
1.19982
1.20879
1.2155
1.22046
1.22415
1.22677
1.22848
1.2293
1.2295
1.22941
1.13545
1.1355
1.13632
1.13833
1.14174
1.14655
1.15302
1.16159
1.17258
1.18607
1.19968
1.21064
1.21884
1.22494
1.22948
1.23273
1.23484
1.23584
1.23606
1.23596
1.11969
1.11975
1.12081
1.12342
1.12779
1.13396
1.14222
1.15307
1.16683
1.18348
1.20009
1.21337
1.22329
1.23068
1.2362
1.24017
1.24271
1.24389
1.24415
1.24403
1.0997
1.0998
1.10123
1.10474
1.11055
1.11865
1.12942
1.14333
1.16063
1.18116
1.20127
1.21717
1.22902
1.23787
1.24451
1.24929
1.25232
1.25368
1.25397
1.25382
1.07371
1.07386
1.07594
1.08089
1.08894
1.09991
1.11423
1.13225
1.15404
1.17921
1.20333
1.22218
1.23618
1.24665
1.25455
1.26027
1.26381
1.26534
1.26565
1.26547
1.03864
1.03895
1.0423
1.0499
1.06173
1.0772
1.09661
1.12007
1.14738
1.17792
1.2065
1.22854
1.24487
1.25713
1.26644
1.27317
1.27721
1.2789
1.27921
1.27899
0.988807
0.990037
0.996715
1.00974
1.0281
1.05051
1.07696
1.10728
1.14107
1.17759
1.21094
1.23637
1.25516
1.26933
1.28012
1.28786
1.29244
1.29427
1.29453
1.29426
0.915977
0.923614
0.938845
0.961684
0.989709
1.02134
1.05633
1.09453
1.13552
1.17859
1.2172
1.24642
1.26806
1.28452
1.29712
1.30613
1.31142
1.31357
1.31391
1.31369
0.839032
0.855252
0.879863
0.913081
0.951227
0.992144
1.03578
1.08206
1.13073
1.18118
1.22617
1.26031
1.28577
1.30523
1.32021
1.33103
1.33745
1.33997
1.34044
1.3404
0.773743
0.793557
0.82596
0.867893
0.914761
0.964365
1.01635
1.07057
1.12673
1.18429
1.23531
1.27395
1.30278
1.32477
1.34166
1.3538
1.3611
1.36412
1.36461
1.36462
0.720923
0.742921
0.78044
0.828502
0.882126
0.938916
0.998224
1.05971
1.1229
1.18716
1.24376
1.2864
1.31804
1.34206
1.36034
1.37372
1.38207
1.38535
1.38595
1.38605
0.677323
0.700569
0.741699
0.794469
0.853433
0.916085
0.98162
1.0495
1.11905
1.18949
1.25114
1.2973
1.3313
1.35698
1.37654
1.39085
1.39985
1.40358
1.40437
1.4045
0.640071
0.664103
0.707899
0.764461
0.827856
0.89547
0.966359
1.03986
1.11515
1.19119
1.25743
1.30668
1.3427
1.3697
1.39016
1.40507
1.4145
1.41864
1.41967
1.41982
0.60712
0.6317
0.677602
0.737316
0.804483
0.876393
0.952018
1.03057
1.11107
1.19226
1.2627
1.31475
1.35251
1.38058
1.40171
1.41705
1.4268
1.43123
1.43238
1.43251
0.577026
0.602091
0.649748
0.712163
0.782602
0.858285
0.938151
1.02131
1.10664
1.19265
1.26707
1.32174
1.36107
1.39006
1.41167
1.42729
1.43715
1.44173
1.44292
1.44301
0.548868
0.574399
0.623604
0.688398
0.761714
0.840739
0.92442
1.01181
1.10165
1.19228
1.27059
1.3278
1.36866
1.39848
1.42051
1.43631
1.44624
1.45089
1.45215
1.45221
0.521932
0.547966
0.598601
0.665559
0.741438
0.823458
0.910596
1.00186
1.09596
1.19106
1.27323
1.33306
1.37549
1.40621
1.4287
1.44469
1.45464
1.45923
1.46052
1.46061
0.495954
0.522476
0.574428
0.643333
0.721525
0.80625
0.896522
0.991364
1.08945
1.18891
1.27499
1.33757
1.38173
1.41347
1.4365
1.45272
1.46271
1.46724
1.46844
1.46848
0.470576
0.497682
0.550855
0.621531
0.701813
0.788977
0.882104
0.980232
1.08207
1.18576
1.27585
1.34141
1.38752
1.42043
1.44412
1.46064
1.47067
1.47512
1.47619
1.47616
0.445735
0.473435
0.527752
0.600054
0.68222
0.771587
0.867301
0.968445
1.0738
1.1816
1.27581
1.3446
1.3929
1.42718
1.45163
1.46849
1.47854
1.48285
1.48379
1.48367
0.42136
0.449653
0.505074
0.578868
0.662728
0.754073
0.852117
0.956003
1.06462
1.17639
1.27477
1.34703
1.39785
1.43374
1.45909
1.47632
1.48632
1.49041
1.49118
1.491
0.397404
0.426329
0.482828
0.557968
0.643336
0.736458
0.836589
0.942946
1.05455
1.17007
1.27262
1.34863
1.40234
1.44015
1.46654
1.48411
1.49398
1.49774
1.49832
1.49808
0.373853
0.403483
0.461012
0.537376
0.6241
0.718794
0.820776
0.929329
1.04363
1.16263
1.2693
1.34926
1.40627
1.44642
1.47406
1.49189
1.50141
1.50472
1.50509
1.5048
0.350886
0.381171
0.439676
0.517139
0.605078
0.701162
0.804754
0.915238
1.03192
1.1541
1.26473
1.34877
1.40947
1.45254
1.48182
1.49985
1.50864
1.51125
1.51137
1.51106
0.32855
0.359455
0.41887
0.497327
0.586338
0.683632
0.788622
0.900761
1.01953
1.14452
1.25885
1.34701
1.41172
1.45836
1.49003
1.50844
1.51597
1.51733
1.51706
1.51678
0.3068
0.338381
0.398634
0.477987
0.567953
0.666296
0.77248
0.886012
1.00654
1.13396
1.25164
1.34383
1.41273
1.46352
1.49871
1.51844
1.52445
1.52345
1.52214
1.522
0.285804
0.317984
0.379032
0.459195
0.549992
0.649245
0.75643
0.87111
0.993091
1.12253
1.2431
1.33912
1.41221
1.46744
1.50736
1.5304
1.53627
1.53227
1.52765
1.52544
0.265476
0.298266
0.360063
0.440924
0.532423
0.632434
0.740416
0.855989
0.979101
1.11017
1.23308
1.3326
1.40985
1.46943
1.51474
1.54361
1.553
1.54897
1.53704
1.53438
0.245905
0.279155
0.34159
0.422979
0.514947
0.615512
0.724008
0.840139
0.96399
1.0962
1.22086
1.32342
1.40497
1.46842
1.51825
1.55388
1.56806
1.56124
1.54453
1.53717
0.227234
0.260694
0.323789
0.405573
0.497808
0.598788
0.707428
0.823898
0.948084
1.0809
1.2066
1.31115
1.39705
1.46341
1.51303
1.54842
1.56664
1.54737
1.4873
1.4598
0.209578
0.242147
0.307067
0.38923
0.481664
0.582746
0.690943
0.807538
0.931665
1.06447
1.19041
1.2954
1.3854
1.45401
1.49573
1.52222
1.52433
1.47942
1.41678
1.37795
0.16525
0.224433
0.291463
0.373343
0.46575
0.56649
0.67468
0.790946
0.914546
1.04661
1.17198
1.27587
1.36685
1.44018
1.46495
1.46625
1.43306
1.3761
1.30875
1.27153
0.190496
0.208772
0.268158
0.34965
0.441716
0.542158
0.649557
0.764932
0.887206
1.01718
1.14002
1.24061
1.3229
1.39873
1.39495
1.29973
1.21634
1.15864
1.09693
1.12891
0.158628
0.19048
0.250634
0.33172
0.423702
0.523762
0.631207
0.745802
0.866838
0.994678
1.11443
1.21108
1.28407
1.32454
1.28309
1.15383
1.0505
0.981065
0.900741
0.952003
0.133829
0.168178
0.230185
0.311483
0.403427
0.503376
0.610635
0.724315
0.843807
0.968966
1.08467
1.17563
1.23674
1.24266
1.14445
0.993624
0.868011
0.778739
0.683789
0.72128
0.109681
0.145173
0.208622
0.290608
0.38271
0.482534
0.589261
0.701879
0.819626
0.941759
1.05256
1.13694
1.18157
1.15506
1.00275
0.827062
0.667707
0.533416
0.408569
0.429514
0.0858325
0.121768
0.186159
0.268763
0.361098
0.460746
0.566815
0.678248
0.794003
0.912763
1.01798
1.095
1.11971
1.05377
0.86357
0.664752
0.474715
0.317671
0.105865
0.0257116
0.0616163
0.0975115
0.162472
0.245555
0.338145
0.437674
0.543159
0.653393
0.76707
0.882264
0.981569
1.04958
1.05254
0.932303
0.736437
0.522987
0.325314
0.158247
0.0291463
-0.102384
0.0359876
0.0719427
0.137223
0.220605
0.313326
0.412651
0.517464
0.626335
0.737613
0.848742
0.941675
0.998413
0.974789
0.815078
0.617072
0.408852
0.228662
0.127004
0.0993137
0.0850097
0.00879958
0.0447926
0.110295
0.193824
0.286503
0.38547
0.489381
0.59659
0.705036
0.811432
0.897508
0.938788
0.893112
0.702669
0.506082
0.317491
0.180509
0.141071
0.13074
0.13045
-0.0202279
0.0159457
0.081663
0.165243
0.257747
0.356148
0.458917
0.564136
0.669288
0.770317
0.848638
0.873407
0.7996
0.598032
0.409058
0.244449
0.164828
0.15012
0.148749
0.148845
-0.0510731
-0.014623
0.0513291
0.134892
0.227069
0.324719
0.426099
0.528996
0.630399
0.725513
0.794668
0.804366
0.689945
0.500409
0.322553
0.192155
0.159857
0.15863
0.157325
0.157613
-0.0834714
-0.0467223
0.0194291
0.102883
0.194593
0.291274
0.390999
0.491253
0.588463
0.67714
0.736636
0.725941
0.585999
0.406124
0.248188
0.177636
0.160723
0.161578
0.161833
0.161978
-0.116822
-0.0799815
-0.0137503
0.0694777
0.160555
0.256019
0.353817
0.451118
0.543773
0.625499
0.67555
0.643969
0.485469
0.318536
0.196081
0.159159
0.160106
0.161663
0.163412
0.164003
-0.15069
-0.113852
-0.0477167
0.0351269
0.125365
0.219349
0.314881
0.408968
0.496791
0.571446
0.610237
0.561916
0.386842
0.232751
0.152405
0.152417
0.150842
0.150784
0.153682
0.156246
-0.183964
-0.147431
-0.0817119
0.00049653
0.0896272
0.181853
0.274724
0.365331
0.448244
0.515974
0.543286
0.484437
0.292804
0.138661
0.0906882
0.0957576
0.126716
0.14895
0.155693
0.156965
-0.215272
-0.179518
-0.114709
-0.0335066
0.0541565
0.144365
0.234191
0.320884
0.399165
0.460051
0.481444
0.408355
0.210811
0.0302271
0.00786956
0.0505799
0.102821
0.139169
0.154122
0.157202
-0.243225
-0.20868
-0.145357
-0.0656755
0.0200326
0.107901
0.194508
0.27662
0.350477
0.405378
0.423321
0.346907
0.178586
-0.06642
-0.10622
-0.0311068
-0.00836051
0.0237753
0.0467688
0.0583171
-0.265493
-0.232953
-0.172017
-0.094493
-0.0113641
0.0736187
0.157127
0.234278
0.302569
0.354692
0.367346
0.304853
0.23064
0.0747668
-0.109259
-0.122127
-0.180673
-0.178112
-0.148368
-0.13808
-0.280257
-0.250445
-0.192779
-0.118302
-0.0383671
0.0429565
0.123287
0.196259
0.257143
0.307632
0.31855
0.265809
0.314982
0.463583
0.327292
-0.0210257
-0.179035
-0.192568
-0.194513
-0.197055
-0.285036
-0.25899
-0.205782
-0.135371
-0.0592362
0.0178572
0.0939878
0.164378
0.219524
0.258403
0.289457
0.157094
0.178742
0.467725
0.300621
-0.0435946
-0.209467
-0.214373
-0.224539
-0.2273
-0.278237
-0.256621
-0.209144
-0.144058
-0.0725249
0.000252309
0.0713289
0.139035
0.19232
0.21798
0.230095
-0.0233887
-0.398638
-0.61242
-0.834322
-0.944978
-0.750045
-0.494513
-0.390882
-0.397752
-0.257265
-0.240789
-0.201221
-0.143173
-0.077269
-0.0088411
0.0584217
0.121558
0.17406
0.200776
0.165358
-0.188587
-0.888117
-1.65134
-1.90259
-1.939
-1.73019
-1.38813
-1.09653
-1.00234
-0.224752
-0.213607
-0.182717
-0.13294
-0.0730318
-0.00899928
0.0557674
0.117117
0.168216
0.195832
0.159191
-0.13172
-0.708519
-1.40407
-1.6681
-1.63768
-1.501
-1.32756
-1.15008
-1.0284
-0.185419
-0.178912
-0.157309
-0.11571
-0.0613849
-0.000572128
0.0630708
0.12683
0.185439
0.217163
0.229462
0.130481
-0.0447328
-0.19702
-0.282023
-0.280854
-0.175475
-0.0313876
0.0803627
0.155891
-0.146286
-0.142738
-0.12975
-0.0959865
-0.0454998
0.0140353
0.0806713
0.14783
0.220785
0.296145
0.356224
0.467105
0.620147
0.905952
1.2243
1.57666
1.87598
2.03088
2.11828
2.15553
-0.113301
-0.111386
-0.104466
-0.0779562
-0.0302085
0.031544
0.10145
0.182823
0.264125
0.374406
0.486953
0.638817
1.0369
1.57597
2.2049
2.72689
3.10361
3.34843
3.45876
3.4875
-0.0831399
-0.0826228
-0.0804395
-0.0623142
-0.0179593
0.0466831
0.122673
0.20896
0.308448
0.413324
0.546646
0.671179
0.976277
1.51175
2.03948
2.53241
2.91271
3.14265
3.25259
3.28735
-0.0577029
-0.0570121
-0.0568059
-0.0463991
-0.00677607
0.0596387
0.141655
0.229948
0.33005
0.438065
0.549347
0.663392
0.783094
1.19206
1.65716
2.03802
2.34419
2.54853
2.64722
2.67583
-0.0407403
-0.0397157
-0.0403405
-0.0336318
0.00464679
0.0754661
0.159562
0.249125
0.342665
0.445575
0.547193
0.649667
0.740135
0.94535
1.28907
1.60574
1.84055
1.97427
2.03267
2.04794
-0.0279051
-0.0295082
-0.032939
-0.0249474
0.0203341
0.0986325
0.184487
0.27029
0.357917
0.451626
0.539598
0.62303
0.705017
0.849312
1.07369
1.27853
1.42702
1.51398
1.55301
1.56017
0.0145971
0.00968993
0.00455037
0.015649
0.0653819
0.142395
0.221706
0.298824
0.374665
0.454926
0.528749
0.594895
0.653746
0.751011
0.907186
1.03825
1.12563
1.1761
1.19565
1.19792
0.126037
0.120474
0.115524
0.125056
0.163455
0.219031
0.276576
0.33649
0.396539
0.459303
0.515463
0.561627
0.596621
0.646647
0.750113
0.840247
0.90062
0.933832
0.946964
0.948344
0.281518
0.278392
0.274752
0.276648
0.290951
0.314017
0.344611
0.379813
0.421518
0.467005
0.503506
0.531399
0.551075
0.578712
0.647281
0.70593
0.746537
0.768826
0.777441
0.777303
0.414432
0.413316
0.410166
0.404295
0.399111
0.398815
0.406567
0.421671
0.446234
0.476163
0.499449
0.511006
0.521528
0.541335
0.593071
0.631682
0.654362
0.665609
0.669099
0.668184
0.491921
0.491346
0.488187
0.47969
0.467412
0.456956
0.452697
0.455871
0.467733
0.487708
0.50402
0.507933
0.509057
0.524828
0.566832
0.590127
0.603437
0.608499
0.609371
0.608647
0.52541
0.524901
0.522198
0.514797
0.503161
0.491403
0.483327
0.480669
0.485524
0.499855
0.512693
0.520031
0.525263
0.541435
0.565064
0.57776
0.584806
0.58818
0.589163
0.588289
0.535294
0.534787
0.532712
0.527493
0.518923
0.509479
0.50163
0.497827
0.499127
0.508308
0.522856
0.53647
0.556187
0.569726
0.581185
0.58439
0.586878
0.588122
0.588734
0.587965
0.53557
0.535097
0.533563
0.530135
0.524566
0.51787
0.511589
0.508259
0.507393
0.51368
0.530055
0.549956
0.579931
0.593519
0.592937
0.592375
0.59577
0.599642
0.600869
0.599533
0.533142
0.532721
0.531548
0.529128
0.525499
0.520991
0.516239
0.512827
0.512059
0.514892
0.527111
0.547285
0.580102
0.58815
0.586233
0.591618
0.598784
0.605611
0.60905
0.607153
0.530592
0.530262
0.529387
0.527505
0.524793
0.521572
0.517978
0.514331
0.512762
0.511642
0.512459
0.519988
0.539566
0.543651
0.546012
0.556791
0.573131
0.585408
0.589854
0.588345
0.528056
0.527851
0.527285
0.525793
0.523803
0.521112
0.518175
0.51502
0.511288
0.504838
0.491196
0.474775
0.461596
0.459558
0.479428
0.506935
0.530366
0.543614
0.546783
0.544694
0.524411
0.524363
0.524185
0.523465
0.521719
0.519958
0.51806
0.516564
0.513158
0.497455
0.47165
0.433048
0.393184
0.390463
0.422905
0.455926
0.474685
0.485203
0.487213
0.486501
0.518242
0.51831
0.518433
0.518308
0.517815
0.517243
0.51717
0.517524
0.516205
0.50045
0.4714
0.424558
0.374898
0.376829
0.406443
0.425806
0.435388
0.438526
0.441363
0.44218
0.508516
0.50873
0.509189
0.509837
0.510696
0.51214
0.514606
0.518625
0.521325
0.513458
0.491028
0.452618
0.415509
0.420496
0.432861
0.436122
0.433876
0.433175
0.432763
0.431681
0.493891
0.494298
0.495267
0.496739
0.499099
0.503074
0.509099
0.518326
0.527846
0.532211
0.522365
0.509724
0.491558
0.484454
0.470272
0.455863
0.441283
0.434331
0.432169
0.432225
0.471585
0.472327
0.474013
0.476847
0.48116
0.48794
0.49814
0.513512
0.53223
0.546078
0.553747
0.565222
0.56534
0.543354
0.510069
0.481826
0.46309
0.453358
0.45067
0.450983
0.438018
0.439218
0.441821
0.446311
0.453256
0.463323
0.477844
0.499109
0.526238
0.547804
0.566743
0.586806
0.592588
0.556137
0.527051
0.513048
0.49908
0.489894
0.483352
0.483794
0.389057
0.390671
0.394294
0.4008
0.410791
0.424494
0.442673
0.468049
0.499287
0.517838
0.540691
0.565061
0.566716
0.534917
0.527076
0.526235
0.537046
0.528848
0.521643
0.521436
0.321211
0.323092
0.327695
0.336303
0.349152
0.365626
0.385351
0.408785
0.428166
0.431123
0.456829
0.49425
0.483104
0.460204
0.490017
0.517149
0.534082
0.526724
0.52043
0.518727
0.234238
0.235738
0.240871
0.250906
0.265335
0.282783
0.299802
0.308852
0.294056
0.275773
0.318337
0.364008
0.344501
0.339871
0.39908
0.451855
0.464645
0.450062
0.441981
0.439582
0.132684
0.133905
0.137986
0.147207
0.159919
0.174471
0.183172
0.167184
0.103969
0.0935536
0.156394
0.223168
0.170336
0.182193
0.257608
0.299618
0.293039
0.285888
0.279983
0.277565
0.0289242
0.0285284
0.0287773
0.0300866
0.0316234
0.0348626
0.0373709
0.0295517
-0.00355077
-0.0234107
0.00226289
0.05766
0.047161
0.0326885
0.0400488
0.0115218
0.0376861
0.0515298
0.0543093
0.0551962
0.569253
0.76689
0.949815
1.10507
1.23157
1.33373
1.41998
1.48988
1.50843
1.50443
0.87713
1.00527
1.12554
1.2308
1.32032
1.39497
1.45407
1.49412
1.51549
1.53178
1.08703
1.17229
1.25671
1.33145
1.39562
1.449
1.49102
1.52283
1.54639
1.56557
1.24063
1.3005
1.36155
1.41662
1.46427
1.50471
1.53845
1.56649
1.58753
1.60647
1.36089
1.40646
1.45239
1.49476
1.53238
1.56549
1.59432
1.61862
1.63706
1.65515
1.46352
1.50019
1.53641
1.57137
1.60349
1.63245
1.65796
1.6793
1.69541
1.71293
1.55344
1.5864
1.61938
1.65121
1.68082
1.7077
1.73123
1.75048
1.76463
1.78169
1.64169
1.67474
1.70766
1.73928
1.76842
1.79454
1.81695
1.83469
1.84724
1.86381
1.73686
1.77347
1.80853
1.84127
1.8707
1.89629
1.9176
1.93405
1.94578
1.96196
1.85031
1.89094
1.92818
1.96138
1.99007
2.01423
2.03399
2.04936
2.06134
2.07744
1.99182
2.03312
2.06851
2.09825
2.12358
2.14529
2.16387
2.17942
2.19259
2.20855
2.16365
2.19634
2.22322
2.24557
2.26571
2.28449
2.30228
2.31908
2.33402
2.34976
2.3502
2.36754
2.38471
2.40142
2.41754
2.4323
2.44623
2.46073
2.47599
2.4933
2.53362
2.54366
2.55689
2.56789
2.57731
2.58698
2.59761
2.60781
2.61712
2.64279
2.75163
2.74593
2.73299
2.71873
2.71244
2.71818
2.73633
2.76486
2.79863
2.83496
3.05443
2.91846
2.83898
2.79652
2.77921
2.78317
2.81062
2.86849
2.97616
3.15456
1.33874
1.33244
1.3247
1.31358
1.29999
1.28732
1.27689
1.26883
1.26305
1.25963
1.25916
1.26186
1.26699
1.27428
1.28377
1.29556
1.3091
1.32201
1.33098
1.33852
1.24783
1.25375
1.26182
1.26794
1.27099
1.27046
1.26735
1.2633
1.25964
1.25726
1.257
1.25912
1.26277
1.26714
1.27118
1.27338
1.27227
1.26761
1.26054
1.25269
1.24113
1.2435
1.24676
1.24953
1.25196
1.25412
1.25527
1.25507
1.25405
1.25313
1.25321
1.25449
1.25616
1.2573
1.25715
1.25563
1.25343
1.25104
1.24803
1.24501
1.23641
1.23749
1.2394
1.24173
1.24359
1.24496
1.24614
1.24708
1.24759
1.24784
1.24823
1.24883
1.24917
1.24894
1.24822
1.24723
1.24585
1.24384
1.2417
1.24021
1.23147
1.2321
1.23322
1.23497
1.2368
1.23836
1.23957
1.24056
1.24143
1.24217
1.24278
1.24313
1.24312
1.24279
1.24215
1.2411
1.2396
1.23794
1.23656
1.23575
1.22665
1.22709
1.22788
1.22917
1.23068
1.23221
1.23364
1.23486
1.2359
1.23683
1.23758
1.23795
1.23793
1.23754
1.23675
1.23564
1.2344
1.23318
1.23224
1.23169
1.22196
1.22229
1.2229
1.22397
1.22525
1.22663
1.22806
1.22946
1.23073
1.23185
1.23274
1.23322
1.23321
1.23275
1.23198
1.23105
1.23008
1.22913
1.22841
1.22801
1.21738
1.21763
1.21813
1.21904
1.22021
1.22151
1.2229
1.22436
1.22581
1.22718
1.22828
1.22886
1.22888
1.22851
1.22788
1.22714
1.22634
1.22559
1.22503
1.22473
1.21285
1.21304
1.21346
1.21427
1.21538
1.21663
1.218
1.2195
1.22108
1.22264
1.22397
1.22476
1.22496
1.22476
1.22432
1.22374
1.2231
1.2225
1.22207
1.22183
1.20829
1.20845
1.2088
1.20955
1.21061
1.21184
1.21322
1.21475
1.21643
1.2182
1.21982
1.22088
1.22135
1.2214
1.22118
1.22078
1.2203
1.21983
1.21951
1.21932
1.20367
1.20379
1.2041
1.2048
1.20586
1.20712
1.20856
1.21021
1.21206
1.21408
1.21603
1.21746
1.21824
1.21855
1.21853
1.2183
1.21797
1.21762
1.21738
1.21723
1.1989
1.19899
1.19927
1.19996
1.20105
1.20239
1.20396
1.2058
1.20791
1.21026
1.21265
1.21452
1.21565
1.21622
1.2164
1.21633
1.21614
1.21589
1.21573
1.21561
1.19394
1.194
1.19426
1.19496
1.19611
1.19755
1.19925
1.20129
1.20375
1.20658
1.20952
1.21187
1.21339
1.2143
1.21477
1.21492
1.21486
1.21473
1.21462
1.21454
1.18873
1.18877
1.18901
1.18972
1.19092
1.19248
1.19436
1.19664
1.1994
1.20269
1.20629
1.20935
1.21148
1.21287
1.21368
1.2141
1.21423
1.21423
1.2142
1.21415
1.18318
1.18319
1.18342
1.18417
1.18549
1.18722
1.18938
1.19207
1.1954
1.19941
1.20383
1.20768
1.2104
1.21222
1.21338
1.21403
1.2144
1.21454
1.21458
1.21455
1.17718
1.17718
1.17739
1.17817
1.17958
1.1815
1.18393
1.18702
1.19093
1.19579
1.20124
1.20606
1.20959
1.21208
1.21375
1.21482
1.21548
1.2158
1.21593
1.21592
1.17047
1.17044
1.17068
1.17149
1.17303
1.17518
1.178
1.18166
1.18635
1.19222
1.19892
1.20499
1.2095
1.21273
1.21501
1.2166
1.21762
1.21818
1.21841
1.21841
1.16274
1.16271
1.16297
1.16386
1.16557
1.16805
1.17138
1.17578
1.18151
1.18876
1.19703
1.20451
1.21015
1.21426
1.21725
1.21938
1.22084
1.22167
1.222
1.22201
1.15347
1.15342
1.15373
1.15477
1.15674
1.15966
1.16366
1.16901
1.17601
1.18488
1.1951
1.20438
1.2114
1.2166
1.22041
1.22321
1.22516
1.22628
1.2267
1.22671
1.14207
1.14201
1.14241
1.14368
1.14608
1.1497
1.15467
1.16134
1.17007
1.18108
1.19365
1.20502
1.21361
1.22
1.22475
1.22826
1.23069
1.23209
1.2326
1.23261
1.12794
1.12787
1.1284
1.13003
1.13306
1.13763
1.14393
1.15234
1.16327
1.17694
1.19239
1.20626
1.21673
1.22451
1.23032
1.2346
1.23759
1.23929
1.23989
1.2399
1.11017
1.11008
1.11083
1.113
1.11694
1.1229
1.13105
1.14185
1.15569
1.1727
1.19162
1.20839
1.22096
1.23032
1.23733
1.24251
1.24612
1.24813
1.24882
1.24883
1.08735
1.08727
1.08838
1.09137
1.09672
1.10471
1.11553
1.1296
1.14723
1.16839
1.19141
1.21149
1.22644
1.23757
1.24593
1.25215
1.25646
1.25879
1.25956
1.25956
1.05712
1.0571
1.05887
1.06327
1.07094
1.08215
1.09691
1.11551
1.13805
1.16425
1.19199
1.21575
1.23332
1.24639
1.25626
1.26364
1.2687
1.27134
1.27219
1.27216
1.01539
1.01559
1.01874
1.02603
1.038
1.0545
1.07514
1.09987
1.12853
1.16062
1.19359
1.22133
1.24169
1.25686
1.26838
1.27703
1.28281
1.28574
1.28663
1.28658
0.954652
0.95603
0.963587
0.977388
0.997138
1.02203
1.05091
1.08341
1.11927
1.15789
1.19646
1.22834
1.25159
1.26895
1.28215
1.29197
1.29851
1.30174
1.3026
1.3025
0.881918
0.884721
0.899243
0.923017
0.953369
0.988077
1.02587
1.06668
1.11029
1.15623
1.20143
1.23864
1.26591
1.28645
1.30213
1.31372
1.32141
1.32522
1.32634
1.32634
0.807993
0.815228
0.836897
0.870386
0.910814
0.95499
1.00169
1.05083
1.10228
1.15563
1.20765
1.25037
1.28177
1.30548
1.3237
1.33737
1.34635
1.35032
1.35148
1.35172
0.748663
0.757462
0.783871
0.824198
0.872251
0.924316
0.978971
1.0359
1.09482
1.15529
1.21376
1.26155
1.29655
1.32293
1.34305
1.35809
1.36783
1.37265
1.37447
1.37484
0.700326
0.7098
0.739576
0.784822
0.838617
0.89694
0.95822
1.02197
1.08769
1.15474
1.21919
1.27155
1.30964
1.33817
1.35988
1.37612
1.3871
1.39262
1.39472
1.39512
0.659876
0.669607
0.70166
0.750718
0.809126
0.87257
0.939432
1.00908
1.08082
1.15387
1.22377
1.2802
1.32098
1.35129
1.37429
1.3915
1.40314
1.40928
1.41161
1.41206
0.624667
0.634523
0.668294
0.720416
0.782659
0.850463
0.922148
0.996978
1.07414
1.15262
1.22749
1.28759
1.3307
1.36252
1.38646
1.40432
1.41649
1.42308
1.42559
1.42606
0.593057
0.602979
0.638106
0.692801
0.758299
0.829869
0.905819
0.985311
1.06741
1.15091
1.2304
1.29391
1.33912
1.37222
1.39691
1.41524
1.42774
1.43462
1.43722
1.43769
0.563875
0.573866
0.610131
0.667064
0.735386
0.810263
0.890003
0.973721
1.06038
1.1486
1.23251
1.2993
1.34651
1.38076
1.40608
1.42472
1.43738
1.44436
1.44694
1.44743
0.536278
0.546345
0.583665
0.642603
0.713449
0.791252
0.874384
0.961956
1.05284
1.14556
1.23379
1.30381
1.35304
1.38844
1.41438
1.43331
1.44609
1.45315
1.45574
1.45608
0.509764
0.519962
0.558259
0.619013
0.692123
0.772558
0.85876
0.949841
1.04466
1.14166
1.23415
1.3075
1.35883
1.3955
1.42214
1.44142
1.45432
1.46134
1.4639
1.46422
0.484016
0.494402
0.53363
0.596041
0.67119
0.754001
0.84298
0.93727
1.03574
1.13683
1.23356
1.31039
1.36403
1.40213
1.42959
1.44928
1.46235
1.46934
1.4718
1.4721
0.458814
0.469464
0.509584
0.573523
0.650523
0.735469
0.826967
0.924188
1.02604
1.13104
1.23199
1.3125
1.3687
1.40843
1.43685
1.45705
1.4703
1.47724
1.47956
1.47979
0.43413
0.445046
0.486011
0.551383
0.630063
0.716936
0.810701
0.910579
1.01555
1.12425
1.22941
1.31378
1.37281
1.41443
1.44399
1.46477
1.47819
1.48501
1.48715
1.48729
0.409881
0.421089
0.462899
0.529613
0.609794
0.698393
0.794193
0.896469
1.00429
1.11645
1.22573
1.31411
1.37631
1.42015
1.45104
1.47246
1.48601
1.49265
1.49455
1.49458
0.386099
0.397605
0.440263
0.508206
0.589737
0.67988
0.777497
0.881907
0.992296
1.10765
1.22087
1.31339
1.3791
1.42556
1.45805
1.48017
1.49372
1.5
1.50161
1.50154
0.362754
0.37462
0.418127
0.487194
0.569939
0.661455
0.760673
0.866968
0.979631
1.09786
1.21483
1.31153
1.38104
1.43059
1.46512
1.48802
1.50135
1.50703
1.50825
1.50808
0.340095
0.352204
0.396541
0.466632
0.550469
0.643203
0.743802
0.851737
0.966384
1.08717
1.20758
1.30838
1.38192
1.43509
1.4723
1.4963
1.50913
1.51372
1.51435
1.51409
0.317975
0.330427
0.375557
0.446569
0.531374
0.625177
0.726986
0.836308
0.952656
1.07566
1.19914
1.30387
1.38154
1.43875
1.47951
1.50544
1.51773
1.52045
1.5199
1.51948
0.296589
0.309341
0.355203
0.427065
0.512746
0.607471
0.710317
0.820811
0.938567
1.06343
1.18955
1.29792
1.37971
1.44119
1.48632
1.51568
1.5285
1.52883
1.52558
1.52434
0.275847
0.288928
0.335545
0.408185
0.494633
0.590162
0.693888
0.805334
0.924233
1.05061
1.17891
1.29045
1.37625
1.44197
1.49188
1.52639
1.54242
1.54243
1.5354
1.52488
0.255867
0.269195
0.316489
0.389761
0.476809
0.572949
0.67734
0.789447
0.909168
1.03667
1.16665
1.28082
1.37058
1.44051
1.49498
1.53576
1.55831
1.56126
1.5516
1.54677
0.236704
0.250068
0.298043
0.371868
0.459304
0.555858
0.660714
0.773139
0.893353
1.02149
1.15261
1.26862
1.36207
1.43605
1.49328
1.53793
1.56424
1.57235
1.5401
1.49965
0.218577
0.231692
0.28026
0.354628
0.442145
0.538867
0.64403
0.75655
0.876873
1.00514
1.13677
1.25365
1.34988
1.42807
1.48521
1.52241
1.54924
1.53997
1.48841
1.43093
0.198768
0.215264
0.263486
0.338464
0.42549
0.522242
0.626964
0.739734
0.85983
0.987755
1.11912
1.2358
1.33256
1.41749
1.46954
1.50556
1.49522
1.46011
1.39871
1.33834
0.208947
0.232935
0.283347
0.362686
0.454725
0.555484
0.6656
0.781609
0.904821
1.03631
1.16115
1.26437
1.35364
1.43961
1.47719
1.42117
1.38276
1.32857
1.26482
1.22374
0.194596
0.202322
0.242535
0.312615
0.399443
0.495882
0.600758
0.713059
0.832331
0.958892
1.08826
1.20285
1.2949
1.37907
1.44248
1.43764
1.34264
1.27236
1.21907
1.14671
0.172586
0.183255
0.226885
0.298244
0.385489
0.481556
0.585238
0.696509
0.814722
0.939696
1.06696
1.17937
1.26726
1.33843
1.36422
1.29521
1.17699
1.10073
1.04019
0.96622
0.148412
0.160348
0.207143
0.279518
0.36681
0.46297
0.566624
0.677573
0.794788
0.918095
1.04223
1.15017
1.23065
1.28192
1.26157
1.14272
1.01358
0.921489
0.847065
0.738766
0.124537
0.13654
0.185162
0.258722
0.346217
0.442377
0.545901
0.656217
0.772213
0.893452
1.01388
1.11645
1.18823
1.21676
1.15734
0.990407
0.834867
0.712235
0.610908
0.471944
0.100787
0.112779
0.162549
0.237146
0.325094
0.421243
0.524397
0.633815
0.748343
0.867146
0.983418
1.07994
1.14184
1.13818
1.02541
0.838967
0.652212
0.486292
0.344379
0.0889059
0.0767469
0.0886034
0.139065
0.214373
0.302743
0.398945
0.501718
0.610219
0.723159
0.839287
0.951042
1.04058
1.09029
1.05352
0.894856
0.695585
0.489263
0.307694
0.134029
-0.146611
0.0518507
0.0635689
0.114367
0.190157
0.278865
0.375128
0.477559
0.585168
0.696456
0.80972
0.916727
0.998376
1.03291
0.972339
0.773002
0.56842
0.362532
0.187881
0.098548
0.0473002
0.0254199
0.0370575
0.0881082
0.164186
0.253043
0.349208
0.451141
0.557629
0.666921
0.776801
0.878428
0.951058
0.967494
0.864986
0.659021
0.456226
0.274033
0.158416
0.120585
0.114061
-0.002726
0.00889237
0.0601971
0.136467
0.225339
0.321239
0.422464
0.52757
0.634478
0.74043
0.835888
0.898962
0.887378
0.75106
0.552897
0.363036
0.209027
0.154844
0.144202
0.141352
-0.0327177
-0.0210414
0.0305841
0.107007
0.19578
0.29124
0.391547
0.494976
0.599117
0.700641
0.78903
0.841707
0.802528
0.641485
0.457017
0.280998
0.178737
0.154838
0.154113
0.153682
-0.0644128
-0.0526555
-0.000678112
0.0758629
0.164432
0.259285
0.358432
0.459902
0.560902
0.657455
0.738309
0.777743
0.722579
0.537536
0.367408
0.218918
0.167462
0.16199
0.160168
0.159767
-0.097423
-0.085625
-0.0333411
0.0432268
0.131463
0.225519
0.323252
0.42248
0.519972
0.611078
0.684007
0.70956
0.636225
0.442586
0.284683
0.183568
0.16177
0.161502
0.163191
0.163417
-0.131276
-0.119472
-0.0669986
0.00946582
0.0972142
0.190255
0.286286
0.382982
0.47666
0.561999
0.626417
0.639398
0.535765
0.349894
0.213992
0.167787
0.157885
0.158112