/*--------------------------------*- C++ -*----------------------------------*\
  =========                 |
  \\      /  F ield         | OpenFOAM: The Open Source CFD Toolbox
   \\    /   O peration     | Website:  https://openfoam.org
    \\  /    A nd           | Version:  6
     \\/     M anipulation  |
\*---------------------------------------------------------------------------*/
FoamFile
{
    version     2.0;
    format      ascii;
    class       volScalarField;
    location    "56";
    object      p;
}
// * * * * * * * * * * * * * * * * * * * * * * * * * * * * * * * * * * * * * //

dimensions      [0 2 -2 0 0 0 0];

internalField   nonuniform List<scalar> 
8800
(
0.778862
0.72955
0.691584
0.663506
0.643332
0.628727
0.618106
0.610534
0.605608
0.603483
0.604794
0.609087
0.615845
0.625241
0.637962
0.655273
0.679143
0.712237
0.755163
0.807693
0.613341
0.619686
0.628834
0.632374
0.629757
0.623659
0.616704
0.610439
0.605603
0.602685
0.602393
0.604963
0.609558
0.615651
0.622723
0.629737
0.634603
0.634473
0.627794
0.618894
0.586907
0.593141
0.597636
0.601497
0.604429
0.605356
0.60424
0.602083
0.600056
0.599156
0.600123
0.602522
0.605367
0.607609
0.608113
0.606315
0.602941
0.59892
0.594134
0.590416
0.58263
0.585393
0.587994
0.590143
0.591866
0.593414
0.594487
0.594799
0.594633
0.594664
0.595397
0.59648
0.597178
0.596996
0.595999
0.594627
0.592943
0.590629
0.588213
0.586647
0.577613
0.579036
0.580867
0.582934
0.58463
0.5859
0.586967
0.587902
0.588652
0.589311
0.589941
0.590334
0.590307
0.589905
0.589208
0.588071
0.586399
0.584494
0.583136
0.582333
0.572672
0.573574
0.574811
0.576422
0.578095
0.5796
0.580847
0.581919
0.582915
0.583844
0.584536
0.584848
0.584797
0.584383
0.583546
0.582333
0.580952
0.579673
0.578847
0.578323
0.567827
0.568481
0.569432
0.570732
0.572156
0.573641
0.575082
0.576388
0.577571
0.578673
0.579514
0.579916
0.579862
0.57937
0.578549
0.577576
0.57656
0.575639
0.575053
0.57467
0.563075
0.563579
0.564354
0.565474
0.566747
0.568127
0.569586
0.57106
0.57248
0.573816
0.574841
0.575339
0.575331
0.574942
0.574329
0.573602
0.572835
0.572153
0.57172
0.571421
0.558365
0.558766
0.559414
0.560412
0.561611
0.562933
0.564381
0.565944
0.56757
0.569176
0.570436
0.571107
0.571277
0.571105
0.570722
0.570209
0.569641
0.569149
0.568827
0.568585
0.553618
0.553945
0.554505
0.555423
0.556572
0.55788
0.559358
0.561014
0.562825
0.564713
0.566285
0.567243
0.567682
0.567762
0.567606
0.567311
0.566932
0.566599
0.56636
0.566158
0.548748
0.549019
0.54952
0.55039
0.551521
0.552852
0.554402
0.556193
0.558225
0.560442
0.562405
0.563735
0.564501
0.564863
0.564953
0.564875
0.564686
0.564491
0.564319
0.564145
0.543669
0.543898
0.54436
0.545213
0.546365
0.547762
0.549425
0.551403
0.553721
0.556345
0.558789
0.560566
0.561713
0.562399
0.562763
0.562913
0.56291
0.562842
0.562725
0.562571
0.538293
0.538489
0.538931
0.539796
0.54101
0.542516
0.544347
0.546582
0.549271
0.552407
0.555434
0.557739
0.559329
0.560384
0.561052
0.561441
0.561642
0.561691
0.56162
0.56148
0.53252
0.532689
0.533129
0.534036
0.535351
0.537019
0.539086
0.541658
0.544819
0.548591
0.552324
0.55526
0.55737
0.558847
0.559863
0.560537
0.560937
0.561098
0.561067
0.560936
0.526235
0.526382
0.526835
0.527812
0.529275
0.531165
0.533547
0.536556
0.540309
0.544862
0.549454
0.553144
0.555868
0.557839
0.559247
0.56023
0.560856
0.561135
0.561141
0.561015
0.519302
0.519425
0.519908
0.520986
0.522648
0.524831
0.527615
0.531173
0.535663
0.541175
0.546805
0.551399
0.554853
0.557407
0.559279
0.560618
0.561493
0.561894
0.561933
0.561809
0.511546
0.511646
0.512172
0.513387
0.515307
0.517865
0.521161
0.525406
0.530805
0.537485
0.544373
0.550053
0.554374
0.557616
0.560041
0.561794
0.56295
0.563478
0.563549
0.563423
0.502731
0.502836
0.503411
0.504797
0.507052
0.510088
0.514031
0.519143
0.525677
0.533792
0.542189
0.549158
0.5545
0.558547
0.561626
0.563865
0.565335
0.566
0.566102
0.56597
0.492559
0.492649
0.493315
0.494935
0.497625
0.501275
0.506044
0.512252
0.5202
0.530071
0.54028
0.548768
0.555307
0.560302
0.564131
0.566937
0.568767
0.569577
0.569706
0.569566
0.480667
0.480742
0.481511
0.483444
0.486693
0.491134
0.496961
0.504557
0.514272
0.526294
0.538669
0.548932
0.556865
0.562969
0.56767
0.571138
0.573361
0.574319
0.574471
0.574319
0.466509
0.466576
0.46749
0.469834
0.473814
0.479296
0.486501
0.495873
0.507792
0.522431
0.537387
0.549726
0.559264
0.56664
0.572355
0.576565
0.579214
0.580318
0.580487
0.580318
0.449325
0.449384
0.450511
0.453435
0.458417
0.465304
0.474347
0.486042
0.500756
0.518581
0.536555
0.551262
0.562608
0.57142
0.578263
0.583298
0.586391
0.587627
0.5878
0.587613
0.427973
0.428037
0.429505
0.433299
0.439722
0.448587
0.460149
0.474915
0.493168
0.514835
0.536279
0.553634
0.566985
0.577386
0.585445
0.591379
0.594899
0.596234
0.596396
0.596188
0.400707
0.400799
0.402855
0.408049
0.416691
0.428469
0.443587
0.462446
0.485125
0.511332
0.536694
0.556943
0.572462
0.584561
0.593951
0.600775
0.604659
0.606036
0.606166
0.605935
0.364493
0.364705
0.367961
0.375741
0.388128
0.404379
0.424574
0.44882
0.476916
0.508352
0.538021
0.56134
0.579112
0.592984
0.603735
0.611372
0.615488
0.61682
0.616891
0.61664
0.313574
0.314638
0.321102
0.334216
0.35314
0.37631
0.40353
0.434584
0.469069
0.506315
0.540525
0.566984
0.587016
0.602612
0.614658
0.622947
0.627078
0.628259
0.628252
0.627986
0.239569
0.246858
0.261684
0.284565
0.313265
0.345695
0.381456
0.420289
0.461814
0.505386
0.544545
0.574448
0.596984
0.614517
0.627858
0.636638
0.640686
0.641699
0.641637
0.641401
0.160773
0.176723
0.200816
0.234249
0.273226
0.315081
0.35947
0.406313
0.45534
0.505978
0.551012
0.585223
0.610938
0.630838
0.645724
0.654906
0.658656
0.659428
0.65938
0.659241
0.0932932
0.112793
0.144641
0.187176
0.23533
0.286072
0.338862
0.393572
0.44992
0.507367
0.55799
0.596218
0.624871
0.646896
0.662931
0.672192
0.675637
0.676294
0.676286
0.676204
0.038075
0.0597853
0.0969816
0.146044
0.201383
0.259585
0.31981
0.381769
0.44503
0.508961
0.564892
0.606883
0.638189
0.662067
0.679179
0.688767
0.692287
0.692986
0.693003
0.692956
-0.00771728
0.0153205
0.0563977
0.110571
0.171669
0.236035
0.302631
0.371028
0.440611
0.510593
0.571533
0.617114
0.650939
0.676608
0.694867
0.705131
0.708929
0.709624
0.709677
0.709659
-0.0466899
-0.02284
0.0211159
0.0794519
0.145406
0.215034
0.287143
0.361228
0.436554
0.512182
0.577865
0.62688
0.663161
0.690598
0.710043
0.721059
0.725185
0.725962
0.726046
0.726049
-0.0808566
-0.0564457
-0.0102251
0.051561
0.121662
0.195873
0.272881
0.352116
0.432733
0.513639
0.583809
0.636044
0.674663
0.703757
0.724332
0.73601
0.740517
0.741456
0.741579
0.74159
-0.111693
-0.0868093
-0.0387112
0.0260139
0.0997093
0.17795
0.259367
0.34332
0.428849
0.514737
0.589175
0.644486
0.685249
0.715867
0.737435
0.749721
0.754586
0.755717
0.755849
0.755856
-0.140191
-0.114865
-0.0651611
0.00213802
0.0789865
0.160797
0.246186
0.334476
0.424631
0.515273
0.593841
0.652093
0.69486
0.726858
0.749279
0.762061
0.767209
0.768475
0.76861
0.768603
-0.167135
-0.14132
-0.0901557
-0.0205607
0.0590687
0.144063
0.23305
0.325346
0.419863
0.515094
0.597704
0.65884
0.703532
0.736778
0.759895
0.773023
0.778343
0.779692
0.77982
0.779793
-0.192888
-0.166608
-0.114094
-0.0424479
0.0396614
0.127514
0.21977
0.315759
0.414385
0.514083
0.600715
0.664739
0.711334
0.745723
0.769418
0.782727
0.788123
0.78951
0.789612
0.789557
-0.217865
-0.191031
-0.137271
-0.0637698
0.0205625
0.110982
0.206214
0.305608
0.408102
0.512144
0.602831
0.669829
0.718362
0.753854
0.778003
0.791392
0.796785
0.798157
0.798246
0.798167
-0.242185
-0.214788
-0.15985
-0.0846713
0.00164892
0.0943779
0.192308
0.294837
0.400962
0.509216
0.604018
0.674149
0.724731
0.761348
0.78589
0.799239
0.804533
0.805836
0.805899
0.805802
-0.26596
-0.237986
-0.181934
-0.105226
-0.0171257
0.0776694
0.178032
0.283422
0.392934
0.505251
0.604237
0.677723
0.73055
0.768363
0.793212
0.806391
0.811504
0.812702
0.812706
0.81258
-0.289279
-0.260698
-0.203563
-0.125454
-0.0357815
0.0608607
0.163406
0.271386
0.384022
0.50022
0.603438
0.680541
0.735912
0.775056
0.800116
0.812972
0.817758
0.81878
0.81872
0.818574
-0.312181
-0.282916
-0.224731
-0.145357
-0.0542851
0.0439838
0.148474
0.258772
0.374253
0.494101
0.601554
0.682547
0.740872
0.781603
0.806798
0.819094
0.823368
0.82414
0.824019
0.823863
-0.334509
-0.304598
-0.245414
-0.164912
-0.0726002
0.0271061
0.1333
0.245655
0.363685
0.486913
0.598518
0.683649
0.745411
0.788169
0.813568
0.825027
0.828462
0.828849
0.828658
0.828505
-0.356229
-0.325701
-0.265588
-0.184072
-0.0906678
0.0102907
0.117973
0.23211
0.352396
0.478678
0.594275
0.683725
0.74942
0.794833
0.820841
0.831299
0.833357
0.833
0.832688
0.832582
-0.377394
-0.346189
-0.285222
-0.202799
-0.108422
-0.00637704
0.102585
0.218243
0.340476
0.469453
0.58877
0.682645
0.75269
0.801467
0.828981
0.838831
0.838976
0.837007
0.836197
0.836311
-0.397841
-0.366034
-0.304257
-0.221024
-0.125802
-0.0228109
0.0872336
0.204163
0.328039
0.459335
0.581975
0.680258
0.754944
0.807659
0.837923
0.848632
0.847404
0.84284
0.83961
0.838085
-0.417662
-0.385235
-0.322697
-0.238775
-0.142839
-0.0390505
0.0718674
0.189812
0.315015
0.448254
0.573736
0.676303
0.755901
0.812851
0.846936
0.860826
0.86077
0.854297
0.844284
0.844125
-0.436769
-0.403859
-0.340676
-0.256248
-0.159831
-0.0554326
0.0560672
0.174697
0.300847
0.435569
0.563372
0.669983
0.755031
0.816301
0.854237
0.872892
0.875048
0.864948
0.846936
0.843817
-0.455026
-0.421857
-0.358026
-0.273246
-0.176511
-0.0716529
0.0400465
0.159146
0.285837
0.42153
0.550959
0.66068
0.751582
0.816848
0.855617
0.874434
0.879574
0.855912
0.797593
0.771995
-0.472294
-0.44003
-0.374336
-0.289288
-0.192139
-0.0872276
0.0240846
0.143434
0.270266
0.406311
0.536576
0.64783
0.744601
0.813731
0.846389
0.859838
0.849965
0.800313
0.738401
0.70082
-0.515966
-0.457949
-0.389384
-0.305088
-0.207472
-0.103085
0.00831769
0.127439
0.253935
0.389573
0.519852
0.630861
0.730386
0.804615
0.824756
0.815782
0.772013
0.709202
0.640797
0.603221
-0.490916
-0.472556
-0.412222
-0.327489
-0.231023
-0.126871
-0.0162074
0.102196
0.227656
0.361667
0.490202
0.598732
0.689221
0.770267
0.757139
0.652851
0.564939
0.503581
0.440854
0.47029
-0.522367
-0.490529
-0.429385
-0.345256
-0.248913
-0.144974
-0.0341875
0.0835201
0.207889
0.340022
0.4658
0.570637
0.650659
0.696115
0.648121
0.512057
0.405459
0.333499
0.25237
0.300549
-0.546856
-0.512547
-0.44954
-0.365285
-0.26901
-0.165118
-0.0544632
0.0624213
0.185379
0.315043
0.43693
0.535657
0.604405
0.612321
0.509429
0.357101
0.230125
0.139208
0.0450456
0.0793573
-0.570731
-0.535288
-0.470811
-0.385841
-0.289482
-0.185719
-0.075573
0.0403265
0.161649
0.288444
0.405465
0.496074
0.548493
0.523878
0.369224
0.194721
0.0366971
-0.0960837
-0.219975
-0.204563
-0.594348
-0.558445
-0.492995
-0.407391
-0.310854
-0.207294
-0.0977974
0.016972
0.136382
0.259908
0.371239
0.454067
0.485956
0.417532
0.231477
0.0366388
-0.148804
-0.301429
-0.506534
-0.585584
-0.618388
-0.582488
-0.516438
-0.430362
-0.333619
-0.23021
-0.121297
-0.00768743
0.109692
0.229701
0.334961
0.408739
0.415694
0.295758
0.106068
-0.101105
-0.291812
-0.452855
-0.576687
-0.695919
-0.64393
-0.607898
-0.541489
-0.455131
-0.358315
-0.255154
-0.146921
-0.0346463
0.0803611
0.196315
0.295108
0.356514
0.336519
0.18023
-0.0110247
-0.212498
-0.38673
-0.483635
-0.509947
-0.523461
-0.67111
-0.63496
-0.568281
-0.481796
-0.385092
-0.282351
-0.175045
-0.0644171
0.0477707
0.158954
0.250842
0.295049
0.256271
0.0694961
-0.119849
-0.301155
-0.432755
-0.470641
-0.479604
-0.479912
-0.700204
-0.6638
-0.596852
-0.510344
-0.413897
-0.311809
-0.205693
-0.0970589
0.0118511
0.11758
0.201565
0.229916
0.160419
-0.0316754
-0.214993
-0.372335
-0.446169
-0.460366
-0.461449
-0.461278
-0.731224
-0.694453
-0.627215
-0.540768
-0.444745
-0.343518
-0.238876
-0.132595
-0.0273875
0.0722731
0.147148
0.161329
0.0538515
-0.123302
-0.296796
-0.42109
-0.449786
-0.450623
-0.451244
-0.450837
-0.763906
-0.726735
-0.659257
-0.572977
-0.477541
-0.377421
-0.274568
-0.171007
-0.0699034
0.0231452
0.0887536
0.0841934
-0.0408726
-0.208021
-0.361536
-0.431725
-0.446743
-0.444818
-0.444546
-0.444161
-0.797668
-0.760289
-0.692699
-0.606727
-0.512085
-0.413352
-0.312619
-0.212178
-0.115505
-0.0293666
0.0266391
0.00660072
-0.128495
-0.28289
-0.404033
-0.44098
-0.440267
-0.440471
-0.440079
-0.439669
-0.832051
-0.794562
-0.727039
-0.641577
-0.548
-0.45097
-0.352737
-0.255832
-0.16394
-0.0843905
-0.0408154
-0.0662859
-0.207874
-0.34105
-0.428298
-0.436179
-0.438124
-0.438666
-0.438369
-0.438003
-0.866056
-0.828626
-0.761498
-0.676853
-0.584703
-0.489768
-0.394448
-0.301485
-0.214828
-0.141197
-0.108184
-0.140425
-0.27556
-0.385912
-0.434146
-0.444167
-0.439315
-0.437419
-0.436571
-0.43624
-0.897771
-0.861158
-0.795001
-0.711618
-0.621366
-0.528997
-0.43706
-0.348425
-0.267422
-0.199444
-0.171013
-0.217939
-0.331307
-0.426569
-0.450719
-0.4472
-0.440061
-0.434361
-0.432847
-0.432417
-0.926085
-0.890584
-0.826083
-0.744608
-0.656868
-0.567654
-0.479642
-0.395762
-0.320541
-0.258695
-0.233774
-0.287138
-0.372412
-0.446592
-0.477304
-0.460856
-0.444473
-0.435834
-0.434027
-0.433257
-0.948205
-0.914706
-0.852904
-0.77422
-0.68981
-0.604474
-0.520984
-0.442443
-0.372956
-0.317466
-0.296963
-0.348718
-0.397167
-0.432951
-0.44889
-0.469571
-0.479206
-0.479539
-0.475939
-0.473423
-0.961919
-0.931284
-0.873287
-0.798597
-0.718547
-0.63797
-0.559618
-0.487088
-0.423568
-0.374263
-0.354114
-0.414138
-0.432117
-0.416616
-0.447719
-0.510126
-0.550807
-0.555986
-0.550025
-0.54858
-0.964401
-0.937789
-0.884998
-0.815761
-0.741295
-0.666521
-0.593984
-0.527731
-0.471326
-0.428805
-0.404162
-0.490337
-0.551869
-0.492477
-0.530998
-0.571728
-0.584211
-0.580095
-0.575888
-0.576164
-0.953357
-0.931659
-0.885786
-0.823813
-0.756414
-0.688486
-0.622617
-0.562241
-0.514024
-0.479959
-0.456416
-0.556079
-0.783715
-0.912222
-0.825451
-0.681707
-0.599057
-0.576151
-0.571702
-0.570446
-0.925979
-0.909985
-0.873636
-0.82139
-0.762685
-0.702616
-0.644005
-0.589269
-0.547517
-0.521987
-0.508525
-0.595217
-0.773832
-1.03906
-0.907649
-0.668088
-0.562255
-0.526606
-0.515214
-0.51098
-0.885609
-0.87536
-0.849446
-0.80867
-0.759905
-0.708541
-0.656753
-0.60843
-0.568045
-0.550247
-0.530627
-0.487009
-0.324974
-0.249378
-0.199255
-0.277969
-0.371703
-0.391733
-0.389769
-0.386247
-0.83927
-0.833477
-0.818163
-0.788582
-0.750185
-0.706771
-0.661537
-0.61704
-0.577753
-0.553142
-0.5217
-0.374074
-0.0548581
0.274966
0.173334
-0.0715936
-0.224512
-0.288278
-0.293757
-0.302515
-0.79713
-0.793667
-0.7862
-0.766667
-0.736647
-0.699768
-0.65942
-0.616969
-0.576697
-0.542493
-0.538298
-0.456433
-0.48035
-0.507809
-0.686361
-0.883637
-0.949576
-0.874905
-0.776371
-0.758857
-0.765761
-0.763645
-0.759744
-0.74766
-0.72395
-0.691373
-0.652895
-0.610385
-0.564577
-0.531054
-0.504395
-0.559203
-0.820045
-1.34586
-1.68838
-1.8492
-1.84366
-1.72799
-1.59537
-1.51547
-0.742159
-0.741336
-0.739992
-0.73376
-0.715165
-0.684738
-0.645556
-0.598734
-0.548922
-0.493677
-0.445293
-0.487888
-0.79509
-1.20396
-1.50035
-1.49611
-1.27591
-0.990262
-0.777655
-0.68683
-0.728314
-0.727975
-0.727355
-0.72453
-0.7108
-0.680587
-0.637284
-0.586829
-0.524556
-0.443996
-0.355513
-0.244571
-0.203472
-0.131612
0.014218
0.182633
0.487379
0.745585
0.887242
0.937951
-0.719301
-0.71909
-0.718671
-0.718022
-0.708898
-0.678606
-0.631835
-0.572729
-0.498135
-0.40696
-0.28053
-0.118243
0.090514
0.415253
0.891148
1.35057
1.72255
1.93237
2.02054
2.04456
-0.712837
-0.713297
-0.714196
-0.715098
-0.707772
-0.678341
-0.629084
-0.565107
-0.482991
-0.370768
-0.247548
-0.100663
0.136963
0.570035
1.10226
1.56745
1.90192
2.07739
2.1405
2.15149
-0.704931
-0.705502
-0.70562
-0.70452
-0.698864
-0.676656
-0.633642
-0.567632
-0.475611
-0.358321
-0.237559
-0.10761
0.0907849
0.472277
0.899754
1.27949
1.54398
1.67209
1.71258
1.71964
-0.71293
-0.710611
-0.699662
-0.682196
-0.676341
-0.678503
-0.651313
-0.578485
-0.479514
-0.36342
-0.24408
-0.138183
0.000642189
0.296185
0.610714
0.876146
1.05412
1.13301
1.15984
1.16484
-0.762544
-0.757371
-0.744703
-0.728764
-0.7239
-0.728875
-0.694083
-0.59791
-0.483548
-0.370181
-0.257603
-0.169804
-0.0604411
0.134746
0.34188
0.505218
0.600869
0.647389
0.668388
0.675251
-0.862984
-0.867199
-0.885536
-0.906262
-0.902565
-0.870743
-0.766856
-0.621256
-0.486583
-0.370364
-0.274302
-0.20603
-0.131448
0.032629
0.168735
0.256575
0.310869
0.339222
0.356088
0.362593
-0.972116
-0.991007
-1.02884
-1.05408
-1.04713
-0.981903
-0.813761
-0.629215
-0.484478
-0.367746
-0.285277
-0.233924
-0.191332
-0.0766611
0.0353054
0.121661
0.169716
0.195961
0.210119
0.214187
-0.961213
-0.980473
-1.01306
-1.03707
-1.0279
-0.944348
-0.760075
-0.594265
-0.459425
-0.351524
-0.282313
-0.245377
-0.209387
-0.114547
-0.0306715
0.0397193
0.0875625
0.118927
0.131363
0.133699
-0.749475
-0.769195
-0.801603
-0.830831
-0.825145
-0.745672
-0.618816
-0.502452
-0.394879
-0.317544
-0.26474
-0.229976
-0.215284
-0.124395
-0.0397442
0.0107522
0.0452449
0.0647977
0.0719824
0.0727582
-0.411929
-0.424969
-0.449183
-0.475987
-0.486795
-0.463148
-0.420394
-0.366182
-0.312573
-0.264066
-0.223074
-0.192431
-0.164112
-0.118792
-0.0629173
-0.0258027
0.00372726
0.0220201
0.028749
0.0292073
-0.116542
-0.122394
-0.137479
-0.163713
-0.19411
-0.22015
-0.235014
-0.239103
-0.230278
-0.201984
-0.177084
-0.142888
-0.113196
-0.0743528
-0.04218
-0.0249753
-0.00830591
0.00168763
0.00579523
0.00550899
0.0413033
0.038576
0.0280907
0.00359929
-0.0355172
-0.0808461
-0.119863
-0.147525
-0.159815
-0.152771
-0.133267
-0.100353
-0.0721321
-0.0569302
-0.0386745
-0.0260707
-0.0156827
-0.00980347
-0.008779
-0.00993044
0.0896256
0.0877983
0.0799616
0.0602184
0.026924
-0.0143619
-0.0559212
-0.0894774
-0.111722
-0.116116
-0.101834
-0.0730259
-0.047375
-0.0446089
-0.0413192
-0.0379357
-0.02892
-0.0227007
-0.0212108
-0.0225785
0.086361
0.0850808
0.0796167
0.0656648
0.0413655
0.00951905
-0.0250145
-0.0570376
-0.0815967
-0.0922597
-0.0857636
-0.0637865
-0.0462528
-0.051845
-0.0536285
-0.0507384
-0.0460608
-0.0438128
-0.0444369
-0.046171
0.0657618
0.0649098
0.0612268
0.0517837
0.0348438
0.0115121
-0.0158036
-0.0433502
-0.0678361
-0.0839693
-0.087459
-0.0782931
-0.0712339
-0.0842241
-0.0903731
-0.087462
-0.0828686
-0.0817971
-0.0822714
-0.0836397
0.0423079
0.0417506
0.0392677
0.0328901
0.0211658
0.00426587
-0.0169162
-0.0404202
-0.0645911
-0.0870473
-0.105143
-0.116848
-0.127559
-0.140938
-0.142231
-0.135813
-0.130662
-0.129569
-0.130357
-0.131364
0.0214661
0.0210623
0.019375
0.0150426
0.00682913
-0.00551144
-0.0221364
-0.042368
-0.0664348
-0.0954436
-0.13097
-0.169466
-0.206991
-0.212195
-0.19783
-0.18531
-0.180268
-0.180334
-0.181041
-0.181464
0.00533406
0.00501435
0.0038164
0.000782432
-0.0050673
-0.0143122
-0.0274601
-0.0450772
-0.0686023
-0.101888
-0.1512
-0.216759
-0.262518
-0.255811
-0.234297
-0.2222
-0.218923
-0.220086
-0.220397
-0.220259
-0.00576022
-0.00599806
-0.00687476
-0.00899611
-0.0131411
-0.0200412
-0.030364
-0.0451279
-0.066626
-0.100154
-0.152335
-0.220648
-0.258297
-0.245638
-0.229324
-0.226182
-0.229914
-0.234101
-0.234383
-0.233782
-0.0119928
-0.0121845
-0.0128216
-0.014251
-0.0171053
-0.022106
-0.0299654
-0.0417915
-0.0594491
-0.0883391
-0.131859
-0.184256
-0.204488
-0.196039
-0.192227
-0.199767
-0.209344
-0.214413
-0.21474
-0.214138
-0.0139196
-0.0140637
-0.014484
-0.0153923
-0.0172379
-0.0206097
-0.0262066
-0.0348583
-0.0479313
-0.0683975
-0.0961644
-0.12512
-0.133277
-0.127887
-0.136093
-0.150887
-0.162985
-0.16805
-0.16842
-0.167875
-0.0122968
-0.0123976
-0.0126571
-0.0131332
-0.0141733
-0.016171
-0.0197269
-0.0252714
-0.0334517
-0.0450794
-0.0559078
-0.061014
-0.0541015
-0.0611449
-0.0760105
-0.0928539
-0.103166
-0.106602
-0.107312
-0.107312
-0.0079846
-0.00804802
-0.00818203
-0.00835739
-0.00877856
-0.0096879
-0.0114684
-0.0143053
-0.01827
-0.0229622
-0.0223015
-0.0118914
0.00627807
-0.00838471
-0.0282473
-0.0416047
-0.0485049
-0.0490222
-0.0494497
-0.049922
-0.00181711
-0.00181878
-0.00183819
-0.00181026
-0.00172265
-0.00173987
-0.00193824
-0.00247987
-0.00314941
-0.00379589
-0.00396789
0.000967729
0.00544895
0.00350467
-0.00313068
-0.00626986
-0.0059139
-0.0057409
-0.00703309
-0.00763357
-0.0707549
0.119365
0.294071
0.442761
0.562703
0.658192
0.738117
0.803219
0.82005
0.816465
0.222748
0.345273
0.460292
0.560601
0.645392
0.715678
0.771212
0.808882
0.829054
0.845597
0.422296
0.504128
0.585173
0.656545
0.717603
0.768325
0.808285
0.83869
0.861458
0.880691
0.569736
0.62754
0.686303
0.739132
0.784758
0.823534
0.856011
0.883194
0.903649
0.922548
0.687352
0.731049
0.774887
0.81568
0.852031
0.884122
0.91215
0.935868
0.953912
0.971954
0.786073
0.822056
0.857364
0.891372
0.922696
0.951022
0.976013
0.996962
1.01279
1.03027
0.874728
0.907018
0.939411
0.970704
0.999822
1.02628
1.04948
1.06847
1.08241
1.09944
0.962009
0.994688
1.02721
1.05848
1.08732
1.11316
1.13534
1.1529
1.16531
1.18185
1.05657
1.09301
1.12783
1.16033
1.18955
1.21494
1.23609
1.25241
1.26404
1.28021
1.1697
1.21028
1.24734
1.28033
1.30886
1.33288
1.35253
1.36783
1.37973
1.39584
1.31109
1.3522
1.38748
1.4171
1.44234
1.46397
1.48249
1.49799
1.5111
1.52709
1.48272
1.51519
1.54209
1.56442
1.58453
1.60326
1.621
1.63775
1.65267
1.66848
1.66917
1.68645
1.70359
1.72028
1.73637
1.7511
1.765
1.77945
1.7947
1.81211
1.85239
1.86233
1.8755
1.88646
1.89586
1.9055
1.9161
1.9263
1.93564
1.96104
2.06985
2.06408
2.05108
2.03683
2.03054
2.03624
2.05435
2.08285
2.11663
2.15292
2.37312
2.23728
2.1578
2.11526
2.09785
2.10188
2.12937
2.18729
2.29494
2.47316
0.682522
0.676222
0.668488
0.657371
0.643802
0.631153
0.620751
0.612728
0.606994
0.60364
0.603261
0.60607
0.611284
0.618626
0.628161
0.639978
0.653528
0.66645
0.675439
0.682976
0.591639
0.597565
0.605628
0.611751
0.61481
0.614287
0.611189
0.607179
0.603571
0.601263
0.601103
0.603332
0.607066
0.611498
0.61559
0.617831
0.616757
0.612123
0.605073
0.597239
0.584903
0.587275
0.590541
0.593312
0.595756
0.597934
0.599097
0.59893
0.597969
0.597136
0.597323
0.598713
0.600477
0.601695
0.601614
0.600143
0.597981
0.595614
0.592626
0.589606
0.580131
0.581219
0.583133
0.585465
0.58733
0.588719
0.589923
0.590896
0.59147
0.591818
0.592342
0.593059
0.593508
0.593376
0.592738
0.591806
0.590468
0.588493
0.586382
0.584904
0.575132
0.575766
0.576891
0.578643
0.580477
0.582058
0.583293
0.584336
0.585289
0.586154
0.586906
0.587398
0.587513
0.587289
0.586739
0.585754
0.58432
0.582704
0.581362
0.580559
0.570239
0.570679
0.571464
0.572761
0.574272
0.575821
0.57728
0.578551
0.579673
0.580721
0.581634
0.582203
0.582355
0.582099
0.581419
0.580407
0.579244
0.578092
0.577185
0.57665
0.565444
0.565772
0.566382
0.567443
0.568727
0.57011
0.571567
0.573011
0.574365
0.575622
0.576722
0.577426
0.57762
0.57735
0.576734
0.575934
0.575075
0.574211
0.573544
0.573152
0.560723
0.560978
0.561468
0.562371
0.56353
0.564819
0.566216
0.56771
0.569245
0.570753
0.572093
0.572961
0.573263
0.573132
0.572725
0.572159
0.571509
0.57087
0.570381
0.570081
0.556005
0.556208
0.556616
0.557408
0.558487
0.559728
0.561107
0.562641
0.564312
0.566059
0.567682
0.568801
0.569329
0.569435
0.569261
0.568914
0.568467
0.568016
0.567666
0.56743
0.551207
0.551371
0.551721
0.552439
0.553471
0.55469
0.556097
0.55771
0.559532
0.561527
0.563486
0.564955
0.5658
0.566189
0.566262
0.566139
0.5659
0.56562
0.565383
0.565195
0.546244
0.546377
0.546685
0.547359
0.548372
0.549616
0.551087
0.552823
0.554848
0.557147
0.559516
0.561421
0.562647
0.563362
0.563716
0.56383
0.563799
0.56368
0.563541
0.563388
0.541029
0.541137
0.541417
0.542071
0.543102
0.544411
0.545991
0.547904
0.550199
0.552888
0.555764
0.558189
0.559862
0.560955
0.561625
0.562001
0.562174
0.562222
0.562168
0.562043
0.535468
0.535554
0.535818
0.536477
0.537561
0.538978
0.540722
0.542879
0.545526
0.548707
0.552205
0.555258
0.557459
0.558988
0.560012
0.560688
0.561098
0.561298
0.561317
0.561213
0.529454
0.529521
0.529779
0.530466
0.53164
0.533212
0.535185
0.537668
0.540771
0.544567
0.548828
0.552634
0.55546
0.557495
0.558926
0.559935
0.5606
0.560965
0.561055
0.560969
0.522861
0.52291
0.523171
0.523909
0.525212
0.526995
0.529271
0.532173
0.535846
0.540402
0.545592
0.550308
0.553881
0.556516
0.558421
0.559804
0.560765
0.561306
0.561466
0.561394
0.515539
0.515569
0.515838
0.516649
0.518125
0.520186
0.522851
0.526283
0.530668
0.53616
0.54248
0.54829
0.552752
0.556098
0.558566
0.560393
0.561687
0.562419
0.562648
0.562587
0.507292
0.507312
0.507582
0.508493
0.510196
0.51261
0.51577
0.519869
0.52514
0.531783
0.539475
0.546602
0.552121
0.556305
0.559439
0.561798
0.563471
0.564411
0.564711
0.564657
0.497814
0.497809
0.498134
0.499187
0.501186
0.504055
0.507844
0.512791
0.51918
0.527249
0.536606
0.545296
0.55206
0.557223
0.561137
0.564118
0.566224
0.567397
0.567769
0.56772
0.486827
0.486799
0.487172
0.488416
0.490788
0.494243
0.49884
0.504863
0.512655
0.522489
0.533864
0.544404
0.552624
0.558939
0.563768
0.567462
0.570071
0.571494
0.571937
0.57189
0.473851
0.473801
0.474251
0.475744
0.478599
0.482818
0.488462
0.495866
0.505424
0.517435
0.531243
0.543972
0.553887
0.561535
0.567429
0.57195
0.575119
0.576806
0.577317
0.577266
0.458244
0.458171
0.458742
0.460583
0.464085
0.46932
0.47635
0.485556
0.49737
0.512076
0.528804
0.544085
0.555943
0.565103
0.57222
0.577671
0.581458
0.583415
0.583982
0.58392
0.439072
0.438981
0.439751
0.442099
0.446509
0.453159
0.462084
0.473698
0.488432
0.506485
0.526668
0.544869
0.558901
0.569751
0.578212
0.584695
0.589137
0.591346
0.591951
0.591871
0.414929
0.414836
0.415936
0.419066
0.424843
0.433558
0.445167
0.46006
0.478575
0.500738
0.52495
0.546411
0.562841
0.575538
0.585443
0.593055
0.59814
0.600554
0.601164
0.601059
0.383501
0.383451
0.385151
0.389631
0.397688
0.409612
0.425172
0.444582
0.467938
0.495022
0.523824
0.54887
0.567856
0.582517
0.593965
0.60271
0.608357
0.610885
0.611456
0.611318
0.340668
0.340815
0.343813
0.351093
0.363406
0.380609
0.402022
0.42753
0.456935
0.48978
0.523643
0.552463
0.574071
0.590725
0.603721
0.613543
0.61957
0.622052
0.622529
0.622356
0.27875
0.280049
0.287325
0.30104
0.321138
0.346722
0.376386
0.409635
0.446143
0.48538
0.52461
0.55731
0.581549
0.600124
0.614539
0.625229
0.631381
0.633592
0.633905
0.633713
0.204707
0.207256
0.221392
0.245
0.275749
0.311282
0.349909
0.391379
0.435497
0.481814
0.527327
0.564859
0.592568
0.613727
0.629973
0.641534
0.647764
0.649858
0.650143
0.65005
0.128847
0.135657
0.156883
0.190413
0.231552
0.276798
0.324407
0.374198
0.426045
0.479555
0.531479
0.573975
0.605237
0.629069
0.647235
0.659614
0.665586
0.667276
0.667487
0.667461
0.0670149
0.0756642
0.101495
0.142066
0.191387
0.244896
0.300607
0.358192
0.417411
0.477816
0.535877
0.583057
0.617598
0.643816
0.663485
0.676409
0.682354
0.683924
0.684198
0.684234
0.0163709
0.0257303
0.0550651
0.100885
0.156369
0.216497
0.27905
0.343527
0.409513
0.476385
0.540235
0.591853
0.629445
0.65784
0.679039
0.69265
0.698735
0.70056
0.700934
0.70101
-0.0260703
-0.016399
0.0153407
0.0652715
0.125818
0.191458
0.259807
0.330276
0.402307
0.475125
0.544416
0.600254
0.640803
0.671322
0.69398
0.708521
0.715133
0.717225
0.717642
0.717732
-0.0627565
-0.0529384
-0.0193833
0.0338473
0.0986249
0.168989
0.242387
0.318155
0.395654
0.473975
0.548394
0.60822
0.651598
0.684147
0.708267
0.723767
0.730972
0.733264
0.733726
0.733809
-0.0953453
-0.0854604
-0.0504646
0.00550219
0.0738766
0.148334
0.226208
0.306774
0.3893
0.472744
0.551997
0.615613
0.661622
0.696093
0.721542
0.737927
0.745701
0.74822
0.748711
0.748777
-0.125068
-0.115129
-0.0789597
-0.0206244
0.05087
0.128916
0.210777
0.295706
0.382889
0.471162
0.555041
0.622287
0.670782
0.706984
0.733616
0.750735
0.759039
0.76176
0.762271
0.762317
-0.152847
-0.142839
-0.105604
-0.0451676
0.0290752
0.110286
0.195716
0.284624
0.376153
0.469029
0.557377
0.628155
0.679038
0.716852
0.744534
0.762215
0.770876
0.773746
0.774274
0.774295
-0.179232
-0.16913
-0.130906
-0.0685803
0.00809074
0.0921208
0.180771
0.27332
0.368892
0.466172
0.558898
0.63318
0.686412
0.725748
0.75434
0.772484
0.781276
0.784241
0.784783
0.784777
-0.204656
-0.194391
-0.155239
-0.0911932
-0.0123545
0.074201
0.165761
0.261642
0.36098
0.462467
0.559532
0.637355
0.692969
0.733797
0.763172
0.781618
0.790476
0.79343
0.793963
0.793943
-0.229388
-0.218884
-0.178842
-0.113217
-0.0324322
0.0563809
0.150572
0.249502
0.352341
0.457847
0.559214
0.640676
0.69878
0.741132
0.771248
0.789885
0.798711
0.801605
0.802093
0.802032
-0.253517
-0.24275
-0.201853
-0.134775
-0.0522425
0.0385976
0.135155
0.236858
0.342939
0.452257
0.557885
0.643146
0.703924
0.747901
0.778745
0.79746
0.806136
0.808913
0.80934
0.809257
-0.277138
-0.266099
-0.224372
-0.155919
-0.0718199
0.0208229
0.119503
0.223712
0.332767
0.445677
0.5555
0.644739
0.708455
0.754243
0.785806
0.804462
0.812883
0.815462
0.815792
0.81567
-0.300268
-0.288952
-0.246396
-0.176667
-0.0911663
0.00307536
0.103648
0.210102
0.321854
0.438102
0.552016
0.645393
0.712391
0.76029
0.792612
0.811033
0.818996
0.821274
0.821477
0.821325
-0.322961
-0.311302
-0.267897
-0.197003
-0.110261
-0.0146077
0.0876372
0.196088
0.310254
0.429554
0.547396
0.64503
0.71569
0.766146
0.799388
0.817398
0.82462
0.826417
0.826468
0.826296
-0.34499
-0.333093
-0.288855
-0.216902
-0.129053
-0.032151
0.0715422
0.181744
0.298043
0.420089
0.541614
0.643558
0.718254
0.771827
0.806401
0.82397
0.830049
0.83102
0.830818
0.830641
-0.366505
-0.35427
-0.309235
-0.236336
-0.147506
-0.0495101
0.0554574
0.167153
0.285307
0.409788
0.534668
0.640879
0.719929
0.777211
0.813843
0.831368
0.835967
0.835432
0.834609
0.834444
-0.387322
-0.374789
-0.329016
-0.255249
-0.165537
-0.0665968
0.0394689
0.152439
0.272155
0.398719
0.526589
0.636896
0.720526
0.782007
0.821614
0.840222
0.843741
0.840957
0.838401
0.837819
-0.407536
-0.394672
-0.348137
-0.273581
-0.183102
-0.0833399
0.0236663
0.137686
0.258698
0.387019
0.51744
0.631505
0.719838
0.785798
0.829123
0.850505
0.854883
0.850666
0.844489
0.835362
-0.427028
-0.413909
-0.366687
-0.291496
-0.200427
-0.100025
0.00770819
0.122483
0.244478
0.374176
0.506693
0.624111
0.717414
0.788234
0.83562
0.86133
0.869433
0.86541
0.85489
0.852975
-0.445758
-0.432572
-0.384656
-0.308936
-0.217488
-0.116618
-0.00837193
0.106815
0.229467
0.36007
0.494179
0.614242
0.712533