/*--------------------------------*- C++ -*----------------------------------*\
  =========                 |
  \\      /  F ield         | OpenFOAM: The Open Source CFD Toolbox
   \\    /   O peration     | Website:  https://openfoam.org
    \\  /    A nd           | Version:  6
     \\/     M anipulation  |
\*---------------------------------------------------------------------------*/
FoamFile
{
    version     2.0;
    format      ascii;
    class       volVectorField;
    location    "56";
    object      U;
}
// * * * * * * * * * * * * * * * * * * * * * * * * * * * * * * * * * * * * * //

dimensions      [0 1 -1 0 0 0 0];

internalField   nonuniform List<vector> 
8800
(
(0.987195 -0.0767061 0)
(1.0019 -0.0551787 0)
(0.999719 -0.0285526 0)
(1.00002 -0.0151581 0)
(1.00006 -0.0085612 0)
(1.00008 -0.00506086 0)
(1.00005 -0.00301352 0)
(1.00002 -0.00171185 0)
(0.999998 -0.000805568 0)
(1.00006 -8.93547e-05 0)
(0.999987 0.0006394 0)
(0.999994 0.00140343 0)
(1.00002 0.00242714 0)
(1.00004 0.00400236 0)
(1.00004 0.00663697 0)
(1.00001 0.0113773 0)
(0.999891 0.0208174 0)
(0.999147 0.0386584 0)
(1.0071 0.0724577 0)
(0.771226 0.0366896 0)
(0.363033 -0.0160161 0)
(1.04331 -0.0768311 0)
(1.08461 -0.0704515 0)
(1.04521 -0.053558 0)
(1.02328 -0.0389129 0)
(1.01199 -0.0262432 0)
(1.0064 -0.0168899 0)
(1.00358 -0.0103636 0)
(1.00215 -0.00570836 0)
(1.00145 -0.0020553 0)
(1.00132 0.00126753 0)
(1.00169 0.00464805 0)
(1.00266 0.00858264 0)
(1.00466 0.0139255 0)
(1.00861 0.0216344 0)
(1.01658 0.0326044 0)
(1.03249 0.0465221 0)
(1.06265 0.0616454 0)
(1.09189 0.0760817 0)
(0.838677 0.0565761 0)
(0.216805 -0.00242252 0)
(1.07585 -0.0501627 0)
(1.09985 -0.0483505 0)
(1.0646 -0.0405049 0)
(1.03997 -0.0336509 0)
(1.02385 -0.0261372 0)
(1.01408 -0.0185625 0)
(1.00854 -0.0117492 0)
(1.00558 -0.00588709 0)
(1.00433 -0.0004739 0)
(1.00468 0.00477208 0)
(1.0066 0.010162 0)
(1.0106 0.0162631 0)
(1.01793 0.0232969 0)
(1.03053 0.0307677 0)
(1.05061 0.0378092 0)
(1.08032 0.0445064 0)
(1.10625 0.0513314 0)
(0.94255 0.0416056 0)
(0.216176 0.00245151 0)
(0.175117 -0.000815804 0)
(1.01761 -0.0355125 0)
(1.10515 -0.0414267 0)
(1.07821 -0.0361227 0)
(1.05338 -0.0301999 0)
(1.03611 -0.0246366 0)
(1.02394 -0.0189191 0)
(1.01584 -0.0128478 0)
(1.011 -0.00666646 0)
(1.00881 -0.000336592 0)
(1.0094 0.00591933 0)
(1.01266 0.0119192 0)
(1.01886 0.0177674 0)
(1.02877 0.023358 0)
(1.04321 0.0286669 0)
(1.06373 0.0341615 0)
(1.09355 0.0401559 0)
(1.09343 0.0419291 0)
(0.82723 0.0228976 0)
(0.174056 0.000848876 0)
(0.153887 -0.000611077 0)
(0.956028 -0.0254934 0)
(1.10338 -0.0351889 0)
(1.0876 -0.0327276 0)
(1.06161 -0.0280893 0)
(1.044 -0.0230843 0)
(1.03156 -0.0178551 0)
(1.02273 -0.0123359 0)
(1.01694 -0.00640748 0)
(1.01412 5.54626e-05 0)
(1.01481 0.00651746 0)
(1.01879 0.012406 0)
(1.0258 0.0177182 0)
(1.03612 0.0226526 0)
(1.05069 0.0274188 0)
(1.07193 0.0319646 0)
(1.10009 0.0359137 0)
(1.06814 0.0339893 0)
(0.739688 0.0142964 0)
(0.15229 0.000648597 0)
(0.139484 -0.000468032 0)
(0.899032 -0.0191185 0)
(1.09565 -0.0301547 0)
(1.09563 -0.0292842 0)
(1.06911 -0.0255716 0)
(1.05068 -0.0214558 0)
(1.03778 -0.0167048 0)
(1.02869 -0.0114357 0)
(1.02261 -0.00570375 0)
(1.0195 0.000616935 0)
(1.02015 0.00693168 0)
(1.02425 0.0125732 0)
(1.03139 0.0175571 0)
(1.04193 0.0220424 0)
(1.05707 0.0260185 0)
(1.07927 0.0295008 0)
(1.10232 0.0321441 0)
(1.0361 0.0280673 0)
(0.673201 0.0101913 0)
(0.137231 0.000511285 0)
(0.128909 -0.000363151 0)
(0.849324 -0.0147636 0)
(1.08319 -0.0260389 0)
(1.10127 -0.026358 0)
(1.07593 -0.0230958 0)
(1.05697 -0.0194784 0)
(1.04361 -0.0152583 0)
(1.03418 -0.0103587 0)
(1.02786 -0.00484412 0)
(1.02457 0.00129466 0)
(1.02509 0.00739603 0)
(1.02915 0.0127632 0)
(1.0364 0.0173402 0)
(1.04723 0.021224 0)
(1.06277 0.0245385 0)
(1.08541 0.0275064 0)
(1.10146 0.0292849 0)
(1.00127 0.0235404 0)
(0.621462 0.00782405 0)
(0.125856 0.000414012 0)
(0.120827 -0.000282898 0)
(0.807044 -0.0116132 0)
(1.06782 -0.0224462 0)
(1.10474 -0.0237482 0)
(1.08215 -0.020906 0)
(1.06277 -0.0175085 0)
(1.04914 -0.0136009 0)
(1.03943 -0.00904391 0)
(1.03283 -0.0038074 0)
(1.02931 0.00210878 0)
(1.02966 0.00796178 0)
(1.03368 0.0129818 0)
(1.041 0.0170922 0)
(1.05194 0.0204727 0)
(1.06771 0.0233798 0)
(1.09068 0.0260538 0)
(1.09772 0.0269436 0)
(0.966105 0.0199863 0)
(0.579921 0.00628561 0)
(0.116804 0.000343421 0)
(0.114551 -0.000220077 0)
(0.771414 -0.00925847 0)
(1.05093 -0.0192865 0)
(1.10706 -0.021338 0)
(1.08797 -0.0188717 0)
(1.06821 -0.0156221 0)
(1.05434 -0.0118827 0)
(1.04444 -0.00754676 0)
(1.0376 -0.00256129 0)
(1.03381 0.00309597 0)
(1.03396 0.00864648 0)
(1.03786 0.0132895 0)
(1.04513 0.0169853 0)
(1.05608 0.0199797 0)
(1.07204 0.0225654 0)
(1.09468 0.0249036 0)
(1.09118 0.0249927 0)
(0.931925 0.0172379 0)
(0.545571 0.00523332 0)
(0.109349 0.000292507 0)
(0.109645 -0.000169608 0)
(0.74149 -0.00743231 0)
(1.03359 -0.0164884 0)
(1.10842 -0.0190706 0)
(1.0935 -0.0169169 0)
(1.07346 -0.0137653 0)
(1.05931 -0.0101241 0)
(1.04923 -0.0059167 0)
(1.04217 -0.0011142 0)
(1.03811 0.00428688 0)
(1.03798 0.00951065 0)
(1.04167 0.0137914 0)
(1.0488 0.0171287 0)
(1.05974 0.0197826 0)
(1.0759 0.0220791 0)
(1.09741 0.0240489 0)
(1.08222 0.0233811 0)
(0.899299 0.015143 0)
(0.516369 0.00449726 0)
(0.103012 0.00025658 0)
(0.105826 -0.000127744 0)
(0.716453 -0.00596094 0)
(1.01662 -0.01398 0)
(1.10894 -0.0168822 0)
(1.09892 -0.0150134 0)
(1.07861 -0.0118811 0)
(1.06418 -0.00827894 0)
(1.05387 -0.00414584 0)
(1.04658 0.000528314 0)
(1.0422 0.00571706 0)
(1.04173 0.0106408 0)
(1.04512 0.0145781 0)
(1.05208 0.0175658 0)
(1.06298 0.0198854 0)
(1.07931 0.0219222 0)
(1.09882 0.0235063 0)
(1.07124 0.0221047 0)
(0.868354 0.013585 0)
(0.490872 0.00398734 0)
(0.0974518 0.000232678 0)
(0.102905 -9.15099e-05 0)
(0.695661 -0.00472828 0)
(1.00063 -0.0116939 0)
(1.10875 -0.014735 0)
(1.10416 -0.0130635 0)
(1.08375 -0.00990196 0)
(1.06901 -0.00628522 0)
(1.05844 -0.00217203 0)
(1.05086 0.00242389 0)
(1.04611 0.00743942 0)
(1.04521 0.0120859 0)
(1.04824 0.0156954 0)
(1.05497 0.0183461 0)
(1.06582 0.0203309 0)
(1.08229 0.0221059 0)
(1.09926 0.0232871 0)
(1.05854 0.0211659 0)
(0.83894 0.012472 0)
(0.468001 0.00364773 0)
(0.0924141 0.000218316 0)
(0.100761 -5.82338e-05 0)
(0.678642 -0.00364691 0)
(0.986076 -0.00955822 0)
(1.10808 -0.0125453 0)
(1.10921 -0.0110019 0)
(1.08896 -0.00779331 0)
(1.07387 -0.00410435 0)
(1.063 5.4712e-05 0)
(1.05505 0.00463019 0)
(1.04983 0.00952094 0)
(1.04841 0.0139203 0)
(1.05102 0.0172076 0)
(1.05749 0.0195207 0)
(1.06826 0.0211694 0)
(1.08478 0.022673 0)
(1.09872 0.0234474 0)
(1.04427 0.0205859 0)
(0.810744 0.011733 0)
(0.446916 0.00344083 0)
(0.087697 0.000211689 0)
(0.0993335 -2.56447e-05 0)
(0.665095 -0.00264701 0)
(0.973308 -0.0074982 0)
(1.10722 -0.0102498 0)
(1.11419 -0.00875013 0)
(1.09431 -0.00545162 0)
(1.07885 -0.00163493 0)
(1.0676 0.00262081 0)
(1.0592 0.00723046 0)
(1.0534 0.0120439 0)
(1.05137 0.0162211 0)
(1.05347 0.0191883 0)
(1.05962 0.0211483 0)
(1.07029 0.0224257 0)
(1.08681 0.0236625 0)
(1.09696 0.0239925 0)
(1.02853 0.0203377 0)
(0.783375 0.0113102 0)
(0.426941 0.00333989 0)
(0.0831431 0.00021111 0)
(0.098606 8.32946e-06 0)
(0.654868 -0.00167419 0)
(0.962641 -0.00544238 0)
(1.10652 -0.00779294 0)
(1.11923 -0.00624575 0)
(1.09988 -0.00280632 0)
(1.08399 0.00120665 0)
(1.0723 0.00563253 0)
(1.06334 0.0103373 0)
(1.05685 0.0151037 0)
(1.05407 0.0190581 0)
(1.05556 0.0216945 0)
(1.06132 0.0232924 0)
(1.07186 0.0241882 0)
(1.08832 0.0251227 0)
(1.09393 0.0249606 0)
(1.01131 0.0204572 0)
(0.756391 0.0111754 0)
(0.407514 0.00333151 0)
(0.0786206 0.000216216 0)
(0.0985994 4.15102e-05 0)
(0.647936 -0.00068015 0)
(0.954373 -0.00331267 0)
(1.1063 -0.00509691 0)
(1.12449 -0.00340302 0)
(1.10575 0.000237518 0)
(1.08941 0.00451616 0)
(1.07718 0.00918277 0)
(1.06756 0.0140448 0)
(1.0602 0.0188167 0)
(1.05651 0.0225702 0)
(1.05728 0.0248632 0)
(1.06259 0.0260616 0)
(1.07297 0.0265489 0)
(1.08907 0.0271143 0)
(1.08943 0.0263758 0)
(0.992496 0.0209624 0)
(0.729299 0.0113098 0)
(0.388127 0.00340705 0)
(0.0740103 0.000226344 0)
(0.0993518 8.03393e-05 0)
(0.644381 0.000350825 0)
(0.948829 -0.00103721 0)
(1.10693 -0.002081 0)
(1.13016 -0.000107926 0)
(1.11205 0.00382586 0)
(1.0952 0.00844668 0)
(1.08233 0.0134241 0)
(1.07189 0.0185122 0)
(1.06351 0.0233263 0)
(1.05873 0.0268712 0)
(1.05859 0.0287937 0)
(1.06335 0.0295612 0)
(1.07355 0.0296108 0)
(1.08894 0.0297528 0)
(1.08329 0.0282926 0)
(0.97186 0.0218864 0)
(0.701566 0.0117034 0)
(0.368305 0.00356017 0)
(0.0692052 0.000240965 0)
(0.101072 0.000141123 0)
(0.644599 0.00150842 0)
(0.946371 0.00146679 0)
(1.10883 0.00135353 0)
(1.13645 0.00373776 0)
(1.1189 0.00806976 0)
(1.10146 0.0131317 0)
(1.08782 0.0185197 0)
(1.07638 0.0239091 0)
(1.06673 0.028803 0)
(1.06063 0.0321419 0)
(1.05946 0.033636 0)
(1.06355 0.0339267 0)
(1.07351 0.0334972 0)
(1.08771 0.0331451 0)
(1.07525 0.0308015 0)
(0.949081 0.0232545 0)
(0.672623 0.0123539 0)
(0.3476 0.00378644 0)
(0.0641082 0.000259591 0)
(0.103805 0.000201191 0)
(0.648905 0.00290695 0)
(0.947439 0.00435024 0)
(1.11248 0.0053556 0)
(1.14357 0.00829617 0)
(1.12646 0.0131604 0)
(1.10833 0.0187801 0)
(1.09373 0.0246796 0)
(1.08105 0.0304405 0)
(1.06986 0.0354487 0)
(1.06219 0.0385568 0)
(1.05981 0.0395443 0)
(1.06311 0.0393011 0)
(1.07278 0.0383271 0)
(1.08518 0.0374121 0)
(1.06498 0.0339884 0)
(0.923722 0.0251198 0)
(0.641854 0.0132633 0)
(0.325573 0.00408217 0)
(0.0586315 0.000281559 0)
(0.107839 0.000282714 0)
(0.6579 0.00458052 0)
(0.952491 0.0077256 0)
(1.1184 0.0100902 0)
(1.15181 0.0137871 0)
(1.13493 0.0193601 0)
(1.11597 0.025668 0)
(1.10018 0.0321921 0)
(1.08597 0.0383947 0)
(1.0729 0.0435024 0)
(1.06336 0.0462825 0)
(1.05957 0.0466885 0)
(1.06195 0.0458468 0)
(1.07126 0.0442447 0)
(1.08138 0.0427096 0)
(1.05206 0.0379668 0)
(0.89521 0.0275111 0)
(0.608584 0.0144246 0)
(0.301796 0.00443869 0)
(0.0527 0.000305694 0)
(0.113512 0.000392557 0)
(0.672284 0.006669 0)
(0.962301 0.0118496 0)
(1.12715 0.0157817 0)
(1.16153 0.020455 0)
(1.14457 0.026958 0)
(1.12454 0.034124 0)
(1.10728 0.0414 0)
(1.09117 0.0480965 0)
(1.07583 0.0532612 0)
(1.06408 0.0555909 0)
(1.05863 0.0552787 0)
(1.05994 0.0537366 0)
(1.06882 0.051435 0)
(1.07609 0.0491496 0)
(1.03597 0.0428078 0)
(0.862862 0.0304443 0)
(0.572114 0.0158172 0)
(0.275885 0.00484018 0)
(0.0462645 0.000330048 0)
(0.121336 0.000547536 0)
(0.693051 0.00940273 0)
(0.977687 0.0170098 0)
(1.1394 0.0227779 0)
(1.17317 0.0286876 0)
(1.15567 0.0364102 0)
(1.13425 0.0446203 0)
(1.11506 0.0527536 0)
(1.09655 0.0599471 0)
(1.07846 0.0650658 0)
(1.06414 0.0667557 0)
(1.0568 0.0655362 0)
(1.05696 0.063153 0)
(1.06537 0.0600515 0)
(1.06899 0.0568622 0)
(1.01605 0.0485997 0)
(0.825859 0.033924 0)
(0.531729 0.0174006 0)
(0.247526 0.00526263 0)
(0.0393132 0.000352104 0)
(0.132047 0.000770409 0)
(0.721504 0.0131674 0)
(0.999801 0.0236688 0)
(1.15592 0.0316236 0)
(1.18735 0.0391123 0)
(1.16858 0.0484256 0)
(1.14525 0.0578554 0)
(1.12353 0.0668898 0)
(1.10201 0.0744627 0)
(1.08063 0.0792617 0)
(1.06339 0.0800001 0)
(1.05395 0.0776288 0)
(1.05288 0.0742381 0)
(1.06064 0.0701813 0)
(1.05952 0.0658731 0)
(0.991418 0.055383 0)
(0.783292 0.0378843 0)
(0.486774 0.0190901 0)
(0.216552 0.00566522 0)
(0.0318903 0.000368057 0)
(0.146907 0.00112391 0)
(0.759622 0.0185738 0)
(1.03029 0.0325954 0)
(1.17769 0.0432319 0)
(1.20483 0.0527402 0)
(1.18362 0.064005 0)
(1.15756 0.0747664 0)
(1.13253 0.0845957 0)
(1.10729 0.092228 0)
(1.08206 0.0962326 0)
(1.06159 0.0955483 0)
(1.04993 0.0917201 0)
(1.04756 0.0871221 0)
(1.05423 0.0820817 0)
(1.047 0.0763642 0)
(0.961022 0.0630755 0)
(0.73423 0.042187 0)
(0.436796 0.0207474 0)
(0.183055 0.0059899 0)
(0.0241206 0.000373231 0)
(0.16806 0.00173306 0)
(0.810595 0.0267638 0)
(1.07167 0.0453193 0)
(1.20579 0.0594249 0)
(1.22629 0.0717104 0)
(1.20089 0.0847633 0)
(1.17097 0.096682 0)
(1.14163 0.106805 0)
(1.11194 0.113821 0)
(1.08239 0.116342 0)
(1.05843 0.113648 0)
(1.04448 0.107964 0)
(1.04082 0.101947 0)
(1.04609 0.0958586 0)
(1.03065 0.0881818 0)
(0.923549 0.071487 0)
(0.677891 0.0465732 0)
(0.381821 0.0221715 0)
(0.14758 0.0061592 0)
(0.0162446 0.00036152 0)
(0.198815 0.00307094 0)
(0.880085 0.0403048 0)
(1.1276 0.0655967 0)
(1.24065 0.0838103 0)
(1.2514 0.0987821 0)
(1.21974 0.113089 0)
(1.18458 0.125235 0)
(1.14995 0.134541 0)
(1.11515 0.139823 0)
(1.08094 0.139814 0)
(1.05348 0.134333 0)
(1.03734 0.126356 0)
(1.03249 0.118682 0)
(1.03588 0.111399 0)
(1.00925 0.101244 0)
(0.877429 0.0801693 0)
(0.614023 0.05059 0)
(0.32305 0.0231526 0)
(0.111598 0.0061088 0)
(0.00872817 0.000323606 0)
(0.240808 0.00918335 3.51262e-20)
(0.972052 0.0670476 3.08759e-20)
(1.19575 0.0998914 -1.09145e-20)
(1.27913 0.12013 0)
(1.27736 0.13755 -2.91187e-34)
(1.23802 0.151328 4.2909e-21)
(1.19688 0.161926 -7.9317e-21)
(1.15648 0.168996 0)
(1.11628 0.171475 1.67201e-34)
(1.07712 0.168142 -1.02145e-20)
(1.04583 0.159382 0)
(1.02724 0.148869 -1.22974e-20)
(1.02116 0.139541 -3.63812e-20)
(1.02223 0.131439 -1.72307e-20)
(0.979621 0.11831 -5.20107e-21)
(0.817582 0.0909773 -3.09411e-21)
(0.537172 0.0549097 0)
(0.258715 0.0240687 2.16621e-21)
(0.0754789 0.00617555 2.55764e-21)
(0.00170201 0.000283481 4.60367e-20)
(0.269955 0.0241174 2.29892e-20)
(1.04816 0.109261 5.29723e-22)
(1.25199 0.148743 2.77955e-21)
(1.31353 0.168923 0)
(1.30006 0.186632 -1.43847e-20)
(1.25359 0.198262 -1.66028e-20)
(1.20648 0.206553 -7.90915e-21)
(1.16018 0.211133 -2.88186e-20)
(1.11421 0.210832 0)
(1.06954 0.204288 4.34892e-20)
(1.03381 0.19229 4.34638e-20)
(1.01231 0.179236 1.2992e-20)
(1.00401 0.167874 4.76776e-20)
(0.998242 0.157081 6.72826e-20)
(0.934156 0.139151 0)
(0.738168 0.103882 9.50724e-20)
(0.447758 0.0603716 1.3644e-19)
(0.191426 0.0250007 1.51555e-19)
(0.0402685 0.00536404 -1.73275e-19)
(-0.00507319 -0.000330991 -3.25604e-21)
(0.271434 0.0406782 0)
(1.09656 0.163919 3.34472e-21)
(1.28992 0.208508 0)
(1.34022 0.228431 -1.68203e-20)
(1.31773 0.24348 0)
(1.26525 0.25126 -3.18833e-20)
(1.21253 0.255852 1.6009e-20)
(1.16062 0.256866 -5.73545e-20)
(1.10919 0.252964 -1.58147e-21)
(1.05929 0.242601 2.24117e-20)
(1.01929 0.227034 9.60714e-20)
(0.994913 0.211304 -2.59271e-22)
(0.984164 0.197843 -3.47571e-20)
(0.971853 0.184249 -6.36847e-20)
(0.893149 0.161235 7.5469e-20)
(0.682546 0.117452 -1.33748e-19)
(0.397775 0.0661077 -1.76998e-20)
(0.1598 0.0261476 0)
(0.0249806 0.00427442 -1.05678e-23)
(-0.00812164 -0.00109714 0)
(0.265176 0.0546486 2.58148e-20)
(1.1228 0.222272 -1.53545e-20)
(1.31332 0.272841 -1.53579e-20)
(1.35777 0.293285 7.474e-21)
(1.329 0.304711 -1.28446e-20)
(1.27205 0.308008 6.64948e-20)
(1.21471 0.308221 3.32637e-20)
(1.15792 0.305027 0)
(1.10155 0.29699 -1.10786e-19)
(1.04681 0.282436 0)
(1.00278 0.263085 -5.03575e-20)
(0.975579 0.244539 -6.28382e-20)
(0.962349 0.228891 -3.79918e-20)
(0.945029 0.212365 -4.64075e-20)
(0.858822 0.184222 0)
(0.64681 0.133129 0)
(0.37345 0.0747527 -1.15501e-19)
(0.148531 0.0293245 2.28638e-20)
(0.0199129 0.00379356 -1.33623e-20)
(-0.00961129 -0.0018651 -1.56286e-20)
(0.257779 0.0669779 3.22409e-21)
(1.13447 0.280611 0)
(1.32619 0.338228 2.4415e-20)
(1.3672 0.359639 1.9425e-20)
(1.334 0.367426 3.09334e-20)
(1.27376 0.366265 0)
(1.21278 0.362007 3.1833e-20)
(1.15195 0.354439 6.31659e-20)
(1.09133 0.342049 5.63459e-20)
(1.03228 0.323108 1.06356e-19)
(0.984517 0.299796 0)
(0.954556 0.278257 -1.35863e-19)
(0.938971 0.260411 -8.23187e-20)
(0.91789 0.241197 -4.8792e-20)
(0.82939 0.20844 3.00685e-19)
(0.623676 0.151025 3.58421e-20)
(0.36413 0.0864136 1.68091e-19)
(0.14988 0.0346036 -7.96782e-19)
(0.0220034 0.00457929 4.71309e-19)
(-0.00957121 -0.00238091 -5.68239e-19)
(0.250759 0.0781004 1.8631e-20)
(1.13698 0.337066 -1.09526e-21)
(1.33149 0.402833 -8.92498e-22)
(1.37014 0.425571 -1.41183e-20)
(1.33369 0.429907 -2.28635e-20)
(1.27097 0.42447 1.80755e-21)
(1.20712 0.415894 -3.4651e-20)
(1.14301 0.404046 6.49228e-20)
(1.07876 0.387339 -1.21541e-19)
(1.01585 0.363982 0)
(0.964608 0.33671 -6.12687e-20)
(0.932016 0.312266 -1.62397e-21)
(0.914113 0.292226 -9.04278e-20)
(0.890163 0.27035 0)
(0.802846 0.233419 -6.53839e-20)
(0.606935 0.170878 -1.55539e-19)
(0.362654 0.100346 4.14598e-19)
(0.156939 0.0421495 -4.08654e-19)
(0.0287764 0.00706088 5.80653e-19)
(-0.00808322 -0.00244332 -6.03332e-19)
(0.244918 0.088419 -5.04845e-22)
(1.13382 0.390984 5.59111e-21)
(1.33138 0.465631 6.66649e-21)
(1.36805 0.489913 3.02939e-21)
(1.32914 0.491116 -1.10336e-20)
(1.26453 0.481668 0)
(1.19838 0.469024 -3.0917e-20)
(1.13149 0.453113 -6.76985e-20)
(1.06409 0.432255 -6.28594e-20)
(0.997707 0.4046 0)
(0.943305 0.373537 -6.33913e-20)
(0.908271 0.346343 -7.94517e-20)
(0.888118 0.324026 9.8391e-20)
(0.862016 0.299789 -6.00669e-20)
(0.777165 0.259023 -2.87035e-19)
(0.592265 0.192056 1.70873e-19)
(0.363458 0.115549 5.09526e-20)
(0.16603 0.0513252 0)
(0.037512 0.0110206 -5.64005e-19)
(-0.00583137 -0.00208136 -2.07093e-20)
(0.240372 0.0982626 5.91945e-21)
(1.12727 0.442205 -8.7796e-21)
(1.32731 0.526065 -4.92958e-21)
(1.36215 0.551965 1.47068e-20)
(1.3213 0.550391 -3.56601e-20)
(1.25524 0.537275 5.56087e-20)
(1.1872 0.52088 6.68105e-20)
(1.11795 0.50117 -1.0813e-19)
(1.04776 0.476388 3.98817e-20)
(0.978263 0.444646 -2.62275e-19)
(0.920976 0.409938 -7.23021e-20)
(0.883611 0.379898 0)
(0.86142 0.355425 1.07015e-19)
(0.833621 0.328979 1.28851e-19)
(0.75097 0.284923 1.54794e-19)
(0.57733 0.213722 -1.86329e-19)
(0.36268 0.131642 -5.52412e-20)
(0.173857 0.0618203 6.48083e-20)
(0.0461081 0.0159427 0)
(-0.00331503 -0.00137846 -4.51158e-20)
(0.236994 0.107729 -8.62523e-20)
(1.11896 0.490789 4.91903e-20)
(1.32059 0.584203 7.01851e-21)
(1.3534 0.61137 5.17814e-21)
(1.31098 0.60733 -1.29145e-20)
(1.2438 0.590901 -4.0961e-21)
(1.17422 0.571118 -7.35742e-20)
(1.10292 0.547923 -3.92827e-20)
(1.03023 0.519464 -1.09622e-19)
(0.957867 0.483873 3.04483e-22)
(0.897858 0.44553 -2.25808e-19)
(0.858358 0.412622 1.93267e-19)
(0.834408 0.386142 -1.18089e-19)
(0.805155 0.357583 1.42685e-19)
(0.724321 0.310229 0)
(0.560868 0.235023 -1.01512e-19)
(0.35889 0.147747 1.38522e-23)
(0.178766 0.0724646 -2.83774e-19)
(0.0529657 0.0211515 -4.16382e-20)
(-0.00100406 -0.000516377 0)
(0.234681 0.117035 0)
(1.10981 0.536945 5.62697e-20)
(1.31192 0.63984 2.65918e-20)
(1.34261 0.667951 -7.56264e-22)
(1.29885 0.661713 -2.04211e-20)
(1.2308 0.642328 0)
(1.15994 0.61951 -3.14272e-20)
(1.08685 0.59316 -1.08706e-21)
(1.01187 0.561315 2.35117e-19)
(0.936819 0.522075 -3.58066e-20)
(0.874194 0.480149 -1.6338e-19)
(0.832736 0.444517 1.00157e-19)
(0.807242 0.416132 -2.21811e-21)
(0.776558 0.38528 1.51678e-19)
(0.697182 0.334373 9.41992e-20)
(0.5425 0.25489 -2.19628e-19)
(0.351679 0.162819 2.60218e-19)
(0.179628 0.0822686 7.70626e-20)
(0.0570375 0.0258398 3.17727e-19)
(0.000723261 0.000290779 -8.48499e-19)
(0.233341 0.126314 -2.77384e-20)
(1.10047 0.580854 3.82201e-20)
(1.30191 0.6927 -2.65633e-20)
(1.3304 0.721654 -7.43794e-21)
(1.28546 0.713433 0)
(1.21674 0.691425 -2.10403e-20)
(1.14479 0.665919 1.07606e-19)
(1.07011 0.636741 8.52074e-20)
(0.993031 0.60183 0)
(0.915378 0.55914 -5.18844e-19)
(0.850203 0.5138 4.42756e-19)
(0.806924 0.475613 0)
(0.779963 0.445127 1.38402e-19)
(0.747838 0.411632 -2.22637e-21)
(0.6694 0.356874 -3.01144e-19)
(0.521899 0.272586 1.17883e-19)
(0.341216 0.175956 0)
(0.176639 0.0902861 4.16073e-19)
(0.0579616 0.0293612 0)
(0.0017098 0.000868403 -4.02112e-19)
(0.232792 0.135596 3.29937e-20)
(1.09133 0.622678 4.89391e-20)
(1.291 0.742809 -2.66399e-20)
(1.31727 0.772491 0)
(1.27128 0.762477 -1.08613e-20)
(1.20202 0.738148 0)
(1.12915 0.710269 -1.02612e-19)
(1.05303 0.678583 -3.79877e-20)
(0.973987 0.640934 4.07793e-20)
(0.893787 0.595054 -2.56755e-19)
(0.826082 0.546527 4.54905e-20)
(0.781011 0.505769 0)
(0.752581 0.472764 -2.95502e-19)
(0.719033 0.436248 2.20388e-21)
(0.641019 0.377207 0)
(0.499427 0.287735 1.50087e-21)
(0.327574 0.186463 3.80815e-19)
(0.170236 0.0959507 -3.59843e-19)
(0.0563178 0.0313144 1.06126e-19)
(0.00199087 0.00112017 0)
(0.23269 0.144778 0)
(1.08257 0.662464 5.86647e-20)
(1.27958 0.790259 3.78926e-20)
(1.30359 0.82053 -2.48925e-21)
(1.25666 0.808869 1.4268e-21)
(1.18696 0.782493 -4.64252e-20)
(1.1133 0.752536 3.93032e-20)
(1.03588 0.71865 -4.61549e-20)
(0.954978 0.678584 1.83718e-19)
(0.87226 0.629836 -4.10105e-19)
(0.801991 0.578339 -3.86796e-21)
(0.75504 0.534781 -1.2844e-19)
(0.725112 0.498862 4.80141e-19)
(0.690116 0.459071 -2.58937e-21)
(0.611939 0.395136 -2.34058e-19)
(0.475051 0.300185 -4.17853e-19)
(0.311249 0.194124 0)
(0.160775 0.0990681 0)
(0.0526088 0.0317683 1.14459e-19)
(0.00173905 0.00107044 -6.72418e-20)
(0.233137 0.153965 4.59479e-20)
(1.07436 0.700186 -1.33213e-19)
(1.26793 0.835139 -4.08001e-20)
(1.28965 0.865851 0)
(1.24187 0.852661 -1.56937e-21)
(1.17184 0.824483 -3.58962e-20)
(1.0975 0.792721 9.05267e-20)
(1.0189 0.756933 1.77259e-19)
(0.936217 0.714779 2.37207e-19)
(0.850992 0.663512 -3.33901e-19)
(0.778048 0.60921 -3.80663e-19)
(0.729029 0.562579 3.43524e-19)
(0.697572 0.523523 0)
(0.661013 0.480108 -1.06223e-19)
(0.582185 0.410478 -2.53386e-19)
(0.449137 0.309691 -3.00348e-19)
(0.292521 0.198736 -3.55533e-19)
(0.148676 0.0995878 1.05065e-19)
(0.0470895 0.0308274 -6.17378e-20)
(0.00115264 0.000785257 2.79942e-22)
(0.233886 0.162959 0)
(1.06673 0.736285 0)
(1.25622 0.877535 2.59723e-21)
(1.27567 0.90853 0)
(1.22715 0.893936 -1.97055e-20)
(1.15685 0.864175 1.86351e-20)
(1.08193 0.830852 0)
(1.00226 0.793444 2.01937e-20)
(0.917882 0.749521 3.93363e-19)
(0.830154 0.696108 -7.67979e-19)
(0.754355 0.639144 0)
(0.703023 0.589292 -2.21139e-19)
(0.669932 0.546974 -3.06063e-21)
(0.631558 0.499226 -2.4198e-21)
(0.551789 0.422929 2.70841e-19)
(0.422176 0.316065 -2.00411e-22)
(0.271759 0.200164 -7.65812e-19)
(0.13461 0.0975173 2.26025e-19)
(0.0404249 0.0285496 6.68005e-20)
(0.000341416 0.000311188 0)
(0.23468 0.171821 -1.82755e-19)
(1.05946 0.770728 -8.93287e-20)
(1.24454 0.917502 -1.18595e-19)
(1.26184 0.948652 1.22892e-19)
(1.21265 0.932766 -5.12392e-20)
(1.14217 0.90163 0)
(1.06676 0.866972 5.09272e-20)
(0.986115 0.828206 -4.56154e-20)
(0.90012 0.782827 3.91715e-21)
(0.809898 0.727642 5.68822e-20)
(0.73103 0.668195 4.92095e-19)
(0.677082 0.615199 -7.74158e-20)
(0.642076 0.569426 -2.96069e-19)
(0.60149 0.516154 -1.2392e-19)
(0.520823 0.432178 1.47323e-19)
(0.394655 0.319149 -1.17771e-23)
(0.24975 0.198293 2.06319e-19)
(0.119534 0.0930451 -4.86301e-19)
(0.033397 0.0252994 5.74813e-19)
(-0.00054387 -0.000284758 8.38002e-20)
(0.235271 0.180453 6.94271e-20)
(1.05255 0.803606 -5.03626e-20)
(1.23302 0.955152 6.33504e-21)
(1.24828 0.986335 7.7906e-20)
(1.19851 0.969259 1.7851e-20)
(1.1279 0.936919 -2.61885e-20)
(1.05209 0.901131 1.26698e-20)
(0.970578 0.86124 -1.88269e-19)
(0.883059 0.814698 -4.29218e-19)
(0.79035 0.75811 -4.55645e-19)
(0.708209 0.696467 0)
(0.651283 0.640612 -3.40967e-19)
(0.613852 0.591013 4.27187e-19)
(0.570507 0.530634 0)
(0.48927 0.437983 -3.15457e-19)
(0.366922 0.318548 1.88201e-19)
(0.227621 0.192918 -2.21779e-19)
(0.104779 0.0865806 -2.61663e-19)
(0.0267452 0.0215196 -4.62929e-19)
(-0.00136969 -0.000905279 -3.60928e-19)
(0.236193 0.188941 -7.84085e-20)
(1.04586 0.834893 5.38804e-20)
(1.22174 0.990546 1.23857e-19)
(1.23507 1.02166 1.13146e-19)
(1.18482 1.00351 -3.41999e-20)
(1.11413 0.970128 -6.34272e-21)
(1.03802 0.933381 4.36833e-20)
(0.955735 0.89259 -1.90315e-19)
(0.866782 0.845155 -2.53014e-19)
(0.771628 0.787518 4.74738e-19)
(0.68603 0.724077 1.07912e-18)
(0.625713 0.665777 0)
(0.585135 0.611814 0)
(0.538287 0.542656 -1.42739e-19)
(0.456822 0.440159 0)
(0.339036 0.313349 4.04684e-19)
(0.206631 0.183318 4.76923e-19)
(0.0923157 0.0782027 0)
(0.0216882 0.0176561 0)
(-0.00201491 -0.00146013 3.8779e-19)
(0.23676 0.196953 8.92028e-20)
(1.0394 0.864576 7.23343e-20)
(1.21076 1.02379 9.00693e-20)
(1.22229 1.05477 -1.08563e-19)
(1.17164 1.03562 -4.40975e-20)
(1.10093 1.00133 -4.40292e-21)
(1.0246 0.963781 -5.78241e-20)
(0.941647 0.92228 -1.81078e-22)
(0.85137 0.8742 -5.09474e-21)
(0.753829 0.815862 -5.06975e-21)
(0.664651 0.751136 5.55341e-19)
(0.600483 0.690826 0)
(0.555891 0.631919 4.32909e-19)
(0.504557 0.552565 3.04427e-19)
(0.42273 0.438755 7.36866e-19)
(0.310341 0.302209 2.17987e-19)
(0.188063 0.167108 -2.56767e-19)
(0.0862499 0.0653336 -1.50744e-19)
(0.0233628 0.0125875 0)
(-0.00120487 -0.00166682 4.16608e-19)
(0.237652 0.204975 -2.01155e-19)
(1.03315 0.892805 0)
(1.20007 1.05494 1.05895e-19)
(1.20995 1.08574 -9.20612e-20)
(1.15902 1.0657 5.88159e-20)
(1.08834 1.03061 2.39831e-20)
(1.01187 0.992387 1.01277e-19)
(0.928353 0.950345 -1.64771e-20)
(0.836865 0.901843 0)
(0.737034 0.843113 -5.19752e-19)
(0.644225 0.777708 -1.2037e-18)
(0.575732 0.715806 5.00431e-20)
(0.526226 0.651457 5.97141e-19)
(0.469199 0.561055 0)
(0.385867 0.434455 4.97525e-19)
(0.278506 0.284178 0)
(0.170162 0.138932 0)
(0.09168 0.0337439 -1.63122e-19)
(0.0560087 -0.00781486 0)
(0.0272189 0.00696784 1.11572e-19)
(0.238095 0.212406 -2.25069e-19)
(1.02707 0.919769 0)
(1.18967 1.08419 1.76107e-19)
(1.19801 1.11481 0)
(1.14692 1.09399 -3.53956e-20)
(1.07628 1.05827 0)
(0.999782 1.01951 3.24498e-21)
(0.915757 0.977124 2.54807e-20)
(0.823147 0.928449 3.14918e-20)
(0.721079 0.869662 -5.67355e-19)
(0.624584 0.804271 3.57715e-20)
(0.551196 0.741257 4.04172e-19)
(0.495761 0.671075 5.82482e-19)
(0.43144 0.569071 7.89841e-20)
(0.344429 0.428964 3.90172e-19)
(0.238808 0.260396 0)
(0.142053 0.0952652 5.41953e-19)
(0.0789492 -0.0111517 -3.17051e-19)
(0.0329505 0.0584716 3.66993e-19)
(-0.0381028 0.45391 -4.37496e-19)
(0.238475 0.219665 1.86586e-19)
(1.02095 0.945359 2.88559e-19)
(1.17949 1.11186 0)
(1.18632 1.14243 5.24326e-21)
(1.13515 1.12109 1.03659e-19)
(1.0645 1.08498 -8.39735e-20)
(0.988009 1.04595 2.85475e-20)
(0.903452 1.00356 0)
(0.809686 0.955126 2.03646e-19)
(0.705289 0.896839 -2.90454e-20)
(0.604818 0.832347 0)
(0.525602 0.768814 0)
(0.462643 0.692242 5.21361e-19)
(0.38902 0.57746 -2.44554e-19)
(0.295372 0.424377 -3.95234e-19)
(0.187186 0.234422 0)
(0.0806527 0.103345 2.73259e-19)
(0.00746344 0.465031 -3.15975e-19)
(0.0322747 1.92091 -1.76327e-19)
(0.0588503 2.82199 -2.22601e-19)
(0.23847 0.226345 -1.40195e-19)
(1.01484 0.969742 -3.70453e-19)
(1.16954 1.13795 1.04782e-19)
(1.1749 1.16846 8.87838e-20)
(1.12377 1.1468 0)
(1.0531 1.11047 -7.01993e-20)
(0.976762 1.07141 2.9169e-20)
(0.891627 1.02923 -1.17105e-20)
(0.796759 0.98135 3.05002e-20)
(0.690052 0.924042 5.36131e-19)
(0.585542 0.861236 6.03676e-19)
(0.499912 0.798039 4.50594e-19)
(0.427806 0.714946 5.24022e-19)
(0.343583 0.585473 -5.73666e-19)
(0.24515 0.424067 -5.96428e-19)
(0.122263 0.279697 0)
(0.0421875 0.871692 0)
(0.0901832 2.57612 1.50923e-19)
(0.0925997 3.20933 0)
(0.093701 3.38865 3.64879e-19)
(0.241185 0.232531 0)
(1.00897 0.993276 0)
(1.15953 1.16232 0)
(1.16351 1.19274 2.65661e-20)
(1.11246 1.17089 9.54194e-20)
(1.04186 1.13461 -6.53515e-20)
(0.965966 1.09577 1.47771e-20)
(0.880213 1.054 -1.10515e-20)
(0.7843 1.00695 2.46834e-19)
(0.675359 0.95112 -9.48711e-21)
(0.56683 0.890676 1.18618e-18)
(0.474508 0.828839 -5.21627e-20)
(0.391286 0.739972 6.3235e-20)
(0.297373 0.59129 8.30628e-20)
(0.184595 0.442165 -1.88634e-21)
(0.0963635 1.0091 1.69789e-21)
(0.128638 2.75646 -7.9396e-19)
(0.133449 3.30071 -2.97586e-19)
(0.123242 3.42453 1.53457e-19)
(0.111998 3.44451 -1.70253e-19)
(0.163808 0.177544 8.26833e-20)
(0.999296 1.01884 0)
(1.14933 1.1852 -2.10613e-19)
(1.15251 1.21562 -2.38487e-19)
(1.10168 1.19382 2.20336e-19)
(1.03146 1.15785 7.3744e-20)
(0.955482 1.11899 -9.68716e-21)
(0.869274 1.07787 1.0686e-19)
(0.7724 1.03197 -1.98155e-19)
(0.661418 0.978192 0)
(0.548935 0.920668 5.78597e-19)
(0.449947 0.860855 -3.65419e-19)
(0.35402 0.770455 0)
(0.244157 0.599313 7.73411e-20)
(0.137863 0.792144 1.88079e-19)
(0.142912 2.55628 -2.16289e-19)
(0.192133 3.33034 2.43275e-19)
(0.173898 3.43679 1.31407e-19)
(0.143775 3.45537 1.48106e-19)
(0.124052 3.46389 2.36641e-19)
(0.276826 0.271655 -1.57833e-19)
(0.982918 1.03003 0)
(1.13173 1.21165 2.28598e-19)
(1.13839 1.24798 2.62727e-19)
(1.08476 1.22768 -2.42373e-19)
(1.014 1.19215 -9.84747e-20)
(0.936877 1.15484 -1.78508e-20)
(0.850128 1.11505 8.55179e-21)
(0.751876 1.07142 1.80683e-19)
(0.63806 1.02184 4.48053e-19)
(0.52041 0.970864 3.20072e-20)
(0.410353 0.914743 3.21111e-19)
(0.287164 0.813073 5.84573e-20)
(0.208038 0.966642 -7.54492e-20)
(0.213593 2.42882 -1.70253e-19)
(0.264436 3.33683 1.63841e-19)
(0.247463 3.4647 -1.82628e-19)
(0.212737 3.48276 -1.0619e-19)
(0.178727 3.50663 -9.05e-20)
(0.133678 3.50033 -1.07343e-20)
(0.267297 0.270775 0)
(0.980644 1.0535 6.54194e-20)
(1.12356 1.23564 -4.69767e-20)
(1.1279 1.27185 -3.10473e-20)
(1.07407 1.25119 -1.66633e-19)
(1.00335 1.21587 1.00532e-19)
(0.925946 1.17883 2.00537e-20)
(0.838981 1.13991 7.13489e-21)
(0.740167 1.09781 -1.83374e-19)
(0.625012 1.05124 -1.42907e-20)
(0.504491 1.005 -1.02843e-18)
(0.388787 0.950857 4.58594e-20)
(0.275854 0.887471 -5.47853e-20)
(0.24255 1.56117 -6.90768e-20)
(0.303749 3.14492 1.76545e-20)
(0.317884 3.46824 1.67539e-21)
(0.275909 3.51491 2.61715e-19)
(0.24172 3.53675 1.29389e-19)
(0.195951 3.55598 -3.47623e-20)
(0.145996 3.55145 -5.05915e-20)
(0.25332 0.268966 1.65611e-19)
(0.977496 1.0796 4.45483e-19)
(1.11501 1.26172 -1.34901e-19)
(1.11697 1.29723 -1.17631e-19)
(1.06294 1.27618 0)
(0.992349 1.2409 1.72026e-19)
(0.914915 1.20416 4.46752e-20)
(0.827985 1.16605 5.6049e-21)
(0.728912 1.12556 -2.06474e-20)
(0.612934 1.08225 -3.89765e-19)
(0.490372 1.04099 -4.67096e-19)
(0.370271 0.988814 -3.69843e-19)
(0.275733 1.0303 -4.10574e-19)
(0.30603 2.30932 4.228e-19)
(0.382936 3.3963 3.50183e-19)
(0.356021 3.52619 0)
(0.307626 3.56119 0)
(0.270757 3.59374 -2.68865e-20)
(0.226032 3.63855 0)
(0.156787 3.6216 -3.54559e-20)
(0.243434 0.271044 -2.4781e-19)
(0.972392 1.10663 -3.78227e-19)
(1.10509 1.28908 0)
(1.10481 1.3235 6.31485e-21)
(1.05061 1.30184 -1.7772e-19)
(0.980298 1.26651 2.73782e-19)
(0.903149 1.23009 3.80498e-20)
(0.816479 1.19272 6.62477e-22)
(0.7174 1.15379 -1.16688e-19)
(0.601025 1.11375 1.85273e-20)
(0.477269 1.07728 0)
(0.353653 1.03188 0)
(0.300173 1.31697 -3.6738e-19)
(0.382666 2.97426 1.46812e-19)
(0.447216 3.49716 1.83258e-19)
(0.394517 3.56107 0)
(0.352532 3.61619 4.0911e-22)