/*--------------------------------*- C++ -*----------------------------------*\
  =========                 |
  \\      /  F ield         | OpenFOAM: The Open Source CFD Toolbox
   \\    /   O peration     | Website:  https://openfoam.org
    \\  /    A nd           | Version:  6
     \\/     M anipulation  |
\*---------------------------------------------------------------------------*/
FoamFile
{
    version     2.0;
    format      ascii;
    class       volVectorField;
    location    "57";
    object      U;
}
// * * * * * * * * * * * * * * * * * * * * * * * * * * * * * * * * * * * * * //

dimensions      [0 1 -1 0 0 0 0];

internalField   nonuniform List<vector> 
2200
(
(0.877645 -0.0201779 0)
(1.00472 -0.0399793 0)
(1.00285 -0.0342316 0)
(1.00038 -0.0231663 0)
(0.99993 -0.0154529 0)
(1.00002 -0.0100876 0)
(1.00001 -0.006393 0)
(1.00001 -0.00390076 0)
(1.00003 -0.00204996 0)
(1.00013 -0.000566536 0)
(1 0.000904864 0)
(1.00003 0.00237316 0)
(1.00015 0.00418044 0)
(1.00012 0.00661702 0)
(1.00009 0.0102726 0)
(1.00004 0.0155954 0)
(1.00056 0.02322 0)
(1.00308 0.0341531 0)
(1.00474 0.0400351 0)
(0.877671 0.0201955 0)
(0.700797 -0.0265953 0)
(0.993613 -0.0586298 0)
(1.02973 -0.0597689 0)
(1.0217 -0.0488726 0)
(1.01379 -0.0361357 0)
(1.00829 -0.0250603 0)
(1.00509 -0.0167476 0)
(1.00325 -0.0106103 0)
(1.0022 -0.00588023 0)
(1.00162 -0.00164731 0)
(1.00163 0.00255232 0)
(1.00206 0.00681598 0)
(1.00294 0.0114475 0)
(1.00482 0.0174863 0)
(1.00804 0.0256732 0)
(1.01355 0.0366939 0)
(1.02138 0.0494669 0)
(1.02929 0.0604123 0)
(0.993489 0.0587641 0)
(0.700517 0.0266284 0)
(0.530455 -0.0214081 0)
(0.966275 -0.0552546 0)
(1.05275 -0.060535 0)
(1.04855 -0.0532485 0)
(1.03247 -0.0415098 0)
(1.02129 -0.0316142 0)
(1.01371 -0.0227691 0)
(1.00902 -0.015209 0)
(1.00625 -0.00849963 0)
(1.00489 -0.00214296 0)
(1.0049 0.00410301 0)
(1.00629 0.0102329 0)
(1.00905 0.0167812 0)
(1.01354 0.0242124 0)
(1.02098 0.0328768 0)
(1.0321 0.0425418 0)
(1.04828 0.053958 0)
(1.05265 0.0605955 0)
(0.965499 0.0556092 0)
(0.529346 0.0215408 0)
(0.393099 -0.013267 0)
(0.909772 -0.0453656 0)
(1.05575 -0.0514153 0)
(1.06631 -0.0472507 0)
(1.05102 -0.0389532 0)
(1.03578 -0.0311306 0)
(1.0248 -0.0239881 0)
(1.01718 -0.0168859 0)
(1.01226 -0.00981444 0)
(1.00956 -0.00251013 0)
(1.00929 0.0049658 0)
(1.01163 0.0122571 0)
(1.01629 0.0191403 0)
(1.02383 0.0259229 0)
(1.03481 0.0327172 0)
(1.05004 0.0402375 0)
(1.06509 0.04822 0)
(1.05413 0.0522067 0)
(0.907669 0.0458249 0)
(0.390479 0.0134504 0)
(0.309194 -0.00618402 0)
(0.846401 -0.0330799 0)
(1.04828 -0.0428956 0)
(1.07731 -0.0391775 0)
(1.06533 -0.0330787 0)
(1.04867 -0.027117 0)
(1.03584 -0.0218258 0)
(1.0263 -0.0161199 0)
(1.01965 -0.00956305 0)
(1.01606 -0.00206651 0)
(1.01604 0.00575395 0)
(1.01941 0.0129267 0)
(1.02566 0.019175 0)
(1.03491 0.0245981 0)
(1.04747 0.0295994 0)
(1.06389 0.0351702 0)
(1.07577 0.0407129 0)
(1.04598 0.0440821 0)
(0.842468 0.0336745 0)
(0.305173 0.00637362 0)
(0.265308 -0.00191457 0)
(0.788691 -0.0218915 0)
(1.03205 -0.0338061 0)
(1.0815 -0.0321616 0)
(1.07495 -0.0276059 0)
(1.05863 -0.0225561 0)
(1.04547 -0.0184649 0)
(1.03511 -0.013718 0)
(1.02744 -0.00801156 0)
(1.02268 -0.00137007 0)
(1.02216 0.00585656 0)
(1.02605 0.0124195 0)
(1.03325 0.0177283 0)
(1.04327 0.0219564 0)
(1.05633 0.0256049 0)
(1.07261 0.0301777 0)
(1.07842 0.0341947 0)
(1.02772 0.0352376 0)
(0.78237 0.0226171 0)
(0.259947 0.00215018 0)
(0.241121 -0.000345421 0)
(0.738567 -0.0139743 0)
(1.01275 -0.0265879 0)
(1.08245 -0.0264271 0)
(1.08131 -0.0229629 0)
(1.06624 -0.0186492 0)
(1.05322 -0.0150963 0)
(1.04295 -0.0111567 0)
(1.03529 -0.00618136 0)
(1.03068 -0.000139092 0)
(1.0304 0.00624598 0)
(1.0343 0.0117962 0)
(1.04118 0.0163778 0)
(1.05091 0.0198244 0)
(1.06341 0.0227406 0)
(1.07783 0.0263783 0)
(1.07843 0.0291012 0)
(1.00662 0.0284694 0)
(0.729345 0.0149042 0)
(0.234126 0.000658682 0)
(0.226295 -3.75094e-05 0)
(0.695523 -0.00921803 0)
(0.992054 -0.0217936 0)
(1.08063 -0.0230026 0)
(1.08546 -0.0201394 0)
(1.07249 -0.0161516 0)
(1.05981 -0.0127441 0)
(1.0499 -0.0090573 0)
(1.04232 -0.00446047 0)
(1.03735 0.000860916 0)
(1.03639 0.00656208 0)
(1.03982 0.0117972 0)
(1.04646 0.0156825 0)
(1.05576 0.0186394 0)
(1.06815 0.0213264 0)
(1.08059 0.0243879 0)
(1.07429 0.0263543 0)
(0.982435 0.0240497 0)
(0.682286 0.0103446 0)
(0.217269 0.000432826 0)
(0.216543 -5.81099e-05 0)
(0.660066 -0.00640581 0)
(0.971897 -0.0183285 0)
(1.07839 -0.0204899 0)
(1.08907 -0.0179889 0)
(1.07739 -0.0144106 0)
(1.06499 -0.0108629 0)
(1.05529 -0.00715476 0)
(1.04794 -0.00281673 0)
(1.04339 0.00228475 0)
(1.04268 0.00739456 0)
(1.04573 0.0117536 0)
(1.05174 0.0154701 0)
(1.06035 0.0183789 0)
(1.07195 0.0210214 0)
(1.08234 0.0236125 0)
(1.06984 0.0247767 0)
(0.958845 0.0212184 0)
(0.642382 0.007902 0)
(0.205089 0.000560112 0)
(0.209242 -9.35922e-05 0)
(0.631297 -0.00465722 0)
(0.952818 -0.0155824 0)
(1.07512 -0.0185068 0)
(1.09222 -0.0163973 0)
(1.08223 -0.0128997 0)
(1.0698 -0.00934509 0)
(1.06038 -0.00567343 0)
(1.05318 -0.0014295 0)
(1.04819 0.00332924 0)
(1.04669 0.00838991 0)
(1.04915 0.0129908 0)
(1.05465 0.0161803 0)
(1.06297 0.0186385 0)
(1.07476 0.0209548 0)
(1.08353 0.023009 0)
(1.06318 0.0237392 0)
(0.93441 0.0191064 0)
(0.607603 0.00647304 0)
(0.194665 0.000688167 0)
(0.203427 -6.90733e-05 0)
(0.608158 -0.00337638 0)
(0.935343 -0.0131082 0)
(1.07243 -0.0163608 0)
(1.09574 -0.014455 0)
(1.087 -0.0113687 0)
(1.07456 -0.00796566 0)
(1.06485 -0.00429177 0)
(1.05746 5.08442e-05 0)
(1.05268 0.00504821 0)
(1.05138 0.00992925 0)
(1.05359 0.0138703 0)
(1.05867 0.0172212 0)
(1.06662 0.0197384 0)
(1.07775 0.0218172 0)
(1.08403 0.0234823 0)
(1.05655 0.0231762 0)
(0.910953 0.0175534 0)
(0.577598 0.00573918 0)
(0.185119 0.000822967 0)
(0.198661 -3.00259e-05 0)
(0.589548 -0.00244895 0)
(0.919463 -0.01096 0)
(1.06912 -0.0148269 0)
(1.099 -0.0133148 0)
(1.09192 -0.0099924 0)
(1.0791 -0.00627923 0)
(1.06896 -0.00250529 0)
(1.06109 0.00182618 0)
(1.05537 0.00673858 0)
(1.05295 0.0116885 0)
(1.05473 0.0160513 0)
(1.05983 0.0188266 0)
(1.06807 0.0207412 0)
(1.0796 0.0225896 0)
(1.08378 0.0237135 0)
(1.04769 0.0226802 0)
(0.886527 0.0163265 0)
(0.549927 0.00536299 0)
(0.175569 0.000912135 0)
(0.194916 0.000100172 0)
(0.574611 -0.00159763 0)
(0.90494 -0.00860936 0)
(1.06636 -0.0121844 0)
(1.10232 -0.0107756 0)
(1.09638 -0.00781805 0)
(1.08355 -0.00421147 0)
(1.07298 -0.000374531 0)
(1.06469 0.00403717 0)
(1.05891 0.00896702 0)
(1.05673 0.013752 0)
(1.05822 0.0173988 0)
(1.06297 0.0201676 0)
(1.07081 0.0221466 0)
(1.08112 0.0237299 0)
(1.08296 0.0241859 0)
(1.03856 0.0224912 0)
(0.862671 0.0154115 0)
(0.524792 0.00519473 0)
(0.166336 0.000967686 0)
(0.192703 0.000275846 0)
(0.56394 -0.000646621 0)
(0.893401 -0.00635469 0)
(1.06378 -0.00983119 0)
(1.10573 -0.00854281 0)
(1.10144 -0.00543298 0)
(1.08848 -0.00149447 0)
(1.07753 0.00257567 0)
(1.06845 0.00696525 0)
(1.06136 0.0117134 0)
(1.05785 0.01637 0)
(1.05889 0.0200709 0)
(1.06346 0.022289 0)
(1.07144 0.023709 0)
(1.08172 0.0247155 0)
(1.08098 0.0247185 0)
(1.02681 0.0222599 0)
(0.837475 0.0147948 0)
(0.500439 0.00513921 0)
(0.15703 0.00100091 0)
(0.191746 0.00045908 0)
(0.556001 -2.17044e-06 0)
(0.882944 -0.00439609 0)
(1.06223 -0.00715096 0)
(1.10982 -0.00553354 0)
(1.1066 -0.00248322 0)
(1.09358 0.00136218 0)
(1.08222 0.00558698 0)
(1.07291 0.0101311 0)
(1.06569 0.0149337 0)
(1.06193 0.019149 0)
(1.0624 0.0222487 0)
(1.06624 0.0244808 0)
(1.07368 0.0258843 0)
(1.08197 0.0265092 0)
(1.07838 0.0256383 0)
(1.01501 0.0226439 0)
(0.812727 0.014561 0)
(0.477444 0.0052018 0)
(0.147992 0.00104274 0)
(0.192463 0.000521084 0)
(0.552098 0.00132445 0)
(0.876564 -0.00199832 0)
(1.06129 -0.0043443 0)
(1.114 -0.00233205 0)
(1.11225 0.00131427 0)
(1.09877 0.00564155 0)
(1.08665 0.0100594 0)
(1.07629 0.0146885 0)
(1.0675 0.0190111 0)
(1.06277 0.0230093 0)
(1.06221 0.0259471 0)
(1.06557 0.0276476 0)
(1.07314 0.0282327 0)
(1.08135 0.0281656 0)
(1.07378 0.0272156 0)
(0.999828 0.023285 0)
(0.785822 0.014694 0)
(0.453912 0.00538234 0)
(0.138593 0.00112019 0)
(0.194832 0.000675753 0)
(0.552573 0.00204499 0)
(0.872112 0.000245292 0)
(1.06243 -0.00106977 0)
(1.11942 0.00151465 0)
(1.11861 0.00550531 0)
(1.1051 0.00982479 0)
(1.09261 0.014165 0)
(1.08224 0.0188154 0)
(1.07389 0.0235274 0)
(1.0679 0.0276295 0)
(1.06587 0.0302941 0)
(1.06838 0.031687 0)
(1.07482 0.0320406 0)
(1.0803 0.0312034 0)
(1.06877 0.0290841 0)
(0.984593 0.0245586 0)
(0.759124 0.0151108 0)
(0.430849 0.00570456 0)
(0.129114 0.00124033 0)
(0.199249 0.00103925 0)
(0.555542 0.0029291 0)
(0.87266 0.00310644 0)
(1.06471 0.00220843 0)
(1.12531 0.00534501 0)
(1.12591 0.0100766 0)
(1.1121 0.0150811 0)
(1.09878 0.0198675 0)
(1.08679 0.0248048 0)
(1.07581 0.0295236 0)
(1.06766 0.0331708 0)
(1.06507 0.0353629 0)
(1.06649 0.0359528 0)
(1.07289 0.0353825 0)
(1.07786 0.0344439 0)
(1.06099 0.0320376 0)
(0.96496 0.0261069 0)
(0.729213 0.0159124 0)
(0.405927 0.00622623 0)
(0.118781 0.0013852 0)
(0.205948 0.00146205 0)
(0.562916 0.0042631 0)
(0.876816 0.00566947 0)
(1.06992 0.00637462 0)
(1.1325 0.0101206 0)
(1.13395 0.0153272 0)
(1.11999 0.020637 0)
(1.10606 0.0258611 0)
(1.09319 0.0311346 0)
(1.08151 0.0364292 0)
(1.07264 0.0408067 0)
(1.06793 0.0426698 0)
(1.0684 0.0429324 0)
(1.07316 0.0418498 0)
(1.07485 0.0394899 0)
(1.05255 0.0353474 0)
(0.944962 0.0285581 0)
(0.698598 0.0171438 0)
(0.380245 0.00690007 0)
(0.10795 0.00153551 0)
(0.214448 0.00189978 0)
(0.574258 0.00570783 0)
(0.885123 0.00853188 0)
(1.07735 0.0105454 0)
(1.14084 0.0152745 0)
(1.14299 0.021331 0)
(1.12805 0.0276985 0)
(1.11283 0.0339573 0)
(1.09805 0.0402665 0)
(1.08337 0.045576 0)
(1.07145 0.0484783 0)
(1.06593 0.0494661 0)
(1.06474 0.0495405 0)
(1.0687 0.047568 0)
(1.06958 0.0448162 0)
(1.04018 0.0400597 0)
(0.919057 0.0312326 0)
(0.663088 0.0187529 0)
(0.351282 0.00764055 0)
(0.0958575 0.00167733 0)
(0.227072 0.0025153 0)
(0.592974 0.00809561 0)
(0.900495 0.0130907 0)
(1.08862 0.0167509 0)
(1.15103 0.0224962 0)
(1.15307 0.029463 0)
(1.13729 0.0365116 0)
(1.1208 0.0433389 0)
(1.1046 0.0500641 0)
(1.08834 0.0554169 0)
(1.07477 0.0591426 0)
(1.06635 0.0604377 0)
(1.06408 0.0591068 0)
(1.06689 0.0557668 0)
(1.06331 0.0516557 0)
(1.02642 0.0447512 0)
(0.891988 0.0348012 0)
(0.625719 0.0206665 0)
(0.320662 0.00839364 0)
(0.0831288 0.00180928 0)
(0.243226 0.00319997 0)
(0.617269 0.0100109 0)
(0.92198 0.0174237 0)
(1.10409 0.0235789 0)
(1.1637 0.0309699 0)
(1.16553 0.0392243 0)
(1.14777 0.0475422 0)
(1.12878 0.0552116 0)
(1.10954 0.062904 0)
(1.08974 0.0691418 0)
(1.07222 0.071976 0)
(1.06218 0.0711988 0)
(1.05844 0.0689817 0)
(1.05935 0.0642413 0)
(1.0544 0.0587704 0)
(1.00785 0.0510839 0)
(0.856934 0.03837 0)
(0.58165 0.0228009 0)
(0.285858 0.00912864 0)
(0.0690775 0.00192537 0)
(0.265274 0.00446031 0)
(0.650098 0.0141941 0)
(0.95103 0.0241425 0)
(1.12442 0.0326055 0)
(1.17948 0.0415744 0)
(1.1799 0.0519666 0)
(1.15987 0.0616555 0)
(1.13811 0.0703232 0)
(1.11557 0.0783711 0)
(1.09227 0.084049 0)
(1.0721 0.0861693 0)
(1.05995 0.0852015 0)
(1.05527 0.0809319 0)
(1.05536 0.0746726 0)
(1.04406 0.067815 0)
(0.986797 0.0570765 0)
(0.820129 0.0430459 0)
(0.535135 0.0250198 0)
(0.249348 0.00980541 0)
(0.0546662 0.00200338 0)
(0.296794 0.00552116 0)
(0.696186 0.0175789 0)
(0.990575 0.0316691 0)
(1.15118 0.0440192 0)
(1.19882 0.0555116 0)
(1.19701 0.0685329 0)
(1.17333 0.080296 0)
(1.14758 0.0902161 0)
(1.1201 0.0986456 0)
(1.09159 0.103893 0)
(1.06756 0.104461 0)
(1.05351 0.100157 0)
(1.04693 0.0937651 0)
(1.04426 0.0858388 0)
(1.02983 0.0767699 0)
(0.959372 0.0648322 0)
(0.772286 0.0470371 0)
(0.479305 0.0269727 0)
(0.208108 0.0102725 0)
(0.0391975 0.00197616 0)
(0.332402 0.00877727 0)
(0.753548 0.0259941 0)
(1.03978 0.0447585 0)
(1.18439 0.0608646 0)
(1.2229 0.0743438 0)
(1.21676 0.0901468 0)
(1.18844 0.103464 0)
(1.15835 0.114332 0)
(1.12675 0.122501 0)
(1.09481 0.125992 0)
(1.06682 0.123437 0)
(1.04897 0.117028 0)
(1.04103 0.108665 0)
(1.03691 0.0987154 0)
(1.01345 0.0877915 0)
(0.927388 0.0716109 0)
(0.722119 0.052201 0)
(0.422938 0.0292323 0)
(0.166955 0.0104618 0)
(0.0250318 0.00187482 0)
(0.409969 0.0135893 0)
(0.838739 0.0363274 0)
(1.10556 0.0617058 0)
(1.22557 0.0838071 0)
(1.25058 0.100609 6.44281e-34)
(1.23789 0.119712 -2.891e-34)
(1.20277 0.134531 0)
(1.16682 0.145856 0)
(1.1289 0.153018 0)
(1.0901 0.153666 0)
(1.05786 0.147319 0)
(1.03974 0.137057 0)
(1.03003 0.125168 0)
(1.02189 0.112481 0)
(0.991839 0.0981255 0)
(0.887478 0.0804794 0)
(0.657542 0.0559386 0)
(0.351733 0.029774 0)
(0.117879 0.00974444 0)
(0.00917371 0.00171279 0)
(0.475067 0.0280837 4.89708e-20)
(0.938495 0.056477 -3.69884e-20)
(1.17603 0.0920518 0)
(1.26689 0.11976 2.79859e-20)
(1.27951 0.137676 -2.26872e-20)
(1.25696 0.159265 3.05036e-34)
(1.21436 0.173984 0)
(1.17257 0.184369 1.63258e-20)
(1.12994 0.188814 -5.38317e-20)
(1.08857 0.186009 1.10085e-20)
(1.05399 0.176154 0)
(1.03 0.161219 -2.81767e-20)
(1.01771 0.146406 -3.37158e-20)
(1.0063 0.131512 5.89352e-20)
(0.960316 0.114471 -4.65136e-20)
(0.828159 0.0888285 0)
(0.572941 0.0602505 -1.66843e-20)
(0.271897 0.0298922 0)
(0.0695044 0.00910256 -9.21174e-20)
(-0.00733485 0.00095034 1.08564e-19)
(0.5109 0.0531893 -6.367e-21)
(1.00144 0.0943721 1.12528e-19)
(1.22603 0.134025 -7.41651e-21)
(1.30042 0.163528 -6.99758e-20)
(1.30441 0.184722 -4.76787e-20)
(1.27262 0.206566 7.74944e-20)
(1.22272 0.220816 0)
(1.17423 0.230048 0)
(1.12415 0.232724 8.59313e-20)
(1.07404 0.226609 0)
(1.03169 0.210574 1.01822e-19)
(1.00953 0.191381 3.02334e-20)
(0.99601 0.173806 3.90303e-22)
(0.976104 0.154153 -6.43141e-20)
(0.918629 0.129909 0)
(0.768166 0.102565 0)
(0.501234 0.0660398 -2.72118e-19)
(0.214487 0.0317961 6.84275e-19)
(0.0397217 0.00736788 -4.04444e-19)
(-0.0180992 -0.00115133 -4.7662e-19)
(0.522276 0.0771065 -6.69491e-20)
(1.03847 0.1414 2.52369e-20)
(1.26176 0.187964 1.31994e-20)
(1.3269 0.21782 1.21242e-19)
(1.32357 0.238983 1.37914e-20)
(1.2839 0.25971 -2.0235e-19)
(1.22715 0.272653 6.90296e-20)
(1.17238 0.279595 0)
(1.11739 0.278162 -1.82216e-19)
(1.06567 0.26688 1.62512e-19)
(1.02522 0.24807 -2.74741e-19)
(0.995861 0.226476 1.28779e-19)
(0.975356 0.203088 -8.31035e-20)
(0.953721 0.179804 1.87551e-19)
(0.886707 0.153855 0)
(0.725767 0.115514 -6.8011e-20)
(0.459468 0.0755857 0)
(0.1982 0.034702 3.74168e-19)
(0.0340783 0.0065781 -8.86996e-19)
(-0.0208392 -0.00282038 5.558e-19)
(0.522001 0.102369 1.89595e-19)
(1.06158 0.19407 -8.32991e-20)
(1.28582 0.247262 -1.67016e-20)
(1.34479 0.27832 0)
(1.33585 0.29901 -8.89623e-20)
(1.29009 0.317611 1.09747e-19)
(1.22797 0.327635 -7.44675e-20)
(1.16872 0.330289 0)
(1.10963 0.324266 1.29577e-19)
(1.05219 0.30869 -1.14159e-19)
(1.00291 0.28439 2.37825e-19)
(0.971913 0.257214 0)
(0.95292 0.233179 -1.76713e-19)
(0.923727 0.207344 9.96966e-20)
(0.854727 0.171997 2.49712e-19)
(0.695733 0.134097 -2.19791e-19)
(0.442324 0.08807 3.47576e-19)
(0.196036 0.0400057 -7.68145e-19)
(0.0366001 0.00816926 4.86449e-19)
(-0.0199075 -0.00391983 -6.08458e-19)
(0.511624 0.130164 -6.84523e-20)
(1.06983 0.244476 4.91323e-20)
(1.29858 0.307161 -5.47018e-20)
(1.35466 0.341019 1.08281e-19)
(1.34184 0.360793 -1.01301e-19)
(1.29165 0.376726 3.48868e-20)
(1.22558 0.383499 3.46469e-21)
(1.16222 0.381973 -1.46863e-19)
(1.0989 0.371486 -1.36471e-19)
(1.03768 0.350745 -2.45672e-19)
(0.988918 0.322875 -5.11214e-19)
(0.956164 0.293581 -1.57222e-19)
(0.930098 0.265769 2.24293e-21)
(0.901525 0.2358 -3.40394e-19)
(0.830967 0.201463 -5.16464e-21)
(0.674104 0.153126 3.19794e-19)
(0.434386 0.100623 -9.61492e-20)
(0.201707 0.0496158 -5.56891e-20)
(0.0465579 0.0114908 0)
(-0.0152727 -0.00401293 1.29395e-18)
(0.497297 0.154568 0)
(1.0698 0.29353 -5.45137e-21)
(1.30388 0.366705 -9.4972e-21)
(1.35764 0.403668 -1.24285e-20)
(1.34179 0.423092 9.79552e-20)
(1.28826 0.436445 -8.11017e-20)
(1.21886 0.439806 8.15415e-20)
(1.15187 0.433824 2.41439e-19)
(1.08443 0.418141 -7.61633e-20)
(1.01997 0.391937 1.21359e-19)
(0.967298 0.358891 2.74712e-19)
(0.929983 0.326193 3.42601e-19)
(0.904505 0.298842 -2.06054e-19)
(0.872621 0.266565 3.68437e-19)
(0.802343 0.223724 -2.91755e-19)
(0.654381 0.176935 0)
(0.430963 0.118196 -7.30073e-19)
(0.212681 0.0614628 9.82616e-19)
(0.0602821 0.017397 7.33569e-20)
(-0.00873697 -0.00283282 -1.36869e-18)
(0.481623 0.176474 -6.49221e-21)
(1.06174 0.339185 1.17307e-20)
(1.3024 0.423253 6.88599e-20)
(1.35544 0.464274 -9.06135e-20)
(1.33722 0.483492 8.11504e-20)
(1.28074 0.494724 -7.91314e-20)
(1.20851 0.49519 1.62544e-19)
(1.13891 0.485005 -7.25328e-20)
(1.06976 0.464249 -3.07525e-19)
(1.00429 0.433134 -2.49856e-22)
(0.949285 0.395705 -2.98795e-19)
(0.909044 0.361824 -3.68791e-19)
(0.880481 0.329899 2.27536e-19)
(0.849379 0.294923 -1.32452e-19)
(0.780833 0.254885 3.17331e-19)
(0.638863 0.197664 0)
(0.427131 0.13611 -4.53683e-19)
(0.221512 0.0736254 6.70096e-19)
(0.0727448 0.0242374 1.2679e-18)
(-0.00209244 -0.000927085 -1.49114e-18)
(0.468177 0.197199 -4.74862e-20)
(1.05277 0.3844 1.62816e-20)
(1.29738 0.478857 -4.66546e-20)
(1.34892 0.523143 9.34601e-20)
(1.32848 0.542453 1.18097e-20)
(1.26977 0.551743 -1.55465e-19)
(1.19587 0.549033 -9.47977e-20)
(1.12514 0.534493 -9.33931e-20)
(1.05423 0.509057 -1.73538e-19)
(0.98436 0.473163 2.79261e-19)
(0.924428 0.431413 3.02412e-19)
(0.883254 0.393961 5.85418e-19)
(0.85375 0.361662 0)
(0.819259 0.326103 6.32969e-21)
(0.753764 0.276386 -8.7161e-19)
(0.621088 0.222878 2.04137e-19)
(0.424385 0.154524 9.8338e-19)
(0.230323 0.0870217 -2.90157e-19)
(0.0846921 0.0326054 6.02783e-19)
(0.00447069 0.00174372 -5.03437e-20)
(0.455812 0.216244 7.9209e-21)
(1.04049 0.426317 3.98294e-20)
(1.28874 0.53123 -2.04612e-20)
(1.33964 0.57923 1.04438e-19)
(1.31758 0.598351 -1.63795e-19)
(1.25715 0.605829 1.54981e-19)
(1.18196 0.600549 9.82759e-20)
(1.10989 0.582367 2.78703e-19)
(1.03719 0.553139 3.48541e-19)
(0.965745 0.513182 -3.22015e-19)
(0.906145 0.466958 0)
(0.862328 0.426129 -2.21178e-19)
(0.829599 0.390915 2.53937e-19)
(0.79845 0.352622 3.19807e-19)
(0.733443 0.308193 -1.85103e-19)
(0.605775 0.243152 -4.49809e-19)
(0.418886 0.173201 -1.34112e-19)
(0.235702 0.100877 -1.88956e-21)
(0.0933557 0.0409635 0)
(0.00963152 0.00441368 0)
(0.446886 0.234924 -6.84122e-20)
(1.02985 0.46798 0)
(1.27877 0.58237 -6.07643e-21)
(1.32817 0.633039 -1.05976e-20)
(1.30453 0.652055 1.86481e-19)
(1.24271 0.657795 -4.69875e-20)
(1.16666 0.649797 1.00113e-19)
(1.09379 0.62811 -1.88603e-19)
(1.01978 0.595159 2.64242e-19)
(0.946272 0.551165 -1.05133e-19)
(0.881785 0.501142 1.73077e-19)
(0.835591 0.457899 7.01315e-19)
(0.804672 0.4215 1.4274e-20)
(0.769562 0.382353 -3.33722e-19)
(0.708092 0.327574 6.16904e-19)
(0.58648 0.26802 3.76596e-21)
(0.41171 0.190661 1.4348e-19)
(0.236148 0.113912 -6.84236e-19)
(0.097831 0.0481171 7.05365e-19)
(0.0131124 0.00667879 -8.30963e-19)
(0.439737 0.252655 5.67401e-23)
(1.01786 0.506442 0)
(1.26698 0.630207 0)
(1.31538 0.683947 -4.2938e-21)
(1.29058 0.702621 -5.56137e-20)
(1.22767 0.706576 7.34302e-20)
(1.15083 0.696355 -1.86254e-19)
(1.07705 0.671783 0)
(1.00189 0.635861 -3.89549e-19)
(0.926785 0.588867 4.6589e-19)
(0.861534 0.535199 4.92791e-19)
(0.814446 0.487417 -2.57329e-19)
(0.781139 0.44839 -3.10738e-19)
(0.750144 0.406332 7.28205e-19)
(0.687638 0.358092 -2.19259e-19)
(0.568212 0.28568 -2.61462e-19)
(0.399691 0.207019 -1.56395e-19)
(0.23293 0.124079 -7.38573e-19)
(0.0982072 0.0534876 1.08336e-19)
(0.0148435 0.00813429 8.98517e-19)
(0.434834 0.271163 -3.54189e-20)
(1.00779 0.544618 -4.42753e-20)
(1.25495 0.676587 2.28419e-20)
(1.30155 0.732347 1.27344e-22)
(1.27551 0.75077 -5.65432e-20)
(1.21154 0.753071 1.20432e-19)
(1.13418 0.740434 0)
(1.0601 0.713066 1.13948e-19)
(0.983866 0.674306 -8.98483e-20)
(0.906081 0.62376 7.77152e-19)
(0.836723 0.566672 -1.11903e-19)
(0.788349 0.517401 1.27594e-19)
(0.756633 0.476388 0)
(0.721471 0.43331 -3.9408e-19)
(0.661038 0.373507 4.76861e-19)
(0.546109 0.30766 0)
(0.387774 0.220389 -3.36937e-19)
(0.226418 0.132821 9.90584e-19)
(0.0958678 0.0562939 1.17459e-19)
(0.0150066 0.00885199 -1.10583e-18)
(0.43082 0.289488 -9.02679e-20)
(0.996948 0.579785 1.13331e-19)
(1.24198 0.719715 0)
(1.28709 0.777931 9.84208e-21)
(1.26005 0.795991 0)
(1.19534 0.796539 -1.54766e-19)
(1.11772 0.781833 0)
(1.04307 0.752157 0)
(0.965542 0.711307 -1.18611e-19)
(0.886082 0.658778 -7.38633e-19)
(0.816498 0.59918 -9.10251e-19)
(0.76682 0.544827 1.48795e-19)
(0.73207 0.499229 5.36155e-19)
(0.700628 0.452814 4.33428e-19)
(0.63863 0.400549 -1.52964e-18)
(0.526085 0.319697 -6.13233e-19)
(0.371633 0.231907 3.5926e-19)
(0.217084 0.13817 0)
(0.0912288 0.0575019 1.00609e-18)
(0.0138915 0.00895976 -1.19064e-18)
(0.42832 0.306834 1.09446e-19)
(0.988048 0.614781 -1.3306e-19)
(1.22938 0.761526 0)
(1.27232 0.821101 -1.12685e-20)
(1.24419 0.838753 2.08397e-21)
(1.17877 0.837696 0)
(1.10099 0.820854 5.77232e-20)
(1.02635 0.789003 7.87468e-20)
(0.94801 0.746176 -2.23407e-19)
(0.866248 0.691081 9.79609e-20)
(0.791341 0.627596 0)
(0.739257 0.57101 6.17699e-19)
(0.70601 0.524033 5.88639e-21)
(0.670247 0.475832 2.33767e-19)
(0.609997 0.409579 2.7765e-19)
(0.502326 0.336095 0)
(0.357007 0.23916 -5.86092e-19)
(0.206408 0.141066 1.14795e-18)
(0.0852536 0.0574216 -1.21693e-18)
(0.0122254 0.00849276 2.56315e-18)
(0.426699 0.323327 0)
(0.978696 0.646817 0)
(1.21639 0.800258 -6.56639e-20)
(1.25744 0.86173 0)
(1.22839 0.878955 0)
(1.16253 0.876162 -1.3258e-19)
(1.08501 0.857435 5.92343e-20)
(1.01029 0.823812 1.78712e-20)
(0.930954 0.779746 -5.11775e-20)
(0.847235 0.723839 0)
(0.771212 0.658805 -1.38466e-19)
(0.716541 0.596745 -5.03644e-19)
(0.67865 0.542865 -6.05343e-19)
(0.646217 0.488889 -2.43204e-19)
(0.586502 0.430677 3.00562e-19)
(0.481791 0.340206 -7.08254e-19)
(0.338679 0.244046 1.2609e-18)
(0.195307 0.141335 2.1119e-21)
(0.079415 0.0561221 -1.16473e-18)
(0.0107379 0.00773212 -1.72795e-19)
(0.426072 0.338868 0)
(0.971284 0.678868 -1.09927e-19)
(1.20411 0.837957 7.984e-20)
(1.24273 0.9002 0)
(1.21273 0.916826 0)
(1.14653 0.912416 2.6793e-19)
(1.06929 0.891795 0)
(0.994946 0.856584 0)
(0.914945 0.811364 -4.88067e-19)
(0.828636 0.753787 1.34901e-19)
(0.746601 0.6854 -1.22825e-18)
(0.687293 0.620749 0)
(0.65028 0.565003 -6.59518e-19)
(0.612887 0.507594 1.01825e-20)
(0.556083 0.43062 -9.66684e-19)
(0.457357 0.349088 3.8098e-19)
(0.324318 0.243859 1.5563e-21)
(0.184291 0.13868 -1.32566e-18)
(0.0748251 0.0532921 6.26091e-19)
(0.00981725 0.00680537 1.84909e-19)
(0.425854 0.353736 0)
(0.963374 0.707963 -1.53751e-19)
(1.19169 0.872697 8.56191e-20)
(1.22825 0.936386 1.04541e-19)
(1.19744 0.952506 -1.5231e-20)
(1.13112 0.946355 2.89695e-20)
(1.05453 0.924004 -3.65399e-20)
(0.980384 0.887428 4.72551e-19)
(0.899459 0.841685 5.22098e-19)
(0.811136 0.78438 1.02449e-18)
(0.727781 0.716189 1.0205e-18)
(0.665065 0.646997 1.79403e-19)
(0.620302 0.581453 9.48062e-19)
(0.584964 0.513964 5.84965e-19)
(0.529538 0.444364 6.93486e-19)
(0.437007 0.342283 -4.16712e-19)
(0.308222 0.239135 -4.85671e-19)
(0.180577 0.131419 5.69656e-19)
(0.0761759 0.0501871 -3.37371e-19)
(0.0114277 0.00610302 5.97264e-19)
(0.426079 0.367934 2.19644e-19)
(0.957176 0.737241 2.41168e-19)
(1.18011 0.906655 5.07887e-20)
(1.21416 0.970639 1.62753e-20)
(1.18258 0.985988 1.40091e-20)
(1.11626 0.978204 -7.42249e-20)
(1.04028 0.954146 3.55994e-20)
(0.966593 0.916393 -2.05046e-20)
(0.885024 0.870104 -6.05317e-19)
(0.794274 0.812054 -1.11182e-18)
(0.704635 0.741523 7.06823e-20)
(0.635987 0.670564 0)
(0.590663 0.603598 0)
(0.547402 0.530843 -3.05415e-19)
(0.492797 0.433807 -1.13689e-18)
(0.409951 0.339462 8.97238e-19)
(0.300314 0.224085 5.29199e-19)
(0.185397 0.118394 0)
(0.0898702 0.0438504 1.08508e-18)
(0.0221744 0.00699256 -6.4194e-19)
(0.426305 0.381579 -1.15527e-19)
(0.950304 0.763471 1.03574e-19)
(1.16845 0.937683 -1.21279e-19)
(1.20046 1.00279 -9.48937e-20)
(1.16822 1.01758 -1.10713e-20)
(1.10208 1.00809 -2.28552e-20)
(1.02702 0.982468 0)
(0.953582 0.943619 -5.93427e-19)
(0.871034 0.897194 7.51396e-20)
(0.778357 0.840185 0)
(0.687979 0.771862 0)
(0.615933 0.698496 1.14492e-19)
(0.559573 0.621267 1.5371e-19)
(0.514641 0.53378 -3.30181e-19)
(0.459762 0.442639 8.16499e-19)
(0.379802 0.313063 -9.77382e-19)
(0.286225 0.198607 -1.13191e-18)
(0.206726 0.090587 1.00252e-18)
(0.155035 0.0320463 -3.88592e-19)
(0.0899656 0.0239694 2.2565e-19)
(0.426629 0.394403 1.47164e-19)
(0.944898 0.789975 0)
(1.15762 0.968122 0)
(1.18722 1.03319 -2.5244e-20)
(1.15442 1.04711 2.04406e-20)
(1.08867 1.03603 -2.03091e-20)
(1.01447 1.00892 1.58127e-19)
(0.941419 0.969228 6.07763e-19)
(0.858025 0.922524 1.09568e-18)
(0.763153 0.865271 -8.34666e-20)
(0.666864 0.79562 1.72822e-19)
(0.588001 0.721772 -1.02218e-18)
(0.530303 0.645885 -1.02039e-18)
(0.47342 0.555825 -1.77205e-19)
(0.409657 0.426186 0)
(0.340922 0.303815 -4.96724e-21)
(0.266737 0.140876 6.22634e-19)
(0.21574 0.0140951 -1.06846e-18)
(0.166265 -0.0764382 8.1917e-19)
(0.0761932 -0.0448254 6.96403e-19)
(0.426711 0.406935 -3.25847e-19)
(0.938377 0.813193 -1.47196e-19)
(1.14647 0.995592 8.50553e-21)
(1.17432 1.06182 5.69415e-20)
(1.14113 1.07532 0)
(1.0758 1.06273 -8.61822e-20)
(1.00253 1.03432 -2.25945e-19)
(0.929445 0.993796 -2.07546e-21)
(0.8447 0.947114 -5.74039e-19)
(0.747753 0.891152 -8.18479e-20)
(0.651432 0.825258 7.602e-20)
(0.570266 0.752088 8.98056e-19)
(0.498667 0.668011 9.95837e-19)
(0.436032 0.560828 1.72568e-19)
(0.369345 0.445456 8.77531e-19)
(0.271536 0.260327 0)
(0.167649 0.126855 0)
(0.0214563 0.222673 7.06561e-19)
(-0.0429307 0.702692 -1.68199e-20)
(0.00355371 1.67466 -8.00206e-19)
(0.426887 0.418819 1.80548e-19)
(0.933321 0.8372 4.13308e-19)
(1.13613 1.02307 -5.6867e-19)
(1.1618 1.08922 2.78647e-19)
(1.12838 1.10211 -5.28549e-21)
(1.06379 1.08836 -3.92899e-20)
(0.991359 1.05898 0)
(0.918239 1.01814 -5.06011e-19)
(0.832169 0.971558 0)
(0.732854 0.915757 1.1522e-18)
(0.630116 0.849068 -9.28381e-20)
(0.540536 0.77708 1.04097e-19)
(0.468246 0.698388 1.14037e-18)
(0.390493 0.600445 -3.73171e-19)
(0.280222 0.432693 -4.46071e-19)
(0.190329 0.323379 0)
(0.0775574 0.540177 0)
(0.0219824 1.4636 0)
(0.0553744 2.51367 -4.09732e-19)
(0.0682587 2.92789 -2.47177e-19)
(0.426499 0.430171 0)
(0.927159 0.857881 0)
(1.12557 1.04766 2.08265e-19)
(1.14974 1.115 -2.25362e-19)
(1.11628 1.12784 9.43865e-20)
(1.05242 1.11317 4.54748e-20)
(0.980815 1.08312 2.85036e-20)
(0.90718 1.04192 -2.21922e-20)
(0.819368 0.995707 8.09427e-20)
(0.717741 0.941544 -1.32251e-18)
(0.615398 0.879843 1.68181e-19)
(0.525155 0.811469 8.98124e-19)
(0.436214 0.72844 -1.13607e-18)
(0.345579 0.606961 -1.24781e-18)
(0.251008 0.502109 4.19774e-19)
(0.15117 0.697662 0)
(0.0818673 1.70775 5.78284e-19)
(0.0949958 2.72872 6.42195e-19)
(0.0999548 3.08661 -7.24256e-19)
(0.0888485 3.20976 7.87903e-19)
(0.426156 0.441042 0)
(0.922502 0.87956 3.69042e-19)
(1.11593 1.07247 -5.18854e-20)
(1.13816 1.13958 3.19982e-19)
(1.10482 1.15201 -9.90742e-20)
(1.04191 1.13671 0)
(0.970979 1.10629 0)
(0.896931 1.06533 0)
(0.807592 1.01962 4.55677e-19)
(0.703921 0.966105 6.11188e-20)
(0.59529 0.903948 0)
(0.495413 0.837698 -8.92865e-19)
(0.409021 0.761849 0)
(0.297371 0.660399 8.88335e-19)
(0.201342 0.741699 -6.03395e-19)
(0.139318 1.56896 -4.8138e-19)
(0.136106 2.72589 -1.11969e-18)
(0.15151 3.12527 -6.01193e-19)
(0.129953 3.25105 -8.52298e-19)
(0.114616 3.28625 7.53239e-19)
(0.424614 0.450633 -1.30366e-19)
(0.916609 0.89759 1.67555e-20)
(1.10606 1.09431 -5.80016e-20)
(1.12712 1.16267 -2.46002e-19)
(1.09406 1.17533 0)
(1.03197 1.1596 0)
(0.961564 1.12907 0)
(0.886626 1.08822 3.48819e-20)
(0.795532 1.04328 -5.7614e-19)
(0.689696 0.991689 0)
(0.582203 0.935234 0)
(0.485494 0.874768 0)
(0.372298 0.788975 0)
(0.30697 0.770122 6.49749e-19)
(0.23868 1.2561 1.6049e-18)
(0.194641 2.51306 4.73226e-19)
(0.206147 3.09876 9.61897e-19)
(0.194229 3.26975 -7.39229e-19)
(0.158112 3.32262 2.63241e-19)
(0.139253 3.33372 0)
(0.42297 0.459297 1.34623e-19)
(0.911476 0.916752 -8.23256e-19)
(1.09677 1.11706 -2.23181e-19)
(1.11645 1.18543 -4.84241e-20)
(1.08381 1.19775 2.36836e-20)
(1.02259 1.18169 -8.02467e-20)
(0.952497 1.15117 -3.22907e-21)
(0.876962 1.11108 -3.84195e-19)
(0.784574 1.06716 0)
(0.677568 1.01687 -7.79823e-20)
(0.565008 0.960219 7.09374e-20)
(0.4582 0.900349 0)
(0.368272 0.849377 0)
(0.300936 1.02059 -8.1584e-19)
(0.232436 1.96791 1.04545e-19)
(0.225805 2.99083 -3.62641e-19)
(0.252503 3.27425 7.74044e-19)
(0.232363 3.35533 5.8348e-19)
(0.179617 3.37533 -8.77334e-19)
(0.160594 3.38467 4.40055e-19)
(0.420112 0.467625 2.65629e-19)
(0.904137 0.933033 8.03783e-19)
(1.08637 1.13824 2.67251e-19)
(1.1057 1.20857 0)
(1.07363 1.22126 0)
(1.013 1.20477 6.28919e-20)
(0.943044 1.1742 6.50531e-20)
(0.866521 1.13438 3.42416e-19)
(0.772855 1.09158 2.23811e-20)
(0.664313 1.04348 9.97898e-19)
(0.554252 0.992666 -1.18197e-18)
(0.449489 0.93815 0)
(0.373319 0.93379 0)
(0.319609 1.38608 -5.52409e-19)
(0.284992 2.63345 -6.74345e-19)
(0.322883 3.20805 0)
(0.34062 3.34267 -8.63679e-19)
(0.266936 3.39355 -1.09447e-20)
(0.201026 3.42669 5.80584e-19)
(0.176919 3.44388 -2.46227e-19)
(0.417267 0.476562 -5.05472e-19)
(0.897857 0.953438 -3.86132e-19)
(1.07615 1.16282 0)
(1.09449 1.2332 0)
(1.06298 1.24533 0)
(1.003 1.22822 0)
(0.933091 1.1974 -7.69537e-20)
(0.856182 1.15847 2.94194e-19)
(0.761941 1.11704 0)
(0.653721 1.07084 -9.085e-19)
(0.540562 1.01961 2.11876e-18)
(0.440748 0.975807 8.6227e-20)
(0.379304 1.08085 1.13233e-19)
(0.345889 1.9033 8.92691e-19)
(0.337561 2.97937 -4.91625e-19)
(0.375267 3.30931 0)
(0.348943 3.40665 2.56015e-19)
(0.268138 3.47839 7.246e-20)
(0.219941 3.51989 4.74353e-20)
(0.185438 3.51351 9.48281e-20)
(0.413471 0.486499 2.398e-19)
(0.88907 0.970857 -3.94894e-19)
(1.06444 1.18554 0)
(1.0827 1.25837 -7.17019e-20)
(1.05172 1.27105 2.47923e-19)
(0.992107 1.25322 0)
(0.922248 1.22204 0)
(0.844641 1.18316 -5.06863e-19)
(0.750011 1.143 -5.77291e-20)
(0.641338 1.09908 8.86977e-19)
(0.528965 1.05236 -1.00782e-18)
(0.451613 1.03374 5.78922e-19)
(0.405265 1.31355 0)
(0.381783 2.34492 -4.71703e-19)
(0.402351 3.19022 3.07225e-19)
(0.449968 3.40287 2.13072e-19)
(0.422714 3.4783 0)
(0.365128 3.52815 1.72968e-20)
(0.316449 3.54043 -2.16265e-19)
(0.236726 3.47848 -3.6867e-20)
(0.410124 0.497178 -4.75947e-19)
(0.882098 0.994206 5.66362e-19)
(1.05317 1.21262 3.97425e-19)