/*--------------------------------*- C++ -*----------------------------------*\
  =========                 |
  \\      /  F ield         | OpenFOAM: The Open Source CFD Toolbox
   \\    /   O peration     | Website:  https://openfoam.org
    \\  /    A nd           | Version:  6
     \\/     M anipulation  |
\*---------------------------------------------------------------------------*/
FoamFile
{
    version     2.0;
    format      ascii;
    class       volVectorField;
    location    "24.8";
    object      U;
}
// * * * * * * * * * * * * * * * * * * * * * * * * * * * * * * * * * * * * * //

dimensions      [0 1 -1 0 0 0 0];

internalField   nonuniform List<vector> 
8800
(
(0.987186 -0.0766661 0)
(1.0019 -0.0551908 0)
(0.999761 -0.0285522 0)
(1.00005 -0.0151469 0)
(1.00005 -0.00854144 0)
(1.00003 -0.00503274 0)
(1 -0.00298599 0)
(0.999997 -0.00171114 0)
(1.00001 -0.000826559 0)
(1.00005 -0.000124983 0)
(1.00001 0.000571824 0)
(1.00001 0.00134303 0)
(1 0.00238036 0)
(1.00002 0.00396832 0)
(1.00004 0.00661352 0)
(1.00007 0.0113548 0)
(0.99999 0.0208014 0)
(0.999178 0.0386562 0)
(1.00708 0.0724498 0)
(0.771215 0.0366592 0)
(0.363061 -0.0160183 0)
(1.0433 -0.0768207 0)
(1.08462 -0.0704595 0)
(1.04522 -0.0535449 0)
(1.02326 -0.038884 0)
(1.0119 -0.0261962 0)
(1.00631 -0.0168584 0)
(1.00354 -0.0103998 0)
(1.00215 -0.00579372 0)
(1.0015 -0.00217315 0)
(1.00137 0.0011005 0)
(1.00175 0.00446717 0)
(1.0027 0.00841158 0)
(1.00465 0.0137494 0)
(1.00858 0.0214489 0)
(1.0166 0.0324505 0)
(1.03257 0.0463963 0)
(1.06276 0.0615593 0)
(1.09192 0.0760189 0)
(0.838799 0.0565307 0)
(0.216813 -0.00242815 0)
(1.07588 -0.0501323 0)
(1.09988 -0.0483241 0)
(1.06461 -0.0405153 0)
(1.03992 -0.0336924 0)
(1.02374 -0.0261914 0)
(1.01393 -0.0186063 0)
(1.00842 -0.011792 0)
(1.0055 -0.00600646 0)
(1.00429 -0.000734413 0)
(1.00464 0.00437183 0)
(1.00658 0.00971632 0)
(1.01057 0.0158904 0)
(1.01793 0.0230479 0)
(1.0306 0.0305685 0)
(1.05075 0.0376208 0)
(1.08053 0.0443106 0)
(1.10646 0.0511508 0)
(0.942888 0.0415178 0)
(0.216395 0.00244687 0)
(0.175145 -0.000814829 0)
(1.01766 -0.0354822 0)
(1.10516 -0.0413698 0)
(1.07814 -0.0360124 0)
(1.05321 -0.0300349 0)
(1.03587 -0.0244972 0)
(1.02372 -0.0189192 0)
(1.01563 -0.0130492 0)
(1.01086 -0.00699295 0)
(1.00877 -0.000722966 0)
(1.00937 0.00548318 0)
(1.01259 0.0114812 0)
(1.01883 0.0172649 0)
(1.02877 0.0227859 0)
(1.04327 0.0280974 0)
(1.0639 0.0336685 0)
(1.09385 0.0397814 0)
(1.09387 0.0416674 0)
(0.828004 0.0227788 0)
(0.174446 0.000836388 0)
(0.15397 -0.000606009 0)
(0.956184 -0.0254083 0)
(1.10342 -0.0350943 0)
(1.0876 -0.0326747 0)
(1.06146 -0.0280748 0)
(1.04369 -0.0230568 0)
(1.03125 -0.0178814 0)
(1.02254 -0.0125007 0)
(1.01686 -0.00672436 0)
(1.01412 -0.000476531 0)
(1.01489 0.00579739 0)
(1.01889 0.0116253 0)
(1.02586 0.0169402 0)
(1.03618 0.0219369 0)
(1.0509 0.0268203 0)
(1.07233 0.0314287 0)
(1.10065 0.0354001 0)
(1.06901 0.0335699 0)
(0.741199 0.0141065 0)
(0.152923 0.000630162 0)
(0.139668 -0.000459281 0)
(0.8995 -0.0189404 0)
(1.09563 -0.0298593 0)
(1.09534 -0.0289615 0)
(1.06875 -0.0252945 0)
(1.05031 -0.0212789 0)
(1.03742 -0.0166826 0)
(1.02834 -0.0116638 0)
(1.02226 -0.00622167 0)
(1.01929 -0.000109298 0)
(1.02004 0.00608313 0)
(1.02428 0.0115862 0)
(1.03154 0.0164653 0)
(1.04217 0.020977 0)
(1.05738 0.0249579 0)
(1.0796 0.0284626 0)
(1.10298 0.0312076 0)
(1.0377 0.0273983 0)
(0.675842 0.00991503 0)
(0.138199 0.000487312 0)
(0.129249 -0.000352489 0)
(0.850359 -0.0144985 0)
(1.08347 -0.0256351 0)
(1.10112 -0.0258701 0)
(1.07543 -0.022568 0)
(1.05623 -0.0190796 0)
(1.04284 -0.0151934 0)
(1.03347 -0.0106025 0)
(1.02729 -0.00538899 0)
(1.02419 0.000423502 0)
(1.02484 0.006216 0)
(1.02904 0.0114128 0)
(1.03635 0.015935 0)
(1.04727 0.0197226 0)
(1.06306 0.0229784 0)
(1.08603 0.0260387 0)
(1.10273 0.0280246 0)
(1.00413 0.0226457 0)
(0.625654 0.00745288 0)
(0.127266 0.000385781 0)
(0.12141 -0.000264069 0)
(0.809092 -0.0111227 0)
(1.06824 -0.0216487 0)
(1.10433 -0.0229861 0)
(1.08138 -0.0203502 0)
(1.06174 -0.0171216 0)
(1.04794 -0.0134272 0)
(1.03817 -0.00920253 0)
(1.03161 -0.00439783 0)
(1.02823 0.00100541 0)
(1.02882 0.00637431 0)
(1.03314 0.0110761 0)
(1.04071 0.0150512 0)
(1.05193 0.0184811 0)
(1.06806 0.0214661 0)
(1.0913 0.0240933 0)
(1.0994 0.0250441 0)
(0.970733 0.0186089 0)
(0.586389 0.0057468 0)
(0.118806 0.000303961 0)
(0.115523 -0.00019785 0)
(0.775191 -0.00853516 0)
(1.05202 -0.0180181 0)
(1.10628 -0.0198557 0)
(1.08656 -0.0174897 0)
(1.06669 -0.014567 0)
(1.05271 -0.01135 0)
(1.0427 -0.00763707 0)
(1.03595 -0.00330385 0)
(1.03247 0.00174808 0)
(1.03287 0.00675623 0)
(1.03706 0.0109047 0)
(1.04464 0.0142583 0)
(1.05594 0.0170583 0)
(1.07221 0.0194925 0)
(1.09515 0.0217971 0)
(1.09372 0.0221858 0)
(0.939416 0.0153314 0)
(0.555205 0.00451349 0)
(0.112161 0.000246333 0)
(0.111162 -0.000139855 0)
(0.747957 -0.00635437 0)
(1.03596 -0.0145793 0)
(1.10765 -0.0169233 0)
(1.09167 -0.0149405 0)
(1.07141 -0.0122442 0)
(1.05724 -0.00932111 0)
(1.04718 -0.00586929 0)
(1.04023 -0.0018662 0)
(1.03642 0.00264986 0)
(1.03671 0.00703268 0)
(1.04083 0.010629 0)
(1.04828 0.0135265 0)
(1.05945 0.0158258 0)
(1.07598 0.0178678 0)
(1.09823 0.019783 0)
(1.08637 0.0194734 0)
(0.910931 0.0124742 0)
(0.530441 0.00353432 0)
(0.106874 0.000198709 0)
(0.108069 -9.26707e-05 0)
(0.726764 -0.00453516 0)
(1.02076 -0.011332 0)
(1.10772 -0.0139384 0)
(1.09602 -0.0125016 0)
(1.07538 -0.0101451 0)
(1.06084 -0.00743065 0)
(1.05066 -0.00416944 0)
(1.0437 -0.000410913 0)
(1.03977 0.00372566 0)
(1.0397 0.00764061 0)
(1.04341 0.0107583 0)
(1.05061 0.0131848 0)
(1.06187 0.0151198 0)
(1.07881 0.0167405 0)
(1.09962 0.0179978 0)
(1.07737 0.0169035 0)
(0.885691 0.0100866 0)
(0.510778 0.00278229 0)
(0.102642 0.000166165 0)
(0.106072 -4.68803e-05 0)
(0.711305 -0.00279789 0)
(1.00753 -0.00799485 0)
(1.1069 -0.0105201 0)
(1.09961 -0.0094554 0)
(1.07923 -0.00731772 0)
(1.06459 -0.00484919 0)
(1.05409 -0.00199128 0)
(1.04666 0.0012755 0)
(1.04233 0.00501717 0)
(1.04194 0.00849968 0)
(1.04561 0.0109549 0)
(1.05282 0.0126499 0)
(1.06398 0.0139322 0)
(1.08071 0.0150494 0)
(1.09952 0.0157709 0)
(1.06754 0.0141175 0)
(0.864177 0.00783285 0)
(0.495547 0.00209991 0)
(0.0992406 0.000136735 0)
(0.10524 6.21537e-06 0)
(0.701448 -0.00118586 0)
(0.99694 -0.00477646 0)
(1.10577 -0.00699548 0)
(1.10285 -0.00611924 0)
(1.08272 -0.00434627 0)
(1.06797 -0.00228596 0)
(1.05753 0.000355984 0)
(1.05026 0.00337766 0)
(1.04577 0.00663729 0)
(1.04484 0.00947048 0)
(1.04774 0.0113647 0)
(1.05435 0.0124481 0)
(1.06526 0.0130546 0)
(1.08211 0.0135004 0)
(1.09865 0.0137013 0)
(1.05755 0.0115619 0)
(0.846419 0.00587438 0)
(0.484344 0.00153073 0)
(0.0966593 0.000105565 0)
(0.105448 4.92025e-05 0)
(0.696464 5.47473e-05 0)
(0.989002 -0.00205795 0)
(1.10435 -0.00397629 0)
(1.10525 -0.0034804 0)
(1.08548 -0.00195317 0)
(1.0706 4.00027e-05 0)
(1.05993 0.0026252 0)
(1.05224 0.00550411 0)
(1.04727 0.00853499 0)
(1.04588 0.0110178 0)
(1.0484 0.0124557 0)
(1.05475 0.0131703 0)
(1.06542 0.0133106 0)
(1.08192 0.013133 0)
(1.09636 0.0125371 0)
(1.04726 0.00971218 0)
(0.831888 0.00460101 0)
(0.476063 0.00122776 0)
(0.0947317 8.66597e-05 0)
(0.106458 8.2957e-05 0)
(0.695209 0.000850589 0)
(0.9838 -3.41261e-05 0)
(1.1028 -0.00141453 0)
(1.10723 -0.0010452 0)
(1.08839 0.000254266 0)
(1.07373 0.00234569 0)
(1.06314 0.00498846 0)
(1.05527 0.00794802 0)
(1.0498 0.0109128 0)
(1.04772 0.0131611 0)
(1.04952 0.0142415 0)
(1.05509 0.0143864 0)
(1.06503 0.0140223 0)
(1.08088 0.0134402 0)
(1.09257 0.012135 0)
(1.03682 0.00882928 0)
(0.81971 0.00423263 0)
(0.469006 0.00124196 0)
(0.0930365 9.05507e-05 0)
(0.107916 0.000104262 0)
(0.696251 0.00132361 0)
(0.981508 0.001447 0)
(1.10188 0.000932136 0)
(1.1091 0.00149356 0)
(1.09114 0.00292234 0)
(1.0767 0.00514365 0)
(1.06597 0.00790797 0)
(1.05771 0.0109267 0)
(1.05163 0.0138487 0)
(1.04867 0.0158722 0)
(1.04959 0.0164483 0)
(1.05441 0.0160588 0)
(1.06382 0.0151151 0)
(1.07895 0.0139693 0)
(1.08791 0.0122806 0)
(1.02662 0.00882785 0)
(0.808637 0.00457074 0)
(0.461659 0.0014406 0)
(0.0911701 0.000108672 0)
(0.109829 0.000129449 0)
(0.699139 0.00181618 0)
(0.981936 0.00260471 0)
(1.10272 0.0030811 0)
(1.11167 0.00443773 0)
(1.09437 0.00634173 0)
(1.07994 0.00892622 0)
(1.06911 0.0118306 0)
(1.06038 0.0148473 0)
(1.05349 0.0175067 0)
(1.04944 0.0189848 0)
(1.04934 0.0189947 0)
(1.05327 0.0180878 0)
(1.06175 0.0166671 0)
(1.07628 0.0150417 0)
(1.08287 0.0130653 0)
(1.01699 0.00971994 0)
(0.797195 0.00530355 0)
(0.45321 0.00170621 0)
(0.0889315 0.000133693 0)
(0.112295 0.000163247 0)
(0.703665 0.00246037 0)
(0.98405 0.00370227 0)
(1.1055 0.0047278 0)
(1.11584 0.00674039 0)
(1.09842 0.00935578 0)
(1.08367 0.0125777 0)
(1.07237 0.01598 0)
(1.06299 0.0192727 0)
(1.05505 0.0219909 0)
(1.04971 0.0231542 0)
(1.04844 0.0226364 0)
(1.05146 0.0210466 0)
(1.05934 0.0192639 0)
(1.07309 0.0174339 0)
(1.07776 0.0153911 0)
(1.00669 0.0114989 0)
(0.783974 0.00616815 0)
(0.443376 0.00201075 0)
(0.0862159 0.000165382 0)
(0.115479 0.000209271 0)
(0.710307 0.003387 0)
(0.987093 0.00529478 0)
(1.10906 0.00631604 0)
(1.12087 0.00838075 0)
(1.10347 0.0114495 0)
(1.08819 0.0154869 0)
(1.07627 0.0197799 0)
(1.06599 0.0240241 0)
(1.05665 0.0274921 0)
(1.04977 0.0290732 0)
(1.04711 0.0286898 0)
(1.04892 0.0269735 0)
(1.05623 0.0245982 0)
(1.06965 0.0221052 0)
(1.07126 0.0191333 0)
(0.993316 0.0134952 0)
(0.768585 0.00696651 0)
(0.432173 0.00233469 0)
(0.082971 0.000198656 0)
(0.119674 0.000275859 0)
(0.720136 0.00470584 0)
(0.991343 0.00774614 0)
(1.11214 0.00864954 0)
(1.12595 0.0103915 0)
(1.10949 0.0136708 0)
(1.09394 0.0184863 0)
(1.08145 0.0240954 0)
(1.07003 0.0297194 0)
(1.05898 0.0343531 0)
(1.05028 0.0366923 0)
(1.04596 0.0365817 0)
(1.04624 0.0348849 0)
(1.05203 0.0321102 0)
(1.06394 0.0284341 0)
(1.06046 0.0230447 0)
(0.976002 0.0152521 0)
(0.751505 0.0078609 0)
(0.419478 0.00273008 0)
(0.0791388 0.000236801 0)
(0.125303 0.000375829 0)
(0.734351 0.00650889 0)
(0.998336 0.0111515 0)
(1.11483 0.0128765 0)
(1.13076 0.0144057 0)
(1.11604 0.017861 0)
(1.10129 0.023732 0)
(1.08817 0.0306904 0)
(1.07516 0.0374963 0)
(1.06192 0.0429368 0)
(1.05094 0.0454473 0)
(1.04466 0.0449987 0)
(1.04303 0.0426513 0)
(1.0467 0.0390003 0)
(1.05445 0.0336396 0)
(1.04472 0.0259509 0)
(0.956227 0.0168596 0)
(0.733102 0.00904174 0)
(0.404915 0.00321812 0)
(0.0746481 0.000278258 0)
(0.132939 0.000521482 0)
(0.754256 0.00888923 0)
(1.01017 0.0156334 0)
(1.11935 0.0191157 0)
(1.13576 0.0213815 0)
(1.12396 0.0261037 0)
(1.11007 0.0330281 0)
(1.09595 0.0408665 0)
(1.08085 0.0482228 0)
(1.06487 0.0536271 0)
(1.05112 0.055353 0)
(1.04243 0.0536301 0)
(1.0385 0.049735 0)
(1.03909 0.0444411 0)
(1.04166 0.0373461 0)
(1.02654 0.0284629 0)
(0.935796 0.0190666 0)
(0.712983 0.0107114 0)
(0.3879 0.00384256 0)
(0.0693923 0.000326334 0)
(0.143302 0.000736033 0)
(0.780952 0.012198 0)
(1.02849 0.0214536 0)
(1.12882 0.0273641 0)
(1.14362 0.0319826 0)
(1.13374 0.0386111 0)
(1.11987 0.0466433 0)
(1.10413 0.0550159 0)
(1.08637 0.0623043 0)
(1.06704 0.0667911 0)
(1.04997 0.066758 0)
(1.03837 0.0629048 0)
(1.03175 0.056886 0)
(1.02889 0.049575 0)
(1.02698 0.0412086 0)
(1.00787 0.0319313 0)
(0.914747 0.0223061 0)
(0.690101 0.0128889 0)
(0.367646 0.0046157 0)
(0.0631895 0.000382419 0)
(0.157658 0.00108027 0)
(0.816237 0.0170945 0)
(1.05485 0.0293209 0)
(1.1449 0.038079 0)
(1.15638 0.0458803 0)
(1.1459 0.0548508 0)
(1.1307 0.0643267 0)
(1.11236 0.0731794 0)
(1.09113 0.079938 0)
(1.06779 0.0828145 0)
(1.04688 0.0803236 0)
(1.03204 0.0738563 0)
(1.02246 0.0654849 0)
(1.01642 0.0562656 0)
(1.01114 0.0468297 0)
(0.98882 0.0371703 0)
(0.891765 0.0267868 0)
(0.662959 0.0156473 0)
(0.343405 0.00551777 0)
(0.055951 0.000442585 0)
(0.178182 0.00169635 0)
(0.863215 0.0248501 0)
(1.09098 0.0408529 0)
(1.16811 0.0526702 0)
(1.17459 0.0641512 0)
(1.16107 0.0757602 0)
(1.14257 0.0867071 0)
(1.12026 0.0957522 0)
(1.09465 0.101469 0)
(1.06668 0.102115 0)
(1.04154 0.0966688 0)
(1.02326 0.0873557 0)
(1.01068 0.076566 0)
(1.00189 0.0655349 0)
(0.993973 0.05494 0)
(0.968305 0.0444772 0)
(0.865203 0.0325812 0)
(0.63032 0.0190516 0)
(0.314617 0.00658286 0)
(0.0476155 0.000503697 0)
(0.208112 0.00306422 0)
(0.927382 0.0382478 0)
(1.13877 0.0599307 0)
(1.19887 0.074627 0)
(1.19785 0.09009 0)
(1.17874 0.103695 0)
(1.15491 0.115281 0)
(1.12725 0.123608 0)
(1.09637 0.127393 0)
(1.06332 0.125026 0)
(1.03374 0.116115 0)
(1.01198 0.103752 0)
(0.996504 0.0905328 0)
(0.985245 0.0776691 0)
(0.974902 0.0657401 0)
(0.945012 0.0539959 0)
(0.833365 0.0397948 0)
(0.591115 0.0231128 0)
(0.281486 0.0078097 0)
(0.0384572 0.000554225 0)
(0.249379 0.00942525 -1.99527e-21)
(1.01216 0.0652099 -1.4733e-21)
(1.19522 0.0927069 3.80747e-22)
(1.23538 0.110188 0)
(1.22339 0.127577 -3.04988e-36)
(1.19682 0.14123 7.63808e-23)
(1.16635 0.151709 -3.30972e-22)
(1.13245 0.15806 0)
(1.09567 0.159035 1.10488e-35)
(1.05697 0.153101 -8.12579e-22)
(1.02255 0.140488 0)
(0.996897 0.125048 -1.1408e-21)
(0.978248 0.109479 -3.47787e-21)
(0.96427 0.0948851 -1.67967e-21)
(0.951133 0.0817121 -5.26595e-22)
(0.916375 0.0689169 -3.18236e-22)
(0.792538 0.0515516 0)
(0.541829 0.0300532 2.27839e-22)
(0.243754 0.0110674 2.70436e-22)
(0.0299867 0.00117851 4.85993e-21)
(0.276435 0.025176 -4.20967e-21)
(1.08193 0.108434 1.03285e-22)
(1.24241 0.140415 -2.22275e-22)
(1.26847 0.159352 0)
(1.24641 0.175413 2.19565e-22)
(1.21255 0.18748 6.8619e-24)
(1.17528 0.19611 -2.44872e-22)
(1.1349 0.200269 -1.51071e-21)
(1.09174 0.198627 0)
(1.04652 0.189504 3.4506e-21)
(1.00609 0.173604 3.76726e-21)
(0.97536 0.155478 1.20189e-21)
(0.952393 0.137842 4.70343e-21)
(0.934621 0.121585 6.88757e-21)
(0.91701 0.106823 0)
(0.875507 0.0919006 1.01816e-20)
(0.742962 0.070844 1.4843e-20)
(0.492052 0.0436982 1.66117e-20)
(0.213885 0.018259 -1.91651e-20)
(0.0243232 0.00209729 -3.59387e-22)
(0.27559 0.0414707 0)
(1.1249 0.164561 -1.35862e-21)
(1.27625 0.199785 0)
(1.2941 0.218487 2.0161e-21)
(1.26449 0.231102 0)
(1.22429 0.239824 7.08687e-22)
(1.18076 0.245279 3.51859e-22)
(1.13424 0.246262 -2.41089e-21)
(1.08508 0.241305 -3.16072e-22)
(1.0338 0.228749 1.69289e-21)
(0.987756 0.209645 8.75507e-21)
(0.95247 0.189199 -6.16709e-23)
(0.925715 0.170032 -3.52872e-21)
(0.904599 0.152683 -6.80867e-21)
(0.883951 0.137128 8.2347e-21)
(0.840566 0.120757 -1.48e-20)
(0.713478 0.0960028 -2.02097e-21)
(0.477646 0.0632014 0)
(0.218787 0.0289719 1.04109e-23)
(0.0278637 0.00387317 0)
(0.267936 0.0553477 -3.49297e-20)
(1.14664 0.224123 1.42329e-20)
(1.29781 0.264281 7.47548e-21)
(1.31091 0.282326 -1.37057e-21)
(1.27613 0.291126 2.06991e-21)
(1.23111 0.295937 -1.83772e-21)
(1.18249 0.297564 5.75421e-22)
(1.13069 0.294801 0)
(1.07614 0.286148 -6.92294e-21)
(1.01944 0.269872 0)
(0.968489 0.247611 -4.49824e-21)
(0.929268 0.224982 -6.23542e-21)
(0.8994 0.204522 -3.95985e-21)
(0.875798 0.186456 -5.07762e-21)
(0.853313 0.170181 0)
(0.810945 0.152936 0)
(0.695542 0.125385 -1.35982e-20)
(0.480266 0.0872641 2.71936e-21)
(0.233264 0.0428324 -1.58126e-21)
(0.0338021 0.00657216 -1.87137e-21)
(0.259978 0.0677694 2.62682e-20)
(1.15496 0.283419 0)
(1.30988 0.329934 -2.12692e-20)
(1.31998 0.34739 -5.27883e-21)
(1.28159 0.352564 -3.78599e-21)
(1.23293 0.353536 0)
(1.18036 0.351262 -1.14749e-22)
(1.12428 0.344619 2.30794e-21)
(1.06517 0.332133 3.13085e-21)
(1.00374 0.312047 8.55432e-21)
(0.948612 0.286549 0)
(0.906222 0.261735 -1.36283e-20)
(0.873981 0.239974 -8.67497e-21)
(0.848561 0.221237 -5.22769e-21)
(0.825043 0.204628 3.4067e-20)
(0.784811 0.186553 4.17979e-21)
(0.681349 0.157152 1.99381e-20)
(0.4849 0.112869 -9.5997e-20)
(0.246394 0.058445 5.71657e-20)
(0.0390732 0.00965071 -6.97871e-20)
(0.252868 0.078973 2.80541e-20)
(1.15499 0.340628 -5.12156e-21)
(1.31513 0.395254 3.79942e-21)
(1.32301 0.411927 1.01394e-20)
(1.2819 0.413746 6.01243e-21)
(1.23048 0.411031 3.41299e-22)
(1.17477 0.405023 8.7218e-24)
(1.11518 0.394621 1.93826e-21)
(1.05227 0.378337 -6.88087e-21)
(0.986856 0.354432 0)
(0.928213 0.325643 -5.88865e-21)
(0.883273 0.298564 -3.11854e-22)
(0.849302 0.275395 -9.71296e-21)
(0.822691 0.255893 0)
(0.798716 0.238948 -7.45045e-21)
(0.760724 0.220296 -1.81345e-20)
(0.667107 0.189296 4.99936e-20)
(0.485145 0.138744 -4.97517e-20)
(0.25335 0.0737875 7.09443e-20)
(0.0424677 0.0126511 -7.47025e-20)
(0.247187 0.0894386 -1.06746e-22)
(1.15004 0.395166 6.34869e-21)
(1.31508 0.458521 1.83295e-20)
(1.32134 0.474802 -6.29734e-21)
(1.2782 0.473633 3.46671e-21)
(1.2246 0.46751 0)
(1.16633 0.45801 1.22175e-21)
(1.10382 0.444027 -1.70579e-21)
(1.03767 0.424073 -3.23658e-21)
(0.968855 0.396379 0)
(0.907183 0.364236 -5.81375e-21)
(0.860163 0.33472 -8.05949e-21)
(0.824929 0.309911 1.06433e-20)
(0.797663 0.289437 -6.7841e-21)
(0.77375 0.271933 -3.2898e-20)
(0.737983 0.25262 2.02036e-20)
(0.651502 0.219811 6.33063e-21)
(0.479883 0.162668 0)
(0.253563 0.0869829 -6.90385e-20)
(0.0435066 0.0150875 -2.56888e-21)
(0.242895 0.099461 4.66583e-21)
(1.14218 0.446874 -7.35213e-21)
(1.31121 0.519213 -1.00645e-20)
(1.31615 0.535407 -1.9349e-20)
(1.2714 0.531592 1.71013e-20)
(1.2161 0.52239 -8.58362e-21)
(1.15572 0.509675 -2.54347e-21)
(1.0907 0.492355 -2.58956e-21)
(1.02172 0.468894 2.95786e-21)
(0.949806 0.437494 -2.10643e-20)
(0.885553 0.401925 -7.09174e-21)
(0.836752 0.369736 0)
(0.800535 0.342977 1.16509e-20)
(0.77298 0.321137 1.43809e-20)
(0.749413 0.302664 1.7684e-20)
(0.715574 0.282296 -2.20605e-20)
(0.634286 0.247076 -6.6399e-21)
(0.469606 0.182998 7.87376e-21)
(0.248935 0.0974152 0)
(0.0428596 0.016843 -5.60135e-21)
(0.239777 0.109135 -5.45734e-20)
(1.1329 0.495825 3.38429e-20)
(1.30462 0.577107 1.11319e-20)
(1.30835 0.5934 -1.48829e-20)
(1.26233 0.587253 1.03643e-20)
(1.20563 0.575302 -8.00137e-22)
(1.14347 0.559684 2.37271e-21)
(1.07628 0.539295 -1.04679e-21)
(1.00476 0.512541 -5.80956e-21)
(0.930027 0.477562 4.11612e-23)
(0.863301 0.438491 -2.13236e-20)
(0.813029 0.403451 2.04718e-20)
(0.776111 0.374491 -1.30484e-20)
(0.748422 0.350901 1.61929e-20)
(0.725257 0.331067 0)
(0.69292 0.309263 -1.19853e-20)
(0.615164 0.270923 -2.15282e-22)
(0.455178 0.200011 -3.44661e-20)
(0.240098 0.105055 -5.1033e-21)
(0.0409045 0.0178831 0)
(0.237681 0.118642 0)
(1.12299 0.542263 3.6898e-20)
(1.29609 0.632151 2.61391e-20)
(1.29865 0.648621 1.68921e-20)
(1.25157 0.640402 9.87799e-21)
(1.19372 0.626026 0)
(1.13007 0.607814 2.8353e-21)
(1.06098 0.584644 -2.44552e-22)
(0.987151 0.554864 1.23867e-20)
(0.909777 0.516461 -2.63399e-21)
(0.840699 0.473909 -1.56193e-20)
(0.788978 0.435765 1.03003e-20)
(0.751388 0.404275 -4.00723e-22)
(0.723583 0.37867 1.70788e-20)
(0.700833 0.357131 1.11151e-20)
(0.669632 0.333425 -2.60798e-20)
(0.594082 0.291328 3.1506e-20)
(0.437395 0.213431 9.42074e-21)
(0.228058 0.110157 3.90875e-20)
(0.0379375 0.0182458 -1.05768e-19)
(0.236466 0.128089 -1.41515e-20)
(1.11299 0.586343 2.14103e-20)
(1.28624 0.684373 -1.64657e-20)
(1.28764 0.701025 -1.97681e-20)
(1.23968 0.690952 0)
(1.18086 0.674439 7.91276e-21)
(1.11592 0.653932 -7.94377e-21)
(1.04515 0.628278 1.32282e-21)
(0.96919 0.595757 0)
(0.889286 0.554164 -4.04401e-20)
(0.817799 0.508126 4.25985e-20)
(0.764417 0.466795 0)
(0.726096 0.432437 1.54421e-20)
(0.698211 0.404455 -4.0076e-22)
(0.675824 0.380909 -3.52082e-20)
(0.645355 0.35488 1.38618e-20)
(0.570986 0.308428 0)
(0.416881 0.223349 5.10371e-20)
(0.213611 0.112897 0)
(0.0343569 0.0179995 -5.03515e-20)
(0.235948 0.137492 1.58361e-20)
(1.10324 0.628217 2.4576e-20)
(1.27554 0.733793 -1.72725e-20)
(1.27577 0.750609 0)
(1.22706 0.738886 1.39032e-20)
(1.16742 0.720497 0)
(1.10135 0.697965 1.10229e-20)
(1.02907 0.67012 8.06642e-22)
(0.951111 0.635162 1.49458e-21)
(0.868665 0.590625 -1.99979e-20)
(0.794605 0.541248 4.1708e-21)
(0.739493 0.496556 0)
(0.70026 0.459151 -3.28799e-20)
(0.672214 0.428539 4.12753e-22)
(0.650081 0.402674 0)
(0.619929 0.373883 4.79893e-22)
(0.545787 0.32241 4.63597e-20)
(0.393693 0.229796 -4.45528e-20)
(0.197163 0.113208 1.32146e-20)
(0.0302943 0.0171543 0)
(0.235783 0.146731 0)
(1.09388 0.668007 2.75997e-20)
(1.26433 0.780494 2.03963e-20)
(1.26338 0.797427 -4.53177e-22)
(1.21402 0.784226 8.83511e-21)
(1.15368 0.764196 1.87817e-20)
(1.08665 0.739896 -3.46325e-21)
(1.01299 0.71014 -1.77097e-22)
(0.933118 0.673053 8.12043e-21)
(0.848111 0.625889 -3.13447e-20)
(0.771378 0.573354 -6.5959e-22)
(0.71425 0.525293 -1.35633e-20)
(0.673899 0.484601 5.38544e-20)
(0.645499 0.451075 -4.90099e-22)
(0.623507 0.422572 -2.77087e-20)
(0.593273 0.390493 -5.05781e-20)
(0.518572 0.333296 0)
(0.368129 0.232896 0)
(0.17902 0.111019 1.44148e-20)
(0.0259202 0.0157615 -8.55674e-21)
(0.236085 0.155929 1.98509e-20)
(1.08506 0.70551 -6.06434e-20)
(1.25286 0.824571 -2.19047e-20)
(1.25074 0.841545 0)
(1.20083 0.827024 -3.20504e-22)
(1.13991 0.805562 2.28869e-20)
(1.07202 0.77973 -1.22165e-20)
(0.99712 0.748333 -3.34222e-21)
(0.915435 0.709438 9.00491e-21)
(0.82789 0.660015 -2.44016e-20)
(0.748263 0.60457 -3.62252e-20)
(0.688737 0.553147 3.62088e-20)
(0.646951 0.508987 0)
(0.618024 0.47224 -1.24735e-20)
(0.59603 0.440712 -3.03741e-20)
(0.56533 0.404757 -3.6607e-20)
(0.48931 0.340978 -4.43125e-20)
(0.340351 0.232545 1.32438e-20)
(0.15937 0.106268 -7.79788e-21)
(0.021237 0.0138173 7.66715e-23)
(0.236522 0.16487 0)
(1.0768 0.741303 0)
(1.24133 0.866108 5.38414e-22)
(1.23805 0.883053 0)
(1.18769 0.867362 -3.35519e-20)
(1.12627 0.84465 -2.04507e-20)
(1.05766 0.817491 0)
(0.981637 0.784713 -1.15982e-21)
(0.898259 0.744322 1.25509e-20)
(0.80816 0.693013 -5.61164e-20)
(0.725401 0.635 0)
(0.663138 0.580348 -2.32438e-20)
(0.619459 0.532569 -5.98803e-22)
(0.589695 0.492208 -4.90807e-22)
(0.567542 0.457203 3.24327e-20)
(0.536017 0.416661 -8.29757e-23)
(0.458042 0.34538 -9.61246e-20)
(0.310341 0.228557 2.87605e-20)
(0.138444 0.0990175 8.55532e-21)
(0.0164505 0.0114251 0)
(0.236987 0.173596 -7.36219e-20)
(1.06885 0.775341 -3.7448e-20)
(1.22983 0.905189 -5.54197e-20)
(1.22548 0.92205 7.63257e-20)
(1.17473 0.905304 -6.32711e-20)
(1.11291 0.881514 0)
(1.0437 0.853224 -1.08122e-20)
(0.966678 0.819302 2.06367e-21)
(0.88171 0.777715 7.69913e-22)
(0.789072 0.724913 4.38888e-21)
(0.70301 0.664728 4.57231e-20)
(0.637576 0.60711 -7.98283e-21)
(0.591488 0.555594 -3.33108e-20)
(0.560421 0.511234 -1.48011e-20)
(0.53789 0.472079 1.80051e-20)
(0.505261 0.426038 -5.94621e-23)
(0.424975 0.346284 2.62651e-20)
(0.278448 0.220838 -6.23152e-20)
(0.116941 0.089577 7.42636e-20)
(0.0117653 0.00873834 1.09218e-20)
(0.237196 0.182007 2.71543e-20)
(1.06123 0.8077 -2.05774e-20)
(1.21849 0.941926 1.25516e-21)
(1.21314 0.958653 4.33734e-20)
(1.16208 0.940956 1.49043e-20)
(1.09995 0.91622 4.11421e-20)
(1.03024 0.886969 -4.93601e-21)
(0.95234 0.852116 1.03389e-20)
(0.865897 0.809613 -9.55396e-21)
(0.770784 0.755726 -3.11794e-20)
(0.681273 0.693836 0)
(0.612256 0.633576 -3.5869e-20)
(0.563097 0.578405 4.83734e-20)
(0.530069 0.529616 0)
(0.506769 0.485358 -3.85669e-20)
(0.472869 0.432501 2.37674e-20)
(0.390287 0.343112 -2.83694e-20)
(0.245762 0.209334 -3.3961e-20)
(0.0958536 0.0784514 -6.0289e-20)
(0.0074445 0.00595006 -4.76258e-20)
(0.237704 0.190203 -2.99721e-20)
(1.05379 0.838368 2.20274e-20)
(1.20739 0.976391 5.21792e-20)
(1.2011 0.992945 5.98368e-20)
(1.14981 0.974401 -3.12327e-20)
(1.08745 0.948845 2.86354e-20)
(1.01735 0.918776 -1.53275e-20)
(0.938697 0.883194 1.34305e-20)
(0.850907 0.840036 -4.46086e-21)
(0.75342 0.785454 3.03571e-20)
(0.660354 0.722359 9.79112e-20)
(0.587373 0.6599 0)
(0.534477 0.601309 0)
(0.498527 0.547856 -1.71408e-20)
(0.473644 0.497187 0)
(0.43827 0.435295 5.16565e-20)
(0.354183 0.334689 6.17807e-20)
(0.21365 0.193617 0)
(0.0765939 0.0661335 0)
(0.00378413 0.00330852 5.16554e-20)
(0.237816 0.197857 3.32084e-20)
(1.04657 0.867339 2.66084e-20)
(1.19657 1.0087 3.76143e-20)
(1.18943 1.02505 -5.37068e-20)
(1.13798 1.00574 -3.49995e-20)
(1.07547 0.979462 -3.82475e-20)
(1.00509 0.948703 2.28801e-20)
(0.925807 0.912566 8.97093e-23)
(0.83681 0.868986 -9.9721e-22)
(0.737067 0.814075 -1.205e-21)
(0.640434 0.750306 4.98119e-20)
(0.563158 0.686154 0)
(0.50588 0.624578 4.90344e-20)
(0.46581 0.566559 3.62926e-20)
(0.437779 0.508093 9.191e-20)
(0.400125 0.43368 2.79257e-20)
(0.316331 0.318677 -3.38697e-20)
(0.184846 0.171646 -1.98937e-20)
(0.0633547 0.0525138 0)
(0.00177058 0.00111051 5.5962e-20)
(0.238244 0.205474 -7.3381e-20)
(1.03953 0.894733 0)
(1.18605 1.03891 4.22577e-20)
(1.17815 1.05505 -4.41835e-20)
(1.12664 1.03506 3.988e-20)
(1.06403 1.00815 5.62513e-20)
(0.993489 0.976805 -5.36389e-20)
(0.913694 0.940264 3.05846e-22)
(0.823633 0.896472 0)
(0.721799 0.841549 -2.9412e-20)
(0.621665 0.777662 -1.04248e-19)
(0.539858 0.712367 4.97183e-21)
(0.477686 0.648401 6.70058e-20)
(0.432118 0.586389 0)
(0.398458 0.519231 6.22436e-20)
(0.356055 0.427959 0)
(0.273456 0.29187 0)
(0.161033 0.134128 -2.20088e-20)
(0.0758106 0.0253677 0)
(0.0237786 0.00584117 1.50787e-20)
(0.238199 0.212452 -8.05357e-20)
(1.03267 0.92083 0)
(1.17581 1.06722 6.87038e-20)
(1.16724 1.08318 0)
(1.11574 1.06261 -2.17792e-20)
(1.05309 1.03519 0)
(0.982477 1.00339 -4.08341e-21)
(0.902266 0.966623 -2.46717e-21)
(0.811263 0.922859 3.38469e-22)
(0.707466 0.868262 -2.96646e-20)
(0.603919 0.804864 2.79529e-21)
(0.51733 0.73911 4.10763e-20)
(0.449696 0.673332 6.51038e-20)
(0.397076 0.60833 9.23303e-21)
(0.354418 0.532662 4.89403e-20)
(0.302366 0.420869 0)
(0.214594 0.256179 7.36152e-20)
(0.114275 0.0733079 -4.35462e-20)
(0.0381197 0.0607089 5.02659e-20)
(-0.0362237 0.433178 -5.96317e-20)
(0.238091 0.219199 6.58816e-20)
(1.02578 0.945496 1.02205e-19)
(1.1658 1.09396 0)
(1.15657 1.10986 1.07864e-21)
(1.10511 1.08896 5.93798e-20)
(1.04239 1.06125 -1.09957e-19)
(0.971765 1.02924 -2.39842e-20)
(0.891149 0.992574 0)
(0.799217 0.94924 -2.25322e-21)
(0.693447 0.895521 -1.03791e-21)
(0.586353 0.833392 0)
(0.494484 0.768185 0)
(0.420638 0.701186 5.73688e-20)
(0.359385 0.634234 -2.88706e-20)
(0.303425 0.551948 -4.91184e-20)
(0.235531 0.418759 0)
(0.119887 0.238866 3.78751e-20)
(0.0165551 0.452694 -4.42667e-20)
(0.0397241 1.87223 -2.41479e-20)
(0.0679414 2.79561 -2.97666e-20)
(0.237645 0.225342 -4.85437e-20)
(1.01892 0.968908 -1.2955e-19)
(1.15601 1.11912 3.99118e-20)
(1.14615 1.13495 3.80138e-20)
(1.09484 1.11391 0)
(1.03202 1.08607 -7.90597e-20)
(0.961542 1.05404 -4.05429e-20)
(0.880511 1.01769 1.725e-21)
(0.787743 0.975093 -2.5167e-22)
(0.680096 0.922702 2.38608e-20)
(0.569549 0.862499 4.75065e-20)
(0.4723 0.79914 4.2911e-20)
(0.39169 0.731425 5.66484e-20)
(0.321324 0.66255 -6.62691e-20)
(0.25218 0.579603 -7.31445e-20)
(0.156383 0.451056 0)
(0.058251 0.851432 0)
(0.106307 2.54231 1.9952e-20)
(0.109703 3.18805 0)
(0.110135 3.3807 5.03545e-20)
(0.239948 0.231051 0)
(1.01234 0.991369 0)
(1.14618 1.14256 0)
(1.1358 1.15827 1.06506e-20)
(1.08464 1.13726 5.33851e-20)
(1.02175 1.1095 -6.07315e-20)
(0.951734 1.0777 -2.91928e-20)
(0.870282 1.04185 1.99783e-21)
(0.776777 1.00025 -9.29291e-21)
(0.667405 0.949639 -2.1016e-21)
(0.553583 0.891957 8.71745e-20)
(0.45118 0.831897 -5.04481e-21)
(0.363287 0.764537 6.47371e-21)
(0.285018 0.690386 9.50629e-21)
(0.197343 0.613719 2.74612e-22)
(0.119317 0.991756 3.23131e-22)
(0.149846 2.69564 -1.01575e-19)
(0.160286 3.28817 -3.83768e-20)
(0.146607 3.42412 1.8924e-20)
(0.131735 3.44614 -2.03139e-20)
(0.161962 0.17581 2.8822e-20)
(1.00111 1.01572 0)
(1.13624 1.16452 -7.8644e-20)
(1.12591 1.18015 -9.90133e-20)
(1.07495 1.15948 1.11517e-19)
(1.01223 1.13196 6.45101e-20)
(0.942129 1.10025 3.45376e-20)
(0.860492 1.06509 -3.58282e-20)
(0.766445 1.02471 1.11093e-20)
(0.655665 0.976302 0)
(0.538856 0.921656 3.86372e-20)
(0.431666 0.866091 -3.25303e-20)
(0.336076 0.803294 0)
(0.251228 0.723194 8.6495e-21)
(0.166973 0.863762 2.13998e-20)
(0.164742 2.46341 -2.53088e-20)
(0.224158 3.32438 2.88481e-20)
(0.202159 3.44174 1.44879e-20)
(0.167228 3.46191 1.67208e-20)
(0.144444 3.47088 2.31344e-20)
(0.274222 0.268404 -5.64163e-20)
(0.983319 1.02488 0)
(1.11818 1.18935 8.18993e-20)
(1.11225 1.21282 1.04005e-19)
(1.05953 1.19251 -1.16314e-19)
(0.996537 1.16553 -6.96281e-20)
(0.92559 1.13515 -5.37818e-20)
(0.843487 1.10125 -2.64546e-21)
(0.748328 1.06312 -1.76917e-20)
(0.635186 1.01886 6.85052e-21)
(0.51392 0.970587 1.59834e-21)
(0.399625 0.923635 2.54673e-20)
(0.287796 0.874861 5.38543e-21)
(0.225068 1.01686 -7.70731e-21)
(0.23601 2.32271 -1.80604e-20)
(0.292786 3.33252 1.49802e-20)
(0.278156 3.47627 -1.47905e-20)
(0.240794 3.49515 -8.6051e-21)
(0.203443 3.51947 -3.42663e-21)
(0.153825 3.51221 -7.23786e-22)
(0.263902 0.266923 0)
(0.980297 1.04699 2.16804e-20)
(1.11005 1.21224 -1.62145e-20)
(1.10238 1.23554 -1.16065e-20)
(1.04972 1.21521 -7.64601e-20)
(0.986913 1.18846 6.79698e-20)
(0.91576 1.15832 3.63402e-20)
(0.833655 1.12528 -2.80789e-21)
(0.738284 1.08869 2.25737e-20)
(0.624345 1.04739 -2.99881e-21)
(0.501059 1.00397 -5.24247e-20)
(0.383362 0.963101 3.62619e-21)
(0.277386 0.947466 -4.71296e-21)
(0.263104 1.50863 -6.41439e-21)
(0.331396 3.09882 3.71263e-21)
(0.352503 3.4783 5.03856e-22)
(0.307874 3.53379 6.47555e-21)
(0.270589 3.55297 -1.25288e-21)
(0.221452 3.5735 9.24453e-21)
(0.165853 3.5678 2.28358e-21)
(0.249335 0.264271 5.37438e-20)
(0.976226 1.0715 1.45409e-19)
(1.10142 1.23706 -4.62576e-20)
(1.09214 1.25978 -4.40272e-20)
(1.03957 1.23931 0)
(0.976956 1.21257 9.99078e-20)
(0.90586 1.1827 5.56751e-20)
(0.824023 1.15044 -2.98872e-21)
(0.728757 1.11545 2.32176e-21)
(0.614556 1.07724 7.41898e-21)
(0.490113 1.03908 -1.75299e-20)
(0.371312 1.00568 -2.52727e-20)
(0.284894 1.07995 -3.12685e-20)
(0.330264 2.18705 3.38946e-20)
(0.416458 3.39099 2.06389e-20)
(0.395291 3.54464 0)
(0.341956 3.58077 0)
(0.302878 3.61674 8.88149e-21)
(0.24866 3.66743 0)
(0.175872 3.64376 2.18766e-20)
(0.238799 0.265433 -7.83988e-20)
(0.97009 1.09672 -1.20871e-19)
(1.09144 1.26305 0)
(1.08076 1.28489 1.27289e-21)
(1.02832 1.26403 -7.45625e-20)
(0.966004 1.23718 1.48721e-19)
(0.89529 1.20756 3.76134e-20)
(0.813956 1.17599 -3.81774e-21)
(0.719065 1.14252 2.67922e-20)
(0.60503 1.10737 -1.19418e-21)
(0.480264 1.07464 0)
(0.363424 1.05198 0)
(0.315941 1.31724 -2.30838e-20)
(0.412571 2.86059 7.93873e-21)
(0.489497 3.50691 2.55514e-21)
(0.436453 3.58437 0)
(0.391778 3.63814 2.60245e-20)
(0.342314 3.69258 -4.07904e-20)
(0.290275 3.66339 -3.87483e-20)