/*--------------------------------*- C++ -*----------------------------------*\
  =========                 |
  \\      /  F ield         | OpenFOAM: The Open Source CFD Toolbox
   \\    /   O peration     | Website:  https://openfoam.org
    \\  /    A nd           | Version:  6
     \\/     M anipulation  |
\*---------------------------------------------------------------------------*/
FoamFile
{
    version     2.0;
    format      ascii;
    class       volScalarField;
    location    "89.5";
    object      p;
}
// * * * * * * * * * * * * * * * * * * * * * * * * * * * * * * * * * * * * * //

dimensions      [0 2 -2 0 0 0 0];

internalField   nonuniform List<scalar> 
8800
(
0.845116
0.795802
0.757837
0.72977
0.709611
0.695028
0.684435
0.676901
0.672026
0.669969
0.671353
0.675709
0.682511
0.691943
0.704686
0.72201
0.745891
0.77899
0.821929
0.874444
0.679606
0.685951
0.695102
0.698652
0.696046
0.689961
0.683024
0.676789
0.671996
0.669138
0.668921
0.671564
0.676218
0.682356
0.689463
0.696502
0.701385
0.701264
0.694592
0.685695
0.653113
0.65935
0.663852
0.667725
0.670677
0.67163
0.670548
0.668434
0.666465
0.665641
0.66669
0.669159
0.672058
0.674339
0.674868
0.673085
0.669724
0.665715
0.660937
0.657221
0.6488
0.651567
0.654175
0.656336
0.658078
0.659651
0.660762
0.661124
0.661024
0.66114
0.661966
0.663128
0.663885
0.663748
0.662784
0.661438
0.659775
0.657478
0.655071
0.653504
0.643727
0.645153
0.646995
0.64908
0.650798
0.652097
0.653204
0.654197
0.655023
0.655782
0.656519
0.657003
0.657047
0.6567
0.656046
0.654942
0.653295
0.651408
0.650059
0.649256
0.638714
0.639618
0.640868
0.642499
0.644199
0.64574
0.647036
0.648174
0.64926
0.650306
0.651124
0.651545
0.65158
0.651235
0.65045
0.649276
0.647927
0.64667
0.645854
0.645329
0.633777
0.634433
0.635398
0.636722
0.638178
0.639706
0.641206
0.64259
0.643879
0.645121
0.646113
0.646647
0.646698
0.64629
0.645533
0.64461
0.643634
0.642741
0.642166
0.641782
0.628912
0.629417
0.630207
0.631356
0.632667
0.634098
0.635626
0.637193
0.638739
0.64024
0.641448
0.642107
0.64223
0.641946
0.641413
0.64075
0.640034
0.639385
0.638964
0.638664
0.624063
0.624465
0.62513
0.62616
0.627404
0.628787
0.630316
0.631988
0.633762
0.635564
0.637047
0.637918
0.63825
0.63821
0.637929
0.637495
0.636993
0.636542
0.636234
0.635989
0.619148
0.619475
0.620053
0.621009
0.622211
0.62359
0.625164
0.626949
0.628936
0.63106
0.632901
0.634103
0.634744
0.634987
0.63496
0.634769
0.634472
0.634188
0.633964
0.633758
0.614074
0.614346
0.614866
0.615778
0.616971
0.618386
0.620048
0.621993
0.624234
0.626734
0.629024
0.630651
0.631665
0.632231
0.632484
0.632537
0.632451
0.632316
0.632161
0.631982
0.60875
0.608979
0.609461
0.610362
0.611586
0.61308
0.614876
0.617038
0.619607
0.622574
0.62541
0.627546
0.628997
0.629935
0.630502
0.630808
0.630943
0.630949
0.630851
0.630691
0.603078
0.603273
0.603738
0.604657
0.605953
0.607572
0.609558
0.612008
0.614995
0.61854
0.622039
0.624782
0.626744
0.62811
0.629036
0.629638
0.629997
0.630134
0.630083
0.629936
0.59695
0.597117
0.597582
0.598547
0.599956
0.601753
0.603999
0.606821
0.610331
0.614586
0.618887
0.622356
0.624926
0.62679
0.628128
0.629065
0.629664
0.629932
0.629923
0.629782
0.590236
0.590381
0.590861
0.591902
0.593469
0.595506
0.59809
0.601384
0.605543
0.610666
0.615936
0.620273
0.623564
0.626016
0.627825
0.629142
0.630016
0.63042
0.630449
0.630311
0.58279
0.582911
0.58342
0.584568
0.586345
0.588691
0.591706
0.595592
0.600552
0.606732
0.613169
0.618543
0.622686
0.625833
0.628205
0.629962
0.631142
0.631688
0.631751
0.631611
0.57442
0.574524
0.575067
0.576354
0.578402
0.581141
0.584697
0.589322
0.595269
0.602734
0.610572
0.617179
0.622328
0.626293
0.629341
0.631615
0.633139
0.633833
0.633927
0.633781
0.56484
0.564945
0.565557
0.567016
0.569414
0.57265
0.576887
0.58243
0.589594
0.59862
0.608133
0.616199
0.622536
0.627463
0.631305
0.634184
0.636098
0.636947
0.637068
0.636912
0.553757
0.55384
0.554537
0.55625
0.559092
0.562962
0.568057
0.574749
0.583414
0.594335
0.605846
0.615626
0.623354
0.629414
0.634168
0.637762
0.640108
0.641113
0.641253
0.641084
0.540761
0.540832
0.541636
0.543661
0.547068
0.55175
0.557941
0.566083
0.576609
0.589829
0.603712
0.615491
0.624823
0.632197
0.638019
0.64242
0.645229
0.646382
0.646532
0.646346
0.525255
0.525316
0.526273
0.528719
0.532868
0.538613
0.546223
0.556216
0.569064
0.585071
0.601745
0.615828
0.626987
0.63586
0.642892
0.648193
0.651478
0.652756
0.652901
0.652696
0.506413
0.506469
0.507648
0.510687
0.515852
0.523032
0.532528
0.544923
0.560689
0.580063
0.59998
0.616673
0.629885
0.640432
0.648795
0.655071
0.658806
0.660162
0.660282
0.660057
0.483015
0.483078
0.484609
0.48854
0.495165
0.504359
0.516443
0.532012
0.551454
0.574861
0.598488
0.618072
0.633539
0.645912
0.655709
0.662969
0.667067
0.668426
0.6685
0.668257
0.453161
0.453254
0.455396
0.460776
0.469689
0.481856
0.497604
0.517401
0.54144
0.569599
0.597384
0.620099
0.637959
0.652258
0.663559
0.671708
0.676002
0.677265
0.67727
0.677015
0.413617
0.413848
0.417255
0.42531
0.438094
0.454883
0.475869
0.501235
0.530894
0.564503
0.596822
0.622836
0.643163
0.659414
0.672185
0.681004
0.68524
0.686291
0.686213
0.685957
0.358231
0.359394
0.366204
0.379843
0.399402
0.423351
0.451599
0.483996
0.520246
0.559884
0.59698
0.626368
0.649152
0.667286
0.681348
0.690473
0.694316
0.695064
0.694911
0.694664
0.278088
0.285959
0.301645
0.325545
0.355237
0.388771
0.425848
0.466271
0.509767
0.555894
0.59807
0.631055
0.656488
0.676632
0.691689
0.700717
0.703959
0.704398
0.704201
0.703996
0.192724
0.209963
0.235444
0.270363
0.310735
0.353975
0.399865
0.448383
0.499364
0.552449
0.60036
0.637534
0.666128
0.688457
0.704371
0.712624
0.714942
0.715089
0.714922
0.714794
0.119459
0.140552
0.174207
0.218566
0.268397
0.320775
0.375232
0.431681
0.489925
0.549603
0.602763
0.643635
0.674904
0.698949
0.715029
0.722236
0.723861
0.723907
0.723778
0.723685
0.0593353
0.0827734
0.122037
0.173166
0.230371
0.290371
0.352367
0.416061
0.481055
0.546863
0.604823
0.648981
0.682462
0.707713
0.72375
0.730268
0.731566
0.731577
0.731469
0.731385
0.00943668
0.0342785
0.0775959
0.133986
0.197082
0.263328
0.331717
0.401772
0.472869
0.544306
0.606684
0.653797
0.689202
0.715426
0.731357
0.737352
0.738473
0.73848
0.73839
0.738307
-0.0328558
-0.00719371
0.0391132
0.0997635
0.167807
0.239373
0.313283
0.388947
0.465556
0.54218
0.608646
0.658461
0.695542
0.722509
0.738245
0.743855
0.744895
0.74493
0.744865
0.74478
-0.0696179
-0.0434263
0.00520781
0.0693876
0.141663
0.217877
0.296696
0.377435
0.459116
0.540599
0.610923
0.663245
0.701818
0.729323
0.744821
0.750152
0.75116
0.751245
0.751221
0.751137
-0.102375
-0.0757779
-0.0252372
0.0419553
0.117911
0.198229
0.281487
0.366908
0.453363
0.539491
0.613557
0.668289
0.70825
0.736236
0.751529
0.75663
0.757638
0.757787
0.75782
0.757747
-0.132191
-0.105234
-0.0530798
0.0167487
0.09596
0.179941
0.26724
0.357017
0.448032
0.538696
0.616475
0.673639
0.715008
0.743514
0.758706
0.76369
0.764701
0.764894
0.764974
0.764916
-0.15991
-0.132581
-0.0789884
-0.00677207
0.0753376
0.162613
0.253611
0.34747
0.442857
0.538017
0.619571
0.67928
0.722165
0.751332
0.766555
0.771483
0.772459
0.772661
0.772771
0.77273
-0.185965
-0.158293
-0.103385
-0.0290375
0.0556782
0.145941
0.240339
0.338021
0.437624
0.537273
0.622747
0.685137
0.729673
0.759611
0.774974
0.779891
0.780809
0.780978
0.781086
0.781057
-0.210866
-0.182771
-0.126647
-0.0503594
0.0367093
0.129687
0.227218
0.328482
0.432149
0.536295
0.625859
0.691111
0.737399
0.768181
0.783727
0.788628
0.789468
0.789575
0.789655
0.789645
-0.234779
-0.206259
-0.148992
-0.070949
0.0182406
0.113687
0.2141
0.318713
0.426275
0.534918
0.628768
0.697106
0.745229
0.776831
0.792545
0.797356
0.798101
0.798124
0.798164
0.798164
-0.257884
-0.228912
-0.170585
-0.0909438
0.000158523
0.0978373
0.200884
0.308607
0.419876
0.532983
0.631326
0.703038
0.753111
0.785435
0.801127
0.805786
0.806396
0.806333
0.806329
0.806327
-0.280308
-0.250855
-0.191519
-0.11042
-0.0176144
0.0820776
0.187517
0.298104
0.412866
0.530351
0.633382
0.708826
0.761054
0.79395
0.809354
0.81368
0.814127
0.813992
0.813952
0.813944
-0.302146
-0.272161
-0.211835
-0.129418
-0.0350957
0.0663831
0.173979
0.287173
0.405188
0.526901
0.63478
0.714382
0.769129
0.802565
0.817294
0.820978
0.821181
0.820997
0.82094
0.820923
-0.323298
-0.292809
-0.231538
-0.147961
-0.0522954
0.0507725
0.160279
0.275826
0.396821
0.522562
0.635358
0.719589
0.777415
0.811558
0.825254
0.827783
0.827509
0.827312
0.827304
0.827288
-0.343767
-0.312794
-0.250649
-0.166041
-0.0691932
0.0352674
0.146462
0.264086
0.38778
0.517269
0.634969
0.724275
0.785915
0.82132
0.83388
0.834595
0.833273
0.832976
0.833237
0.833334
-0.363625
-0.332113
-0.269173
-0.183649
-0.0857529
0.0199204
0.132583
0.252012
0.378099
0.511008
0.633465
0.728229
0.794505
0.832106
0.84408
0.842659
0.839294
0.838385
0.839232
0.840014
-0.382753
-0.35075
-0.287075
-0.200741
-0.101939
0.00479331
0.118712
0.239681
0.367848
0.50381
0.630725
0.731192
0.802891
0.84381
0.856507
0.853748
0.84793
0.844841
0.844688
0.845112
-0.401245
-0.368738
-0.304372
-0.21736
-0.117797
-0.0101613
0.104791
0.22703
0.356951
0.495599
0.626577
0.73289
0.81083
0.856103
0.87114
0.869003
0.861616
0.853745
0.845136
0.847276
-0.419036
-0.386141
-0.321206
-0.233703
-0.133618
-0.0252623
0.0904223
0.213601
0.344905
0.485809
0.620458
0.732691
0.818106
0.868801
0.887173
0.887566
0.878647
0.864315
0.843141
0.844392
-0.43601
-0.402944
-0.337429
-0.249593
-0.14915
-0.0402222
0.0757889
0.199686
0.331954
0.474593
0.612241
0.729624
0.823474
0.880394
0.90055
0.901511
0.891254
0.861192
0.804559
0.780777
-0.452068
-0.420128
-0.352647
-0.264597
-0.163598
-0.054555
0.0611712
0.185559
0.31837
0.4621
0.601907
0.72293
0.825399
0.889242
0.905722
0.901191
0.877847
0.821092
0.758531
0.720712
-0.493988
-0.437042
-0.36656
-0.279661
-0.177726
-0.0692538
0.0467164
0.171085
0.303926
0.447929
0.588924
0.71174
0.819895
0.890338
0.898503
0.873115
0.814333
0.742821
0.671873
0.632738
-0.468137
-0.44955
-0.38769
-0.300116
-0.19967
-0.0913697
0.0240049
0.147912
0.280192
0.42344
0.56407
0.68658
0.787943
0.865943
0.839361
0.717871
0.6193
0.550841
0.483695
0.506554
-0.49809
-0.466394
-0.403665
-0.316557
-0.216479
-0.108298
0.00733258
0.13069
0.26213
0.403943
0.542445
0.661851
0.751962
0.795707
0.732513
0.582224
0.465638
0.387004
0.301923
0.342847
-0.521085
-0.487072
-0.422655
-0.335505
-0.235474
-0.127281
-0.0117184
0.110922
0.24112
0.380737
0.515589
0.629033
0.707098
0.712617
0.594256
0.430462
0.294959
0.197458
0.0994127
0.126566
-0.54334
-0.508346
-0.442625
-0.354853
-0.254755
-0.146673
-0.0316083
0.0901077
0.218773
0.355662
0.485606
0.589946
0.650566
0.622246
0.453149
0.269254
0.104419
-0.0331775
-0.160125
-0.151804
-0.565252
-0.529932
-0.463362
-0.375042
-0.274836
-0.166987
-0.0525906
0.0680091
0.194783
0.328402
0.452355
0.547234
0.586611
0.509082
0.313876
0.111194
-0.0792324
-0.235812
-0.442052
-0.521957
-0.587511
-0.552305
-0.485265
-0.39658
-0.296259
-0.188624
-0.0748606
0.0445423
0.169224
0.299167
0.416411
0.501832
0.513189
0.384435
0.186387
-0.027216
-0.222103
-0.385031
-0.509016
-0.624566
-0.61118
-0.575944
-0.508688
-0.41985
-0.319562
-0.212261
-0.0992568
0.0187275
0.140898
0.266463
0.37627
0.448452
0.430753
0.265923
0.066851
-0.140466
-0.318682
-0.417117
-0.443191
-0.456476
-0.636394
-0.601142
-0.533759
-0.44494
-0.34489
-0.238125
-0.12616
-0.00995851
0.109171
0.229478
0.331401
0.384425
0.346719
0.151831
-0.0448961
-0.231895
-0.36672
-0.405135
-0.413784
-0.414111
-0.663437
-0.628027
-0.56052
-0.47184
-0.372195
-0.266228
-0.155606
-0.041586
0.0739584
0.188208
0.281308
0.316759
0.245024
0.0471702
-0.142814
-0.305287
-0.38117
-0.395325
-0.396358
-0.396218
-0.692317
-0.656633
-0.588996
-0.500553
-0.401502
-0.296573
-0.187615
-0.0761867
0.0352661
0.142767
0.22566
0.245273
0.134309
-0.0481844
-0.227201
-0.355723
-0.385274
-0.386054
-0.386715
-0.386322
-0.722783
-0.686803
-0.619094
-0.531008
-0.432735
-0.329116
-0.222174
-0.11375
-0.00685559
0.093271
0.165795
0.165687
0.0365086
-0.135461
-0.293607
-0.367076
-0.382259
-0.380794
-0.380669
-0.380339
-0.754283
-0.718188
-0.650555
-0.562977
-0.465712
-0.363709
-0.259142
-0.154161
-0.0521903
0.0401748
0.102133
0.085491
-0.0529437
-0.212069
-0.338877
-0.376885
-0.376246
-0.376478
-0.376275
-0.376011
-0.786373
-0.750258
-0.682892
-0.596048
-0.500084
-0.40003
-0.298236
-0.197145
-0.10044
-0.0155475
0.0334513
0.00994918
-0.133272
-0.272536
-0.366897
-0.374306
-0.374395
-0.373928
-0.373562
-0.373311
-0.818086
-0.782143
-0.715382
-0.629584
-0.535297
-0.437597
-0.338987
-0.242207
-0.15117
-0.0730423
-0.0350682
-0.0653613
-0.201305
-0.314446
-0.373076
-0.382343
-0.375126
-0.373065
-0.372391
-0.372021
-0.84768
-0.812561
-0.746984
-0.662698
-0.570567
-0.475699
-0.380715
-0.288602
-0.203595
-0.131838
-0.0984999
-0.142801
-0.256062
-0.34481
-0.368531
-0.373111
-0.374148
-0.373838
-0.373488
-0.373187
-0.873995
-0.840001
-0.776299
-0.694183
-0.604829
-0.513384
-0.422534
-0.335389
-0.25647
-0.191413
-0.160216
-0.20989
-0.298694
-0.362105
-0.382719
-0.376625
-0.375601
-0.375335
-0.375192
-0.375115
-0.894359
-0.862362
-0.801565
-0.72251
-0.636758
-0.549455
-0.463327
-0.381493
-0.308487
-0.249991
-0.221381
-0.263506
-0.330245
-0.375791
-0.377932
-0.377774
-0.376525
-0.376087
-0.376033
-0.37603
-0.906722
-0.877526
-0.820706
-0.74593
-0.664819
-0.582523
-0.501762
-0.425653
-0.358541
-0.304905
-0.277239
-0.308248
-0.352594
-0.387313
-0.380835
-0.379477
-0.37837
-0.377477
-0.3771
-0.376918
-0.908386
-0.883111
-0.831615
-0.762588
-0.687368
-0.611118
-0.536406
-0.466378
-0.405393
-0.35537
-0.323954
-0.344904
-0.361982
-0.389257
-0.385701
-0.380254
-0.378446
-0.377599
-0.377194
-0.376984
-0.897016
-0.876528
-0.832158
-0.770736
-0.702925
-0.633852
-0.565932
-0.502152
-0.447201
-0.402612
-0.358639
-0.375734
-0.358745
-0.370175
-0.376261
-0.374834
-0.375061
-0.375577
-0.375729
-0.375681
-0.870306
-0.855313
-0.820458
-0.769136
-0.710441
-0.649716
-0.589337
-0.531867
-0.482217
-0.445194
-0.397063
-0.386903
-0.367108
-0.355927
-0.358146
-0.368175
-0.373424
-0.375869
-0.376856
-0.377164
-0.831702
-0.822139
-0.797677
-0.758051
-0.709917
-0.658475
-0.606044
-0.555004
-0.510061
-0.478398
-0.446256
-0.414561
-0.381302
-0.378358
-0.390213
-0.38911
-0.386115
-0.386418
-0.387856
-0.388369
-0.788248
-0.782802
-0.768747
-0.740559
-0.703449
-0.660987
-0.616162
-0.571344
-0.530202
-0.499818
-0.472161
-0.446871
-0.421673
-0.408535
-0.394666
-0.395671
-0.40932
-0.418789
-0.421803
-0.422069
-0.749852
-0.746537
-0.739864
-0.721993
-0.693923
-0.659074
-0.620772
-0.580696
-0.541855
-0.510527
-0.484318
-0.472882
-0.471829
-0.486034
-0.499984
-0.522199
-0.520907
-0.502023
-0.490093
-0.492397
-0.722193
-0.720227
-0.716824
-0.706292
-0.685023
-0.655847
-0.621687
-0.584093
-0.545382
-0.510089
-0.484276
-0.477281
-0.519483
-0.605081
-0.689435
-0.728715
-0.725443
-0.684387
-0.628345
-0.609764
-0.701881
-0.701184
-0.700033
-0.69485
-0.679323
-0.653755
-0.620919
-0.582999
-0.5413
-0.499593
-0.470768
-0.444691
-0.432807
-0.452703
-0.496226
-0.514576
-0.488162
-0.463064
-0.430886
-0.414696
-0.690026
-0.689796
-0.689183
-0.686761
-0.676254
-0.652798
-0.619625
-0.579697
-0.533703
-0.483259
-0.439313
-0.383913
-0.304916
-0.219622
-0.145735
-0.0813404
-0.0689587
-0.0673129
-0.063578
-0.0595673
-0.681833
-0.681684
-0.681277
-0.680571
-0.674143
-0.65299
-0.618829
-0.57563
-0.524147
-0.461939
-0.399202
-0.317723
-0.184116
-0.0213797
0.115596
0.198132
0.254626
0.297268
0.327676
0.342553
-0.676486
-0.676441
-0.676313
-0.676155
-0.672324
-0.654593
-0.61924
-0.572084
-0.514805
-0.442355
-0.360177
-0.263965
-0.0912797
0.134229
0.360388
0.544716
0.677272
0.771432
0.831244
0.855935
-0.67212
-0.672158
-0.672177
-0.672195
-0.670895
-0.656773
-0.621232
-0.570629
-0.508273
-0.427305
-0.33219
-0.229119
-0.0317546
0.2533
0.571697
0.864793
1.09245
1.23013
1.29404
1.31284
-0.668151
-0.668252
-0.668299
-0.668233
-0.668015
-0.657981
-0.624733
-0.573055
-0.505925
-0.420089
-0.319205
-0.21304
-0.0239373
0.266749
0.595784
0.90533
1.15947
1.31054
1.36659
1.37855
-0.665355
-0.665328
-0.664992
-0.664232
-0.664018
-0.657424
-0.629765
-0.578805
-0.509095
-0.422019
-0.323349
-0.223064
-0.0710616
0.187705
0.470141
0.728507
0.936479
1.0554
1.09784
1.10601
-0.664907
-0.664786
-0.664297
-0.663088
-0.661259
-0.659083
-0.638374
-0.588576
-0.517701
-0.432817
-0.341118
-0.251651
-0.131886
0.0757903
0.294903
0.478127
0.619393
0.697958
0.7266
0.732845
-0.667879
-0.668262
-0.669153
-0.670695
-0.671599
-0.671732
-0.653756
-0.601641
-0.530433
-0.451226
-0.368145
-0.290001
-0.203326
-0.0471366
0.116543
0.243791
0.335114
0.385823
0.406257
0.411707
-0.671894
-0.673292
-0.677573
-0.687636
-0.701397
-0.704874
-0.676355
-0.614854
-0.546326
-0.476241
-0.399275
-0.332229
-0.268519
-0.1543
-0.0301726
0.0642441
0.130323
0.168273
0.18368
0.187722
-0.677807
-0.679202
-0.683796
-0.695134
-0.713484
-0.718096
-0.68403
-0.621037
-0.565679
-0.502963
-0.430157
-0.373358
-0.326259
-0.236608
-0.138925
-0.0646879
-0.0100999
0.0229573
0.0360597
0.0378236
-0.695073
-0.695988
-0.697325
-0.689534
-0.669463
-0.658499
-0.640036
-0.615698
-0.585744
-0.525904
-0.459349
-0.412157
-0.377094
-0.306396
-0.225498
-0.163811
-0.118052
-0.0900072
-0.0808413
-0.0800272
-0.718887
-0.718891
-0.716357
-0.686741
-0.617276
-0.561146
-0.58323
-0.616748
-0.60382
-0.54429
-0.484813
-0.444936
-0.415617
-0.356411
-0.290822
-0.24176
-0.204384
-0.18246
-0.174917
-0.174424
-0.74705
-0.744399
-0.74129
-0.72332
-0.679891
-0.638325
-0.645263
-0.669456
-0.635055
-0.56423
-0.506309
-0.470158
-0.442034
-0.391572
-0.338027
-0.29981
-0.271504
-0.25576
-0.250573
-0.250831
-0.820852
-0.822335
-0.849207
-0.888773
-0.907903
-0.887401
-0.849754
-0.787928
-0.68924
-0.587878
-0.526564
-0.485351
-0.454415
-0.413602
-0.372511
-0.342593
-0.321291
-0.309785
-0.306062
-0.306402
-0.957812
-0.974105
-1.02171
-1.077
-1.1037
-1.08835
-1.02343
-0.89775
-0.736068
-0.610421
-0.540509
-0.487774
-0.458401
-0.423388
-0.388123
-0.364828
-0.349901
-0.342583
-0.34001
-0.34032
-1.05533
-1.07444
-1.1131
-1.15174
-1.17397
-1.15799
-1.08352
-0.917963
-0.736455
-0.614959
-0.531871
-0.478924
-0.453693
-0.421743
-0.39095
-0.371409
-0.359511
-0.353377
-0.351106
-0.351421
-1.03091
-1.04369
-1.06986
-1.0983
-1.11724
-1.10493
-1.02988
-0.85144
-0.693249
-0.584023
-0.496969
-0.458637
-0.436038
-0.404031
-0.376975
-0.360265
-0.349528
-0.343646
-0.341676
-0.342096
-0.875682
-0.887994
-0.911262
-0.938825
-0.959611
-0.951542
-0.877537
-0.73746
-0.61847
-0.514046
-0.451595
-0.422416
-0.401465
-0.375562
-0.351881
-0.335451
-0.324607
-0.318781
-0.316904
-0.31747
-0.623942
-0.636758
-0.662027
-0.694669
-0.721975
-0.721064
-0.666057
-0.582989
-0.50125
-0.431556
-0.397585
-0.369444
-0.35731
-0.336819
-0.315016
-0.3002
-0.289647
-0.284075
-0.282604
-0.283352
-0.329472
-0.339902
-0.362294
-0.395483
-0.428114
-0.444396
-0.431659
-0.405549
-0.37078
-0.348111
-0.324546
-0.311548
-0.308454
-0.287982
-0.269277
-0.257187
-0.248678
-0.244685
-0.243892
-0.244624
-0.0817298
-0.088424
-0.105181
-0.134157
-0.173312
-0.21156
-0.240282
-0.256317
-0.260897
-0.256687
-0.249534
-0.249951
-0.247981
-0.231874
-0.219127
-0.210427
-0.203866
-0.201037
-0.200692
-0.201363
0.0602295
0.0559015
0.0434903
0.0183831
-0.0199429
-0.0680596
-0.116403
-0.150537
-0.168991
-0.178702
-0.183299
-0.181716
-0.182272
-0.172977
-0.165126
-0.159087
-0.154633
-0.153036
-0.153008
-0.153635
0.103139
0.100079
0.0906881
0.0707694
0.0382441
-0.00184993
-0.0425526
-0.0773124
-0.10177
-0.113327
-0.117464
-0.116117
-0.116407
-0.113011
-0.109374
-0.106034
-0.103112
-0.102006
-0.102286
-0.102955
0.0811231
0.0790953
0.0730415
0.0603408
0.0398988
0.0133359
-0.0132784
-0.0344791
-0.0478562
-0.0553266
-0.0599672
-0.0574393
-0.0573827
-0.0571692
-0.0566865
-0.0553494
-0.0529409
-0.051879
-0.052517
-0.0533337
0.0223087
0.0220906
0.0217984
0.0193162
0.0143857
0.00796756
0.00168063
-0.00418553
-0.00853843
-0.0106777
-0.0117074
-0.0117254
-0.0084144
-0.00941189
-0.0108289
-0.0120432
-0.0131012
-0.0135551
-0.0122865
-0.0117801
-0.0242526
0.161765
0.332083
0.475711
0.589677
0.678584
0.751849
0.81122
0.825754
0.822614
0.259199
0.378132
0.489332
0.585251
0.665455
0.731251
0.782916
0.817825
0.836566
0.853398
0.450806
0.529806
0.607796
0.676049
0.734016
0.781984
0.819795
0.848763
0.870636
0.889905
0.592569
0.648702
0.705154
0.755738
0.799353
0.836474
0.867691
0.893942
0.913947
0.932851
0.707112
0.749381
0.791315
0.83058
0.865695
0.896786
0.924019
0.94715
0.964952
0.98303
0.802602
0.83767
0.872204
0.905326
0.935889
0.963607
0.988125
1.00875
1.0244
1.04188
0.889875
0.921463
0.953301
0.98412
1.0128
1.0389
1.06181
1.0806
1.09441
1.11142
0.97614
1.00849
1.04066
1.07165
1.10024
1.12586
1.14785
1.16527
1.17758
1.19409
1.07013
1.10648
1.14111
1.17344
1.20248
1.22771
1.24873
1.26494
1.2765
1.29262
1.18303
1.22374
1.26063
1.29341
1.32178
1.34569
1.36524
1.38046
1.39231
1.40837
1.32448
1.36539
1.40057
1.43005
1.45517
1.47674
1.4952
1.51065
1.52374
1.53968
1.49583
1.5279
1.55483
1.57717
1.59723
1.61593
1.63365
1.6504
1.6653
1.68102
1.68196
1.69917
1.71626
1.73294
1.74902
1.76375
1.77765
1.79212
1.80734
1.82464
1.86534
1.87526
1.88843
1.89941
1.90882
1.91847
1.92907
1.93924
1.94853
1.97419
2.08316
2.07745
2.0645
2.05025
2.04395
2.04965
2.06779
2.09631
2.13007
2.1664
2.38597
2.25003
2.17052
2.12797
2.11064
2.11463
2.14205
2.19992
2.30758
2.48598
0.748808
0.742506
0.734778
0.723667
0.710101
0.69746
0.687075
0.679081
0.673388
0.670093
0.669789
0.672668
0.677939
0.685324
0.694894
0.706738
0.72031
0.733247
0.742241
0.749784
0.657864
0.663785
0.67186
0.677997
0.681072
0.680569
0.677496
0.67352
0.669958
0.667713
0.66763
0.669934
0.673729
0.678206
0.68233
0.684592
0.68353
0.678902
0.671853
0.664022
0.651094
0.653467
0.656737
0.659516
0.661975
0.664175
0.665369
0.665244
0.664337
0.663574
0.663847
0.66532
0.667149
0.668414
0.668366
0.666919
0.664776
0.662425
0.659451
0.656436
0.646275
0.647364
0.649285
0.65163
0.653511
0.654923
0.656159
0.657177
0.657814
0.658243
0.658865
0.659677
0.6602
0.660124
0.659529
0.658631
0.657319
0.655363
0.653265
0.651791
0.641213
0.641846
0.64298
0.644746
0.646602
0.648212
0.649485
0.650579
0.651604
0.652563
0.65343
0.654033
0.654237
0.654082
0.653586
0.652642
0.651238
0.649646
0.64832
0.647521
0.636238
0.636677
0.63747
0.638785
0.640322
0.641905
0.64341
0.644743
0.645949
0.647109
0.648158
0.648859
0.649119
0.648947
0.648333
0.647372
0.646248
0.645126
0.644236
0.643705
0.631341
0.631668
0.632285
0.633367
0.634682
0.636106
0.637617
0.639135
0.640588
0.641978
0.643241
0.644105
0.644432
0.644266
0.64373
0.642995
0.642187
0.641359
0.640714
0.640325
0.626494
0.626747
0.627246
0.628172
0.629367
0.630705
0.632167
0.633747
0.635399
0.637065
0.638601
0.639665
0.640129
0.640129
0.639824
0.639339
0.638753
0.638159
0.637697
0.6374
0.621623
0.621824
0.622241
0.623059
0.624181
0.625478
0.626934
0.62857
0.630379
0.632312
0.634171
0.63553
0.63626
0.636527
0.636483
0.63624
0.635872
0.63548
0.63516
0.634927
0.61664
0.616802
0.61716
0.617909
0.618989
0.620276
0.621771
0.623505
0.625492
0.62771
0.629953
0.631714
0.632806
0.633395
0.633632
0.63364
0.633502
0.633295
0.633093
0.632908
0.611454
0.611584
0.611901
0.612608
0.613678
0.614999
0.616575
0.618454
0.620675
0.623243
0.625955
0.628212
0.629739
0.630702
0.631259
0.631541
0.631633
0.631608
0.63151
0.63136
0.605969
0.606073
0.606364
0.607055
0.60815
0.609549
0.611251
0.613333
0.615861
0.618872
0.622159
0.625011
0.627052
0.628449
0.629371
0.629951
0.630299
0.630456
0.630447
0.630324
0.600083
0.600165
0.60044
0.60114
0.602297
0.603816
0.605702
0.608055
0.610978
0.614539
0.61853
0.622098
0.624749
0.626652
0.627993
0.628932
0.629551
0.629887
0.62996
0.629858
0.593679
0.593741
0.594011
0.594743
0.595997
0.597685
0.599819
0.602528
0.605946
0.610188
0.615034
0.619464
0.622842
0.625344
0.627168
0.628506
0.629435
0.629968
0.63012
0.630034
0.586617
0.58666
0.586933
0.587719
0.589111
0.591024
0.593482
0.596641
0.60068
0.605756
0.61164
0.617103
0.621347
0.624557
0.626954
0.62875
0.630037
0.630782
0.631012
0.630938
0.578743
0.57876
0.579036
0.5799
0.581472
0.583674
0.586544
0.590271
0.595079
0.601178
0.608315
0.615016
0.620285
0.62433
0.627409
0.629756
0.631449
0.632424
0.632731
0.632664
0.569788
0.5698
0.570101
0.571068
0.572874
0.575443
0.578831
0.583267
0.589028
0.596379
0.605029
0.613204
0.619687
0.624715
0.628596
0.631601
0.633761
0.634989
0.635372
0.635309
0.55949
0.559476
0.55982
0.56094
0.563048
0.566086
0.570129
0.575453
0.582397
0.591279
0.601751
0.611674
0.619585
0.625772
0.630599
0.634365
0.637066
0.638567
0.639024
0.638959
0.5475
0.547464
0.547859
0.549166
0.551653
0.555293
0.560172
0.566617
0.575034
0.585794
0.598456
0.610439
0.620015
0.627552
0.633488
0.638131
0.641445
0.643231
0.643753
0.643681
0.533307
0.533249
0.533725
0.535285
0.538258
0.542676
0.548631
0.556509
0.566779
0.579845
0.595128
0.609523
0.621015
0.630098
0.637321
0.642963
0.646947
0.649016
0.649586
0.649499
0.516206
0.516127
0.51673
0.518646
0.522274
0.527728
0.535103
0.544843
0.557468
0.573377
0.591776
0.608955
0.622625
0.633456
0.642113
0.648877
0.653572
0.655896
0.656486
0.656378
0.495197
0.495101
0.495911
0.498345
0.502893
0.509785
0.519096
0.531315
0.546967
0.566377
0.588446
0.608784
0.624884
0.637649
0.647871
0.655857
0.661249
0.66376
0.664331
0.664193
0.468748
0.468652
0.469812
0.473053
0.479001
0.48799
0.500057
0.515659
0.535224
0.558913
0.585236
0.609088
0.627822
0.642671
0.654579
0.663817
0.669807
0.672386
0.672886
0.672714
0.434382
0.43434
0.436129
0.44076
0.449066
0.461371
0.477502
0.497761
0.522345
0.551168
0.582307
0.609972
0.631486
0.648511
0.662149
0.672579
0.678958
0.681436
0.681811
0.681606
0.387701
0.387884
0.391068
0.398632
0.411339
0.429101
0.451283
0.477843
0.508671
0.543455
0.579882
0.611566
0.63593
0.655128
0.670464
0.681888
0.688299
0.69046
0.690672
0.690443
0.320469
0.321918
0.32968
0.344018
0.364852
0.391316
0.422041
0.456612
0.49479
0.536192
0.578205
0.613973
0.641166
0.662445
0.679245
0.691254
0.697265
0.698909
0.698956
0.698734
0.24021
0.243038
0.258157
0.282934
0.314909
0.351643
0.391591
0.434577
0.480482
0.529009
0.57729
0.617886
0.648592
0.672485
0.690848
0.702983
0.708311
0.709511
0.7095
0.709367
0.158008
0.165379
0.188104
0.223301
0.266041
0.312816
0.361974
0.413405
0.467054
0.522673
0.577161
0.622487
0.656565
0.682981
0.702793
0.714563
0.71873
0.719361
0.719298
0.71922
0.0907558
0.100187
0.12774
0.170307
0.221471
0.276732
0.334172
0.393495
0.454493
0.516817
0.577063
0.626635
0.663606
0.691997
0.71254
0.723724
0.727196
0.727658
0.727604
0.72755
0.0356089
0.0457866
0.0770144
0.125037
0.182546
0.244565
0.308937
0.375161
0.442801
0.511296
0.576848
0.630275
0.669794
0.699772
0.720811
0.731547
0.734581
0.734948
0.734909
0.734869
-0.010564
-4.80073e-05
0.0336935
0.0859586
0.148646
0.21626
0.286467
0.358653
0.432194
0.506313
0.576753
0.633718
0.675503
0.706834
0.728202
0.738515
0.741272
0.741611
0.741595
0.741568
-0.0502241
-0.0395676
-0.00395762
0.0516984
0.118703
0.191119
0.266413
0.343869
0.42273
0.502018
0.577024
0.637271
0.681107
0.713559
0.735074
0.745012
0.747601
0.747954
0.747979
0.747974
-0.0850871
-0.0743925
-0.0373272
0.0211351
0.0918166
0.168407
0.248223
0.330457
0.414235
0.498371
0.57773
0.6411
0.68684
0.720257
0.741829
0.751465
0.753926
0.754307
0.754404
0.754435
-0.116431
-0.105729
-0.0675065
-0.00663015
0.0672524
0.147524
0.231397
0.318019
0.406404
0.495196
0.578789
0.645245
0.69284
0.727203
0.748875
0.758266
0.760652
0.761077
0.761245
0.76132
-0.145281
-0.134551
-0.0953103
-0.0322921
0.0444432
0.12799
0.215525
0.306199
0.398939
0.492254
0.580063
0.649653
0.699177
0.734561
0.75644
0.765725
0.768076
0.768519
0.768721
0.768832
-0.172222
-0.16145
-0.121293
-0.0563497
0.0229289
0.109417
0.200289
0.294715
0.391588
0.489319
0.58141
0.654255
0.705845
0.742385
0.764616
0.773886
0.776184
0.776604
0.776804
0.776939
-0.197742
-0.186907
-0.14589
-0.0791981
0.00236554
0.0915136
0.185438
0.283342
0.384144
0.486211
0.582671
0.658955
0.712741
0.750529
0.773206
0.782524
0.784785
0.785129
0.785299
0.785431
-0.222224
-0.211237
-0.169413
-0.101111
-0.0174841
0.074064
0.170783
0.271919
0.376434
0.48276
0.583692
0.66363
0.719764
0.758851
0.781989
0.791341
0.793531
0.793783
0.793892
0.794
-0.245803
-0.234638
-0.192044
-0.122275
-0.0367878
0.0569358
0.156199
0.26032
0.368336
0.478799
0.58431
0.668168
0.72683
0.767215
0.790755
0.800029
0.8021
0.802245
0.802277
0.802358
-0.268673
-0.257278
-0.213943
-0.142802
-0.0556425
0.0400355
0.141606
0.248465
0.359756
0.474211
0.584368
0.672446
0.733907
0.775587
0.79928
0.80833
0.810206
0.81024
0.810205
0.810257
-0.290838
-0.27923
-0.23518
-0.162755
-0.0740974
0.0233234
0.126972
0.236319
0.350638
0.468892
0.583715
0.676334
0.740971
0.784039
0.807641
0.81614
0.817687
0.817612
0.817529
0.817556
-0.312387
-0.300539
-0.255753
-0.182157
-0.0921783
0.00678656
0.11229
0.22388
0.340963
0.462779
0.582215
0.679684
0.748008
0.792759
0.816044
0.823546
0.824498
0.824281
0.824194
0.824214
-0.333209
-0.321182
-0.275675
-0.201026
-0.109878
-0.00954235
0.0975808
0.211167
0.330741
0.455848
0.579748
0.682331
0.75495
0.801943
0.824954
0.830944
0.830743
0.830225
0.830243
0.830346
-0.353432
-0.341157
-0.294951
-0.219371
-0.127193
-0.0256554
0.0829028
0.19822
0.320007
0.44811
0.576225
0.684088
0.761642
0.811717
0.834975
0.839226
0.837077
0.83565
0.835871
0.836409
-0.372929
-0.360421
-0.313589
-0.237164
-0.144066
-0.041492
0.068312
0.185127
0.308824
0.439576
0.571595
0.684756
0.767844
0.821973
0.846557
0.849688
0.84519
0.841788
0.841734
0.84318
-0.39181
-0.379038
-0.331551
-0.254367
-0.16048
-0.0570033
0.0538757
0.171945
0.29727
0.430334
0.565845
0.684117
0.773236
0.832326
0.859541
0.863184
0.857332
0.851129
0.846657
0.840174
-0.409972
-0.397007
-0.348929
-0.271149
-0.176655
-0.0724623
0.0392753
0.158296
0.28494
0.41995
0.558567
0.681759
0.77765
0.842851
0.873892
0.880005
0.874614
0.865064
0.85246
0.852248
-0.427386
-0.414411
-0.365737
-0.287462
-0.192589
-0.087841
0.0245288
0.144147
0.271777
0.40826
0.5495
0.677053
0.780129
0.852681
0.887786
0.89674
0.891766
0.88125
0.845427
0.807646
-0.443867
-0.431111
-0.381941
-0.303189
-0.208289
-0.103154
0.00962228
0.129615
0.257823
0.395254