/*--------------------------------*- C++ -*----------------------------------*\
  =========                 |
  \\      /  F ield         | OpenFOAM: The Open Source CFD Toolbox
   \\    /   O peration     | Website:  https://openfoam.org
    \\  /    A nd           | Version:  6
     \\/     M anipulation  |
\*---------------------------------------------------------------------------*/
FoamFile
{
    version     2.0;
    format      ascii;
    class       volScalarField;
    location    "45.9";
    object      p;
}
// * * * * * * * * * * * * * * * * * * * * * * * * * * * * * * * * * * * * * //

dimensions      [0 2 -2 0 0 0 0];

internalField   nonuniform List<scalar> 
8800
(
0.934385
0.885066
0.847094
0.819015
0.798837
0.784224
0.773591
0.766005
0.761056
0.7589
0.760174
0.764436
0.771169
0.780548
0.793253
0.810551
0.834413
0.867502
0.910433
0.962945
0.768892
0.775234
0.784377
0.787916
0.785294
0.779186
0.772218
0.765934
0.761074
0.758125
0.757797
0.760331
0.7649
0.770973
0.778035
0.785042
0.789903
0.789766
0.783082
0.774177
0.742438
0.74867
0.75316
0.757018
0.759946
0.760869
0.759743
0.757567
0.755513
0.754579
0.755505
0.757868
0.760686
0.762906
0.763391
0.761576
0.758191
0.754164
0.749375
0.745658
0.738184
0.740946
0.743541
0.745683
0.747397
0.748935
0.749995
0.750288
0.750092
0.750082
0.75077
0.751814
0.75248
0.752272
0.751254
0.749868
0.748176
0.745857
0.743436
0.741869
0.733191
0.734613
0.73644
0.738502
0.740189
0.741446
0.742495
0.743405
0.744119
0.744732
0.74531
0.745659
0.745595
0.745163
0.744445
0.743292
0.741606
0.73969
0.738327
0.737524
0.728283
0.729184
0.730416
0.73202
0.733683
0.735173
0.7364
0.737442
0.738395
0.739268
0.7399
0.740159
0.740066
0.739616
0.738752
0.737517
0.736119
0.734828
0.733995
0.733472
0.723478
0.724132
0.725079
0.72637
0.727782
0.72925
0.730668
0.73194
0.733076
0.734113
0.73488
0.735217
0.735108
0.734573
0.733717
0.732716
0.731677
0.730741
0.730149
0.729766
0.718778
0.719282
0.720051
0.721163
0.722422
0.723784
0.725217
0.726652
0.72802
0.729283
0.730218
0.730631
0.730554
0.730109
0.72945
0.728687
0.72789
0.727189
0.726748
0.726451
0.71413
0.71453
0.715174
0.716163
0.717347
0.71865
0.720068
0.721588
0.723153
0.724668
0.725821
0.726392
0.726473
0.726229
0.725787
0.725227
0.724622
0.724105
0.723774
0.723534
0.709461
0.709787
0.710343
0.711252
0.712387
0.713672
0.715118
0.716726
0.718467
0.72025
0.721691
0.722521
0.722851
0.722838
0.722607
0.722252
0.721824
0.721459
0.721211
0.721011
0.704687
0.704958
0.705453
0.706313
0.707426
0.708731
0.710241
0.711971
0.713912
0.715994
0.717805
0.718989
0.719625
0.719877
0.719873
0.719717
0.719467
0.719234
0.719052
0.718882
0.699726
0.699953
0.70041
0.701252
0.702386
0.703753
0.705367
0.707272
0.709482
0.711954
0.71421
0.715804
0.716795
0.717346
0.717594
0.717645
0.717566
0.71745
0.717322
0.717173
0.694495
0.694689
0.695126
0.69598
0.697174
0.698647
0.700424
0.702574
0.705136
0.708088
0.710892
0.712979
0.714377
0.715263
0.715787
0.716051
0.716152
0.716146
0.716064
0.71593
0.688901
0.689067
0.689501
0.690398
0.691694
0.693327
0.695338
0.697822
0.700843
0.704403
0.707869
0.710536
0.712402
0.713662
0.71449
0.715007
0.715281
0.715376
0.715333
0.71521
0.682838
0.682982
0.683429
0.684397
0.68584
0.687691
0.690005
0.692906
0.696498
0.700806
0.705081
0.70845
0.710881
0.712588
0.71377
0.714556
0.715026
0.715228
0.715221
0.715105
0.676182
0.676301
0.676774
0.67784
0.679477
0.681611
0.684312
0.687739
0.692028
0.697248
0.702511
0.706738
0.709854
0.712099
0.713692
0.714786
0.715478
0.71579
0.715818
0.715706
0.668757
0.668852
0.669369
0.670569
0.672459
0.674962
0.678165
0.682262
0.687438
0.693782
0.700248
0.705493
0.70941
0.712275
0.714358
0.715817
0.716751
0.71718
0.717242
0.717131
0.660356
0.660454
0.661016
0.662382
0.664605
0.667579
0.67142
0.676374
0.682662
0.690399
0.698314
0.704777
0.709632
0.713225
0.715886
0.717766
0.718978
0.719534
0.719629
0.719517
0.65068
0.65076
0.651408
0.653004
0.655653
0.659223
0.663864
0.669882
0.677559
0.687022
0.69668
0.704583
0.71057
0.715042
0.718387
0.720765
0.722296
0.722991
0.723121
0.723003
0.639366
0.639428
0.640179
0.642081
0.645268
0.649606
0.655282
0.662653
0.672028
0.683569
0.695364
0.705018
0.712336
0.717845
0.721993
0.724968
0.726862
0.72771
0.727872
0.727745
0.625907
0.625958
0.626853
0.629154
0.633053
0.63841
0.645445
0.654584
0.666178
0.68033
0.694629
0.70626
0.715103
0.721802
0.726877
0.730534
0.732834
0.73384
0.734029
0.73389
0.609533
0.609579
0.610683
0.613548
0.618418
0.625148
0.633983
0.645398
0.65973
0.677024
0.69432
0.708304
0.718923
0.727003
0.73315
0.737589
0.74034
0.741506
0.741717
0.74156
0.589102
0.589151
0.590583
0.594291
0.600558
0.609214
0.620525
0.634978
0.652821
0.673935
0.6947
0.711308
0.723908
0.733549
0.74091
0.746244
0.749475
0.750792
0.751008
0.750829
0.562834
0.562912
0.564928
0.570019
0.578468
0.590009
0.604851
0.623379
0.645649
0.6713
0.695971
0.715469
0.730222
0.741558
0.75024
0.756532
0.760237
0.761668
0.761865
0.761657
0.527697
0.527901
0.531115
0.538762
0.550906
0.566869
0.586734
0.610604
0.638258
0.669142
0.698157
0.720784
0.737836
0.750971
0.761088
0.768349
0.77246
0.773933
0.774078
0.773838
0.477909
0.478975
0.485407
0.498365
0.516989
0.539813
0.566658
0.597309
0.631344
0.668067
0.701667
0.72749
0.746856
0.761795
0.77332
0.781454
0.78581
0.787219
0.787283
0.787011
0.405018
0.412328
0.427152
0.449869
0.478191
0.510207
0.545553
0.58397
0.625077
0.668187
0.706828
0.736189
0.758162
0.77515
0.788221
0.797157
0.801726
0.803099
0.803128
0.802885
0.327207
0.343188
0.367318
0.400556
0.439129
0.480535
0.524492
0.570938
0.6196
0.669886
0.714598
0.748483
0.773878
0.793505
0.808467
0.818338
0.823015
0.824275
0.824335
0.824211
0.260603
0.280181
0.312108
0.35439
0.402077
0.452323
0.504665
0.559001
0.615056
0.672274
0.722756
0.760867
0.789377
0.811416
0.827992
0.838525
0.843187
0.844428
0.844546
0.844494
0.206121
0.227925
0.265218
0.314007
0.368813
0.426475
0.486243
0.547837
0.610852
0.674651
0.730573
0.772632
0.804014
0.82813
0.846165
0.857571
0.862785
0.864087
0.864213
0.864204
0.160846
0.183988
0.22516
0.279055
0.339575
0.403355
0.469458
0.53748
0.606835
0.676766
0.737764
0.783498
0.817519
0.843567
0.863039
0.875485
0.881235
0.882669
0.882872
0.882895
0.122153
0.146128
0.190183
0.248215
0.313546
0.382546
0.454132
0.527842
0.602946
0.678532
0.744305
0.793401
0.829837
0.857672
0.878402
0.891668
0.89789
0.899581
0.899864
0.899907
0.0880343
0.112597
0.158927
0.220394
0.289832
0.36338
0.439837
0.518673
0.599059
0.679893
0.7501
0.802332
0.840916
0.870309
0.892056
0.905896
0.912503
0.914534
0.914899
0.91494
0.0570463
0.0821047
0.130332
0.194734
0.267734
0.345273
0.426104
0.509629
0.594915
0.680693
0.755059
0.810216
0.850753
0.881453
0.903947
0.918192
0.92515
0.927387
0.927786
0.92781
0.0282318
0.0537582
0.103603
0.170593
0.246721
0.327795
0.412571
0.500405
0.590277
0.680767
0.759136
0.817083
0.859445
0.891217
0.914198
0.928681
0.935828
0.938225
0.938663
0.938671
0.000843635
0.0268957
0.07823
0.147512
0.226401
0.310631
0.398979
0.490787
0.584969
0.679978
0.762299
0.823019
0.86715
0.899855
0.923205
0.937842
0.945126
0.94762
0.948042
0.948015
-0.0254336
0.00110061
0.0538047
0.125148
0.206504
0.293567
0.385158
0.480626
0.57887
0.678257
0.764548
0.828103
0.874004
0.907601
0.931303
0.946083
0.953411
0.955905
0.956337
0.956287
-0.0510012
-0.0238887
0.0300778
0.103282
0.186849
0.276461
0.371007
0.469847
0.571904
0.675563
0.765883
0.8324
0.880127
0.914642
0.938695
0.953578
0.960896
0.963339
0.963732
0.96366
-0.0759573
-0.0482543
0.00689921
0.0817929
0.167337
0.259244
0.356472
0.458413
0.564045
0.671864
0.766306
0.835957
0.885647
0.921156
0.945601
0.960555
0.967809
0.970161
0.970474
0.970352
-0.100402
-0.0720943
-0.0158186
0.0606171
0.147934
0.241899
0.341548
0.446322
0.555293
0.667137
0.765777
0.838786
0.890648
0.927296
0.952171
0.967138
0.974199
0.976376
0.97659
0.976426
-0.12441
-0.0954653
-0.038092
0.0397452
0.128636
0.224447
0.326273
0.433614
0.545669
0.661371
0.764239
0.840845
0.895193
0.933191
0.958514
0.973372
0.980112
0.982025
0.982133
0.981941
-0.148011
-0.118353
-0.0599135
0.0191935
0.10949
0.206933
0.310703
0.420342
0.535212
0.654545
0.761621
0.842053
0.899291
0.938983
0.964813
0.97936
0.985558
0.98712
0.987119
0.98691
-0.171036
-0.140708
-0.0812512
-0.00100772
0.090543
0.189435
0.294909
0.406592
0.523988
0.64668
0.757849
0.842304
0.902879
0.944794
0.971348
0.985353
0.990646
0.991682
0.99156
0.991351
-0.193442
-0.16248
-0.102072
-0.0208002
0.0718621
0.172022
0.27899
0.392446
0.512081
0.6378
0.752871
0.841466
0.905816
0.950643
0.978486
0.991873
0.99569
0.995783
0.995468
0.995303
-0.21528
-0.183626
-0.122339
-0.040138
0.0535194
0.154784
0.26304
0.378014
0.499585
0.627967
0.746635
0.839411
0.907873
0.956337
0.986494
0.999828
1.00168
0.999873
0.998905
0.998952
-0.23638
-0.20411
-0.141989
-0.0589467
0.0355799
0.137811
0.247161
0.363409
0.486617
0.617279
0.739126
0.835992
0.908781
0.961415
0.995164
1.01013
1.01083
1.00621
1.00257
1.00084
-0.256831
-0.223931
-0.161023
-0.0772539
0.0180102
0.121057
0.231296
0.348565
0.473097
0.605662
0.730185
0.830943
0.908249
0.965266
1.00357
1.02264
1.02519
1.01918
1.00844
1.00764
-0.276542
-0.243159
-0.179575
-0.0952561
0.000507454
0.104174
0.215017
0.332977
0.458455
0.592451
0.719114
0.823441
0.905682
0.967012
1.00961
1.0342
1.03988
1.03046
1.01239
1.00838
-0.295365
-0.261757
-0.19747
-0.112741
-0.0166705
0.087471
0.198542
0.316978
0.442998
0.577911
0.706021
0.812958
0.900435
0.965496
1.00877
1.03316
1.04257
1.02024
0.961636
0.935797
-0.313181
-0.280541
-0.214292
-0.129174
-0.0328269
0.071441
0.182146
0.30084
0.427007
0.562221
0.690994
0.799007
0.891657
0.960076
0.996501
1.01496
1.00889
0.961218
0.900023
0.862355
-0.357764
-0.298675
-0.229924
-0.145153
-0.0487549
0.0551624
0.165959
0.284448
0.410287
0.545055
0.673669
0.781141
0.875843
0.949168
0.971996
0.966983
0.927466
0.867138
0.800158
0.763315
-0.332736
-0.314197
-0.253577
-0.168871
-0.0729372
0.0307711
0.140827
0.258632
0.383451
0.516549
0.6432
0.748065
0.833741
0.912978
0.902877
0.803658
0.719324
0.660557
0.599048
0.628184
-0.364849
-0.332669
-0.271148
-0.186982
-0.0911151
0.0122792
0.122481
0.239614
0.363372
0.494607
0.618453
0.719594
0.795419
0.83931
0.794661
0.663295
0.560192
0.49062
0.410979
0.458772
-0.38992
-0.355248
-0.291831
-0.207454
-0.111629
-0.00828223
0.101829
0.218169
0.340551
0.469334
0.589303
0.684454
0.749302
0.756542
0.657727
0.509289
0.38554
0.297027
0.203963
0.237291
-0.414401
-0.37859
-0.313698
-0.22859
-0.132588
-0.0293227
0.0803274
0.195721
0.31651
0.442462
0.557646
0.645745
0.694022
0.669834
0.519382
0.348442
0.193319
0.0633585
-0.0582996
-0.0441527
-0.43863
-0.402364
-0.336486
-0.250723
-0.154462
-0.0513425
0.0577082
0.17202
0.290945
0.413693
0.523394
0.604176
0.632643
0.566056
0.38367
0.192201
0.00966968
-0.140354
-0.3431
-0.421725
-0.463286
-0.427035
-0.36054
-0.274265
-0.177729
-0.0747047
0.0338163
0.147026
0.263973
0.383288
0.487188
0.5588
0.563853
0.446318
0.260173
0.0563803
-0.131036
-0.289404
-0.411045
-0.529098
-0.489452
-0.453089
-0.386227
-0.299626
-0.202947
-0.100108
0.00779308
0.119733
0.23436
0.349705
0.447347
0.507011
0.486197
0.332455
0.144713
-0.0531688
-0.224048
-0.318249
-0.34387
-0.357451
-0.517268
-0.480815
-0.41368
-0.326908
-0.23027
-0.12778
-0.0207391
0.0896222
0.201479
0.312117
0.403004
0.446142
0.407276
0.223212
0.0371943
-0.140405
-0.269039
-0.305662
-0.31437
-0.314738
-0.547019
-0.510334
-0.44293
-0.356092
-0.259639
-0.157725
-0.0518037
0.0566358
0.165251
0.270454
0.353596
0.381246
0.312408
0.123281
-0.0567339
-0.210973
-0.282325
-0.296243
-0.297093
-0.296873
-0.578709
-0.541677
-0.473986
-0.387166
-0.291062
-0.18993
-0.085409
0.0207516
0.125681
0.224769
0.298879
0.312198
0.206264
0.0325196
-0.137358
-0.258835
-0.286057
-0.287152
-0.287815
-0.287297
-0.61207
-0.574659
-0.506731
-0.420035
-0.324442
-0.224332
-0.121524
-0.0180119
0.0828121
0.175164
0.239864
0.234446
0.110624
-0.0522645
-0.200861
-0.267989
-0.283214
-0.282555
-0.28277
-0.282465
-0.646516
-0.608915
-0.540883
-0.454453
-0.359573
-0.260754
-0.159984
-0.0595359
0.0368478
0.122026
0.176551
0.154866
0.0207315
-0.128818
-0.244118
-0.278605
-0.278397
-0.278888
-0.278865
-0.278776
-0.68159
-0.643891
-0.575937
-0.489974
-0.396071
-0.298844
-0.200476
-0.10354
-0.0119321
0.0661945
0.10753
0.0780827
-0.0632062
-0.189563
-0.271706
-0.278697
-0.279238
-0.277821
-0.27717
-0.276922
-0.716321
-0.678675
-0.611111
-0.525922
-0.433345
-0.338076
-0.242489
-0.149504
-0.0631239
0.00848471
0.0383951
-0.00434055
-0.140577
-0.23897
-0.280063
-0.291485
-0.286833
-0.28478
-0.28309
-0.282003
-0.748772
-0.711936
-0.645338
-0.561359
-0.470567
-0.377682
-0.285284
-0.196615
-0.115971
-0.0506969
-0.0273309
-0.094098
-0.21734
-0.292335
-0.303362
-0.303343
-0.30003
-0.296166
-0.294443
-0.293544
-0.777894
-0.742132
-0.677165
-0.595025
-0.506613
-0.416649
-0.32787
-0.243814
-0.169176
-0.110506
-0.0924779
-0.176811
-0.299555
-0.358874
-0.357425
-0.340686
-0.323672
-0.314091
-0.311108
-0.309875
-0.800932
-0.767124
-0.704794
-0.625335
-0.540073
-0.45372
-0.368999
-0.289809
-0.221234
-0.168905
-0.156601
-0.244041
-0.385176
-0.460688
-0.428505
-0.394973
-0.367086
-0.355041
-0.351168
-0.348964
-0.81571
-0.784704
-0.726097
-0.650483
-0.569307
-0.487397
-0.407262
-0.333017
-0.270496
-0.222792
-0.211707
-0.284484
-0.441026
-0.585917
-0.542122
-0.478028
-0.45706
-0.44032
-0.427708
-0.421209
-0.819514
-0.792449
-0.738903
-0.668554
-0.592603
-0.516023
-0.44118
-0.371784
-0.314632
-0.270587
-0.250237
-0.290388
-0.369592
-0.562201
-0.532285
-0.492417
-0.485779
-0.478884
-0.46965
-0.467486
-0.810345
-0.788072
-0.741127
-0.677707
-0.608447
-0.538057
-0.469249
-0.404625
-0.351158
-0.311622
-0.268812
-0.259422
-0.139865
-0.131688
-0.23501
-0.355675
-0.407823
-0.421764
-0.430483
-0.432849
-0.785048
-0.768409
-0.730774
-0.676679
-0.615664
-0.552555
-0.49004
-0.430627
-0.379713
-0.345535
-0.294611
-0.256865
-0.0184645
0.239113
0.00987107
-0.289696
-0.421187
-0.444491
-0.453947
-0.455172
-0.746945
-0.736102
-0.708655
-0.665681
-0.614112
-0.559228
-0.503025
-0.448997
-0.400666
-0.366874
-0.356535
-0.39602
-0.472323
-0.461812
-0.692409
-0.810504
-0.761476
-0.658861
-0.6096
-0.61817
-0.702755
-0.69656
-0.679719
-0.647641
-0.606014
-0.558618
-0.508473
-0.458612
-0.412801
-0.383577
-0.384889
-0.618127
-1.17123
-1.7336
-1.92543
-1.94474
-1.76772
-1.51846
-1.30541
-1.23152
-0.662461
-0.658863
-0.650371
-0.628236
-0.594449
-0.552932
-0.50716
-0.458517
-0.414418
-0.382165
-0.382296
-0.607851
-1.08588
-1.68306
-1.89081
-1.77038
-1.57345
-1.37238
-1.21401
-1.13236
-0.633165
-0.63105
-0.626806
-0.612178
-0.58385
-0.545357
-0.50038
-0.451223
-0.397752
-0.350013
-0.3302
-0.33221
-0.304935
-0.206085
-0.0626302
0.131588
0.235097
0.353868
0.398952
0.427108
-0.611457
-0.610646
-0.609405
-0.601464
-0.577766
-0.539525
-0.491579
-0.434884
-0.371015
-0.301678
-0.221195
-0.128991
0.108231
0.453627
0.80954
1.11775
1.34881
1.42713
1.44989
1.45854
-0.599332
-0.598913
-0.598472
-0.594668
-0.575606
-0.536622
-0.48166
-0.417659
-0.339108
-0.244061
-0.148158
-0.00347449
0.226979
0.625442
1.09487
1.51825
1.76854
1.87639
1.93799
1.95866
-0.592057
-0.59181
-0.591276
-0.590049
-0.575963
-0.53758
-0.477436
-0.400958
-0.312752
-0.204412
-0.100491
0.0234095
0.304634
0.722517
1.17058
1.55789
1.83152
1.99649
2.07322
2.09686
-0.590059
-0.588703
-0.585608
-0.584332
-0.578428
-0.545479
-0.481081
-0.392494
-0.294219
-0.185428
-0.0703713
0.0182694
0.2632
0.632603
1.01065
1.36245
1.63573
1.79591
1.86832
1.88924
-0.607833
-0.604227
-0.597967
-0.596652
-0.598165
-0.567491
-0.489682
-0.390093
-0.278666
-0.174467
-0.0601213
0.0289099
0.178362
0.501753
0.82232
1.09531
1.29963
1.42461
1.48299
1.49918
-0.657416
-0.655991
-0.66036
-0.666696
-0.663388
-0.606684
-0.498497
-0.382643
-0.267723
-0.155603
-0.052205
0.0462712
0.158342
0.407559
0.647701
0.846308
0.990064
1.07736
1.11506
1.12505
-0.709219
-0.718793
-0.738336
-0.747415
-0.723501
-0.629686
-0.491147
-0.363079
-0.251365
-0.14018
-0.0458381
0.0416962
0.123523
0.259135
0.453757
0.61069
0.722923
0.788727
0.817532
0.824243
-0.672136
-0.68518
-0.705883
-0.713559
-0.679679
-0.572608
-0.440429
-0.325043
-0.221108
-0.126519
-0.0405358
0.0349251
0.0889897
0.202414
0.339313
0.444593
0.523625
0.57171
0.590939
0.594212
-0.486395
-0.49835
-0.515064
-0.52187
-0.494084
-0.4211
-0.338854
-0.257127
-0.178719
-0.107225
-0.0396586
0.0246289
0.0681535
0.126191
0.232983
0.314844
0.373521
0.405572
0.417854
0.418246
-0.230679
-0.236989
-0.247612
-0.257688
-0.254498
-0.236561
-0.208671
-0.170811
-0.129489
-0.0787611
-0.0369144
0.0124837
0.0507989
0.0867129
0.147902
0.20141
0.245502
0.271497
0.281363
0.28168
-0.0239433
-0.0268992
-0.035149
-0.0507226
-0.0709427
-0.0877188
-0.0950477
-0.0925619
-0.0795395
-0.0536634
-0.0299128
-0.00165694
0.0295528
0.0477666
0.0909385
0.128773
0.153245
0.166261
0.170565
0.169394
0.0882089
0.0864042
0.0791407
0.0615036
0.034195
0.00456666
-0.0194374
-0.0347903
-0.0397185
-0.0356402
-0.0272303
-0.0216195
-0.0142905
-0.0115982
0.0170184
0.0449632
0.0673435
0.0792165
0.082931
0.0816541
0.128454
0.127055
0.121061
0.105943
0.081283
0.052823
0.0258586
0.00454078
-0.0103996
-0.0194441
-0.0298676
-0.0471845
-0.0650047
-0.0557173
-0.026815
-0.00641306
0.00713112
0.0110612
0.0117329
0.0107742
0.132746
0.131696
0.127316
0.116188
0.097579
0.0746538
0.0511443
0.0293309
0.0112455
-0.00541154
-0.0280037
-0.060609
-0.0916713
-0.0818946
-0.0555565
-0.0393951
-0.0326457
-0.0324458
-0.0332967
-0.0336963
0.123415
0.12272
0.119771
0.112178
0.099111
0.082109
0.0634588
0.045186
0.0277702
0.0100518
-0.0143359
-0.0495555
-0.0774892
-0.062186
-0.0456105
-0.0390746
-0.0404471
-0.0437107
-0.0452808
-0.0453878
0.110301
0.1099
0.108069
0.103193
0.0944898
0.0827971
0.0693073
0.0555244
0.0422331
0.0284822
0.0118387
-0.0121825
-0.0251282
-0.0104367
-0.00533424
-0.00937028
-0.0177092
-0.0238939
-0.0259468
-0.0260019
0.0969333
0.096741
0.0957219
0.0928246
0.0874617
0.0799429
0.0711708
0.0623629
0.0544762
0.0480603
0.0450895
0.0403664
0.0433555
0.0538533
0.0481259
0.0361768
0.0251494
0.0193702
0.0181472
0.0181557
0.0843456
0.0842809
0.0838218
0.0823809
0.0794526
0.0752692
0.0703104
0.0660503
0.0635376
0.0662341
0.0786833
0.0958831
0.11935
0.124037
0.109927
0.0929083
0.0828385
0.0788846
0.0779625
0.0775897
0.0726943
0.0726977
0.0725909
0.0721161
0.0709251
0.0691431
0.0671358
0.066379
0.068528
0.078672
0.103669
0.140975
0.179857
0.179119
0.158996
0.143344
0.137537
0.137011
0.136368
0.135382
0.0617842
0.0618279
0.0619208
0.0620273
0.0619511
0.0617914
0.0618495
0.0633976
0.0681232
0.0820092
0.11168
0.154884
0.19394
0.190759
0.174594
0.167602
0.167985
0.171032
0.171297
0.169779
0.0514718
0.0515225
0.0517079
0.0520943
0.0526034
0.053275
0.054467
0.0569682
0.0624377
0.0756034
0.102087
0.138254
0.166985
0.162495
0.156244
0.159646
0.166676
0.171706
0.171849
0.170387
0.041484
0.0415341
0.0417148
0.0421619
0.0429025
0.0438239
0.0454043
0.0478292
0.0525527
0.0616055
0.0779964
0.0998348
0.115183
0.113657
0.116516
0.128064
0.139368
0.14504
0.145235
0.143981
0.0316174
0.0316433
0.0317826
0.0321649
0.032861
0.0337498
0.0350542
0.0368983
0.0398908
0.0431849
0.0463597
0.048368
0.0427967
0.0447002
0.0588811
0.0791168
0.0934606
0.0998626
0.100544
0.0996489
0.0217994
0.0218055
0.0218886
0.0221473
0.0226453
0.0233865
0.0242095
0.0250993
0.02625
0.0251609
0.0169369
-0.00398046
-0.0315292
-0.0284424
0.00157934
0.0285039
0.0435633
0.0482144
0.0489348
0.0486116
0.0119967
0.011972
0.011994
0.0121497
0.0124117
0.0127988
0.0131899
0.0138838
0.0137404
0.0110181
-0.000878839
-0.0308667
-0.0620465
-0.0535162
-0.0242373
-0.0022638
0.00587479
0.00765072
0.00890028
0.00921796
0.00251035
0.00248887
0.00249903
0.00247776
0.00242881
0.00252017
0.00273644
0.00276501
0.00263446
0.00237607
0.000749681
-0.00456521
-0.0179473
-0.0202013
-0.0132143
-0.0105323
-0.0116205
-0.00919365
-0.00468098
-0.00262914
0.0903423
0.280011
0.4546
0.603251
0.723624
0.820002
0.900872
0.966561
0.983401
0.979497
0.384227
0.506697
0.621728
0.722206
0.80737
0.878118
0.933999
0.971746
0.991863
1.00835
0.584019
0.665914
0.747092
0.818654
0.879956
0.930884
0.970955
1.00139
1.02416
1.0434
0.731742
0.789504
0.848449
0.901472
0.947246
0.986123
1.01866
1.04587
1.06633
1.08524
0.849198
0.893165
0.93726
0.978195
1.01461
1.04674
1.0748
1.09853
1.11659
1.13463
0.948862
0.984722
1.01994
1.05396
1.08531
1.11366
1.13866
1.15962
1.17546
1.19294
1.03732
1.06965
1.10204
1.13333
1.16245
1.18892
1.21211
1.23111
1.24507
1.2621
1.12461
1.1573
1.18983
1.22111
1.24994
1.27579
1.29798
1.31555
1.32797
1.3445
1.21918
1.25562
1.29043
1.32294
1.35217
1.37757
1.39873
1.41506
1.4267
1.44285
1.3323
1.37285
1.40993
1.44296
1.4715
1.49553
1.51518
1.53048
1.5424
1.55848
1.47365
1.51481
1.5501
1.57973
1.60497
1.6266
1.64512
1.66062
1.67375
1.6897
1.64529
1.67781
1.70467
1.72698
1.74708
1.76581
1.78356
1.80034
1.81525
1.83098
1.83169
1.84899
1.86612
1.8828
1.8989
1.91364
1.92754
1.94203
1.95727
1.97457
2.01507
2.02507
2.03828
2.04927
2.05868
2.06834
2.07895
2.08913
2.09843
2.12409
2.23301
2.22731
2.21436
2.2001
2.19381
2.19952
2.21767
2.24619
2.27996
2.31628
2.53582
2.39986
2.32036
2.27786
2.26054
2.26451
2.29194
2.34981
2.45748
2.63588
0.838082
0.831778
0.824044
0.812922
0.799341
0.786678
0.77626
0.768218
0.76246
0.759078
0.758664
0.761439
0.766625
0.773949
0.783474
0.795287
0.808839
0.821761
0.830745
0.838283
0.747167
0.753085
0.761152
0.767277
0.770335
0.769808
0.766701
0.762674
0.759043
0.756703
0.756505
0.758698
0.762403
0.766814
0.77089
0.773118
0.772032
0.767386
0.760326
0.75249
0.740446
0.742818
0.74608
0.748843
0.751281
0.753452
0.754606
0.754426
0.753443
0.752577
0.752723
0.754071
0.755802
0.756992
0.756888
0.7554
0.753226
0.750852
0.747862
0.74484
0.735697
0.736785
0.738696
0.741023
0.74288
0.744258
0.745448
0.746403
0.746951
0.747261
0.747738
0.748409
0.748819
0.748657
0.747994
0.747045
0.745695
0.74371
0.741593
0.740112
0.730727
0.731361
0.732484
0.734229
0.736055
0.737624
0.738842
0.739861
0.740782
0.7416
0.742297
0.742737
0.742809
0.74255
0.741972
0.740967
0.739515
0.737887
0.736537
0.735731
0.72587
0.726309
0.727092
0.728383
0.729885
0.73142
0.732861
0.734105
0.735189
0.736186
0.737034
0.737538
0.737637
0.737337
0.736622
0.735582
0.734397
0.733229
0.73231
0.731774
0.721121
0.721449
0.722055
0.72311
0.724384
0.725752
0.727187
0.728601
0.729911
0.731107
0.732129
0.732755
0.732882
0.732558
0.731898
0.731062
0.730175
0.729291
0.728611
0.728216
0.716455
0.71671
0.717198
0.718094
0.719242
0.720515
0.721889
0.723349
0.724838
0.726281
0.72753
0.728296
0.728511
0.728309
0.727845
0.727232
0.726545
0.725878
0.725374
0.725072
0.711807
0.71201
0.712415
0.713201
0.714269
0.715491
0.716846
0.718342
0.719958
0.721624
0.723137
0.724137
0.724558
0.724574
0.724328
0.723921
0.723425
0.722938
0.72257
0.722332
0.707096
0.707259
0.707606
0.708318
0.709338
0.710537
0.711914
0.713484
0.71524
0.717135
0.718961
0.720289
0.721005
0.721283
0.721265
0.721066
0.720764
0.720439
0.720182
0.719992
0.702237
0.702369
0.702674
0.703342
0.704343
0.705564
0.707
0.708681
0.710623
0.712805
0.715015
0.716746
0.717818
0.718402
0.718644
0.718664
0.718548
0.718376
0.718212
0.718058
0.697153
0.697261
0.697538
0.698185
0.699202
0.700486
0.702025
0.703872
0.706068
0.708613
0.711296
0.713517
0.715006
0.715938
0.716471
0.716726
0.716803
0.716779
0.716695
0.71657
0.691754
0.69184
0.692101
0.692754
0.693822
0.695211
0.696912
0.699
0.701543
0.704565
0.707839
0.710637
0.712605
0.713926
0.714774
0.715295
0.715577
0.715693
0.715679
0.715576
0.68594
0.686006
0.68626
0.68694
0.688099
0.689644
0.691569
0.693976
0.696957
0.700564
0.704558
0.708067
0.710612
0.712393
0.713604
0.714416
0.714922
0.715183
0.715235
0.715152
0.679595
0.679642
0.679897
0.680628
0.681915
0.683668
0.685886
0.688694
0.692221
0.696563
0.701444
0.7058
0.709038
0.711374
0.713013
0.714156
0.71492
0.715336
0.715454
0.715387
0.672576
0.672604
0.672866
0.673669
0.675125
0.677146
0.679742
0.683058
0.687267
0.692492
0.69845
0.703859
0.70794
0.710932
0.71308
0.71461
0.715668
0.716254
0.716439
0.716385
0.664699
0.664715
0.664977
0.665876
0.667556
0.669926
0.67301
0.676991
0.682076
0.688433
0.695713
0.702363
0.70742
0.711171
0.713907
0.715908
0.717293
0.718065
0.718319
0.718277
0.655678
0.655667
0.655983
0.657021
0.658993
0.661809
0.665507
0.67031
0.676489
0.684243
0.693135
0.701279
0.707509
0.712168
0.715609
0.718157
0.719927
0.720907
0.721233
0.7212
0.645228
0.645194
0.645556
0.646778
0.649108
0.652491
0.656976
0.66283
0.670367
0.679834
0.690698
0.700632
0.708264
0.71401
0.718294
0.721486
0.723707
0.724923
0.725328
0.725302
0.632891
0.632834
0.633268
0.634728
0.637531
0.641657
0.647165
0.654375
0.663649
0.67525
0.688501
0.700589
0.709843
0.716842
0.722121
0.726068
0.728802
0.730278
0.730761
0.730738
0.618046
0.617967
0.618519
0.620317
0.623746
0.628868
0.63574
0.644733
0.656259
0.670563
0.686691
0.701244
0.712372
0.720809
0.727224
0.732038
0.735354
0.737109
0.737668
0.737642
0.599744
0.599646
0.60039
0.60268
0.606987
0.613478
0.622195
0.633541
0.64792
0.665493
0.68506
0.702555
0.715863
0.72597
0.733691
0.739503
0.74348
0.745531
0.746157
0.74612
0.57656
0.576459
0.577533
0.580587
0.586225
0.594744
0.606116
0.620723
0.638888
0.660584
0.684168
0.704885
0.720542
0.732479
0.741645
0.748565
0.753251
0.755587
0.756256
0.756195
0.546174
0.546118
0.547789
0.552175
0.560066
0.571756
0.587038
0.606118
0.629085
0.655687
0.683868
0.708205
0.726454
0.740355
0.751089
0.759216
0.764599
0.767169
0.767839
0.767741
0.504447
0.504591
0.507574
0.51475
0.526849
0.54376
0.564841
0.589979
0.618968
0.651326
0.684598
0.712761
0.73369
0.74962
0.761974
0.771325
0.777302
0.779978
0.78059
0.780447
0.443688
0.444987
0.452268
0.465868
0.4857
0.51093
0.540202
0.573043
0.60912
0.647894
0.686582
0.718679
0.742311
0.760232
0.77412
0.784544
0.790941
0.793514
0.793965
0.793785
0.370638
0.373218
0.387406
0.410917
0.441374
0.476496
0.514693
0.55575
0.599475
0.6454
0.690498
0.727595
0.754882
0.775611
0.791552
0.803222
0.810074
0.812718
0.813216
0.813153
0.295711
0.302569
0.323884
0.357306
0.398118
0.442907
0.490053
0.539426
0.590914
0.64411
0.695784
0.738059
0.769095
0.792747
0.810944
0.823907
0.831053
0.833505
0.83388
0.833905
0.23471
0.243393
0.269373
0.309855
0.358753
0.411741
0.466963
0.524139
0.583046
0.643231
0.701166
0.74832
0.782833
0.809066
0.829184
0.843241
0.850591
0.853069
0.853732
0.853845
0.1847
0.194089
0.223583
0.269323
0.32435
0.383905
0.445937
0.509987
0.575667
0.642378
0.706205
0.757909
0.795656
0.824252
0.846077
0.861312
0.869363
0.872387
0.873178
0.87332
0.142662
0.152365
0.184276
0.234125
0.294178
0.359195
0.426979
0.497002
0.568733
0.641424
0.710746
0.766692
0.807406
0.838173
0.861631
0.87803
0.886931
0.890328
0.891236
0.891372
0.10614
0.116
0.149744
0.202891
0.267133
0.336833
0.409634
0.484939
0.562131
0.640314
0.714757
0.774654
0.818066
0.85079
0.875674
0.892987
0.902513
0.906267
0.907299
0.907442
0.0734961
0.0834351
0.118641
0.174533
0.242343
0.316098
0.393341
0.473411
0.55561
0.638901
0.718118
0.781707
0.827588
0.862034
0.888089
0.906099
0.916149
0.920241
0.921306
0.921435
0.0435399
0.053542
0.0899266
0.148217
0.219132
0.296438
0.377633
0.462038
0.548867
0.636962
0.720727
0.787791
0.836001
0.871949
0.898885
0.917324
0.92772
0.932042
0.933173
0.933291
0.0153858
0.0254624
0.0629435
0.123353
0.196998
0.277444
0.362178
0.450538
0.541673
0.634319
0.722476
0.792941
0.843393
0.880714
0.908314
0.927026
0.937587
0.94206
0.943262
0.943371
-0.0114931
-0.00129334
0.037195
0.099506
0.175577
0.258817
0.346744
0.438715
0.533857
0.630839
0.723295
0.797191
0.849892
0.888522
0.916704
0.935674
0.946345
0.95087
0.952054
0.952129
-0.037479
-0.0271017
0.0123321
0.0763765
0.154614
0.240361
0.331175
0.426449
0.525322
0.62644
0.723164
0.800581
0.855593
0.895539
0.924292
0.943484
0.954237
0.958735
0.959882
0.95991
-0.0628293
-0.0521931
-0.0118532
0.0537815
0.133965
0.221952
0.315383
0.413681
0.516009
0.621083
0.722065
0.803134
0.860591
0.901916
0.931284
0.950685
0.961458
0.965896
0.966977
0.966986
-0.0876048
-0.0766969
-0.0354863
0.0316092
0.113547
0.203547
0.299334
0.400384
0.50591
0.61474
0.719968
0.804858
0.864955
0.907798
0.937861
0.957476
0.968207
0.972494
0.973464
0.973419
-0.111907
-0.100709
-0.0586498
0.0098273
0.0933346
0.185133
0.283036
0.386578
0.495041
0.60742
0.716835
0.80571
0.868711
0.9133
0.944159
0.963939
0.974508
0.978559
0.979363
0.979258
-0.135737
-0.124243
-0.0813235
-0.0115699
0.0733425
0.166742
0.26654
0.372315
0.483443
0.599129
0.712626
0.805614
0.87184
0.918516
0.950326
0.970186
0.980396
0.984066
0.984678
0.984527
-0.159134
-0.147277
-0.103485
-0.0325604
0.0536054
0.148424
0.249903
0.357665
0.471184
0.589898
0.707298
0.804475
0.874267
0.923502
0.956564
0.976426
0.985986
0.989064
0.989437
0.989249
-0.181856
-0.169752
-0.125102
-0.0531085
0.0341825
0.130264
0.233202
0.342709
0.458345
0.579786
0.700826
0.8022
0.875867
0.92823
0.963094
0.983047
0.991559
0.993642
0.99365
0.993438
-0.204054
-0.191601
-0.146132
-0.0731753
0.0151183
0.112313
0.216539
0.32754
0.445019
0.568879
0.693214
0.798693
0.876475
0.932528
0.97003
0.990626
0.997818
0.998171
0.997382
0.997137
-0.225536
-0.212776
-0.166549
-0.092701
-0.00349651
0.0946615
0.200001
0.312281
0.431318
0.557246
0.684495
0.793861
0.875901
0.936081
0.977173
0.999695
1.00617
1.00409
1.00125
1.0005
-0.246393
-0.233296
-0.186288
-0.111621
-0.021618
0.0773841
0.183681
0.297021
0.417354
0.545026
0.674742
0.78761
0.873954
0.938476
0.983829
1.01003
1.01804
1.01475
1.0082
0.998636
-0.266504
-0.25315
-0.205438
-0.1301
-0.0394736
0.060183
0.167225
0.281333
0.402651
0.531683
0.663401
0.779315
0.870119
0.939271
0.989077
1.0204
1.03313
1.03081
1.02021
1.01741
-0.285817
-0.272416
-0.223992
-0.14807
-0.0570338
0.0430853
0.150669
0.265201
0.387182
0.517102
0.650307
0.768543
0.863733
0.937672
0.990744
1.02571
1.04151
1.04365
1.01011
0.970736
-0.304098
-0.290947
-0.241899
-0.165395
-0.0742714
0.026073
0.134029
0.248762
0.371022
0.50133
0.635409
0.755019
0.853811
0.932997
0.986862
1.01635
1.0323
1.01741
0.966214
0.910734
-0.324079
-0.307468
-0.25884
-0.181578
-0.0909935
0.00940569
0.11696
0.232066
0.354269
0.484484
0.618649
0.738559
0.838711
0.925826
0.975984