/*--------------------------------*- C++ -*----------------------------------*\
  =========                 |
  \\      /  F ield         | OpenFOAM: The Open Source CFD Toolbox
   \\    /   O peration     | Website:  https://openfoam.org
    \\  /    A nd           | Version:  6
     \\/     M anipulation  |
\*---------------------------------------------------------------------------*/
FoamFile
{
    version     2.0;
    format      ascii;
    class       volScalarField;
    location    "35.8";
    object      p;
}
// * * * * * * * * * * * * * * * * * * * * * * * * * * * * * * * * * * * * * //

dimensions      [0 2 -2 0 0 0 0];

internalField   nonuniform List<scalar> 
8800
(
0.961506
0.912187
0.874213
0.84613
0.825947
0.811324
0.800676
0.793071
0.7881
0.785912
0.787138
0.79136
0.798061
0.807414
0.820101
0.837389
0.861243
0.894326
0.937255
0.989765
0.796017
0.802358
0.811498
0.815035
0.812409
0.806296
0.799318
0.793022
0.78814
0.785161
0.78479
0.787277
0.791805
0.79785
0.80489
0.811881
0.816728
0.816583
0.809894
0.800987
0.769574
0.775805
0.780293
0.784146
0.78707
0.787984
0.786847
0.784654
0.782568
0.781589
0.782466
0.784786
0.787568
0.789759
0.790221
0.788389
0.784992
0.780956
0.776161
0.772442
0.765337
0.768099
0.770692
0.772831
0.77454
0.776069
0.777117
0.777388
0.777158
0.777103
0.777737
0.77873
0.779355
0.779111
0.778065
0.776657
0.774947
0.772614
0.770187
0.768619
0.760367
0.761789
0.763615
0.765673
0.767353
0.7686
0.769635
0.770522
0.771194
0.771745
0.772263
0.77256
0.772446
0.771973
0.77122
0.77004
0.768332
0.7664
0.765028
0.764225
0.755491
0.756392
0.757624
0.759226
0.760883
0.762361
0.763569
0.764582
0.76549
0.766302
0.766857
0.767044
0.766891
0.766392
0.765489
0.764219
0.762791
0.761478
0.760635
0.760113
0.750724
0.751378
0.752326
0.753619
0.755028
0.756488
0.757888
0.759131
0.760225
0.761191
0.761866
0.762108
0.761918
0.761318
0.760406
0.759357
0.758278
0.757312
0.756708
0.756327
0.746078
0.746581
0.747354
0.74847
0.749731
0.75109
0.75251
0.753919
0.75524
0.756418
0.757242
0.757541
0.75736
0.756825
0.75609
0.755262
0.754411
0.753671
0.753217
0.752922
0.741502
0.741901
0.74255
0.743549
0.744741
0.746049
0.747466
0.748969
0.750488
0.751913
0.75293
0.753349
0.75329
0.752922
0.752374
0.751727
0.751047
0.75048
0.750133
0.749898
0.736923
0.737246
0.73781
0.738736
0.739884
0.741173
0.74261
0.744187
0.74585
0.747508
0.748793
0.749467
0.749641
0.749484
0.749128
0.748659
0.748133
0.747708
0.747443
0.74725
0.732277
0.732543
0.733047
0.733927
0.735057
0.736364
0.737847
0.739524
0.741386
0.743336
0.744951
0.745925
0.746379
0.746472
0.746322
0.746032
0.745664
0.745357
0.745157
0.744995
0.727484
0.727703
0.728169
0.729036
0.730191
0.731566
0.733163
0.73501
0.73711
0.7394
0.741435
0.742807
0.743581
0.743925
0.743982
0.743862
0.743636
0.743431
0.743286
0.743148
0.72248
0.722662
0.723107
0.723993
0.72522
0.72671
0.728485
0.730594
0.733052
0.735818
0.738349
0.740144
0.741254
0.741866
0.742144
0.74219
0.742105
0.741994
0.741894
0.741776
0.717196
0.717346
0.71779
0.718722
0.720056
0.721697
0.723672
0.726085
0.728977
0.73231
0.735468
0.737798
0.739338
0.740304
0.740857
0.741104
0.74115
0.741125
0.741066
0.740964
0.711543
0.711665
0.712111
0.713099
0.714554
0.716385
0.718636
0.72141
0.724811
0.728843
0.732768
0.73577
0.737875
0.739259
0.74012
0.740622
0.740844
0.740918
0.740901
0.74081
0.705406
0.705492
0.705958
0.707041
0.708689
0.710798
0.713433
0.716738
0.720815
0.725699
0.730578
0.734414
0.737111
0.738949
0.740161
0.740905
0.741315
0.741493
0.741517
0.741436
0.698649
0.698726
0.699212
0.7004
0.70227
0.704704
0.707786
0.711719
0.716674
0.722701
0.728697
0.73345
0.736919
0.73936
0.741016
0.742098
0.742729
0.743023
0.743088
0.743014
0.691018
0.691078
0.69161
0.692935
0.695073
0.697894
0.701537
0.706226
0.712167
0.719477
0.726936
0.732956
0.737375
0.740553
0.742812
0.744321
0.745241
0.74568
0.745788
0.745717
0.682279
0.682321
0.682922
0.684418
0.686902
0.690261
0.694666
0.700411
0.707756
0.716787
0.725919
0.73329
0.738773
0.74279
0.745728
0.74774
0.749009
0.749619
0.749771
0.749694
0.671949
0.671982
0.672667
0.674402
0.677325
0.681356
0.6867
0.693705
0.702681
0.713748
0.725016
0.734144
0.740982
0.746034
0.749796
0.752437
0.754131
0.754934
0.755121
0.75503
0.659371
0.659409
0.660233
0.662319
0.665879
0.67086
0.677502
0.686234
0.697386
0.711033
0.724799
0.735902
0.744245
0.750479
0.755152
0.758498
0.76065
0.761648
0.761868
0.761757
0.643691
0.643741
0.644789
0.647432
0.651925
0.658231
0.666639
0.677631
0.691531
0.708339
0.72509
0.738525
0.748606
0.756179
0.761884
0.766011
0.768643
0.769832
0.770079
0.769945
0.623741
0.623811
0.625218
0.628734
0.634626
0.642861
0.653747
0.667787
0.685209
0.705854
0.726097
0.74216
0.754196
0.763263
0.770126
0.775091
0.778217
0.779592
0.779862
0.779701
0.59776
0.597876
0.599906
0.604873
0.613004
0.624129
0.638572
0.656701
0.678571
0.7038
0.728005
0.746986
0.761173
0.771882
0.779994
0.785886
0.78952
0.791061
0.791338
0.791148
0.562808
0.563078
0.566375
0.573969
0.585865
0.60147
0.62098
0.644498
0.671822
0.702359
0.730965
0.753111
0.769608
0.782101
0.791601
0.798484
0.80262
0.804279
0.804536
0.804311
0.513185
0.514376
0.520992
0.533973
0.552363
0.574844
0.601344
0.631671
0.665425
0.701896
0.735226
0.760678
0.779574
0.793913
0.804918
0.812845
0.817414
0.819123
0.819321
0.819051
0.440279
0.447866
0.463062
0.485906
0.51395
0.545586
0.580586
0.61875
0.659697
0.702721
0.741274
0.770436
0.792075
0.808628
0.821435
0.830524
0.835666
0.837545
0.837767
0.837541
0.362688
0.378874
0.403499
0.436876
0.475135
0.516118
0.559727
0.605992
0.654626
0.705048
0.749971
0.783994
0.809372
0.828943
0.844128
0.854788
0.860664
0.862744
0.863031
0.862957
0.296328
0.316135
0.348564
0.390916
0.438183
0.487955
0.53996
0.594153
0.650296
0.707814
0.758732
0.797288
0.826127
0.848348
0.865429
0.877253
0.883698
0.886111
0.886432
0.886419
0.242301
0.264253
0.301925
0.35067
0.404989
0.462123
0.521535
0.583009
0.646162
0.710381
0.766902
0.809533
0.841333
0.865591
0.884011
0.896933
0.90439
0.906983
0.907391
0.907446
0.197587
0.22073
0.262115
0.315811
0.375783
0.438991
0.5047
0.572606
0.642143
0.712537
0.774216
0.820492
0.85473
0.880683
0.900252
0.914101
0.922212
0.925191
0.925769
0.925869
0.159508
0.183375
0.22746
0.285114
0.349778
0.418137
0.489314
0.562903
0.638191
0.714259
0.780618
0.83014
0.866493
0.893809
0.914328
0.928856
0.937477
0.940868
0.941628
0.941737
0.12608
0.150438
0.196619
0.257481
0.326075
0.39889
0.474914
0.553624
0.634189
0.715475
0.786163
0.838567
0.876742
0.905153
0.926381
0.941369
0.950321
0.954033
0.954925
0.955033
0.0958002
0.120597
0.168463
0.232024
0.30397
0.380667
0.461035
0.544442
0.629903
0.716099
0.790854
0.845948
0.885738
0.915087
0.936853
0.95216
0.961323
0.965249
0.966199
0.966281
0.0676695
0.0929119
0.142236
0.208095
0.282917
0.363035
0.447325
0.535043
0.625112
0.716005
0.794699
0.852399
0.893732
0.923961
0.946184
0.961737
0.971045
0.975054
0.97602
0.976055
0.0408866
0.0666277
0.117295
0.185209
0.262543
0.345696
0.433524
0.525225
0.61963
0.715071
0.797675
0.857993
0.900904
0.932018
0.9547
0.970459
0.979793
0.983822
0.984844
0.984879
0.0151084
0.0413357
0.0932457
0.163
0.242573
0.328441
0.41948
0.514849
0.61334
0.713205
0.799751
0.862812
0.90742
0.93952
0.962715
0.978691
0.988051
0.99201
0.992984
0.992995
-0.0100654
0.0167506
0.0698292
0.141248
0.22283
0.311135
0.405091
0.503834
0.606169
0.710337
0.800912
0.866911
0.913407
0.94663
0.970424
0.986645
0.996034
0.999919
1.00078
1.00072
-0.0347248
-0.00730399
0.0468862
0.119835
0.203221
0.293718
0.390311
0.492151
0.598084
0.706437
0.801138
0.87032
0.918944
0.953453
0.977944
0.994432
1.00379
1.00754
1.00828
1.00815
-0.0589579
-0.0309255
0.0243459
0.0987083
0.183717
0.276176
0.375142
0.479799
0.58908
0.701464
0.800363
0.872994
0.924041
0.960055
0.985333
1.00208
1.01134
1.01486
1.01544
1.01526
-0.0828117
-0.0541301
0.00220576
0.0778573
0.164314
0.258534
0.359621
0.466818
0.579173
0.695386
0.798499
0.874838
0.928686
0.966497
0.992667
1.00962
1.01866
1.02186
1.02228
1.02205
-0.106301
-0.0768958
-0.019528
0.0573026
0.145064
0.240839
0.343809
0.453265
0.568398
0.688181
0.795462
0.875745
0.932823
0.972836
1.00007
1.01712
1.02571
1.02847
1.0287
1.02844
-0.129242
-0.0991624
-0.0408125
0.0370842
0.126016
0.223169
0.327778
0.439225
0.556825
0.679876
0.791187
0.875584
0.936301
0.979087
1.00773
1.02475
1.03253
1.03461
1.03463
1.03435
-0.151583
-0.120865
-0.061596
0.0172697
0.107241
0.205595
0.31163
0.424786
0.544545
0.670511
0.785631
0.874194
0.938915
0.985152
1.01592
1.03299
1.03939
1.04029
1.03998
1.03973
-0.173368
-0.141954
-0.0818341
-0.00208908
0.0888121
0.188208
0.29546
0.410062
0.531663
0.660159
0.778746
0.871442
0.940397
0.990721
1.02472
1.04268
1.04734
1.04598
1.04474
1.04467
-0.19442
-0.16239
-0.101459
-0.0209166
0.0707956
0.171096
0.279372
0.395171
0.518302
0.648931
0.770534
0.867194
0.94046
0.995243
1.03373
1.0545
1.05861
1.05423
1.04987
1.04782
-0.214827
-0.182165
-0.120471
-0.0392393
0.0531598
0.154216
0.263311
0.380049
0.504388
0.636757
0.760847
0.861184
0.938798
0.998043
1.0418
1.06794
1.07498
1.07006
1.05832
1.05622
-0.234492
-0.20135
-0.139003
-0.0572517
0.0356036
0.137216
0.246842
0.364183
0.489338
0.62296
0.748968
0.852563
0.934753
0.998119
1.04647
1.07907
1.0904
1.08251
1.06506
1.05872
-0.253271
-0.219898
-0.156874
-0.0747426
0.0183769
0.120405
0.23019
0.347912
0.473476
0.607827
0.735039
0.840882
0.927748
0.994416
1.04291
1.07526
1.0908
1.07026
1.0105
0.983427
-0.27104
-0.238562
-0.173683
-0.091189
0.00214843
0.10427
0.213622
0.331508
0.457083
0.591547
0.719168
0.825724
0.917047
0.986438
1.02721
1.05202
1.0515
1.00542
0.943058
0.904461
-0.315452
-0.256475
-0.189385
-0.107173
-0.0138546
0.0879051
0.197266
0.314855
0.439968
0.573806
0.701019
0.806705
0.899457
0.973319
0.999365
0.998413
0.963346
0.905128
0.837745
0.800539
-0.290531
-0.272284
-0.212896
-0.130955
-0.0380684
0.0633952
0.171974
0.288718
0.412604
0.544529
0.669463
0.772098
0.85638
0.933885
0.928327
0.832383
0.749052
0.691084
0.629425
0.660409
-0.322546
-0.290705
-0.230529
-0.149045
-0.0562368
0.0448472
0.153483
0.269472
0.392175
0.522071
0.644055
0.742868
0.817747
0.859909
0.81835
0.688362
0.585318
0.515962
0.435898
0.486034
-0.347529
-0.313182
-0.251142
-0.169451
-0.0766962
0.024274
0.132731
0.24783
0.369041
0.496355
0.614411
0.707488
0.770663
0.777762
0.680224
0.530403
0.405479
0.316549
0.222235
0.258391
-0.371908
-0.336407
-0.272904
-0.190518
-0.0976164
0.00322182
0.111147
0.225205
0.344723
0.469112
0.582388
0.668825
0.715512
0.690415
0.539473
0.365696
0.207901
0.0751117
-0.0486496
-0.0299159
-0.396024
-0.360064
-0.295599
-0.212589
-0.119461
-0.0188097
0.0884546
0.201345
0.318916
0.440024
0.547849
0.626989
0.653877
0.58887
0.401597
0.205484
0.0180239
-0.136533
-0.345335
-0.425012
-0.420552
-0.38461
-0.319553
-0.236059
-0.142684
-0.0421636
0.0645096
0.176215
0.291744
0.40938
0.511443
0.581607
0.586211
0.467992
0.275937
0.065825
-0.128404
-0.292503
-0.418991
-0.546
-0.446553
-0.410517
-0.345116
-0.261318
-0.167823
-0.0675228
0.0384647
0.148816
0.261982
0.375652
0.471498
0.530375
0.508536
0.352042
0.158169
-0.0461922
-0.223444
-0.32277
-0.349591
-0.363605
-0.474171
-0.438064
-0.372412
-0.288464
-0.195024
-0.0951059
0.00995425
0.118641
0.22901
0.338028
0.427205
0.47036
0.428294
0.241166
0.0487112
-0.135913
-0.269965
-0.30871
-0.318305
-0.318393
-0.503687
-0.467368
-0.401472
-0.31747
-0.224226
-0.124911
-0.0210336
0.085637
0.192755
0.296469
0.378038
0.405532
0.335656
0.139264
-0.0466387
-0.207458
-0.283857
-0.297819
-0.299226
-0.299081
-0.535091
-0.49846
-0.4323
-0.348317
-0.255428
-0.156911
-0.0544895
0.0497972
0.153214
0.251087
0.323623
0.3376
0.229375
0.0459526
-0.13001
-0.257879
-0.287845
-0.288199
-0.288781
-0.28842
-0.568118
-0.531148
-0.464762
-0.380898
-0.288514
-0.19103
-0.0903623
0.0111661
0.110406
0.201996
0.264915
0.260023
0.1325
-0.0412724
-0.196822
-0.269987
-0.285475
-0.282505
-0.281516
-0.281072
-0.602169
-0.565062
-0.498572
-0.414952
-0.323263
-0.227074
-0.128469
-0.0300941
0.0645279
0.149464
0.202721
0.17993
0.0421272
-0.118112
-0.243111
-0.278804
-0.278745
-0.279869
-0.279183
-0.278114
-0.636798
-0.599647
-0.533229
-0.450024
-0.35927
-0.26467
-0.168482
-0.0736577
0.0159141
0.0941373
0.13589
0.0994545
-0.0429446
-0.179584
-0.276318
-0.282314
-0.281152
-0.279058
-0.277342
-0.276718
-0.670928
-0.633985
-0.567952
-0.485428
-0.395913
-0.303265
-0.20988
-0.118983
-0.0348957
0.0365594
0.0681571
0.0154811
-0.126757
-0.222842
-0.290954
-0.301955
-0.284381
-0.270512
-0.267878
-0.267985
-0.702961
-0.66681
-0.601684
-0.520227
-0.43233
-0.342023
-0.25191
-0.16526
-0.0870759
-0.0229877
0.00490714
-0.0769758
-0.219564
-0.26775
-0.269816
-0.290209
-0.297822
-0.296406
-0.290122
-0.287047
-0.731616
-0.696622
-0.633012
-0.553173
-0.467385
-0.379821
-0.293497
-0.211474
-0.139446
-0.0833199
-0.0576611
-0.159973
-0.336299
-0.375472
-0.348861
-0.369617
-0.393409
-0.400107
-0.391909
-0.386702
-0.754362
-0.721356
-0.660185
-0.582686
-0.499674
-0.41531
-0.333079
-0.256425
-0.190566
-0.141986
-0.126858
-0.225518
-0.452805
-0.649698
-0.623101
-0.553951
-0.52073
-0.520735
-0.514178
-0.510549
-0.769202
-0.738948
-0.681154
-0.606961
-0.527526
-0.446993
-0.368819
-0.298144
-0.238615
-0.197766
-0.193794
-0.291906
-0.477984
-0.7609
-0.781472
-0.658231
-0.627452
-0.612951
-0.603534
-0.60087
-0.773449
-0.747054
-0.693888
-0.624083
-0.549056
-0.47315
-0.399273
-0.333314
-0.28143
-0.25026
-0.233016
-0.357902
-0.359444
-0.340088
-0.327919
-0.530529
-0.625449
-0.615125
-0.61389
-0.612753
-0.7654
-0.743541
-0.696354
-0.632298
-0.562489
-0.491881
-0.422965
-0.359921
-0.314248
-0.29129
-0.279021
-0.382579
-0.310722
-0.131131
-0.198328
-0.421443
-0.576845
-0.588094
-0.593371
-0.592194
-0.742125
-0.725584
-0.68671
-0.630368
-0.566787
-0.501569
-0.437481
-0.378358
-0.332184
-0.31627
-0.350622
-0.468455
-0.599026
-0.700728
-0.942613
-1.10953
-1.06644
-0.836047
-0.713251
-0.715474
-0.70642
-0.695364
-0.665624
-0.618392
-0.561872
-0.501609
-0.441401
-0.384926
-0.339238
-0.315312
-0.372178
-0.567175
-1.00667
-1.45658
-1.75002
-1.88929
-1.81352
-1.61161
-1.38838
-1.30589
-0.663622
-0.657226
-0.637182
-0.598894
-0.549123
-0.493155
-0.434745
-0.37652
-0.326862
-0.304317
-0.309774
-0.47632
-0.825704
-1.30891
-1.51576
-1.6512
-1.66657
-1.5714
-1.43172
-1.33324
-0.621849
-0.618275
-0.60678
-0.576916
-0.531997
-0.477881
-0.418555
-0.356697
-0.291876
-0.236699
-0.173804
-0.179101
-0.352302
-0.586505
-0.707573
-0.563091
-0.277131
-0.0257517
0.144591
0.221643
-0.58776
-0.5857
-0.579786
-0.557276
-0.515547
-0.460362
-0.395799
-0.324468
-0.242071
-0.134359
-0.0247301
0.166711
0.392811
0.799078
1.27044
1.72347
2.13686
2.41148
2.53602
2.57215
-0.558836
-0.558098
-0.556423
-0.541919
-0.503339
-0.445198
-0.37445
-0.288958
-0.19712
-0.0728484
0.0765899
0.254004
0.627058
1.07903
1.69786
2.26308
2.66139
2.9051
3.02276
3.05911
-0.537432
-0.536959
-0.536888
-0.528855
-0.494862
-0.433723
-0.355945
-0.265791
-0.159764
-0.0468936
0.0976004
0.227446
0.443565
0.895596
1.42844
1.90448
2.27655
2.50845
2.61588
2.64453
-0.52141
-0.520253
-0.520211
-0.51741
-0.48823
-0.424392
-0.339595
-0.2478
-0.143936
-0.0302121
0.0822823
0.198663
0.298143
0.628012
1.07071
1.4407
1.71784
1.87669
1.94547
1.96371
-0.515515
-0.514741
-0.516557
-0.514952
-0.48353
-0.412023
-0.322122
-0.228288
-0.131977
-0.0275521
0.0706283
0.164428
0.245167
0.43051
0.73709
1.01219
1.20372
1.30594
1.34788
1.35803
-0.507259
-0.510129
-0.515471
-0.511334
-0.47057
-0.388327
-0.295119
-0.204772
-0.114422
-0.0220864
0.0597846
0.125284
0.188487
0.328071
0.529146
0.698645
0.814427
0.877643
0.905407
0.911557
-0.455327
-0.461264
-0.468447
-0.460852
-0.41469
-0.334598
-0.25164
-0.17142
-0.0947223
-0.0175226
0.0475772
0.0985361
0.128848
0.232831
0.37839
0.48371
0.550805
0.586797
0.601118
0.603389
-0.32471
-0.330828
-0.337132
-0.331133
-0.29704
-0.243518
-0.186904
-0.127359
-0.0685664
-0.00888738
0.0401688
0.0792804
0.0999948
0.155175
0.254216
0.328236
0.373402
0.397904
0.407356
0.408173
-0.153464
-0.15697
-0.161838
-0.162813
-0.153134
-0.134674
-0.108507
-0.0764222
-0.0385918
0.00463173
0.0391021
0.0677796
0.0900407
0.12847
0.187237
0.232526
0.262612
0.279678
0.286772
0.287021
-0.0121657
-0.0137415
-0.0182156
-0.0269457
-0.0364237
-0.0417426
-0.0392894
-0.0292208
-0.0091082
0.0194894
0.0454651
0.0684109
0.0939955
0.122404
0.163586
0.188721
0.203943
0.212669
0.215386
0.214509
0.0679321
0.0671049
0.06294
0.052038
0.0356616
0.020139
0.0105503
0.00831595
0.0158327
0.0323075
0.0539031
0.0731162
0.0959219
0.114405
0.139721
0.154938
0.165402
0.171639
0.17359
0.172409
0.0996931
0.0990397
0.0955987
0.0861377
0.0710734
0.0550849
0.0423341
0.034932
0.0343223
0.0430174
0.0572836
0.0741407
0.0926911
0.102164
0.115827
0.12501
0.134004
0.140026
0.141715
0.140594
0.105889
0.105364
0.102876
0.0961351
0.0848857
0.0718019
0.0600868
0.0514611
0.0468441
0.0484411
0.0555037
0.064212
0.0794041
0.0826669
0.0884642
0.097701
0.107781
0.114149
0.116214
0.114672
0.101522
0.101095
0.0994093
0.0950677
0.0875485
0.0782449
0.0686297
0.0607423
0.0546752
0.0512472
0.0508821
0.0455042
0.0459677
0.0454831
0.0557518
0.0684756
0.0792525
0.0848668
0.0867036
0.085504
0.0943161
0.0939609
0.0928273
0.0901713
0.0854526
0.0792927
0.072138
0.0659222
0.0593716
0.0540867
0.0438853
0.0232945
0.00674367
0.0035879
0.0229379
0.0404398
0.0522237
0.057077
0.0583369
0.0576877
0.0876719
0.0873844
0.0866132
0.0850185
0.082227
0.0783183
0.0738046
0.068983
0.064077
0.0574868
0.0440156
0.017574
-0.00821543
-0.00608629
0.0160742
0.0325734
0.0405526
0.043034
0.0433525
0.0428111
0.0824712
0.0822572
0.081722
0.08068
0.079055
0.0766776
0.0740578
0.0712387
0.0684763
0.06443
0.0548127
0.038214
0.0219095
0.0294966
0.0428353
0.0500602
0.0518335
0.050633
0.0500637
0.0499606
0.0783192
0.0781682
0.077795
0.0770079
0.0758368
0.0746822
0.0733267
0.072239
0.0720223
0.0719407
0.0741872
0.0764418
0.0772789
0.0850384
0.0884503
0.0854207
0.0825143
0.0810415
0.0810565
0.0805863
0.0744782
0.0743912
0.0741799
0.0735758
0.0728851
0.0719382
0.071617
0.0716053
0.0737767
0.078487
0.0931501
0.11633
0.137886
0.142126
0.130371
0.123153
0.120323
0.120642
0.119721
0.118086
0.0701725
0.0701499
0.0701102
0.0697904
0.069176
0.0686133
0.0683575
0.0694138
0.0717902
0.0802494
0.101118
0.141595
0.180473
0.178297
0.155572
0.141421
0.137278
0.137973
0.13703
0.13585
0.0647335
0.0647503
0.0648309
0.0647868
0.0642928
0.0641396
0.0639822
0.0647383
0.0662869
0.0743144
0.0925617
0.134309
0.17057
0.164901
0.144914
0.135323
0.13539
0.135784
0.133465
0.131583
0.0576628
0.0577043
0.0579269
0.0582109
0.058359
0.0581339
0.0581704
0.0587853
0.0602128
0.0608226
0.0668479
0.0925447
0.108399
0.100083
0.0905653
0.0902286
0.0944149
0.0965011
0.0933875
0.0912489
0.0490229
0.0490263
0.0491921
0.0495932
0.050281
0.0507402
0.0507883
0.0506551
0.0510256
0.044597
0.0354544
0.0300697
0.00825345
0.00378879
0.00556148
0.0124974
0.0140329
0.0123067
0.0107817
0.0100408
0.0395077
0.0395079
0.0399044
0.040676
0.0417159
0.0428552
0.0438089
0.0436994
0.0406699
0.0297925
0.0110701
-0.0277858
-0.071331
-0.0841441
-0.0723333
-0.0700303
-0.0769378
-0.0808161
-0.0809092
-0.081241
0.0286094
0.0285842
0.0291341
0.0300311
0.0315902
0.0339612
0.036269
0.0375441
0.0346604
0.0234904
0.00509157
-0.0358656
-0.088956
-0.0987315
-0.102389
-0.120745
-0.150713
-0.162246
-0.15804
-0.153947
0.0160406
0.0158529
0.0161706
0.0175392
0.0196278
0.0216881
0.0242694
0.0277642
0.025863
0.01685
0.0107163
-0.0112428
-0.0435662
-0.0639781
-0.0735308
-0.0983904
-0.124284
-0.134081
-0.130823
-0.127505
0.00394688
0.00372994
0.00331855
0.00278496
0.00234187
0.00216546
0.00288463
0.00426957
0.00516873
0.00277154
0.00522333
0.016834
0.00986869
-0.00692901
-0.0152662
-0.0264264
-0.0286382
-0.0304795
-0.0287299
-0.0261028
0.108104
0.303003
0.483115
0.636099
0.760519
0.860678
0.945002
1.01327
1.03102
1.027
0.411107
0.537277
0.655743
0.759363
0.847376
0.920645
0.978555
1.01772
1.03861
1.05496
0.617419
0.701499
0.784797
0.858451
0.921622
0.974129
1.01544
1.04674
1.07003
1.08924
0.768947
0.828036
0.888383
0.942754
0.989758
1.02965
1.06296
1.09071
1.11156
1.13049
0.888097
0.933151
0.978512
1.0204
1.0576
1.09038
1.11894
1.14305
1.16135
1.17943
0.989877
1.02625
1.0621
1.09673
1.12858
1.15733
1.18266
1.20387
1.21989
1.23739
1.07925
1.11201
1.14477
1.17641
1.20585
1.23258
1.256
1.27516
1.28925
1.3063
1.16717
1.2001
1.23288
1.26438
1.29341
1.31943
1.34176
1.35945
1.37196
1.38852
1.26213
1.29868
1.33365
1.36631
1.39567
1.42119
1.44246
1.45886
1.47056
1.48673
1.37546
1.41604
1.45324
1.48639
1.51503
1.53914
1.55886
1.57421
1.58617
1.60226
1.5169
1.55815
1.59351
1.62322
1.64852
1.67021
1.68877
1.7043
1.71745
1.73341
1.68868
1.72132
1.74819
1.77052
1.79065
1.80941
1.82719
1.84398
1.85892
1.87465
1.87518
1.89251
1.90966
1.92636
1.94247
1.95723
1.97115
1.98564
2.0009
2.0182
2.05859
2.06861
2.08184
2.09284
2.10225
2.11192
2.12254
2.13273
2.14204
2.1677
2.27657
2.27087
2.25793
2.24367
2.23738
2.24311
2.26126
2.28979
2.32356
2.35989
2.57938
2.44341
2.36393
2.32145
2.30414
2.3081
2.33554
2.39341
2.50108
2.67948
0.865203
0.858898
0.851162
0.840037
0.826452
0.813783
0.803355
0.795298
0.78952
0.786108
0.785654
0.788382
0.793529
0.800824
0.81033
0.822129
0.83567
0.848585
0.857564
0.865099
0.774293
0.780211
0.788278
0.7944
0.797454
0.796922
0.793806
0.789767
0.786112
0.783741
0.783499
0.785641
0.789306
0.793687
0.79774
0.79995
0.798851
0.794195
0.787127
0.779286
0.767588
0.76996
0.77322
0.775981
0.778416
0.780581
0.781728
0.781531
0.780523
0.779617
0.779713
0.781015
0.782701
0.783856
0.783722
0.782211
0.780021
0.777634
0.774635
0.771609
0.762858
0.763946
0.765856
0.76818
0.770032
0.771404
0.772584
0.773521
0.774037
0.7743
0.774718
0.775335
0.775702
0.775496
0.774798
0.773823
0.772453
0.770453
0.768324
0.766839
0.757915
0.758548
0.759671
0.761415
0.763239
0.764803
0.766011
0.767009
0.767896
0.768666
0.769296
0.769667
0.76968
0.76937
0.768749
0.76771
0.76623
0.764577
0.763212
0.762403
0.753094
0.753533
0.754316
0.755605
0.757104
0.758635
0.76006
0.76128
0.762327
0.763262
0.764032
0.764454
0.764482
0.764119
0.763355
0.762273
0.761051
0.759854
0.758917
0.758377
0.74839
0.748717
0.749325
0.750383
0.751658
0.753025
0.754449
0.755841
0.757119
0.758267
0.759202
0.759712
0.759732
0.759325
0.758594
0.757698
0.756761
0.755834
0.75513
0.754732
0.743789
0.744042
0.744533
0.745436
0.746591
0.747869
0.74924
0.750686
0.75214
0.753511
0.754648
0.755295
0.755384
0.755066
0.754503
0.753806
0.753051
0.752329
0.751796
0.751491
0.73922
0.739421
0.739829
0.740625
0.741706
0.742936
0.744291
0.745778
0.747354
0.748942
0.750329
0.751168
0.751438
0.751309
0.750933
0.750419
0.749835
0.749279
0.748875
0.748635
0.734617
0.734777
0.735126
0.735853
0.736894
0.738107
0.739475
0.741015
0.742716
0.74451
0.746182
0.747325
0.74786
0.747978
0.747821
0.74749
0.74707
0.746651
0.746352
0.746162
0.729908
0.730036
0.730343
0.731025
0.732045
0.733275
0.7347
0.736338
0.738202
0.740256
0.742278
0.743795
0.744663
0.745064
0.745137
0.744997
0.744745
0.744466
0.744254
0.744101
0.725017
0.725117
0.725394
0.726062
0.727109
0.728411
0.729954
0.731779
0.733904
0.736314
0.738779
0.740738
0.741968
0.742648
0.742947
0.742992
0.742891
0.742731
0.742593
0.742473
0.719885
0.719962
0.720221
0.720897
0.722005
0.72342
0.725121
0.727182
0.72964
0.732495
0.735515
0.73801
0.739671
0.740694
0.741267
0.741528
0.741579
0.74153
0.741458
0.741364
0.714423
0.714476
0.714724
0.715426
0.71662
0.718177
0.720074
0.722401
0.725265
0.728694
0.732395
0.735534
0.737722
0.739184
0.740105
0.740635
0.740868
0.740947
0.740939
0.740868
0.70854
0.708569
0.708814
0.709559
0.710862
0.7126
0.714775
0.717491
0.720834
0.72489
0.729422
0.733424
0.736315
0.738286
0.739571
0.740376
0.740848
0.741069
0.741131
0.741083
0.702121
0.702128
0.70237
0.703171
0.704635
0.706637
0.709173
0.712389
0.716453
0.721449
0.72703
0.731963
0.735569
0.73812
0.739854
0.740975
0.741695
0.74206
0.742191
0.742163
0.694956
0.694947
0.695203
0.696078
0.697724
0.700005
0.702949
0.70673
0.711546
0.717559
0.724413
0.730604
0.735227
0.738558
0.740881
0.742477
0.743525
0.744083
0.744293
0.744284
0.686811
0.686776
0.687057
0.688038
0.68991
0.692569
0.69607
0.700641
0.706524
0.713899
0.722325
0.729965
0.735702
0.7399
0.742922
0.745078
0.746514
0.747306
0.747608
0.747614
0.677332
0.677278
0.677599
0.678728
0.680883
0.684027
0.68824
0.693793
0.700991
0.710062
0.720426
0.729818
0.736937
0.742202
0.746059
0.748872
0.750786
0.751865
0.752266
0.752276
0.665946
0.665877
0.666272
0.667598
0.670142
0.673932
0.679081
0.685911
0.694784
0.705932
0.718671
0.730211
0.738962
0.745487
0.750347
0.753932
0.756413
0.757808
0.758306
0.758314
0.65189
0.651807
0.652332
0.653993
0.657122
0.66185
0.668312
0.676889
0.687987
0.701814
0.717417
0.731436
0.742032
0.749975
0.755937
0.760374
0.763467
0.765186
0.765777
0.765778
0.634174
0.63408
0.634818
0.636992
0.640992
0.647067
0.655351
0.666277
0.680242
0.697382
0.716439
0.733366
0.746114
0.755665
0.762888
0.768283
0.772032
0.774077
0.774758
0.77475
0.611368
0.61128
0.61237
0.615354
0.620739
0.628845
0.63979
0.653989
0.671735
0.693003
0.716115
0.736322
0.75144
0.762771
0.771377
0.777804
0.78225
0.784622
0.78538
0.785358
0.581213
0.581179
0.582896
0.587264
0.594979
0.606312
0.621206
0.639913
0.662516
0.68875
0.71652
0.740373
0.758088
0.771379
0.781479
0.789068
0.794242
0.796917
0.797727
0.797681
0.53967
0.539847
0.542944
0.550193
0.562151
0.578757
0.599495
0.624285
0.652948
0.685005
0.717959
0.745731
0.766195
0.781542
0.793261
0.802099
0.808023
0.810919
0.811732
0.81165
0.479056
0.480413
0.487921
0.501698
0.521399
0.546326
0.575239
0.607751
0.643572
0.682147
0.720662
0.752513
0.775782
0.793233
0.806603
0.816716
0.823286
0.826305
0.827026
0.8269
0.405925
0.408718
0.423232
0.447057
0.477467
0.5122
0.550016
0.590787
0.634359
0.680256
0.725413
0.762544
0.789718
0.81024
0.826035
0.837756
0.84528
0.848721
0.849643
0.849657
0.331189
0.338324
0.359991
0.393704
0.434379
0.478737
0.52547
0.574599
0.626017
0.679355
0.73132
0.773931
0.805216
0.828991
0.84743
0.861061
0.869608
0.873035
0.873877
0.874025
0.270687
0.279473
0.305789
0.346495
0.395156
0.447625
0.502408
0.559344
0.61825
0.678668
0.737077
0.784775
0.819782
0.846327
0.866717
0.881667
0.890753
0.894817
0.896222
0.896477
0.221135
0.230596
0.260319
0.306132
0.360827
0.41981
0.481364
0.54516
0.610863
0.677879
0.742281
0.794642
0.832858
0.861646
0.883527
0.899604
0.909735
0.914539
0.916196
0.916492
0.179682
0.189376
0.221368
0.271124
0.330716
0.395099
0.46236
0.532119
0.603886
0.676907
0.746826
0.80339
0.844405
0.87504
0.898227
0.915223
0.926158
0.931481
0.933364
0.933705
0.14381
0.153598
0.187302
0.240158
0.303756
0.372703
0.444939
0.519974
0.597191
0.675713
0.75069
0.811051
0.854526
0.886705
0.910887
0.928607
0.940163
0.945967
0.947988
0.948327
0.111881
0.1217
0.156701
0.212119
0.279059
0.351909
0.428528
0.508316
0.590549
0.674152
0.753854
0.817715
0.863365
0.896861
0.921817
0.940029
0.951952
0.958071
0.960222
0.960581
0.0826301
0.0924977
0.128587
0.18616
0.255926
0.332151
0.412665
0.496784
0.583653
0.672061
0.756255
0.823464
0.871155
0.905852
0.93147
0.950073
0.962235
0.968542
0.970733
0.971092
0.0551328
0.0650672
0.102169
0.161649
0.233861
0.313031
0.397023
0.485088
0.576282
0.669262
0.757835
0.828336
0.878049
0.913913
0.940171
0.959105
0.971418
0.977817
0.979986
0.980267
0.0288099
0.0388707
0.0769085
0.138101
0.212483
0.294266
0.381381
0.47305
0.568269
0.66562
0.758512
0.832352
0.884167
0.921271
0.948212
0.967481
0.979923
0.986302
0.988465
0.988686
0.00327011
0.0135227
0.0524661
0.115223
0.191537
0.275656
0.365592
0.460552
0.559518
0.661046
0.758226
0.83554
0.889622
0.92811
0.95583
0.975473
0.988053
0.994396
0.996471
0.996681
-0.0217367
-0.0112132
0.0286117
0.0928184
0.170881
0.257089
0.349572
0.447536
0.549975
0.655489
0.756946
0.83791
0.894495
0.93455
0.963169
0.983255
0.995968
1.00225
1.0042
1.00435
-0.0462473
-0.0354565
0.00521788
0.0707879
0.15044
0.238525
0.333295
0.433985
0.539626
0.648917
0.754626
0.839441
0.898802
0.940655
0.970314
0.99089
1.0037
1.00983
1.01162
1.01169
-0.0703694
-0.0592771
-0.0177599
0.0491093
0.130189
0.219955
0.316774
0.419918
0.528489
0.641329
0.751206
0.840045
0.9025
0.94646
0.977332
0.998424
1.01126
1.01717
1.01873
1.01871
-0.0940741
-0.0826705
-0.0402927
0.0277752
0.110145
0.201414
0.30006
0.405391
0.516605
0.632719
0.746628
0.83961
0.905517
0.951988
0.984314
1.00593
1.01865
1.02417
1.02545
1.02535
-0.117375
-0.105605
-0.062359
0.00681505
0.0903505
0.182956
0.283213
0.390476
0.504038
0.623119
0.740851
0.83804
0.90773
0.957195
0.991373
1.01356
1.0259
1.03079
1.03172
1.03154
-0.140025
-0.128001
-0.0839081
-0.0137206
0.0708681
0.164663
0.26631
0.375258
0.490875
0.612599
0.733867
0.835235
0.908956
0.961957
0.998621
1.02163
1.03326
1.03705
1.03744
1.03719
-0.162166
-0.149787
-0.104884
-0.033781
0.051748
0.146589
0.249455
0.359829
0.477216
0.601253
0.725689
0.83109
0.909
0.966013
1.00603
1.03061
1.04142
1.04331
1.04263
1.04226
-0.183599
-0.170912
-0.125256
-0.0533025
0.0330823
0.128827
0.232739
0.344321
0.463181
0.589164
0.716365
0.825523
0.907667
0.968988
1.01324
1.04086
1.05174
1.05115
1.04795
1.04685
-0.204411
-0.191384
-0.144953
-0.0722191
0.0149168
0.111451
0.216253
0.328823
0.448886
0.576481
0.705981
0.818465
0.904772
0.970445
1.01944
1.05184
1.06539
1.0641
1.05708
1.04679
-0.224477
-0.211193
-0.164066
-0.0906957
-0.00297422
0.0941627
0.199639
0.312901
0.433847
0.562655
0.693967
0.809264
0.899747
0.969862
1.02351
1.06196
1.08153
1.08251
1.07225
1.0679
-0.243746
-0.230411
-0.182581
-0.108659
-0.0205607
0.0769861
0.182936
0.296545
0.418042
0.547581
0.680174
0.797516
0.891961
0.966464
1.02314
1.06549
1.08858
1.0947
1.06173
1.02154
-0.261982
-0.248895
-0.200441
-0.125983
-0.0378132
0.059902
0.166162
0.279893
0.401554
0.531322
0.664573
0.782993
0.880525
0.959639
1.01658
1.05215
1.0758
1.06462
1.01292
0.95598
-0.281907
-0.265398
-0.217301
-0.142217
-0.0545552
0.0431744
0.148992
0.262999
0.384483
0.514001
0.647128
0.76555
0.863959
0.950135
1.00263
1.03778
1.02552
0.988226
0.926262
0.866203
-0.271909
-0.248021
-0.197486
-0.117822
-0.0249607
0.076811
0.188125
0.30547
0.430226
0.563544
0.690305
0.795404
0.886573
0.973525