/*--------------------------------*- C++ -*----------------------------------*\
  =========                 |
  \\      /  F ield         | OpenFOAM: The Open Source CFD Toolbox
   \\    /   O peration     | Website:  https://openfoam.org
    \\  /    A nd           | Version:  6
     \\/     M anipulation  |
\*---------------------------------------------------------------------------*/
FoamFile
{
    version     2.0;
    format      ascii;
    class       volScalarField;
    location    "3.5";
    object      p;
}
// * * * * * * * * * * * * * * * * * * * * * * * * * * * * * * * * * * * * * //

dimensions      [1 -1 -2 0 0 0 0];

internalField   nonuniform List<scalar> 
5250
(
1
1.00003
1.00007
1.0002
1.00042
1.00117
1.00238
1.00676
1.01343
1.04047
1.07497
1.25365
1.4956
2.66081
5.28719
12.8949
12.6823
11.9799
11.5056
11.5366
11.7109
12.025
12.1994
12.283
12.3464
1
1.00003
1.00007
1.0002
1.00041
1.00117
1.00237
1.00673
1.01337
1.04028
1.07462
1.25251
1.49285
2.65379
5.26418
12.8383
12.6325
11.9456
11.4869
11.5243
11.7062
12.0158
12.1866
12.2712
12.3392
1
1.00003
1.00007
1.0002
1.00041
1.00115
1.00234
1.00667
1.01324
1.03987
1.0739
1.24998
1.48699
2.63776
5.21198
12.7078
12.5236
11.8776
11.4425
11.4862
11.6753
11.9746
12.1381
12.2236
12.2981
1
1.00003
1.00007
1.00019
1.0004
1.00114
1.00231
1.00656
1.01303
1.0392
1.07274
1.24591
1.47756
2.61168
5.12692
12.4991
12.3605
11.7927
11.3762
11.4209
11.6082
11.8914
12.0448
12.129
12.2088
1
1.00003
1.00006
1.00019
1.00039
1.00111
1.00225
1.00641
1.01274
1.03826
1.07108
1.2401
1.46416
2.57453
5.00645
12.2109
12.149
11.6965
11.2903
11.3312
11.507
11.7724
11.9142
11.9939
12.0742
1
1.00003
1.00006
1.00018
1.00038
1.00107
1.00218
1.0062
1.01234
1.03699
1.06887
1.23224
1.44635
2.52402
4.84432
11.8283
11.9348
11.5726
11.1816
11.2163
11.373
11.6137
11.7397
11.8115
11.892
1
1.00002
1.00006
1.00018
1.00037
1.00103
1.00209
1.00594
1.01184
1.03535
1.06606
1.22192
1.42417
2.45701
4.63559
11.3318
11.7385
11.4284
11.0519
11.0775
11.2055
11.4107
11.5107
11.5627
11.634
1
1.00002
1.00006
1.00017
1.00034
1.00097
1.00197
1.0056
1.01119
1.03328
1.06245
1.20895
1.39615
2.37365
4.37843
10.7173
11.5502
11.2914
10.9076
10.9152
11.0002
11.156
11.215
11.2275
11.2618
1
1.00002
1.00005
1.00015
1.00032
1.0009
1.00182
1.00518
1.01037
1.03071
1.05798
1.19307
1.36296
2.27029
4.07307
9.9587
11.3853
11.1711
10.762
10.7158
10.7612
10.8425
10.832
10.7627
10.6758
1
1.00002
1.00005
1.00013
1.00028
1.00079
1.0016
1.00457
1.00898
1.02762
1.04994
1.17573
1.3171
2.15678
3.73786
9.04186
11.2767
11.0762
10.6282
10.4786
10.4823
10.4658
10.3664
10.108
9.65829
1
1.00001
1.00005
1.0001
1.00028
1.00057
1.00163
1.00317
1.0098
1.01728
1.06207
1.10398
1.38797
1.79438
3.55215
7.85348
11.2773
11.0432
10.4883
10.2242
10.1664
10.0485
9.77134
9.1281
7.42693
1
1.00001
1.00004
1.00009
1.00025
1.00051
1.00143
1.00288
1.0084
1.01589
1.05202
1.09074
1.32463
1.65542
3.08354
6.48488
11.3101
11.028
10.3489
9.95894
9.82423
9.6196
9.1933
8.3436
6.59752
1
1.00001
1.00003
1.00009
1.00018
1.00052
1.00106
1.00299
1.00601
1.01738
1.03426
1.10466
1.2051
1.65501
2.51941
5.38241
11.1598
10.906
10.2002
9.688
9.47616
9.21518
8.70299
7.85641
6.49743
1
1.00001
1.00003
1.00008
1.00016
1.00045
1.00092
1.0026
1.00524
1.01502
1.02973
1.09006
1.17501
1.56141
2.28556
4.82094
10.5823
10.5023
10.0061
9.41588
9.14176
8.85093
8.33894
7.56838
6.50291
1
1.00001
1.00002
1.00007
1.00014
1.00038
1.00078
1.00218
1.0044
1.01271
1.02431
1.0783
1.13983
1.49226
2.05103
4.28855
9.3898
9.93579
9.69441
9.1861
8.8603
8.54524
8.06909
7.38437
6.50219
1
1.00001
1.00002
1.00005
1.00011
1.00032
1.00065
1.00182
1.00366
1.01059
1.02018
1.06544
1.11471
1.41259
1.84493
3.70499
7.9813
9.59753
9.45279
9.06322
8.65655
8.30511
7.85839
7.24835
6.49581
1
1.00001
1.00002
1.00004
1.00009
1.00026
1.00053
1.00148
1.00299
1.00856
1.01667
1.05211
1.09321
1.32641
1.66196
3.09368
6.43898
9.499
9.38224
9.00672
8.51116
8.12231
7.69017
7.13965
6.48033
1
1
1.00001
1.00004
1.00007
1.0002
1.00042
1.00116
1.00235
1.00661
1.01307
1.03905
1.07192
1.23978
1.46731
2.47792
4.60654
9.29844
9.26295
8.98299
8.41704
7.97696
7.55141
7.04752
6.45953
1
1
1.00001
1.00003
1.00006
1.00016
1.00033
1.00091
1.00186
1.00519
1.01044
1.03022
1.05784
1.1857
1.35193
2.19008
3.80488
8.49251
9.01841
8.84224
8.37722
7.85661
7.42291
6.96119
6.43633
1
1
1.00001
1.00002
1.00004
1.00012
1.00025
1.0007
1.00142
1.00399
1.00789
1.02351
1.04295
1.14672
1.25992
1.93257
3.1083
6.87125
8.67666
8.58276
8.28077
7.75062
7.3108
6.88283
6.41224
1
1
1.00001
1.00002
1.00003
1.0001
1.00019
1.00054
1.0011
1.00306
1.00617
1.01757
1.03462
1.10544
1.20114
1.65506
2.48093
5.104
8.39632
8.38401
8.18844
7.73544
7.24715
6.82229
6.39014
1
1
1
1.00001
1.00003
1.00007
1.00014
1.0004
1.00081
1.00226
1.00456
1.01287
1.02561
1.07491
1.15047
1.45016
2.01887
3.83456
7.68444
8.22044
8.08515
7.72602
7.22359
6.78868
6.37551
1
1
1
1.00001
1.00002
1.00005
1.00011
1.00029
1.00059
1.00163
1.0033
1.00928
1.01823
1.05515
1.1009
1.33847
1.68736
3.11247
6.22495
7.98004
7.92666
7.70048
7.23229
6.77771
6.36853
1
1
1
1.00001
1.00001
1.00004
1.00007
1.00021
1.00042
1.00115
1.00233
1.00652
1.01285
1.03829
1.07005
1.23388
1.44778
2.41511
4.37046
7.58761
7.78789
7.64392
7.27045
6.7848
6.37071
1
1
1
1
1.00001
1.00002
1.00006
1.00012
1.00034
1.00069
1.00192
1.00387
1.01094
1.02167
1.06362
1.12638
1.37775
1.85171
3.3338
6.61759
7.59461
7.51899
7.26614
6.81115
6.38158
1
1
1
1
1.00001
1.00002
1.00004
1.00009
1.00024
1.00048
1.00133
1.0027
1.00754
1.01489
1.04427
1.08173
1.26791
1.53479
2.62253
4.91786
7.25401
7.33504
7.21825
6.89222
6.41216
1
1
1
1
1
1.00001
1.00002
1.00007
1.00014
1.00038
1.00077
1.00213
1.00428
1.01204
1.02415
1.06885
1.14241
1.40495
1.92253
3.42173
6.50219
7.19479
7.12585
6.90429
6.47176
1
1
1
1
1
1.00001
1.00002
1.00005
1.00009
1.00026
1.00052
1.00143
1.00289
1.00803
1.01598
1.04644
1.08874
1.27583
1.57338
2.65774
4.97668
6.90267
6.97452
6.87409
6.59732
1
1
1
1
1
1
1.00001
1.00003
1.00007
1.00014
1.00039
1.00079
1.00218
1.00438
1.01228
1.02466
1.06989
1.14521
1.40841
1.92409
3.3799
6.24557
6.85028
6.79973
6.61703
1
1
1
1
1
1
1.00001
1.00002
1.00004
1.00011
1.00021
1.00059
1.00119
1.00328
1.00646
1.01904
1.03461
1.11514
1.20357
1.6892
2.48529
4.90276
6.57339
6.67219
6.59011
1
1
1
1
1
1
1.00001
1.00001
1.00003
1.00006
1.00016
1.00033
1.00089
1.0018
1.00496
1.00991
1.0283
1.05428
1.16532
1.32984
1.95682
3.16886
5.94679
6.55542
6.52135
1
1
1
1
1
1
1
1.00001
1.00002
1.00004
1.0001
1.00021
1.00057
1.00116
1.00317
1.00631
1.01803
1.03368
1.10805
1.19202
1.63964
2.37
4.54076
6.2543
6.41587
1
1
1
1
1
1
1
1
1.00001
1.00002
1.00007
1.00013
1.00036
1.00073
1.002
1.00404
1.01115
1.02244
1.06278
1.12985
1.36194
1.80354
3.05504
5.53287
6.26032
1
1
1
1
1
1
1
1
1.00001
1.00002
1.00003
1.00009
1.00019
1.00052
1.00106
1.00289
1.00581
1.01629
1.03134
1.09572
1.17737
1.56143
2.20868
4.10563
5.88722
1
1
1
1
1
1
1
1
1
1.00001
1.00002
1.00005
1.00014
1.00027
1.00074
1.0015
1.00411
1.00819
1.02322
1.04395
1.1363
1.25433
1.78441
2.70026
5.05315
1
1
1
1
1
1
1
1
1
1.00001
1.00001
1.00004
1.00007
1.00019
1.00039
1.00105
1.00212
1.0058
1.01148
1.03295
1.06132
1.19322
1.36603
2.08527
3.44244
1
1
1
1
1
1
1
1
1
1
1.00001
1.00002
1.00004
1.00012
1.00024
1.00063
1.00129
1.00347
1.00695
1.01944
1.03668
1.1142
1.20551
1.65318
2.39241
1
1
1
1
1
1
1
1
1
1
1
1.00001
1.00003
1.00007
1.00014
1.00037
1.00076
1.00204
1.00411
1.01119
1.02238
1.06213
1.12672
1.34933
1.76142
1
1
1
1
1
1
1
1
1
1
1
1.00001
1.00002
1.00003
1.00009
1.00019
1.00051
1.00102
1.00276
1.00554
1.01531
1.02961
1.08837
1.16409
1.50614
1
1
1
1
1
1
1
1
1
1
1
1
1.00001
1.00002
1.00005
1.00012
1.00025
1.00068
1.00136
1.00368
1.00735
1.0205
1.03896
1.11854
1.21933
1
1
1
1
1
1
1
1
1
1
1
1
1.00001
1.00001
1.00003
1.00006
1.00016
1.00033
1.00088
1.00178
1.00479
1.0096
1.02639
1.05162
1.14751
1
1
1
1
1
1
1
1
1
1
1
1
1
1.00001
1.00001
1.00004
1.00008
1.00022
1.00044
1.00117
1.00235
1.00637
1.01266
1.03523
1.06977
1
1
1
1
1
1
1
1
1
1
1
1
1
1
1.00001
1.00002
1.00005
1.00011
1.00028
1.00057
1.00153
1.00307
1.00832
1.01675
1.04551
1
1
1
1
1
1
1
1
1
1
1
1
1
1
1.00001
1.00001
1.00003
1.00006
1.00016
1.00032
1.00084
1.00171
1.00453
1.0091
1.02451
1
1
1
1
1
1
1
1
1
1
1
1
1
1
1
1.00001
1.00002
1.00003
1.00009
1.00018
1.00047
1.00096
1.00254
1.00511
1.01369
1
1
1
1
1
1
1
1
1
1
1
1
1
1
1
1
1.00001
1.00002
1.00005
1.0001
1.00028
1.00056
1.00148
1.00298
1.00796
1
1
1
1
1
1
1
1
1
1
1
1
1
1
1
1
1.00001
1.00001
1.00003
1.00008
1.00016
1.00042
1.00086
1.00231
1.00466
1
1
1
1
1
1
1
1
1
1
1
1
1
1
1
1
1
1.00001
1.00002
1.00006
1.00012
1.00033
1.00068
1.00186
1.00375
1
1
1
1
1
1
1
1
1
1
1
1
1
1
1
1
1
1.00001
1.00002
1.00005
1.0001
1.00029
1.00058
1.00163
1.00321
1
1
1
1
1
1
1
1
1
1
1
1
1
1
1
1
1
1.00001
1.00002
1.00004
1.00012
1.00024
1.00067
1.00136
1.00385
3.53539
1.88348
1.24454
0.990033
0.990844
1.01645
1.09309
1.25459
1.37024
1.40651
1.40903
1.41112
1.41727
1.43319
1.47047
1.55226
1.72795
2.10507
2.90767
3.53691
3.57162
3.55761
3.53329
3.49444
3.45546
3.41318
3.37709
3.35883
3.35202
3.35106
3.36948
3.42083
3.51163
3.63568
3.77915
3.92695
4.06457
4.18942
4.3018
4.39594
4.47002
4.52903
4.5777
4.62045
4.64513
4.65597
4.65692
4.65382
4.64405
4.6245
4.59941
4.57142
4.53921
4.50358
4.46424
4.42239
4.37787
4.33169
4.28369
4.23466
4.18447
4.13371
4.0822
4.03039
3.97812
3.9257
3.87298
3.82023
3.76736
3.71456
3.6618
3.60923
3.55684
3.50476
3.45302
3.40174
3.351
3.30088
3.25151
3.20294
3.15528
3.10852
3.06274
3.01788
2.97397
2.93089
2.88865
2.8471
2.80627
2.76601
2.72637
2.68723
2.64872
2.61083
2.5738
2.5379
2.50371
2.4723
2.4453
2.42735
3.97734
2.43555
1.74985
1.49041
1.42683
1.40093
1.34883
1.32626
1.3326
1.34988
1.38
1.40518
1.42282
1.4389
1.47137
1.54099
1.69303
2.02953
2.76408
3.52768
3.58468
3.56054
3.52515
3.49315
3.46324
3.41818
3.37685
3.35014
3.33728
3.33457
3.35322
3.40406
3.49069
3.60897
3.74862
3.8951
4.03202
4.15755
4.27784
4.37644
4.45367
4.51565
4.56498
4.60595
4.63142
4.64367
4.64512
4.64265
4.63413
4.61553
4.58892
4.56037
4.52862
4.49365
4.45508
4.41387
4.37005
4.32444
4.2771
4.2285
4.17882
4.12836
4.07726
4.0257
3.97375
3.92155
3.86911
3.81657
3.76394
3.71134
3.65878
3.60637
3.55417
3.50223
3.45066
3.3995
3.34891
3.29891
3.24967
3.20121
3.15365
3.10699
3.06128
3.0165
2.97262
2.9296
2.88736
2.84584
2.80499
2.76475
2.72509
2.68602
2.6475
2.60964
2.57254
2.53656
2.50215
2.47043
2.44281
2.42435
4.78183
3.46795
2.61013
2.0554
1.70837
1.49753
1.36264
1.28295
1.27523
1.28178
1.3013
1.34153
1.37629
1.40461
1.43533
1.49318
1.61404
1.86809
2.41272
3.40069
3.56475
3.55014
3.5142
3.47848
3.44822
3.4052
3.37028
3.3522
3.34218
3.33965
3.35252
3.39437
3.46858
3.58253
3.71912
3.86438
4.00458
4.13367
4.25109
4.34992
4.42865
4.49244
4.54282
4.58312
4.60979
4.6239
4.62648
4.62473
4.6181
4.60238
4.57486
4.54532
4.51383
4.4797
4.44229
4.40205
4.35923
4.31455
4.2681
4.22022
4.17121
4.12132
4.07071
4.01958
3.96802
3.91618
3.86409
3.81186
3.75954
3.70719
3.65491
3.60272
3.55074
3.499
3.44762
3.39668
3.34626
3.29648
3.24739
3.19915
3.15173
3.10524
3.05965
3.01498
2.97117
2.92818
2.886
2.84453
2.80375
2.76352
2.72388
2.68475
2.64622
2.60827
2.57111
2.53492
2.50027
2.46806
2.43969
2.42055
5.20858
4.04555
3.14065
2.48538
2.03693
1.73883
1.54727
1.43635
1.38018
1.35397
1.35447
1.3592
1.37188
1.39759
1.42613
1.46914
1.55905
1.74306
2.14537
3.01633
3.49818
3.54286
3.52444
3.48368
3.45022
3.40793
3.3768
3.36189
3.35559
3.35931
3.37861
3.42371
3.49215
3.58947
3.70983
3.83621
3.96623
4.09211
4.20768
4.30773
4.39
4.45651
4.50906
4.54962
4.57765
4.59358
4.59777
4.59655
4.59166
4.57948
4.5546
4.52403
4.49206
4.45847
4.42224
4.38349
4.34207
4.29862
4.25328
4.20639
4.15832
4.10924
4.05937
4.00888
3.95795
3.90663
3.85508
3.8033
3.75148
3.69952
3.64767
3.59582
3.54422
3.49276
3.44175
3.39105
3.34099
3.29145
3.24272
3.19469
3.1476
3.10129
3.05594
3.01141
2.96785
2.92501
2.88299
2.84155
2.8008
2.76054
2.7209
2.68173
2.64318
2.60518
2.56795
2.53161
2.49666
2.46397
2.43473
2.41444
5.45232
4.43305
3.57334
2.90524
2.41188
2.05557
1.80198
1.62324
1.50085
1.42036
1.37371
1.35155
1.35247
1.35812
1.37291
1.40258
1.46529
1.59046
1.86257
2.43786
3.2956
3.51718
3.51874
3.5021
3.46648
3.42668
3.408
3.40699
3.41504
3.44268
3.49625
3.54252
3.58755
3.64791
3.7248
3.81337
3.90856
4.02088
4.13562
4.24196
4.33203
4.40398
4.45972
4.50194
4.53189
4.55037
4.55765
4.55713
4.55422
4.54596
4.52771
4.49816
4.46587
4.43252
4.39758
4.36032
4.32078
4.2788
4.23501
4.18947
4.14259
4.09454
4.04562
3.99594
3.94583
3.8952
3.84436
3.79318
3.74197
3.69053
3.63919
3.58779
3.53664
3.4856
3.43499
3.38469
3.33502
3.28586
3.23751
3.18985
3.14308
3.09716
3.05222
3.00803
2.96469
2.92197
2.88
2.83858
2.79783
2.75758
2.71794
2.67878
2.64021
2.6022
2.5649
2.52847
2.49324
2.4601
2.43007
2.40845
5.61339
4.72827
3.93987
3.28766
2.77303
2.37626
2.07525
1.84729
1.67809
1.55494
1.46919
1.41424
1.38278
1.37697
1.38031
1.39381
1.42453
1.50494
1.66432
2.03483
2.80884
3.39294
3.50405
3.50285
3.49329
3.47121
3.47218
3.48555
3.52679
3.61491
3.69594
3.73303
3.75021
3.76597
3.78008
3.80721
3.85978
3.92746
4.02892
4.14472
4.25026
4.33463
4.3981
4.44434
4.47699
4.49832
4.50944
4.51058
4.50916
4.50421
4.49233
4.46808
4.43644
4.40322
4.36909
4.33326
4.2953
4.25505
4.2128
4.16872
4.12314
4.07626
4.02842
3.97967
3.93036
3.8805
3.83041
3.77993
3.72938
3.67856
3.62783
3.57695
3.52635
3.47577
3.42566
3.3758
3.32662
3.27791
3.23003
3.18288
3.13673
3.09126
3.04668
3.00269
2.95951
2.91686
2.87498
2.8336
2.79291
2.7527
2.7131
2.67398
2.63544
2.59746
2.56014
2.52364
2.48821
2.45468
2.42399
2.40111
5.72632
4.95487
4.23982
3.61847
3.10257
2.68485
2.35196
2.08939
1.88381
1.72455
1.60243
1.51202
1.44761
1.40676
1.38949
1.39207
1.40338
1.44509
1.52597
1.74159
2.16616
3.05252
3.42598
3.49605
3.50929
3.51525
3.53489
3.58632
3.70167
3.87705
3.97869
3.99693
3.98854
3.95865
3.89095
3.83728
3.8419
3.86406
3.91616
4.01887
4.13603
4.2386
4.31757
4.37377
4.41281
4.43842
4.45343
4.45844
4.45778
4.45497
4.44761
4.4316
4.40347
4.37118
4.33754
4.30272
4.26627
4.22782
4.18735
4.14491
4.1008
4.05522
4.00855
3.96088
3.91259
3.86365
3.81442
3.76474
3.71496
3.66486
3.61482
3.5646
3.5146
3.46463
3.41508
3.36582
3.31721
3.2692
3.22211
3.17565
3.13002
3.08494
3.04065
2.99689
2.9539
2.91143
2.86967
2.82841
2.7878
2.74767
2.70813
2.66908
2.63061
2.59268
2.55539
2.51887
2.48334
2.4495
2.41833
2.39415
5.80424
5.12762
4.48092
3.89795
3.39368
2.96972
2.61901
2.33261
2.09997
1.91248
1.76227
1.64322
1.55083
1.4818
1.43426
1.41132
1.41376
1.42567
1.47404
1.56612
1.81958
2.32393
3.16461
3.4405
3.50662
3.54669
3.60764
3.7325
3.98307
4.238
4.33699
4.33103
4.29548
4.20253
4.0249
3.89268
3.83922
3.84353
3.86229
3.90879
4.00145
4.11042
4.20728
4.28209
4.33499
4.36965
4.39087
4.40139
4.40257
4.40136
4.39723
4.38739
4.36698
4.33721
4.30448
4.27041
4.2351
4.19816
4.15932
4.11849
4.07589
4.03166
3.98621
3.93963
3.89236
3.84433
3.79598
3.74711
3.69813
3.64878
3.59946
3.54995
3.50061
3.45131
3.40239
3.35389
3.30613
3.25899
3.21258
3.16671
3.12152
3.07684
3.03286
2.98939
2.94661
2.90433
2.86272
2.82159
2.78109
2.74105
2.70162
2.66266
2.62429
2.58645
2.54924
2.51276
2.4772
2.44314
2.41168
2.38635
5.85802
5.25842
4.67364
4.13139
3.64748
3.22726
2.86927
2.56784
2.31635
2.10745
1.93505
1.79335
1.67809
1.58576
1.51382
1.46125
1.43405
1.43664
1.45014
1.50694
1.61949
1.92416
2.55083
3.23974
3.47109
3.58055
3.70332
3.94883
4.37356
4.68958
4.74567
4.72137
4.63602
4.4419
4.18322
3.99179
3.8811
3.84113
3.84455
3.86005
3.89898
3.97754
4.07391
4.16417
4.23607
4.28772
4.32051
4.33832
4.34511
4.34468
4.34252
4.33673
4.32404
4.29928
4.26895
4.23598
4.2016
4.16584
4.12845
4.08916
4.04808
4.00526
3.96112
3.91572
3.86955
3.82254
3.77515
3.72719
3.67906
3.63057
3.58203
3.53332
3.4847
3.43622
3.38826
3.34083
3.29401
3.24768
3.20193
3.15664
3.11194
3.06771
3.0241
2.98097
2.93846
2.89643
2.85502
2.81406
2.77371
2.73382
2.69453
2.6557
2.61748
2.57977
2.54271
2.50631
2.47083
2.43665
2.40505
2.37869
5.89669
5.35875
4.82746
4.32486
3.86545
3.4561
3.09842
2.78984
2.52609
2.30204
2.1126
1.9531
1.8194
1.70802
1.61673
1.54373
1.48792
1.45997
1.4634
1.48001
1.54722
1.68176
2.03
2.73652
3.3229
3.57495
3.8194
4.27032
4.89505
5.20017
5.19467
5.13752
4.97701
4.65146
4.34729
4.12182
3.97144
3.88209
3.84248
3.84355
3.85293
3.88159
3.94182
4.02693
4.11175
4.18367
4.23426
4.26518
4.28151
4.28559
4.28468
4.28141
4.27355
4.25704
4.23062
4.19954
4.16621
4.13142
4.09522
4.0573
4.01767
3.97624
3.93343
3.88926
3.84425
3.79833
3.75195
3.70498
3.65776
3.61018
3.56245
3.51458
3.46687
3.41955
3.37269
3.32628
3.28033
3.23479
3.18971
3.14504
3.10087
3.05712
3.01391
2.97112
2.92891
2.88712
2.84593
2.80518
2.76502
2.72532
2.68621
2.64757
2.60954
2.57202
2.53515
2.49891
2.46357
2.42935
2.39776
2.37054
5.92415
5.43778
4.9519
4.48544
4.05116
3.65661
3.30437
2.99453
2.72419
2.49022
2.28848
2.11534
1.96712
1.8408
1.73371
1.64419
1.57115
1.51372
1.48803
1.49287
1.51461
1.59063
1.75182
2.13985
2.92024
3.49925
3.92844
4.76378
5.53077
5.71356
5.67573
5.54158
5.23795
4.83837
4.51369
4.27074
4.09252
3.96594
3.88299
3.84056
3.83393
3.8376
3.85542
3.8971
3.97395
4.05228
4.1221
4.17291
4.20397
4.2199
4.22284
4.22155
4.21728
4.20749
4.18764
4.15986
4.12816
4.09438
4.05923
4.02251
3.98423
3.94417
3.90274
3.85989
3.81613
3.77142
3.72615
3.6803
3.63406
3.58747
3.54064
3.49392
3.44747
3.40139
3.35562
3.31019
3.26511
3.22036
3.17601
3.132
3.08843
3.0452
3.00246
2.96008
2.91823
2.87676
2.83585
2.79535
2.75544
2.71597
2.67709
2.63869
2.6009
2.56362
2.52699
2.49096
2.45583
2.42168
2.3902
2.36233
5.94696
5.5024
5.0546
4.62033
4.2105
3.83212
3.48896
3.18157
2.90929
2.66926
2.45943
2.27588
2.11672
1.97803
1.85877
1.7555
1.66833
1.59603
1.53893
1.51987
1.52729
1.557
1.64754
1.8476
2.30073
3.22353
3.9489
5.4136
6.19817
6.21331
6.13265
5.89571
5.42478
5.01002
4.68512
4.43207
4.232
4.07611
3.95878
3.87746
3.83098
3.81528
3.81409
3.82296
3.85054
3.90885
3.98013
4.04959
4.10099
4.13391
4.15163
4.15479
4.15337
4.14858
4.1376
4.11552
4.08682
4.05457
4.02045
3.98477
3.94772
3.90906
3.8691
3.82774
3.78537
3.74202
3.69797
3.65332
3.60813
3.56265
3.5171
3.47177
3.42662
3.38171
3.33703
3.29258
3.24842
3.20448
3.1609
3.11754
3.07459
3.03188
2.98963
2.94766
2.9062
2.86508
2.8245
2.78431
2.7447
2.70553
2.66695
2.62884
2.59134
2.55436
2.51803
2.48227
2.44741
2.4134
2.38211
2.35378
5.96441
5.5532
5.14013
4.73475
4.34814
3.9865
3.65396
3.35186
3.08034
2.83781
2.62245
2.43201
2.26392
2.1162
1.98638
1.87293
1.77427
1.68908
1.62021
1.56322
1.56247
1.57413
1.61847
1.73514
2.00915
2.61019
3.82921
6.13134
6.81007
6.75009
6.54242
6.09808
5.58442
5.16991
4.84624
4.58654
4.37308
4.19721
4.05512
3.94488
3.86467
3.81345
3.79191
3.77857
3.7824
3.79904
3.83723
3.9024
3.96473
4.01762
4.05506
4.07485
4.08082
4.07956
4.07481
4.06363
4.04105
4.01197
3.9792
3.94431
3.90821
3.87082
3.83237
3.79265
3.75184
3.71001
3.66732
3.62391
3.57995
3.53587
3.49178
3.44779
3.40392
3.36014
3.31656
3.27308
3.22987
3.18677
3.144
3.10135
3.05908
3.01697
2.97528
2.93381
2.89282
2.85212
2.81195
2.77214
2.7329
2.69409
2.65587
2.61812
2.58098
2.54435
2.50838
2.47296
2.43844
2.40464
2.37363
2.34501
5.98058
5.59562
5.21208
4.83387
4.46914
4.12441
3.80307
3.50777
3.23856
2.99579
2.77682
2.58182
2.40676
2.25222
2.11375
1.99225
1.88427
1.78958
1.71045
1.64037
1.61306
1.61979
1.6506
1.73683
1.96196
2.47364
3.66798
6.2564
7.2455
7.14932
6.85225
6.25866
5.7346
5.32247
4.99777
4.73377
4.51254
4.32514
4.16663
4.0356
3.92904
3.848
3.7908
3.76017
3.73665
3.73579
3.74338
3.76594
3.81378
3.87152
3.92532
3.96613
3.99051
3.99992
3.99916
3.99521
3.98512
3.96424
3.93507
3.90135
3.86592
3.82949
3.79237
3.75427
3.71513
3.67496
3.63374
3.59181
3.54946
3.50698
3.46443
3.42183
3.37928
3.33671
3.29428
3.25183
3.20961
3.16738
3.12545
3.08354
3.04197
3.0005
2.95941
2.91849
2.87802
2.83782
2.79811
2.75877
2.71996
2.68159
2.64379
2.60647
2.56976
2.53355
2.498
2.46296
2.42885
2.39532
2.36466
2.33589
5.99936
5.63566
5.27552
4.92208
4.57752
4.24877
3.93899
3.65117
3.38556
3.14381
2.92311
2.7249
2.5449
2.3848
2.23974
2.11139
1.99615
1.89402
1.80694
1.73063
1.69007
1.69549
1.72466
1.79497
2.00913
2.4556
3.56901
6.03337
7.43626
7.36025
7.08419
6.52322
5.96805
5.52483
5.1776
4.89725
4.66333
4.46385
4.29233
4.1439
4.01787
3.91156
3.82635
3.76233
3.72172
3.69228
3.67603
3.67929
3.69261
3.72365
3.77483
3.82503
3.86818
3.89758
3.91254
3.91244
3.90994
3.90217
3.88484
3.85534
3.82145
3.78594
3.74977
3.71294
3.6753
3.63675
3.59725
3.55718
3.51667
3.47587
3.43489
3.39372
3.35253
3.31118
3.26993
3.22855
3.18734
3.14604
3.10498
3.06389
3.02308
2.98232
2.94189
2.90162
2.86173
2.82212
2.78295
2.74416
2.70587
2.66802
2.63074
2.59392
2.55771
2.52199
2.48692
2.45234
2.4187
2.38553
2.35528
2.32647
6.02652
5.67762
5.33842
5.00367
4.67748
4.36224
4.06311
3.78292
3.52146
3.28184
3.06064
2.86066
2.67724
2.51291
2.36294
2.22898
2.10829
2.00023
1.90927
1.82811
1.79758
1.80476
1.83777
1.91749
2.13228
2.55796
3.48087
5.34454
7.09695
7.23668
7.1165
6.7814
6.26202
5.77926
5.39569
5.0844
4.82883
4.61328
4.42724
4.26413
4.12047
3.9948
3.88718
3.79783
3.72766
3.67916
3.64177
3.61564
3.61425
3.61986
3.63708
3.67371
3.72073
3.76481
3.79816
3.81731
3.82239
3.82082
3.81484
3.80091
3.77305
3.74058
3.70546
3.66933
3.63262
3.59544
3.5578
3.51975
3.48125
3.44228
3.403
3.36335
3.32359
3.28353
3.24349
3.20322
3.16307
3.12277
3.08263
3.04242
3.00243
2.96247
2.92277
2.88322
2.844
2.80506
2.76653
2.72836
2.69068
2.65343
2.61673
2.58049
2.54486
2.50969
2.47518
2.44112
2.40803
2.37528
2.34553
2.31682
6.07293
5.72489
5.39809
5.07934
4.76793
4.46664
4.17688
3.90442
3.64741
3.41052
3.18999
2.98912
2.80379
2.63617
2.48272
2.34443
2.21974
2.10821
2.01658
1.93937
1.94012
1.95545
2.00925
2.14547
2.45027
3.08052
3.79353
4.61918
5.85401
6.72038
6.84327
6.76304
6.52136
6.07682
5.6728
5.32635
5.03195
4.78638
4.57772
4.3958
4.23492
4.09215
3.9661
3.85645
3.7633
3.68779
3.63193
3.58847
3.55669
3.54069
3.54306
3.55308
3.57633
3.61769
3.65839
3.69351
3.71736
3.72829
3.72759
3.72361
3.71292
3.69061
3.65924
3.6242
3.58807
3.55187
3.51575
3.47951
3.44295
3.40591
3.36848
3.33051
3.29227
3.25359
3.21483
3.17575
3.1367
3.09746
3.05831
3.01907
2.97996
2.94088
2.902
2.86327
2.82482
2.78663
2.74882
2.71137
2.67439
2.63781
2.6018
2.56621
2.53124
2.49669
2.46284
2.42938
2.39691
2.36471
2.33554
2.30711
6.15404
5.78635
5.46205
5.15264
4.85087
4.5613
4.2813
4.01599
3.76431
3.53025
3.31162
3.11053
2.92457
2.7547
2.59896
2.45785
2.33064
2.22062
2.12941
2.09418
2.10392
2.14443
2.2542
2.50757
3.03753
3.66204
4.02534
4.35422
4.88749
5.6486
6.29048
6.48679
6.44311
6.28487
5.9546
5.62422
5.28526
4.99653
4.75247
4.54325
4.36079
4.19994
4.057
3.93015
3.81888
3.72327
3.64378
3.58175
3.53377
3.49507
3.46841
3.46743
3.4716
3.48472
3.51283
3.55091
3.58713
3.61448
3.63029
3.63199
3.62988
3.62255
3.60599
3.57607
3.54242
3.50744
3.47223
3.43704
3.40193
3.36663
3.33106
3.29489
3.25833
3.22118
3.18381
3.14602
3.10817
3.07006
3.03199
2.99379
2.95568
2.91756
2.8796
2.84177
2.80418
2.76684
2.72986
2.6932
2.65701
2.6212
2.58596
2.55111
2.51689
2.48306
2.44994
2.4172
2.38547
2.35398
2.32552
2.29771
6.23894
5.85638
5.52531
5.22256
4.93126
4.64879
4.37745
4.11871
3.87299
3.64202
3.42626
3.22557
3.04002
2.86882
2.71211
2.56947
2.44405
2.33729
2.2743
2.27953
2.31021
2.40239
2.62446
3.10133
3.75307
4.08003
4.19337
4.29187
4.48105
4.78404
5.27196
5.86412
6.17801
6.16399
6.076
5.86595
5.56459
5.24932
4.96938
4.72251
4.51006
4.32538
4.16247
4.01813
3.89017
3.77745
3.67958
3.5967
3.52944
3.47764
3.43207
3.40065
3.38709
3.38882
3.39613
3.4134
3.44653
3.47994
3.50918
3.52863
3.53582
3.53472
3.52986
3.51768
3.49287
3.46185
3.42786
3.39324
3.35893
3.32483
3.2908
3.25634
3.22153
3.18608
3.15029
3.11397
3.07745
3.04061
3.00371
2.96666
2.92963
2.89258
2.85563
2.8188
2.78217
2.74577
2.70969
2.67393
2.63863
2.60368
2.56929
2.53528
2.50191
2.46893
2.43666
2.4048
2.37398
2.34349
2.31592
2.28931
6.36133
5.95128
5.59741
5.2897
5.00416
4.7301
4.46649
4.21392
3.97464
3.74731
3.53442
3.3352
3.15031
2.97932
2.8228
2.68175
2.56351
2.47222
2.47343
2.49613
2.57388
2.77217
3.20786
3.92159
4.27767
4.34668
4.33697
4.31043
4.32233
4.39645
4.57672
4.94068
5.49016
5.86314
5.93229
5.89174
5.7625
5.49796
5.22659
4.94158
4.69405
4.47715
4.28855
4.12311
3.97689
3.84753
3.73325
3.63334
3.54747
3.47562
3.41927
3.36994
3.33233
3.30794
3.30684
3.30992
3.31996
3.3416
3.37282
3.40269
3.42485
3.43828
3.43808
3.43549
3.42761
3.4103
3.38112
3.34864
3.31527
3.2818
3.24857
3.21529
3.18201
3.14826
3.11418
3.07951
3.04451
3.00911
2.97353
2.93775
2.9019
2.86602
2.83018
2.79444
2.75886
2.7235
2.68843
2.65366
2.61934
2.58536
2.55194
2.51889
2.4865
2.45452
2.4233
2.39258
2.36294
2.33396
2.30762
2.2833
6.37679
6.06124
5.6831
5.35971
5.07473
4.80694
4.5503
4.30433
4.06971
3.84794
3.63778
3.44067
3.25695
3.08749
2.93331
2.80087
2.6952
2.67532
2.69381
2.76337
2.9449
3.34712
4.12152
4.53604
4.59195
4.56789
4.49346
4.33952
4.24802
4.25237
4.29882
4.42565
4.69297
5.14657
5.54358
5.7105
5.69071
5.60761
5.41855
5.17142
4.91027
4.66401
4.4444
4.25232
4.08391
3.93532
3.80403
3.68803
3.58596
3.49718
3.42149
3.36016
3.3079
3.2644
3.23408
3.22199
3.22317
3.2286
3.24171
3.268
3.29577
3.32091
3.33754
3.34302
3.34174
3.33665
3.32445
3.29988
3.27049
3.23821
3.2054
3.1727
3.14041
3.10805
3.07556
3.0426
3.0093
2.97552
2.94145
2.9071
2.87258
2.83797
2.80334
2.76878
2.73435
2.70012
2.66617
2.63251
2.59928
2.56641
2.53409
2.50219
2.47098
2.44029
2.41043
2.38134
2.35338
2.32681
2.3024
2.28218
6.34687
6.15454
5.77926
5.44332
5.15083
4.88242
4.62926
4.38921
4.1606
3.94263
3.73703
3.54275
3.36162
3.19548
3.05027
2.93196
2.89188
2.90766
2.97199
3.14473
3.53304
4.31987
4.8203
4.89795
4.86814
4.77261
4.57484
4.37562
4.23603
4.18752
4.18813
4.21536
4.30274
4.49359
4.83253
5.21527
5.45721
5.45998
5.4253
5.31981
5.10103
4.87523
4.63014
4.41387
4.21848
4.04647
3.89512
3.76119
3.6428
3.53826
3.44668
3.36757
3.30143
3.24621
3.19789
3.16189
3.14037
3.13718
3.13942
3.14713
3.16389
3.19049
3.21605
3.23549
3.24752
3.24722
3.24449
3.23658
3.21964
3.19222
3.16149
3.12966
3.09796
3.06638
3.03501
3.00354
2.97189
2.93985
2.90747
2.87471
2.8417
2.8085
2.77523
2.74197
2.70881
2.67582
2.64312
2.6107
2.57873
2.54713
2.51615
2.48567
2.45599
2.42705
2.39916
2.37253
2.34733
2.32454
2.30341
2.28621
6.25141
6.14873
5.90436
5.54099
5.22991
4.95996
4.71163
4.47464
4.24798
4.0341
3.83186
3.64219
3.46589
3.30935
3.17964
3.12126
3.13465
3.19525
3.36312
3.74937
4.5462
5.12786
5.23807
5.20544
5.09565
4.86791
4.63012
4.43553
4.28714
4.18298
4.14147
4.12649
4.13763
4.18804
4.30941
4.54709
4.87296
5.12969
5.24272
5.22761
5.16563
5.02288
4.81098
4.60443
4.38348
4.18907
4.01341
3.8576
3.72029
3.59861
3.49105
3.39628
3.31371
3.24295
3.18465
3.13256
3.09084
3.06289
3.05032
3.05107
3.05511
3.06535
3.08617
3.11093
3.13422
3.14976
3.15446
3.15315
3.14823
3.13661
3.11332
3.08554
3.05522
3.02424
2.99351
2.96307
2.93278
2.90234
2.87166
2.84062
2.80929
2.77768
2.74594
2.71412
2.68241
2.65081
2.61954
2.58853
2.55807
2.52802
2.49877
2.47018
2.4427
2.41641
2.39163
2.36896
2.3483
2.32842
2.30975
2.29885
6.15235
6.10527
5.95323
5.63965
5.31618
5.03786
4.78868
4.55665
4.33659
4.1255
3.92606
3.74069
3.57499
3.43584
3.36123
3.37239
3.4292
3.5932
3.97673
4.78074
5.46026
5.61138
5.57671
5.45292
5.19635
4.92837
4.70515
4.52465
4.37453
4.24991
4.15188
4.09619
4.05872
4.05485
4.07268
4.13789
4.2832
4.52335
4.78715
4.9747
5.00001
4.97809
4.90461
4.74473
4.5536
4.3616
4.16222
3.98515
3.8255
3.68306
3.55702
3.44523
3.34659
3.26017
3.18521
3.12244
3.06763
3.02152
2.98743
2.96767
2.96319
2.96486
2.97095
2.9845
3.00889
3.03283
3.05085
3.06172
3.06139
3.05883
3.05146
3.03565
3.01019
2.98159
2.95197
2.92229
2.89287
2.86361
2.83441
2.80504
2.77546
2.74559
2.71559
2.68544
2.65539
2.62543
2.59585
2.56658
2.53801
2.51004
2.4832
2.45748
2.43344
2.41145
2.39208
2.37266
2.35522
2.34101
2.32861
2.32731
5.95485
6.00097
5.9357
5.75993
5.42384
5.12702
4.87056
4.63824
4.42047
4.21518
4.02237
3.84684
3.69776
3.60925
3.61834
3.67207
3.83267
4.21472
5.02514
5.82042
6.01857
5.98121
5.84197
5.55395
5.25573
5.00736
4.80431
4.63196
4.47967
4.34204
4.21939
4.11552
4.04038
3.99099
3.95447
3.95792
3.98388
4.05694
4.21051
4.43657
4.63387
4.7713
4.76502
4.73297
4.65371
4.49118
4.3158
4.13802
3.95733
3.79503
3.64853
3.51769
3.4012
3.29825
3.2075
3.12867
3.06112
3.00397
2.95368
2.91418
2.88887
2.87622
2.87675
2.8801
2.8891
2.90765
2.93107
2.95264
2.96712
2.97191
2.9708
2.96645
2.95605
2.93521
2.90979
2.88172
2.85313
2.82466
2.79656
2.76857
2.74065
2.71257
2.68448
2.65625
2.62819
2.60023
2.5728
2.54583
2.51991
2.49505
2.47194
2.45102
2.43293
2.41512
2.3989
2.38566
2.37537
2.37132
2.37312
2.38078
5.46815
5.89493
5.87641
5.77588
5.54797
5.23332
4.96048
4.72326
4.50688
4.30612
4.1228
3.96634
3.86507
3.87236
3.92367
4.08285
4.46762
5.29241
6.20842
6.45397
6.41317
6.25806
5.93628
5.60608
5.33232
5.10897
4.91895
4.74927
4.5924
4.44516
4.30684
4.17997
4.06721
3.97851
3.91326
3.8608
3.83055
3.83677
3.86744
3.94346
4.09803
4.2966
4.45277
4.5465
4.53804
4.50187
4.41576
4.25666
4.09428
3.92898
3.76426
3.61439
3.47922
3.35849
3.25108
3.15624
3.07329
3.00129
2.94065
2.8873
2.84381
2.81282
2.79426
2.79016
2.79172
2.79735
2.81
2.83294
2.85538
2.87222
2.88358
2.88341
2.88136
2.87536
2.86222
2.83914
2.81332
2.78619
2.75907
2.73212
2.70561
2.67926
2.65319
2.62719
2.60157
2.57624
2.55176
2.52823
2.50637
2.48689
2.47022
2.45463
2.43982
2.42891
2.4197
2.41825
2.42082
2.42935
2.4486
2.48993
4.40097
5.6338
5.79804
5.75293
5.62093
5.34729
5.06104
4.8144
4.59756
4.40394
4.23652
4.12576
4.1319
4.18216
4.34258
4.73532
5.58443
6.61558
6.91405
6.87027
6.69977
6.34412
5.98104
5.68073
5.43628
5.22883
5.04357
4.87166
4.70846
4.55226
4.4027
4.26102
4.12891
4.01007
3.90761
3.83266
3.76381
3.71478
3.69068
3.69913
3.73192
3.80828
3.95745
4.12497
4.25563
4.321
4.31199
4.27585
4.19146
4.03907
3.88617
3.73046
3.57988
3.44168
3.31692
3.20514
3.10609
3.01876
2.94285
2.87799
2.82232
2.77517
2.73954
2.7168
2.70587
2.70648
2.70986
2.71879
2.73695
2.75904
2.77966
2.79371
2.80005
2.79928
2.79588
2.78745
2.77015
2.74729
2.72226
2.69668
2.67156
2.6469
2.62298
2.59959
2.57708
2.55544
2.53553
2.51772
2.50315