/*--------------------------------*- C++ -*----------------------------------*\
  =========                 |
  \\      /  F ield         | OpenFOAM: The Open Source CFD Toolbox
   \\    /   O peration     | Website:  https://openfoam.org
    \\  /    A nd           | Version:  6
     \\/     M anipulation  |
\*---------------------------------------------------------------------------*/
FoamFile
{
    version     2.0;
    format      ascii;
    class       surfaceScalarField;
    location    "57.6";
    object      phi;
}
// * * * * * * * * * * * * * * * * * * * * * * * * * * * * * * * * * * * * * //

dimensions      [0 3 -1 0 0 0 0];

internalField   nonuniform List<scalar> 
17370
(
-0.0900013
0.0898512
0.289161
-0.0714656
0.0537565
0.364485
-0.0381243
0.0276962
0.426596
-0.0196458
0.0146141
0.504283
-0.0107733
0.00828361
0.601892
-0.00628434
0.00490809
0.720434
-0.00374442
0.00290403
0.863747
-0.00216276
0.00160399
1.03601
-0.00108778
0.000675468
1.24292
-0.000267317
-0.00012472
1.49158
0.000503446
-0.000911495
1.4916
0.00130767
-0.0017977
1.24318
0.00232921
-0.00304038
1.03635
0.00385709
-0.00500187
0.864051
0.00636763
-0.00836017
0.72105
0.010845
-0.0146806
0.60305
0.0197076
-0.0277525
0.507484
0.0381752
-0.0538
0.431793
0.0715013
-0.089875
0.365149
0.0900155
0.198995
-0.128133
0.0882203
0.0399129
-0.364595
0.353371
-0.0746805
0.0859045
-0.446474
0.454315
-0.0844049
0.0765637
-0.521189
0.529896
-0.0684692
0.0597613
-0.612787
0.621563
-0.0515755
0.0427991
-0.726892
0.734159
-0.0353411
0.0280748
-0.867473
0.872585
-0.0224768
0.0173641
-1.03847
1.04192
-0.0135563
0.0101083
-1.2446
1.24703
-0.00749894
0.00506782
-1.49262
1.4946
-0.00312237
0.00114709
-1.4925
1.49422
0.000532346
-0.00225734
-1.24398
1.24586
0.0041598
-0.00604347
-1.03751
1.04004
0.00840214
-0.0109373
-0.866103
0.869835
0.0142989
-0.0180311
-0.724394
0.729938
0.0230714
-0.028615
-0.6087
0.616116
0.0358312
-0.043247
-0.514899
0.523045
0.0519788
-0.060125
-0.439858
0.447918
0.0687908
-0.0768515
-0.375298
0.376744
0.0846535
-0.0860997
-0.257333
0.222485
0.0748134
-0.0399646
-0.0685106
0.0586819
0.00982871
-0.0518293
0.0584184
-0.374119
0.367529
-0.0575077
0.0537595
-0.453588
0.457337
-0.0486734
0.0447248
-0.52794
0.531888
-0.0408897
0.0372554
-0.621556
0.62519
-0.0331592
0.0290883
-0.735341
0.739412
-0.0245226
0.0203669
-0.874331
0.878487
-0.0160247
0.0123338
-1.04348
1.04717
-0.0085996
0.0054289
-1.24856
1.25173
-0.002102
-0.00097117
-1.49666
1.49973
0.00401945
-0.00728457
-1.49721
1.50047
0.0103646
-0.0139738
-1.25008
1.25369
0.0175396
-0.0217403
-1.04593
1.05013
0.0257723
-0.0302144
-0.877772
0.882214
0.0341863
-0.0381867
-0.73991
0.743911
0.0417401
-0.0454911
-0.626783
0.630534
0.0493673
-0.0543847
-0.534817
0.539835
0.0580589
-0.0588757
-0.457481
0.458298
0.052177
-0.031982
-0.335763
0.315568
0.00988559
-0.0683543
0.0584687
-0.0529282
0.0489298
0.00399842
-0.0331818
0.0437357
-0.358089
0.347535
-0.0474413
0.0468188
-0.459271
0.459894
-0.0437675
0.0404188
-0.535787
0.539136
-0.0366519
0.0333545
-0.628512
0.63181
-0.0299251
0.0269013
-0.742631
0.745655
-0.0236509
0.0205506
-0.881999
0.8851
-0.0170258
0.0136499
-1.05075
1.05413
-0.00985963
0.00632325
-1.25515
1.25869
-0.00235694
-0.00143827
-1.50324
1.50703
0.00520221
-0.00907553
-1.50414
1.50802
0.0124858
-0.0161049
-1.25743
1.26105
0.0193066
-0.0226315
-1.05394
1.05726
0.025554
-0.0286248
-0.885714
0.888785
0.0315036
-0.0347925
-0.747179
0.750468
0.0379728
-0.0416191
-0.634325
0.637971
0.0448638
-0.0477965
-0.544149
0.547082
0.0482944
-0.0444136
-0.456591
0.45271
0.0336508
-0.0162112
-0.296212
0.278773
0.00406875
-0.052652
0.0485833
-0.0458489
0.0433501
0.00249877
-0.0228301
0.0332206
-0.336836
0.326445
-0.0390526
0.0400766
-0.459572
0.458548
-0.0388933
0.0366125
-0.541851
0.544131
-0.0339536
0.0313668
-0.634856
0.637442
-0.0283148
0.0254252
-0.748694
0.751583
-0.0221701
0.0191843
-0.888045
0.891031
-0.0158875
0.0127955
-1.05725
1.06034
-0.00927666
0.00587289
-1.26214
1.26554
-0.00191319
-0.00196987
-1.51091
1.51479
0.00581202
-0.00964907
-1.51191
1.51575
0.0128871
-0.0161821
-1.26449
1.26779
0.0190463
-0.0220807
-1.06036
1.0634
0.0248308
-0.027845
-0.89185
0.894864
0.0305374
-0.0333963
-0.753683
0.756542
0.0358225
-0.0383193
-0.641044
0.64354
0.0404597
-0.0414585
-0.548892
0.549891
0.0402419
-0.0341288
-0.447439
0.441325
0.0234316
-0.0102251
-0.263565
0.250358
0.00258545
-0.045424
0.0428385
-0.0412717
0.0395007
0.00177091
-0.0167743
0.0260404
-0.316579
0.307313
-0.0326608
0.034811
-0.456939
0.454789
-0.0343988
0.0327357
-0.546103
0.547766
-0.0305645
0.0284794
-0.639742
0.641827
-0.0260605
0.0236748
-0.754221
0.756606
-0.0208292
0.0180513
-0.893915
0.896692
-0.0148265
0.0117665
-1.06338
1.06644
-0.00828502
0.00496635
-1.26885
1.27217
-0.0011394
-0.00258998
-1.51858
1.52231
0.006267
-0.00993868
-1.51949
1.52316
0.0130487
-0.016248
-1.27104
1.27424
0.019019
-0.0219086
-1.06643
1.06932
0.024383
-0.0269164
-0.897694
0.900227
0.0290458
-0.0312144
-0.759005
0.761174
0.0330944
-0.0350575
-0.645702
0.647665
0.0365165
-0.0366783
-0.550416
0.550578
0.0342327
-0.0272018
-0.434672
0.427641
0.0175235
-0.00739363
-0.23884
0.228711
0.00187659
-0.040664
0.0387874
-0.0379748
0.0366414
0.00133344
-0.0128169
0.0207795
-0.298704
0.290742
-0.0275478
0.0304842
-0.452217
0.44928
-0.030701
0.0295925
-0.549188
0.550297
-0.027611
0.0257073
-0.643855
0.645758
-0.0235224
0.0213985
-0.758833
0.760957
-0.0188967
0.016424
-0.899252
0.901724
-0.0134926
0.010623
-1.06936
1.07223
-0.00727125
0.00403781
-1.27542
1.27865
-0.000295044
-0.00333352
-1.52595
1.52958
0.00689734
-0.0104458
-1.52676
1.53031
0.0134168
-0.0164135
-1.27737
1.28037
0.0189199
-0.02143
-1.07205
1.07456
0.023521
-0.0256302
-0.902532
0.904641
0.0274312
-0.029299
-0.763171
0.765039
0.0309438
-0.0326737
-0.649493
0.651222
0.033484
-0.0329175
-0.55038
0.549813
0.0295595
-0.0222299
-0.420405
0.413075
0.0137386
-0.00572654
-0.219741
0.211729
0.00146203
-0.0371445
0.0356825
-0.0354761
0.0344471
0.00102893
-0.0100234
0.0167568
-0.28342
0.276687
-0.0232607
0.0266504
-0.446099
0.442709
-0.0274465
0.0267581
-0.55119
0.551879
-0.0250113
0.0232385
-0.647644
0.649417
-0.0211814
0.019177
-0.763017
0.765021
-0.0168192
0.0145055
-0.904045
0.906359
-0.0117821
0.0091102
-1.07492
1.0776
-0.00596474
0.00288891
-1.28176
1.28484
0.000714028
-0.00422207
-1.53313
1.53664
0.00765003
-0.0110125
-1.53376
1.53712
0.0137656
-0.016476
-1.28323
1.28594
0.0187027
-0.0209077
-1.07694
1.07915
0.0227489
-0.0246185
-0.906642
0.908512
0.0262199
-0.0278809
-0.766802
0.768463
0.0293324
-0.030733
-0.652806
0.654207
0.0310535
-0.0297612
-0.548897
0.547605
0.0257913
-0.0185497
-0.405765
0.398523
0.0111525
-0.00462
-0.204528
0.197995
0.00118533
-0.0343755
0.0331901
-0.0335433
0.0327404
0.000802923
-0.00795377
0.0136166
-0.270519
0.264856
-0.0196381
0.0232283
-0.439212
0.435622
-0.0245054
0.0240679
-0.552481
0.552918
-0.0225908
0.0209304
-0.651188
0.652849
-0.0189722
0.0170575
-0.766973
0.768888
-0.0147952
0.01257
-0.908557
0.910782
-0.00994897
0.00738683
-1.08014
1.0827
-0.00438449
0.00145566
-1.28779
1.29071
0.00197044
-0.0053001
-1.54003
1.54336
0.00853167
-0.011664
-1.54035
1.54349
0.0141995
-0.0166717
-1.28854
1.29101
0.0186908
-0.0206776
-1.08128
1.08327
0.0223226
-0.0239848
-0.910304
0.911966
0.0254033
-0.0268719
-0.770031
0.7715
0.0281297
-0.0291561
-0.655399
0.656426
0.0291043
-0.0271504
-0.545985
0.544031
0.0227861
-0.0158194
-0.391416
0.384449
0.00933287
-0.00385246
-0.19204
0.186559
0.00099292
-0.032114
0.0311211
-0.032035
0.0314073
0.000627704
-0.00635733
0.0111065
-0.259679
0.25493
-0.0165405
0.0201334
-0.432033
0.42844
-0.021737
0.0215288
-0.553282
0.55349
-0.0202885
0.0186881
-0.654529
0.656129
-0.0167867
0.0149215
-0.770766
0.772631
-0.0127191
0.0105563
-0.912897
0.91506
-0.00801217
0.00553003
-1.08514
1.08762
-0.00262791
-0.000190061
-1.29353
1.29635
0.0034625
-0.00661499
-1.54656
1.54971
0.00964703
-0.0125593
-1.54649
1.5494
0.0148961
-0.0171496
-1.29339
1.29564
0.0189666
-0.0207325
-1.0852
1.08697
0.0221838
-0.023653
-0.913556
0.915025
0.0249131
-0.0262164
-0.772881
0.774184
0.0273371
-0.0279536
-0.657232
0.657848
0.0275352
-0.0250289
-0.541814
0.539308
0.020429
-0.0138043
-0.377665
0.371041
0.00803963
-0.00331401
-0.181496
0.176771
0.000858496
-0.0302066
0.0293481
-0.0308595
0.0303735
0.00048593
-0.00507355
0.0090361
-0.250602
0.24664
-0.0138405
0.0172901
-0.424931
0.421481
-0.0190823
0.0190679
-0.553653
0.553667
-0.0180215
0.0164551
-0.657783
0.659349
-0.0145765
0.0127304
-0.774471
0.776317
-0.010554
0.00842147
-0.917113
0.919245
-0.0059185
0.00348351
-1.08999
1.09242
-0.000650261
-0.00208029
-1.29906
1.30179
0.00522064
-0.00821225
-1.55274
1.55573
0.0110585
-0.013765
-1.55219
1.5549
0.015917
-0.0179714
-1.2978
1.29986
0.0196071
-0.021171
-1.0887
1.09026
0.0224376
-0.0237184
-0.916431
0.917712
0.0248259
-0.0259731
-0.775408
0.776555
0.0269028
-0.0271554
-0.658271
0.658524
0.026342
-0.0233671
-0.536585
0.53361
0.0186292
-0.0123391
-0.364605
0.358315
0.00712742
-0.00294084
-0.172349
0.168162
0.000766846
-0.0285461
0.0277793
-0.0299557
0.0295895
0.000366141
-0.00399896
0.00727087
-0.243049
0.239777
-0.0114338
0.0146305
-0.418178
0.414981
-0.016488
0.0166383
-0.553656
0.553506
-0.0156809
0.0141982
-0.660947
0.66243
-0.0123221
0.0104628
-0.778146
0.780005
-0.00826875
0.00612649
-0.921279
0.923421
-0.00362779
0.00121458
-1.09475
1.09716
0.00157434
-0.00424529
-1.30441
1.30709
0.00729553
-0.0101713
-1.55862
1.5615
0.0128689
-0.0153876
-1.55748
1.56
0.01735
-0.0191874
-1.30182
1.30365
0.0206259
-0.0219811
-1.0918
1.09316
0.0230718
-0.0241809
-0.918944
0.920053
0.0251438
-0.0261185
-0.777609
0.778583
0.026793
-0.0267504
-0.658647
0.658604
0.0255237
-0.0221404
-0.530449
0.527065
0.0173145
-0.0113088
-0.352194
0.346188
0.00650413
-0.00269237
-0.164194
0.160382
0.000707801
-0.0270525
0.0263447
-0.0292844
0.029025
0.000259429
-0.00305829
0.00570779
-0.236841
0.234192
-0.00923082
0.0120921
-0.411978
0.409117
-0.0138973
0.0141296
-0.553381
0.553149
-0.0132131
0.0117675
-0.663975
0.66542
-0.00985999
0.0079562
-0.781855
0.783758
-0.00571692
0.00354374
-0.92546
0.927633
-0.00102289
-0.00139894
-1.09947
1.10189
0.00418016
-0.00681904
-1.30966
1.3123
0.00979526
-0.012557
-1.56427
1.56703
0.0151049
-0.0174415
-1.5624
1.56474
0.0192282
-0.0208656
-1.3054
1.30703
0.0221149
-0.023252
-1.09451
1.09565
0.0241481
-0.0250746
-0.921117
0.922043
0.0258957
-0.0267093
-0.779469
0.780283
0.0271053
-0.0268027
-0.658425
0.658123
0.0251364
-0.021364
-0.523509
0.519737
0.0164511
-0.0106464
-0.340321
0.334516
0.00611586
-0.00254477
-0.156722
0.153151
0.000675364
-0.0256647
0.0249893
-0.0288234
0.0286652
0.000158254
-0.00218795
0.00425362
-0.231858
0.229792
-0.00713289
0.00959211
-0.406488
0.404029
-0.0112461
0.0114938
-0.55299
0.552742
-0.0105992
0.00916745
-0.666957
0.668388
-0.00721318
0.00524093
-0.785652
0.787624
-0.00291575
0.000664002
-0.929709
0.931961
0.00193514
-0.00441131
-1.10422
1.10669
0.00722405
-0.00985939
-1.31485
1.31748
0.0127895
-0.0154609
-1.56968
1.57235
0.0178734
-0.0200297
-1.56695
1.5691
0.0216359
-0.0230718
-1.30858
1.31001
0.0241362
-0.0250662
-1.09681
1.09774
0.0257701
-0.0264991
-0.922923
0.923652
0.0271616
-0.0278227
-0.780984
0.781645
0.0279081
-0.0272367
-0.657596
0.656925
0.0251379
-0.0209826
-0.515816
0.51166
0.0159644
-0.010276
-0.328816
0.323127
0.00590957
-0.00247433
-0.14968
0.146245
0.000663058
-0.0243324
0.0236693
-0.0285646
0.0285091
5.55115e-05
-0.00133804
0.00283403
-0.228035
0.226539
-0.00505428
0.00704477
-0.401839
0.399849
-0.00843824
0.00861399
-0.552625
0.552449
-0.00769107
0.00623441
-0.66994
0.671396
-0.00419301
0.00211893
-0.789586
0.79166
0.000325241
-0.00267956
-0.934114
0.936468
0.00537869
-0.00793225
-1.10908
1.11163
0.0108099
-0.0134784
-1.32004
1.32271
0.0164015
-0.0190123
-1.57493
1.57754
0.0213097
-0.0232971
-1.57114
1.57313
0.0247256
-0.0259444
-1.31134
1.31255
0.0267939
-0.0274726
-1.0987
1.09938
0.027958
-0.0284751
-0.924345
0.924862
0.0289758
-0.0294341
-0.782121
0.782579
0.0292426
-0.0281454
-0.656008
0.654911
0.0255828
-0.0210217
-0.507372
0.502811
0.0158489
-0.0101747
-0.317504
0.311829
0.00586672
-0.00247319
-0.142867
0.139473
0.000669136
-0.0230171
0.0223479
-0.0285112
0.0285648
-5.35591e-05
-0.000462094
0.0013832
-0.225352
0.224431
-0.00291911
0.00437965
-0.398161
0.3967
-0.0054147
0.00543274
-0.552474
0.552456
-0.00441671
0.00286825
-0.67303
0.674578
-0.000697643
-0.00151932
-0.793727
0.795944
0.00412604
-0.00662444
-0.938718
0.941216
0.00947294
-0.0121477
-1.11409
1.11677
0.0151296
-0.0178533
-1.3253
1.32802
0.0207772
-0.0233213
-1.58005
1.5826
0.0254883
-0.0272876
-1.57498
1.57678
0.0285211
-0.0295141
-1.31364
1.31464
0.030155
-0.0306008
-1.10012
1.10057
0.0308613
-0.0311474
-0.925345
0.925631
0.0314587
-0.0316515
-0.782742
0.782935
0.0311889
-0.0295693
-0.653567
0.651947
0.0265022
-0.0214884
-0.498127
0.493113
0.0160904
-0.0103216
-0.306176
0.300407
0.00597174
-0.00253425
-0.136098
0.13266
0.000691621
-0.0216827
0.0209911
-0.0286753
0.0288458
-0.000170511
0.000464458
-0.000155921
-0.223834
0.223525
-0.000646612
0.00150001
-0.395576
0.394723
-0.00207115
0.00184902
-0.552704
0.552926
-0.000689002
-0.000991248
-0.676345
0.678025
0.00332077
-0.00572029
-0.798152
0.800552
0.00854587
-0.0112457
-0.943622
0.946322
0.0143042
-0.0171493
-1.11937
1.12221
0.0202835
-0.0231036
-1.33067
1.33349
0.0260732
-0.0285859
-1.58505
1.58756
0.030644
-0.032256
-1.57843
1.58004
0.0332828
-0.03402
-1.31548
1.31622
0.0344166
-0.0345962
-1.10105
1.10123
0.0346196
-0.0346587
-0.925878
0.925917
0.0347697
-0.0346103
-0.782741
0.782581
0.0337848
-0.0315698
-0.650126
0.647911
0.027936
-0.0223982
-0.487973
0.482435
0.0166857
-0.0107048
-0.294611
0.288631
0.00621393
-0.0026519
-0.129204
0.125642
0.000728737
-0.0202973
0.0195686
-0.0290965
0.0294089
-0.00031238
0.00146843
-0.00180477
-0.223573
0.22391
0.00184053
-0.00169955
-0.394229
0.394088
0.00172837
-0.00230849
-0.553515
0.554096
0.00369578
-0.00557865
-0.679977
0.68186
0.00814746
-0.0107858
-0.802939
0.805577
0.0138784
-0.0168146
-0.948923
0.951859
0.0201193
-0.0231703
-1.12498
1.12803
0.026498
-0.0294489
-1.33624
1.33919
0.0324858
-0.0349664
-1.58997
1.59246
0.0369023
-0.038307
-1.58149
1.5829
0.0391073
-0.0395607
-1.31678
1.31723
0.0396939
-0.0395823
-1.10142
1.10131
0.0393367
-0.0391031
-0.925888
0.925655
0.0390026
-0.0383884
-0.781963
0.781348
0.0371143
-0.0342283
-0.645538
0.642652
0.0299442
-0.0237789
-0.476754
0.470589
0.0176402
-0.0113191
-0.28257
0.276249
0.00658734
-0.00282269
-0.122026
0.118261
0.000779343
-0.0188323
0.018053
-0.0297926
0.0302768
-0.000484232
0.00272802
-0.00380313
-0.224632
0.225707
0.00470437
-0.00536034
-0.394317
0.394973
0.00610998
-0.00714597
-0.555174
0.55621
0.00885311
-0.0110111
-0.684088
0.686246
0.0139018
-0.016854
-0.808205
0.811157
0.020294
-0.0235414
-0.954704
0.957951
0.0271716
-0.0304915
-1.13102
1.13434
0.0340614
-0.0371628
-1.34207
1.34517
0.0402641
-0.0426885
-1.59481
1.59724
0.0444569
-0.0455989
-1.58411
1.58525
0.0461195
-0.0462898
-1.31748
1.31765
0.0461487
-0.0457194
-1.10116
1.10073
0.0451786
-0.0446488
-0.925297
0.924767
0.0442285
-0.0431761
-0.780279
0.779227
0.0413307
-0.0376466
-0.639631
0.635947
0.0325891
-0.0256583
-0.464252
0.457321
0.0189609
-0.0121604
-0.269794
0.262994
0.00708544
-0.00304204
-0.114409
0.110366
0.000841658
-0.0172617
0.01642
-0.0308375
0.0315391
-0.00070157
0.0042083
-0.00616218
-0.227214
0.229168
0.00812887
-0.00967857
-0.396062
0.397612
0.0112542
-0.0128678
-0.557909
0.559523
0.0150265
-0.0175431
-0.688811
0.691328
0.0208366
-0.0241752
-0.814097
0.817435
0.0280495
-0.0316878
-0.961125
0.964764
0.0357211
-0.0393654
-1.13761
1.14125
0.0432232
-0.0465076
-1.3482
1.35149
0.0496983
-0.0520762
-1.59954
1.60192
0.0536644
-0.054505
-1.58618
1.58702
0.0546801
-0.0544927
-1.31752
1.31733
0.0540151
-0.0532239
-1.10019
1.09939
0.0523549
-0.0514837
-0.924045
0.923174
0.0506539
-0.0490882
-0.777708
0.776142
0.0465311
-0.0418996
-0.632149
0.627518
0.0359211
-0.0280552
-0.450182
0.442316
0.0206452
-0.013216
-0.256
0.248571
0.00769529
-0.00330181
-0.106205
0.101811
0.000912593
-0.0155634
0.0146508
-0.032315
0.0333038
-0.000988811
0.00608572
-0.00909867
-0.231576
0.234589
0.0123022
-0.01491
-0.399734
0.402342
0.017461
-0.0197937
-0.561998
0.564331
0.0225631
-0.0255709
-0.694335
0.697342
0.029414
-0.0332411
-0.820772
0.824599
0.0376446
-0.0417425
-0.968333
0.972431
0.0462384
-0.0502507
-1.14484
1.14885
0.0544273
-0.0578958
-1.35469
1.35816
0.0611366
-0.0633957
-1.60413
1.60639
0.0647249
-0.0651891
-1.58762
1.58808
0.0649788
-0.0643538
-1.31674
1.31611
0.0634901
-0.0622822
-1.0984
1.09719
0.0610472
-0.0598335
-0.922031
0.920817
0.05846
-0.0562801
-0.774099
0.771919
0.0528709
-0.0470882
-0.622775
0.616993
0.0399871
-0.0309722
-0.434194
0.425179
0.0226737
-0.0144592
-0.240891
0.232676
0.00839439
-0.00358939
-0.0972745
0.0924695
0.000987928
-0.0137224
0.0127345
-0.0343532
0.0357387
-0.00138549
0.00853958
-0.0128975
-0.238049
0.242406
0.017583
-0.0214173
-0.405707
0.409541
0.0250969
-0.0282947
-0.567796
0.570994
0.0318539
-0.0355224
-0.700951
0.70462
0.0400781
-0.0445286
-0.828436
0.832887
0.0495793
-0.0542252
-0.976469
0.981115
0.059258
-0.063672
-1.1528
1.15722
0.0681576
-0.071757
-1.3615
1.3651
0.0749517
-0.0769782
-1.60841
1.61043
0.077923
-0.0778839
-1.58822
1.58818
0.0772003
-0.0760335
-1.31498
1.31381
0.0747401
-0.0730718
-1.09568
1.09401
0.0714361
-0.0697884
-0.919215
0.917568
0.0678491
-0.0649084
-0.769233
0.766292
0.0604417
-0.053248
-0.611092
0.603898
0.0447799
-0.0343671
-0.415864
0.405451
0.0249892
-0.0158349
-0.22416
0.215006
0.00914084
-0.00388242
-0.0875063
0.0822478
0.00106012
-0.0117334
0.0106733
-0.0371483
0.0391006
-0.0019523
0.0119669
-0.0180287
-0.247146
0.253208
0.024503
-0.0297715
-0.414466
0.419734
0.0347779
-0.0390201
-0.575679
0.579921
0.0435679
-0.04808
-0.709
0.713512
0.0535386
-0.0587595
-0.837346
0.842567
0.0645926
-0.0698724
-0.985721
0.991001
0.0754791
-0.0802706
-1.16155
1.16634
0.0849828
-0.0886008
-1.3685
1.37212
0.0915898
-0.0932092
-1.61213
1.61375
0.0935911
-0.0928757
-1.58773
1.58701
0.0915772
-0.0897489
-1.31204
1.31021
0.0879254
-0.0857806
-1.09189
1.08975
0.0837333
-0.0814887
-0.915399
0.913155
0.0790015
-0.0750608
-0.762741
0.7588
0.0692844
-0.060363
-0.596565
0.587643
0.0502352
-0.0381402
-0.394701
0.382606
0.027484
-0.0172515
-0.205517
0.195285
0.00987063
-0.00414933
-0.0768332
0.0711119
0.00111935
-0.00960689
0.00848753
-0.0410209
0.0438552
-0.00283436
0.0169464
-0.0252609
-0.259592
0.267907
0.0339501
-0.0409415
-0.426683
0.433675
0.0475712
-0.0531059
-0.586118
0.591653
0.0589213
-0.0645376
-0.718875
0.724491
0.0711473
-0.0772721
-0.847779
0.853904
0.083934
-0.0898087
-0.996214
1.00209
0.0958741
-0.100888
-1.17095
1.17597
0.105611
-0.109016
-1.37541
1.37881
0.111515
-0.112459
-1.6149
1.61584
0.112041
-0.110447
-1.58578
1.58418
0.108381
-0.105777
-1.30772
1.30512
0.10331
-0.100588
-1.08693
1.08421
0.0980742
-0.0951349
-0.910201
0.907262
0.0919821
-0.0867635
-0.754121
0.748903
0.0793586
-0.0683136
-0.578522
0.567477
0.056181
-0.0420984
-0.370163
0.356081
0.0299765
-0.0185679
-0.184728
0.173319
0.0104907
-0.00434694
-0.0652653
0.0591215
0.00115283
-0.00737403
0.0062212
-0.0465416
0.0508592
-0.00431765
0.0246526
-0.0360215
-0.276559
0.287928
0.0475699
-0.0568675
-0.443389
0.452686
0.0655253
-0.0726156
-0.59975
0.60684
0.0800004
-0.087094
-0.731021
0.738115
0.0948942
-0.101833
-0.859921
0.86686
0.109137
-0.115365
-1.00778
1.01401
0.121557
-0.126443
-1.18063
1.18551
0.130749
-0.133531
-1.38167
1.38445
0.135097
-0.134987
-1.61609
1.61598
0.133447
-0.130698
-1.58192
1.57917
0.127667
-0.124119
-1.30177
1.29822
0.120922
-0.117557
-1.08064
1.07727
0.114512
-0.110828
-0.903451
0.899767
0.10673
-0.0998473
-0.742766
0.735883
0.090391
-0.0767633
-0.55611
0.542482
0.0622691
-0.045921
-0.3417
0.325352
0.0321948
-0.019589
-0.161684
0.149079
0.0108779
-0.00441989
-0.0529309
0.0464729
0.00114387
-0.00509061
0.00394674
-0.0547722
0.062136
-0.00736379
0.0380493
-0.0539022
-0.300179
0.316032
0.0695
-0.082008
-0.466257
0.478765
0.0928336
-0.101293
-0.617025
0.625484
0.110198
-0.118568
-0.745788
0.754159
0.127296
-0.134624
-0.873485
0.880813
0.141982
-0.147973
-1.01979
1.02578
0.153637
-0.15778
-1.18973
1.19388
0.161042
-0.162635
-1.38639
1.38798
0.162723
-0.16108
-1.61492
1.61328
0.158004
-0.153771
-1.57557
1.57133
0.149531
-0.144845
-1.2938
1.28912
0.140789
-0.136709
-1.0728
1.06872
0.132992
-0.128475
-0.894966
0.89045
0.123039
-0.113955
-0.727787
0.718703
0.101846
-0.085052
-0.528262
0.511468
0.0678826
-0.0491567
-0.308838
0.290112
0.0338273
-0.0201428
-0.13652
0.122836
0.0109339
-0.00432365
-0.0401301
0.0335199
0.00106885
-0.00284029
0.00177144
-0.068989
0.0730959
-0.00410696
0.028997
-0.0428557
-0.334398
0.348257
0.0567719
-0.068331
-0.496708
0.508267
0.0785858
-0.0881386
-0.637538
0.647091
0.098749
-0.108599
-0.761978
0.771829
0.119537
-0.129172
-0.887116
0.89675
0.139356
-0.148339
-1.03084
1.03983
0.157651
-0.165527
-1.19692
1.2048
0.173208
-0.17912
-1.38837
1.39428
0.184047
-0.186756
-1.61039
1.6131
0.187221
-0.186019
-1.56603
1.56482
0.183765
-0.180612
-1.28346
1.28031
0.177794
-0.17445
-1.06315
1.05981
0.171426
-0.16687
-0.884078
0.879522
0.15937
-0.146012
-0.7079
0.694542
0.127986
-0.104024
-0.493914
0.469952
0.0807104
-0.0563375
-0.271316
0.246943
0.0374657
-0.021501
-0.109768
0.0938035
0.01123
-0.0042395
-0.0273914
0.0204009
0.00097199
-0.000703652
-0.000268338
-0.0804254
0.0785066
0.00191879
0.00762705
-0.0165398
-0.364784
0.373697
0.0270729
-0.0353992
-0.524385
0.532711
0.0437184
-0.0515802
-0.659325
0.667187
0.0612471
-0.0703474
-0.781151
0.790252
0.0800694
-0.088879
-0.90573
0.91454
0.0981655
-0.106004
-1.04849
1.05633
0.114292
-0.120906
-1.21241
1.21903
0.127262
-0.131806
-1.39978
1.40432
0.134971
-0.136108
-1.61488
1.61602
0.135061
-0.132339
-1.56285
1.56013
0.128545
-0.123759
-1.27649
1.2717
0.119328
-0.114449
-1.05454
1.04966
0.109804
-0.103937
-0.870127
0.864259
0.0960592
-0.0842852
-0.677438
0.665664
0.0705867
-0.0542522
-0.444542
0.428207
0.0398702
-0.0264963
-0.222915
0.209542
0.0170081
-0.00951113
-0.0787354
0.0712384
0.00487026
-0.00181291
-0.0136767
0.0106194
0.00039827
0.00147081
-0.00186908
-0.0818397
0.0789852
0.00285452
-0.00119768
-0.00386227
-0.38536
0.39042
0.0108209
-0.0168672
-0.544864
0.55091
0.0229923
-0.0297867
-0.677633
0.684428
0.0381599
-0.0460348
-0.798424
0.806299
0.0546566
-0.0623037
-0.922509
0.930156
0.0701088
-0.0770571
-1.06397
1.07092
0.0841791
-0.0899188
-1.22517
1.23091
0.0949439
-0.0982659
-1.40814
1.41146
0.100381
-0.100331
-1.61637
1.61632
0.0980921
-0.0941694
-1.55668
1.55275
0.0894059
-0.0837848
-1.26652
1.2609
0.0781943
-0.0722108
-1.04313
1.03715
0.0665198
-0.0598567
-0.854513
0.84785
0.0527097
-0.0430788
-0.650763
0.641132
0.0332941
-0.0229641
-0.410273
0.399943
0.0153464
-0.00941588
-0.195612
0.189682
0.00578698
-0.0032794
-0.0636303
0.0611227
0.00173618
-0.000692405
-0.00735099
0.00630722
0.000159445
0.002515
-0.00267444
-0.0806357
0.0778681
0.00276756
-0.0049446
0.00243827
-0.398987
0.401493
0.00204669
-0.00657763
-0.560033
0.564564
0.0117237
-0.0174101
-0.692671
0.698357
0.0245839
-0.0313264
-0.813508
0.820251
0.0386644
-0.045195
-0.937217
0.943747
0.0522388
-0.0580904
-1.0774
1.08325
0.0642432
-0.0687232
-1.23619
1.24067
0.0728801
-0.0754426
-1.41449
1.41705
0.0765632
-0.0754389
-1.61574
1.61462
0.0725785
-0.0680857
-1.54817
1.54368
0.0628305
-0.0563057
-1.25485
1.24833
0.0501632
-0.0434575
-1.02989
1.02319
0.036971
-0.0301136
-0.838011
0.831154
0.0234879
-0.0160122
-0.628527
0.621051
0.00954113
-0.00426123
-0.388535
0.383255
0.00145675
-9.19459e-05
-0.182391
0.181026
-0.0003568
0.000229853
-0.0576558
0.0577827
-0.000132012
1.87319e-05
-0.00473787
0.00485115
-1.05104e-05
0.00310809
-0.00309758
-0.0791575
0.0767193
0.00243815
-0.00613999
0.0052083
-0.408116
0.409048
-0.00185044
-0.00150343
-0.572143
0.575497
0.00559763
-0.0107369
-0.705288
0.710427
0.0167566
-0.0226759
-0.826272
0.832192
0.0290238
-0.034694
-0.949797
0.955467
0.0407282
-0.0459172
-1.08895
1.09414
0.0510858
-0.0551399
-1.24498
1.24904
0.0585753
-0.0605239
-1.41919
1.42114
0.0610212
-0.0593956
-1.61326
1.61163
0.0561266
-0.051089
-1.53845
1.53341
0.0455483
-0.038847
-1.24162
1.23492
0.0324122
-0.0252
-1.01551
1.0083
0.0185747
-0.0115917
-0.821781
0.814798
0.00563679
0.000282185
-0.61102
0.605101
-0.00439286
0.00657294
-0.375707
0.373527
-0.00677316
0.00578839
-0.177586
0.178571
-0.0044106
0.00282033
-0.0571447
0.058735
-0.00161687
0.000630361
-0.00455883
0.00554534
-0.000160824
0.00330928
-0.00314846
-0.0777948
0.0757175
0.00207729
-0.00606487
0.0056246
-0.414397
0.414837
-0.00361593
0.000891858
-0.581475
0.584199
0.00310694
-0.00750687
-0.715953
0.720353
0.0126747
-0.017805
-0.837303
0.842434
0.0234429
-0.0285155
-0.960769
0.965841
0.0340404
-0.0385798
-1.09904
1.10358
0.0432029
-0.0468037
-1.25278
1.25638
0.0497351
-0.0512768
-1.42277
1.42431
0.051372
-0.0498203
-1.60987
1.60832
0.046273
-0.0411661
-1.52787
1.52277
0.0354742
-0.0286588
-1.22794
1.22112
0.0223847
-0.0150267
-1.00055
0.993191
0.00837574
-0.00160857
-0.806012
0.799245
-0.0038649
0.00863798
-0.59673
0.591957
-0.0115218
0.0124067
-0.368308
0.367423
-0.011211
0.00911908
-0.177598
0.17969
-0.00698206
0.00457143
-0.0596942
0.0621048
-0.00266728
0.00110383
-0.00626867
0.00783212
-0.000291689
0.00309201
-0.00280032
-0.0767744
0.0751623
0.00161204
-0.00519812
0.00507839
-0.419089
0.419209
-0.00340926
0.00135912
-0.589632
0.591682
0.00238676
-0.00638719
-0.725186
0.729186
0.0112902
-0.0157034
-0.847169
0.851582
0.0206509
-0.0251463
-0.970863
0.975359
0.0303854
-0.0344969
-1.10813
1.11224
0.0385868
-0.0419669
-1.25978
1.26316
0.0450106
-0.0463571
-1.42584
1.42719
0.046438
-0.0447073
-1.60633
1.6046
0.0414185
-0.0361061
-1.5174
1.51208
0.0306984
-0.0242541
-1.21415
1.20771
0.0180772
-0.0111617
-0.985635
0.978719
0.00468957
0.00204311
-0.790982
0.78425
-0.00703138
0.0112319
-0.584477
0.580277
-0.0137026
0.0141786
-0.363481
0.363005
-0.0129328
0.0106117
-0.179812
0.182133
-0.00822236
0.00546911
-0.0638714
0.0666247
-0.00325873
0.0014004
-0.00909518
0.0109535
-0.000384697
0.00258104
-0.00219635
-0.0762636
0.0750121
0.00125149
-0.00410872
0.00410958
-0.422849
0.422848
-0.00256049
0.000609529
-0.596736
0.598687
0.00293916
-0.00654551
-0.733475
0.737082
0.0107444
-0.0149915
-0.855957
0.860204
0.0195576
-0.0241916
-0.979639
0.984273
0.0286898
-0.0326065
-1.11645
1.12036
0.0368128
-0.0399448
-1.2664
1.26953
0.0424913
-0.0442173
-1.42842
1.43015
0.044421
-0.0429228
-1.6029
1.6014
0.0397605
-0.0350435
-1.507
1.50228
0.0300051
-0.0239199
-1.20101
1.19492
0.0181387
-0.0115355
-0.971515
0.964911
0.00539091
0.000877186
-0.776672
0.770404
-0.00599158
0.00991094
-0.573316
0.569397
-0.0121094
0.0129369
-0.359735
0.358908
-0.0121751
0.0101302
-0.182285
0.18433
-0.00797748
0.00540061
-0.0684226
0.0709995
-0.00328739
0.00145552
-0.0123702
0.0142021
-0.000416742
0.00190152
-0.00148478
-0.0762994
0.0752586
0.00104079
-0.0028067
0.00255624
-0.426251
0.426502
-0.00119699
-0.000761073
-0.603272
0.60523
0.00404799
-0.00754539
-0.741189
0.744686
0.0115806
-0.015427
-0.864264
0.86811
0.0201095
-0.0239413
-0.988304
0.992136
0.028403
-0.032143
-1.12443
1.12817
0.0362278
-0.0395434
-1.27263
1.27595
0.0423746
-0.043873
-1.43162
1.43312
0.0444004
-0.0433066
-1.59983
1.59874
0.040835
-0.0364833
-1.49751
1.49316
0.0319007
-0.0262093
-1.18899
1.1833
0.0207998
-0.0145358
-0.957992
0.951728
0.00889773
-0.00288886
-0.763296
0.757287
-0.00203006
0.0060806
-0.562851
0.5588
-0.00841919
0.00944027
-0.355688
0.354666
-0.00936241
0.00808521
-0.184111
0.185388
-0.0065409
0.00453041
-0.0724539
0.0744644
-0.00281598
0.00129128
-0.0154486
0.0169733
-0.000386167
0.0011892
-0.000803035
-0.0766349
0.0759097
0.000725177
-0.00164751
0.000914988
-0.429757
0.43049
0.00026605
-0.00235847
-0.609084
0.611176
0.0053416
-0.00872243
-0.74839
0.751771
0.0125996
-0.0165785
-0.871836
0.875815
0.0206409
-0.0246359
-0.996164
1.00016
0.0290596
-0.0325905
-1.13233
1.13586
0.0367758
-0.0400573
-1.27905
1.28234
0.0429512
-0.0449876
-1.43502
1.43706
0.0460228
-0.0452587
-1.5977
1.59693
0.0430607
-0.0394214
-1.48902
1.48538
0.0353559
-0.0300249
-1.17751
1.17218
0.0249232
-0.0193525
-0.945379
0.939809
0.0138038
-0.00830423
-0.750609
0.745109
0.0035109
0.000849628
-0.552849
0.548488
-0.00339019
0.00492592
-0.350986
0.349451
-0.00541311
0.00507662
-0.184741
0.185077
-0.00425298
0.00305829
-0.0752471
0.0764418
-0.00198274
0.000950329
-0.017834
0.0188664
-0.000299681
0.000570294
-0.000270614
-0.0773871
0.0768253
0.000561833
-0.000667545
-2.4996e-05
-0.43351
0.434202
0.00176049
-0.00371899
-0.615006
0.616964
0.00689094
-0.0101597
-0.755106
0.758375
0.0139032
-0.0174879
-0.879476
0.883061
0.0216815
-0.0253673
-1.00414
1.00783
0.0297464
-0.0337274
-1.13983
1.14382
0.0375663
-0.0411896
-1.28566
1.28928
0.0445269
-0.0466783
-1.43899
1.44114
0.0481243
-0.0481603
-1.5964
1.59644
0.0464107
-0.0433533
-1.4816
1.47855
0.0394991
-0.0347132
-1.16695
1.16216
0.0301888
-0.0249886
-0.933881
0.928681
0.0199749
-0.0146632
-0.738776
0.733465
0.00993408
-0.00527051
-0.542614
0.53795
0.00211775
5.63543e-05
-0.345441
0.343267
-0.00131975
0.00178345
-0.183718
0.183254
-0.00174993
0.00138589
-0.0764263
0.0767904
-0.000971316
0.0005122
-0.0192272
0.0196863
-0.000179783
0.000132819
4.69638e-05
-0.0784247
0.0780425
0.000382147
0.000401561
-0.00128946
-0.437427
0.438315
0.00290542
-0.0051768
-0.620556
0.622827
0.00829671
-0.0114265
-0.7616
0.76473
0.0152729
-0.0187192
-0.886631
0.890077
0.0227638
-0.0265796
-1.01198
1.0158
0.0308797
-0.034839
-1.14764
1.1516
0.0389166
-0.0425874
-1.29282
1.29649
0.0461315
-0.0490568
-1.44358
1.4465
0.0509772
-0.0513198
-1.59641
1.59675
0.0502275
-0.0474944
-1.47538
1.47264
0.0442641
-0.040174
-1.15743
1.15334
0.035881
-0.0310572
-0.923262
0.918439
0.0262965
-0.0209694
-0.727467
0.72214
0.0162966
-0.0113146
-0.532308
0.527326
0.00765144
-0.00459629
-0.338808
0.335753
0.00265374
-0.0013266
-0.181016
0.179689
0.00049984
-3.86515e-05
-0.0759784
0.0755172
-0.000157173
0.000179618
-0.0195293
0.0195068
-9.75603e-05
-7.00997e-05
0.00016766
-0.0796973