/*--------------------------------*- C++ -*----------------------------------*\
  =========                 |
  \\      /  F ield         | OpenFOAM: The Open Source CFD Toolbox
   \\    /   O peration     | Website:  https://openfoam.org
    \\  /    A nd           | Version:  6
     \\/     M anipulation  |
\*---------------------------------------------------------------------------*/
FoamFile
{
    version     2.0;
    format      ascii;
    class       volVectorField;
    location    "65";
    object      U;
}
// * * * * * * * * * * * * * * * * * * * * * * * * * * * * * * * * * * * * * //

dimensions      [0 1 -1 0 0 0 0];

internalField   nonuniform List<vector> 
918
(
(0.985049 -0.000714711 0)
(0.00534313 2.96624 0)
(-0.0019643 0.882211 0)
(0.979575 0.00196146 0)
(-0.013753 2.06341 3.23641e-20)
(-0.00709343 2.94855 -2.60004e-18)
(0.816054 1.11876 4.40409e-19)
(0.139356 0.0747473 -1.43253e-20)
(0.999922 -0.000243999 0)
(0.0882302 0.659066 0)
(0.0138253 0.407121 0)
(0.732314 -0.00406733 0)
(0.0101917 2.9316 0)
(0.00342789 2.79444 0)
(-0.00213163 3.18141 8.22535e-19)
(-0.0138714 1.92456 1.91463e-20)
(0.292234 0.0322169 9.87966e-19)
(0.231737 1.10594 3.52624e-19)
(0.964366 0.00674173 0)
(0.000301051 0.411408 0)
(0.0126619 0.0888582 -6.72042e-19)
(1.00183 -0.00456014 0)
(0.999851 -0.00892718 0)
(0.975167 -0.00605217 0)
(0.594305 0.0206258 0)
(0.0216194 2.64345 0)
(-0.0123192 2.91191 9.5344e-19)
(-0.00554709 0.934978 0)
(-0.0301897 1.16842 0)
(-0.00355832 0.905452 0)
(-0.0227709 2.59538 0)
(-0.0047739 2.11424 -2.58494e-20)
(-0.00978995 1.89651 0)
(-0.022154 2.9876 -9.37937e-23)
(-0.0164941 3.00551 2.02033e-18)
(0.00230919 3.0006 0)
(0.871897 -0.00974209 0)
(0.37589 0.915721 1.67051e-19)
(0.814945 1.13685 -5.48519e-19)
(0.947733 1.00222 5.59668e-19)
(0.678069 1.21961 -1.01056e-19)
(0.691406 1.18099 5.76993e-19)
(0.169577 0.136609 1.39751e-20)
(0.159525 0.070589 0)
(1.1611 0.529973 0)
(0.14309 0.121336 6.35288e-20)
(0.118038 0.0664094 -6.59236e-20)
(0.920542 -0.00704808 0)
(1.00026 6.07561e-05 0)
(0.999908 0.000320164 0)
(1.0037 -0.00728131 0)
(1.00089 -0.000947028 0)
(1.00011 -6.86324e-06 0)
(0.0923247 1.84383 -7.40172e-19)
(0.033262 0.85566 0)
(0.121645 0.747373 0)
(0.0145288 0.802589 0)
(0.0493618 0.580912 0)
(0.00392197 2.02865 0)
(-0.00685217 0.73336 0)
(0.00734695 0.439809 0)
(-0.00833612 0.729301 0)
(0.00603362 0.40916 0)
(0.843371 -0.0156517 0)
(0.839275 0.0320713 0)
(0.76225 -0.0070932 0)
(0.801914 0.0313839 0)
(0.705094 0.0047417 0)
(0.0139562 3.0002 9.65393e-19)
(0.0111827 3.00596 0)
(0.00628016 3.00389 0)
(0.0118704 2.9971 1.09704e-23)
(0.00827466 2.95872 -1.43481e-18)
(0.012185 2.98291 0)
(0.00902075 2.90493 0)
(0.0210815 2.93131 2.23323e-24)
(0.00414681 2.82421 0)
(0.0262697 2.91893 0)
(-0.00081807 2.74515 0)
(0.306572 3.57737 0)
(-0.122356 3.66027 0)
(0.149755 3.27223 -7.65519e-19)
(0.00365204 3.00883 0)
(-0.0305055 1.99093 0)
(-0.00728756 2.17719 -1.88836e-20)
(-0.00964151 1.93657 1.83719e-20)
(0.356449 0.141786 -3.42972e-19)
(0.315774 0.00571492 -3.33734e-19)
(0.31032 0.163419 -1.02605e-18)
(0.256954 0.049555 -6.67299e-19)
(0.262203 1.02113 0)
(0.329966 1.23697 -3.63672e-19)
(0.412269 1.14854 6.00084e-19)
(0.987747 0.00814874 0)
(0.94327 0.0057862 0)
(1.00028 0.000671813 0)
(1.00254 0.00906659 0)
(1.00311 0.0089871 -2.64236e-18)
(0.992136 0.00942575 1.9967e-18)
(-0.0194602 0.744465 0)
(-0.000275251 0.419875 0)
(-0.0508427 1.01885 0)
(-0.0265748 0.797861 0)
(-0.00827434 0.410665 0)
(-0.0146474 0.121803 2.08096e-19)
(0.0663202 0.0785235 0)
(0.993624 -0.00769343 0)
(0.954046 -0.00648301 0)
(0.740744 0.0390464 0)
(0.67538 0.0360964 0)
(0.661663 -0.00274095 0)
(0.97906 -0.00297403 0)
(0.588885 0.0531382 0)
(0.443646 -0.0214189 1.50473e-18)
(-0.0405222 2.86095 7.51737e-19)
(0.0336082 2.91441 0)
(0.0428238 2.89226 0)
(0.00323378 2.70178 0)
(-0.00874435 2.98622 9.13044e-19)
(-0.0142494 2.89468 0)
(-0.011104 2.99167 -2.80999e-18)
(-0.0116038 2.9295 9.56754e-19)
(-0.0427374 1.3426 0)
(-0.0143869 1.37058 0)
(-0.00783653 2.1392 7.33934e-22)
(-0.00769534 2.09835 0)
(-0.0173469 1.90812 0)
(0.938853 -0.00521982 0)
(0.857226 -0.0111295 0)
(0.863487 0.00487376 0)
(0.949646 -0.00615582 0)
(0.883649 -0.00807921 0)
(0.499554 1.11584 -2.1199e-19)
(0.546827 1.18577 0)
(0.337768 0.850274 3.23015e-20)
(0.282116 0.714745 0)
(0.915309 1.03291 -1.5781e-19)
(1.03717 0.84312 3.16593e-19)
(0.390021 1.31551 0)
(0.541078 1.2711 0)
(0.59431 1.19867 0)
(0.102922 0.181264 -3.0024e-19)
(0.189833 0.148072 0)
(0.174684 0.0816546 1.85724e-19)
(1.00047 0.897177 0)
(1.0761 0.74539 0)
(1.10552 0.680623 -2.52374e-19)
(1.14255 0.591902 0)
(1.19836 0.39069 4.68081e-20)
(0.957485 -0.007104 0)
(0.962716 -0.0081116 0)
(0.900899 -0.00736849 0)
(0.983927 -0.00812405 0)
(0.974421 -0.00803288 0)
(0.936539 -0.00656815 0)
(1.0002 0.00250437 0)
(1.00077 0.00123984 0)
(1 0.000762552 0)
(0.0446445 2.08787 4.12321e-19)
(0.14507 1.78727 0)
(0.0193596 2.20318 6.25419e-19)
(0.0526459 1.89278 -5.23517e-19)
(0.165661 1.08213 -2.89457e-19)
(0.049757 0.937452 0)
(0.120258 0.935691 0)
(0.00164368 0.772499 0)
(0.0251742 0.522286 0)
(-0.00345451 2.25778 -4.65652e-22)
(0.0184461 2.03413 0)
(-0.00496285 2.25869 -1.16524e-20)
(0.00247936 2.04004 1.05612e-20)
(-0.00617068 0.747025 0)
(-0.00728908 0.734352 0)
(0.00926955 0.474468 0)
(-0.0103127 0.730658 0)
(0.00499462 0.416287 0)
(0.939306 0.013777 0)
(0.856067 -0.0116834 0)
(0.92853 0.00481952 0)
(0.846082 -0.0127949 0)
(0.81239 -0.00364612 0)
(0.896679 0.0244528 0)
(0.870867 0.029831 0)
(0.788092 -0.00709305 0)
(0.0102434 3.06739 -8.99606e-21)
(0.0152908 3.05894 0)
(0.0123377 2.97032 0)
(0.00759985 2.87661 0)
(0.89651 3.97215 0)
(1.19077 3.36802 9.37645e-19)
(0.0811882 3.09135 0)
(-0.0173645 2.91866 0)
(-0.0151145 1.3965 0)
(-0.0352265 1.69555 0)
(-0.0239251 1.53007 0)
(-0.0332348 2.5554 -1.37269e-20)
(-0.0183869 2.24936 0)
(-0.0230596 2.39444 0)
(-0.000910055 1.96495 4.09881e-22)
(-0.00517173 2.25242 -2.32294e-20)
(-0.00616445 2.21494 -1.88681e-20)
(-0.00596641 1.95024 0)
(0.395925 0.117639 5.27408e-19)
(0.349534 -0.000632607 -5.17372e-19)
(0.233302 1.59069 0)
(0.287961 0.764291 -3.2522e-19)
(0.182375 1.68947 -1.06843e-18)
(0.246199 1.22265 1.06966e-18)
(0.901712 0.00593851 0)
(0.967072 0.0106441 0)
(0.974922 0.00984515 0)
(0.923015 0.00588874 0)
(-0.0194738 0.736041 0)
(-0.018294 0.738939 0)
(0.00627438 0.412431 0)
(0.118733 0.113288 5.85751e-19)
(0.098653 0.0989766 -6.9348e-19)
(0.0821564 0.0661643 0)
(1.10594 0.0900027 2.4225e-20)
(1.08966 0.0422985 0)
(1.01816 0.0435744 0)
(0.913302 -0.00166107 0)
(0.44421 0.0971557 0)
(0.504792 0.0763203 -2.40581e-18)
(0.394105 -0.00706068 9.00777e-19)
(0.0108126 2.9771 7.96052e-19)
(-0.0330238 2.86137 4.56247e-20)
(0.008246 3.05346 -1.89779e-20)
(0.0156769 3.0432 7.11337e-19)
(-0.0118728 3.00003 3.14541e-20)
(-0.0122907 2.95228 -1.26882e-22)
(-0.0150296 3.01333 -5.87252e-19)
(0.01439 3.02657 4.14055e-19)
(0.00758253 3.03491 -6.73383e-19)
(0.93466 0.00210263 0)
(0.939475 -0.00114158 0)
(0.848064 -0.0111682 0)
(0.956363 0.0117514 0)
(0.942428 0.0132762 0)
(0.881718 0.00546321 0)
(0.915279 0.0190016 0)
(0.925156 0.0153859 0)
(0.838163 0.00072448 0)
(0.672325 1.41451 1.44409e-20)
(0.690367 1.5251 0)
(0.118779 0.293417 6.82833e-20)
(0.212622 0.653605 5.39589e-19)
(0.240191 0.693451 -3.16624e-19)
(0.21533 0.497778 6.28368e-19)
(0.339228 0.830735 1.58844e-18)
(0.13421 0.236295 3.81102e-19)
(0.266935 0.171858 7.07889e-19)
(0.223363 0.164527 1.82362e-19)
(0.219091 0.0703712 3.47734e-19)
(1.19022 0.445053 9.04294e-20)
(1.21599 0.245184 8.81901e-20)
(0.00903047 2.24716 2.43432e-19)
(0.039302 1.95655 0)
(0.972518 0.0329374 0)
(0.946529 0.019146 0)
(0.87074 -0.0152941 0)
(0.012522 3.07483 0)
(0.0169042 2.94406 1.25777e-18)
(0.0139808 2.95692 0)
(0.00582133 2.84978 -1.24829e-18)
(0.00895189 3.09068 3.07361e-19)
(0.0117438 3.08275 0)
(0.710274 1.82152 -1.706e-19)
(1.23518 2.6267 5.76822e-19)
(0.695064 1.99966 -1.39541e-18)
(0.0223058 2.97665 -6.93037e-19)
(0.0404022 2.99872 0)
(-0.0383627 2.87925 0)
(-0.00622793 2.23731 -1.27654e-20)
(-0.00482371 2.25775 4.40876e-20)
(-0.000580384 2.00089 -7.07005e-21)
(0.268361 1.40178 1.03368e-18)
(0.28608 0.567302 -7.0934e-19)
(0.0703984 2.00622 7.50487e-19)
(0.124637 1.87858 -9.01063e-19)
(0.205704 1.5395 1.01167e-19)
(0.00616866 3.12032 -1.71104e-18)
(0.0129485 3.12088 1.88273e-18)
(-0.00513258 2.98044 8.55202e-19)
(-0.00158681 2.97518 -8.20083e-19)
(-0.0177107 2.87731 -8.71058e-19)
(0.0124608 3.10017 -2.28484e-18)
(0.00516583 3.10532 2.31698e-18)
(0.265916 0.697808 0)
(0.217624 0.659111 -1.15079e-18)
(0.0736114 0.212796 5.06366e-19)
(0.346163 0.950434 1.12793e-18)
(0.198432 0.280406 -1.73716e-18)
(1.19592 0.175369 4.90762e-20)
(1.21272 0.30422 0)
(1.19139 0.120757 7.67554e-21)
(-0.00107129 2.26593 -1.2465e-21)
(0.00352104 2.25128 0)
(0.0307197 1.99226 0)
(0.313035 1.3179 -3.71139e-19)
(0.353997 1.17657 -8.03982e-19)
(0.231775 0.391341 1.43807e-18)
(1.00644 -0.00968568 0)
(1.00774 -0.00778632 4.85699e-19)
(-0.0373474 1.32492 0)
(-0.0451128 1.32856 0)
(1.00244 0.00327612 1.34476e-21)
(1.0032 0.00781359 9.97073e-19)
(-0.0243469 2.54172 1.73907e-20)
(-0.0274837 2.58445 0)
(0.04047 3.17306 4.933e-19)
(0.375075 3.54257 0)
(1.15615 0.691491 -5.23126e-20)
(1.01182 0.0106679 -2.83407e-21)
(1.02085 -0.00902238 0)
(1.00158 0.00027748 1.56082e-22)
(0.114331 1.37457 0)
(0.134284 2.58691 0)
(0.0239093 1.32046 0)
(-0.0013788 2.63622 1.3011e-21)
(-0.0218493 2.5851 -6.68558e-21)
(0.997584 0.0311673 2.90704e-21)
(1.06294 0.00581379 0)
(1.09994 0.0284674 0)
(-0.0335655 1.74233 0)
(-0.0192454 2.58564 0)
(-0.0117125 1.31581 0)
(0.31013 1.48684 -1.71817e-19)
(1.01151 -0.00906046 0)
(1.00971 -0.0129889 0)
(1.00228 0.000942933 6.2222e-19)
(1.00548 -0.00491368 -7.33261e-19)
(1.00113 -0.000864266 0)
(-0.0210017 1.46172 0)
(-0.00958507 1.38355 0)
(-0.0161736 1.42372 0)
(-0.0138436 1.30304 0)
(-0.0272106 1.29232 0)
(-0.0209424 1.27142 0)
(1.03564 -0.00431605 0)
(1.01883 0.0150092 -8.82577e-22)
(0.810485 1.30958 2.77291e-19)
(1.00242 0.00038317 -6.21496e-19)
(1.00338 0.00445396 7.41986e-19)
(1.00127 0.00209894 0)
(1.01112 0.00963781 6.19171e-19)
(1.00686 0.00746411 -7.53607e-19)
(1.00715 0.0111339 0)
(-0.0244218 2.61337 0)
(-0.0276664 2.59257 -2.96566e-20)
(-0.0245307 2.60663 2.08821e-20)
(1.24135 0.272519 5.27603e-19)
(1.16332 0.0889028 0)
(0.044514 3.09106 -9.7959e-19)
(0.0518298 2.87334 -6.93414e-20)
(0.103644 3.20205 1.30788e-18)
(0.121995 3.21402 -2.814e-19)
(0.142029 3.25814 0)
(0.0228301 3.13796 2.69504e-19)
(0.0614842 3.1619 9.7588e-19)
(0.0616852 3.17909 -5.04029e-19)
(0.0274758 3.12915 0)
(0.58143 0.289435 0)
(0.523655 0.307634 0)
(1.13737 0.722452 1.18908e-19)
(1.10315 0.858789 -1.0376e-19)
(1.19578 0.608088 0)
(1.22296 0.543036 0)
(1.01573 0.0120257 -1.15024e-18)
(1.0147 0.0127703 1.44622e-18)
(1.02572 -0.00873792 0)
(1.02406 -0.0103038 0)
(1.00675 0.00316664 0)
(1.01089 0.00420817 0)
(1.00425 0.0022078 0)
(1.0094 0.00636705 0)
(1.00687 0.00504913 0)
(1.00441 0.00527416 0)
(0.104494 1.37425 0)
(0.0926626 1.33254 0)
(0.138476 1.41758 0)
(0.146623 1.40035 0)
(0.142942 2.61407 0)
(0.186282 2.68517 -4.18453e-19)
(0.106258 2.67155 0)
(0.0830768 2.67214 1.68963e-19)
(0.0279444 2.67859 -1.61655e-19)
(0.011784 1.322 0)
(0.018791 1.25231 0)
(0.0138955 1.33497 0)
(0.0335281 1.27314 0)
(-0.000909773 1.99499 3.12332e-20)
(-0.021637 2.61327 -3.39539e-20)
(-0.00776827 2.6787 -2.28351e-20)
(-0.0195023 2.69153 0)
(-0.0238078 2.61971 2.32002e-20)
(-0.0224862 2.61516 3.41444e-20)
(0.0062687 1.992 -2.39136e-20)
(-0.00977877 2.40464 4.55554e-20)
(-0.0147706 2.42812 2.58857e-20)
(1.01211 0.0390696 1.16745e-18)
(1.00308 0.0196721 -1.4539e-18)
(1.00245 0.0472751 -1.19145e-18)
(0.974913 0.0348902 1.50109e-18)
(1.06459 0.00912666 0)
(1.04984 -0.00647968 0)
(1.09255 0.0374499 0)
(1.0757 0.0148825 0)
(1.07445 0.000589723 0)
(1.14115 0.0790684 0)
(1.11544 0.045965 0)
(1.11851 0.0374628 0)
(-0.0299231 2.43638 3.2496e-21)
(-0.0200409 2.02256 0)
(-0.0210381 2.22242 0)
(-0.0213982 2.60648 -1.75842e-20)
(-0.0182184 2.61726 5.47227e-22)
(-0.000893414 1.58224 -5.23966e-20)
(-0.010004 1.50524 5.3517e-20)
(-0.0196186 1.39631 0)
(-0.0236732 1.40211 0)
(-0.0305806 1.39342 0)
(-0.00797807 1.31737 0)
(0.00215399 1.24557 0)
(0.38559 1.5119 2.86025e-19)
(0.433595 1.516 1.52086e-19)
(0.59133 2.46743 -2.4932e-19)
(0.375267 2.56467 6.52774e-19)
(0.350813 2.05564 6.92163e-20)
(1.02069 -0.00801392 0)
(1.01579 -0.0093669 0)
(1.01484 -0.0132229 0)
(1.00771 -0.000572299 0)
(1.00487 -0.000670942 0)
(1.00799 -0.00448638 0)
(1.00954 -0.00344952 0)
(1.01464 -0.0042987 0)
(1.01956 0.0161816 1.12915e-18)
(1.01723 0.0147061 -1.42785e-18)
(1.01986 0.0185061 -1.13873e-18)
(1.0174 0.0169099 1.42365e-18)
(0.766931 1.35659 0)
(0.706233 1.39127 2.4226e-19)
(0.873464 1.2375 9.80819e-20)
(0.911228 1.19669 -1.30173e-19)
(1.16509 2.61398 2.80553e-19)
(0.759815 0.128862 5.86184e-19)
(1.17155 0.107286 0)
(1.21368 0.201034 -4.28065e-19)
(1.19479 0.154144 -1.78088e-20)
(1.01359 0.165933 0)
(0.0784161 3.0192 3.50997e-19)
(0.0835966 2.90272 -1.15462e-18)
(0.0266971 2.3576 7.30776e-19)
(0.1424 -0.234207 -3.38089e-19)
(0.342973 3.44627 -2.47819e-19)
(0.193559 3.34083 0)
(0.224264 3.39776 3.22813e-19)
(0.223289 3.07724 -1.2173e-18)
(0.256154 3.1961 0)
(0.00729548 3.12237 5.08146e-20)
(0.0175252 3.13114 -5.84727e-19)
(0.0167357 3.12702 8.60629e-19)
(0.0336675 3.13996 0)
(0.03156 3.14985 0)
(1.25858 2.57837 0)
(0.53215 0.792011 -5.26472e-19)
(1.02368 1.03209 -1.00339e-20)
(0.988606 1.08531 0)
(0.857297 0.968966 -1.07484e-19)
(1.08097 0.907517 2.66525e-20)
(0.343691 0.315766 -8.32387e-19)
(0.66139 0.320453 -2.16328e-20)
(0.55661 0.221969 3.92626e-19)
(0.555642 0.32322 2.88022e-20)
(0.443744 0.279264 -1.15436e-18)
(0.618336 0.321228 0)
(0.69682 0.423656 6.60291e-19)
(0.699724 0.429806 0)
(0.590428 0.328201 0)
(0.50948 0.254824 0)
(0.795397 0.65165 3.9582e-19)
(1.25217 0.305779 -4.29413e-19)
(1.24457 0.437205 0)
(1.24498 0.393295 0)
(0.6943 0.184911 5.98239e-19)
(0.844245 0.553323 -3.72388e-19)
(0.765578 0.515704 6.65274e-19)
(0.965172 0.448873 -6.71884e-19)
(1.01842 0.0146385 7.65254e-19)
(1.01709 0.0136258 -7.72653e-19)
(1.016 0.0141604 0)
(1.03703 -0.00453766 0)
(1.03043 -0.00770599 -7.24842e-19)
(1.02864 -0.0105809 7.17312e-19)
(1.02474 0.0109301 0)
(1.02268 0.0150388 0)
(1.0127 0.00468585 0)
(1.01456 0.00910699 0)
(1.01635 0.00421086 0)
(1.01554 0.00290784 0)
(0.0720357 1.35946 0)
(0.0720743 1.30345 0)
(0.157209 1.41605 5.64728e-20)
(0.276599 1.4832 8.40088e-20)
(0.174495 1.45484 1.89888e-19)
(0.214595 1.45137 -3.06476e-19)
(0.167926 1.42946 0)
(0.148099 1.58949 -7.96044e-20)
(0.146843 1.58376 0)
(0.350762 2.00673 -1.00771e-19)
(0.327216 2.34269 6.25492e-19)
(0.201684 1.46833 6.93573e-20)
(0.275936 1.39804 2.50007e-20)
(0.207537 1.39684 -2.03372e-20)
(0.289667 1.33712 -8.56744e-20)
(0.252963 1.57825 0)
(0.272832 1.62304 9.54177e-20)
(0.025486 2.2567 -1.67075e-20)
(0.038074 2.67175 0)
(0.0641243 2.40683 9.98941e-20)
(0.0592625 2.4305 0)
(0.0693341 2.68927 -1.87563e-19)
(0.0430212 2.7057 0)
(0.0234093 1.44516 5.41851e-20)
(0.0318152 1.50299 0)
(0.026645 1.41098 0)
(0.0194422 1.41715 -6.14422e-20)
(0.00160166 2.6634 -1.14669e-21)
(0.0260529 2.69539 1.8472e-19)
(0.00932541 2.73476 9.93692e-22)
(0.00147351 1.84294 -1.8602e-20)
(-0.00489052 1.69463 -1.40832e-20)
(0.0106068 1.3045 0)
(0.0180239 1.23118 0)
(0.0398241 1.59167 -1.75565e-20)
(0.0368162 1.46869 -5.33444e-20)
(0.0272131 1.54373 5.82969e-20)
(0.0481963 1.61713 0)
(-0.0304232 2.27323 1.1396e-19)
(-0.0336352 2.55399 -4.82881e-20)
(-0.0197493 2.45294 7.75637e-21)
(-0.00538523 1.85983 2.25506e-20)
(-0.0276388 2.50796 1.04347e-20)
(-0.0228351 2.44888 -2.23205e-20)
(1.01765 0.0220895 -7.71608e-19)
(1.01469 0.0282122 7.7804e-19)
(1.01168 0.0163498 0)
(1.01169 0.070873 1.06198e-18)
(0.990172 0.0609836 -1.22251e-18)
(0.9486 0.0572391 1.36712e-18)
(1.0139 0.115953 -1.44258e-19)
(1.04395 -0.00468945 0)
(1.05215 -0.000455717 6.94623e-19)
(1.04025 -0.00818933 -6.94227e-19)
(1.0722 0.0434701 -4.11826e-20)
(1.06492 0.0288124 3.55691e-19)
(1.06433 0.0653344 0)
(1.05438 0.0545059 -1.28106e-19)
(1.03175 0.0444651 0)
(1.02529 0.0398015 0)
(1.02757 0.0136461 0)
(1.02399 0.0161248 0)
(1.04088 0.0339142 2.63378e-19)
(1.03918 0.0289265 -5.82884e-19)
(1.053 0.0385606 -2.7859e-19)
(1.04826 0.038629 -3.07544e-19)
(1.07786 0.0701336 5.88045e-19)
(1.10172 0.0561208 0)
(1.10858 0.0945673 0)
(-0.0282531 2.28001 6.91645e-20)
(-0.0299397 2.02795 3.36807e-21)
(-0.0251186 2.03791 0)
(-0.0299148 2.44938 -6.88639e-20)
(-0.0275276 2.40752 -6.48243e-21)
(-0.0345505 2.47697 8.74154e-21)
(-0.0216239 2.62759 -2.89996e-20)
(-0.0263495 2.5699 1.48093e-21)
(-0.0248106 2.52304 -9.90816e-21)
(-0.0172558 2.62092 1.96636e-20)
(-0.0214146 2.62301 -2.25516e-20)
(-0.00966385 1.49972 -3.50567e-22)
(-0.0044543 1.63047 -5.12065e-20)
(0.377695 1.44829 -1.22401e-19)
(0.371885 1.38067 1.59672e-20)
(0.648189 1.43941 -2.3442e-19)
(0.524983 1.5092 -1.48051e-19)
(0.578518 1.46768 0)
(0.606775 2.42458 2.19594e-19)
(0.667333 2.43339 3.40439e-19)
(0.417704 2.51681 9.15299e-20)
(0.399939 2.54331 -6.26015e-19)
(0.502369 2.48224 5.73775e-19)
(0.553581 2.47757 0)
(0.486629 2.52717 -5.58297e-19)
(0.258531 2.59785 1.14433e-18)
(0.358659 2.56648 -6.34393e-20)
(0.282726 2.65519 -1.58364e-18)
(0.970571 2.39191 7.19453e-19)
(0.848812 2.39268 0)
(1.01145 0.00138483 2.52287e-20)
(1.01537 -0.00518999 -2.06047e-20)
(1.01774 -0.00394594 -3.76681e-19)
(1.0156 -0.00105385 3.75335e-19)
(1.01312 0.00183267 0)
(0.636483 1.30233 0)
(0.67753 1.18752 0)
(0.792123 1.11778 0)
(0.665113 1.14533 0)
(1.19604 2.62942 5.13784e-20)
(1.08884 2.38119 0)
(0.819083 2.17229 3.57468e-21)
(0.822034 2.43487 0)
(0.916837 2.52499 -4.36645e-19)
(0.948362 2.47445 2.91517e-19)
(0.788957 0.165424 0)
(0.729893 0.149352 1.58969e-19)
(0.90336 0.157815 9.29014e-19)
(0.814923 0.138932 -3.47561e-19)
(0.760329 0.0896187 -1.06826e-18)
(1.0884 0.245137 -8.45708e-19)
(0.987472 0.314337 -9.77666e-21)
(0.932195 0.349581 8.15206e-19)
(1.01505 0.259558 6.95079e-19)
(0.931155 0.20557 -1.22366e-18)
(0.891289 0.219468 1.53068e-19)
(0.933085 0.315968 -3.19296e-19)
(0.906735 0.222431 0)
(1.00158 0.209224 5.99231e-19)
(1.05581 0.218523 0)
(1.05282 0.228189 0)
(1.12564 0.124394 2.68897e-19)
(1.06474 0.193782 -1.05252e-20)
(1.08 0.24685 -1.54037e-19)
(1.11372 0.210406 0)
(1.02283 0.0494401 5.94805e-19)
(1.03768 0.0634334 7.41808e-19)
(1.03238 0.0467017 -5.90896e-19)
(1.04215 0.0694423 -4.97482e-19)
(1.01441 0.0746883 -7.52069e-19)
(0.987079 0.169635 0)
(0.989838 0.107312 0)
(0.960241 0.0718852 -4.8539e-19)
(0.903547 0.0981621 1.90326e-19)
(1.03959 0.11653 6.87363e-19)
(1.07631 0.136669 -7.87192e-19)
(1.07003 0.179783 7.07733e-19)
(1.03562 0.15598 0)
(1.08649 0.122593 0)
(1.05721 0.111726 -3.22884e-19)
(1.04361 0.108847 -5.59121e-19)
(0.587371 1.08692 1.18282e-19)
(0.61398 1.40585 -2.18087e-20)
(1.14539 2.72051 -2.47229e-19)
(1.19797 3.10469 2.91135e-21)
(1.25396 2.73019 -1.28759e-19)
(1.29383 2.70122 2.10557e-20)
(1.2695 2.32465 -3.79474e-20)
(1.1857 3.01018 -7.47028e-20)
(1.20516 2.9671 2.2488e-19)
(1.17983 3.25828 -1.21818e-19)
(1.39775 2.97297 1.5188e-19)
(1.40932 2.90948 0)
(0.571017 0.818717 -4.78537e-20)
(0.213039 1.21358 4.75763e-19)
(0.514351 0.360015 5.35786e-19)
(0.399268 0.122629 6.09015e-19)
(0.488784 0.307102 6.53221e-19)
(0.547308 0.421093 -1.06151e-18)
(0.55352 0.408611 8.73925e-19)
(0.47603 0.313499 -3.29289e-19)
(0.356834 0.253627 7.45068e-19)
(0.72649 0.252856 -3.45204e-19)
(0.680586 0.284748 0)
(0.617005 0.19788 7.88052e-21)
(0.738282 0.505685 3.60281e-19)
(0.70771 0.478044 -1.30658e-18)
(0.636299 0.435037 1.62684e-20)
(0.627215 0.414425 0)
(0.715704 0.715161 3.74808e-19)
(0.832004 0.797433 4.13994e-19)
(0.769277 0.847031 -4.8239e-19)
(0.900882 0.819829 -1.53644e-19)
(0.935726 0.86296 -3.59568e-20)
(0.943359 0.870372 3.68798e-20)
(0.88017 0.675769 -6.73395e-19)
(0.952342 0.722807 1.42843e-19)
(1.00627 0.726821 0)
(1.00528 0.702824 -1.83089e-19)
(1.03157 0.338716 2.11915e-19)
(1.15889 0.33863 2.57745e-19)
(1.07468 0.282708 3.45878e-19)
(0.999173 0.38486 -4.22869e-19)
(1.05546 0.485422 0)
(1.13776 0.426908 0)
(0.904067 0.421262 1.18613e-21)
(0.849137 0.320223 0)
(0.894233 0.309297 3.90713e-19)
(0.919301 0.348191 4.25651e-21)
(0.985348 0.493938 1.8777e-18)
(0.918291 0.553213 4.84517e-19)
(0.940255 0.509275 -5.12346e-19)
(0.858395 0.486599 5.45862e-19)
(0.82617 0.460902 3.47095e-19)
(0.804283 0.435916 -3.40205e-19)
(1.02815 -0.00037929 6.22519e-19)
(1.0204 0.000550809 0)
(1.01905 0.00137298 4.06224e-19)
(1.02263 -0.000738082 -9.19628e-19)
(1.02254 0.00455862 4.47979e-19)
(1.02002 0.0115996 -9.37635e-19)
(1.02075 0.0113902 0)
(1.01968 0.0121291 -1.95247e-19)
(1.01654 0.00778124 4.89346e-19)
(1.01668 0.0108905 -2.45583e-19)
(1.01727 0.0105852 1.79699e-19)
(0.0263304 1.32993 0)
(0.0350023 1.38781 0)
(0.0458857 1.33613 0)
(0.0482674 1.27614 0)
(0.0810332 1.40612 -8.6408e-20)
(0.087886 1.37568 2.40518e-20)
(0.093064 1.57308 3.66193e-21)
(0.102607 1.40881 -3.80563e-20)
(0.0404703 1.48065 4.92801e-20)
(0.0450663 1.47675 -3.86625e-20)
(0.0697483 1.39749 -1.9035e-20)
(0.0589378 1.39922 7.79706e-20)
(0.052458 1.37622 1.21489e-20)
(0.0395241 1.39447 7.92281e-21)
(0.1006 2.3744 -1.09622e-19)
(0.0906227 2.41795 0)
(0.142206 2.01308 8.98745e-20)
(0.134154 1.7013 3.22321e-20)
(0.216926 2.01414 -8.04167e-20)
(0.223855 2.42028 0)
(0.247649 2.38351 -6.10551e-19)
(0.292975 2.37766 4.46181e-19)
(0.252319 1.98754 -1.93944e-19)
(0.144791 2.15672 1.38195e-19)
(0.108935 2.26006 0)
(0.0164546 1.86019 -1.83946e-20)
(-0.00373939 2.38212 -1.2803e-20)
(0.00384228 2.1395 0)
(0.00713166 2.44407 -1.69479e-20)
(0.0262665 2.28161 2.09084e-20)
(0.00839143 1.42195 -1.06122e-20)
(0.00809972 1.40415 1.78792e-19)
(0.00732513 1.41208 -5.73161e-20)
(0.0175163 1.41796 -5.15001e-20)
(0.0212718 1.44841 0)
(0.0057892 1.39486 0)
(-0.000547919 1.30408 -6.81068e-20)
(0.00115053 1.38044 1.92897e-20)
(0.00635162 1.38223 0)
(0.00749481 1.29765 -5.28035e-20)
(0.0142798 1.22301 1.05298e-19)
(1.04243 0.0150409 0)
(1.04894 0.0104968 -6.49474e-20)
(1.03918 0.0242866 -4.69829e-19)
(1.04957 0.0232584 0)
(1.05468 0.0225783 0)
(1.03629 0.0130415 -6.76935e-21)
(1.02998 0.0134964 7.58237e-19)
(1.03186 0.0175018 9.17147e-19)
(1.02557 0.0211541 0)
(1.02211 0.0215658 0)
(1.03558 0.0257418 4.68685e-19)
(1.02644 0.0283204 0)
(1.02302 0.0289081 0)
(-0.0202615 2.02932 0)
(-0.00855122 1.6585 -2.14855e-21)
(-0.00887166 1.76439 -3.18348e-20)
(-0.00400761 1.38932 0)
(-0.00863063 1.55982 -2.80817e-20)
(-0.0140441 1.46748 1.77588e-20)
(-0.00856888 1.40135 0)
(0.404022 1.62944 0)
(0.365656 1.31834 -2.69762e-20)
(0.276102 1.34682 0)
(0.435116 1.31611 -3.7606e-20)
(0.47304 1.47524 0)
(0.457427 1.41633 4.02938e-20)
(1.04069 2.67339 -1.52917e-20)
(0.985084 2.41116 -9.03872e-19)
(0.947622 2.21106 1.01533e-18)
(0.865515 2.38484 2.43852e-19)
(0.853128 2.49019 0)
(0.922028 2.48523 0)
(0.954348 2.38501 0)
(0.930419 2.37553 -9.42059e-19)
(0.691824 2.45496 -3.80872e-19)
(0.80085 2.43858 -9.82227e-20)
(0.80817 2.41679 7.40257e-20)
(0.704378 2.40495 0)
(0.809626 2.39891 0)
(0.770363 2.41518 -3.68927e-19)
(0.766138 2.46893 0)
(0.627256 1.06652 0)
(0.515178 0.862952 -5.54975e-19)
(0.521153 0.934365 -3.21547e-20)
(0.501394 1.07328 0)
(0.488204 0.982099 8.49919e-19)
(0.798183 0.885323 -1.33228e-19)
(0.803249 1.02061 0)
(0.783979 1.00326 1.83386e-19)
(0.672131 1.02082 0)
(0.663961 0.925287 0)
(1.16382 2.75679 -2.2022e-19)
(1.1389 2.81505 -8.99338e-20)
(0.923646 2.33811 7.53986e-20)
(0.900309 2.31888 -7.61741e-20)
(1.13344 2.73466 0)
(1.08541 2.7025 9.15095e-20)
(1.10159 2.49779 -2.97997e-19)
(1.00318 2.25711 -2.84677e-20)
(0.497811 1.33265 0)
(0.517222 1.07905 -1.04199e-19)
(0.593419 1.18167 0)
(0.844823 0.22967 0)
(0.755829 0.179293 0)
(0.671795 0.141122 0)
(0.850181 0.22971 -6.1564e-19)
(0.747863 0.22118 3.60727e-19)
(0.909801 0.0901121 -3.8572e-19)
(0.933228 0.140863 0)
(0.907968 0.145992 1.7285e-19)
(0.844276 0.104526 6.92397e-19)
(0.79858 0.0757121 -4.35602e-19)
(1.09752 3.34996 -6.72572e-19)
(1.1649 3.27325 0)
(1.11601 3.43486 -1.56894e-18)
(0.657324 3.58072 1.30624e-18)
(1.0263 3.07802 1.18999e-19)
(0.531509 0.786338 5.67939e-19)
(0.511982 0.754726 0)
(0.35361 0.37781 -1.44783e-19)
(0.482649 0.632628 8.56824e-19)
(0.5439 0.360974 -1.91453e-19)
(0.515627 0.458795 2.26154e-19)
(0.68889 0.525621 4.65501e-19)
(0.734234 0.560023 0)
(0.661056 0.567744 0)
(0.642884 0.532551 0)
(1.01519 0.610502 9.08479e-20)
(0.968983 0.592162 -4.69106e-19)
(0.979119 0.60458 3.59351e-19)
(1.04385 0.547426 -3.46581e-19)
(1.08884 0.516662 0)
(1.09058 0.599283 -9.14432e-20)
(0.8862 0.416184 -7.7185e-19)
(0.875382 0.404204 -9.92258e-19)
(0.8027 0.401079 6.0984e-19)
(0.815767 0.368858 -6.303e-19)
(0.856555 0.329447 -4.95706e-19)
(0.803148 0.332933 6.07067e-19)
(1.02655 0.00667327 -4.6882e-19)
(1.02617 0.00679341 9.4446e-19)
(1.02993 0.000939506 6.03265e-19)
(1.03417 0.00157528 -7.24293e-19)
(1.03394 0.0119645 0)
(1.02965 0.0120494 -1.18758e-18)
(0.0798262 1.64329 1.22658e-20)
(0.0670208 1.60055 0)
(0.106031 1.69866 5.36912e-20)
(0.113651 1.67804 -4.53658e-20)
(0.0810611 1.57023 -6.55922e-21)
(0.0783184 1.57181 0)
(0.00650761 1.69593 0)
(-0.00772195 1.5084 1.49456e-20)
(-0.00630274 1.4484 -1.34269e-20)
(-0.0112872 1.5568 3.13192e-21)
(-0.00224865 1.89168 2.18131e-20)
(-0.0142016 1.94672 -8.44208e-21)
(0.493901 1.36312 -2.62196e-19)
(0.496353 1.35855 2.86669e-19)
(0.448621 1.30871 -1.19776e-20)
(0.4286 1.2932 7.69751e-21)
(0.627418 1.31125 0)
(0.555807 1.40421 1.1538e-19)
(0.556816 1.40715 -1.12348e-19)
(0.484224 1.29509 1.15479e-20)
(0.524759 1.24973 0)
(0.589374 1.21561 0)
(0.665554 2.4184 5.60797e-19)
(0.661272 2.44772 1.28504e-18)
(0.716386 2.46293 -8.83456e-19)
(0.614304 2.43474 -2.01656e-19)
(0.556896 2.52921 2.76213e-19)
(0.497016 2.4948 -7.15377e-19)
(0.993113 2.3899 -5.71959e-19)
(1.02532 2.40764 0)
(0.951882 2.19498 -6.25748e-19)
(1.05622 2.68354 0)
(1.05517 2.66477 0)
(0.603727 2.29216 1.06146e-20)
(1.11956 3.07087 7.85478e-20)
(0.997903 2.96872 -1.27765e-19)
(0.323948 0.804767 0)
(0.324369 0.687771 -3.03032e-19)
(0.528918 0.621486 -3.0694e-19)
(0.366933 2.13503 0)
(0.404605 2.7449 -8.376e-20)
(0.41435 2.47993 0)
(0.723892 0.68055 -7.99085e-19)
(0.789596 0.686417 1.11394e-18)
(0.796389 0.655438 -1.05594e-18)
(0.697534 0.639996 -1.01361e-19)
(0.757508 0.598644 -4.17452e-19)
(0.97194 2.75477 -5.94918e-20)
(1.01432 2.76086 -2.08729e-19)
(0.55479 2.21078 4.31808e-19)
(0.606192 1.73688 -3.43039e-19)
(0.705166 1.85555 -4.93625e-19)
(0.978116 2.39513 -1.37545e-19)
(0.977836 2.34866 3.63745e-19)
(0.648556 1.7675 3.32558e-20)
(0.454865 1.29907 1.74322e-19)
)
;

boundaryField
{
    wall-4
    {
        type            noSlip;
    }
    velocity-inlet-5
    {
        type            fixedValue;
        value           uniform (1 0 0);
    }
    velocity-inlet-6
    {
        type            fixedValue;
        value           uniform (0 3 0);
    }
    pressure-outlet-7
    {
        type            zeroGradient;
    }
    wall-8
    {
        type            noSlip;
    }
    frontAndBackPlanes
    {
        type            empty;
    }
}


// ************************************************************************* //
