/*--------------------------------*- C++ -*----------------------------------*\
  =========                 |
  \\      /  F ield         | OpenFOAM: The Open Source CFD Toolbox
   \\    /   O peration     | Website:  https://openfoam.org
    \\  /    A nd           | Version:  6
     \\/     M anipulation  |
\*---------------------------------------------------------------------------*/
FoamFile
{
    version     2.0;
    format      ascii;
    class       volScalarField;
    location    "33";
    object      p;
}
// * * * * * * * * * * * * * * * * * * * * * * * * * * * * * * * * * * * * * //

dimensions      [0 2 -2 0 0 0 0];

internalField   nonuniform List<scalar> 
2200
(
1.1272
1.11198
1.0945
1.07821
1.06377
1.05174
1.04207
1.03454
1.02912
1.02615
1.02649
1.03007
1.03597
1.04385
1.05376
1.06596
1.08053
1.0969
1.11442
1.12966
1.07089
1.06697
1.06198
1.0564
1.0501
1.04347
1.03706
1.0314
1.02696
1.02444
1.0248
1.02796
1.0329
1.03893
1.04562
1.05244
1.05887
1.06454
1.06958
1.07352
1.02938
1.02907
1.03003
1.03134
1.03178
1.03072
1.02848
1.02565
1.02295
1.02133
1.02172
1.02406
1.0273
1.03055
1.0331
1.03437
1.03408
1.03286
1.03198
1.03233
1.00424
1.00526
1.00768
1.01102
1.01428
1.01661
1.01766
1.01754
1.01687
1.01639
1.01682
1.01811
1.01943
1.02004
1.01934
1.01727
1.01421
1.01098
1.00863
1.00764
0.989336
0.990793
0.993543
0.997079
1.00072
1.004
1.00659
1.00837
1.00938
1.0098
1.01034
1.01089
1.01064
1.00942
1.00725
1.00427
1.00084
0.997431
0.99475
0.993322
0.981726
0.983027
0.985298
0.988155
0.991139
0.994057
0.996845
0.999419
1.00148
1.00267
1.00335
1.00332
1.00216
1.00025
0.997956
0.995415
0.992701
0.990019
0.987837
0.986558
0.978119
0.979021
0.980529
0.982477
0.984575
0.98672
0.988911
0.991066
0.993237
0.995121
0.995919
0.995454
0.994389
0.993086
0.991513
0.989811
0.988033
0.986295
0.984893
0.984011
0.975484
0.976068
0.97699
0.978229
0.979622
0.981065
0.982511
0.983948
0.985779
0.988099
0.989073
0.988543
0.988072
0.987619
0.986904
0.986006
0.984992
0.983999
0.9832
0.982641
0.972356
0.972744
0.973355
0.97422
0.975166
0.976133
0.977204
0.978523
0.98028
0.982581
0.983792
0.983634
0.983526
0.983439
0.983289
0.983015
0.982541
0.981962
0.981493
0.98113
0.968572
0.968859
0.969363
0.970107
0.97092
0.971767
0.972861
0.97436
0.976024
0.977755
0.979201
0.980006
0.980374
0.980483
0.980591
0.980544
0.98029
0.979926
0.979597
0.979334
0.964301
0.964524
0.965019
0.96583
0.966861
0.968058
0.96944
0.970976
0.972469
0.973836
0.975585
0.977375
0.978367
0.97875
0.978793
0.978655
0.978339
0.978003
0.977713
0.977514
0.959653
0.959818
0.960292
0.961217
0.962629
0.964378
0.966189
0.967937
0.96974
0.971539
0.973702
0.975805
0.977009
0.977531
0.977464
0.977086
0.976625
0.976273
0.976035
0.975898
0.954675
0.954783
0.955225
0.95619
0.957729
0.9597
0.961868
0.964224
0.966889
0.969547
0.972156
0.974199
0.975227
0.975733
0.975838
0.975593
0.97522
0.974924
0.974762
0.97468
0.949369
0.949431
0.949804
0.950724
0.952159
0.953973
0.956197
0.959059
0.962498
0.966008
0.96926
0.971569
0.97283
0.973664
0.974257
0.974425
0.97432
0.974187
0.974124
0.974084
0.943911
0.943898
0.944262
0.945129
0.946427
0.948066
0.950244
0.953221
0.956873
0.961043
0.965281
0.968604
0.970899
0.97247
0.97351
0.97413
0.974397
0.974476
0.97448
0.974455
0.938104
0.938104
0.938493
0.939401
0.940781
0.942631
0.945039
0.948108
0.951874
0.956682
0.961995
0.966638
0.970122
0.972485
0.974002
0.975005
0.975555
0.975789
0.975848
0.975836
0.931637
0.931677
0.932037
0.933039
0.934766
0.937127
0.940138
0.943877
0.948453
0.954276
0.960658
0.966302
0.970606
0.973569
0.975607
0.977004
0.977799
0.978179
0.978298
0.978293
0.924086
0.924129
0.924572
0.925777
0.927817
0.930641
0.934384
0.939166
0.945128
0.952464
0.960248
0.96694
0.972005
0.975653
0.978257
0.979995
0.981021
0.981561
0.98176
0.981762
0.915334
0.915356
0.915844
0.917154
0.919406
0.922601
0.926934
0.932674
0.940113
0.949328
0.959155
0.967583
0.973882
0.978483
0.981773
0.984019
0.985421
0.986178
0.986456
0.986453
0.90447
0.904506
0.905064
0.906538
0.909096
0.91278
0.91787
0.924753
0.933784
0.945175
0.95757
0.968229
0.976222
0.982081
0.98629
0.989237
0.991113
0.992115
0.992458
0.992442
0.891175
0.891218
0.891871
0.893609
0.896699
0.901291
0.907707
0.916266
0.92747
0.941602
0.956955
0.970005
0.979776
0.986961
0.992151
0.995784
0.998127
0.999369
0.999769
0.999733
0.874258
0.874388
0.875341
0.877645
0.881694
0.887696
0.895948
0.906988
0.921294
0.938973
0.957694
0.973337
0.98492
0.993369
0.999482
1.00379
1.00659
1.00804
1.00849
1.00844
0.852847
0.85297
0.854212
0.857351
0.86279
0.870766
0.881724
0.896202
0.914546
0.936625
0.959308
0.977827
0.991353
1.00127
1.00844
1.01348
1.01672
1.01836
1.01885
1.01878
0.824867
0.825224
0.827129
0.831487
0.839009
0.849995
0.864709
0.883663
0.907027
0.934265
0.961418
0.983146
0.998891
1.01045
1.01891
1.02487
1.02863
1.03048
1.031
1.0309
0.787497
0.788228
0.791386
0.798309
0.80954
0.825078
0.845145
0.870073
0.899593
0.932637
0.964465
0.989565
1.00776
1.02116
1.03099
1.03792
1.04224
1.04432
1.04486
1.04468
0.738058
0.739326
0.744935
0.756272
0.773584
0.796304
0.823976
0.856543
0.89311
0.932326
0.9689
0.997352
1.01805
1.03342
1.04474
1.05266
1.05751
1.05971
1.06016
1.05991
0.674386
0.678201
0.689849
0.708956
0.734538
0.765986
0.802579
0.843464
0.887456
0.93328
0.975193
1.00773
1.03183
1.04991
1.06325
1.07263
1.07829
1.08083
1.08134
1.08115
0.602788
0.612268
0.632529
0.661171
0.696302
0.736945
0.78224
0.831109
0.882522
0.935342
0.98332
1.02075
1.0486
1.06993
1.08605
1.09738
1.10431
1.10754
1.10839
1.1085
0.537393
0.551273
0.578241
0.61536
0.659682
0.709495
0.763321
0.819879
0.878263
0.937513
0.991249
1.03329
1.0644
1.08808
1.10624
1.1195
1.128
1.13233
1.13366
1.13376
0.485222
0.499815
0.530785
0.574437
0.626298
0.683939
0.745422
0.809092
0.873828
0.938981
0.998588
1.04534
1.07922
1.10472
1.12458
1.13928
1.1486
1.15316
1.1546
1.15474
0.441914
0.457182
0.490899
0.539072
0.596557
0.660431
0.728363
0.798333
0.869076
0.940234
1.00565
1.05632
1.09241
1.11948
1.14032
1.15556
1.1653
1.17006
1.17162
1.17182
0.404777
0.420927
0.457024
0.508636
0.570328
0.639029
0.712166
0.787565
0.863932
0.940983
1.01134
1.06485
1.10313
1.1316
1.15289
1.16833
1.17827
1.18331
1.18507
1.18533
0.372078
0.388946
0.427208
0.481859
0.54699
0.619526
0.696815
0.776781
0.858235
0.940963
1.01586
1.07174
1.11153
1.14092
1.16275
1.1786
1.1889
1.19426
1.19621
1.19653
0.342642
0.360093
0.400287
0.457663
0.525747
0.601487
0.682248
0.766144
0.852275
0.940195
1.01906
1.07699
1.11806
1.14825
1.17067
1.18701
1.19784
1.20354
1.20554
1.20572
0.31561
0.333554
0.375464
0.43531
0.50603
0.584571
0.668296
0.75559
0.845931
0.938464
1.02093
1.08105
1.12347
1.15453
1.17737
1.19414
1.20529
1.21107
1.21295
1.21295
0.290305
0.308719
0.352194
0.414315
0.487423
0.568431
0.654768
0.745114
0.839307
0.93616
1.02157
1.08407
1.12852
1.16045
1.18387
1.20079
1.21181
1.21759
1.21953
1.21956
0.266383
0.285277
0.330123
0.394279
0.469559
0.55281
0.641545
0.73465
0.832194
0.932668
1.0212
1.08717
1.13363
1.16658
1.19048
1.20738
1.21829
1.22396
1.2259
1.22598
0.243551
0.262959
0.309007
0.374972
0.452228
0.537514
0.628368
0.723884
0.824285
0.928187
1.02105
1.0907
1.13903
1.17314
1.1973
1.21422
1.22504
1.23062
1.23245
1.23249
0.221572
0.241453
0.288574
0.356214
0.435289
0.522379
0.615073
0.712664
0.815656
0.923096
1.02022
1.09363
1.14464
1.17975
1.2043
1.22129
1.23197
1.23729
1.23901
1.23904
0.200296
0.220594
0.268668
0.33781
0.418546
0.507267
0.601591
0.70097
0.806282
0.916903
1.01833
1.09644
1.15018
1.18665
1.21177
1.2286
1.23898
1.24411
1.24563
1.24558
0.179539
0.200162
0.24913
0.319687
0.401958
0.492117
0.587839
0.688854
0.79617
0.909533
1.01531
1.09773
1.15514
1.19429
1.22004
1.23656
1.24635
1.25084
1.25206
1.25193
0.15921
0.180142
0.22995
0.301804
0.385466
0.476901
0.573866
0.676338
0.785354
0.900964
1.01045
1.0974
1.15983
1.20241
1.22965
1.24577
1.25422
1.25766
1.25825
1.25794
0.139265
0.160482
0.21112
0.284215
0.369168
0.461738
0.559751
0.663502
0.774162
0.891545
1.00388
1.09559
1.16332
1.21084
1.24109
1.25735
1.26377
1.26473
1.26395
1.2635
0.11976
0.141244
0.192715
0.267019
0.353167
0.446683
0.54556
0.650511
0.762632
0.881345
0.995864
1.09177
1.16495
1.21856
1.2539
1.27236
1.27673
1.27349
1.26947
1.2686
0.10077
0.122481
0.174803
0.250312
0.337573
0.431846
0.531419
0.637427
0.750746
0.870542
0.987002
1.08624
1.16433
1.22441
1.26688
1.29094
1.29607
1.28727
1.27661
1.27274
0.0823789
0.104303
0.157499
0.234193
0.32246
0.417266
0.517341
0.62426
0.738653
0.859467
0.977738
1.07921
1.16128
1.22739
1.278
1.31096
1.32268
1.31139
1.28652
1.26025
0.0646825
0.0867993
0.140854
0.218595
0.307622
0.402708
0.503087
0.610749
0.726129
0.848055
0.967584
1.07068
1.15539
1.22668
1.28532
1.32847
1.35112
1.34965
1.3506
1.35941
0.0477482
0.0699737
0.124793
0.203363
0.292797
0.387835
0.488271
0.596474
0.712708
0.835594
0.955831
1.05974
1.14576
1.22045
1.28444
1.33405
1.35955
1.35545
1.32658
1.31974
0.0315949
0.0538045
0.109296
0.188543
0.278071
0.372714
0.473011
0.581614
0.698425
0.821884
0.94249
1.04606
1.13172
1.20604
1.26919
1.31405
1.31853
1.28358
1.23767
1.22113
0.0162854
0.0382356
0.09431
0.174129
0.263436
0.357356
0.457366
0.566211
0.683252
0.806957
0.927421
1.02913
1.11186
1.18032
1.23281
1.2514
1.23348
1.17432
1.11092
1.09531
0.00189313
0.0232335
0.079788
0.16003
0.248802
0.341758
0.441408
0.550314
0.667182
0.790538
0.909795
1.00848
1.08479
1.14156
1.17162
1.16679
1.12077
1.03441
0.957576
0.943693
-0.0119837
0.00858263
0.0652997
0.145589
0.233603
0.325631
0.424965
0.533725
0.650039
0.772503
0.889659
0.983579
1.0506
1.09061
1.09088
1.06645
0.970514
0.866671
0.78128
0.769613
-0.0262814
-0.00620739
0.0500421
0.129731
0.216999
0.308502
0.407688
0.516095
0.631422
0.752339
0.866673
0.954202
1.00918
1.02677
1.00353
0.933251
0.808239
0.683065
0.578507
0.563121
-0.0415885
-0.0216389
0.033664
0.112198
0.198857
0.290332
0.389543
0.497365
0.611309
0.730198
0.840672
0.920527
0.959829
0.952171
0.912303
0.791357
0.634823
0.467566
0.329874
0.307089
-0.0580879
-0.0381286
0.0161454
0.093366
0.179546
0.271269
0.370562
0.477584
0.589757
0.705943
0.811604
0.883375
0.904665
0.8682
0.794241
0.642179
0.459172
0.248208
0.0455884
-0.0309167
-0.0759676
-0.055981
-0.00255045
0.0735441
0.159355
0.251375
0.350687
0.456701
0.566739
0.67972
0.78
0.842455
0.844267
0.776427
0.652933
0.488077
0.296377
0.0271766
-0.394795
-0.72615
-0.0953628
-0.0752978
-0.0224379
0.0528902
0.138484
0.230725
0.329945
0.434836
0.542462
0.65165
0.746104
0.7988
0.781054
0.689651
0.507233
0.318741
0.145702
-0.105215
-0.620189
-1.43111
-0.116348
-0.0961199
-0.0435567
0.0312881
0.116752
0.209117
0.308081
0.411691
0.516635
0.621311
0.709752
0.751858
0.71446
0.610139
0.380994
0.174049
0.0265741
-0.110263
-0.295744
-0.591014
-0.138903
-0.11846
-0.0661172
0.00833031
0.093668
0.185993
0.284429
0.386453
0.488334
0.587737
0.669765
0.700497
0.647504
0.528628
0.282781
0.0867892
-0.0318135
-0.0949588
-0.13658
-0.1695
-0.162973
-0.142351
-0.0901559
-0.0160801
0.0690518
0.161178
0.258836
0.359015
0.457537
0.55138
0.626624
0.646503
0.582624
0.44658
0.210542
0.0405053
-0.0516807
-0.078456
-0.106725
-0.111627
-0.188412
-0.16767
-0.115664
-0.0419782
0.0428676
0.134612
0.231295
0.329413
0.424311
0.51234
0.579471
0.589402
0.523289
0.366595
0.155699
0.0183587
-0.0462454
-0.0669272
-0.073883
-0.0740285
-0.21513
-0.194265
-0.142439
-0.0692118
0.0151711
0.106327
0.201857
0.297828
0.388916
0.470869
0.529329
0.528973
0.467764
0.287119
0.108828
0.00664461
-0.0276315
-0.0533749
-0.0539237
-0.0527739
-0.242776
-0.221805
-0.170233
-0.0975767
-0.0138327
0.0765179
0.170763
0.264498
0.35165
0.427737
0.477541
0.468372
0.408447
0.225834
0.0712095
-0.0126822
-0.0277207
-0.0378958
-0.0405822
-0.0403696
-0.270808
-0.249805
-0.198531
-0.126612
-0.0438279
0.0453718
0.138156
0.229806
0.31335
0.383796
0.423964
0.405563
0.343902
0.17877
0.0497189
-0.0220879
-0.0434984
-0.0338942
-0.030919
-0.0301001
-0.298409
-0.277578
-0.226778
-0.155832
-0.0743337
0.0133675
0.104453
0.194118
0.274831
0.340064
0.370325
0.340724
0.269329
0.139848
0.0524456
0.00221467
-0.035365
-0.0247001
-0.0178169
-0.015608
-0.324669
-0.304237
-0.25414
-0.184353
-0.104625
-0.0191027
0.0699147
0.157892
0.236521
0.297111
0.315348
0.273176
0.190678
0.100326
0.0530572
0.0398426
0.0138985
-0.000199802
-0.00525675
-0.00573755
-0.348378
-0.328669
-0.279713
-0.211429
-0.133831
-0.0510198
0.0350974
0.121075
0.199009
0.2565
0.262828
0.202436
0.109967
0.0476133
0.0322861
0.0384082
0.0221013
-0.00472586
-0.0187466
-0.0229589
-0.368231
-0.349652
-0.302374
-0.235843
-0.160699
-0.0813947
0.000919885
0.0841308
0.16189
0.219593
0.217014
0.134726
0.0238474
-0.0345404
-0.0406685
-0.0464025
-0.0532263
-0.0697299
-0.0793308
-0.0845502
-0.382927
-0.366023
-0.321141
-0.256718
-0.183892
-0.108239
-0.0310712
0.047821
0.125277
0.186878
0.184782
0.0792402
-0.0702018
-0.171944
-0.221866
-0.253049
-0.246154
-0.226788
-0.21114
-0.203441
-0.391277
-0.376683
-0.334968
-0.272794
-0.201917
-0.129567
-0.0580415
0.0140449
0.0887924
0.158251
0.171058
0.0529212
-0.150979
-0.340009
-0.453941
-0.508596
-0.503923
-0.461957
-0.415856
-0.38648
-0.392688
-0.380703
-0.342673
-0.283089
-0.213751
-0.143507
-0.0767815
-0.012731
0.0545209
0.129982
0.173327
0.0731288
-0.160087
-0.425638
-0.602798
-0.659642
-0.655642
-0.620052
-0.569469
-0.528804
-0.386354
-0.376202
-0.342094
-0.286092
-0.218843
-0.149234
-0.0845933
-0.0271447
0.029995
0.10423
0.18412
0.144156
-0.0415611
-0.302375
-0.522852
-0.596887
-0.591619
-0.550334
-0.503177
-0.462494
-0.36813
-0.359245
-0.330453
-0.280391
-0.217193
-0.148111
-0.0809914
-0.0238027
0.0261544
0.0911364
0.200556
0.258984
0.202802
0.0617096
-0.093721
-0.134323
-0.0882883
-0.018218
0.0430892
0.0752773
-0.333316
-0.326213
-0.305828
-0.265299
-0.208691
-0.14134
-0.0693581
-0.00324559
0.0518179
0.110307
0.2297
0.387863
0.518816
0.626344
0.671708
0.746046
0.845149
0.930001
0.988509
1.01959
-0.288268
-0.285397
-0.27424
-0.242665
-0.193264
-0.129184
-0.0536093
0.0261164
0.0989726
0.172553
0.292227
0.50087
0.761137
1.06112
1.34252
1.57293
1.76016
1.90394
1.99444
2.03002
-0.249966
-0.25031
-0.243502
-0.218822
-0.173827
-0.111104
-0.0331466
0.0567672
0.149831
0.247729
0.373304
0.580673
0.871274
1.24013
1.64751
2.00633
2.26884
2.43672
2.52094
2.54208
-0.21655
-0.216981
-0.212408
-0.195107
-0.153724
-0.0902208
-0.00923188
0.0851225
0.187894
0.295654
0.416128
0.595324
0.852265
1.15941
1.51353
1.84229
2.08074
2.22072
2.28183
2.29605
-0.185353
-0.185869
-0.184928
-0.17233
-0.132117
-0.0671832
0.0154379
0.110461
0.213758
0.316485
0.419208
0.561648
0.777611
1.02425
1.27823
1.51156
1.69106
1.80286
1.8534
1.86707
-0.153079
-0.154425
-0.157326
-0.145838
-0.105229
-0.0390211
0.0412453
0.130897
0.228594
0.318963
0.393053
0.487964
0.653161
0.843158
1.01893
1.16557
1.27977
1.35809
1.39801
1.41192
-0.105608
-0.107663
-0.110288
-0.0995274
-0.0627552
-0.000988212
0.0706309
0.146186
0.230237
0.310944
0.361777
0.400332
0.505136
0.64831
0.782303
0.886549
0.965258
1.02195
1.0532
1.06388
-0.0345924
-0.0367602
-0.0384166
-0.0299282
-1.80484e-05
0.0500817
0.105603
0.159541
0.223226
0.295965
0.343594
0.338055
0.379116
0.48816
0.60213
0.693668
0.760402
0.807787
0.835048
0.844412
0.0541847
0.0523274
0.0509522
0.0569043
0.077318
0.110069
0.146237
0.179765
0.222247
0.281711
0.331875
0.330985
0.334485
0.411283
0.50332
0.58169
0.64116
0.683113
0.704667
0.710292
0.147226
0.145764
0.144397
0.147228
0.157573
0.173421
0.192755
0.213614
0.239194
0.282136
0.325297
0.345768
0.360584
0.411393
0.474316
0.530019
0.574917
0.603611
0.615403
0.617189
0.228678
0.227618
0.226069
0.225978
0.228661
0.232661
0.24069
0.254712
0.269805
0.298059
0.328931
0.35436
0.384816
0.428548
0.47215
0.506192
0.529253
0.539875
0.54128
0.54016
0.288059
0.287342
0.28568
0.283317
0.281402
0.279054
0.280105
0.289362
0.298381
0.313662
0.335043
0.348375
0.376121
0.419336
0.455678
0.476139
0.480997
0.479273
0.476382
0.474787
0.323808
0.32329
0.321786
0.318511
0.31407
0.308822
0.306101
0.310341
0.314565
0.319626
0.336796
0.338225
0.350678
0.38396
0.415443
0.429807
0.429665
0.427876
0.426287
0.425424
0.341275
0.340811
0.33939
0.336134
0.331189
0.325415
0.321016
0.320796
0.32183
0.321246
0.335872
0.331619
0.331781
0.350367
0.373974
0.384674
0.384769
0.388589
0.390406
0.389446
0.34786
0.347439
0.346094
0.343141
0.338433
0.333401
0.329156
0.327142
0.327658
0.323719
0.335107
0.329533
0.326802
0.337917
0.352673
0.357092
0.358773
0.359719
0.359251
0.358285
0.34961
0.349321
0.348263
0.345811
0.341564
0.337294
0.333858
0.33199
0.332844
0.327855
0.334332
0.330113
0.327167
0.34005
0.351305
0.350621
0.349459
0.347192
0.344109
0.342921
0.34855
0.348387
0.347694
0.345956
0.342687
0.339471
0.336867
0.33498
0.336081
0.332673
0.332918
0.32958
0.324724
0.341176
0.355665
0.353178
0.353188
0.355838
0.354473
0.351997
0.345736
0.345641
0.345247
0.344111
0.341953
0.340192
0.338971
0.336506
0.337013
0.335585
0.332559
0.330782
0.322041
0.336753
0.354379
0.358081
0.357921
0.35849
0.358274
0.356217
0.341591
0.341561
0.341438
0.34092
0.339958
0.338815
0.338436
0.33676
0.337232
0.339214
0.33741
0.333979
0.323856
0.335395
0.348332
0.35277
0.350123
0.34373
0.342266
0.342687
0.33582
0.335897
0.335995
0.335654
0.335524
0.335374
0.335248
0.336116
0.339086
0.344796
0.346719
0.335568
0.328811
0.338925
0.345659
0.348995
0.353619
0.352393
0.352669
0.353761
0.326375
0.326649
0.327228
0.327866
0.328521
0.329646
0.330452
0.333232
0.338083
0.346455
0.345701
0.339262
0.335131
0.347086
0.35482
0.367763
0.393008
0.409143
0.411614
0.409436
0.311478
0.311767
0.31256
0.313993
0.315785
0.318222
0.319926
0.324437
0.332125
0.345617
0.347216
0.345664
0.33678
0.351451
0.365781
0.38269
0.412102
0.43488
0.437878
0.432715
0.292122
0.292582
0.293429
0.294695
0.296603
0.300138
0.305692
0.311521
0.321117
0.335915
0.337299
0.335649
0.341147
0.344037
0.349527
0.352435
0.355739
0.364576
0.368766
0.366322
0.26484
0.265554
0.266873
0.268675
0.271393
0.275101
0.280643
0.286945
0.29585
0.304352
0.303634
0.304457
0.316303
0.302071
0.296648
0.295357
0.279894
0.26906
0.273654
0.275127
0.227002
0.227772
0.229392
0.231986
0.23584
0.240681
0.245631
0.249968
0.255205
0.255736
0.260432
0.25294
0.256632
0.250101
0.249402
0.257022
0.262188
0.250927
0.248807
0.249541
0.180392
0.181099
0.182637
0.185383
0.189458
0.194306
0.198136
0.200279
0.196567
0.181543
0.193142
0.193673
0.201132
0.210627
0.217858
0.231926
0.266219
0.271424
0.258435
0.255036
0.126339
0.126678
0.128414
0.132609
0.137736
0.141822
0.142045
0.135726
0.114383
0.0992597
0.126176
0.151654
0.153436
0.148117
0.163741
0.169101
0.17855
0.188052
0.180912
0.179474
0.0707535
0.0706512
0.0710278
0.0730826
0.0780089
0.0822959
0.080541
0.0688132
0.0422111
0.025344
0.0525241
0.106013
0.101796
0.0764378
0.0837142
0.0775899
0.0540777
0.062482
0.0688096
0.071684
0.0236052
0.0234729
0.0238957
0.0234097
0.021325
0.0176288
0.0120351
0.00241813
-0.0088221
-0.0117438
0.00683072
0.0475354
0.0441405
0.0284906
0.0204197
0.00595677
-0.00655657
-0.000557389
0.00818732
0.0103618
-0.254969
0.219703
0.506087
0.722767
0.898919
1.04467
1.16466
1.26671
1.34635
1.37796
0.434412
0.656087
0.777998
0.904164
1.02669
1.13015
1.20691
1.25069
1.25002
1.24954
0.71743
0.85534
0.954765
1.04331
1.12265
1.18852
1.23579
1.26016
1.26734
1.30285
0.912846
1.00525
1.08406
1.14943
1.20313
1.24637
1.27962
1.30496
1.3256
1.35786
1.06875
1.12867
1.18777
1.2359
1.27509
1.3073
1.33475
1.35986
1.38486
1.40979
1.19488
1.23637
1.27853
1.31475
1.3454
1.37195
1.39619
1.41957
1.4423
1.46103
1.30272
1.33112
1.36213
1.39009
1.4151
1.43797
1.45955
1.48012
1.49943
1.51534
1.39723
1.41709
1.44122
1.46435
1.48562
1.50533
1.52393
1.54169
1.55841
1.57204
1.48306
1.50062
1.5204
1.539
1.55651
1.57321
1.5893
1.60472
1.61927
1.63154
1.56712
1.5808
1.5976
1.61377
1.62898
1.64332
1.65697
1.67013
1.68273
1.69322
1.65441
1.66296
1.67602
1.69005
1.70343
1.71582
1.72736
1.73821
1.74857
1.75764
1.7427
1.74831
1.75818
1.76996
1.7815
1.7919
1.80107
1.80941
1.81741
1.8245
1.83452
1.83806
1.84496
1.85313
1.86133
1.86915
1.87636
1.88283
1.88897
1.89478
1.93046
1.93074
1.93258
1.93544
1.93911
1.94379
1.94961
1.95634
1.96326
1.96929
2.03237
2.02362
2.01418
2.00699
2.00366
2.00516
2.01181
2.02302
2.03729
2.05074
2.13898
2.10192
2.07108
2.0521
2.04316
2.04274
2.05087
2.07
2.10145
2.14032
)
;

boundaryField
{
    wall-4
    {
        type            zeroGradient;
    }
    pressure-outlet-7
    {
        type            fixedValue;
        value           uniform 0;
    }
    velocity-inlet-6
    {
        type            zeroGradient;
    }
    velocity-inlet-5
    {
        type            zeroGradient;
    }
    frontAndBackPlanes
    {
        type            empty;
    }
}


// ************************************************************************* //
