/*--------------------------------*- C++ -*----------------------------------*\
  =========                 |
  \\      /  F ield         | OpenFOAM: The Open Source CFD Toolbox
   \\    /   O peration     | Website:  https://openfoam.org
    \\  /    A nd           | Version:  6
     \\/     M anipulation  |
\*---------------------------------------------------------------------------*/
FoamFile
{
    version     2.0;
    format      ascii;
    class       volVectorField;
    location    "28";
    object      U;
}
// * * * * * * * * * * * * * * * * * * * * * * * * * * * * * * * * * * * * * //

dimensions      [0 1 -1 0 0 0 0];

internalField   nonuniform List<vector> 
2200
(
(0.877556 -0.0201738 0)
(1.00463 -0.0399956 0)
(1.00261 -0.0342892 0)
(1.00017 -0.0232366 0)
(0.999946 -0.0155984 0)
(1.0001 -0.0103185 0)
(1.00011 -0.00662178 0)
(1.0001 -0.00398397 0)
(1.00013 -0.002045 0)
(1.00011 -0.000603414 0)
(1.00007 0.000784684 0)
(1.00024 0.00229864 0)
(1.00018 0.00416272 0)
(1.00008 0.00681039 0)
(1.00005 0.0104899 0)
(0.999913 0.0156917 0)
(1.00018 0.0233125 0)
(1.00271 0.0343207 0)
(1.00464 0.0400199 0)
(0.877574 0.020191 0)
(0.70101 -0.0265887 0)
(0.993696 -0.0585496 0)
(1.02992 -0.0595708 0)
(1.02172 -0.0486065 0)
(1.01352 -0.035884 0)
(1.00804 -0.0249182 0)
(1.00501 -0.0166488 0)
(1.00328 -0.0107445 0)
(1.00222 -0.006105 0)
(1.00171 -0.00171672 0)
(1.0017 0.00256796 0)
(1.002 0.00681582 0)
(1.0031 0.0114022 0)
(1.00493 0.0170993 0)
(1.00797 0.0253633 0)
(1.01342 0.0362951 0)
(1.02156 0.0489527 0)
(1.02963 0.0598871 0)
(0.993569 0.058677 0)
(0.700755 0.0266312 0)
(0.530516 -0.0213616 0)
(0.966409 -0.0553116 0)
(1.05285 -0.0607221 0)
(1.04858 -0.0535743 0)
(1.03235 -0.0417721 0)
(1.02119 -0.0314275 0)
(1.01365 -0.0224712 0)
(1.00893 -0.0151501 0)
(1.00608 -0.00875675 0)
(1.0048 -0.00264848 0)
(1.00474 0.00363706 0)
(1.00604 0.00975422 0)
(1.00874 0.0161539 0)
(1.01341 0.0235278 0)
(1.02089 0.0322507 0)
(1.03206 0.0424644 0)
(1.04834 0.0540876 0)
(1.0527 0.0608757 0)
(0.96581 0.0555917 0)
(0.529679 0.0214327 0)
(0.393503 -0.0132639 0)
(0.910135 -0.0451842 0)
(1.05611 -0.0511953 0)
(1.06684 -0.0470152 0)
(1.05142 -0.0388328 0)
(1.03568 -0.031299 0)
(1.02455 -0.0245198 0)
(1.01704 -0.0173331 0)
(1.01239 -0.0101916 0)
(1.01045 -0.00289586 0)
(1.01041 0.00482468 0)
(1.01222 0.0120307 0)
(1.01667 0.0189894 0)
(1.02396 0.0258589 0)
(1.03503 0.0324886 0)
(1.05079 0.0398658 0)
(1.06606 0.0477749 0)
(1.05495 0.0517634 0)
(0.908668 0.0454845 0)
(0.391795 0.0133704 0)
(0.309977 -0.00616758 0)
(0.847075 -0.0328965 0)
(1.04834 -0.0425027 0)
(1.07707 -0.0387965 0)
(1.06533 -0.0330752 0)
(1.04877 -0.0274601 0)
(1.03554 -0.0221559 0)
(1.0257 -0.0164943 0)
(1.01916 -0.010484 0)
(1.01574 -0.00305435 0)
(1.01543 0.005513 0)
(1.01843 0.0127686 0)
(1.02482 0.018561 0)
(1.03471 0.024072 0)
(1.04788 0.0290986 0)
(1.06411 0.0343606 0)
(1.0757 0.0398139 0)
(1.0466 0.0432828 0)
(0.844449 0.0332891 0)
(0.307361 0.00629684 0)
(0.266337 -0.00180666 0)
(0.789869 -0.0218785 0)
(1.03255 -0.0336668 0)
(1.08153 -0.0319383 0)
(1.07482 -0.0273309 0)
(1.05864 -0.022487 0)
(1.0456 -0.0184506 0)
(1.03547 -0.0140723 0)
(1.02831 -0.00889615 0)
(1.02307 -0.00227976 0)
(1.02289 0.00534174 0)
(1.02769 0.0118737 0)
(1.03453 0.0168224 0)
(1.0442 0.0208456 0)
(1.05689 0.0244883 0)
(1.07327 0.0291448 0)
(1.07973 0.0333429 0)
(1.02991 0.0347052 0)
(0.785732 0.022361 0)
(0.262795 0.00195153 0)
(0.24201 -0.000313972 0)
(0.739573 -0.0138467 0)
(1.01349 -0.0266239 0)
(1.08258 -0.0262821 0)
(1.08109 -0.0225523 0)
(1.06606 -0.0183994 0)
(1.05351 -0.0158113 0)
(1.04394 -0.0125546 0)
(1.03684 -0.00721576 0)
(1.03095 -0.000933501 0)
(1.03053 0.00503317 0)
(1.03561 0.011077 0)
(1.0421 0.0160759 0)
(1.05149 0.0188606 0)
(1.06404 0.0211186 0)
(1.07866 0.0248245 0)
(1.0795 0.0281101 0)
(1.0089 0.0278267 0)
(0.733249 0.0144163 0)
(0.237346 0.00051507 0)
(0.227379 -5.26631e-05 0)
(0.697324 -0.00906034 0)
(0.992813 -0.0213572 0)
(1.08121 -0.0223775 0)
(1.08581 -0.0193278 0)
(1.07254 -0.0158178 0)
(1.05989 -0.0135082 0)
(1.04995 -0.0104428 0)
(1.04182 -0.00503753 0)
(1.03634 0.000539834 0)
(1.03568 0.00479918 0)
(1.04027 0.0100627 0)
(1.04775 0.0147834 0)
(1.05728 0.0174101 0)
(1.06962 0.019156 0)
(1.08237 0.0219657 0)
(1.07711 0.024395 0)
(0.986925 0.0227188 0)
(0.689061 0.00976594 0)
(0.221536 0.000296032 0)
(0.218004 0.000148008 0)
(0.663531 -0.0063369 0)
(0.973349 -0.0178647 0)
(1.07853 -0.0199544 0)
(1.08915 -0.0177376 0)
(1.07776 -0.0146044 0)
(1.06521 -0.0117594 0)
(1.05549 -0.00806926 0)
(1.04745 -0.00300395 0)
(1.04322 0.00170503 0)
(1.04253 0.00506481 0)
(1.04557 0.00927367 0)
(1.05286 0.0137548 0)
(1.06167 0.0166377 0)
(1.0735 0.0188438 0)
(1.0845 0.0214414 0)
(1.07259 0.0228413 0)
(0.964349 0.0197466 0)
(0.651829 0.00731092 0)
(0.210423 0.000153488 0)
(0.21093 0.00038255 0)
(0.635264 -0.00430041 0)
(0.954272 -0.015442 0)
(1.07464 -0.0185419 0)
(1.09107 -0.0166958 0)
(1.08068 -0.0136544 0)
(1.06823 -0.0101738 0)
(1.05875 -0.00632478 0)
(1.05152 -0.00186672 0)
(1.04803 0.00227383 0)
(1.04715 0.00606016 0)
(1.04888 0.00976466 0)
(1.05472 0.0134986 0)
(1.06338 0.0164399 0)
(1.07574 0.0188612 0)
(1.08495 0.0207392 0)
(1.0668 0.0217987 0)
(0.942766 0.0176711 0)
(0.620466 0.00543164 0)
(0.201522 -2.19288e-05 0)
(0.205816 0.000481087 0)
(0.61356 -0.00222333 0)
(0.938043 -0.0123056 0)
(1.07121 -0.0155446 0)
(1.09259 -0.0138057 0)
(1.08287 -0.0112437 0)
(1.07007 -0.00862004 0)
(1.06033 -0.00510865 0)
(1.05306 -0.00106092 0)
(1.04875 0.00291872 0)
(1.0475 0.0071416 0)
(1.04965 0.0106408 0)
(1.05535 0.013726 0)
(1.06423 0.0161673 0)
(1.0762 0.0175697 0)
(1.08464 0.0192765 0)
(1.06059 0.019801 0)
(0.922107 0.0151887 0)
(0.593941 0.00363989 0)
(0.193758 -2.99185e-06 0)
(0.202602 0.000421533 0)
(0.598219 -0.000512839 0)
(0.923956 -0.00859852 0)
(1.06826 -0.0113452 0)
(1.09502 -0.00948404 0)
(1.08642 -0.00755936 0)
(1.07305 -0.00593913 0)
(1.06229 -0.00287977 0)
(1.05445 0.000646295 0)
(1.04948 0.00446976 0)
(1.04807 0.00864357 0)
(1.05068 0.0116141 0)
(1.05662 0.0138908 0)
(1.06582 0.0154994 0)
(1.07802 0.0159966 0)
(1.08466 0.0163263 0)
(1.05422 0.0165143 0)
(0.903588 0.0118916 0)
(0.573884 0.00233375 0)
(0.187539 0.0001837 0)
(0.201623 0.000347448 0)
(0.589649 0.000562244 0)
(0.913777 -0.00469743 0)
(1.06653 -0.00686569 0)
(1.09805 -0.00521833 0)
(1.091 -0.00383143 0)
(1.07774 -0.00241197 0)
(1.06643 0.00024821 0)
(1.05796 0.00289518 0)
(1.05198 0.00597473 0)
(1.05017 0.00946078 0)
(1.053 0.0117278 0)
(1.05904 0.0130468 0)
(1.06849 0.0141678 0)
(1.08006 0.0141787 0)
(1.08472 0.0141278 0)
(1.04842 0.0136786 0)
(0.887224 0.00905671 0)
(0.559038 0.00177099 0)
(0.182509 0.000342722 0)
(0.202167 0.000305863 0)
(0.587198 0.00125452 0)
(0.906435 -0.00185468 0)
(1.06486 -0.00390182 0)
(1.10099 -0.00254667 0)
(1.09513 -0.000869807 0)
(1.08229 0.00107803 0)
(1.07141 0.00374786 0)
(1.06302 0.00598166 0)
(1.05644 0.00847711 0)
(1.05384 0.0110727 0)
(1.05564 0.0125462 0)
(1.06073 0.0134215 0)
(1.06878 0.0142709 0)
(1.07984 0.0137581 0)
(1.08291 0.0130157 0)
(1.04042 0.0117275 0)
(0.871746 0.00716917 0)
(0.5478 0.00173591 0)
(0.178318 0.000423963 0)
(0.204147 0.000445111 0)
(0.587635 0.00158257 0)
(0.901584 0.000232615 0)
(1.06383 -0.000968465 0)
(1.10305 1.07688e-05 0)
(1.09798 0.00151996 0)
(1.08526 0.00375542 0)
(1.07488 0.00622154 0)
(1.06669 0.00847525 0)
(1.06004 0.0110562 0)
(1.05678 0.013352 0)
(1.05721 0.0145911 0)
(1.06097 0.0148069 0)
(1.0683 0.014696 0)
(1.07895 0.0139174 0)
(1.08062 0.0128872 0)
(1.03325 0.0110488 0)
(0.859118 0.00641506 0)
(0.538436 0.00189916 0)
(0.174263 0.000476274 0)
(0.2069 0.000706265 0)
(0.589968 0.00207881 0)
(0.901204 0.00262002 0)
(1.06318 0.00152976 0)
(1.10493 0.0026634 0)
(1.10028 0.00451583 0)
(1.0872 0.00672562 0)
(1.07649 0.00896196 0)
(1.06768 0.0114304 0)
(1.06079 0.0142469 0)
(1.05694 0.016426 0)
(1.0567 0.0174063 0)
(1.05989 0.0170594 0)
(1.0671 0.0160597 0)
(1.07692 0.0148749 0)
(1.07589 0.0132013 0)
(1.02359 0.0104117 0)
(0.845814 0.00583226 0)
(0.529067 0.00211053 0)
(0.169992 0.000577725 0)
(0.212403 0.000994114 0)
(0.596935 0.00311105 0)
(0.90403 0.00444435 0)
(1.06487 0.00530051 0)
(1.10709 0.00679229 0)
(1.10307 0.00829289 0)
(1.0899 0.0105659 0)
(1.07842 0.0128532 0)
(1.06866 0.0153273 0)
(1.06082 0.0179196 0)
(1.05587 0.01976 0)
(1.05481 0.0202809 0)
(1.05774 0.0193584 0)
(1.06448 0.0176922 0)
(1.07348 0.0159143 0)
(1.07128 0.0135823 0)
(1.01619 0.0103246 0)
(0.835934 0.00604499 0)
(0.520684 0.00249423 0)
(0.165576 0.00070265 0)
(0.217926 0.00113918 0)
(0.604521 0.00371862 0)
(0.908839 0.00606584 0)
(1.06804 0.00768203 0)
(1.11073 0.00977071 0)
(1.1071 0.0123035 0)
(1.09413 0.0151146 0)
(1.08231 0.0177854 0)
(1.07197 0.0203892 0)
(1.06306 0.0228373 0)
(1.05663 0.0242186 0)
(1.05397 0.0241126 0)
(1.05575 0.0227037 0)
(1.06163 0.0206391 0)
(1.06926 0.0181503 0)
(1.06488 0.0150728 0)
(1.00531 0.0111202 0)
(0.821985 0.00654713 0)
(0.509736 0.00302731 0)
(0.160177 0.000875133 0)
(0.226791 0.00143072 0)
(0.618783 0.00486368 0)
(0.918917 0.00830313 0)
(1.07379 0.0109237 0)
(1.1156 0.0134435 0)
(1.1124 0.0161137 0)
(1.09952 0.0192195 0)
(1.08727 0.0226716 0)
(1.07616 0.0259645 0)
(1.06588 0.0287647 0)
(1.05726 0.030106 0)
(1.05289 0.0298318 0)
(1.05317 0.0278142 0)
(1.058 0.0248069 0)
(1.06413 0.0215659 0)
(1.05833 0.017446 0)
(0.996477 0.012833 0)
(0.811681 0.0080051 0)
(0.499576 0.00382986 0)
(0.154321 0.00106755 0)
(0.23588 0.00175607 0)
(0.632413 0.005524 0)
(0.929747 0.00995282 0)
(1.08104 0.013422 0)
(1.12178 0.0166649 0)
(1.11827 0.0203735 0)
(1.10499 0.0246526 0)
(1.09198 0.0289411 0)
(1.07976 0.0330783 0)
(1.06786 0.0364324 0)
(1.05742 0.0379013 0)
(1.05128 0.0370174 0)
(1.04975 0.0344775 0)
(1.05322 0.030531 0)
(1.05747 0.0267654 0)
(1.04896 0.0216666 0)
(0.981938 0.015849 0)
(0.793094 0.00965597 0)
(0.483312 0.00470893 0)
(0.14607 0.00131521 0)
(0.249169 0.00238665 0)
(0.652639 0.0076856 0)
(0.945263 0.0131261 0)
(1.09007 0.0178233 0)
(1.12849 0.0217571 0)
(1.12518 0.0263522 0)
(1.11165 0.0310983 0)
(1.09759 0.036349 0)
(1.08357 0.0414993 0)
(1.06901 0.0454813 0)
(1.05583 0.0469539 0)
(1.04746 0.0457058 0)
(1.04461 0.0424594 0)
(1.0467 0.0373953 0)
(1.04918 0.0319626 0)
(1.038 0.0251811 0)
(0.968614 0.0182006 0)
(0.778991 0.0115288 0)
(0.468602 0.00569996 0)
(0.137422 0.00155067 0)
(0.265054 0.00292607 0)
(0.676776 0.00907138 0)
(0.964479 0.0165752 0)
(1.10262 0.0228013 0)
(1.13839 0.0283054 0)
(1.13442 0.033994 0)
(1.12009 0.0402453 0)
(1.10456 0.0469005 0)
(1.08809 0.0529935 0)
(1.07067 0.0573072 0)
(1.05481 0.0585114 0)
(1.04413 0.0560326 0)
(1.03863 0.0511569 0)
(1.03836 0.044861 0)
(1.03867 0.0381677 0)
(1.02366 0.0304713 0)
(0.948593 0.0219901 0)
(0.753493 0.0136303 0)
(0.444938 0.00666889 0)
(0.125552 0.00181917 0)
(0.286882 0.00420571 0)
(0.709203 0.0131597 0)
(0.990191 0.0224684 0)
(1.11854 0.0309101 0)
(1.1498 0.0373833 0)
(1.14571 0.0449415 0)
(1.13034 0.0527215 0)
(1.11292 0.0605507 0)
(1.09354 0.0674688 0)
(1.07238 0.0717637 0)
(1.05245 0.0719083 0)
(1.03865 0.0678627 0)
(1.03156 0.0615392 0)
(1.02896 0.0535589 0)
(1.02605 0.0446483 0)
(1.00741 0.0349971 0)
(0.929282 0.0251757 0)
(0.733443 0.0161768 0)
(0.424299 0.00806894 0)
(0.113873 0.0021256 0)
(0.317077 0.00526204 0)
(0.752381 0.015717 0)
(1.02298 0.0286111 0)
(1.13994 0.0398791 0)
(1.16644 0.0496053 0)
(1.15977 0.0598296 0)
(1.14228 0.0694671 0)
(1.12171 0.0787242 0)
(1.09838 0.0861483 0)
(1.07282 0.0896699 0)
(1.04957 0.0881514 0)
(1.0329 0.0817952 0)
(1.02206 0.0728579 0)
(1.01648 0.0631736 0)
(1.0109 0.0528166 0)
(0.988045 0.041849 0)
(0.903356 0.0304006 0)
(0.698791 0.0192391 0)
(0.390348 0.00919437 0)
(0.0976917 0.00240856 0)
(0.352944 0.00887439 0)
(0.805396 0.0247456 0)
(1.0646 0.040687 0)
(1.1675 0.0557274 0)
(1.18613 0.0673523 0)
(1.1765 0.0802915 0)
(1.15507 0.0921289 0)
(1.12997 0.102517 0)
(1.10187 0.109487 0)
(1.0718 0.111294 0)
(1.04419 0.106864 0)
(1.02389 0.0975265 0)
(1.01145 0.0862886 0)
(1.00308 0.0741337 0)
(0.993672 0.0616317 0)
(0.966224 0.0485791 0)
(0.876099 0.0352935 0)
(0.66958 0.0227233 0)
(0.362541 0.0112386 0)
(0.0832584 0.00277226 0)
(0.433659 0.0140327 0)
(0.885596 0.0341732 0)
(1.1203 0.0570922 0)
(1.20165 0.0771025 0)
(1.212 0.0922575 3.804e-34)
(1.19522 0.109895 -1.7788e-34)
(1.16778 0.123164 0)
(1.13721 0.133194 0)
(1.10368 0.138039 0)
(1.06853 0.136437 0)
(1.03682 0.127992 0)
(1.01366 0.115471 0)
(0.997137 0.101521 0)
(0.985557 0.0874455 0)
(0.973192 0.072859 0)
(0.94067 0.0580358 0)
(0.841689 0.0425809 0)
(0.621134 0.0269595 0)
(0.312814 0.0116905 0)
(0.0617551 0.00254424 0)
(0.4974 0.0285556 2.35291e-20)
(0.977052 0.0556181 -1.80209e-20)
(1.17966 0.0853483 0)
(1.23802 0.109554 1.55551e-20)
(1.23859 0.130805 -1.26021e-20)
(1.21257 0.150288 1.87674e-34)
(1.17871 0.163304 0)
(1.1422 0.171574 1.10447e-20)
(1.10304 0.173554 -3.70663e-20)
(1.06296 0.167976 7.70344e-21)
(1.02726 0.155626 0)
(0.999408 0.139251 -2.0917e-20)
(0.980064 0.122457 -2.53328e-20)
(0.96488 0.105521 4.43548e-20)
(0.946801 0.088991 -3.52236e-20)
(0.905408 0.0710728 0)
(0.792617 0.051971 -1.29625e-20)
(0.558365 0.0327241 0)
(0.261761 0.0155471 -7.08011e-20)
(0.044386 0.00288986 8.37109e-20)
(0.528612 0.0538577 -3.4672e-21)
(1.03304 0.0926402 4.19486e-20)
(1.22523 0.128019 9.07779e-22)
(1.27024 0.154582 -3.01722e-20)
(1.26144 0.178759 -2.61538e-20)
(1.22712 0.198355 4.29277e-20)
(1.18679 0.21043 0)
(1.14402 0.216528 0)
(1.0991 0.215232 5.89909e-20)
(1.05328 0.205462 0)
(1.01063 0.188797 7.46994e-20)
(0.977173 0.17002 2.24417e-20)
(0.952918 0.151704 3.2446e-22)
(0.932943 0.133766 -4.89258e-20)
(0.910755 0.114503 0)
(0.865377 0.0938149 0)
(0.749971 0.0700071 -2.14683e-19)
(0.524113 0.0494514 5.37396e-19)
(0.248683 0.0225008 -3.19038e-19)
(0.0414763 0.0051694 -3.77525e-19)
(0.534753 0.0744043 -2.79842e-21)
(1.06294 0.139969 3.8219e-21)
(1.25824 0.182608 4.47196e-21)
(1.29608 0.210072 5.07015e-20)
(1.27947 0.234634 1.37099e-20)
(1.23789 0.252656 -1.1016e-19)
(1.19139 0.262124 3.94914e-20)
(1.14284 0.264654 0)
(1.09314 0.259009 -1.24535e-19)
(1.04287 0.245572 1.16557e-19)
(0.995605 0.226382 -2.02432e-19)
(0.958393 0.205259 9.59982e-20)
(0.930849 0.184526 -6.45673e-20)
(0.908614 0.166012 1.44173e-19)
(0.883178 0.146872 0)
(0.835084 0.122865 -5.40086e-20)
(0.722715 0.0966625 0)
(0.512646 0.0666869 3.0143e-19)
(0.250771 0.0368566 -7.16121e-19)
(0.0490428 0.00878248 4.48948e-19)
(0.53225 0.104042 -5.81339e-20)
(1.08401 0.192615 1.92147e-20)
(1.28082 0.242917 1.64728e-21)
(1.31374 0.272273 0)
(1.29121 0.296171 -4.02343e-20)
(1.24411 0.311234 5.09424e-20)
(1.19263 0.3167 -4.26879e-20)
(1.13949 0.314466 0)
(1.08546 0.303936 8.84253e-20)
(1.02929 0.286803 -8.14292e-20)
(0.97463 0.264697 1.76647e-19)
(0.931611 0.239407 0)
(0.899863 0.216294 -1.37063e-19)
(0.87313 0.197454 7.66971e-20)
(0.847702 0.179675 1.98091e-19)
(0.803818 0.157483 -1.74323e-19)
(0.699663 0.126777 2.82187e-19)
(0.50586 0.0895928 -6.25078e-19)
(0.261789 0.0519366 3.95743e-19)
(0.0599264 0.0135936 -4.95768e-19)
(0.518867 0.131466 6.34138e-20)
(1.08942 0.243138 -4.74274e-20)
(1.29293 0.30331 3.92147e-21)
(1.32345 0.335937 1.25681e-20)
(1.29661 0.359354 -2.37527e-20)
(1.24549 0.371497 1.38195e-20)
(1.19046 0.372547 3.65967e-21)
(1.13381 0.365333 -9.13211e-20)
(1.07553 0.350421 -9.17658e-20)
(1.01377 0.330396 -1.7528e-19)
(0.955293 0.305867 -3.80362e-19)
(0.912043 0.277625 -1.20161e-19)
(0.879207 0.252988 2.49626e-21)
(0.853564 0.234275 -2.67064e-19)
(0.824151 0.214846 -6.26856e-21)
(0.777909 0.188743 2.5456e-19)
(0.681306 0.156204 -7.77481e-20)
(0.503729 0.114196 -4.52802e-20)
(0.274001 0.068345 0)
(0.0694925 0.0192887 1.05712e-18)
(0.503017 0.155985 0)
(1.08655 0.292121 2.0097e-20)
(1.29735 0.363095 1.12409e-20)
(1.3264 0.399291 -1.21535e-20)
(1.29646 0.422292 1.51773e-20)
(1.2426 0.431491 -3.60814e-20)
(1.18522 0.428138 4.49532e-20)
(1.1261 0.416072 1.51816e-19)
(1.06423 0.397031 -5.1983e-20)
(0.997532 0.373456 8.40347e-20)
(0.935198 0.343734 2.04743e-19)
(0.887956 0.312146 2.63085e-19)
(0.849534 0.287134 -1.6006e-19)
(0.817637 0.264482 2.89254e-19)
(0.79433 0.24506 -2.30021e-19)
(0.756994 0.222848 0)
(0.668804 0.185714 -5.91718e-19)
(0.503845 0.139352 7.96129e-19)
(0.283669 0.0850529 5.97454e-20)
(0.0764758 0.02517 -1.11723e-18)
(0.487361 0.178537 -6.79184e-21)
(1.07829 0.338931 -1.52271e-19)
(1.29631 0.420535 -8.64038e-20)
(1.32458 0.460388 5.39495e-20)
(1.29204 0.483286 2.1295e-20)
(1.23608 0.489936 -3.0666e-20)
(1.17713 0.48245 8.29352e-20)
(1.11596 0.466054 -4.05107e-20)
(1.0503 0.443887 -2.02889e-19)
(0.978583 0.41732 2.76306e-22)
(0.914261 0.383574 -2.22549e-19)
(0.866071 0.349719 -2.81653e-19)
(0.831066 0.321858 1.77362e-19)
(0.805107 0.300342 -1.04009e-19)
(0.774681 0.280165 2.49508e-19)
(0.733135 0.250104 0)
(0.65181 0.214519 -3.66457e-19)
(0.498962 0.164018 5.4147e-19)
(0.288436 0.101369 1.03153e-18)
(0.0805307 0.0309245 -1.21342e-18)
(0.47379 0.199508 -3.31282e-19)
(1.0677 0.384061 1.62351e-19)
(1.29117 0.475849 9.56966e-20)
(1.31886 0.519076 -6.17692e-20)
(1.28429 0.541784 1.10382e-20)
(1.2269 0.545973 -5.06289e-20)
(1.16682 0.53481 -5.11465e-20)
(1.10387 0.514753 -5.74382e-20)
(1.03513 0.489933 -1.16723e-19)
(0.960166 0.459334 1.91942e-19)
(0.894809 0.420867 2.21032e-19)
(0.844486 0.382497 4.45326e-19)
(0.804547 0.353744 0)
(0.772651 0.329789 5.56712e-21)
(0.750023 0.30648 -6.85621e-19)
(0.716842 0.284851 1.58673e-19)
(0.639441 0.242857 7.88083e-19)
(0.491393 0.187725 -2.31884e-19)
(0.283258 0.11672 4.8777e-19)
(0.0800569 0.0341515 -4.05709e-20)
(0.462191 0.219237 8.24602e-21)
(1.05651 0.427529 1.64915e-19)
(1.28363 0.529241 8.13123e-20)
(1.31058 0.575337 -1.45213e-19)
(1.27417 0.597538 4.11066e-20)
(1.21557 0.599317 4.20339e-20)
(1.15459 0.584912 5.11961e-20)
(1.08976 0.561783 1.64481e-19)
(1.01774 0.534533 2.27958e-19)
(0.940615 0.501031 -2.27057e-19)
(0.875302 0.457966 0)
(0.824084 0.416908 -1.69658e-19)
(0.787014 0.386148 1.94783e-19)
(0.760611 0.360078 2.50077e-19)
(0.731722 0.339336 -1.44106e-19)
(0.692911 0.308063 -3.56308e-19)
(0.620603 0.268953 -1.07136e-19)
(0.478778 0.206802 -1.23624e-21)
(0.273929 0.125936 0)
(0.0765878 0.0358074 0)
(0.453281 0.238081 -1.90617e-19)
(1.04457 0.468771 0)
(1.27367 0.579631 1.02978e-19)
(1.30009 0.62856 -5.47309e-20)
(1.26219 0.65034 -3.52209e-20)
(1.20263 0.649847 1.18717e-20)
(1.14089 0.632542 4.88754e-20)
(1.07446 0.606908 -1.07233e-19)
(1.00049 0.577715 1.66337e-19)
(0.922564 0.540576 -7.85929e-20)
(0.855008 0.491769 1.25041e-19)
(0.800078 0.448927 5.34577e-19)
(0.759883 0.414346 1.35857e-20)
(0.728001 0.387002 -2.58853e-19)
(0.704435 0.361735 4.85788e-19)
(0.674943 0.33714 4.51626e-21)
(0.604937 0.289601 1.14622e-19)
(0.465435 0.223864 -5.51012e-19)
(0.263545 0.132317 5.59904e-19)
(0.0716318 0.0368865 -6.67797e-19)
(0.447035 0.256702 7.22636e-23)
(1.03359 0.508998 0)
(1.26272 0.628557 0)
(1.28817 0.679551 4.35231e-20)
(1.24888 0.700444 2.32575e-20)
(1.18861 0.697499 7.97457e-21)
(1.12637 0.677577 -7.87434e-20)
(1.05855 0.649987 0)
(0.982396 0.618652 -2.49972e-19)
(0.902763 0.577812 3.28723e-19)
(0.833616 0.52662 3.62017e-19)
(0.777776 0.480402 -1.97886e-19)
(0.739979 0.443558 -2.41446e-19)
(0.711681 0.413634 5.67442e-19)
(0.684924 0.389227 -1.72244e-19)
(0.649544 0.353654 -2.07028e-19)
(0.583231 0.310742 -1.25092e-19)
(0.447275 0.236803 -5.95201e-19)
(0.250251 0.136709 8.49482e-20)
(0.0655955 0.0369974 7.22157e-19)
(0.442136 0.275988 -8.18076e-20)
(1.02221 0.546716 -1.20906e-19)
(1.25055 0.674123 2.27199e-20)
(1.27527 0.727344 3.3706e-22)
(1.23484 0.747618 -1.24661e-20)
(1.17407 0.742443 -1.95448e-20)
(1.1114 0.720121 0)
(1.04225 0.690908 6.64558e-20)
(0.964382 0.658174 -5.24012e-20)
(0.883581 0.615136 5.38684e-19)
(0.810683 0.559615 -8.49495e-20)
(0.752887 0.508955 9.57138e-20)
(0.710112 0.467782 0)
(0.679675 0.43571 -3.07934e-19)
(0.656611 0.405246 3.76348e-19)
(0.629477 0.378819 0)
(0.563648 0.32353 -2.71567e-19)
(0.427554 0.246684 7.96979e-19)
(0.235989 0.13906 9.4111e-20)
(0.0590374 0.0362006 -8.91162e-19)
(0.438641 0.294514 -1.88789e-19)
(1.01222 0.583694 2.37247e-19)
(1.23832 0.718364 0)
(1.26183 0.773067 1.19948e-19)
(1.22039 0.792324 0)
(1.15937 0.784781 -3.9973e-21)
(1.09652 0.760236 0)
(1.02631 0.729866 0)
(0.946998 0.69564 -7.78576e-20)
(0.865054 0.649304 -5.15394e-19)
(0.789668 0.589442 -6.69872e-19)
(0.728751 0.536557 1.14506e-19)
(0.689531 0.493013 4.17304e-19)
(0.661289 0.458054 3.41365e-19)
(0.636897 0.430413 -1.20767e-18)
(0.602952 0.388539 -4.90741e-19)
(0.538773 0.339176 2.86378e-19)
(0.406913 0.25333 0)
(0.220362 0.139662 8.12991e-19)
(0.0522257 0.0346508 -9.62817e-19)
(0.436019 0.312215 2.14244e-19)
(1.00207 0.618055 -2.65913e-19)
(1.2257 0.759301 0)
(1.24824 0.815729 -1.03938e-20)
(1.20601 0.834313 -4.64013e-20)
(1.14492 0.824649 0)
(1.08187 0.798151 2.35525e-20)
(1.01057 0.766801 5.06907e-20)
(0.92955 0.731446 -1.36034e-19)
(0.844722 0.683169 6.36381e-20)
(0.763552 0.621839 0)
(0.702052 0.564868 4.69098e-19)
(0.659327 0.516432 4.8038e-21)
(0.627866 0.477465 1.84627e-19)
(0.606128 0.440476 2.20265e-19)
(0.581229 0.408881 0)
(0.517192 0.345183 -4.75296e-19)
(0.383149 0.257425 9.33047e-19)
(0.203644 0.138148 -9.90149e-19)
(0.0453992 0.03237 2.08085e-18)
(0.434462 0.328834 0)
(0.99346 0.651673 0)
(1.21354 0.798935 -1.43137e-19)
(1.23476 0.856405 0)
(1.19183 0.873973 0)
(1.13082 0.862223 4.5112e-20)
(1.06769 0.833942 2.23684e-20)
(0.995153 0.801682 1.74436e-20)
(0.912586 0.765583 -2.77596e-20)
(0.827105 0.715225 0)
(0.746577 0.652496 -1.03235e-19)
(0.680961 0.591877 -3.84669e-19)
(0.633992 0.539686 -4.68779e-19)
(0.606966 0.495378 -1.90316e-19)
(0.584674 0.461656 2.40361e-19)
(0.553006 0.412192 -5.68474e-19)
(0.489267 0.356627 1.02507e-18)
(0.361011 0.258246 5.8267e-21)
(0.186181 0.13485 -9.53645e-19)
(0.0389079 0.0295823 -1.41152e-19)
(0.433487 0.344547 0)
(0.984868 0.682748 -2.11758e-19)
(1.20138 0.835506 1.62547e-19)
(1.22143 0.894238 0)
(1.17796 0.911125 0)
(1.11708 0.897488 -1.14236e-19)
(1.05366 0.86761 0)
(0.980189 0.834873 0)
(0.896925 0.798078 -2.85381e-19)
(0.810126 0.746733 9.44853e-20)
(0.722007 0.682715 -8.82677e-19)
(0.651067 0.618721 0)
(0.605193 0.560503 -5.08389e-19)
(0.571111 0.512364 1.11004e-20)
(0.55 0.46467 -7.71446e-19)
(0.528428 0.42793 3.0683e-19)
(0.467855 0.354058 3.27911e-21)
(0.335837 0.255442 -1.09e-18)
(0.169402 0.129304 5.16298e-19)
(0.0339238 0.0264225 1.51019e-19)
(0.433029 0.359372 0)
(0.977518 0.713037 -2.63202e-19)
(1.18982 0.870811 1.74636e-19)
(1.20843 0.930181 3.27846e-19)
(1.16441 0.946029 4.81885e-20)
(1.10375 0.930608 -2.53061e-20)
(1.04036 0.899506 5.29066e-21)
(0.966054 0.866055 1.97972e-19)
(0.881728 0.828621 3.05277e-19)
(0.793426 0.776217 6.77603e-19)
(0.705683 0.711535 7.32998e-19)
(0.634297 0.646198 1.32158e-19)
(0.577717 0.585277 7.33642e-19)
(0.545491 0.527369 4.60892e-19)
(0.525069 0.482622 5.54866e-19)
(0.49731 0.420756 -3.39549e-19)
(0.437467 0.357361 -3.99915e-19)
(0.316957 0.249258 4.71413e-19)
(0.154817 0.119929 -2.79181e-19)
(0.0310396 0.0228881 4.90409e-19)
(0.432704 0.373484 3.568e-19)
(0.970118 0.740991 4.16816e-19)
(1.17829 0.903352 9.8791e-20)
(1.19558 0.963537 1.68792e-20)
(1.15118 0.978636 -1.86633e-19)
(1.09091 0.961618 3.50353e-20)
(1.02738 0.929293 -9.4998e-21)
(0.95224 0.895483 -2.15914e-20)
(0.867543 0.85757 -3.42241e-19)
(0.778195 0.804818 -7.40183e-19)
(0.684223 0.741138 4.85629e-20)
(0.6032 0.674302 0)
(0.547165 0.608265 0)
(0.507277 0.546977 -2.37998e-19)
(0.481972 0.479126 -9.10918e-19)
(0.465085 0.427207 7.33147e-19)
(0.416432 0.339397 4.41214e-19)
(0.297751 0.233116 0)
(0.156822 0.107321 8.9311e-19)
(0.0376136 0.0203938 -5.30491e-19)
(0.432505 0.386841 -1.8894e-19)
(0.963605 0.768145 1.66508e-19)
(1.16734 0.93475 -2.23745e-19)
(1.18314 0.995168 -2.21721e-19)
(1.13836 1.00909 -8.26219e-20)
(1.07844 0.990493 5.09901e-21)
(1.01499 0.95745 0)
(0.939381 0.923214 -2.38569e-19)
(0.854027 0.884923 4.47994e-20)
(0.763242 0.83153 0)
(0.669149 0.768111 0)
(0.587623 0.701546 8.63379e-20)
(0.522243 0.63516 1.21956e-19)
(0.477192 0.563633 -2.55972e-19)
(0.451558 0.499489 6.56321e-19)
(0.419953 0.404652 -8.0271e-19)
(0.378172 0.324336 -9.46049e-19)
(0.2984 0.201393 8.36676e-19)
(0.197478 0.091317 -3.24175e-19)
(0.0909829 0.0298952 1.87716e-19)
(0.43213 0.39939 2.2658e-19)
(0.956919 0.7931 0)
(1.15635 0.963612 0)
(1.17081 1.02448 -7.16088e-20)
(1.12587 1.03754 5.79711e-20)
(1.06665 1.01757 -2.12588e-20)
(1.00331 0.983703 -2.69217e-20)
(0.927169 0.94927 2.06195e-19)
(0.841485 0.910474 5.92953e-19)
(0.749935 0.857173 -5.62214e-20)
(0.648642 0.795181 1.20895e-19)
(0.560438 0.729051 -7.47764e-19)
(0.493356 0.660621 -7.68969e-19)
(0.439436 0.590921 -1.36492e-19)
(0.39657 0.496928 0)
(0.37716 0.41451 -1.00795e-20)
(0.337898 0.271868 5.19712e-19)
(0.26336 0.130425 -8.95744e-19)
(0.208631 -0.0117163 6.87614e-19)
(0.0662644 -0.024796 5.86829e-19)
(0.431759 0.411471 -4.9663e-19)
(0.950628 0.817178 -2.18644e-19)
(1.14577 0.991516 8.00993e-21)
(1.15891 1.05251 1.0426e-19)
(1.11389 1.06435 0)
(1.05517 1.043 1.80367e-19)
(0.99187 1.00886 1.84612e-20)
(0.91528 0.974407 -2.40076e-20)
(0.829007 0.935353 -3.03352e-19)
(0.7346 0.88183 -5.45417e-20)
(0.633667 0.820483 5.06575e-20)
(0.545219 0.757057 6.58091e-19)
(0.46643 0.692489 7.51392e-19)
(0.406519 0.612096 1.31857e-19)
(0.363927 0.536055 6.94524e-19)
(0.304417 0.393663 0)
(0.204749 0.264637 0)
(0.0623478 0.2938 6.07126e-19)
(-0.0315199 0.707687 -1.94151e-20)
(-0.000418972 1.65906 -6.85354e-19)
(0.43115 0.423013 2.72523e-19)
(0.944213 0.839463 6.41323e-19)
(1.1351 1.01734 -9.38289e-19)
(1.14713 1.07879 5.30729e-19)
(1.10226 1.09 -4.82661e-20)
(1.04434 1.06771 2.74574e-19)
(0.98111 1.03327 0)
(0.904001 0.998997 -1.48731e-19)
(0.81715 0.960003 0)
(0.721997 0.906951 7.07586e-19)
(0.61586 0.847555 -6.57772e-20)
(0.52003 0.785232 7.37518e-20)
(0.439825 0.720627 8.45788e-19)
(0.366787 0.656068 -2.90107e-19)
(0.27842 0.544081 -3.58742e-19)
(0.21461 0.463628 0)
(0.102547 0.606727 0)
(0.0359211 1.38365 0)
(0.06107 2.48489 -3.51952e-19)
(0.0773817 2.91627 -2.11847e-19)
(0.430487 0.433866 0)
(0.938268 0.861099 0)
(1.125 1.04249 3.3859e-19)
(1.1359 1.10402 -4.38607e-19)
(1.09128 1.11428 2.71188e-19)
(1.03401 1.09107 -2.47037e-19)
(0.970703 1.05687 -1.05182e-21)
(0.893029 1.02318 8.18937e-22)
(0.80553 0.984307 4.42489e-20)
(0.707617 0.931763 -8.10702e-19)
(0.600628 0.874733 1.13792e-19)
(0.502682 0.817345 6.42071e-19)
(0.412197 0.761439 -8.39887e-19)
(0.329998 0.680064 -9.40087e-19)
(0.260824 0.617734 3.22012e-19)
(0.175499 0.778528 0)
(0.103685 1.63319 4.61155e-19)
(0.112572 2.706 5.26671e-19)
(0.116221 3.07978 -5.94403e-19)
(0.103946 3.20729 6.51947e-19)
(0.429338 0.444363 0)
(0.932197 0.88091 5.40917e-19)
(1.11489 1.06553 -8.66464e-20)
(1.12491 1.12748 5.72051e-19)
(1.0808 1.13743 -2.84654e-19)
(1.02442 1.1138 0)
(0.960987 1.07976 0)
(0.882784 1.04653 0)
(0.794865 1.00824 1.93414e-19)
(0.696111 0.957337 3.22318e-20)
(0.584689 0.902019 0)
(0.483537 0.846874 -6.35201e-19)
(0.392282 0.790481 0)
(0.293914 0.734723 6.69577e-19)
(0.214189 0.830787 -4.44234e-19)
(0.16331 1.5413 -3.60825e-19)
(0.158148 2.70619 -8.76333e-19)
(0.172261 3.12542 -4.66381e-19)
(0.148935 3.25583 -6.33516e-19)
(0.13069 3.29125 5.68258e-19)
(0.42748 0.453583 -1.86613e-19)
(0.92656 0.90011 1.67644e-20)
(1.10541 1.08816 -9.45678e-20)
(1.11452 1.1501 -4.52195e-19)
(1.07103 1.15934 0)
(1.01533 1.13528 0)
(0.9516 1.10185 0)
(0.872726 1.06954 1.00012e-20)
(0.784226 1.03199 -2.49346e-19)
(0.683232 0.982024 0)
(0.572822 0.93026 0)
(0.469543 0.88093 0)
(0.364374 0.834095 0)
(0.301512 0.838405 4.72339e-19)
(0.260624 1.27345 1.18075e-18)
(0.223382 2.46273 3.59024e-19)
(0.228968 3.09836 7.14478e-19)
(0.215748 3.27863 -5.21997e-19)
(0.175779 3.33335 1.89708e-19)
(0.155251 3.34424 0)
(0.424743 0.461512 1.90592e-19)
(0.919836 0.917111 -1.18356e-18)
(1.0956 1.10907 -3.30673e-19)
(1.10437 1.17173 -7.72488e-20)
(1.06173 1.18086 7.26053e-20)
(1.00671 1.15674 -4.72189e-19)
(0.942495 1.12374 2.76467e-20)
(0.863307 1.09217 7.2253e-21)
(0.774947 1.05554 0)
(0.673405 1.00785 -4.7047e-20)
(0.559312 0.958463 4.27964e-20)
(0.456387 0.913152 0)
(0.374276 0.883716 0)
(0.306405 1.05306 -5.84719e-19)
(0.259114 1.94886 4.90614e-20)
(0.248823 2.97929 -2.48068e-19)
(0.271453 3.28594 5.02112e-19)
(0.252685 3.3706 3.51281e-19)
(0.196487 3.39166 -4.59554e-19)
(0.175715 3.39958 2.33549e-19)
(0.421495 0.469077 3.71299e-19)
(0.912857 0.934972 1.14166e-18)
(1.08573 1.13157 4.0244e-19)
(1.09428 1.19459 0)
(1.05245 1.20287 0)
(0.997754 1.17827 3.62831e-19)
(0.93314 1.14594 -1.73735e-19)
(0.85349 1.11532 -1.20408e-20)
(0.76443 1.0796 3.88988e-21)
(0.661293 1.03361 5.18346e-19)
(0.550348 0.987852 -7.25164e-19)
(0.443206 0.946956 0)
(0.371759 0.971511 0)
(0.329875 1.42124 -3.65943e-19)
(0.31241 2.58782 -4.63708e-19)
(0.345102 3.21328 0)
(0.364418 3.35949 -4.4383e-19)
(0.290334 3.41239 7.3648e-20)
(0.21701 3.444 1.38625e-19)
(0.189775 3.46129 -2.48104e-20)
(0.417395 0.476945 -7.06963e-19)
(0.904563 0.952353 -5.45281e-19)
(1.0749 1.1538 0)
(1.08374 1.21803 0)
(1.04278 1.22612 0)
(0.988335 1.20108 0)
(0.923102 1.16894 1.8181e-19)
(0.843586 1.13907 -9.38764e-20)
(0.755674 1.10448 0)
(0.65339 1.06129 -4.69165e-19)
(0.540796 1.01868 1.27818e-18)
(0.448078 0.99175 5.40756e-20)
(0.396561 1.11125 7.34459e-20)
(0.364873 1.87155 5.73323e-19)
(0.366506 2.96105 -2.80802e-19)
(0.398479 3.3225 0)
(0.372625 3.4264 1.10812e-19)
(0.286094 3.49848 7.76683e-20)
(0.229638 3.54299 1.53978e-19)
(0.197525 3.54217 -7.0355e-20)
(0.413323 0.485455 3.36309e-19)
(0.896445 0.972057 -5.44561e-19)
(1.06393 1.1785 0)
(1.07258 1.24316 -1.21885e-19)
(1.0322 1.25013 4.52014e-19)
(0.977858 1.22419 0)
(0.912557 1.19252 0)
(0.83321 1.16331 1.99058e-19)
(0.744998 1.12949 -2.12586e-20)
(0.64175 1.08784 3.98107e-19)
(0.530785 1.04749 -5.96085e-19)
(0.452353 1.03995 3.52302e-19)
(0.413465 1.31707 0)
(0.402444 2.31528 -2.92073e-19)
(0.430065 3.18737 2.04151e-19)
(0.473511 3.42162 8.76942e-20)
(0.449755 3.5023 0)
(0.384781 3.56026 -6.40707e-20)
(0.332018 3.57952 -4.2024e-19)
(0.246416 3.51542 -9.18346e-20)
(0.408338 0.494957 -6.58667e-19)
(0.88692 0.991063 7.77722e-19)
(1.05182 1.2023 5.68868e-19)
(1.06064 1.26833 -1.44901e-19)
(1.02092 1.27525 -6.93489e-19)