/*--------------------------------*- C++ -*----------------------------------*\
  =========                 |
  \\      /  F ield         | OpenFOAM: The Open Source CFD Toolbox
   \\    /   O peration     | Website:  https://openfoam.org
    \\  /    A nd           | Version:  6
     \\/     M anipulation  |
\*---------------------------------------------------------------------------*/
FoamFile
{
    version     2.0;
    format      ascii;
    class       volScalarField;
    location    "85.5";
    object      p;
}
// * * * * * * * * * * * * * * * * * * * * * * * * * * * * * * * * * * * * * //

dimensions      [0 2 -2 0 0 0 0];

internalField   nonuniform List<scalar> 
8800
(
0.836386
0.787071
0.749107
0.721039
0.700879
0.686294
0.675698
0.668162
0.663282
0.66122
0.662598
0.666949
0.673748
0.683176
0.695917
0.71324
0.73712
0.770219
0.813157
0.865672
0.670877
0.677222
0.686373
0.689922
0.687315
0.681228
0.67429
0.668051
0.663255
0.660392
0.660169
0.662805
0.667455
0.67359
0.680694
0.687732
0.692614
0.692492
0.685819
0.676922
0.644386
0.650623
0.655124
0.658996
0.661947
0.662898
0.661813
0.659696
0.657722
0.656891
0.657934
0.660398
0.663293
0.66557
0.666097
0.664313
0.660951
0.656941
0.652162
0.648446
0.640077
0.642843
0.645451
0.64761
0.64935
0.650922
0.652029
0.652388
0.652282
0.652392
0.65321
0.654365
0.655118
0.654977
0.654009
0.652661
0.650997
0.648699
0.646291
0.644724
0.635008
0.636434
0.638275
0.640359
0.642074
0.643371
0.644475
0.645463
0.646282
0.647034
0.647761
0.648238
0.648276
0.647925
0.647267
0.64616
0.644511
0.642623
0.641273
0.64047
0.630002
0.630905
0.632154
0.633784
0.635482
0.63702
0.638311
0.639444
0.640522
0.641558
0.642366
0.642777
0.642806
0.642455
0.641665
0.640488
0.639137
0.637878
0.637061
0.636536
0.625072
0.625729
0.626692
0.628014
0.629467
0.630991
0.632486
0.633864
0.635144
0.636374
0.637354
0.637876
0.637919
0.637504
0.636742
0.635815
0.634836
0.63394
0.633365
0.63298
0.620217
0.620722
0.621511
0.622657
0.623964
0.625391
0.626913
0.628472
0.630007
0.631495
0.632687
0.633334
0.633446
0.633153
0.632613
0.631945
0.631225
0.630574
0.630152
0.629852
0.61538
0.615781
0.616445
0.617472
0.618712
0.62009
0.621612
0.623274
0.625035
0.626821
0.628285
0.62914
0.629459
0.629408
0.629119
0.628679
0.628171
0.627718
0.627408
0.627164
0.610478
0.610805
0.611382
0.612334
0.613532
0.614904
0.616469
0.618244
0.620216
0.62232
0.624138
0.62532
0.625945
0.626175
0.626138
0.625938
0.625636
0.625347
0.625122
0.624917
0.605421
0.605693
0.606211
0.60712
0.608307
0.609714
0.611367
0.613298
0.615522
0.617998
0.62026
0.621863
0.622857
0.623407
0.623647
0.62369
0.623596
0.623456
0.6233
0.623122
0.600118
0.600346
0.600827
0.601724
0.602941
0.604426
0.60621
0.608356
0.610905
0.613843
0.616646
0.618753
0.620179
0.621097
0.621647
0.621941
0.622066
0.622066
0.621967
0.621807
0.594471
0.594665
0.595129
0.596043
0.597331
0.59894
0.600912
0.603343
0.606305
0.609816
0.613276
0.615982
0.617914
0.619255
0.620161
0.620746
0.621092
0.621223
0.621171
0.621024
0.588372
0.588539
0.589002
0.589962
0.591362
0.593147
0.595377
0.598177
0.601657
0.605872
0.610126
0.613551
0.616083
0.617916
0.619229
0.620145
0.620729
0.620989
0.620978
0.620838
0.581694
0.581839
0.582317
0.583352
0.584909
0.586932
0.589497
0.592766
0.59689
0.601964
0.607178
0.611462
0.614708
0.617121
0.618899
0.620189
0.621045
0.621439
0.621466
0.621329
0.574291
0.574412
0.574919
0.57606
0.577826
0.580157
0.58315
0.587007
0.591926
0.598048
0.604418
0.609728
0.613816
0.616916
0.619248
0.620974
0.62213
0.622665
0.622726
0.622587
0.565971
0.566076
0.566618
0.567898
0.569933
0.572655
0.576187
0.580778
0.586677
0.594075
0.601832
0.608363
0.613445
0.617353
0.620352
0.622585
0.624081
0.624762
0.624855
0.62471
0.556457
0.556562
0.557171
0.558623
0.561006
0.564224
0.568433
0.573937
0.581045
0.589992
0.59941
0.607386
0.613641
0.618499
0.62228
0.62511
0.626991
0.627826
0.627946
0.627792
0.545452
0.545536
0.54623
0.547934
0.55076
0.554608
0.559672
0.566319
0.574919
0.585747
0.597148
0.606821
0.614451
0.620428
0.625109
0.628643
0.63095
0.631941
0.632081
0.631913
0.532551
0.532624
0.533423
0.535438
0.538827
0.543486
0.549642
0.557732
0.568183
0.581295
0.595048
0.606701
0.61592
0.623193
0.628929
0.633259
0.636024
0.637163
0.637313
0.63713
0.51716
0.517222
0.518175
0.520609
0.524741
0.53046
0.538031
0.547964
0.560724
0.576606
0.593128
0.607065
0.618092
0.626846
0.633776
0.638994
0.642234
0.6435
0.643647
0.643444
0.498468
0.498525
0.499696
0.502721
0.507867
0.515017
0.524468
0.536793
0.552457
0.571685
0.591426
0.60795
0.621009
0.631419
0.639664
0.64585
0.64954
0.650889
0.651014
0.650791
0.475249
0.475312
0.476837
0.480753
0.487358
0.496518
0.508548
0.524034
0.543355
0.566592
0.590018
0.609408
0.624699
0.636915
0.646581
0.653746
0.657807
0.659168
0.659248
0.659007
0.445635
0.445729
0.447861
0.45322
0.462106
0.474233
0.489913
0.509609
0.533505
0.561464
0.589017
0.611512
0.629174
0.6433
0.654459
0.662515
0.666789
0.668065
0.668078
0.667825
0.406416
0.406645
0.410036
0.41806
0.430802
0.447533
0.468431
0.493672
0.523158
0.556533
0.588583
0.614349
0.634456
0.650515
0.663138
0.671884
0.676126
0.677202
0.677134
0.676877
0.351484
0.352636
0.359408
0.372986
0.392478
0.416339
0.444469
0.476709
0.512752
0.552114
0.5889
0.618003
0.640543
0.658473
0.672389
0.681475
0.685358
0.686139
0.685994
0.685745
0.272001
0.279805
0.295389
0.319174
0.348757
0.382164
0.419086
0.459315
0.502568
0.548378
0.590196
0.622852
0.648014
0.667931
0.682874
0.691916
0.695237
0.695716
0.695525
0.695316
0.187391
0.204464
0.229777
0.264521
0.304737
0.347817
0.393523
0.441824
0.492538
0.545283
0.592797
0.629596
0.65787
0.679965
0.695808
0.704167
0.706601
0.706785
0.70662
0.706489
0.114804
0.135689
0.16912
0.213263
0.262903
0.315088
0.369338
0.425551
0.483515
0.542837
0.595578
0.63603
0.666921
0.690706
0.706776
0.714171
0.715931
0.716012
0.715884
0.715785
0.0552857
0.0784939
0.117496
0.168375
0.225368
0.285157
0.346933
0.410385
0.475103
0.540556
0.598092
0.641794
0.674846
0.699793
0.715863
0.722621
0.72407
0.724122
0.724019
0.72393
0.00592693
0.0305193
0.0735486
0.129672
0.192541
0.258571
0.326738
0.39656
0.467398
0.538515
0.600484
0.647136
0.68206
0.707965
0.723963
0.73024
0.731525
0.731588
0.731514
0.731428
-0.0358998
-0.0104981
0.0355001
0.0958756
0.163687
0.235039
0.308732
0.384185
0.460571
0.536936
0.603061
0.652448
0.689076
0.715733
0.731591
0.737526
0.738739
0.73884
0.738803
0.73872
-0.0722667
-0.0463413
0.00196928
0.0658681
0.137911
0.213915
0.292531
0.373083
0.454598
0.535897
0.606006
0.658002
0.696214
0.723529
0.739268
0.74494
0.746119
0.746281
0.746298
0.746226
-0.104699
-0.0783695
-0.0281642
0.0387467
0.114471
0.19458
0.277651
0.362914
0.449257
0.535311
0.60929
0.663873
0.703634
0.731634
0.747362
0.752924
0.754114
0.754311
0.754375
0.754316
-0.134257
-0.107565
-0.0557544
0.0137893
0.0927661
0.17654
0.263663
0.353315
0.444263
0.534954
0.612801
0.670023
0.711432
0.740249
0.756131
0.761703
0.762863
0.763069
0.76316
0.763119
-0.161782
-0.134711
-0.0814664
-0.00954806
0.0723244
0.159397
0.250224
0.343974
0.439342
0.534607
0.616398
0.676348
0.719523
0.749295
0.765486
0.771125
0.772257
0.772429
0.772509
0.77248
-0.187702
-0.160278
-0.105721
-0.031683
0.0527884
0.142844
0.237071
0.33465
0.434267
0.53409
0.619917
0.682722
0.727757
0.758559
0.775117
0.780852
0.78195
0.782065
0.782115
0.782103
-0.212518
-0.184663
-0.12889
-0.0529237
0.0338904
0.12665
0.224006
0.325165
0.428852
0.533212
0.623208
0.689013
0.735951
0.767797
0.784738
0.790512
0.791564
0.791603
0.791614
0.791608
-0.236392
-0.208101
-0.151188
-0.0734774
0.0154448
0.110659
0.210884
0.315381
0.422949
0.531812
0.626136
0.695115
0.744021
0.776833
0.794025
0.799786
0.800761
0.800715
0.800679
0.800668
-0.259497
-0.230741
-0.17277
-0.0934741
-0.00265414
0.0947757
0.197614
0.305199
0.416449
0.529745
0.628563
0.70096
0.751909
0.785534
0.802788
0.808418
0.809273
0.809155
0.809078
0.80906
-0.281955
-0.252707
-0.193722
-0.112985
-0.0204778
0.0789463
0.184152
0.29457
0.409274
0.526895
0.630353
0.706485
0.759671
0.793995
0.811003
0.816297
0.816992
0.816811
0.816704
0.816679
-0.303853
-0.274062
-0.214083
-0.13204
-0.0380353
0.0631551
0.170491
0.283478
0.401382
0.523157
0.631372
0.711625
0.767396
0.80239
0.818817
0.823464
0.823889
0.823656
0.823539
0.823508
-0.325087
-0.294779
-0.233854
-0.15066
-0.0553288
0.0474282
0.156644
0.271943
0.392766
0.518471
0.631486
0.716278
0.775165
0.811045
0.826587
0.830101
0.830008
0.829723
0.829646
0.829619
-0.345657
-0.314849
-0.253049
-0.168832
-0.0723334
0.0317933
0.142667
0.259999
0.383453
0.512798
0.630568
0.720298
0.782996
0.820314
0.834937
0.836738
0.835553
0.835087
0.835201
0.835271
-0.365626
-0.334265
-0.271668
-0.186541
-0.0890093
0.0163085
0.128619
0.247712
0.373489
0.50614
0.628492
0.723497
0.790752
0.830409
0.844703
0.844559
0.841375
0.840114
0.840599
0.841238
-0.384873
-0.35301
-0.289673
-0.203741
-0.105317
0.00103956
0.114577
0.235166
0.362954
0.498537
0.625159
0.725641
0.798163
0.841193
0.856439
0.855223
0.849724
0.846217
0.845423
0.8455
-0.403491
-0.37111
-0.307079
-0.220472
-0.121299
-0.0140585
0.100485
0.222301
0.351773
0.489919
0.620403
0.726467
0.804994
0.852313
0.870039
0.869748
0.86307
0.855225
0.846436
0.848275
-0.421412
-0.388632
-0.324026
-0.236931
-0.137247
-0.0293052
0.0859434
0.208656
0.339438
0.479715
0.613648
0.725323
0.810991
0.863519
0.884587
0.887104
0.879448
0.865694
0.845097
0.845764
-0.438515
-0.405553
-0.340362
-0.252938
-0.152906
-0.0444105
0.071139
0.194528
0.326203
0.46809
0.604802
0.721295
0.814996
0.873382
0.896077
0.899266
0.890871
0.861672
0.804859
0.780866
-0.454696
-0.42284
-0.355696
-0.268062
-0.167484
-0.0588892
0.0563528
0.180191
0.312342
0.4552
0.593861
0.713661
0.815574
0.880409
0.899076
0.896921
0.875329
0.819492
0.757029
0.719208
-0.496725
-0.439828
-0.369726
-0.283236
-0.181741
-0.0737284
0.0417321
0.165514
0.297632
0.440653
0.58032
0.701598
0.808749
0.879908
0.889676
0.866622
0.80983
0.739414
0.668794
0.629874
-0.471119
-0.452629
-0.391051
-0.303867
-0.203873
-0.0960507
0.0187888
0.14206
0.273534
0.415657
0.554758
0.675404
0.775413
0.854144
0.829385
0.710208
0.613028
0.545536
0.47892
0.502507
-0.501193
-0.469584
-0.407141
-0.320437
-0.220812
-0.113119
0.00195394
0.124646
0.255233
0.395842
0.532723
0.650207
0.738963
0.783205
0.722141
0.573763
0.458489
0.380755
0.29619
0.337898
-0.524331
-0.490389
-0.426256
-0.339514
-0.239937
-0.132241
-0.0172538
0.104697
0.234007
0.372367
0.505558
0.617086
0.693968
0.699943
0.583722
0.421433
0.287042
0.190425
0.0928221
0.120744
-0.54675
-0.511816
-0.446369
-0.359
-0.259357
-0.151781
-0.0373021
0.0837072
0.211459
0.34706
0.475341
0.577922
0.637603
0.609799
0.442653
0.259942
0.0959492
-0.0410143
-0.167516
-0.158343
-0.568844
-0.533572
-0.467265
-0.379342
-0.27959
-0.172249
-0.0584451
0.061437
0.187284
0.319603
0.44193
0.535355
0.573878
0.497554
0.303505
0.101769
-0.0881153
-0.244275
-0.450443
-0.530184
-0.591301
-0.55613
-0.48934
-0.401042
-0.301171
-0.194044
-0.0808736
0.0378077
0.16156
0.290214
0.405916
0.489935
0.500848
0.373262
0.176218
-0.0366449
-0.231106
-0.393931
-0.517986
-0.634117
-0.615188
-0.57997
-0.512948
-0.424485
-0.324638
-0.217842
-0.105427
0.0118377
0.133086
0.257396
0.365812
0.436619
0.418828
0.255099
0.0568994
-0.149711
-0.327471
-0.425806
-0.451955
-0.465279
-0.640636
-0.605386
-0.538219
-0.449759
-0.350139
-0.243869
-0.132487
-0.0169947
0.101232
0.220338
0.321013
0.372986
0.335246
0.141307
-0.0546295
-0.240859
-0.375238
-0.413656
-0.422409
-0.422746
-0.667928
-0.632505
-0.565194
-0.476854
-0.377625
-0.272139
-0.162086
-0.0487575
0.0659158
0.179027
0.270983
0.30559
0.234314
0.0369731
-0.152405
-0.314068
-0.389543
-0.40383
-0.404954
-0.404839
-0.697071
-0.661359
-0.593896
-0.505772
-0.407117
-0.302651
-0.194242
-0.0834807
0.0271431
0.133582
0.215432
0.234428
0.123998
-0.0579618
-0.236836
-0.36477
-0.393903
-0.39478
-0.395487
-0.395102
-0.727814
-0.691789
-0.624231
-0.536439
-0.43854
-0.335362
-0.228943
-0.121152
-0.0150352
0.0841252
0.155696
0.155066
0.0264796
-0.144946
-0.303563
-0.376935
-0.391572
-0.389912
-0.389724
-0.389373
-0.759602
-0.723446
-0.655937
-0.568628
-0.47171
-0.37012
-0.266043
-0.161657
-0.0604017
0.0310964
0.0922083
0.0750907
-0.0628321
-0.221044
-0.348491
-0.386912
-0.385567
-0.385614
-0.385339
-0.385054
-0.791992
-0.755799
-0.688527
-0.601922
-0.506275
-0.406601
-0.305261
-0.204717
-0.108663
-0.0245316
0.0237662
-0.000103609
-0.143189
-0.280663
-0.373982
-0.382428
-0.382844
-0.382456
-0.382107
-0.381882
-0.824017
-0.787972
-0.721273
-0.635683
-0.541678
-0.444322
-0.346125
-0.249839
-0.15939
-0.0818894
-0.0445814
-0.0749964
-0.211237
-0.323284
-0.378352
-0.389456
-0.382998
-0.380817
-0.380143
-0.379806
-0.853905
-0.818679
-0.753133
-0.669018
-0.577134
-0.48257
-0.387955
-0.296281
-0.211794
-0.14057
-0.107812
-0.152234
-0.266235
-0.358062
-0.380573
-0.383682
-0.383242
-0.382246
-0.381662
-0.381227
-0.880518
-0.846404
-0.7827
-0.700718
-0.611571
-0.520391
-0.429862
-0.343112
-0.264626
-0.200018
-0.169227
-0.219152
-0.308039
-0.378906
-0.399527
-0.389425
-0.386992
-0.386028
-0.385466
-0.385176
-0.901165
-0.869037
-0.808205
-0.729247
-0.643662
-0.556585
-0.470735
-0.389244
-0.316612
-0.258485
-0.2303
-0.271707
-0.335611
-0.381259
-0.385475
-0.386891
-0.386819
-0.386717
-0.386704
-0.38676
-0.913779
-0.884448
-0.827564
-0.752846
-0.671866
-0.589756
-0.50924
-0.43342
-0.366657
-0.313314
-0.286049
-0.31553
-0.352424
-0.378678
-0.379746
-0.384512
-0.386465
-0.386845
-0.387079
-0.387132
-0.915649
-0.890239
-0.838658
-0.769653
-0.694527
-0.618427
-0.543931
-0.474164
-0.413499
-0.363853
-0.332978
-0.355305
-0.369803
-0.382278
-0.386921
-0.388754
-0.389793
-0.390083
-0.390178
-0.390158
-0.904449
-0.883834
-0.839344
-0.777906
-0.710155
-0.641199
-0.573473
-0.509949
-0.455306
-0.411376
-0.368363
-0.394422
-0.390219
-0.404074
-0.402907
-0.397563
-0.395435
-0.394976
-0.394766
-0.394642
-0.877796
-0.862696
-0.827719
-0.776352
-0.717689
-0.657048
-0.596844
-0.539621
-0.490291
-0.453951
-0.407411
-0.40992
-0.410756
-0.426661
-0.411562
-0.403605
-0.399889
-0.398674
-0.398119
-0.397915
-0.839126
-0.829489
-0.80491
-0.765233
-0.717107
-0.665732
-0.613425
-0.562614
-0.517945
-0.487157
-0.456584
-0.427197
-0.398296
-0.404666
-0.411493
-0.403347
-0.396696
-0.39578
-0.396523
-0.396757
-0.795479
-0.789994
-0.77585
-0.747614
-0.710504
-0.668079
-0.623354
-0.578642
-0.537834
-0.507509
-0.479135
-0.444235
-0.392509
-0.353414
-0.347276
-0.36563
-0.391005
-0.405613
-0.410567
-0.411397
-0.756808
-0.753475
-0.746763
-0.728846
-0.700782
-0.665944
-0.627667
-0.587634
-0.548741
-0.517137
-0.490249
-0.466613
-0.450717
-0.437663
-0.450798
-0.492047
-0.504828
-0.496956
-0.489067
-0.492633
-0.728904
-0.726928
-0.723496
-0.71292
-0.691652
-0.662419
-0.628258
-0.590587
-0.551804
-0.516504
-0.489132
-0.486697
-0.549346
-0.676638
-0.795563
-0.830466
-0.80759
-0.753186
-0.688718
-0.666889
-0.708334
-0.707633
-0.706466
-0.701252
-0.685727
-0.660138
-0.627271
-0.589556
-0.547875
-0.505746
-0.477017
-0.454348
-0.467666
-0.511514
-0.585291
-0.607829
-0.568218
-0.525929
-0.479706
-0.458518
-0.696259
-0.696026
-0.695409
-0.692956
-0.682422
-0.659037
-0.625699
-0.586193
-0.540098
-0.489656
-0.445384
-0.388654
-0.309589
-0.221097
-0.147782
-0.0762175
-0.0275274
-0.0069554
0.00702246
0.0151585
-0.687891
-0.68774
-0.687329
-0.686603
-0.680203
-0.65912
-0.625074
-0.58216
-0.530938
-0.468803
-0.405409
-0.325268
-0.181585
0.0242536
0.224814
0.383155
0.449237
0.471534
0.473878
0.474159
-0.682384
-0.68235
-0.682247
-0.682129
-0.678279
-0.660577
-0.62565
-0.578761
-0.521722
-0.448832
-0.367415
-0.271925
-0.0912979
0.14754
0.376918
0.561253
0.681818
0.753874
0.796044
0.813697
-0.677748
-0.677808
-0.677854
-0.677882
-0.676481
-0.662377
-0.627486
-0.577428
-0.514792
-0.434281
-0.340236
-0.238053
-0.0467779
0.224417
0.513629
0.769069
0.957015
1.07308
1.1334
1.15522
-0.673648
-0.673699
-0.673545
-0.673139
-0.672655
-0.663039
-0.630789
-0.579582
-0.512132
-0.426814
-0.327353
-0.222675
-0.0350207
0.243148
0.553894
0.846402
1.08389
1.22767
1.28847
1.30403
-0.67178
-0.671616
-0.67088
-0.66928
-0.668221
-0.662901
-0.637037
-0.585928
-0.51511
-0.428199
-0.330556
-0.230729
-0.0749576
0.181817
0.46312
0.720452
0.935024
1.06682
1.11807
1.12937
-0.673356
-0.673415
-0.673654
-0.673796
-0.672921
-0.671478
-0.650392
-0.596316
-0.523174
-0.439272
-0.347345
-0.257448
-0.136984
0.0757022
0.307324
0.504778
0.663148
0.758423
0.794359
0.801735
-0.675643
-0.676991
-0.68109
-0.68976
-0.699428
-0.69957
-0.671239
-0.608184
-0.53621
-0.459279
-0.371937
-0.292886
-0.204125
-0.040679
0.136383
0.278419
0.386133
0.446959
0.469676
0.474164
-0.679763
-0.681769
-0.687541
-0.700559
-0.719242
-0.722879
-0.683896
-0.616047
-0.555109
-0.4837
-0.401313
-0.333598
-0.269461
-0.150039
-0.0199106
0.07981
0.152003
0.191837
0.206414
0.209201
-0.696499
-0.697826
-0.700112
-0.696116
-0.684487
-0.680972
-0.651274
-0.616116
-0.575883
-0.507092
-0.431855
-0.373513
-0.325667
-0.235564
-0.138919
-0.0683462
-0.0200129
0.00690126
0.0172361
0.0191237
-0.721204
-0.721356
-0.719322
-0.689276
-0.622533
-0.575229
-0.597461
-0.61904
-0.594583
-0.528365
-0.460051
-0.411687
-0.372726
-0.30447
-0.230379
-0.175577
-0.137977
-0.116869
-0.109495
-0.108548
-0.748585
-0.746322
-0.741904
-0.717174
-0.662567
-0.61864
-0.635691
-0.662443
-0.624762
-0.549795
-0.485742
-0.444012
-0.409031
-0.351628
-0.292167
-0.249144
-0.218892
-0.201275
-0.195148
-0.194715
-0.815686
-0.816021
-0.83974
-0.874777
-0.888583
-0.864441
-0.829323
-0.773333
-0.678435
-0.574136
-0.51111
-0.466929
-0.435974
-0.38883
-0.337392
-0.30005
-0.274309
-0.260019
-0.255424
-0.255421
-0.954475
-0.970787
-1.01999
-1.07797
-1.10478
-1.08705
-1.01793
-0.88872
-0.726541
-0.599436
-0.529013
-0.475936
-0.448616
-0.408221
-0.363766
-0.332286
-0.310592
-0.298387
-0.294473
-0.294719
-1.0639
-1.08424
-1.12582
-1.1668
-1.18966
-1.17149
-1.09179
-0.919266
-0.7319
-0.610845
-0.523147
-0.472003
-0.447757
-0.408803
-0.369237
-0.344038
-0.327031
-0.318065
-0.314974
-0.315209
-1.0484
-1.06239
-1.09043
-1.12023
-1.13902
-1.12424
-1.04342
-0.854526
-0.693438
-0.581767
-0.49302
-0.453936
-0.430456
-0.394621
-0.362294
-0.341007
-0.325598
-0.317142
-0.314344
-0.314797
-0.890827
-0.904761
-0.930905
-0.961441
-0.983133
-0.973468
-0.890258
-0.742267
-0.619789
-0.512222
-0.451797
-0.419414
-0.396638
-0.370112
-0.342911
-0.323464
-0.309243
-0.301413
-0.299016
-0.299743
-0.622306
-0.636734
-0.66546
-0.70288
-0.733858
-0.731514
-0.672696
-0.585765
-0.500602
-0.434023
-0.400049
-0.370006
-0.359006
-0.337558
-0.314381
-0.297956
-0.285039
-0.277817
-0.276148
-0.277098
-0.308384
-0.31936
-0.343166
-0.379112
-0.414624
-0.432635
-0.423305
-0.40067
-0.371628
-0.352299
-0.33088
-0.319172
-0.318109
-0.300493
-0.282093
-0.268784
-0.257789
-0.25238
-0.25144
-0.252443
-0.0539411
-0.0603756
-0.0769191
-0.106397
-0.148364
-0.191397
-0.22644
-0.248454
-0.261581
-0.263819
-0.263722
-0.266917
-0.269674
-0.257849
-0.24715
-0.238598
-0.231679
-0.228562
-0.228247
-0.229195
0.0856266
0.0816421
0.0697319
0.0445213
0.00506711
-0.0470189
-0.101089
-0.145388
-0.172888
-0.191393
-0.204671
-0.209845
-0.216858
-0.212644
-0.20917
-0.207713
-0.207394
-0.207845
-0.208195
-0.208851
0.127822
0.125062
0.116071
0.0962002
0.0620571
0.0177759
-0.0297933
-0.0749993
-0.110045
-0.133417
-0.147465
-0.155793
-0.162506
-0.16318
-0.168189
-0.173975
-0.179919
-0.183763
-0.184441
-0.184648
0.113501
0.111705
0.105495
0.0914396
0.0673656
0.0341939
-0.00280493
-0.0364826
-0.0624933
-0.0826312
-0.0969443
-0.103816
-0.107925
-0.112474
-0.120943
-0.130602
-0.139794
-0.145089
-0.145844
-0.145723
0.0717389
0.0707856
0.0673283
0.059429
0.0457774
0.0274734
0.00647058
-0.0144714
-0.0317594
-0.0435917
-0.0512818
-0.0543529
-0.0560623
-0.0612974
-0.0687404
-0.0764812
-0.0830977
-0.0866633
-0.0873029
-0.0872488
0.0164829
0.0165101
0.0167842
0.0158886
0.0131859
0.00898767
0.00425407
-0.000474151
-0.00447335
-0.0077339
-0.00934803
-0.0108445
-0.010072
-0.010785
-0.0138755
-0.016571
-0.0191355
-0.019785
-0.0187098
-0.0182617
-0.0298889
0.156802
0.327876
0.472282
0.587144
0.677031
0.751273
0.811489
0.826386
0.823148
0.255153
0.374665
0.486472
0.583064
0.663946
0.730403
0.782627
0.81792
0.836872
0.853655
0.447976
0.527446
0.605925
0.674643
0.733048
0.781397
0.819514
0.848675
0.870684
0.889951
0.590683
0.647095
0.703857
0.754744
0.79864
0.835987
0.86738
0.89378
0.913828
0.932727
0.705734
0.7482
0.790345
0.829812
0.865101
0.896339
0.923687
0.946902
0.964723
0.982789
0.80155
0.836757
0.871446
0.904689
0.935362
0.963166
0.987749
1.00842
1.02408
1.04156
0.889078
0.920741
0.952666
0.98356
1.0123
1.03844
1.06139
1.0802
1.09403
1.11104
0.975486
1.00787
1.04008
1.0711
1.09973
1.12538
1.1474
1.16484
1.17716
1.19367
1.06954
1.10588
1.14053
1.17288
1.20195
1.22722
1.24825
1.26448
1.27605
1.29218
1.18245
1.2231
1.26002
1.29287
1.32126
1.34518
1.36475
1.37999
1.39185
1.40792
1.32387
1.36483
1.40001
1.42952
1.45467
1.47624
1.49471
1.51017
1.52327
1.53921
1.49527
1.52743
1.55435
1.57667
1.59673
1.61544
1.63316
1.64992
1.66482
1.68054
1.68144
1.69867
1.71577
1.73245
1.74854
1.76326
1.77716
1.79163
1.80686
1.82416
1.86483
1.87477
1.88794
1.89893
1.90833
1.91798
1.92858
1.93875
1.94804
1.97371
2.08266
2.07696
2.06401
2.04975
2.04346
2.04916
2.0673
2.09582
2.12958
2.16591
2.38549
2.24954
2.17003
2.12749
2.11016
2.11414
2.14157
2.19943
2.30709
2.4855
0.740078
0.733776
0.726048
0.714936
0.701369
0.688727
0.67834
0.670343
0.664647
0.661346
0.661037
0.66391
0.669176
0.676559
0.686126
0.697969
0.71154
0.724475
0.733469
0.741012
0.649136
0.655056
0.663131
0.669267
0.672341
0.671837
0.668762
0.664783
0.661217
0.658967
0.658877
0.661175
0.664966
0.66944
0.673561
0.675821
0.674759
0.67013
0.66308
0.655249
0.642368
0.644741
0.648011
0.650789
0.653246
0.655445
0.656637
0.656508
0.655597
0.654829
0.655094
0.656561
0.658384
0.659645
0.659594
0.658146
0.656001
0.653649
0.650674
0.647659
0.637554
0.638642
0.640563
0.642906
0.644787
0.646196
0.64743
0.648444
0.649076
0.649499
0.650113
0.650917
0.651433
0.651353
0.650754
0.649853
0.648539
0.646582
0.644483
0.643008
0.632497
0.63313
0.634263
0.636028
0.637882
0.63949
0.640759
0.641849
0.642868
0.64382
0.644677
0.645271
0.645468
0.645307
0.644806
0.643859
0.642453
0.640858
0.639531
0.638731
0.627529
0.627968
0.628761
0.630074
0.631608
0.633189
0.63469
0.636017
0.637216
0.638367
0.639406
0.640095
0.640346
0.640168
0.639548
0.638583
0.637456
0.636331
0.635439
0.634908
0.622641
0.622968
0.623584
0.624665
0.625976
0.627397
0.628903
0.630415
0.63186
0.633238
0.634488
0.635339
0.635654
0.63548
0.634938
0.634198
0.633385
0.632555
0.631907
0.631518
0.617804
0.618058
0.618556
0.61948
0.620672
0.622006
0.623461
0.625034
0.626676
0.628329
0.629848
0.630896
0.631347
0.631336
0.631023
0.630532
0.62994
0.629343
0.628878
0.628581
0.612946
0.613147
0.613563
0.614379
0.615497
0.616789
0.618238
0.619865
0.621662
0.623579
0.625419
0.626758
0.627472
0.627726
0.627671
0.62742
0.627046
0.626649
0.626327
0.626094
0.607979
0.60814
0.608498
0.609243
0.61032
0.6116
0.613088
0.614811
0.616784
0.618982
0.621202
0.622939
0.624011
0.624585
0.624808
0.624806
0.62466
0.624447
0.624243
0.624057
0.602811
0.602941
0.603258
0.603961
0.605026
0.60634
0.607906
0.609774
0.611978
0.614523
0.617206
0.619434
0.620937
0.62188
0.622421
0.622689
0.622771
0.62274
0.622638
0.622488
0.597348
0.597453
0.597742
0.59843
0.599519
0.60091
0.602602
0.604669
0.607177
0.61016
0.613414
0.61623
0.618241
0.619614
0.620515
0.62108
0.621413
0.621562
0.621549
0.621427
0.59149
0.591572
0.591846
0.592542
0.593692
0.595202
0.597075
0.599412
0.60231
0.605839
0.609789
0.613315
0.615929
0.617802
0.619117
0.620035
0.620638
0.620963
0.621032
0.62093
0.585118
0.585181
0.585449
0.586177
0.587424
0.589101
0.591221
0.593909
0.5973
0.601503
0.6063
0.610679
0.614012
0.616476
0.61827
0.619582
0.620491
0.62101
0.621157
0.621071
0.578096
0.57814
0.578411
0.579193
0.580576
0.582477
0.584918
0.588054
0.592061
0.597092
0.602916
0.608318
0.612508
0.615672
0.61803
0.619793
0.621056
0.621785
0.622009
0.621935
0.570269
0.570287
0.570561
0.57142
0.572983
0.575172
0.578022
0.581722
0.586493
0.592539
0.599607
0.606234
0.611437
0.615426
0.618458
0.620765
0.622426
0.623382
0.623683
0.623617
0.561372
0.561385
0.561684
0.562645
0.56444
0.566995
0.570362
0.574767
0.580485
0.587774
0.596342
0.604429
0.610833
0.615793
0.619616
0.62257
0.624692
0.625899
0.626276
0.626213
0.551144
0.55113
0.551472
0.552586
0.554683
0.557705
0.561724
0.567012
0.573906
0.582716
0.593093
0.602911
0.610729
0.616833
0.621588
0.625293
0.62795
0.629426
0.629876
0.629813
0.539238
0.539204
0.539596
0.540896
0.543372
0.546995
0.551846
0.558251
0.56661
0.577286
0.589836
0.601697
0.611162
0.618601
0.624451
0.629021
0.632281
0.63404
0.634556
0.634486
0.525149
0.525092
0.525565
0.52712
0.530081
0.534479
0.540403
0.548235
0.558438
0.571407
0.586558
0.600811
0.612174
0.621141
0.62826
0.633816
0.637739
0.639781
0.640347
0.640263
0.508179
0.5081
0.508701
0.51061
0.514225
0.519656
0.526997
0.536684
0.54923
0.565026
0.583273
0.600288
0.613806
0.624504
0.633039
0.639704
0.644333
0.646631
0.647221
0.647116
0.487333
0.487238
0.488045
0.49047
0.495004
0.50187
0.511141
0.523299
0.538858
0.558136
0.580029
0.600176
0.616102
0.628714
0.638797
0.646673
0.651998
0.654489
0.655064
0.65493
0.461092
0.460997
0.462151
0.465382
0.471313
0.480274
0.492293
0.507819
0.527274
0.550807
0.576925
0.60056
0.619096
0.633772
0.645525
0.654644
0.660573
0.663147
0.663656
0.663489
0.427006
0.426964
0.428744
0.433361
0.44164
0.453904
0.469973
0.490139
0.51459
0.543228
0.574128
0.601546
0.622837
0.63967
0.653136
0.663449
0.669786
0.672276
0.672666
0.672465
0.380709
0.380888
0.38405
0.391585
0.404251
0.421951
0.444047
0.470487
0.501152
0.535716
0.571866
0.603265
0.62738
0.646366
0.66152
0.672838
0.67924
0.681435
0.681665
0.681439
0.314034
0.315464
0.323168
0.337439
0.358193
0.384557
0.41516
0.449576
0.487554
0.528696
0.570386
0.605827
0.632733
0.65379
0.670396
0.682331
0.688379
0.690071
0.690135
0.689913
0.234458
0.237256
0.252253
0.276895
0.308733
0.345331
0.385123
0.427923
0.4736
0.521838
0.569756
0.60998
0.640361
0.663984
0.682178
0.694306
0.699728
0.700995
0.700999
0.700865
0.152992
0.160297
0.182828
0.217828
0.260383
0.306982
0.355954
0.407174
0.460575
0.515885
0.569991
0.614899
0.648591
0.674719
0.694374
0.706216
0.710541
0.711244
0.711191
0.711112
0.0863981
0.0957267
0.123052
0.165376
0.216327
0.271385
0.328617
0.387713
0.448454
0.510464
0.570317
0.619445
0.655996
0.684023
0.704404
0.715747
0.719416
0.719955
0.719914
0.71986
0.0318211
0.0418904
0.0728639
0.120615
0.177886
0.23969
0.303845
0.36984
0.437227
0.505427
0.570591
0.62357
0.662619
0.69218
0.713076
0.724009
0.72727
0.727725
0.727709
0.727674
-0.0138464
-0.00344721
0.0300171
0.0819946
0.144433
0.211827
0.281817
0.353782
0.427092
0.50095
0.571058
0.627595
0.668908
0.699811
0.721042
0.731601
0.734605
0.735048
0.73507
0.735057
-0.0530741
-0.0425385
-0.00722044
0.0481343
0.114885
0.187083
0.262165
0.339415
0.418083
0.497163
0.571925
0.631829
0.67526
0.707332
0.72877
0.739037
0.741874
0.742324
0.742408
0.742431
-0.0875743
-0.0770022
-0.0402402
0.017911
0.0883386
0.164712
0.244326
0.326375
0.409995
0.494005
0.573223
0.636408
0.681853
0.715051
0.736735
0.746774
0.749499
0.750012
0.750162
0.750228
-0.118627
-0.108045
-0.0701322
-0.00957574
0.0640564
0.144109
0.227785
0.314245
0.402511
0.491251
0.574836
0.64127
0.688781
0.723144
0.745182
0.755153
0.757876
0.758411
0.758595
0.758696
-0.147248
-0.136637
-0.0977073
-0.0350205
0.0414615
0.124788
0.212133
0.302659
0.395319
0.488638
0.576576
0.646323
0.695996
0.73166
0.754213
0.764295
0.767014
0.767517
0.767701
0.767827
-0.174022
-0.163365
-0.123518
-0.0589153
0.0200996
0.106366
0.197049
0.291332
0.388148
0.485945
0.578262
0.651441
0.703374
0.740449
0.76364
0.77392
0.776654
0.777097
0.777245
0.777363
-0.199432
-0.188706
-0.147996
-0.0816522
-0.000362258
0.0885547
0.182285
0.280046
0.380799
0.482969
0.579728
0.656479
0.710777
0.749308
0.773171
0.783656
0.786409
0.786775
0.786858
0.786953
-0.223853
-0.212967
-0.171448
-0.103501
-0.0201598
0.0711449
0.167659
0.268645
0.373105
0.479537
0.580811
0.661302
0.718076
0.758062
0.782598
0.79318
0.795907
0.79619
0.796197
0.79626
-0.247413
-0.236341
-0.194048
-0.124643
-0.0394538
0.0540113
0.153053
0.257007
0.36495
0.4755
0.581356
0.665809
0.725208
0.766603
0.791611
0.802218
0.804845
0.80503
0.804967
0.804999
-0.270301
-0.258989
-0.21595
-0.14518
-0.0583351
0.0370675
0.138396
0.245064
0.356252
0.470755
0.58122
0.669891
0.732141
0.774936
0.800203
0.810601
0.813034
0.813122
0.813002
0.813006
-0.292512
-0.280983
-0.237218
-0.165171
-0.0768463
0.0202816
0.123666
0.232792
0.346968
0.465217
0.580276
0.673434
0.738892
0.78319
0.808454
0.818326
0.820427
0.820399
0.820241
0.820224
-0.314133
-0.302358
-0.257848
-0.184633
-0.0950035
0.003649
0.108863
0.220198
0.337091
0.458832
0.578404
0.676319
0.745451
0.791545
0.816654
0.825589
0.827061
0.826861
0.826697
0.826677
-0.335043
-0.323083
-0.277845
-0.203583
-0.112795
-0.0127914
0.0940161
0.207312
0.326644
0.451593
0.575507
0.678402
0.751768
0.800219
0.825255
0.832799
0.833124
0.832558
0.832449
0.832497
-0.355376
-0.343154
-0.29721
-0.22202
-0.130213
-0.0290267
0.0791895
0.19418
0.31567
0.443528
0.571519
0.679518
0.757705
0.809301
0.834815
0.840829
0.839276
0.837727
0.837671
0.838054
-0.374985
-0.362529
-0.315948
-0.239915
-0.147197
-0.0449922
0.0644449
0.180896
0.304241
0.434659
0.566403
0.679496
0.763037
0.818675
0.845714
0.850872
0.847135
0.843565
0.842961
0.843979
-0.393989
-0.38126
-0.334016
-0.257225
-0.163726
-0.0606354
0.0498534
0.167525
0.292443
0.425083
0.560163
0.67814
0.767476
0.827965
0.857739
0.863661
0.858852
0.852652
0.847805
0.840924
-0.41228
-0.399349
-0.351506
-0.274118
-0.180021
-0.0762291
0.0350952
0.153684
0.279866
0.414358
0.552378
0.675017
0.770821
0.837195
0.870764
0.879349
0.875445
0.866476
0.85417
0.853808
-0.429826
-0.416877
-0.368429
-0.290546
-0.196076
-0.0917431
0.0201907
0.139344
0.266457
0.402328
0.542804
0.669523
0.772157
0.845526
0.882976
0.89445
0.89136
0.882075
0.846645
0.808768
-0.446433
-0.433703
-0.384745
-0.30639
-0.211896