/*--------------------------------*- C++ -*----------------------------------*\
  =========                 |
  \\      /  F ield         | OpenFOAM: The Open Source CFD Toolbox
   \\    /   O peration     | Website:  https://openfoam.org
    \\  /    A nd           | Version:  6
     \\/     M anipulation  |
\*---------------------------------------------------------------------------*/
FoamFile
{
    version     2.0;
    format      ascii;
    class       surfaceScalarField;
    location    "69.2";
    object      phi;
}
// * * * * * * * * * * * * * * * * * * * * * * * * * * * * * * * * * * * * * //

dimensions      [0 3 -1 0 0 0 0];

internalField   nonuniform List<scalar> 
17370
(
-0.0900008
0.0898501
0.289161
-0.0714641
0.0537545
0.364485
-0.0381216
0.0276928
0.426597
-0.0196415
0.014609
0.504284
-0.0107677
0.00827813
0.601892
-0.00627927
0.00490338
0.720433
-0.00373985
0.00289939
0.863747
-0.00215778
0.00159842
1.03601
-0.00108143
0.000668506
1.24292
-0.000260135
-0.000132739
1.49158
0.000512199
-0.0009221
1.4916
0.0013202
-0.00181086
1.24318
0.00234087
-0.00304891
1.03635
0.00386304
-0.00500617
0.86405
0.00637113
-0.0083631
0.721049
0.0108476
-0.0146829
0.60305
0.0197096
-0.027754
0.507484
0.0381762
-0.0538006
0.431793
0.0715019
-0.0898755
0.365149
0.0900159
0.198995
-0.128135
0.0882241
0.039911
-0.364597
0.353376
-0.0746757
0.0858974
-0.446475
0.454319
-0.0843957
0.0765525
-0.52119
0.5299
-0.0684562
0.0597461
-0.612788
0.621566
-0.0515584
0.0427802
-0.726894
0.734162
-0.0353207
0.0280526
-0.867474
0.872589
-0.0224527
0.0173379
-1.03847
1.04192
-0.0135286
0.0100791
-1.2446
1.24703
-0.00746847
0.00503553
-1.49262
1.4946
-0.00308792
0.00110995
-1.4925
1.49423
0.000569043
-0.00229417
-1.24398
1.24586
0.00419758
-0.00608243
-1.03751
1.04004
0.00844006
-0.0109712
-0.866101
0.86983
0.0143266
-0.0180546
-0.724392
0.729935
0.0230933
-0.0286364
-0.608699
0.616113
0.0358517
-0.0432662
-0.514898
0.523042
0.0519962
-0.0601403
-0.439857
0.447916
0.0688038
-0.0768627
-0.375296
0.376741
0.0846618
-0.0861063
-0.257331
0.22248
0.0748177
-0.0399661
-0.0685161
0.0586894
0.00982679
-0.0518169
0.0584017
-0.374124
0.367539
-0.0574872
0.0537359
-0.453593
0.457344
-0.0486469
0.0446956
-0.527945
0.531896
-0.0408572
0.0372196
-0.621561
0.625199
-0.0331191
0.0290444
-0.735346
0.739421
-0.0244748
0.020316
-0.874338
0.878497
-0.0159703
0.0122763
-1.04349
1.04718
-0.00853841
0.00536465
-1.24856
1.25173
-0.00203476
-0.00103993
-1.49666
1.49973
0.0040887
-0.00735566
-1.4972
1.50047
0.0104368
-0.0140445
-1.25007
1.25368
0.0176044
-0.0217953
-1.04593
1.05012
0.0258192
-0.0302562
-0.877765
0.882202
0.0342258
-0.0382239
-0.739903
0.743901
0.0417751
-0.0455234
-0.626776
0.630524
0.049397
-0.0544116
-0.534812
0.539827
0.058082
-0.0588947
-0.457476
0.458289
0.0521907
-0.0319891
-0.335754
0.315552
0.00988774
-0.0683476
0.0584599
-0.052938
0.048942
0.00399598
-0.033165
0.0437115
-0.358105
0.347558
-0.0474107
0.046784
-0.459282
0.459909
-0.0437287
0.0403764
-0.535798
0.539151
-0.0366046
0.0333014
-0.628524
0.631827
-0.0298644
0.0268336
-0.742643
0.745674
-0.023576
0.0204702
-0.882014
0.88512
-0.0169405
0.0135612
-1.05077
1.05415
-0.00976733
0.0062277
-1.25517
1.25871
-0.00225723
-0.00154112
-1.50324
1.50704
0.00530729
-0.00918211
-1.50414
1.50801
0.012592
-0.016207
-1.25742
1.26104
0.0194001
-0.0227124
-1.05392
1.05724
0.0256259
-0.0286919
-0.885696
0.888762
0.0315682
-0.0348536
-0.747162
0.750447
0.0380297
-0.0416712
-0.63431
0.637952
0.0449113
-0.0478388
-0.544138
0.547065
0.0483311
-0.0444428
-0.456576
0.452687
0.0336709
-0.0162208
-0.296188
0.278738
0.00407156
-0.0526405
0.048569
-0.0458639
0.0433682
0.00249569
-0.0228084
0.0331879
-0.336868
0.326489
-0.0390101
0.0400274
-0.459593
0.458575
-0.0388379
0.0365516
-0.54187
0.544156
-0.0338849
0.0312898
-0.634877
0.637472
-0.0282277
0.0253295
-0.748718
0.751616
-0.0220661
0.0190733
-0.888072
0.891064
-0.0157692
0.0126705
-1.05728
1.06038
-0.00914479
0.00573581
-1.26216
1.26557
-0.00177194
-0.00211305
-1.51092
1.51481
0.00595519
-0.00979148
-1.5119
1.51574
0.0130286
-0.0163193
-1.26447
1.26776
0.0191739
-0.022193
-1.06034
1.06336
0.0249317
-0.0279394
-0.891819
0.894826
0.0306285
-0.0334834
-0.753654
0.756509
0.0359046
-0.0383951
-0.641019
0.643509
0.0405296
-0.0415202
-0.54887
0.54986
0.040295
-0.0341693
-0.447407
0.441281
0.0234584
-0.0102376
-0.263517
0.250296
0.00258907
-0.045406
0.0428169
-0.0412931
0.039526
0.00176706
-0.0167468
0.0259978
-0.316636
0.307384
-0.0326035
0.0347434
-0.456975
0.454835
-0.0343224
0.032652
-0.546133
0.547803
-0.0304716
0.0283767
-0.639776
0.64187
-0.025946
0.0235493
-0.754259
0.756656
-0.0206921
0.0179042
-0.893958
0.896746
-0.0146691
0.0116006
-1.06342
1.06649
-0.00811056
0.00478457
-1.26889
1.27222
-0.00095123
-0.00278224
-1.5186
1.52233
0.00646105
-0.0101323
-1.51947
1.52315
0.0132407
-0.0164339
-1.271
1.2742
0.0191933
-0.0220649
-1.06639
1.06926
0.0245256
-0.0270509
-0.897645
0.90017
0.0291754
-0.0313374
-0.758959
0.761121
0.0332092
-0.035163
-0.645663
0.647617
0.0366133
-0.036764
-0.550377
0.550528
0.0343052
-0.0272556
-0.434613
0.427563
0.0175581
-0.00740951
-0.238762
0.228613
0.00188114
-0.0406378
0.0387567
-0.038004
0.0366751
0.00132888
-0.0127836
0.0207269
-0.298793
0.290849
-0.027475
0.0303959
-0.452276
0.449355
-0.030599
0.0294784
-0.549233
0.550354
-0.0274842
0.025567
-0.643905
0.645822
-0.0233667
0.0212295
-0.758892
0.76103
-0.0187146
0.016231
-0.899318
0.901801
-0.0132878
0.0104071
-1.06943
1.07231
-0.00704308
0.00379967
-1.27547
1.27872
-4.98345e-05
-0.00358107
-1.52598
1.52961
0.00714366
-0.0106895
-1.52674
1.53029
0.0136589
-0.01665
-1.27732
1.28031
0.0191433
-0.0216315
-1.07199
1.07448
0.0237055
-0.0258042
-0.902463
0.904562
0.0275985
-0.0294583
-0.763105
0.764964
0.031094
-0.0328139
-0.649436
0.651155
0.0336137
-0.0330324
-0.550317
0.549736
0.0296553
-0.0222993
-0.420304
0.412948
0.0137823
-0.00574637
-0.219622
0.211586
0.00146763
-0.0371081
0.0356405
-0.0355146
0.034491
0.00102359
-0.00998379
0.0166936
-0.283549
0.276839
-0.0231712
0.0265403
-0.44619
0.442821
-0.0273181
0.0266153
-0.551258
0.551961
-0.0248538
0.0230671
-0.647716
0.649503
-0.0209941
0.0189751
-0.763101
0.76512
-0.0166007
0.0142709
-0.904138
0.906468
-0.0115293
0.00884101
-1.07502
1.07771
-0.00567898
0.00258961
-1.28184
1.28493
0.00102543
-0.00454124
-1.53317
1.53668
0.00797261
-0.0113351
-1.53373
1.5371
0.014086
-0.0167882
-1.28317
1.28587
0.0189987
-0.0211782
-1.07686
1.07904
0.0230013
-0.0248604
-0.906545
0.908404
0.0264539
-0.0281033
-0.766711
0.76836
0.0295405
-0.030923
-0.65273
0.654112
0.0312282
-0.0299131
-0.548802
0.547487
0.0259155
-0.0186378
-0.405606
0.398328
0.0112074
-0.00464476
-0.204357
0.197794
0.00119229
-0.0343262
0.0331339
-0.0335928
0.0327962
0.000796573
-0.00790663
0.0135408
-0.270697
0.265063
-0.019529
0.0230913
-0.439347
0.435784
-0.0243428
0.0238858
-0.552575
0.553032
-0.0223889
0.02071
-0.651285
0.652964
-0.0187303
0.016796
-0.767088
0.769023
-0.0145129
0.0122699
-0.908687
0.91093
-0.00963004
0.00705042
-1.08027
1.08285
-0.00402831
0.00108178
-1.2879
1.29084
0.00236164
-0.00570333
-1.54008
1.54343
0.00894159
-0.012076
-1.54033
1.54346
0.0146087
-0.0170693
-1.28845
1.29091
0.0190643
-0.0210147
-1.08117
1.08312
0.022635
-0.0242846
-0.910174
0.911824
0.0256961
-0.0271541
-0.769906
0.771364
0.0283965
-0.0294005
-0.655291
0.656295
0.029331
-0.0273468
-0.54584
0.543856
0.0229454
-0.0159312
-0.391178
0.384163
0.00940203
-0.00388344
-0.191803
0.186285
0.00100157
-0.0320489
0.0310474
-0.0320975
0.0314772
0.000620301
-0.00630211
0.0110172
-0.259917
0.255202
-0.0164108
0.0199692
-0.432225
0.428667
-0.0215405
0.0213079
-0.553415
0.553647
-0.020042
0.0184205
-0.65466
0.656281
-0.016495
0.0146079
-0.77092
0.772807
-0.0123811
0.0101946
-0.913068
0.915254
-0.00762247
0.00511379
-1.08531
1.08782
-0.00218369
-0.000656749
-1.29368
1.29652
0.00394902
-0.00711399
-1.54664
1.54981
0.0101526
-0.0130682
-1.54646
1.54937
0.0154059
-0.0176554
-1.29327
1.29552
0.0194537
-0.0211854
-1.08505
1.08679
0.0226125
-0.0240659
-0.913387
0.914841
0.0253123
-0.0265953
-0.772725
0.774008
0.027693
-0.0282758
-0.657086
0.657669
0.0278335
-0.0252838
-0.541602
0.539052
0.0206329
-0.0139457
-0.377322
0.370635
0.00812645
-0.00335268
-0.181176
0.176403
0.000869237
-0.0301218
0.0292526
-0.030937
0.0304597
0.000477273
-0.00500903
0.00893126
-0.250911
0.246989
-0.0136865
0.0170927
-0.425194
0.421788
-0.0188438
0.0187992
-0.55383
0.553875
-0.0177231
0.0161342
-0.65795
0.659539
-0.0142278
0.0123538
-0.77467
0.776544
-0.0101448
0.00798226
-0.91734
0.919502
-0.00544651
0.00298144
-1.09022
1.09269
-0.000114474
-0.00264683
-1.29926
1.30202
0.00581885
-0.0088342
-1.55286
1.55588
0.011696
-0.01441
-1.55216
1.55487
0.0165612
-0.0186048
-1.29767
1.29971
0.0202101
-0.0217252
-1.08852
1.09003
0.0229647
-0.0242359
-0.916214
0.917485
0.0253349
-0.0264608
-0.775203
0.776329
0.0273593
-0.0275772
-0.658065
0.658283
0.0267242
-0.0236941
-0.536276
0.533246
0.018889
-0.0125176
-0.364124
0.357752
0.00723628
-0.00298899
-0.171924
0.167677
0.000780156
-0.028437
0.0276568
-0.0300509
0.0296948
0.000356139
-0.00392448
0.0071497
-0.24344
0.240215
-0.0112552
0.0143997
-0.41853
0.415386
-0.0162051
0.016314
-0.553895
0.553786
-0.0153161
0.0137995
-0.661163
0.662679
-0.0118865
0.00999342
-0.778404
0.780297
-0.0077624
0.00558576
-0.92157
0.923747
-0.00304681
0.000594193
-1.09505
1.0975
0.00223888
-0.00494821
-1.30469
1.3074
0.00803514
-0.0109369
-1.55879
1.56169
0.0136519
-0.0161808
-1.55747
1.55999
0.0181477
-0.0199823
-1.30165
1.30348
0.0213938
-0.0226977
-1.09158
1.09288
0.0237577
-0.0248534
-0.918675
0.919771
0.0258058
-0.0267609
-0.777357
0.778312
0.0273994
-0.0273248
-0.658369
0.658294
0.0260282
-0.0225658
-0.53001
0.526548
0.0176483
-0.0115355
-0.351536
0.345423
0.00664121
-0.00275248
-0.163638
0.159749
0.000724263
-0.0269137
0.0261894
-0.0294001
0.0291523
0.000247832
-0.00297238
0.00556793
-0.237329
0.234733
-0.009024
0.0118237
-0.412437
0.409637
-0.0135678
0.0137535
-0.553699
0.553513
-0.0127948
0.0113154
-0.664256
0.665735
-0.00936933
0.00742545
-0.782183
0.784126
-0.00513601
0.00291248
-0.925833
0.928056
-0.000333601
-0.00214158
-1.09986
1.10234
0.00497939
-0.00766744
-1.31002
1.31271
0.0106932
-0.0134946
-1.5645
1.5673
0.0160712
-0.0184247
-1.5624
1.56475
0.0202187
-0.0218536
-1.30521
1.30684
0.0230703
-0.0241528
-1.09424
1.09532
0.0250258
-0.0259458
-0.920787
0.921707
0.0267565
-0.0275501
-0.779155
0.779948
0.0279004
-0.0275324
-0.658075
0.657707
0.0257808
-0.0218967
-0.522898
0.519014
0.0168645
-0.0109248
-0.339431
0.333491
0.00628293
-0.00261728
-0.156
0.152334
0.000694947
-0.0254891
0.0247941
-0.0289629
0.0288181
0.000144831
-0.00208925
0.00409307
-0.232456
0.230452
-0.00689509
0.00928102
-0.407072
0.404687
-0.0108581
0.0110439
-0.553402
0.553216
-0.0100918
0.00861272
-0.66731
0.668789
-0.00660805
0.0045864
-0.786065
0.788087
-0.00220462
-0.000101104
-0.930188
0.932494
0.00276274
-0.00530006
-1.10473
1.10726
0.00818305
-0.010883
-1.31532
1.31802
0.0138801
-0.0166059
-1.57001
1.57274
0.0190604
-0.0212482
-1.56698
1.56917
0.0228752
-0.0243165
-1.30837
1.30981
0.0253412
-0.0261952
-1.0965
1.09735
0.0268676
-0.027591
-0.922528
0.923252
0.0282451
-0.0288923
-0.780603
0.78125
0.0289243
-0.0281666
-0.657133
0.656375
0.025957
-0.0216561
-0.514969
0.510668
0.0164836
-0.0106227
-0.327632
0.321771
0.00611601
-0.00256309
-0.148753
0.1452
0.000686757
-0.0241127
0.023426
-0.0287318
0.0286912
4.06525e-05
-0.00122734
0.00265348
-0.228758
0.227332
-0.00478739
0.00669543
-0.402571
0.400663
-0.00800116
0.00810478
-0.55316
0.553057
-0.00711299
0.00559747
-0.670396
0.671912
-0.00349431
0.001359
-0.790106
0.792242
0.00115849
-0.00358563
-0.934711
0.937138
0.00637014
-0.00900502
-1.10972
1.11236
0.0119731
-0.0147222
-1.32065
1.3234
0.0177278
-0.0204049
-1.57538
1.57806
0.0227536
-0.0247804
-1.57123
1.57325
0.0262338
-0.0274671
-1.31111
1.31234
0.0282808
-0.0288981
-1.09833
1.09895
0.0293649
-0.0298821
-0.923879
0.924396
0.0303676
-0.0307955
-0.781673
0.782101
0.0305466
-0.0293141
-0.655414
0.654182
0.0266158
-0.021866
-0.50621
0.50146
0.0164942
-0.0106015
-0.315942
0.310049
0.00611843
-0.00258019
-0.141684
0.138146
0.000697327
-0.0227441
0.0220468
-0.0287102
0.0287769
-6.67252e-05
-0.000345957
0.00118619
-0.226216
0.225375
-0.00262262
0.00398688
-0.39906
0.397695
-0.00491783
0.00485155
-0.553149
0.553216
-0.00375804
0.00214439
-0.673607
0.675221
9.55108e-05
-0.00238523
-0.794378
0.796668
0.00508201
-0.00767081
-0.939474
0.942063
0.0106254
-0.0134023
-1.11492
1.11769
0.0165004
-0.0193321
-1.32609
1.32892
0.0223728
-0.0250167
-1.58066
1.5833
0.0272673
-0.0291322
-1.57514
1.57701
0.0304091
-0.0314302
-1.31343
1.31445
0.0320355
-0.0324094
-1.09972
1.10009
0.0326595
-0.0329553
-0.92481
0.925105
0.0332454
-0.0333774
-0.782209
0.782341
0.0328199
-0.031041
-0.652758
0.650979
0.0277981
-0.0225402
-0.496549
0.491291
0.0168875
-0.010843
-0.304137
0.298092
0.00627564
-0.00266156
-0.134602
0.130988
0.000724554
-0.0213466
0.0206221
-0.0289142
0.0291007
-0.000186494
0.000584918
-0.000366893
-0.224854
0.224636
-0.000321489
0.0010624
-0.396662
0.395922
-0.00150999
0.00118618
-0.55355
0.553874
7.07896e-05
-0.00183333
-0.677066
0.678829
0.00425466
-0.00674315
-0.798959
0.801448
0.00967469
-0.0124793
-0.944566
0.947371
0.015662
-0.018629
-1.12041
1.12337
0.0219042
-0.0248577
-1.3317
1.33465
0.0279722
-0.0306109
-1.58587
1.58851
0.0327773
-0.03448
-1.57873
1.58043
0.0355745
-0.036366
-1.31529
1.31608
0.0367446
-0.0368606
-1.10062
1.10074
0.0368797
-0.0369396
-0.925278
0.925338
0.0370337
-0.0367756
-0.782105
0.781847
0.0358245
-0.033425
-0.649031
0.646632
0.0295629
-0.0237058
-0.485848
0.479991
0.0176658
-0.0113369
-0.291968
0.285639
0.00657739
-0.0028016
-0.127326
0.12355
0.000766692
-0.0198877
0.019121
-0.0293716
0.0297064
-0.000334774
0.00162392
-0.00204623
-0.224765
0.225187
0.00220093
-0.00217999
-0.39553
0.395509
0.00234962
-0.00304193
-0.554571
0.555264
0.00453271
-0.00651075
-0.680882
0.68286
0.00919082
-0.0119425
-0.803939
0.806691
0.015173
-0.018247
-0.950092
0.953166
0.0217133
-0.0249202
-1.12628
1.12949
0.0284246
-0.0315383
-1.33756
1.34067
0.034752
-0.0373886
-1.59107
1.59371
0.0394586
-0.040979
-1.58198
1.5835
0.0418728
-0.0424265
-1.31664
1.3172
0.0425708
-0.0424039
-1.10098
1.10081
0.0421656
-0.0419733
-0.925234
0.925041
0.0418524
-0.0411128
-0.781188
0.780448
0.0396826
-0.0365558
-0.644079
0.640952
0.0319669
-0.0253837
-0.473913
0.46733
0.018827
-0.0120715
-0.279168
0.272413
0.00701229
-0.00299376
-0.119688
0.115669
0.000821457
-0.0183387
0.0175173
-0.0301125
0.0306238
-0.000511313
0.00290753
-0.00409303
-0.226015
0.2272
0.00511481
-0.00589398
-0.395854
0.396633
0.0067926
-0.00795691
-0.556462
0.557626
0.00978681
-0.0120558
-0.685202
0.687471
0.0150764
-0.0181625
-0.809445
0.812531
0.0217675
-0.0251807
-0.956163
0.959576
0.0290062
-0.0325152
-1.13265
1.13616
0.0363035
-0.039614
-1.34374
1.34706
0.0429518
-0.0455942
-1.59627
1.59891
0.0475572
-0.0488698
-1.58484
1.58615
0.0495229
-0.0498222
-1.31747
1.31777
0.0497082
-0.0492338
-1.10075
1.10028
0.0487182
-0.0482525
-0.924621
0.924155
0.0477905
-0.0465938
-0.779349
0.778153
0.0445294
-0.0405326
-0.637674
0.633677
0.0350739
-0.0276006
-0.460475
0.453001
0.0203734
-0.0130364
-0.265447
0.25811
0.00756877
-0.00323077
-0.111528
0.10719
0.00088621
-0.0166756
0.0157894
-0.0312108
0.031944
-0.000733224
0.00441104
-0.00647826
-0.228808
0.230875
0.00858602
-0.0102739
-0.397857
0.399545
0.012003
-0.0137548
-0.559465
0.561216
0.0160565
-0.018709
-0.690176
0.692828
0.0221689
-0.0256716
-0.815619
0.819121
0.0297422
-0.0335743
-0.962925
0.966757
0.0378369
-0.0417082
-1.13963
1.14351
0.0458336
-0.0493759
-1.35032
1.35387
0.0528586
-0.0555057
-1.60146
1.60411
0.057342
-0.0584091
-1.58727
1.58833
0.0587779
-0.0587726
-1.31769
1.31769
0.0583662
-0.0575567
-1.09986
1.09906
0.0567389
-0.0559719
-0.923381
0.922614
0.0550915
-0.0533535
-0.776629
0.774891
0.0505138
-0.045454
-0.62952
0.62446
0.0389349
-0.0303624
-0.445189
0.436616
0.0222861
-0.0142043
-0.25049
0.242409
0.00822356
-0.00349954
-0.102697
0.0979734
0.000956487
-0.0148802
0.0139237
-0.0327485
0.0337742
-0.00102566
0.006313
-0.0094432
-0.233392
0.236523
0.0128012
-0.0155542
-0.401805
0.404558
0.018262
-0.0207395
-0.563856
0.566334
0.0236692
-0.0268416
-0.696006
0.699178
0.0308855
-0.0349146
-0.822635
0.826664
0.0395568
-0.0438912
-0.970536
0.97487
0.0486683
-0.0529565
-1.14735
1.15164
0.0574544
-0.0612304
-1.35736
1.36113
0.0648214
-0.0674092
-1.60663
1.60922
0.069045
-0.0697975
-1.58917
1.58992
0.069825
-0.0694614
-1.31717
1.3168
0.0687517
-0.0675719
-1.09824
1.09706
0.0664143
-0.0653464
-0.921469
0.920401
0.0639262
-0.0615494
-0.772845
0.770468
0.0577571
-0.0513841
-0.619226
0.612853
0.0435614
-0.0336374
-0.427626
0.417702
0.0245139
-0.0155232
-0.233974
0.224983
0.00893715
-0.00377934
-0.0930712
0.0879134
0.00102556
-0.0129447
0.0119191
-0.0348561
0.0362838
-0.00142766
0.00879056
-0.0132814
-0.240093
0.244584
0.0181291
-0.0221136
-0.408073
0.412057
0.0259535
-0.0293025
-0.569981
0.57333
0.0330367
-0.0368891
-0.702986
0.706839
0.0416826
-0.0463764
-0.83071
0.835404
0.0517178
-0.0566509
-0.979167
0.9841
0.0620212
-0.0667644
-1.15589
1.16064
0.0716354
-0.0756107
-1.36482
1.36879
0.0792403
-0.0816807
-1.61162
1.61406
0.0830169
-0.0833514
-1.59038
1.59072
0.0829721
-0.0821456
-1.31581
1.31498
0.0810653
-0.0794937
-1.09579
1.09422
0.0780042
-0.0764975
-0.918843
0.917336
0.0745628
-0.071316
-0.767752
0.764505
0.0663359
-0.0583287
-0.606271
0.598264
0.0488986
-0.0373273
-0.407274
0.395703
0.0269483
-0.0169008
-0.215579
0.205531
0.00964543
-0.00403897
-0.0825695
0.0769631
0.00108389
-0.0108756
0.0097917
-0.0377292
0.0397346
-0.00200539
0.01225
-0.018459
-0.249437
0.255646
0.0251009
-0.0305234
-0.417147
0.42257
0.0356995
-0.0401132
-0.578218
0.582632
0.0448605
-0.0495937
-0.711448
0.716182
0.0553442
-0.0608518
-0.840108
0.845616
0.0670155
-0.0726183
-0.989009
0.994612
0.0786088
-0.0837825
-1.16532
1.17049
0.08895
-0.0930159
-1.37261
1.37668
0.0965294
-0.0986572
-1.61623
1.61836
0.0995364
-0.099309
-1.59067
1.59044
0.0984264
-0.0970329
-1.31345
1.31206
0.0955206
-0.0935321
-1.09244
1.09045
0.0916691
-0.0896032
-0.915197
0.913131
0.0871123
-0.082751
-0.760847
0.756485
0.0762647
-0.0662046
-0.58998
0.57992
0.0547926
-0.041241
-0.383548
0.369997
0.0294056
-0.0181953
-0.195036
0.183826
0.0102566
-0.00423657
-0.0711868
0.0651668
0.00111943
-0.00869984
0.0075804
-0.0416941
0.04459
-0.00289584
0.0172828
-0.0257509
-0.26215
0.270618
0.0346045
-0.0417504
-0.429707
0.436853
0.04854
-0.0542479
-0.589064
0.594772
0.0603209
-0.0662173
-0.721822
0.727718
0.0731625
-0.079613
-0.851106
0.857556
0.0866546
-0.0929036
-1.00017
1.00642
0.099415
-0.10487
-1.17552
1.18098
0.110114
-0.114029
-1.38045
1.38437
0.117132
-0.118674
-1.62006
1.6216
0.118851
-0.117859
-1.58973
1.58873
0.116322
-0.114286
-1.3099
1.30787
0.112273
-0.109838
-1.08809
1.08565
0.107584
-0.104856
-0.910279
0.907552
0.101634
-0.0957912
-0.751566
0.745723
0.0873643
-0.0747341
-0.569475
0.556845
0.0609097
-0.0450416
-0.355819
0.339951
0.0315966
-0.0192034
-0.172188
0.159794
0.0106479
-0.00431964
-0.0590294
0.0527012
0.00111782
-0.00646859
0.00535077
-0.0473237
0.0517235
-0.00439981
0.0250573
-0.0365911
-0.279405
0.290938
0.0483161
-0.057779
-0.446781
0.456244
0.0666127
-0.0738812
-0.603127
0.610396
0.0815346
-0.088938
-0.734522
0.741925
0.0971117
-0.104424
-0.863909
0.871221
0.112169
-0.11883
-1.01251
1.01917
0.12553
-0.130912
-1.18611
1.19149
0.135808
-0.13918
-1.38778
1.39115
0.141455
-0.142053
-1.62253
1.62313
0.14122
-0.139192
-1.58712
1.58509
0.136808
-0.133983
-1.30496
1.30214
0.131385
-0.128472
-1.08262
1.07971
0.125698
-0.122315
-0.903932
0.900549
0.118016
-0.110175
-0.739106
0.731265
0.0992137
-0.0833906
-0.543665
0.527841
0.0667048
-0.0482466
-0.323501
0.305043
0.0331441
-0.0196846
-0.147098
0.133639
0.0106836
-0.00423376
-0.0463572
0.0399074
0.00106417
-0.00425944
0.00319527
-0.0556999
0.0631922
-0.00749237
0.0385818
-0.0546175
-0.303354
0.31939
0.0704071
-0.0830994
-0.470041
0.482733
0.0941148
-0.102776
-0.62086
0.629521
0.111968
-0.120683
-0.749898
0.758613
0.129839
-0.137581
-0.878222
0.885965
0.145418
-0.151872
-1.0254
1.03186
0.15808
-0.162766
-1.19624
1.20092
0.166679
-0.168929
-1.39372
1.39597
0.169812
-0.16898
-1.62284
1.62201
0.166742
-0.163386
-1.58228
1.57892
0.159941
-0.156151
-1.29834
1.29455
0.152879
-0.149442
-1.0759
1.07246
0.146094
-0.141805
-0.895901
0.891612
0.135919
-0.125284
-0.722272
0.711637
0.110953
-0.09121
-0.511157
0.491415
0.0713811
-0.0503029
-0.286219
0.26514
0.0337048
-0.0194794
-0.120193
0.105968
0.0102888
-0.00394945
-0.0336094
0.0272701
0.000941016
-0.00217142
0.00123041
-0.0701525
0.0743275
-0.00417502
0.0293845
-0.0434044
-0.337968
0.351988
0.0575097
-0.0692343
-0.500917
0.512642
0.0797099
-0.0895013
-0.641926
0.651718
0.10046
-0.11068
-0.76675
0.77697
0.122074
-0.132162
-0.892659
0.902747
0.142898
-0.152451
-1.03739
1.04694
0.162479
-0.171106
-1.20453
1.21316
0.17974
-0.186668
-1.39705
1.40398
0.192913
-0.197053
-1.62
1.62414
0.199081
-0.199607
-1.57456
1.57509
0.198997
-0.197762
-1.28966
1.28843
0.19675
-0.195252
-1.06761
1.06611
0.193419
-0.188995
-0.885295
0.880872
0.180616
-0.164387
-0.699279
0.68305
0.142342
-0.113316
-0.47068
0.441654
0.0858036
-0.0581072
-0.244095
0.216399
0.0375711
-0.0209273
-0.0924113
0.0757674
0.0106277
-0.00387091
-0.0213856
0.0146288
0.00084321
-0.000277784
-0.000565426
-0.0817612
0.0798156
0.00194554
0.00775164
-0.0167935
-0.368698
0.37774
0.0274908
-0.0359697
-0.52896
0.537439
0.044512
-0.052609
-0.664282
0.672379
0.0625838
-0.0720241
-0.786652
0.796092
0.0821674
-0.0914056
-0.912176
0.921415
0.101218
-0.109601
-1.05618
1.06457
0.118572
-0.125904
-1.22155
1.22888
0.133181
-0.138726
-1.41055
1.41609
0.143215
-0.145826
-1.62748
1.63009
0.146433
-0.145587
-1.57504
1.5742
0.143582
-0.140886
-1.28645
1.28375
0.138488
-0.135866
-1.06224
1.05962
0.132897
-0.127493
-0.872017
0.866613
0.118377
-0.103544
-0.662896
0.648063
0.0859424
-0.0650094
-0.410984
0.390051
0.0470221
-0.0307676
-0.189204
0.17295
0.0194771
-0.0107579
-0.0601741
0.0514548
0.00544625
-0.00199379
-0.00804285
0.00459039
0.00042798
0.00165627
-0.00208425
-0.0831869
0.0802737
0.00291319
-0.00122961
-0.00391228
-0.389531
0.394673
0.0109952
-0.0171777
-0.549773
0.555955
0.0234636
-0.0304551
-0.683118
0.690109
0.0391018
-0.0472718
-0.804581
0.812751
0.0562624
-0.0642866
-0.929798
0.937822
0.0725552
-0.0799857
-1.07275
1.08018
0.087717
-0.0941087
-1.23575
1.24214
0.0999793
-0.104227
-1.42094
1.42518
0.107574
-0.108926
-1.63198
1.63333
0.108293
-0.106228
-1.57272
1.57066
0.103249
-0.0996708
-1.28059
1.27701
0.0960098
-0.0921514
-1.05459
1.05073
0.0881266
-0.0823042
-0.857044
0.851222
0.0739687
-0.0617028
-0.630353
0.618087
0.0488612
-0.035139
-0.367736
0.354013
0.0247703
-0.0162247
-0.156497
0.147952
0.0105615
-0.00620486
-0.0427516
0.0383949
0.00337769
-0.00137329
-0.000893042
-0.00111136
0.000344305
0.0027561
-0.00310041
-0.0819196
0.0790801
0.00283947
-0.0051093
0.00257862
-0.403328
0.405858
0.00198984
-0.00663068
-0.5652
0.569841
0.0118964
-0.0177374
-0.698569
0.70441
0.025128
-0.0321103
-0.820233
0.827215
0.0397547
-0.0466017
-0.945242
0.95209
0.0540373
-0.060294
-1.08714
1.09339
0.0669639
-0.0719937
-1.24807
1.2531
0.0768687
-0.0802244
-1.42913
1.43249
0.0824189
-0.0825251
-1.63417
1.63427
0.0810779
-0.0782191
-1.56795
1.56509
0.0745347
-0.0698088
-1.27292
1.26819
0.0653611
-0.0604763
-1.04497
1.04009
0.0554263
-0.0495209
-0.840981
0.835076
0.0420889
-0.0327741
-0.60321
0.593895
0.0242076
-0.0164478
-0.339277
0.331517
0.011405
-0.00774117
-0.138702
0.135038
0.00537571
-0.00351822
-0.0335032
0.0316457
0.00211597
-0.000968501
0.00352678
-0.00467425
0.000275362
0.00364273
-0.00391809
-0.0803443
0.0778202
0.00252408
-0.00642142
0.00552096
-0.412521
0.413421
-0.00211695
-0.00131207
-0.577496
0.580925
0.00548785
-0.0107481
-0.711508
0.716768
0.0169311
-0.0230378
-0.833459
0.839566
0.0296237
-0.035537
-0.95843
0.964343
0.0418691
-0.047369
-1.09947
1.10497
0.0529334
-0.0574138
-1.25793
1.26241
0.0614097
-0.0639861
-1.43539
1.43796
0.0653318
-0.0646642
-1.6341
1.63343
0.0624801
-0.0586933
-1.56139
1.5576
0.0543789
-0.0491012
-1.26312
1.25785
0.0439892
-0.0381739
-1.0337
1.02788
0.0326772
-0.0266614
-0.825146
0.819131
0.0204599
-0.01354
-0.582413
0.575494
0.00829289
-0.00461468
-0.322318
0.31864
0.00287304
-0.00210122
-0.130098
0.129326
0.00177083
-0.0014765
-0.0290558
0.0287615
0.00108052
-0.000593492
0.00617248
-0.0066595
0.000202677
0.00434109
-0.00454376
-0.0788498
0.0766782
0.00217169
-0.00644592
0.00608749
-0.418762
0.41912
-0.00408035
0.00131582
-0.586932
0.589696
0.00273323
-0.00721666
-0.722412
0.726895
0.0124919
-0.0177533
-0.844848
0.850109
0.0235591
-0.0288006
-0.969858
0.975099
0.0345336
-0.0392899
-1.11015
1.11491
0.0441914
-0.0480927
-1.26654
1.27044
0.0514193
-0.053399
-1.44017
1.44215
0.0540731
-0.0531854
-1.63254
1.63165
0.0504269
-0.0462753
-1.55322
1.54906
0.0415045
-0.035725
-1.25214
1.24636
0.0303853
-0.0239433
-1.02108
1.01463
0.0180083
-0.0119953
-0.809943
0.80393
0.00659595
-0.00140138
-0.566532
0.561337
-0.00174872
0.00309472
-0.312731
0.311385
-0.00284567
0.00199699
-0.127108
0.127957
-0.00122259
0.000442285
-0.027957
0.0287373
-1.42003e-05
-0.000146911
0.00731829
-0.00715718
8.91583e-05
0.00480972
-0.00489888
-0.0776711
0.0759618
0.00170932
-0.0056594
0.00567098
-0.423313
0.423302
-0.0040433
0.0019922
-0.595114
0.597165
0.00177206
-0.00581795
-0.731801
0.735847
0.010777
-0.0152695
-0.854966
0.859458
0.0203216
-0.0249198
-0.980265
0.984863
0.030287
-0.0345274
-1.11965
1.12389
0.0387809
-0.0423402
-1.2741
1.27766
0.0456193
-0.0472184
-1.44406
1.44566
0.0476466
-0.0463425
-1.63026
1.62895
0.0435904
-0.0389119
-1.54456
1.53988
0.0340848
-0.0282232
-1.24022
1.23436
0.0225194
-0.0160586
-1.00761
1.00115
0.009944
-0.00371901
-0.79526
0.789035
-0.000823861
0.00506699
-0.553731
0.549488
-0.00728255
0.00745109
-0.30737
0.307201
-0.00644675
0.00492998
-0.127485
0.129001
-0.0034508
0.00196909
-0.0291033
0.030585
-0.000960509
0.000281283
0.00706763
-0.00638841
-2.80147e-05
0.00497324
-0.00494523
-0.0769834
0.0756364
0.00134703
-0.00462627
0.0048046
-0.426838
0.426659
-0.00334932
0.00142304
-0.602164
0.604091
0.00211605
-0.00573561
-0.740166
0.743785
0.00994054
-0.0142233
-0.863909
0.868192
0.0188382
-0.0235223
-0.989219
0.993904
0.0280726
-0.0320418
-1.1282
1.13216
0.0363173
-0.039522
-1.28104
1.28424
0.0421604
-0.0439916
-1.44709
1.44892
0.0443493
-0.0430612
-1.62762
1.62633
0.040143
-0.0356637
-1.53527
1.53079
0.0308229
-0.0249317
-1.22803
1.22214
0.0192968
-0.0128231
-0.994114
0.98764
0.00677053
-0.000740826
-0.781094
0.775065
-0.00386685
0.00747527
-0.542706
0.539098
-0.00926063
0.0093228
-0.304233
0.30417
-0.00813779
0.00631785
-0.129189
0.131009
-0.00465161
0.00287861
-0.0316035
0.0333765
-0.00157495
0.000589258
0.00577625
-0.00479056
-0.000123447
0.00486593
-0.00474248
-0.0768323
0.075702
0.00113035
-0.00334894
0.00330363
-0.429929
0.429974
-0.0020787
0.000198617
-0.608567
0.610447
0.00307418
-0.00655214
-0.747882
0.75136
0.0105465
-0.0143864
-0.872283
0.876123
0.0190756
-0.0229059
-0.997958
1.00179
0.0273651
-0.0310958
-1.13626
1.13999
0.0351675
-0.0384653
-1.28737
1.29067
0.0412713
-0.0427447
-1.45045
1.45192
0.0432555
-0.0421394
-1.62488
1.62377
0.0396222
-0.0351931
-1.52611
1.52168
0.0305616
-0.0248406
-1.21627
1.21055
0.0193929
-0.0130276
-0.980655
0.97429
0.00724288
-0.00119237
-0.767523
0.761473
-0.00338032
0.00685213
-0.532804
0.529332
-0.0087543
0.00904541
-0.301595
0.301304
-0.00828119
0.00671796
-0.131329
0.132892
-0.00514488
0.00333721
-0.0346031
0.0364107
-0.00193329
0.000791968
0.00392503
-0.00278371
-0.000199661
0.0045715
-0.00437184
-0.0769748
0.0761721
0.000802729
-0.00219303
0.00167207
-0.433066
0.433586
-0.000630578
-0.00133155
-0.614193
0.616155
0.00426423
-0.00759204
-0.755017
0.758345
0.0113941
-0.015339
-0.879843
0.883788
0.0193672
-0.0233264
-1.0058
1.00976
0.0276995
-0.0311662
-1.14412
1.14758
0.0352693
-0.0384537
-1.29372
1.29691
0.0412187
-0.0431253
-1.45376
1.45566
0.0439925
-0.0430081
-1.62263
1.62164
0.0405546
-0.0366862
-1.51738
1.51351
0.0324707
-0.0269885
-1.20466
1.19918
0.0216925
-0.015804
-0.967672
0.961784
0.00989036
-0.00411196
-0.75424
0.748461
-0.000561815
0.00424462
-0.523355
0.519672
-0.00616577
0.0070343
-0.298565
0.297697
-0.00684064
0.00590475
-0.132971
0.133907
-0.00468343
0.00318181
-0.0375094
0.0390111
-0.00193163
0.000840451
0.00185725
-0.000766073
-0.000229728
0.00414101
-0.00391128
-0.0775375
0.0769044
0.000633149
-0.00120668
0.000716895
-0.436404
0.436894
0.000849865
-0.00266467
-0.619879
0.621694
0.00576017
-0.00894816
-0.76161
0.764798
0.0125899
-0.0161129
-0.887412
0.890935
0.0202438
-0.023859
-1.01369
1.0173
0.0281453
-0.0320218
-1.15148
1.15536
0.0357156
-0.0391834
-1.3001
1.30357
0.0423147
-0.0442405
-1.45741
1.45934
0.0453846
-0.0450754
-1.62083
1.62052
0.0429744
-0.0396224
-1.50947
1.50611
0.0355406
-0.0304654
-1.19372
1.18864
0.0255745
-0.0198525
-0.955372
0.949649
0.0143419
-0.00863149
-0.741516
0.735805
0.0038526
0.000275519
-0.513628
0.5095
-0.00270669
0.00403666
-0.294694
0.293364
-0.00453079
0.00423335
-0.133494
0.133791
-0.00355716
0.0025541
-0.0397364
0.0407394
-0.00162581
0.000748722
-2.33611e-05
0.000900446
-0.000221092
0.00367799
-0.0034569
-0.0783976
0.0779447
0.00045296
-0.000120545
-0.000560246
-0.439902
0.440582
0.00199736
-0.00412148
-0.625159
0.627283
0.00714569
-0.0101739
-0.767934
0.770963
0.0139034
-0.0172687
-0.894441
0.897807
0.0212248
-0.0249453
-1.02138
1.0251
0.0291176
-0.0329347
-1.15906
1.16287
0.036822
-0.0402874
-1.30692
1.31039
0.0435629
-0.046196
-1.46152
1.46415
0.0477177
-0.0476396
-1.62011
1.62003
0.0461517
-0.043046
-1.50261
1.49951
0.0394712
-0.0349376
-1.18351
1.17898
0.0301404
-0.0247122
-0.943605
0.938177
0.0194383
-0.0137058
-0.729187
0.723454
0.00891671
-0.00431264
-0.503693
0.499089
0.00139346
0.000694952
-0.289842
0.287754
-0.00174327
0.00211381
-0.132703
0.132332
-0.00205216
0.00161729
-0.0409293
0.0413642
-0.00110606
0.000546561
-0.00142106
0.00198056
-0.000170925
0.00325865