/*--------------------------------*- C++ -*----------------------------------*\
  =========                 |
  \\      /  F ield         | OpenFOAM: The Open Source CFD Toolbox
   \\    /   O peration     | Website:  https://openfoam.org
    \\  /    A nd           | Version:  6
     \\/     M anipulation  |
\*---------------------------------------------------------------------------*/
FoamFile
{
    version     2.0;
    format      ascii;
    class       volScalarField;
    location    "69";
    object      p;
}
// * * * * * * * * * * * * * * * * * * * * * * * * * * * * * * * * * * * * * //

dimensions      [0 2 -2 0 0 0 0];

internalField   nonuniform List<scalar> 
8800
(
0.808337
0.759027
0.721063
0.69299
0.672822
0.658225
0.647616
0.640063
0.63516
0.633067
0.634414
0.638737
0.645517
0.654931
0.667663
0.684983
0.708859
0.741957
0.784885
0.837416
0.64281
0.649155
0.658306
0.661849
0.659238
0.653147
0.646204
0.639954
0.63514
0.632251
0.631995
0.6346
0.639223
0.645337
0.652424
0.659448
0.66432
0.664195
0.657521
0.648623
0.616363
0.622599
0.627097
0.630964
0.633903
0.63484
0.633738
0.631602
0.629602
0.628739
0.629746
0.632178
0.63505
0.637311
0.63783
0.636041
0.632675
0.62866
0.623877
0.62016
0.612067
0.614831
0.617436
0.619592
0.621324
0.622884
0.623973
0.624308
0.624173
0.624244
0.625022
0.626144
0.626871
0.626712
0.625732
0.624372
0.622698
0.620391
0.617979
0.616413
0.607022
0.608447
0.610283
0.612359
0.614065
0.615349
0.616435
0.617397
0.618183
0.61889
0.619571
0.620008
0.620016
0.61964
0.618964
0.617843
0.616183
0.614287
0.612933
0.61213
0.602047
0.60295
0.604193
0.605814
0.607499
0.609021
0.610291
0.611394
0.612434
0.613419
0.614171
0.614535
0.614526
0.614145
0.613333
0.612139
0.610774
0.609506
0.608684
0.60816
0.597159
0.597814
0.598771
0.600082
0.601521
0.603025
0.604494
0.605837
0.607071
0.608239
0.609153
0.609618
0.609615
0.609164
0.608374
0.607426
0.606429
0.605522
0.604942
0.604558
0.592353
0.592858
0.593639
0.594772
0.596063
0.597467
0.598958
0.600475
0.601954
0.603369
0.604482
0.605058
0.605113
0.604776
0.604202
0.603507
0.602765
0.602099
0.601672
0.601372
0.587577
0.587978
0.588634
0.589647
0.590866
0.592216
0.593701
0.595315
0.597009
0.598708
0.600075
0.600844
0.601093
0.600986
0.600653
0.60018
0.599644
0.599173
0.598857
0.598614
0.582749
0.583077
0.583645
0.58458
0.585753
0.587093
0.588614
0.59033
0.592224
0.594223
0.595924
0.597001
0.597539
0.597699
0.597607
0.597362
0.597025
0.596717
0.596486
0.596282
0.577783
0.578054
0.578563
0.579452
0.58061
0.581979
0.58358
0.585442
0.587572
0.589923
0.592043
0.593517
0.594404
0.594867
0.595038
0.595025
0.594888
0.594723
0.59456
0.594383
0.572587
0.572816
0.573287
0.574161
0.575345
0.576785
0.578508
0.580572
0.583008
0.585796
0.588427
0.590377
0.591672
0.592482
0.592946
0.593175
0.593242
0.59321
0.593103
0.592946
0.56707
0.567265
0.567717
0.568606
0.569855
0.571412
0.573314
0.575648
0.578477
0.581807
0.58506
0.587576
0.589347
0.590555
0.591351
0.591843
0.592126
0.59222
0.59216
0.592016
0.561126
0.561295
0.561746
0.562678
0.564033
0.565758
0.567906
0.570593
0.573916
0.577916
0.581921
0.585115
0.587448
0.589116
0.590292
0.591097
0.591598
0.591814
0.591794
0.591658
0.554635
0.554781
0.555247
0.556251
0.557758
0.559712
0.562184
0.565322
0.569262
0.574083
0.578998
0.583003
0.586004
0.588213
0.589823
0.590973
0.591723
0.592066
0.592083
0.59195
0.547455
0.547578
0.548073
0.549181
0.55089
0.553143
0.55603
0.559737
0.564443
0.570268
0.576282
0.581253
0.585044
0.587892
0.590013
0.591561
0.59259
0.593065
0.593116
0.592984
0.539394
0.539505
0.540043
0.541285
0.543257
0.545894
0.549307
0.553724
0.559377
0.566424
0.573761
0.579886
0.584608
0.588207
0.590941
0.592956
0.594298
0.594911
0.594993
0.594856
0.53022
0.530324
0.530915
0.532334
0.534649
0.537772
0.541846
0.547153
0.553974
0.562512
0.571435
0.578929
0.584751
0.589233
0.592691
0.59525
0.596946
0.597705
0.597816
0.597671
0.519615
0.519704
0.520384
0.52204
0.524792
0.528536
0.533448
0.539871
0.548141
0.558492
0.569311
0.578417
0.585532
0.591054
0.59534
0.598543
0.600636
0.601546
0.60168
0.601525
0.5072
0.507275
0.508059
0.510027
0.51334
0.517884
0.523869
0.531705
0.541778
0.55434
0.567415
0.5784
0.587008
0.593737
0.598993
0.602931
0.605455
0.606514
0.606665
0.606495
0.492409
0.492477
0.493407
0.495788
0.499838
0.505433
0.512814
0.522458
0.534787
0.550037
0.565774
0.578929
0.589241
0.597352
0.603721
0.60848
0.611459
0.612655
0.612811
0.612623
0.474452
0.474513
0.475658
0.478627
0.483687
0.490701
0.499938
0.511932
0.527099
0.5456
0.564442
0.580068
0.592299
0.60196
0.609554
0.615222
0.618652
0.619955
0.620101
0.619893
0.45216
0.452225
0.453716
0.457564
0.464077
0.473085
0.484865
0.499964
0.518709
0.541112
0.563515
0.581885
0.596229
0.607593
0.616516
0.623128
0.626961
0.628318
0.628434
0.628206
0.423728
0.423824
0.425915
0.431184
0.439949
0.451897
0.467273
0.486513
0.509741
0.536746
0.563137
0.58448
0.601074
0.614238
0.624573
0.632087
0.636212
0.637543
0.637606
0.63736
0.386074
0.386297
0.389614
0.397504
0.410066
0.426544
0.44706
0.471751
0.500462
0.532752
0.563486
0.587958
0.606874
0.621865
0.633619
0.641888
0.646112
0.647314
0.647303
0.647045
0.333296
0.334401
0.340997
0.354314
0.37351
0.396998
0.424622
0.456185
0.491323
0.529457
0.56477
0.592423
0.613645
0.630397
0.643433
0.652203
0.656249
0.657219
0.657128
0.656866
0.256865
0.264364
0.279496
0.302773
0.331876
0.364743
0.401014
0.440438
0.482668
0.527132
0.567339
0.598372
0.622074
0.640704
0.654855
0.663825
0.66753
0.668252
0.668106
0.667876
0.175613
0.191979
0.216549
0.250536
0.290069
0.332476
0.377435
0.424874
0.474542
0.525935
0.571833
0.606927
0.633575
0.654291
0.66953
0.678245
0.681285
0.681728
0.681605
0.681457
0.105992
0.125994
0.158447
0.201659
0.250477
0.301865
0.355281
0.4106
0.467546
0.525591
0.57681
0.615616
0.644835
0.667259
0.682972
0.69109
0.693555
0.6939
0.693838
0.693735
0.0490241
0.0712627
0.109133
0.158957
0.215047
0.273971
0.334874
0.397438
0.461219
0.52558
0.581822
0.62408
0.655609
0.679383
0.695502
0.703387
0.705653
0.705975
0.705956
0.705881
0.00184044
0.0254062
0.0672007
0.122191
0.184103
0.249238
0.316535
0.385529
0.45558
0.525874
0.586909
0.632463
0.666231
0.691432
0.70813
0.715972
0.718165
0.71849
0.718503
0.71845
-0.0381895
-0.0138355
0.0308529
0.0900468
0.156867
0.227314
0.300167
0.374874
0.450632
0.526465
0.592117
0.640916
0.676914
0.703571
0.720949
0.729061
0.731321
0.731635
0.731664
0.731627
-0.0731111
-0.0482348
-0.00128208
0.061399
0.132425
0.207512
0.285305
0.36518
0.446224
0.527305
0.597385
0.649369
0.687562
0.715701
0.733936
0.742471
0.744847
0.745171
0.745198
0.745177
-0.104432
-0.0791295
-0.0303128
0.0353407
0.110015
0.189188
0.271438
0.356083
0.442099
0.528181
0.602534
0.657616
0.698008
0.727633
0.746765
0.75571
0.758285
0.758623
0.758644
0.758629
-0.133178
-0.107485
-0.0570768
0.0111632
0.08905
0.171861
0.258157
0.347201
0.437897
0.528799
0.607347
0.665454
0.707973
0.739041
0.759008
0.768404
0.771172
0.771563
0.771565
0.771553
-0.160164
-0.134052
-0.0822174
-0.0116469
0.0690859
0.15515
0.245111
0.33823
0.433359
0.528965
0.611646
0.672753
0.717329
0.749771
0.770505
0.780315
0.783248
0.783663
0.783634
0.783615
-0.185794
-0.159273
-0.106125
-0.0334835
0.0497867
0.138772
0.232073
0.328977
0.428322
0.52849
0.615307
0.679405
0.726006
0.75972
0.78113
0.7912
0.794245
0.794664
0.794604
0.794569
-0.210514
-0.183505
-0.129143
-0.0546252
0.030921
0.12254
0.218895
0.319295
0.422619
0.527239
0.618234
0.685394
0.733994
0.768874
0.790786
0.801004
0.804075
0.804475
0.804381
0.804329
-0.234467
-0.206965
-0.151455
-0.0752428
0.0123427
0.106336
0.205463
0.309086
0.416156
0.525138
0.620366
0.690705
0.741344
0.777285
0.799521
0.809746
0.812761
0.81313
0.813007
0.812939
-0.25779
-0.229758
-0.173187
-0.095435
-0.00602367
0.0900949
0.191727
0.298305
0.408889
0.522093
0.621632
0.695351
0.748155
0.785119
0.807503
0.817536
0.820424
0.820735
0.820589
0.820506
-0.280583
-0.252013
-0.194394
-0.115247
-0.0242207
0.073801
0.177687
0.286951
0.400787
0.518042
0.621963
0.699332
0.754544
0.792541
0.814891
0.824539
0.827174
0.827394
0.827226
0.827132
-0.302911
-0.273726
-0.215095
-0.134687
-0.0422289
0.0574707
0.163369
0.275042
0.391852
0.512946
0.621286
0.702611
0.760612
0.799792
0.821927
0.830906
0.833118
0.833203
0.833013
0.832914
-0.324638
-0.29487
-0.235273
-0.153747
-0.0600246
0.0411549
0.148815
0.262636
0.382128
0.506802
0.619518
0.705114
0.766404
0.807129
0.828967
0.836902
0.838386
0.838248
0.838051
0.837961
-0.345746
-0.315418
-0.254926
-0.172395
-0.0775627
0.0249027
0.134106
0.249795
0.371676
0.499611
0.616591
0.70672
0.77187
0.814758
0.83654
0.843099
0.843308
0.842658
0.842457
0.842433
-0.366288
-0.335343
-0.274034
-0.190605
-0.0947895
0.00879059
0.119323
0.236613
0.36057
0.491416
0.612428
0.707289
0.776846
0.822698
0.845187
0.850508
0.848776
0.846833
0.846397
0.846686
-0.38612
-0.354622
-0.292545
-0.208318
-0.111653
-0.00710168
0.104557
0.22319
0.348916
0.482297
0.606982
0.706645
0.781072
0.83065
0.855069
0.860344
0.856849
0.852424
0.849967
0.849014
-0.405332
-0.373264
-0.310466
-0.225567
-0.128189
-0.022814
0.0897547
0.209469
0.336645
0.472188
0.600092
0.704534
0.784305
0.838143
0.865702
0.873058
0.869791
0.8625
0.85312
0.85376
-0.423845
-0.391332
-0.327936
-0.242551
-0.144688
-0.0386727
0.0745075
0.194974
0.323222
0.460478
0.591124
0.700217
0.78614
0.844648
0.87569
0.886806
0.88444
0.872855
0.854086
0.852498
-0.441529
-0.408784
-0.344794
-0.259084
-0.160885
-0.0543793
0.0590181
0.18002
0.30893
0.447388
0.58009
0.692964
0.785674
0.848941
0.880978
0.892667
0.891825
0.865831
0.808179
0.783217
-0.458256
-0.42648
-0.360643
-0.274725
-0.175996
-0.069454
0.0435699
0.164885
0.294048
0.433086
0.567041
0.682143
0.781773
0.849992
0.87664
0.883156
0.868267
0.815926
0.753616
0.715958
-0.500887
-0.444072
-0.375156
-0.290322
-0.190762
-0.0848524
0.0283068
0.149444
0.278369
0.417212
0.551558
0.667073
0.77049
0.844283
0.859991
0.845022
0.79559
0.729485
0.659897
0.621613
-0.476048
-0.457773
-0.397199
-0.311546
-0.213659
-0.107986
0.00447903
0.124956
0.252971
0.390447
0.523516
0.637247
0.732491
0.813697
0.795613
0.684766
0.592532
0.528264
0.463805
0.491305
-0.506713
-0.475252
-0.4139
-0.328896
-0.231179
-0.12563
-0.0130085
0.1068
0.233788
0.369507
0.500024
0.610332
0.69456
0.740378
0.687039
0.545377
0.434714
0.36001
0.277246
0.323233
-0.530501
-0.496661
-0.433562
-0.348511
-0.250838
-0.145309
-0.0328227
0.0861784
0.211789
0.345103
0.471785
0.576081
0.648745
0.656408
0.547949
0.391086
0.260592
0.166946
0.0712446
0.103644
-0.553635
-0.518742
-0.454248
-0.368513
-0.270805
-0.165423
-0.0534682
0.0645484
0.188536
0.319002
0.440768
0.536699
0.592451
0.56685
0.406918
0.228621
0.0677417
-0.067384
-0.192967
-0.179303
-0.576497
-0.541209
-0.475795
-0.389458
-0.291634
-0.186492
-0.0752163
0.0416534
0.16371
0.290881
0.406847
0.494446
0.529217
0.457907
0.26814
0.0700244
-0.117702
-0.272268
-0.47851
-0.558476
-0.599772
-0.564531
-0.498577
-0.411818
-0.313843
-0.208894
-0.098242
0.0174325
0.137412
0.260987
0.370657
0.448812
0.457647
0.334808
0.141606
-0.0684864
-0.261356
-0.423591
-0.547981
-0.666732
-0.624528
-0.589189
-0.522934
-0.435951
-0.337962
-0.233311
-0.123389
-0.00910254
0.108431
0.227816
0.33073
0.395945
0.377219
0.218028
0.0233158
-0.180872
-0.357196
-0.455236
-0.481622
-0.495072
-0.650896
-0.615468
-0.548996
-0.461948
-0.364134
-0.259966
-0.151035
-0.0384666
0.0761445
0.190568
0.286263
0.333728
0.29555
0.105804
-0.0868352
-0.270876
-0.404159
-0.4425
-0.451474
-0.451778
-0.679148
-0.643494
-0.576803
-0.489798
-0.39231
-0.288869
-0.181205
-0.0707215
0.0404792
0.149205
0.236639
0.267642
0.197858
0.00317784
-0.183161
-0.342879
-0.418057
-0.43237
-0.433478
-0.433355
-0.709294
-0.673299
-0.606373
-0.519499
-0.42251
-0.320013
-0.213913
-0.105892
0.00143986
0.103827
0.181698
0.197978
0.0896689
-0.0898663
-0.266021
-0.392575
-0.422086
-0.422944
-0.423528
-0.42311
-0.741074
-0.70471
-0.637601
-0.550968
-0.454646
-0.353347
-0.249137
-0.143961
-0.0409314
0.0545652
0.122698
0.11994
-0.00639671
-0.175497
-0.331497
-0.403733
-0.419113
-0.417671
-0.417584
-0.417205
-0.773921
-0.737372
-0.670216
-0.583967
-0.488524
-0.38871
-0.286726
-0.184808
-0.0864259
0.0018232
0.060048
0.0410122
-0.0952392
-0.250693
-0.374687
-0.412435
-0.412456
-0.413595
-0.413748
-0.41352
-0.807383
-0.770744
-0.703721
-0.618066
-0.523781
-0.425767
-0.326388
-0.228156
-0.134755
-0.0535072
-0.0076169
-0.0337304
-0.176484
-0.310203
-0.399207
-0.408197
-0.410434
-0.411321
-0.411311
-0.411247
-0.84048
-0.803921
-0.737363
-0.652609
-0.559844
-0.464023
-0.367647
-0.273508
-0.185505
-0.11062
-0.0753944
-0.108766
-0.247117
-0.356592
-0.405263
-0.416636
-0.412075
-0.410048
-0.409409
-0.409323
-0.871355
-0.835603
-0.770085
-0.686681
-0.595908
-0.502746
-0.409817
-0.320114
-0.237923
-0.169078
-0.138524
-0.187039
-0.306491
-0.400076
-0.421436
-0.42012
-0.41428
-0.409482
-0.408093
-0.407658
-0.898901
-0.864242
-0.800449
-0.719047
-0.630881
-0.540962
-0.451996
-0.36704
-0.290772
-0.228408
-0.200357
-0.255493
-0.352658
-0.431195
-0.453288
-0.437079
-0.423289
-0.417239
-0.414809
-0.413612
-0.920382
-0.887687
-0.826655
-0.74814
-0.663404
-0.577445
-0.493032
-0.413225
-0.34269
-0.286857
-0.262049
-0.309406
-0.381332
-0.436206
-0.439699
-0.443209
-0.44639
-0.443506
-0.439708
-0.438033
-0.93364
-0.903751
-0.846576
-0.772162
-0.691891
-0.610774
-0.531533
-0.457416
-0.392486
-0.341788
-0.318218
-0.354586
-0.393777
-0.42613
-0.428374
-0.442475
-0.45037
-0.450846
-0.449893
-0.450162
-0.935925
-0.90998
-0.858043
-0.789208
-0.714643
-0.639424
-0.566029
-0.497975
-0.439016
-0.392354
-0.36485
-0.39602
-0.407717
-0.413362
-0.424725
-0.436001
-0.440307
-0.441943
-0.443252
-0.443747
-0.924935
-0.903834
-0.858875
-0.797474
-0.730139
-0.661903
-0.595215
-0.533088
-0.480661
-0.439334
-0.400885
-0.43458
-0.449648
-0.449709
-0.457164
-0.453009
-0.448991
-0.447142
-0.446146
-0.445678
-0.898068
-0.882556
-0.847111
-0.79565
-0.737305
-0.677149
-0.61791
-0.561735
-0.514952
-0.480896
-0.440362
-0.461312
-0.506372
-0.570216
-0.544601
-0.48854
-0.453348
-0.44291
-0.440338
-0.439446
-0.858744
-0.848824
-0.823807
-0.78398
-0.736013
-0.685042
-0.633217
-0.583623
-0.540339
-0.51311
-0.486548
-0.468401
-0.460082
-0.509633
-0.486128
-0.439149
-0.421846
-0.4136
-0.410286
-0.408736
-0.81407
-0.808435
-0.793933
-0.765522
-0.728391
-0.68625
-0.641705
-0.597575
-0.557523
-0.529075
-0.501125
-0.445157
-0.321513
-0.204753
-0.178192
-0.251396
-0.341503
-0.377906
-0.384938
-0.384959
-0.774216
-0.770802
-0.763898
-0.745732
-0.717608
-0.682681
-0.644497
-0.60396
-0.56514
-0.531562
-0.507833
-0.455062
-0.3739
-0.272623
-0.287158
-0.433747
-0.509102
-0.498737
-0.487785
-0.496893
-0.745409
-0.743354
-0.739787
-0.729023
-0.707505
-0.677942
-0.643006
-0.604837
-0.563997
-0.529477
-0.505015
-0.515185
-0.612319
-0.869106
-1.10276
-1.25464
-1.29618
-1.23426
-1.13819
-1.09654
-0.724453
-0.723714
-0.722512
-0.717134
-0.701059
-0.674554
-0.640835
-0.601089
-0.557966
-0.516187
-0.48363
-0.510476
-0.719737
-1.06689
-1.43553
-1.54299
-1.45514
-1.27124
-1.11913
-1.05318
-0.71241
-0.712205
-0.711674
-0.709115
-0.697676
-0.672802
-0.637887
-0.595602
-0.547776
-0.489324
-0.443888
-0.388441
-0.409136
-0.428073
-0.46077
-0.468316
-0.30394
-0.118308
0.00301054
0.0550851
-0.703756
-0.703633
-0.703245
-0.702337
-0.695035
-0.672395
-0.635842
-0.590552
-0.532233
-0.46287
-0.384486
-0.272617
-0.104599
0.159908
0.47914
0.804589
1.08438
1.24024
1.30433
1.32149
-0.698163
-0.697959
-0.697378
-0.696748
-0.692662
-0.674278
-0.636767
-0.584141
-0.520101
-0.440172
-0.335275
-0.219237
0.00968752
0.41932
0.875325
1.29647
1.6155
1.76933
1.82003
1.83011
-0.695657
-0.695656
-0.695625
-0.69539
-0.694571
-0.680384
-0.640231
-0.581022
-0.513364
-0.421438
-0.313915
-0.189537
0.0294504
0.422264
0.841428
1.22223
1.49692
1.6328
1.68158
1.69116
-0.692765
-0.693973
-0.697057
-0.701748
-0.70434
-0.690054
-0.643951
-0.583724
-0.512099
-0.419405
-0.311539
-0.199876
-0.0204379
0.306197
0.63242
0.925154
1.14076
1.24539
1.27921
1.28457
-0.687834
-0.689716
-0.693638
-0.700179
-0.704807
-0.687266
-0.642388
-0.592604
-0.523391
-0.428691
-0.324577
-0.227861
-0.0944053
0.150927
0.388192
0.586332
0.720503
0.781181
0.802281
0.806558
-0.704434
-0.705368
-0.700485
-0.678866
-0.653243
-0.64405
-0.636779
-0.610639
-0.542692
-0.442837
-0.343917
-0.263443
-0.147148
0.0146061
0.166318
0.278994
0.343419
0.377935
0.397323
0.404843
-0.747024
-0.745253
-0.731509
-0.689517
-0.63848
-0.63133
-0.665466
-0.642995
-0.56411
-0.458905
-0.372338
-0.303717
-0.227876
-0.0855152
0.0299296
0.101213
0.141715
0.167018
0.18463
0.191835
-0.815914
-0.814678
-0.825134
-0.836686
-0.833636
-0.81388
-0.797601
-0.71043
-0.589527
-0.477537
-0.39499
-0.333277
-0.274933
-0.167729
-0.0698591
0.0104866
0.0614414
0.0953492
0.111484
0.116019
-0.954501
-0.970874
-1.01967
-1.07359
-1.09095
-1.05695
-0.961989
-0.793146
-0.618345
-0.49863
-0.404108
-0.352011
-0.305116
-0.203792
-0.10717
-0.0341357
0.0199159
0.0542128
0.0672574
0.0693366
-1.06949
-1.09284
-1.13808
-1.1777
-1.19094
-1.15667
-1.03394
-0.812805
-0.632594
-0.501961
-0.404083
-0.349996
-0.315891
-0.231729
-0.140102
-0.0773543
-0.0260225
0.00374563
0.0143577
0.0150548
-1.04051
-1.05793
-1.09016
-1.12036
-1.13095
-1.0943
-0.953441
-0.74986
-0.600008
-0.47232
-0.386548
-0.329568
-0.293633
-0.234532
-0.161349
-0.110848
-0.0676646
-0.0444872
-0.0353197
-0.0353413
-0.830025
-0.849092
-0.88325
-0.920696
-0.939533
-0.901963
-0.773556
-0.63546
-0.511365
-0.415077
-0.351608
-0.300195
-0.265674
-0.22174
-0.172765
-0.134809
-0.103558
-0.0861078
-0.0811813
-0.0819723
-0.490378
-0.506289
-0.537335
-0.575827
-0.603114
-0.590943
-0.536777
-0.466795
-0.397662
-0.346278
-0.302799
-0.26576
-0.242464
-0.214196
-0.181911
-0.15584
-0.134091
-0.122917
-0.119782
-0.121559
-0.158003
-0.166991
-0.187727
-0.221348
-0.256976
-0.281672
-0.295009
-0.298178
-0.290474
-0.273996
-0.250817
-0.23176
-0.218761
-0.208864
-0.195085
-0.181044
-0.170851
-0.167039
-0.166689
-0.168232
0.0497528
0.0452005
0.0314576
0.00352394
-0.0410051
-0.0934978
-0.140827
-0.177747
-0.199952
-0.208157
-0.209643
-0.200704
-0.202531
-0.204101
-0.206113
-0.207487
-0.210863
-0.215509
-0.217587
-0.218364
0.129325
0.126462
0.116306
0.092929
0.0538207
0.00226929
-0.052809
-0.101753
-0.137613
-0.163158
-0.175491
-0.177295
-0.187711
-0.200083
-0.213971
-0.228058
-0.241266
-0.250887
-0.253653
-0.253793
0.136546
0.134594
0.127227
0.109798
0.0791908
0.0375469
-0.00920701
-0.0563214
-0.0979334
-0.12969
-0.151583
-0.162462
-0.175753
-0.193941
-0.215226
-0.234594
-0.251162
-0.260099
-0.26223
-0.262264
0.115677
0.114409
0.109312
0.0970094
0.0750094
0.043479
0.00534852
-0.0349439
-0.0739697
-0.109449
-0.14048
-0.160056
-0.17723
-0.193576
-0.212008
-0.229189
-0.243896
-0.250343
-0.251465
-0.25154
0.0882439
0.0874868
0.0841003
0.0757285
0.0603826
0.0377081
0.00848652
-0.0249368
-0.0609394
-0.098253
-0.13826
-0.174765
-0.193444
-0.19905
-0.20665
-0.217108
-0.225555
-0.228615
-0.228657
-0.22853
0.0625444
0.0621093
0.0599608
0.0544376
0.0439563
0.027834
0.00604501
-0.0200714
-0.0510973
-0.0878729
-0.134563
-0.184155
-0.206098
-0.195327
-0.192452
-0.194024
-0.195918
-0.195973
-0.195351
-0.195331
0.0414811
0.0412263
0.0399121
0.0364011
0.0294842
0.0184611
0.00284447
-0.0168173
-0.0416329
-0.0733209
-0.11784
-0.166827
-0.183732
-0.166196
-0.157136
-0.158567
-0.159531
-0.159217
-0.158589
-0.15845
0.0248661
0.0247787
0.0240704
0.0220657
0.0178696
0.0108755
0.000623885
-0.0128047
-0.030338
-0.0534998
-0.0843976
-0.115143
-0.120451
-0.113898
-0.110424
-0.11366
-0.115561
-0.115987
-0.116083
-0.115994
0.0120616
0.0120876
0.0118091
0.0109083
0.00884897
0.00525207
-0.000257043
-0.00753875
-0.017303
-0.0299828
-0.0446165
-0.0545099
-0.0502213
-0.0520922
-0.0569624
-0.0625609
-0.0665718
-0.0681656
-0.0684664
-0.0682049
0.00186779
0.00192947
0.00190561
0.00205183
0.00209886
0.00173643
0.000894546
-0.000345772
-0.00194266
-0.00437954
-0.00592993
-0.00543831
-0.00735008
-0.00675924
-0.00975382
-0.0128825
-0.013457
-0.0132549
-0.0137151
-0.0136818
-0.0477893
0.141236
0.314706
0.461947
0.580034
0.673355
0.751087
0.814344
0.830484
0.827101
0.24241
0.36394
0.477921
0.576991
0.660415
0.72927
0.783585
0.82042
0.840182
0.856819
0.439558
0.520649
0.600931
0.671383
0.731506
0.781368
0.82063
0.850591
0.873111
0.892355
0.585443
0.642966
0.701119
0.753183
0.798093
0.836342
0.868422
0.895324
0.915633
0.934531
0.702781
0.745861
0.788823
0.829126
0.865057
0.896818
0.924613
0.948162
0.966116
0.984164
0.799833
0.8356
0.870705
0.904426
0.935544
0.963684
0.988533
1.00939
1.02516
1.04264
0.888153
0.920162
0.952427
0.983588
1.01258
1.03895
1.06205
1.08098
1.09489
1.11191
0.975095
1.00768
1.0401
1.0713
1.10006
1.12584
1.14797
1.16549
1.17786
1.19439
1.0695
1.10592
1.14067
1.17312
1.20229
1.22763
1.24875
1.26503
1.27664
1.2928
1.18256
1.22316
1.26016
1.29309
1.32158
1.34558
1.3652
1.38048
1.39237
1.40847
1.32388
1.36497
1.40025
1.42984
1.45505
1.47667
1.49517
1.51065
1.52376
1.53974
1.49549
1.5279
1.5548
1.57714
1.59723
1.61595
1.63368
1.65043
1.66534
1.68115
1.6819
1.69917
1.7163
1.73298
1.74907
1.7638
1.77769
1.79214
1.80738
1.82479
1.86512
1.87504
1.8882
1.89916
1.90856
1.9182
1.9288
1.939
1.94833
1.97373
2.08255
2.07678
2.06378
2.04953
2.04324
2.04894
2.06704
2.09554
2.12932
2.16562
2.38582
2.24999
2.17051
2.12795
2.11055
2.11457
2.14206
2.19998
2.30763
2.48585
0.711995
0.705696
0.697964
0.68685
0.673286
0.660644
0.650253
0.642246
0.636532
0.633207
0.632864
0.635707
0.640947
0.648309
0.657859
0.669685
0.683242
0.696169
0.705161
0.7127
0.621102
0.627029
0.635095
0.641221
0.644286
0.643771
0.640684
0.636691
0.633106
0.630828
0.630705
0.63297
0.636734
0.641187
0.645295
0.647547
0.64648
0.641851
0.634806
0.626973
0.61435
0.616722
0.619991
0.622768
0.625219
0.627405
0.628581
0.628433
0.627497
0.626697
0.626926
0.628355
0.630151
0.631393
0.63133
0.629873
0.627721
0.62536
0.622378
0.61936
0.609555
0.610643
0.61256
0.614899
0.616772
0.618172
0.619392
0.620385
0.620988
0.621375
0.621946
0.622709
0.623193
0.62309
0.622472
0.621557
0.620231
0.618265
0.61616
0.614684
0.604526
0.605159
0.606288
0.608047
0.609891
0.611485
0.612739
0.613806
0.614794
0.615704
0.61651
0.617055
0.617214
0.617023
0.616499
0.615534
0.614114
0.61251
0.611176
0.610375
0.599594
0.600033
0.600822
0.602127
0.60365
0.605215
0.606696
0.607996
0.609158
0.61026
0.611238
0.61187
0.612074
0.611859
0.611211
0.610224
0.60908
0.607943
0.607044
0.606511
0.594751
0.595078
0.595691
0.596762
0.59806
0.599462
0.600944
0.602423
0.603823
0.605143
0.606321
0.607102
0.60736
0.607142
0.606564
0.605797
0.604963
0.604117
0.60346
0.603069
0.589969
0.590223
0.590718
0.591631
0.592806
0.594118
0.595545
0.597079
0.598669
0.600251
0.601684
0.602647
0.603028
0.602961
0.602604
0.602078
0.60146
0.600844
0.600368
0.600069
0.585179
0.585381
0.585792
0.586596
0.587695
0.588961
0.590375
0.591956
0.593691
0.595525
0.597261
0.598496
0.599123
0.599308
0.599198
0.598903
0.598496
0.598074
0.597738
0.597504
0.580293
0.580455
0.580809
0.581541
0.582594
0.583844
0.585291
0.58696
0.588858
0.590957
0.593052
0.594662
0.595627
0.596115
0.596269
0.596212
0.596023
0.595779
0.59556
0.595373
0.575223
0.575355
0.575667
0.576355
0.577393
0.578671
0.58019
0.581992
0.584109
0.586535
0.589068
0.591142
0.592514
0.593351
0.593805
0.594004
0.594032
0.593961
0.593843
0.593691
0.569879
0.569986
0.57027
0.57094
0.571999
0.573348
0.574984
0.576974
0.579378
0.582219
0.585292
0.587922
0.589773
0.591015
0.591809
0.592288
0.592548
0.592651
0.592619
0.592495
0.564163
0.564247
0.564516
0.565193
0.566308
0.56777
0.569578
0.571825
0.574601
0.577961
0.581693
0.584994
0.587413
0.589125
0.590305
0.591111
0.591627
0.591895
0.591941
0.591839
0.557962
0.558027
0.55829
0.558996
0.560204
0.561827
0.563872
0.566457
0.569704
0.573708
0.578246
0.582353
0.585448
0.587713
0.589338
0.590512
0.591311
0.59176
0.591881
0.591795
0.551145
0.551192
0.551457
0.552214
0.553554
0.555394
0.55775
0.560768
0.564608
0.569406
0.574924
0.579998
0.583898
0.586816
0.588966
0.590557
0.591682
0.592325
0.59252
0.592447
0.543559
0.543582
0.54385
0.544684
0.546201
0.548323
0.551078
0.554643
0.559221
0.564995
0.5717
0.577936
0.582789
0.586478
0.589249
0.591335
0.59283
0.593686
0.593954
0.59389
0.534966
0.534983
0.535267
0.5362
0.537948
0.54043
0.54369
0.547941
0.553437
0.560408
0.56855
0.576174
0.582158
0.586753
0.590257
0.59294
0.594857
0.595943
0.596285
0.596226
0.525095
0.525087
0.525417
0.526498
0.528546
0.531488
0.535388
0.540502
0.547141
0.555582
0.565457
0.574732
0.582049
0.587713
0.592079
0.595452
0.597857
0.599197
0.599612
0.599555
0.513631
0.513601
0.513983
0.515254
0.517674
0.521206
0.525924
0.532132
0.5402
0.550451
0.562418
0.573639
0.582512
0.589425
0.594799
0.59897
0.601935
0.603544
0.604027
0.603966
0.500078
0.500026
0.500486
0.502009
0.504914
0.509217
0.514994
0.522604
0.532476
0.544956
0.559434
0.572939
0.583606
0.59195
0.598498
0.603584
0.607166
0.609051
0.609592
0.609522
0.483769
0.483695
0.484281
0.486157
0.489712
0.495039
0.502217
0.511654
0.523821
0.539056
0.556529
0.572679
0.585388
0.595357
0.60323
0.609344
0.613593
0.615742
0.616323
0.616237
0.463743
0.463651
0.464441
0.466829
0.4713
0.478053
0.487142
0.499011
0.51413
0.532761
0.553767
0.572931
0.587928
0.5997
0.609022
0.616268
0.621202
0.623575
0.624165
0.624054
0.43855
0.438458
0.439587
0.442769
0.448621
0.457455
0.469258
0.484443
0.503386
0.526174
0.55128
0.5738
0.59128
0.605007
0.615894
0.624327
0.629893
0.632409
0.632966
0.632824
0.405828
0.405784
0.407523
0.412077
0.420239
0.432327
0.448124
0.467877
0.491727
0.519508
0.549259
0.575416
0.595521
0.611288
0.623797
0.633406
0.639461
0.641988
0.64246
0.642283
0.361365
0.361527
0.364594
0.371998
0.384483
0.401917
0.423643
0.449566
0.479516
0.513098
0.547949
0.577929
0.600724
0.618528
0.632641
0.643293
0.649572
0.651923
0.652262
0.652053
0.297293
0.298644
0.306089
0.320055
0.34046
0.366395
0.39648
0.430234
0.467357
0.507379
0.547623
0.581479
0.606915
0.626673
0.642169
0.653557
0.659719
0.66167
0.661843
0.661625
0.220844
0.223499
0.23796
0.262003
0.29324
0.32925
0.368395
0.410434
0.455185
0.502242
0.548656
0.587187
0.615939
0.638131
0.655206
0.667062
0.672898
0.674548
0.674667
0.67454
0.14263
0.149634
0.171337
0.205469
0.247223
0.293077
0.341285
0.391671
0.444124
0.498274
0.550912
0.594155
0.626147
0.650684
0.66931
0.681261
0.686315
0.687457
0.687517
0.687456
0.078843
0.0877369
0.114097
0.155368
0.205407
0.259617
0.316002
0.374223
0.434033
0.494971
0.553507
0.601121
0.636072
0.66259
0.682095
0.693887
0.69849
0.699503
0.699613
0.699608
0.026622
0.0362356
0.0661382
0.11272
0.168997
0.229898
0.293172
0.358296
0.424822
0.492125
0.556255
0.608005
0.645709
0.674031
0.69446
0.706413
0.71083
0.711762
0.711921
0.711957
-0.0170489
-0.00712739
0.0251921
0.0759228
0.137315
0.203776
0.272884
0.344025
0.416591
0.489767
0.559195
0.61495
0.655346
0.685528
0.707014
0.719184
0.723534
0.724594
0.724786
0.72486
-0.0546467
-0.0445938
-0.0104677
0.0435843
0.109259
0.180502
0.254711
0.331186
0.409218
0.48784
0.562307
0.62197
0.665031
0.697048
0.719624
0.732315
0.736941
0.738045
0.738238
0.738322
-0.0878581
-0.0777617
-0.0422173
0.014586
0.0839103
0.159304
0.238037
0.319342
0.402436
0.486202
0.565491
0.628916
0.674609
0.708458
0.732235
0.74558
0.750499
0.751674
0.75185
0.751922
-0.11795
-0.107824
-0.0711281
-0.0119616
0.0605262
0.139567
0.222353
0.308085
0.395896
0.484546
0.568486
0.635588
0.683858
0.719517
0.744459
0.758459
0.763706
0.764946
0.765103
0.765157
-0.145885
-0.135712
-0.0979973
-0.0367327
0.0385584
0.120833
0.207259
0.29704
0.389249
0.48258
0.571081
0.641808
0.692576
0.729981
0.75604
0.770645
0.776238
0.777545
0.777665
0.777692
-0.172232
-0.162
-0.123344
-0.0601911
0.0175783
0.102737
0.192447
0.285941
0.382285
0.480112
0.573111
0.647436
0.700682
0.739741
0.766825
0.781942
0.787795
0.789143
0.789228
0.789223
-0.197458
-0.187107
-0.147568
-0.082703
-0.00272193
0.0850218
0.177712
0.27462
0.374839
0.476974
0.574416
0.652397
0.708116
0.748777
0.776765
0.79225
0.798209
0.799575
0.79963
0.799592
-0.221872
-0.211326
-0.170947
-0.104507
-0.0225396
0.0675209
0.162914
0.262954
0.366771
0.473051
0.57492
0.656642
0.714895
0.757087
0.785801
0.80151
0.807481
0.808807
0.808837
0.80877
-0.245586
-0.234814
-0.193629
-0.125753
-0.0420004
0.0501428
0.147969
0.250863
0.358024
0.468259
0.574538
0.660137
0.721055
0.764791
0.794102
0.809843
0.81569
0.816942
0.816935
0.816849
-0.268742
-0.2577
-0.215741
-0.146513
-0.061167
0.0328314
0.132843
0.238327
0.348574
0.462546
0.573183
0.662848
0.726663
0.772029
0.801814
0.817375
0.822976
0.824097
0.824042
0.823937
-0.291322
-0.280047
-0.237309
-0.166821
-0.0800565
0.0155878
0.117554
0.225362
0.338416
0.455878
0.570795
0.664715
0.731765
0.778971
0.809156
0.824301
0.829463
0.830378
0.830265
0.830142
-0.313415
-0.301841
-0.258313
-0.186674
-0.0986592
-0.00156436
0.102129
0.212009
0.327585
0.448261
0.567317
0.665661
0.736357
0.785793
0.816419
0.830857
0.835271
0.835853
0.835674
0.835549
-0.334834
-0.323053
-0.278748
-0.206065
-0.116937
-0.0185641
0.0866226
0.198325
0.316142
0.43973
0.562703
0.66559
0.740375
0.792607
0.823974
0.837504
0.840713
0.840664
0.840371
0.840274
-0.355728
-0.343641
-0.298592
-0.224981
-0.134869
-0.0353803
0.0711206
0.184384
0.304159
0.43035
0.556934
0.66439
0.743682
0.79939
0.83217
0.844968
0.84649
0.845156
0.844494
0.8445
-0.375922
-0.363567
-0.317835
-0.243375
-0.152381
-0.0519332
0.0557016
0.170299
0.291734
0.420175
0.550022
0.661943
0.746088
0.805933
0.84109
0.854073
0.854024
0.85054
0.84854
0.848434
-0.395519
-0.38286
-0.336421
-0.261194
-0.169441
-0.068158
0.0404491
0.156147
0.27897
0.409331
0.54201
0.658112
0.747369
0.811848
0.850292
0.865063
0.865017
0.859624
0.853816
0.845489
-0.414407
-0.401515
-0.354439
-0.278604
-0.186272
-0.0843318
0.0250325
0.141532
0.265432
0.397335
0.532417
0.652367
0.747183
0.816954
0.859273
0.877492
0.87989
0.873547
0.862375
0.861289
-0.432548
-0.419604
-0.371887
-0.295556
-0.202858
-0.100417
0.00947967
0.126433
0.251082
0.384057
0.521046
0.644187
0.744738
0.820456
0.866149
0.887419
0.891875
0.887467
0.853295
0.814634
-0.449729
-0.437002
-0.388706
-0.311932
-0.219191
-0.116419
-0.00621124