0.490941 	0.00435995 	3.00033 	-3.24698e-20
0.561075 	0.00435995 	3.00033 	-3.24698e-20
0.63121 	0.00435995 	3.00033 	-3.24698e-20
0.701344 	0.00435995 	3.00033 	-3.24698e-20
0.771478 	0.00435995 	3.00033 	-3.24698e-20
0.841613 	0.00435995 	3.00033 	-3.24698e-20
0.911747 	0.0144788 	3.008 	-7.4946e-20
0.981881 	0.0144788 	3.008 	-7.4946e-20
1.05202 	0.0144788 	3.008 	-7.4946e-20
1.12215 	0.0144788 	3.008 	-7.4946e-20
1.19228 	0.0144788 	3.008 	-7.4946e-20
1.26242 	0.0144788 	3.008 	-7.4946e-20
1.33255 	0.0193173 	3.02331 	7.48945e-20
1.40269 	0.0193173 	3.02331 	7.48945e-20
1.47282 	0.0193173 	3.02331 	7.48945e-20
1.54296 	0.0193173 	3.02331 	7.48945e-20
1.61309 	0.0193173 	3.02331 	7.48945e-20
1.68323 	0.0193173 	3.02331 	7.48945e-20
1.75336 	0.0247063 	3.04251 	3.59955e-20
1.82349 	0.0247063 	3.04251 	3.59955e-20
1.89363 	0.0247063 	3.04251 	3.59955e-20
1.96376 	0.0247063 	3.04251 	3.59955e-20
2.0339 	0.0247063 	3.04251 	3.59955e-20
2.10403 	0.0247063 	3.04251 	3.59955e-20
2.17417 	0.0242432 	3.06668 	0
2.2443 	0.0242432 	3.06668 	0
2.31443 	0.0242432 	3.06668 	0
2.38457 	0.0242432 	3.06668 	0
2.4547 	0.0242432 	3.06668 	0
2.52484 	0.0242432 	3.06668 	0
2.59497 	0.0256233 	3.09072 	-1.65175e-19
2.66511 	0.0256233 	3.09072 	-1.65175e-19
2.73524 	0.0256233 	3.09072 	-1.65175e-19
2.80538 	0.0256233 	3.09072 	-1.65175e-19
2.87551 	0.0256233 	3.09072 	-1.65175e-19
2.94564 	0.0256233 	3.09072 	-1.65175e-19
3.01578 	0.0233407 	3.11626 	1.31533e-19
3.08591 	0.0233407 	3.11626 	1.31533e-19
3.15605 	0.0233407 	3.11626 	1.31533e-19
3.22618 	0.0233407 	3.11626 	1.31533e-19
3.29632 	0.0233407 	3.11626 	1.31533e-19
3.36645 	0.0233407 	3.11626 	1.31533e-19
3.43659 	0.0249356 	3.13925 	-2.43036e-19
3.50672 	0.0249356 	3.13925 	-2.43036e-19
3.57685 	0.0249356 	3.13925 	-2.43036e-19
3.64699 	0.0249356 	3.13925 	-2.43036e-19
3.71712 	0.0249356 	3.13925 	-2.43036e-19
3.78726 	0.0141184 	3.13805 	-2.69923e-19
3.85739 	0.0119503 	3.16282 	4.98411e-19
3.92753 	0.0119503 	3.16282 	4.98411e-19
3.99766 	0.0119503 	3.16282 	4.98411e-19
4.06779 	0.0119503 	3.16282 	4.98411e-19
4.13793 	0.0119503 	3.16282 	4.98411e-19
4.20806 	0.0119503 	3.16282 	4.98411e-19
4.2782 	0.0143074 	3.18378 	-2.86089e-19
4.34833 	0.0143074 	3.18378 	-2.86089e-19
4.41847 	0.0143074 	3.18378 	-2.86089e-19
4.4886 	0.0143074 	3.18378 	-2.86089e-19
4.55874 	0.0143074 	3.18378 	-2.86089e-19
4.62887 	0.0143074 	3.18378 	-2.86089e-19
4.699 	0.0143074 	3.18378 	-2.86089e-19
4.76914 	0.0119114 	3.20717 	-2.11512e-19
4.83927 	0.0119114 	3.20717 	-2.11512e-19
4.90941 	0.0119114 	3.20717 	-2.11512e-19
4.97954 	0.0119114 	3.20717 	-2.11512e-19
5.04968 	0.0119114 	3.20717 	-2.11512e-19
5.11981 	0.0119114 	3.20717 	-2.11512e-19
5.18994 	0.0140296 	3.2266 	1.85643e-19
5.26008 	0.0140296 	3.2266 	1.85643e-19
5.33021 	0.0140296 	3.2266 	1.85643e-19
5.40035 	0.0140296 	3.2266 	1.85643e-19
5.47048 	0.0140296 	3.2266 	1.85643e-19
5.54062 	0.0140296 	3.2266 	1.85643e-19
5.61075 	0.0113318 	3.24852 	-3.63795e-19
5.68089 	0.0113318 	3.24852 	-3.63795e-19
5.75102 	0.0113318 	3.24852 	-3.63795e-19
5.82115 	0.0113318 	3.24852 	-3.63795e-19
5.89129 	0.0113318 	3.24852 	-3.63795e-19
5.96142 	0.0113318 	3.24852 	-3.63795e-19
6.03156 	0.0136329 	3.26576 	3.88277e-19
6.10169 	0.0136329 	3.26576 	3.88277e-19
6.17183 	0.0136329 	3.26576 	3.88277e-19
6.24196 	0.0136329 	3.26576 	3.88277e-19
6.3121 	0.0136329 	3.26576 	3.88277e-19
6.38223 	0.0136329 	3.26576 	3.88277e-19
6.45236 	0.0111358 	3.28542 	2.27157e-20
6.5225 	0.0111358 	3.28542 	2.27157e-20
6.59263 	0.0111358 	3.28542 	2.27157e-20
6.66277 	0.0111358 	3.28542 	2.27157e-20
6.7329 	0.0111358 	3.28542 	2.27157e-20
6.80304 	0.0111358 	3.28542 	2.27157e-20
6.87317 	0.0140221 	3.29982 	-2.18215e-20
6.9433 	0.0140221 	3.29982 	-2.18215e-20
7.01344 	0.0140221 	3.29982 	-2.18215e-20
7.08357 	0.0140221 	3.29982 	-2.18215e-20
7.15371 	0.0140221 	3.29982 	-2.18215e-20
7.22384 	0.0140221 	3.29982 	-2.18215e-20
7.29398 	0.0118917 	3.31696 	0
7.36411 	0.0118917 	3.31696 	0
7.43425 	0.0118917 	3.31696 	0
7.50438 	0.0118917 	3.31696 	0
7.57451 	0.0118917 	3.31696 	0
7.64465 	0.0118917 	3.31696 	0
7.71478 	0.0118917 	3.31696 	0
7.78492 	0.0154165 	3.3286 	0
7.85505 	0.0154165 	3.3286 	0
7.92519 	0.0154165 	3.3286 	0
7.99532 	0.0154165 	3.3286 	0
8.06545 	0.0154165 	3.3286 	0
8.13559 	0.0154165 	3.3286 	0
8.20572 	0.0136506 	3.34364 	0
8.27586 	0.0136506 	3.34364 	0
8.34599 	0.0136506 	3.34364 	0
8.41613 	0.0136506 	3.34364 	0
8.48626 	0.0136506 	3.34364 	0
8.5564 	0.0136506 	3.34364 	0
8.62653 	0.0179589 	3.35302 	2.17798e-22
8.69666 	0.0179589 	3.35302 	2.17798e-22
8.7668 	0.0179589 	3.35302 	2.17798e-22
8.83693 	0.0179589 	3.35302 	2.17798e-22
8.90707 	0.0179589 	3.35302 	2.17798e-22
8.9772 	0.0179589 	3.35302 	2.17798e-22
9.04734 	0.0167423 	3.36657 	-2.71383e-19
9.11747 	0.0167423 	3.36657 	-2.71383e-19
9.18761 	0.0167423 	3.36657 	-2.71383e-19
9.25774 	0.0127302 	3.36912 	-2.74371e-20
9.32787 	0.0127302 	3.36912 	-2.74371e-20
9.39801 	0.0127302 	3.36912 	-2.74371e-20
9.46814 	0.0127302 	3.36912 	-2.74371e-20
9.53828 	0.0192199 	3.37779 	-2.81528e-19
9.60841 	0.0192199 	3.37779 	-2.81528e-19
9.67855 	0.0192199 	3.37779 	-2.81528e-19
9.74868 	0.0192199 	3.37779 	-2.81528e-19
9.81881 	0.0192199 	3.37779 	-2.81528e-19
9.88895 	0.0192199 	3.37779 	-2.81528e-19
9.95908 	0.0190163 	3.38993 	-1.68885e-20
10.0292 	0.0190163 	3.38993 	-1.68885e-20
10.0994 	0.0190163 	3.38993 	-1.68885e-20
10.1695 	0.0190163 	3.38993 	-1.68885e-20
10.2396 	0.0190163 	3.38993 	-1.68885e-20
10.3098 	0.0190163 	3.38993 	-1.68885e-20
10.3799 	0.0274619 	3.39752 	2.55277e-19
10.45 	0.0274619 	3.39752 	2.55277e-19
10.5202 	0.0274619 	3.39752 	2.55277e-19
10.5903 	0.0274619 	3.39752 	2.55277e-19
10.6604 	0.0274619 	3.39752 	2.55277e-19
10.7306 	0.0274619 	3.39752 	2.55277e-19
10.8007 	0.0290711 	3.40928 	-2.71108e-19
10.8708 	0.0290711 	3.40928 	-2.71108e-19
10.941 	0.0290711 	3.40928 	-2.71108e-19
11.0111 	0.0290711 	3.40928 	-2.71108e-19
11.0812 	0.0290711 	3.40928 	-2.71108e-19
11.1514 	0.0290711 	3.40928 	-2.71108e-19
11.2215 	0.0290711 	3.40928 	-2.71108e-19
11.2916 	0.0406794 	3.41618 	-4.77028e-19
11.3618 	0.0406794 	3.41618 	-4.77028e-19
11.4319 	0.0406794 	3.41618 	-4.77028e-19
11.502 	0.0406794 	3.41618 	-4.77028e-19
11.5722 	0.0406794 	3.41618 	-4.77028e-19
11.6423 	0.0406794 	3.41618 	-4.77028e-19
11.7124 	0.0453858 	3.42808 	4.6144e-19
11.7826 	0.0453858 	3.42808 	4.6144e-19
11.8527 	0.0453858 	3.42808 	4.6144e-19
11.9228 	0.0453858 	3.42808 	4.6144e-19
11.993 	0.0453858 	3.42808 	4.6144e-19
12.0631 	0.0453858 	3.42808 	4.6144e-19
12.1332 	0.0620917 	3.43504 	0
12.2034 	0.0620917 	3.43504 	0
12.2735 	0.0620917 	3.43504 	0
12.3437 	0.0620917 	3.43504 	0
12.4138 	0.0620917 	3.43504 	0
12.4839 	0.0620917 	3.43504 	0
12.5541 	0.0620917 	3.43504 	0
12.6242 	0.0709768 	3.44775 	-1.31467e-20
12.6943 	0.0709768 	3.44775 	-1.31467e-20
12.7645 	0.0709768 	3.44775 	-1.31467e-20
12.8346 	0.0709768 	3.44775 	-1.31467e-20
12.9047 	0.0709768 	3.44775 	-1.31467e-20
12.9749 	0.0709768 	3.44775 	-1.31467e-20
13.045 	0.0950356 	3.45581 	1.32311e-20
13.1151 	0.0950356 	3.45581 	1.32311e-20
13.1853 	0.0950356 	3.45581 	1.32311e-20
13.2554 	0.0950356 	3.45581 	1.32311e-20
13.3255 	0.0950356 	3.45581 	1.32311e-20
13.3957 	0.0950356 	3.45581 	1.32311e-20
13.4658 	0.0950356 	3.45581 	1.32311e-20
13.5359 	0.108907 	3.4699 	0
13.6061 	0.108907 	3.4699 	0
13.6762 	0.108907 	3.4699 	0
13.7463 	0.108907 	3.4699 	0
13.8165 	0.108907 	3.4699 	0
13.8866 	0.108907 	3.4699 	0
13.9567 	0.155124 	3.48295 	8.38209e-22
14.0269 	0.155124 	3.48295 	8.38209e-22
14.097 	0.155124 	3.48295 	8.38209e-22
14.1671 	0.155124 	3.48295 	8.38209e-22
14.2373 	0.155124 	3.48295 	8.38209e-22
14.3074 	0.155124 	3.48295 	8.38209e-22
14.3776 	0.153554 	3.48715 	1.40054e-19
14.4477 	0.155881 	3.51475 	-2.06828e-20
14.5178 	0.155881 	3.51475 	-2.06828e-20
14.588 	0.155881 	3.51475 	-2.06828e-20
14.6581 	0.169402 	3.50779 	0
14.7282 	0.169402 	3.50779 	0
14.7984 	0.184067 	3.53205 	-2.16301e-19
14.8685 	0.207617 	3.52195 	-2.15333e-19
14.9386 	0.207617 	3.52195 	-2.15333e-19
15.0088 	0.207617 	3.52195 	-2.15333e-19
15.0789 	0.207617 	3.52195 	-2.15333e-19
15.149 	0.225225 	3.51111 	2.16259e-19
15.2192 	0.242163 	3.54596 	1.89363e-19
15.2893 	0.242163 	3.54596 	1.89363e-19
15.3594 	0.242163 	3.54596 	1.89363e-19
15.4296 	0.263337 	3.52518 	-6.08634e-19
15.4997 	0.263337 	3.52518 	-6.08634e-19
15.5698 	0.278406 	3.55417 	3.31608e-19
15.64 	0.278406 	3.55417 	3.31608e-19
15.7101 	0.278406 	3.55417 	3.31608e-19
15.7802 	0.297193 	3.54684 	-5.4313e-19
15.8504 	0.297193 	3.54684 	-5.4313e-19
15.9205 	0.316452 	3.56216 	-1.57499e-19
15.9906 	0.316452 	3.56216 	-1.57499e-19
16.0608 	0.316452 	3.56216 	-1.57499e-19
16.1309 	0.34161 	3.54285 	0
16.201 	0.34161 	3.54285 	0
16.2712 	0.354653 	3.57568 	0
16.3413 	0.354653 	3.57568 	0
16.4114 	0.354653 	3.57568 	0
16.4816 	0.354653 	3.57568 	0
16.5517 	0.37136 	3.55366 	-2.28494e-19
16.6219 	0.4056 	3.57339 	5.54974e-20
16.692 	0.4056 	3.57339 	5.54974e-20
16.7621 	0.4056 	3.57339 	5.54974e-20
16.8323 	0.4056 	3.57339 	5.54974e-20
16.9024 	0.4056 	3.57339 	5.54974e-20
16.9725 	0.446286 	3.567 	0
17.0427 	0.446286 	3.567 	0
17.1128 	0.446286 	3.567 	0
17.1829 	0.446286 	3.567 	0
17.2531 	0.47429 	3.58543 	0
17.3232 	0.47429 	3.58543 	0
17.3933 	0.47429 	3.58543 	0
17.4635 	0.499756 	3.5668 	2.06933e-19
17.5336 	0.499756 	3.5668 	2.06933e-19
17.6037 	0.519992 	3.57465 	0
17.6739 	0.519992 	3.57465 	0
17.744 	0.519992 	3.57465 	0
17.8141 	0.519992 	3.57465 	0
17.8843 	0.519992 	3.57465 	0
17.9544 	0.576071 	3.56323 	1.9481e-19
18.0245 	0.576071 	3.56323 	1.9481e-19
18.0947 	0.576071 	3.56323 	1.9481e-19
18.1648 	0.576071 	3.56323 	1.9481e-19
18.2349 	0.590888 	3.57375 	-2.79137e-19
18.3051 	0.590888 	3.57375 	-2.79137e-19
18.3752 	0.590888 	3.57375 	-2.79137e-19
18.4453 	0.590888 	3.57375 	-2.79137e-19
18.5155 	0.590888 	3.57375 	-2.79137e-19
18.5856 	0.631512 	3.55488 	-3.99438e-19
18.6557 	0.631512 	3.55488 	-3.99438e-19
18.7259 	0.631512 	3.55488 	-3.99438e-19
18.796 	0.631512 	3.55488 	-3.99438e-19
18.8662 	0.64919 	3.56596 	3.46005e-19
18.9363 	0.64919 	3.56596 	3.46005e-19
19.0064 	0.64919 	3.56596 	3.46005e-19
19.0766 	0.64919 	3.56596 	3.46005e-19
19.1467 	0.64919 	3.56596 	3.46005e-19
19.2168 	0.67561 	3.58312 	6.9532e-20
19.287 	0.671755 	3.53789 	2.25493e-19
19.3571 	0.671755 	3.53789 	2.25493e-19
19.4272 	0.671755 	3.53789 	2.25493e-19
19.4974 	0.671755 	3.53789 	2.25493e-19
19.5675 	0.694016 	3.55283 	5.50844e-20
19.6376 	0.694016 	3.55283 	5.50844e-20
19.7078 	0.694016 	3.55283 	5.50844e-20
19.7779 	0.694016 	3.55283 	5.50844e-20
19.848 	0.694016 	3.55283 	5.50844e-20
19.9182 	0.723466 	3.57157 	-9.61401e-20
19.9883 	0.723466 	3.57157 	-9.61401e-20
20.0584 	0.696419 	3.49802 	0
20.1286 	0.696419 	3.49802 	0
20.1987 	0.696419 	3.49802 	0
20.2688 	0.722346 	3.52639 	7.78115e-20
20.339 	0.722346 	3.52639 	7.78115e-20
20.4091 	0.722346 	3.52639 	7.78115e-20
20.4792 	0.722346 	3.52639 	7.78115e-20
20.5494 	0.722346 	3.52639 	7.78115e-20
20.6195 	0.756627 	3.55244 	-2.85045e-20
20.6896 	0.756627 	3.55244 	-2.85045e-20
20.7598 	0.756627 	3.55244 	-2.85045e-20
20.8299 	0.756627 	3.55244 	-2.85045e-20
20.9 	0.703995 	3.38219 	4.03944e-19
20.9702 	0.733609 	3.44602 	1.73912e-19
21.0403 	0.733609 	3.44602 	1.73912e-19
21.1105 	0.733609 	3.44602 	1.73912e-19
21.1806 	0.733609 	3.44602 	1.73912e-19
21.2507 	0.733609 	3.44602 	1.73912e-19
21.3209 	0.770708 	3.49633 	-1.18906e-19
21.391 	0.770708 	3.49633 	-1.18906e-19
21.4611 	0.770708 	3.49633 	-1.18906e-19
21.5313 	0.770708 	3.49633 	-1.18906e-19
21.6014 	0.770708 	3.49633 	-1.18906e-19
21.6715 	0.770708 	3.49633 	-1.18906e-19
21.7417 	0.794975 	3.52561 	2.46812e-20
21.8118 	0.794975 	3.52561 	2.46812e-20
21.8819 	0.794975 	3.52561 	2.46812e-20
21.9521 	0.724223 	3.23027 	5.93657e-20
22.0222 	0.724223 	3.23027 	5.93657e-20
22.0923 	0.763293 	3.33028 	1.88641e-19
22.1625 	0.763293 	3.33028 	1.88641e-19
22.2326 	0.763293 	3.33028 	1.88641e-19
22.3027 	0.763293 	3.33028 	1.88641e-19
22.3729 	0.763293 	3.33028 	1.88641e-19
22.443 	0.763293 	3.33028 	1.88641e-19
22.5131 	0.793746 	3.40306 	-3.89729e-20
22.5833 	0.793746 	3.40306 	-3.89729e-20
22.6534 	0.793746 	3.40306 	-3.89729e-20
22.7235 	0.793746 	3.40306 	-3.89729e-20
22.7937 	0.793746 	3.40306 	-3.89729e-20
22.8638 	0.828545 	3.4614 	-9.31387e-20
22.9339 	0.828545 	3.4614 	-9.31387e-20
23.0041 	0.828545 	3.4614 	-9.31387e-20
23.0742 	0.713432 	2.87346 	1.54442e-19
23.1443 	0.713432 	2.87346 	1.54442e-19
23.2145 	0.713432 	2.87346 	1.54442e-19
23.2846 	0.755393 	3.03456 	1.50777e-20
23.3548 	0.755393 	3.03456 	1.50777e-20
23.4249 	0.755393 	3.03456 	1.50777e-20
23.495 	0.755393 	3.03456 	1.50777e-20
23.5652 	0.755393 	3.03456 	1.50777e-20
23.6353 	0.755393 	3.03456 	1.50777e-20
23.7054 	0.792873 	3.14961 	3.02118e-20
23.7756 	0.792873 	3.14961 	3.02118e-20
23.8457 	0.792873 	3.14961 	3.02118e-20
23.9158 	0.792873 	3.14961 	3.02118e-20
23.986 	0.792873 	3.14961 	3.02118e-20
24.0561 	0.792873 	3.14961 	3.02118e-20
24.1262 	0.828304 	3.25726 	0
24.1964 	0.828304 	3.25726 	0
24.2665 	0.828304 	3.25726 	0
24.3366 	0.828304 	3.25726 	0
24.4068 	0.828304 	3.25726 	0
24.4769 	0.667855 	2.41622 	5.9066e-20
24.547 	0.667855 	2.41622 	5.9066e-20
24.6172 	0.693452 	2.50188 	1.05174e-20
24.6873 	0.693452 	2.50188 	1.05174e-20
24.7574 	0.693452 	2.50188 	1.05174e-20
24.8276 	0.693452 	2.50188 	1.05174e-20
24.8977 	0.693452 	2.50188 	1.05174e-20
24.9678 	0.693452 	2.50188 	1.05174e-20
25.038 	0.740467 	2.68385 	-5.93704e-21
25.1081 	0.740467 	2.68385 	-5.93704e-21
25.1782 	0.740467 	2.68385 	-5.93704e-21
25.2484 	0.740467 	2.68385 	-5.93704e-21
25.3185 	0.740467 	2.68385 	-5.93704e-21
25.3886 	0.740467 	2.68385 	-5.93704e-21
25.4588 	0.765924 	2.75402 	0
25.5289 	0.765924 	2.75402 	0
25.5991 	0.765924 	2.75402 	0
25.6692 	0.765924 	2.75402 	0
25.7393 	0.765924 	2.75402 	0
25.8095 	0.765924 	2.75402 	0
25.8796 	0.765924 	2.75402 	0
25.9497 	0.809918 	2.90343 	-5.50902e-20
26.0199 	0.809918 	2.90343 	-5.50902e-20
26.09 	0.624844 	2.05487 	-3.16342e-20
26.1601 	0.624844 	2.05487 	-3.16342e-20
26.2303 	0.624844 	2.05487 	-3.16342e-20
26.3004 	0.624844 	2.05487 	-3.16342e-20
26.3705 	0.624844 	2.05487 	-3.16342e-20
26.4407 	0.639207 	2.09597 	9.57731e-20
26.5108 	0.639207 	2.09597 	9.57731e-20
26.5809 	0.639207 	2.09597 	9.57731e-20
26.6511 	0.639207 	2.09597 	9.57731e-20
26.7212 	0.639207 	2.09597 	9.57731e-20
26.7913 	0.639207 	2.09597 	9.57731e-20
26.8615 	0.639207 	2.09597 	9.57731e-20
26.9316 	0.667318 	2.18881 	-6.96015e-20
27.0017 	0.667318 	2.18881 	-6.96015e-20
27.0719 	0.667318 	2.18881 	-6.96015e-20
27.142 	0.667318 	2.18881 	-6.96015e-20
27.2121 	0.667318 	2.18881 	-6.96015e-20
27.2823 	0.667318 	2.18881 	-6.96015e-20
27.3524 	0.680024 	2.22014 	-3.31504e-20
27.4225 	0.680024 	2.22014 	-3.31504e-20
27.4927 	0.680024 	2.22014 	-3.31504e-20
27.5628 	0.680024 	2.22014 	-3.31504e-20
27.6329 	0.680024 	2.22014 	-3.31504e-20
27.7031 	0.680024 	2.22014 	-3.31504e-20
27.7732 	0.680024 	2.22014 	-3.31504e-20
27.8434 	0.680024 	2.22014 	-3.31504e-20
27.9135 	0.702003 	2.29548 	-3.85142e-20
27.9836 	0.702003 	2.29548 	-3.85142e-20
28.0538 	0.702003 	2.29548 	-3.85142e-20
28.1239 	0.702003 	2.29548 	-3.85142e-20
28.194 	0.702003 	2.29548 	-3.85142e-20
28.2642 	0.702003 	2.29548 	-3.85142e-20
28.3343 	0.560947 	1.78997 	4.52193e-20
28.4044 	0.560098 	1.80464 	-7.70559e-20
28.4746 	0.560098 	1.80464 	-7.70559e-20
28.5447 	0.560098 	1.80464 	-7.70559e-20
28.6148 	0.560098 	1.80464 	-7.70559e-20
28.685 	0.560098 	1.80464 	-7.70559e-20
28.7551 	0.560098 	1.80464 	-7.70559e-20
28.8252 	0.560098 	1.80464 	-7.70559e-20
28.8954 	0.560098 	1.80464 	-7.70559e-20
28.9655 	0.566848 	1.83695 	-9.64781e-20
29.0356 	0.566848 	1.83695 	-9.64781e-20
29.1058 	0.566848 	1.83695 	-9.64781e-20
29.1759 	0.566848 	1.83695 	-9.64781e-20
29.246 	0.566848 	1.83695 	-9.64781e-20
29.3162 	0.566848 	1.83695 	-9.64781e-20
29.3863 	0.566848 	1.83695 	-9.64781e-20
29.4564 	0.563457 	1.84399 	9.04478e-20
29.5266 	0.563457 	1.84399 	9.04478e-20
29.5967 	0.563457 	1.84399 	9.04478e-20
29.6668 	0.563457 	1.84399 	9.04478e-20
29.737 	0.563457 	1.84399 	9.04478e-20
29.8071 	0.563457 	1.84399 	9.04478e-20
29.8773 	0.563457 	1.84399 	9.04478e-20
29.9474 	0.563457 	1.84399 	9.04478e-20
30.0175 	0.562853 	1.86041 	-9.75171e-20
30.0877 	0.562853 	1.86041 	-9.75171e-20
30.1578 	0.562853 	1.86041 	-9.75171e-20
30.2279 	0.562853 	1.86041 	-9.75171e-20
30.2981 	0.562853 	1.86041 	-9.75171e-20
30.3682 	0.562853 	1.86041 	-9.75171e-20
30.4383 	0.562853 	1.86041 	-9.75171e-20
30.5085 	0.562853 	1.86041 	-9.75171e-20
30.5786 	0.563103 	1.85522 	1.75336e-19
30.6487 	0.563103 	1.85522 	1.75336e-19
30.7189 	0.563103 	1.85522 	1.75336e-19
30.789 	0.563103 	1.85522 	1.75336e-19
30.8591 	0.563103 	1.85522 	1.75336e-19
30.9293 	0.563103 	1.85522 	1.75336e-19
30.9994 	0.563103 	1.85522 	1.75336e-19
31.0695 	0.563103 	1.85522 	1.75336e-19
31.1397 	0.566333 	1.85668 	-9.61406e-20
31.2098 	0.566333 	1.85668 	-9.61406e-20
31.2799 	0.566333 	1.85668 	-9.61406e-20
31.3501 	0.566333 	1.85668 	-9.61406e-20
31.4202 	0.566333 	1.85668 	-9.61406e-20
31.4903 	0.566333 	1.85668 	-9.61406e-20
31.5605 	0.53644 	1.69888 	1.54421e-19
31.6306 	0.53644 	1.69888 	1.54421e-19
31.7007 	0.536813 	1.69781 	-4.81585e-20
31.7709 	0.536813 	1.69781 	-4.81585e-20
31.841 	0.536813 	1.69781 	-4.81585e-20
31.9111 	0.536813 	1.69781 	-4.81585e-20
31.9813 	0.536813 	1.69781 	-4.81585e-20
32.0514 	0.536813 	1.69781 	-4.81585e-20
32.1216 	0.536813 	1.69781 	-4.81585e-20
32.1917 	0.536813 	1.69781 	-4.81585e-20
32.2618 	0.536813 	1.69781 	-4.81585e-20
32.332 	0.539548 	1.69502 	0
32.4021 	0.539548 	1.69502 	0
32.4722 	0.539548 	1.69502 	0
32.5424 	0.539548 	1.69502 	0
32.6125 	0.539548 	1.69502 	0
32.6826 	0.539548 	1.69502 	0
32.7528 	0.539548 	1.69502 	0
32.8229 	0.539548 	1.69502 	0
32.893 	0.539548 	1.69502 	0
32.9632 	0.537193 	1.68458 	0
33.0333 	0.537193 	1.68458 	0
33.1034 	0.537193 	1.68458 	0
33.1736 	0.537193 	1.68458 	0
33.2437 	0.537193 	1.68458 	0
33.3138 	0.537193 	1.68458 	0
33.384 	0.537193 	1.68458 	0
33.4541 	0.537193 	1.68458 	0
33.5242 	0.537193 	1.68458 	0
33.5944 	0.53808 	1.67031 	2.45443e-20
33.6645 	0.53808 	1.67031 	2.45443e-20
33.7346 	0.53808 	1.67031 	2.45443e-20
33.8048 	0.53808 	1.67031 	2.45443e-20
33.8749 	0.53808 	1.67031 	2.45443e-20
33.945 	0.53808 	1.67031 	2.45443e-20
34.0152 	0.53808 	1.67031 	2.45443e-20
34.0853 	0.53808 	1.67031 	2.45443e-20
34.1554 	0.53808 	1.67031 	2.45443e-20
34.2256 	0.530303 	1.64982 	-2.04922e-20
34.2957 	0.530303 	1.64982 	-2.04922e-20
34.3659 	0.530303 	1.64982 	-2.04922e-20
34.436 	0.530303 	1.64982 	-2.04922e-20
34.5061 	0.530303 	1.64982 	-2.04922e-20
34.5763 	0.530303 	1.64982 	-2.04922e-20
34.6464 	0.530303 	1.64982 	-2.04922e-20
34.7165 	0.530303 	1.64982 	-2.04922e-20
34.7867 	0.530303 	1.64982 	-2.04922e-20
34.8568 	0.530303 	1.64982 	-2.04922e-20
34.9269 	0.516144 	1.62321 	3.49675e-20
34.9971 	0.516144 	1.62321 	3.49675e-20
35.0672 	0.516144 	1.62321 	3.49675e-20
35.1373 	0.516144 	1.62321 	3.49675e-20
35.2075 	0.516144 	1.62321 	3.49675e-20
35.2776 	0.516144 	1.62321 	3.49675e-20
35.3477 	0.516144 	1.62321 	3.49675e-20
35.4179 	0.516144 	1.62321 	3.49675e-20
35.488 	0.516144 	1.62321 	3.49675e-20
35.5581 	0.516144 	1.62321 	3.49675e-20
35.6283 	0.489747 	1.59355 	-9.44027e-21
35.6984 	0.489747 	1.59355 	-9.44027e-21
35.7685 	0.489747 	1.59355 	-9.44027e-21
35.8387 	0.489747 	1.59355 	-9.44027e-21
35.9088 	0.489747 	1.59355 	-9.44027e-21
35.9789 	0.489747 	1.59355 	-9.44027e-21
36.0491 	0.489747 	1.59355 	-9.44027e-21
36.1192 	0.489747 	1.59355 	-9.44027e-21
36.1893 	0.489747 	1.59355 	-9.44027e-21
36.2595 	0.489747 	1.59355 	-9.44027e-21
36.3296 	0.454187 	1.56683 	5.02744e-21
36.3997 	0.454187 	1.56683 	5.02744e-21
36.4699 	0.454187 	1.56683 	5.02744e-21
36.54 	0.454187 	1.56683 	5.02744e-21
36.6102 	0.454187 	1.56683 	5.02744e-21
36.6803 	0.454187 	1.56683 	5.02744e-21
36.7504 	0.454187 	1.56683 	5.02744e-21
36.8206 	0.454187 	1.56683 	5.02744e-21
36.8907 	0.454187 	1.56683 	5.02744e-21
36.9608 	0.454187 	1.56683 	5.02744e-21
37.031 	0.454187 	1.56683 	5.02744e-21
37.1011 	0.415266 	1.54783 	0
37.1712 	0.415266 	1.54783 	0
37.2414 	0.415266 	1.54783 	0
37.3115 	0.415266 	1.54783 	0
37.3816 	0.415266 	1.54783 	0
37.4518 	0.415266 	1.54783 	0
37.5219 	0.415266 	1.54783 	0
37.592 	0.415266 	1.54783 	0
37.6622 	0.378238 	1.53416 	0
37.7323 	0.378238 	1.53416 	0
37.8024 	0.378238 	1.53416 	0
37.8726 	0.378238 	1.53416 	0
37.9427 	0.378238 	1.53416 	0
38.0128 	0.378238 	1.53416 	0
38.083 	0.378238 	1.53416 	0
38.1531 	0.378238 	1.53416 	0
38.2232 	0.378238 	1.53416 	0
38.2934 	0.341887 	1.52444 	0
38.3635 	0.341887 	1.52444 	0
38.4336 	0.341887 	1.52444 	0
38.5038 	0.341887 	1.52444 	0
38.5739 	0.341887 	1.52444 	0
38.644 	0.341887 	1.52444 	0
38.7142 	0.341887 	1.52444 	0
38.7843 	0.341887 	1.52444 	0
38.8545 	0.341887 	1.52444 	0
38.9246 	0.306918 	1.5189 	0
38.9947 	0.306918 	1.5189 	0
39.0649 	0.306918 	1.5189 	0
39.135 	0.306918 	1.5189 	0
39.2051 	0.306918 	1.5189 	0
39.2753 	0.306918 	1.5189 	0
39.3454 	0.306918 	1.5189 	0
39.4155 	0.306918 	1.5189 	0
39.4857 	0.306918 	1.5189 	0
39.5558 	0.272851 	1.51713 	0
39.6259 	0.272851 	1.51713 	0
39.6961 	0.272851 	1.51713 	0
39.7662 	0.272851 	1.51713 	0
39.8363 	0.272851 	1.51713 	0
39.9065 	0.272851 	1.51713 	0
39.9766 	0.272851 	1.51713 	0
40.0467 	0.272851 	1.51713 	0
40.1169 	0.23971 	1.5172 	0
40.187 	0.23971 	1.5172 	0
40.2571 	0.23971 	1.5172 	0
40.3273 	0.23971 	1.5172 	0
40.3974 	0.23971 	1.5172 	0
40.4675 	0.23971 	1.5172 	0
40.5377 	0.23971 	1.5172 	0
40.6078 	0.23971 	1.5172 	0
40.6779 	0.23971 	1.5172 	0
40.7481 	0.207038 	1.51712 	0
40.8182 	0.207038 	1.51712 	0
40.8883 	0.207038 	1.51712 	0
40.9585 	0.207038 	1.51712 	0
41.0286 	0.207038 	1.51712 	0
41.0988 	0.207038 	1.51712 	0
41.1689 	0.207038 	1.51712 	0
41.239 	0.207038 	1.51712 	0
41.3092 	0.207038 	1.51712 	0
41.3793 	0.175316 	1.5158 	0
41.4494 	0.175316 	1.5158 	0
41.5196 	0.175316 	1.5158 	0
41.5897 	0.175316 	1.5158 	0
41.6598 	0.175316 	1.5158 	0
41.73 	0.175316 	1.5158 	0
41.8001 	0.175316 	1.5158 	0
41.8702 	0.175316 	1.5158 	0
41.9404 	0.175316 	1.5158 	0
42.0105 	0.145268 	1.51459 	0
42.0806 	0.145268 	1.51459 	0
42.1508 	0.145268 	1.51459 	0
42.2209 	0.145268 	1.51459 	0
42.291 	0.145268 	1.51459 	0
42.3612 	0.145268 	1.51459 	0
42.4313 	0.145268 	1.51459 	0
42.5014 	0.145268 	1.51459 	0
42.5716 	0.145268 	1.51459 	0
42.6417 	0.117693 	1.51436 	0
42.7118 	0.117693 	1.51436 	0
42.782 	0.117693 	1.51436 	0
42.8521 	0.117693 	1.51436 	0
42.9222 	0.117693 	1.51436 	0
42.9924 	0.117693 	1.51436 	0
43.0625 	0.117693 	1.51436 	0
43.1327 	0.117693 	1.51436 	0
43.2028 	0.0925783 	1.51408 	0
43.2729 	0.0925783 	1.51408 	0
43.3431 	0.0925783 	1.51408 	0
43.4132 	0.0925783 	1.51408 	0
43.4833 	0.0925783 	1.51408 	0
43.5535 	0.0925783 	1.51408 	0
43.6236 	0.0925783 	1.51408 	0
43.6937 	0.0925783 	1.51408 	0
43.7639 	0.0925783 	1.51408 	0
43.834 	0.0697378 	1.51239 	0
43.9041 	0.0697378 	1.51239 	0
43.9743 	0.0697378 	1.51239 	0
44.0444 	0.0697378 	1.51239 	0
44.1145 	0.0697378 	1.51239 	0
44.1847 	0.0697378 	1.51239 	0
44.2548 	0.0697378 	1.51239 	0
44.3249 	0.0697378 	1.51239 	0
44.3951 	0.0697378 	1.51239 	0
44.4652 	0.0493352 	1.50901 	0
44.5353 	0.0493352 	1.50901 	0
44.6055 	0.0493352 	1.50901 	0
44.6756 	0.0493352 	1.50901 	0
44.7457 	0.0493352 	1.50901 	0
44.8159 	0.0493352 	1.50901 	0
44.886 	0.0493352 	1.50901 	0
44.9561 	0.0493352 	1.50901 	0
45.0263 	0.0493352 	1.50901 	0
45.0964 	0.0313082 	1.50451 	0
45.1665 	0.0313082 	1.50451 	0
45.2367 	0.0313082 	1.50451 	0
45.3068 	0.0313082 	1.50451 	0
45.377 	0.0313082 	1.50451 	0
45.4471 	0.0313082 	1.50451 	0
45.5172 	0.0313082 	1.50451 	0
45.5874 	0.0313082 	1.50451 	0
45.6575 	0.015835 	1.49923 	0
45.7276 	0.015835 	1.49923 	0
45.7978 	0.015835 	1.49923 	0
45.8679 	0.015835 	1.49923 	0
45.938 	0.015835 	1.49923 	0
46.0082 	0.015835 	1.49923 	0
46.0783 	0.015835 	1.49923 	0
46.1484 	0.015835 	1.49923 	0
46.2186 	0.015835 	1.49923 	0
46.2887 	0.00317403 	1.49307 	0
46.3588 	0.00317403 	1.49307 	0
46.429 	0.00317403 	1.49307 	0
46.4991 	0.00317403 	1.49307 	0
46.5692 	0.00317403 	1.49307 	0
46.6394 	0.00317403 	1.49307 	0
46.7095 	0.00317403 	1.49307 	0
46.7796 	0.0087272 	1.46799 	0
46.8498 	0.0087272 	1.46799 	0
46.9199 	-0.000281158 	1.46423 	0
46.99 	-0.000281158 	1.46423 	0
47.0602 	-0.000281158 	1.46423 	0
47.1303 	-0.000281158 	1.46423 	0
47.2004 	-0.000281158 	1.46423 	0
47.2706 	-0.000281158 	1.46423 	0
47.3407 	-0.000281158 	1.46423 	0
47.4108 	-0.000281158 	1.46423 	0
47.481 	-0.000281158 	1.46423 	0
47.5511 	-0.00747302 	1.45954 	0
47.6213 	-0.00747302 	1.45954 	0
47.6914 	-0.00747302 	1.45954 	0
47.7615 	-0.00747302 	1.45954 	0
47.8317 	-0.00747302 	1.45954 	0
47.9018 	-0.00747302 	1.45954 	0
47.9719 	-0.00747302 	1.45954 	0
48.0421 	-0.00747302 	1.45954 	0
48.1122 	-0.00747302 	1.45954 	0
48.1823 	-0.0136685 	1.45501 	0
48.2525 	-0.0136685 	1.45501 	0
48.3226 	-0.0136685 	1.45501 	0
48.3927 	-0.0136685 	1.45501 	0
48.4629 	-0.0136685 	1.45501 	0
48.533 	-0.0136685 	1.45501 	0
48.6031 	-0.0136685 	1.45501 	0
48.6733 	-0.0136685 	1.45501 	0
48.7434 	-0.0186417 	1.45054 	0
48.8135 	-0.0186417 	1.45054 	0
48.8837 	-0.0186417 	1.45054 	0
48.9538 	-0.0186417 	1.45054 	0
49.0239 	-0.0186417 	1.45054 	0
49.0941 	-0.0186417 	1.45054 	0
49.1642 	-0.0186417 	1.45054 	0
49.2343 	-0.0186417 	1.45054 	0
49.3045 	-0.0186417 	1.45054 	0
49.3746 	-0.0222264 	1.44648 	0
49.4447 	-0.0222264 	1.44648 	0
49.5149 	-0.0222264 	1.44648 	0
49.585 	-0.0222264 	1.44648 	0
49.6551 	-0.0222264 	1.44648 	0
49.7253 	-0.0222264 	1.44648 	0
49.7954 	-0.0222264 	1.44648 	0
49.8656 	-0.0222264 	1.44648 	0
49.9357 	-0.0222264 	1.44648 	0
50.0058 	-0.0254181 	1.44216 	0
50.076 	-0.0254181 	1.44216 	0
50.1461 	-0.0254181 	1.44216 	0
50.2162 	-0.0254181 	1.44216 	0
50.2864 	-0.0254181 	1.44216 	0
50.3565 	-0.0254181 	1.44216 	0
50.4266 	-0.0254181 	1.44216 	0
50.4968 	-0.0254181 	1.44216 	0
50.5669 	-0.0254181 	1.44216 	0
50.637 	-0.0282873 	1.43883 	0
50.7072 	-0.0282873 	1.43883 	0
50.7773 	-0.0282873 	1.43883 	0
50.8474 	-0.0282873 	1.43883 	0
50.9176 	-0.0282873 	1.43883 	0
50.9877 	-0.0282873 	1.43883 	0
51.0578 	-0.0282873 	1.43883 	0
51.128 	-0.0282873 	1.43883 	0
51.1981 	-0.0282873 	1.43883 	0
51.2682 	-0.0312707 	1.43574 	0
51.3384 	-0.0312707 	1.43574 	0
51.4085 	-0.0312707 	1.43574 	0
51.4786 	-0.0312707 	1.43574 	0
51.5488 	-0.0312707 	1.43574 	0
51.6189 	-0.0312707 	1.43574 	0
51.689 	-0.0312707 	1.43574 	0
51.7592 	-0.0312707 	1.43574 	0
51.8293 	-0.0339935 	1.43396 	0
51.8994 	-0.0339935 	1.43396 	0
51.9696 	-0.0339935 	1.43396 	0
52.0397 	-0.0339935 	1.43396 	0
52.1099 	-0.0339935 	1.43396 	0
52.18 	-0.0339935 	1.43396 	0
52.2501 	-0.0339935 	1.43396 	0
52.3203 	-0.0339935 	1.43396 	0
52.3904 	-0.0339935 	1.43396 	0
52.4605 	-0.0365573 	1.43275 	0
52.5307 	-0.0365573 	1.43275 	0
52.6008 	-0.0365573 	1.43275 	0
52.6709 	-0.0365573 	1.43275 	0
52.7411 	-0.0365573 	1.43275 	0
52.8112 	-0.0365573 	1.43275 	0
52.8813 	-0.0365573 	1.43275 	0
52.9515 	-0.0365573 	1.43275 	0
53.0216 	-0.0365573 	1.43275 	0
53.0917 	-0.0381453 	1.43321 	0
53.1619 	-0.0381453 	1.43321 	0
53.232 	-0.0381453 	1.43321 	0
53.3021 	-0.0381453 	1.43321 	0
53.3723 	-0.0381453 	1.43321 	0
53.4424 	-0.0381453 	1.43321 	0
53.5125 	-0.0381453 	1.43321 	0
53.5827 	-0.0381453 	1.43321 	0
53.6528 	-0.0381453 	1.43321 	0
53.7229 	-0.0394589 	1.43425 	0
53.7931 	-0.0394589 	1.43425 	0
53.8632 	-0.0394589 	1.43425 	0
53.9333 	-0.0394589 	1.43425 	0
54.0035 	-0.0394589 	1.43425 	0
54.0736 	-0.0394589 	1.43425 	0
54.1437 	-0.0394589 	1.43425 	0
54.2139 	-0.0394589 	1.43425 	0
54.284 	-0.0403689 	1.4372 	0
54.3542 	-0.0403689 	1.4372 	0
54.4243 	-0.0403689 	1.4372 	0
54.4944 	-0.0403689 	1.4372 	0
54.5646 	-0.0403689 	1.4372 	0
54.6347 	-0.0403689 	1.4372 	0
54.7048 	-0.0403689 	1.4372 	0
54.775 	-0.0403689 	1.4372 	0
54.8451 	-0.0403689 	1.4372 	0
54.9152 	-0.0412069 	1.44099 	0
54.9854 	-0.0412069 	1.44099 	0
55.0555 	-0.0412069 	1.44099 	0
55.1256 	-0.0412069 	1.44099 	0
55.1958 	-0.0412069 	1.44099 	0
55.2659 	-0.0412069 	1.44099 	0
55.336 	-0.0412069 	1.44099 	0
55.4062 	-0.0412069 	1.44099 	0
55.4763 	-0.0412069 	1.44099 	0
55.5464 	-0.0411688 	1.4463 	0
55.6166 	-0.0411688 	1.4463 	0
55.6867 	-0.0411688 	1.4463 	0
55.7568 	-0.0411688 	1.4463 	0
55.827 	-0.0411688 	1.4463 	0
55.8971 	-0.0411688 	1.4463 	0
55.9672 	-0.0411688 	1.4463 	0
56.0374 	-0.0411688 	1.4463 	0
56.1075 	-0.0411688 	1.4463 	0
56.1776 	-0.0399316 	1.45216 	0
56.2478 	-0.0399316 	1.45216 	0
56.3179 	-0.0399316 	1.45216 	0
56.3881 	-0.0399316 	1.45216 	0
56.4582 	-0.0399316 	1.45216 	0
56.5283 	-0.0399316 	1.45216 	0
56.5985 	-0.0399316 	1.45216 	0
56.6686 	-0.0399316 	1.45216 	0
56.7387 	-0.0399316 	1.45216 	0
56.8089 	-0.0366799 	1.45775 	0
56.879 	-0.0366799 	1.45775 	0
56.9491 	-0.0366799 	1.45775 	0
57.0193 	-0.0366799 	1.45775 	0
57.0894 	-0.0366799 	1.45775 	0
57.1595 	-0.0366799 	1.45775 	0
57.2297 	-0.0366799 	1.45775 	0
57.2998 	-0.0366799 	1.45775 	0
57.3699 	-0.0315073 	1.46393 	0
57.4401 	-0.0315073 	1.46393 	0
57.5102 	-0.0315073 	1.46393 	0
57.5803 	-0.0315073 	1.46393 	0
57.6505 	-0.0315073 	1.46393 	0
57.7206 	-0.0315073 	1.46393 	0
57.7907 	-0.0315073 	1.46393 	0
57.8609 	-0.0315073 	1.46393 	0
57.931 	-0.0315073 	1.46393 	0
58.0011 	-0.0242158 	1.46804 	0
58.0713 	-0.0242158 	1.46804 	0
58.1414 	-0.0242158 	1.46804 	0
58.2115 	-0.0242158 	1.46804 	0
58.2817 	-0.0242158 	1.46804 	0
58.3518 	-0.0242158 	1.46804 	0
58.4219 	-0.0242158 	1.46804 	0
58.4921 	-0.0242158 	1.46804 	0
58.5622 	-0.0242158 	1.46804 	0
58.6324 	-0.016472 	1.47247 	0
58.7025 	-0.016472 	1.47247 	0
58.7726 	-0.016472 	1.47247 	0
58.8428 	-0.016472 	1.47247 	0
58.9129 	-0.016472 	1.47247 	0
58.983 	-0.016472 	1.47247 	0
59.0532 	-0.016472 	1.47247 	0