/*--------------------------------*- C++ -*----------------------------------*\
  =========                 |
  \\      /  F ield         | OpenFOAM: The Open Source CFD Toolbox
   \\    /   O peration     | Website:  https://openfoam.org
    \\  /    A nd           | Version:  6
     \\/     M anipulation  |
\*---------------------------------------------------------------------------*/
FoamFile
{
    version     2.0;
    format      ascii;
    class       volVectorField;
    location    "74";
    object      U;
}
// * * * * * * * * * * * * * * * * * * * * * * * * * * * * * * * * * * * * * //

dimensions      [0 1 -1 0 0 0 0];

internalField   nonuniform List<vector> 
2200
(
(0.877609 -0.0201798 0)
(1.00469 -0.0399833 0)
(1.00279 -0.0342798 0)
(1.00026 -0.0231955 0)
(0.999877 -0.0154687 0)
(1.00005 -0.0101111 0)
(1.00005 -0.00643625 0)
(1.00006 -0.00393721 0)
(1.00015 -0.00213675 0)
(1.00012 -0.00058983 0)
(1.00018 0.000736138 0)
(1.00047 0.00226165 0)
(1.0004 0.0041481 0)
(1.00028 0.00671476 0)
(1.00013 0.010386 0)
(0.999937 0.0157053 0)
(1.00045 0.0232694 0)
(1.00308 0.0341066 0)
(1.00471 0.0400665 0)
(0.877643 0.0201916 0)
(0.700842 -0.0265864 0)
(0.993616 -0.0586112 0)
(1.02977 -0.0596427 0)
(1.02186 -0.0487752 0)
(1.0139 -0.0360316 0)
(1.00823 -0.0249316 0)
(1.00499 -0.0165624 0)
(1.00312 -0.0104182 0)
(1.00195 -0.00562808 0)
(1.0016 -0.00146762 0)
(1.00145 0.00295569 0)
(1.00166 0.00704611 0)
(1.00275 0.0115949 0)
(1.00469 0.0174242 0)
(1.00802 0.0255708 0)
(1.01359 0.0365695 0)
(1.0214 0.0494635 0)
(1.02921 0.060557 0)
(0.993514 0.0587133 0)
(0.700554 0.0266174 0)
(0.530478 -0.0214099 0)
(0.966298 -0.0552497 0)
(1.05273 -0.0606278 0)
(1.04837 -0.0532446 0)
(1.03237 -0.0415011 0)
(1.02138 -0.0316223 0)
(1.01389 -0.0228568 0)
(1.00924 -0.0153192 0)
(1.00656 -0.00859694 0)
(1.00525 -0.00224229 0)
(1.00526 0.00393666 0)
(1.00662 0.0101704 0)
(1.00929 0.0167704 0)
(1.01374 0.0242799 0)
(1.02097 0.0329539 0)
(1.03192 0.0426517 0)
(1.04811 0.0540215 0)
(1.05272 0.0604467 0)
(0.965457 0.0556473 0)
(0.529265 0.0215712 0)
(0.393219 -0.0132566 0)
(0.909981 -0.0453548 0)
(1.05587 -0.0511924 0)
(1.06664 -0.0471987 0)
(1.05116 -0.0388293 0)
(1.03573 -0.0309655 0)
(1.02468 -0.0237085 0)
(1.01695 -0.0165446 0)
(1.01181 -0.00937209 0)
(1.00893 -0.00210855 0)
(1.00883 0.00529021 0)
(1.01129 0.0124581 0)
(1.01608 0.0193202 0)
(1.02369 0.0259779 0)
(1.03475 0.0327822 0)
(1.05016 0.0402951 0)
(1.06527 0.0482249 0)
(1.05401 0.0521043 0)
(0.907528 0.0458779 0)
(0.390198 0.0134606 0)
(0.309269 -0.00618111 0)
(0.846313 -0.0330288 0)
(1.04806 -0.0428391 0)
(1.07717 -0.0391227 0)
(1.06531 -0.0330391 0)
(1.04876 -0.0270307 0)
(1.03594 -0.0217702 0)
(1.02644 -0.0160525 0)
(1.01996 -0.0094778 0)
(1.01638 -0.00201504 0)
(1.0161 0.00571948 0)
(1.01937 0.0129691 0)
(1.02567 0.0192273 0)
(1.03488 0.0247705 0)
(1.04736 0.0297241 0)
(1.06364 0.0352909 0)
(1.07539 0.0407405 0)
(1.04551 0.0440733 0)
(0.841974 0.033656 0)
(0.304736 0.00638291 0)
(0.265593 -0.00189702 0)
(0.789177 -0.0218435 0)
(1.0325 -0.0336768 0)
(1.08177 -0.0319581 0)
(1.07512 -0.0273913 0)
(1.05872 -0.0223699 0)
(1.04548 -0.0181649 0)
(1.03498 -0.0133914 0)
(1.02712 -0.00763579 0)
(1.02224 -0.000874928 0)
(1.02194 0.00622817 0)
(1.02598 0.0127342 0)
(1.0331 0.0180707 0)
(1.04315 0.0221817 0)
(1.0562 0.0257973 0)
(1.07256 0.0302959 0)
(1.07837 0.0342432 0)
(1.02764 0.0353316 0)
(0.781993 0.0226506 0)
(0.259554 0.00216447 0)
(0.241361 -0.000317924 0)
(0.738715 -0.0139366 0)
(1.01283 -0.0266117 0)
(1.08246 -0.0264496 0)
(1.08132 -0.0229511 0)
(1.06631 -0.0184946 0)
(1.0534 -0.0149015 0)
(1.04321 -0.0109045 0)
(1.03553 -0.00595731 0)
(1.03081 -3.02673e-05 0)
(1.03019 0.00646074 0)
(1.03404 0.0122092 0)
(1.04111 0.0166019 0)
(1.05074 0.0201599 0)
(1.06317 0.0231995 0)
(1.07749 0.0268991 0)
(1.07796 0.0294739 0)
(1.0059 0.0287122 0)
(0.728401 0.0149856 0)
(0.233547 0.000684749 0)
(0.226792 -5.19456e-06 0)
(0.696224 -0.00911701 0)
(0.992568 -0.0216286 0)
(1.08101 -0.0227907 0)
(1.08567 -0.0198674 0)
(1.07251 -0.0158637 0)
(1.05968 -0.0122526 0)
(1.04954 -0.0083923 0)
(1.04166 -0.00374612 0)
(1.03649 0.00167202 0)
(1.03575 0.00707625 0)
(1.03938 0.011895 0)
(1.04596 0.0159255 0)
(1.05523 0.0188496 0)
(1.0677 0.0215639 0)
(1.08022 0.0245873 0)
(1.0739 0.0265718 0)
(0.981833 0.0242355 0)
(0.681298 0.0104237 0)
(0.2166 0.000461325 0)
(0.217138 -1.291e-05 0)
(0.660939 -0.00626231 0)
(0.972475 -0.0180803 0)
(1.07862 -0.0201287 0)
(1.08928 -0.0175658 0)
(1.07769 -0.0138543 0)
(1.0653 -0.0103428 0)
(1.05577 -0.00661339 0)
(1.0486 -0.00232575 0)
(1.04393 0.00250278 0)
(1.04286 0.0077875 0)
(1.04572 0.0123995 0)
(1.05171 0.0158688 0)
(1.06016 0.0188105 0)
(1.07165 0.0214023 0)
(1.08188 0.023995 0)
(1.06921 0.0250525 0)
(0.957702 0.0213852 0)
(0.640865 0.00795627 0)
(0.204193 0.000586229 0)
(0.210142 -6.44961e-05 0)
(0.632665 -0.00450991 0)
(0.953888 -0.0153457 0)
(1.07584 -0.0182041 0)
(1.0927 -0.0160384 0)
(1.08257 -0.0125016 0)
(1.07005 -0.0087479 0)
(1.0603 -0.00484832 0)
(1.0527 -0.000342985 0)
(1.04752 0.00461715 0)
(1.04614 0.00921557 0)
(1.04876 0.0132679 0)
(1.0541 0.0167471 0)
(1.06243 0.0192982 0)
(1.07426 0.0216482 0)
(1.08287 0.0235725 0)
(1.0623 0.0241656 0)
(0.933021 0.0193539 0)
(0.605758 0.00660975 0)
(0.193633 0.000740841 0)
(0.204429 -5.14273e-05 0)
(0.609764 -0.00330117 0)
(0.936533 -0.0128212 0)
(1.07311 -0.0160251 0)
(1.09622 -0.0141349 0)
(1.08739 -0.0109058 0)
(1.0749 -0.00735681 0)
(1.06532 -0.00353053 0)
(1.05823 0.000822666 0)
(1.05332 0.00546155 0)
(1.05148 0.010388 0)
(1.0532 0.0147129 0)
(1.05825 0.017938 0)
(1.06604 0.0204255 0)
(1.07698 0.0224948 0)
(1.08323 0.0240288 0)
(1.05543 0.0235499 0)
(0.908998 0.0178147 0)
(0.575117 0.00591426 0)
(0.183786 0.000875825 0)
(0.199999 2.15705e-05 0)
(0.591896 -0.00227423 0)
(0.921388 -0.0105595 0)
(1.07034 -0.0139405 0)
(1.09975 -0.0121898 0)
(1.0924 -0.00898095 0)
(1.07965 -0.00526477 0)
(1.06941 -0.00131288 0)
(1.06115 0.00321937 0)
(1.05534 0.00832216 0)
(1.05309 0.0128948 0)
(1.05494 0.0166985 0)
(1.05957 0.0195991 0)
(1.06754 0.0216503 0)
(1.07885 0.0233916 0)
(1.08289 0.0243834 0)
(1.04625 0.0231848 0)
(0.884185 0.0167241 0)
(0.546987 0.00557408 0)
(0.174017 0.000976077 0)
(0.196495 0.000127387 0)
(0.577383 -0.00150661 0)
(0.90737 -0.00837614 0)
(1.06799 -0.0118204 0)
(1.10351 -0.0102418 0)
(1.09747 -0.00709993 0)
(1.08462 -0.00341202 0)
(1.07422 0.000486246 0)
(1.0664 0.005024 0)
(1.0604 0.00980757 0)
(1.0574 0.0147987 0)
(1.05801 0.0188871 0)
(1.06253 0.0217474 0)
(1.07021 0.0235998 0)
(1.08044 0.0248717 0)
(1.08194 0.0251535 0)
(1.03661 0.0233242 0)
(0.859308 0.0160082 0)
(0.520855 0.00550576 0)
(0.164331 0.00106848 0)
(0.194487 0.000307005 0)
(0.567158 -0.000512853 0)
(0.896057 -0.00623051 0)
(1.06565 -0.00935563 0)
(1.10723 -0.00760769 0)
(1.10264 -0.00429097 0)
(1.0895 -0.000362166 0)
(1.07828 0.00375786 0)
(1.06875 0.00840912 0)
(1.06173 0.0137046 0)
(1.05821 0.018209 0)
(1.05916 0.0215668 0)
(1.06325 0.0238612 0)
(1.07099 0.0252064 0)
(1.0809 0.0261248 0)
(1.07956 0.0260872 0)
(1.02442 0.0233702 0)
(0.833355 0.0155418 0)
(0.49556 0.00553553 0)
(0.154555 0.00112374 0)
(0.193888 0.000494309 0)
(0.559968 0.000201763 0)
(0.886747 -0.00386966 0)
(1.06478 -0.0065635 0)
(1.11158 -0.00470786 0)
(1.10826 -0.00128372 0)
(1.09512 0.0026872 0)
(1.08373 0.0068786 0)
(1.07458 0.01156 0)
(1.06725 0.0166005 0)
(1.06266 0.0214253 0)
(1.06196 0.0251372 0)
(1.06546 0.0270527 0)
(1.0728 0.0281669 0)
(1.08085 0.0284376 0)
(1.07651 0.0275136 0)
(1.01131 0.0241917 0)
(0.806619 0.0155583 0)
(0.470724 0.00572673 0)
(0.144726 0.00120173 0)
(0.194778 0.000536135 0)
(0.556655 0.00145805 0)
(0.880497 -0.00184831 0)
(1.06409 -0.00399171 0)
(1.11619 -0.00179175 0)
(1.11428 0.00215571 0)
(1.10096 0.00666465 0)
(1.08874 0.0112466 0)
(1.07792 0.0163153 0)
(1.06859 0.0213306 0)
(1.0633 0.0256431 0)
(1.06272 0.0283593 0)
(1.06575 0.0302642 0)
(1.07274 0.0306779 0)
(1.08022 0.0306989 0)
(1.07153 0.0295255 0)
(0.995361 0.0250275 0)
(0.778386 0.0158264 0)
(0.44561 0.00599949 0)
(0.134619 0.00129164 0)
(0.197499 0.000734093 0)
(0.557498 0.00217716 0)
(0.877198 0.000874117 0)
(1.06595 -0.000374485 0)
(1.12177 0.00223151 0)
(1.12071 0.00650264 0)
(1.1071 0.011289 0)
(1.09448 0.0160843 0)
(1.08375 0.0210992 0)
(1.07495 0.0265503 0)
(1.0683 0.0311686 0)
(1.06538 0.0341767 0)
(1.06724 0.0350339 0)
(1.07347 0.035378 0)
(1.07834 0.0346059 0)
(1.06536 0.0321191 0)
(0.977989 0.0268461 0)
(0.748524 0.0165531 0)
(0.41972 0.00647877 0)
(0.124107 0.00141971 0)
(0.202142 0.00107968 0)
(0.560979 0.00313733 0)
(0.878362 0.0036241 0)
(1.06874 0.00280465 0)
(1.12817 0.00608685 0)
(1.12835 0.011034 0)
(1.11457 0.0164586 0)
(1.10113 0.0218047 0)
(1.08857 0.0273576 0)
(1.07687 0.0327887 0)
(1.06842 0.0369153 0)
(1.06542 0.0391502 0)
(1.06645 0.0404235 0)
(1.07195 0.0397799 0)
(1.07599 0.0385223 0)
(1.05711 0.0356443 0)
(0.956874 0.0286934 0)
(0.716021 0.017646 0)
(0.392343 0.00709221 0)
(0.112923 0.00155408 0)
(0.209497 0.00154653 0)
(0.569442 0.00452984 0)
(0.883509 0.00647332 0)
(1.07479 0.00760213 0)
(1.13581 0.0113166 0)
(1.13662 0.016916 0)
(1.12217 0.0229247 0)
(1.1079 0.0288454 0)
(1.09501 0.0347725 0)
(1.08306 0.0403785 0)
(1.07366 0.0453202 0)
(1.06788 0.0476004 0)
(1.06716 0.0475347 0)
(1.07136 0.0465991 0)
(1.07186 0.0444182 0)
(1.0468 0.0394836 0)
(0.933594 0.0316966 0)
(0.68089 0.0192562 0)
(0.363046 0.00781704 0)
(0.100987 0.00169268 0)
(0.218635 0.00203427 0)
(0.581739 0.00602134 0)
(0.893041 0.0091702 0)
(1.08326 0.0117962 0)
(1.1451 0.0168031 0)
(1.14677 0.0232843 0)
(1.1318 0.0300717 0)
(1.11645 0.0366499 0)
(1.10133 0.0432834 0)
(1.08613 0.0495269 0)
(1.07327 0.0542549 0)
(1.06664 0.0559171 0)
(1.06493 0.0560134 0)
(1.06783 0.0537671 0)
(1.06719 0.0504929 0)
(1.03379 0.0450824 0)
(0.904997 0.0349688 0)
(0.641146 0.0212517 0)
(0.330855 0.00860641 0)
(0.088092 0.00182155 0)
(0.231969 0.00259875 0)
(0.601089 0.00845852 0)
(0.908917 0.013655 0)
(1.09528 0.0178557 0)
(1.15605 0.023804 0)
(1.15761 0.0314978 0)
(1.14147 0.0394779 0)
(1.12452 0.0470873 0)
(1.10792 0.0543992 0)
(1.09152 0.0609494 0)
(1.07689 0.0654314 0)
(1.06746 0.0670471 0)
(1.06401 0.0660084 0)
(1.06537 0.0631222 0)
(1.05969 0.0588463 0)
(1.01721 0.0508229 0)
(0.872652 0.0395084 0)
(0.597239 0.0235977 0)
(0.295791 0.00940119 0)
(0.0743588 0.00192128 0)
(0.248967 0.00325582 0)
(0.62752 0.010317 0)
(0.932589 0.0182242 0)
(1.11229 0.024792 0)
(1.17009 0.0323459 0)
(1.17151 0.0414976 0)
(1.15374 0.0505046 0)
(1.1349 0.0590322 0)
(1.1151 0.0670796 0)
(1.09404 0.0741991 0)
(1.0753 0.0791677 0)
(1.06434 0.0800053 0)
(1.05983 0.0778523 0)
(1.05928 0.0733736 0)
(1.05113 0.0672023 0)
(0.996949 0.0583542 0)
(0.832855 0.0438123 0)
(0.546562 0.0259381 0)
(0.257101 0.010024 0)
(0.059806 0.00194324 0)
(0.271507 0.00455733 0)
(0.660761 0.0145514 0)
(0.961846 0.0248386 0)
(1.13335 0.034061 0)
(1.18677 0.0432864 0)
(1.18686 0.0543336 0)
(1.16677 0.064927 0)
(1.14481 0.0749865 0)
(1.12186 0.0842379 0)
(1.09828 0.0916152 0)
(1.07728 0.095223 0)
(1.06326 0.0942638 0)
(1.05694 0.0910838 0)
(1.0546 0.0856949 0)
(1.039 0.0782552 0)
(0.971033 0.0658262 0)
(0.78735 0.0494014 0)
(0.490599 0.0284664 0)
(0.215877 0.0103973 0)
(0.0450315 0.00188448 0)
(0.303976 0.00561937 0)
(0.708681 0.0177698 0)
(1.00343 0.0323569 0)
(1.16163 0.0447286 0)
(1.20779 0.0562975 0)
(1.20566 0.070319 0)
(1.18171 0.0832398 0)
(1.15597 0.0947153 0)
(1.12829 0.104176 0)
(1.09885 0.110847 0)
(1.07291 0.113545 0)
(1.05771 0.111939 0)
(1.0499 0.106653 0)
(1.0449 0.0990007 0)
(1.02457 0.0887936 0)
(0.939784 0.0749152 0)
(0.73115 0.0541498 0)
(0.425135 0.0301392 0)
(0.171513 0.010262 0)
(0.0302478 0.00170943 0)
(0.340017 0.0089099 0)
(0.765999 0.0264476 0)
(1.05191 0.0449515 0)
(1.19539 0.0620023 0)
(1.23262 0.0762439 0)
(1.22557 0.0930214 0)
(1.19665 0.107381 0)
(1.16602 0.119917 0)
(1.13369 0.129874 0)
(1.10088 0.135706 0)
(1.07289 0.135842 0)
(1.05384 0.129955 0)
(1.04442 0.122833 0)
(1.03716 0.113831 0)
(1.00511 0.10187 0)
(0.899385 0.0832268 0)
(0.666878 0.0596286 0)
(0.356362 0.0315409 0)
(0.127806 0.00968813 0)
(0.0170305 0.00150001 0)
(0.418994 0.0138668 0)
(0.852718 0.0365697 0)
(1.12054 0.0632681 0)
(1.23825 0.0853301 0)
(1.2622 0.102178 6.29618e-34)
(1.24887 0.122686 -2.8324e-34)
(1.21314 0.138863 0)
(1.17676 0.151669 0)
(1.13834 0.159844 0)
(1.09869 0.162376 0)
(1.06457 0.158853 0)
(1.04521 0.151496 0)
(1.03483 0.141455 0)
(1.02281 0.128973 0)
(0.981446 0.113131 0)
(0.851288 0.0923536 0)
(0.588537 0.0625409 0)
(0.274481 0.0299025 0)
(0.0807268 0.00836196 0)
(0.00330163 0.00126626 0)
(0.485227 0.0285987 4.71487e-20)
(0.953121 0.0575296 -3.56765e-20)
(1.18977 0.0920181 0)
(1.28017 0.12051 2.72171e-20)
(1.29251 0.140275 -2.20607e-20)
(1.26889 0.163393 2.98859e-34)
(1.22584 0.179386 0)
(1.18351 0.191308 1.60788e-20)
(1.13944 0.198291 -5.30363e-20)
(1.09611 0.198506 1.08833e-20)
(1.06144 0.190902 0)
(1.03827 0.176695 -2.79952e-20)
(1.02453 0.162803 -3.36329e-20)
(1.00758 0.148881 5.88707e-20)
(0.943356 0.130792 -4.64396e-20)
(0.775308 0.100637 0)
(0.479207 0.0641787 -1.65929e-20)
(0.183156 0.027724 0)
(0.0351529 0.00728848 -9.19251e-20)
(-0.0108357 0.000558186 1.08332e-19)
(0.521555 0.0541951 -6.17912e-21)
(1.01778 0.0951676 1.06633e-19)
(1.24269 0.136553 -6.55309e-21)
(1.31531 0.165694 -6.66958e-20)
(1.31876 0.187305 -4.6087e-20)
(1.2863 0.210189 7.48357e-20)
(1.2364 0.226197 0)
(1.18799 0.237762 0)
(1.13807 0.242303 8.42129e-20)
(1.08805 0.237758 0)
(1.04533 0.224424 1.00603e-19)
(1.02039 0.208464 3.00394e-20)
(1.00564 0.192484 5.35432e-22)
(0.977364 0.172382 -6.37826e-20)
(0.895677 0.144678 0)
(0.696622 0.11086 0)
(0.385839 0.0663659 -2.69329e-19)
(0.121259 0.0256195 6.77367e-19)
(0.00232539 0.00419606 -4.00401e-19)
(-0.021656 -0.00148891 -4.71489e-19)
(0.532905 0.079169 -6.01453e-20)
(1.05397 0.143642 2.30688e-20)
(1.27746 0.189189 1.24118e-20)
(1.34276 0.219615 1.14904e-19)
(1.33913 0.24187 1.39303e-20)
(1.2988 0.263611 -1.94473e-19)
(1.24257 0.277873 6.64887e-20)
(1.18857 0.286597 0)
(1.13341 0.288533 -1.77908e-19)
(1.07972 0.281375 1.59655e-19)
(1.03707 0.265044 -2.71261e-19)
(1.00924 0.241993 1.27221e-19)
(0.988118 0.218466 -8.19316e-20)
(0.955781 0.19451 1.85333e-19)
(0.85619 0.165196 0)
(0.63806 0.120097 -6.66929e-20)
(0.329073 0.0679051 0)
(0.0921908 0.0232095 3.6785e-19)
(-0.014444 0.000403389 -8.70811e-19)
(-0.0281112 -0.00381274 5.44939e-19)
(0.533041 0.104006 1.60496e-19)
(1.07951 0.197566 -7.14241e-20)
(1.30384 0.250971 -1.45712e-20)
(1.36186 0.281298 0)
(1.35267 0.301597 -8.41329e-20)
(1.3066 0.320497 1.03898e-19)
(1.24494 0.332057 -7.14502e-20)
(1.18554 0.337848 0)
(1.12536 0.335772 1.26394e-19)
(1.06711 0.323246 -1.12023e-19)
(1.01817 0.29948 2.33895e-19)
(0.988074 0.273814 0)
(0.968144 0.24922 -1.73919e-19)
(0.928361 0.218776 9.83913e-20)
(0.821664 0.178572 2.44459e-19)
(0.598639 0.129678 -2.15e-19)
(0.300661 0.0727365 3.38823e-19)
(0.083931 0.0221892 -7.49709e-19)
(-0.0228308 -0.00286523 4.7368e-19)
(-0.0329672 -0.00629241 -5.92113e-19)
(0.52019 0.131635 -5.18425e-20)
(1.08441 0.246647 3.69309e-20)
(1.31546 0.309423 -4.76999e-20)
(1.37226 0.343403 9.73175e-20)
(1.35935 0.363486 -9.2596e-20)
(1.30856 0.379991 3.25947e-20)
(1.2424 0.388307 3.55768e-21)
(1.17881 0.389458 -1.41873e-19)
(1.11509 0.382718 -1.32739e-19)
(1.05433 0.365898 -2.40227e-19)
(1.00602 0.33956 -5.02375e-19)
(0.974043 0.307998 -1.54555e-19)
(0.948936 0.274602 2.11917e-21)
(0.907876 0.240625 -3.33334e-19)
(0.796018 0.200416 -4.12703e-21)
(0.573139 0.142389 3.11463e-19)
(0.294512 0.0778394 -9.29972e-20)
(0.0846931 0.0243622 -5.40944e-20)
(-0.023199 -0.00514127 0)
(-0.0349313 -0.00869641 1.25337e-18)
(0.505673 0.156733 0)
(1.08557 0.297266 -1.99231e-21)
(1.32186 0.370618 -6.77937e-21)
(1.37563 0.406959 -1.26189e-20)
(1.35965 0.425816 8.83609e-20)
(1.30564 0.439422 -7.63981e-20)
(1.23625 0.444184 7.79878e-20)
(1.16934 0.441109 2.33433e-19)
(1.10227 0.429513 -7.40824e-20)
(1.03762 0.406974 1.18468e-19)
(0.984271 0.373743 2.69753e-19)
(0.950833 0.33904 3.36492e-19)
(0.926136 0.306151 -2.01773e-19)
(0.879913 0.267685 3.6041e-19)
(0.769882 0.215439 -2.85003e-19)
(0.554725 0.156402 0)
(0.291419 0.0867487 -7.05567e-19)
(0.0909062 0.0282855 9.51099e-19)
(-0.0173797 -0.00565967 7.08923e-20)
(-0.0336179 -0.0103337 -1.32404e-18)
(0.487541 0.178199 -6.63908e-21)
(1.0747 0.341941 -1.09439e-20)
(1.31901 0.426214 4.84346e-20)
(1.37337 0.467288 -7.21276e-20)
(1.35531 0.486394 7.43511e-20)
(1.29863 0.497948 -7.38641e-20)
(1.22661 0.499671 1.54513e-19)
(1.15704 0.491901 -6.94392e-20)
(1.08762 0.475246 -2.98761e-19)
(1.02152 0.447908 -2.33453e-23)
(0.969586 0.411937 -2.9225e-19)
(0.934146 0.372816 -3.612e-19)
(0.903994 0.332673 2.22744e-19)
(0.859183 0.290416 -1.29222e-19)
(0.748416 0.241062 3.09888e-19)
(0.541949 0.172232 0)
(0.293241 0.0985619 -4.39062e-19)
(0.100624 0.0342972 6.48483e-19)
(-0.00821164 -0.00403161 1.22557e-18)
(-0.0301322 -0.0108634 -1.44187e-18)
(0.473154 0.199086 -8.76526e-20)
(1.06565 0.388116 3.68458e-20)
(1.3141 0.482879 -2.76446e-20)
(1.36705 0.526768 7.35542e-20)
(1.34701 0.545205 1.20156e-20)
(1.28831 0.554578 -1.43894e-19)
(1.21438 0.553236 -9.06013e-20)
(1.1432 0.541442 -9.04406e-20)
(1.07206 0.519943 -1.6905e-19)
(1.00381 0.486983 2.72223e-19)
(0.947356 0.444659 2.95513e-19)
(0.908484 0.403121 5.73177e-19)
(0.87898 0.364726 0)
(0.831448 0.318998 5.89638e-21)
(0.723928 0.258103 -8.50846e-19)
(0.527074 0.189593 2.00122e-19)
(0.293573 0.110598 9.53791e-19)
(0.10998 0.0414244 -2.81512e-19)
(0.00201669 -0.00080232 5.83194e-19)
(-0.0255365 -0.0105 -4.86842e-20)
(0.458986 0.217645 8.04835e-21)
(1.05067 0.428905 5.76153e-20)
(1.30437 0.534285 -6.79412e-21)
(1.35755 0.582418 7.20258e-20)
(1.33609 0.601082 -1.38856e-19)
(1.2757 0.608754 1.4256e-19)
(1.20042 0.604893 9.38483e-20)
(1.12795 0.58916 2.68957e-19)
(1.05539 0.563067 3.38688e-19)
(0.985991 0.525574 -3.147e-19)
(0.929198 0.480997 0)
(0.888348 0.435619 -2.16837e-19)
(0.856457 0.390385 2.48952e-19)
(0.809342 0.341584 3.13151e-19)
(0.703618 0.285068 -1.81577e-19)
(0.516412 0.206256 -4.38439e-19)
(0.295568 0.123814 -1.30416e-19)
(0.119514 0.0501355 -2.11217e-21)
(0.0122951 0.00372321 0)
(-0.0205153 -0.00943279 0)
(0.44853 0.235798 -8.57479e-20)
(1.03917 0.470915 0)
(1.29415 0.586122 8.55826e-21)
(1.34593 0.636687 -1.67097e-20)
(1.32308 0.654644 1.60519e-19)
(1.2614 0.660376 -3.98603e-20)
(1.18501 0.653905 9.57402e-20)
(1.11166 0.634862 -1.81608e-19)
(1.03791 0.604797 2.57291e-19)
(0.965876 0.562449 -1.04193e-19)
(0.904265 0.5115 1.69548e-19)
(0.862039 0.463493 6.88787e-19)
(0.829876 0.420841 1.415e-20)
(0.78141 0.370054 -3.27846e-19)
(0.68018 0.300776 6.04202e-19)
(0.501252 0.224361 2.89154e-21)
(0.293285 0.136582 1.39528e-19)
(0.125617 0.0588503 -6.6494e-19)
(0.0205776 0.00853088 6.85095e-19)
(-0.0159405 -0.00804961 -8.06941e-19)
(0.4395 0.253038 4.25853e-23)
(1.02486 0.508223 0)
(1.28119 0.632942 0)
(1.33263 0.687087 1.76879e-21)
(1.30873 0.705082 -4.63343e-20)
(1.24593 0.709189 6.67332e-20)
(1.16874 0.700526 -1.76164e-19)
(1.09449 0.678334 0)
(1.01918 0.644643 -3.79515e-19)
(0.945404 0.598494 4.56733e-19)
(0.884452 0.545267 4.84919e-19)
(0.841693 0.493804 -2.52619e-19)
(0.807195 0.444379 -3.05933e-19)
(0.759394 0.390357 7.1727e-19)
(0.660098 0.326891 -2.15193e-19)
(0.488753 0.240103 -2.55621e-19)
(0.290556 0.149157 -1.52667e-19)
(0.129669 0.0673979 -7.19148e-19)
(0.027128 0.0131452 1.05517e-19)
(-0.0120144 -0.00660352 8.74504e-19)
(0.433756 0.269702 -4.20946e-20)
(1.01391 0.546563 -5.47948e-20)
(1.26863 0.679968 2.32331e-20)
(1.31833 0.735993 1.41881e-22)
(1.29336 0.753188 -5.23613e-20)
(1.22963 0.755397 1.06493e-19)
(1.15169 0.744416 0)
(1.07671 0.719602 1.10801e-19)
(1.00019 0.682952 -8.7367e-20)
(0.924515 0.632854 7.64821e-19)
(0.860122 0.573553 -1.08906e-19)
(0.815439 0.519463 1.25627e-19)
(0.779846 0.472679 0)
(0.73267 0.416915 -3.88347e-19)
(0.635978 0.340053 4.69468e-19)
(0.470959 0.256496 0)
(0.283417 0.160067 -3.28571e-19)
(0.130891 0.0745557 9.67403e-19)
(0.0316192 0.0170946 1.14978e-19)
(-0.00888914 -0.00527442 -1.07862e-18)
(0.428423 0.287412 -1.04582e-19)
(1.00108 0.580546 1.30169e-19)
(1.25447 0.722178 0)
(1.30321 0.781119 2.32834e-20)
(1.27733 0.798245 0)
(1.21278 0.798886 -1.40093e-19)
(1.13441 0.78596 0)
(1.05886 0.75866 0)
(0.981292 0.719313 -1.16521e-19)
(0.904633 0.66633 -7.27075e-19)
(0.840299 0.605193 -8.96566e-19)
(0.79362 0.547601 1.46884e-19)
(0.757527 0.493312 5.29923e-19)
(0.710176 0.433225 4.27393e-19)
(0.614714 0.36402 -1.5071e-18)
(0.45621 0.26871 -6.0088e-19)
(0.275969 0.169753 3.52508e-19)
(0.129673 0.080332 0)
(0.0341725 0.0198892 9.88891e-19)
(-0.00653154 -0.00421825 -1.16348e-18)
(0.425018 0.304365 1.24589e-19)
(0.991397 0.615643 -1.50815e-19)
(1.24119 0.764588 0)
(1.28778 0.824867 -1.16811e-20)
(1.26097 0.84115 -3.32929e-21)
(1.1958 0.839904 0)
(1.11713 0.824877 5.54344e-20)
(1.04149 0.795557 7.75712e-20)
(0.96355 0.754257 -2.18992e-19)
(0.885179 0.698441 9.63545e-20)
(0.815796 0.631735 0)
(0.76646 0.570734 6.10755e-19)
(0.729224 0.518242 6.50568e-21)
(0.682746 0.456621 2.30649e-19)
(0.589506 0.372385 2.73218e-19)
(0.435735 0.281142 0)
(0.264928 0.175907 -5.73486e-19)
(0.126423 0.0832364 1.12554e-18)
(0.0349654 0.0214958 -1.19708e-18)
(-0.00500137 -0.00341551 2.50708e-18)
(0.422361 0.320688 0)
(0.980346 0.646576 0)
(1.22706 0.802457 -7.52378e-20)
(1.27216 0.865052 0)
(1.24453 0.881193 0)
(1.17888 0.878442 -1.18198e-19)
(1.10039 0.861677 5.69532e-20)
(1.02491 0.830409 1.81931e-20)
(0.946423 0.787341 -5.00034e-20)
(0.86624 0.729604 0)
(0.795115 0.661534 -1.36966e-19)
(0.743243 0.596813 -4.97913e-19)
(0.705146 0.535137 -5.98718e-19)
(0.657749 0.467141 -2.40483e-19)
(0.567089 0.391692 2.95803e-19)
(0.41976 0.287597 -6.96422e-19)
(0.255839 0.180598 1.22994e-18)
(0.124529 0.0840633 1.14115e-21)
(0.0351878 0.0225219 -1.14588e-18)
(-0.00405613 -0.00288695 -1.69153e-19)
(0.421063 0.335941 0)
(0.972239 0.678626 -1.22487e-19)
(1.21408 0.840631 9.04172e-20)
(1.25673 0.904077 0)
(1.22831 0.919337 0)
(1.16243 0.91469 2.37928e-19)
(1.08423 0.895993 0)
(1.00922 0.863193 0)
(0.930379 0.818987 -4.80132e-19)
(0.847713 0.759453 1.33545e-19)
(0.770729 0.686793 -1.21847e-18)
(0.715238 0.618019 0)
(0.673928 0.556281 -6.54771e-19)
(0.627754 0.486144 9.38014e-21)
(0.540758 0.392168 -9.53427e-19)
(0.400221 0.29326 3.74331e-19)
(0.248037 0.179014 1.06219e-21)
(0.124374 0.0832895 -1.29251e-18)
(0.0364112 0.0229373 6.16192e-19)
(-0.00302489 -0.00263391 1.80976e-19)
(0.420226 0.350473 0)
(0.962983 0.706686 -1.66651e-19)
(1.20065 0.874534 9.62303e-20)
(1.24151 0.939772 1.27233e-19)
(1.2124 0.954806 -1.03467e-20)
(1.1464 0.948698 2.62456e-20)
(1.06889 0.928441 -3.37325e-20)
(0.994267 0.894084 4.6021e-19)
(0.914586 0.848756 5.1361e-19)
(0.829639 0.788342 1.01579e-18)
(0.750639 0.715577 1.01239e-18)
(0.690678 0.64314 1.78277e-19)
(0.646654 0.570258 9.40521e-19)
(0.598944 0.489208 5.79806e-19)
(0.515761 0.403733 6.83541e-19)
(0.38622 0.289067 -4.0892e-19)
(0.245842 0.173451 -4.67507e-19)
(0.128616 0.080085 5.58862e-19)
(0.0429115 0.0225006 -3.31773e-19)
(-3.32462e-05 -0.00241617 5.84692e-19)
(0.420059 0.364218 2.35411e-19)
(0.956236 0.735881 2.61649e-19)
(1.18843 0.908854 5.59079e-20)
(1.22673 0.974527 1.56978e-20)
(1.19697 0.988623 -2.88375e-21)
(1.13109 0.980592 -6.55705e-20)
(1.05419 0.958515 3.27658e-20)
(0.980057 0.922981 -1.93329e-20)
(0.89985 0.877099 -5.97375e-19)
(0.812627 0.816013 -1.10273e-18)
(0.727822 0.740234 7.02796e-20)
(0.662491 0.663953 0)
(0.613273 0.58982 0)
(0.564108 0.504894 -3.0339e-19)
(0.483411 0.392879 -1.12295e-18)
(0.366132 0.281982 8.80356e-19)
(0.245242 0.160491 5.13726e-19)
(0.14133 0.0696824 0)
(0.063007 0.0192446 1.06478e-18)
(0.012821 -0.000266587 -6.28871e-19)
(0.419905 0.377406 -1.23751e-19)
(0.948323 0.761182 1.10477e-19)
(1.17591 0.939087 -1.32604e-19)
(1.21233 1.00614 -1.07895e-19)
(1.182 1.01993 -1.6922e-20)
(1.11629 1.01049 -1.97156e-20)
(1.04032 0.987001 0)
(0.96654 0.950183 -5.79214e-19)
(0.885439 0.903672 7.3163e-20)
(0.796176 0.84269 0)
(0.709352 0.76834 0)
(0.638288 0.689877 1.14496e-19)
(0.584171 0.604431 1.52876e-19)
(0.529572 0.502658 -3.29224e-19)
(0.451545 0.39696 8.06022e-19)
(0.344622 0.257868 -9.59101e-19)
(0.244641 0.134042 -1.10468e-18)
(0.172015 0.0423682 9.81336e-19)
(0.137345 0.00964266 -3.80286e-19)
(0.0871219 0.020024 2.20757e-19)
(0.419974 0.389756 1.55159e-19)
(0.942485 0.787587 0)
(1.16453 0.969822 0)
(1.19845 1.037 -2.92427e-20)
(1.16764 1.04984 2.36754e-20)
(1.10235 1.03849 -1.92072e-20)
(1.02717 1.0133 1.5006e-19)
(0.953836 0.975583 5.94786e-19)
(0.872255 0.92895 1.08312e-18)
(0.7811 0.868179 -8.32932e-20)
(0.688534 0.792236 1.72899e-19)
(0.611729 0.711551 -1.02764e-18)
(0.550273 0.625756 -1.02672e-18)
(0.48938 0.52164 -1.77375e-19)
(0.404415 0.377375 0)
(0.312232 0.241501 -3.20154e-21)
(0.234399 0.077524 6.10064e-19)
(0.198635 -0.0372334 -1.04508e-18)
(0.153221 -0.0990724 7.9975e-19)
(0.0765769 -0.0546829 6.78401e-19)
(0.419752 0.401863 -3.42615e-19)
(0.93513 0.809991 -1.54292e-19)
(1.15264 0.99654 8.44748e-21)
(1.18489 1.06504 6.14721e-20)
(1.15371 1.07769 0)
(1.08875 1.06515 -7.06487e-20)
(1.01452 1.03878 -2.15583e-19)
(0.941376 1.00004 -1.51942e-21)
(0.8587 0.953059 -5.67579e-19)
(0.765337 0.892948 -8.18003e-20)
(0.67091 0.819873 7.59777e-20)
(0.588512 0.739865 9.03131e-19)
(0.520341 0.645283 1.00137e-18)
(0.449042 0.520479 1.73474e-19)
(0.36373 0.388183 8.75932e-19)
(0.250172 0.193648 0)
(0.152018 0.0586082 0)
(0.00822247 0.192811 6.87785e-19)
(-0.0445527 0.698919 -1.56851e-20)
(0.00384046 1.679 -7.81818e-19)
(0.419729 0.413311 1.89425e-19)
(0.929724 0.833916 4.35994e-19)
(1.14182 1.02429 -6.04255e-19)
(1.17177 1.09293 3.00381e-19)
(1.14038 1.1049 -7.92459e-21)
(1.07615 1.09087 -2.32976e-20)
(1.00273 1.06324 0)
(0.92976 1.02412 -4.95935e-19)
(0.846176 0.977447 0)
(0.75045 0.918128 1.14898e-18)
(0.64984 0.844705 -9.35874e-20)
(0.561599 0.764581 1.0494e-19)
(0.484341 0.672739 1.15602e-18)
(0.402866 0.556266 -3.74635e-19)
(0.275686 0.368649 -4.43155e-19)
(0.174815 0.252354 0)
(0.0680397 0.50882 0)
(0.0190329 1.49015 0)
(0.0537019 2.52196 -3.98049e-19)
(0.0652177 2.9312 -2.40324e-19)
(0.419041 0.42427 0)
(0.922883 0.853877 0)
(1.13062 1.04818 2.20667e-19)
(1.15907 1.11809 -2.4344e-19)
(1.12761 1.13022 1.05814e-19)
(1.06406 1.11562 3.09432e-20)
(0.991637 1.0875 2.76573e-20)
(0.918499 1.04786 -2.15332e-20)
(0.833208 1.0011 8.04998e-20)
(0.734607 0.94272 -1.31909e-18)
(0.632532 0.873592 1.69374e-19)
(0.538847 0.797067 9.11825e-19)
(0.453812 0.700682 -1.15168e-18)
(0.354075 0.55705 -1.26702e-18)
(0.243445 0.435494 4.24126e-19)
(0.139963 0.656993 0)
(0.0752454 1.73707 5.73387e-19)
(0.089866 2.73589 6.28261e-19)
(0.0948894 3.08881 -7.07949e-19)
(0.0848004 3.21073 7.65312e-19)
(0.418496 0.434755 0)
(0.917963 0.875492 3.84426e-19)
(1.1206 1.07329 -5.48665e-20)
(1.14697 1.14322 3.40054e-19)
(1.11563 1.15494 -1.1107e-19)
(1.05308 1.13935 0)
(0.981365 1.11053 0)
(0.907973 1.07102 0)
(0.821308 1.02489 4.52124e-19)
(0.720323 0.967729 6.08774e-20)
(0.612361 0.899225 0)
(0.513875 0.824486 -9.06067e-19)
(0.420322 0.732582 0)
(0.302156 0.607909 9.02131e-19)
(0.192722 0.690397 -6.15976e-19)
(0.129462 1.57958 -4.88464e-19)
(0.12904 2.73218 -1.11587e-18)
(0.144801 3.12471 -5.96979e-19)
(0.124166 3.24923 -8.41763e-19)
(0.109996 3.28449 7.31718e-19)
(0.416704 0.443943 -1.35137e-19)
(0.911538 0.892857 1.61736e-20)
(1.11021 1.09449 -6.10385e-20)
(1.13536 1.16567 -2.62134e-19)
(1.10427 1.17781 0)
(1.04251 1.1622 0)
(0.971573 1.13352 0)
(0.897579 1.09394 3.44958e-20)
(0.808904 1.04802 -5.7187e-19)
(0.705102 0.992031 0)
(0.596842 0.928655 0)
(0.494712 0.859745 0)
(0.38407 0.756197 0)
(0.307558 0.721407 6.66298e-19)
(0.229373 1.24067 1.63355e-18)
(0.185414 2.5291 4.7641e-19)
(0.199526 3.09725 9.61724e-19)
(0.187611 3.266 -7.39507e-19)
(0.15289 3.31872 2.61319e-19)
(0.134397 3.33011 0)
(0.415027 0.452278 1.39181e-19)
(0.906235 0.911967 -8.53791e-19)
(1.10059 1.11755 -2.3221e-19)
(1.12424 1.18905 -5.07348e-20)
(1.09361 1.20094 2.61325e-20)
(1.03283 1.18461 -9.58975e-20)
(0.962198 1.15552 -2.18554e-21)
(0.887583 1.1165 -3.7794e-19)
(0.797575 1.07171 0)
(0.692168 1.0176 -7.86965e-20)
(0.578963 0.955374 7.15899e-20)
(0.473926 0.887774 0)
(0.372428 0.81868 0)
(0.298534 0.987883 -8.36791e-19)
(0.223146 1.96859 1.1096e-19)
(0.21921 2.99174 -3.66967e-19)
(0.247358 3.26877 7.84391e-19)
(0.226609 3.34979 5.85131e-19)
(0.175088 3.3701 -8.77731e-19)
(0.156409 3.37991 4.38204e-19)
(0.412082 0.46032 2.73415e-19)
(0.898417 0.92753 8.31265e-19)
(1.08965 1.13799 2.78486e-19)
(1.11291 1.2114 0)
(1.08285 1.22385 0)
(1.02264 1.20764 7.47282e-20)
(0.952405 1.17883 5.92556e-20)
(0.877025 1.13993 3.36599e-19)
(0.785355 1.09562 2.22e-20)
(0.677832 1.04295 1.0062e-18)
(0.566417 0.986029 -1.20188e-18)
(0.453458 0.921758 0)
(0.380253 0.902023 0)
(0.316112 1.35892 -5.70299e-19)
(0.277445 2.64251 -6.91692e-19)
(0.318345 3.20363 0)
(0.335811 3.33604 -8.77353e-19)
(0.262013 3.38711 -1.09704e-20)
(0.197385 3.42115 5.83759e-19)
(0.173774 3.4385 -2.46937e-19)
(0.40928 0.468979 -5.19324e-19)
(0.892 0.947887 -3.9878e-19)
(1.07907 1.1629 0)
(1.10124 1.23679 0)
(1.07182 1.24887 0)
(1.01244 1.23155 0)
(0.942193 1.20196 -7.08304e-20)
(0.866245 1.16367 2.89403e-19)
(0.773925 1.12094 0)
(0.666284 1.07081 -9.15637e-19)
(0.551166 1.01468 2.15621e-18)
(0.447375 0.962493 8.80759e-20)
(0.38991 1.05511 1.16865e-19)
(0.340827 1.89909 9.21926e-19)
(0.332069 2.97991 -5.07106e-19)
(0.372173 3.30254 0)
(0.345143 3.39908 2.61045e-19)
(0.264732 3.47139 7.18553e-20)
(0.218179 3.51325 4.47357e-20)
(0.183316 3.5066 9.49014e-20)
(0.405474 0.478673 2.45949e-19)
(0.882729 0.964494 -4.05544e-19)
(1.06677 1.18471 0)
(1.0888 1.26085 -7.4683e-20)
(1.05991 1.27363 2.58618e-19)
(1.00084 1.25635 0)
(0.930928 1.22695 0)
(0.854557 1.18869 -4.99067e-19)
(0.761424 1.14657 -5.81914e-20)
(0.652761 1.09796 8.99111e-19)
(0.537379 1.04496 -1.02726e-18)
(0.454267 1.01871 5.95242e-19)
(0.407894 1.29129 0)
(0.37628 2.34252 -4.87737e-19)
(0.399254 3.18634 3.16433e-19)
(0.448183 3.39463 2.20647e-19)
(0.419377 3.47001 0)
(0.362724 3.52064 1.96903e-20)
(0.314765 3.53152 -2.10042e-19)
(0.235266 3.47047 -3.58752e-20)