/*--------------------------------*- C++ -*----------------------------------*\
  =========                 |
  \\      /  F ield         | OpenFOAM: The Open Source CFD Toolbox
   \\    /   O peration     | Website:  https://openfoam.org
    \\  /    A nd           | Version:  6
     \\/     M anipulation  |
\*---------------------------------------------------------------------------*/
FoamFile
{
    version     2.0;
    format      ascii;
    class       volScalarField;
    location    "114.9";
    object      p;
}
// * * * * * * * * * * * * * * * * * * * * * * * * * * * * * * * * * * * * * //

dimensions      [0 2 -2 0 0 0 0];

internalField   nonuniform List<scalar> 
8800
(
1.17055
1.12123
1.08327
1.05521
1.03505
1.02048
1.00989
1.00237
0.997518
0.995486
0.996898
1.00127
1.00809
1.01754
1.03029
1.04762
1.07151
1.10461
1.14755
1.20006
1.00503
1.01138
1.02053
1.02409
1.02148
1.0154
1.00848
1.00225
0.997476
0.994641
0.994451
0.99712
1.00179
1.00795
1.01506
1.02211
1.027
1.02688
1.02021
1.01132
0.978531
0.984769
0.989274
0.993152
0.996109
0.99707
0.995999
0.993901
0.991953
0.991156
0.992235
0.994729
0.997648
0.999942
1.00048
0.998707
0.995352
0.991347
0.986571
0.982856
0.974203
0.97697
0.979582
0.981748
0.983497
0.98508
0.986203
0.986584
0.986507
0.986654
0.987513
0.988703
0.989483
0.989362
0.98841
0.987073
0.985417
0.983125
0.980721
0.979155
0.969109
0.970536
0.972382
0.974473
0.9762
0.97751
0.978633
0.979645
0.980498
0.981293
0.982068
0.982585
0.982655
0.982328
0.981689
0.980596
0.978958
0.977077
0.975731
0.974928
0.96407
0.964974
0.966229
0.967868
0.969579
0.971133
0.972447
0.973609
0.974726
0.975814
0.976677
0.977136
0.977203
0.976881
0.976114
0.974955
0.973617
0.972368
0.971554
0.97103
0.9591
0.959757
0.960727
0.962059
0.963528
0.965072
0.966593
0.968006
0.969333
0.970623
0.97167
0.97225
0.972339
0.97196
0.971225
0.97032
0.969358
0.968475
0.967904
0.967519
0.954194
0.9547
0.955495
0.956654
0.95798
0.959431
0.960985
0.962585
0.964176
0.965736
0.967009
0.967724
0.967894
0.967645
0.96714
0.966499
0.965801
0.965164
0.964747
0.964447
0.949295
0.949697
0.950368
0.951412
0.952673
0.954079
0.955639
0.957351
0.959178
0.961051
0.962612
0.963551
0.963941
0.963945
0.963699
0.963294
0.962813
0.962377
0.962073
0.961828
0.944319
0.944646
0.945232
0.946202
0.947426
0.948832
0.950441
0.952275
0.954326
0.956534
0.958469
0.959755
0.960466
0.960765
0.960783
0.960626
0.960358
0.96009
0.959872
0.959665
0.939173
0.939444
0.939971
0.940901
0.942119
0.943566
0.945271
0.947272
0.94959
0.952191
0.954595
0.956324
0.957425
0.95806
0.958368
0.958466
0.958414
0.9583
0.958151
0.957971
0.933762
0.933989
0.934481
0.935401
0.936654
0.938186
0.940031
0.94226
0.94492
0.948008
0.950982
0.953242
0.954799
0.955822
0.956459
0.95682
0.956999
0.957031
0.956939
0.956777
0.927986
0.928179
0.928653
0.929594
0.930923
0.932587
0.934631
0.93716
0.940254
0.943944
0.947608
0.950501
0.952594
0.954065
0.955078
0.955753
0.956165
0.956331
0.956287
0.956137
0.921732
0.921898
0.922373
0.923362
0.92481
0.926658
0.928971
0.931885
0.935521
0.939948
0.944447
0.948099
0.950828
0.952822
0.954269
0.955294
0.955961
0.956264
0.956262
0.956118
0.91487
0.915013
0.915503
0.916571
0.918182
0.920276
0.922937
0.926339
0.930645
0.935971
0.941478
0.946036
0.949521
0.952133
0.954077
0.955505
0.956461
0.956906
0.956943
0.956801
0.907246
0.907366
0.907884
0.90906
0.910886
0.913297
0.916401
0.920411
0.925543
0.931962
0.938679
0.944318
0.948696
0.95204
0.95458
0.956476
0.957756
0.958349
0.95842
0.958274
0.898654
0.898757
0.89931
0.90063
0.902734
0.905547
0.909205
0.913972
0.920119
0.927863
0.936032
0.942955
0.948386
0.95259
0.955847
0.958293
0.959937
0.960683
0.960785
0.960632
0.888807
0.888908
0.88953
0.891031
0.893494
0.896812
0.901163
0.906869
0.914265
0.923616
0.933519
0.941959
0.948633
0.953851
0.957945
0.961035
0.963091
0.963997
0.964123
0.963959
0.877414
0.877493
0.878206
0.879958
0.882864
0.886823
0.892047
0.898926
0.907859
0.919159
0.931126
0.941345
0.949471
0.95588
0.96094
0.964786
0.967293
0.968356
0.968498
0.96832
0.864025
0.864092
0.864916
0.866985
0.87046
0.875241
0.881577
0.889933
0.90077
0.91443
0.928843
0.941134
0.950932
0.958717
0.964904
0.9696
0.972585
0.973792
0.973938
0.973742
0.84803
0.848088
0.849067
0.851562
0.855785
0.86164
0.869417
0.879659
0.892868
0.909388
0.926673
0.941347
0.953048
0.962399
0.969852
0.975488
0.978956
0.980273
0.980407
0.980191
0.828571
0.828625
0.829831
0.832927
0.838173
0.845478
0.855169
0.867858
0.884049
0.90402
0.924644
0.94201
0.95584
0.966934
0.975771
0.982413
0.986315
0.987685
0.987784
0.987549
0.804386
0.804445
0.80601
0.81001
0.816731
0.826072
0.838393
0.854318
0.874267
0.898372
0.922813
0.943162
0.959315
0.972302
0.982623
0.99025
0.99447
0.995806
0.995847
0.995597
0.773494
0.773585
0.775774
0.781249
0.790288
0.802643
0.818692
0.838931
0.863584
0.892566
0.921281
0.944858
0.963483
0.978443
0.9903
0.99878
1.00311
1.0043
1.00427
1.00401
0.732543
0.732777
0.736262
0.744468
0.757444
0.774503
0.79589
0.821817
0.852228
0.886815
0.920202
0.947178
0.968344
0.985316
0.998629
1.00768
1.01183
1.01276
1.01264
1.01239
0.675127
0.676333
0.683331
0.697265
0.717143
0.741509
0.770315
0.803434
0.84061
0.881413
0.91975
0.950216
0.973902
0.992791
1.00735
1.01653
1.02014
1.02073
1.02055
1.02032
0.591953
0.600142
0.616321
0.640784
0.671008
0.705166
0.742996
0.784333
0.828949
0.876452
0.920074
0.954283
0.980694
1.00159
1.01701
1.02583
1.02868
1.02895
1.02874
1.02855
0.503013
0.521085
0.547397
0.583188
0.624334
0.668387
0.715199
0.764789
0.817047
0.871685
0.92123
0.95982
0.989508
1.01255
1.02849
1.03613
1.03795
1.03796
1.03779
1.03768
0.426505
0.448633
0.483402
0.528875
0.579679
0.63306
0.688607
0.746278
0.805942
0.867329
0.922316
0.964804
0.997309
1.02201
1.03773
1.04397
1.04504
1.04498
1.04485
1.04478
0.363373
0.387988
0.428574
0.48099
0.539327
0.600461
0.663672
0.728703
0.795225
0.862873
0.922854
0.968859
1.00379
1.02964
1.04492
1.05015
1.05088
1.05079
1.05069
1.05063
0.310692
0.336844
0.381649
0.439442
0.503768
0.571227
0.640901
0.712351
0.785022
0.858378
0.922942
0.972188
1.0093
1.0361
1.05088
1.05533
1.05584
1.05574
1.05566
1.05561
0.265887
0.292952
0.340882
0.403011
0.472337
0.545151
0.620363
0.697417
0.775566
0.85409
0.922838
0.975038
1.01414
1.0417
1.05592
1.05978
1.06015
1.06004
1.05997
1.05992
0.226873
0.254534
0.304895
0.370613
0.444195
0.521659
0.601759
0.68382
0.766928
0.850161
0.922717
0.977579
1.01843
1.04656
1.06025
1.06365
1.06392
1.0638
1.06373
1.06368
0.192142
0.22025
0.272599
0.341368
0.41864
0.500189
0.584678
0.671312
0.758996
0.846593
0.92263
0.97987
1.02223
1.05076
1.06395
1.067
1.06719
1.06705
1.06698
1.06693
0.160634
0.189125
0.243148
0.314584
0.395108
0.480293
0.568755
0.659608
0.751597
0.843313
0.922582
0.981929
1.02556
1.05435
1.06704
1.06982
1.06994
1.06979
1.0697
1.06964
0.131498
0.160373
0.215889
0.289731
0.373152
0.461607
0.553694
0.648475
0.744556
0.840248
0.922585
0.983821
1.02847
1.05732
1.06952
1.07208
1.07215
1.07198
1.07187
1.07181
0.104299
0.133505
0.190378
0.266381
0.352417
0.443841
0.539263
0.637724
0.737737
0.837352
0.922703
0.985648
1.03103
1.05971
1.07138
1.07376
1.07381
1.07364
1.07353
1.07346
0.0785054
0.108115
0.166236
0.244217
0.332629
0.426763
0.525275
0.627202
0.731022
0.83458
0.923018
0.987565
1.0334
1.06163
1.07269
1.07491
1.07498
1.07485
1.07476
1.07468
0.0539329
0.083941
0.143226
0.223015
0.313584
0.410203
0.511582
0.616784
0.724303
0.831887
0.923617
0.989779
1.03579
1.06325
1.07361
1.07568
1.07581
1.07575
1.07569
1.0756
0.0303804
0.0607937
0.121165
0.202615
0.295148
0.394039
0.498071
0.60636
0.717477
0.829186
0.924552
0.992539
1.0385
1.06481
1.07431
1.07626
1.07648
1.0765
1.07647
1.07639
0.00769716
0.0385634
0.0999429
0.182917
0.277217
0.378182
0.484665
0.595854
0.710446
0.826367
0.925811
0.996087
1.04195
1.06663
1.07493
1.07675
1.07716
1.07726
1.07723
1.07713
-0.0142404
0.0171141
0.0795017
0.163856
0.259744
0.362579
0.471311
0.585201
0.703126
0.823296
0.927307
1.00061
1.04665
1.06921
1.07564
1.07701
1.0777
1.07804
1.07805
1.07789
-0.0353496
-0.00353706
0.0598047
0.145382
0.242693
0.347216
0.457977
0.574367
0.695452
0.819857
0.928873
1.00617
1.05314
1.07337
1.0769
1.07697
1.07777
1.0789
1.07943
1.07923
-0.0556591
-0.0234215
0.0408093
0.127477
0.226056
0.332082
0.444671
0.563328
0.687381
0.815924
0.930299
1.01266
1.06187
1.08026
1.08022
1.07757
1.07777
1.08021
1.08243
1.08272
-0.0752677
-0.0425432
0.0224887
0.110127
0.209843
0.317199
0.43141
0.552095
0.67888
0.811395
0.931328
1.01981
1.07298
1.09102
1.08781
1.08177
1.08041
1.08426
1.0893
1.09143
-0.0940692
-0.0609123
0.0048601
0.093359
0.194068
0.302601
0.418232
0.540698
0.669954
0.806201
0.931696
1.02718
1.08618
1.10602
1.10124
1.09234
1.08844
1.09101
1.09679
1.09977
-0.112173
-0.0785732
-0.0121071
0.0771128
0.178668
0.288223
0.405055
0.529048
0.660486
0.8002
0.93114
1.03434
1.10105
1.12494
1.12064
1.11009
1.10238
1.09661
1.09043
1.09555
-0.129537
-0.0955972
-0.0285679
0.0611848
0.163344
0.273742
0.391482
0.51669
0.649988
0.792849
0.929133
1.04075
1.11754
1.14797
1.14568
1.13461
1.121
1.10584
1.08286
1.08881
-0.146064
-0.111995
-0.0443834
0.045748
0.148332
0.259428
0.377668
0.503881
0.63864
0.784183
0.925285
1.04499
1.13371
1.17301
1.1721
1.15845
1.13938
1.10648
1.05281
1.03178
-0.161668
-0.128832
-0.0591401
0.031232
0.134437
0.245769
0.363887
0.49088
0.62669
0.774293
0.919393
1.04594
1.14701
1.19704
1.19245
1.17229
1.1391
1.07931
1.01834
0.981958
-0.203559
-0.145494
-0.0725585
0.0166452
0.120875
0.231737
0.350282
0.477535
0.61387
0.762696
0.910709
1.04218
1.1537
1.21272
1.20554
1.16086
1.09102
1.01447
0.943142
0.903769
-0.175908
-0.156638
-0.0929438
-0.0030926
0.099787
0.210618
0.328781
0.455966
0.592424
0.741792
0.891623
1.02628
1.13525
1.20186
1.15819
1.02006
0.91303
0.838939
0.769153
0.787006
-0.205563
-0.173062
-0.108461
-0.0189863
0.0835834
0.194388
0.31298
0.439868
0.575908
0.724609
0.873485
1.00614
1.10395
1.14136
1.05878
0.893799
0.768487
0.684086
0.59611
0.631481
-0.228052
-0.193261
-0.126933
-0.0373769
0.0651889
0.176105
0.294785
0.421178
0.556333
0.703416
0.849417
0.97663
1.06209
1.06147
0.924449
0.749243
0.606053
0.502568
0.401989
0.423362
-0.249667
-0.21393
-0.146302
-0.0561089
0.0465705
0.157462
0.275767
0.401424
0.535336
0.680097
0.821579
0.939064
1.00557
0.970634
0.785071
0.59257
0.422083
0.280706
0.151102
0.152097
-0.270816
-0.234802
-0.166352
-0.0756056
0.0272195
0.137944
0.255676
0.380367
0.512605
0.654343
0.78974
0.896249
0.940455
0.851151
0.646648
0.437376
0.243795
0.0853837
-0.119955
-0.201323
-0.29219
-0.256361
-0.187488
-0.0963893
0.00656945
0.117124
0.234292
0.357891
0.488172
0.626311
0.754528
0.85085
0.864761
0.724928
0.518879
0.30065
0.103648
-0.058901
-0.180414
-0.290362
-0.31484
-0.279077
-0.21006
-0.118844
-0.0159173
0.094327
0.21078
0.333022
0.460853
0.594524
0.714786
0.796294
0.780582
0.604441
0.398474
0.186991
0.0069761
-0.091171
-0.116636
-0.129398
-0.338927
-0.303247
-0.234193
-0.143052
-0.0403851
0.0693253
0.184751
0.305223
0.429991
0.558162
0.669088
0.731008
0.691951
0.488351
0.285104
0.0943799
-0.0418841
-0.0801454
-0.0881706
-0.0885586
-0.364749
-0.329005
-0.259929
-0.169003
-0.0667862
0.0420981
0.156157
0.274404
0.395464
0.517195
0.617982
0.661579
0.583604
0.381275
0.185225
0.0194401
-0.0566414
-0.0706082
-0.0714926
-0.0713516
-0.392305
-0.356388
-0.2873
-0.196704
-0.095152
0.0126352
0.124964
0.240517
0.35726
0.471698
0.561564
0.586258
0.469986
0.283617
0.0990086
-0.0322293
-0.0609634
-0.0615594
-0.0620593
-0.0616425
-0.421354
-0.385244
-0.316218
-0.226092
-0.125416
-0.0190337
0.0911699
0.203556
0.315427
0.421807
0.500596
0.503712
0.369834
0.194896
0.0319863
-0.0438148
-0.0583254
-0.0563016
-0.0560044
-0.0556048
-0.451348
-0.415231
-0.346432
-0.256948
-0.157407
-0.0527704
0.0549036
0.163625
0.270201
0.368125
0.435141
0.421134
0.27854
0.117402
-0.0126012
-0.0520147
-0.0512589
-0.0517374
-0.0515227
-0.0512268
-0.481846
-0.445824
-0.377464
-0.28887
-0.190787
-0.0882649
0.0164398
0.120999
0.221891
0.311666
0.364488
0.343721
0.19751
0.0569429
-0.0378426
-0.0464617
-0.0481677
-0.0485505
-0.0485221
-0.0483687
-0.511852
-0.476168
-0.408604
-0.321238
-0.225016
-0.125045
-0.0237558
0.0761844
0.170946
0.25331
0.294534
0.265509
0.129012
0.0147564
-0.0419479
-0.0525761
-0.0475252
-0.046556
-0.0462334
-0.0460815
-0.539821
-0.505009
-0.438829
-0.35318
-0.259321
-0.162405
-0.0650049
0.0299423
0.118199
0.193542
0.22979
0.186226
0.073529
-0.0178518
-0.0407995
-0.0442864
-0.0451377
-0.0447279
-0.0445333
-0.0444024
-0.564428
-0.530862
-0.466766
-0.383505
-0.292651
-0.199402
-0.106416
-0.0167761
0.0649481
0.132977
0.166639
0.118528
0.0315087
-0.0376893
-0.0578196
-0.0483689
-0.0450509
-0.0438995
-0.0435197
-0.0433532
-0.583123
-0.551653
-0.490681
-0.410719
-0.323702
-0.234852
-0.146868
-0.0628761
0.0125258
0.0735238
0.104084
0.065653
0.00372741
-0.0422778
-0.0471129
-0.04575
-0.0438053
-0.0430783
-0.0428149
-0.0426461
-0.593953
-0.565352
-0.508547
-0.433108
-0.350966
-0.267373
-0.185031
-0.107079
-0.0379305
0.0178387
0.0471865
0.021703
-0.0122937
-0.0390703
-0.0388111
-0.0416834
-0.0427413
-0.042775
-0.0427477
-0.0426512
-0.594277
-0.569639
-0.518325
-0.448861
-0.372831
-0.295513
-0.219481
-0.147882
-0.0851582
-0.033478
-0.000206816
-0.0176462
-0.0253118
-0.0393163
-0.0423638
-0.0430254
-0.043759
-0.044083
-0.0442042
-0.0441767
-0.581689
-0.561816
-0.517896
-0.456278
-0.387861
-0.31791
-0.248897
-0.183773
-0.127355
-0.0816347
-0.0359279
-0.0539245
-0.0405671
-0.0479601
-0.0498798
-0.0482275
-0.0478381
-0.0481154
-0.0483329
-0.0483372
-0.554349
-0.539905
-0.505541
-0.454196
-0.395042
-0.333592
-0.27226
-0.21367
-0.162768
-0.124651
-0.0765765
-0.0709368
-0.0621426
-0.0664125
-0.0605779
-0.0578477
-0.0559478
-0.0559183
-0.0562798
-0.0563299
-0.515764
-0.506591
-0.482621
-0.442989
-0.39446
-0.342339
-0.289011
-0.236984
-0.190891
-0.15827
-0.126626
-0.0995196
-0.0720253
-0.0746974
-0.0797698
-0.0733823
-0.0709352
-0.0709095
-0.0714029
-0.0714048
-0.472968
-0.467734
-0.45403
-0.425787
-0.388238
-0.345032
-0.299274
-0.253358
-0.21114
-0.179867
-0.152067
-0.125744
-0.0934164
-0.0690757
-0.0506659
-0.0603139
-0.0834172
-0.0959448
-0.0995442
-0.100012
-0.435559
-0.432344
-0.42578
-0.407833
-0.379205
-0.343468
-0.304081
-0.262768
-0.222562
-0.189867
-0.164482
-0.148461
-0.14291
-0.157962
-0.186
-0.221667
-0.226897
-0.190623
-0.169704
-0.171372
-0.408582
-0.406675
-0.403381
-0.39279
-0.370935
-0.340736
-0.305325
-0.266211
-0.225789
-0.18914
-0.161903
-0.15565
-0.194365
-0.266427
-0.340938
-0.37928
-0.383905
-0.348665
-0.302042
-0.284857
-0.388793
-0.388125
-0.387033
-0.381819
-0.365862
-0.339271
-0.305008
-0.265545
-0.222141
-0.178555
-0.147947
-0.122629
-0.113385
-0.135133
-0.186316
-0.200203
-0.184277
-0.156891
-0.124805
-0.108527
-0.377134
-0.376915
-0.376321
-0.373984
-0.363205
-0.338777
-0.304144
-0.262438
-0.214273
-0.160962
-0.115259
-0.0527555
0.0265227
0.0995901
0.140885
0.172408
0.208608
0.243821
0.273095
0.28762
-0.368988
-0.368844
-0.368448
-0.367828
-0.361306
-0.339387
-0.303645
-0.258421
-0.204342
-0.138967
-0.0712335
0.0160959
0.158279
0.336364
0.504723
0.638504
0.729031
0.784998
0.816082
0.829002
-0.363569
-0.363529
-0.363419
-0.363281
-0.359496
-0.341108
-0.304404
-0.254829
-0.194694
-0.11878
-0.0330706
0.0641281
0.249348
0.507921
0.777145
1.012
1.17729
1.26811
1.30853
1.32183
-0.359085
-0.359079
-0.359009
-0.358924
-0.357589
-0.343232
-0.306509
-0.253097
-0.187718
-0.104465
-0.00755545
0.095233
0.291359
0.581642
0.898496
1.18711
1.40616
1.52641
1.57322
1.58658
-0.355227
-0.355216
-0.35509
-0.354838
-0.354707
-0.344766
-0.309792
-0.254716
-0.185111
-0.0982176
0.00330684
0.107932
0.286979
0.5656
0.872325
1.15635
1.38025
1.5082
1.5576
1.56977
-0.352279
-0.352274
-0.352208
-0.352146
-0.35253
-0.345643
-0.314296
-0.258943
-0.187425
-0.100134
-0.00113983
0.0967542
0.244097
0.4901
0.752181
0.9879
1.17857
1.29127
1.33503
1.3454
-0.349341
-0.349406
-0.34959
-0.349933
-0.350175
-0.346582
-0.319167
-0.26525
-0.194603
-0.110023
-0.0181559
0.0682384
0.181434
0.381967
0.594929
0.774409
0.916719
1.00216
1.0358
1.04345
-0.346267
-0.34638
-0.346556
-0.346771
-0.347012
-0.345798
-0.323201
-0.272445
-0.205233
-0.126124
-0.0432527
0.0312092
0.114325
0.268234
0.433183
0.565058
0.666215
0.726246
0.74916
0.754071
-0.343278
-0.34343
-0.343656
-0.34397
-0.344522
-0.344112
-0.325927
-0.27971
-0.218022
-0.145995
-0.0723894
-0.00933934
0.0508837
0.163688
0.288081
0.384392
0.455314
0.496748
0.512159
0.515195
-0.340284
-0.34044
-0.340629
-0.340873
-0.341382
-0.341643
-0.326952
-0.286361
-0.231703
-0.166726
-0.102265
-0.0495264
-0.00504569
0.0782427
0.16999
0.238883
0.288677
0.317482
0.327786
0.329236
-0.337967
-0.338012
-0.337791
-0.337043
-0.336027
-0.335985
-0.325513
-0.292527
-0.244859
-0.186646
-0.131037
-0.0874405
-0.0544898
0.00836935
0.0777863
0.127979
0.163454
0.183737
0.190485
0.191227
-0.338079
-0.337946
-0.337212
-0.335099
-0.331488
-0.329413
-0.324347
-0.299197
-0.256862
-0.204202
-0.157238
-0.12136
-0.0949034
-0.047623
0.00480921
0.0424506
0.0692791
0.0843988
0.0893303
0.0896279
-0.341392
-0.341308
-0.340994
-0.34017
-0.338628
-0.336963
-0.332202
-0.309073
-0.267378
-0.219674
-0.181218
-0.14962
-0.128468
-0.0904761
-0.0494134
-0.0209176
-0.000607609
0.0105365
0.0140726
0.0139217
-0.345213
-0.345614
-0.347235
-0.352021
-0.359227
-0.361183
-0.353062
-0.321812
-0.276276
-0.235165
-0.200826
-0.171711
-0.154024
-0.124898
-0.0921087
-0.0691617
-0.0529412
-0.0442391
-0.0416701
-0.0420591
-0.344639
-0.345535
-0.349035
-0.359931
-0.377438
-0.384223
-0.368209
-0.328053
-0.284457
-0.24887
-0.214873
-0.187517
-0.173085
-0.147841
-0.121254
-0.103144
-0.09051
-0.0840306
-0.0821508
-0.0825779
-0.34054
-0.341282
-0.343678
-0.349241
-0.357646
-0.364934
-0.350573
-0.319838
-0.288678
-0.257025
-0.222288
-0.197342
-0.185163
-0.163029
-0.139967
-0.124881
-0.114797
-0.109995
-0.10844
-0.10882
-0.34
-0.340198
-0.339204
-0.326332
-0.298137
-0.281861
-0.292781
-0.29693
-0.286447
-0.257371
-0.223588
-0.202915
-0.1898
-0.169639
-0.149289
-0.135705
-0.12658
-0.121884
-0.120341
-0.120717
-0.347175
-0.346157
-0.341423
-0.318181
-0.274386
-0.247279
-0.267101
-0.292336
-0.286985
-0.254315
-0.223091
-0.203117
-0.19001
-0.169172
-0.149674
-0.136364
-0.126846
-0.121667
-0.120021
-0.120476
-0.372742
-0.370315
-0.371508
-0.369387
-0.361194
-0.340657
-0.338278
-0.334558
-0.302545
-0.254564
-0.220208
-0.200261
-0.185212
-0.164967
-0.145284
-0.130278
-0.119229
-0.113046
-0.111213
-0.111781
-0.442754
-0.447468
-0.471002
-0.501099
-0.51018
-0.491211
-0.455486
-0.394651
-0.318788
-0.252091
-0.215148
-0.193466
-0.176395
-0.156134
-0.136004
-0.119431
-0.106887
-0.0999794
-0.0981609
-0.0988977
-0.520535
-0.531889
-0.56061
-0.587652
-0.596536
-0.576565
-0.524402
-0.426277
-0.318809
-0.24104
-0.203186
-0.178289
-0.163196
-0.143745
-0.12234
-0.104921
-0.0926386
-0.086518
-0.0850024
-0.0857436
-0.532416
-0.543286
-0.56347
-0.582578
-0.589263
-0.570251
-0.510063
-0.394554
-0.287138
-0.216066
-0.175411
-0.15363
-0.143932
-0.125171
-0.103667
-0.087321
-0.0765594
-0.0715104
-0.0704248
-0.0711047
-0.445758
-0.456487
-0.47443
-0.491143
-0.498829
-0.482697
-0.420709
-0.310389
-0.223917
-0.166529
-0.13066
-0.119586
-0.114909
-0.0963499
-0.0771741
-0.0640314
-0.0557328
-0.0521791
-0.0517768
-0.0524735
-0.27405
-0.285295
-0.304208
-0.324051
-0.333165
-0.317228
-0.26207
-0.189899
-0.137262
-0.0967093
-0.076273
-0.0738588
-0.0723388
-0.0574183
-0.044742
-0.0367954
-0.0309993
-0.0287694
-0.0290563
-0.0298522
0.00126202
-0.00725283
-0.0381052
-0.0710746
-0.0806831
-0.0778355
-0.0648092
-0.0474406
-0.0360132
-0.0243461
-0.0182654
-0.0159702
-0.0157429
-0.0140307
-0.010266
-0.0110483
-0.0108202
-0.0102778
-0.00862008
-0.0077813
0.272675
0.452518
0.615925
0.752923
0.859972
0.941934
1.00887
1.06336
1.07644
1.07419
0.542673
0.656751
0.763198
0.854179
0.929591
0.991009
1.03917
1.07179
1.08949
1.10679
0.725206
0.800708
0.87528
0.940238
0.99516
1.04058
1.07652
1.10431
1.12531
1.14469
0.861082
0.914963
0.969011
1.01741
1.05914
1.09475
1.12483
1.15023
1.16982
1.18873
0.971966
1.01278
1.05306
1.0909
1.12483
1.15496
1.18143
1.204
1.2216
1.23969
1.06499
1.09914
1.13266
1.16488
1.19469
1.22179
1.24584
1.26614
1.28159
1.29908
1.15073
1.18173
1.21296
1.24323
1.27144
1.29716
1.31977
1.33834
1.35201
1.369
1.23603
1.26805
1.29984
1.3305
1.35881
1.38419
1.40598
1.42325
1.43545
1.45194
1.32944
1.36564
1.40006
1.43218
1.46103
1.4861
1.50698
1.52308
1.53456
1.55066
1.44204
1.48273
1.51948
1.55208
1.5803
1.60409
1.62355
1.63871
1.6505
1.66654
1.58339
1.62415
1.65924
1.68861
1.71365
1.73515
1.75355
1.76896
1.78201
1.79793
1.75455
1.78642
1.81334
1.83566
1.85568
1.87434
1.89203
1.90875
1.92363
1.93933
1.94051
1.95768
1.97474
1.99139
2.00746
2.02217
2.03605
2.0505
2.06571
2.08301
2.12387
2.13375
2.1469
2.15787
2.16727
2.17692
2.1875
2.19765
2.20693
2.23259
2.34161
2.33591
2.32296
2.3087
2.30239
2.30807
2.32621
2.35473
2.38849
2.42481
2.64445
2.5085
2.42897
2.38639
2.36906
2.37305
2.40047
2.45833
2.56598
2.74439
1.07424
1.06794
1.06021
1.0491
1.03554
1.02291
1.01253
1.00455
0.99887
0.995596
0.995319
0.998224
1.00351
1.01091
1.02049
1.03235
1.04592
1.05886
1.06786
1.0754
0.983289
0.98921
0.997287
1.00343
1.00651
1.00601
1.00295
0.998981
0.995437
0.993215
0.993159
0.995491
0.999307
1.0038
1.00793
1.01021
1.00915
1.00453
0.997479
0.989649
0.976505
0.978878
0.982151
0.984934
0.987398
0.989605
0.99081
0.990699
0.989811
0.989073
0.989377
0.99088
0.992732
0.994015
0.99398
0.992543
0.990407
0.988061
0.985091
0.982078
0.971669
0.972757
0.974681
0.977031
0.978919
0.980339
0.981587
0.982622
0.98328
0.983738
0.984395
0.985241
0.985791
0.985736
0.985156
0.98427
0.982967
0.981017
0.978924
0.977451
0.966583
0.967216
0.968352
0.970125
0.971989
0.973609
0.974896
0.976009
0.977059
0.978053
0.97896
0.979603
0.979839
0.979708
0.979231
0.978302
0.976908
0.975324
0.974004
0.973206
0.961579
0.962017
0.962814
0.964135
0.965682
0.967278
0.968799
0.970154
0.97139
0.97259
0.973688
0.974436
0.974734
0.974592
0.974001
0.973058
0.971948
0.970836
0.969953
0.969423
0.956645
0.956972
0.957592
0.958682
0.960008
0.961447
0.962978
0.964523
0.966012
0.967449
0.96877
0.969691
0.970063
0.969934
0.969428
0.968715
0.967924
0.967109
0.966471
0.966083
0.951753
0.952006
0.952508
0.953444
0.954652
0.956008
0.957493
0.959105
0.960801
0.962523
0.964128
0.965261
0.965781
0.965826
0.965557
0.9651
0.964536
0.963959
0.963505
0.963209
0.946827
0.947027
0.947447
0.948277
0.949415
0.950733
0.952217
0.953891
0.955751
0.957751
0.959694
0.961137
0.961935
0.962259
0.962259
0.962052
0.961712
0.961339
0.96103
0.960798
0.941778
0.941938
0.9423
0.943061
0.944161
0.945472
0.947002
0.948781
0.950828
0.953126
0.95547
0.957333
0.958509
0.959168
0.95946
0.959513
0.95941
0.959228
0.959038
0.958854
0.936512
0.93664
0.936962
0.937682
0.938775
0.940125
0.94174
0.943673
0.945966
0.94863
0.951463
0.953843
0.955474
0.956522
0.957149
0.957486
0.957622
0.957629
0.957545
0.957396
0.930931
0.931034
0.931329
0.932035
0.933156
0.934589
0.936338
0.938483
0.941096
0.944221
0.947653
0.950654
0.952821
0.954323
0.955331
0.955982
0.956387
0.956582
0.956588
0.956466
0.924931
0.925012
0.925291
0.926008
0.927194
0.928753
0.930692
0.93312
0.936142
0.939839
0.944003
0.947751
0.950555
0.952588
0.954036
0.955065
0.955754
0.956135
0.956226
0.956125
0.918391
0.918451
0.918725
0.919476
0.920764
0.922497
0.924693
0.927486
0.931022
0.935423
0.940475
0.945121
0.948686
0.951347
0.953305
0.954754
0.955771
0.956359
0.956532
0.956445
0.91117
0.911206
0.911485
0.912292
0.91372
0.915683
0.918212
0.921469
0.925644
0.930908
0.937035
0.942758
0.947226
0.950631
0.953195
0.955129
0.956524
0.957336
0.957589
0.957514
0.903089
0.903107
0.903391
0.904278
0.905889
0.908148
0.911098
0.914938
0.919903
0.926221
0.933646
0.940655
0.946194
0.950476
0.953759
0.956279
0.958104
0.959159
0.959491
0.959422
0.893898
0.893904
0.894213
0.895206
0.897057
0.89969
0.90317
0.907734
0.913677
0.921283
0.93027
0.93881
0.945616
0.950929
0.95506
0.958278
0.960598
0.961918
0.962327
0.96226
0.883326
0.883306
0.883655
0.884798
0.886949
0.890057
0.894203
0.899673
0.906825
0.916004
0.926871
0.937221
0.945517
0.952046
0.957176
0.961197
0.964091
0.965694
0.966175
0.966105
0.870985
0.870945
0.871345
0.872678
0.875211
0.878927
0.883919
0.89053
0.899188
0.910292
0.923412
0.935895
0.945923
0.953864
0.960164
0.96511
0.968648
0.970543
0.971085
0.971005
0.856355
0.856292
0.856775
0.858363
0.861386
0.86589
0.871973
0.88004
0.890588
0.904055
0.91987
0.934842
0.946862
0.956416
0.964069
0.970063
0.974297
0.976474
0.977055
0.976958
0.838709
0.838623
0.839236
0.841181
0.844864
0.850415
0.857936
0.867897
0.880848
0.897224
0.916241
0.934084
0.94836
0.959735
0.96888
0.976046
0.981009
0.983426
0.984013
0.98389
0.817003
0.8169
0.817725
0.820194
0.824806
0.831809
0.841292
0.853775
0.869815
0.889774
0.91256
0.93366
0.950442
0.96382
0.974598
0.983023
0.988673
0.99124
0.991787
0.991631
0.789649
0.789548
0.79073
0.794014
0.800048
0.809174
0.821452
0.83738
0.857417
0.881759
0.908911
0.93363
0.953132
0.968661
0.981173
0.990868
0.99707
0.999646
1.0001
0.999907
0.754072
0.754031
0.755866
0.760565
0.768991
0.781481
0.797894
0.818571
0.843738
0.873345
0.905451
0.934093
0.956464
0.974234
0.988517
0.999376
1.00587
1.00826
1.00856
1.00834
0.705697
0.705899
0.709186
0.716885
0.729791
0.747845
0.770429
0.797539
0.829097
0.864829
0.90239
0.935181
0.96049
0.980487
0.996494
1.00826
1.01462
1.01661
1.01674
1.0165
0.63594
0.637478
0.645524
0.660176
0.681397
0.708348
0.73966
0.774966
0.814062
0.856609
0.89996
0.936998
0.96524
0.987341
1.00481
1.01701
1.02276
1.02417
1.02415
1.02393
0.552526
0.555478
0.571202
0.596627
0.629289
0.6667
0.707417
0.751312
0.798307
0.84816
0.897978
0.940037
0.971931
0.996702
1.01558
1.02755
1.0324
1.03331
1.03324
1.03311
0.466809
0.474497
0.498188
0.534365
0.578043
0.625713
0.675828
0.728331
0.783222
0.840322
0.896528
0.943512
0.978937
1.0063
1.02644
1.0376
1.04102
1.04139
1.0413
1.04123
0.396324
0.406276
0.434989
0.478774
0.531063
0.58738
0.645932
0.706471
0.768842
0.832779
0.894911
0.946351
0.984873
1.01431
1.03493
1.04508
1.04766
1.04786
1.04778
1.04773
0.338307
0.34904
0.381593
0.430999
0.489774
0.552961
0.618545
0.68608
0.755173
0.825372
0.892946
0.948482
0.989809
1.02097
1.04184
1.05114
1.05315
1.05325
1.05319
1.05316
0.289476
0.300605
0.335819
0.389589
0.453621
0.522466
0.593935
0.667466
0.742477
0.818309
0.890853
0.950136
0.994046
1.02674
1.04771
1.05623
1.05785
1.0579
1.05784
1.05782
0.247425
0.258733
0.295924
0.353183
0.421583
0.495253
0.571818
0.6506
0.730875
0.811788
0.888855
0.951548
0.997793
1.03181
1.05275
1.0606
1.06194
1.06194
1.06189
1.06187
0.210435
0.221808
0.260542
0.320681
0.392788
0.470634
0.551699
0.6352
0.720267
0.80584
0.887052
0.952824
1.00114
1.03626
1.05707
1.06437
1.06551
1.06547
1.06541
1.0654
0.177251
0.188643
0.228591
0.291207
0.366532
0.448048
0.53313
0.620929
0.71043
0.800368
0.885433
0.953994
1.00412
1.04014
1.06076
1.06758
1.06857
1.06849
1.06842
1.06839
0.146839
0.158266
0.199283
0.264087
0.342267
0.427044
0.515743
0.607487
0.701146
0.79524
0.883964
0.955085
1.00676
1.04347
1.06381
1.07022
1.07109
1.07098
1.07088
1.07085
0.118612
0.130077
0.172042
0.238814
0.319547
0.407259
0.499252
0.594642
0.692224
0.79034
0.88264
0.956165
1.00915
1.04629
1.06623
1.07226
1.07304
1.07291
1.07281
1.07276
0.0920702
0.103586
0.146428
0.214991
0.298032
0.388408
0.483421
0.582202
0.683521
0.785579
0.881477
0.957345
1.01141
1.04868
1.06806
1.07372
1.07444
1.07433
1.07424
1.07419
0.0668105
0.0784609
0.122116
0.192332
0.277474
0.370269
0.468067
0.570022
0.674904
0.780876
0.880496
0.958769
1.01374
1.0508
1.06943
1.0747
1.0754
1.07534
1.07529
1.07525
0.0426768
0.0544778
0.0989044
0.170632
0.257688
0.352695
0.453054
0.557974
0.666265
0.776124
0.879685
0.960605
1.01638
1.05289
1.07052
1.07538
1.07609
1.07612
1.07613
1.0761
0.0194514
0.0314526
0.0766144
0.14976
0.238554
0.335568
0.438281
0.545965
0.657508
0.771226
0.878984
0.962989
1.01968
1.05529
1.07155
1.0759
1.07669
1.07684
1.07688
1.07686
-0.00288698
0.00929489
0.0551585
0.129634
0.219993
0.318821
0.423687
0.533931
0.648555
0.766067
0.878284
0.96599
1.02401
1.05844
1.07278
1.07633
1.07722
1.07758
1.07766
1.07761
-0.0244753
-0.0120615
0.0345142
0.110205
0.201954
0.30241
0.409229
0.521831
0.639347
0.760549
0.877435
0.969577
1.0297
1.06302
1.07469
1.0766
1.07737
1.07816
1.07859
1.0786
-0.0451871
-0.0326364
0.014639
0.0914264
0.184417
0.286339
0.394895
0.509641
0.629844
0.754598
0.876265
0.973603
1.03699
1.06983
1.07831
1.0774
1.0771
1.07847
1.08017
1.08079
-0.0652076
-0.0524415
-0.00448865
0.0732688
0.167361
0.270587
0.380707
0.497357
0.620024
0.748154
0.874603
0.977809
1.04586
1.07961
1.08533
1.08083
1.07822
1.0798
1.08368
1.08604
-0.0844274
-0.0714452
-0.0228979
0.0557378
0.150821
0.255187
0.36669
0.485028
0.609896
0.741146
0.872287
0.981857
1.05605
1.0927
1.09722
1.08957
1.08408
1.085
1.09095
1.09647
-0.102945
-0.0897501
-0.0405678
0.0388566
0.134795
0.240165
0.352882
0.472674
0.599485
0.733583
0.869179
0.985338
1.067
1.10866
1.11414
1.10491
1.09666
1.0941
1.09398
1.0906
-0.120689
-0.107346
-0.0575977
0.0224438
0.119053
0.225242
0.338961
0.459916
0.588393
0.725046
0.864901
0.987925
1.07863
1.12777
1.13639
1.12726
1.11652
1.10571
1.09397
1.09597
-0.137663
-0.124334
-0.07402
0.00653922
0.103586
0.210429
0.324929
0.446699
0.57653
0.715317
0.85907
0.988765
1.08968
1.14894
1.16208
1.15382
1.139
1.12438
1.08781
1.05205
-0.1537
-0.140588
-0.0898381
-0.00873439
0.08837
0.195699
0.310753
0.433117
0.5639
0.704316
0.851363
0.987015
1.09806
1.1699
1.18858
1.1772
1.15616
1.12187
1.06844
1.01784
-0.171507
-0.155034
-0.104868
-0.022909
0.0736784
0.181287
0.296037
0.419185
0.550548
0.692077
0.841542
0.981931
1.10109
1.18849
1.21407
1.19549
1.14992
1.08735
1.01696
0.958151
-0.159475
-0.134171
-0.0791716
0.0066799
0.110531
0.221439
0.342312
0.469584
0.606016
0.755156
0.90411
1.03708
1.14912
1.22595
1.21719
1.12654
1.05742
0.983109
0.912592
0.868045
-0.172533
-0.164468
-0.122208
-0.0458873
0.0509188
0.157782
0.27314
0.396459
0.528132
0.670291
0.82133
0.965601
1.08944
1.18316
1.22041
1.1688
1.04027
0.949747
0.883082
0.807237
-0.192694
-0.181847