0.490941 	0.00434673 	3.00033 	-3.89753e-20
0.561075 	0.00434673 	3.00033 	-3.89753e-20
0.63121 	0.00434673 	3.00033 	-3.89753e-20
0.701344 	0.00434673 	3.00033 	-3.89753e-20
0.771478 	0.00434673 	3.00033 	-3.89753e-20
0.841613 	0.00434673 	3.00033 	-3.89753e-20
0.911747 	0.0145056 	3.00801 	-9.02412e-20
0.981881 	0.0145056 	3.00801 	-9.02412e-20
1.05202 	0.0145056 	3.00801 	-9.02412e-20
1.12215 	0.0145056 	3.00801 	-9.02412e-20
1.19228 	0.0145056 	3.00801 	-9.02412e-20
1.26242 	0.0145056 	3.00801 	-9.02412e-20
1.33255 	0.0193014 	3.02331 	9.01793e-20
1.40269 	0.0193014 	3.02331 	9.01793e-20
1.47282 	0.0193014 	3.02331 	9.01793e-20
1.54296 	0.0193014 	3.02331 	9.01793e-20
1.61309 	0.0193014 	3.02331 	9.01793e-20
1.68323 	0.0193014 	3.02331 	9.01793e-20
1.75336 	0.0247369 	3.04252 	4.36325e-20
1.82349 	0.0247369 	3.04252 	4.36325e-20
1.89363 	0.0247369 	3.04252 	4.36325e-20
1.96376 	0.0247369 	3.04252 	4.36325e-20
2.0339 	0.0247369 	3.04252 	4.36325e-20
2.10403 	0.0247369 	3.04252 	4.36325e-20
2.17417 	0.0242459 	3.06668 	0
2.2443 	0.0242459 	3.06668 	0
2.31443 	0.0242459 	3.06668 	0
2.38457 	0.0242459 	3.06668 	0
2.4547 	0.0242459 	3.06668 	0
2.52484 	0.0242459 	3.06668 	0
2.59497 	0.0256761 	3.09073 	-2.03305e-19
2.66511 	0.0256761 	3.09073 	-2.03305e-19
2.73524 	0.0256761 	3.09073 	-2.03305e-19
2.80538 	0.0256761 	3.09073 	-2.03305e-19
2.87551 	0.0256761 	3.09073 	-2.03305e-19
2.94564 	0.0256761 	3.09073 	-2.03305e-19
3.01578 	0.0233622 	3.11625 	1.62023e-19
3.08591 	0.0233622 	3.11625 	1.62023e-19
3.15605 	0.0233622 	3.11625 	1.62023e-19
3.22618 	0.0233622 	3.11625 	1.62023e-19
3.29632 	0.0233622 	3.11625 	1.62023e-19
3.36645 	0.0233622 	3.11625 	1.62023e-19
3.43659 	0.0250072 	3.13924 	-3.03967e-19
3.50672 	0.0250072 	3.13924 	-3.03967e-19
3.57685 	0.0250072 	3.13924 	-3.03967e-19
3.64699 	0.0250072 	3.13924 	-3.03967e-19
3.71712 	0.0250072 	3.13924 	-3.03967e-19
3.78726 	0.0142039 	3.13799 	-3.3777e-19
3.85739 	0.0119833 	3.16284 	6.26507e-19
3.92753 	0.0119833 	3.16284 	6.26507e-19
3.99766 	0.0119833 	3.16284 	6.26507e-19
4.06779 	0.0119833 	3.16284 	6.26507e-19
4.13793 	0.0119833 	3.16284 	6.26507e-19
4.20806 	0.0119833 	3.16284 	6.26507e-19
4.2782 	0.014422 	3.18371 	-3.61435e-19
4.34833 	0.014422 	3.18371 	-3.61435e-19
4.41847 	0.014422 	3.18371 	-3.61435e-19
4.4886 	0.014422 	3.18371 	-3.61435e-19
4.55874 	0.014422 	3.18371 	-3.61435e-19
4.62887 	0.014422 	3.18371 	-3.61435e-19
4.699 	0.014422 	3.18371 	-3.61435e-19
4.76914 	0.0119783 	3.20719 	-2.71786e-19
4.83927 	0.0119783 	3.20719 	-2.71786e-19
4.90941 	0.0119783 	3.20719 	-2.71786e-19
4.97954 	0.0119783 	3.20719 	-2.71786e-19
5.04968 	0.0119783 	3.20719 	-2.71786e-19
5.11981 	0.0119783 	3.20719 	-2.71786e-19
5.18994 	0.0141888 	3.22652 	2.38362e-19
5.26008 	0.0141888 	3.22652 	2.38362e-19
5.33021 	0.0141888 	3.22652 	2.38362e-19
5.40035 	0.0141888 	3.22652 	2.38362e-19
5.47048 	0.0141888 	3.22652 	2.38362e-19
5.54062 	0.0141888 	3.22652 	2.38362e-19
5.61075 	0.011455 	3.24854 	-4.7672e-19
5.68089 	0.011455 	3.24854 	-4.7672e-19
5.75102 	0.011455 	3.24854 	-4.7672e-19
5.82115 	0.011455 	3.24854 	-4.7672e-19
5.89129 	0.011455 	3.24854 	-4.7672e-19
5.96142 	0.011455 	3.24854 	-4.7672e-19
6.03156 	0.0138692 	3.26568 	5.08724e-19
6.10169 	0.0138692 	3.26568 	5.08724e-19
6.17183 	0.0138692 	3.26568 	5.08724e-19
6.24196 	0.0138692 	3.26568 	5.08724e-19
6.3121 	0.0138692 	3.26568 	5.08724e-19
6.38223 	0.0138692 	3.26568 	5.08724e-19
6.45236 	0.011359 	3.28544 	3.02435e-20
6.5225 	0.011359 	3.28544 	3.02435e-20
6.59263 	0.011359 	3.28544 	3.02435e-20
6.66277 	0.011359 	3.28544 	3.02435e-20
6.7329 	0.011359 	3.28544 	3.02435e-20
6.80304 	0.011359 	3.28544 	3.02435e-20
6.87317 	0.0143879 	3.29972 	-2.93468e-20
6.9433 	0.0143879 	3.29972 	-2.93468e-20
7.01344 	0.0143879 	3.29972 	-2.93468e-20
7.08357 	0.0143879 	3.29972 	-2.93468e-20
7.15371 	0.0143879 	3.29972 	-2.93468e-20
7.22384 	0.0143879 	3.29972 	-2.93468e-20
7.29398 	0.0122741 	3.31698 	0
7.36411 	0.0122741 	3.31698 	0
7.43425 	0.0122741 	3.31698 	0
7.50438 	0.0122741 	3.31698 	0
7.57451 	0.0122741 	3.31698 	0
7.64465 	0.0122741 	3.31698 	0
7.71478 	0.0122741 	3.31698 	0
7.78492 	0.0159805 	3.32849 	0
7.85505 	0.0159805 	3.32849 	0
7.92519 	0.0159805 	3.32849 	0
7.99532 	0.0159805 	3.32849 	0
8.06545 	0.0159805 	3.32849 	0
8.13559 	0.0159805 	3.32849 	0
8.20572 	0.0142727 	3.34365 	0
8.27586 	0.0142727 	3.34365 	0
8.34599 	0.0142727 	3.34365 	0
8.41613 	0.0142727 	3.34365 	0
8.48626 	0.0142727 	3.34365 	0
8.5564 	0.0142727 	3.34365 	0
8.62653 	0.0188217 	3.35288 	2.2216e-22
8.69666 	0.0188217 	3.35288 	2.2216e-22
8.7668 	0.0188217 	3.35288 	2.2216e-22
8.83693 	0.0188217 	3.35288 	2.2216e-22
8.90707 	0.0188217 	3.35288 	2.2216e-22
8.9772 	0.0188217 	3.35288 	2.2216e-22
9.04734 	0.0177276 	3.36657 	-3.84141e-19
9.11747 	0.0177276 	3.36657 	-3.84141e-19
9.18761 	0.0177276 	3.36657 	-3.84141e-19
9.25774 	0.0137646 	3.36924 	-3.48629e-20
9.32787 	0.0137646 	3.36924 	-3.48629e-20
9.39801 	0.0137646 	3.36924 	-3.48629e-20
9.46814 	0.0137646 	3.36924 	-3.48629e-20
9.53828 	0.0206425 	3.37777 	-3.99915e-19
9.60841 	0.0206425 	3.37777 	-3.99915e-19
9.67855 	0.0206425 	3.37777 	-3.99915e-19
9.74868 	0.0206425 	3.37777 	-3.99915e-19
9.81881 	0.0206425 	3.37777 	-3.99915e-19
9.88895 	0.0206425 	3.37777 	-3.99915e-19
9.95908 	0.0206358 	3.39012 	-2.42873e-20
10.0292 	0.0206358 	3.39012 	-2.42873e-20
10.0994 	0.0206358 	3.39012 	-2.42873e-20
10.1695 	0.0206358 	3.39012 	-2.42873e-20
10.2396 	0.0206358 	3.39012 	-2.42873e-20
10.3098 	0.0206358 	3.39012 	-2.42873e-20
10.3799 	0.0296144 	3.3976 	3.73394e-19
10.45 	0.0296144 	3.3976 	3.73394e-19
10.5202 	0.0296144 	3.3976 	3.73394e-19
10.5903 	0.0296144 	3.3976 	3.73394e-19
10.6604 	0.0296144 	3.3976 	3.73394e-19
10.7306 	0.0296144 	3.3976 	3.73394e-19
10.8007 	0.0315673 	3.40962 	-3.96642e-19
10.8708 	0.0315673 	3.40962 	-3.96642e-19
10.941 	0.0315673 	3.40962 	-3.96642e-19
11.0111 	0.0315673 	3.40962 	-3.96642e-19
11.0812 	0.0315673 	3.40962 	-3.96642e-19
11.1514 	0.0315673 	3.40962 	-3.96642e-19
11.2215 	0.0315673 	3.40962 	-3.96642e-19
11.2916 	0.0439107 	3.41646 	-7.12536e-19
11.3618 	0.0439107 	3.41646 	-7.12536e-19
11.4319 	0.0439107 	3.41646 	-7.12536e-19
11.502 	0.0439107 	3.41646 	-7.12536e-19
11.5722 	0.0439107 	3.41646 	-7.12536e-19
11.6423 	0.0439107 	3.41646 	-7.12536e-19
11.7124 	0.0491614 	3.42873 	6.88781e-19
11.7826 	0.0491614 	3.42873 	6.88781e-19
11.8527 	0.0491614 	3.42873 	6.88781e-19
11.9228 	0.0491614 	3.42873 	6.88781e-19
11.993 	0.0491614 	3.42873 	6.88781e-19
12.0631 	0.0491614 	3.42873 	6.88781e-19
12.1332 	0.066937 	3.43577 	0
12.2034 	0.066937 	3.43577 	0
12.2735 	0.066937 	3.43577 	0
12.3437 	0.066937 	3.43577 	0
12.4138 	0.066937 	3.43577 	0
12.4839 	0.066937 	3.43577 	0
12.5541 	0.066937 	3.43577 	0
12.6242 	0.0765043 	3.449 	-2.04116e-20
12.6943 	0.0765043 	3.449 	-2.04116e-20
12.7645 	0.0765043 	3.449 	-2.04116e-20
12.8346 	0.0765043 	3.449 	-2.04116e-20
12.9047 	0.0765043 	3.449 	-2.04116e-20
12.9749 	0.0765043 	3.449 	-2.04116e-20
13.045 	0.102111 	3.45743 	2.05018e-20
13.1151 	0.102111 	3.45743 	2.05018e-20
13.1853 	0.102111 	3.45743 	2.05018e-20
13.2554 	0.102111 	3.45743 	2.05018e-20
13.3255 	0.102111 	3.45743 	2.05018e-20
13.3957 	0.102111 	3.45743 	2.05018e-20
13.4658 	0.102111 	3.45743 	2.05018e-20
13.5359 	0.116828 	3.47226 	0
13.6061 	0.116828 	3.47226 	0
13.6762 	0.116828 	3.47226 	0
13.7463 	0.116828 	3.47226 	0
13.8165 	0.116828 	3.47226 	0
13.8866 	0.116828 	3.47226 	0
13.9567 	0.165651 	3.48627 	8.87606e-22
14.0269 	0.165651 	3.48627 	8.87606e-22
14.097 	0.165651 	3.48627 	8.87606e-22
14.1671 	0.165651 	3.48627 	8.87606e-22
14.2373 	0.165651 	3.48627 	8.87606e-22
14.3074 	0.165651 	3.48627 	8.87606e-22
14.3776 	0.16406 	3.49074 	2.27368e-19
14.4477 	0.166346 	3.51983 	-3.61332e-20
14.5178 	0.166346 	3.51983 	-3.61332e-20
14.588 	0.166346 	3.51983 	-3.61332e-20
14.6581 	0.18052 	3.51263 	0
14.7282 	0.18052 	3.51263 	0
14.7984 	0.195789 	3.53811 	-3.941e-19
14.8685 	0.220607 	3.52751 	-3.85548e-19
14.9386 	0.220607 	3.52751 	-3.85548e-19
15.0088 	0.220607 	3.52751 	-3.85548e-19
15.0789 	0.220607 	3.52751 	-3.85548e-19
15.149 	0.238953 	3.51614 	4.00021e-19
15.2192 	0.256954 	3.55234 	3.71352e-19
15.2893 	0.256954 	3.55234 	3.71352e-19
15.3594 	0.256954 	3.55234 	3.71352e-19
15.4296 	0.279178 	3.5308 	-1.07677e-18
15.4997 	0.279178 	3.5308 	-1.07677e-18
15.5698 	0.294582 	3.56103 	6.39999e-19
15.64 	0.294582 	3.56103 	6.39999e-19
15.7101 	0.294582 	3.56103 	6.39999e-19
15.7802 	0.314652 	3.55439 	-1.01242e-18
15.8504 	0.314652 	3.55439 	-1.01242e-18
15.9205 	0.334146 	3.56884 	-3.11367e-19
15.9906 	0.334146 	3.56884 	-3.11367e-19
16.0608 	0.334146 	3.56884 	-3.11367e-19
16.1309 	0.361095 	3.54895 	0
16.201 	0.361095 	3.54895 	0
16.2712 	0.37408 	3.58388 	0
16.3413 	0.37408 	3.58388 	0
16.4114 	0.37408 	3.58388 	0
16.4816 	0.37408 	3.58388 	0
16.5517 	0.392103 	3.55985 	-4.92062e-19
16.6219 	0.427451 	3.58333 	5.80234e-20
16.692 	0.427451 	3.58333 	5.80234e-20
16.7621 	0.427451 	3.58333 	5.80234e-20
16.8323 	0.427451 	3.58333 	5.80234e-20
16.9024 	0.427451 	3.58333 	5.80234e-20
16.9725 	0.470725 	3.57636 	0
17.0427 	0.470725 	3.57636 	0
17.1128 	0.470725 	3.57636 	0
17.1829 	0.470725 	3.57636 	0
17.2531 	0.501632 	3.59302 	0
17.3232 	0.501632 	3.59302 	0
17.3933 	0.501632 	3.59302 	0
17.4635 	0.529211 	3.57376 	4.33308e-19
17.5336 	0.529211 	3.57376 	4.33308e-19
17.6037 	0.549292 	3.58158 	0
17.6739 	0.549292 	3.58158 	0
17.744 	0.549292 	3.58158 	0
17.8141 	0.549292 	3.58158 	0
17.8843 	0.549292 	3.58158 	0
17.9544 	0.60745 	3.56947 	4.90691e-19
18.0245 	0.60745 	3.56947 	4.90691e-19
18.0947 	0.60745 	3.56947 	4.90691e-19
18.1648 	0.60745 	3.56947 	4.90691e-19
18.2349 	0.625328 	3.57882 	-6.69304e-19
18.3051 	0.625328 	3.57882 	-6.69304e-19
18.3752 	0.625328 	3.57882 	-6.69304e-19
18.4453 	0.625328 	3.57882 	-6.69304e-19
18.5155 	0.625328 	3.57882 	-6.69304e-19
18.5856 	0.665113 	3.55818 	-9.45028e-19
18.6557 	0.665113 	3.55818 	-9.45028e-19
18.7259 	0.665113 	3.55818 	-9.45028e-19
18.796 	0.665113 	3.55818 	-9.45028e-19
18.8662 	0.684638 	3.56923 	8.91556e-19
18.9363 	0.684638 	3.56923 	8.91556e-19
19.0064 	0.684638 	3.56923 	8.91556e-19
19.0766 	0.684638 	3.56923 	8.91556e-19
19.1467 	0.684638 	3.56923 	8.91556e-19
19.2168 	0.715304 	3.58618 	2.41905e-19
19.287 	0.705674 	3.53574 	5.16473e-19
19.3571 	0.705674 	3.53574 	5.16473e-19
19.4272 	0.705674 	3.53574 	5.16473e-19
19.4974 	0.705674 	3.53574 	5.16473e-19
19.5675 	0.730859 	3.55217 	1.9795e-19
19.6376 	0.730859 	3.55217 	1.9795e-19
19.7078 	0.730859 	3.55217 	1.9795e-19
19.7779 	0.730859 	3.55217 	1.9795e-19
19.848 	0.730859 	3.55217 	1.9795e-19
19.9182 	0.763952 	3.57264 	-2.334e-19
19.9883 	0.763952 	3.57264 	-2.334e-19
20.0584 	0.731043 	3.48423 	0
20.1286 	0.731043 	3.48423 	0
20.1987 	0.731043 	3.48423 	0
20.2688 	0.760021 	3.51601 	2.1455e-19
20.339 	0.760021 	3.51601 	2.1455e-19
20.4091 	0.760021 	3.51601 	2.1455e-19
20.4792 	0.760021 	3.51601 	2.1455e-19
20.5494 	0.760021 	3.51601 	2.1455e-19
20.6195 	0.797635 	3.54766 	-2.97218e-20
20.6896 	0.797635 	3.54766 	-2.97218e-20
20.7598 	0.797635 	3.54766 	-2.97218e-20
20.8299 	0.797635 	3.54766 	-2.97218e-20
20.9 	0.738202 	3.33721 	9.61324e-19
20.9702 	0.771312 	3.41033 	5.06426e-19
21.0403 	0.771312 	3.41033 	5.06426e-19
21.1105 	0.771312 	3.41033 	5.06426e-19
21.1806 	0.771312 	3.41033 	5.06426e-19
21.2507 	0.771312 	3.41033 	5.06426e-19
21.3209 	0.811998 	3.47023 	-3.26611e-19
21.391 	0.811998 	3.47023 	-3.26611e-19
21.4611 	0.811998 	3.47023 	-3.26611e-19
21.5313 	0.811998 	3.47023 	-3.26611e-19
21.6014 	0.811998 	3.47023 	-3.26611e-19
21.6715 	0.811998 	3.47023 	-3.26611e-19
21.7417 	0.840111 	3.50589 	1.23844e-19
21.8118 	0.840111 	3.50589 	1.23844e-19
21.8819 	0.840111 	3.50589 	1.23844e-19
21.9521 	0.7565 	3.1362 	1.6814e-19
22.0222 	0.7565 	3.1362 	1.6814e-19
22.0923 	0.800596 	3.25135 	6.8832e-19
22.1625 	0.800596 	3.25135 	6.8832e-19
22.2326 	0.800596 	3.25135 	6.8832e-19
22.3027 	0.800596 	3.25135 	6.8832e-19
22.3729 	0.800596 	3.25135 	6.8832e-19
22.443 	0.800596 	3.25135 	6.8832e-19
22.5131 	0.835594 	3.34071 	-3.7631e-20
22.5833 	0.835594 	3.34071 	-3.7631e-20
22.6534 	0.835594 	3.34071 	-3.7631e-20
22.7235 	0.835594 	3.34071 	-3.7631e-20
22.7937 	0.835594 	3.34071 	-3.7631e-20
22.8638 	0.874798 	3.4087 	-3.73825e-19
22.9339 	0.874798 	3.4087 	-3.73825e-19
23.0041 	0.874798 	3.4087 	-3.73825e-19
23.0742 	0.733066 	2.70586 	5.71966e-19
23.1443 	0.733066 	2.70586 	5.71966e-19
23.2145 	0.733066 	2.70586 	5.71966e-19
23.2846 	0.781901 	2.88354 	9.75742e-20
23.3548 	0.781901 	2.88354 	9.75742e-20
23.4249 	0.781901 	2.88354 	9.75742e-20
23.495 	0.781901 	2.88354 	9.75742e-20
23.5652 	0.781901 	2.88354 	9.75742e-20
23.6353 	0.781901 	2.88354 	9.75742e-20
23.7054 	0.821222 	2.9876 	1.87254e-19
23.7756 	0.821222 	2.9876 	1.87254e-19
23.8457 	0.821222 	2.9876 	1.87254e-19
23.9158 	0.821222 	2.9876 	1.87254e-19
23.986 	0.821222 	2.9876 	1.87254e-19
24.0561 	0.821222 	2.9876 	1.87254e-19
24.1262 	0.866906 	3.12557 	0
24.1964 	0.866906 	3.12557 	0
24.2665 	0.866906 	3.12557 	0
24.3366 	0.866906 	3.12557 	0
24.4068 	0.866906 	3.12557 	0
24.4769 	0.676603 	2.23507 	3.90772e-19
24.547 	0.676603 	2.23507 	3.90772e-19
24.6172 	0.704179 	2.30402 	4.73682e-19
24.6873 	0.704179 	2.30402 	4.73682e-19
24.7574 	0.704179 	2.30402 	4.73682e-19
24.8276 	0.704179 	2.30402 	4.73682e-19
24.8977 	0.704179 	2.30402 	4.73682e-19
24.9678 	0.704179 	2.30402 	4.73682e-19
25.038 	0.751522 	2.46057 	-1.6091e-19
25.1081 	0.751522 	2.46057 	-1.6091e-19
25.1782 	0.751522 	2.46057 	-1.6091e-19
25.2484 	0.751522 	2.46057 	-1.6091e-19
25.3185 	0.751522 	2.46057 	-1.6091e-19
25.3886 	0.751522 	2.46057 	-1.6091e-19
25.4588 	0.777165 	2.52093 	0
25.5289 	0.777165 	2.52093 	0
25.5991 	0.777165 	2.52093 	0
25.6692 	0.777165 	2.52093 	0
25.7393 	0.777165 	2.52093 	0
25.8095 	0.777165 	2.52093 	0
25.8796 	0.777165 	2.52093 	0
25.9497 	0.823683 	2.65618 	2.36967e-19
26.0199 	0.823683 	2.65618 	2.36967e-19
26.09 	0.626938 	1.90286 	2.19001e-19
26.1601 	0.626938 	1.90286 	2.19001e-19
26.2303 	0.626938 	1.90286 	2.19001e-19
26.3004 	0.626938 	1.90286 	2.19001e-19
26.3705 	0.626938 	1.90286 	2.19001e-19
26.4407 	0.642252 	1.93065 	-4.92137e-19
26.5108 	0.642252 	1.93065 	-4.92137e-19
26.5809 	0.642252 	1.93065 	-4.92137e-19
26.6511 	0.642252 	1.93065 	-4.92137e-19
26.7212 	0.642252 	1.93065 	-4.92137e-19
26.7913 	0.642252 	1.93065 	-4.92137e-19
26.8615 	0.642252 	1.93065 	-4.92137e-19
26.9316 	0.666386 	1.99705 	2.84463e-19
27.0017 	0.666386 	1.99705 	2.84463e-19
27.0719 	0.666386 	1.99705 	2.84463e-19
27.142 	0.666386 	1.99705 	2.84463e-19
27.2121 	0.666386 	1.99705 	2.84463e-19
27.2823 	0.666386 	1.99705 	2.84463e-19
27.3524 	0.679166 	2.01502 	7.74962e-20
27.4225 	0.679166 	2.01502 	7.74962e-20
27.4927 	0.679166 	2.01502 	7.74962e-20
27.5628 	0.679166 	2.01502 	7.74962e-20
27.6329 	0.679166 	2.01502 	7.74962e-20
27.7031 	0.679166 	2.01502 	7.74962e-20
27.7732 	0.679166 	2.01502 	7.74962e-20
27.8434 	0.679166 	2.01502 	7.74962e-20
27.9135 	0.700311 	2.06057 	7.16404e-20
27.9836 	0.700311 	2.06057 	7.16404e-20
28.0538 	0.700311 	2.06057 	7.16404e-20
28.1239 	0.700311 	2.06057 	7.16404e-20
28.194 	0.700311 	2.06057 	7.16404e-20
28.2642 	0.700311 	2.06057 	7.16404e-20
28.3343 	0.57445 	1.68509 	-7.05106e-20
28.4044 	0.57494 	1.69376 	1.39051e-19
28.4746 	0.57494 	1.69376 	1.39051e-19
28.5447 	0.57494 	1.69376 	1.39051e-19
28.6148 	0.57494 	1.69376 	1.39051e-19
28.685 	0.57494 	1.69376 	1.39051e-19
28.7551 	0.57494 	1.69376 	1.39051e-19
28.8252 	0.57494 	1.69376 	1.39051e-19
28.8954 	0.57494 	1.69376 	1.39051e-19
28.9655 	0.5846 	1.70311 	1.13991e-19
29.0356 	0.5846 	1.70311 	1.13991e-19
29.1058 	0.5846 	1.70311 	1.13991e-19
29.1759 	0.5846 	1.70311 	1.13991e-19
29.246 	0.5846 	1.70311 	1.13991e-19
29.3162 	0.5846 	1.70311 	1.13991e-19
29.3863 	0.5846 	1.70311 	1.13991e-19
29.4564 	0.586715 	1.69797 	-1.05279e-19
29.5266 	0.586715 	1.69797 	-1.05279e-19
29.5967 	0.586715 	1.69797 	-1.05279e-19
29.6668 	0.586715 	1.69797 	-1.05279e-19
29.737 	0.586715 	1.69797 	-1.05279e-19
29.8071 	0.586715 	1.69797 	-1.05279e-19
29.8773 	0.586715 	1.69797 	-1.05279e-19
29.9474 	0.586715 	1.69797 	-1.05279e-19
30.0175 	0.594737 	1.6963 	1.03638e-19
30.0877 	0.594737 	1.6963 	1.03638e-19
30.1578 	0.594737 	1.6963 	1.03638e-19
30.2279 	0.594737 	1.6963 	1.03638e-19
30.2981 	0.594737 	1.6963 	1.03638e-19
30.3682 	0.594737 	1.6963 	1.03638e-19
30.4383 	0.594737 	1.6963 	1.03638e-19
30.5085 	0.594737 	1.6963 	1.03638e-19
30.5786 	0.594313 	1.67813 	-1.95473e-19
30.6487 	0.594313 	1.67813 	-1.95473e-19
30.7189 	0.594313 	1.67813 	-1.95473e-19
30.789 	0.594313 	1.67813 	-1.95473e-19
30.8591 	0.594313 	1.67813 	-1.95473e-19
30.9293 	0.594313 	1.67813 	-1.95473e-19
30.9994 	0.594313 	1.67813 	-1.95473e-19
31.0695 	0.594313 	1.67813 	-1.95473e-19
31.1397 	0.599831 	1.66137 	9.74536e-20
31.2098 	0.599831 	1.66137 	9.74536e-20
31.2799 	0.599831 	1.66137 	9.74536e-20
31.3501 	0.599831 	1.66137 	9.74536e-20
31.4202 	0.599831 	1.66137 	9.74536e-20
31.4903 	0.599831 	1.66137 	9.74536e-20
31.5605 	0.566025 	1.596 	-1.48374e-19
31.6306 	0.566025 	1.596 	-1.48374e-19
31.7007 	0.559256 	1.58538 	4.89382e-20
31.7709 	0.559256 	1.58538 	4.89382e-20
31.841 	0.559256 	1.58538 	4.89382e-20
31.9111 	0.559256 	1.58538 	4.89382e-20
31.9813 	0.559256 	1.58538 	4.89382e-20
32.0514 	0.559256 	1.58538 	4.89382e-20
32.1216 	0.559256 	1.58538 	4.89382e-20
32.1917 	0.559256 	1.58538 	4.89382e-20
32.2618 	0.559256 	1.58538 	4.89382e-20
32.332 	0.555166 	1.56802 	0
32.4021 	0.555166 	1.56802 	0
32.4722 	0.555166 	1.56802 	0
32.5424 	0.555166 	1.56802 	0
32.6125 	0.555166 	1.56802 	0
32.6826 	0.555166 	1.56802 	0
32.7528 	0.555166 	1.56802 	0
32.8229 	0.555166 	1.56802 	0
32.893 	0.555166 	1.56802 	0
32.9632 	0.539293 	1.54574 	0
33.0333 	0.539293 	1.54574 	0
33.1034 	0.539293 	1.54574 	0
33.1736 	0.539293 	1.54574 	0
33.2437 	0.539293 	1.54574 	0
33.3138 	0.539293 	1.54574 	0
33.384 	0.539293 	1.54574 	0
33.4541 	0.539293 	1.54574 	0
33.5242 	0.539293 	1.54574 	0
33.5944 	0.517019 	1.52274 	-2.7591e-20
33.6645 	0.517019 	1.52274 	-2.7591e-20
33.7346 	0.517019 	1.52274 	-2.7591e-20
33.8048 	0.517019 	1.52274 	-2.7591e-20
33.8749 	0.517019 	1.52274 	-2.7591e-20
33.945 	0.517019 	1.52274 	-2.7591e-20
34.0152 	0.517019 	1.52274 	-2.7591e-20
34.0853 	0.517019 	1.52274 	-2.7591e-20
34.1554 	0.517019 	1.52274 	-2.7591e-20
34.2256 	0.48158 	1.50364 	3.18076e-20
34.2957 	0.48158 	1.50364 	3.18076e-20
34.3659 	0.48158 	1.50364 	3.18076e-20
34.436 	0.48158 	1.50364 	3.18076e-20
34.5061 	0.48158 	1.50364 	3.18076e-20
34.5763 	0.48158 	1.50364 	3.18076e-20
34.6464 	0.48158 	1.50364 	3.18076e-20
34.7165 	0.48158 	1.50364 	3.18076e-20
34.7867 	0.48158 	1.50364 	3.18076e-20
34.8568 	0.48158 	1.50364 	3.18076e-20
34.9269 	0.438723 	1.48594 	-6.90415e-20
34.9971 	0.438723 	1.48594 	-6.90415e-20
35.0672 	0.438723 	1.48594 	-6.90415e-20
35.1373 	0.438723 	1.48594 	-6.90415e-20
35.2075 	0.438723 	1.48594 	-6.90415e-20
35.2776 	0.438723 	1.48594 	-6.90415e-20
35.3477 	0.438723 	1.48594 	-6.90415e-20
35.4179 	0.438723 	1.48594 	-6.90415e-20
35.488 	0.438723 	1.48594 	-6.90415e-20
35.5581 	0.438723 	1.48594 	-6.90415e-20
35.6283 	0.391627 	1.47199 	1.4037e-20
35.6984 	0.391627 	1.47199 	1.4037e-20
35.7685 	0.391627 	1.47199 	1.4037e-20
35.8387 	0.391627 	1.47199 	1.4037e-20
35.9088 	0.391627 	1.47199 	1.4037e-20
35.9789 	0.391627 	1.47199 	1.4037e-20
36.0491 	0.391627 	1.47199 	1.4037e-20
36.1192 	0.391627 	1.47199 	1.4037e-20
36.1893 	0.391627 	1.47199 	1.4037e-20
36.2595 	0.391627 	1.47199 	1.4037e-20
36.3296 	0.347685 	1.46492 	-1.86491e-20
36.3997 	0.347685 	1.46492 	-1.86491e-20
36.4699 	0.347685 	1.46492 	-1.86491e-20
36.54 	0.347685 	1.46492 	-1.86491e-20
36.6102 	0.347685 	1.46492 	-1.86491e-20
36.6803 	0.347685 	1.46492 	-1.86491e-20
36.7504 	0.347685 	1.46492 	-1.86491e-20
36.8206 	0.347685 	1.46492 	-1.86491e-20
36.8907 	0.347685 	1.46492 	-1.86491e-20
36.9608 	0.347685 	1.46492 	-1.86491e-20
37.031 	0.347685 	1.46492 	-1.86491e-20
37.1011 	0.310459 	1.4646 	0
37.1712 	0.310459 	1.4646 	0
37.2414 	0.310459 	1.4646 	0
37.3115 	0.310459 	1.4646 	0
37.3816 	0.310459 	1.4646 	0
37.4518 	0.310459 	1.4646 	0
37.5219 	0.310459 	1.4646 	0
37.592 	0.310459 	1.4646 	0
37.6622 	0.277267 	1.46678 	0
37.7323 	0.277267 	1.46678 	0
37.8024 	0.277267 	1.46678 	0
37.8726 	0.277267 	1.46678 	0
37.9427 	0.277267 	1.46678 	0
38.0128 	0.277267 	1.46678 	0
38.083 	0.277267 	1.46678 	0
38.1531 	0.277267 	1.46678 	0
38.2232 	0.277267 	1.46678 	0
38.2934 	0.245334 	1.46981 	0
38.3635 	0.245334 	1.46981 	0
38.4336 	0.245334 	1.46981 	0
38.5038 	0.245334 	1.46981 	0
38.5739 	0.245334 	1.46981 	0
38.644 	0.245334 	1.46981 	0
38.7142 	0.245334 	1.46981 	0
38.7843 	0.245334 	1.46981 	0
38.8545 	0.245334 	1.46981 	0
38.9246 	0.215432 	1.47316 	0
38.9947 	0.215432 	1.47316 	0
39.0649 	0.215432 	1.47316 	0
39.135 	0.215432 	1.47316 	0
39.2051 	0.215432 	1.47316 	0
39.2753 	0.215432 	1.47316 	0
39.3454 	0.215432 	1.47316 	0
39.4155 	0.215432 	1.47316 	0
39.4857 	0.215432 	1.47316 	0
39.5558 	0.187272 	1.4759 	0
39.6259 	0.187272 	1.4759 	0
39.6961 	0.187272 	1.4759 	0
39.7662 	0.187272 	1.4759 	0
39.8363 	0.187272 	1.4759 	0
39.9065 	0.187272 	1.4759 	0
39.9766 	0.187272 	1.4759 	0
40.0467 	0.187272 	1.4759 	0
40.1169 	0.160524 	1.47823 	0
40.187 	0.160524 	1.47823 	0
40.2571 	0.160524 	1.47823 	0
40.3273 	0.160524 	1.47823 	0
40.3974 	0.160524 	1.47823 	0
40.4675 	0.160524 	1.47823 	0
40.5377 	0.160524 	1.47823 	0
40.6078 	0.160524 	1.47823 	0
40.6779 	0.160524 	1.47823 	0
40.7481 	0.135959 	1.47984 	0
40.8182 	0.135959 	1.47984 	0
40.8883 	0.135959 	1.47984 	0
40.9585 	0.135959 	1.47984 	0
41.0286 	0.135959 	1.47984 	0
41.0988 	0.135959 	1.47984 	0
41.1689 	0.135959 	1.47984 	0
41.239 	0.135959 	1.47984 	0
41.3092 	0.135959 	1.47984 	0
41.3793 	0.113882 	1.48001 	0
41.4494 	0.113882 	1.48001 	0
41.5196 	0.113882 	1.48001 	0
41.5897 	0.113882 	1.48001 	0
41.6598 	0.113882 	1.48001 	0
41.73 	0.113882 	1.48001 	0
41.8001 	0.113882 	1.48001 	0
41.8702 	0.113882 	1.48001 	0
41.9404 	0.113882 	1.48001 	0
42.0105 	0.093852 	1.47866 	0
42.0806 	0.093852 	1.47866 	0
42.1508 	0.093852 	1.47866 	0
42.2209 	0.093852 	1.47866 	0
42.291 	0.093852 	1.47866 	0
42.3612 	0.093852 	1.47866 	0
42.4313 	0.093852 	1.47866 	0
42.5014 	0.093852 	1.47866 	0
42.5716 	0.093852 	1.47866 	0
42.6417 	0.0752834 	1.47675 	0
42.7118 	0.0752834 	1.47675 	0
42.782 	0.0752834 	1.47675 	0
42.8521 	0.0752834 	1.47675 	0
42.9222 	0.0752834 	1.47675 	0
42.9924 	0.0752834 	1.47675 	0
43.0625 	0.0752834 	1.47675 	0
43.1327 	0.0752834 	1.47675 	0
43.2028 	0.0585197 	1.47444 	0
43.2729 	0.0585197 	1.47444 	0
43.3431 	0.0585197 	1.47444 	0
43.4132 	0.0585197 	1.47444 	0
43.4833 	0.0585197 	1.47444 	0
43.5535 	0.0585197 	1.47444 	0
43.6236 	0.0585197 	1.47444 	0
43.6937 	0.0585197 	1.47444 	0
43.7639 	0.0585197 	1.47444 	0
43.834 	0.0443833 	1.4711 	0
43.9041 	0.0443833 	1.4711 	0
43.9743 	0.0443833 	1.4711 	0
44.0444 	0.0443833 	1.4711 	0
44.1145 	0.0443833 	1.4711 	0
44.1847 	0.0443833 	1.4711 	0
44.2548 	0.0443833 	1.4711 	0
44.3249 	0.0443833 	1.4711 	0
44.3951 	0.0443833 	1.4711 	0
44.4652 	0.0326646 	1.46754 	0
44.5353 	0.0326646 	1.46754 	0
44.6055 	0.0326646 	1.46754 	0
44.6756 	0.0326646 	1.46754 	0
44.7457 	0.0326646 	1.46754 	0
44.8159 	0.0326646 	1.46754 	0
44.886 	0.0326646 	1.46754 	0
44.9561 	0.0326646 	1.46754 	0
45.0263 	0.0326646 	1.46754 	0
45.0964 	0.0224045 	1.46472 	0
45.1665 	0.0224045 	1.46472 	0
45.2367 	0.0224045 	1.46472 	0
45.3068 	0.0224045 	1.46472 	0
45.377 	0.0224045 	1.46472 	0
45.4471 	0.0224045 	1.46472 	0
45.5172 	0.0224045 	1.46472 	0
45.5874 	0.0224045 	1.46472 	0
45.6575 	0.0127997 	1.46285 	0
45.7276 	0.0127997 	1.46285 	0
45.7978 	0.0127997 	1.46285 	0
45.8679 	0.0127997 	1.46285 	0
45.938 	0.0127997 	1.46285 	0
46.0082 	0.0127997 	1.46285 	0
46.0783 	0.0127997 	1.46285 	0
46.1484 	0.0127997 	1.46285 	0
46.2186 	0.0127997 	1.46285 	0
46.2887 	0.00422211 	1.46159 	0
46.3588 	0.00422211 	1.46159 	0
46.429 	0.00422211 	1.46159 	0
46.4991 	0.00422211 	1.46159 	0
46.5692 	0.00422211 	1.46159 	0
46.6394 	0.00422211 	1.46159 	0
46.7095 	0.00422211 	1.46159 	0
46.7796 	0.000180905 	1.45175 	0
46.8498 	0.000180905 	1.45175 	0
46.9199 	-0.0073912 	1.45479 	0
46.99 	-0.0073912 	1.45479 	0
47.0602 	-0.0073912 	1.45479 	0
47.1303 	-0.0073912 	1.45479 	0
47.2004 	-0.0073912 	1.45479 	0
47.2706 	-0.0073912 	1.45479 	0
47.3407 	-0.0073912 	1.45479 	0
47.4108 	-0.0073912 	1.45479 	0
47.481 	-0.0073912 	1.45479 	0
47.5511 	-0.0111644 	1.45891 	0
47.6213 	-0.0111644 	1.45891 	0
47.6914 	-0.0111644 	1.45891 	0
47.7615 	-0.0111644 	1.45891 	0
47.8317 	-0.0111644 	1.45891 	0
47.9018 	-0.0111644 	1.45891 	0
47.9719 	-0.0111644 	1.45891 	0
48.0421 	-0.0111644 	1.45891 	0
48.1122 	-0.0111644 	1.45891 	0
48.1823 	-0.0119622 	1.46401 	0
48.2525 	-0.0119622 	1.46401 	0
48.3226 	-0.0119622 	1.46401 	0
48.3927 	-0.0119622 	1.46401 	0
48.4629 	-0.0119622 	1.46401 	0
48.533 	-0.0119622 	1.46401 	0
48.6031 	-0.0119622 	1.46401 	0
48.6733 	-0.0119622 	1.46401 	0
48.7434 	-0.0114626 	1.47093 	0
48.8135 	-0.0114626 	1.47093 	0
48.8837 	-0.0114626 	1.47093 	0
48.9538 	-0.0114626 	1.47093 	0
49.0239 	-0.0114626 	1.47093 	0
49.0941 	-0.0114626 	1.47093 	0
49.1642 	-0.0114626 	1.47093 	0
49.2343 	-0.0114626 	1.47093 	0
49.3045 	-0.0114626 	1.47093 	0
49.3746 	-0.0106508 	1.47953 	0
49.4447 	-0.0106508 	1.47953 	0
49.5149 	-0.0106508 	1.47953 	0
49.585 	-0.0106508 	1.47953 	0
49.6551 	-0.0106508 	1.47953 	0
49.7253 	-0.0106508 	1.47953 	0
49.7954 	-0.0106508 	1.47953 	0
49.8656 	-0.0106508 	1.47953 	0
49.9357 	-0.0106508 	1.47953 	0
50.0058 	-0.0100102 	1.48974 	0
50.076 	-0.0100102 	1.48974 	0
50.1461 	-0.0100102 	1.48974 	0
50.2162 	-0.0100102 	1.48974 	0
50.2864 	-0.0100102 	1.48974 	0
50.3565 	-0.0100102 	1.48974 	0
50.4266 	-0.0100102 	1.48974 	0
50.4968 	-0.0100102 	1.48974 	0
50.5669 	-0.0100102 	1.48974 	0
50.637 	-0.00721047 	1.50072 	0
50.7072 	-0.00721047 	1.50072 	0
50.7773 	-0.00721047 	1.50072 	0
50.8474 	-0.00721047 	1.50072 	0
50.9176 	-0.00721047 	1.50072 	0
50.9877 	-0.00721047 	1.50072 	0
51.0578 	-0.00721047 	1.50072 	0
51.128 	-0.00721047 	1.50072 	0
51.1981 	-0.00721047 	1.50072 	0
51.2682 	-8.74215e-05 	1.51239 	0
51.3384 	-8.74215e-05 	1.51239 	0
51.4085 	-8.74215e-05 	1.51239 	0
51.4786 	-8.74215e-05 	1.51239 	0
51.5488 	-8.74215e-05 	1.51239 	0
51.6189 	-8.74215e-05 	1.51239 	0
51.689 	-8.74215e-05 	1.51239 	0
51.7592 	-8.74215e-05 	1.51239 	0
51.8293 	0.0143396 	1.52565 	0
51.8994 	0.0143396 	1.52565 	0
51.9696 	0.0143396 	1.52565 	0
52.0397 	0.0143396 	1.52565 	0
52.1099 	0.0143396 	1.52565 	0
52.18 	0.0143396 	1.52565 	0
52.2501 	0.0143396 	1.52565 	0
52.3203 	0.0143396 	1.52565 	0
52.3904 	0.0143396 	1.52565 	0
52.4605 	0.0372932 	1.54005 	0
52.5307 	0.0372932 	1.54005 	0
52.6008 	0.0372932 	1.54005 	0
52.6709 	0.0372932 	1.54005 	0
52.7411 	0.0372932 	1.54005 	0
52.8112 	0.0372932 	1.54005 	0
52.8813 	0.0372932 	1.54005 	0
52.9515 	0.0372932 	1.54005 	0
53.0216 	0.0372932 	1.54005 	0
53.0917 	0.0682809 	1.55648 	0
53.1619 	0.0682809 	1.55648 	0
53.232 	0.0682809 	1.55648 	0
53.3021 	0.0682809 	1.55648 	0
53.3723 	0.0682809 	1.55648 	0
53.4424 	0.0682809 	1.55648 	0
53.5125 	0.0682809 	1.55648 	0
53.5827 	0.0682809 	1.55648 	0
53.6528 	0.0682809 	1.55648 	0
53.7229 	0.105123 	1.57443 	0
53.7931 	0.105123 	1.57443 	0
53.8632 	0.105123 	1.57443 	0
53.9333 	0.105123 	1.57443 	0
54.0035 	0.105123 	1.57443 	0
54.0736 	0.105123 	1.57443 	0
54.1437 	0.105123 	1.57443 	0
54.2139 	0.105123 	1.57443 	0
54.284 	0.147312 	1.59454 	0
54.3542 	0.147312 	1.59454 	0
54.4243 	0.147312 	1.59454 	0
54.4944 	0.147312 	1.59454 	0
54.5646 	0.147312 	1.59454 	0
54.6347 	0.147312 	1.59454 	0
54.7048 	0.147312 	1.59454 	0
54.775 	0.147312 	1.59454 	0
54.8451 	0.147312 	1.59454 	0
54.9152 	0.19567 	1.61472 	0
54.9854 	0.19567 	1.61472 	0
55.0555 	0.19567 	1.61472 	0
55.1256 	0.19567 	1.61472 	0
55.1958 	0.19567 	1.61472 	0
55.2659 	0.19567 	1.61472 	0
55.336 	0.19567 	1.61472 	0
55.4062 	0.19567 	1.61472 	0
55.4763 	0.19567 	1.61472 	0
55.5464 	0.250006 	1.63582 	0
55.6166 	0.250006 	1.63582 	0
55.6867 	0.250006 	1.63582 	0
55.7568 	0.250006 	1.63582 	0
55.827 	0.250006 	1.63582 	0
55.8971 	0.250006 	1.63582 	0
55.9672 	0.250006 	1.63582 	0
56.0374 	0.250006 	1.63582 	0
56.1075 	0.250006 	1.63582 	0
56.1776 	0.308124 	1.65959 	0
56.2478 	0.308124 	1.65959 	0
56.3179 	0.308124 	1.65959 	0
56.3881 	0.308124 	1.65959 	0
56.4582 	0.308124 	1.65959 	0
56.5283 	0.308124 	1.65959 	0
56.5985 	0.308124 	1.65959 	0
56.6686 	0.308124 	1.65959 	0
56.7387 	0.308124 	1.65959 	0
56.8089 	0.366071 	1.68991 	0
56.879 	0.366071 	1.68991 	0
56.9491 	0.366071 	1.68991 	0
57.0193 	0.366071 	1.68991 	0
57.0894 	0.366071 	1.68991 	0
57.1595 	0.366071 	1.68991 	0
57.2297 	0.366071 	1.68991 	0
57.2998 	0.366071 	1.68991 	0
57.3699 	0.41834 	1.72867 	0
57.4401 	0.41834 	1.72867 	0
57.5102 	0.41834 	1.72867 	0
57.5803 	0.41834 	1.72867 	0
57.6505 	0.41834 	1.72867 	0
57.7206 	0.41834 	1.72867 	0
57.7907 	0.41834 	1.72867 	0
57.8609 	0.41834 	1.72867 	0
57.931 	0.41834 	1.72867 	0
58.0011 	0.459763 	1.77795 	0
58.0713 	0.459763 	1.77795 	0
58.1414 	0.459763 	1.77795 	0
58.2115 	0.459763 	1.77795 	0
58.2817 	0.459763 	1.77795 	0
58.3518 	0.459763 	1.77795 	0
58.4219 	0.459763 	1.77795 	0
58.4921 	0.459763 	1.77795 	0
58.5622 	0.459763 	1.77795 	0
58.6324 	0.488189 	1.83378 	0
58.7025 	0.488189 	1.83378 	0
58.7726 	0.488189 	1.83378 	0
58.8428 	0.488189 	1.83378 	0
58.9129 	0.488189 	1.83378 	0
58.983 	0.488189 	1.83378 	0
59.0532 	0.488189 	1.83378 	0
59.1233 	0.488189 	1.83378 	0
59.1934 	0.488189 	1.83378 	0
59.2636 	0.502435 	1.89763 	0
59.3337 	0.502435 	1.89763 	0
59.4038 	0.502435 	1.89763 	0
59.474 	0.502435 	1.89763 	0
59.5441 	0.502435 	1.89763 	0
59.6142 	0.502435 	1.89763 	0
59.6844 	0.502435 	1.89763 	0