/*--------------------------------*- C++ -*----------------------------------*\
| =========                 |                                                 |
| \\      /  F ield         | OpenFOAM: The Open Source CFD Toolbox           |
|  \\    /   O peration     | Version:  2106                                  |
|   \\  /    A nd           | Website:  www.openfoam.com                      |
|    \\/     M anipulation  |                                                 |
\*---------------------------------------------------------------------------*/
FoamFile
{
    version     2.0;
    format      ascii;
    arch        "LSB;label=32;scalar=64";
    class       volScalarField;
    location    "4";
    object      T;
}
// * * * * * * * * * * * * * * * * * * * * * * * * * * * * * * * * * * * * * //

dimensions      [0 0 0 1 0 0 0];

internalField   nonuniform List<scalar> 
1000
(
0
0
0
0
0
0
0
0
0
0
0
0
0
0
0
0
0
0
0
0
0
0
0
0
0
0
0
0
0
0
0
0
0
0
0
0
0
0
0
0
0
0
0
0
0
0
0
0
0
0
0
0
0
0
0
0
0
0
0
0
0
0
0
0
0
0
0
0
0
0
0
0
0
0
0
0
0
0
0
0
0
0
0
0
0
0
0
0
0
0
0
0
0
0
0
0
0
0
0
0
0
0
0
0
0
0
0
0
0
0
0
0
0
0
0
0
0
0
0
0
0
0
0
0
0
0
0
0
0
0
0
0
0
0
0
0
0
0
0
0
0
0
0
0
0
0
0
0
0
0
0
0
0
0
0
0
0
0
0
0
0
0
0
0
0
0
0
0
0
0
0
0
0
0
0
0
0
0
0
0
0
0
0
0
0
0
0
0
0
0
0
0
0
0
0
0
0
0
0
0
0
0
0
0
0
0
0
0
0
0
0
0
0
0
0
0
0
0
0
0
0
0
0
0
0
0
0
0
0
0
0
0
0
0
0
0
0
0
0
0
0
0
0
0
0
0
0
0
0
0
0
0
0
0
0
0
0
0
0
0
0
0
0
0
0
0
0
0
0
0
0
0
0
0
0
0
0
0
0
0
0
0
0
0
0
0
0
0
0
0
4.94066e-324
9.88131e-324
1.4822e-323
1.97626e-323
2.47033e-323
2.96439e-323
2.96439e-323
2.96439e-323
2.96439e-323
2.96439e-323
2.96439e-323
2.96439e-323
3.45846e-323
1.03754e-322
4.11557e-321
2.24879e-319
1.23005e-317
6.69649e-316
3.62793e-314
1.95585e-312
1.04921e-310
5.60041e-309
2.97434e-307
1.57164e-305
8.26217e-304
4.32106e-302
2.24814e-300
1.16352e-298
5.98996e-297
3.06726e-295
1.56219e-293
7.91327e-292
3.98652e-290
1.99722e-288
9.95017e-287
4.92932e-285
2.42813e-283
1.18923e-281
5.79083e-280
2.80335e-278
1.34912e-276
6.45416e-275
3.06914e-273
1.45063e-271
6.81458e-270
3.18152e-268
1.47611e-266
6.80558e-265
3.1178e-263
1.41919e-261
6.41821e-260
2.88364e-258
1.28705e-256
5.70619e-255
2.51284e-253
1.09906e-251
4.77407e-250
2.05936e-248
8.82111e-247
3.75171e-245
1.58423e-243
6.64138e-242
2.76386e-240
1.14171e-238
4.6811e-237
1.90482e-235
7.69197e-234
3.08223e-232
1.22546e-230
4.83395e-229
1.89163e-227
7.34283e-226
2.82712e-224
1.07954e-222
4.08793e-221
1.53497e-219
5.71461e-218
2.1092e-216
7.71708e-215
2.79863e-213
1.00589e-211
3.58279e-210
1.26448e-208
4.42154e-207
1.53164e-205
5.25552e-204
1.78606e-202
6.01102e-201
2.00317e-199
6.60926e-198
2.15873e-196
6.97911e-195
2.23305e-193
7.07033e-192
2.21494e-190
6.86447e-189
2.10433e-187
6.37997e-186
1.91276e-184
5.66986e-183
1.66146e-181
4.81223e-180
1.37744e-178
3.89583e-177
1.08857e-175
3.00449e-174
8.18971e-173
2.20432e-171
5.85753e-170
1.53641e-168
3.9772e-167
1.01588e-165
2.55988e-164
6.36247e-163
1.55947e-161
3.76865e-160
8.9777e-159
2.10778e-157
4.87614e-156
1.11128e-154
2.49447e-153
5.51369e-152
1.19983e-150
2.56988e-149
5.41656e-148
1.12319e-146
2.29086e-145
4.59471e-144
9.06004e-143
1.75594e-141
3.3442e-140
6.2571e-139
1.14986e-137
2.07494e-136
3.67576e-135
6.39088e-134
1.09029e-132
1.82469e-131
2.99497e-130
4.82004e-129
7.60431e-128
1.17576e-126
1.78128e-125
2.64361e-124
3.84257e-123
5.46907e-122
7.62051e-121
1.03932e-119
1.38715e-118
1.81147e-117
2.3142e-116
2.89178e-115
3.53394e-114
4.22306e-113
4.93422e-112
5.63621e-111
6.29355e-110
6.86929e-109
7.32843e-108
7.64143e-107
7.78741e-106
7.75642e-105
7.55064e-104
7.18408e-103
6.681e-102
6.07323e-101
5.39681e-100
4.68849e-99
3.98246e-98
3.30784e-97
2.687e-96
2.13494e-95
1.65945e-94
1.26205e-93
9.39298e-93
6.84261e-92
4.87999e-91
3.40788e-90
2.33082e-89
1.56166e-88
1.02522e-87
6.5963e-87
4.16039e-86
2.5729e-85
1.56053e-84
9.28501e-84
5.42079e-83
3.10611e-82
1.74724e-81
9.65109e-81
5.23591e-80
2.79066e-79
1.46159e-78
7.52409e-78
3.80798e-77
1.89518e-76
9.27734e-76
4.46802e-75
2.11751e-74
9.87764e-74
4.53624e-73
2.05139e-72
9.13709e-72
4.00928e-71
1.73347e-70
7.38666e-70
3.10279e-69
1.28503e-68
5.24835e-68
2.11428e-67
8.40262e-67
3.29507e-66
1.27524e-65
4.87161e-65
1.83734e-64
6.84251e-64
2.51667e-63
9.14318e-63
3.2817e-62
1.16387e-61
4.07923e-61
1.41317e-60
4.83968e-60
1.63875e-59
5.48713e-59
1.8171e-58
5.95218e-58
1.92884e-57
6.18446e-57
1.96223e-56
6.16166e-56
1.91515e-55
5.89279e-55
1.79517e-54
5.41516e-54
1.61767e-53
4.78622e-53
1.40272e-52
4.07262e-52
1.17152e-51
3.33925e-51
9.43227e-51
2.64057e-50
7.32723e-50
2.01552e-49
5.49644e-49
1.48617e-48
3.98462e-48
1.05945e-47
2.79378e-47
7.30733e-47
1.89592e-46
4.87994e-46
1.24618e-45
3.1576e-45
7.93925e-45
1.98099e-44
4.90574e-44
1.20581e-43
2.94196e-43
7.12554e-43
1.71337e-42
4.09045e-42
9.69638e-42
2.28243e-41
5.3354e-41
1.23865e-40
2.85608e-40
6.54129e-40
1.48819e-39
3.36341e-39
7.55198e-39
1.68471e-38
3.73426e-38
8.22473e-38
1.80014e-37
3.91544e-37
8.46398e-37
1.81849e-36
3.88344e-36
8.24355e-36
1.73952e-35
3.6491e-35
7.61037e-35
1.57802e-34
3.25336e-34
6.66936e-34
1.35954e-33
2.75598e-33
5.55595e-33
1.11394e-32
2.22129e-32
4.40566e-32
8.69158e-32
1.70564e-31
3.32966e-31
6.46627e-31
1.2493e-30
2.40139e-30
4.59256e-30
8.73907e-30
1.65467e-29
3.11753e-29
5.84495e-29
1.09054e-28
2.02491e-28
3.74192e-28
6.88215e-28
1.25983e-27
2.29546e-27
4.16313e-27
7.51579e-27
1.35068e-26
2.41638e-26
4.3036e-26
7.63073e-26
1.34705e-25
2.36755e-25
4.14311e-25
7.21907e-25
1.2525e-24
2.16386e-24
3.72264e-24
6.37759e-24
1.08807e-23
1.84872e-23
3.1283e-23
5.27208e-23
8.84925e-23
1.47943e-22
2.46353e-22
4.0861e-22
6.75091e-22
1.11104e-21
1.82146e-21
2.97474e-21
4.8398e-21
7.84452e-21
1.26671e-20
2.03786e-20
3.26638e-20
5.21635e-20
8.3001e-20
1.31592e-19
2.07881e-19
3.2723e-19
5.13276e-19
8.02271e-19
1.24961e-18
1.93963e-18
3.00032e-18
4.62518e-18
7.10579e-18
1.088e-17
1.66031e-17
2.52524e-17
3.82804e-17
5.78392e-17
8.71063e-17
1.30758e-16
1.95652e-16
2.91816e-16
4.33862e-16
6.43015e-16
9.50005e-16
1.39918e-15
2.05436e-15
3.00705e-15
4.38807e-15
6.38389e-15
9.25943e-15
1.33899e-14
1.93052e-14
2.77513e-14
3.97751e-14
5.68416e-14
8.09948e-14
1.15078e-13
1.63033e-13
2.30313e-13
3.24435e-13
4.55733e-13
6.38372e-13
8.91716e-13
1.24215e-12
1.72554e-12
2.3905e-12
3.30269e-12
4.55063e-12
6.25326e-12
8.56999e-12
1.17139e-11
1.59688e-11
2.17121e-11
2.94441e-11
3.9826e-11
5.37298e-11
7.23016e-11
9.70451e-11
1.29926e-10
1.73511e-10
2.31135e-10
3.07131e-10
4.07104e-10
5.3829e-10
7.10008e-10
9.34228e-10
1.22628e-09
1.60576e-09
2.09765e-09
2.7337e-09
3.55419e-09
4.61007e-09
5.96566e-09
7.7019e-09
9.92047e-09
1.27487e-08
1.63459e-08
2.09103e-08
2.66888e-08
3.39876e-08
4.31858e-08
5.47512e-08
6.92604e-08
8.7422e-08
1.10105e-07
1.38371e-07
1.73517e-07
2.17123e-07
2.71107e-07
3.37791e-07
4.19988e-07
5.21088e-07
6.4517e-07
7.97137e-07
9.8286e-07
1.20936e-06
1.48501e-06
1.81977e-06
2.22548e-06
2.71615e-06
3.30837e-06
4.02168e-06
4.87909e-06
5.90763e-06
7.13897e-06
8.61012e-06
1.03643e-05
1.24518e-05
1.4931e-05
1.78697e-05
2.13462e-05
2.54508e-05
3.02878e-05
3.59767e-05
4.26547e-05
5.04788e-05
5.96283e-05
7.03074e-05
8.27484e-05
9.72147e-05
0.000114005
0.000133455
0.000155946
0.000181906
0.000211813
0.000246205
0.000285683
0.000330918
0.000382655
0.000441723
0.000509041
0.000585624
0.000672595
0.000771187
0.000882759
0.0010088
0.00115093
0.00131095
0.00149077
0.00169252
0.00191847
0.00217111
0.0024531
0.00276733
0.00311689
0.00350512
0.00393557
0.00441204
0.00493859
0.00551952
0.00615941
0.0068631
0.00763569
0.00848256
0.00940938
0.0104221
0.0115268
0.01273
0.0140385
0.0154592
0.0169993
0.0186663
0.0204678
0.0224116
0.0245059
0.0267586
0.0291783
0.0317732
0.0345519
0.037523
0.0406948
0.0440761
0.0476752
0.0515005
0.0555602
0.0598624
0.0644149
0.0692251
0.0743004
0.0796476
0.0852731
0.091183
0.0973827
0.103877
0.110671
0.117768
0.125171
0.132882
0.140903
0.149236
0.157879
0.166833
0.176095
0.185664
0.195536
0.205706
0.21617
0.226922
0.237954
0.249259
0.260829
0.272653
0.284721
0.297023
0.309545
0.322276
0.335203
0.34831
0.361584
0.375009
0.388569
0.402249
0.416031
0.429899
0.443835
0.457823
0.471845
0.485882
0.499917
0.513933
0.527912
0.541837
0.55569
0.569455
0.583115
0.596653
0.610054
0.623302
0.636383
0.649282
0.661986
0.674481
0.686754
0.698794
0.710589
0.722129
0.733403
0.744403
0.755118
0.765542
0.775667
0.785486
0.794992
0.80418
0.813045
0.821582
0.829787
0.837656
0.845185
0.852373
0.859216
0.865712
0.871859
0.877655
0.883099
0.888189
0.892924
0.897303
0.901325
0.904988
0.908292
0.911236
0.913818
0.916038
0.917894
0.919385
0.92051
0.921268
0.921656
0.921675
0.921322
0.920596
0.919495
0.918018
0.916163
0.913929
0.911315
0.908319
0.904941
0.901179
0.897033
0.892503
0.887588
0.882289
0.876607
0.870543
0.864098
0.857274
0.850075
0.842504
0.834563
0.826258
0.817594
0.808577
0.799213
0.78951
0.779475
0.769117
0.758446
0.747472
0.736205
0.724658
0.712842
0.700771
0.688458
0.675918
0.663165
0.650215
0.637083
0.623787
0.610342
0.596766
0.583077
0.569292
0.555428
0.541505
0.52754
0.51355
0.499555
0.485572
0.471619
0.457714
0.443872
0.430113
0.416451
0.402903
0.389485
0.376211
0.363096
0.350153
0.337397
0.324838
0.312489
0.30036
0.288462
0.276804
0.265394
0.254241
0.243351
0.23273
0.222384
0.212316
0.202531
0.193032
0.18382
0.174897
0.166264
0.15792
0.149866
0.142098
0.134617
0.127418
0.1205
0.113857
0.107487
0.101385
0.0955459
0.0899641
0.0846343
0.0795506
0.0747068
0.0700964
0.0657129
0.0615495
0.0575994
0.0538556
0.050311
0.0469588
0.0438192
)
;

boundaryField
{
    sides
    {
        type            zeroGradient;
    }
    empty
    {
        type            empty;
    }
}


// ************************************************************************* //
