/*--------------------------------*- C++ -*----------------------------------*\
  =========                 |
  \\      /  F ield         | OpenFOAM: The Open Source CFD Toolbox
   \\    /   O peration     | Website:  https://openfoam.org
    \\  /    A nd           | Version:  6
     \\/     M anipulation  |
\*---------------------------------------------------------------------------*/
FoamFile
{
    version     2.0;
    format      ascii;
    class       volVectorField;
    location    "43.7";
    object      U;
}
// * * * * * * * * * * * * * * * * * * * * * * * * * * * * * * * * * * * * * //

dimensions      [0 1 -1 0 0 0 0];

internalField   nonuniform List<vector> 
8800
(
(0.987187 -0.0766665 0)
(1.0019 -0.0551911 0)
(0.999745 -0.0285493 0)
(1.00004 -0.0151415 0)
(1.00007 -0.0085382 0)
(1.00006 -0.00503913 0)
(1.00004 -0.00300468 0)
(1.00002 -0.00171446 0)
(0.999996 -0.000814684 0)
(1.00005 -0.000103152 0)
(0.999986 0.000621303 0)
(0.999995 0.00138203 0)
(1.00001 0.00240457 0)
(1.00002 0.00398613 0)
(1.00003 0.00662727 0)
(1 0.0113675 0)
(0.99989 0.0208116 0)
(0.999145 0.0386695 0)
(1.00709 0.0724561 0)
(0.771212 0.0366607 0)
(0.363048 -0.0160196 0)
(1.04329 -0.0768285 0)
(1.0846 -0.0704691 0)
(1.0452 -0.0535697 0)
(1.02327 -0.0389223 0)
(1.01196 -0.0262455 0)
(1.00636 -0.0168975 0)
(1.00356 -0.0103857 0)
(1.00213 -0.00574111 0)
(1.00145 -0.00209766 0)
(1.00132 0.00121501 0)
(1.00168 0.00459148 0)
(1.00265 0.00852335 0)
(1.00463 0.013873 0)
(1.00858 0.0216024 0)
(1.01655 0.0325888 0)
(1.03246 0.0465092 0)
(1.06263 0.061633 0)
(1.09188 0.0760821 0)
(0.838698 0.056554 0)
(0.216784 -0.00243253 0)
(1.07585 -0.05017 0)
(1.09986 -0.0483617 0)
(1.06461 -0.0405252 0)
(1.03996 -0.0336765 0)
(1.02381 -0.0261741 0)
(1.01404 -0.0186204 0)
(1.00852 -0.0118147 0)
(1.00557 -0.00595423 0)
(1.00432 -0.000554663 0)
(1.00468 0.00467925 0)
(1.00661 0.0100703 0)
(1.0106 0.0161806 0)
(1.01792 0.023236 0)
(1.03053 0.0307283 0)
(1.05062 0.0377726 0)
(1.08033 0.0444652 0)
(1.10627 0.0512943 0)
(0.942607 0.0415917 0)
(0.216222 0.00245866 0)
(0.175071 -0.000819675 0)
(1.01756 -0.0355335 0)
(1.10513 -0.0414584 0)
(1.07819 -0.0361569 0)
(1.05335 -0.0302338 0)
(1.03607 -0.0246774 0)
(1.02389 -0.0189859 0)
(1.01581 -0.0129407 0)
(1.01098 -0.00678034 0)
(1.00881 -0.00046322 0)
(1.0094 0.00578532 0)
(1.01267 0.0117799 0)
(1.01887 0.0176296 0)
(1.02877 0.0232402 0)
(1.04324 0.0285786 0)
(1.06376 0.0340925 0)
(1.09357 0.0400977 0)
(1.09348 0.0418862 0)
(0.827355 0.02288 0)
(0.174123 0.000849195 0)
(0.153821 -0.00061387 0)
(0.95591 -0.0255193 0)
(1.10332 -0.0352349 0)
(1.08755 -0.0327858 0)
(1.06155 -0.0281567 0)
(1.04392 -0.0231724 0)
(1.03148 -0.0179709 0)
(1.02269 -0.0124668 0)
(1.01692 -0.00655374 0)
(1.01412 -0.000117581 0)
(1.01483 0.00632099 0)
(1.01883 0.0122082 0)
(1.02583 0.0175452 0)
(1.03614 0.0225133 0)
(1.05074 0.0273033 0)
(1.07199 0.0318696 0)
(1.10016 0.0358308 0)
(1.06826 0.0339259 0)
(0.739927 0.0142695 0)
(0.152397 0.000647157 0)
(0.139393 -0.000470554 0)
(0.898825 -0.0191502 0)
(1.09552 -0.0302124 0)
(1.09553 -0.0293586 0)
(1.06898 -0.0256587 0)
(1.05054 -0.021559 0)
(1.03767 -0.0168394 0)
(1.02861 -0.0116125 0)
(1.02256 -0.00591971 0)
(1.01949 0.000384414 0)
(1.02017 0.0066985 0)
(1.0243 0.0123293 0)
(1.03144 0.0173116 0)
(1.04198 0.021823 0)
(1.05715 0.0258399 0)
(1.07936 0.0293491 0)
(1.10243 0.0320138 0)
(1.03634 0.0279756 0)
(0.6736 0.0101545 0)
(0.137387 0.000508753 0)
(0.128788 -0.000365671 0)
(0.84901 -0.0148014 0)
(1.08299 -0.026115 0)
(1.10113 -0.0264596 0)
(1.07577 -0.0232107 0)
(1.05679 -0.0196179 0)
(1.04344 -0.0154376 0)
(1.03405 -0.0105737 0)
(1.02778 -0.00509677 0)
(1.02456 0.000997076 0)
(1.02512 0.00706109 0)
(1.02921 0.0124169 0)
(1.03646 0.0170146 0)
(1.0473 0.0209396 0)
(1.06291 0.0242921 0)
(1.08558 0.0273013 0)
(1.10166 0.0291147 0)
(1.00168 0.0234199 0)
(0.622071 0.00777687 0)
(0.126077 0.000410704 0)
(0.120674 -0.000285325 0)
(0.806609 -0.0116528 0)
(1.06751 -0.0225296 0)
(1.10451 -0.0238749 0)
(1.08189 -0.0210738 0)
(1.06251 -0.017717 0)
(1.04893 -0.013844 0)
(1.03926 -0.00933036 0)
(1.03269 -0.0041462 0)
(1.02922 0.00172842 0)
(1.02966 0.00755969 0)
(1.03376 0.0125655 0)
(1.04111 0.0166971 0)
(1.05205 0.0201286 0)
(1.06786 0.0230696 0)
(1.09088 0.0257762 0)
(1.09801 0.0266975 0)
(0.96676 0.0198215 0)
(0.580806 0.00622329 0)
(0.117106 0.000338996 0)
(0.114364 -0.000222523 0)
(0.770854 -0.00930024 0)
(1.05052 -0.0193798 0)
(1.10675 -0.0214703 0)
(1.08763 -0.0190212 0)
(1.06786 -0.0158064 0)
(1.05403 -0.0121336 0)
(1.04418 -0.00787968 0)
(1.0374 -0.00297048 0)
(1.0337 0.00262276 0)
(1.03394 0.00812789 0)
(1.03793 0.0127464 0)
(1.04523 0.0164401 0)
(1.05621 0.0194679 0)
(1.07226 0.0220886 0)
(1.09498 0.0245015 0)
(1.09163 0.0246517 0)
(0.932929 0.0170194 0)
(0.546815 0.00515218 0)
(0.109753 0.000286706 0)
(0.109422 -0.000171908 0)
(0.740808 -0.00747075 0)
(1.03304 -0.01658 0)
(1.10801 -0.0192308 0)
(1.09306 -0.0171409 0)
(1.073 -0.0140507 0)
(1.05891 -0.010459 0)
(1.04888 -0.00630968 0)
(1.0419 -0.00159734 0)
(1.03794 0.00369547 0)
(1.03794 0.0088334 0)
(1.04175 0.0130743 0)
(1.04893 0.0164517 0)
(1.05991 0.0192032 0)
(1.07618 0.0215273 0)
(1.09784 0.0235352 0)
(1.08291 0.0229369 0)
(0.900771 0.0148548 0)
(0.518082 0.00439362 0)
(0.103544 0.000249518 0)
(0.105568 -0.000129993 0)
(0.715667 -0.00599403 0)
(1.01594 -0.0140608 0)
(1.10835 -0.0170192 0)
(1.09831 -0.0152061 0)
(1.07803 -0.0121382 0)
(1.06368 -0.00863517 0)
(1.05342 -0.00463255 0)
(1.04621 -9.47189e-05 0)
(1.04197 0.00498475 0)
(1.04166 0.00984189 0)
(1.04521 0.0137111 0)
(1.05224 0.0166771 0)
(1.06322 0.0190433 0)
(1.07965 0.0211051 0)
(1.09937 0.0227679 0)
(1.07225 0.0214948 0)
(0.870473 0.0132049 0)
(0.493198 0.0038537 0)
(0.0981485 0.00022369 0)
(0.102614 -9.38453e-05 0)
(0.694794 -0.00475441 0)
(0.99982 -0.0117678 0)
(1.10805 -0.0148869 0)
(1.10343 -0.0132844 0)
(1.08301 -0.0102024 0)
(1.06833 -0.00669861 0)
(1.05786 -0.00272577 0)
(1.0504 0.00171148 0)
(1.04583 0.0065463 0)
(1.04514 0.0110406 0)
(1.04835 0.0145671 0)
(1.05515 0.0172247 0)
(1.06609 0.0192964 0)
(1.08272 0.0210756 0)
(1.10003 0.0223094 0)
(1.06003 0.0203851 0)
(0.841923 0.0119821 0)
(0.471116 0.00347987 0)
(0.0933143 0.000207519 0)
(0.100439 -6.01938e-05 0)
(0.677737 -0.00365627 0)
(0.985123 -0.00959512 0)
(1.10714 -0.0126694 0)
(1.10825 -0.011256 0)
(1.08804 -0.00818483 0)
(1.07304 -0.00462546 0)
(1.06225 -0.000620919 0)
(1.0544 0.00375052 0)
(1.04937 0.00843136 0)
(1.04822 0.0126648 0)
(1.05109 0.0158183 0)
(1.05768 0.0181086 0)
(1.0686 0.0198598 0)
(1.08528 0.0213542 0)
(1.09964 0.0222134 0)
(1.04641 0.0195553 0)
(0.814876 0.0111043 0)
(0.451044 0.00323136 0)
(0.0888482 0.000198756 0)
(0.0989824 -2.74511e-05 0)
(0.664197 -0.00263401 0)
(0.972261 -0.00749251 0)
(1.10607 -0.0103184 0)
(1.11295 -0.00893182 0)
(1.09312 -0.00578687 0)
(1.07775 -0.00218196 0)
(1.06659 0.00182889 0)
(1.05833 0.00617608 0)
(1.05278 0.0107215 0)
(1.05106 0.0146787 0)
(1.05345 0.0174949 0)
(1.05976 0.0193727 0)
(1.0706 0.020688 0)
(1.08732 0.0218817 0)
(1.09815 0.022348 0)
(1.0316 0.0190031 0)
(0.789026 0.0105121 0)
(0.432355 0.00308097 0)
(0.0846038 0.000195646 0)
(0.0982268 6.17571e-06 0)
(0.654025 -0.00163587 0)
(0.961508 -0.00538459 0)
(1.10513 -0.00782636 0)
(1.11773 -0.00644301 0)
(1.09838 -0.00319793 0)
(1.08257 0.000578902 0)
(1.07098 0.00473167 0)
(1.0622 0.009119 0)
(1.05597 0.0135146 0)
(1.05357 0.0171438 0)
(1.05544 0.0195449 0)
(1.06138 0.021038 0)
(1.07216 0.022004 0)
(1.0889 0.0228592 0)
(1.09553 0.022843 0)
(1.01562 0.0187616 0)
(0.764002 0.0101757 0)
(0.414538 0.00301755 0)
(0.0804507 0.000198677 0)
(0.0982011 3.90087e-05 0)
(0.647235 -0.000615182 0)
(0.953204 -0.00318761 0)
(1.10458 -0.0050544 0)
(1.12259 -0.00358047 0)
(1.10389 -0.000221331 0)
(1.08766 0.00378062 0)
(1.07556 0.00812212 0)
(1.06614 0.0125795 0)
(1.05913 0.0169184 0)
(1.05588 0.0202911 0)
(1.05705 0.0222737 0)
(1.06258 0.0232838 0)
(1.0732 0.0237953 0)
(1.08964 0.0242289 0)
(1.09151 0.0236679 0)
(0.998452 0.0188055 0)
(0.739449 0.0100689 0)
(0.397152 0.00303005 0)
(0.0762816 0.000206391 0)
(0.0989586 8.2831e-05 0)
(0.643989 0.000456869 0)
(0.947735 -0.000829418 0)
(1.10491 -0.00194321 0)
(1.1278 -0.000183016 0)
(1.10973 0.00343319 0)
(1.09299 0.00767353 0)
(1.08023 0.0122048 0)
(1.07002 0.016797 0)
(1.06203 0.0210727 0)
(1.05774 0.0241042 0)
(1.0581 0.0256222 0)
(1.06313 0.0261098 0)
(1.07361 0.0260848 0)
(1.08948 0.0260759 0)
(1.08602 0.0248619 0)
(0.98007 0.0192017 0)
(0.71495 0.0101949 0)
(0.379773 0.00311862 0)
(0.0719889 0.00021918 0)
(0.10068 0.000140603 0)
(0.644592 0.00163046 0)
(0.945424 0.00173821 0)
(1.10652 0.00155313 0)
(1.1336 0.00369672 0)
(1.11599 0.00764527 0)
(1.09863 0.0122489 0)
(1.08514 0.0171212 0)
(1.07395 0.021917 0)
(1.06471 0.0261415 0)
(1.0592 0.0288553 0)
(1.0586 0.0298201 0)
(1.06301 0.0297086 0)
(1.07328 0.0291207 0)
(1.08825 0.0285476 0)
(1.07889 0.0265375 0)
(0.960206 0.0199514 0)
(0.690053 0.0105479 0)
(0.361989 0.00328005 0)
(0.0674691 0.000236747 0)
(0.103431 0.000199489 0)
(0.649486 0.00307776 0)
(0.946749 0.00474084 0)
(1.1098 0.00567047 0)
(1.14004 0.0082455 0)
(1.12287 0.0126014 0)
(1.10487 0.01773 0)
(1.09045 0.0230754 0)
(1.07805 0.0281435 0)
(1.06731 0.0323447 0)
(1.06028 0.0346605 0)
(1.05852 0.0350089 0)
(1.06216 0.0342295 0)
(1.07212 0.0330213 0)
(1.0857 0.0317559 0)
(1.06984 0.0287084 0)
(0.938655 0.0210932 0)
(0.664303 0.0111458 0)
(0.343395 0.00351656 0)
(0.0626272 0.000258574 0)
(0.107527 0.000282774 0)
(0.659191 0.00478683 0)
(0.952069 0.00815474 0)
(1.11529 0.0105176 0)
(1.14741 0.0138267 0)
(1.13053 0.0188385 0)
(1.11177 0.0245387 0)
(1.09618 0.0303388 0)
(1.08231 0.0357261 0)
(1.06977 0.0399169 0)
(1.06085 0.0417768 0)
(1.05768 0.0413966 0)
(1.0604 0.0397923 0)
(1.06996 0.0378133 0)
(1.08167 0.035794 0)
(1.0586 0.0315539 0)
(0.915058 0.022758 0)
(0.637103 0.0120279 0)
(0.323525 0.00383623 0)
(0.0573593 0.000285165 0)
(0.113294 0.000392565 0)
(0.674323 0.00689227 0)
(0.962275 0.0123072 0)
(1.12365 0.0162233 0)
(1.15625 0.0204787 0)
(1.13918 0.0263887 0)
(1.11935 0.0328399 0)
(1.10231 0.0393028 0)
(1.08653 0.0450866 0)
(1.07168 0.0491618 0)
(1.06065 0.0503571 0)
(1.05587 0.0490776 0)
(1.05746 0.0465542 0)
(1.06659 0.0437169 0)
(1.07613 0.040824 0)
(1.04484 0.0352134 0)
(0.88886 0.0249721 0)
(0.607791 0.0131959 0)
(0.301911 0.0042277 0)
(0.0515794 0.000313515 0)
(0.121224 0.000546727 0)
(0.695881 0.00963216 0)
(0.978019 0.017446 0)
(1.13533 0.0231713 0)
(1.16691 0.0285503 0)
(1.14923 0.0355851 0)
(1.12808 0.0430416 0)
(1.10923 0.0503207 0)
(1.09116 0.0565221 0)
(1.07362 0.0604453 0)
(1.05995 0.0608533 0)
(1.05314 0.0584461 0)
(1.05338 0.054856 0)
(1.06185 0.0510732 0)
(1.06878 0.0471545 0)
(1.02806 0.0398288 0)
(0.859471 0.02787 0)
(0.575583 0.014698 0)
(0.278056 0.0046889 0)
(0.0452396 0.000341235 0)
(0.132087 0.000772783 0)
(0.725172 0.0133423 0)
(1.00042 0.0239932 0)
(1.15109 0.0318865 0)
(1.17991 0.0387759 0)
(1.161 0.0473301 0)
(1.138 0.0559859 0)
(1.11663 0.0641295 0)
(1.0955 0.070632 0)
(1.07464 0.0741418 0)
(1.05801 0.073426 0)
(1.04909 0.0696659 0)
(1.04792 0.0648463 0)
(1.05554 0.059938 0)
(1.05923 0.0547667 0)
(1.00769 0.0456426 0)
(0.826075 0.0316138 0)
(0.539489 0.0165816 0)
(0.251399 0.00521483 0)
(0.0383156 0.000366888 0)
(0.147096 0.00112389 0)
(0.764001 0.0186531 0)
(1.03103 0.0327083 0)
(1.17201 0.0432473 0)
(1.19621 0.0522294 0)
(1.17486 0.0627018 0)
(1.14923 0.0726612 0)
(1.12457 0.0815458 0)
(1.09976 0.0880425 0)
(1.07502 0.0906261 0)
(1.05502 0.0883461 0)
(1.04368 0.0829534 0)
(1.04104 0.0766685 0)
(1.04757 0.0704514 0)
(1.04701 0.0640405 0)
(0.983071 0.0528283 0)
(0.787672 0.0362586 0)
(0.498426 0.0188052 0)
(0.221468 0.00576735 0)
(0.0308213 0.000387318 0)
(0.168342 0.00172962 0)
(0.815329 0.0266841 0)
(1.07242 0.0450973 0)
(1.19917 0.0589976 0)
(1.21656 0.0707906 0)
(1.19099 0.083075 0)
(1.16151 0.0941853 0)
(1.13255 0.103387 0)
(1.10323 0.109268 0)
(1.07403 0.110318 0)
(1.05044 0.105922 0)
(1.03662 0.0984798 0)
(1.03245 0.090563 0)
(1.03775 0.0830786 0)
(1.03176 0.0751137 0)
(0.953277 0.0613856 0)
(0.743141 0.0417116 0)
(0.451514 0.0212084 0)
(0.188198 0.00627073 0)
(0.0228779 0.000396635 0)
(0.19909 0.00306668 0)
(0.884703 0.0400986 0)
(1.12767 0.0649832 0)
(1.2328 0.0827382 0)
(1.24058 0.0972663 0)
(1.20875 0.110806 0)
(1.17406 0.122229 0)
(1.13983 0.130692 0)
(1.10537 0.134926 0)
(1.0714 0.133511 0)
(1.04404 0.12628 0)
(1.02772 0.116355 0)
(1.022 0.106531 0)
(1.0257 0.0976432 0)
(1.01283 0.087864 0)
(0.917194 0.0710753 0)
(0.691391 0.0475198 0)
(0.398896 0.0235312 0)
(0.152628 0.00664548 0)
(0.0148811 0.000384738 0)
(0.241053 0.00919385 9.71774e-21)
(0.976037 0.0668037 8.32163e-21)
(1.19442 0.0989633 -2.89739e-21)
(1.26993 0.11828 0)
(1.26547 0.135492 -7.30057e-35)
(1.22614 0.148534 1.06555e-21)
(1.18548 0.158528 -1.91487e-21)
(1.14543 0.164863 0)
(1.10543 0.166392 3.9189e-35)
(1.06628 0.161679 -2.35859e-21)
(1.03479 0.151064 0)
(1.01564 0.138479 -2.79464e-21)
(1.00809 0.126756 -8.24098e-21)
(1.00974 0.116588 -3.89496e-21)
(0.988062 0.105186 -1.17334e-21)
(0.870594 0.084313 -6.97583e-22)
(0.626745 0.0549402 0)
(0.338033 0.026377 4.89973e-22)
(0.115553 0.00754768 5.80498e-22)
(0.00728688 0.000481405 1.05738e-20)
(0.269963 0.0242268 7.16812e-21)
(1.05145 0.109089 1.05899e-22)
(1.24903 0.147575 7.76148e-22)
(1.30359 0.166854 0)
(1.28734 0.184298 -3.724e-21)
(1.241 0.195322 -4.22025e-21)
(1.19432 0.203129 -1.93665e-21)
(1.14823 0.20707 -6.8815e-21)
(1.10223 0.205817 0)
(1.05713 0.197779 1.00559e-20)
(1.02055 0.183813 9.96464e-21)
(0.997872 0.168582 2.96321e-21)
(0.988034 0.154937 1.07881e-20)
(0.985099 0.142742 1.51439e-20)
(0.950421 0.127735 0)
(0.808601 0.101364 2.14233e-20)
(0.551237 0.0645331 3.08204e-20)
(0.275277 0.0302818 3.43304e-20)
(0.0812067 0.00838132 -3.94088e-20)
(0.000504253 0.000137523 -7.4901e-22)
(0.271278 0.0406986 0)
(1.09927 0.163926 1.25195e-21)
(1.28612 0.207113 0)
(1.32995 0.2264 -4.89053e-21)
(1.30453 0.241023 0)
(1.25222 0.248313 -8.3208e-21)
(1.19982 0.252528 3.9686e-21)
(1.14794 0.25299 -1.38898e-20)
(1.09621 0.248266 -3.15338e-22)
(1.04553 0.236751 5.2215e-21)
(1.00416 0.219677 2.19835e-20)
(0.977889 0.202059 -5.89945e-23)
(0.965154 0.186376 -7.85914e-21)
(0.957291 0.171512 -1.43418e-20)
(0.914932 0.152541 1.7012e-20)
(0.763942 0.120225 -3.02033e-20)
(0.510046 0.0760079 -4.01087e-21)
(0.25059 0.0357614 0)
(0.0719338 0.00990788 -4.62188e-25)
(-0.00112544 -0.000163035 0)
(0.265016 0.054658 1.66739e-20)
(1.1251 0.222496 -8.04756e-21)
(1.30934 0.271424 -6.11691e-21)
(1.3474 0.291272 2.31554e-21)
(1.31557 0.302035 -3.88898e-21)
(1.2587 0.304963 1.74818e-20)
(1.20154 0.304896 8.30879e-21)
(1.14466 0.301331 0)
(1.08788 0.292752 -2.62533e-20)
(1.0321 0.277414 0)
(0.986186 0.256648 -1.15748e-20)
(0.95629 0.235961 -1.42821e-20)
(0.940284 0.218015 -8.58969e-21)
(0.9287 0.201516 -1.04489e-20)
(0.882259 0.179795 0)
(0.73255 0.141889 0)
(0.491389 0.0912478 -2.62943e-20)
(0.249284 0.045309 5.21272e-21)
(0.0761075 0.0134425 -3.05208e-21)
(-5.67982e-05 -7.64056e-05 -3.61538e-21)
(0.257787 0.0670377 -6.65631e-21)
(1.13656 0.281069 0)
(1.3223 0.33688 1.25044e-20)
(1.35688 0.357482 6.52863e-21)
(1.32053 0.364426 9.00867e-21)
(1.26027 0.36299 0)
(1.19941 0.358609 8.14852e-21)
(1.13847 0.350962 1.54399e-20)
(1.07733 0.338392 1.34736e-20)
(1.01686 0.31883 2.47205e-20)
(0.966522 0.293994 0)
(0.933231 0.270331 -3.08841e-20)
(0.914745 0.250743 -1.86146e-20)
(0.900803 0.233395 -1.10082e-20)
(0.851632 0.208942 6.78071e-20)
(0.70828 0.166214 8.11839e-21)
(0.484393 0.110132 3.83078e-20)
(0.257258 0.0578454 -1.81672e-19)
(0.0867554 0.0193319 1.07755e-19)
(0.00307163 0.000663968 -1.31529e-19)
(0.251039 0.0782471 -3.13205e-21)
(1.13904 0.337799 1.19523e-21)
(1.32777 0.401606 -1.34152e-21)
(1.35996 0.423215 -6.59968e-21)
(1.32034 0.426577 -7.60291e-21)
(1.25753 0.420965 3.57635e-22)
(1.19379 0.412528 -8.83803e-21)
(1.12955 0.400974 1.59957e-20)
(1.06462 0.38443 -2.90373e-20)
(0.99987 0.360638 0)
(0.945514 0.332192 -1.39988e-20)
(0.909274 0.306506 -3.24648e-22)
(0.888739 0.28597 -2.03942e-20)
(0.872207 0.267088 0)
(0.821083 0.23877 -1.47136e-20)
(0.686902 0.191875 -3.5143e-20)
(0.481271 0.131074 9.43975e-20)
(0.267483 0.0726549 -9.3074e-20)
(0.0988166 0.0269129 1.32454e-19)
(0.00681274 0.00190899 -1.39394e-19)
(0.245537 0.0886991 -1.04947e-22)
(1.13601 0.392034 -3.76835e-22)
(1.32784 0.464575 -3.62099e-21)
(1.35803 0.487399 2.62401e-21)
(1.31599 0.487547 -3.82182e-21)
(1.25132 0.478084 0)
(1.18533 0.465921 -8.22582e-21)
(1.11829 0.450666 -1.67555e-20)
(1.05001 0.43025 -1.50998e-20)
(0.981519 0.402526 0)
(0.923811 0.371196 -1.45371e-20)
(0.885015 0.343917 -1.80153e-20)
(0.862138 0.322068 2.21414e-20)
(0.842165 0.300435 -1.34739e-20)
(0.789748 0.268216 -6.42942e-20)
(0.666294 0.218012 3.8498e-20)
(0.477253 0.153348 1.15672e-20)
(0.275589 0.0884633 0)
(0.109144 0.0353149 -1.28225e-19)
(0.0102648 0.00342574 -4.76305e-21)
(0.241363 0.0987137 2.27451e-22)
(1.12974 0.443612 -1.72303e-22)
(1.32402 0.525264 1.65846e-21)
(1.35232 0.549378 9.38206e-21)
(1.30844 0.546716 -1.40213e-20)
(1.24243 0.533813 1.66169e-20)
(1.17463 0.51825 1.77054e-20)
(1.10517 0.49948 -2.67678e-20)
(1.03395 0.475363 9.32454e-21)
(0.962259 0.444058 -6.08734e-20)
(0.901766 0.410103 -1.64471e-20)
(0.860609 0.38079 0)
(0.834926 0.356444 2.40106e-20)
(0.811316 0.331326 2.87989e-20)
(0.75882 0.295884 3.45672e-20)
(0.645157 0.243505 -4.17865e-20)
(0.470337 0.175259 -1.2414e-20)
(0.279028 0.104025 1.46209e-20)
(0.115743 0.0434359 0)
(0.0127315 0.00489792 -1.0332e-20)
(0.238351 0.108384 -7.24623e-21)
(1.12183 0.492562 3.13703e-21)
(1.31768 0.583916 -1.40163e-21)
(1.34385 0.608794 5.59571e-21)
(1.29848 0.603674 -6.25077e-21)
(1.23152 0.587725 -8.22195e-22)
(1.16223 0.569074 -1.93294e-20)
(1.09065 0.546983 -9.68143e-21)
(1.01687 0.519387 -2.62329e-20)
(0.942423 0.484772 5.0478e-23)
(0.879432 0.447929 -5.14532e-20)
(0.835924 0.415725 4.34463e-20)
(0.807204 0.387963 -2.6361e-20)
(0.780326 0.35938 3.17234e-20)
(0.728649 0.321481 0)
(0.623501 0.267224 -2.26187e-20)
(0.460257 0.195496 -8.23809e-23)
(0.277644 0.117995 -6.36301e-20)
(0.11798 0.0503235 -9.39396e-21)
(0.0140513 0.00607951 0)
(0.236382 0.117898 0)
(1.11315 0.539086 4.13811e-21)
(1.3094 0.639724 -6.33371e-22)
(1.33344 0.665437 -4.99919e-21)
(1.28683 0.658159 -7.985e-21)
(1.21914 0.63953 0)
(1.14859 0.61805 -8.7447e-21)
(1.07516 0.592867 -2.35216e-22)
(0.999122 0.562075 5.61622e-20)
(0.922226 0.524289 -8.34804e-21)
(0.856785 0.484119 -3.71447e-20)
(0.810863 0.448323 2.25845e-20)
(0.779262 0.416862 -4.27209e-22)
(0.749843 0.385336 3.36942e-20)
(0.699298 0.345687 2.08504e-20)
(0.600522 0.289444 -4.88214e-20)
(0.446965 0.213669 5.80568e-20)
(0.27159 0.12965 1.72242e-20)
(0.116326 0.0553766 7.13161e-20)
(0.0143276 0.00684196 -1.92993e-19)
(0.235323 0.127392 -3.35653e-21)
(1.1043 0.583337 3.90845e-21)
(1.29989 0.69277 -2.19628e-21)
(1.32174 0.719239 3.63554e-21)
(1.27403 0.710026 0)
(1.20575 0.689016 -7.49751e-21)
(1.1341 0.664949 2.93245e-20)
(1.05904 0.636952 2.11417e-20)
(0.981019 0.603274 0)
(0.901778 0.56239 -1.20123e-19)
(0.83383 0.518542 1.00348e-19)
(0.785472 0.478804 0)
(0.751369 0.443757 3.07394e-20)
(0.720185 0.409706 -4.19914e-22)
(0.67073 0.368369 -6.64696e-20)
(0.576578 0.309336 2.60872e-20)
(0.430306 0.228829 0)
(0.261174 0.138249 9.28284e-20)
(0.111187 0.0581339 0)
(0.0135113 0.00703887 -9.1192e-20)
(0.234987 0.136862 4.30635e-21)
(1.09561 0.625457 5.86686e-21)
(1.28954 0.743061 -2.00196e-21)
(1.30922 0.770188 0)
(1.26052 0.759228 -6.52885e-21)
(1.19173 0.736079 0)
(1.11911 0.709653 -2.88258e-20)
(1.04263 0.679149 -9.77858e-21)
(0.962793 0.642916 9.86674e-21)
(0.881223 0.599022 -5.93932e-20)
(0.810622 0.551328 1.03529e-20)
(0.759831 0.507589 0)
(0.723618 0.46913 -6.55889e-20)
(0.691214 0.43266 4.20364e-22)
(0.642511 0.389152 0)
(0.551559 0.326535 3.82941e-22)
(0.41063 0.240614 8.44038e-20)
(0.246949 0.143532 -8.01429e-20)
(0.103138 0.0588837 2.37256e-20)
(0.0120124 0.00679171 0)
(0.235023 0.1462 0)
(1.08721 0.6655 7.60942e-21)
(1.27872 0.790683 4.09658e-21)
(1.29626 0.818331 -4.88678e-22)
(1.24664 0.80577 -2.03581e-21)
(1.17739 0.780681 -1.66276e-20)
(1.10392 0.752133 1.07855e-20)
(1.02618 0.719447 -1.15417e-20)
(0.944647 0.680976 4.40191e-20)
(0.86069 0.634225 -9.47514e-20)
(0.787268 0.582716 -7.23798e-22)
(0.734012 0.535053 -2.87164e-20)
(0.695965 0.493279 1.06349e-19)
(0.66264 0.454266 -4.91721e-22)
(0.614283 0.408018 -5.14606e-20)
(0.525263 0.341108 -9.21479e-20)
(0.388295 0.249095 0)
(0.229407 0.145487 0)
(0.0927749 0.0575368 2.55918e-20)
(0.0100926 0.00613894 -1.51865e-20)
(0.235555 0.155503 6.69843e-21)
(1.07926 0.703404 -1.79361e-20)
(1.26766 0.835728 -4.47524e-21)
(1.2831 0.863738 0)
(1.23264 0.849691 -3.28316e-22)
(1.16298 0.822834 -1.49493e-20)
(1.08876 0.792412 2.58711e-20)
(1.00992 0.757871 4.52766e-20)
(0.926753 0.717475 5.70846e-20)
(0.840326 0.668082 -7.72908e-20)
(0.763911 0.612951 -8.60289e-20)
(0.708087 0.56149 7.6779e-20)
(0.668349 0.516365 0)
(0.63424 0.474497 -2.333e-20)
(0.5859 0.424894 -5.5675e-20)
(0.497828 0.352877 -6.61436e-20)
(0.363552 0.253965 -7.86635e-20)
(0.209255 0.144077 2.332e-20)
(0.0806606 0.0540611 -1.37676e-20)
(0.00779384 0.0051 5.41224e-23)
(0.236319 0.164591 0)
(1.07179 0.739622 0)
(1.25651 0.878269 5.49973e-22)
(1.26992 0.906493 0)
(1.21872 0.89107 3.79133e-21)
(1.14869 0.862603 9.88428e-21)
(1.07384 0.830549 0)
(0.994002 0.794465 5.33671e-21)
(0.909263 0.752439 9.50153e-20)
(0.820294 0.700687 -1.77612e-19)
(0.740705 0.642244 0)
(0.682143 0.587131 -4.93575e-20)
(0.640669 0.538475 -5.95417e-22)
(0.605782 0.493269 -4.76217e-22)
(0.557218 0.439548 5.94458e-20)
(0.46937 0.36151 -6.80639e-23)
(0.336482 0.254991 -1.69276e-19)
(0.187008 0.139219 5.01531e-20)
(0.0678591 0.0489381 1.48755e-20)
(0.00543373 0.0038256 0)
(0.237086 0.173519 -2.86211e-20)
(1.06456 0.774135 -1.3068e-20)
(1.24533 0.918363 -1.56328e-20)
(1.25688 0.946691 1.11725e-20)
(1.20502 0.929975 3.32618e-21)
(1.13467 0.900064 0)
(1.05929 0.866618 1.53815e-20)
(0.978574 0.829279 -1.1879e-20)
(0.892307 0.785907 7.86342e-22)
(0.800759 0.732133 1.30818e-20)
(0.717818 0.67076 1.11224e-19)
(0.656258 0.61217 -1.73082e-20)
(0.612821 0.559745 -6.54684e-20)
(0.576991 0.51052 -2.71591e-20)
(0.528024 0.4517 3.23412e-20)
(0.440018 0.366658 -3.01809e-23)
(0.308272 0.252089 4.56157e-20)
(0.164124 0.13144 -1.0787e-19)
(0.0551149 0.0426505 1.27986e-19)
(0.00316546 0.00243567 1.88986e-20)
(0.237615 0.182188 1.11333e-20)
(1.05762 0.80703 -7.56453e-21)
(1.23425 0.956124 1.30231e-21)
(1.24407 0.98445 8.56301e-21)
(1.19164 0.966518 7.09021e-22)
(1.12104 0.935305 -1.67898e-20)
(1.04525 0.900698 4.37402e-21)
(0.963736 0.862354 -4.93836e-20)
(0.876005 0.817895 -1.04304e-19)
(0.781865 0.762466 -1.0566e-19)
(0.695423 0.698615 0)
(0.63053 0.636779 -7.59225e-20)
(0.584715 0.580375 9.42833e-20)
(0.54754 0.526262 0)
(0.497992 0.461021 -6.92251e-20)
(0.409878 0.367793 4.14413e-20)
(0.279703 0.245034 -4.90082e-20)
(0.141886 0.12117 -5.80521e-20)
(0.043331 0.0357637 -1.03089e-19)
(0.00115627 0.0010617 -8.13893e-20)
(0.238472 0.19069 -1.28776e-20)
(1.05082 0.838292 8.10868e-21)
(1.22334 0.991609 1.81643e-20)
(1.23157 1.01985 1.33601e-20)
(1.17866 1.0008 -7.88478e-22)
(1.10788 0.968432 -8.55159e-21)
(1.03177 0.932859 1.46092e-20)
(0.949569 0.893743 -5.05177e-20)
(0.860436 0.848439 -6.16342e-20)
(0.763748 0.791732 1.10354e-19)
(0.673671 0.725887 2.44009e-19)
(0.605073 0.661111 0)
(0.556313 0.600615 0)
(0.517057 0.540687 -3.12857e-20)
(0.46654 0.467193 0)
(0.378811 0.363962 8.91959e-20)
(0.251887 0.233088 1.05477e-19)
(0.122237 0.108591 0)
(0.0337612 0.0288548 0)
(-0.000453022 -0.000164716 8.74742e-20)
(0.238954 0.198697 1.49477e-20)
(1.0442 0.867913 1.17945e-20)
(1.21265 1.02493 1.33766e-20)
(1.21942 1.05303 -1.39765e-20)
(1.16614 1.03292 -2.44051e-21)
(1.09525 0.999535 8.10213e-21)
(1.01894 0.963177 -1.98606e-20)
(0.936125 0.923479 2.03194e-23)
(0.845679 0.877549 -1.02606e-21)
(0.746515 0.81994 -1.0873e-21)
(0.652729 0.752624 1.25637e-19)
(0.580032 0.685281 0)
(0.527667 0.62075 9.53073e-20)
(0.485209 0.554204 6.67054e-20)
(0.43275 0.470216 1.6168e-19)
(0.345958 0.353901 4.80211e-20)
(0.225854 0.214028 -5.68604e-20)
(0.109046 0.0916147 -3.34699e-20)
(0.0311095 0.0209986 0)
(-0.000599982 -0.00102783 9.40031e-20)
(0.239766 0.206707 -3.44509e-20)
(1.03775 0.896035 0)
(1.20219 1.05612 1.63875e-20)
(1.20765 1.08405 -1.23302e-20)
(1.15413 1.06298 5.08841e-21)
(1.08319 1.02871 -7.41036e-21)
(1.00677 0.991715 3.77949e-20)
(0.923437 0.951596 -4.23651e-21)
(0.831777 0.905239 0)
(0.730254 0.847068 -1.21479e-19)
(0.632754 0.77884 -2.72764e-19)
(0.555592 0.709392 1.11755e-20)
(0.498937 0.641032 1.31203e-19)
(0.451832 0.567396 0)
(0.395502 0.470824 1.09097e-19)
(0.308944 0.336922 0)
(0.199706 0.183209 0)
(0.106819 0.0573327 -3.62638e-20)
(0.0588387 -0.00169603 0)
(0.0261348 0.00646996 2.52005e-20)
(0.240123 0.214118 -3.90328e-20)
(1.03145 0.922889 0)
(1.19196 1.0854 2.78301e-20)
(1.19622 1.11315 0)
(1.14258 1.09125 -3.67664e-21)
(1.07164 1.05626 0)
(0.995203 1.01879 1.76013e-21)
(0.911412 0.978434 6.88094e-21)
(0.81862 0.931883 7.70738e-21)
(0.714819 0.873508 -1.33185e-19)
(0.613606 0.804984 8.1763e-21)
(0.531537 0.734039 8.99835e-20)
(0.469768 0.662103 1.28017e-19)
(0.416198 0.5811 1.72788e-20)
(0.353119 0.470881 8.55022e-20)
(0.263219 0.314573 0)
(0.162796 0.138556 1.20172e-19)
(0.0871208 0.00541244 -7.07237e-20)
(0.0325117 0.0575966 8.24905e-20)
(-0.0384186 0.452252 -9.79702e-20)
(0.240411 0.221348 3.26597e-20)
(1.0251 0.948354 4.8797e-20)
(1.1819 1.11309 0)
(1.18501 1.14078 1.11341e-21)
(1.13132 1.11832 1.1906e-20)
(1.06035 1.08287 4.70649e-21)
(0.983942 1.0452 1.26269e-20)
(0.899659 1.00494 0)
(0.805699 0.95859 5.07716e-20)
(0.699549 0.900565 -6.91526e-21)
(0.59438 0.832523 0)
(0.50667 0.760953 0)
(0.4385 0.685633 1.14318e-19)
(0.376317 0.596422 -5.33317e-20)
(0.302797 0.472861 -8.6381e-20)
(0.204793 0.291375 0)
(0.0914491 0.136616 6.11022e-20)
(0.00820596 0.465499 -7.12379e-20)
(0.0326284 1.91895 -4.00823e-20)
(0.0595174 2.82058 -4.90094e-20)
(0.240323 0.227993 -2.49753e-20)
(1.01876 0.972611 -6.34576e-20)
(1.17202 1.13917 1.70134e-20)
(1.17401 1.16679 1.33149e-20)
(1.12042 1.14398 0)
(1.0494 1.10828 7.7413e-22)
(0.973185 1.07065 1.64901e-20)
(0.888355 1.03069 -3.28077e-21)
(0.793282 0.984839 7.5664e-21)
(0.684828 0.927634 1.2641e-19)
(0.575697 0.86078 1.3729e-19)
(0.481988 0.789857 1.00187e-19)
(0.406103 0.711437 1.14678e-19)
(0.333971 0.612176 -1.24701e-19)
(0.251362 0.479691 -1.30076e-19)
(0.13176 0.32924 0)
(0.0445297 0.870451 0)
(0.0918711 2.5753 3.39314e-20)
(0.0940403 3.20744 0)
(0.0948181 3.38784 8.88313e-20)
(0.24301 0.234159 0)
(1.01271 0.996017 0)
(1.16204 1.16352 0)
(1.16301 1.191 4.18136e-21)
(1.1096 1.16803 1.15223e-20)
(1.03859 1.13235 -2.45242e-21)
(0.962856 1.09503 1.02639e-20)
(0.877431 1.05554 -3.17268e-21)
(0.781304 1.01046 6.28027e-20)
(0.670646 0.954552 -1.97975e-21)
(0.557649 0.889541 2.70447e-19)
(0.457925 0.820812 -1.15327e-20)
(0.372711 0.740065 1.38682e-20)
(0.291563 0.626115 1.80145e-20)
(0.189771 0.498751 -2.76853e-22)
(0.100176 1.01177 3.36064e-22)
(0.131126 2.7521 -1.76652e-19)
(0.136138 3.2999 -6.72802e-20)
(0.125309 3.4247 3.59542e-20)
(0.113485 3.4447 -4.0619e-20)
(0.165183 0.178949 1.55545e-20)
(1.00256 1.02126 0)
(1.15184 1.18641 -3.60144e-20)
(1.15237 1.21368 -3.74858e-20)
(1.09932 1.19097 2.94576e-20)
(1.02858 1.15555 3.70992e-21)
(0.952803 1.11829 -1.01338e-20)
(0.866945 1.07951 3.43364e-20)
(0.769881 1.03547 -5.1312e-20)
(0.657249 0.981381 0)
(0.540514 0.918867 1.32828e-19)
(0.435063 0.853611 -8.146e-20)
(0.338843 0.774452 0)
(0.24285 0.643131 1.72489e-20)
(0.142784 0.824016 4.1634e-20)
(0.145323 2.55025 -4.79433e-20)
(0.195136 3.33137 5.48959e-20)
(0.176162 3.43809 2.9811e-20)
(0.145546 3.45639 3.43733e-20)
(0.125468 3.4647 5.50353e-20)
(0.278407 0.273264 -2.99375e-20)
(0.985953 1.03229 0)
(1.13381 1.21247 3.95628e-20)
(1.13784 1.24721 4.27327e-20)
(1.08275 1.22479 -3.46467e-20)
(1.01169 1.18988 -9.09394e-21)
(0.934966 1.15433 7.39006e-21)
(0.848578 1.11693 2.68427e-21)
(0.749989 1.07492 4.81444e-20)
(0.63425 1.02442 1.07993e-19)
(0.511955 0.967427 7.4361e-21)
(0.397155 0.909188 7.18918e-20)
(0.280075 0.831633 1.29527e-20)
(0.208713 0.999248 -1.64784e-20)
(0.214801 2.42056 -3.78522e-20)
(0.265428 3.33894 3.79376e-20)
(0.248675 3.46722 -4.19542e-20)
(0.213979 3.48466 -2.44472e-20)
(0.179692 3.50815 -2.23968e-20)
(0.134622 3.50183 -3.29365e-21)
(0.268856 0.272352 0)
(0.983411 1.05559 1.17686e-20)
(1.12553 1.23629 -8.24392e-21)
(1.12752 1.27087 -5.18614e-21)
(1.07226 1.24823 -2.46039e-20)
(1.00143 1.21359 9.97317e-21)
(0.924459 1.17843 -2.94562e-21)
(0.837862 1.14193 2.36022e-21)
(0.738667 1.10129 -4.97102e-20)
(0.621538 1.05342 -2.93612e-21)
(0.496468 1.00081 -2.37894e-19)
(0.377022 0.947268 1.02288e-20)
(0.270419 0.907942 -1.2222e-20)
(0.243627 1.57438 -1.51448e-20)
(0.303425 3.14559 3.60361e-21)
(0.318171 3.4714 3.94851e-22)
(0.276383 3.51765 6.24339e-20)
(0.242111 3.53872 3.19477e-20)
(0.196311 3.5576 -1.07257e-20)
(0.146444 3.553 -1.64819e-20)
(0.254784 0.270472 3.0449e-20)
(0.979974 1.0815 8.02737e-20)
(1.11684 1.26223 -2.36901e-20)
(1.11676 1.29608 -1.96189e-20)
(1.06139 1.27317 0)
(0.990823 1.23863 2.08107e-20)
(0.913856 1.20389 -1.00262e-21)
(0.827292 1.16821 2.01378e-21)
(0.727791 1.12901 -5.53369e-21)
(0.609788 1.08399 -9.62611e-20)
(0.482816 1.03626 -1.091e-19)
(0.359027 0.988082 -8.38334e-20)
(0.273009 1.05201 -9.13262e-20)
(0.306076 2.30988 9.45183e-20)
(0.3815 3.39947 8.12768e-20)
(0.355825 3.5296 0)
(0.307381 3.56372 0)
(0.270605 3.59574 -8.32849e-21)
(0.225978 3.64025 0)
(0.157051 3.62334 -1.36516e-20)
(0.244811 0.272515 -4.58715e-20)
(0.974573 1.10831 -6.85256e-20)
(1.10677 1.28944 0)
(1.10478 1.3222 1.34373e-21)
(1.04934 1.29881 -2.77453e-20)
(0.97916 1.26429 3.54136e-20)
(0.90252 1.23 1.31767e-21)
(0.816201 1.19504 9.74367e-22)
(0.716643 1.15721 -3.40636e-20)
(0.598175 1.11502 4.74782e-21)
(0.470118 1.07229 0)
(0.347763 1.03447 0)
(0.299643 1.33609 -8.26229e-20)
(0.381226 2.97333 3.38717e-20)
(0.44535 3.50084 4.3595e-20)
(0.393451 3.5645 0)
(0.351617 3.61862 -4.56242e-21)
(0.310447 3.66204 -3.93264e-21)