/*--------------------------------*- C++ -*----------------------------------*\
  =========                 |
  \\      /  F ield         | OpenFOAM: The Open Source CFD Toolbox
   \\    /   O peration     | Website:  https://openfoam.org
    \\  /    A nd           | Version:  6
     \\/     M anipulation  |
\*---------------------------------------------------------------------------*/
FoamFile
{
    version     2.0;
    format      ascii;
    class       surfaceScalarField;
    location    "33.3";
    object      phi;
}
// * * * * * * * * * * * * * * * * * * * * * * * * * * * * * * * * * * * * * //

dimensions      [0 3 -1 0 0 0 0];

internalField   nonuniform List<scalar> 
17370
(
-0.0900013
0.0898497
0.289162
-0.0714628
0.053752
0.364486
-0.0381178
0.0276875
0.426598
-0.0196329
0.0145963
0.504288
-0.0107495
0.0082545
0.601897
-0.00625113
0.00487546
0.720433
-0.00371908
0.00289016
0.863735
-0.0021639
0.00161751
1.036
-0.00111164
0.000707328
1.24291
-0.000306389
-7.59566e-05
1.49157
0.000447521
-0.000850289
1.49159
0.00124769
-0.00174225
1.24318
0.00227895
-0.0029962
1.03636
0.00381838
-0.00496806
0.864056
0.00633656
-0.00833126
0.721052
0.0108189
-0.0146586
0.603054
0.0196894
-0.0277378
0.507488
0.0381625
-0.0537895
0.431795
0.071493
-0.0898697
0.365152
0.0900129
0.198998
-0.128129
0.0882153
0.0399136
-0.364591
0.353364
-0.0746844
0.0859112
-0.446472
0.45431
-0.0844118
0.0765733
-0.521182
0.529892
-0.0684777
0.0597681
-0.612777
0.621558
-0.0515794
0.0427985
-0.726882
0.734148
-0.0353371
0.028071
-0.86747
0.87256
-0.0224818
0.0173914
-1.03847
1.04189
-0.0136099
0.0101917
-1.2446
1.24701
-0.00760515
0.00519404
-1.49263
1.4946
-0.00325922
0.00129293
-1.49249
1.49421
0.000396255
-0.00212104
-1.24399
1.24587
0.00402656
-0.00591061
-1.03751
1.04005
0.0082716
-0.0108108
-0.866105
0.869844
0.0141785
-0.0179176
-0.724396
0.729947
0.0229651
-0.0285164
-0.608703
0.616126
0.0357407
-0.0431643
-0.514902
0.523056
0.0519054
-0.0600597
-0.439861
0.447928
0.0687331
-0.0768003
-0.375301
0.376757
0.084607
-0.0860631
-0.257342
0.222508
0.0747878
-0.0399541
-0.0684983
0.0586664
0.00983192
-0.051849
0.058446
-0.374106
0.367509
-0.0575396
0.0537938
-0.45358
0.457326
-0.0487055
0.0447541
-0.527927
0.531879
-0.0409143
0.0372764
-0.621541
0.625179
-0.0331788
0.0291157
-0.735322
0.739385
-0.0245707
0.0204416
-0.874303
0.878432
-0.016136
0.0124747
-1.04345
1.04711
-0.00877449
0.00563053
-1.24854
1.25168
-0.00233001
-0.000730524
-1.49665
1.49971
0.0037678
-0.00700937
-1.49722
1.50046
0.0100817
-0.0136925
-1.25008
1.25369
0.0172728
-0.021495
-1.04593
1.05015
0.0255507
-0.0300163
-0.877784
0.882249
0.0340065
-0.0380243
-0.739936
0.743954
0.0415922
-0.0453605
-0.626808
0.630576
0.0492525
-0.0542841
-0.534839
0.53987
0.0579705
-0.058802
-0.457505
0.458336
0.0521199
-0.0319517
-0.335801
0.315633
0.00987678
-0.0683797
0.0585029
-0.0529094
0.0489082
0.00400113
-0.0332036
0.0437675
-0.358057
0.347493
-0.0474809
0.0468658
-0.459245
0.45986
-0.0438226
0.0404822
-0.535756
0.539097
-0.036723
0.0334325
-0.628474
0.631764
-0.0300144
0.0270081
-0.742595
0.745601
-0.0237847
0.020712
-0.881962
0.885035
-0.0172189
0.0138714
-1.0507
1.05405
-0.0101123
0.00660105
-1.25509
1.2586
-0.00266797
-0.00109907
-1.50319
1.50696
0.00483752
-0.00869236
-1.50412
1.50797
0.0120977
-0.0157239
-1.25745
1.26107
0.0189448
-0.0222985
-1.05398
1.05733
0.0252526
-0.0283577
-0.885766
0.888871
0.0312614
-0.0345686
-0.747232
0.750539
0.0377595
-0.0414153
-0.634372
0.638028
0.0446694
-0.0476173
-0.544191
0.547139
0.0481347
-0.044285
-0.456648
0.452799
0.0335608
-0.0161667
-0.296315
0.278921
0.00405512
-0.0526987
0.0486436
-0.045823
0.0433211
0.00250186
-0.0228526
0.033257
-0.336778
0.326373
-0.0391016
0.0401321
-0.459529
0.458498
-0.0389499
0.0366634
-0.5418
0.544087
-0.0339951
0.0314044
-0.634793
0.637383
-0.0283615
0.0254998
-0.748624
0.751486
-0.0222993
0.019374
-0.887963
0.890888
-0.0161405
0.0130948
-1.05714
1.06018
-0.00961992
0.0062524
-1.26203
1.2654
-0.00233557
-0.00150423
-1.51083
1.51467
0.00530959
-0.0091237
-1.51188
1.51569
0.0123498
-0.0156463
-1.26451
1.2678
0.0185191
-0.0215659
-1.06042
1.06347
0.0243327
-0.0273736
-0.891934
0.894975
0.0300965
-0.0329902
-0.753777
0.75667
0.0354475
-0.0379779
-0.641134
0.643664
0.0401486
-0.0411842
-0.548981
0.550016
0.0400041
-0.0339441
-0.44757
0.44151
0.0233078
-0.0101666
-0.263768
0.250627
0.0025684
-0.0455001
0.0429317
-0.0412381
0.0394652
0.00177289
-0.0167884
0.0260659
-0.316489
0.307212
-0.0327028
0.0348723
-0.456865
0.454695
-0.0344856
0.0328496
-0.54603
0.547666
-0.0307069
0.0286474
-0.639647
0.641706
-0.0262587
0.0239077
-0.754105
0.756456
-0.0211068
0.0183674
-0.893769
0.896508
-0.0151846
0.0121657
-1.0632
1.06622
-0.00873318
0.00546845
-1.26866
1.27193
-0.0016961
-0.00198336
-1.51839
1.52207
0.00561564
-0.00925131
-1.51941
1.52305
0.0123401
-0.0155437
-1.27107
1.27428
0.0183391
-0.0212786
-1.06652
1.06946
0.0238114
-0.0264053
-0.897817
0.900411
0.0285782
-0.0307776
-0.759151
0.76135
0.0326684
-0.0346327
-0.645851
0.647815
0.0361014
-0.0362875
-0.550571
0.550757
0.0338892
-0.0269405
-0.434921
0.427972
0.0173535
-0.00731516
-0.239188
0.22915
0.00185422
-0.0407778
0.0389236
-0.0379353
0.0366016
0.0013337
-0.0128167
0.0207831
-0.298591
0.290625
-0.0275585
0.0304993
-0.452102
0.449161
-0.0307147
0.0296021
-0.549054
0.550166
-0.027612
0.0257134
-0.643688
0.645587
-0.023566
0.0215146
-0.758655
0.760706
-0.019124
0.0167604
-0.899038
0.901402
-0.013939
0.0111591
-1.06908
1.07186
-0.00788901
0.00472159
-1.27511
1.27828
-0.00103393
-0.00256067
-1.5257
1.5293
0.00610269
-0.0096251
-1.52665
1.53017
0.0125718
-0.0155502
-1.2774
1.28038
0.0180397
-0.0205367
-1.07219
1.07469
0.0226228
-0.0247427
-0.902719
0.904839
0.0265709
-0.028486
-0.763363
0.765278
0.0301779
-0.031956
-0.649671
0.651449
0.0328288
-0.0323343
-0.550614
0.550119
0.0290693
-0.0218699
-0.420847
0.413647
0.0135087
-0.00562166
-0.220291
0.212403
0.00143235
-0.0373082
0.0358758
-0.0354335
0.0344058
0.00102767
-0.0100022
0.0167284
-0.283295
0.276569
-0.0232388
0.0266503
-0.445954
0.442542
-0.027479
0.0268233
-0.551031
0.551687
-0.0251118
0.023375
-0.647435
0.649171
-0.0213715
0.0194293
-0.762726
0.764668
-0.0171504
0.0149086
-0.903662
0.905904
-0.0122641
0.00967188
-1.07449
1.07708
-0.00662939
0.00365709
-1.28132
1.2843
-0.000177226
-0.00322096
-1.53277
1.53617
0.00655576
-0.00984388
-1.53359
1.53688
0.0125554
-0.0152436
-1.28325
1.28594
0.0174801
-0.0197306
-1.07706
1.07931
0.0216334
-0.0235783
-0.906832
0.908777
0.0252414
-0.0269564
-0.767064
0.768779
0.0284327
-0.0298462
-0.653096
0.654509
0.0301945
-0.0289739
-0.549288
0.548067
0.0251218
-0.0180617
-0.406491
0.39943
0.0108451
-0.00448224
-0.205349
0.198986
0.00114737
-0.0346037
0.0334563
-0.033502
0.0327052
0.000796727
-0.00789196
0.0135221
-0.270415
0.264785
-0.0195175
0.023099
-0.439018
0.435436
-0.0243847
0.0239742
-0.552207
0.552617
-0.0225429
0.0209375
-0.650852
0.652457
-0.0190604
0.0172406
-0.76659
0.76841
-0.0150968
0.0129809
-0.908078
0.910194
-0.0104893
0.00805388
-1.07954
1.08197
-0.00520435
0.00241521
-1.28713
1.28992
0.000863672
-0.00406675
-1.53945
1.54265
0.00718689
-0.0102171
-1.54003
1.54306
0.0126738
-0.0150866
-1.28852
1.29093
0.0170814
-0.0190728
-1.08147
1.08346
0.0207488
-0.0224502
-0.910608
0.912309
0.0239087
-0.0254291
-0.77035
0.771871
0.026727
-0.027802
-0.655719
0.656794
0.0278273
-0.0260155
-0.546553
0.544741
0.0218517
-0.0151555
-0.392554
0.385857
0.00891968
-0.00366877
-0.193232
0.187981
0.000942636
-0.0324265
0.0314838
-0.0320044
0.0313864
0.000618011
-0.00624587
0.0109292
-0.259649
0.254965
-0.0163099
0.0198836
-0.431849
0.428275
-0.0214874
0.0212901
-0.55295
0.553147
-0.0200677
0.0185086
-0.654075
0.655634
-0.0167027
0.0149711
-0.770198
0.77193
-0.01295
0.0109601
-0.91218
0.91417
-0.00860311
0.00628856
-1.08427
1.08659
-0.00357344
0.000932308
-1.2926
1.29524
0.00213317
-0.00508817
-1.54572
1.54868
0.00794709
-0.0107174
-1.54598
1.54875
0.0129591
-0.0151365
-1.29326
1.29543
0.0169078
-0.0186519
-1.08534
1.08708
0.0200982
-0.0215662
-0.913868
0.915336
0.0228439
-0.0242032
-0.773266
0.774625
0.0253831
-0.0261029
-0.657701
0.658421
0.0257821
-0.0234844
-0.542719
0.540421
0.0191645
-0.0129139
-0.379395
0.373145
0.00749177
-0.00307436
-0.183188
0.178771
0.000794182
-0.0306294
0.0298352
-0.0308483
0.0303772
0.000471181
-0.00489515
0.00874205
-0.250719
0.246872
-0.0134388
0.0168446
-0.424774
0.421368
-0.0186632
0.0187297
-0.553229
0.553162
-0.0178011
0.0163665
-0.657188
0.658623
-0.0146376
0.0129326
-0.773677
0.775382
-0.0109137
0.00892836
-0.916096
0.918082
-0.00660494
0.00435891
-1.08879
1.09104
-0.00176086
-0.000730261
-1.29775
1.30024
0.00359258
-0.00632885
-1.55147
1.55421
0.00893773
-0.0114247
-1.55138
1.55387
0.0134133
-0.0153378
-1.29755
1.29947
0.0169025
-0.0184512
-1.08879
1.09033
0.0197515
-0.0210921
-0.91673
0.91807
0.0222499
-0.0234345
-0.775841
0.777026
0.0243907
-0.0247072
-0.658915
0.659232
0.0240213
-0.0213093
-0.537943
0.535231
0.0169539
-0.011174
-0.367152
0.361372
0.0064197
-0.00263675
-0.174707
0.170924
0.000687567
-0.0291093
0.0284217
-0.0299761
0.0296327
0.00034334
-0.00373221
0.00682438
-0.24342
0.240328
-0.0108058
0.0138957
-0.418127
0.415037
-0.0157212
0.0159148
-0.553058
0.552864
-0.0150675
0.0137386
-0.660056
0.661385
-0.0120746
0.0104334
-0.777071
0.778712
-0.00849271
0.00659344
-0.919945
0.921845
-0.00438112
0.00224972
-1.09313
1.09527
0.000214366
-0.0025808
-1.30261
1.30498
0.00530121
-0.0078826
-1.55685
1.55943
0.0103123
-0.0125753
-1.55626
1.55852
0.014329
-0.0159822
-1.30131
1.30296
0.0173069
-0.018596
-1.0918
1.09309
0.0196625
-0.0207299
-0.919269
0.920336
0.0216406
-0.0225934
-0.778047
0.779
0.0232926
-0.0233713
-0.65941
0.659488
0.0223229
-0.0193595
-0.532429
0.529466
0.0150899
-0.00978406
-0.355866
0.35056
0.00558753
-0.0023018
-0.167427
0.164142
0.000605984
-0.0277907
0.0271847
-0.0293521
0.0291237
0.000228421
-0.0026918
0.00509038
-0.237598
0.235199
-0.00835512
0.01106
-0.412156
0.409451
-0.0128112
0.0130855
-0.55268
0.552406
-0.0122866
0.0110042
-0.662774
0.664056
-0.00933971
0.00770885
-0.780356
0.781987
-0.00581099
0.003966
-0.9236
0.925445
-0.00181881
-0.0002525
-1.09725
1.09932
0.00263028
-0.00488383
-1.30721
1.30947
0.00741442
-0.00975225
-1.56185
1.56419
0.0119071
-0.0138724
-1.56065
1.56261
0.0153709
-0.0167409
-1.30454
1.30591
0.0177932
-0.0187843
-1.09425
1.09524
0.0195884
-0.0204129
-0.92129
0.922115
0.0211554
-0.0219603
-0.779836
0.780641
0.0224627
-0.0222763
-0.659421
0.659235
0.0209323
-0.0177503
-0.526439
0.523257
0.0135853
-0.00870392
-0.345504
0.340623
0.00496141
-0.00206038
-0.161082
0.158181
0.000552006
-0.0266219
0.0260699
-0.0289557
0.0288414
0.000114313
-0.00167479
0.00338367
-0.233163
0.231454
-0.00588721
0.00811537
-0.407008
0.40478
-0.00970295
0.0100445
-0.552165
0.551823
-0.00937205
0.00821667
-0.665377
0.666532
-0.00661903
0.0049883
-0.783613
0.785243
-0.00304126
0.00114239
-0.927176
0.929075
0.00104283
-0.00310699
-1.10126
1.10333
0.00542677
-0.00757935
-1.31159
1.31375
0.00995287
-0.0121091
-1.56639
1.56854
0.0140229
-0.015704
-1.56445
1.56613
0.0169324
-0.0180299
-1.30719
1.30829
0.018869
-0.0196539
-1.09617
1.09695
0.0202786
-0.0208759
-0.922839
0.923437
0.0213585
-0.021819
-0.781267
0.781728
0.0219157
-0.0214382
-0.658833
0.658355
0.0197309
-0.0163468
-0.520028
0.516644
0.0123126
-0.00782707
-0.33599
0.331504
0.00447157
-0.00188046
-0.155477
0.152886
0.000515099
-0.0255574
0.0250423
-0.0287895
0.0287863
3.18512e-06
-0.000694632
0.0017304
-0.230098
0.229062
-0.00345019
0.00511256
-0.402877
0.401215
-0.00638183
0.00665864
-0.551597
0.55132
-0.00602418
0.00492739
-0.667745
0.668842
-0.00333467
0.00167556
-0.786855
0.788514
0.000307578
-0.00221939
-0.930843
0.932754
0.0043893
-0.00641631
-1.10525
1.10727
0.00867951
-0.0107589
-1.31576
1.31784
0.0130163
-0.0149864
-1.57055
1.57252
0.0166815
-0.0180742
-1.56768
1.56907
0.0190052
-0.0197519
-1.30929
1.31003
0.0202513
-0.020663
-1.09763
1.09804
0.0209518
-0.0212179
-0.923921
0.924188
0.0214697
-0.0217025
-0.782019
0.782251
0.0215025
-0.0206271
-0.657541
0.656666
0.0186298
-0.0151479
-0.513276
0.509794
0.0112865
-0.00715818
-0.32727
0.323142
0.00411534
-0.00175766
-0.150462
0.148104
0.000492574
-0.0245628
0.0240703
-0.0288442
0.0289722
-0.000128012
0.00034692
-8.83052e-06
-0.228376
0.228038
-0.000908395
0.00195635
-0.399928
0.39888
-0.00280411
0.00288994
-0.551285
0.5512
-0.00215662
0.000992189
-0.670098
0.671262
0.000646467
-0.00232374
-0.79011
0.791787
0.00429494
-0.00618721
-0.93445
0.936343
0.00834486
-0.0103673
-1.10913
1.11115
0.0126069
-0.0146339
-1.31979
1.32182
0.0167606
-0.0185437
-1.57434
1.57612
0.0199818
-0.0210728
-1.57031
1.57141
0.0216864
-0.0220623
-1.31066
1.31103
0.022218
-0.0222353
-1.09832
1.09834
0.0221843
-0.0221151
-0.924332
0.924263
0.0220488
-0.0219256
-0.78218
0.782057
0.0214568
-0.0202113
-0.655492
0.654246
0.0179362
-0.0143222
-0.506384
0.50277
0.010567
-0.00670218
-0.319237
0.315372
0.00389034
-0.00169505
-0.145886
0.143691
0.000488853
-0.0236082
0.0231193
-0.0291715
0.0294308
-0.000259252
0.00141496
-0.00176214
-0.228069
0.228416
0.00171967
-0.00133972
-0.398254
0.397874
0.000952447
-0.00104475
-0.551408
0.5515
0.00179326
-0.00296974
-0.67258
0.673757
0.00465659
-0.00642092
-0.793397
0.795161
0.00852376
-0.0105465
-0.938079
0.940101
0.0128388
-0.0149596
-1.11305
1.11517
0.0172689
-0.0192908
-1.32371
1.32573
0.0213305
-0.0229471
-1.57773
1.57934
0.0241243
-0.0248995
-1.57232
1.57309
0.0252257
-0.025253
-1.31131
1.31134
0.0250784
-0.0247489
-1.09822
1.09789
0.0243597
-0.023896
-0.923989
0.923525
0.0234642
-0.0229407
-0.781603
0.78108
0.0221054
-0.0203221
-0.652754
0.650971
0.0176563
-0.0138465
-0.499224
0.495414
0.0101452
-0.00646129
-0.311716
0.308032
0.00379188
-0.00167764
-0.141612
0.139498
0.000491783
-0.0226632
0.0221714
-0.0297686
0.0301726
-0.000404015
0.00247261
-0.00352686
-0.22909
0.230144
0.00433924
-0.00473647
-0.39795
0.398347
0.00497388
-0.00536304
-0.551998
0.552387
0.00620334
-0.00746122
-0.675115
0.676373
0.00926898
-0.0111861
-0.796848
0.798766
0.0134791
-0.0156691
-0.941966
0.944156
0.0181246
-0.0203689
-1.11717
1.11941
0.0227748
-0.0248545
-1.32766
1.32974
0.0269025
-0.0284446
-1.58085
1.58239
0.029445
-0.0298848
-1.57367
1.57411
0.0298497
-0.0294498
-1.31121
1.31081
0.0288841
-0.0281293
-1.09736
1.0966
0.0273706
-0.0265045
-0.92278
0.921913
0.0257187
-0.0247251
-0.780147
0.779153
0.0233244
-0.0209961
-0.648996
0.646668
0.0179889
-0.0140024
-0.49173
0.487743
0.010286
-0.00662765
-0.30452
0.300862
0.00393868
-0.00175919
-0.137448
0.135268
0.000517047
-0.0217077
0.0211907
-0.0306727
0.0312456
-0.000572899
0.00359281
-0.00531551
-0.23157
0.233292
0.00698724
-0.00818584
-0.399165
0.400363
0.00919059
-0.0100879
-0.55336
0.554258
0.0112829
-0.0128117
-0.67791
0.679439
0.0149131
-0.0170936
-0.800604
0.802785
0.019662
-0.0220869
-0.946192
0.948617
0.0247748
-0.0271911
-1.12153
1.12395
0.0297288
-0.0318442
-1.33168
1.3338
0.0338243
-0.0351605
-1.58374
1.58508
0.0358438
-0.0358792
-1.57431
1.57434
0.0354488
-0.0345906
-1.31019
1.30934
0.033573
-0.0323372
-1.09557
1.09434
0.0311736
-0.0299041
-0.920732
0.919462
0.028752
-0.0272493
-0.777725
0.776222
0.0254386
-0.022673
-0.644267
0.641502
0.0193387
-0.0150934
-0.483899
0.479654
0.0111963
-0.00732492
-0.2973
0.293428
0.00440389
-0.00197742
-0.133079
0.130653
0.000579335
-0.0206892
0.0201099
-0.0319108
0.0326728
-0.000762006
0.00481626
-0.00724966
-0.235412
0.237845
0.00978975
-0.0117874
-0.402005
0.404002
0.0135872
-0.0150956
-0.555851
0.557359
0.0168513
-0.0188261
-0.68135
0.683325
0.0213839
-0.023961
-0.804915
0.807492
0.0269364
-0.0297032
-0.950904
0.953671
0.0327324
-0.0354168
-1.12626
1.12895
0.0381656
-0.0403848
-1.33579
1.33801
0.0423239
-0.0434488
-1.58619
1.58731
0.0438015
-0.0434
-1.5741
1.5737
0.0425031
-0.04114
-1.30821
1.30685
0.0396811
-0.0379593
-1.0928
1.09108
0.0363617
-0.0346566
-0.917806
0.916101
0.0331388
-0.0311629
-0.7743
0.772324
0.0289146
-0.0256391
-0.638703
0.635427
0.0218551
-0.0171539
-0.475516
0.470815
0.0128506
-0.00850632
-0.289557
0.285213
0.00515037
-0.00231698
-0.128149
0.125316
0.000676605
-0.0195326
0.018856
-0.0335231
0.0345354
-0.00101232
0.00637679
-0.00966133
-0.240692
0.243976
0.0131933
-0.0160471
-0.406539
0.409393
0.0186741
-0.0207993
-0.559674
0.561799
0.0231177
-0.0255764
-0.685741
0.6882
0.0286812
-0.0317613
-0.810033
0.813113
0.0353032
-0.0385803
-0.956348
0.959625
0.0421294
-0.045225
-1.13157
1.13466
0.0483295
-0.0507434
-1.34013
1.34254
0.0527209
-0.0537188
-1.58823
1.58923
0.0537537
-0.0528767
-1.573
1.57212
0.0514898
-0.049558
-1.30515
1.30322
0.0475862
-0.0453508
-1.08896
1.08672
0.0433056
-0.0411211
-0.913946
0.911762
0.0391419
-0.0365947
-0.76993
0.767383
0.0337933
-0.0298469
-0.632092
0.628145
0.0254309
-0.0200503
-0.466171
0.460791
0.015115
-0.0100597
-0.280792
0.275736
0.00610181
-0.00274216
-0.122365
0.119005
0.000798442
-0.0181765
0.0173781
-0.0356308
0.0369972
-0.00136644
0.0085134
-0.0128986
-0.24769
0.252076
0.0176477
-0.0215265
-0.412966
0.416845
0.025082
-0.0279191
-0.564895
0.567732
0.0308783
-0.0338905
-0.691156
0.694168
0.0376392
-0.0413524
-0.816159
0.819872
0.0455992
-0.0494965
-0.962839
0.966736
0.0536826
-0.0572814
-1.13772
1.14132
0.0608116
-0.0634583
-1.34487
1.34752
0.0655104
-0.0663665
-1.59002
1.59088
0.0660824
-0.0647014
-1.57092
1.56953
0.0627811
-0.0602114
-1.3009
1.29833
0.0576192
-0.0546689
-1.08399
1.08104
0.0520008
-0.0491743
-0.90896
0.906134
0.0465693
-0.0433409
-0.764353
0.761125
0.0398178
-0.0350332
-0.624076
0.619291
0.0298538
-0.0236141
-0.455459
0.449219
0.0178331
-0.0118504
-0.270556
0.264573
0.00716287
-0.00320455
-0.115515
0.111556
0.000928866
-0.0165775
0.0156486
-0.0384289
0.0403324
-0.00190352
0.0116198
-0.0174877
-0.256883
0.262751
0.0237635
-0.028899
-0.421756
0.426892
0.0336253
-0.037434
-0.57188
0.575688
0.0413614
-0.0452537
-0.697836
0.701728
0.0499525
-0.0544758
-0.823575
0.828098
0.0595401
-0.064117
-0.970575
0.975152
0.0689335
-0.07296
-1.14483
1.14886
0.0767477
-0.0794263
-1.34998
1.35265
0.0812445
-0.0816234
-1.59139
1.59177
0.0806642
-0.0784749
-1.56771
1.56552
0.0757953
-0.0724216
-1.29533
1.29195
0.0691403
-0.0654591
-1.07751
1.07383
0.0621102
-0.0585163
-0.90252
0.898926
0.0552136
-0.051265
-0.757273
0.753325
0.0470082
-0.0413662
-0.614401
0.608759
0.035287
-0.0278916
-0.443015
0.43562
0.0209764
-0.0138451
-0.258443
0.251312
0.0083148
-0.0036932
-0.107476
0.102855
0.00106171
-0.014728
0.0136663
-0.0422493
0.045004
-0.00275468
0.0163002
-0.0241991
-0.269013
0.276912
0.0324161
-0.0391036
-0.433652
0.440339
0.0453161
-0.0504403
-0.581304
0.586428
0.0558313
-0.0610288
-0.706475
0.711672
0.0669678
-0.0724788
-0.832621
0.838132
0.0784729
-0.0837015
-0.97964
0.984869
0.0889857
-0.0931881
-1.15266
1.15686
0.0969076
-0.099258
-1.35492
1.35727
0.1004
-0.0998666
-1.59152
1.59099
0.0978102
-0.0943978
-1.56262
1.5592
0.0906307
-0.0861189
-1.28795
1.28344
0.0818817
-0.0773191
-1.06952
1.06496
0.0733332
-0.0691441
-0.894549
0.89036
0.0652689
-0.0607544
-0.748709
0.744194
0.0559003
-0.0492555
-0.602998
0.596354
0.0418851
-0.0328472
-0.428171
0.419133
0.0244936
-0.0160302
-0.244066
0.235603
0.00955268
-0.00420146
-0.0981407
0.0927895
0.00119251
-0.0126262
0.0114336
-0.0476579
0.0518571
-0.00419923
0.0237033
-0.0344238
-0.285226
0.295946
0.0451515
-0.0538002
-0.449608
0.458256
0.0617559
-0.0683848
-0.593916
0.600545
0.075498
-0.0822369
-0.717767
0.724506
0.0896559
-0.0962266
-0.843661
0.850231
0.103031
-0.108692
-0.989897
0.995558
0.114126
-0.118213
-1.16066
1.16474
0.121517
-0.123237
-1.359
1.36072
0.123432
-0.121809
-1.58966
1.58803
0.118585
-0.113929
-1.555
1.55034
0.109068
-0.103396
-1.27821
1.27254
0.0981435
-0.0925501
-1.05963
1.05403
0.0877519
-0.0828923
-0.885269
0.880409
0.078516
-0.0732358
-0.738861
0.733581
0.0671686
-0.0587293
-0.589178
0.580738
0.0494374
-0.0383665
-0.409943
0.398872
0.0283942
-0.0184409
-0.22715
0.217197
0.0108853
-0.00472129
-0.0874091
0.0812451
0.00131484
-0.0102818
0.00896693
-0.0557019
0.0629006
-0.00719862
0.0368461
-0.0518207
-0.307636
0.322611
0.0661363
-0.0773708
-0.470919
0.482154
0.0870605
-0.0950798
-0.61001
0.618029
0.103789
-0.111819
-0.731883
0.739913
0.1202
-0.127211
-0.856526
0.863537
0.134157
-0.139696
-1.00075
1.00628
0.144788
-0.148349
-1.16819
1.17175
0.150875
-0.151687
-1.36166
1.36247
0.150746
-0.147951
-1.58553
1.58274
0.14357
-0.137776
-1.54491
1.53912
0.131953
-0.125321
-1.26622
1.25959
0.119215
-0.112692
-1.0477
1.04118
0.107024
-0.101077
-0.87438
0.868432
0.0954449
-0.0883544
-0.726818
0.719728
0.0800676
-0.0689861
-0.571106
0.560024
0.0575061
-0.0444046
-0.387659
0.374557
0.0327562
-0.0211577
-0.207458
0.195859
0.0123497
-0.00525717
-0.0752226
0.0681301
0.00142025
-0.00772681
0.00630656
-0.0696649
0.0734937
-0.00382878
0.0273054
-0.0402348
-0.34017
0.353099
0.0529544
-0.063001
-0.49864
0.508687
0.0721469
-0.0810694
-0.629211
0.638133
0.0913371
-0.100584
-0.747412
0.756659
0.110891
-0.120049
-0.869602
0.87876
0.129752
-0.138296
-1.01094
1.01948
0.147117
-0.154509
-1.17434
1.18173
0.161589
-0.166856
-1.36226
1.36752
0.170901
-0.17257
-1.57891
1.58058
0.17175
-0.168859
-1.53242
1.52953
0.164699
-0.158914
-1.25224
1.24645
0.152983
-0.145385
-1.03384
1.02624
0.138036
-0.129128
-0.860847
0.851939
0.119897
-0.108244
-0.710134
0.698482
0.0952371
-0.0793936
-0.547666
0.531822
0.064284
-0.0476445
-0.361227
0.344587
0.0335166
-0.0202456
-0.184573
0.171302
0.0108908
-0.00417546
-0.0616891
0.0549737
0.00093871
-0.0050466
0.00410789
-0.0807252
0.0784253
0.00229992
0.00576145
-0.013604
-0.368758
0.376601
0.0229035
-0.0300217
-0.523123
0.530241
0.0372456
-0.0445578
-0.649236
0.656548
0.0535777
-0.0620063
-0.765448
0.773876
0.0711193
-0.079545
-0.887378
0.895803
0.0885695
-0.0962816
-1.02782
1.03554
0.104508
-0.111112
-1.18907
1.19567
0.117478
-0.122019
-1.37266
1.3772
0.1251
-0.12597
-1.58163
1.5825
0.124335
-0.120531
-1.52599
1.52218
0.11525
-0.108146
-1.24005
1.23295
0.100771
-0.0915972
-1.01757
1.0084
0.082154
-0.0707446
-0.840056
0.828647
0.0598289
-0.0482769
-0.681957
0.670405
0.0379792
-0.0272506
-0.513823
0.503094
0.0183789
-0.0106807
-0.327552
0.319854
0.00558527
-0.00204895
-0.158414
0.154877
0.000247423
0.000386386
-0.0485215
0.0478877
-0.000325179
-0.00278736
0.00311254
-0.0814759
0.0785143
0.00296164
-0.00260115
-0.0015038
-0.387611
0.391716
0.00723983
-0.0123302
-0.540935
0.546025
0.0177207
-0.0237968
-0.665665
0.671741
0.0313135
-0.038417
-0.781389
0.788493
0.046429
-0.0537745
-0.903508
0.910853
0.0614926
-0.0685125
-1.04314
1.05016
0.0758354
-0.0818366
-1.20194
1.20794
0.0872004
-0.0908194
-1.38115
1.38477
0.0931573
-0.0930961
-1.58261
1.58254
0.090496
-0.0856682
-1.5175
1.51268
0.0795208
-0.0716864
-1.22525
1.21741
0.0633531
-0.0535968
-0.9982
0.988444
0.0439988
-0.0330708
-0.816499
0.805571
0.0234482
-0.0138186
-0.656476
0.646846
0.00618743
0.000857215
-0.490666
0.483621
-0.00519988
0.0073426
-0.310376
0.308233
-0.00748365
0.00624137
-0.149513
0.150755
-0.00446257
0.0023482
-0.0464366
0.0485509
-0.000841086
-0.00271828
0.00355936
-0.0799967
0.0771713
0.00282545
-0.0057607
0.00391636
-0.399734
0.401578
-0.000477985
-0.00324742
-0.554102
0.557828
0.00785033
-0.0128498
-0.678749
0.683748
0.0191653
-0.0251966
-0.795069
0.8011
0.0320235
-0.0383484
-0.917728
0.924053
0.0454053
-0.0514313
-1.05677
1.0628
0.0579041
-0.0627696
-1.21355
1.21842
0.0673961
-0.0703683
-1.38814
1.39111
0.0718348
-0.070817
-1.5819
1.58089
0.0677117
-0.0625
-1.50703
1.50182
0.056159
-0.0479541
-1.20912
1.20092
0.0398311
-0.0305846
-0.978232
0.968986
0.0216432
-0.0121008
-0.794375
0.784833
0.00358202
0.00438577
-0.635396
0.627429
-0.0100904
0.0141695
-0.474657
0.470578
-0.0157766
0.0149699
-0.302641
0.303448
-0.0127369
0.00937602
-0.150158
0.153519
-0.00628277
0.00305339
-0.0496313
0.0528607
-0.000982309
-0.0037079
0.00469021
-0.078415
0.0760251
0.00238989
-0.00641948
0.00589713
-0.407843
0.408366
-0.00333207
0.000551958
-0.564645
0.567425
0.00322022
-0.00779829
-0.689593
0.694171
0.0130903
-0.0184051
-0.806571
0.811886
0.024334
-0.0298598
-0.93
0.935526
0.0359589
-0.0413577
-1.0687
1.0741
0.0468851
-0.0513482
-1.22314
1.2276
0.0552816
-0.0576822
-1.39366
1.39606
0.0586089
-0.0572145
-1.57959
1.5782
0.0538948
-0.0484743
-1.49584
1.49042
0.0423397
-0.0347542
-1.19266
1.18507
0.0273137
-0.0188834
-0.959561
0.951131
0.0111517
-0.00294086
-0.775039
0.766828
-0.00404135
0.0105897
-0.618223
0.611675
-0.0151246
0.0180283
-0.463803
0.460899
-0.0187379
0.0169807
-0.300211
0.301968
-0.0138524
0.0100444
-0.154697
0.158505
-0.00659096
0.0031217
-0.0548804
0.0583496
-0.000991782
-0.00513668
0.00612846
-0.0771247
0.0751489
0.00197575
-0.00595059
0.00569356
-0.413522
0.413779
-0.00420117
0.00183709
-0.572901
0.575265
0.00200537
-0.00600121
-0.698871
0.702867
0.0106262
-0.0152966
-0.816566
0.821236
0.0206161
-0.0255944
-0.940776
0.945754
0.0312058
-0.0359633
-1.07924
1.08399
0.0409454
-0.0449559
-1.23176
1.23577
0.0483996
-0.0504232
-1.39816
1.40018
0.051023
-0.0498445
-1.57665
1.57547
0.0465507
-0.0415673
-1.48458
1.4796
0.0358726
-0.0289509
-1.17744
1.17052
0.0225185
-0.0150096
-0.942792
0.935283
0.0083024
-0.0014355
-0.758625
0.751758
-0.00440172
0.00983524
-0.60435
0.598916
-0.0135656
0.0160249
-0.45527
0.452811
-0.0163898
0.0148381
-0.299835
0.301386
-0.0122361
0.00879792
-0.160004
0.163442
-0.00568015
0.00270528
-0.0602469
0.0632218
-0.000859188
-0.00654537
0.00740456
-0.0762878
0.0747947
0.00149313
-0.00484328
0.004736
-0.417962
0.41807
-0.00332351
0.00144099
-0.580408
0.582291
0.00224457
-0.00597378
-0.70713
0.710859
0.0105078
-0.0146127
-0.825668
0.829773
0.0193544
-0.0238158
-0.95077
0.955231
0.0291679
-0.0335091
-1.08879
1.09313
0.0379605
-0.0417469
-1.2396
1.24338
0.0452977
-0.047153
-1.40219
1.40405
0.0478197
-0.0466472
-1.57389
1.57272
0.0438994
-0.0391174
-1.47445
1.46967
0.0341235
-0.0280862
-1.16359
1.15755
0.0222998
-0.0159052
-0.928009
0.921615
0.0100293
-0.00390246
-0.744659
0.738532
-0.000919395
0.00571444
-0.592615
0.58782
-0.00910513
0.011176
-0.448153
0.446082
-0.0117086
0.0108431
-0.299677
0.300542
-0.00893126
0.00631437
-0.164318
0.166935
-0.00405135
0.00195571
-0.064487
0.0665826
-0.000646304
-0.00765757
0.00830388
-0.0760066
0.0748685
0.00113811
-0.00364383
0.0035444
-0.421714
0.421814
-0.00203545
7.02425e-05
-0.587207
0.589172
0.00343314
-0.00687846
-0.714813
0.718258
0.0108775
-0.0149441
-0.833969
0.838035
0.0194096
-0.0240615
-0.959571
0.964223
0.0287169
-0.032877
-1.09759
1.10175
0.0374423
-0.0409824
-1.24704
1.25059
0.0440539
-0.0463175
-1.40581
1.40807
0.0471876
-0.0463825
-1.57161
1.57081
0.0439193
-0.0398924
-1.46512
1.46109
0.0354491
-0.03004
-1.15131
1.1459
0.0249537
-0.0192721
-0.915214
0.909532
0.0141159
-0.00889249
-0.732459
0.727236
0.00437724
-0.000192962
-0.582308
0.578124
-0.00277196
0.0049654
-0.441889
0.439695
-0.00580453
0.00543442
-0.298656
0.299026
-0.00451759
0.0031201
-0.166821
0.168218
-0.00197702
0.000962738
-0.0669752
0.0679895
-0.000348837
-0.00837158
0.00872042
-0.0762817
0.075335
0.000946682
-0.00232436
0.001941
-0.425292
0.425675
-0.000563173
-0.00158428
-0.593644
0.595791
0.00489315
-0.00833786
-0.722198
0.725643
0.0122984
-0.0160783
-0.842028
0.845808
0.0207467
-0.0246679
-0.968369
0.97229
0.0293235
-0.0333277
-1.10609
1.11009
0.0377818
-0.0415084
-1.25411
1.25784
0.0448753
-0.0469463
-1.4101
1.41217
0.0481914
-0.0478322
-1.56993
1.56957
0.0460857
-0.0424765
-1.45697
1.45336
0.0385736
-0.0337071
-1.14062
1.13576
0.0291562
-0.0239652
-0.903697
0.898506
0.0193941
-0.0145468
-0.721762
0.716915
0.0104301
-0.0064734
-0.573267
0.569311
0.00348077
-0.00132269
-0.43576
0.433602
4.47567e-05
0.00037457
-0.29646
0.296041
-0.000586491
0.000496134
-0.167042
0.167133
-0.000413807
0.000337627
-0.0674803
0.0675565
-0.000189323
-0.00853932
0.00872865
-0.0768501
0.0761985
0.000651524
-0.00119047
0.000352355
-0.429086
0.429924
0.000923535
-0.00325047
-0.599528
0.601854
0.00634568
-0.00976634
-0.729291
0.732711
0.013662
-0.0176544
-0.849569
0.853561
0.0217945
-0.0259258
-0.976482
0.980614
0.0305799
-0.0343979
-1.11454
1.11836
0.038962
-0.0426635
-1.26138
1.26508
0.0461047
-0.0487229
-1.41466
1.41728
0.0504919
-0.0504656
-1.56926
1.56923
0.0490022
-0.046145
-1.44992
1.44706
0.0428223
-0.0383556
-1.13076
1.1263
0.0340857
-0.0294647
-0.893232
0.888611
0.0248838
-0.0204903
-0.711778
0.707385
0.016601
-0.0126878
-0.564943
0.561029
0.0097706
-0.00718607
-0.429524
0.426939
0.0054543
-0.00405693
-0.293058
0.291661
0.00295064
-0.00182114
-0.16512
0.16399
0.000854988
-0.000146185
-0.0662154
0.0655066
-9.9024e-05
-0.00823048
0.0083295
-0.0777973
0.0772999
0.000497418
-0.000253456
-0.000545474
-0.433139
0.433938
0.00241028
-0.00461018
-0.605614
0.607814
0.00794263
-0.0113103
-0.736068
0.739436
0.0151349
-0.0188057
-0.857331
0.861002
0.0231341
-0.0270031
-0.984804
0.988673
0.0316416
-0.0359175
-1.12265
1.12693
0.040151
-0.0441965
-1.26885
1.2729
0.0480832
-0.0508221
-1.41981
1.42254
0.0530017
-0.0537744
-1.56942
1.57019
0.0527927
-0.0505682
-1.44406
1.44184
0.0474497
-0.0434207
-1.12182
1.11779
0.0395419
-0.0350678
-0.883562
0.879088
0.0308305
-0.026519
-0.702446
0.698134
0.0227107
-0.0187088
-0.556601
0.552599
0.0155105
-0.012585
-0.422874
0.419949
0.0101204
-0.00787526
-0.288016
0.285771
0.00584768
-0.00373811
-0.161084
0.158974
0.00204472
-0.000711344
-0.0635411
0.0622077
8.37091e-05
-0.00767443
0.00759072
-0.0790001
0.0786722
0.000327928
0.000761307
-0.00175703
-0.437355
0.438351
0.00350899
-0.00600807
-0.611386
0.613885
0.00932129
-0.012588
-0.742736
0.746003
0.0165521
-0.0201332
-0.864734
0.868315
0.024361
-0.0283875
-0.993063
0.997089
0.0329687
-0.037234
-1.13109
1.13535
0.0417092
-0.0458059
-1.27688
1.28098
0.0499013
-0.0534075
-1.42558
1.42909
0.0560574
-0.0571601
-1.57091
1.57202
0.0568769
-0.0549781
-1.43949
1.43759
0.0523924
-0.0488534
-1.11366
1.11012
0.0449947
-0.0406817
-0.874281
0.869968
0.0365695
-0.0321758
-0.693394
0.689001
0.0284344
-0.0242809
-0.548367
0.544213
0.0208835
-0.0173594
-0.415612
0.412087
0.0143754
-0.0112835
-0.281432
0.278341
0.00832358
-0.00535857
-0.155204
0.152239
0.00302021
-0.00115054
-0.0597128
0.0578431
0.000215836
-0.00688317