/*--------------------------------*- C++ -*----------------------------------*\
  =========                 |
  \\      /  F ield         | OpenFOAM: The Open Source CFD Toolbox
   \\    /   O peration     | Website:  https://openfoam.org
    \\  /    A nd           | Version:  6
     \\/     M anipulation  |
\*---------------------------------------------------------------------------*/
FoamFile
{
    version     2.0;
    format      ascii;
    class       surfaceScalarField;
    location    "73";
    object      phi;
}
// * * * * * * * * * * * * * * * * * * * * * * * * * * * * * * * * * * * * * //

dimensions      [0 3 -1 0 0 0 0];

internalField   nonuniform List<scalar> 
4262
(
0.106796
0.471193
0.0925455
0.707836
0.0648019
0.860047
0.0423611
1.0212
0.0263131
1.21456
0.016237
1.4483
0.00997703
1.73212
0.00577652
2.07524
0.00257012
2.48845
-0.000236467
2.9851
-0.00299033
2.98505
-0.00629021
2.48854
-0.0106096
2.07536
-0.016902
1.73216
-0.0268611
1.44818
-0.0426555
1.21431
-0.064865
1.02097
-0.0924875
0.859926
-0.106832
0.70793
0.471156
0.114757
0.356435
0.13989
0.682703
0.125204
0.874733
0.101653
1.04475
0.0734018
1.24282
0.0471276
1.47457
0.0263754
1.75288
0.0123374
2.08927
0.00430279
2.49648
-0.00166555
2.99107
-0.00731952
2.9907
-0.0152781
2.4965
-0.0287837
2.08886
-0.0489843
1.75236
-0.0750078
1.4742
-0.103314
1.24262
-0.126992
1.04465
-0.140767
0.8737
-0.115207
0.68237
0.355949
0.091717
0.264718
0.126317
0.648103
0.124855
0.876195
0.110934
1.05868
0.0965403
1.25721
0.076853
1.49426
0.0548994
1.77483
0.0332178
2.11096
0.0135306
2.51617
-0.00205042
3.00665
-0.017849
3.0065
-0.0370131
2.51567
-0.0585239
2.11037
-0.0803193
1.77415
-0.0995326
1.49342
-0.113032
1.25612
-0.125905
1.05752
-0.127782
0.875577
-0.0924065
0.646995
0.263542
0.062785
0.201933
0.103923
0.606965
0.106637
0.873481
0.0970404
1.06827
0.0858651
1.26839
0.075207
1.50492
0.0604092
1.78963
0.0414054
2.12996
0.0198028
2.53777
-0.00401905
3.03047
-0.0275596
3.03004
-0.0483955
2.5365
-0.0662573
2.12823
-0.0798559
1.78775
-0.0896339
1.50319
-0.100433
1.26692
-0.109812
1.0669
-0.106231
0.871996
-0.0638075
0.604572
0.199735
0.0370298
0.164903
0.0793723
0.564623
0.0896903
0.863163
0.0829429
1.07502
0.0717089
1.27962
0.0628027
1.51382
0.0528917
1.79954
0.039161
2.14369
0.0201592
2.55678
-0.00457079
3.0552
-0.0288311
3.0543
-0.0470621
2.55473
-0.0600861
2.14126
-0.0693272
1.79699
-0.0774064
1.51127
-0.0877556
1.27726
-0.0934305
1.07258
-0.0816849
0.860251
-0.0378324
0.560719
0.161903
0.0194654
0.145438
0.0564415
0.527647
0.071394
0.84821
0.0687738
1.07764
0.0596705
1.28872
0.049535
1.52396
0.0399214
1.80915
0.0286835
2.15493
0.0136615
2.5718
-0.00665091
3.07551
-0.026526
3.07417
-0.0404715
2.56868
-0.0502018
2.15099
-0.0581954
1.80499
-0.0670929
1.52017
-0.0750105
1.28518
-0.0763235
1.07389
-0.059486
0.843413
-0.0204276
0.521661
0.141475
0.0107012
0.134737
0.0419771
0.496371
0.0575382
0.832649
0.0571862
1.07799
0.0501322
1.29578
0.0399151
1.53417
0.0299926
1.81907
0.019743
2.16518
0.00753544
2.58401
-0.0079677
3.09102
-0.0229647
3.08917
-0.0340109
2.57972
-0.042938
2.15992
-0.0513645
1.81341
-0.0600658
1.52887
-0.0653717
1.29049
-0.0638512
1.07237
-0.0458495
0.825411
-0.0118984
0.48771
0.129577
0.00658608
0.128151
0.0326532
0.470304
0.0482154
0.817087
0.0489732
1.07723
0.0431734
1.30158
0.0337836
1.54356
0.0232505
1.82961
0.0123856
2.17604
0.00117897
2.59521
-0.0106248
3.10282
-0.0216679
3.10021
-0.0312322
2.58929
-0.0398869
2.16857
-0.0480707
1.8216
-0.0554176
1.53622
-0.0592406
1.29431
-0.0561668
1.0693
-0.0374257
0.80667
-0.00803322
0.458317
0.121543
0.00462144
0.123529
0.0262388
0.448686
0.0416453
0.801681
0.0431811
1.0757
0.0378515
1.30691
0.0294797
1.55194
0.0195939
1.83949
0.00891768
2.18672
-0.00180302
2.60593
-0.0127195
3.11374
-0.0230171
3.11051
-0.0320396
2.59831
-0.0404896
2.17702
-0.0481458
1.82925
-0.0541127
1.54219
-0.0567258
1.29692
-0.051839
1.06441
-0.0322071
0.787038
-0.00645284
0.432563
0.115091
0.00368504
0.119844
0.0214149
0.430957
0.0362843
0.786811
0.0387725
1.07321
0.0340747
1.3116
0.0261494
1.55986
0.0165174
1.84912
0.0057037
2.19753
-0.00566449
2.6173
-0.0167087
3.12478
-0.0263612
3.12016
-0.0350076
2.60696
-0.0425917
2.1846
-0.0489609
1.83562
-0.0537283
1.54695
-0.0549469
1.29814
-0.0485914
1.05805
-0.0285712
0.767018
-0.00586934
0.409861
0.109221
0.00297827
0.116866
0.0172112
0.416724
0.030802
0.77322
0.0335516
1.07046
0.0292873
1.31587
0.0220986
1.56705
0.0134426
1.85778
0.00345844
2.20752
-0.00757576
2.62834
-0.0194922
3.1367
-0.030503
3.13118
-0.0390079
2.61546
-0.045569
2.19117
-0.0506827
1.84073
-0.0543875
1.55066
-0.0544922
1.29825
-0.0465092
1.05007
-0.0261218
0.746631
-0.00568935
0.389429
0.103532
0.00230805
0.114558
0.013636
0.405396
0.0259642
0.760892
0.0287529
1.06767
0.0245348
1.32009
0.0172751
1.57431
0.00850378
1.86655
-0.0015904
2.21761
-0.0132229
2.63997
-0.0256941
3.14917
-0.0362624
3.14174
-0.0436578
2.62286
-0.0490773
2.19658
-0.0530729
1.84473
-0.0555405
1.55313
-0.0547501
1.29746
-0.0452287
1.04055
-0.0244886
0.725891
-0.0056343
0.370574
0.0978975
0.0016771
0.112881
0.0103832
0.39669
0.021068
0.750207
0.0236244
1.06512
0.019414
1.3243
0.0122853
1.58144
0.00372129
1.87512
-0.00620043
2.22753
-0.0172866
2.65105
-0.0299594
3.16184
-0.0411575
3.15294
-0.0485711
2.63027
-0.0533811
2.20139
-0.0566474
1.848
-0.0579361
1.55441
-0.0558804
1.2954
-0.0448096
1.02948
-0.0235507
0.704632
-0.00566026
0.352684
0.0922373
0.000751147
0.11213
0.00685771
0.390583
0.0155935
0.741472
0.0173488
1.06336
0.0126349
1.32901
0.00495776
1.58912
-0.00418808
1.88426
-0.0145273
2.23787
-0.0261895
2.66272
-0.038476
3.17413
-0.0479498
3.16242
-0.0538314
2.63615
-0.0573779
2.20494
-0.0599096
1.85053
-0.0604472
1.55495
-0.0573516
1.29231
-0.0447822
1.01691
-0.0229502
0.6828
-0.00563353
0.335367
0.0866037
-4.35938e-05
0.112173
0.00354301
0.386996
0.00995943
0.735055
0.0107679
1.06255
0.00564584
1.33413
-0.00224517
1.59701
-0.0115839
1.8936
-0.0220396
2.24833
-0.0335762
2.67425
-0.0455832
3.18613
-0.0554247
3.17226
-0.0611768
2.64191
-0.0642616
2.20803
-0.0657672
1.85203
-0.0651436
1.55433
-0.0604096
1.28757
-0.0459423
1.00244
-0.0230799
0.659937
-0.00576589
0.318053
0.0808378
-0.00102532
0.113199
-0.000105297
0.386076
0.00409724
0.730853
0.00379811
1.06285
-0.00218217
1.34011
-0.0111815
1.60601
-0.0217292
1.90415
-0.0332347
2.25983
-0.0450987
2.68612
-0.0566735
3.19771
-0.0647254
3.18031
-0.06902
2.6462
-0.0710347
2.21004
-0.0717919
1.85279
-0.0704219
1.55296
-0.0640175
1.28117
-0.0475277
0.985953
-0.0235011
0.635911
-0.00591766
0.30047
0.0749202
-0.00209532
0.115294
-0.0035729
0.387554
-0.00284008
0.73012
-0.00511321
1.06512
-0.0119878
1.34699
-0.0215455
1.61556
-0.0325627
1.91517
-0.0444915
2.27176
-0.0570239
2.69865
-0.0692822
3.20997
-0.0776892
3.18872
-0.0812809
2.64979
-0.0822687
2.21103
-0.0817046
1.85223
-0.0784405
1.54969
-0.0697503
1.27248
-0.0505872
0.96679
-0.0246871
0.610011
-0.00626167
0.282044
0.0686585
-0.00332029
0.118614
-0.0072002
0.391434
-0.00952721
0.732447
-0.0135319
1.06913
-0.0217826
1.35524
-0.0330132
1.62679
-0.045597
1.92775
-0.0590344
2.2852
-0.0725778
2.71219
-0.084184
3.22157
-0.0912486
3.19578
-0.093936
2.65248
-0.0935614
2.21065
-0.0916696
1.85033
-0.0873122
1.54534
-0.0763196
1.26148
-0.0542198
0.94469
-0.0262184
0.582009
-0.00666098
0.262487
0.0619975
-0.00486015
0.123474
-0.0120558
0.398629
-0.0180768
0.738468
-0.025347
1.0764
-0.0351119
1.365
-0.0475226
1.6392
-0.0612739
1.9415
-0.0760777
2.3
-0.0909102
2.72702
-0.104217
3.23488
-0.111252
3.20282
-0.112009
2.65324
-0.109879
2.20852
-0.106131
1.84659
-0.0993589
1.53856
-0.085272
1.2474
-0.0594855
0.918904
-0.0284188
0.550943
-0.00715964
0.241228
0.0548379
-0.00627444
0.129749
-0.0167581
0.409113
-0.0267852
0.748495
-0.0368019
1.08642
-0.0487338
1.37693
-0.0632959
1.65377
-0.0793601
1.95756
-0.0965739
2.31722
-0.113444
2.7439
-0.126665
3.2481
-0.131328
3.20748
-0.130955
2.65286
-0.127634
2.2052
-0.122286
1.84124
-0.113781
1.53006
-0.096067
1.22968
-0.0656176
0.888454
-0.0309423
0.516267
-0.00769392
0.217979
0.047144
-0.00861788
0.138367
-0.0240943
0.42459
-0.0397142
0.764115
-0.0532526
1.09995
-0.0672957
1.39098
-0.0843166
1.67079
-0.10345
1.9767
-0.12355
2.33732
-0.142056
2.7624
-0.15469
3.26073
-0.158064
3.21085
-0.155239
2.65004
-0.150129
2.20009
-0.142966
1.83408
-0.131077
1.51817
-0.108887
1.20749
-0.0730204
0.852588
-0.0337615
0.477008
-0.00820434
0.192422
0.0389396
-0.0110782
0.149445
-0.0311673
0.444679
-0.0528222
0.78577
-0.0717026
1.11883
-0.0897859
1.40906
-0.110242
1.69124
-0.132609
1.99907
-0.155528
2.36024
-0.175555
2.78243
-0.188075
3.27325
-0.189474
3.21225
-0.183899
2.64446
-0.175588
2.19178
-0.165428
1.82392
-0.150585
1.50333
-0.12293
1.17984
-0.0803385
0.809996
-0.0361329
0.432803
-0.00848707
0.164776
0.0304526
-0.0156678
0.165113
-0.0430541
0.472065
-0.0714698
0.814186
-0.0955968
1.14296
-0.118208
1.43167
-0.144042
1.71708
-0.171566
2.02659
-0.197782
2.38645
-0.217939
2.80259
-0.22668
3.28199
-0.223147
3.20872
-0.214735
2.63605
-0.204776
2.18182
-0.192703
1.81184
-0.173223
1.48385
-0.138978
1.14559
-0.0885611
0.759579
-0.0382634
0.382505
-0.00858648
0.135099
0.0218661
-0.0195482
0.184661
-0.0555221
0.508039
-0.0931218
0.851785
-0.124918
1.17476
-0.154407
1.46116
-0.187717
1.75039
-0.219924
2.0588
-0.247038
2.41357
-0.264423
2.81997
-0.2687
3.28627
-0.261841
3.20186
-0.250199
2.62441
-0.236974
2.1686
-0.221457
1.79632
-0.19746
1.45985
-0.154805
1.10294
-0.0947063
0.699481
-0.0388687
0.326667
-0.00818721
0.104418
0.0136789
-0.032027
0.216688
-0.0801894
0.556201
-0.129621
0.901216
-0.169942
1.21508
-0.205812
1.49703
-0.245572
1.79015
-0.280342
2.09357
-0.306707
2.43993
-0.320077
2.83334
-0.317752
3.28395
-0.303035
3.18714
-0.286911
2.60829
-0.27231
2.154
-0.254553
1.77857
-0.223454
1.42875
-0.170492
1.04998
-0.100293
0.629282
-0.0387088
0.265083
-0.00766706
0.0733762
0.0060118
-0.0456322
0.26232
-0.119209
0.629778
-0.184761
0.966769
-0.232118
1.26243
-0.274712
1.53963
-0.318502
1.83394
-0.350035
2.1251
-0.369078
2.45897
-0.375174
2.83944
-0.368677
3.27745
-0.352827
3.17129
-0.332684
2.58814
-0.309493
2.13081
-0.282409
1.75148
-0.242835
1.38918
-0.179296
0.986438
-0.0986915
0.548677
-0.0355856
0.201977
-0.00706331
0.0448539
-0.0010515
-0.0325657
0.294886
-0.0976455
0.694858
-0.15765
1.02677
-0.207821
1.31261
-0.261982
1.59379
-0.30996
1.88192
-0.354415
2.16956
-0.393231
2.49779
-0.423979
2.87019
-0.441075
3.29455
-0.437449
3.16767
-0.422488
2.57318
-0.404593
2.11291
-0.375697
1.72259
-0.317581
1.33106
-0.220989
0.889846
-0.111032
0.43872
-0.0393319
0.130277
-0.00833548
0.0138575
-0.00938699
-0.0137193
0.308605
-0.0485805
0.729719
-0.089571
1.06776
-0.132073
1.35511
-0.17508
1.63679
-0.206741
1.91358
-0.2387
2.20151
-0.269165
2.52825
-0.292684
2.89371
-0.304475
3.30634
-0.306358
3.16955
-0.302471
2.5693
-0.287557
2.098
-0.256488
1.69152
-0.203378
1.27795
-0.128261
0.814729
-0.0575096
0.367968
-0.0215441
0.0943111
-0.00494784
-0.00273868
-0.0143348
-0.00331234
0.311918
-0.0238594
0.750266
-0.0512048
1.09511
-0.080563
1.38447
-0.109231
1.66546
-0.137185
1.94153
-0.164872
2.2292
-0.191359
2.55474
-0.213553
2.9159
-0.226613
3.3194
-0.22415
3.16709
-0.209795
2.55494
-0.191074
2.07928
-0.164636
1.66508
-0.120471
1.23379
-0.0664913
0.760749
-0.0270544
0.328531
-0.0123519
0.0796086
-0.00346746
-0.0116231
-0.0178023
0.00118552
0.310732
-0.0137241
0.765176
-0.0343684
1.11575
-0.0550379
1.40514
-0.074656
1.68508
-0.0964439
1.96332
-0.119598
2.25236
-0.14129
2.57643
-0.157665
2.93227
-0.164064
3.3258
-0.15942
3.16244
-0.147514
2.54303
-0.126023
2.05778
-0.093564
1.63262
-0.0574669
1.19769
-0.0240913
0.727374
-0.00887126
0.313311
-0.00565603
0.0763933
-0.00229611
-0.014983
-0.0200984
0.00380489
0.306927
-0.00484135
0.773822
-0.0213352
1.13225
-0.0398372
1.42364
-0.0575295
1.70277
-0.0754271
1.98122
-0.0933077
2.27024
-0.109355
2.59248
-0.121453
2.94437
-0.125968
3.33031
-0.117869
3.15434
-0.0983454
2.52351
-0.0740897
2.03353
-0.048451
1.60698
-0.0194093
1.16865
0.00330938
0.704655
0.00616926
0.310452
0.00204321
0.0805194
-0.000231148
-0.0127086
-0.0203296
0.00476536
0.302162
-0.00130223
0.779889
-0.0155763
1.14652
-0.0320089
1.44007
-0.0480211
1.71878
-0.063413
1.99661
-0.078227
2.28505
-0.0909356
2.60519
-0.0987354
2.95217
-0.097995
3.32957
-0.0880226
3.14437
-0.0720023
2.50749
-0.0485727
2.0101
-0.0187517
1.57716
0.00653365
1.14336
0.018136
0.693053
0.0152654
0.313322
0.00705874
0.088726
0.00142343
-0.00707333
-0.0189061
0.00479052
0.297371
0.001738
0.782942
-0.0101752
1.15843
-0.0259257
1.45582
-0.0421124
1.73497
-0.0571947
2.01169
-0.0705724
2.29843
-0.080925
2.61554
-0.0860032
2.95725
-0.0836759
3.32724
-0.071684
3.13238
-0.0501077
2.48591
-0.0261577
1.98615
-0.00488501
1.55589
0.0152785
1.1232
0.0249166
0.683414
0.0195344
0.318704
0.00972726
0.0985331
0.00239737
0.000256553
-0.0165088
0.00302071
0.294351
0.000123285
0.785839
-0.00998117
1.16854
-0.0235101
1.46935
-0.0383836
1.74984
-0.0530092
2.02632
-0.0663631
2.31178
-0.0764721
2.62565
-0.0802825
2.96106
-0.0752547
3.32222
-0.0619386
3.11906
-0.0449626
2.46894
-0.0244778
1.96566
0.00132024
1.53009
0.0201587
1.10436
0.0261951
0.677378
0.0204925
0.324407
0.0106416
0.108384
0.00286681
0.00803138
-0.0136419
0.00193301
0.292418
-0.000578749
0.788351
-0.00950019
1.17746
-0.0218803
1.48173
-0.0359475
1.76391
-0.050536
2.0409
-0.0644737
2.32572
-0.0753248
2.6365
-0.0798406
2.96558
-0.074854
3.31723
-0.0598351
3.10404
-0.0396827
2.44879
-0.0180103
1.94399
0.000311208
1.51177
0.0168532
1.08782
0.0241947
0.670037
0.0192077
0.329394
0.010243
0.117349
0.00292358
0.0153508
-0.0107184
0.000127014
0.29229
-0.00339105
0.791869
-0.0115382
1.18561
-0.0224184
1.49261
-0.0351339
1.77663
-0.0491347
2.05491
-0.0636044
2.34019
-0.0761345
2.64903
-0.0825192
2.97196
-0.0773503
3.31206
-0.0615396
3.08823
-0.0454006
2.43265
-0.0266286
1.92522
-0.00401129
1.48915
0.0122936
1.07151
0.018166
0.664164
0.0153405
0.332219
0.00857563
0.124114
0.00258027
0.0213462
-0.00813808
-0.0011866
0.293477
-0.00489784
0.79558
-0.0126008
1.19331
-0.022962
1.50297
-0.0351255
1.78879
-0.0487805
2.06856
-0.0635562
2.35497
-0.0776106
2.66308
-0.08685
2.9812
-0.0848181
3.31003
-0.0689042
3.07232
-0.0474272
2.41117
-0.0267651
1.90456
-0.0115063
1.4739
0.00368361
1.05632
0.0123634
0.655484
0.0114492
0.333134
0.00669207
0.128871
0.00211804
0.0259202
-0.00602004
-0.00253496
0.296012
-0.00730846
0.800354
-0.0149405
1.20094
-0.024632
1.51266
-0.0360772
1.80024
-0.0491405
2.08162
-0.0638287
2.36965
-0.0790428
2.6783
-0.0915466
2.9937
-0.0932355
3.31172
-0.0787127
3.0578
-0.0588975
2.39136
-0.039878
1.88554
-0.0188883
1.45291
-0.0032978
1.04073
0.00482387
0.647363
0.00691047
0.331047
0.00474978
0.131031
0.00166388
0.0290061
-0.00435617
-0.00337706
0.299389
-0.00849071
0.805468
-0.0161602
1.20861
-0.0258311
1.52233
-0.0371264
1.81153
-0.0498443
2.09434
-0.0642258
2.38404
-0.0799268
2.694
-0.095697
3.00947
-0.103507
3.31953
-0.0921069
3.0464
-0.0676229
2.36687
-0.0426984
1.86061
-0.0261925
1.4364
-0.011087
1.02563
-0.000414023
0.63669
0.00293131
0.327702
0.0028093
0.131153
0.00119855
0.0306169
-0.00315762
-0.00415214
0.303541
-0.0103051
0.811621
-0.0181407
1.21645
-0.0274961
1.53169
-0.0383716
1.82241
-0.0505811
2.10655
-0.0645146
2.39797
-0.080461
2.70995
-0.0985933
3.02761
-0.11162
3.33255
-0.10511
3.03989
-0.0847756
2.34654
-0.0583769
1.83421
-0.0318208
1.40984
-0.015154
1.00896
-0.00551504
0.627051
-4.41331e-05
0.322231
0.00116545
0.129944
0.000694832
0.0310875
-0.00246279
-0.00455946
0.308101
-0.0110296
0.818091
-0.0189984
1.22442
-0.02842
1.54111
-0.0392204
1.83321
-0.0511267
2.11846
-0.064705
2.41155
-0.0807744
2.72602
-0.10012
3.04695
-0.117683
3.35012
-0.11687
3.03907
-0.0957816
2.32545
-0.0641345
1.80257
-0.0372576
1.38297
-0.0170699
0.988773
-0.00518116
0.615162
0.000124296
0.316925
0.000947343
0.129121
0.000512262
0.0315226
-0.00195053
-0.00495923
0.31306
-0.0121951
0.825327
-0.0202956
1.23252
-0.0294764
1.55029
-0.0398905
1.84362
-0.0513507
2.12992
-0.0647279
2.42492
-0.0810678
2.74236
-0.100744
3.06663
-0.120111
3.36948
-0.124694
3.04365
-0.110442
2.3112
-0.082065
1.77419
-0.0433561
1.34426
-0.0146054
0.960023
-0.00207884
0.602635
0.0038074
0.311039
0.00308915
0.129839
0.000998231
0.0336135
-0.000952299
-0.00500841
0.318068
-0.0123243
0.832642
-0.0205329
1.24073
-0.0297658
1.55952
-0.0400359
1.85389
-0.051229
2.14111
-0.0646855
2.43838
-0.0813633
2.75903
-0.101026
3.08629
-0.121207
3.38966
-0.130739
3.05319
-0.118351
2.29881
-0.0883426
1.74418
-0.0511537
1.30707
-0.013026
0.921895
0.010019
0.57959
0.0148333
0.306225
0.0103118
0.13436
0.00340153
0.0405237
0.00244923
-0.00510619
0.323175
-0.0128313
0.840368
-0.0210969
1.24899
-0.03013
1.56856
-0.0399108
1.86367
-0.0506967
2.1519
-0.0644573
2.45214
-0.0816653
2.77624
-0.101181
3.10581
-0.12101
3.40949
-0.132929
3.0651
-0.128238
2.29412
-0.105368
1.72131
-0.0610239
1.26273
-0.0131422
0.874013
0.0242473
0.542201
0.0383188
0.292153
0.0311
0.141579
0.0121813
0.0594425
0.0146305
-0.00493128
0.328106
-0.0125114
0.847948
-0.0207595
1.25724
-0.0298342
1.57763
-0.0392971
1.87314
-0.0498796
2.16248
-0.0641539
2.46642
-0.0819852
2.79407
-0.101426
3.12525
-0.121052
3.42912
-0.134529
3.07858
-0.132286
2.29188
-0.109453
1.69848
-0.0700284
1.2233
-0.0144746
0.818459
0.0406536
0.487073
0.0802871
0.25252
0.0894427
0.132424
0.0558117
0.0930735
0.0704422
-0.00484902
0.332955
-0.0121725
0.855271
-0.0197562
1.26482
-0.028194
1.58607
-0.0387248
1.88367
-0.0521466
2.1759
-0.0687655
2.48303
-0.0878615
2.81317
-0.107627
3.14501
-0.125609
3.4471
-0.135705
3.08868
-0.13473
2.2909
-0.119111
1.68286
-0.0775838
1.18177
-0.0202518
0.761127
0.0506868
0.416134
0.120797
0.18241
0.165225
0.0879955
0.152016
0.106283
0.222458
-0.00469835
0.337653
-0.0115881
0.862161
-0.0189904
1.27222
-0.0277139
1.59479
-0.0391224
1.89507
-0.0538557
2.19063
-0.0719709
2.50115
-0.0926044
2.8338
-0.114602
3.16701
-0.135993
3.46849
-0.150792
3.10348
-0.151856
2.29196
-0.133441
1.66444
-0.0971491
1.14548
-0.0281169
0.692095
0.0350489
0.352968
-0.0277616
0.24522
-0.378594
0.438827
-1.00969
0.737377
0.929871
-1.7171
-0.00461044
0.342264
-0.0117025
0.869253
-0.0192679
1.27979
-0.0279376
1.60346
-0.0386362
1.90577
-0.0525638
2.20456
-0.07086
2.51945
-0.0926317
2.85557
-0.116272
3.19065
-0.140488
3.49271
-0.160353
3.12334
-0.170486
2.3021
-0.166308
1.66027
-0.128703
1.10788
-0.0900569
0.653449
-0.221468
0.48438
-0.76727
0.791022
-1.53006
1.20162
-2.11407
1.32139
1.20436
-2.38856
-0.00429618
0.34656
-0.0110936
0.87605
-0.0185767
1.28727
-0.0270938
1.61198
-0.0377249
1.9164
-0.051937
2.21877
-0.0708098
2.53832
-0.0935483
2.87831
-0.118934
3.21604
-0.14655
3.52033
-0.172723
3.14952
-0.189025
2.3184
-0.184438
1.65568
-0.168135
1.09157
-0.290595
0.775908
-0.850241
1.04403
-1.641
1.58178
-2.15519
1.71581
-2.37263
1.53884
1.30664
-2.47492
-0.00380492
0.350365
-0.0109109
0.883156
-0.0182555
1.29462
-0.0262584
1.61998
-0.0365965
1.92674
-0.0509638
2.23314
-0.0703914
2.55775
-0.0940363
2.90196
-0.121134
3.24313
-0.15248
3.55167
-0.184455
3.18149
-0.212949
2.34689
-0.226736
1.66947
-0.310089
1.17493
-0.720922
1.18674
-1.51405
1.83715
-2.06279
2.13052
-2.28629
1.93931
-2.39132
1.64387
1.37257
-2.45725
-0.00298826
0.353353
-0.00871549
0.888884
-0.0154315
1.30133
-0.0239296
1.62848
-0.0356501
1.93846
-0.0510293
2.24852
-0.0706558
2.57737
-0.0946115
2.92591
-0.123648
3.27217
-0.159436
3.58746
-0.199768
3.22182
-0.234662
2.38179
-0.27115
1.70596
-0.509066
1.41284
-1.20963
1.8873
-1.87375
2.50127
-2.15725
2.41402
-2.29047
2.07252
-2.36734
1.72074
1.42989
-2.42466
-0.00265875
0.356012
-0.00731289
0.893538
-0.013923
1.30794
-0.0234521
1.63801
-0.0363187
1.95133
-0.05252
2.26472
-0.0724911
2.59734
-0.0970891
2.95051
-0.128335
3.30342
-0.169019
3.62814
-0.215612
3.26842
-0.261664
2.42784
-0.386929
1.83122
-0.818814
1.84473
-1.57804
2.64653
-1.99944
2.92267
-2.1738
2.58838
-2.26463
2.16336
-2.33498
1.79109
1.48877
-2.39386
-0.00255235
0.358564
-0.00745276
0.898438
-0.0145883
1.31508
-0.0247924
1.64821
-0.0384007
1.96494
-0.0554145
2.28174
-0.0762896
2.61822
-0.102214
2.97644
-0.136021
3.33722
-0.182099
3.67422
-0.235508
3.32183
-0.296486
2.48882
-0.513892
2.04863
-1.14265
2.47349
-1.75854
3.26242
-1.9931
3.15723
-2.12425
2.71953
-2.22433
2.26344
-2.30755
1.8743
1.54706
-2.36584
-0.00288365
0.361448
-0.00885447
0.904409
-0.0166909
1.32292
-0.0270543
1.65858
-0.0407198
1.9786
-0.0580248
2.29904
-0.0797767
2.63997
-0.107238
3.0039
-0.143569
3.37355
-0.1949
3.72555
-0.254273
3.3812
-0.354986
2.58953
-0.688846
2.38249
-1.38114
3.16578
-1.80809
3.68937
-1.99672
3.34586
-2.12235
2.84516
-2.22098
2.36207
-2.29437
1.9477
1.57636
-2.32367
-0.00315708
0.364605
-0.00937648
0.910628
-0.0178409
1.33138
-0.0288645
1.6696
-0.0431584
1.9929
-0.0611682
2.31705
-0.0838014
2.6626
-0.112702
3.0328
-0.151841
3.41269
-0.207479
3.78119
-0.274682
3.4484
-0.425852
2.7407
-0.865555
2.82219
-1.5065
3.80673
-1.81653
3.9994
-1.9691
3.49843
-2.05832
2.93437
-2.13565
2.4394
-2.18355
1.9956
1.51931
-2.12649
-0.00357494
0.36818
-0.0107148
0.917768
-0.0198669
1.34053
-0.0312953
1.68103
-0.0457861
2.00739
-0.0640215
2.33529
-0.0874286
2.68601
-0.117826
3.06319
-0.159561
3.45443
-0.221344
3.84297
-0.313952
3.54101
-0.51505
2.9418
-1.02577
3.33291
-1.55813
4.33909
-1.79006
4.23132
-1.92427
3.63265
-2.00292
3.01302
-2.00745
2.44393
-1.92056
1.90871
1.43211
-1.83337
-0.00354619
0.371726
-0.0106751
0.924897
-0.0202933
1.35015
-0.0324862
1.69322
-0.0478722
2.02277
-0.0668786
2.35429
-0.0906844
2.70982
-0.12143
3.09394
-0.163942
3.49694
-0.223443
3.90247
-0.323761
3.64133
-0.561943
3.17998
-1.1086
3.87957
-1.51039
4.74088
-1.66379
4.38472
-1.73888
3.70774
-1.76593
3.04008
-1.63174
2.30974
-1.11237
1.38933
0.319746
-0.00362243
0.375348
-0.0115714
0.932846
-0.0218332
1.36041
-0.0346666
1.70606
-0.0508133
2.03892
-0.0709546
2.37443
-0.0966728
2.73554
-0.130408
3.12768
-0.177276
3.54381
-0.24262
3.96782
-0.363031
3.76174
-0.667851
3.4848
-1.25419
4.46591
-1.57343
5.06012
-1.68077
4.49206
-1.70928
3.73625
-1.60268
2.93347
-1.2416
1.94866
-0.470509
0.618241
-0.150762
-0.00332183
0.37867
-0.01092
0.940444
-0.0217205
1.37121
-0.0355563
1.71989
-0.053152
2.05652
-0.0751126
2.39639
-0.102986
2.76341
-0.139609
3.1643
-0.190518
3.59472
-0.263693
4.04099
-0.414971
3.91302
-0.79388
3.86371
-1.36469
5.03672
-1.5909
5.28632
-1.65705
4.55822
-1.62532
3.70452
-1.36089
2.66905
-0.635018
1.22278
-0.0166469
-0.000130154
-0.167409
-0.00274716
0.381417
-0.0113899
0.949087
-0.0228762
1.3827
-0.0371521
1.73417
-0.0550921
2.07446
-0.0778274
2.41913
-0.107631
2.79321
-0.147415
3.20408
-0.201779
3.64908
-0.291426
4.13064
-0.476333
4.09792
-0.917496
4.30487
-1.43667
5.55589
-1.59208
5.44173
-1.6265
4.59264
-1.47537
3.55339
-0.968813
2.16249
-0.16407
0.418041
0.0386566
-0.202857
-0.128752
-0.00214605
0.383563
-0.00949219
0.956433
-0.0210903
1.3943
-0.0362934
1.74937
-0.0557987
2.09396
-0.0805799
2.44391
-0.112629
2.82526
-0.155329
3.24678
-0.212559
3.70631
-0.31186
4.22994
-0.522889
4.30895
-1.03674
4.81872
-1.46765
5.98681
-1.56773
5.54181
-1.5429
4.56781
-1.25689
3.26738
-0.497262
1.40286
0.00635241
-0.0855732
0.0241548
-0.220659
-0.104598
-0.00117586
0.384739
-0.00891783
0.964175
-0.0207414
1.40612
-0.0360474
1.76468
-0.0554218
2.11334
-0.080451
2.46894
-0.114102
2.85891
-0.160219
3.2929
-0.221805
3.7679
-0.330589
4.33872
-0.574958
4.55332
-1.13054
5.37431
-1.44361
6.29987
-1.4978
5.596
-1.40467
4.47468
-0.966343
2.82905
-0.152054
0.588573
0.0197062
-0.257334
0.0173717
-0.218325
-0.0872259
0.000934991
0.383804
-0.00471094
0.969821
-0.0160619
1.41747
-0.0318605
1.78048
-0.0526662
2.13414
-0.0797432
2.49602
-0.115413
2.89458
-0.163847
3.34133
-0.228693
3.83275
-0.347119
4.45715
-0.62807
4.83427
-1.18166
5.9279
-1.40166
6.51986
-1.42508
5.61942
-1.20467
4.25427
-0.568995
2.19338
-0.00267549
0.0222541
0.0178798
-0.277889
0.00856551
-0.209011
-0.0786603
0.00246156
0.381343
-0.0019242
0.974207
-0.0126026
1.42815
-0.027889
1.79576
-0.0476784
2.15393
-0.0739474
2.52229
-0.110139
2.93077
-0.160235
3.39143
-0.2311
3.90361
-0.360843
4.58689
-0.6745
5.14793
-1.18264
6.43604
-1.33023
6.66746
-1.30414
5.59333
-0.982186
3.93231
-0.278802
1.49
-0.0119934
-0.244554
0.00357346
-0.293456
0.000851353
-0.206289
-0.077809
0.00660708
0.374736
0.00594179
0.974872
-0.00278001
1.43687
-0.0176726
1.81065
-0.0383861
2.17464
-0.0663721
2.55027
-0.103752
2.96815
-0.154554
3.44223
-0.228114
3.97717
-0.367089
4.72587
-0.702244
5.48309
-1.13658
6.87037
-1.20835
6.73923
-1.14974
5.53473
-0.793032
3.5756
-0.059769
0.756734
0.0171374
-0.321461
0.0238038
-0.300122
0.0100609
-0.192546
-0.0677481
0.0102312
0.364504
0.0129837
0.972119
0.00657686
1.44328
-0.00664758
1.82388
-0.0250105
2.19301
-0.050552
2.57581
-0.0867023
3.0043
-0.136618
3.49215
-0.215598
4.05615
-0.363326
4.8736
-0.702087
5.82185
-1.04424
7.21253
-1.0885
6.78348
-0.967959
5.41419
-0.520868
3.12851
0.0663561
0.16951
0.0643422
-0.319447
0.0503063
-0.286086
0.0186195
-0.160859
-0.0491286
0.0174791
0.347025
0.0273128
0.962286
0.0254471
1.44514
0.0142403
1.83509
-0.00426754
2.21152
-0.0308091
2.60235
-0.0667778
3.04027
-0.115196
3.54056
-0.190134
4.13109
-0.327515
5.01098
-0.66026
6.15459
-0.918024
7.47029
-0.943661
6.80912
-0.779794
5.25032
-0.30386
2.65258
0.0196733
-0.154023
0.048272
-0.348045
0.0395597
-0.277374
0.0130735
-0.134373
-0.0360551
0.0246583
0.322367
0.0420391
0.944905
0.0449651
1.44222
0.0373075
1.84274
0.0233226
2.2255
0.00156986
2.62411
-0.0307663
3.07261
-0.0771225
3.58692
-0.147313
4.20128
-0.27159
5.13525
-0.576913
6.45991
-0.758788
7.65217
-0.76822
6.81855
-0.606761
5.08886
-0.189313
2.23513
-0.0865192
-0.256817
-0.0341354
-0.400429
0.00233972
-0.313849
0.00416904
-0.136202
-0.0318861
0.0366512
0.285716
0.066362
0.915194
0.077699
1.43088
0.0747373
1.84571
0.062761
2.23748
0.0415864
2.64528
0.0123231
3.10187
-0.029394
3.62864
-0.0924242
4.26431
-0.198076
5.24091
-0.434682
6.69652
-0.559466
7.77695
-0.57394
6.83303
-0.439807
4.95473
-0.104148
1.89947
-0.098999
-0.261966
-0.0563686
-0.44306
-0.0117509
-0.358467
0.00816326
-0.156116
-0.0237228
0.0489478
0.236768
0.0927631
0.871379
0.113
1.41065
0.117153
1.84155
0.113368
2.24126
0.100437
2.65821
0.0782876
3.12402
0.0424991
3.66443
-0.0147891
4.3216
-0.110091
5.33621
-0.236695
6.82312
-0.316121
7.85638
-0.334937
6.85184
-0.253354
4.87315
-0.0770448
1.72316
-0.115443
-0.223568
-0.0896081
-0.468895
-0.0393225
-0.408753
0.0140021
-0.209441
-0.00972071
0.064104
0.172664
0.127454
0.808029
0.16534
1.37276
0.180781
1.82611
0.182375
2.23967
0.172533
2.66806
0.155747
3.14081
0.129211
3.69096
0.0908445
4.35996
0.0439834
5.38307
0.00558698
6.86152
-0.0208992
7.88286
-0.0512121
6.88216
-0.0886583
4.91059
-0.102718
1.73722
-0.256822
-0.0694642
-0.226059
-0.499657
-0.140777
-0.494035
-0.0165763
-0.333642
-0.026297
0.0656929
0.106971
0.161285
0.712437
0.223351
1.31069
0.255311
1.79415
0.268981
2.226
0.270401
2.66663
0.26186
3.14935
0.245746
3.70708
0.220931
4.38478
0.212212
5.39179
0.282559
6.79117
0.307676
7.85774
0.31717
6.87266
0.17951
5.04825
-0.0773963
1.99413
-0.369981
0.22312
-0.392539
-0.477099
-0.2962
-0.590374
-0.124347
-0.505494
-0.150644
0.0561284
0.0508427
0.198056
0.570509
0.301539
1.20721
0.35378
1.74191
0.37689
2.20289
0.387114
2.65641
0.386738
3.14972
0.387512
3.7063
0.374665
4.39763
0.360473
5.40598
0.565831
6.58581
0.736061
7.68751
0.800717
6.80801
0.690345
5.15862
0.148743
2.53573
-0.185844
0.557707
-0.337583
-0.325359
-0.314654
-0.613304
-0.191438
-0.62871
-0.342083
0.04187
0.00897275
0.242066
0.370313
0.380252
1.06902
0.463683
1.65848
0.510023
2.15655
0.536849
2.62958
0.549527
3.13705
0.562101
3.69373
0.57752
4.38221
0.61763
5.36587
0.898872
6.30457
1.26006
7.32632
1.44249
6.62558
1.39124
5.20987
0.735498
3.19147
0.250307
1.0429
-0.0590431
-0.0160089
-0.20382
-0.468527
-0.161032
-0.671498
-0.503114
0.0255211
-0.0165483
0.237574
0.15826
0.471012
0.835586
0.605192
1.5243
0.674507
2.08723
0.714449
2.58964
0.744029
3.10747
0.767599
3.67016
0.818467
4.33134
0.922589
5.26175
1.30346
5.9237
1.83042
6.79936
2.12035
6.33566
2.19961
5.1306
1.82285
3.56823
1.0777
1.78804
0.507682
0.554011
0.121114
-0.0819594
-0.0191013
-0.531282
-0.522216
0.02118
-0.0377283
0.160611
0.0188297
0.521784
0.474413
0.753699
1.29238
0.8678
1.97313
0.928754
2.52869
0.975678
3.06054
1.01103
3.63481
1.08364
4.25873
1.2385
5.10689
1.65303
5.50917
2.31991
6.13249
2.68252
5.97304
2.83405
4.97908
2.58698
3.8153
1.8716
2.50343
1.16494
1.26067
0.610331
0.472655
0.201539
-0.12249
-0.320677
0.00224818
-0.0399765
0.0705668
-0.0494889
0.401121
0.143858
0.75181
0.941696
0.938772
1.78617
0.998991
2.46847
1.01275
3.04678
1.01052
3.63704
1.02669
4.24255
1.08102
5.05256
1.30212
5.28806
1.87321
5.5614
1.83664
6.00962
1.90953
4.90618
1.79317
3.93166
1.40739
2.88921
0.891167
1.77689
0.499476
0.864345
0.193649
0.183337
-0.127028
0.00012593
-0.0401024
0.0292618
-0.0786247
0.177934
-0.00481466
0.575057
0.544573
0.801468
1.55976
0.898505
2.37143
0.921195
3.02409
0.923502
3.63474
0.906614
4.25943
0.937155
5.02202
1.04478
5.18044
1.34245
5.26373
1.57762
5.77444
1.6005
4.88331
1.54889
3.98326
1.34922
3.08889
0.968197
2.15791
0.576241
1.2563
0.226153
0.533426
0.0991248
-0.00585689
-0.0342455
-0.00394073
-0.0805409
0.0512935
-0.0600489
0.374592
0.221275
0.643798
1.29055
0.771126
2.24411
0.812517
2.9827
0.82107
3.62618
0.800351
4.28015
0.796684
5.02569
0.84114
5.13598
1.07626
5.02862
1.28524
5.56546
1.276
4.89256
1.22007
4.03919
1.07583
3.23313
0.81643
2.41731
0.499206
1.57352
0.201622
0.831011
0.300747
-0.00402547
-0.03022
-0.00225955
-0.0823068
0.0350449
-0.0973534
0.203982
0.0523381
0.497928
0.996606
0.654386
2.08765
0.702125
2.93496
0.706144
3.62216
0.681464
4.30483
0.656787
5.05037
0.667122
5.12565
0.816873
4.87887
0.997553
5.38478
0.97004
4.92007
0.901701
4.10753
0.787509
3.34732
0.615156
2.58966
0.395669
1.79301
0.168089
1.05859
0.468835
-0.00370376
-0.0265163
0.00166048
-0.0876711
0.0296188
-0.125312
0.114289
-0.0323318
0.380378
0.730516
0.541665
1.92636
0.590602
2.88603
0.586438
3.62633
0.560032
4.33124
0.537642
5.07276
0.528035
5.13525
0.595121
4.81178
0.70606
5.27384
0.678224
4.9479
0.611992
4.17376
0.525101