/*--------------------------------*- C++ -*----------------------------------*\
  =========                 |
  \\      /  F ield         | OpenFOAM: The Open Source CFD Toolbox
   \\    /   O peration     | Website:  https://openfoam.org
    \\  /    A nd           | Version:  6
     \\/     M anipulation  |
\*---------------------------------------------------------------------------*/
FoamFile
{
    version     2.0;
    format      ascii;
    class       volVectorField;
    location    "52.1";
    object      U;
}
// * * * * * * * * * * * * * * * * * * * * * * * * * * * * * * * * * * * * * //

dimensions      [0 1 -1 0 0 0 0];

internalField   nonuniform List<vector> 
8800
(
(0.987184 -0.0766675 0)
(1.00189 -0.0551948 0)
(0.999718 -0.0285547 0)
(1.00001 -0.0151519 0)
(1.00006 -0.00855479 0)
(1.00007 -0.00505804 0)
(1.00005 -0.00301474 0)
(1.00001 -0.00171417 0)
(0.999997 -0.000807495 0)
(1.00006 -9.2236e-05 0)
(0.999988 0.000634762 0)
(0.999995 0.00139615 0)
(1.00001 0.00241791 0)
(1.00003 0.00399458 0)
(1.00003 0.0066303 0)
(1.00001 0.0113693 0)
(0.999887 0.0208129 0)
(0.999144 0.0386706 0)
(1.00709 0.0724568 0)
(0.771212 0.0366609 0)
(0.363049 -0.0160192 0)
(1.04329 -0.0768272 0)
(1.08458 -0.0704661 0)
(1.04517 -0.0535696 0)
(1.02325 -0.0389294 0)
(1.01197 -0.0262589 0)
(1.00638 -0.0169037 0)
(1.00357 -0.0103754 0)
(1.00214 -0.00571998 0)
(1.00145 -0.00206773 0)
(1.00131 0.00125416 0)
(1.00168 0.00463433 0)
(1.00265 0.00856864 0)
(1.00464 0.0139155 0)
(1.00858 0.0216307 0)
(1.01655 0.0326077 0)
(1.03246 0.046526 0)
(1.06262 0.0616458 0)
(1.09187 0.0760913 0)
(0.838684 0.0565576 0)
(0.216802 -0.00243205 0)
(1.07585 -0.0501625 0)
(1.09984 -0.04835 0)
(1.0646 -0.0405141 0)
(1.03997 -0.0336671 0)
(1.02384 -0.0261576 0)
(1.01406 -0.018586 0)
(1.00853 -0.0117719 0)
(1.00557 -0.0059082 0)
(1.00433 -0.000496694 0)
(1.00468 0.00474742 0)
(1.0066 0.0101391 0)
(1.0106 0.0162451 0)
(1.01793 0.0232843 0)
(1.03053 0.0307592 0)
(1.05062 0.0378001 0)
(1.08032 0.0444915 0)
(1.10625 0.0513163 0)
(0.942568 0.0416025 0)
(0.216193 0.00246004 0)
(0.175099 -0.000818809 0)
(1.01758 -0.0355196 0)
(1.10513 -0.0414374 0)
(1.07819 -0.0361375 0)
(1.05336 -0.0302181 0)
(1.0361 -0.0246572 0)
(1.02393 -0.0189433 0)
(1.01584 -0.012877 0)
(1.011 -0.00670214 0)
(1.00881 -0.000373251 0)
(1.0094 0.00588391 0)
(1.01267 0.0118823 0)
(1.01887 0.0177327 0)
(1.02877 0.0233307 0)
(1.04322 0.0286458 0)
(1.06374 0.0341443 0)
(1.09355 0.0401397 0)
(1.09343 0.0419171 0)
(0.82726 0.022894 0)
(0.174072 0.00085079 0)
(0.153864 -0.000612948 0)
(0.955981 -0.0255027 0)
(1.10334 -0.035206 0)
(1.08757 -0.0327502 0)
(1.06158 -0.0281139 0)
(1.04397 -0.0231085 0)
(1.03154 -0.0178824 0)
(1.02272 -0.0123712 0)
(1.01693 -0.00645024 0)
(1.01412 5.01725e-06 0)
(1.01482 0.00646 0)
(1.0188 0.0123481 0)
(1.02581 0.0176669 0)
(1.03612 0.0226073 0)
(1.05071 0.0273816 0)
(1.07195 0.0319377 0)
(1.1001 0.0358925 0)
(1.06817 0.0339738 0)
(0.739747 0.0142901 0)
(0.152318 0.000649216 0)
(0.139453 -0.000469422 0)
(0.898956 -0.0191303 0)
(1.0956 -0.0301778 0)
(1.09559 -0.0293166 0)
(1.06906 -0.0256102 0)
(1.05063 -0.0214979 0)
(1.03774 -0.0167499 0)
(1.02867 -0.0114866 0)
(1.02259 -0.00576566 0)
(1.0195 0.000549952 0)
(1.02016 0.00686577 0)
(1.02427 0.0125045 0)
(1.03141 0.0174943 0)
(1.04194 0.0219947 0)
(1.05709 0.0259785 0)
(1.0793 0.0294645 0)
(1.10235 0.0321125 0)
(1.03616 0.0280443 0)
(0.673302 0.0101821 0)
(0.137271 0.000511189 0)
(0.128868 -0.000364259 0)
(0.849217 -0.0147766 0)
(1.08312 -0.0260653 0)
(1.10121 -0.026392 0)
(1.07586 -0.0231318 0)
(1.0569 -0.0195169 0)
(1.04356 -0.0153064 0)
(1.03414 -0.0104222 0)
(1.02784 -0.00491989 0)
(1.02457 0.00120957 0)
(1.0251 0.00730586 0)
(1.02917 0.01267 0)
(1.03642 0.0172513 0)
(1.04725 0.0211471 0)
(1.06281 0.0244685 0)
(1.08545 0.0274478 0)
(1.10151 0.0292398 0)
(1.00137 0.0235084 0)
(0.621617 0.00781166 0)
(0.125913 0.0004135 0)
(0.120775 -0.000283891 0)
(0.806899 -0.0116279 0)
(1.06773 -0.0224767 0)
(1.10467 -0.0237899 0)
(1.08205 -0.0209577 0)
(1.06268 -0.0175751 0)
(1.04907 -0.013682 0)
(1.03939 -0.00913208 0)
(1.0328 -0.00390339 0)
(1.0293 0.00200124 0)
(1.02967 0.00784791 0)
(1.03372 0.0128665 0)
(1.04103 0.016992 0)
(1.05197 0.0203922 0)
(1.06776 0.0233021 0)
(1.09074 0.0259814 0)
(1.09779 0.0268812 0)
(0.96627 0.0199449 0)
(0.580145 0.00626998 0)
(0.116882 0.0003426 0)
(0.114486 -0.000221099 0)
(0.771224 -0.00927519 0)
(1.0508 -0.0193192 0)
(1.10695 -0.0213813 0)
(1.08784 -0.0189276 0)
(1.0681 -0.0156928 0)
(1.05426 -0.0119689 0)
(1.04438 -0.00765475 0)
(1.03756 -0.00268924 0)
(1.0338 0.00295897 0)
(1.03398 0.00850832 0)
(1.0379 0.0131469 0)
(1.04517 0.0168418 0)
(1.05612 0.019853 0)
(1.0721 0.0224455 0)
(1.09475 0.0247935 0)
(1.09129 0.0249042 0)
(0.932177 0.017183 0)
(0.545884 0.00521315 0)
(0.109452 0.000291258 0)
(0.109566 -0.000170793 0)
(0.741244 -0.00745184 0)
(1.03341 -0.0165282 0)
(1.10829 -0.0191273 0)
(1.09336 -0.0169872 0)
(1.07332 -0.0138532 0)
(1.0592 -0.0102328 0)
(1.04913 -0.00604247 0)
(1.04211 -0.00125569 0)
(1.03808 0.00411734 0)
(1.03799 0.00931694 0)
(1.04171 0.0135964 0)
(1.04884 0.0169521 0)
(1.05979 0.0196314 0)
(1.076 0.021932 0)
(1.09753 0.0239097 0)
(1.0824 0.0232714 0)
(0.899666 0.0150734 0)
(0.516795 0.00447241 0)
(0.103146 0.000255067 0)
(0.10573 -0.000128926 0)
(0.716143 -0.00598126 0)
(1.01637 -0.0140218 0)
(1.10875 -0.0169501 0)
(1.09874 -0.0151118 0)
(1.07845 -0.0120066 0)
(1.06405 -0.00842299 0)
(1.05377 -0.00431156 0)
(1.0465 0.000331701 0)
(1.04217 0.00550321 0)
(1.04175 0.0104234 0)
(1.04519 0.0143489 0)
(1.05215 0.0173366 0)
(1.06305 0.0196853 0)
(1.07942 0.0217283 0)
(1.09896 0.0233104 0)
(1.07149 0.0219576 0)
(0.868872 0.0134942 0)
(0.491442 0.00395569 0)
(0.0976264 0.000230692 0)
(0.10279 -9.27873e-05 0)
(0.69528 -0.00474984 0)
(1.00032 -0.0117411 0)
(1.10852 -0.0148072 0)
(1.10395 -0.0131517 0)
(1.08356 -0.0100082 0)
(1.06883 -0.00642573 0)
(1.05829 -0.00235656 0)
(1.05075 0.00220084 0)
(1.04605 0.00718065 0)
(1.04521 0.0118026 0)
(1.0483 0.0154006 0)
(1.05504 0.0180557 0)
(1.06592 0.0200611 0)
(1.08243 0.021839 0)
(1.09946 0.0230313 0)
(1.05891 0.0209786 0)
(0.839665 0.012357 0)
(0.468758 0.00360819 0)
(0.0926385 0.000215838 0)
(0.100625 -5.96511e-05 0)
(0.678184 -0.0036702 0)
(0.985679 -0.00961096 0)
(1.10779 -0.0126364 0)
(1.10897 -0.0111316 0)
(1.08873 -0.0079608 0)
(1.07366 -0.00430104 0)
(1.06282 -0.000171341 0)
(1.0549 0.00435875 0)
(1.04974 0.0091989 0)
(1.04841 0.0135629 0)
(1.0511 0.0168257 0)
(1.05758 0.0191501 0)
(1.06839 0.0208442 0)
(1.08495 0.0223459 0)
(1.09899 0.0231481 0)
(1.0448 0.0203444 0)
(0.811742 0.0115863 0)
(0.447911 0.00339154 0)
(0.0879826 0.000208631 0)
(0.0991739 -2.71035e-05 0)
(0.66456 -0.00267132 0)
(0.972824 -0.00755169 0)
(1.10686 -0.0103384 0)
(1.11388 -0.00887835 0)
(1.09401 -0.00562644 0)
(1.07858 -0.00185465 0)
(1.06736 0.00234419 0)
(1.059 0.00689463 0)
(1.05328 0.0116546 0)
(1.05134 0.015793 0)
(1.05352 0.01874 0)
(1.05972 0.0206942 0)
(1.07043 0.0219952 0)
(1.08699 0.0232234 0)
(1.0973 0.023593 0)
(1.02928 0.0200235 0)
(0.784728 0.0111251 0)
(0.428235 0.00327921 0)
(0.0835033 0.000207422 0)
(0.0984211 6.64658e-06 0)
(0.654253 -0.00169935 0)
(0.962066 -0.00549859 0)
(1.10609 -0.00789413 0)
(1.11887 -0.00638586 0)
(1.09951 -0.00298936 0)
(1.08364 0.00096591 0)
(1.07198 0.0053249 0)
(1.06308 0.00995366 0)
(1.05667 0.0146316 0)
(1.054 0.01851 0)
(1.05559 0.0211084 0)
(1.06139 0.0227001 0)
(1.07201 0.0236274 0)
(1.08854 0.0245618 0)
(1.09439 0.0244498 0)
(1.01237 0.0200614 0)
(0.758198 0.0109432 0)
(0.409183 0.00325778 0)
(0.0790706 0.000211977 0)
(0.0983874 3.98775e-05 0)
(0.647247 -0.000703627 0)
(0.953699 -0.00336535 0)
(1.10576 -0.00520184 0)
(1.12404 -0.00357681 0)
(1.10531 -3.57596e-06 0)
(1.08898 0.00421569 0)
(1.07679 0.00881342 0)
(1.06723 0.0135842 0)
(1.05997 0.0182563 0)
(1.05642 0.0219245 0)
(1.05729 0.0241622 0)
(1.06265 0.0253421 0)
(1.07313 0.0258506 0)
(1.08932 0.0264044 0)
(1.09001 0.0257315 0)
(0.993951 0.0204606 0)
(0.731696 0.0110222 0)
(0.390261 0.00331833 0)
(0.0745677 0.000221477 0)
(0.099112 7.84505e-05 0)
(0.643626 0.000327493 0)
(0.948063 -0.00108418 0)
(1.10627 -0.00217855 0)
(1.12959 -0.000267573 0)
(1.11149 0.00359064 0)
(1.09467 0.00811765 0)
(1.08183 0.0129852 0)
(1.07146 0.0179574 0)
(1.0632 0.0226586 0)
(1.05858 0.0261085 0)
(1.05858 0.0279446 0)
(1.06339 0.0286633 0)
(1.07371 0.0287122 0)
(1.08921 0.0288432 0)
(1.08405 0.0274756 0)
(0.973861 0.0212542 0)
(0.704715 0.01135 0)
(0.371009 0.00345495 0)
(0.0698875 0.000235527 0)
(0.100803 0.000139298 0)
(0.643789 0.00148897 0)
(0.945511 0.00142797 0)
(1.10806 0.00124612 0)
(1.13576 0.00356415 0)
(1.11821 0.00781486 0)
(1.10078 0.0127701 0)
(1.08718 0.01803 0)
(1.07583 0.023276 0)
(1.06631 0.0280078 0)
(1.0604 0.031202 0)
(1.05939 0.0325806 0)
(1.06356 0.0328037 0)
(1.07364 0.032362 0)
(1.08805 0.0319911 0)
(1.07626 0.0297733 0)
(0.951798 0.0224725 0)
(0.676724 0.0119282 0)
(0.350992 0.00366513 0)
(0.0649327 0.000253826 0)
(0.103503 0.000198837 0)
(0.648031 0.0028846 0)
(0.946484 0.0043227 0)
(1.11155 0.00525124 0)
(1.14271 0.00809312 0)
(1.12561 0.0128385 0)
(1.1075 0.0183412 0)
(1.09294 0.0241108 0)
(1.08033 0.0296949 0)
(1.06927 0.034508 0)
(1.0618 0.0374372 0)
(1.05963 0.0382756 0)
(1.06305 0.0379287 0)
(1.07285 0.0369308 0)
(1.0856 0.0359696 0)
(1.06634 0.0327038 0)
(0.927375 0.0241601 0)
(0.64714 0.0127604 0)
(0.329777 0.00394638 0)
(0.0596119 0.000275893 0)
(0.107506 0.000280468 0)
(0.657002 0.00456596 0)
(0.951417 0.0076881 0)
(1.1173 0.0100023 0)
(1.15073 0.013603 0)
(1.13388 0.0190395 0)
(1.11496 0.0252015 0)
(1.09921 0.0315431 0)
(1.0851 0.0375358 0)
(1.0722 0.0424013 0)
(1.06287 0.0449509 0)
(1.05927 0.0451834 0)
(1.06175 0.0441806 0)
(1.07123 0.0425338 0)
(1.08181 0.0409306 0)
(1.05392 0.0363845 0)
(0.900087 0.0263583 0)
(0.615326 0.0138467 0)
(0.306933 0.00429361 0)
(0.0538432 0.000300831 0)
(0.113147 0.000389044 0)
(0.671339 0.00665213 0)
(0.961148 0.011811 0)
(1.12591 0.0156881 0)
(1.16024 0.0202663 0)
(1.14329 0.0266306 0)
(1.12329 0.0336033 0)
(1.10607 0.0406635 0)
(1.09007 0.047125 0)
(1.0749 0.0520041 0)
(1.0634 0.0540468 0)
(1.05818 0.0535205 0)
(1.05956 0.0517191 0)
(1.06867 0.0493185 0)
(1.07654 0.0469601 0)
(1.0385 0.0408896 0)
(0.869308 0.0290902 0)
(0.580612 0.015177 0)
(0.282057 0.00469448 0)
(0.0475642 0.000326834 0)
(0.120927 0.000543069 0)
(0.692072 0.00938382 0)
(0.976449 0.0169645 0)
(1.13794 0.022672 0)
(1.17163 0.0284546 0)
(1.15412 0.0359912 0)
(1.13273 0.0440057 0)
(1.11361 0.0519125 0)
(1.0952 0.0588241 0)
(1.07728 0.063629 0)
(1.06321 0.064996 0)
(1.05611 0.0634801 0)
(1.05635 0.0607593 0)
(1.06497 0.0575128 0)
(1.06948 0.0541987 0)
(1.01951 0.0463101 0)
(0.834326 0.0323778 0)
(0.542296 0.0167265 0)
(0.254792 0.00512978 0)
(0.0407463 0.000351584 0)
(0.13161 0.000767072 0)
(0.720539 0.0131451 0)
(0.998494 0.0236211 0)
(1.15421 0.0315263 0)
(1.18547 0.0388893 0)
(1.16672 0.0479817 0)
(1.14344 0.0571935 0)
(1.12177 0.0659637 0)
(1.10035 0.0732194 0)
(1.07914 0.0776276 0)
(1.06214 0.0779445 0)
(1.05296 0.0752147 0)
(1.05194 0.0714477 0)
(1.05994 0.0671859 0)
(1.06009 0.0627151 0)
(0.996165 0.0527167 0)
(0.794284 0.0361975 0)
(0.499695 0.0184353 0)
(0.224891 0.0055659 0)
(0.0334078 0.000371793 0)
(0.146451 0.00111997 0)
(0.758698 0.0185465 0)
(1.02891 0.0325358 0)
(1.17575 0.0431303 0)
(1.20263 0.052522 0)
(1.18144 0.0635585 0)
(1.15544 0.0740558 0)
(1.13048 0.0835686 0)
(1.10539 0.0908447 0)
(1.08035 0.0944108 0)
(1.06007 0.0932442 0)
(1.04859 0.0889657 0)
(1.04619 0.0839021 0)
(1.05318 0.0784914 0)
(1.04778 0.0727065 0)
(0.967516 0.0600949 0)
(0.748297 0.0404663 0)
(0.452255 0.0201908 0)
(0.192338 0.00594552 0)
(0.0256488 0.000381994 0)
(0.167581 0.00172812 0)
(0.809706 0.0267159 0)
(1.0702 0.0452232 0)
(1.20359 0.0592622 0)
(1.22376 0.0713845 0)
(1.19833 0.0841937 0)
(1.16845 0.0958474 0)
(1.13917 0.105674 0)
(1.10955 0.112323 0)
(1.08014 0.114377 0)
(1.0564 0.11115 0)
(1.04262 0.104938 0)
(1.0389 0.0983321 0)
(1.04449 0.0917925 0)
(1.0318 0.0841022 0)
(0.932384 0.0683219 0)
(0.695535 0.0449887 0)
(0.399802 0.0218206 0)
(0.157542 0.00618821 0)
(0.0177005 0.000374586 0)
(0.198297 0.00306278 0)
(0.879182 0.0402412 0)
(1.12593 0.0654476 0)
(1.23807 0.083566 0)
(1.24847 0.0983467 0)
(1.21681 0.112408 0)
(1.18172 0.124299 0)
(1.14717 0.133299 0)
(1.11249 0.138191 0)
(1.0784 0.137675 0)
(1.05105 0.131612 0)
(1.03497 0.123035 0)
(1.02994 0.1147 0)
(1.0337 0.106947 0)
(1.01117 0.0968731 0)
(0.889361 0.0771112 0)
(0.635531 0.0494286 0)
(0.343186 0.0231487 0)
(0.121845 0.00623051 0)
(0.0100437 0.000339489 0)
(0.240262 0.00915896 1.28329e-20)
(0.971056 0.0669633 1.09292e-20)
(1.1938 0.0996709 -3.77082e-21)
(1.27614 0.119745 0)
(1.27404 0.137044 -9.16615e-35)
(1.23477 0.150567 1.32929e-21)
(1.1937 0.160899 -2.33733e-21)
(1.15334 0.167656 0)
(1.11317 0.169746 4.67334e-35)
(1.07403 0.165895 -2.77415e-21)
(1.04282 0.156496 0)
(1.02421 0.145295 -3.242e-21)
(1.0178 0.135202 -9.53117e-21)
(1.0194 0.126457 -4.49589e-21)
(0.983071 0.113943 -1.3485e-21)
(0.833688 0.0886457 -8.00228e-22)
(0.562658 0.0547142 0)
(0.280368 0.0246282 5.60858e-22)
(0.0857316 0.00650058 6.64361e-22)
(0.00292761 0.000326025 1.21229e-20)
(0.269395 0.024068 1.0183e-20)
(1.04709 0.109145 1.06801e-22)
(1.24975 0.148434 1.04173e-21)
(1.31027 0.168456 0)
(1.29642 0.186057 -4.76989e-21)
(1.24996 0.197455 -5.34146e-21)
(1.2029 0.205482 -2.38619e-21)
(1.15663 0.209756 -8.30992e-21)
(1.11067 0.209061 0)
(1.06596 0.201997 1.18213e-20)
(1.03013 0.189384 1.16243e-20)
(1.00838 0.175625 3.43437e-21)
(0.999624 0.163434 1.24226e-20)
(0.995036 0.152103 1.73682e-20)
(0.940248 0.13557 0)
(0.760119 0.10303 2.44415e-20)
(0.477832 0.0617088 3.51078e-20)
(0.214227 0.0265076 3.90861e-20)
(0.0507213 0.00615363 -4.48515e-20)
(-0.00381722 -0.000224075 -8.53997e-22)
(0.270927 0.0406099 0)
(1.09546 0.163778 1.94494e-21)
(1.28752 0.208083 0)
(1.33679 0.227881 -6.72258e-21)
(1.31385 0.242803 0)
(1.26137 0.250355 -1.07087e-20)
(1.2087 0.254709 4.92597e-21)
(1.1568 0.255448 -1.69303e-20)
(1.1053 0.251215 -3.15983e-22)
(1.05524 0.240378 6.15821e-21)
(1.01493 0.224115 2.55047e-20)
(0.990098 0.207618 -5.45523e-23)
(0.978865 0.193503 -9.01583e-21)
(0.96852 0.179799 -1.63439e-20)
(0.901522 0.158556 1.93359e-20)
(0.708747 0.118269 -3.42718e-20)
(0.430945 0.0691563 -4.53476e-21)
(0.184577 0.0288529 0)
(0.036781 0.00571875 -1.73983e-24)
(-0.00654448 -0.000883299 0)
(0.264777 0.0545785 3.03644e-20)
(1.12175 0.222141 -1.39638e-20)
(1.31088 0.272349 -9.72664e-21)
(1.35421 0.292633 3.29247e-21)
(1.32493 0.303911 -5.46559e-21)
(1.26794 0.307019 2.25821e-20)
(1.21061 0.307066 1.03505e-20)
(1.15379 0.303666 0)
(1.0973 0.295327 -3.13628e-20)
(1.04227 0.280267 0)
(0.997779 0.260283 -1.34462e-20)
(0.970015 0.241109 -1.64127e-20)
(0.956403 0.224951 -9.81458e-21)
(0.941545 0.208519 -1.18623e-20)
(0.8686 0.18276 0)
(0.675231 0.135838 0)
(0.40875 0.0796301 -2.95739e-20)
(0.176424 0.0336594 5.85579e-21)
(0.0342593 0.00622092 -3.43619e-21)
(-0.00746186 -0.00146786 -4.07022e-21)
(0.25753 0.0669322 -1.54158e-20)
(1.13356 0.280529 0)
(1.32377 0.337721 2.14879e-20)
(1.36354 0.358929 9.65773e-21)
(1.32978 0.366555 1.23899e-20)
(1.26951 0.36526 0)
(1.20853 0.360909 1.03283e-20)
(1.14765 0.353199 1.89043e-20)
(1.08683 0.340543 1.62011e-20)
(1.02739 0.321207 2.8977e-20)
(0.979074 0.297524 0)
(0.948356 0.275465 -3.54208e-20)
(0.932126 0.256996 -2.12202e-20)
(0.91386 0.238123 -1.25232e-20)
(0.839653 0.208253 7.64986e-20)
(0.652714 0.155746 9.11947e-21)
(0.400861 0.0934811 4.29552e-20)
(0.180354 0.0409275 -2.03502e-19)
(0.0391857 0.00838251 1.20637e-19)
(-0.00654912 -0.00166011 -1.47255e-19)
(0.250692 0.0780995 -1.14569e-20)
(1.13627 0.33708 2.88128e-21)
(1.32916 0.402357 -2.71412e-21)
(1.36643 0.424843 -1.10542e-20)
(1.32939 0.429016 -1.12114e-20)
(1.26666 0.423506 3.61815e-22)
(1.2028 0.414899 -1.1172e-20)
(1.13856 0.402959 1.97029e-20)
(1.07404 0.386056 -3.48743e-20)
(1.0107 0.362463 0)
(0.95882 0.334804 -1.6128e-20)
(0.925272 0.309657 -3.25558e-22)
(0.906665 0.289026 -2.31816e-20)
(0.885904 0.268221 0)
(0.812578 0.234583 -1.65774e-20)
(0.6352 0.177578 -3.94614e-20)
(0.39962 0.109479 1.05538e-19)
(0.189036 0.0506742 -1.03984e-19)
(0.0481972 0.0124364 1.47966e-19)
(-0.00424272 -0.00133096 -1.55709e-19)
(0.245046 0.0884837 -1.04484e-22)
(1.13341 0.391128 -2.18239e-21)
(1.3292 0.465218 -9.50162e-21)
(1.36437 0.489198 5.00623e-21)
(1.32482 0.49024 -5.75827e-21)
(1.2602 0.480777 0)
(1.194 0.468145 -1.07236e-20)
(1.12695 0.452172 -2.07303e-20)
(1.05926 0.431202 -1.82274e-20)
(0.992411 0.40337 0)
(0.937196 0.371732 -1.68261e-20)
(0.901108 0.343855 -2.062e-20)
(0.880478 0.321561 2.51347e-20)
(0.857552 0.298728 -1.51954e-20)
(0.785425 0.261915 -7.23558e-20)
(0.619208 0.200633 4.31246e-20)
(0.39941 0.126794 1.28752e-20)
(0.198848 0.0619248 0)
(0.0582324 0.0178748 -1.43133e-19)
(-0.001407 -0.000584489 -5.31718e-21)
(0.240699 0.0984118 -9.66288e-22)
(1.12721 0.442513 1.76398e-21)
(1.32535 0.525742 4.80727e-21)
(1.35855 0.551286 1.70649e-20)
(1.31702 0.549546 -2.23213e-20)
(1.25094 0.536455 2.3308e-20)
(1.18284 0.520092 2.30763e-20)
(1.11339 0.500364 -3.31676e-20)
(1.0429 0.475545 1.10034e-20)
(0.972824 0.443624 -7.13628e-20)
(0.914581 0.408397 -1.89008e-20)
(0.876279 0.37821 0)
(0.853694 0.354092 2.72371e-20)
(0.828841 0.328967 3.25563e-20)
(0.758198 0.289174 3.89355e-20)
(0.602411 0.224139 -4.68185e-20)
(0.39694 0.144881 -1.38882e-20)
(0.206045 0.0742552 1.63352e-20)
(0.067012 0.0240285 0)
(0.00137478 0.000438637 -1.15382e-20)
(0.237514 0.107979 5.56541e-21)
(1.11925 0.49128 -5.17353e-21)
(1.31891 0.584109 -4.78549e-21)
(1.34995 0.610744 1.10957e-20)
(1.30679 0.606512 -1.07014e-20)
(1.23956 0.59013 -8.2184e-22)
(1.16989 0.5704 -2.51056e-20)
(1.09839 0.547258 -1.1973e-20)
(1.02536 0.51884 -3.16399e-20)
(0.952331 0.483091 5.87486e-23)
(0.891394 0.444645 -5.94034e-20)
(0.851013 0.411967 4.94762e-20)
(0.82648 0.385528 -2.98526e-20)
(0.800061 0.358165 3.57935e-20)
(0.730883 0.315592 0)
(0.584051 0.246435 -2.53815e-20)
(0.391211 0.162481 -2.13814e-23)
(0.20942 0.0862427 -7.11502e-20)
(0.0730872 0.0300161 -1.04946e-20)
(0.00359413 0.00148388 0)
(0.235389 0.117394 0)
(1.11046 0.53764 -4.77448e-21)
(1.31049 0.639848 -7.89772e-21)
(1.33934 0.667387 -1.09007e-20)
(1.29478 0.660913 -1.27712e-20)
(1.22665 0.641589 0)
(1.15568 0.618867 -1.18409e-20)
(1.08238 0.59266 -2.21794e-22)
(1.00705 0.560942 6.78033e-20)
(0.931285 0.521653 -9.86596e-21)
(0.867812 0.479996 -4.28351e-20)
(0.825395 0.444325 2.58209e-20)
(0.799101 0.41537 -4.39619e-22)
(0.771498 0.386144 3.80824e-20)
(0.703167 0.340405 2.34097e-20)
(0.563838 0.266817 -5.47575e-20)
(0.382141 0.178609 6.49684e-20)
(0.208371 0.096839 1.92614e-20)
(0.0757252 0.0350483 7.97389e-20)
(0.00501535 0.00235106 -2.15713e-19)
(0.234222 0.126797 -3.94779e-22)
(1.10146 0.581772 -8.8385e-22)
(1.30074 0.692832 1.71737e-21)
(1.32733 0.721166 9.98909e-21)
(1.28155 0.712648 0)
(1.2127 0.690718 -1.16518e-20)
(1.14064 0.665379 3.9339e-20)
(1.06575 0.636443 2.64545e-20)
(0.988268 0.601729 0)
(0.909922 0.559167 -1.41369e-19)
(0.843917 0.514076 1.15692e-19)
(0.799502 0.47517 0)
(0.771801 0.444036 3.48007e-20)
(0.743059 0.413043 -4.42201e-22)
(0.674694 0.363412 -7.48259e-20)
(0.541678 0.285076 2.93386e-20)
(0.369811 0.192591 0)
(0.203372 0.105243 1.03834e-19)
(0.0750066 0.0385291 0)
(0.00560449 0.00289411 -1.01946e-19)
(0.233832 0.136206 1.1211e-21)
(1.09264 0.623831 7.09169e-22)
(1.29006 0.74308 2.19092e-21)
(1.3144 0.772098 0)
(1.26753 0.761713 -1.20809e-20)
(1.19812 0.737491 0)
(1.12514 0.709867 -3.95761e-20)
(1.0488 0.678515 -1.26299e-20)
(0.969309 0.64112 1.2116e-20)
(0.888444 0.595505 -6.99208e-20)
(0.819814 0.546862 1.20019e-20)
(0.77347 0.504915 0)
(0.744635 0.471978 -7.4323e-20)
(0.714473 0.438631 4.4105e-22)
(0.645377 0.384076 0)
(0.517583 0.300832 3.27455e-22)
(0.354254 0.203607 9.45434e-20)
(0.194671 0.110925 -8.95962e-20)
(0.0715882 0.0401589 2.65207e-20)
(0.00538012 0.00302204 0)
(0.233867 0.145506 0)
(1.0842 0.663832 2.05777e-21)
(1.27887 0.790671 -4.2158e-22)
(1.30092 0.820224 -4.98984e-22)
(1.25309 0.80814 -5.00565e-21)
(1.18323 0.781912 -2.62819e-20)
(1.10945 0.752303 1.4649e-20)
(1.03179 0.718822 -1.46134e-20)
(0.950416 0.679057 5.36881e-20)
(0.86702 0.630616 -1.11783e-19)
(0.795644 0.578554 -7.55054e-22)
(0.747414 0.533988 -3.27606e-20)
(0.717438 0.499177 1.20449e-19)
(0.685385 0.462245 -5.15632e-22)
(0.615318 0.401891 -5.79262e-20)
(0.491872 0.313688 -1.03345e-19)
(0.335933 0.21159 0)
(0.182737 0.113777 0)
(0.0659594 0.0402147 2.85811e-20)
(0.0046958 0.00284932 -1.6967e-20)
(0.234476 0.154805 3.00916e-21)
(1.07627 0.70181 -5.98856e-21)
(1.26743 0.835694 3.78877e-22)
(1.28718 0.865611 0)
(1.23848 0.851985 -3.19944e-22)
(1.16829 0.824008 -2.53283e-20)
(1.09383 0.792681 3.6247e-20)
(1.01497 0.757338 5.84721e-20)
(0.931788 0.715524 7.00892e-20)
(0.845825 0.664521 -9.15405e-20)
(0.771598 0.609417 -9.93707e-20)
(0.721392 0.562562 8.76267e-20)
(0.689993 0.525212 0)
(0.655636 0.483307 -2.63068e-20)
(0.584733 0.416821 -6.25812e-20)
(0.465061 0.323716 -7.41602e-20)
(0.315195 0.21634 -8.7927e-20)
(0.168072 0.113748 2.60412e-20)
(0.0584012 0.0385629 -1.53761e-20)
(0.00363211 0.00237751 5.45541e-23)
(0.235343 0.16392 0)
(1.0689 0.738156 0)
(1.25591 0.878231 5.33985e-22)
(1.2734 0.908348 0)
(1.22394 0.893331 1.4134e-20)
(1.1535 0.863832 1.8258e-20)
(1.07845 0.831011 0)
(0.998486 0.79406 7.11113e-21)
(0.913601 0.750514 1.17408e-19)
(0.825046 0.697283 -2.10382e-19)
(0.747862 0.639652 0)
(0.695438 0.590564 -5.63624e-20)
(0.662118 0.549606 -6.12268e-22)
(0.625237 0.501631 -4.85852e-22)
(0.553883 0.429082 6.68801e-20)
(0.437407 0.33083 -5.09412e-23)
(0.292264 0.217661 -1.89125e-19)
(0.151336 0.110802 5.59636e-20)
(0.0498205 0.0354402 1.65952e-20)
(0.00237071 0.00169186 0)
(0.236236 0.172908 -1.58139e-20)
(1.06186 0.772845 -6.15163e-21)
(1.2444 0.918339 -4.36433e-21)
(1.25976 0.948533 -7.12146e-21)
(1.20964 0.932248 2.18962e-20)
(1.13901 0.901437 0)
(1.06346 0.867325 2.26005e-20)
(0.982502 0.82901 -1.56972e-20)
(0.895995 0.784041 7.8596e-22)
(0.804856 0.728976 1.54261e-20)
(0.724593 0.669347 1.28814e-19)
(0.66957 0.617832 -1.98128e-20)
(0.633731 0.572145 -7.41888e-20)
(0.594273 0.517359 -3.05759e-20)
(0.522889 0.438691 3.62838e-20)
(0.409149 0.334642 -1.34376e-23)
(0.268083 0.215399 5.08942e-20)
(0.133676 0.10524 -1.20299e-19)
(0.0409736 0.0312574 1.42679e-19)
(0.00107246 0.000876365 2.10761e-20)
(0.236902 0.181662 6.54113e-21)
(1.05516 0.805961 -3.83922e-21)
(1.23306 0.956126 1.29387e-21)
(1.24639 0.986288 -1.29933e-21)
(1.19569 0.968843 -3.27899e-21)
(1.12493 0.936885 -3.28914e-20)
(1.04897 0.901664 6.95236e-21)
(0.967128 0.86221 -6.578e-20)
(0.879096 0.816108 -1.30154e-19)
(0.785403 0.759639 -1.25798e-19)
(0.70194 0.698496 0)
(0.643824 0.644244 -8.67147e-20)
(0.604832 0.592946 1.06797e-19)
(0.562709 0.530785 0)
(0.491566 0.445386 -7.76812e-20)
(0.380498 0.334594 4.62895e-20)
(0.243698 0.209372 -5.46607e-20)
(0.116433 0.0975069 -6.46672e-20)
(0.0326683 0.0265115 -1.14842e-19)
(-0.000114373 4.30865e-05 -9.06665e-20)
(0.237901 0.190263 -7.94218e-21)
(1.04866 0.837479 4.1231e-21)
(1.22195 0.991654 8.37344e-21)
(1.23337 1.0217 1.3878e-22)
(1.18219 1.00321 7.78229e-21)
(1.11136 0.970253 -1.89594e-20)
(1.03507 0.934072 2.29145e-20)
(0.952448 0.893704 -6.81288e-20)
(0.862984 0.84674 -7.72583e-20)
(0.76682 0.789302 1.32003e-19)
(0.680017 0.727048 2.83273e-19)
(0.618274 0.669792 0)
(0.575471 0.612383 0)
(0.530335 0.542324 -3.51999e-20)
(0.459394 0.448813 0)
(0.351447 0.329775 9.9499e-20)
(0.220345 0.198886 1.17481e-19)
(0.101579 0.0877425 0)
(0.0261271 0.0216916 0)
(-0.0010655 -0.000708429 9.736e-20)
(0.238525 0.198381 9.63747e-21)
(1.04238 0.867383 7.46996e-21)
(1.21113 1.02503 6.3749e-21)
(1.22077 1.05489 -2.57888e-21)
(1.16919 1.03544 6.77512e-21)
(1.09834 1.00161 2.11348e-20)
(1.02182 0.964609 -3.17609e-20)
(0.938523 0.923524 -1.27338e-23)
(0.847739 0.875946 -1.02465e-21)
(0.749205 0.817957 -1.05314e-21)
(0.658949 0.754943 1.46017e-19)
(0.593038 0.694558 0)
(0.545765 0.630957 1.07983e-19)
(0.496859 0.552515 7.51071e-20)
(0.425455 0.448878 1.80863e-19)
(0.3213 0.318872 5.35325e-20)
(0.199264 0.181628 -6.32085e-20)
(0.0931505 0.0735545 -3.72287e-20)
(0.0263247 0.0157331 0)
(-0.000579914 -0.00112165 1.04539e-19)
(0.239472 0.206504 -2.30458e-20)
(1.03628 0.89582 0)
(1.2006 1.05631 8.8405e-21)
(1.2086 1.08595 -3.14307e-21)
(1.15675 1.06563 -4.83448e-21)
(1.08592 1.03104 -2.53934e-20)
(1.00925 0.993332 6.33664e-20)
(0.925389 0.951706 -5.4744e-21)
(0.8334 0.903737 0)
(0.732631 0.845557 -1.46403e-19)
(0.638855 0.782121 -3.1806e-19)
(0.568283 0.718702 1.2849e-20)
(0.515903 0.649154 1.48811e-19)
(0.462061 0.562028 0)
(0.388554 0.446182 1.21924e-19)
(0.287741 0.300978 0)
(0.17873 0.152475 0)
(0.0961296 0.0411029 -4.02242e-20)
(0.0572733 -0.00548251 0)
(0.0272326 0.00711083 2.8007e-20)
(0.239956 0.214029 -2.67973e-20)
(1.03034 0.922985 0)
(1.19035 1.08569 1.58552e-20)
(1.19684 1.11512 0)
(1.14482 1.09404 1.51682e-21)
(1.07403 1.05882 0)
(0.997307 1.02056 3.40387e-21)
(0.912951 0.978595 9.4696e-21)
(0.819852 0.930484 9.72251e-21)
(0.716926 0.872471 -1.6121e-19)
(0.619555 0.809008 9.62416e-21)
(0.543781 0.742931 1.03213e-19)
(0.48553 0.667814 1.45276e-19)
(0.425074 0.571685 1.94937e-20)
(0.346893 0.442407 9.54485e-20)
(0.246113 0.277318 0)
(0.148035 0.10822 1.32981e-19)
(0.081532 -0.00599882 -7.82473e-20)
(0.032901 0.0588381 9.14601e-20)
(-0.0382177 0.454014 -1.08642e-19)
(0.240366 0.221374 2.28193e-20)
(1.02434 0.948768 3.29613e-20)
(1.18032 1.11349 0)
(1.18533 1.14282 1.08718e-21)
(1.13322 1.12126 -1.77168e-21)
(1.06242 1.08565 3.73364e-20)
(0.98568 1.04709 2.29235e-20)
(0.900806 1.00514 0)
(0.806568 0.957304 6.53188e-20)
(0.701417 0.900016 -8.51179e-21)
(0.600128 0.837082 0)
(0.518293 0.769013 0)
(0.452846 0.688545 1.2994e-19)
(0.383642 0.582317 -6.00341e-20)
(0.297479 0.439678 -9.64631e-20)
(0.192374 0.251711 0)
(0.0835721 0.113254 6.74449e-20)
(0.00766865 0.466515 -7.86805e-20)
(0.0322159 1.92169 -4.45341e-20)
(0.0589112 2.82221 -5.43298e-20)
(0.240374 0.228124 -1.79354e-20)
(1.01834 0.973346 -4.3748e-20)
(1.1705 1.13971 1.02395e-20)
(1.17409 1.16893 6.07917e-21)
(1.12201 1.14707 0)
(1.05116 1.11126 2.35647e-20)
(0.974576 1.07263 3.2594e-20)
(0.889142 1.03092 -4.67236e-21)
(0.793825 0.983675 9.70745e-21)
(0.686478 0.927549 1.54164e-19)
(0.581173 0.865625 1.61415e-19)
(0.492809 0.796786 1.1569e-19)
(0.41881 0.711407 1.30597e-19)
(0.339363 0.592927 -1.40701e-19)
(0.24689 0.441173 -1.45425e-19)
(0.12494 0.294622 0)
(0.0426458 0.871377 0)
(0.0903609 2.5767 3.77128e-20)
(0.0926773 3.20926 0)
(0.0935991 3.38863 9.92117e-20)
(0.243166 0.234369 0)
(1.01259 0.997072 0)
(1.16063 1.16421 0)
(1.16288 1.19328 2.27064e-21)
(1.1109 1.17127 -6.01897e-22)
(1.04007 1.13549 1.42743e-20)
(0.963923 1.09707 2.14317e-20)
(0.877889 1.0558 -4.6127e-21)
(0.781558 1.00942 8.26242e-20)
(0.672093 0.954887 -1.94786e-21)
(0.562762 0.894411 3.1968e-19)
(0.467749 0.826411 -1.32957e-20)
(0.383481 0.73712 1.58901e-20)
(0.294469 0.601425 2.0333e-20)
(0.185829 0.459306 -3.52605e-22)
(0.0971263 1.01168 3.4417e-22)
(0.128914 2.75713 -1.96753e-19)
(0.133627 3.30102 -7.502e-20)
(0.123177 3.42468 4.0467e-20)
(0.111865 3.44461 -4.59606e-20)
(0.165155 0.179023 1.15506e-20)
(1.00281 1.02266 0)
(1.1506 1.18726 -2.33017e-20)
(1.15208 1.21618 -1.94018e-20)
(1.10033 1.19433 5.51286e-21)
(1.0298 1.15883 -1.37698e-20)
(0.953594 1.12036 -2.2823e-20)
(0.867123 1.07977 5.40137e-20)
(0.769873 1.03458 -6.85022e-20)
(0.658459 0.982117 0)
(0.545162 0.923502 1.58121e-19)
(0.443699 0.857744 -9.4698e-20)
(0.347265 0.768836 0)
(0.242865 0.612434 1.96091e-20)
(0.138735 0.802996 4.6956e-20)
(0.143082 2.55762 -5.39531e-20)
(0.192099 3.3312 6.18025e-20)
(0.173631 3.43733 3.38356e-20)
(0.143666 3.4557 3.90026e-20)
(0.123902 3.46405 6.32937e-20)
(0.278946 0.273861 -2.19166e-20)
(0.986708 1.03415 0)
(1.13308 1.2138 2.67769e-20)
(1.13786 1.24936 2.44698e-20)
(1.08355 1.22838 -1.06602e-20)
(1.01251 1.19327 8.4529e-21)
(0.935179 1.15633 2.48849e-20)
(0.848198 1.11714 4.17606e-21)
(0.749611 1.07425 6.63091e-20)
(0.635475 1.02584 1.3538e-19)
(0.516574 0.971846 9.00506e-21)
(0.404177 0.910568 8.44203e-20)
(0.282725 0.816751 1.50001e-20)
(0.207034 0.977373 -1.88706e-20)
(0.213081 2.43062 -4.32015e-20)
(0.263519 3.33807 4.3969e-20)
(0.246569 3.4655 -4.89794e-20)
(0.212087 3.48319 -2.85262e-20)
(0.178065 3.50688 -2.71459e-20)
(0.133174 3.50082 -3.94155e-21)
(0.269517 0.273015 0)
(0.984471 1.05771 8.74323e-21)
(1.12498 1.23787 -5.82175e-21)
(1.12747 1.27323 -3.2568e-21)
(1.07294 1.25198 -9.29673e-21)
(1.00199 1.21706 -6.87149e-21)
(0.924366 1.18039 -1.42239e-20)
(0.837184 1.14211 3.8101e-21)
(0.73807 1.10075 -6.96732e-20)
(0.622629 1.05512 -2.9115e-21)
(0.500696 1.00479 -2.87654e-19)
(0.382929 0.9468 1.20141e-20)
(0.27252 0.89239 -1.42606e-20)
(0.241382 1.56872 -1.75145e-20)
(0.302305 3.14693 3.63215e-21)
(0.31638 3.46927 3.60648e-22)
(0.274643 3.51542 7.6469e-20)
(0.240562 3.53708 4.01469e-20)
(0.194884 3.55609 -1.54723e-20)
(0.145213 3.55178 -2.10507e-20)
(0.255456 0.271195 2.33085e-20)
(0.98136 1.08394 6.02869e-20)
(1.11652 1.26408 -1.6793e-20)
(1.1167 1.29869 -1.22653e-20)
(1.06194 1.27707 0)
(0.991121 1.24216 -2.34459e-21)
(0.913466 1.2058 -1.73424e-20)
(0.826331 1.16836 3.42102e-21)
(0.726993 1.1286 -7.69663e-21)
(0.610738 1.08589 -1.24358e-19)
(0.486647 1.0397 -1.33656e-19)
(0.364135 0.985355 -9.95753e-20)
(0.273249 1.03705 -1.0763e-19)
(0.304418 2.31438 1.10924e-19)
(0.380647 3.39786 9.7133e-20)
(0.354151 3.52692 0)
(0.30599 3.5616 0)
(0.269273 3.59378 -1.24026e-20)
(0.225074 3.63825 0)
(0.156227 3.62187 -2.19629e-20)
(0.245497 0.273291 -3.58195e-20)
(0.976295 1.11112 -5.23648e-20)
(1.10672 1.29162 0)
(1.10473 1.32508 1.32053e-21)
(1.04976 1.30287 -1.37774e-20)
(0.979211 1.26785 2.09219e-21)
(0.901841 1.23183 -9.19447e-21)
(0.814974 1.19514 2.34023e-21)
(0.715663 1.15693 -5.0949e-20)
(0.598984 1.11703 6.36809e-21)
(0.473581 1.07512 0)
(0.349322 1.03 0)
(0.298556 1.32497 -9.87077e-20)
(0.380368 2.97772 4.07483e-20)
(0.444335 3.49834 5.41035e-20)
(0.392194 3.56163 0)
(0.350455 3.61648 -1.15671e-20)