/*--------------------------------*- C++ -*----------------------------------*\
  =========                 |
  \\      /  F ield         | OpenFOAM: The Open Source CFD Toolbox
   \\    /   O peration     | Website:  https://openfoam.org
    \\  /    A nd           | Version:  6
     \\/     M anipulation  |
\*---------------------------------------------------------------------------*/
FoamFile
{
    version     2.0;
    format      ascii;
    class       volVectorField;
    location    "29";
    object      U;
}
// * * * * * * * * * * * * * * * * * * * * * * * * * * * * * * * * * * * * * //

dimensions      [0 1 -1 0 0 0 0];

internalField   nonuniform List<vector> 
8800
(
(0.9872 -0.0767049 0)
(1.0019 -0.0551741 0)
(0.999755 -0.0285459 0)
(1.00005 -0.0151456 0)
(1.00005 -0.00853822 0)
(1.00002 -0.00502827 0)
(0.999999 -0.00298723 0)
(0.999993 -0.00170757 0)
(0.99999 -0.000828577 0)
(1.00005 -0.000128762 0)
(0.999989 0.000583261 0)
(0.999997 0.001345 0)
(1 0.00237737 0)
(1.00001 0.00396605 0)
(1.00003 0.00660779 0)
(1.00006 0.011355 0)
(0.99998 0.0208001 0)
(0.999177 0.0386427 0)
(1.0071 0.0724512 0)
(0.771229 0.0366883 0)
(0.363026 -0.0160167 0)
(1.0433 -0.0768348 0)
(1.08464 -0.0704597 0)
(1.04525 -0.0535648 0)
(1.02327 -0.0389086 0)
(1.01192 -0.0262271 0)
(1.0063 -0.0168841 0)
(1.0035 -0.0103989 0)
(1.00209 -0.00579027 0)
(1.00143 -0.00217229 0)
(1.0013 0.00111776 0)
(1.00168 0.0045014 0)
(1.00266 0.00844103 0)
(1.00463 0.0137896 0)
(1.00858 0.021513 0)
(1.01661 0.0325022 0)
(1.03259 0.0464433 0)
(1.06277 0.0615895 0)
(1.09192 0.0760298 0)
(0.838758 0.0565567 0)
(0.216777 -0.00242222 0)
(1.07586 -0.05017 0)
(1.09988 -0.0483683 0)
(1.06461 -0.0405267 0)
(1.03992 -0.033676 0)
(1.02373 -0.0261684 0)
(1.01394 -0.0186249 0)
(1.00843 -0.0118576 0)
(1.00554 -0.00603094 0)
(1.00434 -0.000703966 0)
(1.00471 0.00446225 0)
(1.00663 0.00986101 0)
(1.0106 0.0160085 0)
(1.01794 0.0230912 0)
(1.03058 0.0305941 0)
(1.05073 0.0376547 0)
(1.0805 0.0443754 0)
(1.10642 0.0512257 0)
(0.942785 0.0415517 0)
(0.216324 0.00244295 0)
(0.175082 -0.000814992 0)
(1.01758 -0.0355121 0)
(1.10515 -0.0414255 0)
(1.07816 -0.0361175 0)
(1.05325 -0.0301855 0)
(1.03592 -0.0246346 0)
(1.02375 -0.0189982 0)
(1.01568 -0.0130268 0)
(1.01088 -0.00693826 0)
(1.00875 -0.000679947 0)
(1.00938 0.00553829 0)
(1.01268 0.011518 0)
(1.01889 0.0173751 0)
(1.0288 0.0229831 0)
(1.04329 0.0283219 0)
(1.06387 0.0338626 0)
(1.09378 0.0399073 0)
(1.09375 0.0417437 0)
(0.827769 0.0228147 0)
(0.174321 0.000838701 0)
(0.153853 -0.000609838 0)
(0.955987 -0.025483 0)
(1.10335 -0.0351853 0)
(1.08754 -0.0327298 0)
(1.06144 -0.0280962 0)
(1.04373 -0.0231075 0)
(1.03126 -0.0179583 0)
(1.02248 -0.0125767 0)
(1.01678 -0.0067597 0)
(1.01408 -0.000400034 0)
(1.01482 0.00596499 0)
(1.01881 0.0118248 0)
(1.02582 0.0171384 0)
(1.03616 0.0221148 0)
(1.05084 0.0269494 0)
(1.07217 0.0315479 0)
(1.10047 0.0355579 0)
(1.06874 0.0337227 0)
(0.74069 0.0141794 0)
(0.152712 0.000636778 0)
(0.139466 -0.000465447 0)
(0.899032 -0.0190761 0)
(1.09556 -0.0300941 0)
(1.09546 -0.0292345 0)
(1.06884 -0.0255561 0)
(1.05037 -0.0214944 0)
(1.03748 -0.0168552 0)
(1.02842 -0.0117421 0)
(1.02239 -0.00616546 0)
(1.01939 2.09428e-05 0)
(1.02014 0.00622185 0)
(1.02434 0.0117932 0)
(1.03153 0.0167779 0)
(1.04211 0.0213258 0)
(1.05732 0.0253623 0)
(1.07956 0.0288822 0)
(1.10283 0.0315893 0)
(1.03717 0.0276686 0)
(0.674891 0.010026 0)
(0.137861 0.000496524 0)
(0.128928 -0.000359655 0)
(0.849455 -0.0146758 0)
(1.08311 -0.0259153 0)
(1.10106 -0.0262235 0)
(1.07553 -0.0229615 0)
(1.05646 -0.0194356 0)
(1.0431 -0.0154294 0)
(1.03369 -0.0107496 0)
(1.02743 -0.00542666 0)
(1.02428 0.000538133 0)
(1.02494 0.00650359 0)
(1.02913 0.0117803 0)
(1.03648 0.0163311 0)
(1.04737 0.0202128 0)
(1.06307 0.0235503 0)
(1.08583 0.0265881 0)
(1.10226 0.0284882 0)
(1.00308 0.0229805 0)
(0.624099 0.0075988 0)
(0.126759 0.00039617 0)
(0.120921 -0.000276821 0)
(0.807487 -0.0114483 0)
(1.06774 -0.0221941 0)
(1.10438 -0.0235289 0)
(1.08156 -0.0207807 0)
(1.06207 -0.017496 0)
(1.04839 -0.0137803 0)
(1.0387 -0.00942347 0)
(1.03217 -0.0044318 0)
(1.02877 0.00117426 0)
(1.02933 0.00674274 0)
(1.03356 0.0115916 0)
(1.04101 0.0156847 0)
(1.0521 0.01914 0)
(1.06808 0.0221352 0)
(1.09118 0.0248393 0)
(1.09887 0.0258108 0)
(0.969009 0.0191915 0)
(0.583883 0.00597686 0)
(0.118071 0.000320437 0)
(0.114777 -0.000211028 0)
(0.772477 -0.00897402 0)
(1.05103 -0.0188071 0)
(1.10647 -0.0207999 0)
(1.08705 -0.0183843 0)
(1.06722 -0.0153273 0)
(1.05331 -0.0119174 0)
(1.04335 -0.00795074 0)
(1.03654 -0.00335304 0)
(1.03293 0.00193701 0)
(1.03329 0.00717182 0)
(1.0375 0.0115389 0)
(1.04503 0.0150746 0)
(1.05621 0.0180245 0)
(1.07243 0.020629 0)
(1.09524 0.0230421 0)
(1.09293 0.023337 0)
(0.936514 0.016122 0)
(0.551368 0.00481447 0)
(0.111097 0.000263737 0)
(0.110081 -0.000157831 0)
(0.743587 -0.00699666 0)
(1.03411 -0.0157392 0)
(1.10772 -0.0182476 0)
(1.09226 -0.0161642 0)
(1.07206 -0.0132639 0)
(1.0579 -0.0100486 0)
(1.04786 -0.00629307 0)
(1.04093 -0.00198773 0)
(1.03713 0.00287426 0)
(1.03728 0.00759776 0)
(1.04127 0.0115119 0)
(1.04863 0.0146289 0)
(1.05978 0.0171842 0)
(1.0763 0.0194723 0)
(1.09826 0.021538 0)
(1.085 0.021121 0)
(0.906295 0.0136203 0)
(0.524675 0.00394514 0)
(0.105391 0.000221658 0)
(0.106556 -0.000112247 0)
(0.720198 -0.00533452 0)
(1.01785 -0.0128306 0)
(1.10796 -0.0156145 0)
(1.09718 -0.0139543 0)
(1.07675 -0.0112639 0)
(1.06232 -0.00815801 0)
(1.05207 -0.0045255 0)
(1.04491 -0.000480868 0)
(1.04079 0.00398414 0)
(1.04071 0.00825695 0)
(1.04452 0.0116775 0)
(1.05177 0.0143654 0)
(1.06294 0.0165914 0)
(1.07969 0.0185399 0)
(1.09992 0.0201121 0)
(1.07542 0.0190074 0)
(0.878765 0.0115406 0)
(0.502551 0.00327838 0)
(0.100627 0.000190654 0)
(0.104035 -7.11362e-05 0)
(0.701765 -0.00387 0)
(1.00308 -0.0100607 0)
(1.10743 -0.0128546 0)
(1.10155 -0.0114227 0)
(1.08104 -0.00884767 0)
(1.06627 -0.00592752 0)
(1.05569 -0.00257565 0)
(1.04832 0.00119137 0)
(1.04398 0.00533568 0)
(1.04351 0.0091877 0)
(1.04695 0.0121373 0)
(1.05409 0.0143095 0)
(1.06534 0.0160185 0)
(1.08224 0.0174904 0)
(1.10039 0.0186561 0)
(1.06473 0.0170055 0)
(0.854021 0.00979284 0)
(0.484068 0.00274747 0)
(0.0965859 0.000167287 0)
(0.102428 -3.3665e-05 0)
(0.687981 -0.00250824 0)
(0.990364 -0.00732331 0)
(1.10654 -0.00991503 0)
(1.10564 -0.00866152 0)
(1.08522 -0.00623747 0)
(1.07019 -0.00346915 0)
(1.05939 -0.000292466 0)
(1.05159 0.00322595 0)
(1.04677 0.00700149 0)
(1.04592 0.010355 0)
(1.04917 0.012752 0)
(1.05609 0.0143183 0)
(1.06727 0.015495 0)
(1.08431 0.0165215 0)
(1.10011 0.0172927 0)
(1.05341 0.0151144 0)
(0.83208 0.00828526 0)
(0.468631 0.00232477 0)
(0.0931053 0.00015214 0)
(0.101675 5.78887e-06 0)
(0.678652 -0.00122098 0)
(0.980098 -0.00463787 0)
(1.10545 -0.00693198 0)
(1.10933 -0.00597462 0)
(1.08922 -0.00376829 0)
(1.07396 -0.00104088 0)
(1.06304 0.00210915 0)
(1.05512 0.00552634 0)
(1.04991 0.00902716 0)
(1.04849 0.0119438 0)
(1.05109 0.0138634 0)
(1.05754 0.0150126 0)
(1.06847 0.015656 0)
(1.08543 0.0162054 0)
(1.09863 0.0162767 0)
(1.04164 0.0134369 0)
(0.812841 0.00702065 0)
(0.45576 0.0019908 0)
(0.0900481 0.000141354 0)
(0.101824 4.55167e-05 0)
(0.673699 3.8802e-05 0)
(0.972578 -0.00191591 0)
(1.10423 -0.00368144 0)
(1.11241 -0.00285185 0)
(1.09289 -0.000762508 0)
(1.07741 0.00193638 0)
(1.06608 0.00498532 0)
(1.0576 0.00821267 0)
(1.05176 0.0114918 0)
(1.0497 0.0140664 0)
(1.05183 0.0153395 0)
(1.058 0.0157903 0)
(1.06876 0.0159462 0)
(1.08544 0.0157653 0)
(1.09563 0.0152134 0)
(1.02951 0.0118872 0)
(0.796056 0.00597438 0)
(0.44501 0.00173003 0)
(0.0873513 0.000129501 0)
(0.102927 9.75861e-05 0)
(0.672921 0.0011562 0)
(0.968177 0.000540737 0)
(1.10362 -0.000488637 0)
(1.11551 0.000451376 0)
(1.09669 0.00254951 0)
(1.08109 0.00528636 0)
(1.0696 0.008377 0)
(1.06079 0.0115662 0)
(1.05435 0.0145582 0)
(1.05136 0.0165846 0)
(1.05262 0.0173492 0)
(1.05808 0.0172236 0)
(1.06839 0.016655 0)
(1.0846 0.0160783 0)
(1.09162 0.0148654 0)
(1.01741 0.0110729 0)
(0.781227 0.00551597 0)
(0.435574 0.00167286 0)
(0.0849031 0.000129071 0)
(0.104798 0.000130638 0)
(0.675193 0.00196506 0)
(0.966883 0.00262006 0)
(1.10404 0.00235098 0)
(1.11881 0.00352267 0)
(1.10053 0.00580046 0)
(1.08468 0.00878007 0)
(1.07275 0.0120621 0)
(1.06331 0.0153935 0)
(1.05597 0.0183123 0)
(1.05202 0.0200013 0)
(1.05239 0.020254 0)
(1.05715 0.0195755 0)
(1.06699 0.018449 0)
(1.08279 0.0172556 0)
(1.08638 0.0153939 0)
(1.00507 0.011112 0)
(0.76732 0.0056796 0)
(0.426228 0.00182035 0)
(0.0823889 0.000142789 0)
(0.107416 0.00017043 0)
(0.680626 0.0028063 0)
(0.968479 0.00449465 0)
(1.10563 0.00511324 0)
(1.12257 0.00656356 0)
(1.10482 0.0091478 0)
(1.08879 0.0125596 0)
(1.07644 0.0162761 0)
(1.06623 0.0199532 0)
(1.05775 0.0229574 0)
(1.05253 0.0244139 0)
(1.05178 0.0241983 0)
(1.05562 0.0229031 0)
(1.06478 0.0212267 0)
(1.07982 0.0193816 0)
(1.07997 0.0167757 0)
(0.992269 0.0119749 0)
(0.753256 0.00638391 0)
(0.415925 0.00212728 0)
(0.0795296 0.0001694 0)
(0.110845 0.000221059 0)
(0.688951 0.00373955 0)
(0.972918 0.00646915 0)
(1.10875 0.00816968 0)
(1.12692 0.0101308 0)
(1.10975 0.0132413 0)
(1.09356 0.0172163 0)
(1.0806 0.0214871 0)
(1.06941 0.0255382 0)
(1.05952 0.0287005 0)
(1.05268 0.029905 0)
(1.05055 0.0291142 0)
(1.05334 0.0271318 0)
(1.0617 0.0247424 0)
(1.07567 0.0221737 0)
(1.07223 0.0188599 0)
(0.978679 0.0135625 0)
(0.737894 0.00747729 0)
(0.403929 0.00252778 0)
(0.0761369 0.000203098 0)
(0.115306 0.000289911 0)
(0.700433 0.0049435 0)
(0.980608 0.00881766 0)
(1.11424 0.0117526 0)
(1.13256 0.0147421 0)
(1.11561 0.018765 0)
(1.09902 0.0234876 0)
(1.08519 0.0283529 0)
(1.07265 0.0327374 0)
(1.06104 0.0358242 0)
(1.05226 0.0364622 0)
(1.04856 0.0348762 0)
(1.05006 0.0321192 0)
(1.05746 0.0289022 0)
(1.07029 0.0255936 0)
(1.0634 0.0216535 0)
(0.963978 0.0158194 0)
(0.720307 0.0088206 0)
(0.389809 0.00298277 0)
(0.0720968 0.000240995 0)
(0.121145 0.000386736 0)
(0.715694 0.00659374 0)
(0.991886 0.0118117 0)
(1.12266 0.0159467 0)
(1.14037 0.020148 0)
(1.12297 0.0254164 0)
(1.10551 0.03118 0)
(1.09039 0.03679 0)
(1.0761 0.041638 0)
(1.06227 0.0446317 0)
(1.05119 0.0445733 0)
(1.04565 0.0419594 0)
(1.04585 0.0381124 0)
(1.05229 0.0342382 0)
(1.06384 0.030299 0)
(1.05338 0.0257742 0)
(0.946887 0.0187832 0)
(0.699663 0.0103276 0)
(0.373346 0.00349381 0)
(0.0673521 0.000282317 0)
(0.128877 0.000524525 0)
(0.735774 0.0088817 0)
(1.00674 0.0157415 0)
(1.13391 0.0209393 0)
(1.15055 0.0262837 0)
(1.1322 0.0328901 0)
(1.11329 0.0399171 0)
(1.09635 0.0466206 0)
(1.07981 0.0522423 0)
(1.06318 0.0554936 0)
(1.0494 0.0550953 0)
(1.04169 0.0517285 0)
(1.04035 0.0469409 0)
(1.04601 0.0419343 0)
(1.05625 0.0372242 0)
(1.04094 0.0312344 0)
(0.92573 0.0221781 0)
(0.675526 0.0120331 0)
(0.354233 0.00409418 0)
(0.0618184 0.000329587 0)
(0.139256 0.000736301 0)
(0.76225 0.0122309 0)
(1.02595 0.0213109 0)
(1.14767 0.0276575 0)
(1.16291 0.0339824 0)
(1.14346 0.0418382 0)
(1.12275 0.050241 0)
(1.1035 0.0583932 0)
(1.0841 0.0650805 0)
(1.06415 0.0688243 0)
(1.04728 0.0682552 0)
(1.03707 0.0643077 0)
(1.03375 0.0587538 0)
(1.03802 0.0526954 0)
(1.04603 0.046318 0)
(1.02357 0.0375784 0)
(0.899724 0.0258347 0)
(0.647753 0.0140558 0)
(0.332022 0.00479126 0)
(0.0554113 0.000379233 0)
(0.153563 0.00107712 0)
(0.797343 0.0172477 0)
(1.05152 0.0293077 0)
(1.16431 0.037425 0)
(1.17727 0.0449233 0)
(1.1566 0.0541083 0)
(1.13405 0.0641015 0)
(1.11195 0.0736997 0)
(1.08895 0.08124 0)
(1.06507 0.0850626 0)
(1.04466 0.0838182 0)
(1.03166 0.078835 0)
(1.02592 0.0720587 0)
(1.02771 0.0644348 0)
(1.03138 0.0554635 0)
(1.00042 0.0438903 0)
(0.869545 0.0299894 0)
(0.615996 0.0165396 0)
(0.30615 0.00559813 0)
(0.0480563 0.000429857 0)
(0.173964 0.00168289 0)
(0.844301 0.025078 0)
(1.08634 0.0411421 0)
(1.18526 0.0520548 0)
(1.19407 0.0616636 0)
(1.17202 0.0726415 0)
(1.14702 0.0840995 0)
(1.12116 0.0944188 0)
(1.09376 0.101832 0)
(1.06533 0.104587 0)
(1.04097 0.101541 0)
(1.02479 0.0945415 0)
(1.01614 0.0857064 0)
(1.01418 0.0758197 0)
(1.0118 0.0643581 0)
(0.972968 0.0506668 0)
(0.83582 0.0351431 0)
(0.579393 0.0195764 0)
(0.276168 0.00649449 0)
(0.039784 0.000474587 0)
(0.203782 0.00303798 0)
(0.908935 0.0385218 0)
(1.13371 0.0606247 0)
(1.21232 0.0750118 0)
(1.21443 0.0878795 0)
(1.18934 0.100416 0)
(1.16054 0.112265 0)
(1.12987 0.121836 0)
(1.09741 0.127544 0)
(1.06395 0.127647 0)
(1.03528 0.121394 0)
(1.01558 0.111339 0)
(1.00359 0.0997605 0)
(0.997233 0.0873531 0)
(0.988761 0.0739697 0)
(0.942747 0.059006 0)
(0.797937 0.0417017 0)
(0.536989 0.023222 0)
(0.242292 0.00749954 0)
(0.0308766 0.000508591 0)
(0.244908 0.00930632 1.53985e-19)
(0.994767 0.0653852 1.32437e-19)
(1.19144 0.0939667 -4.50824e-20)
(1.24491 0.110494 0)
(1.23694 0.126637 -1.02028e-33)
(1.20664 0.139106 1.4584e-20)
(1.17277 0.149623 -2.43356e-20)
(1.13663 0.156874 0)
(1.09862 0.159489 4.57547e-34)
(1.05967 0.155747 -2.6168e-20)
(1.02614 0.145364 0)
(1.00233 0.131695 -2.93114e-20)
(0.986306 0.117143 -8.5288e-20)
(0.975154 0.102514 -3.98957e-20)
(0.961064 0.088112 -1.18182e-20)
(0.907384 0.07263 -6.96748e-21)
(0.751184 0.0523215 0)
(0.484672 0.0291427 4.86331e-21)
(0.204795 0.0100442 5.74752e-21)
(0.0226296 0.000959811 1.03736e-19)
(0.272292 0.0248328 1.397e-19)
(1.06541 0.107977 5.07307e-22)
(1.2392 0.141838 1.32479e-20)
(1.27602 0.160006 0)
(1.25773 0.175689 -5.56577e-20)
(1.22162 0.186794 -6.07652e-20)
(1.1822 0.195316 -2.5506e-20)
(1.14023 0.200071 -8.46017e-20)
(1.0962 0.199561 0)
(1.05094 0.191958 1.12095e-19)
(1.0113 0.177491 1.07863e-19)
(0.982031 0.160306 3.13497e-20)
(0.960782 0.143053 1.10987e-19)
(0.944238 0.126536 1.52787e-19)
(0.923455 0.11063 0)
(0.862369 0.0936601 2.12395e-19)
(0.696878 0.0690985 3.04309e-19)
(0.432361 0.040082 3.37611e-19)
(0.173853 0.0151636 -3.86096e-19)
(0.0165881 0.0014694 -7.27461e-21)
(0.272262 0.0409431 0)
(1.10968 0.16347 3.07216e-20)
(1.27289 0.201058 0)
(1.30037 0.219599 -9.00189e-20)
(1.27423 0.232331 0)
(1.23273 0.240367 -1.2655e-19)
(1.18788 0.245594 5.37118e-20)
(1.14029 0.246873 -1.76906e-19)
(1.09045 0.242627 -1.58197e-21)
(1.03915 0.230959 5.92014e-20)
(0.993789 0.212606 2.34282e-19)
(0.959606 0.192498 -3.13309e-22)
(0.934013 0.173326 -8.00319e-20)
(0.913492 0.155711 -1.42545e-19)
(0.889065 0.139119 1.67702e-19)
(0.827567 0.120038 -2.96175e-19)
(0.666232 0.0907716 -3.89271e-20)
(0.416394 0.0556232 0)
(0.175367 0.0231548 2.88594e-23)
(0.0186146 0.00256352 0)
(0.265217 0.0547798 5.60867e-19)
(1.13293 0.222541 -2.49817e-19)
(1.29442 0.265267 -1.60373e-19)
(1.31639 0.283805 4.67231e-20)
(1.28482 0.293038 -7.62266e-20)
(1.23905 0.297354 2.69165e-19)
(1.18957 0.298729 1.14044e-19)
(1.13703 0.296045 0)
(1.08203 0.28772 -3.12442e-19)
(1.02525 0.271886 0)
(0.974785 0.249871 -1.2442e-19)
(0.936386 0.227173 -1.4722e-19)
(0.907425 0.206467 -8.65582e-20)
(0.884174 0.187899 -1.02788e-19)
(0.85801 0.170477 0)
(0.798302 0.149816 0)
(0.650153 0.116976 -2.53182e-19)
(0.41965 0.0760683 4.97892e-20)
(0.18842 0.0342464 -2.94076e-20)
(0.0235903 0.0045426 -3.43788e-20)
(0.257717 0.0671505 -3.4078e-19)
(1.14259 0.281403 0)
(1.30653 0.330546 3.87421e-19)
(1.325 0.349124 1.45546e-19)
(1.28955 0.354977 1.66338e-19)
(1.24047 0.355569 0)
(1.18729 0.353037 1.18336e-19)
(1.13067 0.346318 2.00234e-19)
(1.0712 0.333902 1.64273e-19)
(1.00971 0.313903 2.75157e-19)
(0.954883 0.288321 0)
(0.912994 0.263182 -3.16553e-19)
(0.88137 0.240925 -1.86292e-19)
(0.85613 0.221561 -1.09031e-19)
(0.829102 0.203406 6.53694e-19)
(0.773055 0.181578 7.75157e-20)
(0.638973 0.145824 3.64564e-19)
(0.426924 0.0985595 -1.72161e-18)
(0.202464 0.0474059 1.02234e-18)
(0.0286922 0.00703428 -1.23221e-18)
(0.250949 0.07834 -3.09071e-19)
(1.14381 0.338283 6.62359e-20)
(1.31174 0.395087 -5.65374e-20)
(1.32774 0.413846 -1.94606e-19)
(1.28936 0.416517 -1.68131e-19)
(1.23766 0.413528 1.72456e-21)
(1.18149 0.407254 -1.27179e-19)
(1.12148 0.396667 2.11579e-19)
(1.05826 0.380268 -3.52448e-19)
(0.992725 0.356219 0)
(0.934252 0.327103 -1.46147e-19)
(0.889596 0.299542 -1.57976e-21)
(0.855908 0.275732 -2.01539e-19)
(0.829226 0.255448 0)
(0.801921 0.236718 -1.40716e-19)
(0.749455 0.213891 -3.3313e-19)
(0.628088 0.175616 8.88537e-19)
(0.431602 0.121842 -8.74454e-19)
(0.212859 0.0610309 1.24236e-18)
(0.0327473 0.00969162 -1.29087e-18)
(0.245522 0.0888054 -5.08781e-22)
(1.13988 0.392567 -6.65767e-20)
(1.31203 0.458318 -2.31648e-19)
(1.32591 0.476947 9.97284e-20)
(1.28527 0.476713 -8.86927e-20)
(1.23146 0.470376 0)
(1.17283 0.460583 -1.29969e-19)
(1.10994 0.446354 -2.24497e-19)
(1.0435 0.42616 -1.86315e-19)
(0.974509 0.398177 0)
(0.912918 0.365569 -1.53981e-19)
(0.866025 0.33547 -1.82575e-19)
(0.830839 0.310034 2.1696e-19)
(0.80325 0.28869 -1.28861e-19)
(0.77604 0.269314 -6.07673e-19)
(0.72684 0.245255 3.60565e-19)
(0.615458 0.204785 1.07576e-19)
(0.430645 0.144346 0)
(0.21679 0.073639 -1.18819e-18)
(0.0349032 0.0120485 -4.35602e-20)
(0.241433 0.0988412 -4.10261e-20)
(1.13292 0.444127 6.84917e-20)
(1.30847 0.519009 1.22527e-19)
(1.3206 0.537773 3.24364e-19)
(1.27817 0.534967 -3.68086e-19)
(1.22267 0.525576 3.21552e-19)
(1.16196 0.512544 2.78466e-19)
(1.0966 0.494917 -3.59532e-19)
(1.02733 0.471137 1.0583e-19)
(0.955254 0.439338 -6.74614e-19)
(0.89091 0.403244 -1.69114e-19)
(0.842155 0.370469 0)
(0.805882 0.343129 2.33468e-19)
(0.777802 0.320516 2.7514e-19)
(0.75097 0.300206 3.25587e-19)
(0.70454 0.274874 -3.88102e-19)
(0.600461 0.231649 -1.14653e-19)
(0.424101 0.164187 1.35079e-19)
(0.21523 0.0838408 0)
(0.0352287 0.0138209 -9.36524e-20)
(0.238496 0.108539 4.15961e-19)
(1.12445 0.493007 -2.81558e-19)
(1.30221 0.576952 -1.29158e-19)
(1.3127 0.595991 2.25852e-19)
(1.26881 0.590897 -1.90773e-19)
(1.21191 0.578768 -4.01027e-21)
(1.14945 0.562816 -2.99654e-19)
(1.08194 0.542069 -1.28833e-19)
(1.01013 0.514933 -3.21153e-19)
(0.93521 0.479474 2.23006e-22)
(0.868379 0.439856 -5.35694e-19)
(0.817964 0.404254 4.28135e-19)
(0.780865 0.37475 -2.52757e-19)
(0.752564 0.350506 2.98469e-19)
(0.726215 0.328905 0)
(0.681924 0.301897 -2.08559e-19)
(0.583075 0.255382 -9.37874e-22)
(0.41265 0.180661 -5.81991e-19)
(0.209138 0.091348 -8.57909e-20)
(0.0341436 0.0149184 0)
(0.236588 0.118083 0)
(1.11528 0.539444 -2.97506e-19)
(1.29398 0.63209 -2.64836e-19)
(1.30293 0.651458 -2.36671e-19)
(1.25781 0.644314 -2.10139e-19)
(1.19975 0.629752 0)
(1.13578 0.611186 -1.52401e-19)
(1.06638 0.587617 -1.19986e-21)
(0.992252 0.557394 6.8686e-19)
(0.914667 0.518457 -9.46181e-20)
(0.845435 0.475318 -3.84111e-19)
(0.793519 0.436705 2.25745e-19)
(0.755689 0.404753 -2.01452e-21)
(0.727269 0.378603 3.1802e-19)
(0.701368 0.35537 1.91297e-19)
(0.65867 0.326253 -4.48417e-19)
(0.563211 0.275634 5.30747e-19)
(0.397029 0.193652 1.56641e-19)
(0.199142 0.0961374 6.45845e-19)
(0.0318162 0.0152925 -1.73022e-18)
(0.235556 0.127591 8.71736e-20)
(1.10598 0.583587 -1.50938e-19)
(1.28444 0.684448 1.29282e-19)
(1.29185 0.704115 2.44752e-19)
(1.24569 0.695129 0)
(1.18664 0.678419 -1.83499e-19)
(1.12136 0.657537 4.94903e-19)
(1.05026 0.631444 2.89472e-19)
(0.974 0.598419 0)
(0.893847 0.556226 -1.33495e-18)
(0.822237 0.509617 1.03127e-18)
(0.768763 0.467835 0)
(0.730176 0.433192 2.91725e-19)
(0.701641 0.404807 -2.00511e-21)
(0.676132 0.379579 -6.11544e-19)
(0.634471 0.34787 2.39367e-19)
(0.541082 0.292409 0)
(0.378082 0.202951 8.41822e-19)
(0.186208 0.0985171 0)
(0.0287355 0.0150586 -8.13997e-19)
(0.235222 0.137071 -8.98233e-20)
(1.09689 0.625583 -1.53394e-19)
(1.27403 0.734045 1.39883e-19)
(1.27991 0.753964 0)
(1.23284 0.743328 -2.27441e-19)
(1.17295 0.724726 0)
(1.10653 0.701799 -5.16709e-19)
(1.0339 0.673478 -1.47225e-19)
(0.955624 0.637958 1.26665e-19)
(0.872953 0.592768 -6.59186e-19)
(0.798838 0.542784 1.0838e-19)
(0.74362 0.49772 0)
(0.704207 0.460117 -6.23224e-19)
(0.67553 0.429212 2.05642e-21)
(0.650284 0.401646 0)
(0.609116 0.366837 2.31287e-21)
(0.516655 0.305782 7.65457e-19)
(0.3561 0.208579 -7.24452e-19)
(0.171045 0.0984316 2.13668e-19)
(0.025142 0.0142456 0)
(0.235248 0.146411 0)
(1.08817 0.665491 -1.57785e-19)
(1.2631 0.780962 -1.40008e-19)
(1.26745 0.801061 -2.27332e-21)
(1.21959 0.788938 -1.14608e-19)
(1.15898 0.768674 -4.16541e-19)
(1.09156 0.743957 1.86532e-19)
(1.01753 0.713688 -1.62672e-19)
(0.937349 0.675978 5.50452e-19)
(0.852139 0.6281 -1.0538e-18)
(0.775342 0.574904 -3.35294e-21)
(0.718218 0.526486 -2.8101e-19)
(0.677787 0.485706 1.00508e-18)
(0.648847 0.451983 -2.42734e-21)
(0.623719 0.421733 -4.7041e-19)
(0.582495 0.383242 -8.35982e-19)
(0.489988 0.315877 0)
(0.331589 0.210767 0)
(0.154167 0.0958991 2.30011e-19)
(0.0212418 0.0129309 -1.34573e-19)
(0.235745 0.155705 -9.43093e-20)
(1.07995 0.703233 3.29951e-19)
(1.25191 0.825289 1.49112e-19)
(1.25474 0.845469 0)
(1.2062 0.832009 -1.58998e-21)
(1.14497 0.810291 -4.31365e-19)
(1.07668 0.784018 4.83994e-19)
(1.00137 0.752071 6.75357e-19)
(0.919364 0.712485 7.2665e-19)
(0.831603 0.662255 -8.6842e-19)
(0.751983 0.606092 -8.81787e-19)
(0.692621 0.554322 7.51042e-19)
(0.650884 0.510126 0)
(0.621514 0.473269 -2.14381e-19)
(0.596362 0.439948 -5.06559e-19)
(0.554593 0.397135 -5.9851e-19)
(0.461004 0.322544 -7.09225e-19)
(0.304838 0.209463 2.0961e-19)
(0.135841 0.0909348 -1.23461e-19)
(0.0170628 0.0111211 3.39871e-22)
(0.236433 0.164762 0)
(1.07225 0.739287 0)
(1.24062 0.867098 2.66019e-21)
(1.24199 0.88727 0)
(1.19285 0.872619 3.76901e-19)
(1.1311 0.84963 3.35477e-19)
(1.06205 0.822009 0)
(0.985591 0.78864 8.66718e-20)
(0.901855 0.747486 1.22904e-18)
(0.811558 0.695276 -1.99113e-18)
(0.728903 0.636451 0)
(0.666917 0.581405 -4.81972e-19)
(0.623488 0.53359 -2.962e-21)
(0.593455 0.493236 -2.41961e-21)
(0.56812 0.456345 5.4134e-19)
(0.525367 0.408411 -4.09875e-22)
(0.430026 0.325694 -1.52308e-18)
(0.275896 0.204491 4.50215e-19)
(0.116584 0.083759 1.33006e-19)
(0.0128771 0.008969 0)
(0.237104 0.173634 2.95522e-19)
(1.06483 0.773621 1.75254e-19)
(1.22935 0.90647 3.14493e-19)
(1.22936 0.926565 -5.7946e-19)
(1.17972 0.910836 6.54615e-19)
(1.11752 0.886747 0)
(1.04783 0.857973 3.19833e-19)
(0.970332 0.823419 -1.87509e-19)
(0.884971 0.781 3.85685e-21)
(0.792153 0.727194 1.43851e-19)
(0.706241 0.666071 1.14445e-18)
(0.641249 0.607935 -1.70264e-19)
(0.595639 0.556376 -6.16336e-19)
(0.564542 0.512078 -2.4771e-19)
(0.53883 0.470889 2.92564e-19)
(0.494767 0.416825 -2.68963e-22)
(0.397404 0.325066 4.09638e-19)
(0.245606 0.195942 -9.66622e-19)
(0.097178 0.0747873 1.14263e-18)
(0.00884805 0.00660703 1.66655e-19)
(0.237523 0.182218 -1.01054e-19)
(1.05772 0.806312 9.09156e-20)
(1.21824 0.943515 6.19123e-21)
(1.21695 0.963471 -2.97085e-19)
(1.16689 0.946763 -1.33034e-19)
(1.10434 0.921709 -6.2826e-19)
(1.03411 0.891954 1.08513e-19)
(0.955698 0.856427 -7.94285e-19)
(0.868826 0.813022 -1.38127e-18)
(0.77351 0.758008 -1.19869e-18)
(0.684199 0.695031 0)
(0.615781 0.634097 -7.36737e-19)
(0.567382 0.57879 8.82763e-19)
(0.534616 0.530049 0)
(0.508182 0.483474 -6.25812e-19)
(0.462665 0.421871 3.72092e-19)
(0.36348 0.320156 -4.39309e-19)
(0.215095 0.18395 -5.19453e-19)
(0.0785757 0.0645571 -9.19216e-19)
(0.00522405 0.00422814 -7.16585e-19)
(0.238236 0.190604 1.03091e-19)
(1.05077 0.837336 -9.70255e-20)
(1.20734 0.978297 -2.4612e-19)
(1.20485 0.998068 -3.87372e-19)
(1.15445 0.980484 2.87266e-19)
(1.09163 0.954595 -3.91723e-19)
(1.02098 0.924 3.50479e-19)
(0.941763 0.887705 -8.37102e-19)
(0.853491 0.843572 -8.24316e-19)
(0.755767 0.787735 1.26658e-18)
(0.662942 0.723382 2.51765e-18)
(0.590694 0.660039 0)
(0.538845 0.601154 0)
(0.503495 0.547561 -2.84213e-19)
(0.475616 0.494086 0)
(0.428586 0.422699 7.99412e-19)
(0.328745 0.309912 9.4407e-19)
(0.185964 0.16831 0)
(0.0621508 0.0536361 0)
(0.00222388 0.00203203 7.6918e-19)
(0.238559 0.198461 -1.04833e-19)
(1.04401 0.866687 -8.87577e-20)
(1.19671 1.01093 -1.73079e-19)
(1.19312 1.03048 3.18594e-19)
(1.14247 1.0121 2.99199e-19)
(1.07945 0.985474 4.755e-19)
(1.00847 0.95417 -4.94254e-19)
(0.928578 0.917278 3.52494e-22)
(0.839043 0.872656 -4.98738e-21)
(0.739024 0.816367 -5.86992e-21)
(0.642637 0.751148 1.29783e-18)
(0.566202 0.685863 0)
(0.510237 0.623753 8.86124e-19)
(0.471093 0.565186 6.05896e-19)
(0.440318 0.503107 1.44831e-18)
(0.391307 0.418357 4.28856e-19)
(0.293318 0.292015 -5.0822e-19)
(0.161356 0.147079 -2.98875e-19)
(0.052151 0.0417698 0)
(0.000811646 0.000273998 8.25476e-19)
(0.239186 0.20629 2.1128e-19)
(1.03742 0.894495 0)
(1.18637 1.04147 -1.74874e-19)
(1.18179 1.06079 2.49542e-19)
(1.13097 1.04169 -3.07555e-19)
(1.06782 1.01443 -6.34788e-19)
(0.996634 0.982517 1.03243e-18)
(0.916175 0.945182 -6.29137e-20)
(0.825515 0.900285 0)
(0.723349 0.843864 -1.42078e-18)
(0.62344 0.778323 -2.83904e-18)
(0.542533 0.711641 1.09997e-19)
(0.481876 0.646791 1.21618e-18)
(0.437526 0.583565 0)
(0.401445 0.511577 9.718e-19)
(0.348416 0.408807 0)
(0.254405 0.262883 0)
(0.143909 0.110171 -3.22738e-19)
(0.069516 0.0159081 0)
(0.0242548 0.00583557 2.21084e-19)
(0.239345 0.213492 2.15391e-19)
(1.03097 0.921007 0)
(1.1763 1.07012 -2.66908e-19)
(1.17082 1.08922 0)
(1.11993 1.06952 1.54793e-19)
(1.05669 1.04173 0)
(0.985392 1.00935 6.28215e-20)
(0.90446 0.971756 1.18662e-19)
(0.812794 0.926826 1.03947e-19)
(0.708591 0.870616 -1.57398e-18)
(0.605219 0.805354 8.77018e-20)
(0.519528 0.737942 8.72349e-19)
(0.453528 0.670845 1.18422e-18)
(0.402311 0.603635 1.56352e-19)
(0.35757 0.521535 7.56372e-19)
(0.295909 0.396441 0)
(0.20122 0.223621 1.06493e-18)
(0.105369 0.0509612 -6.24036e-19)
(0.036082 0.0584248 7.26833e-19)
(-0.0369456 0.439494 -8.65921e-19)
(0.239418 0.220471 -1.66361e-19)
(1.02448 0.946098 -2.90994e-19)
(1.16643 1.0972 0)
(1.16008 1.11621 5.32093e-21)
(1.10917 1.09615 -3.95602e-19)
(1.04582 1.06807 1.09849e-18)
(0.974454 1.03546 3.99852e-19)
(0.893051 0.997942 0)
(0.80038 0.953381 7.25456e-19)
(0.694114 0.897933 -8.62421e-20)
(0.587109 0.83373 0)
(0.496078 0.766551 0)
(0.423865 0.697732 1.05844e-18)
(0.363953 0.627064 -4.77653e-19)
(0.306323 0.536279 -7.61007e-19)
(0.230044 0.387037 0)
(0.112879 0.208933 5.33245e-19)
(0.0131883 0.455813 -6.20342e-19)
(0.0373081 1.88824 -3.55415e-19)
(0.0650084 2.8041 -4.43355e-19)
(0.239147 0.226851 1.09881e-19)
(1.01799 0.969944 3.45956e-19)
(1.15679 1.1227 -1.4259e-19)
(1.1496 1.14162 -1.75576e-19)
(1.09877 1.12138 0)
(1.03527 1.09317 7.51872e-19)
(0.964008 1.06053 6.07023e-19)
(0.882119 1.02331 -6.13882e-20)
(0.788529 0.979427 1.06856e-19)
(0.680283 0.925196 1.52589e-18)
(0.569708 0.862728 1.45704e-18)
(0.473167 0.797069 9.8461e-19)
(0.394046 0.727022 1.06222e-18)
(0.324549 0.652374 -1.11519e-18)
(0.254476 0.558143 -1.14317e-18)
(0.150534 0.418831 0)
(0.0537096 0.857121 0)
(0.101484 2.55436 3.03064e-19)
(0.104356 3.19493 0)
(0.105075 3.38314 7.60608e-19)
(0.241567 0.232748 0)
(1.01172 0.992848 0)
(1.1471 1.14648 0)
(1.13916 1.16525 -4.2959e-20)
(1.08844 1.145 -3.4195e-19)
(1.02484 1.11688 5.33718e-19)
(0.953979 1.08447 4.13765e-19)
(0.871595 1.04772 -6.22454e-20)
(0.777177 1.00479 9.5141e-19)
(0.667086 0.952238 -1.02885e-20)
(0.553104 0.892126 2.91127e-18)
(0.451205 0.82947 -1.11763e-19)
(0.364448 0.759157 1.30614e-19)
(0.286233 0.677114 1.59931e-19)
(0.197354 0.586043 4.42015e-22)
(0.113893 0.997901 1.60718e-21)
(0.143713 2.71478 -1.55022e-18)
(0.152385 3.29214 -5.96177e-19)
(0.13977 3.42444 3.2522e-19)
(0.125736 3.4457 -3.70646e-19)
(0.163636 0.177364 -5.35407e-20)
(1.00121 1.01776 0)
(1.13728 1.1688 2.42484e-19)
(1.12914 1.18741 4.12017e-19)
(1.07862 1.16748 -6.4124e-19)
(1.01515 1.13963 -5.5205e-19)
(0.944155 1.1073 -4.57785e-19)
(0.861515 1.07121 7.99449e-19)
(0.766455 1.02947 -8.04106e-19)
(0.654815 0.979031 0)
(0.537689 0.921814 1.45613e-18)
(0.430684 0.863485 -8.12878e-19)
(0.335658 0.796902 0)
(0.249361 0.707021 1.51456e-19)
(0.162055 0.857896 3.60742e-19)
(0.158263 2.49296 -4.27236e-19)
(0.215113 3.32725 4.86611e-19)
(0.193827 3.44079 2.76072e-19)
(0.159861 3.4602 3.18314e-19)
(0.137998 3.46895 5.41809e-19)
(0.276515 0.270943 1.10936e-19)
(0.983972 1.02767 0)
(1.11949 1.19418 -2.25426e-19)
(1.11523 1.22046 -3.87587e-19)
(1.06303 1.20098 6.08921e-19)
(0.999155 1.17365 5.21252e-19)
(0.92719 1.14265 5.98628e-19)
(0.843961 1.1078 6.10312e-20)
(0.747641 1.06825 8.1961e-19)
(0.633411 1.02183 1.4096e-18)
(0.511447 0.97073 8.64836e-20)
(0.397116 0.920789 7.39842e-19)
(0.284208 0.866261 1.25958e-19)
(0.221424 1.01978 -1.5106e-19)
(0.229426 2.35629 -3.46553e-19)
(0.283808 3.33563 3.65188e-19)
(0.268321 3.47375 -4.24667e-19)
(0.231587 3.49221 -2.5017e-19)
(0.195269 3.51609 -2.52769e-19)
(0.147399 3.50849 -2.87859e-20)
(0.266444 0.269704 0)
(0.981286 1.05031 -4.18296e-20)
(1.1115 1.21749 3.91611e-20)
(1.10543 1.24358 3.7832e-20)
(1.05311 1.22403 3.76114e-19)
(0.989361 1.19692 -4.94669e-19)
(0.917132 1.16617 -3.76533e-19)
(0.833809 1.13217 5.80486e-20)
(0.737156 1.09412 -8.8415e-19)
(0.621965 1.0506 -1.48072e-20)
(0.497738 1.00421 -2.73954e-18)
(0.379698 0.960023 1.0474e-19)
(0.273562 0.939742 -1.21632e-19)
(0.258109 1.53883 -1.44758e-19)
(0.321878 3.11657 1.77667e-20)
(0.340729 3.47731 2.38515e-21)
(0.297027 3.52905 7.44776e-19)
(0.26068 3.54877 4.12176e-19)
(0.212719 3.56834 -1.93467e-19)
(0.159357 3.56256 -1.77796e-19)
(0.252049 0.267329 -8.52844e-20)
(0.977613 1.07544 -2.64099e-19)
(1.10304 1.24277 1.09949e-19)
(1.09522 1.26821 1.44297e-19)
(1.04284 1.2485 0)
(0.979228 1.22141 -6.44363e-19)
(0.906983 1.19093 -5.29424e-19)
(0.823828 1.15771 5.49477e-20)
(0.727156 1.12122 -9.64094e-20)
(0.611525 1.08075 -1.36964e-18)
(0.485849 1.03952 -1.30858e-18)
(0.366392 1.00251 -8.97336e-19)
(0.280107 1.07814 -9.33566e-19)
(0.322333 2.23572 9.46764e-19)
(0.403961 3.39615 8.59325e-19)
(0.381436 3.54014 0)
(0.329462 3.57633 0)
(0.291291 3.60993 -1.65257e-19)
(0.240688 3.65812 0)
(0.169017 3.63618 -3.01927e-19)
(0.241681 0.268787 1.05741e-19)
(0.971894 1.10135 1.96158e-19)
(1.09322 1.26926 0)
(1.08383 1.29373 6.28718e-21)
(1.03145 1.27363 3.17607e-19)
(0.968086 1.24643 -9.00307e-19)
(0.896142 1.2162 -3.30618e-19)
(0.813387 1.18367 4.85738e-20)
(0.716961 1.14867 -7.0758e-19)
(0.60131 1.11123 7.51006e-20)
(0.475004 1.07535 0)
(0.35731 1.04912 0)
(0.310321 1.33486 -8.88046e-19)
(0.401006 2.90664 3.67927e-19)
(0.47339 3.50672 5.2443e-19)
(0.420752 3.57854 0)
(0.376938 3.63216 -2.30702e-19)
(0.330449 3.68265 2.16493e-19)
(0.27945 3.65092 5.26154e-20)