/*--------------------------------*- C++ -*----------------------------------*\
  =========                 |
  \\      /  F ield         | OpenFOAM: The Open Source CFD Toolbox
   \\    /   O peration     | Website:  https://openfoam.org
    \\  /    A nd           | Version:  6
     \\/     M anipulation  |
\*---------------------------------------------------------------------------*/
FoamFile
{
    version     2.0;
    format      ascii;
    class       volVectorField;
    location    "4.5";
    object      U;
}
// * * * * * * * * * * * * * * * * * * * * * * * * * * * * * * * * * * * * * //

dimensions      [0 1 -1 0 0 0 0];

internalField   nonuniform List<vector> 
5250
(
(3 3.25496e-09 0)
(2.99999 2.50195e-08 0)
(2.99997 7.72783e-08 0)
(2.99993 2.31716e-07 0)
(2.99982 5.48942e-07 0)
(2.9996 1.44946e-06 0)
(2.99895 3.2515e-06 0)
(2.9977 8.45008e-06 0)
(2.99383 1.85148e-05 0)
(2.98686 5.00369e-05 0)
(2.96234 0.000106191 0)
(2.91425 0.000299489 0)
(2.7569 0.000721056 0)
(2.29052 0.00198798 0)
(1.21483 0.0053813 0)
(0.29728 0.0140939 0)
(0.349661 0.020293 0)
(0.461617 0.026007 0)
(0.524662 0.0298393 0)
(0.496654 0.0328408 0)
(0.406279 0.0344151 0)
(0.287661 0.0363574 0)
(0.199298 0.0409678 0)
(0.124401 0.0481213 0)
(0.0652497 0.0571138 0)
(3 1.00927e-08 0)
(2.99999 7.79631e-08 0)
(2.99997 2.40204e-07 0)
(2.99993 7.21319e-07 0)
(2.99982 1.70559e-06 0)
(2.9996 4.51124e-06 0)
(2.99896 1.01025e-05 0)
(2.99771 2.63542e-05 0)
(2.99386 5.73925e-05 0)
(2.98693 0.000157244 0)
(2.96255 0.000329554 0)
(2.91478 0.000954197 0)
(2.75819 0.00227235 0)
(2.29461 0.00642591 0)
(1.2244 0.0175068 0)
(0.305775 0.0454705 0)
(0.355206 0.0610572 0)
(0.465303 0.0733502 0)
(0.525547 0.0799771 0)
(0.495289 0.084049 0)
(0.404629 0.0846882 0)
(0.288864 0.0871541 0)
(0.201786 0.0937948 0)
(0.124243 0.101865 0)
(0.0627647 0.107207 0)
(3 1.77036e-08 0)
(2.99999 1.37092e-07 0)
(2.99997 4.21859e-07 0)
(2.99993 1.26824e-06 0)
(2.99982 2.99615e-06 0)
(2.9996 7.93766e-06 0)
(2.99897 1.77631e-05 0)
(2.99774 4.64963e-05 0)
(2.99394 0.000100887 0)
(2.98708 0.000279329 0)
(2.96299 0.000580576 0)
(2.91593 0.00171421 0)
(2.7611 0.00405342 0)
(2.30414 0.0116889 0)
(1.24759 0.0319756 0)
(0.327581 0.0828533 0)
(0.366565 0.105388 0)
(0.471704 0.122196 0)
(0.527477 0.132145 0)
(0.494278 0.139256 0)
(0.403719 0.142983 0)
(0.291677 0.150252 0)
(0.206436 0.161715 0)
(0.125611 0.17304 0)
(0.060523 0.177891 0)
(3 2.62628e-08 0)
(2.99999 2.03351e-07 0)
(2.99997 6.25769e-07 0)
(2.99993 1.88152e-06 0)
(2.99982 4.44505e-06 0)
(2.99961 1.17806e-05 0)
(2.99899 2.63637e-05 0)
(2.99778 6.90782e-05 0)
(2.99406 0.000149721 0)
(2.98733 0.000416004 0)
(2.96371 0.000861434 0)
(2.91779 0.00256701 0)
(2.76584 0.00602229 0)
(2.3199 0.0175867 0)
(1.28595 0.0478791 0)
(0.361993 0.123206 0)
(0.381237 0.149924 0)
(0.480052 0.169042 0)
(0.531411 0.182117 0)
(0.49611 0.193079 0)
(0.407052 0.202411 0)
(0.2996 0.216281 0)
(0.215774 0.233419 0)
(0.130806 0.249595 0)
(0.0600194 0.257349 0)
(3 3.60365e-08 0)
(2.99999 2.78984e-07 0)
(2.99997 8.58584e-07 0)
(2.99993 2.58118e-06 0)
(2.99983 6.09838e-06 0)
(2.99962 1.61588e-05 0)
(2.99902 3.6164e-05 0)
(2.99784 9.4721e-05 0)
(2.99422 0.000205322 0)
(2.98768 0.000570116 0)
(2.96474 0.00118007 0)
(2.9204 0.0035188 0)
(2.77261 0.00822741 0)
(2.34231 0.0240724 0)
(1.33986 0.0650866 0)
(0.407838 0.166595 0)
(0.397278 0.195183 0)
(0.489301 0.214303 0)
(0.53698 0.229897 0)
(0.50111 0.244726 0)
(0.415141 0.260822 0)
(0.312233 0.282003 0)
(0.229182 0.305414 0)
(0.140368 0.327294 0)
(0.0627428 0.339657 0)
(3 4.7463e-08 0)
(2.99999 3.6728e-07 0)
(2.99997 1.1305e-06 0)
(2.99994 3.39689e-06 0)
(2.99984 8.02577e-06 0)
(2.99964 2.1246e-05 0)
(2.99906 4.75441e-05 0)
(2.99792 0.000124341 0)
(2.99445 0.000269507 0)
(2.98815 0.000746565 0)
(2.96611 0.00154406 0)
(2.92388 0.00459952 0)
(2.7816 0.0107017 0)
(2.37195 0.0313358 0)
(1.41114 0.0838831 0)
(0.464961 0.214754 0)
(0.412386 0.241206 0)
(0.498266 0.257664 0)
(0.544407 0.275531 0)
(0.510003 0.294613 0)
(0.428865 0.318441 0)
(0.330679 0.347953 0)
(0.247927 0.379505 0)
(0.154401 0.409439 0)
(0.0681826 0.428399 0)
(3 6.14676e-08 0)
(2.99999 4.75483e-07 0)
(2.99997 1.46383e-06 0)
(2.99994 4.39598e-06 0)
(2.99984 1.03895e-05 0)
(2.99965 2.74673e-05 0)
(2.9991 6.1495e-05 0)
(2.99803 0.000160181 0)
(2.99474 0.000348767 0)
(2.98875 0.000952464 0)
(2.96788 0.00199254 0)
(2.92831 0.00580898 0)
(2.7931 0.0134948 0)
(2.40959 0.0396378 0)
(1.50167 0.103963 0)
(0.533324 0.269093 0)
(0.42401 0.287157 0)
(0.506348 0.298088 0)
(0.554243 0.3181 0)
(0.523723 0.343404 0)
(0.449192 0.375584 0)
(0.35612 0.415117 0)
(0.273993 0.457165 0)
(0.175945 0.498661 0)
(0.0785925 0.529729 0)
(3 7.94152e-08 0)
(2.99999 6.16035e-07 0)
(2.99998 1.89653e-06 0)
(2.99994 5.70563e-06 0)
(2.99986 1.3515e-05 0)
(2.99968 3.57754e-05 0)
(2.99917 8.04747e-05 0)
(2.99816 0.000207825 0)
(2.99511 0.000464746 0)
(2.98952 0.00119986 0)
(2.97007 0.00267689 0)
(2.93379 0.00709584 0)
(2.80753 0.0168407 0)
(2.45545 0.0490253 0)
(1.61115 0.125118 0)
(0.611059 0.331163 0)
(0.42785 0.332274 0)
(0.512302 0.334893 0)
(0.567981 0.355745 0)
(0.543932 0.391254 0)
(0.47735 0.431893 0)
(0.39093 0.483008 0)
(0.310412 0.539373 0)
(0.209195 0.598196 0)
(0.0975584 0.65329 0)
(3 1.00809e-07 0)
(2.99999 7.77532e-07 0)
(2.99998 2.39757e-06 0)
(2.99995 7.2025e-06 0)
(2.99987 1.71283e-05 0)
(2.99971 4.52652e-05 0)
(2.99925 0.000102594 0)
(2.99835 0.000261818 0)
(2.99557 0.000598837 0)
(2.9906 0.0014771 0)
(2.9727 0.00339289 0)
(2.94046 0.00875472 0)
(2.82529 0.0201697 0)
(2.50943 0.0586531 0)
(1.73984 0.147521 0)
(0.694775 0.400678 0)
(0.419839 0.37618 0)
(0.514201 0.366906 0)
(0.586106 0.389067 0)
(0.572174 0.436684 0)
(0.513692 0.486727 0)
(0.437673 0.551163 0)
(0.362489 0.623791 0)
(0.265161 0.710308 0)
(0.135296 0.81617 0)
(3 2.22865e-08 0)
(2.99999 1.08216e-06 0)
(2.99998 1.97423e-06 0)
(2.99996 9.4765e-06 0)
(2.99989 1.47187e-05 0)
(2.99975 5.95677e-05 0)
(2.99935 8.74734e-05 0)
(2.99858 0.000361455 0)
(2.99612 0.000449631 0)
(2.99186 0.00231381 0)
(2.97603 0.00183835 0)
(2.94818 0.0149465 0)
(2.84564 0.0121668 0)
(2.57555 0.0888039 0)
(1.88911 0.163149 0)
(0.790241 0.480663 0)
(0.409109 0.426643 0)
(0.518356 0.401293 0)
(0.612549 0.422509 0)
(0.610339 0.477204 0)
(0.560695 0.537418 0)
(0.497801 0.615002 0)
(0.437089 0.709369 0)
(0.363742 0.841037 0)
(0.210171 1.0672 0)
(3 1.25233e-08 0)
(2.99999 9.03625e-07 0)
(2.99999 1.57687e-06 0)
(2.99996 7.86628e-06 0)
(2.99991 1.17316e-05 0)
(2.99977 4.91045e-05 0)
(2.9995 7.00252e-05 0)
(2.99865 0.000294483 0)
(2.99719 0.000379196 0)
(2.99177 0.00190246 0)
(2.98296 0.00180359 0)
(2.94957 0.0131248 0)
(2.87847 0.0127524 0)
(2.6645 0.0811506 0)
(2.01621 0.174954 0)
(0.952354 0.516001 0)
(0.447525 0.478921 0)
(0.551347 0.452442 0)
(0.658602 0.462645 0)
(0.664497 0.515772 0)
(0.622173 0.583785 0)
(0.576822 0.67023 0)
(0.547346 0.782841 0)
(0.558462 0.942544 0)
(0.562194 1.20065 0)
(3 1.56141e-07 0)
(2.99999 2.97009e-07 0)
(2.99999 2.27481e-06 0)
(2.99997 3.30802e-06 0)
(2.99992 1.5587e-05 0)
(2.9998 2.08773e-05 0)
(2.99955 9.35112e-05 0)
(2.99883 0.00011178 0)
(2.99746 0.000587207 0)
(2.99307 0.000529341 0)
(2.98538 0.0040508 0)
(2.95794 0.00323095 0)
(2.90118 0.0268433 0)
(2.73234 0.0377182 0)
(2.21889 0.162217 0)
(1.1793 0.419051 0)
(0.553846 0.486063 0)
(0.620713 0.502823 0)
(0.721873 0.510725 0)
(0.736978 0.55794 0)
(0.699886 0.627034 0)
(0.66951 0.71443 0)
(0.670745 0.830308 0)
(0.7414 0.983366 0)
(0.858897 1.17404 0)
(3 1.37552e-07 0)
(3 2.6642e-07 0)
(2.99999 2.02038e-06 0)
(2.99997 3.0014e-06 0)
(2.99993 1.3956e-05 0)
(2.99984 1.93985e-05 0)
(2.99958 8.33597e-05 0)
(2.99906 0.000111388 0)
(2.99754 0.000495805 0)
(2.99464 0.000579082 0)
(2.98524 0.00320962 0)
(2.96783 0.00255946 0)
(2.90901 0.0206123 0)
(2.76387 0.0234492 0)
(2.3686 0.107406 0)
(1.2793 0.279991 0)
(0.596202 0.489183 0)
(0.653098 0.563345 0)
(0.757862 0.575876 0)
(0.79776 0.609039 0)
(0.776178 0.66894 0)
(0.762327 0.74858 0)
(0.78576 0.853166 0)
(0.877808 0.97909 0)
(1.02834 1.09474 0)
(3 5.84358e-08 0)
(3 4.59804e-07 0)
(2.99999 1.41121e-06 0)
(2.99997 4.28729e-06 0)
(2.99994 1.01484e-05 0)
(2.99986 2.71702e-05 0)
(2.99963 6.1181e-05 0)
(2.99918 0.000159978 0)
(2.99785 0.000358469 0)
(2.99532 0.000926915 0)
(2.98708 0.00213088 0)
(2.97234 0.00540623 0)
(2.92052 0.0129753 0)
(2.79707 0.0336553 0)
(2.45657 0.091349 0)
(1.43323 0.253497 0)
(0.697696 0.537041 0)
(0.678399 0.621855 0)
(0.765505 0.640606 0)
(0.830817 0.656342 0)
(0.836217 0.703868 0)
(0.842166 0.772924 0)
(0.881208 0.858988 0)
(0.97636 0.955087 0)
(1.12726 1.02857 0)
(3 5.89826e-08 0)
(3 4.57463e-07 0)
(2.99999 1.40861e-06 0)
(2.99998 4.24512e-06 0)
(2.99995 1.00661e-05 0)
(2.99988 2.67306e-05 0)
(2.99969 6.02072e-05 0)
(2.99931 0.000156481 0)
(2.99818 0.000347371 0)
(2.99612 0.000912822 0)
(2.98895 0.00199869 0)
(2.97695 0.00549646 0)
(2.93174 0.0120953 0)
(2.83214 0.0348118 0)
(2.54087 0.0881202 0)
(1.63325 0.25926 0)
(0.848841 0.591774 0)
(0.708296 0.64596 0)
(0.772242 0.671637 0)
(0.847443 0.682044 0)
(0.882004 0.723498 0)
(0.906964 0.784854 0)
(0.956343 0.855164 0)
(1.04918 0.92768 0)
(1.18979 0.979051 0)
(3 5.57389e-08 0)
(3 4.3198e-07 0)
(2.99999 1.33028e-06 0)
(2.99998 4.00472e-06 0)
(2.99995 9.48881e-06 0)
(2.9999 2.51647e-05 0)
(2.99974 5.65793e-05 0)
(2.99942 0.000147474 0)
(2.99848 0.000323097 0)
(2.9967 0.00087875 0)
(2.99087 0.00180889 0)
(2.98085 0.0055157 0)
(2.94389 0.0112142 0)
(2.86449 0.0361343 0)
(2.62935 0.0845342 0)
(1.87953 0.266886 0)
(1.03541 0.644912 0)
(0.749602 0.667085 0)
(0.790565 0.684191 0)
(0.866834 0.692571 0)
(0.921941 0.729856 0)
(0.960809 0.785172 0)
(1.01619 0.845239 0)
(1.10477 0.902285 0)
(1.23226 0.941186 0)
(3 5.17051e-08 0)
(3 4.01359e-07 0)
(2.99999 1.23573e-06 0)
(2.99999 3.72603e-06 0)
(2.99996 8.83255e-06 0)
(2.99992 2.34814e-05 0)
(2.99979 5.28301e-05 0)
(2.99953 0.000137761 0)
(2.99878 0.000304836 0)
(2.99736 0.000814557 0)
(2.99279 0.00173072 0)
(2.98486 0.00512485 0)
(2.95629 0.010323 0)
(2.89692 0.0335385 0)
(2.71971 0.0784976 0)
(2.16467 0.24356 0)
(1.27682 0.636872 0)
(0.846012 0.68895 0)
(0.843549 0.705779 0)
(0.903697 0.709094 0)
(0.966388 0.733432 0)
(1.01128 0.780153 0)
(1.06738 0.832296 0)
(1.14994 0.879291 0)
(1.26362 0.910767 0)
(3 4.47839e-08 0)
(3 3.46897e-07 0)
(2.99999 1.0686e-06 0)
(2.99999 3.2145e-06 0)
(2.99997 7.61811e-06 0)
(2.99993 2.01725e-05 0)
(2.99983 4.5353e-05 0)
(2.99963 0.000117491 0)
(2.99904 0.000260174 0)
(2.99789 0.000684152 0)
(2.99445 0.00147043 0)
(2.98807 0.00416991 0)
(2.96686 0.00857322 0)
(2.92422 0.0258315 0)
(2.79178 0.0621899 0)
(2.40546 0.179489 0)
(1.58335 0.496401 0)
(0.975372 0.694076 0)
(0.917404 0.731436 0)
(0.95087 0.740655 0)
(1.01264 0.747218 0)
(1.06222 0.779877 0)
(1.11543 0.82208 0)
(1.18968 0.860438 0)
(1.28961 0.886022 0)
(3 3.76355e-08 0)
(3 2.91471e-07 0)
(3 8.98126e-07 0)
(2.99999 2.69956e-06 0)
(2.99998 6.402e-06 0)
(2.99995 1.69162e-05 0)
(2.99987 3.81072e-05 0)
(2.99971 9.81931e-05 0)
(2.99926 0.000218458 0)
(2.99836 0.000562663 0)
(2.99569 0.00124551 0)
(2.99081 0.00326991 0)
(2.97393 0.00712963 0)
(2.94327 0.0194542 0)
(2.8364 0.0458645 0)
(2.54768 0.130957 0)
(1.86389 0.349266 0)
(1.10442 0.723333 0)
(0.968396 0.760727 0)
(0.986242 0.774769 0)
(1.04574 0.771218 0)
(1.1051 0.788107 0)
(1.15825 0.817809 0)
(1.22511 0.84702 0)
(1.31285 0.866883 0)
(3 3.09684e-08 0)
(3 2.3966e-07 0)
(3 7.38719e-07 0)
(2.99999 2.21881e-06 0)
(2.99998 5.2628e-06 0)
(2.99996 1.38889e-05 0)
(2.9999 3.12829e-05 0)
(2.99978 8.04824e-05 0)
(2.99943 0.000178897 0)
(2.99875 0.000461582 0)
(2.9967 0.00101002 0)
(2.99299 0.00272822 0)
(2.9801 0.00562742 0)
(2.95729 0.0172844 0)
(2.87666 0.0354106 0)
(2.66845 0.118679 0)
(2.14446 0.294239 0)
(1.28671 0.761919 0)
(1.01513 0.798108 0)
(1.01911 0.806599 0)
(1.07285 0.798799 0)
(1.13945 0.798788 0)
(1.19483 0.8163 0)
(1.25643 0.837403 0)
(1.33409 0.852475 0)
(3 2.49342e-08 0)
(3 1.92903e-07 0)
(3 5.94629e-07 0)
(2.99999 1.78539e-06 0)
(2.99999 4.23417e-06 0)
(2.99997 1.11682e-05 0)
(2.99992 2.51461e-05 0)
(2.99983 6.4657e-05 0)
(2.99957 0.000143657 0)
(2.99906 0.000370558 0)
(2.99757 0.00080982 0)
(2.99467 0.0021858 0)
(2.98589 0.00451646 0)
(2.96855 0.0136267 0)
(2.91519 0.0283744 0)
(2.78194 0.0903075 0)
(2.43635 0.225061 0)
(1.56672 0.648191 0)
(1.1292 0.792845 0)
(1.08134 0.821276 0)
(1.10941 0.823839 0)
(1.17162 0.813207 0)
(1.23069 0.818284 0)
(1.28792 0.831675 0)
(1.3562 0.842469 0)
(3 1.96201e-08 0)
(3 1.51753e-07 0)
(3 4.67758e-07 0)
(3 1.40362e-06 0)
(2.99999 3.32755e-06 0)
(2.99998 8.76768e-06 0)
(2.99994 1.97357e-05 0)
(2.99988 5.06564e-05 0)
(2.99969 0.000112609 0)
(2.9993 0.000288426 0)
(2.99821 0.000638057 0)
(2.99609 0.00164621 0)
(2.98955 0.00365118 0)
(2.97748 0.00947471 0)
(2.93737 0.0220379 0)
(2.8451 0.0581796 0)
(2.58912 0.148949 0)
(1.83827 0.432012 0)
(1.247 0.77795 0)
(1.13239 0.827128 0)
(1.14263 0.845193 0)
(1.19609 0.83492 0)
(1.25992 0.827445 0)
(1.31721 0.831582 0)
(1.37861 0.837424 0)
(3 1.53411e-08 0)
(3 1.18367e-07 0)
(3 3.65072e-07 0)
(3 1.09377e-06 0)
(2.99999 2.59391e-06 0)
(2.99998 6.822e-06 0)
(2.99996 1.53599e-05 0)
(2.99991 3.93372e-05 0)
(2.99977 8.7423e-05 0)
(2.9995 0.000223388 0)
(2.9987 0.000493504 0)
(2.99719 0.00127699 0)
(2.99237 0.0027818 0)
(2.98403 0.00758567 0)
(2.95407 0.0161002 0)
(2.89199 0.0472626 0)
(2.70597 0.113838 0)
(2.1291 0.342775 0)
(1.43996 0.785944 0)
(1.19027 0.85121 0)
(1.17854 0.866001 0)
(1.21587 0.85863 0)
(1.27971 0.8424 0)
(1.3414 0.837544 0)
(1.40026 0.837678 0)
(3 8.44927e-09 0)
(3 9.90979e-08 0)
(3 2.55468e-07 0)
(3 8.91786e-07 0)
(2.99999 1.83778e-06 0)
(2.99999 5.52534e-06 0)
(2.99997 1.09031e-05 0)
(2.99994 3.1784e-05 0)
(2.99984 6.19663e-05 0)
(2.99964 0.000180339 0)
(2.99909 0.000348127 0)
(2.998 0.0010355 0)
(2.99478 0.00191733 0)
(2.98865 0.00628168 0)
(2.96941 0.0104844 0)
(2.92955 0.0397349 0)
(2.81011 0.0749994 0)
(2.46108 0.263482 0)
(1.76577 0.640754 0)
(1.31165 0.845346 0)
(1.24111 0.872921 0)
(1.25172 0.877589 0)
(1.30368 0.861242 0)
(1.36556 0.848501 0)
(1.42222 0.842899 0)
(3 6.17128e-09 0)
(3 7.11785e-08 0)
(3 1.84687e-07 0)
(3 6.41759e-07 0)
(3 1.32934e-06 0)
(2.99999 3.9771e-06 0)
(2.99998 7.88821e-06 0)
(2.99995 2.28599e-05 0)
(2.9999 4.48547e-05 0)
(2.99973 0.000129458 0)
(2.99941 0.000252486 0)
(2.99849 0.000734958 0)
(2.99673 0.00141274 0)
(2.9912 0.00427557 0)
(2.98135 0.00784376 0)
(2.9474 0.0258222 0)
(2.87454 0.0497244 0)
(2.65627 0.161867 0)
(2.04058 0.427804 0)
(1.45819 0.828683 0)
(1.29241 0.885036 0)
(1.28611 0.897013 0)
(1.32423 0.884726 0)
(1.38506 0.862689 0)
(1.44256 0.851389 0)
(3 9.24251e-09 0)
(3 3.74102e-08 0)
(3 1.65606e-07 0)
(3 3.69244e-07 0)
(3 1.15268e-06 0)
(2.99999 2.33066e-06 0)
(2.99999 6.78271e-06 0)
(2.99997 1.34226e-05 0)
(2.99993 3.8502e-05 0)
(2.99982 7.56186e-05 0)
(2.99959 0.000217339 0)
(2.99896 0.000422912 0)
(2.99773 0.00124202 0)
(2.99402 0.00233951 0)
(2.9873 0.00742732 0)
(2.96463 0.0131786 0)
(2.91887 0.0457832 0)
(2.78097 0.0947803 0)
(2.36319 0.31464 0)
(1.722 0.724662 0)
(1.39131 0.875615 0)
(1.33943 0.902924 0)
(1.35223 0.904098 0)
(1.40359 0.882451 0)
(1.46304 0.863334 0)
(3 6.51528e-09 0)
(3 2.69555e-08 0)
(3 1.17861e-07 0)
(3 2.65227e-07 0)
(3 8.20424e-07 0)
(3 1.67294e-06 0)
(2.99999 4.82445e-06 0)
(2.99998 9.63326e-06 0)
(2.99995 2.73551e-05 0)
(2.99988 5.42744e-05 0)
(2.9997 0.000154047 0)
(2.99935 0.000303938 0)
(2.99833 0.000873244 0)
(2.99634 0.00168592 0)
(2.99041 0.00513194 0)
(2.97866 0.00923859 0)
(2.94348 0.0312979 0)
(2.86012 0.0610994 0)
(2.6255 0.196854 0)
(2.01139 0.525055 0)
(1.51884 0.856944 0)
(1.39336 0.908881 0)
(1.38623 0.92083 0)
(1.42126 0.907123 0)
(1.47816 0.879322 0)
(3 2.31125e-09 0)
(3 2.51034e-08 0)
(3 6.68295e-08 0)
(3 2.26841e-07 0)
(3 4.79599e-07 0)
(3 1.40377e-06 0)
(2.99999 2.83767e-06 0)
(2.99999 8.04229e-06 0)
(2.99996 1.60816e-05 0)
(2.99992 4.53264e-05 0)
(2.9998 9.01685e-05 0)
(2.99956 0.000255219 0)
(2.99889 0.000503792 0)
(2.99756 0.00145151 0)
(2.99361 0.00282332 0)
(2.98635 0.00840987 0)
(2.96249 0.0166236 0)
(2.91306 0.0503345 0)
(2.76682 0.114849 0)
(2.33299 0.355326 0)
(1.74935 0.76594 0)
(1.47608 0.899503 0)
(1.43253 0.925918 0)
(1.44387 0.926341 0)
(1.49077 0.90201 0)
(3 2.11212e-09 0)
(3 1.62526e-08 0)
(3 5.01708e-08 0)
(3 1.49923e-07 0)
(3 3.55558e-07 0)
(3 9.3088e-07 0)
(3 2.09538e-06 0)
(2.99999 5.32958e-06 0)
(2.99998 1.18533e-05 0)
(2.99995 2.99627e-05 0)
(2.99988 6.63672e-05 0)
(2.99969 0.000167822 0)
(2.99932 0.000370526 0)
(2.99827 0.000944377 0)
(2.99619 0.00206265 0)
(2.99019 0.00545364 0)
(2.9777 0.0115665 0)
(2.94228 0.0322542 0)
(2.85755 0.0757148 0)
(2.61908 0.210996 0)
(2.03077 0.581236 0)
(1.6033 0.870985 0)
(1.49048 0.925384 0)
(1.47885 0.938856 0)
(1.50641 0.92656 0)
(3 1.79172e-09 0)
(3 9.62866e-09 0)
(3 3.58739e-08 0)
(3 9.19223e-08 0)
(3 2.51781e-07 0)
(3 5.75377e-07 0)
(3 1.48156e-06 0)
(2.99999 3.30074e-06 0)
(2.99998 8.38706e-06 0)
(2.99997 1.85573e-05 0)
(2.99992 4.71036e-05 0)
(2.99982 0.000103919 0)
(2.99953 0.000264999 0)
(2.99897 0.00058266 0)
(2.99736 0.00150054 0)
(2.99428 0.00332942 0)
(2.98471 0.00855409 0)
(2.96668 0.0200703 0)
(2.9088 0.0504677 0)
(2.76757 0.134324 0)
(2.3891 0.35293 0)
(1.79405 0.797912 0)
(1.55709 0.920968 0)
(1.51706 0.944879 0)
(1.52529 0.945806 0)
(3 7.20681e-10 0)
(3 7.49305e-09 0)
(3 2.03007e-08 0)
(3 6.7984e-08 0)
(3 1.45802e-07 0)
(3 4.20853e-07 0)
(3 8.62671e-07 0)
(3 2.40679e-06 0)
(2.99999 4.88641e-06 0)
(2.99998 1.35207e-05 0)
(2.99995 2.73861e-05 0)
(2.99987 7.57075e-05 0)
(2.99972 0.000153067 0)
(2.9993 0.000425077 0)
(2.99848 0.000854443 0)
(2.99607 0.00242197 0)
(2.9916 0.00476359 0)
(2.9771 0.0143249 0)
(2.94996 0.0278581 0)
(2.86197 0.0875168 0)
(2.63084 0.214463 0)
(2.11921 0.572095 0)
(1.67979 0.886897 0)
(1.57182 0.943014 0)
(1.55747 0.955169 0)
(3 7.70949e-10 0)
(3 4.15491e-09 0)
(3 1.54502e-08 0)
(3 3.95955e-08 0)
(3 1.0818e-07 0)
(3 2.47128e-07 0)
(3 6.33949e-07 0)
(3 1.41184e-06 0)
(2.99999 3.56818e-06 0)
(2.99999 7.89734e-06 0)
(2.99997 1.98869e-05 0)
(2.99992 4.39105e-05 0)
(2.99982 0.000110554 0)
(2.99956 0.000243569 0)
(2.99903 0.000616162 0)
(2.99753 0.00134633 0)
(2.99463 0.00350809 0)
(2.98588 0.00738512 0)
(2.96926 0.0208475 0)
(2.91731 0.0442107 0)
(2.78772 0.132717 0)
(2.45741 0.340384 0)
(1.89313 0.773944 0)
(1.64314 0.923195 0)
(1.59634 0.952185 0)
(3 5.84053e-10 0)
(3 2.62131e-09 0)
(3 1.08742e-08 0)
(3 2.54386e-08 0)
(3 7.54198e-08 0)
(3 1.59043e-07 0)
(3 4.39809e-07 0)
(3 9.07235e-07 0)
(3 2.46663e-06 0)
(2.99999 5.06368e-06 0)
(2.99998 1.37057e-05 0)
(2.99995 2.80852e-05 0)
(2.99989 7.59842e-05 0)
(2.99972 0.000155266 0)
(2.9994 0.000421613 0)
(2.99847 0.000856266 0)
(2.99664 0.00236334 0)
(2.99144 0.00470828 0)
(2.98073 0.0137264 0)
(2.95058 0.0267596 0)
(2.87906 0.0829614 0)
(2.68611 0.193071 0)
(2.18483 0.546453 0)
(1.77685 0.871818 0)
(1.65129 0.942534 0)
(3 3.29674e-10 0)
(3 1.80087e-09 0)
(3 6.65726e-09 0)
(3 1.7084e-08 0)
(3 4.64642e-08 0)
(3 1.06192e-07 0)
(3 2.712e-07 0)
(3 6.04125e-07 0)
(3 1.52035e-06 0)
(2.99999 3.36563e-06 0)
(2.99999 8.44262e-06 0)
(2.99997 1.86468e-05 0)
(2.99993 4.67885e-05 0)
(2.99985 0.000103142 0)
(2.99961 0.000259577 0)
(2.99915 0.000571046 0)
(2.99784 0.00144412 0)
(2.9953 0.00320421 0)
(2.98777 0.00806039 0)
(2.97303 0.0187192 0)
(2.92893 0.0465126 0)
(2.82278 0.119952 0)
(2.53409 0.313028 0)
(2.00123 0.736426 0)
(1.73388 0.909569 0)
(3 1.56962e-10 0)
(3 1.2129e-09 0)
(3 3.74078e-09 0)
(3 1.11752e-08 0)
(3 2.64445e-08 0)
(3 6.89849e-08 0)
(3 1.54676e-07 0)
(3 3.91151e-07 0)
(3 8.65957e-07 0)
(3 2.17323e-06 0)
(2.99999 4.79494e-06 0)
(2.99998 1.20128e-05 0)
(2.99996 2.64619e-05 0)
(2.9999 6.63249e-05 0)
(2.99979 0.00014588 0)
(2.99946 0.000366859 0)
(2.99883 0.000804082 0)
(2.99695 0.00204717 0)
(2.99365 0.00446073 0)
(2.98229 0.0116452 0)
(2.96253 0.0259719 0)
(2.89435 0.0686036 0)
(2.72742 0.179733 0)
(2.3245 0.460444 0)
(1.86177 0.852872 0)
(3 1.37019e-10 0)
(3 6.12783e-10 0)
(3 2.53747e-09 0)
(3 5.96331e-09 0)
(3 1.75871e-08 0)
(3 3.72116e-08 0)
(3 1.02136e-07 0)
(3 2.11132e-07 0)
(3 5.69002e-07 0)
(3 1.16991e-06 0)
(3 3.13599e-06 0)
(2.99999 6.43781e-06 0)
(2.99997 1.72262e-05 0)
(2.99994 3.5303e-05 0)
(2.99986 9.45489e-05 0)
(2.9997 0.000193004 0)
(2.99924 0.000523043 0)
(2.99834 0.00104355 0)
(2.99576 0.00298561 0)
(2.99089 0.00562973 0)
(2.9759 0.0176952 0)
(2.94548 0.033353 0)
(2.85581 0.108777 0)
(2.61273 0.267834 0)
(2.14338 0.653929 0)
(3 5.76893e-11 0)
(3 4.4524e-10 0)
(3 1.37399e-09 0)
(3 4.09816e-09 0)
(3 9.69633e-09 0)
(3 2.52241e-08 0)
(3 5.6508e-08 0)
(3 1.42375e-07 0)
(3 3.14797e-07 0)
(3 7.86686e-07 0)
(3 1.73337e-06 0)
(2.99999 4.3222e-06 0)
(2.99998 9.50973e-06 0)
(2.99997 2.37076e-05 0)
(2.99992 5.20842e-05 0)
(2.99982 0.000130038 0)
(2.99954 0.000285173 0)
(2.999 0.000716202 0)
(2.99747 0.0015615 0)
(2.99454 0.00402229 0)
(2.98557 0.00856976 0)
(2.96913 0.0231831 0)
(2.91622 0.0517771 0)
(2.78517 0.145829 0)
(2.46178 0.374427 0)
(3 3.1227e-11 0)
(3 2.94871e-10 0)
(3 8.29912e-10 0)
(3 2.66624e-09 0)
(3 5.88079e-09 0)
(3 1.63149e-08 0)
(3 3.42705e-08 0)
(3 9.18584e-08 0)
(3 1.90846e-07 0)
(3 5.06952e-07 0)
(3 1.05085e-06 0)
(3 2.78363e-06 0)
(2.99999 5.76806e-06 0)
(2.99998 1.52639e-05 0)
(2.99995 3.16111e-05 0)
(2.99989 8.36876e-05 0)
(2.99973 0.000172964 0)
(2.99941 0.000459655 0)
(2.99851 0.000944676 0)
(2.99673 0.00255652 0)
(2.99175 0.00513504 0)
(2.98144 0.0148267 0)
(2.95302 0.0289179 0)
(2.88532 0.0889774 0)
(2.70567 0.209079 0)
(3 2.21642e-11 0)
(3 1.69836e-10 0)
(3 5.24848e-10 0)
(3 1.55938e-09 0)
(3 3.69192e-09 0)
(3 9.57338e-09 0)
(3 2.14612e-08 0)
(3 5.39293e-08 0)
(3 1.19345e-07 0)
(3 2.97585e-07 0)
(3 6.56434e-07 0)
(3 1.6337e-06 0)
(3 3.5999e-06 0)
(2.99999 8.95801e-06 0)
(2.99997 1.97199e-05 0)
(2.99993 4.91247e-05 0)
(2.99986 0.000107985 0)
(2.99964 0.000269862 0)
(2.99922 0.000592103 0)
(2.99804 0.00148717 0)
(2.99574 0.0032895 0)
(2.98908 0.0082354 0)
(2.97598 0.0189722 0)
(2.9379 0.0469934 0)
(2.84693 0.119602 0)
(3 1.64701e-11 0)
(3 8.89307e-11 0)
(3 3.29482e-10 0)
(3 8.44573e-10 0)
(3 2.29061e-09 0)
(3 5.22135e-09 0)
(3 1.32589e-08 0)
(3 2.94167e-08 0)
(3 7.34853e-08 0)
(3 1.61942e-07 0)
(3 4.02749e-07 0)
(3 8.85894e-07 0)
(3 2.20002e-06 0)
(2.99999 4.83509e-06 0)
(2.99998 1.20011e-05 0)
(2.99996 2.63489e-05 0)
(2.99991 6.54169e-05 0)
(2.99981 0.000143419 0)
(2.99953 0.000356937 0)
(2.99898 0.000779866 0)
(2.99737 0.00196111 0)
(2.99451 0.0042595 0)
(2.98496 0.0109401 0)
(2.96829 0.0242946 0)
(2.91289 0.0625921 0)
(3 7.40252e-12 0)
(3 5.70465e-11 0)
(3 1.76111e-10 0)
(3 5.24291e-10 0)
(3 1.23988e-09 0)
(3 3.21527e-09 0)
(3 7.19352e-09 0)
(3 1.80523e-08 0)
(3 3.98443e-08 0)
(3 9.91373e-08 0)
(3 2.18052e-07 0)
(3 5.41157e-07 0)
(3 1.18914e-06 0)
(3 2.948e-06 0)
(2.99999 6.4745e-06 0)
(2.99998 1.60418e-05 0)
(2.99995 3.51921e-05 0)
(2.99989 8.72327e-05 0)
(2.99975 0.000190953 0)
(2.99938 0.000476719 0)
(2.99864 0.00102852 0)
(2.99655 0.00266765 0)
(2.99262 0.00552065 0)
(2.9805 0.0154485 0)
(2.95729 0.0322128 0)
(3 5.4291e-12 0)
(3 2.92713e-11 0)
(3 1.08456e-10 0)
(3 2.77902e-10 0)
(3 7.53206e-10 0)
(3 1.71562e-09 0)
(3 4.35042e-09 0)
(3 9.64082e-09 0)
(3 2.40388e-08 0)
(3 5.29035e-08 0)
(3 1.31302e-07 0)
(3 2.88433e-07 0)
(3 7.14767e-07 0)
(3 1.56913e-06 0)
(2.99999 3.88611e-06 0)
(2.99999 8.52592e-06 0)
(2.99997 2.11179e-05 0)
(2.99994 4.62842e-05 0)
(2.99985 0.000114803 0)
(2.99967 0.000251323 0)
(2.9992 0.000626405 0)
(2.99825 0.00136566 0)
(2.9956 0.00347491 0)
(2.99047 0.00742896 0)
(2.97545 0.0198212 0)
(3 2.009e-12 0)
(3 1.89567e-11 0)
(3 5.34375e-11 0)
(3 1.71631e-10 0)
(3 3.78758e-10 0)
(3 1.04666e-09 0)
(3 2.19626e-09 0)
(3 5.84905e-09 0)
(3 1.2124e-08 0)
(3 3.1958e-08 0)
(3 6.60342e-08 0)
(3 1.73478e-07 0)
(3 3.58112e-07 0)
(3 9.39476e-07 0)
(3 1.93841e-06 0)
(2.99999 5.08208e-06 0)
(2.99999 1.04809e-05 0)
(2.99996 2.74782e-05 0)
(2.99992 5.66233e-05 0)
(2.9998 0.000148587 0)
(2.99957 0.000305657 0)
(2.99893 0.000805768 0)
(2.99767 0.00164757 0)
(2.99411 0.00443055 0)
(2.98714 0.00894239 0)
(3 1.672e-12 0)
(3 9.01808e-12 0)
(3 3.33685e-11 0)
(3 8.55155e-11 0)
(3 2.31086e-10 0)
(3 5.25985e-10 0)
(3 1.32784e-09 0)
(3 2.93817e-09 0)
(3 7.28588e-09 0)
(3 1.60007e-08 0)
(3 3.94741e-08 0)
(3 8.64919e-08 0)
(3 2.13048e-07 0)
(3 4.66426e-07 0)
(3 1.1484e-06 0)
(3 2.51329e-06 0)
(2.99999 6.18711e-06 0)
(2.99998 1.35344e-05 0)
(2.99995 3.33156e-05 0)
(2.99988 7.27813e-05 0)
(2.99974 0.000179347 0)
(2.99937 0.000390619 0)
(2.99862 0.000969491 0)
(2.99655 0.00210102 0)
(2.99252 0.00532643 0)
(3 9.09572e-13 0)
(3 4.98408e-12 0)
(3 1.83137e-11 0)
(3 4.70275e-11 0)
(3 1.26287e-10 0)
(3 2.87634e-10 0)
(3 7.21016e-10 0)
(3 1.59546e-09 0)
(3 3.9255e-09 0)
(3 8.61794e-09 0)
(3 2.10784e-08 0)
(3 4.61572e-08 0)
(3 1.12615e-07 0)
(3 2.46342e-07 0)
(3 6.00057e-07 0)
(3 1.31182e-06 0)
(2.99999 3.19014e-06 0)
(2.99999 6.96952e-06 0)
(2.99997 1.69152e-05 0)
(2.99992 3.69045e-05 0)
(2.99983 8.94008e-05 0)
(2.99959 0.000194543 0)
(2.99909 0.000471365 0)
(2.99773 0.00102121 0)
(2.99507 0.00249173 0)
(3 5.83311e-13 0)
(3 2.30338e-12 0)
(3 1.03089e-11 0)
(3 2.2495e-11 0)
(3 7.00514e-11 0)
(3 1.3747e-10 0)
(3 3.96395e-10 0)
(3 7.54069e-10 0)
(3 2.1394e-09 0)
(3 4.00858e-09 0)
(3 1.1378e-08 0)
(3 2.10608e-08 0)
(3 6.01321e-08 0)
(3 1.09918e-07 0)
(3 3.16473e-07 0)
(3 5.70427e-07 0)
(3 1.65929e-06 0)
(2.99999 2.94168e-06 0)
(2.99998 8.66699e-06 0)
(2.99994 1.50441e-05 0)
(2.99987 4.51154e-05 0)
(2.99968 7.60207e-05 0)
(2.99931 0.000234352 0)
(2.99823 0.00037451 0)
(2.99617 0.00123625 0)
(3 3.22998e-13 0)
(3 9.84274e-13 0)
(3 5.24079e-12 0)
(3 9.9652e-12 0)
(3 3.52898e-11 0)
(3 6.06477e-11 0)
(3 1.98139e-10 0)
(3 3.26607e-10 0)
(3 1.05895e-09 0)
(3 1.69038e-09 0)
(3 5.56628e-09 0)
(3 8.58909e-09 0)
(3 2.90239e-08 0)
(3 4.30443e-08 0)
(3 1.50415e-07 0)
(3 2.12564e-07 0)
(3 7.74813e-07 0)
(2.99999 1.03013e-06 0)
(2.99998 3.96612e-06 0)
(2.99995 4.85789e-06 0)
(2.99988 2.0186e-05 0)
(2.99974 2.19254e-05 0)
(2.99934 0.000102613 0)
(2.99857 9.04959e-05 0)
(2.99618 0.000537845 0)
(3 8.78678e-14 0)
(3 6.66951e-13 0)
(3 2.06745e-12 0)
(3 6.05904e-12 0)
(3 1.42921e-11 0)
(3 3.61347e-11 0)
(3 8.01237e-11 0)
(3 1.94449e-10 0)
(3 4.23434e-10 0)
(3 1.01277e-09 0)
(3 2.19106e-09 0)
(3 5.20178e-09 0)
(3 1.12166e-08 0)
(3 2.64721e-08 0)
(3 5.69385e-08 0)
(3 1.33525e-07 0)
(3 2.86468e-07 0)
(2.99999 6.66525e-07 0)
(2.99998 1.42535e-06 0)
(2.99996 3.28256e-06 0)
(2.99989 6.98263e-06 0)
(2.99975 1.58701e-05 0)
(2.99936 3.34561e-05 0)
(2.99859 7.60864e-05 0)
(2.9963 0.000150501 0)
(3 -3.66508e-14 0)
(3 5.8553e-13 0)
(3 5.06047e-13 0)
(3 4.77776e-12 0)
(3 3.97669e-12 0)
(3 2.84221e-11 0)
(3 2.23967e-11 0)
(3 1.58187e-10 0)
(3 1.15896e-10 0)
(3 8.67891e-10 0)
(3 5.85045e-10 0)
(3 4.75818e-09 0)
(3 2.94226e-09 0)
(3 2.61857e-08 0)
(3 1.492e-08 0)
(3 1.45032e-07 0)
(3 7.70528e-08 0)
(2.99999 8.10951e-07 0)
(2.99998 4.07222e-07 0)
(2.99996 4.59891e-06 0)
(2.99989 2.17418e-06 0)
(2.99977 2.65072e-05 0)
(2.99939 9.62972e-06 0)
(2.99866 0.000161545 0)
(2.99642 -9.75135e-06 0)
(3 -6.94002e-14 0)
(3 3.38457e-13 0)
(3 -2.62564e-13 0)
(3 2.54219e-12 0)
(3 -1.32632e-12 0)
(3 1.50362e-11 0)
(3 -7.54373e-12 0)
(3 8.52925e-11 0)
(3 -4.46577e-11 0)
(3 4.81032e-10 0)
(3 -2.63479e-10 0)
(3 2.71936e-09 0)
(3 -1.52612e-09 0)
(3 1.54495e-08 0)
(3 -8.62574e-09 0)
(3 8.83846e-08 0)
(3 -4.74409e-08 0)
(2.99999 5.10948e-07 0)
(2.99998 -2.55006e-07 0)
(2.99996 3.00297e-06 0)
(2.99991 -1.3758e-06 0)
(2.99976 1.7993e-05 0)
(2.99948 -9.44321e-06 0)
(2.99857 0.000117454 0)
(2.99705 -0.000116465 0)
(1.11142 1.14775 0)
(1.53153 1.02379 0)
(1.72662 0.849718 0)
(1.72933 0.644269 0)
(1.60057 0.404094 0)
(1.18195 0.192097 0)
(0.456706 0.138063 0)
(-0.0326943 0.194105 0)
(-0.136575 0.185929 0)
(-0.22274 0.132444 0)
(-0.314134 0.0813879 0)
(-0.416115 0.031338 0)
(-0.505679 0.00164453 0)
(-0.57985 -0.00343973 0)
(-0.641117 0.00325113 0)
(-0.690737 0.00831826 0)
(-0.734625 0.00975194 0)
(-0.778658 0.00836548 0)
(-0.823329 0.00477129 0)
(-0.866558 0.000668251 0)
(-0.907016 -0.0028848 0)
(-0.945291 -0.00577896 0)
(-0.983139 -0.00723529 0)
(-1.01398 -0.00620277 0)
(-1.03177 -0.00591073 0)
(-1.04077 -0.00635242 0)
(-1.04196 -0.0070176 0)
(-1.02809 -0.00805591 0)
(-0.99316 -0.0100912 0)
(-0.938246 -0.0129062 0)
(-0.867103 -0.0160171 0)
(-0.785204 -0.0190129 0)
(-0.697324 -0.0217955 0)
(-0.607199 -0.0247113 0)
(-0.518016 -0.0274066 0)
(-0.432297 -0.0299052 0)
(-0.351737 -0.0327454 0)
(-0.273432 -0.0369952 0)
(-0.198421 -0.0422677 0)
(-0.124437 -0.0455756 0)
(-0.0528845 -0.0485197 0)
(0.0340146 -0.0522621 0)
(0.0842471 -0.046143 0)
(0.13839 -0.0418768 0)
(0.19404 -0.0389459 0)
(0.247675 -0.0364957 0)
(0.298483 -0.034365 0)
(0.345284 -0.032257 0)
(0.391525 -0.0308478 0)
(0.439453 -0.0302695 0)
(0.486353 -0.0292333 0)
(0.530706 -0.0278562 0)
(0.57309 -0.026411 0)
(0.614012 -0.0250643 0)
(0.653629 -0.0238048 0)
(0.692052 -0.0226383 0)
(0.729285 -0.0215284 0)
(0.765421 -0.0204746 0)
(0.800506 -0.0194735 0)
(0.834594 -0.0185165 0)
(0.867721 -0.0176117 0)
(0.899925 -0.0167379 0)
(0.931253 -0.0159103 0)
(0.961726 -0.015103 0)
(0.991404 -0.0143345 0)
(1.0203 -0.013585 0)
(1.04848 -0.0128704 0)
(1.07595 -0.012175 0)
(1.10277 -0.0115124 0)
(1.12896 -0.0108692 0)
(1.15456 -0.0102587 0)
(1.17959 -0.0096688 0)
(1.20409 -0.0091118 0)
(1.22806 -0.00857767 0)
(1.25152 -0.00807743 0)
(1.27447 -0.00760384 0)
(1.29693 -0.00716763 0)
(1.31888 -0.00676469 0)
(1.34032 -0.00640656 0)
(1.36124 -0.0060918 0)
(1.38163 -0.00583309 0)
(1.40145 -0.00563052 0)
(1.4207 -0.00549754 0)
(1.43934 -0.00543473 0)
(1.45734 -0.00545523 0)
(1.47466 -0.00556256 0)
(1.49125 -0.00577081 0)
(1.50705 -0.00608757 0)
(1.522 -0.00652628 0)
(1.53602 -0.00709721 0)
(1.54903 -0.00781122 0)
(1.56088 -0.00867032 0)
(1.57141 -0.0096756 0)
(1.57997 -0.0107553 0)
(1.58691 -0.0119769 0)
(1.593 -0.0132276 0)
(1.59792 -0.0144597 0)
(1.60153 -0.0156431 0)
(1.60313 -0.0167674 0)
(1.61558 -0.018423 0)
(1.26028 1.05226 0)
(1.57991 0.820925 0)
(1.74123 0.537715 0)
(1.76192 0.296843 0)
(1.71461 0.100731 0)
(1.57541 -0.0468893 0)
(1.25206 -0.0264172 0)
(0.806499 0.15467 0)
(0.580227 0.197674 0)
(0.45191 0.193132 0)
(0.328412 0.177581 0)
(0.202388 0.155971 0)