/*--------------------------------*- C++ -*----------------------------------*\
  =========                 |
  \\      /  F ield         | OpenFOAM: The Open Source CFD Toolbox
   \\    /   O peration     | Website:  https://openfoam.org
    \\  /    A nd           | Version:  6
     \\/     M anipulation  |
\*---------------------------------------------------------------------------*/
FoamFile
{
    version     2.0;
    format      ascii;
    class       volVectorField;
    location    "67.4";
    object      U;
}
// * * * * * * * * * * * * * * * * * * * * * * * * * * * * * * * * * * * * * //

dimensions      [0 1 -1 0 0 0 0];

internalField   nonuniform List<vector> 
8800
(
(0.987184 -0.0766663 0)
(1.00189 -0.0551921 0)
(0.999722 -0.0285509 0)
(1.00002 -0.0151467 0)
(1.00009 -0.0085491 0)
(1.00011 -0.00505262 0)
(1.00007 -0.00300773 0)
(1.00002 -0.00170679 0)
(0.999998 -0.000799782 0)
(1.00006 -8.28286e-05 0)
(0.999979 0.000647628 0)
(0.999989 0.00141505 0)
(1.00003 0.00243526 0)
(1.00005 0.00400351 0)
(1.00004 0.00663388 0)
(1.00002 0.011372 0)
(0.999905 0.0208151 0)
(0.999153 0.0386714 0)
(1.0071 0.0724574 0)
(0.771213 0.0366613 0)
(0.363064 -0.0160179 0)
(1.04331 -0.0768195 0)
(1.08459 -0.070453 0)
(1.04519 -0.0535509 0)
(1.02328 -0.0389058 0)
(1.01201 -0.026232 0)
(1.00642 -0.0168737 0)
(1.00359 -0.010343 0)
(1.00215 -0.0056829 0)
(1.00145 -0.00202402 0)
(1.00131 0.00129987 0)
(1.00167 0.00468466 0)
(1.00265 0.00861975 0)
(1.00466 0.0139545 0)
(1.00859 0.0216606 0)
(1.01655 0.0326293 0)
(1.03247 0.0465432 0)
(1.06264 0.0616607 0)
(1.09187 0.0760993 0)
(0.838673 0.0565611 0)
(0.216834 -0.00243042 0)
(1.07588 -0.0501436 0)
(1.09987 -0.0483218 0)
(1.06463 -0.0404775 0)
(1.04002 -0.0336233 0)
(1.0239 -0.0261056 0)
(1.01411 -0.0185248 0)
(1.00855 -0.0117049 0)
(1.00558 -0.00583505 0)
(1.00432 -0.000414775 0)
(1.00466 0.00483391 0)
(1.00658 0.0102282 0)
(1.0106 0.0163208 0)
(1.01794 0.0233419 0)
(1.03052 0.030808 0)
(1.05061 0.0378403 0)
(1.08033 0.0445249 0)
(1.10625 0.0513415 0)
(0.942529 0.0416154 0)
(0.216156 0.00246152 0)
(0.175153 -0.000817147 0)
(1.01766 -0.0354946 0)
(1.10518 -0.0413958 0)
(1.07824 -0.0360836 0)
(1.05345 -0.030153 0)
(1.03619 -0.0245808 0)
(1.02399 -0.0188547 0)
(1.01587 -0.0127747 0)
(1.01101 -0.00658509 0)
(1.00881 -0.000246693 0)
(1.00937 0.00601265 0)
(1.01263 0.0120145 0)
(1.01886 0.017849 0)
(1.02877 0.0234201 0)
(1.04319 0.0287224 0)
(1.06371 0.0342093 0)
(1.09354 0.040195 0)
(1.0934 0.0419589 0)
(0.82715 0.0229126 0)
(0.174009 0.000852855 0)
(0.153944 -0.000611067 0)
(0.956134 -0.0254699 0)
(1.10343 -0.035148 0)
(1.08765 -0.0326759 0)
(1.0617 -0.0280264 0)
(1.04409 -0.0230054 0)
(1.03162 -0.017761 0)
(1.02278 -0.0122299 0)
(1.01696 -0.00629132 0)
(1.01411 0.000181773 0)
(1.01478 0.00664751 0)
(1.01876 0.0125363 0)
(1.02579 0.0178301 0)
(1.0361 0.0227407 0)
(1.05065 0.027501 0)
(1.07189 0.0320369 0)
(1.10006 0.0359727 0)
(1.06807 0.0340323 0)
(0.739535 0.0143146 0)
(0.152221 0.000651564 0)
(0.139565 -0.000467313 0)
(0.899211 -0.0190888 0)
(1.09574 -0.0301006 0)
(1.09571 -0.0292145 0)
(1.06922 -0.0254863 0)
(1.05078 -0.02135 0)
(1.03786 -0.0165796 0)
(1.02875 -0.0112929 0)
(1.02263 -0.00554712 0)
(1.0195 0.000785274 0)
(1.02011 0.00710274 0)
(1.0242 0.0127414 0)
(1.03136 0.0177043 0)
(1.04189 0.022162 0)
(1.057 0.0261318 0)
(1.0792 0.0296008 0)
(1.10226 0.0322263 0)
(1.03597 0.0281247 0)
(0.672953 0.0102141 0)
(0.137131 0.00051401 0)
(0.129018 -0.000361925 0)
(0.849602 -0.0147267 0)
(1.08334 -0.0259692 0)
(1.10139 -0.0262658 0)
(1.07606 -0.0229826 0)
(1.0571 -0.0193404 0)
(1.04372 -0.0150964 0)
(1.03426 -0.010174 0)
(1.0279 -0.00463935 0)
(1.02457 0.00151354 0)
(1.02504 0.00761688 0)
(1.02908 0.0129821 0)
(1.03636 0.0175375 0)
(1.04716 0.0213872 0)
(1.06267 0.0246919 0)
(1.08531 0.0276423 0)
(1.10135 0.0293969 0)
(1.00103 0.0236155 0)
(0.62109 0.00785284 0)
(0.125719 0.000416896 0)
(0.12097 -0.000281255 0)
(0.807445 -0.0115687 0)
(1.06806 -0.0223596 0)
(1.10491 -0.0236297 0)
(1.08232 -0.0207592 0)
(1.06294 -0.0173319 0)
(1.04928 -0.0133966 0)
(1.03954 -0.00881113 0)
(1.0329 -0.00354695 0)
(1.02932 0.00238893 0)
(1.02961 0.00824628 0)
(1.0336 0.0132633 0)
(1.04094 0.0173486 0)
(1.05184 0.0206883 0)
(1.06757 0.0235826 0)
(1.09054 0.0262348 0)
(1.09755 0.0270931 0)
(0.965718 0.0200831 0)
(0.57939 0.00632175 0)
(0.116619 0.000346642 0)
(0.114734 -0.00021803 0)
(0.771966 -0.00920574 0)
(1.05129 -0.0191807 0)
(1.10729 -0.0211893 0)
(1.08818 -0.0186889 0)
(1.06842 -0.0154046 0)
(1.05452 -0.0116294 0)
(1.04458 -0.00725575 0)
(1.03769 -0.00223469 0)
(1.03384 0.00344892 0)
(1.0339 0.00900802 0)
(1.03776 0.013648 0)
(1.04504 0.0173131 0)
(1.05594 0.0202625 0)
(1.07186 0.0228346 0)
(1.09449 0.0251426 0)
(1.09091 0.0251874 0)
(0.931337 0.0173616 0)
(0.544837 0.00527841 0)
(0.109105 0.000296224 0)
(0.109875 -0.000167137 0)
(0.742223 -0.00737072 0)
(1.0341 -0.0163617 0)
(1.10873 -0.018888 0)
(1.09376 -0.0166916 0)
(1.07372 -0.0134977 0)
(1.05956 -0.00981393 0)
(1.04942 -0.00556114 0)
(1.04231 -0.000711405 0)
(1.03816 0.00472813 0)
(1.03793 0.00997014 0)
(1.04155 0.0142507 0)
(1.04869 0.0175497 0)
(1.05956 0.0201471 0)
(1.07567 0.0224296 0)
(1.09715 0.0243618 0)
(1.08182 0.0236337 0)
(0.898442 0.0153011 0)
(0.515376 0.00455381 0)
(0.102694 0.000260995 0)
(0.10611 -0.000124796 0)
(0.717399 -0.00588952 0)
(1.01731 -0.0138305 0)
(1.10934 -0.0166628 0)
(1.09925 -0.0147411 0)
(1.07894 -0.0115589 0)
(1.06449 -0.00790364 0)
(1.05413 -0.00371218 0)
(1.04676 0.00101997 0)
(1.04228 0.00626107 0)
(1.04167 0.0112143 0)
(1.04499 0.015156 0)
(1.05193 0.0181036 0)
(1.06274 0.0203646 0)
(1.07902 0.0223818 0)
(1.09846 0.0239042 0)
(1.07065 0.0224297 0)
(0.867139 0.0137858 0)
(0.489549 0.0040578 0)
(0.0970428 0.000237915 0)
(0.103252 -8.80322e-05 0)
(0.696852 -0.00464592 0)
(1.00155 -0.0115195 0)
(1.10929 -0.0144742 0)
(1.10458 -0.0127373 0)
(1.08417 -0.00951487 0)
(1.0694 -0.00583185 0)
(1.05878 -0.00164661 0)
(1.0511 0.0030263 0)
(1.04621 0.00810788 0)
(1.04515 0.0127899 0)
(1.04808 0.0164102 0)
(1.0548 0.01902 0)
(1.06553 0.0209411 0)
(1.08193 0.0227041 0)
(1.09876 0.0238311 0)
(1.05767 0.021591 0)
(0.837259 0.0127281 0)
(0.466262 0.00373556 0)
(0.0918924 0.000224598 0)
(0.101181 -5.41908e-05 0)
(0.680115 -0.00355292 0)
(0.987256 -0.00935817 0)
(1.10878 -0.012241 0)
(1.10974 -0.010616 0)
(1.08948 -0.00733394 0)
(1.07436 -0.00356507 0)
(1.06343 0.000685555 0)
(1.05536 0.00535991 0)
(1.04998 0.0103416 0)
(1.04837 0.0147983 0)
(1.05085 0.0181033 0)
(1.05729 0.0203769 0)
(1.0679 0.0219592 0)
(1.08434 0.0234436 0)
(1.09805 0.0241454 0)
(1.04303 0.0211234 0)
(0.808464 0.0120536 0)
(0.444657 0.00354812 0)
(0.0870387 0.000219017 0)
(0.0998372 -2.09437e-05 0)
(0.666886 -0.00254047 0)
(0.974797 -0.00727037 0)
(1.10813 -0.00989782 0)
(1.11486 -0.0083013 0)
(1.09496 -0.00491403 0)
(1.07947 -0.00099205 0)
(1.06814 0.00338134 0)
(1.05961 0.00811572 0)
(1.05362 0.013045 0)
(1.05135 0.0172992 0)
(1.05329 0.0202948 0)
(1.05939 0.0222061 0)
(1.06986 0.0234274 0)
(1.08629 0.0246489 0)
(1.09608 0.0248975 0)
(1.02679 0.0210216 0)
(0.780318 0.0117119 0)
(0.42403 0.00347144 0)
(0.0823181 0.00021977 0)
(0.0992053 1.38148e-05 0)
(0.657014 -0.00155419 0)
(0.964486 -0.00518617 0)
(1.10768 -0.00739015 0)
(1.12008 -0.00572495 0)
(1.10069 -0.00217633 0)
(1.08478 0.00196112 0)
(1.073 0.0065326 0)
(1.0639 0.0113957 0)
(1.05717 0.0163109 0)
(1.0541 0.0203728 0)
(1.05539 0.02307 0)
(1.06107 0.0246278 0)
(1.07138 0.0254774 0)
(1.0877 0.0263798 0)
(1.09286 0.0260925 0)
(1.00888 0.021317 0)
(0.752336 0.011673 0)
(0.403793 0.00349052 0)
(0.0775951 0.00022617 0)
(0.0993027 4.6385e-05 0)
(0.650469 -0.00054765 0)
(0.956622 -0.00303274 0)
(1.10776 -0.00464576 0)
(1.12556 -0.0028129 0)
(1.10677 0.000957051 0)
(1.09039 0.00539042 0)
(1.07807 0.0102387 0)
(1.06827 0.0153033 0)
(1.06065 0.0202762 0)
(1.05662 0.0241805 0)
(1.05713 0.0265611 0)
(1.06234 0.0277345 0)
(1.07242 0.0281937 0)
(1.08833 0.0287232 0)
(1.08806 0.0277846 0)
(0.989159 0.0220451 0)
(0.723972 0.0119239 0)
(0.383408 0.00359758 0)
(0.0727478 0.000237667 0)
(0.100188 8.96964e-05 0)
(0.647346 0.000493422 0)
(0.951528 -0.000732665 0)
(1.10874 -0.00157635 0)
(1.1315 0.000563948 0)
(1.11331 0.00465791 0)
(1.09642 0.00947073 0)
(1.08344 0.0146721 0)
(1.07281 0.0200123 0)
(1.06411 0.0250836 0)
(1.05892 0.028833 0)
(1.05849 0.0308753 0)
(1.06313 0.0316544 0)
(1.07294 0.0316898 0)
(1.08806 0.0317928 0)
(1.08145 0.030071 0)
(0.967315 0.0232373 0)
(0.694625 0.0124533 0)
(0.362367 0.00378489 0)
(0.0676664 0.000253485 0)
(0.102044 0.000148122 0)
(0.648022 0.00165709 0)
(0.949572 0.00179601 0)
(1.11106 0.0019122 0)
(1.13812 0.00448363 0)
(1.12046 0.00900992 0)
(1.10297 0.0143077 0)
(1.08921 0.0199745 0)
(1.07755 0.0256737 0)
(1.06753 0.0308935 0)
(1.06096 0.0345032 0)
(1.05944 0.0361772 0)
(1.06339 0.0365301 0)
(1.07287 0.0361072 0)
(1.08661 0.0357128 0)
(1.07275 0.0330324 0)
(0.942947 0.0249302 0)
(0.663651 0.0132569 0)
(0.340199 0.00404545 0)
(0.0622563 0.000272827 0)
(0.104938 0.000211103 0)
(0.652928 0.00309937 0)
(0.951192 0.00471436 0)
(1.11518 0.00597494 0)
(1.14562 0.00912138 0)
(1.12838 0.0142203 0)
(1.11021 0.0201244 0)
(1.09549 0.0263605 0)
(1.08256 0.0325067 0)
(1.07096 0.037926 0)
(1.06274 0.0413814 0)
(1.05994 0.0426267 0)
(1.06307 0.0425244 0)
(1.07214 0.0415914 0)
(1.08386 0.0406674 0)
(1.0616 0.0367775 0)
(0.915499 0.0271709 0)
(0.630352 0.0143282 0)
(0.316449 0.00437119 0)
(0.056437 0.000294603 0)
(0.109156 0.000294205 0)
(0.662457 0.00477969 0)
(0.95687 0.00814728 0)
(1.12163 0.0107549 0)
(1.15432 0.014686 0)
(1.13728 0.0205547 0)
(1.11828 0.02721 0)
(1.10236 0.0341397 0)
(1.08788 0.0408126 0)
(1.07436 0.0464287 0)
(1.06419 0.0496549 0)
(1.05993 0.0504104 0)
(1.06208 0.0498069 0)
(1.07067 0.0482852 0)
(1.07987 0.0467529 0)
(1.04746 0.0414107 0)
(0.884265 0.029976 0)
(0.593975 0.0156452 0)
(0.290698 0.00474564 0)
(0.0501511 0.00031696 0)
(0.115036 0.000406725 0)
(0.677455 0.00688862 0)
(0.967284 0.0123054 0)
(1.13098 0.0164889 0)
(1.16458 0.0214096 0)
(1.14745 0.0282752 0)
(1.12737 0.0358578 0)
(1.10996 0.0436227 0)
(1.09353 0.050886 0)
(1.07768 0.0566912 0)
(1.06525 0.0596108 0)
(1.05923 0.0597359 0)
(1.06036 0.0585629 0)
(1.06842 0.0564004 0)
(1.07436 0.0541626 0)
(1.0297 0.047009 0)
(0.848388 0.033346 0)
(0.55375 0.0171636 0)
(0.262608 0.00514357 0)
(0.0433787 0.000337383 0)
(0.123099 0.000563468 0)
(0.698843 0.00964875 0)
(0.983297 0.0174998 0)
(1.14386 0.0235292 0)
(1.17686 0.0297191 0)
(1.15917 0.0378832 0)
(1.1377 0.0465793 0)
(1.11835 0.0552865 0)
(1.09951 0.0631529 0)
(1.08087 0.0690331 0)
(1.0658 0.0714586 0)
(1.05779 0.0708117 0)
(1.05779 0.0689512 0)
(1.06529 0.0660666 0)
(1.06694 0.0628644 0)
(1.00744 0.0536344 0)
(0.806855 0.0372258 0)
(0.508945 0.0187964 0)
(0.231981 0.00552548 0)
(0.0361536 0.000352436 0)
(0.134084 0.000790942 0)
(0.727916 0.0134445 0)
(1.00607 0.0241953 0)
(1.16111 0.0324175 0)
(1.19179 0.0402163 0)
(1.17281 0.0500659 0)
(1.14942 0.0600649 0)
(1.12754 0.0697685 0)
(1.10568 0.0781288 0)
(1.08371 0.0838287 0)
(1.06567 0.0854608 0)
(1.05551 0.0838441 0)
(1.05428 0.0811684 0)
(1.06093 0.0774082 0)
(1.05692 0.0730495 0)
(0.979559 0.0612679 0)
(0.758551 0.0414651 0)
(0.458974 0.020402 0)
(0.198853 0.00583553 0)
(0.0285821 0.000357954 0)
(0.149236 0.00114674 0)
(0.766648 0.0189013 0)
(1.03725 0.0331707 0)
(1.18366 0.0440775 0)
(1.21018 0.0540066 0)
(1.1887 0.0658179 0)
(1.16257 0.0772395 0)
(1.13735 0.0878319 0)
(1.11175 0.0963595 0)
(1.08592 0.101445 0)
(1.06461 0.101868 0)
(1.0522 0.0989797 0)
(1.04972 0.0953478 0)
(1.05506 0.0907876 0)
(1.04348 0.0847913 0)
(0.944646 0.0697269 0)
(0.702373 0.0457969 0)
(0.403603 0.0217655 0)
(0.163622 0.00600272 0)
(0.0208644 0.000349278 0)
(0.170741 0.00176433 0)
(0.818281 0.0271477 0)
(1.07944 0.0459724 0)
(1.21263 0.0603905 0)
(1.2326 0.0731421 0)
(1.20693 0.0867993 0)
(1.17691 0.0994516 0)
(1.14735 0.110433 0)
(1.11727 0.118462 0)
(1.08712 0.122197 0)
(1.06235 0.120804 0)
(1.04769 0.116308 0)
(1.04401 0.111538 0)
(1.04764 0.106077 0)
(1.02546 0.0979597 0)
(0.900935 0.0786402 0)
(0.63752 0.0497842 0)
(0.343301 0.0226191 0)
(0.127208 0.00595139 0)
(0.013308 0.000321948 0)
(0.201956 0.00311828 0)
(0.888557 0.0407815 0)
(1.13628 0.0663854 0)
(1.24843 0.0849601 0)
(1.25877 0.100439 0)
(1.22684 0.115419 0)
(1.19156 0.128352 0)
(1.15671 0.13858 0)
(1.12156 0.144963 0)
(1.0868 0.146302 0)
(1.05856 0.142332 0)
(1.04177 0.135811 0)
(1.03699 0.129674 0)
(1.03817 0.123153 0)
(1.00126 0.112192 0)
(0.846385 0.0873095 0)
(0.564143 0.0528383 0)
(0.279972 0.0227467 0)
(0.0913778 0.00564374 0)
(0.00639269 0.000270044 0)
(0.244554 0.0093064 7.2499e-21)
(0.981453 0.0677427 6.25638e-21)
(1.20538 0.100949 -2.20758e-21)
(1.28794 0.121419 0)
(1.28582 0.13948 -5.86955e-35)
(1.24623 0.153975 8.64591e-22)
(1.20495 0.165404 -1.59824e-21)
(1.16433 0.173442 0)
(1.12377 0.177106 3.37574e-35)
(1.08414 0.17528 -2.06394e-21)
(1.05224 0.168239 0)
(1.03324 0.159497 -2.49307e-21)
(1.02764 0.152156 -7.38537e-21)
(1.0253 0.145232 -3.50477e-21)
(0.966707 0.129978 -1.05973e-21)
(0.7749 0.0969771 -6.30704e-22)
(0.477214 0.0552413 0)
(0.21226 0.0225361 4.42132e-22)
(0.0562274 0.00534637 5.23635e-22)
(0.00010176 0.000194651 9.55858e-21)
(0.274067 0.02448 4.6715e-21)
(1.05835 0.110342 1.10589e-22)
(1.26239 0.150199 5.59319e-22)
(1.32337 0.170637 0)
(1.30953 0.188894 -2.88283e-21)
(1.26284 0.201255 -3.32768e-21)
(1.21562 0.210388 -1.58831e-21)
(1.16918 0.215952 -5.78671e-21)
(1.12303 0.216885 0)
(1.07815 0.21196 8.74689e-21)
(1.04218 0.201926 8.7492e-21)
(1.02074 0.191007 2.61417e-21)
(1.01295 0.181842 9.61505e-21)
(1.00214 0.172343 1.3601e-20)
(0.912136 0.150383 0)
(0.677948 0.106996 1.92519e-20)
(0.374762 0.0574453 2.7645e-20)
(0.141916 0.0216925 3.07702e-20)
(0.0210763 0.00388094 -3.52999e-20)
(-0.00624296 -0.000439847 -6.72955e-22)
(0.275482 0.0412666 0)
(1.10729 0.165462 6.52567e-22)
(1.30099 0.210447 0)
(1.35095 0.230581 -3.33858e-21)
(1.32813 0.246108 0)
(1.27549 0.254573 -6.35754e-21)
(1.22269 0.259952 3.20296e-21)
(1.17071 0.261924 -1.14798e-20)
(1.11925 0.259245 -3.19506e-22)
(1.06944 0.250554 4.49125e-21)
(1.02967 0.237057 1.92818e-20)
(1.00591 0.223599 -4.24185e-23)
(0.995733 0.212399 -6.9921e-21)
(0.976103 0.199353 -1.2806e-20)
(0.862728 0.169962 1.51975e-20)
(0.607938 0.116123 -2.69447e-20)
(0.314239 0.0592022 -3.56168e-21)
(0.104247 0.0204371 0)
(0.00242694 0.00168434 -2.82507e-24)
(-0.00992716 -0.00132812 0)
(0.268936 0.0553842 4.56166e-21)
(1.13379 0.224238 -2.81642e-21)
(1.32488 0.275224 -2.93321e-21)
(1.36921 0.295846 1.46879e-21)
(1.34018 0.307674 -2.51792e-21)
(1.28309 0.311587 1.32089e-20)
(1.22571 0.312505 6.6285e-21)
(1.16896 0.31019 0)
(1.11276 0.3033 -2.21299e-20)
(1.05842 0.290333 0)
(1.01512 0.27299 -1.00723e-20)
(0.989136 0.256714 -1.25873e-20)
(0.97657 0.243044 -7.61563e-21)
(0.949465 0.225986 -9.30132e-21)
(0.822387 0.189118 0)
(0.562703 0.126017 0)
(0.282124 0.0627833 -2.31998e-20)
(0.0850411 0.0197783 4.5905e-21)
(-0.00857372 -0.000843524 -2.69446e-21)
(-0.0127105 -0.0024188 -3.1921e-21)
(0.261132 0.067796 1.26749e-21)
(1.14541 0.282915 0)
(1.33801 0.340981 4.40632e-21)
(1.37917 0.362553 3.75472e-21)
(1.34581 0.370662 6.07239e-21)
(1.28546 0.370019 0)
(1.22451 0.366365 6.31155e-21)
(1.16383 0.359562 1.25771e-20)
(1.10354 0.348204 1.1225e-20)
(1.04516 0.330678 2.12079e-20)
(0.998572 0.309268 0)
(0.970368 0.289962 -2.71358e-20)
(0.955438 0.273623 -1.64438e-20)
(0.922637 0.252433 -9.75302e-21)
(0.789571 0.208965 6.00668e-20)
(0.534333 0.137951 7.15921e-21)
(0.266493 0.0682071 3.36793e-20)
(0.077073 0.0201455 -1.5941e-19)
(-0.013995 -0.00310136 9.44493e-20)
(-0.0146147 -0.00354928 -1.15284e-19)
(0.253618 0.0789278 4.49868e-21)
(1.14757 0.339588 -3.44259e-22)
(1.34337 0.405861 -8.48377e-23)
(1.38248 0.428761 -2.56597e-21)
(1.34597 0.433338 -4.3993e-21)
(1.28317 0.428323 3.63667e-22)
(1.2194 0.420245 -6.86358e-21)
(1.15552 0.409029 1.28863e-20)
(1.09177 0.393192 -2.41735e-20)
(1.02981 0.371086 0)
(0.980123 0.345523 -1.22265e-20)
(0.949664 0.323021 -3.19951e-22)
(0.932411 0.303988 -1.80388e-20)
(0.895645 0.278884 0)
(0.762051 0.229588 -1.30298e-20)
(0.516513 0.151668 -3.10143e-20)
(0.261168 0.0759446 8.27392e-20)
(0.0770407 0.0219711 -8.15086e-20)
(-0.0146601 -0.00454313 1.1592e-19)
(-0.0154571 -0.004541 -1.21981e-19)
(0.247231 0.0891859 -1.06222e-22)
(1.14381 0.393592 1.28915e-21)
(1.34312 0.468844 1.79506e-21)
(1.3806 0.493317 4.44378e-22)
(1.34175 0.494696 -2.10353e-21)
(1.2771 0.485573 0)
(1.21107 0.473311 -6.09012e-21)
(1.14449 0.457877 -1.34201e-20)
(1.0777 0.437702 -1.24878e-20)
(1.01249 0.411107 0)
(0.959915 0.381417 -1.26237e-20)
(0.927267 0.355722 -1.5829e-20)
(0.907849 0.334 1.96036e-20)
(0.86838 0.305216 -1.19521e-20)
(0.737349 0.250956 -5.70516e-20)
(0.503752 0.166978 3.39494e-20)
(0.260845 0.0851538 1.00936e-20)
(0.0813495 0.0254158 0)
(-0.0116687 -0.00474681 -1.12401e-19)
(-0.0152124 -0.00521561 -4.17955e-21)
(0.242118 0.0989063 1.32952e-21)
(1.13646 0.444768 -1.9586e-21)
(1.33876 0.529381 -1.24177e-21)
(1.37473 0.555534 2.43203e-21)
(1.33411 0.55409 -6.64638e-21)
(1.26805 0.541201 1.0807e-20)
(1.20016 0.525052 1.3159e-20)
(1.13126 0.505663 -2.14311e-20)
(1.06177 0.481361 7.93738e-21)
(0.993604 0.450419 -5.21994e-20)
(0.938307 0.416728 -1.4402e-20)
(0.90355 0.387978 0)
(0.882037 0.363586 2.1326e-20)
(0.840659 0.331462 2.56765e-20)
(0.713935 0.272353 3.07914e-20)
(0.492599 0.183263 -3.70021e-20)
(0.261751 0.0955855 -1.09654e-20)
(0.0873868 0.0302983 1.28662e-20)
(-0.00655029 -0.00368673 0)
(-0.0141728 -0.00552291 -9.10411e-21)
(0.238174 0.108192 -1.9012e-20)
(1.1272 0.493193 1.07784e-20)
(1.33155 0.587332 1.68321e-21)
(1.36591 0.615059 6.53936e-22)
(1.32386 0.611132 -2.30463e-21)
(1.25671 0.594827 -8.29685e-22)
(1.18729 0.575142 -1.45121e-20)
(1.11639 0.552097 -7.79122e-21)
(1.0445 0.523928 -2.17846e-20)
(0.973546 0.48883 6.59977e-23)
(0.915669 0.451326 -4.49992e-20)
(0.878878 0.419544 3.85294e-20)
(0.855449 0.392582 -2.355e-20)
(0.812569 0.35719 2.84332e-20)
(0.690459 0.293548 0)
(0.480859 0.199803 -2.01877e-20)
(0.262135 0.106486 5.50162e-23)
(0.0934748 0.0361443 -5.63979e-20)
(-0.000610753 -0.00171627 -8.30071e-21)
(-0.012664 -0.00551558 0)
(0.235308 0.11728 0)
(1.11703 0.539088 1.2269e-20)
(1.32239 0.642964 5.95994e-21)
(1.35492 0.671726 2.68424e-22)
(1.31168 0.665602 -3.81495e-21)
(1.2437 0.646232 0)
(1.17302 0.623361 -6.16399e-21)
(1.10037 0.596984 -2.12394e-22)
(1.02624 0.565247 4.67639e-20)
(0.952656 0.526244 -7.13269e-21)
(0.892294 0.485038 -3.25822e-20)
(0.853555 0.450272 1.99796e-20)
(0.82833 0.42079 -4.50927e-22)
(0.784187 0.382251 3.02914e-20)
(0.666196 0.314087 1.87044e-20)
(0.467327 0.215965 -4.36335e-20)
(0.259917 0.117327 5.17392e-20)
(0.0979324 0.0423777 1.53501e-20)
(0.00498909 0.000865506 6.34523e-20)
(-0.0109322 -0.00523948 -1.71603e-19)
(0.233434 0.126301 -6.00599e-21)
(1.10664 0.582634 8.22444e-21)
(1.31185 0.695757 -5.69554e-21)
(1.34244 0.725478 -1.94739e-21)
(1.29817 0.717389 0)
(1.22953 0.695283 -4.00454e-21)
(1.15778 0.669577 2.11993e-20)
(1.08356 0.640213 1.6933e-20)
(1.00737 0.605216 0)
(0.931274 0.562596 -1.03534e-19)
(0.868444 0.517773 8.84536e-20)
(0.82783 0.480109 0)
(0.800905 0.448113 2.76757e-20)
(0.755456 0.406347 -4.48501e-22)
(0.640481 0.333617 -6.00911e-20)
(0.45193 0.230823 2.35232e-20)
(0.254924 0.12744 0)
(0.0999309 0.0483019 8.30655e-20)
(0.0093027 0.00347151 0)
(-0.00931108 -0.00485088 -8.14724e-20)
(0.232395 0.135298 7.10892e-21)
(1.09644 0.62403 1.0437e-20)
(1.30037 0.745758 -5.72885e-21)
(1.32897 0.776325 0)
(1.28378 0.766473 -1.87062e-21)
(1.21461 0.741937 0)
(1.14195 0.713726 -2.01855e-20)
(1.06632 0.681714 -7.53521e-21)
(0.988204 0.643801 8.12709e-21)
(0.909631 0.597827 -5.12906e-20)
(0.844319 0.549541 9.09774e-21)
(0.801859 0.509015 0)
(0.773327 0.474389 -5.92013e-20)
(0.726556 0.429162 4.32745e-22)
(0.613889 0.351611 0)
(0.43427 0.243938 2.14613e-22)
(0.246988 0.136094 7.60147e-20)
(0.098952 0.053196 -7.19071e-20)
(0.0117518 0.00558671 2.12905e-20)
(-0.0080362 -0.00448346 0)
(0.231844 0.144186 0)
(1.0866 0.663442 1.24372e-20)
(1.28836 0.79307 8.03089e-21)
(1.31492 0.824334 -5.14504e-22)
(1.26889 0.812882 4.67625e-22)
(1.1993 0.786197 -8.93064e-21)
(1.12586 0.755791 7.77646e-21)
(1.04896 0.721454 -9.2e-21)
(0.968996 0.680962 3.67005e-20)
(0.887944 0.631936 -8.2139e-20)
(0.820099 0.580369 -8.37331e-22)
(0.775767 0.536944 -2.57519e-20)
(0.745651 0.499423 9.63278e-20)
(0.697476 0.450374 -5.19354e-22)
(0.586532 0.367633 -4.68735e-20)
(0.41471 0.25483 -8.34303e-20)
(0.236546 0.142763 0)
(0.0956239 0.0565026 0)
(0.0124781 0.00685285 2.3015e-20)
(-0.00714962 -0.00424799 -1.36731e-20)
(0.231899 0.153104 9.81506e-21)
(1.07736 0.700613 -2.81254e-20)
(1.27612 0.837781 -8.6348e-21)
(1.3006 0.869587 0)
(1.25379 0.856672 -3.11688e-22)
(1.18388 0.828093 -6.81671e-21)
(1.10978 0.795781 1.7896e-20)
(1.0317 0.759427 3.53486e-20)
(0.949969 0.716694 4.7481e-20)
(0.866439 0.664944 -6.70174e-20)
(0.795941 0.61031 -7.64671e-20)
(0.749605 0.563856 6.89802e-20)
(0.717893 0.523143 0)
(0.668199 0.469773 -2.13336e-20)
(0.558536 0.381353 -5.07421e-20)
(0.393548 0.26318 -6.00749e-20)
(0.223815 0.147082 -7.10586e-20)
(0.0901101 0.0580634 2.10437e-20)
(0.011747 0.00720903 -1.2407e-20)
(-0.00661485 -0.0041635 6.28791e-23)
(0.232202 0.161847 0)
(1.06879 0.736173 0)
(1.26383 0.879992 5.17578e-22)
(1.28623 0.912185 0)
(1.23873 0.89793 -4.49528e-21)
(1.16857 0.867687 3.45745e-21)
(1.09389 0.833724 0)
(1.01475 0.795643 4.03179e-21)
(0.931326 0.750999 7.89511e-20)
(0.845294 0.696882 -1.54427e-19)
(0.771977 0.639414 0)
(0.723427 0.5898 -4.45284e-20)
(0.689997 0.545524 -6.09084e-22)
(0.638668 0.487146 -4.61002e-22)
(0.529977 0.392423 5.43942e-20)
(0.370773 0.268666 -9.81644e-24)
(0.209385 0.148853 -1.53223e-19)
(0.0829115 0.0578537 4.52995e-20)
(0.00995088 0.00676233 1.34385e-20)
(-0.0063187 -0.00418511 0)
(0.232699 0.170423 -3.89912e-20)
(1.06065 0.770077 -1.87451e-20)
(1.25158 0.919763 -2.48405e-20)
(1.27197 0.952236 2.5917e-20)
(1.22387 0.93673 -1.11798e-20)
(1.15353 0.905045 0)
(1.07837 0.869668 1.01385e-20)
(0.99826 0.830127 -9.14945e-21)
(0.913216 0.783891 7.9554e-22)
(0.824676 0.727792 1.14686e-20)
(0.748335 0.667737 9.92902e-20)
(0.69727 0.614928 -1.56136e-20)
(0.661854 0.566618 -5.96679e-20)
(0.608717 0.502278 -2.49452e-20)
(0.500941 0.400469 2.95533e-20)
(0.34729 0.271012 2.40841e-23)
(0.193722 0.147973 4.13065e-20)
(0.0746538 0.0559376 -9.7566e-20)
(0.00750518 0.00563941 1.15747e-19)
(-0.00617057 -0.00428261 1.70875e-20)
(0.233037 0.17877 1.47716e-20)
(1.05294 0.802418 -1.05409e-20)
(1.23952 0.957216 1.29303e-21)
(1.25798 0.989864 1.62873e-20)
(1.20935 0.973184 3.78013e-21)
(1.1389 0.94024 -4.85156e-21)
(1.06335 0.903662 2.50994e-21)
(0.982358 0.862897 -3.78657e-20)
(0.895778 0.815371 -8.66265e-20)
(0.804727 0.757688 -9.20391e-20)
(0.725152 0.695359 0)
(0.671176 0.639438 -6.89625e-20)
(0.63332 0.58653 8.62595e-20)
(0.578089 0.514985 0)
(0.471402 0.405061 -6.33926e-20)
(0.32373 0.269769 3.77271e-20)
(0.178178 0.144286 -4.44633e-20)
(0.0665969 0.052624 -5.25421e-20)
(0.00504445 0.00413191 -9.32954e-20)
(-0.00611996 -0.00443095 -7.36647e-20)
(0.233744 0.18699 -1.6702e-20)
(1.04553 0.833182 1.12912e-20)
(1.22771 0.992413 2.5796e-20)
(1.24433 1.02514 2.36051e-20)
(1.19528 1.00739 -7.23461e-21)
(1.12477 0.973358 -1.08012e-21)
(1.04892 0.935755 8.7201e-21)
(0.967138 0.893997 -3.84128e-20)
(0.879104 0.845463 -5.12516e-20)
(0.785574 0.786589 9.62574e-20)
(0.702559 0.722367 2.18775e-19)
(0.645207 0.663524 0)
(0.604273 0.605439 0)
(0.546397 0.525254 -2.87828e-20)
(0.441019 0.405712 0)
(0.300384 0.26397 8.11388e-20)
(0.164264 0.137005 9.56517e-20)
(0.0608023 0.0478118 0)
(0.00377032 0.0025397 0)
(-0.00610336 -0.00460119 7.92308e-20)
(0.23412 0.194754 1.89671e-20)
(1.03843 0.862362 1.50562e-20)
(1.21623 1.02547 1.87651e-20)
(1.23111 1.0582 -2.25431e-20)
(1.18172 1.03945 -9.23428e-21)
(1.11121 1.00448 -1.09567e-21)
(1.03513 0.966007 -1.16228e-20)
(0.95267 0.923454 -1.02407e-22)
(0.863283 0.874173 -1.04039e-21)
(0.767321 0.814491 -9.27966e-22)
(0.680706 0.748847 1.12852e-19)
(0.619453 0.687328 0)
(0.57465 0.623616 8.78292e-20)
(0.5132 0.533316 6.15782e-20)
(0.408997 0.402151 1.48422e-19)
(0.276826 0.252129 4.37918e-20)
(0.153575 0.123252 -5.15095e-20)
(0.0620163 0.0381259 -3.03238e-20)
(0.00968806 -0.000495281 0)
(-0.00466172 -0.00446511 8.52085e-20)
(0.234861 0.202544 -4.28746e-20)
(1.0316 0.8901 0)
(1.20506 1.05642 2.20193e-20)
(1.21833 1.08911 -1.90809e-20)
(1.16873 1.06947 1.21981e-20)
(1.09825 1.03368 5.08581e-21)
(1.02205 0.994471 2.05123e-20)
(0.938996 0.951303 -3.29319e-21)
(0.848362 0.901512 0)
(0.750054 0.841364 -1.0603e-19)
(0.659743 0.77485 -2.4549e-19)
(0.594047 0.710968 1.02048e-20)
(0.544498 0.641378 1.21651e-19)
(0.478168 0.539692 0)
(0.374103 0.394818 1.00444e-19)
(0.250631 0.232979 0)
(0.144228 0.0964567 0)
(0.0762712 0.00750383 -3.28115e-20)
(0.0489 -0.0185445 0)
(0.0259914 0.00536469 2.28526e-20)
(0.235172 0.209769 -4.78878e-20)
(1.02501 0.916601 0)
(1.19421 1.08548 3.66617e-20)
(1.20596 1.11812 0)
(1.15626 1.09772 -7.31333e-21)
(1.08584 1.06125 0)
(1.0096 1.02146 6.60963e-22)
(0.926021 0.977879 5.22201e-21)
(0.834219 0.927843 6.45079e-21)
(0.733602 0.867583 -1.16219e-19)
(0.639479 0.800839 7.32291e-21)
(0.568704 0.73507 8.26951e-20)
(0.513345 0.659527 1.19002e-19)
(0.440343 0.545105 1.6103e-20)
(0.334422 0.385245 7.89728e-20)
(0.216649 0.207445 0)
(0.123862 0.0523889 1.08729e-19)
(0.0699365 -0.0306601 -6.38648e-20)
(0.0314526 0.0549304 7.45809e-20)
(-0.038284 0.455879 -8.86213e-20)
(0.235438 0.216835 3.96766e-20)
(1.01844 0.941747 6.0156e-20)
(1.18359 1.11298 0)
(1.19386 1.14568 1.04591e-21)
(1.14413 1.12477 2.13818e-20)
(1.07371 1.08788 -1.72375e-20)
(0.997462 1.04777 5.87751e-21)
(0.913327 1.00413 0)
(0.820315 0.954267 4.17807e-20)
(0.717276 0.89446 -5.95756e-21)
(0.618986 0.82832 0)
(0.542113 0.761333 0)
(0.479135 0.679462 1.06791e-19)
(0.397181 0.549987 -4.98938e-20)
(0.286776 0.375238 -8.02115e-20)
(0.170656 0.178586 0)
(0.0709813 0.069206 5.53352e-20)
(0.00605858 0.463584 -6.43045e-20)
(0.0310865 1.92649 -3.60636e-20)
(0.0577027 2.82451 -4.42443e-20)
(0.235346 0.223346 -2.98677e-20)
(1.01194 0.965708 -7.73317e-20)
(1.17322 1.1389 2.18382e-20)
(1.18202 1.17166 1.83832e-20)
(1.13238 1.15043 0)
(1.06194 1.1133 -1.43312e-20)
(0.985857 1.0731 6.12565e-21)
(0.901113 1.02962 -2.42081e-21)
(0.806935 0.980268 6.2842e-21)
(0.701471 0.921395 1.10238e-19)
(0.598891 0.856625 1.24118e-19)
(0.515251 0.789556 9.2808e-20)
(0.442669 0.701281 1.0772e-19)
(0.350038 0.553438 -1.17614e-19)
(0.23743 0.368475 -1.21433e-19)
(0.113042 0.231408 0)
(0.0396773 0.883175 0)
(0.087345 2.58094 3.06337e-20)
(0.0901208 3.21162 0)
(0.0914184 3.38923 7.97225e-20)
(0.238041 0.22942 0)
(1.00579 0.988866 0)
(1.16281 1.1631 0)
(1.17024 1.19592 5.50495e-21)
(1.12069 1.17446 1.96468e-20)
(1.05036 1.13736 -1.32516e-20)
(0.974707 1.09734 3.19017e-21)
(0.889309 1.05422 -2.29801e-21)
(0.794015 1.00567 5.10243e-20)
(0.686178 0.94823 -1.82431e-21)
(0.579281 0.885522 2.4475e-19)
(0.488494 0.81983 -1.07749e-20)
(0.403845 0.725698 1.3064e-20)
(0.300965 0.553609 1.70815e-20)
(0.177716 0.386225 -5.10438e-22)
(0.0914785 1.01362 3.49158e-22)
(0.124766 2.76211 -1.62389e-19)
(0.129502 3.30119 -6.13148e-20)
(0.119892 3.42388 3.22924e-20)
(0.109335 3.44374 -3.63548e-20)
(0.161311 0.175088 1.824e-20)
(0.995567 1.01395 0)
(1.15218 1.18578 -4.46404e-20)
(1.15894 1.2189 -5e-20)
(1.1095 1.19732 4.51723e-20)
(1.03963 1.16053 1.49196e-20)
(0.963845 1.12046 -2.24629e-21)
(0.877948 1.07798 2.25639e-20)
(0.781628 1.03056 -4.12727e-20)
(0.671611 0.975083 0)
(0.560433 0.915055 1.20133e-19)
(0.462386 0.851953 -7.56786e-20)
(0.364413 0.75562 0)
(0.243641 0.554464 1.64845e-20)
(0.131019 0.765463 3.93737e-20)
(0.139388 2.56471 -4.46877e-20)
(0.187531 3.32905 5.07729e-20)
(0.169962 3.43488 2.72367e-20)
(0.141086 3.4536 3.10222e-20)
(0.121771 3.46223 4.90341e-20)
(0.273042 0.267751 -3.52776e-20)
(0.978782 1.02472 0)
(1.13442 1.21202 4.80479e-20)
(1.14461 1.25019 5.4723e-20)
(1.0922 1.23109 -5.00283e-20)
(1.02174 1.19468 -1.99895e-20)
(0.94477 1.15616 -3.17846e-21)
(0.858321 1.115 1.81319e-21)
(0.760571 1.06986 3.78671e-20)
(0.647585 1.01856 9.31962e-20)
(0.530739 0.964938 6.65458e-21)
(0.420936 0.906609 6.69324e-20)
(0.292806 0.792444 1.2267e-20)
(0.205246 0.936467 -1.57937e-20)
(0.210766 2.43937 -3.5719e-20)
(0.261776 3.33402 3.49064e-20)
(0.244705 3.46117 -3.81292e-20)
(0.210391 3.47966 -2.20089e-20)
(0.176656 3.50393 -1.93996e-20)
(0.131523 3.49857 -2.85344e-21)
(0.263437 0.266764 0)
(0.976225 1.04786 1.37446e-20)
(1.12591 1.23584 -9.83114e-21)
(1.1337 1.27393 -6.44283e-21)
(1.08122 1.25452 -3.42494e-20)
(1.01075 1.2183 2.03573e-20)
(0.933465 1.18002 3.73779e-21)
(0.846769 1.13972 1.5274e-21)
(0.748391 1.09612 -3.8605e-20)
(0.633919 1.04782 -2.8263e-21)
(0.513883 0.9991 -2.14505e-19)
(0.397901 0.943847 9.58907e-21)
(0.277261 0.865792 -1.15633e-20)
(0.240202 1.54907 -1.44344e-20)
(0.302514 3.14389 3.67665e-21)
(0.315723 3.46366 2.75977e-22)
(0.274096 3.51061 5.46401e-20)
(0.240093 3.5334 2.71478e-20)
(0.194278 3.55315 -7.6903e-21)
(0.144264 3.54944 -1.34737e-20)
(0.24954 0.264938 3.50225e-20)
(0.972776 1.07361 9.31036e-20)
(1.11706 1.26176 -2.80988e-20)
(1.12242 1.2993 -2.43046e-20)
(1.06978 1.27941 0)
(0.999384 1.24323 3.47471e-20)
(0.922066 1.20523 8.55042e-21)
(0.835376 1.16576 1.21794e-21)
(0.736679 1.12378 -4.35625e-21)
(0.621252 1.07876 -8.17539e-20)
(0.498932 1.03549 -9.78045e-20)
(0.378273 0.98302 -7.77954e-20)
(0.277217 1.0094 -8.63265e-20)
(0.305038 2.31071 8.9551e-20)
(0.382716 3.39153 7.49967e-20)
(0.354715 3.52081 0)
(0.306564 3.55693 0)
(0.269863 3.59018 -5.84818e-21)
(0.225686 3.63521 0)
(0.156172 3.6194 -8.17562e-21)
(0.239777 0.267007 -5.2131e-20)
(0.967409 1.10028 -7.86965e-20)
(1.10684 1.28893 0)
(1.10991 1.32551 1.27e-21)
(1.05711 1.30498 -3.6322e-20)
(0.986959 1.26874 5.5189e-20)
(0.909928 1.23106 7.34495e-21)
(0.82347 1.19233 2.0296e-22)
(0.72471 1.15196 -2.49407e-20)
(0.608762 1.11023 3.90456e-21)
(0.485076 1.07253 0)
(0.360046 1.02603 0)
(0.300532 1.29951 -7.74591e-20)
(0.383243 2.97375 3.14761e-20)
(0.447546 3.49145 3.92589e-20)