/*--------------------------------*- C++ -*----------------------------------*\
  =========                 |
  \\      /  F ield         | OpenFOAM: The Open Source CFD Toolbox
   \\    /   O peration     | Website:  https://openfoam.org
    \\  /    A nd           | Version:  6
     \\/     M anipulation  |
\*---------------------------------------------------------------------------*/
FoamFile
{
    version     2.0;
    format      ascii;
    class       volVectorField;
    location    "72";
    object      U;
}
// * * * * * * * * * * * * * * * * * * * * * * * * * * * * * * * * * * * * * //

dimensions      [0 1 -1 0 0 0 0];

internalField   nonuniform List<vector> 
918
(
(0.985049 -0.000715063 0)
(0.00536124 2.96623 0)
(-0.00262238 0.880282 0)
(0.979575 0.00196179 0)
(-0.0138105 2.06579 3.27285e-20)
(-0.00710368 2.94857 -2.593e-18)
(0.818257 1.12051 4.38959e-19)
(0.117447 0.0721556 -1.42606e-20)
(0.999922 -0.000244398 0)
(0.090462 0.662602 0)
(0.00869658 0.386438 0)
(0.735148 -0.00523459 0)
(0.01018 2.93165 0)
(0.00346774 2.79451 0)
(-0.00218684 3.18003 8.18842e-19)
(-0.0138345 1.92762 2.01071e-20)
(0.295382 0.0395258 9.93882e-19)
(0.232806 1.10827 3.49079e-19)
(0.964346 0.00674352 0)
(-0.000568836 0.394578 0)
(0.0208275 0.0346367 -6.64995e-19)
(1.00183 -0.00455978 0)
(0.999851 -0.00892658 0)
(0.975168 -0.0060519 0)
(0.592418 0.016754 0)
(0.0209556 2.64446 0)
(-0.0123066 2.9119 9.49995e-19)
(-0.00573289 0.933269 0)
(-0.0312825 1.16922 0)
(-0.00381505 0.902987 0)
(-0.0225608 2.59215 0)
(-0.00478471 2.11631 -2.61417e-20)
(-0.00992559 1.90045 0)
(-0.0221147 2.98761 -9.35215e-23)
(-0.0164833 3.00549 2.01456e-18)
(0.00230061 3.00058 0)
(0.871946 -0.00975736 0)
(0.375565 0.914947 1.6993e-19)
(0.817107 1.13893 -5.44897e-19)
(0.949623 1.00495 5.5805e-19)
(0.679942 1.22173 -1.00546e-19)
(0.693373 1.18256 5.74255e-19)
(0.147377 0.130007 1.39112e-20)
(0.146936 0.0760167 0)
(1.16493 0.531911 0)
(0.119799 0.109339 6.29987e-20)
(0.094411 0.0591261 -6.53756e-20)
(0.920555 -0.00704799 0)
(1.00027 5.80009e-05 0)
(0.999908 0.000320747 0)
(1.0037 -0.00728057 0)
(1.00088 -0.000947239 0)
(1.00011 -5.83824e-06 0)
(0.0918826 1.84626 -7.35087e-19)
(0.0314894 0.854431 0)
(0.126897 0.751923 0)
(0.0179498 0.797007 0)
(0.0534138 0.580153 0)
(0.00423688 2.03094 0)
(-0.00809166 0.715026 0)
(0.00514536 0.403465 0)
(-0.00736079 0.712515 0)
(0.0154918 0.385228 0)
(0.843614 -0.0156295 0)
(0.838465 0.0320329 0)
(0.760877 -0.00259128 0)
(0.799312 0.0360659 0)
(0.701484 0.00970102 0)
(0.0139129 3.00023 9.6255e-19)
(0.01112 3.00602 0)
(0.00619855 3.00384 0)
(0.011892 2.99716 1.09301e-23)
(0.00822174 2.95878 -1.43058e-18)
(0.0122383 2.98299 0)
(0.00907695 2.90475 0)
(0.020921 2.93185 2.22558e-24)
(0.00412628 2.82398 0)
(0.0252386 2.91889 0)
(-0.00113812 2.74464 0)
(0.305878 3.57513 0)
(-0.122254 3.65799 0)
(0.149426 3.27072 -7.62079e-19)
(0.00351733 3.00787 0)
(-0.0299638 1.98992 0)
(-0.00729956 2.17959 -1.98311e-20)
(-0.00960186 1.93985 1.99933e-20)
(0.349675 0.138829 -3.45206e-19)
(0.316919 0.0101492 -3.35592e-19)
(0.303773 0.154942 -1.03193e-18)
(0.259421 0.0587587 -6.70786e-19)
(0.263187 1.02215 0)
(0.331859 1.23931 -3.60891e-19)
(0.413173 1.15043 5.95627e-19)
(0.987726 0.00815518 0)
(0.943245 0.00578521 0)
(1.00028 0.000671923 0)
(1.00254 0.00906638 0)
(1.00311 0.0089904 -2.66648e-18)
(0.992135 0.00942059 2.01491e-18)
(-0.0206412 0.735543 0)
(0.0022888 0.402424 0)
(-0.0514657 1.01851 0)
(-0.0310317 0.78982 0)
(-0.00988043 0.395662 0)
(-0.0432325 0.106566 2.06378e-19)
(0.0501451 0.0594782 0)
(0.993625 -0.00769293 0)
(0.95405 -0.00648428 0)
(0.744023 0.0250857 0)
(0.671135 0.0297324 0)
(0.66177 0.0217762 0)
(0.979957 -0.00273414 0)
(0.587297 0.0614641 0)
(0.450099 -0.0185224 1.51564e-18)
(-0.0410422 2.85995 7.49662e-19)
(0.0337959 2.91404 0)
(0.0426522 2.89259 0)
(0.00316412 2.70185 0)
(-0.008789 2.98663 9.08903e-19)
(-0.0141835 2.89474 0)
(-0.0109266 2.9919 -2.79893e-18)
(-0.0116407 2.92972 9.52361e-19)
(-0.0446995 1.34515 0)
(-0.0152981 1.37348 0)
(-0.00789042 2.14123 7.4876e-22)
(-0.00779194 2.10026 0)
(-0.0173156 1.91143 0)
(0.938889 -0.00519903 0)
(0.857301 -0.0111502 0)
(0.863345 0.00458603 0)
(0.949677 -0.00613868 0)
(0.883683 -0.00809136 0)
(0.499093 1.11491 -2.15451e-19)
(0.546368 1.18472 0)
(0.337506 0.849612 3.26781e-20)
(0.281943 0.714114 0)
(0.917964 1.03494 -1.57335e-19)
(1.04063 0.845364 3.16378e-19)
(0.391542 1.31773 0)
(0.54256 1.27312 0)
(0.596386 1.20015 0)
(0.10379 0.181566 -3.02281e-19)
(0.172679 0.144862 0)
(0.169827 0.0907015 1.86406e-19)
(1.00382 0.899403 0)
(1.07979 0.747751 0)
(1.10933 0.682986 -2.52461e-19)
(1.14605 0.594168 0)
(1.20203 0.39134 4.71821e-20)
(0.957509 -0.00709683 0)
(0.96273 -0.00810879 0)
(0.900921 -0.0073711 0)
(0.98393 -0.00812311 0)
(0.974429 -0.00803154 0)
(0.936547 -0.00656972 0)
(1.0002 0.00250524 0)
(1.00077 0.00123959 0)
(1 0.000761469 0)
(0.0441598 2.0885 4.09539e-19)
(0.145084 1.78939 0)
(0.0188943 2.20375 6.19846e-19)
(0.0522057 1.89542 -5.17198e-19)
(0.166973 1.08422 -2.86435e-19)
(0.0496669 0.938913 0)
(0.121309 0.938652 0)
(0.00622417 0.759182 0)
(0.0270544 0.506956 0)
(-0.00340482 2.25825 -4.11895e-22)
(0.0192641 2.03632 0)
(-0.00497056 2.259 -9.0001e-21)
(0.00279059 2.04284 5.22533e-21)
(-0.00409915 0.733084 0)
(-0.00879695 0.717857 0)
(0.00969369 0.44491 0)
(-0.0176964 0.713313 0)
(0.00662606 0.38932 0)
(0.9395 0.0138524 0)
(0.856394 -0.0115728 0)
(0.928663 0.00487696 0)
(0.846245 -0.0127782 0)
(0.811052 -0.00210446 0)
(0.898403 0.0221643 0)
(0.87366 0.0258793 0)
(0.785088 -0.00269733 0)
(0.0102922 3.06783 -8.95882e-21)
(0.0149411 3.05898 0)
(0.0124531 2.97024 0)
(0.00766827 2.87668 0)
(0.895513 3.96905 0)
(1.18958 3.36519 9.35367e-19)
(0.0811129 3.09027 0)
(-0.0173349 2.91774 0)
(-0.0158735 1.39982 0)
(-0.0353946 1.6968 0)
(-0.0241318 1.53214 0)
(-0.0330965 2.55247 -1.42509e-20)
(-0.0178107 2.24705 0)
(-0.0224731 2.39208 0)
(-0.000806317 1.96879 2.0919e-22)
(-0.0051652 2.25337 -2.53871e-20)
(-0.00625428 2.21726 -2.05222e-20)
(-0.0058951 1.9532 0)
(0.389811 0.118652 5.29698e-19)
(0.354882 0.0011531 -5.19586e-19)
(0.231561 1.59039 0)
(0.28826 0.766795 -3.26821e-19)
(0.180926 1.68741 -1.07399e-18)
(0.24554 1.22663 1.07505e-18)
(0.90168 0.00586563 0)
(0.967043 0.0106786 0)
(0.974897 0.00985558 0)
(0.922989 0.00587007 0)
(-0.0184491 0.723069 0)
(-0.0206287 0.727579 0)
(0.000726892 0.394277 0)
(0.094209 0.0989646 5.79918e-19)
(0.0787948 0.0804572 -6.85404e-19)
(0.0569854 0.0515009 0)
(1.10726 0.0905117 2.45895e-20)
(1.09094 0.0426191 0)
(1.01889 0.0437276 0)
(0.913918 -0.00149984 0)
(0.439657 0.0963661 0)
(0.500295 0.076029 -2.4239e-18)
(0.396132 0.000568966 9.078e-19)
(0.0107661 2.97728 7.93723e-19)
(-0.032421 2.86153 4.68225e-20)
(0.00862546 3.05307 -1.8916e-20)
(0.0158014 3.04344 7.09539e-19)
(-0.0118108 2.99995 3.1339e-20)
(-0.0123396 2.95227 -1.26541e-22)
(-0.0150473 3.01327 -5.85662e-19)
(0.0143623 3.02662 4.11523e-19)
(0.0076275 3.03476 -6.67987e-19)
(0.934742 0.00214515 0)
(0.939525 -0.00111017 0)
(0.84817 -0.0111774 0)
(0.956303 0.0118588 0)
(0.942295 0.0135109 0)
(0.881673 0.0052766 0)
(0.915274 0.0189913 0)
(0.924942 0.0156981 0)
(0.837712 0.000684965 0)
(0.671779 1.41318 1.01258e-20)
(0.689737 1.52359 0)
(0.118744 0.292232 6.87899e-20)
(0.213228 0.654135 5.43837e-19)
(0.240341 0.693336 -3.19035e-19)
(0.214909 0.496204 6.33453e-19)
(0.340356 0.832479 1.59843e-18)
(0.135314 0.237004 3.82965e-19)
(0.258362 0.170041 7.11436e-19)
(0.212387 0.164156 1.83584e-19)
(0.21866 0.0812497 3.49475e-19)
(1.1934 0.446695 8.97974e-20)
(1.21858 0.245926 8.71022e-20)
(0.00866527 2.24655 2.40251e-19)
(0.0395084 1.95777 0)
(0.972999 0.0330642 0)
(0.946855 0.0192617 0)
(0.871235 -0.0151779 0)
(0.0125528 3.07397 0)
(0.0167085 2.944 1.2533e-18)
(0.0139304 2.95665 0)
(0.00588623 2.84991 -1.24356e-18)
(0.00952502 3.0904 3.06024e-19)
(0.0113197 3.08383 0)
(0.709497 1.81956 -1.69181e-19)
(1.23394 2.6242 5.72285e-19)
(0.69417 1.99755 -1.38988e-18)
(0.0220939 2.97574 -6.91625e-19)
(0.0403832 2.99781 0)
(-0.0384821 2.87806 0)
(-0.00607642 2.23804 -1.26733e-20)
(-0.00475212 2.25842 4.89431e-20)
(-0.000324009 2.00431 -6.96021e-21)
(0.26814 1.40284 1.03728e-18)
(0.287242 0.570007 -7.11883e-19)
(0.0723441 2.00488 7.51426e-19)
(0.121333 1.87848 -9.05268e-19)
(0.206219 1.5394 1.03759e-19)
(0.00626983 3.11932 -1.80511e-18)
(0.0178981 3.11932 1.94548e-18)
(-0.0050346 2.98031 8.51401e-19)
(-0.000410969 2.97503 -8.1862e-19)
(-0.0178089 2.87809 -8.67172e-19)
(0.0126915 3.09905 -2.2732e-18)
(0.00516781 3.10766 2.24077e-18)
(0.267383 0.699145 0)
(0.218611 0.659859 -1.1594e-18)
(0.0744176 0.212592 5.10092e-19)
(0.346798 0.952517 1.13304e-18)
(0.19975 0.28143 -1.74519e-18)
(1.19779 0.176077 5.0267e-20)
(1.21531 0.305248 0)
(1.19326 0.12128 6.70892e-21)
(-0.000972092 2.26618 -1.19777e-21)
(0.0038147 2.2509 0)
(0.0315966 1.99374 0)
(0.312908 1.31861 -3.72061e-19)
(0.354069 1.17863 -8.06751e-19)
(0.233202 0.392601 1.44348e-18)
(1.00644 -0.00968211 0)
(1.00774 -0.00778384 4.90146e-19)
(-0.0392879 1.32751 0)
(-0.0476538 1.33201 0)
(1.00244 0.00327238 1.34136e-21)
(1.0032 0.00781361 1.00618e-18)
(-0.0242355 2.53879 1.80568e-20)
(-0.0274051 2.58133 0)
(0.0407568 3.17261 4.92093e-19)
(0.373995 3.54076 0)
(1.1582 0.692847 -5.29457e-20)
(1.0118 0.0106479 -2.83715e-21)
(1.02086 -0.00900433 0)
(1.00158 0.000283155 1.57434e-22)
(0.118819 1.37448 0)
(0.140418 2.58622 0)
(0.0203178 1.32639 0)
(-0.000443475 2.6339 -3.11322e-21)
(-0.0217542 2.58198 -9.08439e-21)
(0.996583 0.03106 2.20846e-21)
(1.06302 0.00588623 0)
(1.10018 0.0285649 0)
(-0.0337404 1.74408 0)
(-0.0192569 2.58216 0)
(-0.0134822 1.31891 0)
(0.308982 1.48966 -1.68619e-19)
(1.01152 -0.00905626 0)
(1.00971 -0.0129852 0)
(1.00227 0.00093812 6.27788e-19)
(1.00548 -0.00491156 -7.39988e-19)
(1.00113 -0.000862211 0)
(-0.0220801 1.46584 0)
(-0.0107297 1.38722 0)
(-0.0170286 1.42742 0)
(-0.0162258 1.30584 0)
(-0.0285198 1.29586 0)
(-0.0218482 1.27532 0)
(1.03566 -0.00430186 0)
(1.01881 0.0151946 -9.5744e-22)
(0.811667 1.31103 2.75432e-19)
(1.00244 0.000385641 -6.27322e-19)
(1.00338 0.00444967 7.48772e-19)
(1.00126 0.00209463 0)
(1.01109 0.00963137 6.24956e-19)
(1.00685 0.00745277 -7.6052e-19)
(1.00714 0.0111205 0)
(-0.0242871 2.60976 0)
(-0.027538 2.58924 -3.03567e-20)
(-0.0244319 2.60318 2.13653e-20)
(1.24199 0.273172 5.34861e-19)
(1.16368 0.0892231 0)
(0.0442234 3.09149 -9.75379e-19)
(0.0517953 2.87398 -6.90714e-20)
(0.103709 3.20192 1.30548e-18)
(0.122117 3.21372 -2.80595e-19)
(0.141801 3.25722 0)
(0.0225959 3.1377 2.68572e-19)
(0.0611805 3.16223 9.71713e-19)
(0.0617415 3.17885 -5.02317e-19)
(0.0267355 3.12971 0)
(0.564452 0.291406 0)
(0.509906 0.307296 0)
(1.14029 0.72422 1.205e-19)
(1.10538 0.860424 -1.05503e-19)
(1.19788 0.610149 0)
(1.22483 0.544475 0)
(1.0157 0.0120242 -1.16107e-18)
(1.01468 0.0127542 1.45991e-18)
(1.02575 -0.00872827 0)
(1.02408 -0.0102949 0)
(1.00678 0.00321607 0)
(1.01089 0.00421046 0)
(1.00422 0.00221275 0)
(1.00937 0.00635065 0)
(1.00685 0.00504174 0)
(1.00439 0.00526433 0)
(0.108471 1.37439 0)
(0.0960841 1.33406 0)
(0.14168 1.42011 0)
(0.147952 1.40362 0)
(0.146077 2.61053 0)
(0.185438 2.6796 -4.12648e-19)
(0.10868 2.67144 0)
(0.0822764 2.66926 1.66476e-19)
(0.0270299 2.67588 -1.60036e-19)
(0.0138462 1.3261 0)
(0.0199584 1.25653 0)
(0.0248815 1.33886 0)
(0.0389349 1.27735 0)
(-0.0013947 1.99612 3.59863e-20)
(-0.0214937 2.6102 -3.80133e-20)
(-0.00672179 2.67617 -2.85238e-20)
(-0.0189431 2.68871 0)
(-0.0236162 2.61632 2.91284e-20)
(-0.0221817 2.61176 3.7387e-20)
(0.00567679 1.99286 -2.75699e-20)
(-0.00996797 2.40165 5.0998e-20)
(-0.0148263 2.426 3.23346e-20)
(1.0107 0.040548 1.18136e-18)
(1.00424 0.0195518 -1.46721e-18)
(1.00402 0.0459369 -1.20332e-18)
(0.975038 0.0379874 1.51387e-18)
(1.06467 0.00921265 0)
(1.0499 -0.00644285 0)
(1.09268 0.0377207 0)
(1.07581 0.0150057 0)
(1.07458 0.000587298 0)
(1.14146 0.0796532 0)
(1.11574 0.0462802 0)
(1.11896 0.0375105 0)
(-0.0296313 2.43378 3.42725e-21)
(-0.0202599 2.02229 0)
(-0.0206198 2.22087 0)
(-0.0213075 2.60296 -1.85844e-20)
(-0.018022 2.61377 5.86719e-22)
(-0.00175682 1.58707 -5.41596e-20)
(-0.0110196 1.50954 5.53258e-20)
(-0.0215803 1.40032 0)
(-0.0255965 1.40617 0)
(-0.0323917 1.39737 0)
(-0.0100616 1.32063 0)
(0.000524855 1.24444 0)
(0.385496 1.51401 2.79045e-19)
(0.434199 1.51805 1.50092e-19)
(0.59252 2.46613 -2.50466e-19)
(0.380789 2.55445 7.31718e-19)
(0.350331 2.052 7.07114e-20)
(1.0207 -0.00800479 0)
(1.01579 -0.00935962 0)
(1.01485 -0.0132152 0)
(1.00772 -0.000560087 0)
(1.00485 -0.000678191 0)
(1.008 -0.00447519 0)
(1.00954 -0.00344051 0)
(1.01465 -0.00428543 0)
(1.01954 0.0162604 1.13999e-18)
(1.01716 0.0147439 -1.44162e-18)
(1.01994 0.0186413 -1.14947e-18)
(1.01738 0.0167736 1.44008e-18)
(0.768088 1.35792 0)
(0.706875 1.39329 2.38496e-19)
(0.875362 1.23888 9.60943e-20)
(0.912649 1.19827 -1.27536e-19)
(1.16477 2.6124 2.91941e-19)
(0.749546 0.133697 5.89072e-19)
(1.17192 0.107905 0)
(1.21443 0.201847 -4.34034e-19)
(1.1955 0.154219 -1.80774e-20)
(1.01285 0.167958 0)
(0.0770289 3.01822 3.55539e-19)
(0.0827946 2.90282 -1.14968e-18)
(0.0247042 2.359 7.27716e-19)
(0.14859 -0.251577 -3.30894e-19)
(0.342215 3.4447 -2.45349e-19)
(0.193237 3.3396 0)
(0.223721 3.39608 3.19596e-19)
(0.222068 3.07629 -1.22628e-18)
(0.254639 3.19492 0)
(0.00582477 3.12283 5.05762e-20)
(0.0164519 3.13141 -5.82553e-19)
(0.0153532 3.12718 8.57403e-19)
(0.0328397 3.14035 0)
(0.0310261 3.14967 0)
(1.2579 2.57628 0)
(0.53575 0.788766 -5.29686e-19)
(1.0255 1.03387 -9.3366e-21)
(0.99111 1.08681 0)
(0.859949 0.96972 -1.0897e-19)
(1.08383 0.909443 2.65588e-20)
(0.329856 0.305911 -8.18958e-19)
(0.649262 0.322847 -2.21805e-20)
(0.533903 0.218963 3.94661e-19)
(0.542631 0.322594 2.85734e-20)
(0.425903 0.273596 -1.14332e-18)
(0.606238 0.322819 0)
(0.694031 0.428446 6.59642e-19)
(0.696983 0.43476 0)
(0.577101 0.329358 0)
(0.486457 0.253938 0)
(0.799891 0.654653 4.00049e-19)
(1.25335 0.306997 -4.35022e-19)
(1.24631 0.438849 0)
(1.24654 0.394479 0)
(0.685413 0.18816 6.02548e-19)
(0.848347 0.558453 -3.73216e-19)
(0.769115 0.521978 6.67351e-19)
(0.966032 0.453466 -6.73827e-19)
(1.01835 0.0146751 7.72637e-19)
(1.01705 0.0136393 -7.79698e-19)
(1.01596 0.0141435 0)
(1.03706 -0.00452201 0)
(1.03046 -0.00769594 -7.31818e-19)
(1.02867 -0.0105771 7.24222e-19)
(1.02474 0.0110168 0)
(1.02269 0.0151306 0)
(1.0127 0.00471571 0)
(1.01456 0.00910256 0)
(1.01639 0.00423902 0)
(1.01555 0.00292653 0)
(0.0777452 1.36222 0)
(0.0813196 1.30524 0)
(0.153721 1.42342 5.84039e-20)
(0.276747 1.48587 8.213e-20)
(0.176118 1.45752 1.85945e-19)
(0.212537 1.45557 -2.99946e-19)
(0.161148 1.43386 0)
(0.14169 1.58409 -9.1619e-20)
(0.138319 1.58106 0)
(0.35306 2.00421 -1.02939e-19)
(0.316568 2.34467 6.16999e-19)
(0.195042 1.467 7.98324e-20)
(0.275463 1.39937 2.29302e-20)
(0.204822 1.39921 -1.86901e-20)
(0.289338 1.33777 -9.28932e-20)
(0.254885 1.57772 0)
(0.265917 1.6239 1.0071e-19)
(0.0222643 2.25352 -1.31545e-20)
(0.0376318 2.66898 0)
(0.0631304 2.40372 9.09109e-20)
(0.0581819 2.42866 0)
(0.0671553 2.68726 -1.84814e-19)
(0.0417843 2.70327 0)
(0.0233151 1.45815 5.89571e-20)
(0.0325859 1.51584 0)
(0.0303226 1.41778 0)
(0.0187349 1.42772 -6.74371e-20)
(0.00277196 2.66116 1.53088e-21)
(0.0270302 2.69191 1.83498e-19)
(0.0105725 2.73301 9.54891e-22)
(0.00142288 1.8468 -2.11157e-20)
(-0.00520783 1.70003 -1.62142e-20)
(0.00865568 1.30802 0)
(0.0169166 1.22442 0)
(0.0400469 1.59578 -1.03969e-20)
(0.0413611 1.47508 -5.39964e-20)
(0.0272229 1.55384 5.69505e-20)
(0.050949 1.61996 0)
(-0.0303631 2.27141 1.17673e-19)
(-0.0337002 2.55043 -4.98101e-20)
(-0.0197833 2.44998 8.34047e-21)
(-0.00589361 1.86251 2.55857e-20)
(-0.02735 2.50483 1.15498e-20)
(-0.0226798 2.44639 -2.67399e-20)
(1.018 0.0220776 -7.80611e-19)
(1.01429 0.0285907 7.84576e-19)
(1.01207 0.0174324 0)
(1.01142 0.0706005 1.07223e-18)
(0.99068 0.0607604 -1.23004e-18)
(0.950311 0.0552911 1.37721e-18)
(1.01339 0.116545 -1.461e-19)
(1.04399 -0.00466101 0)
(1.0522 -0.000403742 7.01523e-19)
(1.04029 -0.00818491 -7.01165e-19)
(1.0724 0.0437197 -4.1607e-20)
(1.06501 0.028945 3.59305e-19)
(1.0641 0.0656926 0)
(1.05428 0.0549093 -1.29368e-19)
(1.03258 0.0444074 0)
(1.0257 0.0398596 0)
(1.02761 0.0137452 0)
(1.02401 0.0162411 0)
(1.04022 0.0335781 2.65915e-19)
(1.03969 0.0287995 -5.88516e-19)
(1.05332 0.0389093 -2.81449e-19)
(1.04816 0.038784 -3.10401e-19)
(1.07781 0.070377 5.94107e-19)
(1.10185 0.0563917 0)
(1.10864 0.095294 0)
(-0.0281502 2.27793 7.00401e-20)
(-0.030291 2.02818 3.55094e-21)
(-0.0254549 2.03802 0)
(-0.0299461 2.44649 -6.97323e-20)
(-0.0276001 2.40508 -6.83543e-21)
(-0.034243 2.47391 8.95564e-21)
(-0.021289 2.62405 -3.18091e-20)
(-0.0261604 2.56644 1.66804e-21)
(-0.0246619 2.51979 -1.0796e-20)
(-0.0170113 2.61737 2.09827e-20)
(-0.0210457 2.6195 -2.41654e-20)
(-0.0108489 1.50706 -4.58302e-22)
(-0.00531109 1.63484 -5.34177e-20)
(0.376721 1.44944 -1.18181e-19)
(0.371613 1.38045 2.34182e-20)
(0.648612 1.44126 -2.30763e-19)
(0.524708 1.51108 -1.45959e-19)
(0.578433 1.46974 0)
(0.606329 2.42421 2.19732e-19)
(0.66697 2.43315 3.41523e-19)
(0.414264 2.51699 9.47646e-20)
(0.399021 2.54324 -6.14413e-19)
(0.503086 2.4816 5.71847e-19)
(0.553557 2.47679 0)
(0.484656 2.52697 -5.6117e-19)
(0.253696 2.60318 1.12928e-18)
(0.364045 2.56102 -7.32789e-20)
(0.28625 2.66116 -1.59825e-18)
(0.970871 2.39105 7.24887e-19)
(0.848849 2.39175 0)
(1.01144 0.00138966 2.54617e-20)
(1.01538 -0.00517505 -2.07971e-20)
(1.01776 -0.00391867 -3.80201e-19)
(1.01562 -0.00103955 3.78878e-19)
(1.01312 0.00184576 0)
(0.637068 1.30323 0)
(0.679728 1.18836 0)
(0.794465 1.11907 0)
(0.667387 1.14583 0)
(1.19562 2.62786 5.13206e-20)
(1.08852 2.38002 0)
(0.818122 2.16826 3.65228e-21)
(0.821696 2.43218 0)
(0.916446 2.52254 -4.42175e-19)
(0.947998 2.47194 2.95201e-19)
(0.780888 0.166032 0)
(0.727032 0.145123 1.59627e-19)
(0.906885 0.162522 9.31935e-19)
(0.819527 0.145649 -3.47315e-19)
(0.753652 0.0913988 -1.07945e-18)
(1.08853 0.246128 -8.538e-19)
(0.986308 0.316767 -1.00848e-20)
(0.931214 0.352584 8.21644e-19)
(1.01493 0.260192 7.01649e-19)
(0.933014 0.207425 -1.22949e-18)
(0.890288 0.220752 1.53715e-19)
(0.92969 0.317443 -3.22257e-19)
(0.905718 0.223781 0)
(1.00087 0.208667 6.02273e-19)
(1.05617 0.217999 0)
(1.05292 0.228401 0)
(1.12572 0.124813 2.71784e-19)
(1.06598 0.19514 -1.07573e-20)
(1.08032 0.248228 -1.55392e-19)
(1.11368 0.211656 0)
(1.02344 0.0487227 6.0097e-19)
(1.03705 0.0628864 7.49528e-19)
(1.03291 0.0466616 -5.9656e-19)
(1.04163 0.0691934 -5.02454e-19)
(1.01467 0.0749987 -7.60084e-19)
(0.985115 0.171514 0)
(0.988438 0.108874 0)
(0.962388 0.0736249 -4.90161e-19)
(0.896578 0.100787 1.95966e-19)
(1.03871 0.116735 6.95197e-19)
(1.07601 0.13651 -7.95335e-19)
(1.07051 0.181579 7.14805e-19)
(1.03547 0.158091 0)
(1.08618 0.12288 0)
(1.05725 0.112832 -3.26213e-19)
(1.04249 0.108757 -5.6513e-19)
(0.587858 1.08438 1.22019e-19)
(0.612121 1.40095 -2.51387e-20)
(1.14508 2.71832 -2.52212e-19)
(1.19778 3.10274 4.13755e-21)
(1.25352 2.72837 -1.38356e-19)
(1.29323 2.69913 2.57044e-20)
(1.26874 2.32272 -3.80492e-20)
(1.18545 3.00824 -7.92514e-20)
(1.20494 2.96527 2.31832e-19)
(1.17953 3.25621 -1.19705e-19)
(1.39708 2.97071 1.49559e-19)
(1.40853 2.90659 0)
(0.574096 0.815154 -4.84789e-20)
(0.208165 1.21102 4.76636e-19)
(0.520316 0.343172 5.28135e-19)
(0.406408 0.10714 5.99526e-19)
(0.477705 0.300474 6.47516e-19)
(0.548659 0.415531 -1.05521e-18)
(0.556351 0.400773 8.68685e-19)
(0.471029 0.300363 -3.25578e-19)
(0.337818 0.241814 7.36829e-19)
(0.720918 0.254821 -3.47544e-19)
(0.671687 0.285609 0)
(0.603125 0.195967 7.67455e-21)
(0.739795 0.507961 3.60177e-19)
(0.709707 0.480005 -1.30522e-18)
(0.634533 0.433969 1.44471e-20)
(0.621809 0.413147 0)
(0.720206 0.715902 3.76408e-19)
(0.836723 0.799043 4.1601e-19)
(0.774248 0.849044 -4.84685e-19)
(0.904528 0.820934 -1.5406e-19)
(0.939319 0.864288 -3.61973e-20)
(0.94685 0.871645 3.71269e-20)
(0.883159 0.678429 -6.7422e-19)
(0.955536 0.725007 1.43228e-19)
(1.00979 0.728531 0)
(1.0085 0.704294 -1.8356e-19)
(1.03136 0.340977 2.13235e-19)
(1.15862 0.341045 2.60752e-19)
(1.07481 0.283741 3.49112e-19)
(0.999703 0.388198 -4.26009e-19)
(1.05721 0.488667 0)
(1.13894 0.429042 0)
(0.902283 0.42712 -3.17413e-22)
(0.847317 0.322878 0)
(0.892629 0.312846 3.92427e-19)
(0.914099 0.351305 3.09481e-21)
(0.987665 0.497826 1.8826e-18)
(0.920371 0.556233 4.8518e-19)
(0.943003 0.515143 -5.12493e-19)
(0.861106 0.492366 5.4662e-19)
(0.826928 0.467681 3.47692e-19)
(0.802935 0.445126 -3.40874e-19)
(1.02818 -0.000375742 6.28433e-19)
(1.02043 0.000584661 0)
(1.01908 0.00140137 4.10084e-19)
(1.02266 -0.000694672 -9.28368e-19)
(1.02255 0.00459873 4.52258e-19)
(1.02002 0.0116497 -9.46586e-19)
(1.02074 0.0114592 0)
(1.01967 0.0122181 -1.97071e-19)
(1.01656 0.00780921 4.93965e-19)
(1.01668 0.0109222 -2.47864e-19)
(1.01726 0.0106251 1.81347e-19)
(0.0370857 1.33618 0)
(0.0383076 1.39498 0)
(0.0558635 1.34051 0)
(0.0595457 1.2781 0)
(0.0880731 1.40214 -6.45342e-20)
(0.092909 1.37529 1.20977e-20)
(0.08167 1.57559 3.49656e-21)
(0.102379 1.40942 -4.29082e-20)
(0.044151 1.48764 4.97905e-20)
(0.0492782 1.48294 -3.92721e-20)
(0.0757365 1.39766 -2.6364e-20)
(0.0636923 1.40078 7.42415e-20)
(0.0573748 1.38088 1.22376e-20)
(0.0461736 1.39881 8.18424e-21)
(0.102652 2.37366 -9.90298e-20)
(0.0940532 2.41989 0)
(0.142243 2.00966 9.48143e-20)
(0.129904 1.70219 3.15619e-20)
(0.223654 1.99971 -8.83799e-20)
(0.19853 2.4298 0)
(0.26397 2.36504 -6.19068e-19)
(0.307359 2.36037 4.45566e-19)
(0.250223 1.97997 -2.04475e-19)
(0.139676 2.15153 1.51936e-19)
(0.108904 2.26816 0)
(0.014815 1.85522 -2.84669e-20)
(-0.00499043 2.37567 -9.45138e-21)
(0.00382579 2.13299 0)
(0.00534847 2.43829 -1.69411e-20)
(0.0218394 2.27473 2.52009e-20)
(0.00915434 1.43432 -1.18085e-20)
(0.00597656 1.41354 1.95431e-19)
(0.00462882 1.42224 -6.38461e-20)
(0.0175067 1.43143 -5.52208e-20)
(0.0204515 1.46136 0)
(0.00301012 1.40378 0)
(-0.00401981 1.30558 -7.16411e-20)
(-0.00121709 1.39053 2.04942e-20)
(0.00357375 1.39097 0)
(0.00393915 1.29676 -5.45019e-20)
(0.011536 1.21541 1.09492e-19)
(1.04245 0.0150918 0)
(1.04898 0.0105714 -6.55976e-20)
(1.0391 0.0246338 -4.73976e-19)
(1.0495 0.0234653 0)
(1.05465 0.0226537 0)
(1.03627 0.0131042 -6.76304e-21)
(1.03005 0.0135542 7.64532e-19)
(1.03193 0.0174892 9.26209e-19)
(1.02566 0.0211337 0)
(1.02213 0.021703 0)
(1.03547 0.026058 4.73288e-19)
(1.02553 0.0282353 0)
(1.02355 0.0281513 0)
(-0.0199907 2.03066 0)
(-0.00982587 1.66279 -2.35596e-21)
(-0.00820478 1.76786 -3.23789e-20)
(-0.00543521 1.39761 0)
(-0.00934903 1.56579 -3.03453e-20)
(-0.0155656 1.47494 1.84846e-20)
(-0.0106466 1.41076 0)
(0.403761 1.62551 0)
(0.36562 1.31837 -3.8275e-20)
(0.275553 1.34548 0)
(0.435059 1.31666 -2.53767e-20)
(0.472879 1.4764 0)
(0.457373 1.41727 3.52317e-20)
(1.04062 2.67164 -1.54162e-20)
(0.985297 2.41014 -9.10643e-19)
(0.947971 2.21077 1.02327e-18)
(0.865485 2.38386 2.45076e-19)
(0.852875 2.48828 0)
(0.92188 2.48294 0)
(0.954658 2.38412 0)
(0.930666 2.37488 -9.47891e-19)
(0.691711 2.45231 -3.84446e-19)
(0.800556 2.43622 -9.91273e-20)
(0.807848 2.41417 7.47051e-20)
(0.704436 2.40434 0)
(0.809635 2.39809 0)
(0.770298 2.41457 -3.70339e-19)
(0.765776 2.4669 0)
(0.630752 1.06704 0)
(0.515626 0.858685 -5.63885e-19)
(0.52201 0.930749 -3.27336e-20)
(0.501869 1.07083 0)
(0.488894 0.979041 8.63377e-19)
(0.802432 0.88655 -1.34696e-19)
(0.805858 1.02147 0)
(0.786805 1.00426 1.85686e-19)
(0.675704 1.02093 0)
(0.667614 0.924375 0)
(1.16349 2.75501 -2.23933e-19)
(1.13865 2.81317 -9.27854e-20)
(0.923063 2.3354 8.06503e-20)
(0.899784 2.31646 -7.7747e-20)
(1.13319 2.73298 0)
(1.08522 2.70079 9.33912e-20)
(1.10128 2.49643 -3.00914e-19)
(1.00311 2.25625 -2.83892e-20)
(0.497303 1.32987 0)
(0.517181 1.07748 -1.07485e-19)
(0.594419 1.18226 0)
(0.849882 0.230024 0)
(0.755946 0.17642 0)
(0.66065 0.14148 0)
(0.855846 0.230004 -6.18667e-19)
(0.744484 0.224999 3.63302e-19)
(0.916523 0.089196 -4.05208e-19)
(0.925631 0.136222 0)
(0.899704 0.147548 1.75372e-19)
(0.83721 0.108703 7.01763e-19)
(0.797537 0.0770439 -4.39059e-19)
(1.0964 3.34757 -6.66947e-19)
(1.16435 3.27098 0)
(1.11449 3.43241 -1.56026e-18)
(0.656178 3.57838 1.29832e-18)
(1.02496 3.07634 1.13836e-19)
(0.533098 0.780597 5.74097e-19)
(0.512375 0.748693 0)
(0.349776 0.357703 -1.44994e-19)
(0.488516 0.627976 8.61925e-19)
(0.552334 0.344276 -1.89954e-19)
(0.519862 0.453209 2.26024e-19)
(0.69037 0.524129 4.64644e-19)
(0.737139 0.560522 0)
(0.666395 0.563295 0)
(0.65092 0.530535 0)
(1.01739 0.613265 9.15903e-20)
(0.972256 0.595593 -4.70115e-19)
(0.982379 0.607785 3.59641e-19)
(1.04633 0.550204 -3.47377e-19)
(1.09125 0.519789 0)
(1.09351 0.602213 -9.16584e-20)
(0.887212 0.42223 -7.75428e-19)
(0.875592 0.408968 -9.96749e-19)
(0.798837 0.408176 6.11219e-19)
(0.813976 0.377924 -6.32743e-19)
(0.856364 0.335438 -4.97784e-19)
(0.800498 0.338611 6.0968e-19)
(1.02657 0.00671591 -4.73333e-19)
(1.02619 0.00683597 9.53662e-19)
(1.02996 0.000965373 6.09088e-19)
(1.03417 0.00158853 -7.31309e-19)
(1.03399 0.0119951 0)
(1.02969 0.0120679 -1.1971e-18)
(0.0818005 1.64753 1.07573e-20)
(0.0677278 1.60752 0)
(0.108831 1.70411 3.4117e-20)
(0.113776 1.6795 -2.88336e-20)
(0.0702935 1.57214 -6.38043e-21)
(0.0663309 1.57423 0)
(0.00719174 1.70104 0)
(-0.00877695 1.51586 1.60812e-20)
(-0.00735795 1.45659 -1.44576e-20)
(-0.0123242 1.56339 2.93575e-21)
(-0.0013997 1.89461 2.4035e-20)
(-0.0139822 1.94904 -9.34398e-21)
(0.493683 1.36087 -2.71311e-19)
(0.49619 1.35583 2.96556e-19)
(0.449377 1.30909 -1.82372e-20)
(0.428344 1.29145 8.1457e-21)
(0.62875 1.31112 0)
(0.555901 1.4047 1.10164e-19)
(0.557006 1.4079 -1.07279e-19)
(0.484891 1.29674 1.75927e-20)
(0.5261 1.25025 0)
(0.590588 1.21616 0)
(0.665315 2.41588 5.66007e-19)
(0.660927 2.44583 1.28945e-18)
(0.716106 2.46101 -8.86721e-19)
(0.613952 2.43321 -2.02112e-19)
(0.557723 2.52651 2.77055e-19)
(0.498204 2.49311 -7.14687e-19)
(0.993158 2.38888 -5.76555e-19)
(1.02523 2.40649 0)
(0.952054 2.19447 -6.30684e-19)
(1.05607 2.68189 0)
(1.055 2.66307 0)
(0.601409 2.28875 1.89655e-21)
(1.11886 3.06894 7.01964e-20)
(0.996354 2.9662 -1.1807e-19)
(0.321186 0.79431 0)
(0.319628 0.67376 -3.059e-19)
(0.52626 0.609321 -3.11042e-19)
(0.363803 2.13087 0)
(0.403108 2.744 -8.01357e-20)
(0.41267 2.47827 0)
(0.728854 0.682825 -8.01826e-19)
(0.795964 0.691257 1.11768e-18)
(0.80071 0.65818 -1.07889e-18)
(0.701856 0.640532 -1.01633e-19)
(0.760609 0.599239 -4.19893e-19)
(0.97075 2.75225 -5.31653e-20)
(1.01411 2.75889 -2.16592e-19)
(0.551945 2.20533 4.46727e-19)
(0.604394 1.73382 -3.52971e-19)
(0.703492 1.85248 -5.02064e-19)
(0.977264 2.39263 -1.38137e-19)
(0.977343 2.34567 3.71262e-19)
(0.64629 1.76236 3.38613e-20)
(0.452689 1.2958 1.77897e-19)
)
;

boundaryField
{
    wall-4
    {
        type            noSlip;
    }
    velocity-inlet-5
    {
        type            fixedValue;
        value           uniform (1 0 0);
    }
    velocity-inlet-6
    {
        type            fixedValue;
        value           uniform (0 3 0);
    }
    pressure-outlet-7
    {
        type            zeroGradient;
    }
    wall-8
    {
        type            noSlip;
    }
    frontAndBackPlanes
    {
        type            empty;
    }
}


// ************************************************************************* //
