/*--------------------------------*- C++ -*----------------------------------*\
  =========                 |
  \\      /  F ield         | OpenFOAM: The Open Source CFD Toolbox
   \\    /   O peration     | Website:  https://openfoam.org
    \\  /    A nd           | Version:  6
     \\/     M anipulation  |
\*---------------------------------------------------------------------------*/
FoamFile
{
    version     2.0;
    format      ascii;
    class       volVectorField;
    location    "2";
    object      U;
}
// * * * * * * * * * * * * * * * * * * * * * * * * * * * * * * * * * * * * * //

dimensions      [0 1 -1 0 0 0 0];

internalField   nonuniform List<vector> 
5250
(
(3 1.18882e-09 0)
(2.99999 9.04827e-09 0)
(2.99998 2.80973e-08 0)
(2.99996 8.37694e-08 0)
(2.99989 1.99376e-07 0)
(2.99976 5.21651e-07 0)
(2.99939 1.17464e-06 0)
(2.99864 3.00055e-06 0)
(2.99644 6.63385e-06 0)
(2.99221 1.73699e-05 0)
(2.97861 3.61951e-05 0)
(2.95272 0.000105752 0)
(2.86534 0.000218515 0)
(2.63835 0.000697533 0)
(2.02053 0.00163736 0)
(0.356575 0.00546762 0)
(-0.46811 0.0130606 0)
(0.0417621 0.0208687 0)
(0.439475 0.0286504 0)
(0.542358 0.0336795 0)
(0.467629 0.037241 0)
(0.33265 0.0382963 0)
(0.205159 0.041596 0)
(0.114085 0.0498032 0)
(0.0687059 0.0588414 0)
(3 3.7319e-09 0)
(2.99999 2.86608e-08 0)
(2.99998 8.86174e-08 0)
(2.99996 2.65019e-07 0)
(2.99989 6.29138e-07 0)
(2.99976 1.65168e-06 0)
(2.99939 3.7141e-06 0)
(2.99865 9.52402e-06 0)
(2.99645 2.10285e-05 0)
(2.99223 5.5377e-05 0)
(2.97869 0.000115202 0)
(2.95287 0.000339616 0)
(2.8658 0.000703531 0)
(2.63964 0.00227138 0)
(2.02404 0.00541299 0)
(0.364634 0.0183068 0)
(-0.460883 0.0412607 0)
(0.053407 0.0612308 0)
(0.449504 0.079127 0)
(0.546355 0.0884156 0)
(0.468683 0.0932746 0)
(0.335428 0.0923561 0)
(0.211724 0.0958485 0)
(0.118753 0.105343 0)
(0.0693097 0.110915 0)
(3 6.65708e-09 0)
(2.99999 5.13644e-08 0)
(2.99998 1.58464e-07 0)
(2.99996 4.74992e-07 0)
(2.99989 1.12611e-06 0)
(2.99976 2.96606e-06 0)
(2.99939 6.66619e-06 0)
(2.99866 1.71692e-05 0)
(2.99648 3.79026e-05 0)
(2.99229 0.000100133 0)
(2.97885 0.000210408 0)
(2.95322 0.000612673 0)
(2.86684 0.00129887 0)
(2.64267 0.00413191 0)
(2.03263 0.00994523 0)
(0.385053 0.0339875 0)
(-0.43894 0.0731516 0)
(0.0707933 0.103715 0)
(0.460988 0.130603 0)
(0.549996 0.145995 0)
(0.468004 0.155652 0)
(0.336061 0.158082 0)
(0.218263 0.166178 0)
(0.12417 0.179717 0)
(0.0692853 0.184565 0)
(3 1.00094e-08 0)
(2.99999 7.73588e-08 0)
(2.99998 2.38493e-07 0)
(2.99996 7.16238e-07 0)
(2.9999 1.6974e-06 0)
(2.99977 4.48612e-06 0)
(2.9994 1.00842e-05 0)
(2.99867 2.60975e-05 0)
(2.99652 5.7733e-05 0)
(2.99238 0.000151796 0)
(2.97911 0.00033049 0)
(2.9538 0.00090953 0)
(2.86855 0.00204722 0)
(2.64758 0.0061296 0)
(2.04687 0.014856 0)
(0.417871 0.0505374 0)
(-0.4061 0.106005 0)
(0.093164 0.146034 0)
(0.474718 0.179952 0)
(0.5554 0.201726 0)
(0.469519 0.217854 0)
(0.339199 0.227411 0)
(0.227849 0.242308 0)
(0.132145 0.260963 0)
(0.0697918 0.268301 0)
(3 1.37009e-08 0)
(2.99999 1.0604e-07 0)
(2.99998 3.26729e-07 0)
(2.99996 9.82578e-07 0)
(2.9999 2.32794e-06 0)
(2.99977 6.16722e-06 0)
(2.99941 1.38646e-05 0)
(2.9987 3.59963e-05 0)
(2.99658 7.97669e-05 0)
(2.99252 0.000208818 0)
(2.97947 0.000466799 0)
(2.95468 0.0012309 0)
(2.87093 0.00289365 0)
(2.65433 0.00828266 0)
(2.06655 0.0202025 0)
(0.462165 0.0679844 0)
(-0.362606 0.140565 0)
(0.120151 0.188896 0)
(0.489926 0.22854 0)
(0.562456 0.256179 0)
(0.474312 0.278772 0)
(0.34659 0.296611 0)
(0.240603 0.319139 0)
(0.142908 0.343519 0)
(0.0724246 0.355417 0)
(3 1.76381e-08 0)
(2.99999 1.36506e-07 0)
(2.99998 4.20581e-07 0)
(2.99996 1.26469e-06 0)
(2.9999 2.996e-06 0)
(2.99978 7.936e-06 0)
(2.99943 1.78384e-05 0)
(2.99873 4.63086e-05 0)
(2.99667 0.000102629 0)
(2.9927 0.00026831 0)
(2.97995 0.000602242 0)
(2.95586 0.00157622 0)
(2.87408 0.00372618 0)
(2.66322 0.0105873 0)
(2.09247 0.0258665 0)
(0.519955 0.0858496 0)
(-0.30624 0.176293 0)
(0.151196 0.232857 0)
(0.507231 0.277164 0)
(0.57184 0.310367 0)
(0.482746 0.339511 0)
(0.358579 0.3662 0)
(0.257335 0.397614 0)
(0.157095 0.429949 0)
(0.0771083 0.448599 0)
(3 2.20149e-08 0)
(2.99999 1.70231e-07 0)
(2.99998 5.24678e-07 0)
(2.99996 1.57581e-06 0)
(2.9999 3.73283e-06 0)
(2.99978 9.86597e-06 0)
(2.99944 2.21659e-05 0)
(2.99877 5.73628e-05 0)
(2.99677 0.000127036 0)
(2.99293 0.000331029 0)
(2.98055 0.000740489 0)
(2.95733 0.00194043 0)
(2.878 0.00454007 0)
(2.6743 0.0129458 0)
(2.12424 0.0315301 0)
(0.591053 0.102772 0)
(-0.237357 0.212265 0)
(0.187024 0.278808 0)
(0.526335 0.326367 0)
(0.583929 0.364361 0)
(0.495908 0.40004 0)
(0.376946 0.436814 0)
(0.280408 0.479525 0)
(0.17722 0.523109 0)
(0.0859453 0.553885 0)
(3 2.73465e-08 0)
(2.99999 2.1112e-07 0)
(2.99998 6.50721e-07 0)
(2.99996 1.94836e-06 0)
(2.99991 4.6089e-06 0)
(2.99979 1.21192e-05 0)
(2.99947 2.71626e-05 0)
(2.99882 6.98083e-05 0)
(2.99689 0.000153989 0)
(2.99321 0.000399152 0)
(2.98128 0.000881485 0)
(2.95909 0.00232311 0)
(2.88271 0.00534078 0)
(2.68754 0.0153314 0)
(2.16133 0.0372539 0)
(0.675135 0.119176 0)
(-0.15593 0.249177 0)
(0.227928 0.326252 0)
(0.546588 0.37627 0)
(0.598733 0.418251 0)
(0.514701 0.460272 0)
(0.403765 0.508385 0)
(0.312922 0.565945 0)
(0.208126 0.625727 0)
(0.102503 0.680334 0)
(3 3.76486e-08 0)
(2.99999 2.88268e-07 0)
(2.99999 8.90855e-07 0)
(2.99997 2.66541e-06 0)
(2.99991 6.35385e-06 0)
(2.9998 1.67433e-05 0)
(2.99949 3.80397e-05 0)
(2.99887 9.63518e-05 0)
(2.99704 0.000225163 0)
(2.99354 0.000513526 0)
(2.98213 0.00136302 0)
(2.96111 0.00274657 0)
(2.88822 0.00687911 0)
(2.70293 0.0178794 0)
(2.2042 0.0427989 0)
(0.771991 0.137047 0)
(-0.0625368 0.286713 0)
(0.273989 0.372894 0)
(0.568691 0.42453 0)
(0.616605 0.470192 0)
(0.540317 0.518851 0)
(0.442144 0.580802 0)
(0.359346 0.654848 0)
(0.259627 0.739705 0)
(0.136823 0.844485 0)
(3 -2.86042e-08 0)
(3 4.94582e-07 0)
(2.99999 4.49033e-07 0)
(2.99997 4.11044e-06 0)
(2.99992 3.58418e-06 0)
(2.99982 2.53549e-05 0)
(2.99953 2.09389e-05 0)
(2.99897 0.000149376 0)
(2.99724 0.000103836 0)
(2.99417 0.000924847 0)
(2.98312 0.000249703 0)
(2.96377 0.00644515 0)
(2.89457 -0.000156854 0)
(2.72017 0.0372282 0)
(2.24879 0.0361905 0)
(0.896695 0.170561 0)
(0.0495885 0.332053 0)
(0.326887 0.424207 0)
(0.594282 0.469274 0)
(0.63937 0.516954 0)
(0.575538 0.572594 0)
(0.494235 0.650155 0)
(0.426594 0.743638 0)
(0.351995 0.872449 0)
(0.207116 1.09726 0)
(3 -2.78822e-08 0)
(3 4.48033e-07 0)
(2.99999 3.83472e-07 0)
(2.99997 3.71284e-06 0)
(2.99993 3.04697e-06 0)
(2.99982 2.27457e-05 0)
(2.99959 1.72218e-05 0)
(2.99894 0.000134084 0)
(2.99769 7.5498e-05 0)
(2.99367 0.000866977 0)
(2.98663 4.11118e-05 0)
(2.96095 0.00625512 0)
(2.91008 -0.000380978 0)
(2.74459 0.0348934 0)
(2.25554 0.038138 0)
(1.11202 0.170675 0)
(0.200117 0.370664 0)
(0.393017 0.478511 0)
(0.620059 0.509724 0)
(0.668211 0.555456 0)
(0.622147 0.618058 0)
(0.563844 0.707017 0)
(0.528133 0.818851 0)
(0.539846 0.977063 0)
(0.555428 1.23454 0)
(3 1.08623e-07 0)
(3 1.22486e-07 0)
(2.99999 1.45579e-06 0)
(2.99997 1.61376e-06 0)
(2.99993 1.00435e-05 0)
(2.99983 1.07173e-05 0)
(2.99962 6.08124e-05 0)
(2.99902 6.02156e-05 0)
(2.99785 0.000376051 0)
(2.99415 0.000249001 0)
(2.9876 0.00257577 0)
(2.96387 0.000368039 0)
(2.91761 0.0164559 0)
(2.76476 0.00782537 0)
(2.31828 0.0833899 0)
(1.2747 0.158118 0)
(0.364743 0.406873 0)
(0.464328 0.534579 0)
(0.640808 0.553242 0)
(0.700613 0.59066 0)
(0.675705 0.655958 0)
(0.644377 0.746913 0)
(0.643215 0.866103 0)
(0.716131 1.02214 0)
(0.845527 1.21588 0)
(3 1.01728e-07 0)
(3 1.26621e-07 0)
(2.99999 1.38521e-06 0)
(2.99998 1.61751e-06 0)
(2.99994 9.55613e-06 0)
(2.99986 1.06806e-05 0)
(2.99964 5.7649e-05 0)
(2.9992 6.16393e-05 0)
(2.99784 0.000348851 0)
(2.99549 0.000300607 0)
(2.98675 0.00235738 0)
(2.972 0.000865933 0)
(2.91728 0.0156922 0)
(2.78773 0.0086617 0)
(2.41984 0.0814934 0)
(1.33381 0.167818 0)
(0.512746 0.447291 0)
(0.523287 0.573011 0)
(0.650236 0.594835 0)
(0.728255 0.623904 0)
(0.727942 0.68581 0)
(0.722899 0.772168 0)
(0.751636 0.884831 0)
(0.85102 1.01893 0)
(1.01263 1.14132 0)
(3 3.90811e-08 0)
(3 3.05305e-07 0)
(2.99999 9.38212e-07 0)
(2.99998 2.83593e-06 0)
(2.99994 6.68535e-06 0)
(2.99987 1.78187e-05 0)
(2.99967 3.96963e-05 0)
(2.99926 0.000105805 0)
(2.99805 0.000221329 0)
(2.99582 0.000664605 0)
(2.98812 0.00123688 0)
(2.97494 0.00431477 0)
(2.92594 0.00886509 0)
(2.81446 0.0282687 0)
(2.49245 0.0721686 0)
(1.48396 0.212947 0)
(0.668879 0.511358 0)
(0.574001 0.59358 0)
(0.666198 0.624011 0)
(0.752747 0.646411 0)
(0.776233 0.703816 0)
(0.793865 0.784728 0)
(0.842159 0.883593 0)
(0.947632 0.990065 0)
(1.10992 1.07072 0)
(3 4.8154e-08 0)
(3 3.73595e-07 0)
(2.99999 1.15128e-06 0)
(2.99998 3.47678e-06 0)
(2.99995 8.26005e-06 0)
(2.99989 2.20265e-05 0)
(2.99971 4.97265e-05 0)
(2.99936 0.000130305 0)
(2.99831 0.000288209 0)
(2.99634 0.000783295 0)
(2.98976 0.00162751 0)
(2.97841 0.00495721 0)
(2.93644 0.0102275 0)
(2.84361 0.0328032 0)
(2.57065 0.0777222 0)
(1.6999 0.244092 0)
(0.846118 0.583061 0)
(0.621835 0.613119 0)
(0.687707 0.636262 0)
(0.776578 0.655165 0)
(0.822908 0.709747 0)
(0.856736 0.785341 0)
(0.915085 0.870035 0)
(1.01848 0.954345 0)
(1.17028 1.01362 0)
(3 5.06972e-08 0)
(3 3.94135e-07 0)
(2.99999 1.21364e-06 0)
(2.99998 3.67067e-06 0)
(2.99996 8.71505e-06 0)
(2.99991 2.3301e-05 0)
(2.99976 5.25655e-05 0)
(2.99946 0.000138142 0)
(2.9986 0.000306636 0)
(2.99694 0.000827966 0)
(2.99157 0.00176008 0)
(2.98219 0.00527397 0)
(2.94818 0.0107757 0)
(2.87464 0.035279 0)
(2.65699 0.0825718 0)
(1.95764 0.263662 0)
(1.04415 0.66115 0)
(0.680057 0.656482 0)
(0.725617 0.658809 0)
(0.812583 0.666248 0)
(0.872697 0.71124 0)
(0.914732 0.778333 0)
(0.975758 0.851242 0)
(1.07322 0.919628 0)
(1.21057 0.966583 0)
(3 4.68811e-08 0)
(3 3.63745e-07 0)
(2.99999 1.12042e-06 0)
(2.99999 3.38079e-06 0)
(2.99997 8.02086e-06 0)
(2.99992 2.13654e-05 0)
(2.99981 4.81065e-05 0)
(2.99957 0.000125776 0)
(2.99888 0.000278871 0)
(2.99755 0.000744687 0)
(2.99345 0.0015952 0)
(2.986 0.00467652 0)
(2.96061 0.00951233 0)
(2.90705 0.0302306 0)
(2.74972 0.0730544 0)
(2.26497 0.21818 0)
(1.33906 0.600551 0)
(0.833509 0.672473 0)
(0.817328 0.691635 0)
(0.875781 0.691279 0)
(0.935756 0.717976 0)
(0.976973 0.771893 0)
(1.03263 0.833537 0)
(1.11948 0.889509 0)
(1.24062 0.927705 0)
(3 3.99828e-08 0)
(3 3.09417e-07 0)
(3 9.5385e-07 0)
(2.99999 2.86816e-06 0)
(2.99997 6.80588e-06 0)
(2.99994 1.80106e-05 0)
(2.99984 4.05735e-05 0)
(2.99965 0.000104882 0)
(2.99911 0.000233083 0)
(2.99804 0.000605631 0)
(2.99484 0.00132867 0)
(2.98883 0.00359084 0)
(2.96892 0.00770583 0)
(2.93014 0.0215526 0)
(2.80216 0.0532947 0)
(2.44426 0.146152 0)
(1.63586 0.408784 0)
(0.942993 0.68156 0)
(0.886902 0.728428 0)
(0.927978 0.735921 0)
(0.992675 0.740754 0)
(1.03855 0.775906 0)
(1.08822 0.823268 0)
(1.16256 0.86762 0)
(1.26678 0.898278 0)
(3 3.36488e-08 0)
(3 2.60303e-07 0)
(3 8.02686e-07 0)
(2.99999 2.41196e-06 0)
(2.99998 5.72563e-06 0)
(2.99995 1.51283e-05 0)
(2.99988 3.41126e-05 0)
(2.99973 8.7913e-05 0)
(2.9993 0.000195706 0)
(2.99846 0.000504806 0)
(2.99593 0.00111478 0)
(2.99134 0.0029519 0)
(2.97526 0.0063561 0)
(2.94623 0.0179419 0)
(2.84401 0.0405149 0)
(2.56903 0.123532 0)
(1.90703 0.315933 0)
(1.09413 0.729015 0)
(0.93517 0.767868 0)
(0.960636 0.779989 0)
(1.02679 0.772608 0)
(1.08667 0.789163 0)
(1.13697 0.820894 0)
(1.20237 0.853513 0)
(1.29172 0.877081 0)
(3 2.8187e-08 0)
(3 2.18051e-07 0)
(3 6.7244e-07 0)
(2.99999 2.02078e-06 0)
(2.99998 4.79812e-06 0)
(2.99996 1.26796e-05 0)
(2.9999 2.85968e-05 0)
(2.99979 7.37206e-05 0)
(2.99946 0.000164078 0)
(2.9988 0.000424685 0)
(2.99687 0.000929486 0)
(2.99322 0.00252998 0)
(2.98121 0.005183 0)
(2.95926 0.0162326 0)
(2.88318 0.0327983 0)
(2.6876 0.11198 0)
(2.18766 0.276264 0)
(1.30271 0.747366 0)
(0.99608 0.800232 0)
(1.00006 0.812869 0)
(1.05789 0.803948 0)
(1.1256 0.802708 0)
(1.17864 0.820756 0)
(1.23839 0.843716 0)
(1.31623 0.861175 0)
(3 2.33333e-08 0)
(3 1.80624e-07 0)
(3 5.56963e-07 0)
(3 1.67484e-06 0)
(2.99999 3.97727e-06 0)
(2.99997 1.05204e-05 0)
(2.99993 2.37412e-05 0)
(2.99984 6.12629e-05 0)
(2.99959 0.000136511 0)
(2.9991 0.000352486 0)
(2.99768 0.000779124 0)
(2.99489 0.0020638 0)
(2.98654 0.00442347 0)
(2.96967 0.0127339 0)
(2.91881 0.0271232 0)
(2.79197 0.0842218 0)
(2.45856 0.211022 0)
(1.58946 0.621958 0)
(1.12381 0.795636 0)
(1.06726 0.829543 0)
(1.09664 0.832605 0)
(1.16022 0.820011 0)
(1.21821 0.824043 0)
(1.27391 0.837998 0)
(1.34175 0.849917 0)
(3 1.85521e-08 0)
(3 1.43404e-07 0)
(3 4.4228e-07 0)
(3 1.32777e-06 0)
(2.99999 3.15104e-06 0)
(2.99998 8.31364e-06 0)
(2.99995 1.87372e-05 0)
(2.99988 4.8191e-05 0)
(2.9997 0.000107237 0)
(2.99934 0.000275434 0)
(2.9983 0.000609867 0)
(2.99626 0.00157864 0)
(2.99003 0.00350817 0)
(2.97845 0.00910153 0)
(2.94002 0.0213855 0)
(2.85227 0.0561787 0)
(2.60596 0.143292 0)
(1.87297 0.421957 0)
(1.26108 0.785666 0)
(1.12513 0.838246 0)
(1.13337 0.857302 0)
(1.18649 0.845056 0)
(1.24984 0.835069 0)
(1.30627 0.838102 0)
(1.3673 0.843962 0)
(3 1.46177e-08 0)
(3 1.12748e-07 0)
(3 3.47919e-07 0)
(3 1.04294e-06 0)
(2.99999 2.47586e-06 0)
(2.99998 6.51996e-06 0)
(2.99996 1.46989e-05 0)
(2.99991 3.7713e-05 0)
(2.99978 8.39142e-05 0)
(2.99952 0.000214887 0)
(2.99877 0.000475416 0)
(2.99731 0.00123179 0)
(2.99277 0.00269278 0)
(2.98471 0.00731255 0)
(2.95654 0.0156849 0)
(2.89734 0.0454397 0)
(2.72169 0.110254 0)
(2.17654 0.329634 0)
(1.47357 0.776339 0)
(1.19904 0.856509 0)
(1.17881 0.875792 0)
(1.21117 0.869442 0)
(1.27262 0.851756 0)
(1.33343 0.84489 0)
(1.39198 0.844197 0)
(3 8.22244e-09 0)
(3 9.45515e-08 0)
(3 2.45778e-07 0)
(3 8.52551e-07 0)
(3 1.7705e-06 0)
(2.99999 5.29742e-06 0)
(2.99997 1.0536e-05 0)
(2.99994 3.05844e-05 0)
(2.99985 6.00987e-05 0)
(2.99966 0.000174175 0)
(2.99914 0.000339105 0)
(2.99811 0.00100048 0)
(2.99507 0.0018848 0)
(2.98934 0.00603145 0)
(2.97089 0.0103574 0)
(2.9339 0.0380072 0)
(2.81902 0.0726308 0)
(2.48915 0.252614 0)
(1.8057 0.619061 0)
(1.32386 0.854424 0)
(1.24401 0.883319 0)
(1.25028 0.889183 0)
(1.29884 0.872244 0)
(1.35972 0.85677 0)
(1.41646 0.849753 0)
(3 6.01894e-09 0)
(3 6.77323e-08 0)
(3 1.77524e-07 0)
(3 6.11779e-07 0)
(3 1.27865e-06 0)
(2.99999 3.79918e-06 0)
(2.99998 7.60558e-06 0)
(2.99996 2.18958e-05 0)
(2.9999 4.33945e-05 0)
(2.99975 0.0001244 0)
(2.99946 0.000245184 0)
(2.9986 0.000708577 0)
(2.99695 0.00137877 0)
(2.9918 0.00414062 0)
(2.98264 0.00763571 0)
(2.95066 0.0252474 0)
(2.88358 0.048343 0)
(2.6769 0.159639 0)
(2.0891 0.422029 0)
(1.48949 0.845887 0)
(1.30033 0.90144 0)
(1.28878 0.909547 0)
(1.32158 0.895986 0)
(1.38036 0.872163 0)
(1.43867 0.858574 0)
(3 8.64422e-09 0)
(3 3.55113e-08 0)
(3 1.55653e-07 0)
(3 3.49998e-07 0)
(3 1.08417e-06 0)
(2.99999 2.20911e-06 0)
(2.99999 6.38507e-06 0)
(2.99997 1.27296e-05 0)
(2.99993 3.62963e-05 0)
(2.99983 7.18089e-05 0)
(2.99963 0.000205361 0)
(2.99905 0.000403054 0)
(2.99793 0.00117638 0)
(2.99456 0.00224079 0)
(2.98843 0.00705285 0)
(2.96798 0.0125478 0)
(2.92701 0.0440572 0)
(2.8034 0.0894262 0)
(2.42912 0.302898 0)
(1.78335 0.707285 0)
(1.41724 0.880075 0)
(1.35271 0.909531 0)
(1.35868 0.912098 0)
(1.40492 0.890876 0)
(1.4625 0.869218 0)
(3 5.99313e-09 0)
(3 2.50738e-08 0)
(3 1.08838e-07 0)
(3 2.46548e-07 0)
(3 7.58235e-07 0)
(3 1.55567e-06 0)
(2.99999 4.4608e-06 0)
(2.99998 8.95885e-06 0)
(2.99995 2.52848e-05 0)
(2.99989 5.04355e-05 0)
(2.99973 0.000142221 0)
(2.99941 0.000281865 0)
(2.99849 0.000804151 0)
(2.99668 0.0015632 0)
(2.99125 0.00470135 0)
(2.98089 0.00854712 0)
(2.94825 0.02853 0)
(2.8733 0.0552675 0)
(2.6585 0.178164 0)
(2.07116 0.476072 0)
(1.54736 0.856137 0)
(1.40603 0.915748 0)
(1.39488 0.927419 0)
(1.42505 0.914399 0)
(1.47973 0.885971 0)
(3 2.12899e-09 0)
(3 2.28117e-08 0)
(3 6.10822e-08 0)
(3 2.06359e-07 0)
(3 4.38554e-07 0)
(3 1.27852e-06 0)
(2.99999 2.59732e-06 0)
(2.99999 7.33169e-06 0)
(2.99997 1.47311e-05 0)
(2.99993 4.13456e-05 0)
(2.99982 8.25945e-05 0)
(2.99961 0.000232783 0)
(2.999 0.000461476 0)
(2.99781 0.00132301 0)
(2.99425 0.00257798 0)
(2.98776 0.00774038 0)
(2.96621 0.0148509 0)
(2.92262 0.0466307 0)
(2.79142 0.103755 0)
(2.39965 0.326898 0)
(1.80586 0.740504 0)
(1.49997 0.899789 0)
(1.4465 0.929892 0)
(1.45335 0.932907 0)
(1.49666 0.909956 0)
(3 1.90523e-09 0)
(3 1.46451e-08 0)
(3 4.52375e-08 0)
(3 1.3516e-07 0)
(3 3.20796e-07 0)
(3 8.4007e-07 0)
(3 1.89281e-06 0)
(2.99999 4.8162e-06 0)
(2.99998 1.0725e-05 0)
(2.99995 2.71136e-05 0)
(2.99989 6.01474e-05 0)
(2.99973 0.000151999 0)
(2.99939 0.000335997 0)
(2.99845 0.000854934 0)
(2.99658 0.00186969 0)
(2.99114 0.00493877 0)
(2.98003 0.010396 0)
(2.94784 0.0293768 0)
(2.87175 0.0670861 0)
(2.65638 0.190189 0)
(2.09813 0.531378 0)
(1.63479 0.86854 0)
(1.50368 0.932236 0)
(1.48888 0.946488 0)
(1.51243 0.935307 0)
(3 1.60935e-09 0)
(3 8.65593e-09 0)
(3 3.22376e-08 0)
(3 8.26954e-08 0)
(3 2.26517e-07 0)
(3 5.18416e-07 0)
(3 1.3356e-06 0)
(2.99999 2.98091e-06 0)
(2.99999 7.58043e-06 0)
(2.99997 1.68073e-05 0)
(2.99993 4.2698e-05 0)
(2.99984 9.43896e-05 0)
(2.99958 0.000240835 0)
(2.99909 0.000530846 0)
(2.99765 0.00136761 0)
(2.99487 0.00303109 0)
(2.98648 0.00782101 0)
(2.97 0.0182237 0)
(2.91954 0.0459981 0)
(2.79638 0.121645 0)
(2.45846 0.320832 0)
(1.85621 0.767369 0)
(1.58367 0.920621 0)
(1.53255 0.949509 0)
(1.53634 0.954042 0)
(3 6.50355e-10 0)
(3 6.66438e-09 0)
(3 1.817e-08 0)
(3 6.05415e-08 0)
(3 1.30569e-07 0)
(3 3.75396e-07 0)
(3 7.73701e-07 0)
(3 2.15115e-06 0)
(2.99999 4.39074e-06 0)
(2.99998 1.21124e-05 0)
(2.99996 2.46584e-05 0)
(2.99989 6.80026e-05 0)
(2.99976 0.00013813 0)
(2.99939 0.000382962 0)
(2.99867 0.000773904 0)
(2.99652 0.00218304 0)
(2.99266 0.00436009 0)
(2.97958 0.0127914 0)
(2.95605 0.0258284 0)
(2.87673 0.0774579 0)
(2.67316 0.191572 0)
(2.19427 0.519418 0)
(1.71364 0.887944 0)
(1.58555 0.951967 0)
(1.56844 0.965096 0)
(3 6.78274e-10 0)
(3 3.65736e-09 0)
(3 1.35949e-08 0)
(3 3.48764e-08 0)
(3 9.526e-08 0)
(3 2.17897e-07 0)
(3 5.58871e-07 0)
(3 1.24632e-06 0)
(2.99999 3.14934e-06 0)
(2.99999 6.97874e-06 0)
(2.99997 1.75727e-05 0)
(2.99993 3.88296e-05 0)
(2.99985 9.78079e-05 0)
(2.99962 0.000215482 0)
(2.99915 0.000547011 0)
(2.99786 0.00118834 0)
(2.99532 0.00314196 0)
(2.98783 0.00652703 0)
(2.97304 0.0188136 0)
(2.92915 0.0394487 0)
(2.81976 0.119612 0)
(2.53543 0.306142 0)
(1.9632 0.737427 0)
(1.67291 0.920166 0)
(1.61435 0.95624 0)
(3 5.05018e-10 0)
(3 2.2773e-09 0)
(3 9.41827e-09 0)
(3 2.21028e-08 0)
(3 6.53758e-08 0)
(3 1.38284e-07 0)
(3 3.81658e-07 0)
(3 7.89571e-07 0)
(3 2.14306e-06 0)
(2.99999 4.41149e-06 0)
(2.99998 1.1923e-05 0)
(2.99996 2.4493e-05 0)
(2.99991 6.61942e-05 0)
(2.99976 0.000135527 0)
(2.99948 0.000367754 0)
(2.99868 0.000748419 0)
(2.99711 0.00205999 0)
(2.99255 0.00413264 0)
(2.98358 0.0117987 0)
(2.957 0.0237961 0)
(2.89577 0.0703122 0)
(2.72787 0.165142 0)
(2.26811 0.472951 0)
(1.82204 0.848809 0)
(1.67116 0.939049 0)
(3 2.82047e-10 0)
(3 1.54108e-09 0)
(3 5.69496e-09 0)
(3 1.46247e-08 0)
(3 3.97599e-08 0)
(3 9.09434e-08 0)
(3 2.32168e-07 0)
(3 5.17614e-07 0)
(3 1.30202e-06 0)
(3 2.88508e-06 0)
(2.99999 7.23172e-06 0)
(2.99998 1.5989e-05 0)
(2.99994 4.007e-05 0)
(2.99987 8.83834e-05 0)
(2.99967 0.000222065 0)
(2.99927 0.00048838 0)
(2.99814 0.00123793 0)
(2.9959 0.00270722 0)
(2.98953 0.00699917 0)
(2.97634 0.0155976 0)
(2.93919 0.040443 0)
(2.84978 0.101625 0)
(2.60116 0.270985 0)
(2.07348 0.682926 0)
(1.77032 0.895604 0)
(3 1.34022e-10 0)
(3 1.03371e-09 0)
(3 3.19168e-09 0)
(3 9.52952e-09 0)
(3 2.25782e-08 0)
(3 5.88845e-08 0)
(3 1.32201e-07 0)
(3 3.34285e-07 0)
(3 7.41006e-07 0)
(3 1.85982e-06 0)
(2.99999 4.10808e-06 0)
(2.99998 1.02963e-05 0)
(2.99997 2.26981e-05 0)
(2.99991 5.69527e-05 0)
(2.99981 0.000125296 0)
(2.99953 0.000315733 0)
(2.99896 0.000692514 0)
(2.99735 0.00176115 0)
(2.99432 0.0038842 0)
(2.98466 0.00991577 0)
(2.96709 0.0228807 0)
(2.90937 0.0578985 0)
(2.76876 0.15215 0)
(2.40817 0.393509 0)
(1.92191 0.813242 0)
(3 1.17466e-10 0)
(3 5.28619e-10 0)
(3 2.18148e-09 0)
(3 5.14845e-09 0)
(3 1.51552e-08 0)
(3 3.22133e-08 0)
(3 8.83426e-08 0)
(3 1.83537e-07 0)
(3 4.94585e-07 0)
(3 1.02254e-06 0)
(3 2.74242e-06 0)
(2.99999 5.66539e-06 0)
(2.99998 1.51747e-05 0)
(2.99995 3.1335e-05 0)
(2.99988 8.39823e-05 0)
(2.99974 0.000173134 0)
(2.99934 0.000466251 0)
(2.99856 0.000955195 0)
(2.99632 0.00263547 0)
(2.99212 0.00521858 0)
(2.97889 0.0155006 0)
(2.95349 0.0304295 0)
(2.8741 0.0937781 0)
(2.66451 0.23248 0)
(2.22041 0.59585 0)
(3 4.96681e-11 0)
(3 3.82984e-10 0)
(3 1.18286e-09 0)
(3 3.52962e-09 0)
(3 8.3622e-09 0)
(3 2.17826e-08 0)
(3 4.88833e-08 0)
(3 1.23408e-07 0)
(3 2.73421e-07 0)
(3 6.84938e-07 0)
(3 1.51273e-06 0)
(2.99999 3.78201e-06 0)
(2.99999 8.34389e-06 0)
(2.99997 2.08545e-05 0)
(2.99993 4.59584e-05 0)
(2.99985 0.00011498 0)
(2.99961 0.000252936 0)
(2.99916 0.000635753 0)
(2.99788 0.00139088 0)
(2.99538 0.00357907 0)
(2.98804 0.00762198 0)
(2.97385 0.0208725 0)
(2.93134 0.0451784 0)
(2.82584 0.130396 0)
(2.55572 0.33526 0)
(3 2.67506e-11 0)
(3 2.49659e-10 0)
(3 7.06458e-10 0)
(3 2.26001e-09 0)
(3 5.00827e-09 0)
(3 1.38466e-08 0)
(3 2.92175e-08 0)
(3 7.80689e-08 0)
(3 1.62915e-07 0)
(3 4.31453e-07 0)
(3 8.98192e-07 0)
(3 2.37216e-06 0)
(2.99999 4.93533e-06 0)
(2.99998 1.30214e-05 0)
(2.99996 2.70644e-05 0)
(2.99991 7.14383e-05 0)
(2.99978 0.000148071 0)
(2.99951 0.00039218 0)
(2.99877 0.000808591 0)
(2.99731 0.00216901 0)
(2.99321 0.00441311 0)
(2.98479 0.012291 0)
(2.9614 0.0249355 0)
(2.90683 0.0720905 0)
(2.75936 0.17143 0)
(3 1.85231e-11 0)
(3 1.41736e-10 0)
(3 4.38368e-10 0)
(3 1.30157e-09 0)
(3 3.0839e-09 0)
(3 7.99113e-09 0)
(3 1.79258e-08 0)
(3 4.50084e-08 0)
(3 9.96597e-08 0)
(3 2.48265e-07 0)
(3 5.4794e-07 0)
(3 1.36213e-06 0)
(3 3.0031e-06 0)
(2.99999 7.46191e-06 0)
(2.99998 1.6434e-05 0)
(2.99995 4.08615e-05 0)
(2.99988 8.98248e-05 0)
(2.99971 0.00022396 0)
(2.99936 0.00049116 0)
(2.99838 0.00123255 0)
(2.99644 0.00270692 0)
(2.99104 0.00684722 0)
(2.97973 0.0154445 0)
(2.94886 0.0391317 0)
(2.87529 0.0967139 0)
(3 1.35907e-11 0)
(3 7.34317e-11 0)
(3 2.71924e-10 0)
(3 6.97738e-10 0)
(3 1.89131e-09 0)
(3 4.31578e-09 0)
(3 1.09547e-08 0)
(3 2.43306e-08 0)
(3 6.07679e-08 0)
(3 1.34066e-07 0)
(3 3.33466e-07 0)
(3 7.34359e-07 0)
(3 1.82479e-06 0)
(2.99999 4.01493e-06 0)
(2.99999 9.97878e-06 0)
(2.99997 2.19291e-05 0)
(2.99993 5.45844e-05 0)
(2.99985 0.000119766 0)
(2.99962 0.000299247 0)
(2.99916 0.000655462 0)
(2.99788 0.00164685 0)
(2.99541 0.00364477 0)
(2.98811 0.00910842 0)
(2.97408 0.021105 0)
(2.93177 0.0519782 0)
(3 6.05262e-12 0)
(3 4.6554e-11 0)
(3 1.43878e-10 0)
(3 4.28049e-10 0)
(3 1.01338e-09 0)
(3 2.62676e-09 0)
(3 5.88302e-09 0)
(3 1.47601e-08 0)
(3 3.26127e-08 0)
(3 8.11478e-08 0)
(3 1.78681e-07 0)
(3 4.43647e-07 0)
(3 9.75959e-07 0)
(3 2.42198e-06 0)
(2.99999 5.32551e-06 0)
(2.99998 1.32179e-05 0)
(2.99996 2.90424e-05 0)
(2.99991 7.21526e-05 0)
(2.9998 0.00015833 0)
(2.99951 0.000394617 0)
(2.99893 0.000863333 0)
(2.99726 0.00217649 0)
(2.99425 0.00472842 0)
(2.98433 0.0122851 0)
(2.96679 0.026915 0)
(3 4.39191e-12 0)
(3 2.37034e-11 0)
(3 8.77651e-11 0)
(3 2.25121e-10 0)
(3 6.09688e-10 0)
(3 1.39021e-09 0)
(3 3.52287e-09 0)
(3 7.81494e-09 0)
(3 1.94755e-08 0)
(3 4.29042e-08 0)
(3 1.06451e-07 0)
(3 2.34093e-07 0)
(3 5.8009e-07 0)
(3 1.27504e-06 0)
(3 3.15819e-06 0)
(2.99999 6.93912e-06 0)
(2.99998 1.71873e-05 0)
(2.99995 3.77251e-05 0)
(2.99988 9.35316e-05 0)
(2.99975 0.000204869 0)
(2.99937 0.000511441 0)
(2.99862 0.00110648 0)
(2.99653 0.00285967 0)
(2.99251 0.00595836 0)
(2.98049 0.0164967 0)
(3 1.67224e-12 0)
(3 1.52343e-11 0)
(3 4.36094e-11 0)
(3 1.3827e-10 0)
(3 3.08931e-10 0)
(3 8.44459e-10 0)
(3 1.79297e-09 0)
(3 4.72688e-09 0)
(3 9.91431e-09 0)
(3 2.58823e-08 0)
(3 5.41318e-08 0)
(3 1.40897e-07 0)
(3 2.9455e-07 0)
(3 7.65787e-07 0)
(3 1.60109e-06 0)
(3 4.16029e-06 0)
(2.99999 8.69799e-06 0)
(2.99997 2.26029e-05 0)
(2.99994 4.72231e-05 0)
(2.99985 0.000122907 0)
(2.99968 0.000256404 0)
(2.99921 0.000671099 0)
(2.99829 0.00139298 0)
(2.99568 0.00372205 0)
(2.99077 0.00758403 0)
(3 1.3643e-12 0)
(3 7.37148e-12 0)
(3 2.72584e-11 0)
(3 6.99267e-11 0)
(3 1.89004e-10 0)
(3 4.30783e-10 0)
(3 1.08861e-09 0)
(3 2.41277e-09 0)
(3 5.99266e-09 0)
(3 1.31857e-08 0)
(3 3.25928e-08 0)
(3 7.15691e-08 0)
(3 1.76637e-07 0)
(3 3.87621e-07 0)
(3 9.56039e-07 0)
(3 2.09727e-06 0)
(2.99999 5.17064e-06 0)
(2.99999 1.13376e-05 0)
(2.99997 2.79483e-05 0)
(2.99992 6.12217e-05 0)
(2.99983 0.00015102 0)
(2.99957 0.000330274 0)
(2.99907 0.000817952 0)
(2.99766 0.00177926 0)
(2.99504 0.00450277 0)
(3 7.65499e-13 0)
(3 4.18983e-12 0)
(3 1.54186e-11 0)
(3 3.96066e-11 0)
(3 1.06708e-10 0)
(3 2.43414e-10 0)
(3 6.13269e-10 0)
(3 1.36032e-09 0)
(3 3.36877e-09 0)
(3 7.41815e-09 0)
(3 1.82835e-08 0)
(3 4.01793e-08 0)
(3 9.88839e-08 0)
(3 2.17176e-07 0)
(3 5.3416e-07 0)
(3 1.17296e-06 0)
(3 2.88377e-06 0)
(2.99999 6.33138e-06 0)
(2.99998 1.55611e-05 0)
(2.99996 3.41426e-05 0)
(2.99991 8.3936e-05 0)
(2.99977 0.000183819 0)
(2.99949 0.000453355 0)
(2.99875 0.000986834 0)
(2.99726 0.00248461 0)
(3 4.6057e-13 0)
(3 2.2333e-12 0)
(3 8.80458e-12 0)
(3 2.13798e-11 0)
(3 6.05682e-11 0)
(3 1.31667e-10 0)
(3 3.47142e-10 0)
(3 7.35667e-10 0)
(3 1.90328e-09 0)
(3 4.00827e-09 0)
(3 1.03127e-08 0)
(3 2.16875e-08 0)
(3 5.56903e-08 0)
(3 1.17107e-07 0)
(3 3.00437e-07 0)
(3 6.31967e-07 0)
(3 1.62039e-06 0)
(3 3.40956e-06 0)
(2.99999 8.74029e-06 0)
(2.99998 1.83886e-05 0)
(2.99995 4.71696e-05 0)
(2.99988 9.91325e-05 0)
(2.99974 0.000254969 0)
(2.99935 0.00053498 0)
(2.99859 0.00138401 0)
(3 2.47058e-13 0)
(3 1.19411e-12 0)
(3 4.71146e-12 0)
(3 1.14406e-11 0)
(3 3.24113e-11 0)
(3 7.04569e-11 0)
(3 1.85631e-10 0)
(3 3.93298e-10 0)
(3 1.01624e-09 0)
(3 2.13921e-09 0)
(3 5.49455e-09 0)
(3 1.15475e-08 0)
(3 2.95915e-08 0)
(3 6.21732e-08 0)
(3 1.59123e-07 0)
(3 3.34367e-07 0)
(3 8.54904e-07 0)
(3 1.79673e-06 0)
(2.99999 4.58972e-06 0)
(2.99999 9.64476e-06 0)
(2.99997 2.46239e-05 0)
(2.99994 5.16928e-05 0)
(2.99986 0.000132064 0)
(2.99969 0.000276669 0)
(2.99924 0.000709502 0)
(3 9.1769e-14 0)
(3 7.04017e-13 0)
(3 2.17641e-12 0)
(3 6.44465e-12 0)
(3 1.52473e-11 0)
(3 3.92453e-11 0)
(3 8.77246e-11 0)
(3 2.18048e-10 0)
(3 4.8029e-10 0)
(3 1.18183e-09 0)
(3 2.59199e-09 0)
(3 6.35586e-09 0)
(3 1.39183e-08 0)
(3 3.40746e-08 0)
(3 7.45642e-08 0)
(3 1.82353e-07 0)
(3 3.98839e-07 0)
(3 9.74542e-07 0)
(3 2.13031e-06 0)
(2.99999 5.20178e-06 0)
(2.99999 1.13608e-05 0)
(2.99997 2.77364e-05 0)
(2.99992 6.04896e-05 0)
(2.99983 0.000147836 0)
(2.9996 0.000321776 0)
(3 3.66688e-14 0)
(3 3.57672e-13 0)
(3 9.94983e-13 0)
(3 3.20706e-12 0)
(3 7.01476e-12 0)
(3 1.93999e-11 0)
(3 4.03688e-11 0)
(3 1.074e-10 0)
(3 2.20674e-10 0)
(3 5.80349e-10 0)
(3 1.18786e-09 0)
(3 3.11092e-09 0)
(3 6.35711e-09 0)
(3 1.66165e-08 0)
(3 3.39191e-08 0)
(3 8.85591e-08 0)
(3 1.806e-07 0)
(3 4.71175e-07 0)
(3 9.59877e-07 0)
(3 2.50308e-06 0)
(2.99999 5.0923e-06 0)
(2.99998 1.32789e-05 0)
(2.99996 2.69524e-05 0)
(2.99991 7.03599e-05 0)
(2.99977 0.000142186 0)
(3 5.56211e-15 0)
(3 1.19018e-13 0)
(3 2.56164e-13 0)
(3 1.0257e-12 0)
(3 1.84878e-12 0)
(3 6.13785e-12 0)
(3 1.06912e-11 0)
(3 3.38276e-11 0)
(3 5.84363e-11 0)
(3 1.82253e-10 0)
(3 3.13858e-10 0)
(3 9.74196e-10 0)
(3 1.67362e-09 0)
(3 5.18688e-09 0)
(3 8.88643e-09 0)
(3 2.75409e-08 0)
(3 4.70257e-08 0)
(3 1.45898e-07 0)
(3 2.48063e-07 0)
(3 7.7125e-07 0)
(2.99999 1.3038e-06 0)
(2.99999 4.06852e-06 0)
(2.99997 6.81784e-06 0)
(2.99993 2.14203e-05 0)
(2.99985 3.5382e-05 0)
(1.1174 1.18307 0)
(1.55331 1.06258 0)
(1.81298 0.897292 0)
(1.91741 0.680001 0)
(1.91347 0.451346 0)
(1.86814 0.223614 0)
(1.76719 0.0414901 0)
(1.66359 -0.0288931 0)
(1.60227 -0.0171745 0)
(1.58409 0.0134 0)
(1.58183 0.0302393 0)
(1.58089 0.033523 0)
(1.57894 0.0291803 0)
(1.57578 0.0221075 0)
(1.57169 0.0153808 0)
(1.56787 0.0110027 0)
(1.56638 0.00812532 0)
(1.56743 0.00612771 0)
(1.57074 0.00434084 0)
(1.57578 0.00276255 0)
(1.58235 0.00135369 0)
(1.59018 9.2783e-05 0)
(1.59894 -0.000962179 0)
(1.60823 -0.00185955 0)
(1.61789 -0.00254203 0)
(1.62812 -0.00300516 0)
(1.63905 -0.00327659 0)
(1.65029 -0.00344381 0)
(1.66122 -0.00341194 0)
(1.67175 -0.00321406 0)
(1.68184 -0.00294331 0)
(1.69138 -0.00264068 0)
(1.7005 -0.00230989 0)
(1.70921 -0.00204857 0)
(1.71687 -0.00199843 0)
(1.72198 -0.00172654 0)
(1.72475 -0.00136311 0)
(1.72558 -0.00095298 0)
(1.72198 -0.000401221 0)
(1.70856 0.000657205 0)
(1.67341 0.00264842 0)
(1.58935 0.00698366 0)
(1.39266 0.0157855 0)
(0.926674 0.0350811 0)
(0.106742 0.0869181 0)
(-0.394338 0.105241 0)
(-0.397227 0.0107487 0)
(-0.0935106 -0.0727763 0)
(0.152648 -0.100252 0)
(0.341133 -0.105739 0)
(0.475634 -0.104011 0)
(0.571967 -0.0951364 0)
(0.652307 -0.0822713 0)
(0.72462 -0.0701311 0)
(0.791647 -0.0594409 0)
(0.858499 -0.0503625 0)
(0.927707 -0.0442447 0)
(0.99225 -0.0395519 0)
(1.04873 -0.0357669 0)
(1.09927 -0.0324047 0)
(1.14648 -0.029433 0)
(1.19126 -0.026812 0)
(1.23382 -0.0245021 0)
(1.27428 -0.0224402 0)
(1.3128 -0.0205844 0)
(1.34962 -0.018889 0)
(1.38497 -0.0173335 0)
(1.41906 -0.0158923 0)
(1.45208 -0.0145555 0)
(1.48414 -0.0133018 0)
(1.51534 -0.0121276 0)
(1.54573 -0.0110143 0)
(1.57537 -0.00996529 0)
(1.60428 -0.00896661 0)
(1.63249 -0.00802773 0)
(1.66 -0.00713719 0)
(1.68683 -0.00630531 0)
(1.713 -0.00552593 0)
(1.73854 -0.00480887 0)
(1.76347 -0.00414265 0)
(1.78782 -0.00353162 0)
(1.81163 -0.00296847 0)
(1.83495 -0.00245704 0)
(1.85781 -0.00199131 0)
(1.88027 -0.00158094 0)
(1.9024 -0.00123344 0)
(1.9242 -0.000937956 0)
(1.94569 -0.000677539 0)
(1.9669 -0.000442289 0)
(1.98785 -0.00021914 0)
(2.00857 -9.18725e-06 0)
(2.02908 0.000203474 0)
(2.04939 0.000407935 0)
(2.06949 0.000628456 0)
(2.08937 0.000847598 0)
(2.10891 0.00110364 0)
(2.12788 0.00140268 0)
(2.14552 0.00179879 0)
(2.16082 0.00255136 0)
(2.17261 0.00335141 0)
(1.26458 1.09497 0)
(1.60199 0.863692 0)
(1.80834 0.579831 0)
(1.89768 0.288079 0)
(1.92168 0.0605793 0)
(1.93802 -0.107442 0)
(1.96512 -0.201296 0)
(1.98151 -0.211433 0)
(1.98328 -0.17326 0)
(1.97435 -0.124932 0)
(1.95886 -0.0852191 0)
(1.94672 -0.0605622 0)
(1.94034 -0.0481507 0)
(1.9382 -0.0433873 0)
(1.9376 -0.0418739 0)
(1.9374 -0.0405403 0)
(1.93748 -0.0390531 0)