/*--------------------------------*- C++ -*----------------------------------*\
  =========                 |
  \\      /  F ield         | OpenFOAM: The Open Source CFD Toolbox
   \\    /   O peration     | Website:  https://openfoam.org
    \\  /    A nd           | Version:  6
     \\/     M anipulation  |
\*---------------------------------------------------------------------------*/
FoamFile
{
    version     2.0;
    format      ascii;
    class       surfaceScalarField;
    location    "45.9";
    object      phi;
}
// * * * * * * * * * * * * * * * * * * * * * * * * * * * * * * * * * * * * * //

dimensions      [0 3 -1 0 0 0 0];

internalField   nonuniform List<scalar> 
17370
(
-0.0900015
0.089851
0.289161
-0.0714652
0.0537557
0.364485
-0.0381229
0.0276937
0.426597
-0.0196409
0.0146065
0.504286
-0.0107626
0.00827075
0.601894
-0.00627065
0.00489581
0.720432
-0.00373602
0.00289998
0.863743
-0.00216299
0.00160713
1.03601
-0.00109342
0.000683241
1.24291
-0.00027732
-0.000111105
1.49158
0.000488091
-0.000893624
1.4916
0.00128756
-0.00177537
1.24318
0.00230589
-0.00301854
1.03635
0.00383931
-0.00499008
0.864057
0.00636064
-0.00835618
0.721053
0.0108419
-0.0146775
0.60305
0.0197047
-0.0277502
0.507485
0.0381736
-0.0537987
0.431793
0.0715003
-0.0898742
0.365149
0.0900149
0.198996
-0.128131
0.0882168
0.0399145
-0.364594
0.353367
-0.0746849
0.0859112
-0.446474
0.454313
-0.0844135
0.0765746
-0.521187
0.529895
-0.0684807
0.0597732
-0.612784
0.621561
-0.0515871
0.0428096
-0.726889
0.734154
-0.0353513
0.0280872
-0.867472
0.872575
-0.0224947
0.0173912
-1.03847
1.04191
-0.0135908
0.0101477
-1.24459
1.24702
-0.00753978
0.00510998
-1.49263
1.4946
-0.00316682
0.00119628
-1.4925
1.49422
0.000482739
-0.00220312
-1.24398
1.24586
0.00410463
-0.00598781
-1.03751
1.04005
0.00834618
-0.0108827
-0.866103
0.869843
0.0142488
-0.0179886
-0.724394
0.729946
0.0230391
-0.0285907
-0.608703
0.616121
0.0358123
-0.0432299
-0.514902
0.523049
0.0519623
-0.0601088
-0.43986
0.447921
0.0687753
-0.076837
-0.3753
0.376748
0.0846416
-0.0860899
-0.257336
0.222492
0.0748069
-0.0399623
-0.068504
0.0586727
0.00983132
-0.0518443
0.0584379
-0.374112
0.367518
-0.0575303
0.0537842
-0.453584
0.45733
-0.0486987
0.0447508
-0.527933
0.531881
-0.0409157
0.0372819
-0.621548
0.625182
-0.0331876
0.0291216
-0.735332
0.739398
-0.0245651
0.0204186
-0.874322
0.878468
-0.0160869
0.0124043
-1.04347
1.04715
-0.00867889
0.00551398
-1.24855
1.25171
-0.00219197
-0.000880326
-1.49666
1.49973
0.00392747
-0.00718728
-1.49721
1.50047
0.0102638
-0.0138716
-1.25008
1.25369
0.0174403
-0.0216484
-1.04594
1.05015
0.0256898
-0.0301437
-0.877779
0.882233
0.0341265
-0.0381372
-0.739918
0.743928
0.0416971
-0.0454528
-0.626791
0.630547
0.0493321
-0.0543521
-0.534825
0.539845
0.0580299
-0.0588514
-0.457489
0.458311
0.0521592
-0.0319728
-0.335776
0.31559
0.00988291
-0.0683639
0.058481
-0.0529168
0.0489154
0.00400134
-0.0332014
0.043764
-0.358071
0.347509
-0.0474769
0.0468598
-0.45926
0.459877
-0.0438134
0.0404687
-0.535775
0.53912
-0.0367059
0.0334128
-0.628497
0.631791
-0.0299903
0.0269752
-0.742614
0.745629
-0.0237351
0.0206419
-0.881977
0.88507
-0.0171225
0.013751
-1.05073
1.0541
-0.00996757
0.00643907
-1.25514
1.25866
-0.00248426
-0.00129988
-1.50323
1.50701
0.00505414
-0.0089201
-1.50415
1.50801
0.0123298
-0.0159544
-1.25745
1.26107
0.0191664
-0.0225058
-1.05395
1.05729
0.0254423
-0.028527
-0.885734
0.888818
0.0314164
-0.034715
-0.747199
0.750498
0.0379014
-0.0415527
-0.634345
0.637996
0.0448015
-0.0477395
-0.544167
0.547105
0.0482438
-0.0443725
-0.456612
0.452741
0.0336218
-0.0161971
-0.296248
0.278823
0.00406448
-0.0526683
0.0486038
-0.0458318
0.0433293
0.00250256
-0.0228553
0.0332586
-0.336799
0.326395
-0.0391027
0.0401353
-0.459548
0.458516
-0.0389604
0.0366858
-0.541827
0.544102
-0.0340326
0.0314504
-0.634826
0.637408
-0.0284039
0.0255214
-0.748661
0.751543
-0.0222773
0.0193034
-0.88801
0.890984
-0.0160217
0.0129435
-1.05722
1.06029
-0.00943915
0.00604644
-1.26211
1.2655
-0.0020963
-0.00178038
-1.51089
1.51476
0.0056185
-0.0094525
-1.51191
1.51575
0.0126875
-0.0159814
-1.26452
1.26781
0.018848
-0.0218908
-1.0604
1.06345
0.0246552
-0.0276892
-0.891886
0.89492
0.0303999
-0.0332758
-0.753717
0.756593
0.0357123
-0.0382164
-0.641077
0.643581
0.0403633
-0.0413709
-0.548924
0.549932
0.0401657
-0.03407
-0.447484
0.441388
0.0233926
-0.0102068
-0.263633
0.250448
0.00258015
-0.0454497
0.0428696
-0.0412477
0.0394724
0.00177531
-0.0168048
0.0260882
-0.316516
0.307232
-0.0327272
0.0348915
-0.456899
0.454734
-0.0344915
0.032837
-0.546067
0.547722
-0.0306728
0.0285944
-0.639698
0.641777
-0.0261855
0.0238121
-0.75417
0.756543
-0.020982
0.018217
-0.893852
0.896617
-0.0150056
0.0119583
-1.06331
1.06636
-0.00849216
0.00518951
-1.2688
1.2721
-0.00137895
-0.00233615
-1.51854
1.52226
0.00600236
-0.00966616
-1.51949
1.52316
0.0127727
-0.015977
-1.27107
1.27428
0.0187594
-0.0216666
-1.06648
1.06938
0.024158
-0.0267082
-0.897751
0.900301
0.0288532
-0.031041
-0.759063
0.761251
0.0329372
-0.0349148
-0.645757
0.647734
0.0363857
-0.0365593
-0.550474
0.550647
0.0341302
-0.0271246
-0.434759
0.427753
0.0174736
-0.00737071
-0.238955
0.228852
0.00187011
-0.040702
0.0388319
-0.0379425
0.0366043
0.0013382
-0.0128507
0.0208334
-0.298607
0.290624
-0.0276247
0.0305804
-0.452149
0.449193
-0.0308157
0.0297233
-0.549132
0.550225
-0.0277568
0.0258666
-0.643787
0.645678
-0.0236968
0.0215868
-0.758753
0.760863
-0.0191007
0.0166431
-0.899162
0.90162
-0.0137309
0.0108819
-1.06927
1.07212
-0.00755278
0.00433864
-1.27533
1.27854
-0.000611267
-0.00300917
-1.52589
1.52951
0.0065687
-0.0101129
-1.52676
1.5303
0.0130804
-0.0160791
-1.27743
1.28043
0.0185958
-0.0211267
-1.07213
1.07466
0.0232395
-0.0253693
-0.902618
0.904748
0.0271864
-0.029072
-0.763253
0.765138
0.030729
-0.0324686
-0.649569
0.651308
0.0332955
-0.0327466
-0.550467
0.549918
0.0294151
-0.0221243
-0.420551
0.41326
0.0136716
-0.00569592
-0.219917
0.211941
0.00145329
-0.0371978
0.0357445
-0.0354346
0.0344003
0.00103425
-0.0100617
0.0168189
-0.283283
0.276526
-0.0233512
0.026764
-0.445997
0.442584
-0.0275793
0.0269031
-0.551106
0.551782
-0.0251657
0.0234014
-0.647547
0.649312
-0.0213588
0.0193738
-0.762905
0.76489
-0.0170437
0.0147585
-0.903913
0.906198
-0.0120676
0.00942552
-1.07478
1.07742
-0.00631112
0.0032613
-1.28164
1.28469
0.000317164
-0.00380757
-1.53306
1.53655
0.00722221
-0.0105747
-1.53376
1.53712
0.0133216
-0.0160324
-1.2833
1.28601
0.018267
-0.0204891
-1.07704
1.07926
0.0223498
-0.0242392
-0.906758
0.908647
0.0258584
-0.0275448
-0.766918
0.768604
0.0290203
-0.0304442
-0.652913
0.654337
0.0307853
-0.0295294
-0.549027
0.547771
0.0255984
-0.0184111
-0.406
0.398812
0.0110655
-0.00458072
-0.204783
0.198298
0.00117426
-0.0344483
0.033274
-0.0334912
0.0326827
0.000808475
-0.00799385
0.0136822
-0.270336
0.264647
-0.019736
0.0233562
-0.439063
0.435443
-0.0246649
0.0242537
-0.552366
0.552778
-0.0228042
0.0211682
-0.651064
0.6527
-0.0192366
0.0173448
-0.766817
0.768708
-0.0151052
0.0129
-0.908371
0.910576
-0.0103047
0.0077707
-1.07994
1.08247
-0.00480454
0.00191073
-1.2876
1.2905
0.0014765
-0.0047731
-1.53991
1.5432
0.00797941
-0.0110944
-1.54034
1.54346
0.0136222
-0.0161001
-1.28862
1.2911
0.0181413
-0.0201684
-1.08141
1.08343
0.0218522
-0.0235437
-0.910453
0.912144
0.0249775
-0.0264615
-0.770189
0.771673
0.027734
-0.0287797
-0.655549
0.656595
0.0287523
-0.0268388
-0.546194
0.54428
0.022531
-0.0156396
-0.39177
0.384878
0.00922161
-0.00380284
-0.192398
0.186979
0.000979167
-0.0322112
0.0312321
-0.0319717
0.031338
0.00063367
-0.00639944
0.0111757
-0.259446
0.25467
-0.0166445
0.0202691
-0.431827
0.428202
-0.0219035
0.0217191
-0.553115
0.5533
-0.0205026
0.0189224
-0.654348
0.655929
-0.0170471
0.0152119
-0.770556
0.772392
-0.0130515
0.0109336
-0.912659
0.914777
-0.00844288
0.0060093
-1.08488
1.08731
-0.00315835
0.000383103
-1.29328
1.29605
0.00284675
-0.00596616
-1.54638
1.5495
0.00897463
-0.0118688
-1.54646
1.54935
0.0141912
-0.0164359
-1.29349
1.29573
0.018258
-0.0200442
-1.08537
1.08715
0.0215195
-0.0230078
-0.913757
0.915245
0.0242835
-0.0256119
-0.773076
0.774405
0.0267601
-0.0274214
-0.657426
0.658087
0.0270412
-0.0246037
-0.542119
0.539681
0.0200878
-0.0135671
-0.378184
0.371663
0.00789373
-0.00324909
-0.181988
0.177343
0.000840402
-0.0303347
0.0294943
-0.030784
0.0302919
0.000492056
-0.00511581
0.00910588
-0.250317
0.246327
-0.0139481
0.017437
-0.424663
0.421174
-0.0192725
0.0192936
-0.55344
0.553419
-0.0182825
0.016746
-0.65756
0.659097
-0.0149041
0.0130947
-0.774191
0.776001
-0.0109615
0.00887097
-0.916777
0.918868
-0.00641932
0.00403665
-1.08963
1.09201
-0.00126754
-0.00140037
-1.29871
1.30138
0.00447161
-0.00740309
-1.55248
1.55541
0.0102005
-0.0128689
-1.55212
1.55479
0.0149971
-0.0170454
-1.2979
1.29995
0.0186978
-0.0203061
-1.08888
1.09048
0.0216214
-0.0229348
-0.916665
0.917979
0.024052
-0.0252054
-0.775669
0.776822
0.026152
-0.0264556
-0.658549
0.658853
0.0257053
-0.022821
-0.537037
0.534153
0.018192
-0.012037
-0.365346
0.359191
0.0069432
-0.00286006
-0.173013
0.16893
0.000744912
-0.0287135
0.0279686
-0.0298668
0.0294949
0.000371864
-0.00403678
0.00733258
-0.242711
0.239415
-0.0115285
0.0147617
-0.417833
0.4146
-0.0166656
0.0168632
-0.553366
0.553169
-0.0159616
0.0145312
-0.66065
0.662081
-0.0127117
0.0109024
-0.777786
0.779596
-0.00876438
0.00667717
-0.920857
0.922944
-0.0042455
0.00190072
-1.09428
1.09662
0.000807141
-0.00340105
-1.30394
1.30653
0.00637021
-0.00917978
-1.55824
1.56104
0.0118231
-0.0142943
-1.55735
1.55982
0.0162212
-0.018036
-1.30192
1.30373
0.0194774
-0.020865
-1.09203
1.09342
0.0219972
-0.0231384
-0.91924
0.920381
0.0241166
-0.0251077
-0.777916
0.778907
0.0258072
-0.0258253
-0.65901
0.659029
0.024681
-0.0214253
-0.531092
0.527836
0.0167495
-0.0109232
-0.35323
0.347403
0.00627108
-0.00259115
-0.165082
0.161402
0.000680622
-0.0272686
0.0265879
-0.0291821
0.0289163
0.000265749
-0.00309294
0.00576256
-0.236455
0.233785
-0.0093163
0.0122153
-0.41156
0.408661
-0.0140698
0.0143497
-0.553008
0.552728
-0.013487
0.012093
-0.663583
0.664978
-0.0102511
0.00841747
-0.781385
0.783218
-0.00626648
0.00418027
-0.924902
0.926988
-0.00175803
-0.000572109
-1.09884
1.10117
0.00325079
-0.00579469
-1.30902
1.31157
0.00866731
-0.0113397
-1.56374
1.56642
0.0138144
-0.016092
-1.56218
1.56446
0.0178378
-0.019448
-1.30547
1.30708
0.0206943
-0.0218624
-1.09474
1.09591
0.0227914
-0.0237258
-0.921455
0.922389
0.0245425
-0.0253715
-0.779829
0.780658
0.0258261
-0.02559
-0.6589
0.658663
0.0240397
-0.0204386
-0.524435
0.520834
0.0157256
-0.0101557
-0.341747
0.336177
0.00582181
-0.00241829
-0.157895
0.154491
0.000641676
-0.0259411
0.0252995
-0.0287071
0.028542
0.000165071
-0.00221651
0.00429613
-0.231429
0.229349
-0.00720095
0.00969912
-0.405991
0.403493
-0.0114161
0.0117345
-0.552521
0.552203
-0.0109248
0.00957231
-0.666463
0.667815
-0.00770426
0.00581013
-0.785041
0.786935
-0.00357335
0.00140808
-0.928973
0.931138
0.00108665
-0.00345803
-1.10339
1.10576
0.0061446
-0.00865554
-1.314
1.31651
0.0114414
-0.0139802
-1.56896
1.5715
0.0162772
-0.0183353
-1.5666
1.56866
0.0198705
-0.0212513
-1.30861
1.30999
0.022304
-0.0232772
-1.09704
1.09801
0.024039
-0.0247937
-0.923294
0.924048
0.0254476
-0.0261031
-0.781408
0.782064
0.0262477
-0.025681
-0.658208
0.657641
0.0237317
-0.0198056
-0.517115
0.513189
0.0150492
-0.00966388
-0.330749
0.325364
0.00554719
-0.00232105
-0.151213
0.147987
0.000623328
-0.0246825
0.0240592
-0.0284341
0.0283718
6.22336e-05
-0.00135727
0.00285871
-0.227575
0.226073
-0.00509571
0.00711934
-0.401268
0.399244
-0.00857447
0.00882528
-0.552026
0.551775
-0.00799915
0.00663896
-0.669289
0.670649
-0.00470915
0.00274
-0.788809
0.790778
-0.000416022
-0.00182217
-0.933186
0.935425
0.00438173
-0.00679503
-1.10802
1.11043
0.00950717
-0.0120205
-1.31892
1.32143
0.0147727
-0.0172313
-1.57393
1.57639
0.0193925
-0.021262
-1.57059
1.57246
0.0225976
-0.0237371
-1.31128
1.31242
0.0245508
-0.0252479
-1.09893
1.09963
0.0257577
-0.0262664
-0.924753
0.925262
0.0267374
-0.0272039
-0.782572
0.783038
0.0270702
-0.0261208
-0.656801
0.655852
0.023766
-0.0195187
-0.509175
0.504927
0.0146929
-0.00941012
-0.320098
0.314815
0.00541864
-0.00228578
-0.144852
0.141719
0.000621048
-0.0234563
0.0228352
-0.0283673
0.028415
-4.77142e-05
-0.000470637
0.00138628
-0.22488
0.223965
-0.00292638
0.00441456
-0.397529
0.396041
-0.0055144
0.00561441
-0.551742
0.551642
-0.00470274
0.00325887
-0.672194
0.673638
-0.00121549
-0.000871605
-0.792728
0.794815
0.00332031
-0.00566081
-0.937528
0.939868
0.00832406
-0.0108215
-1.11273
1.11523
0.0136013
-0.0161322
-1.32384
1.32637
0.0188374
-0.0211735
-1.57871
1.58105
0.0231541
-0.0247879
-1.57418
1.57581
0.0258917
-0.0267672
-1.31345
1.31433
0.0273405
-0.0277717
-1.10029
1.10072
0.0280361
-0.0282937
-0.925745
0.926003
0.0285717
-0.0287784
-0.783245
0.783452
0.0284035
-0.027
-0.654609
0.653205
0.0242087
-0.019606
-0.50062
0.496017
0.0146546
-0.00938289
-0.309621
0.304349
0.00542842
-0.00231068
-0.138644
0.135526
0.000635472
-0.0222283
0.0215929
-0.028519
0.0286835
-0.00016448
0.000468513
-0.00018153
-0.223371
0.223084
-0.000608175
0.00148181
-0.394895
0.394022
-0.00212675
0.00200877
-0.551824
0.551942
-0.000985624
-0.000558716
-0.675298
0.676842
0.00272372
-0.00496326
-0.796883
0.799122
0.00760431
-0.0101256
-0.942092
0.944613
0.0129741
-0.0156106
-1.11762
1.12026
0.0184964
-0.0210722
-1.3288
1.33138
0.0237619
-0.0260202
-1.58326
1.58552
0.0278407
-0.0292342
-1.57728
1.57867
0.0300819
-0.0306589
-1.31508
1.31566
0.0309579
-0.0310987
-1.1011
1.10124
0.0311028
-0.0310917
-0.926223
0.926212
0.0311321
-0.0309881
-0.783303
0.783159
0.0302767
-0.0283304
-0.65154
0.649593
0.0250549
-0.0200547
-0.491367
0.486367
0.0149194
-0.00956751
-0.299137
0.293785
0.00556574
-0.0023902
-0.132437
0.129261
0.000664589
-0.0209666
0.020302
-0.0289281
0.0292379
-0.000309788
0.00150043
-0.00186501
-0.223152
0.223516
0.00192897
-0.00178033
-0.393518
0.39337
0.00174056
-0.00220576
-0.552446
0.552911
0.00342443
-0.00513081
-0.678646
0.680352
0.00749217
-0.00993903
-0.801337
0.803784
0.0128215
-0.0155535
-0.947014
0.949746
0.0186074
-0.0214017
-1.12279
1.12558
0.0244204
-0.0270727
-1.33385
1.3365
0.029769
-0.0319287
-1.58764
1.5898
0.0335609
-0.0346694
-1.57988
1.58098
0.0352398
-0.0354661
-1.31608
1.31631
0.0354454
-0.0352498
-1.10129
1.1011
0.034957
-0.0346363
-0.926122
0.925802
0.0344323
-0.0338569
-0.782566
0.78199
0.0327209
-0.0301574
-0.647442
0.644878
0.026357
-0.0209045
-0.48134
0.475888
0.0155042
-0.00996665
-0.288458
0.282921
0.00582942
-0.00252304
-0.126085
0.122779
0.000707825
-0.0196425
0.0189347
-0.0296184
0.0300978
-0.000479439
0.0027629
-0.00388339
-0.224274
0.225394
0.0048504
-0.00552032
-0.393612
0.394282
0.00620368
-0.00712313
-0.553915
0.554835
0.00865998
-0.0106379
-0.682409
0.684387
0.0133055
-0.0160251
-0.806204
0.808924
0.0191881
-0.0221597
-0.952332
0.955303
0.0254637
-0.028468
-1.12827
1.13127
0.0316728
-0.0344205
-1.33905
1.3418
0.03711
-0.0391344
-1.59179
1.59381
0.0405183
-0.0412915
-1.58187
1.58264
0.0415188
-0.041364
-1.31634
1.31619
0.0409796
-0.0403935
-1.10074
1.10015
0.0397465
-0.0390606
-0.925337
0.924651
0.0385404
-0.0375041
-0.780918
0.779882
0.0358713
-0.0326289
-0.642186
0.638944
0.028212
-0.0221969
-0.470402
0.464387
0.0164268
-0.0105884
-0.277372
0.271534
0.00622377
-0.00271123
-0.119444
0.115932
0.000766015
-0.0182277
0.0174617
-0.0306575
0.0313529
-0.000695361
0.00425811
-0.00628156
-0.226959
0.228982
0.00830478
-0.00986446
-0.395376
0.396935
0.011375
-0.012851
-0.556455
0.557931
0.0147988
-0.0170975
-0.686768
0.689066
0.0201322
-0.0232009
-0.811606
0.814675
0.0267589
-0.0300883
-0.95816
0.961489
0.0337603
-0.0370499
-1.13419
1.13748
0.040489
-0.0433556
-1.34443
1.3473
0.0460447
-0.047928
-1.59565
1.59754
0.0490355
-0.0494193
-1.58316
1.58354
0.0492167
-0.048622
-1.31578
1.31519
0.047828
-0.0468083
-1.09932
1.0983
0.0457804
-0.0446753
-0.923742
0.922637
0.0436811
-0.0421255
-0.77831
0.776754
0.0398446
-0.0357996
-0.635608
0.631563
0.0306609
-0.0239708
-0.45834
0.45165
0.0177144
-0.0114442
-0.265648
0.259377
0.00675024
-0.00295197
-0.112362
0.108564
0.00083688
-0.0166937
0.0158568
-0.0321335
0.0331187
-0.000985193
0.00615761
-0.00925561
-0.231466
0.234564
0.0125208
-0.0151415
-0.399089
0.401709
0.0176277
-0.0197985
-0.560275
0.562446
0.0223035
-0.025033
-0.691822
0.694551
0.0285508
-0.0320747
-0.817709
0.821233
0.0361311
-0.0398896
-0.964722
0.968481
0.0439802
-0.0475846
-1.14068
1.14428
0.0512726
-0.0542619
-1.35004
1.35303
0.0569414
-0.058648
-1.59922
1.60093
0.0594207
-0.0593198
-1.58363
1.58353
0.0586315
-0.0574763
-1.31424
1.31308
0.0561845
-0.0546466
-1.09691
1.09537
0.0531779
-0.0515894
-0.921202
0.919613
0.0500471
-0.0478493
-0.774625
0.772428
0.0448009
-0.0398193
-0.627447
0.622466
0.0338276
-0.0262988
-0.444925
0.437396
0.0194005
-0.0125427
-0.253016
0.246158
0.0074078
-0.00324216
-0.104681
0.100515
0.000919061
-0.0150159
0.0140968
-0.034179
0.0355594
-0.00138036
0.00863342
-0.0130539
-0.238121
0.242542
0.0177918
-0.0216383
-0.405117
0.408963
0.0252681
-0.028319
-0.565755
0.568806
0.0316243
-0.0350059
-0.697874
0.701255
0.0392062
-0.0433107
-0.824726
0.82883
0.0479528
-0.0521952
-0.972138
0.97638
0.0567516
-0.0606968
-1.14778
1.15173
0.0646279
-0.0676794
-1.35584
1.35889
0.0702174
-0.0715816
-1.60232
1.60368
0.071859
-0.071146
-1.58305
1.58233
0.0698785
-0.0680603
-1.31148
1.30966
0.0661893
-0.0640364
-1.09336
1.0912
0.0620409
-0.0599344
-0.917593
0.915487
0.0577712
-0.0548604
-0.769627
0.766716
0.0509215
-0.0448252
-0.61743
0.611334
0.0377931
-0.0292155
-0.42982
0.421243
0.0214924
-0.013872
-0.239167
0.231546
0.00817761
-0.00356683
-0.0962416
0.0916308
0.00100615
-0.0131746
0.0121684
-0.0369869
0.0389367
-0.00194985
0.0120337
-0.0181469
-0.247394
0.253507
0.0246554
-0.0299143
-0.413916
0.419175
0.0348499
-0.0389295
-0.573312
0.577391
0.0432142
-0.0474315
-0.705344
0.709561
0.0525096
-0.0573437
-0.832906
0.83774
0.0627128
-0.0675357
-0.980533
0.985356
0.0726125
-0.0768933
-1.15554
1.15982
0.0810052
-0.0840247
-1.36169
1.36471
0.0862961
-0.0871892
-1.60465
1.60554
0.0868299
-0.0853413
-1.58113
1.57964
0.0833388
-0.0807245
-1.3073
1.30469
0.0781699
-0.0753541
-1.08847
1.08565
0.0727938
-0.0700571
-0.912816
0.91008
0.0672054
-0.0634152
-0.763134
0.759344
0.0583991
-0.0509581
-0.60517
0.597729
0.0426659
-0.03279
-0.412614
0.402738
0.0240165
-0.0154231
-0.223753
0.21516
0.00903698
-0.00390656
-0.0868956
0.0817652
0.00108937
-0.0111649
0.0100755
-0.0408762
0.043703
-0.00282673
0.0169696
-0.0253048
-0.259993
0.268328
0.0339829
-0.0409269
-0.426117
0.433061
0.0474136
-0.0527425
-0.583342
0.588671
0.0582514
-0.0635489
-0.714593
0.71989
0.0697372
-0.0754579
-0.842546
0.848266
0.081659
-0.0870886
-0.990099
0.995529
0.0926284
-0.0971156
-1.16391
1.16839
0.101202
-0.10396
-1.36737
1.37012
0.10567
-0.105802
-1.60589
1.60602
0.104528
-0.102017
-1.57753
1.57502
0.0991168
-0.0955925
-1.30144
1.29792
0.092302
-0.0887607
-1.08206
1.07852
0.0856011
-0.082132
-0.906557
0.903087
0.0785706
-0.0737173
-0.754742
0.749888
0.0674266
-0.0583784
-0.590196
0.581147
0.0485568
-0.037068
-0.392812
0.381323
0.0269669
-0.0171568
-0.206373
0.196563
0.00994342
-0.00423532
-0.0765114
0.0708033
0.00115926
-0.00899973
0.00784047
-0.0464071
0.0507093
-0.00430222
0.0246036
-0.0359394
-0.277058
0.288394
0.04741
-0.0566155
-0.442735
0.451941
0.0650841
-0.0719314
-0.59643
0.603277
0.0789896
-0.0857278
-0.72604
0.732778
0.0930952
-0.0996378
-0.853889
0.860431
0.106493
-0.112281
-1.00077
1.00656
0.117937
-0.122282
-1.1725
1.17684
0.125932
-0.128047
-1.37231
1.37443
0.128778
-0.127778
-1.60541
1.60441
0.125286
-0.121511
-1.57178
1.56801
0.117528
-0.112918
-1.29369
1.28908
0.108752
-0.104414
-1.07403
1.06969
0.100647
-0.0964079
-0.898568
0.894329
0.0920467
-0.085895
-0.744034
0.737882
0.0780846
-0.0671021
-0.571934
0.560951
0.055421
-0.041956
-0.36979
0.356325
0.0302199
-0.0189503
-0.186598
0.175328
0.0108039
-0.00450722
-0.0650184
0.0587218
0.00120129
-0.00671084
0.00550955
-0.0546338
0.0619756
-0.00734175
0.0379323
-0.0536883
-0.300681
0.316437
0.0690991
-0.0813989
-0.465391
0.477691
0.0919467
-0.100201
-0.613092
0.621347
0.108854
-0.11691
-0.740071
0.748127
0.125233
-0.132173
-0.866672
0.873612
0.139079
-0.144621
-1.01188
1.01742
0.149744
-0.153342
-1.1805
1.1841
0.155931
-0.156819
-1.37565
1.37654
0.156009
-0.153411
-1.6024
1.5998
0.149323
-0.143994
-1.56333
1.558
0.13874
-0.132895
-1.28366
1.27782
0.127713
-0.122402
-1.06426
1.05895
0.117892
-0.112907
-0.888789
0.883804
0.107578
-0.0998441
-0.730526
0.722792
0.0901373
-0.0767604
-0.549562
0.536186
0.0628266
-0.0470697
-0.342797
0.32704
0.0334735
-0.0206216
-0.16409
0.151238
0.0115121
-0.00467592
-0.0525066
0.0456705
0.00119358
-0.00435703
0.00316345
-0.068834
0.0729143
-0.00408033
0.0288215
-0.0425565
-0.334771
0.348506
0.0562979
-0.0675696
-0.495421
0.506693
0.077613
-0.0869918
-0.633051
0.64243
0.097478
-0.107037
-0.75559
0.765149
0.117555
-0.126776
-0.879561
0.888782
0.136464
-0.14494
-1.02202
1.0305
0.153618
-0.160821
-1.18658
1.19379
0.16763
-0.172593
-1.37618
1.38114
0.176271
-0.177592
-1.59588
1.5972
0.176489
-0.173479
-1.55149
1.54848
0.16947
-0.164249
-1.27104
1.26582
0.159354
-0.153597
-1.05246
1.04671
0.148637
-0.1429
-0.876972
0.871235
0.136307
-0.125563
-0.713379
0.702635
0.111612
-0.0929832
-0.522154
0.503525
0.0742333
-0.0535389
-0.311031
0.290336
0.0365658
-0.0214615
-0.138831
0.123727
0.011369
-0.00433955
-0.0393818
0.0323524
0.000990012
-0.00202022
0.0010302
-0.0802321
0.0782858
0.0019463
0.00746581
-0.0162617
-0.364973
0.373769
0.0266431
-0.0347544
-0.522544
0.530655
0.0428313
-0.0506359
-0.654344
0.662149
0.060188
-0.0690521
-0.774194
0.783058
0.078449
-0.0869345
-0.897416
0.905901
0.095834
-0.10328
-1.03868
1.04613
0.111072
-0.117159
-1.20076
1.20684
0.122828
-0.126617
-1.38573
1.38952
0.128753
-0.128672
-1.59759
1.59751
0.126169
-0.121713
-1.54459
1.54013
0.116225
-0.109474
-1.25993
1.25318
0.103139
-0.0960963
-1.03971
1.03267
0.0896065
-0.0823022
-0.861666
0.854362
0.075118
-0.0658095
-0.687963
0.678654
0.0553743
-0.0427922
-0.483261
0.470679
0.0313608
-0.0204759
-0.269569
0.258684
0.0127173
-0.00679839
-0.109252
0.103333
0.003293
-0.00112992
-0.0255786
0.0234155
0.000194175
0.000240528
-0.000434703
-0.0815977
0.0787569
0.00284081
-0.00125722
-0.00372756
-0.385392
0.390377
0.0105517
-0.0165038
-0.542583
0.548535
0.0225368
-0.0292414
-0.672341
0.679046
0.0375223
-0.045205
-0.790972
0.798654
0.0535691
-0.060976
-0.913607
0.921014
0.0685089
-0.0751787
-1.05341
1.06008
0.0819466
-0.0872997
-1.21249
1.21785
0.0917993
-0.0945012
-1.3926
1.3953
0.0957139
-0.0945752
-1.59657
1.59543
0.0910578
-0.0856401
-1.53483
1.52941
0.0794455
-0.0721917
-1.24606
1.23881
0.0650586
-0.0573966
-1.0247
1.01704
0.050295
-0.0423933
-0.844916
0.837014
0.0352869
-0.027213
-0.665572
0.657499
0.0193479
-0.0111951
-0.45626
0.448108
0.00549811
-0.00162329
-0.24701
0.243135
-0.000210617
0.000878172
-0.0968296
0.0961621
-0.000840801
0.00048629
-0.0207771
0.0211317
-0.000199579
0.00101928
-0.000819698
-0.0804111
0.0776849
0.00272627
-0.00486513
0.00237666
-0.398942
0.40143
0.00202617
-0.00652011
-0.557577
0.562071
0.0116483
-0.0172959
-0.687135
0.692783
0.0244433
-0.0310756
-0.80567
0.812302
0.0382629
-0.0446562
-0.927897
0.93429
0.0515439
-0.0572369
-1.06633
1.07203
0.0631772
-0.0674111
-1.22279
1.22702
0.071209
-0.0733439
-1.39774
1.39988
0.073865
-0.0720635
-1.59385
1.59205
0.0684404
-0.0630592
-1.5235
1.51812
0.056917
-0.0493156
-1.23132
1.22372
0.0420588
-0.0339998
-1.00857
1.00051
0.0262196
-0.01797
-0.827183
0.818933
0.0105892
-0.00359869
-0.646136
0.639146
-0.00215689
0.00659869
-0.438314
0.433872
-0.00839545
0.00824515
-0.236827
0.236977
-0.00708769
0.00504585
-0.0944801
0.0965219
-0.00326388
0.0015231
-0.0208594
0.0226001
-0.000474759
0.00104499
-0.000570233
-0.0790057
0.0766259
0.00237975
-0.00595651
0.00498055
-0.408094
0.40907
-0.00165187
-0.001737
-0.569654
0.573043
0.00591481
-0.0110822
-0.699619
0.704787
0.0171397
-0.0230246
-0.818228
0.824113
0.0293163
-0.0349378
-0.940262
0.945884
0.0409153
-0.0460388
-1.0776
1.08273
0.0511073
-0.0550364
-1.23112
1.23505
0.0583008
-0.0600648
-1.40167
1.40343
0.0603266
-0.0584325
-1.59016
1.58826
0.054792
-0.0492212
-1.51213
1.50656
0.0430889
-0.0356035
-1.21604
1.20855
0.0282963
-0.020025
-0.991764
0.983493
0.0124596
-0.00454262
-0.8093
0.801383
-0.00204926
0.00797271
-0.629134
0.623211
-0.0121918
0.0147958
-0.426685
0.424081
-0.0149611
0.0129787
-0.234009
0.235992
-0.0104472
0.00732772
-0.0974498
0.100569
-0.00460392
0.00208613
-0.0238271
0.0263449
-0.000623268
0.000390897
0.000232371
-0.0777517
0.0757393
0.00201242
-0.0058121
0.00527996
-0.414496
0.415028
-0.00325105
0.000436203
-0.579094
0.581909
0.00370795
-0.00819492
-0.710308
0.714795
0.0134682
-0.0186309
-0.82921
0.834373
0.0242812
-0.029364
-0.951179
0.956262
0.034898
-0.0394448
-1.08759
1.09214
0.0440696
-0.047676
-1.23872
1.24232
0.0506307
-0.0522023
-1.40497
1.40654
0.0523261
-0.0507267
-1.58631
1.58471
0.0469977
-0.0415358
-1.50048
1.49502
0.0354061
-0.0280485
-1.20081
1.19345
0.0212933
-0.0135245
-0.975072
0.967303
0.00666778
0.00029361
-0.792866
0.785905
-0.00620906
0.0115511
-0.614678
0.609336
-0.0150654
0.0171569
-0.418498
0.416406
-0.0166733
0.0141659
-0.234693
0.2372
-0.0113253
0.00787821
-0.102593
0.10604
-0.0049033
0.00223611
-0.0281837
0.0308509
-0.000666677
-0.0006149
0.00128158
-0.0768597
0.0753121
0.00154755
-0.00490615
0.00467235
-0.419378
0.419612
-0.00294814
0.000778096
-0.587455
0.589625
0.00313885
-0.00726701
-0.719693
0.723822
0.0123223
-0.0168193
-0.839153
0.84365
0.0218344
-0.0263898
-0.961326
0.965882
0.0316952
-0.0358841
-1.09673
1.10092
0.0400831
-0.0435981
-1.24579
1.2493
0.0468307
-0.0483782
-1.40817
1.40972
0.0486751
-0.0470704
-1.58271
1.58111
0.0438047
-0.0384399
-1.48935
1.48398
0.0329458
-0.0264474
-1.18608
1.17958
0.0203623
-0.0137368
-0.959798
0.953172
0.00759177
-0.000946149
-0.778249
0.771603
-0.00459524
0.0100764
-0.601596
0.596115
-0.0135449
0.0152989
-0.411592
0.409837
-0.0150983
0.0131194
-0.23651
0.238489
-0.0105384
0.00733767
-0.108143
0.111344
-0.00459477
0.0021338
-0.0326811
0.035142
-0.000656928
-0.00168359
0.00234052
-0.0764837
0.0752926
0.00119112
-0.00379859
0.00367066
-0.423358
0.423486
-0.00202804
-3.65438e-05
-0.594809
0.596874
0.00375378
-0.0075048
-0.728214
0.731965
0.0118825
-0.0162428
-0.84811
0.852471
0.0209175
-0.0256502
-0.970255
0.974987
0.0302802
-0.0343483
-1.10523
1.1093
0.0387696
-0.0421589
-1.25274
1.25613
0.045047
-0.0471169
-1.41122
1.41329
0.0477129
-0.046563
-1.57961
1.57846
0.0437399
-0.039401
-1.47899
1.47465
0.0347823
-0.0292751
-1.17312
1.16761
0.0241108
-0.0182059
-0.946609
0.940704
0.0124961
-0.00616725
-0.764501
0.758173
0.000305866
0.00520275
-0.588674
0.583166
-0.00872533
0.0106948
-0.405405
0.403436
-0.0109336
0.00957514
-0.237817
0.239176
-0.00777181
0.00546008
-0.11276
0.115071
-0.00346433
0.0016352
-0.0365484
0.0383775
-0.000522334
-0.00267041
0.00319275
-0.0766562
0.0756638
0.000992452
-0.00249995
0.00211448
-0.426993
0.427379
-0.00063945
-0.00146909
-0.601611
0.603719
0.00487653
-0.00851408
-0.736195
0.739833
0.01273
-0.0167096
-0.856646
0.860625
0.0215304
-0.0255094
-0.979155
0.983134
0.0301668
-0.0341381
-1.11356
1.11753
0.0385435
-0.0422176
-1.25954
1.26322
0.0455078
-0.0474794
-1.41518
1.41715
0.0485723
-0.0480715
-1.57734
1.57684
0.046281
-0.0427854
-1.47048
1.46698
0.03909
-0.0344275
-1.1625
1.15784
0.0298659
-0.0242278
-0.934586
0.928948
0.0186897
-0.0121969
-0.751081
0.744588
0.00633425
-0.00076408
-0.576131
0.57056
-0.00293389
0.00494425
-0.398898
0.396887
-0.00569018
0.0052537
-0.237876
0.238313
-0.00441204
0.00312635
-0.115613
0.116899
-0.00201083
0.00099447
-0.0390759
0.0400922
-0.000332952
-0.00336378
0.00369673
-0.0771246
0.0764383
0.000686278
-0.00134851
0.0004933
-0.430743
0.431598
0.000789987
-0.00303921
-0.607675
0.609924
0.0061516
-0.0096775
-0.743662
0.747188
0.013725
-0.0178444
-0.864487
0.868606
0.0220782
-0.0262587
-0.98734
0.99152
0.0309397
-0.0347739
-1.12195
1.12579
0.0393628
-0.0430798
-1.26674
1.27045
0.046519
-0.0491179
-1.41957
1.42217
0.0508694
-0.0509274
-1.57652
1.57658
0.0497251
-0.0473031
-1.4639
1.46147
0.0443838
-0.0401713
-1.15318
1.14897
0.0357454
-0.0303478
-0.923065
0.917668
0.0244179
-0.0180645
-0.737377
0.731024
0.0123087
-0.0067606
-0.564008
0.55846
0.00309033
-0.00056757
-0.39218
0.389657
-0.000631793
0.00112766
-0.236493
0.235998
-0.0011361
0.000901054
-0.116474
0.116709
-0.000683216
0.000406081
-0.0400948
0.040372
-0.000169694
-0.00370788
0.00387758
-0.0779954
0.077472
0.000523421
-0.000380907
-0.000418191
-0.434751
0.43555
0.0022687
-0.00437494
-0.613829
0.615935
0.00768209
-0.0110904
-0.75064
0.754049
0.0149876
-0.0187235
-0.87242
0.876156
0.0231124
-0.0270221
-0.995721
0.999631
0.0317096
-0.0360403
-1.1301
1.13443
0.0403404
-0.0444411
-1.27425
1.27835
0.0483706
-0.0511498
-1.42471
1.42749
0.0534282
-0.0544557
-1.57697
1.578
0.0539071
-0.0522233
-1.45905
1.45736
0.0494867
-0.0455551
-1.14475
1.14082
0.0412933
-0.035789
-0.911666
0.906162
0.0300935
-0.0238746
-0.723889
0.71767
0.0183958
-0.0130155
-0.552105
0.546725
0.00919007
-0.00627475
-0.385043
0.382128
0.0042692
-0.00285899
-0.233429
0.232019
0.00185379
-0.00100503
-0.115336
0.114487
0.00040339
-1.24998e-05
-0.0397075
0.0393166
-7.89394e-05
-0.00369314
0.00377208
-0.079143
0.0787957
0.000347291
0.000667693
-0.00166305
-0.438911
0.439906
0.00339243
-0.0058025
-0.619603
0.622013
0.00906308
-0.0123264
-0.757387
0.76065
0.0163132
-0.0199183
-0.87989
0.883495
0.0241796
-0.0282453
-1.00403
1.0081
0.0328887
-0.0372265
-1.13864
1.14298
0.0417857
-0.0459488
-1.28239
1.28656
0.0501059
-0.0536899
-1.43059
1.43417
0.056514
-0.0579431
-1.57904
1.58047
0.0581113
-0.056665
-1.45558
1.45413
0.0542973
-0.050626
-1.13672
1.13304
0.0462045
-0.040793
-0.900236
0.894824
0.035328
-0.0293068
-0.710951
0.704929
0.0242171
-0.0189676
-0.540935
0.535686
0.0150375
-0.0114657
-0.377351
0.373779
0.00883188
-0.00646781
-0.228578
0.226214
0.00445097
-0.00264283
-0.112206
0.110398
0.00135423
-0.000434892
-0.0380292
0.0371098
3.6381e-05
-0.00343779
0.00340141
-0.0805119
0.0802846
0.000227311