/*--------------------------------*- C++ -*----------------------------------*\
  =========                 |
  \\      /  F ield         | OpenFOAM: The Open Source CFD Toolbox
   \\    /   O peration     | Website:  https://openfoam.org
    \\  /    A nd           | Version:  6
     \\/     M anipulation  |
\*---------------------------------------------------------------------------*/
FoamFile
{
    version     2.0;
    format      ascii;
    class       surfaceScalarField;
    location    "18.6";
    object      phi;
}
// * * * * * * * * * * * * * * * * * * * * * * * * * * * * * * * * * * * * * //

dimensions      [0 3 -1 0 0 0 0];

internalField   nonuniform List<scalar> 
17370
(
-0.0899984
0.0898459
0.289163
-0.0714579
0.0537471
0.364486
-0.0381137
0.0276848
0.426597
-0.0196279
0.0145859
0.504294
-0.0107301
0.00822933
0.601903
-0.00623088
0.00487205
0.720416
-0.00373777
0.00292109
0.863723
-0.00219458
0.00164033
1.036
-0.00112499
0.000710943
1.24292
-0.000311286
-6.12745e-05
1.49156
0.000420445
-0.000831299
1.4916
0.00124193
-0.0017494
1.2432
0.00229456
-0.00300961
1.03635
0.00381564
-0.00493999
0.864031
0.00629321
-0.0082889
0.721053
0.0107864
-0.0146363
0.603064
0.019672
-0.0277221
0.507489
0.0381455
-0.0537733
0.431796
0.0714791
-0.0898599
0.365156
0.0900066
0.199004
-0.128144
0.0882438
0.0398997
-0.364605
0.353393
-0.0746493
0.085862
-0.446477
0.45432
-0.0843517
0.0765083
-0.521166
0.52988
-0.0684066
0.0596926
-0.612767
0.621538
-0.0515067
0.0427356
-0.726913
0.734147
-0.0352961
0.028062
-0.867456
0.872577
-0.0224687
0.0173471
-1.03842
1.04188
-0.0135168
0.0100652
-1.2446
1.24697
-0.00748366
0.00511345
-1.49268
1.49457
-0.00324237
0.00134971
-1.49248
1.49415
0.000268852
-0.00193893
-1.24399
1.24584
0.00378438
-0.00563057
-1.03747
1.04002
0.00797213
-0.0105252
-0.866055
0.869862
0.0139503
-0.0177579
-0.724414
0.729969
0.0228465
-0.0284017
-0.608718
0.616128
0.0355941
-0.0430036
-0.51489
0.523052
0.0517473
-0.0599101
-0.439863
0.447944
0.0685982
-0.0766786
-0.375314
0.376793
0.0844956
-0.0859743
-0.257368
0.222572
0.0747253
-0.0399293
-0.0685447
0.0587423
0.00980237
-0.0516897
0.0582464
-0.374146
0.36759
-0.0573063
0.0535304
-0.453607
0.457383
-0.0484061
0.0444106
-0.527957
0.531953
-0.0405234
0.0368426
-0.621515
0.625196
-0.0327009
0.0286468
-0.735256
0.73931
-0.0241684
0.0201288
-0.874246
0.878286
-0.0159495
0.0123965
-1.04338
1.04694
-0.00882578
0.00575347
-1.24848
1.25155
-0.00249958
-0.000574746
-1.49658
1.49965
0.00362184
-0.00683785
-1.49716
1.50038
0.00985538
-0.0133524
-1.25005
1.25354
0.0168382
-0.0209433
-1.0459
1.05
0.0249139
-0.02932
-0.877754
0.88216
0.0333156
-0.0373982
-0.73991
0.743993
0.0410267
-0.0448583
-0.626852
0.630684
0.0488075
-0.0538877
-0.534905
0.539985
0.057618
-0.0585029
-0.457568
0.458453
0.0518825
-0.0318195
-0.335911
0.315848
0.00983342
-0.0684557
0.0586223
-0.053014
0.0490508
0.00396323
-0.0329245
0.0433891
-0.358183
0.347718
-0.0470598
0.0464624
-0.459287
0.459884
-0.0434832
0.0402202
-0.535803
0.539066
-0.0365111
0.0332327
-0.628526
0.631804
-0.0298003
0.0267357
-0.742576
0.745641
-0.0234315
0.0203091
-0.881806
0.884928
-0.0168142
0.0135095
-1.05049
1.05379
-0.00985267
0.00648207
-1.25487
1.25824
-0.00276247
-0.000784575
-1.50301
1.50656
0.00431497
-0.00799531
-1.50391
1.50759
0.0113076
-0.0148857
-1.25721
1.26079
0.0181018
-0.0214941
-1.05383
1.05722
0.024526
-0.0277362
-0.885733
0.888943
0.030721
-0.0340727
-0.747363
0.750714
0.0372752
-0.0409044
-0.634496
0.638126
0.0440991
-0.0470042
-0.544287
0.547193
0.0475272
-0.0437574
-0.456796
0.453027
0.0331786
-0.0159787
-0.296647
0.279447
0.00400189
-0.0528588
0.0488569
-0.0460202
0.0435819
0.00243836
-0.0223907
0.0325858
-0.33718
0.326984
-0.0382474
0.0391382
-0.459623
0.458732
-0.0378139
0.0354328
-0.541741
0.544122
-0.0327352
0.0301903
-0.634752
0.637297
-0.0272678
0.0245453
-0.748594
0.751316
-0.0215084
0.0187477
-0.887832
0.890593
-0.0156963
0.0128296
-1.0568
1.05966
-0.00953409
0.00633698
-1.26153
1.26473
-0.00257321
-0.00114035
-1.51028
1.51399
0.00482906
-0.00851467
-1.51132
1.51501
0.011611
-0.0147789
-1.26411
1.26728
0.0175224
-0.0204361
-1.06028
1.06319
0.0230705
-0.0259717
-0.892012
0.894914
0.0285701
-0.031355
-0.753891
0.756676
0.0337856
-0.0363759
-0.641204
0.643795
0.0386734
-0.0398908
-0.549105
0.550323
0.0388904
-0.0330726
-0.447987
0.442169
0.0227118
-0.00988069
-0.264559
0.251728
0.00248548
-0.0457843
0.0432988
-0.0415702
0.0398861
0.00168411
-0.016046
0.0249623
-0.317362
0.308445
-0.0313457
0.0334393
-0.457205
0.455111
-0.0330794
0.031496
-0.546147
0.54773
-0.0293878
0.0273364
-0.639545
0.641597
-0.0249881
0.022754
-0.753752
0.755987
-0.0201372
0.017592
-0.893247
0.895792
-0.0146154
0.0117765
-1.06253
1.06537
-0.00853553
0.00546343
-1.26786
1.27093
-0.00193078
-0.00147192
-1.51754
1.52095
0.00484664
-0.00829155
-1.51858
1.52202
0.0112522
-0.01434
-1.27042
1.27351
0.0170171
-0.0198026
-1.06607
1.06885
0.0221698
-0.0245947
-0.897567
0.899992
0.0266721
-0.0288657
-0.759108
0.761301
0.0307865
-0.0327536
-0.646067
0.648034
0.0342071
-0.0344162
-0.551001
0.55121
0.0321592
-0.0255604
-0.435841
0.429242
0.0164326
-0.00689514
-0.240677
0.231139
0.0017403
-0.0412352
0.0394949
-0.0384565
0.0372481
0.00120843
-0.0116946
0.0190647
-0.300282
0.292911
-0.0253504
0.0280754
-0.452629
0.449904
-0.0282969
0.0273053
-0.548957
0.549949
-0.025574
0.0238961
-0.643459
0.645137
-0.021931
0.0199791
-0.758108
0.76006
-0.0176754
0.0154293
-0.898207
0.900453
-0.0128241
0.0103136
-1.06807
1.07058
-0.00740457
0.00459658
-1.27388
1.27669
-0.00132679
-0.00189397
-1.52424
1.52746
0.00507347
-0.0082173
-1.52531
1.52845
0.0108602
-0.013556
-1.27642
1.27912
0.0158587
-0.0182306
-1.07147
1.07384
0.0202607
-0.0223322
-0.902283
0.904354
0.0240886
-0.0258468
-0.763313
0.765071
0.0273498
-0.0289143
-0.64975
0.651314
0.0297365
-0.0293207
-0.551057
0.550641
0.0263721
-0.0197984
-0.422574
0.416001
0.0121632
-0.00502315
-0.222872
0.215732
0.00127739
-0.0380031
0.0367257
-0.036247
0.0354169
0.000830129
-0.00824264
0.0139736
-0.286374
0.280643
-0.0195947
0.0225308
-0.447035
0.444099
-0.0231795
0.0225451
-0.550756
0.551391
-0.0209887
0.0194581
-0.64671
0.648241
-0.0177612
0.0161608
-0.761808
0.763409
-0.0143625
0.0126182
-0.902433
0.904178
-0.0105688
0.00851622
-1.07286
1.07491
-0.00604327
0.0035424
-1.27936
1.28186
-0.000537629
-0.00245016
-1.53062
1.53361
0.00537925
-0.00822148
-1.53148
1.53432
0.010513
-0.0127186
-1.28157
1.28378
0.0145096
-0.0162552
-1.07589
1.07763
0.0177226
-0.0192377
-0.906103
0.907618
0.0205542
-0.0219809
-0.766607
0.768034
0.0232847
-0.024604
-0.652773
0.654092
0.0250041
-0.0240708
-0.549972
0.549039
0.0208343
-0.0148538
-0.409672
0.403692
0.00880526
-0.00358687
-0.209619
0.2044
0.000913843
-0.0356486
0.0347347
-0.0347223
0.0341618
0.000560535
-0.00549377
0.00971755
-0.275669
0.271446
-0.0144334
0.0173432
-0.441151
0.438241
-0.0184598
0.0182322
-0.551841
0.552069
-0.0171882
0.0160121
-0.649658
0.650834
-0.014657
0.0133524
-0.764879
0.766183
-0.0117762
0.0102023
-0.90582
0.907394
-0.00828653
0.00639398
-1.07684
1.07874
-0.00415855
0.0019782
-1.28418
1.28636
0.000570642
-0.00302893
-1.53631
1.53876
0.00542773
-0.00779499
-1.53691
1.53928
0.00972497
-0.0116197
-1.28579
1.28769
0.0131571
-0.0146687
-1.07923
1.08075
0.0158854
-0.017071
-0.908965
0.91015
0.0180746
-0.0191081
-0.769331
0.770365
0.0200032
-0.0207427
-0.655173
0.655912
0.0206804
-0.0192092
-0.547837
0.546366
0.0159241
-0.0107684
-0.398106
0.39295
0.00616645
-0.00250131
-0.199972
0.196306
0.000663419
-0.033947
0.0332836
-0.0337555
0.0335088
0.000246625
-0.00278855
0.00547321
-0.267996
0.265312
-0.00906656
0.0117568
-0.435416
0.432726
-0.0132743
0.0135876
-0.552025
0.551712
-0.0132537
0.0126211
-0.651708
0.652341
-0.0117128
0.0107173
-0.767318
0.768314
-0.00946517
0.00814449
-0.908854
0.910175
-0.00652709
0.00487221
-1.08055
1.0822
-0.00285126
0.000831499
-1.28846
1.29048
0.00156288
-0.0039029
-1.54114
1.54348
0.00615698
-0.00830136
-1.54152
1.54366
0.00998923
-0.0115706
-1.28947
1.29105
0.012801
-0.0139524
-1.08211
1.08326
0.0148487
-0.015647
-0.911164
0.911963
0.0161802
-0.0165935
-0.771059
0.771472
0.016814
-0.0167284
-0.656227
0.656141
0.0160134
-0.0140141
-0.544613
0.542613
0.0108499
-0.00673283
-0.388281
0.384164
0.00360404
-0.00140438
-0.193404
0.191204
0.00037348
-0.0327638
0.0323903
-0.0333985
0.0333867
1.18574e-05
-0.000937752
0.00236376
-0.263322
0.261896
-0.00470285
0.00682624
-0.430264
0.428141
-0.00837127
0.00893499
-0.551208
0.550645
-0.0088998
0.00849606
-0.652845
0.653249
-0.00791344
0.00726022
-0.769163
0.769816
-0.00636037
0.00536284
-0.911338
0.912335
-0.00406918
0.00269152
-1.08369
1.08506
-0.0009893
-0.000742635
-1.29235
1.29409
0.00283731
-0.00490415
-1.5457
1.54777
0.00685766
-0.00862306
-1.54563
1.54739
0.00992379
-0.0110599
-1.2924
1.29354
0.0118411
-0.012445
-1.08415
1.08476
0.0128101
-0.0130491
-0.912472
0.912711
0.0131985
-0.0133014
-0.771717
0.77182
0.0132785
-0.0127933
-0.655796
0.655311
0.0117458
-0.00962448
-0.540485
0.538363
0.00693201
-0.00395607
-0.380634
0.377658
0.00197359
-0.000712238
-0.189567
0.188306
0.000170687
-0.03214
0.0319693
-0.0334302
0.0335042
-7.39866e-05
-0.000252464
0.00105175
-0.260861
0.260061
-0.00248945
0.00389446
-0.426401
0.424995
-0.00499295
0.00541912
-0.550132
0.549706
-0.00543932
0.00517729
-0.653562
0.653824
-0.00471155
0.00419605
-0.770365
0.77088
-0.0035257
0.00274693
-0.913185
0.913964
-0.0016642
0.000489512
-1.08632
1.08749
0.000997987
-0.00252219
-1.2957
1.29722
0.00434921
-0.00612039
-1.54968
1.55145
0.00776406
-0.00920957
-1.54898
1.55043
0.0102243
-0.0110283
-1.29448
1.29529
0.0115243
-0.0118154
-1.08518
1.08547
0.0118886
-0.0118157
-0.912738
0.912665
0.0116524
-0.0113922
-0.771742
0.771481
0.0110478
-0.0103443
-0.654709
0.654006
0.00927256
-0.00742475
-0.536357
0.534509
0.00529969
-0.00305735
-0.37513
0.372887
0.001554
-0.000562336
-0.187247
0.186255
0.000127088
-0.0318386
0.0317115
-0.0335848
0.0336698
-8.50339e-05
-7.65375e-05
0.000694085
-0.25937
0.258752
-0.00184599
0.00297167
-0.423795
0.422669
-0.00382149
0.00411852
-0.549386
0.549089
-0.00401509
0.00359864
-0.65415
0.654567
-0.00299461
0.00239351
-0.771477
0.772079
-0.00162503
0.00078633
-0.914765
0.915604
0.000293502
-0.00144291
-1.08859
1.08974
0.00288884
-0.0043601
-1.29865
1.30012
0.00607054
-0.00764367
-1.55307
1.55465
0.00904924
-0.010248
-1.55172
1.55292
0.0110386
-0.0116336
-1.296
1.29659
0.011985
-0.0121678
-1.0857
1.08588
0.0121705
-0.0120436
-0.912554
0.912427
0.0117899
-0.011378
-0.77106
0.770648
0.0109184
-0.0101877
-0.653283
0.652552
0.00914258
-0.00737796
-0.532788
0.531023
0.00534515
-0.00317391
-0.370757
0.368585
0.00167706
-0.000646661
-0.185264
0.184233
0.000161083
-0.0315769
0.0314158
-0.0337564
0.0338605
-0.000104058
0.000198112
0.000295521
-0.258186
0.257692
-0.00145285
0.00279469
-0.421472
0.420131
-0.00404741
0.00463119
-0.548772
0.548189
-0.00468648
0.00444195
-0.654973
0.655218
-0.00389389
0.003143
-0.772794
0.773545
-0.00214684
0.00102797
-0.916565
0.917684
0.000443545
-0.00198711
-1.09099
1.09254
0.00387002
-0.00570759
-1.30169
1.30352
0.00778787
-0.00967068
-1.55628
1.55816
0.0113471
-0.0127914
-1.55421
1.55566
0.0137891
-0.0145869
-1.29718
1.29798
0.0150191
-0.0151783
-1.08593
1.08609
0.0151209
-0.0149394
-0.91226
0.912078
0.0146271
-0.0141592
-0.77024
0.769772
0.013591
-0.0124449
-0.65176
0.650614
0.0107976
-0.00831694
-0.529026
0.526546
0.00581558
-0.00340336
-0.366304
0.363892
0.00183243
-0.000752444
-0.183181
0.182101
0.000208841
-0.0312413
0.0310325
-0.03398
0.0341258
-0.000145827
0.000605187
-0.00044739
-0.25733
0.257172
-0.00046784
0.00193158
-0.418706
0.417242
-0.00380173
0.00518029
-0.547263
0.545884
-0.00590496
0.00591908
-0.655245
0.655231
-0.00546458
0.00473962
-0.774453
0.775178
-0.00350999
0.00198248
-0.919006
0.920534
4.28354e-05
-0.00214152
-1.09428
1.09637
0.00464868
-0.00707115
-1.30559
1.30802
0.00980469
-0.0123149
-1.56033
1.56284
0.014549
-0.0164742
-1.55739
1.55932
0.0178216
-0.0189508
-1.29896
1.30009
0.0196659
-0.0201657
-1.08644
1.08694
0.0203373
-0.0200792
-0.911794
0.911536
0.0195461
-0.0186785
-0.769091
0.768224
0.0172451
-0.0148927
-0.648951
0.646599
0.012092
-0.00867553
-0.523599
0.520182
0.00581092
-0.00337782
-0.361448
0.359015
0.00187344
-0.000816351
-0.181047
0.17999
0.000244688
-0.0308224
0.0305777
-0.0343073
0.0345155
-0.000208209
0.00122326
-0.00148711
-0.257232
0.257496
0.00117771
-0.000102679
-0.415987
0.414912
-0.00176442
0.00353232
-0.544283
0.542515
-0.00492752
0.00532138
-0.655008
0.654614
-0.0050562
0.00437343
-0.77599
0.776673
-0.00297463
0.00114991
-0.922177
0.924001
0.00130934
-0.00382706
-1.0986
1.10112
0.00679091
-0.00961171
-1.3106
1.31342
0.0127551
-0.0155998
-1.56553
1.56838
0.018124
-0.0202375
-1.56145
1.56356
0.0216682
-0.0228033
-1.30131
1.30245
0.0235146
-0.0238649
-1.08737
1.08772
0.0237599
-0.0233237
-0.911028
0.910592
0.0225536
-0.020853
-0.766934
0.765233
0.0184501
-0.0151741
-0.643759
0.640483
0.011781
-0.00817266
-0.516657
0.513048
0.00546307
-0.0032846
-0.356756
0.354578
0.00191066
-0.00087304
-0.17899
0.177952
0.00027129
-0.0303487
0.0300774
-0.0347865
0.0350813
-0.000294789
0.00184997
-0.00263507
-0.257998
0.258783
0.00306437
-0.00284814
-0.414361
0.414145
0.00180291
-0.000554505
-0.541037
0.539789
-0.000642044
0.00133447
-0.653879
0.653186
-0.00123949
0.000395289
-0.777515
0.77836
0.00119477
-0.0030966
-0.925823
0.927725
0.0055738
-0.0080911
-1.10352
1.10603
0.0110495
-0.0138431
-1.31617
1.31896
0.0169062
-0.0195818
-1.57114
1.57382
0.0218232
-0.0235843
-1.56559
1.56735
0.0246039
-0.0252475
-1.30348
1.30412
0.025431
-0.0252662
-1.08774
1.08757
0.024841
-0.0239333
-0.909843
0.908935
0.0223786
-0.0200152
-0.763049
0.760686
0.0173025
-0.0139382
-0.637119
0.633755
0.0107864
-0.00764677
-0.509772
0.506632
0.00534372
-0.00341645
-0.35266
0.350733
0.00208308
-0.000979117
-0.176953
0.175849
0.000306732
-0.0298236
0.0295168
-0.0354607
0.0358621
-0.000401386
0.00253662
-0.00376226
-0.259827
0.261053
0.00489409
-0.00550854
-0.414463
0.415077
0.00559402
-0.00532877
-0.539223
0.538957
0.00500749
-0.004984
-0.652917
0.652894
0.00545778
-0.00641965
-0.77916
0.780122
0.00799296
-0.00980372
-0.929321
0.931132
0.012116
-0.0144414
-1.10827
1.1106
0.0171399
-0.0196385
-1.32151
1.32401
0.0222816
-0.024448
-1.5762
1.57836
0.026079
-0.0271227
-1.56878
1.56982
0.0274726
-0.0272936
-1.30446
1.30428
0.026784
-0.0259184
-1.08698
1.08612
0.0247384
-0.0229612
-0.907362
0.905585
0.0210223
-0.0185496
-0.758128
0.755655
0.0160038
-0.0130498
-0.63064
0.627686
0.0104048
-0.00778057
-0.503954
0.50133
0.00575699
-0.00388713
-0.34901
0.34714
0.00244536
-0.00116656
-0.174743
0.173464
0.000366234
-0.0292189
0.0288526
-0.036355
0.0368846
-0.000529533
0.00332471
-0.00499662
-0.2626
0.264272
0.0067367
-0.00804237
-0.416114
0.41742
0.00900759
-0.00964989
-0.539417
0.54006
0.0103305
-0.0111263
-0.653386
0.654182
0.0123197
-0.0137347
-0.781125
0.78254
0.0156049
-0.0175374
-0.932729
0.934661
0.0198539
-0.0220853
-1.11268
1.11491
0.0245755
-0.0267717
-1.32622
1.32842
0.0289302
-0.0304864
-1.58014
1.58169
0.031378
-0.0315665
-1.57043
1.57062
0.031136
-0.0301496
-1.30372
1.30274
0.0289226
-0.0272029
-1.08467
1.08295
0.025357
-0.0231553
-0.903458
0.901257
0.0210044
-0.0185235
-0.753056
0.750575
0.016164
-0.0135446
-0.624986
0.622366
0.0112101
-0.00879222
-0.499069
0.496651
0.00675859
-0.00468668
-0.345373
0.343301
0.00299306
-0.00143544
-0.17215
0.170592
0.000450219
-0.0284948
0.0280446
-0.0375019
0.0381959
-0.000694044
0.00434411
-0.00656798
-0.266275
0.268499
0.00897707
-0.0109507
-0.419189
0.421163
0.0126948
-0.0140723
-0.54139
0.542767
0.0155531
-0.0171161
-0.655455
0.657018
0.0191064
-0.0211386
-0.784028
0.786061
0.0235472
-0.0258544
-0.936516
0.938824
0.0284528
-0.0308154
-1.11701
1.11937
0.0332889
-0.0353061
-1.33037
1.33239
0.037068
-0.0380555
-1.58286
1.58385
0.0382302
-0.0375579
-1.57032
1.56965
0.0363495
-0.0345705
-1.30134
1.29956
0.0326217
-0.0302387
-1.08081
1.07843
0.0279242
-0.0253264
-0.898716
0.896118
0.02294
-0.0203442
-0.747882
0.745286
0.017985
-0.0154145
-0.619847
0.617277
0.0130784
-0.010528
-0.49448
0.49193
0.00823151
-0.00578311
-0.341291
0.338842
0.00371363
-0.00178309
-0.168979
0.167049
0.000559337
-0.0276049
0.0270455
-0.0389967
0.0399202
-0.000923469
0.00571604
-0.00862439
-0.271073
0.273982
0.0117821
-0.0144022
-0.423619
0.426239
0.0168467
-0.0189064
-0.544915
0.546975
0.0212087
-0.0235515
-0.65906
0.661403
0.0263859
-0.0291447
-0.788165
0.790924
0.0322777
-0.0351553
-0.941113
0.943991
0.0382545
-0.0409308
-1.12165
1.12432
0.0435648
-0.0455403
-1.33422
1.33619
0.0470249
-0.0475253
-1.58449
1.58499
0.0470413
-0.0455789
-1.56853
1.56707
0.043631
-0.0410376
-1.29734
1.29475
0.0383891
-0.0353304
-1.07564
1.07258
0.0324943
-0.0294198
-0.893125
0.89005
0.0266879
-0.0238027
-0.74234
0.739455
0.0212352
-0.0184506
-0.614635
0.61185
0.0158637
-0.0129264
-0.489558
0.486621
0.0101943
-0.00718706
-0.336431
0.333424
0.00461548
-0.00221196
-0.165062
0.162659
0.000692347
-0.0265096
0.0258172
-0.0409565
0.0422274
-0.00127091
0.00769182
-0.0115342
-0.277288
0.28113
0.0156622
-0.0190629
-0.429495
0.432896
0.0222832
-0.0250688
-0.549966
0.552751
0.0282366
-0.0314219
-0.664239
0.667424
0.0352006
-0.0387956
-0.793746
0.797341
0.0427792
-0.0463372
-0.94686
0.950418
0.0500441
-0.0531253
-1.12695
1.13003
0.0560104
-0.0580092
-1.33801
1.34
0.0592592
-0.059283
-1.58514
1.58517
0.0581234
-0.0558318
-1.56514
1.56285
0.0530986
-0.0496498
-1.2917
1.28825
0.0462636
-0.0424525
-1.06908
1.06527
0.0389894
-0.0353017
-0.886481
0.882793
0.0320765
-0.0287163
-0.736057
0.732697
0.0257532
-0.0225438
-0.608824
0.605615
0.0195218
-0.0160148
-0.483818
0.480311
0.0126465
-0.00892726
-0.330467
0.326748
0.00572999
-0.00274082
-0.160213
0.157223
0.00085438
-0.0251672
0.0243128
-0.0435823
0.045371
-0.0017887
0.0105944
-0.0157365
-0.285376
0.290518
0.021114
-0.0254448
-0.437187
0.441518
0.0295407
-0.033146
-0.556757
0.560362
0.0373317
-0.0415294
-0.671172
0.67537
0.0464402
-0.0510205
-0.800999
0.80558
0.0559928
-0.0603402
-0.953994
0.958341
0.0647509
-0.0682867
-1.13308
1.13662
0.0714251
-0.073404
-1.34181
1.34379
0.0743324
-0.0737752
-1.58478
1.58422
0.0718328
-0.0685978
-1.56003
1.55679
0.0649803
-0.0605735
-1.28429
1.27988
0.056345
-0.0516532
-1.06094
1.05625
0.0474339
-0.0429772
-0.8785
0.874043
0.0391065
-0.0350985
-0.728658
0.72465
0.0315818
-0.0277758
-0.601982
0.598176
0.0241584
-0.0199098
-0.476849
0.472601
0.0157542
-0.011073
-0.323119
0.318438
0.00706393
-0.0033415
-0.154232
0.150509
0.00102796
-0.0235254
0.0224974
-0.0472107
0.0498199
-0.00260924
0.0150037
-0.0219365
-0.296078
0.303011
0.0289095
-0.0344011
-0.447269
0.452761
0.0396187
-0.044326
-0.565636
0.570343
0.0498888
-0.0553706
-0.680197
0.685679
0.0616307
-0.0673262
-0.810203
0.815899
0.0733578
-0.0784925
-0.962655
0.96779
0.0835426
-0.0874239
-1.14002
1.1439
0.0906496
-0.092428
-1.34547
1.34725
0.0928146
-0.0914685
-1.58314
1.5818
0.0885482
-0.0841859
-1.55293
1.54856
0.0795381
-0.0740257
-1.27489
1.26938
0.0688231
-0.0631073
-1.05097
1.04526
0.0579977
-0.0526183
-0.868871
0.863491
0.047958
-0.0431455
-0.71979
0.714978
0.0389354
-0.0343719
-0.593736
0.589172
0.0299816
-0.0247678
-0.468285
0.463071
0.0196039
-0.0137463
-0.313933
0.308075
0.00870726
-0.00408132
-0.146851
0.142225
0.00124067
-0.0215464
0.0203057
-0.0524064
0.0564837
-0.00407735
0.0222835
-0.0317907
-0.310547
0.320054
0.0409511
-0.0480179
-0.460622
0.467688
0.0547048
-0.0608733
-0.577289
0.583458
0.0681805
-0.0751674
-0.691758
0.698745
0.0828731
-0.0896445
-0.821554
0.828325
0.0965788
-0.102274
-0.972765
0.978461
0.107642
-0.111545
-1.14746
1.15137
0.114491
-0.115733
-1.34853
1.34977
0.115218
-0.112769
-1.57975
1.5773
0.108598
-0.102874
-1.54344
1.53772
0.097022
-0.0902419
-1.26319
1.25641
0.0839361
-0.0770674
-1.03887
1.032
0.0709551
-0.0645265
-0.857298
0.850869
0.0589558
-0.0532028
-0.709136
0.703383
0.048175
-0.0427015
-0.583708
0.578234
0.0373596
-0.0309297
-0.457652
0.451222
0.0244872
-0.0171388
-0.302444
0.295096
0.0107948
-0.00500053
-0.137751
0.131957
0.00149227
-0.0191695
0.0176772
-0.0602842
0.067479
-0.00719482
0.0357054
-0.04948
-0.330996
0.344771
0.0617428
-0.0706957
-0.47846
0.487413
0.0790602
-0.0869318
-0.592488
0.60036
0.09608
-0.104408
-0.706093
0.71442
0.113152
-0.120498
-0.834832
0.842178
0.127719
-0.133381
-0.983731
0.989393
0.138419
-0.141736
-1.15463
1.15795
0.143777
-0.143927
-1.35019
1.35034
0.141988
-0.137997
-1.57389
1.5699
0.132227
-0.124873
-1.53106
1.5237
0.117623
-0.109428
-1.24885
1.24066
0.101908
-0.0937945
-1.0244
1.01629
0.0866128
-0.0790833
-0.843561
0.836031
0.0725555
-0.065798
-0.696444
0.689686
0.0598807
-0.0534027
-0.571551
0.565073
0.0469327
-0.0389384
-0.444349
0.436355
0.0308397
-0.0215799
-0.287922
0.278662
0.0135302
-0.00619161
-0.12652
0.119182
0.00176835
-0.0163449
0.0145765
-0.0744312
0.077978
-0.00354681
0.025525
-0.0374847
-0.361577
0.373536
0.0482852
-0.0567692
-0.501558
0.510042
0.0656026
-0.0751845
-0.610989
0.620571
0.0859671
-0.0956088
-0.722248
0.73189
0.106311
-0.115734
-0.848719
0.858142
0.125514
-0.133881
-0.994128
1.0025
0.142189
-0.14882
-1.16016
1.1668
0.154695
-0.158487
-1.34927
1.35306
0.160425
-0.159635
-1.56464
1.56385
0.155993
-0.149912
-1.51522
1.50914
0.142823
-0.133876
-1.23158
1.22263
0.125177
-0.114793
-1.0074
0.997016
0.105332
-0.0950089
-0.827589
0.817265
0.0858669
-0.0762406
-0.681621
0.671995
0.0674494
-0.0580214
-0.556921
0.547493
0.048918
-0.0376022
-0.427671
0.416355
0.0271454
-0.0166482
-0.269341
0.258844
0.00882544
-0.00316261
-0.112445
0.106782
0.00054282
-0.0130571
0.0125143
-0.0854052
0.0825014
0.00290381
0.00347894
-0.0103674
-0.388403
0.395292
0.0184708
-0.0252074
-0.523192
0.529928
0.0335139
-0.041891
-0.630967
0.639345
0.0516447
-0.0605333
-0.741332
0.750221
0.0699808
-0.0785293
-0.867093
0.875641
0.0874194
-0.0947395
-1.0106
1.01792
0.102215
-0.107848
-1.17329
1.17892
0.11279
-0.115674
-1.35659
1.35947
0.116474
-0.114825
-1.5622
1.56055
0.110463
-0.103797
-1.5022
1.49553
0.0961241
-0.0867433
-1.21313
1.20375
0.0777398
-0.0674964
-0.986276
0.976032
0.0579442
-0.0474195
-0.805959
0.795434
0.0380696
-0.0285983
-0.66
0.650529
0.0205728
-0.0124138
-0.535095
0.526936
0.00551803
0.000574631
-0.404254
0.398162
-0.00413798
0.00570297
-0.247328
0.245763
-0.00540693
0.00347172
-0.0999551
0.10189
-0.00150381
-0.0109152
0.012419
-0.0852384
0.0819884
0.00325006
-0.00450909
0.00123674
-0.405723
0.408995
0.00370285
-0.00887937
-0.540667
0.545843
0.0157677
-0.0230429
-0.648258
0.655533
0.0313926
-0.0390108
-0.758495
0.766113
0.0473209
-0.054698
-0.883517
0.890894
0.0621662
-0.0687095
-1.02508
1.03162
0.0752417
-0.080282
-1.18421
1.18925
0.0843149
-0.0864764
-1.36182
1.36398
0.0869518
-0.085008
-1.55834
1.55639
0.0805847
-0.0741322
-1.48841
1.48195
0.0669262
-0.058423
-1.19444
1.18594
0.0500013
-0.0407488
-0.965673
0.95642
0.0321778
-0.0228198
-0.785178
0.77582
0.0147475
-0.00652952
-0.64003
0.631812
-0.000200537
0.00679257
-0.516484
0.509892
-0.0114949
0.0144226
-0.389689
0.386761
-0.0146242
0.0121994
-0.240674
0.243099
-0.00893141
0.00489241
-0.101781
0.10582
-0.00176625
-0.0124627
0.0142289
-0.0832512
0.0801283
0.00312288
-0.00747484
0.00629531
-0.416534
0.417714
-0.00326618
-0.000845838
-0.554234
0.558346
0.00683167
-0.0128988
-0.662694
0.668761
0.0200217
-0.0265477
-0.77339
0.779916
0.0336292
-0.0399435
-0.897853
0.904167
0.0467357
-0.0523308
-1.03778
1.04338
0.0581325
-0.0622358
-1.19396
1.19807
0.0658559
-0.0677956
-1.36607
1.36801
0.068079
-0.0660259
-1.55427
1.55222
0.0621219
-0.0564723
-1.47527
1.46962
0.0501704
-0.0424852
-1.17756
1.16987
0.0352835
-0.0274727
-0.947303
0.939492
0.0201796
-0.0125797
-0.766893
0.759293
0.00571202
0.00105441
-0.622935
0.616168
-0.00653492
0.0113999
-0.501703
0.496838
-0.0145055
0.0159599
-0.380254
0.378799
-0.0152012
0.0118444
-0.24087
0.244226
-0.00842713
0.00439812
-0.107341
0.111371
-0.00151836
-0.0146648
0.0161832
-0.0812348
0.0786369
0.00259786
-0.00793434
0.00801021
-0.423553
0.423477
-0.00568337
0.00245857
-0.565428
0.568653
0.00240877
-0.00784172
-0.674931
0.680364
0.0138571
-0.0196304
-0.78602
0.791793
0.0258069
-0.0313483
-0.91018
0.915721
0.0372542
-0.0423186
-1.04892
1.05398
0.0473456
-0.0512662
-1.20211
1.20603
0.0545544
-0.0563787
-1.36975
1.37157
0.0567285
-0.0549787
-1.55025
1.5485
0.0516157
-0.0465652
-1.46364
1.45859
0.0411401
-0.0347
-1.16254
1.1561
0.0286189
-0.0219404
-0.931829
0.925151
0.0159679
-0.00968447
-0.751849
0.745566
0.00426638
0.00110105
-0.609183
0.603815
-0.0052336
0.00870538
-0.490388
0.486916
-0.0108909
0.0116229
-0.374257
0.373525
-0.0105522
0.00794208
-0.242646
0.245256
-0.00545835
0.00273698
-0.112108
0.11483
-0.000986295
-0.0164357
0.017422
-0.0796078
0.0774544
0.00215338
-0.00734761
0.00763879
-0.428232
0.427941
-0.00633367
0.00354783
-0.574224
0.577009
0.00107834
-0.00570965
-0.685424
0.690056
0.0109128
-0.0159751
-0.797016
0.802078
0.0215261
-0.0265541
-0.921054
0.926082
0.032062
-0.0366225
-1.05888
1.06344
0.0412966
-0.0449784
-1.20978
1.21346
0.0480784
-0.0498504
-1.37325
1.37502
0.0503004
-0.049206
-1.54686
1.54576
0.0462905
-0.0420596
-1.45338
1.44915
0.0373332
-0.0317377
-1.14979
1.1442
0.0267077
-0.0208992
-0.918681
0.912872
0.015814
-0.0106768
-0.739514
0.734377
0.00622819
-0.00185772
-0.598434
0.594064
-0.00152043
0.00447501
-0.481997
0.479042
-0.00601435
0.00660206
-0.369918
0.36933
-0.00614651
0.00454598
-0.243205
0.244805
-0.00304515
0.00160383
-0.114531
0.115972
-0.000624307
-0.0172473
0.0178716
-0.0784791
0.0768309
0.00164818
-0.00614075
0.00656234
-0.431701
0.43128
-0.00534306
0.00314003
-0.582069
0.584272
0.00105857
-0.00524568
-0.694626
0.698813
0.0102202
-0.0146483
-0.806948
0.811376
0.0196074
-0.0241458
-0.931196
0.935734
0.0294662
-0.033717
-1.06811
1.07236
0.03802
-0.0416613
-1.21707
1.22072
0.0450888
-0.0469008
-1.37692
1.37873
0.0476788
-0.0468315
-1.54442
1.54358
0.0446494
-0.0407507
-1.44485
1.44095
0.036744
-0.0319499
-1.13863
1.13383
0.0274165
-0.0224759
-0.907281
0.90234
0.0179648
-0.0132755
-0.729136
0.724447
0.00958218
-0.00564461
-0.589437
0.585499
0.00252034
2.89934e-05
-0.474917
0.472368
-0.00166676
0.00265141
-0.366127
0.365143
-0.00271077
0.00214243
-0.242474
0.243042
-0.00155246
0.000919134
-0.114819
0.115453
-0.000433518
-0.0173927
0.0178262
-0.0779262
0.0766438
0.00128239
-0.00488562
0.00534042
-0.434512
0.434057
-0.00413108
0.00189368
-0.588941
0.591179
0.00196872
-0.00574226
-0.702985
0.706758
0.0100751
-0.014391
-0.815914
0.82023
0.0190378
-0.0237694
-0.940186
0.944918
0.0284548
-0.0325997
-1.07679
1.08093
0.0371286
-0.0406588
-1.22433
1.22786
0.0437664
-0.0461289
-1.38056
1.38292
0.0472732
-0.0468988
-1.54288
1.5425
0.0450594
-0.0418536
-1.43729
1.43408
0.0382601
-0.0338789
-1.12875
1.12437
0.0297963
-0.0252409
-0.897279
0.892724
0.0210925
-0.0168923
-0.719808
0.715608
0.0131625
-0.00952488
-0.581265
0.577627
0.00663919
-0.00392622
-0.468667
0.465954
0.00206
-0.000946923
-0.361886
0.360772
0.000260598
0.000155755
-0.240349
0.239933
-0.00039448
0.000420679
-0.113661
0.113635
-0.000308571
-0.0171466
0.0174551
-0.0779353
0.0768619
0.00107342
-0.00350417
0.0037141
-0.437173
0.436963
-0.00262563
0.000317957
-0.59528
0.597587
0.00321187
-0.00686499
-0.710814
0.714468
0.0110546
-0.0150196
-0.824478
0.828443
0.0198312
-0.0238455
-0.949181
0.953196
0.0285562
-0.0325969
-1.0853
1.08934
0.0370934
-0.0408871
-1.23145
1.23524
0.0443779
-0.0466589
-1.38514
1.38742
0.0482528
-0.0483555
-1.54212
1.54222
0.0471915
-0.0442922
-1.43077
1.42787
0.0410718
-0.0369853
-1.12001
1.11592
0.0331689
-0.0287835
-0.887848
0.883462
0.0249022
-0.0207153
-0.711131
0.706944
0.0170621
-0.0133776
-0.573631
0.569947
0.0103304
-0.00768327
-0.462306
0.459658
0.00552743
-0.00395706
-0.35713
0.35556
0.00265186
-0.00151685
-0.236961
0.235826
0.000630242
4.97648e-05
-0.111378
0.110698
-0.000221148
-0.0165686
0.0167898
-0.0782256
0.0774624
0.000763218
-0.00232311
0.00205364
-0.440026
0.440295
-0.00108738
-0.00129889
-0.600917
0.603303
0.0044986
-0.00803424
-0.718162
0.721698
0.0120735
-0.0161868
-0.832391
0.836504
0.0204391
-0.0246431
-0.957487
0.961691
0.0293595
-0.033243
-1.09386
1.09774
0.0378884
-0.0417016
-1.23891
1.24272
0.0453275
-0.048201
-1.39016
1.39304
0.0503658
-0.0508438
-1.54242
1.5429
0.0499559
-0.047726
-1.42513
1.4229
0.0449464
-0.0410482
-1.11164
1.10774
0.037261
-0.0331284
-0.878821
0.874689
0.0289527
-0.0249123
-0.702401
0.698361
0.02123
-0.0173773
-0.566112
0.56226
0.0143198
-0.0112949
-0.455768
0.452743
0.00888586
-0.0066486
-0.351883
0.349646
0.00491209
-0.00313136
-0.232467
0.230687
0.00157068
-0.000369191
-0.108192
0.10699
-0.000115919
-0.0157391
0.0158551
-0.078902
0.0782866
0.000615432
-0.00134427
0.00107475
-0.443128
0.443397
0.000456208
-0.00262575
-0.606653
0.608822
0.00595435
-0.00935954
-0.725042
0.728447
0.0132615
-0.0170094
-0.840394
0.844142
0.0214076
-0.0253324
-0.96596
0.969884
0.0300287
-0.0343671
-1.10211
1.10645
0.0387071
-0.0428853
-1.24664
1.25082
0.0469945
-0.0500273
-1.39588
1.39891
0.0526313
-0.0539107
-1.54362
1.5449
0.0534911
-0.0518601
-1.42052
1.41888
0.049225
-0.0456312
-1.10379
1.10019
0.0420436
-0.0377958
-0.870006
0.865758
0.0337047
-0.0294808
-0.693681
0.689457
0.0256766
-0.0215913
-0.55809
0.554005
0.0182119
-0.0149388
-0.448857
0.445584
0.0119985
-0.00926765
-0.345681
0.34295
0.00697467
-0.00460242
-0.226861
0.224489
0.00258029
-0.000885569
-0.104226
0.102532
6.3381e-05
-0.0147589
0.0146955
-0.0798272
0.0793699
0.000457318
-0.000303975
-0.000203036
-0.446388
0.446895
0.00161987
-0.00398565
-0.611989
0.614354
0.00721111
-0.0104613
-0.731685
0.734935
0.0144471
-0.0180633
-0.847944
0.85156
0.0223239
-0.0263806
-0.974322
0.978379
0.031007
-0.0353323
-1.11069
1.11502
0.0399162
-0.0441587
-1.25497
1.25921
0.0484995
-0.0523127
-1.40228
1.40609
0.0554237
-0.0570597
-1.54617
1.54781
0.0573521
-0.0560146
-1.41712
1.41578
0.0538464
-0.0506354
-1.09642
1.09321
0.0469509
-0.0426964
-0.861109
0.856854
0.0385472
-0.0340481
-0.684739
0.68024
0.0301607
-0.0258141
-0.549837
0.545491
0.0222335
-0.0184859
-0.44143
0.437682
0.0152768
-0.0120357
-0.338605
0.335364
0.00906212
-0.006077
-0.220205