/*--------------------------------*- C++ -*----------------------------------*\
  =========                 |
  \\      /  F ield         | OpenFOAM: The Open Source CFD Toolbox
   \\    /   O peration     | Website:  https://openfoam.org
    \\  /    A nd           | Version:  6
     \\/     M anipulation  |
\*---------------------------------------------------------------------------*/
FoamFile
{
    version     2.0;
    format      ascii;
    class       volScalarField;
    location    "64";
    object      p;
}
// * * * * * * * * * * * * * * * * * * * * * * * * * * * * * * * * * * * * * //

dimensions      [0 2 -2 0 0 0 0];

internalField   nonuniform List<scalar> 
8800
(
0.896025
0.846714
0.808749
0.780675
0.760504
0.745905
0.735292
0.727732
0.72282
0.720716
0.722051
0.726364
0.733135
0.742543
0.755271
0.772588
0.796463
0.829559
0.872486
0.925017
0.730499
0.736845
0.745994
0.749536
0.746923
0.74083
0.733883
0.727628
0.722805
0.719906
0.719638
0.722231
0.726844
0.732951
0.740033
0.747053
0.751923
0.751796
0.74512
0.736222
0.704057
0.710293
0.71479
0.718654
0.721591
0.722524
0.721418
0.719274
0.717265
0.716389
0.717381
0.719802
0.722665
0.72492
0.725433
0.723641
0.720273
0.716255
0.711471
0.707754
0.699768
0.702532
0.705135
0.707289
0.709018
0.710573
0.711657
0.711983
0.711837
0.711895
0.712657
0.713765
0.714482
0.714316
0.713329
0.711966
0.710288
0.707979
0.705565
0.703999
0.694733
0.696157
0.697991
0.700064
0.701766
0.703046
0.704125
0.705078
0.705851
0.706541
0.707204
0.707626
0.707622
0.707237
0.706553
0.705427
0.703763
0.701864
0.700508
0.699706
0.68977
0.690672
0.691913
0.693531
0.695212
0.696727
0.697989
0.699082
0.700106
0.701072
0.701803
0.702148
0.702125
0.701732
0.700912
0.699711
0.698341
0.697069
0.696246
0.695722
0.684897
0.685552
0.686507
0.687814
0.689247
0.690744
0.692203
0.693533
0.694749
0.695894
0.696783
0.697226
0.697205
0.69674
0.69594
0.694983
0.69398
0.693068
0.692486
0.692102
0.68011
0.680615
0.681394
0.682522
0.683806
0.685201
0.686681
0.688182
0.689641
0.691028
0.69211
0.69266
0.692693
0.692338
0.691751
0.691045
0.690294
0.689623
0.689194
0.688895
0.675357
0.675758
0.676411
0.677419
0.67863
0.67997
0.681442
0.683037
0.684707
0.686373
0.687703
0.688439
0.68866
0.688531
0.688182
0.687695
0.687148
0.68667
0.686352
0.68611
0.670558
0.670885
0.671451
0.672379
0.673543
0.674871
0.676377
0.678071
0.679936
0.681896
0.683552
0.684588
0.685092
0.685225
0.685111
0.684849
0.684498
0.684181
0.683948
0.683745
0.665625
0.665897
0.666403
0.667284
0.668432
0.669787
0.67137
0.673206
0.675301
0.677605
0.67967
0.681095
0.68194
0.682369
0.682512
0.682477
0.682322
0.682148
0.681982
0.681806
0.660471
0.6607
0.661167
0.662033
0.663205
0.664629
0.66633
0.668364
0.670758
0.673488
0.676055
0.677945
0.679188
0.679957
0.680386
0.68059
0.680633
0.680588
0.680477
0.680322
0.655002
0.655198
0.655646
0.656526
0.657762
0.6593
0.661176
0.663474
0.666253
0.669516
0.672689
0.675133
0.676841
0.677998
0.67875
0.679207
0.679463
0.679542
0.679478
0.679336
0.649118
0.649287
0.649734
0.650656
0.651996
0.6537
0.655818
0.658463
0.661728
0.665647
0.669557
0.672662
0.67492
0.676523
0.677644
0.678405
0.678873
0.67907
0.679047
0.678912
0.642698
0.642845
0.643305
0.644299
0.645789
0.647719
0.650157
0.653248
0.657122
0.661848
0.66665
0.670546
0.673452
0.67558
0.677122
0.678217
0.678925
0.679246
0.67926
0.679129
0.635604
0.635727
0.636216
0.637312
0.639003
0.64123
0.644079
0.647732
0.652361
0.658074
0.663954
0.668795
0.67247
0.675218
0.677254
0.678731
0.679711
0.68016
0.680207
0.680077
0.627645
0.62775
0.628285
0.629518
0.63147
0.634078
0.637448
0.641804
0.647367
0.654285
0.661463
0.667433
0.672015
0.675492
0.678121
0.680048
0.681327
0.681912
0.68199
0.681857
0.618596
0.6187
0.619285
0.620691
0.622983
0.626074
0.6301
0.635336
0.642054
0.650441
0.659178
0.666489
0.672145
0.676479
0.679808
0.682257
0.683879
0.684607
0.684714
0.684574
0.608141
0.608231
0.608907
0.610547
0.613275
0.616983
0.621843
0.628187
0.63634
0.646518
0.657122
0.666011
0.672926
0.678267
0.682397
0.685468
0.687473
0.688349
0.688481
0.688331
0.595905
0.595981
0.596759
0.598713
0.602002
0.606508
0.612435
0.620183
0.630126
0.642493
0.655317
0.666048
0.67442
0.680935
0.685999
0.689779
0.692202
0.693228
0.693379
0.693215
0.581331
0.5814
0.582324
0.584691
0.588716
0.594271
0.601589
0.611136
0.623317
0.638344
0.653797
0.666661
0.6767
0.684554
0.690697
0.695271
0.69814
0.699305
0.699465
0.699283
0.563645
0.563706
0.564845
0.567797
0.57283
0.579799
0.588966
0.600849
0.615849
0.634102
0.652625
0.667919
0.679837
0.689201
0.69653
0.70199
0.705307
0.706588
0.706743
0.706542
0.541685
0.541751
0.543233
0.547061
0.553544
0.562502
0.574204
0.58918
0.607738
0.629864
0.651912
0.669914
0.683897
0.694922
0.703548
0.709928
0.713659
0.715011
0.715142
0.714919
0.513671
0.513766
0.515845
0.521087
0.529812
0.541702
0.556986
0.576086
0.59911
0.625812
0.65181
0.672742
0.688934
0.70172
0.711723
0.719004
0.723052
0.724401
0.724486
0.724244
0.476548
0.476768
0.480062
0.487913
0.500416
0.516817
0.537219
0.561743
0.590221
0.622179
0.652493
0.676519
0.695002
0.709585
0.720975
0.729028
0.733224
0.734474
0.734489
0.734233
0.424476
0.425565
0.432107
0.445346
0.464448
0.48782
0.515295
0.546663
0.58154
0.61932
0.654194
0.681373
0.702132
0.718433
0.731102
0.739705
0.74379
0.744837
0.744773
0.744507
0.349002
0.356409
0.371408
0.394526
0.423484
0.456193
0.492276
0.53148
0.573437
0.617541
0.657308
0.687853
0.711071
0.729235
0.743049
0.75193
0.755753
0.756577
0.75646
0.756225
0.268751
0.284923
0.30928
0.34304
0.382366
0.424575
0.469324
0.516537
0.565952
0.617023
0.662542
0.69723
0.723425
0.743759
0.758767
0.767571
0.770837
0.771396
0.771305
0.771159
0.2
0.219762
0.251939
0.294875
0.343444
0.394595
0.447777
0.502861
0.559571
0.617371
0.668319
0.706839
0.735754
0.757908
0.77364
0.782085
0.784847
0.785302
0.785268
0.785174
0.143744
0.165726
0.203283
0.252796
0.308607
0.367268
0.427927
0.490279
0.553879
0.618075
0.674158
0.716258
0.747646
0.77139
0.787805
0.796273
0.798887
0.799307
0.799305
0.799241
0.0971328
0.120436
0.161893
0.21655
0.278164
0.343029
0.410085
0.478871
0.548751
0.618938
0.679952
0.725501
0.75927
0.784647
0.801897
0.810579
0.813274
0.813684
0.813701
0.813659
0.0575436
0.0816391
0.125977
0.184823
0.251329
0.321488
0.39408
0.468579
0.544216
0.620023
0.685731
0.73464
0.770743
0.797722
0.815937
0.8251
0.827945
0.828373
0.828404
0.828381
0.0229438
0.0475714
0.0941678
0.156484
0.227175
0.30196
0.379494
0.459181
0.54013
0.621202
0.691391
0.743538
0.781958
0.810522
0.829742
0.839452
0.84253
0.842999
0.843035
0.843024
-0.00816261
0.0169054
0.0653654
0.130641
0.204967
0.283827
0.365809
0.450243
0.536136
0.622246
0.696739
0.752019
0.792647
0.822772
0.842935
0.853174
0.856529
0.857078
0.85712
0.857114
-0.0367882
-0.0113133
0.0387412
0.106595
0.184113
0.266586
0.352584
0.441404
0.531983
0.622923
0.70161
0.759907
0.80265
0.834216
0.855279
0.866032
0.869635
0.870283
0.870305
0.870295
-0.0637362
-0.0378197
0.013667
0.0838361
0.164175
0.249877
0.339527
0.432412
0.527412
0.623004
0.705827
0.767094
0.811876
0.844801
0.866649
0.877801
0.881599
0.882299
0.882302
0.882279
-0.0893991
-0.0630524
-0.0102433
0.0619852
0.144842
0.233447
0.326415
0.42305
0.522226
0.622365
0.709297
0.773547
0.820308
0.854483
0.876974
0.888384
0.892305
0.893027
0.893003
0.892959
-0.114207
-0.0873485
-0.0333169
0.0407767
0.12589
0.217103
0.313091
0.413193
0.51632
0.620887
0.711958
0.779247
0.827995
0.863315
0.886302
0.897858
0.901776
0.902489
0.902431
0.902368
-0.138295
-0.110919
-0.0557306
0.0200466
0.107177
0.200739
0.299474
0.402772
0.509611
0.618485
0.71376
0.784218
0.835019
0.871432
0.894761
0.90628
0.910143
0.91082
0.910742
0.910658
-0.161791
-0.133865
-0.0776007
-0.000292839
0.0886435
0.18431
0.285527
0.391743
0.502049
0.615095
0.714645
0.78848
0.841486
0.878982
0.902514
0.913853
0.917555
0.918156
0.918053
0.917953
-0.184789
-0.156301
-0.0989743
-0.020277
0.0702581
0.167806
0.271249
0.380115
0.493627
0.610671
0.714552
0.792034
0.847512
0.886162
0.909756
0.920712
0.92413
0.924616
0.924475
0.92436
-0.207345
-0.178217
-0.119864
-0.0399083
0.0520447
0.151248
0.256676
0.36792
0.484362
0.605177
0.713413
0.79484
0.853185
0.89318
0.916698
0.927014
0.929957
0.930264
0.930092
0.929972
-0.229313
-0.199579
-0.14025
-0.059173
0.0340324
0.134697
0.241863
0.355221
0.474296
0.598622
0.711157
0.796817
0.858519
0.900267
0.923696
0.933022
0.935182
0.935203
0.935
0.934887
-0.25067
-0.220355
-0.160119
-0.0780345
0.0162713
0.118206
0.226894
0.342088
0.463501
0.591016
0.707719
0.797845
0.863449
0.907581
0.931227
0.939296
0.94013
0.939543
0.939284
0.93923
-0.271468
-0.240513
-0.179447
-0.0964622
-0.00118043
0.101857
0.211854
0.328618
0.45206
0.582407
0.703034
0.797788
0.867793
0.915083
0.939754
0.946801
0.945696
0.943684
0.94307
0.943284
-0.291555
-0.260028
-0.198179
-0.114392
-0.0182663
0.0857317
0.196837
0.314917
0.440082
0.572883
0.697063
0.796482
0.871288
0.922429
0.949337
0.956645
0.953926
0.949372
0.946556
0.945375
-0.31102
-0.278905
-0.216323
-0.131857
-0.0350205
0.0697913
0.181791
0.300927
0.427497
0.56238
0.689647
0.793669
0.873684
0.929112
0.959388
0.969138
0.967012
0.959918
0.950338
0.950646
-0.329782
-0.297207
-0.234012
-0.149055
-0.0517358
0.0537054
0.166303
0.286165
0.413761
0.550272
0.680133
0.788594
0.874534
0.934528
0.968363
0.982197
0.981445
0.970416
0.951984
0.949815
-0.347709
-0.314889
-0.251084
-0.165797
-0.0681449
0.0377748
0.15058
0.270952
0.399164
0.536796
0.668558
0.780567
0.872995
0.937488
0.972162
0.986431
0.987791
0.962672
0.904777
0.87959
-0.364666
-0.332788
-0.267136
-0.181633
-0.0834748
0.0224795
0.134904
0.255564
0.383988
0.52212
0.654983
0.768985
0.868004
0.937062
0.965977
0.975054
0.962037
0.910657
0.848455
0.810826
-0.40765
-0.35053
-0.281868
-0.19738
-0.0984676
0.00687289
0.119417
0.239879
0.368028
0.505891
0.639006
0.753199
0.855688
0.93009
0.947542
0.934795
0.887415
0.822445
0.753206
0.715165
-0.382913
-0.364652
-0.304255
-0.219022
-0.121666
-0.0165628
0.0952741
0.215054
0.342248
0.478656
0.610335
0.722491
0.816614
0.898252
0.882078
0.773536
0.68272
0.619401
0.555462
0.583694
-0.413874
-0.382346
-0.321172
-0.236574
-0.139381
-0.0344177
0.0775635
0.196665
0.322809
0.457416
0.586478
0.695105
0.778648
0.824414
0.77321
0.633435
0.524087
0.450251
0.367939
0.414745
-0.437948
-0.404012
-0.341056
-0.256389
-0.159249
-0.0543119
0.0575328
0.175821
0.300575
0.432757
0.557979
0.660665
0.732443
0.740407
0.634062
0.478667
0.349272
0.256469
0.161146
0.194253
-0.461394
-0.426378
-0.362001
-0.276636
-0.17945
-0.0746542
0.0366666
0.153973
0.277101
0.406439
0.526783
0.621396
0.676065
0.651242
0.493156
0.315989
0.155938
0.0214289
-0.10375
-0.0893636
-0.484585
-0.449151
-0.383836
-0.297854
-0.200533
-0.0959635
0.0146908
0.13086
0.252069
0.378129
0.49274
0.579214
0.613137
0.543276
0.354577
0.157334
-0.0298603
-0.183969
-0.390115
-0.469925
-0.508207
-0.472802
-0.406923
-0.320501
-0.223008
-0.118615
-0.00856639
0.106425
0.22558
0.348078
0.456512
0.533604
0.542183
0.420497
0.22827
0.0188468
-0.173595
-0.335624
-0.459974
-0.579224
-0.533332
-0.497813
-0.43161
-0.344939
-0.24741
-0.143293
-0.0339517
0.079678
0.196423
0.314783
0.416607
0.480962
0.46221
0.304028
0.110213
-0.0934009
-0.269263
-0.367035
-0.393383
-0.406882
-0.560095
-0.52447
-0.458027
-0.371264
-0.273884
-0.170224
-0.0618422
0.050104
0.163976
0.277446
0.372175
0.418965
0.380951
0.192291
0.000379302
-0.183209
-0.316083
-0.354183
-0.363159
-0.36346
-0.588769
-0.552904
-0.486218
-0.399469
-0.302385
-0.199419
-0.0922663
0.0176426
0.128162
0.236028
0.322622
0.353287
0.284109
0.0902505
-0.0955766
-0.255187
-0.330045
-0.34404
-0.345061
-0.344916
-0.619369
-0.583148
-0.5162
-0.429551
-0.332932
-0.230871
-0.125238
-0.0177307
0.0889879
0.190634
0.267795
0.284013
0.17662
-0.00204663
-0.177888
-0.304852
-0.334109
-0.334402
-0.334733
-0.334258
-0.651637
-0.61503
-0.547871
-0.461429
-0.36544
-0.264532
-0.160735
-0.0560021
0.0465044
0.141387
0.208933
0.206237
0.0813343
-0.0867862
-0.242357
-0.315279
-0.33033
-0.328213
-0.327837
-0.327366
-0.685005
-0.6482
-0.580963
-0.494869
-0.399718
-0.300243
-0.198609
-0.0970565
0.000929142
0.0886717
0.146493
0.127687
-0.00674359
-0.160687
-0.283436
-0.321812
-0.321889
-0.322923
-0.322918
-0.322592
-0.719028
-0.682117
-0.614981
-0.529442
-0.435404
-0.337676
-0.238574
-0.140618
-0.047466
0.0333877
0.0790938
0.0535107
-0.087211
-0.218746
-0.305589
-0.315204
-0.318181
-0.319322
-0.319341
-0.319245
-0.752726
-0.715879
-0.649173
-0.564497
-0.471932
-0.376341
-0.280162
-0.186198
-0.0982839
-0.02362
0.0115169
-0.0209275
-0.157146
-0.264532
-0.310861
-0.322283
-0.318314
-0.316594
-0.316013
-0.315917
-0.784224
-0.748185
-0.682487
-0.599121
-0.508502
-0.415517
-0.3227
-0.233066
-0.150769
-0.0819633
-0.0510943
-0.0982672
-0.216534
-0.309299
-0.329072
-0.326331
-0.319414
-0.313747
-0.312046
-0.311578
-0.81244
-0.777493
-0.713488
-0.632086
-0.544028
-0.454237
-0.365313
-0.280303
-0.203741
-0.14107
-0.112363
-0.164517
-0.262302
-0.341931
-0.363428
-0.343683
-0.325457
-0.316398
-0.313377
-0.312094
-0.834621
-0.801647
-0.740378
-0.661831
-0.577161
-0.49128
-0.406887
-0.326857
-0.25599
-0.199021
-0.173882
-0.214125
-0.287263
-0.346889
-0.350964
-0.351377
-0.350688
-0.346025
-0.341188
-0.338664
-0.84861
-0.818457
-0.76103
-0.686556
-0.606333
-0.525229
-0.446043
-0.371562
-0.306343
-0.253446
-0.229699
-0.255292
-0.286669
-0.330407
-0.333375
-0.355105
-0.371073
-0.371193
-0.367914
-0.36724
-0.851651
-0.825466
-0.773272
-0.704351
-0.629835
-0.554613
-0.481236
-0.413034
-0.353351
-0.304647
-0.274941
-0.297105
-0.277162
-0.284698
-0.307233
-0.334596
-0.348871
-0.355025
-0.358308
-0.359799
-0.84143
-0.820127
-0.774914
-0.713408
-0.646105
-0.577987
-0.511153
-0.449416
-0.395752
-0.353892
-0.309529
-0.34414
-0.318628
-0.250676
-0.303431
-0.345045
-0.363067
-0.371787
-0.375628
-0.376757
-0.815292
-0.799634
-0.763967
-0.71241
-0.654073
-0.594118
-0.534926
-0.47902
-0.432591
-0.397866
-0.359159
-0.400384
-0.470616
-0.47856
-0.492222
-0.463867
-0.438102
-0.430361
-0.428369
-0.428106
-0.776657
-0.766664
-0.741472
-0.701531
-0.65362
-0.602681
-0.551528
-0.501836
-0.460543
-0.434393
-0.421158
-0.470956
-0.620557
-0.799579
-0.717042
-0.563947
-0.49235
-0.458427
-0.446994
-0.44396
-0.732626
-0.726987
-0.712369
-0.683808
-0.646611
-0.604629
-0.56036
-0.517496
-0.478606
-0.456692
-0.440254
-0.465414
-0.442837
-0.444454
-0.336395
-0.296489
-0.327502
-0.346812
-0.345771
-0.341962
-0.693327
-0.689961
-0.683006
-0.664585
-0.636226
-0.601282
-0.563289
-0.523562
-0.487089
-0.457507
-0.438777
-0.382966
-0.220801
-0.0916839
-0.111268
-0.217356
-0.289718
-0.269187
-0.252571
-0.258719
-0.664709
-0.662753
-0.659146
-0.648033
-0.626154
-0.596214
-0.561463
-0.523366
-0.484535
-0.448189
-0.437112
-0.37818
-0.321259
-0.271386
-0.293603
-0.436146
-0.542311
-0.567587
-0.534067
-0.523327
-0.643207
-0.642467
-0.641209
-0.63564
-0.61924
-0.592412
-0.558038
-0.519074
-0.474579
-0.437633
-0.405704
-0.385387
-0.35821
-0.472207
-0.599918
-0.678332
-0.787254
-0.814639
-0.778715
-0.745721
-0.63067
-0.630436
-0.629836
-0.627183
-0.615503
-0.590063
-0.554418
-0.510666
-0.4626
-0.406315
-0.355977
-0.313031
-0.356146
-0.488241
-0.72356
-0.855454
-0.828579
-0.656845
-0.499785
-0.42951
-0.621931
-0.621765
-0.621319
-0.620542
-0.613359
-0.589826
-0.55128
-0.502667
-0.44449
-0.36773
-0.291125
-0.161303
-0.0556307
-0.0109565
0.0482427
0.119408
0.297628
0.533427
0.689381
0.749364
-0.616876
-0.616656
-0.616132
-0.615789
-0.612097
-0.591959
-0.550192
-0.494715
-0.424557
-0.341023
-0.227548
-0.082901
0.126865
0.399329
0.759961
1.1272
1.44466
1.66846
1.77548
1.80718
-0.613618
-0.614263
-0.615854
-0.617665
-0.616607
-0.596861
-0.550359
-0.489706
-0.417061
-0.317786
-0.198507
-0.0704638
0.16453
0.50892
0.973544
1.38633
1.70917
1.90112
1.97764
1.99514
-0.606932
-0.608521
-0.611992
-0.617046
-0.617935
-0.596006
-0.550734
-0.496062
-0.418606
-0.3096
-0.192422
-0.0687455
0.10895
0.448401
0.844776
1.19452
1.45483
1.59385
1.64632
1.65733
-0.613994
-0.614458
-0.609105
-0.593418
-0.579685
-0.572529
-0.555072
-0.513187
-0.429019
-0.317218
-0.20348
-0.0946412
0.0335558
0.299212
0.605997
0.868165
1.05953
1.15448
1.18904
1.19548
-0.653677
-0.650994
-0.634754
-0.595965
-0.561638
-0.569969
-0.586284
-0.540805
-0.44438
-0.331748
-0.22331
-0.127674
-0.0345434
0.156588
0.377161
0.559394
0.685027
0.745681
0.767754
0.771182
-0.727341
-0.725773
-0.731021
-0.738661
-0.73393
-0.723769
-0.690929
-0.588038
-0.461325
-0.346521
-0.243316
-0.166632
-0.0885527
0.0461365
0.186898
0.301123
0.376736
0.412035
0.424673
0.426248
-0.861741
-0.87764
-0.922153
-0.966201
-0.973128
-0.933635
-0.823156
-0.643232
-0.481707
-0.359493
-0.263267
-0.19757
-0.148303
-0.0468579
0.0446607
0.102351
0.132997
0.146437
0.151349
0.152578
-0.961039
-0.982793
-1.02395
-1.0571
-1.06114
-1.0174
-0.869058
-0.65245
-0.487281
-0.36167
-0.269137
-0.222514
-0.178718
-0.118825
-0.0646985
-0.0467277
-0.043986
-0.042842
-0.0377756
-0.0352593
-0.90527
-0.924735
-0.956945
-0.985932
-0.991517
-0.9403
-0.774151
-0.591516
-0.452679
-0.333949
-0.270024
-0.22827
-0.204937
-0.147668
-0.117283
-0.107676
-0.11366
-0.111057
-0.104651
-0.10251
-0.663696
-0.683593
-0.718849
-0.756378
-0.770227
-0.718114
-0.595825
-0.476301
-0.362755
-0.287501
-0.244117
-0.217978
-0.206519
-0.156786
-0.122467
-0.0997234
-0.0926438
-0.0856867
-0.0820226
-0.0806566
-0.309798
-0.323978
-0.352091
-0.387756
-0.410331
-0.401165
-0.364347
-0.312461
-0.259905
-0.224705
-0.195002
-0.18782
-0.176439
-0.124649
-0.0859538
-0.0641189
-0.0439691
-0.0323918
-0.0284316
-0.0290219
-0.00315973
-0.0104576
-0.0285899
-0.0595639
-0.0977449
-0.127821
-0.150107
-0.162313
-0.163656
-0.147679
-0.136684
-0.125674
-0.113036
-0.0765055
-0.0436337
-0.02412
-0.00583502
0.00361903
0.00635596
0.00538178
0.164782
0.161086
0.148691
0.121913
0.0791701
0.0258876
-0.0218195
-0.0584486
-0.0780125
-0.0831037
-0.0759611
-0.055258
-0.0368279
-0.024222
-0.00948713
0.00310014
0.015832
0.023198
0.0243059
0.0233516
0.21631
0.214102
0.205358
0.18421
0.148102
0.101777
0.0527667
0.0103754
-0.019111
-0.0291997
-0.0220289
0.000843518
0.0197261
0.0210519
0.0214043
0.0245559
0.0307582
0.0345834
0.0350901
0.0337052
0.209051
0.207677
0.20179
0.187046
0.160873
0.125512
0.0860142
0.0490077
0.0208407
0.00907443
0.0151638
0.0388273
0.0522177
0.0446787
0.0381129
0.0351262
0.0347246
0.0332463
0.0315225
0.0301281
0.180627
0.179839
0.176077
0.166398
0.148745
0.123759
0.0941093
0.0650755
0.0412106
0.0304695
0.0365758
0.0550297
0.0637722
0.050324
0.0363082
0.0282036
0.0237649
0.0190371
0.0165143
0.0156998
0.147377
0.146994
0.144694
0.138556
0.127006
0.110065
0.0888843
0.066777
0.047401
0.0376188
0.0410276
0.055301
0.0584595
0.0422044
0.0288688
0.0193266
0.0116502
0.00531659
0.00264589
0.00218195
0.115396
0.11518
0.11381
0.10996
0.102486
0.0910923
0.0761934
0.0598466
0.0440596
0.0330359
0.0314214
0.0384374
0.0375856
0.0217994
0.00982546
0.0038194
-0.000788331
-0.00498508
-0.00674456
-0.00725498
0.0865856
0.0864964
0.0856706
0.0832905
0.0784685
0.0707986
0.0602405
0.047666
0.0338699
0.0202351
0.00831558
0.000739924
-0.00806166
-0.0187024
-0.0195114
-0.0179581
-0.0180501
-0.018343
-0.0187419
-0.0191928
0.0611916
0.0611772
0.0607159
0.0593216
0.0563245
0.0512497
0.0438658
0.0341593
0.0215944
0.00448049
-0.0208387
-0.053472
-0.0718991
-0.0650245
-0.0519584
-0.0410804
-0.0368278
-0.0358384
-0.0353375
-0.0355592
0.0391147
0.0391169
0.0388831
0.0381951
0.036502
0.0334116
0.0285335
0.0216817
0.010667
-0.00759169
-0.0428357
-0.0955599
-0.118829
-0.0939683
-0.0687754
-0.0562786
-0.0517443
-0.0499302
-0.048732
-0.0484729
0.0201431
0.0201757
0.0201114
0.0198428
0.0191047
0.0175995
0.0149543
0.0107667
0.0042665
-0.00977888
-0.040464
-0.0922531
-0.106255
-0.0777029
-0.0560476
-0.0479608
-0.0466163
-0.0462616
-0.0449995
-0.0443679
0.00357727
0.00361775
0.00357438
0.00364467
0.00386017
0.00386042
0.0035704
0.00292897
0.00172421
-0.000266836
-0.00552114
-0.0181457
-0.0295055
-0.0224851
-0.0217558
-0.019348
-0.0176891
-0.0155831
-0.0138863
-0.0126545
0.0429198
0.232547
0.406884
0.554987
0.674014
0.768259
0.846831
0.91074
0.927083
0.923567
0.334617
0.456915
0.571731
0.671528
0.755501
0.824847
0.879528
0.91659
0.936453
0.953008
0.533531
0.615413
0.6961
0.766778
0.827026
0.877045
0.91647
0.94652
0.969104
0.98832
0.681423
0.73898
0.796577
0.848574
0.893596
0.931929
0.964107
0.991103
1.01144
1.03032
0.797556
0.841017
0.884021
0.924331
0.960424
0.992317
1.02019
1.04381
1.06179
1.07982
0.894468
0.930155
0.96576
0.999667
1.03087
1.05911
1.08403
1.10493
1.12073
1.1382
0.983129
1.01514
1.04753
1.07884
1.10792
1.13434
1.15749
1.17646
1.19039
1.20741
1.07023
1.10284
1.13531
1.16657
1.19539
1.22121
1.24337
1.26092
1.27331
1.28985
1.1647
1.20113
1.23593
1.26842
1.29762
1.32299
1.34413
1.36044
1.37206
1.38822
1.27782
1.31842
1.35546
1.38842
1.41693
1.44094
1.46058
1.47586
1.48776
1.50387
1.41925
1.46031
1.49557
1.52517
1.55039
1.57202
1.59053
1.60602
1.61913
1.63512
1.59083
1.62321
1.65013
1.67247
1.69257
1.7113
1.72904
1.74579
1.76071
1.77652
1.77722
1.79449
1.81163
1.82832
1.84441
1.85915
1.87304
1.88749
1.90273
1.92015
1.96045
1.97038
1.98354
1.9945
2.0039
2.01355
2.02415
2.03434
2.04368
2.06908
2.17789
2.17212
2.15912
2.14487
2.13858
2.14428
2.16239
2.19089
2.22467
2.26096
2.48116
2.34532
2.26585
2.2233
2.20589
2.20992
2.23741
2.29533
2.40298
2.5812
0.799683
0.793384
0.785651
0.774536
0.76097
0.748326
0.737931
0.729919
0.724198
0.720862
0.720507
0.723338
0.728569
0.735924
0.745469
0.757291
0.770846
0.783771
0.792762
0.800301
0.708793
0.71472
0.722785
0.72891
0.731973
0.731455
0.728364
0.724365
0.720772
0.718484
0.718347
0.7206
0.724354
0.7288
0.732902
0.73515
0.734081
0.72945
0.722403
0.71457
0.702047
0.70442
0.707688
0.710462
0.712911
0.715094
0.716266
0.716111
0.715166
0.714354
0.714568
0.715984
0.717769
0.719003
0.718933
0.717471
0.715316
0.712953
0.709969
0.706951
0.69726
0.698349
0.700265
0.702601
0.704471
0.705867
0.707081
0.708068
0.70866
0.709034
0.709588
0.710335
0.710807
0.710694
0.710069
0.709148
0.707818
0.705849
0.703742
0.702265
0.692242
0.692876
0.694004
0.695759
0.6976
0.69919
0.700437
0.701495
0.702471
0.703365
0.704153
0.704679
0.704822
0.70462
0.704087
0.703115
0.701691
0.700083
0.698746
0.697944
0.687324
0.687763
0.688551
0.689853
0.691372
0.692931
0.694404
0.695693
0.696841
0.697925
0.69888
0.69949
0.699676
0.699447
0.698788
0.697792
0.696642
0.6955
0.694598
0.694064
0.682498
0.682825
0.683437
0.684505
0.685797
0.687193
0.688665
0.690132
0.691516
0.692813
0.693964
0.694719
0.694955
0.694719
0.694128
0.693349
0.692507
0.691655
0.690994
0.690603
0.677738
0.677992
0.678485
0.679394
0.680564
0.681867
0.683283
0.684803
0.686373
0.687929
0.68933
0.69026
0.690614
0.690525
0.690151
0.689611
0.688982
0.688358
0.687878
0.687579
0.672972
0.673175
0.673585
0.674384
0.675476
0.676733
0.678134
0.679698
0.68141
0.683213
0.684909
0.686105
0.686698
0.686856
0.686724
0.686411
0.685991
0.685559
0.685219
0.684984
0.668118
0.668281
0.668633
0.669359
0.670405
0.671643
0.673075
0.674724
0.676595
0.678657
0.680704
0.682266
0.68319
0.683644
0.683771
0.683691
0.683485
0.683229
0.683004
0.682817
0.663085
0.663218
0.663528
0.66421
0.66524
0.666504
0.668006
0.669785
0.671868
0.67425
0.676725
0.67874
0.680062
0.680858
0.681277
0.681448
0.681455
0.681369
0.681243
0.681092
0.657786
0.657893
0.658176
0.65884
0.659888
0.661222
0.662838
0.6648
0.667165
0.669952
0.672956
0.675515
0.677305
0.678496
0.679248
0.679692
0.679923
0.680008
0.679968
0.679844
0.652123
0.652209
0.652476
0.653146
0.654249
0.655694
0.657479
0.659693
0.662423
0.66572
0.66937
0.672585
0.674929
0.676578
0.677705
0.678467
0.678947
0.679193
0.67923
0.679127
0.645988
0.646054
0.646315
0.647013
0.648208
0.649812
0.65183
0.654377
0.657572
0.661502
0.665943
0.669945
0.672948
0.675135
0.676694
0.677813
0.678568
0.678988
0.679099
0.679013
0.639247
0.639295
0.639559
0.640309
0.641634
0.643453
0.645779
0.648755
0.652534
0.657246
0.662648
0.667598
0.671384
0.674207
0.676274
0.677794
0.678864
0.679474
0.679657
0.679584
0.631748
0.631776
0.632048
0.632871
0.634372
0.636471
0.639193
0.642709
0.647218
0.652892
0.659462
0.665549
0.670265
0.673837
0.676504
0.678505
0.679933
0.680746
0.681001
0.680938
0.623278
0.623295
0.623573
0.624498
0.62623
0.628687
0.63191
0.636106
0.641522
0.648376
0.656359
0.663808
0.66963
0.674083
0.677461
0.680035
0.681869
0.682907
0.683235
0.683177
0.613543
0.613537
0.613865
0.614934
0.616963
0.619878
0.623737
0.628789
0.635337
0.643644
0.653336
0.662404
0.669529
0.675021
0.679233
0.682472
0.684778
0.686063
0.686463
0.686408
0.602243
0.602214
0.602592
0.603854
0.606255
0.609758
0.614431
0.620571
0.628538
0.638636
0.650391
0.661373
0.670018
0.676724
0.681911
0.68592
0.688766
0.690313
0.690783
0.690726
0.588886
0.588836
0.589292
0.590805
0.593692
0.597964
0.603693
0.611228
0.620987
0.633298
0.647534
0.66076
0.671161
0.679262
0.685586
0.690478
0.693921
0.69574
0.696271
0.696207
0.572821
0.572748
0.573329
0.575193
0.578729
0.584024
0.59115
0.600503
0.612541
0.627584
0.644783
0.66062
0.673024
0.682708
0.690318
0.696205
0.700301
0.702386
0.702962
0.702883
0.553094
0.553004
0.553787
0.556161
0.560612
0.567329
0.576359
0.588135
0.60311
0.621525
0.642226
0.661038
0.675687
0.687135
0.696147
0.703145
0.70791
0.71023
0.710825
0.710724
0.528274
0.528182
0.529302
0.532467
0.538294
0.547089
0.558822
0.573901
0.592684
0.615234
0.640004
0.66213
0.679224
0.692581
0.703124
0.711274
0.716679
0.719164
0.719739
0.719609
0.496024
0.495978
0.497703
0.502232
0.51036
0.522392
0.538107
0.557735
0.581404
0.608923
0.638306
0.664031
0.683715
0.699072
0.711199
0.72051
0.726431
0.728963
0.729468
0.729303
0.452171
0.452327
0.455366
0.462725
0.475154
0.492506
0.514121
0.539889
0.569626
0.602918
0.637378
0.666901
0.68924
0.70661
0.720302
0.730662
0.736863
0.739265
0.739651
0.739452
0.388932
0.39026
0.39763
0.411498
0.431794
0.457599
0.487529
0.521095
0.557981
0.597689
0.637527
0.670906
0.695855
0.715144
0.730205
0.741332
0.747494
0.749542
0.749766
0.749554
0.313447
0.316055
0.330366
0.354228
0.385277
0.421114
0.460072
0.501901
0.546413
0.593175
0.639205
0.677297
0.705574
0.727308
0.743992
0.755684
0.761628
0.763426
0.763606
0.763492
0.236192
0.243108
0.264586
0.298462
0.339975
0.385605
0.433594
0.483756
0.535969
0.589851
0.64218
0.685083
0.716719
0.740899
0.759238
0.771242
0.776572
0.777885
0.778
0.777957
0.173204
0.18198
0.208083
0.249051
0.298814
0.352765
0.408901
0.466885
0.526478
0.587219
0.64555
0.692937
0.727661
0.753967
0.773425
0.785553
0.790592
0.791802
0.791944
0.791956
0.121626
0.131117
0.16074
0.206988
0.262962
0.323582
0.386602
0.451504
0.517842
0.584987
0.649004
0.700676
0.738295
0.76662
0.787295
0.799832
0.804756
0.80593
0.806147
0.806197
0.0784641
0.0882624
0.120289
0.170668
0.231741
0.29791
0.366753
0.437659
0.510039
0.583103
0.652518
0.708329
0.748774
0.779079
0.800993
0.814042
0.819163
0.820537
0.82078
0.820855
0.0412499
0.0511832
0.0850136
0.138701
0.204038
0.274967
0.348894
0.425136
0.503021
0.58159
0.656094
0.715869
0.759093
0.791346
0.814593
0.828358
0.833871
0.835335
0.835579
0.835656
0.00830855
0.0182923
0.053543
0.109971
0.178939
0.254006
0.332455
0.413531
0.496468
0.580181
0.659532
0.723133
0.769028
0.8032
0.8277
0.842274
0.848204
0.849795
0.850047
0.850108
-0.0216164
-0.0115938
0.0248152
0.0836031
0.155721
0.23442
0.3169
0.402375
0.490007
0.578613
0.66266
0.729938
0.778411
0.814399
0.840139
0.855412
0.861779
0.863503
0.863744
0.863786
-0.0494685
-0.0393891
-0.00195143
0.0589313
0.133832
0.215737
0.301831
0.391341
0.483379
0.57665
0.665243
0.736127
0.78709
0.824794
0.851647
0.867588
0.874346
0.876167
0.876387
0.876399
-0.0758082
-0.0656637
-0.0272681
0.0354979
0.112856
0.197624
0.286986
0.380194
0.476334
0.57407
0.667124
0.741615
0.795013
0.834357
0.86223
0.878649
0.885653
0.887558
0.887764
0.887745
-0.101099
-0.0908163
-0.0515239
0.0129527
0.092505
0.179839
0.272155
0.368743
0.46872
0.570744
0.668221
0.746335
0.802188
0.843092
0.871829
0.888626
0.895736
0.89765
0.897842
0.897793
-0.125626
-0.115132
-0.0749845
-0.00893455
0.0725865
0.162213
0.257204
0.356894
0.460446
0.566577
0.668442
0.750269
0.808648
0.851092
0.880571
0.897581
0.904662
0.906532
0.9067
0.906631
-0.149496
-0.138763
-0.0977917
-0.0303046
0.0529841
0.144671
0.242073
0.34459
0.45145
0.561484
0.667715
0.753401
0.814456
0.858482
0.888593
0.905637
0.912599
0.914381
0.914502
0.914407
-0.172832
-0.161827
-0.120062
-0.051219
0.0336484
0.127171
0.226736
0.331812
0.441713
0.555437
0.665977
0.755701
0.81968
0.865409
0.89609
0.913001
0.91969
0.921315
0.92138
0.921263
-0.195627
-0.184374
-0.141812
-0.071705
0.0145693
0.10972
0.211213
0.318583
0.431253
0.548416
0.663169
0.757113
0.824359
0.872042
0.903265
0.919821
0.926053
0.927436
0.927418
0.92728
-0.21796
-0.206392
-0.163019
-0.0917552
-0.0042373
0.0923462
0.195543
0.304957
0.420112
0.540429
0.659248
0.757562
0.828475
0.878526
0.91039
0.926349
0.931808
0.932796
0.932684
0.932539
-0.239625
-0.227838
-0.183669
-0.111358
-0.0227287
0.0751179
0.179789
0.290998
0.408352
0.531524
0.654176
0.756957
0.831951
0.884941
0.917803
0.933024
0.937281
0.937556
0.937273
0.937143
-0.260773
-0.248667
-0.203736
-0.130489
-0.04088
0.058071
0.164039
0.276784
0.396057
0.521771
0.647943
0.755191
0.834645
0.891226
0.925784
0.940526
0.943156
0.942055
0.941291
0.941225
-0.281224
-0.268838
-0.223204
-0.149101
-0.0586129
0.0412889
0.148377
0.262431
0.383329
0.511231
0.640567
0.752155
0.836369
0.897142
0.934341
0.949586
0.950817
0.947521
0.945253
0.944923
-0.301077
-0.288377
-0.242017
-0.167139
-0.0758909
0.0248399
0.132887
0.248022
0.370273
0.500035
0.632104
0.747726
0.83691
0.902293
0.942965
0.960325
0.961865
0.956845
0.950807
0.942158
-0.320218
-0.307275
-0.260261
-0.184767
-0.0929373
0.00844396
0.117236
0.233153
0.356446
0.48769
0.62205
0.741347
0.835888
0.906441
0.951055
0.972129
0.976555
0.971038
0.960068
0.958719
-0.338607
-0.325605
-0.277931
-0.201933
-0.109735
-0.00786142
0.101452
0.217806
0.341813
0.474068
0.610221
0.732516
0.832542
0.908797
0.956684
0.980876
0.987621
0.984673
0.950719
0.911873
-0.356023
-0.343242
-0.294965
-0.218519
-0.12627
-0.0240822
0.0855376
0.202113
0.326441
0.459202