/*--------------------------------*- C++ -*----------------------------------*\
  =========                 |
  \\      /  F ield         | OpenFOAM: The Open Source CFD Toolbox
   \\    /   O peration     | Website:  https://openfoam.org
    \\  /    A nd           | Version:  6
     \\/     M anipulation  |
\*---------------------------------------------------------------------------*/
FoamFile
{
    version     2.0;
    format      ascii;
    class       volVectorField;
    location    "84.5";
    object      U;
}
// * * * * * * * * * * * * * * * * * * * * * * * * * * * * * * * * * * * * * //

dimensions      [0 1 -1 0 0 0 0];

internalField   nonuniform List<vector> 
8800
(
(0.987184 -0.0766654 0)
(1.00189 -0.0551903 0)
(0.999724 -0.0285481 0)
(1.00003 -0.0151427 0)
(1.0001 -0.00854315 0)
(1.00012 -0.00504439 0)
(1.00008 -0.00299869 0)
(1.00003 -0.00169855 0)
(0.999994 -0.000792586 0)
(1.00006 -7.73057e-05 0)
(0.999961 0.000654751 0)
(0.999987 0.00142348 0)
(1.00005 0.00243695 0)
(1.00006 0.0040032 0)
(1.00005 0.00663554 0)
(1.00004 0.011374 0)
(0.999936 0.0208166 0)
(0.999166 0.0386714 0)
(1.0071 0.0724576 0)
(0.771214 0.0366615 0)
(0.363075 -0.0160168 0)
(1.04332 -0.0768138 0)
(1.0846 -0.0704435 0)
(1.04519 -0.0535379 0)
(1.02329 -0.0388883 0)
(1.01203 -0.0262091 0)
(1.00643 -0.0168464 0)
(1.00359 -0.0103131 0)
(1.00215 -0.00565129 0)
(1.00144 -0.0019904 0)
(1.00129 0.00133219 0)
(1.00165 0.00471915 0)
(1.00267 0.00865048 0)
(1.00467 0.013972 0)
(1.0086 0.0216782 0)
(1.01656 0.032645 0)
(1.0325 0.0465567 0)
(1.06267 0.0616723 0)
(1.09187 0.0761037 0)
(0.838666 0.0565633 0)
(0.216859 -0.00242918 0)
(1.07591 -0.0501291 0)
(1.09989 -0.0483006 0)
(1.06465 -0.0404504 0)
(1.04004 -0.0335885 0)
(1.02392 -0.0260627 0)
(1.01412 -0.0184749 0)
(1.00856 -0.0116494 0)
(1.00558 -0.00577553 0)
(1.00431 -0.000353042 0)
(1.00464 0.00489549 0)
(1.00658 0.0102893 0)
(1.01062 0.016365 0)
(1.01794 0.0233794 0)
(1.03052 0.0308429 0)
(1.05061 0.0378686 0)
(1.08035 0.0445494 0)
(1.10626 0.0513601 0)
(0.942506 0.041625 0)
(0.216129 0.00246249 0)
(0.175197 -0.000815739 0)
(1.01773 -0.0354739 0)
(1.10522 -0.0413621 0)
(1.07828 -0.0360409 0)
(1.05348 -0.0301004 0)
(1.03622 -0.0245176 0)
(1.02401 -0.0187811 0)
(1.01589 -0.012692 0)
(1.01101 -0.0064947 0)
(1.00879 -0.000152319 0)
(1.00935 0.00610708 0)
(1.01263 0.012108 0)
(1.01888 0.0179209 0)
(1.02876 0.0234816 0)
(1.04318 0.0287781 0)
(1.0637 0.0342543 0)
(1.09355 0.0402337 0)
(1.09339 0.041988 0)
(0.827076 0.0229258 0)
(0.173965 0.000854241 0)
(0.15401 -0.000609495 0)
(0.95626 -0.0254426 0)
(1.10349 -0.0351004 0)
(1.0877 -0.0326152 0)
(1.06175 -0.0279536 0)
(1.04414 -0.0229195 0)
(1.03166 -0.0176608 0)
(1.0228 -0.012116 0)
(1.01697 -0.00616655 0)
(1.0141 0.00031355 0)
(1.01475 0.00678101 0)
(1.01875 0.0126648 0)
(1.0258 0.0179293 0)
(1.03607 0.0228297 0)
(1.05062 0.027583 0)
(1.07185 0.0321038 0)
(1.10005 0.0360298 0)
(1.06802 0.0340739 0)
(0.739388 0.0143319 0)
(0.152151 0.000653203 0)
(0.139658 -0.000465526 0)
(0.899424 -0.019054 0)
(1.09585 -0.0300371 0)
(1.09579 -0.0291325 0)
(1.0693 -0.0253885 0)
(1.05086 -0.021235 0)
(1.03792 -0.0164458 0)
(1.0288 -0.0111411 0)
(1.02266 -0.00537975 0)
(1.01949 0.000961178 0)
(1.02007 0.00727959 0)
(1.02419 0.0129151 0)
(1.03136 0.0178425 0)
(1.04184 0.0222873 0)
(1.05695 0.0262454 0)
(1.07914 0.0296938 0)
(1.10222 0.032307 0)
(1.03584 0.0281809 0)
(0.672708 0.0102365 0)
(0.13703 0.000515927 0)
(0.129144 -0.000359863 0)
(0.849929 -0.0146835 0)
(1.08353 -0.0258875 0)
(1.1015 -0.0261589 0)
(1.07618 -0.0228562 0)
(1.05721 -0.0191937 0)
(1.04381 -0.0149262 0)
(1.03433 -0.00997852 0)
(1.02794 -0.00442229 0)
(1.02457 0.00174396 0)
(1.02499 0.00785155 0)
(1.02906 0.0132099 0)
(1.03634 0.0177173 0)
(1.04708 0.0215538 0)
(1.06259 0.024845 0)
(1.08522 0.0277696 0)
(1.10127 0.0295063 0)
(1.0008 0.0236887 0)
(0.620718 0.00788092 0)
(0.125579 0.000419152 0)
(0.121136 -0.000278859 0)
(0.807917 -0.0115159 0)
(1.06834 -0.0222569 0)
(1.10508 -0.0234928 0)
(1.08247 -0.0205978 0)
(1.06309 -0.0171445 0)
(1.04941 -0.0131778 0)
(1.03964 -0.00856094 0)
(1.03296 -0.00326962 0)
(1.02932 0.00268422 0)
(1.02956 0.00854716 0)
(1.03357 0.0135574 0)
(1.0409 0.0175821 0)
(1.05173 0.0209078 0)
(1.06745 0.0237847 0)
(1.09041 0.0264052 0)
(1.09741 0.027238 0)
(0.965336 0.0201774 0)
(0.578857 0.00635699 0)
(0.116431 0.000349376 0)
(0.114947 -0.000215239 0)
(0.772616 -0.00914196 0)
(1.0517 -0.0190542 0)
(1.10753 -0.0210174 0)
(1.08839 -0.018486 0)
(1.06862 -0.0151708 0)
(1.0547 -0.0113591 0)
(1.04472 -0.00694446 0)
(1.03778 -0.00188585 0)
(1.03385 0.00382116 0)
(1.03384 0.00938754 0)
(1.03772 0.014022 0)
(1.04497 0.0176159 0)
(1.05578 0.0205509 0)
(1.0717 0.0230993 0)
(1.0943 0.0253695 0)
(1.09067 0.0253775 0)
(0.93075 0.0174828 0)
(0.544098 0.00532267 0)
(0.108857 0.000299575 0)
(0.110144 -0.000163861 0)
(0.74309 -0.00729423 0)
(1.03468 -0.0162077 0)
(1.10906 -0.0186749 0)
(1.09403 -0.0164413 0)
(1.07398 -0.0132104 0)
(1.05978 -0.00947902 0)
(1.04961 -0.00517556 0)
(1.04243 -0.0002811 0)
(1.03819 0.0051916 0)
(1.03786 0.0104477 0)
(1.0415 0.0147245 0)
(1.04859 0.0179361 0)
(1.05935 0.0205229 0)
(1.07545 0.0227755 0)
(1.09689 0.0246589 0)
(1.08144 0.0238805 0)
(0.897582 0.0154556 0)
(0.514378 0.00460897 0)
(0.102372 0.000265056 0)
(0.106446 -0.00012095 0)
(0.718527 -0.00579845 0)
(1.01812 -0.0136452 0)
(1.10979 -0.0164011 0)
(1.09959 -0.0144294 0)
(1.07928 -0.0112007 0)
(1.06478 -0.00748836 0)
(1.05438 -0.00323503 0)
(1.04693 0.00155773 0)
(1.04234 0.00684117 0)
(1.04161 0.0118115 0)
(1.04492 0.0157506 0)
(1.0518 0.0185935 0)
(1.06247 0.0208431 0)
(1.07874 0.0228243 0)
(1.09809 0.0242874 0)
(1.07007 0.0227494 0)
(0.865927 0.0139805 0)
(0.48823 0.00412599 0)
(0.0966315 0.000242836 0)
(0.103667 -8.35212e-05 0)
(0.698293 -0.00453824 0)
(1.00263 -0.0112986 0)
(1.10988 -0.0141595 0)
(1.10502 -0.0123644 0)
(1.08459 -0.00908865 0)
(1.06978 -0.00533487 0)
(1.0591 -0.00106935 0)
(1.05132 0.00367852 0)
(1.04629 0.00882415 0)
(1.04508 0.0135461 0)
(1.048 0.017168 0)
(1.05463 0.0196491 0)
(1.06518 0.0215666 0)
(1.08157 0.0232777 0)
(1.09823 0.0243732 0)
(1.05681 0.0219975 0)
(0.835592 0.0129724 0)
(0.464543 0.0038191 0)
(0.0913714 0.0002305 0)
(0.101689 -4.88616e-05 0)
(0.681928 -0.00342604 0)
(0.98867 -0.0090959 0)
(1.10957 -0.0118611 0)
(1.1103 -0.0101625 0)
(1.09002 -0.00681013 0)
(1.07485 -0.00295115 0)
(1.06384 0.00139406 0)
(1.05565 0.00616116 0)
(1.0501 0.0112186 0)
(1.0483 0.01572 0)
(1.05076 0.0190382 0)
(1.05707 0.0211561 0)
(1.06748 0.022739 0)
(1.08388 0.0241658 0)
(1.09741 0.0248282 0)
(1.0418 0.0216361 0)
(0.80621 0.0123585 0)
(0.442436 0.00365067 0)
(0.0863836 0.000226035 0)
(0.100455 -1.46927e-05 0)
(0.669138 -0.00239187 0)
(0.976617 -0.00696167 0)
(1.10916 -0.00944893 0)
(1.11558 -0.0077627 0)
(1.09563 -0.00428919 0)
(1.08008 -0.000260464 0)
(1.06867 0.00423451 0)
(1.06 0.00908965 0)
(1.0538 0.0141173 0)
(1.05129 0.0184321 0)
(1.05318 0.0214564 0)
(1.05911 0.0231997 0)
(1.06935 0.0244416 0)
(1.08573 0.0255745 0)
(1.09531 0.0257343 0)
(1.02504 0.0216652 0)
(0.777315 0.012089 0)
(0.421189 0.00359531 0)
(0.0815018 0.000228007 0)
(0.0999544 2.1739e-05 0)
(0.65978 -0.00137963 0)
(0.966788 -0.00482282 0)
(1.109 -0.006861 0)
(1.12099 -0.00509149 0)
(1.10152 -0.00143826 0)
(1.08555 0.00283365 0)
(1.07367 0.00755307 0)
(1.0644 0.0125669 0)
(1.05742 0.0176224 0)
(1.05406 0.0217801 0)
(1.05528 0.0245154 0)
(1.06077 0.0258852 0)
(1.07077 0.0267648 0)
(1.08703 0.027569 0)
(1.09183 0.0271316 0)
(1.00646 0.0221285 0)
(0.748384 0.0121386 0)
(0.40019 0.00364017 0)
(0.0765864 0.0002358 0)
(0.100202 5.38333e-05 0)
(0.65384 -0.000333465 0)
(0.95949 -0.00260476 0)
(1.10944 -0.00402795 0)
(1.1267 -0.00206097 0)
(1.1078 0.00184817 0)
(1.09136 0.00644306 0)
(1.07892 0.0114688 0)
(1.06893 0.0167208 0)
(1.06101 0.0218635 0)
(1.05663 0.025892 0)
(1.05703 0.0283413 0)
(1.062 0.029334 0)
(1.07172 0.0298241 0)
(1.08751 0.0302487 0)
(1.08664 0.0291081 0)
(0.98584 0.0230577 0)
(0.718821 0.0124945 0)
(0.378873 0.00377585 0)
(0.0715124 0.000248636 0)
(0.101283 0.000106989 0)
(0.651452 0.000792815 0)
(0.955045 -0.000228113 0)
(1.11085 -0.000870503 0)
(1.13292 0.00142423 0)
(1.11458 0.00568118 0)
(1.09762 0.0106921 0)
(1.08451 0.0161198 0)
(1.07364 0.0216964 0)
(1.06459 0.0269943 0)
(1.05898 0.0309234 0)
(1.05842 0.0330722 0)
(1.06276 0.033676 0)
(1.07213 0.0337544 0)
(1.08702 0.0337568 0)
(1.07951 0.0317372 0)
(0.96282 0.0244941 0)
(0.687968 0.0131449 0)
(0.356708 0.00399346 0)
(0.0661695 0.000265578 0)
(0.103345 0.000159962 0)
(0.652874 0.00191355 0)
(0.953812 0.00239206 0)
(1.1137 0.00271572 0)
(1.13986 0.00547668 0)
(1.12201 0.010213 0)
(1.10447 0.0157531 0)
(1.09056 0.0216903 0)
(1.07862 0.0276842 0)
(1.06819 0.0331933 0)
(1.06113 0.0370342 0)
(1.05943 0.0388476 0)
(1.06302 0.0390579 0)
(1.07195 0.0386917 0)
(1.08531 0.0381891 0)
(1.07012 0.0351227 0)
(0.936909 0.0264829 0)
(0.655115 0.0140836 0)
(0.333201 0.00428437 0)
(0.0604655 0.000285614 0)
(0.10648 0.000224077 0)
(0.658665 0.00339029 0)
(0.956185 0.00531701 0)
(1.11845 0.00687454 0)
(1.14777 0.010252 0)
(1.13029 0.0156222 0)
(1.11206 0.0218198 0)
(1.09716 0.0283903 0)
(1.08392 0.0349009 0)
(1.07184 0.0406778 0)
(1.06304 0.0444252 0)
(1.06003 0.0458804 0)
(1.06271 0.0456605 0)
(1.07113 0.044802 0)
(1.08235 0.0437348 0)
(1.05801 0.0393798 0)
(0.90745 0.0290541 0)
(0.619493 0.0152935 0)
(0.307889 0.00463408 0)
(0.054329 0.000307036 0)
(0.110979 0.000310749 0)
(0.669191 0.00511999 0)
(0.962767 0.00882756 0)
(1.1256 0.011767 0)
(1.15697 0.0159544 0)
(1.13964 0.0221441 0)
(1.12056 0.0291558 0)
(1.10445 0.036497 0)
(1.08961 0.0436219 0)
(1.07553 0.0497058 0)
(1.06469 0.0533269 0)
(1.06012 0.0543728 0)
(1.06179 0.0536809 0)
(1.06959 0.0522792 0)
(1.07806 0.0505223 0)
(1.04258 0.0446089 0)
(0.873606 0.0322276 0)
(0.580283 0.0167399 0)
(0.280371 0.00502061 0)
(0.0477206 0.000327628 0)
(0.117195 0.000424724 0)
(0.685232 0.00727701 0)
(0.974196 0.0130656 0)
(1.13574 0.0176185 0)
(1.16781 0.0228465 0)
(1.15033 0.0301161 0)
(1.13019 0.0381248 0)
(1.11255 0.0463792 0)
(1.09573 0.054195 0)
(1.07923 0.0605703 0)
(1.06602 0.0639804 0)
(1.05957 0.0645119 0)
(1.06019 0.0633164 0)
(1.06735 0.0613103 0)
(1.07218 0.0587383 0)
(1.02302 0.0508912 0)
(0.834356 0.0359684 0)
(0.536671 0.0183469 0)
(0.25037 0.00540686 0)
(0.0406506 0.000344044 0)
(0.125654 0.00058659 0)
(0.707767 0.0100963 0)
(0.991326 0.0183358 0)
(1.14952 0.024774 0)
(1.18081 0.0313175 0)
(1.1627 0.0399817 0)
(1.14115 0.0491905 0)
(1.12155 0.0584927 0)
(1.10225 0.0670257 0)
(1.08287 0.0736146 0)
(1.06691 0.0766637 0)
(1.05836 0.076534 0)
(1.05784 0.0747567 0)
(1.06422 0.0720404 0)
(1.06417 0.0684094 0)
(0.99828 0.0582593 0)
(0.788507 0.0401604 0)
(0.48793 0.0199856 0)
(0.217813 0.00573944 0)
(0.0331988 0.00035225 0)
(0.137111 0.000818619 0)
(0.738131 0.0139583 0)
(1.01532 0.0251076 0)
(1.16773 0.0337836 0)
(1.19659 0.0419687 0)
(1.17712 0.0524214 0)
(1.15363 0.0630433 0)
(1.13147 0.073468 0)
(1.10909 0.0826327 0)
(1.08628 0.0892041 0)
(1.06721 0.0916175 0)
(1.05642 0.0906543 0)
(1.05475 0.0882572 0)
(1.05984 0.0846915 0)
(1.05322 0.0797494 0)
(0.966962 0.066615 0)
(0.734759 0.0445645 0)
(0.433591 0.0214486 0)
(0.182958 0.0059479 0)
(0.025533 0.000347768 0)
(0.152864 0.0011861 0)
(0.778356 0.0195018 0)
(1.04785 0.0341823 0)
(1.19135 0.045597 0)
(1.21603 0.056115 0)
(1.19395 0.0685132 0)
(1.16771 0.0806733 0)
(1.14216 0.0921127 0)
(1.11597 0.101595 0)
(1.0892 0.107707 0)
(1.06673 0.109076 0)
(1.05357 0.10702 0)
(1.05079 0.10391 0)
(1.05399 0.0995637 0)
(1.03829 0.0927188 0)
(0.927264 0.0756619 0)
(0.671874 0.0487606 0)
(0.373707 0.0224513 0)
(0.146522 0.00595218 0)
(0.0179205 0.00032659 0)
(0.175136 0.00182044 0)
(0.831661 0.0278689 0)
(1.0917 0.047117 0)
(1.22148 0.062087 0)
(1.23958 0.0755178 0)
(1.21328 0.0898933 0)
(1.18312 0.10341 0)
(1.15319 0.115377 0)
(1.12244 0.124512 0)
(1.09124 0.129466 0)
(1.06518 0.129214 0)
(1.04965 0.125728 0)
(1.04578 0.121736 0)
(1.04662 0.116368 0)
(1.01785 0.107091 0)
(0.876961 0.084829 0)
(0.5991 0.0521198 0)
(0.309297 0.0226618 0)
(0.109817 0.0056807 0)
(0.0107259 0.000285551 0)
(0.207353 0.00321916 0)
(0.903862 0.0417558 0)
(1.15013 0.067772 0)
(1.25847 0.0868106 0)
(1.26707 0.103166 0)
(1.23449 0.118974 0)
(1.19901 0.132899 0)
(1.16371 0.144253 0)
(1.12781 0.151913 0)
(1.09192 0.154689 0)
(1.06225 0.152091 0)
(1.04449 0.146785 0)
(1.03959 0.141742 0)
(1.03698 0.135184 0)
(0.989631 0.122337 0)
(0.813504 0.0931067 0)
(0.517071 0.0538675 0)
(0.24309 0.0218576 0)
(0.0749416 0.00511503 0)
(0.00443979 0.000222114 0)
(0.251307 0.0095683 8.12193e-21)
(0.99883 0.0692588 6.9949e-21)
(1.22072 0.102866 -2.45902e-21)
(1.29933 0.12358 0)
(1.29552 0.142779 -6.43286e-35)
(1.25532 0.15816 9.44807e-22)
(1.21378 0.170672 -1.72866e-21)
(1.17266 0.179955 0)
(1.13132 0.185053 3.62255e-35)
(1.0905 0.184886 -2.20486e-21)
(1.0571 0.17952 0)
(1.03709 0.172343 -2.65808e-21)
(1.03179 0.166669 -7.87295e-21)
(1.02327 0.159412 -3.73734e-21)
(0.948249 0.140623 -1.12892e-21)
(0.729501 0.101034 -6.71321e-22)
(0.420878 0.0538643 0)
(0.174387 0.0203261 4.69928e-22)
(0.0420783 0.00442087 5.56513e-22)
(-0.000990105 0.000114707 1.01714e-20)
(0.281878 0.0251179 5.41788e-21)
(1.07763 0.112759 1.15418e-22)
(1.27893 0.152863 6.30873e-22)
(1.33634 0.17352 0)
(1.32065 0.192853 -3.17219e-21)
(1.2734 0.206145 -3.64267e-21)
(1.22591 0.216436 -1.72042e-21)
(1.179 0.223373 -6.21345e-21)
(1.13215 0.22595 0)
(1.08619 0.223028 9.31697e-21)
(1.04883 0.21517 9.30414e-21)
(1.02637 0.206323 2.7737e-21)
(1.01831 0.199279 1.02068e-20)
(0.997278 0.189064 1.44516e-20)
(0.880445 0.160591 0)
(0.612803 0.107627 2.04121e-20)
(0.308738 0.0526012 2.92806e-20)
(0.104544 0.0177678 3.25805e-20)
(0.0105071 0.00256367 -3.73703e-20)
(-0.00602499 -0.000467005 -7.12918e-22)
(0.283548 0.0425084 0)
(1.12821 0.168962 8.06294e-22)
(1.31881 0.213984 0)
(1.36541 0.234328 -3.79243e-21)
(1.34061 0.250732 0)
(1.28745 0.260115 -6.97957e-21)
(1.23442 0.266683 3.46571e-21)
(1.18206 0.270101 -1.23287e-20)
(1.13002 0.269233 -3.25783e-22)
(1.07935 0.262858 4.76896e-21)
(1.03847 0.252036 2.04058e-20)
(1.0139 0.241293 -2.96828e-23)
(1.00269 0.232464 -7.39907e-21)
(0.968083 0.21828 -1.35269e-20)
(0.816173 0.178701 1.60528e-20)
(0.523666 0.112283 -2.84228e-20)
(0.238842 0.0508889 -3.74553e-21)
(0.0653339 0.015057 0)
(-0.00646412 0.00019228 -3.68568e-24)
(-0.0086479 -0.00119561 0)
(0.276923 0.0570772 7.22082e-21)
(1.15602 0.228884 -4.00622e-21)
(1.34391 0.279731 -3.70426e-21)
(1.38491 0.30042 1.6949e-21)
(1.3539 0.312898 -2.87405e-21)
(1.29635 0.317694 1.44502e-20)
(1.23881 0.319796 7.14357e-21)
(1.1818 0.318961 0)
(1.12524 0.313985 -2.34964e-20)
(1.07041 0.303579 0)
(1.02647 0.28937 -1.061e-20)
(1.00009 0.276412 -1.32507e-20)
(0.985692 0.265373 -8.01583e-21)
(0.938619 0.246118 -9.78493e-21)
(0.761355 0.195412 0)
(0.460839 0.117372 0)
(0.195231 0.0507535 -2.42629e-20)
(0.0401776 0.0126295 4.79007e-21)
(-0.0185043 -0.00256132 -2.82165e-21)
(-0.0107548 -0.00206131 -3.34271e-21)
(0.268846 0.0698142 -2.40046e-22)
(1.16854 0.288664 0)
(1.35802 0.346422 6.15728e-21)
(1.39587 0.367865 4.40722e-21)
(1.36059 0.376402 6.80929e-21)
(1.29988 0.37659 0)
(1.23888 0.374076 6.8083e-21)
(1.17812 0.368724 1.34236e-20)
(1.11777 0.359304 1.18944e-20)
(1.05936 0.344486 2.22718e-20)
(1.01277 0.326552 0)
(0.984806 0.311035 -2.83934e-20)
(0.967429 0.297362 -1.71815e-20)
(0.910123 0.272424 -1.01765e-20)
(0.716612 0.211317 6.25462e-20)
(0.417857 0.123328 7.42411e-21)
(0.167603 0.0514301 3.49642e-20)
(0.0226381 0.00996874 -1.65311e-19)
(-0.0285462 -0.00589723 9.79093e-20)
(-0.0128936 -0.00311611 -1.19513e-19)
(0.260888 0.0811856 3.21607e-21)
(1.17117 0.346333 -5.90735e-23)
(1.36409 0.412141 -3.24968e-22)
(1.39998 0.434668 -3.40269e-21)
(1.36165 0.439503 -5.11246e-21)
(1.2986 0.435231 3.60135e-22)
(1.23491 0.428204 -7.3711e-21)
(1.17114 0.418357 1.36986e-20)
(1.10762 0.404408 -2.54935e-20)
(1.04613 0.385021 0)
(0.997218 0.363104 -1.27889e-20)
(0.967854 0.344733 -3.0526e-22)
(0.947805 0.328067 -1.8757e-20)
(0.882748 0.297235 0)
(0.680811 0.226524 -1.34919e-20)
(0.389022 0.12995 -3.19732e-20)
(0.14989 0.0525005 8.50733e-20)
(0.00989309 0.00703191 -8.37746e-20)
(-0.0373304 -0.00978856 1.19094e-19)
(-0.015132 -0.00438006 -1.25312e-19)
(0.253926 0.0915796 -1.11459e-22)
(1.16749 0.401166 1.02299e-21)
(1.36429 0.475833 8.48448e-22)
(1.39871 0.499713 8.58923e-22)
(1.35816 0.501182 -2.45875e-21)
(1.29333 0.49269 0)
(1.2275 0.481353 -6.59101e-21)
(1.16124 0.467164 -1.4238e-20)
(1.09501 0.448748 -1.31516e-20)
(1.03082 0.424762 0)
(0.979786 0.398711 -1.31168e-20)
(0.949108 0.377225 -1.63884e-20)
(0.926777 0.357248 2.02626e-20)
(0.856474 0.320473 -1.2335e-20)
(0.651984 0.241208 -5.84912e-20)
(0.369726 0.13704 3.4636e-20)
(0.138854 0.0537816 1.02532e-20)
(0.00107059 0.00390633 0)
(-0.0446215 -0.0140674 -1.14475e-19)
(-0.0173895 -0.00583944 -4.248e-21)
(0.248147 0.101342 1.17306e-21)
(1.15982 0.452977 -1.69402e-21)
(1.36012 0.536946 -7.5149e-22)
(1.39327 0.56234 3.72418e-21)
(1.35106 0.560801 -8.086e-21)
(1.28491 0.54841 1.20412e-20)
(1.21734 0.533042 1.41787e-20)
(1.14895 0.514722 -2.26897e-20)
(1.08034 0.491997 8.27643e-21)
(1.01366 0.463446 -5.43084e-20)
(0.960665 0.433209 -1.49023e-20)
(0.928692 0.408355 0)
(0.904396 0.384913 2.19406e-20)
(0.830823 0.342219 2.63225e-20)
(0.627913 0.255391 3.14487e-20)
(0.356436 0.144455 -3.747e-20)
(0.132493 0.0553998 -1.10812e-20)
(-0.00380205 0.0010334 1.30294e-20)
(-0.0496285 -0.0182613 0)
(-0.0193445 -0.007372 -9.188e-21)
(0.243471 0.110559 -1.74766e-20)
(1.14991 0.50183 9.72021e-21)
(1.35289 0.595372 1.17887e-21)
(1.38471 0.622183 1.53416e-21)
(1.34119 0.617979 -3.04082e-21)
(1.27403 0.60203 -8.4119e-22)
(1.20503 0.582969 -1.55799e-20)
(1.1348 0.560795 -8.22928e-21)
(1.06403 0.533952 -2.28402e-20)
(0.995028 0.500962 5.99682e-23)
(0.940096 0.466512 -4.64586e-20)
(0.906792 0.438208 3.95917e-20)
(0.880675 0.41114 -2.41036e-20)
(0.804858 0.362819 2.89639e-20)
(0.606568 0.269193 0)
(0.346345 0.152154 -2.03383e-20)
(0.129581 0.0574688 5.83386e-23)
(-0.00529856 -0.00113201 -5.66885e-20)
(-0.0520031 -0.021843 -8.3586e-21)
(-0.0206806 -0.00880019 0)
(0.239851 0.119498 0)
(1.13881 0.547971 1.11334e-20)
(1.34347 0.651302 4.9303e-21)
(1.37383 0.679085 -6.49497e-22)
(1.32925 0.672516 -4.61326e-21)
(1.26132 0.653358 0)
(1.19114 0.630948 -6.71571e-21)
(1.11928 0.60523 -2.16474e-22)
(1.04651 0.574522 4.89649e-20)
(0.975257 0.537266 -7.41629e-21)
(0.918355 0.498651 -3.35998e-20)
(0.883639 0.466846 2.05403e-20)
(0.855768 0.436097 -4.33638e-22)
(0.778504 0.382337 3.08787e-20)
(0.586318 0.282526 1.87917e-20)
(0.337444 0.160029 -4.38466e-20)
(0.128174 0.0601432 5.18643e-20)
(-0.00440494 -0.00230297 1.53814e-20)
(-0.0519796 -0.0244824 6.36068e-20)
(-0.0212425 -0.00995688 -1.72051e-19)
(0.237198 0.128308 -5.67676e-21)
(1.12729 0.591577 7.64607e-21)
(1.33252 0.704283 -5.18848e-21)
(1.3613 0.733006 -9.87522e-22)
(1.31583 0.724322 0)
(1.24729 0.702288 -4.69936e-21)
(1.17611 0.676874 2.29906e-20)
(1.1028 0.647941 1.79219e-20)
(1.02814 0.613666 0)
(0.954648 0.572355 -1.07476e-19)
(0.895714 0.529672 9.11565e-20)
(0.85948 0.494354 0)
(0.829861 0.459924 2.82554e-20)
(0.751645 0.400887 -4.12347e-22)
(0.566108 0.295269 -6.06271e-20)
(0.328319 0.167904 2.36821e-20)
(0.12705 0.0632733 0)
(-0.00211425 -0.00250514 8.3161e-20)
(-0.0500312 -0.0261041 0)
(-0.0211015 -0.0107893 -8.15792e-20)
(0.235412 0.137014 6.75505e-21)
(1.11583 0.632882 9.83802e-21)
(1.32048 0.754385 -5.17118e-21)
(1.34765 0.783973 0)
(1.30141 0.773395 -2.76581e-21)
(1.23241 0.748795 0)
(1.16036 0.720699 -2.20974e-20)
(1.08572 0.688885 -8.06105e-21)
(1.00925 0.651377 8.55279e-21)
(0.933497 0.606268 -5.32605e-20)
(0.872414 0.559634 9.39843e-21)
(0.834567 0.520795 0)
(0.803233 0.482673 -6.05409e-20)
(0.72423 0.418433 3.77851e-22)
(0.545132 0.307201 0)
(0.318251 0.175357 9.74561e-23)
(0.125366 0.0665446 7.61587e-20)
(0.000528857 -0.0019428 -7.20053e-20)
(-0.0469199 -0.0267584 2.13185e-20)
(-0.0203915 -0.0112524 0)
(0.234146 0.145575 0)
(1.10465 0.672076 1.17927e-20)
(1.30783 0.801723 7.45001e-21)
(1.33332 0.832059 -5.27155e-22)
(1.28639 0.819771 3.55375e-24)
(1.21702 0.792892 -1.05973e-20)
(1.14421 0.762424 8.48396e-21)
(1.06835 0.728054 -9.78633e-21)
(0.990132 0.687655 3.85702e-20)
(0.912062 0.639054 -8.54809e-20)
(0.848677 0.588602 -8.98524e-22)
(0.809105 0.546213 -2.64596e-20)
(0.776038 0.504309 9.85583e-20)
(0.696325 0.434891 -4.8584e-22)
(0.52335 0.318036 -4.74104e-20)
(0.306762 0.18198 -8.38067e-20)
(0.122477 0.0696722 0)
(0.00278338 -0.000926397 0)
(-0.0434435 -0.0267184 2.30694e-20)
(-0.0193333 -0.0114238 -1.3706e-20)
(0.233544 0.154165 9.39581e-21)
(1.09397 0.709073 -2.66879e-20)
(1.29487 0.846403 -7.99005e-21)
(1.31862 0.877354 0)
(1.27107 0.863515 -3.08167e-22)
(1.20142 0.834619 -8.62628e-21)
(1.12796 0.802072 1.98102e-20)
(1.05096 0.765463 3.78973e-20)
(0.97103 0.722521 5.00767e-20)
(0.89058 0.670766 -6.99598e-20)
(0.8247 0.616662 -7.91576e-20)
(0.783246 0.570655 7.09874e-20)
(0.74847 0.524745 0)
(0.668088 0.44993 -2.17292e-20)
(0.500601 0.327469 -5.12763e-20)
(0.293888 0.187311 -6.04521e-20)
(0.118269 0.0721734 -7.12968e-20)
(0.00422957 8.96393e-05 2.11173e-20)
(-0.0401245 -0.0263247 -1.24435e-20)
(-0.0181473 -0.0114043 7.18448e-23)
(0.233185 0.162596 0)
(1.08403 0.744174 0)
(1.28183 0.888532 5.09464e-22)
(1.3038 0.919965 0)
(1.25572 0.904718 -2.8136e-21)
(1.18584 0.874042 4.94521e-21)
(1.11183 0.839681 0)
(1.03377 0.801137 4.38303e-21)
(0.952168 0.755997 8.36332e-20)
(0.869261 0.701456 -1.61455e-19)
(0.800663 0.643916 0)
(0.757093 0.594189 -4.59858e-20)
(0.720526 0.543859 -5.74641e-22)
(0.639506 0.463197 -3.89813e-22)
(0.477007 0.335022 5.52259e-20)
(0.27998 0.191046 3.87981e-23)
(0.112939 0.0737423 -1.53948e-19)
(0.00484799 0.000848385 4.54937e-20)
(-0.0371798 -0.0257949 1.35031e-20)
(-0.0169455 -0.0112534 0)
(0.233046 0.170817 -3.74805e-20)
(1.07459 0.777603 -1.78871e-20)
(1.26881 0.928187 -2.32883e-20)
(1.28906 0.96 2.3121e-20)
(1.24052 0.943456 -8.07526e-21)
(1.17049 0.911229 0)
(1.09599 0.875304 1.15687e-20)
(1.01696 0.835108 -9.94122e-21)
(0.933727 0.788112 8.02491e-22)
(0.848305 0.731182 1.20013e-20)
(0.776723 0.670474 1.03361e-19)
(0.730705 0.616927 -1.61671e-20)
(0.692173 0.561599 -6.13655e-20)
(0.610587 0.474357 -2.5471e-20)
(0.453037 0.340157 2.99181e-20)
(0.26554 0.192746 6.001e-23)
(0.107056 0.0741637 4.15445e-20)
(0.00487743 0.00124004 -9.80946e-20)
(-0.034698 -0.0252603 1.16421e-19)
(-0.0158381 -0.0110559 1.7181e-20)
(0.232936 0.178795 1.42085e-20)
(1.06564 0.809433 -1.00532e-20)
(1.25598 0.965498 1.30839e-21)
(1.27456 0.997578 1.47301e-20)
(1.22563 0.979843 3.10911e-21)
(1.1555 0.946258 -7.85006e-21)
(1.08061 0.908995 3.01895e-21)
(1.00067 0.867404 -4.13623e-20)
(0.915869 0.818877 -9.25206e-20)
(0.827883 0.759973 -9.67999e-20)
(0.753045 0.696448 0)
(0.704132 0.639019 -7.15808e-20)
(0.663266 0.577983 8.88821e-20)
(0.581096 0.483037 0)
(0.428889 0.342212 -6.43243e-20)
(0.251134 0.191768 3.80752e-20)
(0.101646 0.0731748 -4.47864e-20)
(0.00502168 0.00142335 -5.28992e-20)
(-0.0326912 -0.024672 -9.39283e-20)
(-0.0149634 -0.0108859 -7.41801e-20)
(0.233156 0.18665 -1.60786e-20)
(1.05706 0.839662 1.07701e-20)
(1.24342 1.00053 2.43834e-20)
(1.2604 1.03279 2.14991e-20)
(1.21116 1.01398 -5.73228e-21)
(1.14098 0.979218 -3.10649e-21)
(1.06577 0.940808 1.04144e-20)
(0.985017 0.898072 -4.23034e-20)
(0.898707 0.848318 -5.50165e-20)
(0.808143 0.78786 1.01814e-19)
(0.729778 0.721935 2.29085e-19)
(0.677424 0.660657 0)
(0.633625 0.593161 0)
(0.550616 0.48901 -2.94163e-20)
(0.40435 0.340362 0)
(0.237699 0.186829 8.18784e-20)
(0.098768 0.0696054 9.63622e-20)
(0.00765406 0.00099934 0)
(-0.0303799 -0.0241573 0)
(-0.0146672 -0.01099 7.98803e-20)
(0.233144 0.194056 1.82689e-20)
(1.04886 0.8683 1.44643e-20)
(1.2312 1.03341 1.77298e-20)
(1.24667 1.06576 -2.06504e-20)
(1.19718 1.04597 -7.57714e-21)
(1.12701 1.01019 1.49766e-21)
(1.05155 0.970803 -1.41446e-20)
(0.970083 0.927141 -2.00741e-22)
(0.882346 0.876445 -1.05629e-21)
(0.789213 0.814848 -7.63399e-22)
(0.707089 0.747014 1.18485e-19)
(0.650667 0.682036 0)
(0.603104 0.607426 9.10091e-20)
(0.518546 0.492325 6.32409e-20)
(0.378539 0.333892 1.50957e-19)
(0.225128 0.175545 4.42846e-20)
(0.101034 0.0593074 -5.1925e-20)
(0.0195491 -0.00581699 -3.06054e-20)
(-0.0193416 -0.0261121 0)
(-0.0132873 -0.0111772 8.6076e-20)
(0.233551 0.201504 -4.13115e-20)
(1.04101 0.895463 0)
(1.21933 1.06419 2.08561e-20)
(1.23339 1.09658 -1.75005e-20)
(1.18377 1.07592 1.03457e-20)
(1.11363 1.03925 1.4387e-21)
(1.03803 0.999036 2.61261e-20)
(0.955923 0.954643 -3.5079e-21)
(0.866849 0.903267 0)
(0.771205 0.840917 -1.131e-19)
(0.685145 0.771734 -2.59062e-19)
(0.623989 0.703354 1.0716e-20)
(0.571646 0.621149 1.26777e-19)
(0.484325 0.493474 0)
(0.349776 0.322871 1.02443e-19)
(0.210326 0.155387 0)
(0.106057 0.031772 0)
(0.0487419 -0.0394272 -3.31046e-20)
(0.0335593 -0.0436919 0)
(0.0216051 0.000738205 2.31292e-20)
(0.233569 0.208413 -4.61437e-20)
(1.03348 0.921429 0)
(1.2078 1.09306 3.47992e-20)
(1.22052 1.12551 0)
(1.17087 1.10409 -6.31312e-21)
(1.1008 1.0667 0)
(1.02513 1.02581 1.02401e-21)
(0.942445 0.980911 5.8698e-21)
(0.852098 0.929141 7.0015e-21)
(0.753945 0.86643 -1.24527e-19)
(0.663747 0.796541 7.77516e-21)
(0.597065 0.725299 8.69866e-20)
(0.538667 0.63517 1.24317e-19)
(0.446779 0.493199 1.67149e-20)
(0.315593 0.308636 8.08044e-20)
(0.186583 0.126752 0)
(0.0977767 -0.0169979 1.09622e-19)
(0.057562 -0.0713084 -6.43645e-20)
(0.0269613 0.0435707 7.52718e-20)
(-0.0387233 0.459395 -8.94307e-20)
(0.233576 0.215172 3.8235e-20)
(1.02604 0.946043 5.778e-20)
(1.19654 1.12036 0)
(1.20793 1.15297 1.01228e-21)
(1.15831 1.13107 1.87181e-20)
(1.08823 1.09321 -1.03169e-20)
(1.01253 1.05193 8.24105e-21)
(0.929223 1.00688 0)
(0.837542 0.955149 4.57873e-20)
(0.736727 0.892676 -6.43485e-21)
(0.641934 0.822903 0)
(0.568486 0.749504 0)
(0.501855 0.650646 1.12136e-19)
(0.40296 0.491767 -5.18384e-20)
(0.272445 0.292873 -8.25194e-20)
(0.148406 0.092532 0)
(0.0585826 0.0104331 5.5892e-20)
(0.00407996 0.456869 -6.47756e-20)
(0.0292026 1.93741 -3.63223e-20)
(0.0554947 2.8299 -4.46275e-20)
(0.233294 0.22141 -2.87756e-20)
(1.01875 0.969483 -7.42763e-20)
(1.18555 1.1461 2.07156e-20)
(1.19561 1.17884 1.70659e-20)
(1.14614 1.15666 0)
(1.07602 1.11851 -9.40003e-21)
(1.00046 1.07707 9.91615e-21)
(0.916464 1.03212 -2.79017e-21)
(0.823481 0.980785 6.91237e-21)
(0.71997 0.919071 1.19041e-19)
(0.620369 0.850216 1.32602e-19)
(0.539265 0.775919 9.88463e-20)
(0.461951 0.668029 1.13741e-19)
(0.353804 0.488699 -1.23116e-19)
(0.225647 0.27977 -1.25644e-19)
(0.0999327 0.152112 0)
(0.0362403 0.902771 0)
(0.0826528 2.59008 3.10525e-20)
(0.085762 3.21612 0)
(0.0875289 3.39074 8.08275e-20)
(0.235827 0.227278 0)
(1.01194 0.992144 0)
(1.17454 1.17012 0)
(1.18339 1.203 5.15637e-21)
(1.13402 1.18062 1.71648e-20)
(1.064 1.14247 -9.49759e-21)
(0.988838 1.10115 5.88198e-21)
(0.904101 1.0565 -2.6906e-21)
(0.809851 1.00587 5.68549e-20)
(0.703669 0.945451 -1.65423e-21)
(0.599154 0.878281 2.63171e-19)
(0.50978 0.80465 -1.15082e-20)
(0.418838 0.688405 1.39102e-20)
(0.300925 0.482488 1.79611e-20)
(0.16756 0.297563 -6.9173e-22)
(0.0839424 1.02431 3.49915e-22)
(0.118281 2.77259 -1.66637e-19)
(0.122803 3.30232 -6.2689e-20)
(0.114454 3.42328 3.2979e-20)
(0.104896 3.44282 -3.72319e-20)
(0.159099 0.172935 1.75803e-20)
(1.00088 1.01678 0)
(1.16329 1.19264 -4.24227e-20)
(1.17166 1.22588 -4.65479e-20)
(1.1224 1.20342 4.01885e-20)
(1.05284 1.16555 1.09609e-20)
(0.977454 1.12417 -5.38804e-21)
(0.892165 1.08007 2.79723e-20)
(0.796733 1.03049 -4.64637e-20)
(0.688054 0.971933 0)
(0.578606 0.907177 1.30104e-19)
(0.480578 0.835509 -8.1323e-20)
(0.376154 0.718044 0)
(0.239791 0.478265 1.7549e-20)
(0.12094 0.728836 4.13756e-20)
(0.132877 2.58062 -4.65383e-20)
(0.179578 3.32752 5.27052e-20)
(0.163446 3.43205 2.82798e-20)
(0.136222 3.45091 3.19994e-20)
(0.117702 3.45975 5.07936e-20)
(0.270337 0.264784 -3.39499e-20)
(0.982926 1.0266 0)
(1.14462 1.21841 4.57076e-20)
(1.15658 1.25705 5.11009e-20)
(1.10453 1.23706 -4.48812e-20)
(1.03437 1.19954 -1.58507e-20)
(0.957778 1.15971 1.30393e-21)
(0.871848 1.11688 2.24395e-21)
(0.774806 1.06952 4.3624e-20)
(0.662787 1.0151 1.0294e-19)
(0.546745 0.956568 7.27814e-21)
(0.435254 0.88705 7.27985e-20)
(0.295224 0.745534 1.32811e-20)
(0.199166 0.887954 -1.69497e-20)
(0.205369 2.46137 -3.78781e-20)
(0.256472 3.33025 3.70285e-20)
(0.239336 3.45564 -4.04547e-20)
(0.205671 3.4748 -2.32279e-20)
(0.172717 3.49951 -2.07793e-20)
(0.127953 3.49501 -3.02035e-21)
(0.260432 0.263616 0)
(0.979792 1.04936 1.3211e-20)
(1.13561 1.242 -9.38794e-21)
(1.14522 1.28068 -6.06227e-21)
(1.09313 1.26041 -3.08739e-20)
(1.02294 1.22307 1.63514e-20)
(0.945991 1.18344 7.776e-22)
(0.859735 1.14146 1.95537e-21)
(0.761914 1.09562 -4.50909e-20)
(0.648102 1.04419 -2.70271e-21)
(0.528231 0.990578 -2.35577e-19)
(0.409203 0.92325 1.04662e-20)
(0.274833 0.819067 -1.25947e-20)
(0.23494 1.53424 -1.55838e-20)
(0.298717 3.14435 3.66646e-21)
(0.31085 3.45664 1.63791e-22)
(0.269904 3.50366 5.94418e-20)
(0.236416 3.52778 2.98436e-20)
(0.190972 3.54814 -9.15376e-21)
(0.141389 3.5452 -1.47812e-20)
(0.246435 0.261587 3.37392e-20)
(0.975729 1.07464 8.94791e-20)
(1.12623 1.26768 -2.67695e-20)
(1.13348 1.30593 -2.27941e-20)
(1.08125 1.28523 0)
(1.01113 1.24792 2.9106e-20)
(0.934101 1.20856 4.2024e-21)
(0.847777 1.16739 1.64148e-21)
(0.749496 1.1232 -5.08895e-21)
(0.63445 1.07509 -9.23924e-20)
(0.511735 1.02705 -1.08471e-19)
(0.386183 0.960806 -8.54558e-20)
(0.277122 0.968925 -9.4769e-20)
(0.301491 2.31966 9.78019e-20)
(0.380254 3.38474 8.20355e-20)
(0.350752 3.51194 0)
(0.303332 3.54972 0)
(0.266953 3.58385 -7.19884e-21)
(0.223757 3.62887 0)
(0.154473 3.61438 -1.069e-20)
(0.236604 0.263467 -5.02331e-20)
(0.969741 1.10077 -7.56766e-20)
(1.11547 1.2946 0)
(1.12048 1.33201 1.2315e-21)
(1.06813 1.31071 -3.31687e-20)
(0.99823 1.27335 4.69578e-20)
(0.921451 1.23431 4.48381e-21)
(0.835289 1.19388 6.00914e-22)
(0.736813 1.15132 -3.06186e-20)
(0.62099 1.1066 4.50407e-21)
(0.496432 1.06424 0)
(0.365375 1.0021 0)
(0.299248 1.26953 -8.58167e-20)
(0.381998 2.97819 3.48585e-20)
(0.445621 3.48234 4.39837e-20)