/*--------------------------------*- C++ -*----------------------------------*\
  =========                 |
  \\      /  F ield         | OpenFOAM: The Open Source CFD Toolbox
   \\    /   O peration     | Website:  https://openfoam.org
    \\  /    A nd           | Version:  6
     \\/     M anipulation  |
\*---------------------------------------------------------------------------*/
FoamFile
{
    version     2.0;
    format      ascii;
    class       volVectorField;
    location    "5";
    object      U;
}
// * * * * * * * * * * * * * * * * * * * * * * * * * * * * * * * * * * * * * //

dimensions      [0 1 -1 0 0 0 0];

internalField   nonuniform List<vector> 
8800
(
(0.987716 -0.0763698 0)
(1.00156 -0.0548057 0)
(0.998902 -0.0284288 0)
(0.998881 -0.0150576 0)
(1.00016 -0.00852763 0)
(1.00068 -0.00521624 0)
(1.00054 -0.00330251 0)
(1.00032 -0.00188691 0)
(1.00023 -0.000878603 0)
(1.00005 -8.86608e-05 0)
(1.00018 0.000549638 0)
(1.00026 0.00143704 0)
(1.00042 0.00261578 0)
(1.00066 0.00431308 0)
(1.00053 0.00666002 0)
(0.999577 0.0112791 0)
(0.998805 0.0207487 0)
(0.998145 0.0381221 0)
(1.00758 0.0725364 0)
(0.771546 0.036684 0)
(0.364869 -0.014758 0)
(1.04449 -0.0752442 0)
(1.08541 -0.0676883 0)
(1.04248 -0.0498409 0)
(1.01925 -0.0351683 0)
(1.00798 -0.0231272 0)
(1.00237 -0.0145176 0)
(1.0002 -0.00879088 0)
(0.99975 -0.00498503 0)
(1.00024 -0.00202221 0)
(1.00057 0.000867073 0)
(0.999787 0.00375143 0)
(0.999721 0.00692104 0)
(1.00096 0.0116088 0)
(1.00463 0.018641 0)
(1.01258 0.0288418 0)
(1.0289 0.0426554 0)
(1.06174 0.0577252 0)
(1.09309 0.0741504 0)
(0.83851 0.0552001 0)
(0.234441 -0.0013273 0)
(1.07743 -0.0363355 0)
(1.09934 -0.0376696 0)
(1.06562 -0.0339497 0)
(1.04111 -0.0290763 0)
(1.02363 -0.0229388 0)
(1.01324 -0.0167317 0)
(1.00804 -0.0109891 0)
(1.00546 -0.00578562 0)
(1.00434 -0.000910811 0)
(1.00472 0.00384129 0)
(1.00641 0.00871325 0)
(1.01004 0.0140727 0)
(1.01739 0.0199822 0)
(1.03148 0.0263035 0)
(1.0521 0.0318026 0)
(1.08139 0.036066 0)
(1.10614 0.0383105 0)
(0.95617 0.030983 0)
(0.234247 0.00133479 0)
(0.21177 0.000402884 0)
(1.0351 -0.0152554 0)
(1.08903 -0.0234787 0)
(1.0646 -0.0260414 0)
(1.04405 -0.0253094 0)
(1.03035 -0.0226279 0)
(1.02142 -0.0185341 0)
(1.01544 -0.0132069 0)
(1.01176 -0.00733621 0)
(1.01001 -0.00101302 0)
(1.01054 0.00537105 0)
(1.01316 0.0113772 0)
(1.01784 0.0168896 0)
(1.02517 0.0215859 0)
(1.03594 0.024654 0)
(1.05302 0.026243 0)
(1.07768 0.0256056 0)
(1.08564 0.0204322 0)
(0.886898 0.00897514 0)
(0.211441 -0.000393302 0)
(0.212024 0.000120676 0)
(1.00196 -0.00491391 0)
(1.06739 -0.01359 0)
(1.05749 -0.019753 0)
(1.04399 -0.0223252 0)
(1.03286 -0.0213033 0)
(1.02447 -0.0179885 0)
(1.01853 -0.0132173 0)
(1.01462 -0.00745716 0)
(1.01273 -0.000807239 0)
(1.01323 0.00594661 0)
(1.016 0.0119615 0)
(1.02079 0.0170133 0)
(1.02778 0.0208847 0)
(1.0375 0.0230042 0)
(1.04995 0.0220827 0)
(1.06355 0.0175445 0)
(1.05642 0.00957413 0)
(0.857654 0.00151949 0)
(0.211512 -0.000109513 0)
(0.211487 -7.52372e-06 0)
(0.984724 -0.00254599 0)
(1.05071 -0.00745362 0)
(1.04907 -0.0119799 0)
(1.04299 -0.0146316 0)
(1.03676 -0.0151707 0)
(1.031 -0.0137685 0)
(1.02607 -0.0107213 0)
(1.02241 -0.00621534 0)
(1.02051 -0.00041117 0)
(1.02092 0.00569034 0)
(1.02344 0.0106439 0)
(1.02756 0.0141429 0)
(1.03284 0.01606 0)
(1.03879 0.0162153 0)
(1.045 0.0143132 0)
(1.05023 0.0104209 0)
(1.03691 0.00521527 0)
(0.845947 0.00103981 0)
(0.21077 2.18891e-05 0)
(0.211262 1.65222e-05 0)
(0.976378 -0.000949696 0)
(1.04059 -0.00325997 0)
(1.0417 -0.00583992 0)
(1.03887 -0.00789556 0)
(1.0353 -0.00894756 0)
(1.03142 -0.0087007 0)
(1.0277 -0.00701619 0)
(1.02466 -0.00393654 0)
(1.02288 0.000306073 0)
(1.02313 0.00466466 0)
(1.02517 0.00807749 0)
(1.02828 0.0101095 0)
(1.03191 0.0106735 0)
(1.03555 0.00986452 0)
(1.03873 0.00791545 0)
(1.04067 0.00522844 0)
(1.02606 0.00238146 0)
(0.840257 0.000433493 0)
(0.21029 5.03137e-07 0)
(0.21121 7.79539e-06 0)
(0.972871 -0.000455348 0)
(1.03598 -0.00151145 0)
(1.03804 -0.00277461 0)
(1.03678 -0.00390302 0)
(1.03493 -0.0046202 0)
(1.03263 -0.00465739 0)
(1.03014 -0.0037799 0)
(1.02786 -0.0018842 0)
(1.02637 0.00093923 0)
(1.02636 0.00386019 0)
(1.02768 0.00591 0)
(1.02965 0.00683977 0)
(1.03176 0.00676254 0)
(1.03365 0.00589626 0)
(1.03509 0.00452239 0)
(1.03566 0.00292718 0)
(1.02085 0.00139456 0)
(0.837382 0.000338713 0)
(0.209923 1.36904e-05 0)
(0.211252 1.18924e-05 0)
(0.971261 -0.000134565 0)
(1.03377 -0.00059483 0)
(1.0361 -0.00117195 0)
(1.03543 -0.00171412 0)
(1.03435 -0.00207679 0)
(1.03289 -0.00207752 0)
(1.03116 -0.00152634 0)
(1.02944 -0.000301438 0)
(1.02813 0.00155895 0)
(1.02787 0.00344844 0)
(1.02857 0.00460874 0)
(1.02969 0.00492801 0)
(1.03086 0.00459776 0)
(1.03185 0.00383287 0)
(1.03255 0.00285406 0)
(1.03262 0.00183587 0)
(1.01784 0.000910165 0)
(0.835509 0.000250393 0)
(0.209577 1.37856e-05 0)
(0.211422 1.6825e-05 0)
(0.970704 6.38205e-05 0)
(1.03288 -7.25672e-05 0)
(1.03532 -0.000265975 0)
(1.03491 -0.000433126 0)
(1.03422 -0.000499784 0)
(1.03323 -0.000361545 0)
(1.03197 0.000102342 0)
(1.0306 0.000977088 0)
(1.0294 0.00222587 0)
(1.02887 0.00338897 0)
(1.02904 0.00395673 0)
(1.02952 0.00394093 0)
(1.03006 0.00351087 0)
(1.03051 0.00284209 0)
(1.03082 0.00209137 0)
(1.03066 0.00136072 0)
(1.01589 0.000713074 0)
(0.834143 0.000226526 0)
(0.209252 1.7261e-05 0)
(0.211693 2.18788e-05 0)
(0.970782 0.000198315 0)
(1.03274 0.000266783 0)
(1.03522 0.000328742 0)
(1.03493 0.000425673 0)
(1.03441 0.00059674 0)
(1.03365 0.000896875 0)
(1.03263 0.00138832 0)
(1.03143 0.00210499 0)
(1.03021 0.00298276 0)
(1.0294 0.00367076 0)
(1.02908 0.00391079 0)
(1.02912 0.00361602 0)
(1.02924 0.00309024 0)
(1.02936 0.00245231 0)
(1.02945 0.00179825 0)
(1.02916 0.00118926 0)
(1.01439 0.00065596 0)
(0.832954 0.000232966 0)
(0.208897 2.13225e-05 0)
(0.212064 2.7947e-05 0)
(0.971317 0.000340791 0)
(1.03313 0.00056781 0)
(1.03561 0.00081415 0)
(1.03536 0.00111457 0)
(1.03491 0.00148805 0)
(1.03423 0.00195715 0)
(1.03329 0.00253861 0)
(1.03209 0.00321603 0)
(1.03074 0.00388534 0)
(1.02961 0.00424656 0)
(1.02893 0.00411881 0)
(1.02854 0.00371632 0)
(1.02836 0.00310341 0)
(1.02826 0.00243309 0)
(1.0282 0.00178477 0)
(1.02783 0.00119818 0)
(1.01304 0.000687382 0)
(0.831763 0.000263307 0)
(0.208482 2.67415e-05 0)
(0.212564 3.59895e-05 0)
(0.972272 0.000480387 0)
(1.03395 0.000852983 0)
(1.03641 0.00127 0)
(1.03616 0.00176 0)
(1.03571 0.00233202 0)
(1.03501 0.00298655 0)
(1.03402 0.00370588 0)
(1.03271 0.00442759 0)
(1.0311 0.00500125 0)
(1.02959 0.0051486 0)
(1.02852 0.00481433 0)
(1.02781 0.00419422 0)
(1.02736 0.00344633 0)
(1.02709 0.00268329 0)
(1.02691 0.00197027 0)
(1.02647 0.00133655 0)
(1.01164 0.00078628 0)
(0.830439 0.000314667 0)
(0.207977 3.36635e-05 0)
(0.213214 4.61939e-05 0)
(0.973648 0.000640483 0)
(1.03518 0.00116628 0)
(1.03762 0.00176047 0)
(1.03733 0.00245089 0)
(1.03682 0.00323916 0)
(1.03603 0.00410963 0)
(1.0349 0.00501476 0)
(1.03334 0.0058476 0)
(1.03137 0.00640309 0)
(1.0294 0.00639329 0)
(1.0279 0.0058501 0)
(1.02686 0.0050133 0)
(1.02617 0.00408004 0)
(1.02573 0.00316387 0)
(1.02544 0.00232456 0)
(1.02494 0.00158618 0)
(1.01005 0.000946168 0)
(0.828872 0.000387461 0)
(0.20735 4.25299e-05 0)
(0.214055 5.95158e-05 0)
(0.975499 0.000837884 0)
(1.03688 0.00154063 0)
(1.03927 0.00233748 0)
(1.03892 0.0032588 0)
(1.0383 0.00430118 0)
(1.03735 0.00543357 0)
(1.03597 0.00657979 0)
(1.03406 0.00758507 0)
(1.03159 0.00817919 0)
(1.02905 0.00803809 0)
(1.02706 0.00726472 0)
(1.02565 0.00617554 0)
(1.0247 0.00500094 0)
(1.02408 0.00386964 0)
(1.02369 0.00284387 0)
(1.02312 0.00194629 0)
(1.00815 0.001169 0)
(0.826951 0.000484025 0)
(0.206565 5.37142e-05 0)
(0.215142 7.69238e-05 0)
(0.97793 0.00108771 0)
(1.03913 0.0020068 0)
(1.04144 0.00305013 0)
(1.041 0.00425307 0)
(1.04022 0.00560723 0)
(1.03904 0.00706579 0)
(1.03731 0.00852031 0)
(1.0349 0.00976127 0)
(1.03178 0.0104386 0)
(1.02853 0.0101693 0)
(1.02595 0.00912803 0)
(1.02411 0.00772466 0)
(1.02286 0.00623824 0)
(1.02204 0.0048206 0)
(1.02153 0.00354253 0)
(1.02087 0.00242762 0)
(1.00581 0.00146264 0)
(0.824556 0.000608335 0)
(0.205576 6.77288e-05 0)
(0.216551 9.98943e-05 0)
(0.981087 0.0014097 0)
(1.04206 0.00260177 0)
(1.04427 0.00395505 0)
(1.04369 0.00551174 0)
(1.04271 0.00725806 0)
(1.0412 0.00912784 0)
(1.039 0.0109741 0)
(1.03594 0.0125206 0)
(1.03195 0.013318 0)
(1.02781 0.0129036 0)
(1.0245 0.0115333 0)
(1.02214 0.0097326 0)
(1.02053 0.00784612 0)
(1.01948 0.0060576 0)
(1.01882 0.00445035 0)
(1.01807 0.00305082 0)
(1.00289 0.00184015 0)
(0.821546 0.000766454 0)
(0.204331 8.53053e-05 0)
(0.218382 0.000130454 0)
(0.985176 0.00183004 0)
(1.04584 0.00337279 0)
(1.04793 0.00512347 0)
(1.04717 0.00713192 0)
(1.0459 0.00937747 0)
(1.04396 0.0117689 0)
(1.04112 0.0141102 0)
(1.03721 0.016041 0)
(1.03212 0.0169887 0)
(1.02685 0.0163909 0)
(1.02264 0.0146039 0)
(1.01964 0.0122983 0)
(1.01759 0.00990176 0)
(1.01625 0.00763907 0)
(1.01541 0.00561023 0)
(1.01455 0.00384568 0)
(0.999206 0.00231956 0)
(0.817753 0.000965617 0)
(0.202764 0.000107208 0)
(0.220777 0.000171703 0)
(0.990472 0.00238579 0)
(1.05074 0.00438497 0)
(1.05266 0.00665141 0)
(1.05165 0.00924277 0)
(1.04999 0.012128 0)
(1.04746 0.0151823 0)
(1.0438 0.0181444 0)
(1.03876 0.0205473 0)
(1.03227 0.0216657 0)
(1.02557 0.0208199 0)
(1.02024 0.0184978 0)
(1.01645 0.0155505 0)
(1.01386 0.0125074 0)
(1.01217 0.00964346 0)
(1.0111 0.00707969 0)
(1.01011 0.00485154 0)
(0.994561 0.00292493 0)
(0.812969 0.00121598 0)
(0.200795 0.000134487 0)
(0.223933 0.000228353 0)
(0.997345 0.00313155 0)
(1.05707 0.00573419 0)
(1.05876 0.00867789 0)
(1.05741 0.0120255 0)
(1.05522 0.0157328 0)
(1.0519 0.0196273 0)
(1.04714 0.0233603 0)
(1.04065 0.0263272 0)
(1.03236 0.0276178 0)
(1.02388 0.0264244 0)
(1.01716 0.023412 0)
(1.01239 0.0196518 0)
(1.00914 0.0157937 0)
(1.00701 0.0121727 0)
(1.00567 0.00893462 0)
(1.0045 0.00612096 0)
(0.988696 0.00368725 0)
(0.806936 0.00152958 0)
(0.198324 0.000168441 0)
(0.228146 0.000308706 0)
(1.00629 0.00415705 0)
(1.06527 0.00757617 0)
(1.06663 0.0114146 0)
(1.06481 0.0157436 0)
(1.06187 0.0205056 0)
(1.05748 0.0254598 0)
(1.05124 0.0301335 0)
(1.04287 0.0337472 0)
(1.03231 0.0351746 0)
(1.02162 0.0334863 0)
(1.01321 0.0295851 0)
(1.00724 0.0248036 0)
(1.00316 0.0199277 0)
(1.00049 0.015361 0)
(0.998808 0.0112789 0)
(0.997425 0.00772868 0)
(0.981298 0.00465225 0)
(0.799331 0.00192505 0)
(0.195225 0.000211153 0)
(0.233884 0.000430242 0)
(1.01798 0.00563832 0)
(1.0759 0.0101892 0)
(1.07681 0.015193 0)
(1.07429 0.020779 0)
(1.07029 0.0268903 0)
(1.06439 0.0331693 0)
(1.05617 0.0389601 0)
(1.04535 0.0432656 0)
(1.03196 0.0447286 0)
(1.01859 0.0423341 0)
(1.00814 0.0373009 0)
(1.0007 0.0312551 0)
(0.995609 0.0251256 0)
(0.99226 0.0193924 0)
(0.990158 0.0142653 0)
(0.988512 0.0097939 0)
(0.971976 0.00589699 0)
(0.789733 0.00243402 0)
(0.191331 0.00026665 0)
(0.241964 0.000630335 0)
(1.03349 0.00794337 0)
(1.08994 0.014027 0)
(1.09018 0.0204712 0)
(1.08655 0.0276543 0)
(1.0809 0.0355077 0)
(1.07282 0.0434249 0)
(1.0619 0.0504792 0)
(1.04793 0.0554325 0)
(1.03107 0.0567238 0)
(1.01452 0.0533328 0)
(1.00164 0.0468856 0)
(0.992456 0.0393143 0)
(0.986114 0.0316772 0)
(0.981908 0.0245357 0)
(0.979262 0.0181401 0)
(0.977286 0.0125372 0)
(0.960226 0.00758919 0)
(0.777558 0.00313398 0)
(0.186394 0.000344871 0)
(0.253837 0.000980934 0)
(1.05463 0.0117459 0)
(1.1092 0.0196935 0)
(1.10821 0.0278803 0)
(1.10261 0.0372194 0)
(1.09434 0.0473617 0)
(1.08306 0.0572091 0)
(1.06845 0.0655301 0)
(1.05045 0.0708978 0)
(1.02941 0.0716427 0)
(1.00917 0.0668749 0)
(0.993499 0.0587127 0)
(0.982232 0.0493703 0)
(0.974326 0.0399893 0)
(0.968978 0.0312055 0)
(0.96555 0.0233178 0)
(0.963081 0.0163774 0)
(0.945341 0.0101057 0)
(0.762008 0.00422548 0)
(0.180035 0.000468956 0)
(0.271997 0.00166821 0)
(1.08452 0.0183818 0)
(1.13617 0.0284733 0)
(1.13262 0.0392105 0)
(1.1236 0.0516263 0)
(1.11128 0.0644714 0)
(1.09541 0.0761289 0)
(1.07588 0.0852621 0)
(1.05288 0.0904291 0)
(1.02694 0.0899851 0)
(1.00251 0.0833501 0)
(0.983667 0.0731821 0)
(0.96995 0.0618896 0)
(0.960067 0.0506118 0)
(0.953111 0.040014 0)
(0.948396 0.0304372 0)
(0.944972 0.0219585 0)
(0.926345 0.0140599 0)
(0.74221 0.00604441 0)
(0.171784 0.000679494 0)
(0.299719 0.00337637 0)
(1.12759 0.0317435 0)
(1.17283 0.0446114 0)
(1.16415 0.0592073 0)
(1.14959 0.0749007 0)
(1.1313 0.0897441 0)
(1.10923 0.102096 0)
(1.0836 0.110828 0)
(1.0548 0.114654 0)
(1.02342 0.112083 0)
(0.994468 0.102972 0)
(0.97217 0.0905245 0)
(0.955658 0.0772085 0)
(0.943363 0.0640521 0)
(0.934212 0.0516416 0)
(0.927466 0.0403254 0)
(0.922174 0.0300858 0)
(0.902389 0.0203712 0)
(0.717098 0.00869886 0)
(0.161784 0.00100726 0)
(0.34119 0.0120285 1.01345e-21)
(1.18416 0.0599445 1.18579e-21)
(1.21794 0.0771088 -5.36403e-22)
(1.20022 0.0942059 0)
(1.17734 0.110837 -2.23842e-35)
(1.15117 0.125269 3.46321e-22)
(1.12185 0.136404 -7.39946e-22)
(1.08954 0.143269 0)
(1.05457 0.144683 1.78039e-35)
(1.01745 0.139278 -1.15872e-21)
(0.983609 0.127403 0)
(0.957414 0.112715 -1.48719e-21)
(0.937557 0.097621 -4.46157e-21)
(0.92217 0.0829974 -2.13501e-21)
(0.90996 0.0693468 -6.57816e-22)
(0.900084 0.0570932 -3.96114e-22)
(0.891476 0.0461541 0)
(0.869296 0.0361287 2.85937e-22)
(0.6834 0.0216289 3.41483e-22)
(0.151508 0.00521006 6.1893e-21)
(0.359583 0.0321598 -1.44826e-21)
(1.23266 0.108914 1.0203e-22)
(1.25898 0.129098 6.03027e-23)
(1.23276 0.1436 0)
(1.20165 0.158129 -8.73812e-22)
(1.16791 0.170383 -1.14756e-21)
(1.13152 0.179277 -6.8435e-22)
(1.09259 0.183717 -2.82055e-21)
(1.05133 0.18263 0)
(1.00803 0.174671 4.88301e-21)
(0.968454 0.160696 5.05659e-21)
(0.937292 0.144724 1.55054e-21)
(0.913 0.129037 5.88224e-21)
(0.8934 0.11432 8.50209e-21)
(0.877113 0.101016 0)
(0.863117 0.0895077 1.245e-20)
(0.850278 0.0802659 1.823e-20)
(0.824504 0.0719398 2.05025e-20)
(0.654419 0.0524858 -2.39882e-20)
(0.149991 0.0137396 -4.39516e-22)
(0.346342 0.0529227 0)
(1.26417 0.174693 -6.20952e-22)
(1.28999 0.193822 0)
(1.25763 0.203855 -1.61411e-23)
(1.22013 0.213816 0)
(1.18006 0.221821 -1.80097e-21)
(1.13756 0.226857 1.29525e-21)
(1.09275 0.227828 -5.24783e-21)
(1.04583 0.223524 -2.74655e-22)
(0.99699 0.212646 2.44002e-21)
(0.952524 0.196534 1.12911e-20)
(0.917472 0.179488 -2.71785e-23)
(0.889987 0.163688 -4.31497e-21)
(0.867704 0.149682 -8.10915e-21)
(0.849182 0.137718 9.79334e-21)
(0.833447 0.127956 -1.75131e-20)
(0.819533 0.120477 -2.37822e-21)
(0.795849 0.113594 0)
(0.640097 0.0896069 1.40601e-22)
(0.153266 0.0228301 0)
(0.332544 0.0702665 -2.09603e-20)
(1.27889 0.244147 7.72516e-21)
(1.30744 0.262858 3.27031e-21)
(1.27164 0.268519 -2.4499e-22)
(1.23032 0.273332 2.36945e-22)
(1.18604 0.276612 3.59487e-21)
(1.13913 0.277213 2.58659e-21)
(1.08985 0.274072 0)
(1.03847 0.265992 -1.11662e-20)
(0.985249 0.251834 0)
(0.937004 0.233414 -5.76929e-21)
(0.899121 0.215263 -7.58032e-21)
(0.869649 0.199275 -4.70155e-21)
(0.846081 0.185617 -5.90882e-21)
(0.826859 0.174259 0)
(0.810923 0.165228 0)
(0.797142 0.158483 -1.56077e-20)
(0.774317 0.151717 3.11814e-21)
(0.626622 0.121178 -1.85908e-21)
(0.152208 0.0308307 -2.19332e-21)
(0.322836 0.086002 1.63205e-20)
(1.2823 0.312824 0)
(1.31414 0.331747 -9.83238e-21)
(1.27685 0.333128 -1.41016e-21)
(1.23331 0.33344 1.77999e-22)
(1.18638 0.332146 0)
(1.13635 0.328327 2.13879e-21)
(1.08362 0.320932 5.50488e-21)
(1.0287 0.308914 5.42109e-21)
(0.971994 0.291239 1.14708e-20)
(0.920892 0.270269 0)
(0.881096 0.250736 -1.61607e-20)
(0.850447 0.234148 -1.00159e-20)
(0.826225 0.22034 -5.95592e-21)
(0.806731 0.209092 3.81471e-20)
(0.790778 0.200155 4.63154e-21)
(0.77722 0.193478 2.2211e-20)
(0.755206 0.186297 -1.07707e-19)
(0.613211 0.149997 6.48405e-20)
(0.15065 0.038188 -7.93087e-20)
(0.316313 0.100627 1.77004e-20)
(1.27964 0.377636 -2.90815e-21)
(1.31342 0.39803 1.87274e-21)
(1.27542 0.395906 4.13444e-21)
(1.23054 0.392214 1.3966e-21)
(1.18178 0.386802 3.17614e-22)
(1.12954 0.37884 -2.39541e-21)
(1.07432 0.367312 5.40329e-21)
(1.01678 0.351318 -1.16048e-20)
(0.957512 0.330004 0)
(0.904387 0.306294 -7.1269e-21)
(0.863325 0.285124 -2.30308e-22)
(0.831973 0.26759 -1.09584e-20)
(0.807454 0.253283 0)
(0.787931 0.241725 -8.20791e-21)
(0.772125 0.232577 -1.97852e-20)
(0.758812 0.22562 5.44743e-20)
(0.737418 0.217876 -5.4689e-20)
(0.60039 0.176132 7.85671e-20)
(0.148699 0.0449434 -8.29118e-20)
(0.311527 0.114523 -1.72171e-22)
(1.27347 0.438453 3.65805e-21)
(1.3078 0.460683 9.57323e-21)
(1.26938 0.455845 -2.86605e-21)
(1.22369 0.44881 8.36491e-22)
(1.17366 0.439779 0)
(1.11978 0.427965 -1.59616e-21)
(1.06266 0.412529 -5.46928e-21)
(1.0031 0.3926 -5.79898e-21)
(0.941951 0.367572 0)
(0.887434 0.34099 -6.97464e-21)
(0.845562 0.317966 -9.13956e-21)
(0.813847 0.299264 1.17558e-20)
(0.789237 0.284196 -7.41923e-21)
(0.769812 0.272082 -3.53747e-20)
(0.754229 0.262474 2.16094e-20)
(0.741209 0.25509 6.78391e-21)
(0.720411 0.24664 0)
(0.5878 0.19995 -7.51451e-20)
(0.146548 0.0511536 -2.78688e-21)
(0.307639 0.12778 2.92469e-21)
(1.26521 0.49571 -4.22766e-21)
(1.29898 0.519647 -5.10569e-21)
(1.2601 0.512545 -7.75691e-21)
(1.21373 0.50272 5.07141e-21)
(1.16274 0.490541 1.19546e-22)
(1.10758 0.475269 3.63253e-21)
(1.04898 0.456129 -8.65349e-21)
(0.987901 0.432332 3.99628e-21)
(0.925425 0.40355 -2.69449e-20)
(0.870036 0.374028 -8.09158e-21)
(0.827725 0.349036 0)
(0.795866 0.329027 1.25993e-20)
(0.7713 0.312988 1.53427e-20)
(0.752055 0.300145 1.88002e-20)
(0.736741 0.289969 -2.32438e-20)
(0.72404 0.282036 -6.97925e-21)
(0.703856 0.2727 8.38252e-21)
(0.575388 0.221588 0)
(0.1443 0.0568654 -6.04401e-21)
(0.304425 0.140446 -3.38511e-20)
(1.25572 0.549697 1.98336e-20)
(1.28805 0.575156 5.29644e-21)
(1.24867 0.566144 -5.99886e-21)
(1.20166 0.553906 3.46541e-21)
(1.14979 0.538954 -5.87095e-22)
(1.09353 0.520544 -4.31077e-21)
(1.0337 0.497871 -3.17387e-21)
(0.971448 0.470285 -9.96991e-21)
(0.908101 0.437726 -5.62668e-23)
(0.852293 0.40523 -2.39945e-20)
(0.809844 0.378273 2.19632e-20)
(0.777953 0.356878 -1.37363e-20)
(0.753496 0.339767 1.69307e-20)
(0.734459 0.326079 0)
(0.719414 0.31517 -1.24372e-20)
(0.707057 0.306594 -3.23637e-22)
(0.687536 0.296344 -3.60482e-20)
(0.563132 0.241342 -5.41418e-21)
(0.14189 0.0620765 0)
(0.301888 0.152649 0)
(1.24534 0.60076 2.04335e-20)
(1.27571 0.627505 1.28272e-20)
(1.23579 0.616832 6.87e-21)
(1.18815 0.602493 2.55552e-21)
(1.13541 0.585049 0)
(1.07809 0.563718 -1.19187e-21)
(1.01712 0.537674 -1.54296e-22)
(0.953946 0.506322 2.0979e-20)
(0.890128 0.469918 -3.43215e-21)
(0.83435 0.434468 -1.71944e-20)
(0.791978 0.405637 1.09965e-20)
(0.760128 0.382885 -3.11745e-22)
(0.735769 0.364647 1.76247e-20)
(0.716891 0.35 1.14709e-20)
(0.702124 0.338245 -2.69298e-20)
(0.690116 0.328947 3.25842e-20)
(0.67127 0.317729 9.78616e-21)
(0.550891 0.259193 4.11179e-20)
(0.139211 0.0667361 -1.1141e-19)
(0.300012 0.164627 -8.51928e-21)
(1.23457 0.649192 1.19705e-20)
(1.26253 0.676915 -8.4429e-21)
(1.22197 0.664826 -8.04725e-21)
(1.17368 0.648669 0)
(1.12005 0.628947 1.31004e-21)
(1.06163 0.604865 5.16572e-21)
(0.999534 0.575538 6.5497e-21)
(0.935554 0.540394 0)
(0.871613 0.500031 -4.8998e-20)
(0.81633 0.461682 4.48274e-20)
(0.774338 0.431158 0)
(0.742499 0.40724 1.56852e-20)
(0.718075 0.387865 -3.54984e-22)
(0.699269 0.372139 -3.58916e-20)
(0.684704 0.359397 1.41685e-20)
(0.67303 0.349232 0)
(0.654891 0.337004 5.27255e-20)
(0.538536 0.275342 0)
(0.136234 0.0708613 -5.28073e-20)
(0.298752 0.176358 9.30695e-21)
(1.22373 0.695183 1.38511e-20)
(1.24896 0.723656 -8.56133e-21)
(1.20764 0.710311 0)
(1.15857 0.69258 3.92466e-21)
(1.10397 0.670841 0)
(1.04445 0.64414 -4.0552e-21)
(0.981168 0.611513 -2.52458e-21)
(0.916381 0.57247 3.33561e-21)
(0.852641 0.527972 -2.37663e-20)
(0.79845 0.486756 4.38441e-21)
(0.757118 0.454968 0)
(0.725207 0.430165 -3.25508e-20)
(0.700439 0.409733 4.0367e-22)
(0.681457 0.392767 0)
(0.666947 0.378862 5.81926e-22)
(0.655563 0.367603 4.7447e-20)
(0.638176 0.354254 -4.62255e-20)
(0.525897 0.289743 1.38089e-20)
(0.132757 0.0743124 0)
(0.297836 0.187778 0)
(1.21298 0.738978 1.53096e-20)
(1.23533 0.767978 1.02195e-20)
(1.19315 0.753562 -4.57041e-22)
(1.14317 0.734389 3.05006e-21)
(1.08747 0.710799 1.89916e-21)
(1.02672 0.681666 1.97712e-21)
(0.962198 0.645768 -3.40566e-21)
(0.896574 0.602615 1.51358e-20)
(0.833257 0.553646 -3.56122e-20)
(0.780832 0.509609 3.72949e-22)
(0.740649 0.477062 -1.3056e-20)
(0.708513 0.451916 5.23437e-20)
(0.682943 0.430639 -5.31928e-22)
(0.663331 0.412363 -2.79354e-20)
(0.648535 0.396932 -5.16204e-20)
(0.637345 0.384285 0)
(0.620739 0.369601 0)
(0.512655 0.302471 1.54124e-20)
(0.12853 0.0769406 -9.05131e-21)
(0.297657 0.199231 1.13219e-20)
(1.20232 0.780676 -3.23726e-20)
(1.2218 0.810058 -1.05223e-20)
(1.17874 0.794695 0)
(1.12777 0.774306 -1.10496e-22)
(1.0708 0.748997 3.22731e-21)
(1.00861 0.717528 3.78983e-21)
(0.942687 0.678465 1.235e-20)
(0.876176 0.630946 1.88639e-20)
(0.813482 0.576999 -2.72821e-20)
(0.763684 0.530017 -3.3229e-20)
(0.725379 0.497467 3.36357e-20)
(0.692849 0.472891 0)
(0.66569 0.451116 -1.23058e-20)
(0.644615 0.431398 -3.07875e-20)
(0.629052 0.414166 -3.75541e-20)
(0.617824 0.39966 -4.61765e-20)
(0.602013 0.383139 1.39961e-20)
(0.498175 0.313335 -8.26964e-21)
(0.123137 0.0784016 1.64608e-22)
(0.297762 0.210489 0)
(1.19203 0.820497 0)
(1.20859 0.850058 1.5389e-22)
(1.16456 0.8339 0)
(1.11252 0.812439 -1.06791e-20)
(1.05417 0.785623 -3.28846e-21)
(0.990343 0.751949 0)
(0.922741 0.709677 1.30416e-21)
(0.855176 0.657665 3.02255e-20)
(0.793273 0.598021 -6.01828e-20)
(0.74712 0.547693 0)
(0.711814 0.516126 -1.98036e-20)
(0.678752 0.493532 -8.42969e-22)
(0.648903 0.472085 -7.86665e-22)
(0.625229 0.450706 3.26529e-20)
(0.608251 0.430958 -1.27667e-22)
(0.596352 0.413988 -1.01547e-19)
(0.581007 0.394947 3.10813e-20)
(0.481264 0.321889 9.36532e-21)
(0.116004 0.0783393 0)
(0.298229 0.221532 -4.11714e-20)
(1.18214 0.85855 -1.94089e-20)
(1.19583 0.888161 -2.5615e-20)
(1.15076 0.871308 3.03749e-20)
(1.09755 0.848931 -1.94548e-20)
(1.03775 0.820742 0)
(0.97215 0.785029 2.25931e-21)
(0.902487 0.739625 -3.1434e-21)
(0.833475 0.682877 2.95072e-22)
(0.772585 0.616724 4.15702e-21)
(0.731196 0.562237 3.60884e-20)
(0.700618 0.53277 -6.45838e-21)
(0.667153 0.514255 -2.98436e-20)
(0.633196 0.49478 -1.4448e-20)
(0.605081 0.472229 1.85959e-20)
(0.585078 0.448369 -8.73416e-23)
(0.570981 0.427909 2.86061e-20)
(0.556434 0.405139 -6.85277e-20)
(0.461431 0.327727 8.34991e-20)
(0.106603 0.0763117 1.21826e-20)
(0.298625 0.232383 1.49903e-20)
(1.17272 0.894939 -1.0223e-20)
(1.18358 0.924483 9.09068e-22)
(1.13745 0.907044 1.67976e-20)
(1.083 0.883872 4.80893e-21)
(1.02162 0.854492 5.61099e-21)
(0.954116 0.81694 2.44714e-22)
(0.88219 0.768514 -1.32826e-20)
(0.811095 0.706757 -3.14503e-20)
(0.751032 0.633226 -3.13235e-20)
(0.715952 0.573191 0)
(0.692465 0.546873 -2.61079e-20)
(0.659262 0.53582 4.18409e-20)
(0.61953 0.52047 0)
(0.584097 0.497248 -3.97763e-20)
(0.559385 0.466979 2.5969e-20)
(0.543529 0.440984 -3.1528e-20)
(0.530386 0.413672 -3.91184e-20)
(0.437879 0.32984 -6.98759e-20)
(0.0935837 0.0712389 -5.56256e-20)
(0.299567 0.243265 -1.62517e-20)
(1.16372 0.929729 1.09313e-20)
(1.1719 0.959117 2.35347e-20)
(1.1247 0.941168 2.3158e-20)
(1.06899 0.917344 -9.07441e-21)
(1.00598 0.886946 3.60957e-21)
(0.936375 0.847756 1.62432e-21)
(0.861903 0.796533 -1.38181e-20)
(0.788223 0.729669 -1.80723e-20)
(0.728254 0.647554 2.83533e-20)
(0.701062 0.580103 6.10794e-20)
(0.68819 0.557574 0)
(0.65707 0.557881 0)
(0.608702 0.550966 -1.68912e-20)
(0.562448 0.527311 0)
(0.529541 0.493832 5.78478e-20)
(0.510443 0.457185 7.12313e-20)
(0.495842 0.422872 0)
(0.404572 0.329065 0)
(0.075388 0.0623001 6.32037e-20)
(0.300356 0.253656 1.78742e-20)
(1.15516 0.963003 1.33812e-20)
(1.16083 0.992132 1.66378e-20)
(1.11255 0.973766 -2.00585e-20)
(1.05556 0.949388 -9.94533e-21)
(0.990909 0.918165 -5.06546e-21)
(0.919134 0.87759 -2.72955e-21)
(0.841739 0.823784 -4.44834e-22)
(0.764951 0.751877 -1.91128e-22)
(0.704066 0.660009 -1.81803e-21)
(0.685411 0.582527 2.66834e-20)
(0.688393 0.563205 0)
(0.661337 0.581442 3.80124e-20)
(0.603971 0.589475 3.42023e-20)
(0.541797 0.563066 9.84426e-20)
(0.492294 0.524117 3.16809e-20)
(0.464335 0.479013 -4.17039e-20)
(0.449925 0.428772 -2.51e-20)
(0.359601 0.319901 0)
(0.0519825 0.0477822 7.20541e-20)
(0.301786 0.264301 -3.90195e-20)
(1.14707 0.994761 0)
(1.15036 1.02358 1.83147e-20)
(1.10104 1.00486 -1.5929e-20)
(1.04282 0.980061 1.0977e-20)
(0.976474 0.948181 7.9027e-21)
(0.902494 0.906501 5.76331e-21)
(0.821933 0.850487 -8.02625e-22)
(0.741229 0.773691 0)
(0.678433 0.671085 -2.46445e-20)
(0.66894 0.579765 -3.76846e-20)
(0.693786 0.564011 1.89376e-21)
(0.676984 0.605851 4.46886e-20)
(0.606093 0.629661 0)
(0.515608 0.621107 6.80314e-20)
(0.44641 0.571741 0)
(0.404096 0.50409 0)
(0.382904 0.421389 -2.9786e-20)
(0.302047 0.287885 0)
(0.0450211 0.0303167 2.01317e-20)
(0.30284 0.274419 -4.23559e-20)
(1.13932 1.02526 0)
(1.14042 1.05361 2.98978e-20)
(1.09014 1.03461 0)
(1.03074 1.00954 -5.82107e-21)
(0.962709 0.977239 0)
(0.886468 0.93482 1.12186e-22)
(0.802505 0.87708 2.18852e-21)
(0.717048 0.795778 2.08993e-21)
(0.650744 0.681502 -2.35553e-20)
(0.650461 0.571531 7.55927e-22)
(0.705373 0.556444 1.16105e-20)
(0.706918 0.630457 4.00704e-20)
(0.614648 0.684096 7.7977e-21)
(0.491971 0.677448 5.59306e-20)
(0.39205 0.621901 0)
(0.323468 0.548101 9.72879e-20)
(0.279402 0.415209 -5.99861e-20)
(0.149716 0.236273 7.14026e-20)
(-0.00933897 0.477941 -8.6627e-20)
(0.304114 0.284656 3.45506e-20)
(1.13178 1.05458 4.93914e-20)
(1.13084 1.08246 0)
(1.07977 1.06339 2.21107e-22)
(1.01916 1.03839 1.60697e-20)
(0.949312 1.00602 -1.44498e-20)
(0.870719 0.963444 2.40815e-21)
(0.7828 0.904661 0)
(0.69136 0.819367 1.50939e-20)
(0.618496 0.692232 -1.36334e-21)
(0.626909 0.556221 0)
(0.72396 0.534031 0)
(0.756897 0.645908 2.72448e-20)
(0.629698 0.755594 -2.70815e-20)
(0.468171 0.787307 -5.79726e-20)
(0.315849 0.735684 0)
(0.204169 0.61382 5.11718e-20)
(0.0824372 0.700896 -6.27555e-20)
(0.0831163 1.9433 -3.60015e-20)
(0.100902 2.82407 -4.23569e-20)
(0.305053 0.294201 -2.52716e-20)
(1.12426 1.08275 -6.17882e-20)
(1.12158 1.10991 1.66061e-20)
(1.07004 1.09105 1.34622e-20)
(1.00814 1.06638 0)
(0.936485 1.03424 -1.00008e-20)
(0.855624 0.992084 3.50883e-21)
(0.763345 0.933034 -1.20959e-21)
(0.664696 0.844425 2.12072e-21)
(0.58186 0.704204 1.71334e-20)
(0.596289 0.53325 -1.22552e-20)
(0.750339 0.485063 -2.21544e-20)
(0.819772 0.669863 1.60826e-20)
(0.682232 0.867776 -5.87564e-20)
(0.494678 0.917533 -8.93995e-20)
(0.276754 0.852855 0)
(0.120491 1.06107 0)
(0.183179 2.53556 2.69204e-20)
(0.179299 3.12833 0)
(0.170166 3.29066 6.81337e-20)
(0.309629 0.302328 0)
(1.11582 1.10958 0)
(1.11269 1.13565 0)
(1.06075 1.1174 3.91754e-21)
(0.997458 1.09328 1.30592e-20)
(0.924082 1.06175 -6.90877e-21)
(0.841264 1.02079 2.77235e-21)
(0.744242 0.962054 -1.28613e-21)
(0.637083 0.871548 2.06066e-20)
(0.540444 0.7189 -1.09286e-21)
(0.556529 0.501252 -6.37954e-20)
(0.783397 0.404175 3.86922e-21)
(0.982439 0.596477 -2.49706e-21)
(0.847881 0.923801 8.81957e-21)
(0.547571 1.06542 -9.53016e-22)
(0.243712 1.18114 1.16554e-22)
(0.248938 2.55746 -1.35548e-19)
(0.275636 3.19918 -5.05767e-20)
(0.240996 3.33114 2.39656e-20)
(0.213369 3.35926 -2.49351e-20)
(0.200228 0.224174 1.50123e-20)
(1.10572 1.1346 0)
(1.10489 1.15995 -3.22013e-20)
(1.05212 1.14281 -3.41718e-20)
(0.987609 1.11947 2.81471e-20)
(0.912777 1.08891 7.26778e-21)
(0.829047 1.04855 -3.59338e-21)
(0.728148 0.992144 1.68144e-20)
(0.611975 0.905541 -1.86011e-20)
(0.495647 0.748338 0)
(0.49988 0.481985 -5.33263e-20)
(0.791604 0.272748 5.43002e-20)
(1.13054 0.549379 0)
(1.07717 1.10281 1.64144e-21)
(0.635842 1.3493 2.80776e-20)
(0.27101 2.07418 -3.35316e-20)
(0.410571 3.20713 3.64362e-20)
(0.352156 3.34829 1.70757e-20)
(0.28304 3.39033 1.99532e-20)
(0.239787 3.41008 2.41979e-20)
(0.366219 0.365001 -2.60671e-20)
(1.08582 1.15131 0)
(1.09479 1.19678 3.32153e-20)
(1.03773 1.18115 3.52423e-20)
(0.971239 1.15911 -2.88688e-20)
(0.893235 1.13002 -7.52778e-21)
(0.802771 1.09095 4.47407e-21)
(0.694102 1.03518 1.47136e-21)
(0.564044 0.946531 2.17374e-20)
(0.416753 0.770996 1.23726e-20)
(0.375224 0.377811 -2.88637e-21)
(0.729521 0.152644 -1.36364e-19)
(1.24258 0.833558 -2.09643e-20)
(1.24419 1.65084 9.98241e-21)
(0.71658 2.1809 -1.01211e-20)
(0.601794 3.21263 6.7409e-21)
(0.517966 3.44872 -5.24094e-21)
(0.42417 3.47697 -4.77344e-21)
(0.341066 3.51298 5.44146e-21)
(0.254272 3.48535 -5.60357e-23)
(0.360327 0.367274 0)
(1.08539 1.1779 1.00986e-20)
(1.08729 1.22275 -6.82406e-21)
(1.02923 1.20812 -4.15905e-21)
(0.961506 1.18694 -1.86076e-20)
(0.881904 1.15901 7.36441e-21)
(0.788539 1.12127 -3.22442e-21)
(0.675051 1.06814 1.50211e-21)
(0.533638 0.982383 -2.55561e-20)
(0.35322 0.803476 2.07664e-21)
(0.215654 0.354235 1.71268e-19)
(0.404126 0.244833 -2.81659e-20)
(1.22566 1.42053 3.43937e-20)
(1.26317 2.21092 1.17844e-20)
(0.750223 2.82654 1.53872e-20)
(0.708602 3.51809 5.49747e-21)
(0.544433 3.58723 -3.64837e-20)
(0.453159 3.58906 -2.72598e-20)
(0.352495 3.61858 2.62158e-20)
(0.268262 3.58589 1.39893e-20)
(0.344703 0.365914 2.68338e-20)
(1.08423 1.20892 6.71001e-20)
(1.08008 1.25175 -1.86548e-20)
(1.02084 1.23753 -1.50309e-20)
(0.951709 1.2171 0)
(0.87055 1.1902 1.17378e-20)
(0.774593 1.15426 -4.19463e-21)
(0.656773 1.10463 1.52423e-21)
(0.504518 1.02503 -2.86743e-21)
(0.289862 0.857491 -2.16459e-20)
(0.0251487 0.451939 9.11519e-20)
(-0.00296672 0.607075 2.5576e-19)
(0.915217 2.02061 3.47692e-19)
(1.10289 2.82945 -1.75633e-19)
(0.783892 3.46224 -9.86658e-20)
(0.709979 3.72609 0)
(0.572847 3.69938 0)
(0.47613 3.72147 2.77926e-20)
(0.360228 3.75046 0)
(0.265132 3.69868 5.01469e-20)
(0.332237 0.368018 -3.98629e-20)
(1.08096 1.24227 -5.64611e-20)
(1.07212 1.2832 0)
(1.01166 1.26881 4.83384e-22)
(0.941208 1.24893 -1.90256e-20)
(0.858626 1.22302 1.79654e-20)
(0.760612 1.18937 -2.91417e-21)
(0.639026 1.1439 1.13189e-21)
(0.477152 1.07376 -2.52568e-20)
(0.229924 0.932735 1.97429e-21)
(-0.160834 0.638942 0)
(-0.363952 1.03384 0)
(0.63422 2.56082 3.54051e-19)
(0.868279 3.29847 -9.55631e-20)
(0.76014 3.80257 -1.03314e-19)
(0.680827 3.85037 0)
(0.591739 3.82279 7.96363e-20)