/*--------------------------------*- C++ -*----------------------------------*\
  =========                 |
  \\      /  F ield         | OpenFOAM: The Open Source CFD Toolbox
   \\    /   O peration     | Website:  https://openfoam.org
    \\  /    A nd           | Version:  6
     \\/     M anipulation  |
\*---------------------------------------------------------------------------*/
FoamFile
{
    version     2.0;
    format      ascii;
    class       surfaceScalarField;
    location    "8";
    object      phi;
}
// * * * * * * * * * * * * * * * * * * * * * * * * * * * * * * * * * * * * * //

dimensions      [0 3 -1 0 0 0 0];

internalField   nonuniform List<scalar> 
17370
(
-0.0899386
0.0897499
0.2892
-0.0713143
0.0535462
0.364544
-0.0378665
0.0274313
0.426603
-0.0194251
0.0144678
0.504209
-0.0106593
0.00813483
0.601927
-0.00599995
0.0045059
0.720552
-0.0032568
0.00241371
0.86375
-0.00172997
0.00126416
1.03592
-0.000855846
0.000543627
1.24282
-0.0002346
-3.41982e-05
1.49146
0.000310447
-0.000619607
1.4915
0.00092675
-0.00132258
1.24309
0.00177537
-0.0024497
1.03631
0.00328696
-0.00453179
0.864151
0.00602325
-0.00815754
0.721192
0.0106802
-0.0144872
0.603022
0.019442
-0.0274459
0.507443
0.0378804
-0.0535595
0.431847
0.0713266
-0.0897584
0.365207
0.089944
0.199067
-0.128354
0.0886593
0.0396943
-0.36481
0.353826
-0.074132
0.0851158
-0.446729
0.454337
-0.0835774
0.0759697
-0.521347
0.530026
-0.0681072
0.0594291
-0.612537
0.621585
-0.0510791
0.0420311
-0.726607
0.73387
-0.0343435
0.0270801
-0.867423
0.872215
-0.0216415
0.016849
-1.03842
1.04168
-0.0132606
0.00999951
-1.24453
1.24685
-0.00749691
0.00518003
-1.4927
1.49456
-0.00330714
0.00144249
-1.49237
1.49405
0.000241843
-0.00191954
-1.24393
1.24578
0.00378164
-0.00563572
-1.03743
1.03989
0.00791954
-0.0103824
-0.86602
0.869576
0.0136017
-0.017157
-0.724208
0.729619
0.0218946
-0.027305
-0.608386
0.616063
0.034544
-0.0422214
-0.514849
0.523195
0.0512592
-0.0596051
-0.440134
0.447974
0.0682631
-0.0761034
-0.375465
0.376978
0.0836863
-0.0851996
-0.257599
0.223128
0.0741871
-0.0397159
-0.0693095
0.0600872
0.00922231
-0.0486767
0.0544646
-0.374581
0.368793
-0.0528759
0.0487114
-0.453438
0.457602
-0.0438196
0.0401728
-0.528015
0.531662
-0.0367675
0.0335563
-0.621574
0.624785
-0.0299252
0.0262315
-0.735062
0.738756
-0.0221325
0.0184024
-0.873839
0.877569
-0.0146257
0.0114034
-1.04299
1.04621
-0.00820484
0.00544891
-1.2481
1.25085
-0.00249975
-0.000438105
-1.49623
1.49916
0.0033215
-0.00622197
-1.49679
1.49969
0.00893901
-0.0120831
-1.24959
1.25273
0.0152558
-0.0189896
-1.04545
1.04919
0.0226691
-0.0267067
-0.87736
0.881398
0.030347
-0.033915
-0.739885
0.743453
0.0370924
-0.0404602
-0.626944
0.630312
0.0440744
-0.0489424
-0.534816
0.539684
0.0530827
-0.0546406
-0.457696
0.459254
0.0488093
-0.0300103
-0.336903
0.318104
0.00924381
-0.0692503
0.0600065
-0.0549729
0.0517043
0.00326854
-0.027685
0.0368456
-0.360467
0.351307
-0.0401215
0.039564
-0.459886
0.460444
-0.0366151
0.033418
-0.53533
0.538527
-0.0298521
0.027026
-0.627782
0.630608
-0.0242541
0.0218747
-0.74126
0.743639
-0.0193264
0.0170223
-0.880249
0.882553
-0.0143676
0.0118209
-1.04909
1.05164
-0.00883806
0.00596034
-1.25387
1.25675
-0.00261346
-0.000616412
-1.50259
1.50581
0.00384053
-0.00713467
-1.50306
1.50635
0.00995248
-0.0128566
-1.25588
1.25878
0.0153243
-0.0178798
-1.05217
1.05472
0.0201019
-0.022573
-0.884055
0.886526
0.0248796
-0.0276102
-0.746364
0.749094
0.0303659
-0.0338692
-0.633799
0.637302
0.0370119
-0.0398936
-0.544181
0.547063
0.0403885
-0.0370394
-0.458243
0.454893
0.0278118
-0.0131658
-0.300667
0.286021
0.00328913
-0.0548655
0.0515764
-0.0497378
0.0488806
0.00085715
-0.011136
0.0178768
-0.342917
0.336176
-0.0227588
0.0248406
-0.459525
0.457443
-0.0255874
0.0254387
-0.540279
0.540428
-0.0249098
0.0239273
-0.632509
0.633492
-0.0225285
0.0208979
-0.745818
0.747449
-0.0187508
0.0165648
-0.884934
0.88712
-0.0139492
0.0113894
-1.05421
1.05677
-0.00842945
0.00559001
-1.25951
1.26235
-0.00234705
-0.000744726
-1.50878
1.51187
0.00382929
-0.00703304
-1.50947
1.51267
0.00981361
-0.0127008
-1.26163
1.26452
0.0151785
-0.0176892
-1.05738
1.05989
0.0197646
-0.0217851
-0.888988
0.891008
0.0233161
-0.0246358
-0.751215
0.752535
0.0255588
-0.025988
-0.63944
0.639869
0.026069
-0.0252543
-0.548044
0.54723
0.0231117
-0.0181513
-0.450277
0.445317
0.0113273
-0.00418893
-0.275158
0.268019
0.000890606
-0.0495882
0.0486976
-0.0486443
0.0485181
0.000126197
-0.0042878
0.00858602
-0.330937
0.326638
-0.0133469
0.0167528
-0.454589
0.451184
-0.0193536
0.0206245
-0.539569
0.538298
-0.0213063
0.0213885
-0.633693
0.63361
-0.0209253
0.0199983
-0.748623
0.74955
-0.0185232
0.0167812
-0.889022
0.890764
-0.0144835
0.012041
-1.05924
1.06169
-0.00902028
0.0059786
-1.2653
1.26835
-0.00238268
-0.00115085
-1.51525
1.51878
0.00466345
-0.00818325
-1.51605
1.51957
0.0111152
-0.0139875
-1.26738
1.27025
0.0163023
-0.01846
-1.06215
1.06431
0.0200765
-0.0214309
-0.892568
0.893922
0.022241
-0.022504
-0.75329
0.753553
0.022262
-0.0214494
-0.639244
0.638431
0.020064
-0.0173432
-0.54522
0.542499
0.0138268
-0.00893897
-0.440388
0.4355
0.00452363
-0.00128552
-0.263469
0.260231
0.000165136
-0.0484218
0.0482567
-0.048374
0.0482975
7.64896e-05
-0.00230248
0.00524057
-0.323004
0.320065
-0.00952383
0.0134774
-0.44735
0.443397
-0.0171151
0.0195024
-0.536502
0.534115
-0.020857
0.0211749
-0.633389
0.633071
-0.0209281
0.0201882
-0.750388
0.751128
-0.0188163
0.0170972
-0.892514
0.894234
-0.0147364
0.0122346
-1.06417
1.06667
-0.0091323
0.00600326
-1.27145
1.27458
-0.00219517
-0.0016066
-1.52245
1.52625
0.00537565
-0.0090799
-1.5232
1.5269
0.01208
-0.0149941
-1.27316
1.27608
0.0172748
-0.0193824
-1.06649
1.06859
0.0208731
-0.0219936
-0.895193
0.896313
0.0224939
-0.0226122
-0.753699
0.753818
0.0221512
-0.0206073
-0.63751
0.635966
0.0180617
-0.0142507
-0.53915
0.535339
0.0101415
-0.00568961
-0.430693
0.426241
0.00260173
-0.000749068
-0.257728
0.255876
0.000125355
-0.04807
0.0479447
-0.0482945
0.0483105
-1.59799e-05
-0.000899109
0.00249024
-0.31785
0.316259
-0.00526817
0.00824815
-0.439779
0.436799
-0.0113687
0.0137473
-0.531527
0.529148
-0.0156094
0.0166776
-0.632214
0.631146
-0.0170766
0.01681
-0.751709
0.751975
-0.0159245
0.014646
-0.895851
0.897129
-0.0127728
0.0106579
-1.06906
1.07117
-0.00792602
0.00507108
-1.27764
1.28049
-0.00151644
-0.00207845
-1.53005
1.53365
0.00561916
-0.00903686
-1.53056
1.53398
0.0117515
-0.0142899
-1.27888
1.28142
0.0161626
-0.0177506
-1.07052
1.07211
0.0187697
-0.0193835
-0.897267
0.897881
0.0193956
-0.0186906
-0.75358
0.752875
0.0173464
-0.0152028
-0.633839
0.631695
0.0125797
-0.00921321
-0.531543
0.528176
0.00602334
-0.00302853
-0.422455
0.41946
0.00125238
-0.000324161
-0.254575
0.253646
4.20292e-05
-0.0478889
0.0478469
-0.048323
0.0483446
-2.16385e-05
-0.000333607
0.00107723
-0.315151
0.314407
-0.00250591
0.00418607
-0.434505
0.432825
-0.00612464
0.00774469
-0.527125
0.525505
-0.00918262
0.010135
-0.6301
0.629148
-0.010732
0.0108635
-0.752002
0.75187
-0.0105494
0.0098626
-0.898073
0.89876
-0.0086674
0.00718725
-1.07296
1.07444
-0.00514732
0.00293496
-1.28305
1.28526
-0.000156291
-0.00264352
-1.53688
1.53968
0.00537442
-0.00796331
-1.53702
1.5396
0.00994012
-0.0116742
-1.28357
1.2853
0.0128334
-0.0136399
-1.07327
1.07408
0.0139679
-0.0138938
-0.898107
0.898033
0.013415
-0.012451
-0.751997
0.751033
0.0111821
-0.00942135
-0.629708
0.627947
0.00752721
-0.00530805
-0.525383
0.523164
0.00338814
-0.00171164
-0.417192
0.415516
0.000755989
-0.000237848
-0.252958
0.25244
4.88954e-05
-0.0477964
0.0477475
-0.0483803
0.0484258
-4.55171e-05
2.41639e-05
0.000257148
-0.313937
0.313656
-0.000877532
0.00166732
-0.431649
0.430859
-0.0026458
0.00351993
-0.524282
0.523408
-0.00436716
0.00498302
-0.628348
0.627732
-0.00543921
0.00562761
-0.751673
0.751485
-0.00555116
0.00520162
-0.899244
0.899594
-0.00448852
0.00353082
-1.07564
1.0766
-0.00214364
0.000595089
-1.28713
1.28868
0.00134708
-0.00329207
-1.54204
1.54398
0.00515773
-0.00686336
-1.54173
1.54344
0.00807685
-0.00901871
-1.28662
1.28756
0.00955758
-0.00979736
-1.07458
1.07482
0.00970616
-0.00930165
-0.89775
0.897346
0.00868613
-0.00778289
-0.750069
0.749165
0.00678509
-0.00555264
-0.626453
0.62522
0.00435221
-0.00304173
-0.521451
0.52014
0.00196673
-0.00104814
-0.414284
0.413366
0.00050758
-0.000182338
-0.252041
0.251716
4.31825e-05
-0.0477044
0.0476612
-0.0484778
0.0485394
-6.1628e-05
0.000220512
-0.000190475
-0.313515
0.313485
-1.38184e-05
0.000317263
-0.430352
0.430049
-0.000717933
0.00109035
-0.522816
0.522444
-0.00146275
0.00173718
-0.627297
0.627023
-0.00193574
0.00199928
-0.751349
0.751285
-0.00190947
0.00165805
-0.899872
0.900123
-0.00117099
0.000522092
-1.07737
1.07802
0.000419046
-0.00146968
-1.28995
1.291
0.00277735
-0.00406398
-1.54557
1.54686
0.00525699
-0.00626051
-1.54477
1.54577
0.00688954
-0.00729365
-1.28821
1.28861
0.00743076
-0.00733127
-1.07486
1.07476
0.00703891
-0.00654259
-0.896879
0.896382
0.00596017
-0.00521958
-0.748345
0.747605
0.00448081
-0.00363702
-0.624208
0.623364
0.00286501
-0.00205706
-0.519126
0.518318
0.00140373
-0.000829367
-0.412656
0.412082
0.000457002
-0.000192518
-0.251431
0.251167
5.4238e-05
-0.0476131
0.0475589
-0.0486074
0.0486832
-7.57411e-05
0.000377089
-0.000475224
-0.313521
0.31362
0.000505873
-0.000474228
-0.429901
0.429869
0.00040558
-0.000341279
-0.522243
0.522178
0.000289809
-0.000276308
-0.626888
0.626875
0.000314864
-0.000414671
-0.751302
0.751402
0.000614038
-0.000895289
-0.900379
0.90066
0.00132945
-0.00184879
-1.07859
1.07911
0.00255417
-0.00330675
-1.29188
1.29263
0.00420881
-0.00505208
-1.5479
1.54874
0.00577474
-0.0063238
-1.54652
1.54707
0.00658648
-0.00661318
-1.2888
1.28883
0.00648416
-0.00618369
-1.07455
1.07425
0.00579441
-0.00526842
-0.895871
0.895345
0.00472739
-0.00409678
-0.746929
0.746298
0.00350731
-0.00286662
-0.622642
0.622001
0.00230165
-0.00172131
-0.517649
0.517068
0.00124663
-0.000805767
-0.411592
0.411151
0.00048638
-0.000224746
-0.250909
0.250647
6.8728e-05
-0.0474979
0.0474292
-0.0487674
0.0488627
-9.52389e-05
0.000522241
-0.000734118
-0.31378
0.313992
0.000919741
-0.001059
-0.429931
0.43007
0.00120149
-0.0013404
-0.522225
0.522364
0.00151352
-0.00169848
-0.626966
0.627151
0.00193853
-0.00220002
-0.751584
0.751845
0.0025423
-0.0029135
-0.900981
0.901353
0.00339115
-0.00389239
-1.07961
1.08011
0.00450662
-0.00510722
-1.29329
1.29389
0.00576955
-0.00632423
-1.54942
1.54998
0.00672517
-0.00692599
-1.54743
1.54763
0.00691916
-0.00675846
-1.28876
1.2886
0.00644474
-0.00600343
-1.07388
1.07343
0.00552831
-0.00496017
-0.8948
0.894232
0.00441916
-0.0038211
-0.745693
0.745095
0.00328383
-0.00271651
-0.62141
0.620843
0.00222555
-0.00172361
-0.51654
0.516038
0.00130451
-0.000893584
-0.410734
0.410323
0.000568324
-0.000275577
-0.250373
0.25008
8.76549e-05
-0.0473515
0.0472639
-0.0489707
0.0490927
-0.000121963
0.000695605
-0.00100819
-0.314253
0.314566
0.00132508
-0.00160102
-0.43028
0.430556
0.00190785
-0.00220676
-0.522585
0.522884
0.00256237
-0.00291643
-0.627422
0.627777
0.0033393
-0.00376015
-0.752186
0.752607
0.00426108
-0.00475499
-0.901782
0.902275
0.00533306
-0.00588639
-1.08063
1.08118
0.00650409
-0.00705204
-1.29446
1.29501
0.00759027
-0.00796598
-1.55043
1.55081
0.00814908
-0.00811102
-1.54771
1.54767
0.00789735
-0.00751365
-1.28832
1.28794
0.00706559
-0.00649311
-1.07293
1.07236
0.00592713
-0.00528549
-0.893633
0.892991
0.00469739
-0.00406578
-0.744488
0.743856
0.00351021
-0.00293223
-0.620279
0.619701
0.00243629
-0.00192896
-0.515542
0.515035
0.0014979
-0.00105866
-0.409904
0.409465
0.0006912
-0.000342888
-0.249763
0.249415
0.000111
-0.0471652
0.0470542
-0.0492303
0.0493856
-0.000155312
0.000902395
-0.00132566
-0.314932
0.315355
0.00177583
-0.00218427
-0.430897
0.431306
0.00264763
-0.00309923
-0.523259
0.52371
0.00363095
-0.00415212
-0.628213
0.628734
0.00476178
-0.00535264
-0.75311
0.753701
0.0060335
-0.0066795
-0.902842
0.903488
0.00740225
-0.00805888
-1.08178
1.08244
0.00874765
-0.00931226
-1.29555
1.29612
0.00980594
-0.0100758
-1.55112
1.55139
0.0101026
-0.00987369
-1.54753
1.5473
0.00948024
-0.00890418
-1.28746
1.28688
0.00829313
-0.00756322
-1.07171
1.07098
0.0068709
-0.00610788
-0.892295
0.891532
0.00542326
-0.00469941
-0.743185
0.742461
0.00406978
-0.00341989
-0.619094
0.618444
0.00286451
-0.0022957
-0.514503
0.513934
0.00180691
-0.00129735
-0.408995
0.408486
0.00085787
-0.000430112
-0.24903
0.248602
0.000140326
-0.0469293
0.046789
-0.0495617
0.0497608
-0.000199127
0.00116548
-0.00172134
-0.315841
0.316397
0.00232343
-0.00287801
-0.431784
0.432339
0.00351162
-0.00412935
-0.524242
0.52486
0.00485399
-0.00556015
-0.629344
0.630051
0.0063796
-0.00716557
-0.754386
0.755172
0.00805917
-0.0088926
-0.904222
0.905056
0.00980482
-0.010611
-1.08316
1.08397
0.0114259
-0.0120595
-1.29671
1.29735
0.012564
-0.0127728
-1.55163
1.55184
0.0126749
-0.0122671
-1.54698
1.54658
0.0116929
-0.010909
-1.28621
1.28542
0.0101084
-0.00918092
-1.07016
1.06923
0.00831902
-0.00738312
-0.890689
0.889753
0.00655276
-0.00568176
-0.741671
0.7408
0.00492856
-0.00415424
-0.617738
0.616964
0.00349395
-0.00281714
-0.513317
0.51264
0.00223195
-0.00161451
-0.407927
0.407309
0.00107374
-0.000540731
-0.248125
0.247592
0.000176912
-0.0466314
0.0464545
-0.0499877
0.0502441
-0.000256389
0.00150457
-0.00222668
-0.31703
0.317752
0.0030147
-0.00374497
-0.432975
0.433705
0.00458112
-0.00539599
-0.52557
0.526385
0.00634938
-0.00727559
-0.630862
0.631788
0.00834602
-0.00936747
-0.75607
0.757091
0.0105209
-0.0115873
-0.905999
0.907066
0.0127412
-0.0137453
-1.08487
1.08587
0.0147382
-0.0154845
-1.29803
1.29878
0.0160397
-0.0162114
-1.55203
1.5522
0.0159954
-0.0153964
-1.54608
1.54548
0.0146148
-0.0135868
-1.28452
1.28349
0.0125561
-0.0113791
-1.06819
1.06701
0.0102963
-0.00912985
-0.88871
0.887543
0.00810079
-0.00702586
-0.739834
0.738759
0.00609908
-0.00514813
-0.616108
0.615157
0.00433798
-0.00350712
-0.511892
0.511062
0.00278653
-0.00202186
-0.406624
0.405859
0.00134755
-0.000679485
-0.246996
0.246327
0.000222386
-0.0462561
0.0460337
-0.0505384
0.0508704
-0.000332026
0.00194774
-0.00288392
-0.318573
0.319509
0.00390881
-0.00486063
-0.434533
0.435485
0.00594952
-0.00700899
-0.527313
0.528373
0.00824469
-0.00944224
-0.632844
0.634042
0.0108225
-0.0121358
-0.758253
0.759566
0.013613
-0.0149715
-0.90827
0.909629
0.0164303
-0.0176869
-1.08699
1.08825
0.0189112
-0.0198098
-1.29959
1.30049
0.0204443
-0.0205868
-1.55235
1.5525
0.0202397
-0.019416
-1.54477
1.54395
0.0183833
-0.0170527
-1.28232
1.28099
0.0157344
-0.0142407
-1.06568
1.06419
0.012875
-0.0114101
-0.886236
0.884771
0.010122
-0.00877956
-0.737559
0.736216
0.00762397
-0.00643937
-0.614097
0.612913
0.00543047
-0.00439532
-0.510137
0.509102
0.00349614
-0.00253944
-0.405006
0.404049
0.00169339
-0.000853691
-0.245579
0.244739
0.000279163
-0.0457848
0.0455056
-0.0512545
0.0516886
-0.000434103
0.00253634
-0.00375405
-0.320569
0.321787
0.00508923
-0.00632787
-0.436554
0.437793
0.00773838
-0.00910517
-0.529576
0.530943
0.0106928
-0.0122288
-0.635409
0.636945
0.0139966
-0.0156765
-0.761059
0.762739
0.0175611
-0.0192875
-0.91116
0.912887
0.0211299
-0.0227033
-1.08965
1.09123
0.0242166
-0.0253046
-1.30148
1.30257
0.0260369
-0.0261421
-1.55262
1.55273
0.025631
-0.0245267
-1.54299
1.54189
0.0231793
-0.0214683
-1.27948
1.27777
0.0197874
-0.0178939
-1.0625
1.06061
0.01617
-0.0143265
-0.883125
0.881282
0.012709
-0.0110255
-0.734711
0.733027
0.00957715
-0.00809216
-0.611588
0.610103
0.00682644
-0.0055263
-0.507948
0.506648
0.00439568
-0.00319195
-0.40298
0.401776
0.00212748
-0.00107157
-0.243799
0.242743
0.000350051
-0.0451941
0.044844
-0.0521917
0.0527695
-0.000577761
0.00333974
-0.00493561
-0.323157
0.324752
0.00668251
-0.00829075
-0.439172
0.44078
0.0101041
-0.011849
-0.532509
0.534254
0.0138698
-0.0158275
-0.638719
0.640677
0.0180848
-0.0202325
-0.764652
0.7668
0.0226382
-0.024833
-0.914823
0.917018
0.0271588
-0.0291254
-1.09297
1.09494
0.0309905
-0.0323014
-1.30376
1.30507
0.0331376
-0.0331788
-1.5528
1.55284
0.0324484
-0.030983
-1.54061
1.53915
0.0292368
-0.0270453
-1.27583
1.27364
0.0249085
-0.0225127
-1.05848
1.05608
0.0203397
-0.018022
-0.879204
0.876886
0.0159925
-0.0138824
-0.731132
0.729022
0.012067
-0.0102033
-0.608441
0.606578
0.00861102
-0.00697062
-0.505204
0.503564
0.00554124
-0.00401943
-0.400437
0.398915
0.00267671
-0.00134737
-0.241562
0.240233
0.000440458
-0.0444563
0.0440158
-0.0534295
0.0542164
-0.000786929
0.00446751
-0.00657583
-0.326527
0.328635
0.00885831
-0.0109212
-0.44258
0.444643
0.0132143
-0.0154094
-0.536324
0.538519
0.0179616
-0.0204555
-0.642988
0.645482
0.0233512
-0.0261135
-0.769238
0.772001
0.0291993
-0.0319954
-0.919443
0.922239
0.0349281
-0.0373743
-1.09709
1.09953
0.0396526
-0.0412091
-1.30647
1.30803
0.0421343
-0.0420593
-1.55282
1.55274
0.0410268
-0.0390924
-1.53746
1.53552
0.0368396
-0.0340461
-1.27116
1.26836
0.031341
-0.0283214
-1.05337
1.05035
0.0255921
-0.0226892
-0.874261
0.871358
0.0201529
-0.0175195
-0.72663
0.723996
0.0152533
-0.012922
-0.604486
0.602155
0.0109208
-0.00884611
-0.501761
0.499686
0.00702866
-0.0050905
-0.397244
0.395306
0.00338689
-0.0017056
-0.238756
0.237074
0.000560054
-0.0435385
0.0429784
-0.055091
0.0561833
-0.00109233
0.00607284
-0.00887105
-0.330958
0.333756
0.0118303
-0.0144372
-0.447055
0.449662
0.0172975
-0.0200497
-0.541301
0.544053
0.0232986
-0.0265187
-0.648485
0.651705
0.0302847
-0.0338692
-0.775071
0.778655
0.0378377
-0.0413858
-0.925237
0.928785
0.0450485
-0.0480453
-1.10213
1.10512
0.0507682
-0.0525569
-1.30963
1.31142
0.0535099
-0.0532228
-1.55253
1.55225
0.0517677
-0.0492234
-1.53328
1.53073
0.046333
-0.0427936
-1.2652
1.26166
0.0393895
-0.0356056
-1.04694
1.04315
0.0321961
-0.0285801
-0.868046
0.86443
0.0254296
-0.022166
-0.720968
0.717705
0.0193598
-0.0164687
-0.599511
0.59662
0.0139716
-0.011355
-0.497433
0.494817
0.00903409
-0.00653698
-0.393239
0.390742
0.00434545
-0.00219004
-0.235242
0.233086
0.000724731
-0.0424003
0.0416756
-0.0573748
0.0589283
-0.00155346
0.008455
-0.0122115
-0.336855
0.340611
0.0160569
-0.0193641
-0.452961
0.456268
0.0229715
-0.0264981
-0.547796
0.551322
0.0307448
-0.0349887
-0.655552
0.659795
0.039929
-0.0445596
-0.782473
0.787104
0.0495894
-0.0539899
-0.932449
0.93685
0.0584322
-0.0619749
-1.10819
1.11173
0.0650839
-0.0670091
-1.31316
1.31508
0.0678409
-0.0671755
-1.55171
1.55105
0.0651228
-0.0617882
-1.52777
1.52444
0.0581064
-0.0536584
-1.25765
1.2532
0.0494116
-0.0447079
-1.03887
1.03417
0.0404772
-0.0359975
-0.86027
0.85579
0.0321035
-0.0280822
-0.713871
0.70985
0.0246337
-0.0210857
-0.593253
0.589705
0.0180066
-0.0147409
-0.491984
0.488718
0.0117862
-0.00854333
-0.388213
0.38497
0.00567599
-0.00285538
-0.230845
0.228025
0.000948303
-0.0409865
0.0400382
-0.060601
0.0629459
-0.00234486
0.0123844
-0.0175411
-0.344817
0.349973
0.0225689
-0.0268049
-0.460824
0.46506
0.0314576
-0.0361127
-0.556306
0.560961
0.0417726
-0.0473772
-0.664659
0.670264
0.0537633
-0.0595797
-0.791838
0.797654
0.0657305
-0.0709666
-0.941277
0.946513
0.0761064
-0.0800687
-1.11524
1.11921
0.0833755
-0.085229
-1.31682
1.31868
0.0856842
-0.0843904
-1.54998
1.54869
0.0815052
-0.077161
-1.52056
1.51621
0.0725135
-0.066985
-1.24819
1.24266
0.0617492
-0.0559696
-1.02887
1.02309
0.050772
-0.0452625
-0.850626
0.845117
0.0404691
-0.0355213
-0.705033
0.700085
0.0312868
-0.0269422
-0.585409
0.581064
0.0231666
-0.019138
-0.485104
0.481075
0.015424
-0.0112494
-0.381856
0.377682
0.00748594
-0.00374755
-0.22531
0.221571
0.00123348
-0.0392075
0.037974
-0.0653444
0.0692249
-0.00388051
0.0194335
-0.0266349
-0.355894
0.363096
0.0332141
-0.0387142
-0.471526
0.477026
0.0448564
-0.0511125
-0.567544
0.5738
0.0586098
-0.0657812
-0.676388
0.68356
0.0736663
-0.0806016
-0.803451
0.810386
0.0877099
-0.0935777
-0.951655
0.957523
0.0991364
-0.103221
-1.12295
1.12703
0.106368
-0.107805
-1.32014
1.32157
0.107509
-0.105257
-1.54681
1.54456
0.101257
-0.0956629
-1.51119
1.50559
0.0898755
-0.0831131
-1.23648
1.22972
0.0767685
-0.0697929
-1.01664
1.00967
0.0635189
-0.0568474
-0.838834
0.832163
0.0510153
-0.0449703
-0.69415
0.688105
0.0397787
-0.0344387
-0.575647
0.570307
0.0297966
-0.02484
-0.476409
0.471452
0.020185
-0.0148544
-0.373702
0.368372
0.00992711
-0.00495263
-0.218203
0.213228
0.00160026
-0.0369223
0.035322
-0.0728329
0.0801027
-0.00726982
0.0332747
-0.0438965
-0.372119
0.382741
0.0526608
-0.0597612
-0.486279
0.49338
0.0678472
-0.0759851
-0.582269
0.590407
0.0853633
-0.093872
-0.691052
0.699561
0.102801
-0.110351
-0.817111
0.824661
0.117812
-0.12371
-0.963013
0.968912
0.129013
-0.132594
-1.13055
1.13413
0.134934
-0.135385
-1.32228
1.32273
0.133796
-0.130152
-1.54145
1.5378
0.124704
-0.117623
-1.49916
1.49208
0.110548
-0.10246
-1.22224
1.21415
0.094956
-0.0867634
-1.002
0.993812
0.0794088
-0.0715803
-0.824712
0.816884
0.0647116
-0.0575509
-0.680991
0.67383
0.0513552
-0.0449586
-0.563651
0.557254
0.039412
-0.0334514
-0.465437
0.459477
0.0276167
-0.0205255
-0.36309
0.355999
0.0136793
-0.00665972
-0.20874
0.201721
0.00203579
-0.0339545
0.0319187
-0.0873542
0.0902883
-0.0029341
0.0210014
-0.0301084
-0.396493
0.4056
0.0385423
-0.0463396
-0.506103
0.513901
0.0556397
-0.0654361
-0.600254
0.610051
0.0762185
-0.0858254
-0.707689
0.717296
0.0965029
-0.105928
-0.831472
0.840898
0.115713
-0.1241
-0.973907
0.982293
0.132435
-0.139114
-1.13666
1.14334
0.14507
-0.148986
-1.32205
1.32597
0.151114
-0.15059
-1.53299
1.53247
0.147273
-0.141543
-1.48398
1.47825
0.134736
-0.126017
-1.20528
1.19656
0.117423
-0.107023
-0.984939
0.974539
0.0973846
-0.0866722
-0.808329
0.797617
0.0769877
-0.06659
-0.66563
0.655232
0.0571319
-0.0474323
-0.549385
0.539685
0.0391716
-0.0300231
-0.451915
0.442767
0.0216454
-0.0129767
-0.349002
0.340333
0.00631802
-0.00166052
-0.195252
0.190594
-0.000198486
-0.0298346
0.0300331
-0.0977467
0.0933448
0.0044019
-0.00230042
-0.0026306
-0.418193
0.423124
0.00963289
-0.0167106
-0.525505
0.532583
0.025648
-0.0341486
-0.619939
0.62844
0.0437706
-0.0525224
-0.726842
0.735594
0.0618488
-0.0702986
-0.849851
0.858301
0.0791009
-0.0863829
-0.99041
0.997692
0.0938616
-0.0995786
-1.14992
1.15564
0.104688
-0.107829
-1.32976
1.3329
0.109034
-0.107902
-1.53137
1.53024
0.104174
-0.0982458
-1.47198
1.46605
0.0912959
-0.0827163
-1.18761
1.17903
0.0744416
-0.0649661
-0.964175
0.954699
0.0560711
-0.0461726
-0.78659
0.776692
0.0372707
-0.0280821
-0.643672
0.634483
0.0202056
-0.0121209
-0.527993
0.519908
0.0052098
0.00143132
-0.431133
0.424492
-0.00611837
0.009064
-0.329743
0.326797
-0.00911173
0.00628685
-0.183588
0.186413
-0.00285883
-0.0282469
0.0311057
-0.095342
0.0911014
0.00424062
-0.00912829
0.00726605
-0.432641
0.434503
-0.00293834
-0.00277973
-0.541939
0.547657
0.00997407
-0.0170847
-0.636999
0.64411
0.025095
-0.0324378
-0.743813
0.751156
0.0405073
-0.0477
-0.86611
0.873303
0.054996
-0.0614114
-1.00483
1.01124
0.0678503
-0.0728975
-1.161
1.16605
0.0770754
-0.0795241
-1.33555
1.338
0.0805161
-0.0793069
-1.52874
1.52753
0.0758131
-0.0705046
-1.46004
1.45473
0.0644609
-0.0572977
-1.17093
1.16377
0.0501965
-0.0424249
-0.945615
0.937844
0.0352919
-0.0275236
-0.767743
0.759975
0.0208975
-0.014125
-0.625546
0.618774
0.00858447
-0.00296701
-0.510956
0.505338
-0.00132445
0.00503178
-0.416092
0.412385
-0.00735775
0.00793965
-0.31993
0.319349
-0.00660268
0.00396683
-0.183559
0.186195
-0.00170147
-0.0308815
0.0325829
-0.0918843
0.0880651
0.00381917
-0.0110095
0.0108839
-0.441638
0.441764
-0.00816234
0.0035468
-0.554677
0.559292
0.00254859
-0.00830713
-0.650843
0.656601
0.0149482
-0.0210672
-0.758173
0.764292
0.0277532
-0.0337364
-0.880023
0.886006
0.0402087
-0.0455639
-1.01727
1.02262
0.0511706
-0.0552025
-1.17081
1.17484
0.0588956
-0.0611088
-1.34043
1.34264
0.0619369
-0.060695
-1.52626
1.52501
0.0578394
-0.0534962
-1.44943
1.44508
0.0485196
-0.0423899
-1.15701
1.15088
0.0366872
-0.0305717
-0.930523
0.924408
0.0248891
-0.019081
-0.75299
0.747182
0.0138402
-0.00873006
-0.612049
0.606939
0.00456897
-0.000717146
-0.499057
0.495205
-0.00206143
0.00439021
-0.406257
0.403929
-0.00575521
0.00559743
-0.314231
0.314389
-0.00450381
0.00270054
-0.183641
0.185444
-0.00119751
-0.0317929
0.0329904
-0.0888929
0.0858699
0.00302302
-0.0104317
0.0113482
-0.447323
0.446406
-0.0091978
0.00558629
-0.565077
0.568688
-0.000808213
-0.00418143
-0.662246
0.667235
0.00957763
-0.0148013
-0.769988
0.775211
0.0204114
-0.0254695
-0.891609
0.896667
0.0308969
-0.0355868
-1.02786
1.03255
0.0402966
-0.0440444
-1.17882
1.18257
0.0473145
-0.0493185
-1.34468
1.34668
0.0501705
-0.0492118
-1.52391
1.52295
0.0468998
-0.0431534
-1.44055
1.43681
0.0390149
-0.034059
-1.14521
1.14026
0.0293641
-0.0242385
-0.918529
0.913403
0.0196918
-0.0149549
-0.741606
0.736869
0.010887
-0.00683715
-0.601931
0.597881
0.00364316
-0.00072784
-0.490488
0.487573
-0.00150683
0.00323471
-0.399429
0.397701
-0.00403892
0.00409618
-0.310154
0.310097
-0.0034391
0.00200581
-0.182529
0.183963
-0.000962361
-0.0319796
0.032942
-0.0867416
0.0843645
0.00237716
-0.00891752
0.0099031
-0.450999
0.450013
-0.00875526
0.00575183
-0.572997
0.576
-0.0014482
-0.00259541
-0.671661
0.675705
0.00703931
-0.0114001
-0.779854
0.784215
0.0162106
-0.0205996
-0.90142
0.905809
0.0254573
-0.0295061
-1.03699
1.04104
0.0337427
-0.0371669
-1.18613
1.18955
0.0401612
-0.0420542
-1.3486
1.35049
0.0429483
-0.0425765
-1.52214
1.52177
0.0406493
-0.0376269
-1.43297
1.42995
0.0340734
-0.0298021
-1.13546
1.13119
0.0259801
-0.0214704
-0.908489
0.903979
0.0175264
-0.0135608
-0.732322
0.728356
0.010092
-0.00662226
-0.593937
0.590468
0.00382617
-0.00109343
-0.483816
0.481084
-0.000684842
0.00217448
-0.393978
0.392489
-0.00315181
0.00326352
-0.306326
0.306214
-0.0027041
0.00163744
-0.181026
0.182093
-0.000779483
-0.031849
0.0326285
-0.0853959
0.0836265
0.00176942
-0.00707997
0.00810762
-0.453696
0.452669
-0.00706336
0.00480691
-0.579799
0.582055
-0.00111335
-0.00234817
-0.679509
0.68297
0.00641
-0.0100043
-0.788337
0.791931
0.0140754
-0.0178378
-0.910193
0.913956
0.0223531
-0.0259705
-1.04512
1.04873
0.029706
-0.0329733
-1.19285
1.19612
0.0361927
-0.0380663
-1.35252
1.3544
0.0392135
-0.0390323
-1.52121
1.52103
0.0377759
-0.0349962
-1.42694
1.42416
0.0320484
-0.0284172
-1.12697
1.12334
0.0249077
-0.0210347
-0.89968
0.895807
0.0174482
-0.0136857
-0.724281
0.720519
0.0107353
-0.00746357
-0.586887
0.583615
0.0047486
-0.00232482
-0.477782
0.475358
0.000480173
0.00114583
-0.389272
0.387646
-0.00205448
0.00231247
-0.302939
0.302681
-0.0019776
0.0012464
-0.179368
0.180099
-0.000628673
-0.0315255
0.0321542
-0.0847725
0.0833997
0.00137279
-0.00546217
0.0064467
-0.455868
0.454883
-0.0054085
0.00334768
-0.585478
0.587539
-0.000169706
-0.00275995
-0.686252
0.689182
0.00605839
-0.00941918
-0.795582
0.798942
0.0130458
-0.0168618
-0.917555
0.921371
0.0206238
-0.0240115
-1.05244
1.05583
0.0278323
-0.0308774
-1.1993
1.20234
0.0336943
-0.036052
-1.35627
1.35863
0.0375161
-0.0377668
-1.52105
1.5213
0.0368124
-0.034705
-1.4217
1.41959
0.0321291
-0.0288223
-1.11951
1.1162
0.0256497
-0.0220078
-0.891881
0.888239
0.0186319
-0.0151971
-0.716838
0.713403
0.012077
-0.00897336
-0.580201
0.577098
0.00641482
-0.00381509
-0.472321
0.469721
0.00182161
-0.000333335
-0.384575
0.383086
-0.000743
0.00130393
-0.299537
0.298976
-0.00129974
0.000871336
-0.177505
0.177933
-0.000495094
-0.0310698
0.0315649
-0.0847598
0.0835699
0.00118991
-0.0039493
0.00459507
-0.457929
0.457283
-0.0037473
0.00183444
-0.590444
0.592357
0.000855421
-0.00356216
-0.692234
0.694941
0.00661405
-0.00953078
-0.802195
0.805111
0.0131925
-0.0161975
-0.924664
0.927669
0.0198573
-0.0230207
-1.05937
1.06253
0.0266869
-0.0298905
-1.20539
1.20859
0.0329965
-0.0352007
-1.36082
1.36302
0.0371013
-0.0378529
-1.5216
1.52235
0.0376031
-0.0358297
-1.41746
1.41569
0.0336316
-0.030596
-1.11302
1.10998
0.0276311
-0.0240665
-0.884397
0.880832
0.0208563
-0.0173352
-0.709737
0.706216
0.0142206
-0.0110157
-0.57378
0.570575
0.00826624
-0.00575466
-0.4667
0.464188
0.00356881
-0.00184825
-0.379903
0.378182
0.000487541
0.000300121
-0.295929
0.295141
-0.000554802
0.000577925
-0.175282
0.175259
-0.000368257
-0.0304262
0.0307945
-0.0849811
0.084067
0.000914137
-0.00281538
0.00292278
-0.460177
0.46007
-0.00226793
0.000459394
-0.59455
0.596359
0.00177447
-0.00427656
-0.69754
0.700042
0.00709395
-0.0100649
-0.807959
0.81093
0.0130786
-0.0161651
-0.930878
0.933965
0.0197076
-0.0226046
-1.0661
1.06899
0.0262973
-0.0294276
-1.21163
1.21476
0.0325859
-0.035332
-1.36567
1.36842
0.0377779
-0.038935
-1.52325
1.52441
0.0390262
-0.0379725
-1.41417
1.41311
0.0362557
-0.0334408
-1.10683
1.10402
0.030525
-0.0272086
-0.87716
0.873843
0.0236616
-0.0202221
-0.702421
0.698981
0.0170215
-0.0136056
-0.56734
0.563924
0.0108464
-0.00801566
-0.460913
0.458083
0.00570412
-0.00352783
-0.375213
0.373036
0.00202196
-0.000902969
-0.292061
0.290942
0.000172798
0.000230806
-0.172678
0.172275
-0.000270561
-0.0295518
0.0298224
-0.0854969
0.0846972
0.000799671
-0.00201757
0.00215009
-0.462625
0.462492
-0.000961442
-0.000502176
-0.598596
0.60006
0.00277374
-0.00508368
-0.702228
0.704538
0.00768812
-0.010221
-0.813626
0.816159
0.013274
-0.0159912
-0.937043
0.93976
0.0194011
-0.022634
-1.07231
1.07555
0.0259109
-0.0293075
-1.21796
1.22136
0.0328492
-0.0357131
-1.37114
1.374
0.0386061
-0.040637
-1.52588
1.52791
0.0413097
-0.0409764
-1.41205
1.41172
0.0394827
-0.0370266
-1.10126
1.0988
0.034353
-0.030949
-0.870105
0.866701
0.0275003
-0.0238612
-0.695018
0.691379
0.0205047
-0.0168207
-0.560304
0.55662
0.0137324
-0.0107112
-0.454779
0.451758
0.00798626
-0.00552507
-0.369926
0.367465
0.00366331
-0.00213097
-0.287708
0.286176
0.00107323
-0.000224714
-0.169656
0.168808
-0.000130247
-0.0284993
0.0286295
-0.0861619
0.085493
0.000668979
-0.00119772
0.00115034
-0.4651
0.465148
-0.000124706
-0.0014558
-0.60214
0.60372
0.00355939
-0.00565683
-0.706562
0.70866
0.00827028
-0.0105987
-0.818685
0.821014
0.0134244
-0.016173
-0.9429
0.945648
0.0193956
-0.0225087
-1.07862
1.08173
0.0259126
-0.0292756
-1.22469
1.22806
0.032963
-0.0365617
-1.37723
1.38083
0.0399673
-0.0424352
-1.53003
1.5325
0.043975
-0.0441531
-1.41142
1.4116
0.0433141
-0.0414001
-1.09635
1.09444
0.0387128
-0.0353639
-0.863027
0.859678
0.0318719
-0.0279378
-0.68733
0.683396
0.02446