/*--------------------------------*- C++ -*----------------------------------*\
  =========                 |
  \\      /  F ield         | OpenFOAM: The Open Source CFD Toolbox
   \\    /   O peration     | Website:  https://openfoam.org
    \\  /    A nd           | Version:  6
     \\/     M anipulation  |
\*---------------------------------------------------------------------------*/
FoamFile
{
    version     2.0;
    format      ascii;
    class       volVectorField;
    location    "8";
    object      U;
}
// * * * * * * * * * * * * * * * * * * * * * * * * * * * * * * * * * * * * * //

dimensions      [0 1 -1 0 0 0 0];

internalField   nonuniform List<vector> 
8800
(
(0.987154 -0.0766219 0)
(1.0015 -0.055017 0)
(0.999293 -0.028296 0)
(1.00016 -0.0150063 0)
(1.00057 -0.00844141 0)
(1.00018 -0.0047566 0)
(0.9999 -0.0025839 0)
(0.999896 -0.00136864 0)
(0.999931 -0.000657463 0)
(1.00003 -0.000129196 0)
(0.999949 0.000438775 0)
(0.999909 0.00103395 0)
(0.99987 0.0019115 0)
(0.999974 0.00354544 0)
(1.00046 0.00640858 0)
(1.00045 0.0112052 0)
(0.999769 0.0205666 0)
(0.99871 0.0384305 0)
(1.00688 0.072381 0)
(0.771235 0.0366536 0)
(0.364114 -0.0158942 0)
(1.04419 -0.0762244 0)
(1.08519 -0.0698968 0)
(1.04624 -0.0534213 0)
(1.02367 -0.0387492 0)
(1.01132 -0.0255391 0)
(1.00548 -0.0162398 0)
(1.00271 -0.0100192 0)
(1.0014 -0.0055185 0)
(1.00106 -0.00199742 0)
(1.00102 0.000862259 0)
(1.00111 0.00407375 0)
(1.00191 0.00795959 0)
(1.00384 0.0131015 0)
(1.0078 0.0205765 0)
(1.01659 0.0319731 0)
(1.03332 0.0462536 0)
(1.06384 0.0612186 0)
(1.09209 0.0752064 0)
(0.840088 0.056257 0)
(0.220447 -0.00197733 0)
(1.07776 -0.0472682 0)
(1.09903 -0.0440153 0)
(1.06299 -0.0363571 0)
(1.03768 -0.0302238 0)
(1.02125 -0.0239453 0)
(1.01156 -0.0170489 0)
(1.00671 -0.0109377 0)
(1.00451 -0.00578032 0)
(1.00389 -0.000879992 0)
(1.00398 0.00405668 0)
(1.00521 0.00886604 0)
(1.0085 0.0143874 0)
(1.01549 0.0208795 0)
(1.02825 0.0275861 0)
(1.04895 0.033482 0)
(1.07903 0.0396655 0)
(1.10684 0.047381 0)
(0.947248 0.0395431 0)
(0.220204 0.00198784 0)
(0.183179 -0.000379381 0)
(1.0263 -0.0303103 0)
(1.10748 -0.0351289 0)
(1.07829 -0.0299877 0)
(1.05301 -0.0244116 0)
(1.03605 -0.0197704 0)
(1.02464 -0.0156663 0)
(1.01683 -0.0112445 0)
(1.01207 -0.00632631 0)
(1.01005 -0.000866421 0)
(1.01062 0.00472458 0)
(1.01395 0.009764 0)
(1.02009 0.0143069 0)
(1.0294 0.0182951 0)
(1.0433 0.0225118 0)
(1.06381 0.0275963 0)
(1.09484 0.0332942 0)
(1.09857 0.0353482 0)
(0.843311 0.0190629 0)
(0.182776 0.000389551 0)
(0.170135 2.46125e-05 0)
(0.978227 -0.0134549 0)
(1.10205 -0.0212654 0)
(1.08194 -0.0222011 0)
(1.05529 -0.0210829 0)
(1.03804 -0.0188752 0)
(1.02656 -0.0152294 0)
(1.0192 -0.0108753 0)
(1.01473 -0.00598006 0)
(1.01277 -0.000651583 0)
(1.01322 0.00461157 0)
(1.01624 0.00965598 0)
(1.022 0.0141386 0)
(1.03111 0.0179994 0)
(1.04523 0.0207239 0)
(1.06672 0.0223407 0)
(1.09665 0.0225013 0)
(1.07613 0.019153 0)
(0.781217 0.00630933 0)
(0.169561 -9.75818e-06 0)
(0.168023 3.72169e-05 0)
(0.947546 -0.00558398 0)
(1.08879 -0.0134477 0)
(1.08031 -0.0174987 0)
(1.05751 -0.0185713 0)
(1.04207 -0.017824 0)
(1.03117 -0.0153258 0)
(1.02377 -0.0114718 0)
(1.01905 -0.00644522 0)
(1.01673 -0.000517199 0)
(1.01731 0.00551593 0)
(1.02059 0.010826 0)
(1.02641 0.0150622 0)
(1.03527 0.0180021 0)
(1.04834 0.0195525 0)
(1.0667 0.0191116 0)
(1.08972 0.0164833 0)
(1.05239 0.0102836 0)
(0.754344 0.00200826 0)
(0.167188 -2.09559e-05 0)
(0.167182 2.10917e-05 0)
(0.926697 -0.0030864 0)
(1.07005 -0.010179 0)
(1.07231 -0.0160693 0)
(1.05654 -0.0183958 0)
(1.04432 -0.017854 0)
(1.03571 -0.0156296 0)
(1.02948 -0.0116883 0)
(1.02513 -0.00655238 0)
(1.02283 -0.000249703 0)
(1.02329 0.0062365 0)
(1.02624 0.0117258 0)
(1.03127 0.015914 0)
(1.03841 0.0186622 0)
(1.04834 0.0196566 0)
(1.0628 0.018833 0)
(1.07571 0.0143743 0)
(1.02921 0.00693187 0)
(0.740115 0.00109133 0)
(0.166049 -1.98078e-06 0)
(0.167112 2.503e-05 0)
(0.913863 -0.00128257 0)
(1.05271 -0.00590384 0)
(1.0621 -0.0110238 0)
(1.05382 -0.0141552 0)
(1.04557 -0.014822 0)
(1.03876 -0.0133101 0)
(1.03321 -0.0101953 0)
(1.02908 -0.00565107 0)
(1.02688 0.000237293 0)
(1.02717 0.00636159 0)
(1.02983 0.0113086 0)
(1.03422 0.0147398 0)
(1.04006 0.0166239 0)
(1.04757 0.0166782 0)
(1.05594 0.0143117 0)
(1.06062 0.00965793 0)
(1.011 0.00383615 0)
(0.732535 0.000476012 0)
(0.165612 -9.68977e-07 0)
(0.167225 1.94562e-05 0)
(0.907512 -0.000509402 0)
(1.04171 -0.00289963 0)
(1.05402 -0.00609582 0)
(1.05041 -0.00847362 0)
(1.04585 -0.00945106 0)
(1.04136 -0.00892162 0)
(1.03718 -0.00693156 0)
(1.03377 -0.00354065 0)
(1.03184 0.00106995 0)
(1.03186 0.0057985 0)
(1.03385 0.00941487 0)
(1.03696 0.0115447 0)
(1.04093 0.0121671 0)
(1.0452 0.0113254 0)
(1.04933 0.00904458 0)
(1.04945 0.00563262 0)
(1.00014 0.00213198 0)
(0.728605 0.000330946 0)
(0.165287 9.91842e-06 0)
(0.167469 2.25848e-05 0)
(0.904787 -5.18081e-05 0)
(1.03605 -0.0010913 0)
(1.0491 -0.00270686 0)
(1.04769 -0.00410436 0)
(1.0452 -0.00485448 0)
(1.04231 -0.00472091 0)
(1.03929 -0.00353209 0)
(1.03655 -0.0012262 0)
(1.03476 0.00199296 0)
(1.03448 0.00522768 0)
(1.03575 0.00745836 0)
(1.03772 0.00845362 0)
(1.04013 0.00830473 0)
(1.04244 0.00720158 0)
(1.04431 0.00539829 0)
(1.04257 0.00322261 0)
(0.994207 0.0012595 0)
(0.726297 0.000249116 0)
(0.164985 1.27058e-05 0)
(0.167838 2.99353e-05 0)
(0.903985 0.000217297 0)
(1.03362 -0.000136281 0)
(1.04674 -0.000796219 0)
(1.04626 -0.0014113 0)
(1.04486 -0.00173853 0)
(1.04301 -0.00158804 0)
(1.04085 -0.000779438 0)
(1.03867 0.000780106 0)
(1.03696 0.00294332 0)
(1.03632 0.00500748 0)
(1.03685 0.00617887 0)
(1.03785 0.00643551 0)
(1.03908 0.00592868 0)
(1.04018 0.00487711 0)
(1.04094 0.00353925 0)
(1.03852 0.00213715 0)
(0.9908 0.000943285 0)
(0.724658 0.00025429 0)
(0.164653 1.97348e-05 0)
(0.168311 3.30684e-05 0)
(0.904194 0.000373567 0)
(1.0329 0.000427989 0)
(1.04593 0.000318965 0)
(1.04581 0.000233659 0)
(1.0449 0.000297301 0)
(1.04359 0.000626442 0)
(1.04193 0.00134286 0)
(1.04007 0.00250492 0)
(1.03834 0.0039882 0)
(1.03731 0.00524328 0)
(1.03713 0.00579101 0)
(1.03744 0.00551631 0)
(1.03789 0.00481627 0)
(1.0383 0.003841 0)
(1.03852 0.00277177 0)
(1.03583 0.00174447 0)
(0.988444 0.000876581 0)
(0.72317 0.000291126 0)
(0.164231 2.70167e-05 0)
(0.168896 4.08923e-05 0)
(0.905127 0.000550108 0)
(1.0332 0.000860115 0)
(1.04612 0.00109921 0)
(1.04612 0.00138591 0)
(1.04541 0.00178195 0)
(1.04434 0.00234542 0)
(1.0429 0.00312922 0)
(1.04114 0.00413331 0)
(1.03926 0.005213 0)
(1.0378 0.00591615 0)
(1.03703 0.0059408 0)
(1.03671 0.00541551 0)
(1.03662 0.00455704 0)
(1.03661 0.0035789 0)
(1.03655 0.00260451 0)
(1.03372 0.00171159 0)
(0.986441 0.000945226 0)
(0.721591 0.000353215 0)
(0.163694 3.55442e-05 0)
(0.169645 5.1694e-05 0)
(0.906636 0.000740266 0)
(1.03421 0.0012695 0)
(1.04701 0.00178131 0)
(1.04703 0.00237051 0)
(1.04636 0.00306876 0)
(1.04534 0.00389276 0)
(1.04391 0.00483874 0)
(1.04205 0.00584226 0)
(1.03987 0.00670919 0)
(1.03789 0.00703327 0)
(1.03656 0.00666681 0)
(1.03573 0.00587912 0)
(1.03523 0.00486544 0)
(1.03492 0.00380159 0)
(1.03466 0.00279408 0)
(1.03173 0.00189189 0)
(0.984425 0.00110339 0)
(0.719758 0.000437324 0)
(0.16301 4.5647e-05 0)
(0.170598 6.55723e-05 0)
(0.908749 0.000964929 0)
(1.03586 0.00171685 0)
(1.04852 0.00248869 0)
(1.04849 0.00337012 0)
(1.04777 0.00437672 0)
(1.04666 0.00549653 0)
(1.04507 0.00667765 0)
(1.04294 0.00779152 0)
(1.04029 0.00857611 0)
(1.03771 0.00863203 0)
(1.03579 0.00795358 0)
(1.03447 0.00686983 0)
(1.03361 0.00562653 0)
(1.03305 0.00438859 0)
(1.03263 0.00324696 0)
(1.0296 0.00223648 0)
(0.982166 0.00134218 0)
(0.717536 0.000547371 0)
(0.162146 5.80613e-05 0)
(0.171817 8.39991e-05 0)
(0.911553 0.00124846 0)
(1.03816 0.00225446 0)
(1.05065 0.00330917 0)
(1.05053 0.00451054 0)
(1.04968 0.00586361 0)
(1.04837 0.00733285 0)
(1.04648 0.00882284 0)
(1.04389 0.010137 0)
(1.0406 0.0109304 0)
(1.03727 0.0107745 0)
(1.03469 0.00977953 0)
(1.03287 0.00835414 0)
(1.03165 0.00680411 0)
(1.03084 0.00530255 0)
(1.03027 0.00393674 0)
(1.02712 0.00273534 0)
(0.979478 0.00166462 0)
(0.714784 0.000687708 0)
(0.161054 7.33178e-05 0)
(0.173384 0.000108263 0)
(0.915203 0.00161252 0)
(1.04121 0.00292963 0)
(1.05349 0.00432118 0)
(1.05323 0.00590169 0)
(1.05217 0.00766896 0)
(1.05055 0.00956508 0)
(1.04821 0.0114485 0)
(1.04499 0.0130479 0)
(1.04085 0.0139145 0)
(1.03659 0.0135593 0)
(1.03323 0.0122011 0)
(1.03084 0.0103645 0)
(1.02922 0.0084162 0)
(1.02815 0.00655514 0)
(1.02741 0.00487444 0)
(1.02412 0.00340033 0)
(0.976179 0.00208172 0)
(0.711341 0.000864238 0)
(0.15968 9.21914e-05 0)
(0.175412 0.000140508 0)
(0.919917 0.00208719 0)
(1.04517 0.00380098 0)
(1.05718 0.00561323 0)
(1.05673 0.00766108 0)
(1.05538 0.00993944 0)
(1.05333 0.012367 0)
(1.05036 0.0147473 0)
(1.04628 0.016718 0)
(1.04104 0.0177041 0)
(1.03562 0.0171298 0)
(1.03133 0.0153302 0)
(1.02826 0.012979 0)
(1.02617 0.0105204 0)
(1.02479 0.00819037 0)
(1.02386 0.00609471 0)
(1.02041 0.00425891 0)
(0.972071 0.00261355 0)
(0.707019 0.00108635 0)
(0.157954 0.000115616 0)
(0.178053 0.000184284 0)
(0.925995 0.00271634 0)
(1.05024 0.00495049 0)
(1.06192 0.0072983 0)
(1.0612 0.00992764 0)
(1.05945 0.0128453 0)
(1.05681 0.0159414 0)
(1.053 0.0189467 0)
(1.04781 0.0213824 0)
(1.04114 0.0225182 0)
(1.03429 0.0216701 0)
(1.02885 0.0193171 0)
(1.02498 0.016316 0)
(1.02233 0.0132111 0)
(1.02059 0.0102845 0)
(1.01943 0.00765795 0)
(1.01578 0.00535464 0)
(0.966921 0.00328583 0)
(0.701583 0.00136445 0)
(0.155791 0.00014476 0)
(0.181532 0.000246213 0)
(0.933864 0.00357287 0)
(1.05676 0.00649775 0)
(1.06801 0.0095155 0)
(1.06693 0.012858 0)
(1.06462 0.016583 0)
(1.06115 0.0205336 0)
(1.05623 0.0243262 0)
(1.04957 0.0273293 0)
(1.04112 0.0286263 0)
(1.03248 0.0274122 0)
(1.02565 0.024354 0)
(1.02079 0.0205337 0)
(1.01747 0.0166176 0)
(1.0153 0.0129448 0)
(1.01387 0.00965242 0)
(1.00997 0.00675533 0)
(0.960442 0.0041403 0)
(0.69473 0.0017159 0)
(0.153082 0.000181746 0)
(0.18618 0.000336892 0)
(0.944159 0.00477205 0)
(1.06526 0.00859373 0)
(1.07597 0.0124043 0)
(1.07435 0.0166218 0)
(1.0712 0.0214 0)
(1.06659 0.0264637 0)
(1.06016 0.0312455 0)
(1.0516 0.0349193 0)
(1.04088 0.0363575 0)
(1.03004 0.0346379 0)
(1.02152 0.0306783 0)
(1.01547 0.0258345 0)
(1.01134 0.0209125 0)
(1.00864 0.0163217 0)
(1.00688 0.0122121 0)
(1.00268 0.00857272 0)
(0.952266 0.0052491 0)
(0.686062 0.00217012 0)
(0.149686 0.00023056 0)
(0.192508 0.00047037 0)
(0.957828 0.00647453 0)
(1.07661 0.011424 0)
(1.08661 0.0161659 0)
(1.08411 0.021535 0)
(1.07974 0.0277477 0)
(1.07353 0.0342528 0)
(1.06504 0.0402277 0)
(1.05398 0.0446317 0)
(1.04038 0.0461191 0)
(1.02685 0.0436871 0)
(1.01629 0.0385828 0)
(1.00879 0.0324747 0)
(1.00365 0.0263206 0)
(1.00027 0.0206165 0)
(0.998089 0.0155278 0)
(0.993505 0.0109902 0)
(0.941933 0.00675083 0)
(0.675046 0.00278173 0)
(0.145416 0.00029736 0)
(0.20134 0.000671921 0)
(0.976147 0.00899435 0)
(1.0918 0.0153968 0)
(1.10078 0.0213711 0)
(1.09699 0.028399 0)
(1.09091 0.0365366 0)
(1.08245 0.0447724 0)
(1.07115 0.0520336 0)
(1.05681 0.0570874 0)
(1.03961 0.0583905 0)
(1.02281 0.0549408 0)
(1.0098 0.0484017 0)
(1.00052 0.0407595 0)
(0.994105 0.0331131 0)
(0.989827 0.0260601 0)
(0.987033 0.0198066 0)
(0.981927 0.0142172 0)
(0.928939 0.00883205 0)
(0.661109 0.00362679 0)
(0.140046 0.000387429 0)
(0.214049 0.00101294 0)
(1.00068 0.0131066 0)
(1.11179 0.0213598 0)
(1.11935 0.0291401 0)
(1.11369 0.0385129 0)
(1.10515 0.049 0)
(1.09351 0.0590813 0)
(1.07845 0.067519 0)
(1.05995 0.0729309 0)
(1.0384 0.0736365 0)
(1.01775 0.0687506 0)
(1.00184 0.0604434 0)
(0.990426 0.0509909 0)
(0.982405 0.0415797 0)
(0.976912 0.0328903 0)
(0.973211 0.0252078 0)
(0.967367 0.0183563 0)
(0.912777 0.011614 0)
(0.643799 0.00477763 0)
(0.133335 0.00050301 0)
(0.232917 0.00169282 0)
(1.03424 0.0202429 0)
(1.13853 0.0307756 0)
(1.14356 0.0413726 0)
(1.13468 0.0537417 0)
(1.12219 0.0666919 0)
(1.10603 0.0783992 0)
(1.08612 0.0875783 0)
(1.06264 0.0927632 0)
(1.03614 0.0922426 0)
(1.01122 0.08541 0)
(0.992071 0.0750004 0)
(0.978179 0.063512 0)
(0.968202 0.0521292 0)
(0.961132 0.0415409 0)
(0.956167 0.0321171 0)
(0.949229 0.023649 0)
(0.892616 0.0152703 0)
(0.622507 0.00633242 0)
(0.124984 0.000660299 0)
(0.261247 0.0032814 0)
(1.08269 0.0336244 0)
(1.1747 0.0476052 0)
(1.1746 0.0621261 0)
(1.15995 0.0775751 0)
(1.14136 0.092292 0)
(1.11905 0.104637 0)
(1.09314 0.113418 0)
(1.06398 0.117267 0)
(1.03212 0.11458 0)
(1.00271 0.105197 0)
(0.980141 0.0924114 0)
(0.963538 0.0787993 0)
(0.951277 0.0654422 0)
(0.94222 0.0529492 0)
(0.93549 0.0417033 0)
(0.926805 0.0314952 0)
(0.866882 0.0209479 0)
(0.595663 0.00857917 0)
(0.115085 0.000869747 0)
(0.302389 0.0109554 -1.36686e-20)
(1.14645 0.061246 -1.02608e-20)
(1.21995 0.07952 2.80023e-21)
(1.21008 0.0972074 0)
(1.18731 0.113743 3.40512e-36)
(1.16111 0.128195 1.12216e-22)
(1.13157 0.139406 -1.17522e-21)
(1.09888 0.146326 0)
(1.06342 0.147749 4.60777e-35)
(1.02572 0.142189 -3.52609e-21)
(0.991367 0.129939 0)
(0.964892 0.114794 -5.11272e-21)
(0.944988 0.0992721 -1.568e-20)
(0.929719 0.084299 -7.60489e-21)
(0.91777 0.0704496 -2.40326e-21)
(0.908088 0.0580828 -1.45931e-21)
(0.896262 0.0470928 0)
(0.833146 0.0348721 1.05835e-21)
(0.560531 0.0187906 1.25611e-21)
(0.105046 0.00367604 2.23616e-20)
(0.324218 0.0291919 -2.52339e-20)
(1.1986 0.108548 5.20317e-22)
(1.26123 0.130315 -1.39075e-21)
(1.24222 0.146457 0)
(1.21177 0.160962 2.25616e-21)
(1.1782 0.173404 1.29879e-21)
(1.14171 0.182483 -6.91839e-22)
(1.10235 0.187216 -5.72433e-21)
(1.06035 0.186305 0)
(1.0161 0.17824 1.48458e-20)
(0.975718 0.163702 1.65446e-20)
(0.944079 0.146929 5.33928e-21)
(0.91959 0.130423 2.12513e-20)
(0.900027 0.114943 3.15102e-20)
(0.883926 0.100962 0)
(0.870082 0.0888285 4.72113e-20)
(0.853602 0.0790363 6.95324e-20)
(0.790634 0.0652474 7.80027e-20)
(0.53624 0.0438162 -9.10505e-20)
(0.103795 0.00932635 -1.65561e-21)
(0.314315 0.0475805 0)
(1.22916 0.169904 -7.58407e-21)
(1.29209 0.193478 0)
(1.26707 0.205626 1.20188e-20)
(1.2303 0.216192 0)
(1.19052 0.224831 6.35179e-21)
(1.14796 0.230485 5.55188e-22)
(1.10268 0.231934 -7.99697e-21)
(1.05486 0.227912 -1.54122e-21)
(1.00474 0.216966 7.08721e-21)
(0.958975 0.200239 3.85068e-20)
(0.922977 0.182301 -2.46642e-22)
(0.894919 0.165521 -1.59506e-20)
(0.872279 0.150511 -3.10826e-20)
(0.853497 0.137595 3.78669e-20)
(0.837401 0.126976 -6.81101e-20)
(0.82002 0.118529 -9.37346e-21)
(0.763887 0.105697 0)
(0.532466 0.0748632 4.68225e-22)
(0.110214 0.0163255 0)
(0.300632 0.0626794 -1.90296e-19)
(1.24231 0.234534 7.79012e-20)
(1.31076 0.260888 4.11235e-20)
(1.28256 0.2693 -7.8749e-21)
(1.24171 0.275531 1.20669e-20)
(1.19761 0.279781 -1.55443e-20)
(1.15037 0.281365 8.96356e-23)
(1.10026 0.279012 0)
(1.04753 0.271492 -2.67686e-20)
(0.992522 0.257378 0)
(0.942534 0.238296 -1.94239e-20)
(0.903377 0.219086 -2.7707e-20)
(0.87302 0.201932 -1.77993e-20)
(0.84883 0.18716 -2.30661e-20)
(0.829124 0.174832 0)
(0.812616 0.164977 0)
(0.79585 0.157308 -6.26086e-20)
(0.744878 0.143958 1.25519e-20)
(0.526552 0.102881 -7.37229e-21)
(0.111071 0.0225062 -8.6267e-21)
(0.288756 0.0760641 1.39434e-19)
(1.24383 0.298314 0)
(1.31963 0.328547 -1.14434e-19)
(1.28961 0.333678 -2.95367e-20)
(1.24622 0.33557 -2.27906e-20)
(1.19906 0.335689 0)
(1.14856 0.333158 -3.64122e-21)
(1.0949 0.32694 6.31483e-21)
(1.03838 0.315777 1.12547e-20)
(0.979367 0.298329 3.53396e-20)
(0.925837 0.276659 0)
(0.884211 0.255856 -6.00537e-20)
(0.852336 0.237868 -3.86279e-20)
(0.827297 0.22279 -2.33227e-20)
(0.807224 0.210455 1.53597e-19)
(0.790745 0.20074 1.88769e-20)
(0.774622 0.193054 9.04178e-20)
(0.726723 0.178512 -4.39457e-19)
(0.516913 0.127548 2.62836e-19)
(0.109888 0.0279284 -3.17869e-19)
(0.279375 0.0881253 1.46297e-19)
(1.23822 0.359509 -2.69671e-20)
(1.32123 0.394465 2.002e-20)
(1.29033 0.396763 5.45595e-20)
(1.24529 0.394654 3.38101e-20)
(1.19604 0.390803 1.57196e-21)
(1.14309 0.384408 3.48943e-21)
(1.08665 0.374494 3.71377e-21)
(1.02706 0.359804 -2.43727e-20)
(0.964774 0.338994 0)
(0.908448 0.314539 -2.56234e-20)
(0.864982 0.291808 -1.50893e-21)
(0.832067 0.272584 -4.32702e-20)
(0.80658 0.256719 0)
(0.786478 0.243855 -3.35099e-20)
(0.770259 0.233699 -8.16126e-20)
(0.754729 0.22549 2.26463e-19)
(0.708851 0.209334 -2.27101e-19)
(0.505746 0.149651 3.23987e-19)
(0.107693 0.0326746 -3.37969e-19)
(0.272352 0.0994136 -6.36754e-22)
(1.22854 0.417361 3.27591e-20)
(1.31741 0.4575 9.54808e-20)
(1.28612 0.457385 -3.3279e-20)
(1.24001 0.451724 1.93305e-20)
(1.18939 0.444261 0)
(1.1347 0.434335 9.67282e-21)
(1.07621 0.420969 -1.85669e-21)
(1.01425 0.402958 -1.0643e-20)
(0.949323 0.378881 0)
(0.890607 0.35154 -2.46856e-20)
(0.845572 0.326627 -3.52654e-20)
(0.811865 0.305775 4.73594e-20)
(0.78611 0.288698 -3.04417e-20)
(0.766083 0.274913 -1.47953e-19)
(0.750146 0.26398 9.11437e-20)
(0.735116 0.254998 2.90363e-20)
(0.690821 0.237138 0)
(0.493632 0.169365 -3.15199e-19)
(0.104841 0.0367774 -1.1605e-20)
(0.267045 0.110176 2.37199e-20)
(1.21654 0.471654 -3.75121e-20)
(1.30956 0.517011 -5.20276e-20)
(1.27822 0.514863 -1.02629e-19)
(1.23155 0.506158 9.34637e-20)
(1.1801 0.495539 -5.11803e-20)
(1.12428 0.482437 -2.09098e-20)
(1.06422 0.465931 -1.73017e-21)
(1.00032 0.444856 1.14979e-20)
(0.933075 0.417695 -8.4797e-20)
(0.872222 0.387445 -3.06908e-20)
(0.825754 0.360106 0)
(0.791341 0.337316 5.19591e-20)
(0.765401 0.318694 6.45452e-20)
(0.745508 0.303653 7.96271e-20)
(0.729903 0.291693 -9.98813e-20)
(0.715369 0.281717 -3.01671e-20)
(0.67246 0.262014 3.59027e-20)
(0.480605 0.186784 0)
(0.101495 0.0402463 -2.55005e-20)
(0.26295 0.120487 -2.73464e-19)
(1.20346 0.522419 1.71793e-19)
(1.29887 0.572799 5.70141e-20)
(1.26766 0.568908 -7.81864e-20)
(1.22074 0.557607 5.5679e-20)
(1.16881 0.544249 -3.75137e-21)
(1.11222 0.528364 2.12221e-20)
(1.05105 0.509074 -1.03029e-21)
(0.985556 0.485223 -1.86385e-20)
(0.916279 0.455246 8.42069e-23)
(0.853371 0.422157 -9.08079e-20)
(0.805463 0.392243 9.07519e-20)
(0.77031 0.367239 -5.8652e-20)
(0.74417 0.346742 7.33053e-20)
(0.724434 0.330169 0)
(0.709199 0.316947 -5.46399e-20)
(0.695178 0.305817 -1.31791e-21)
(0.653532 0.284144 -1.58072e-19)
(0.466693 0.202028 -2.3398e-20)
(0.097658 0.043054 0)
(0.259732 0.130405 0)
(1.18993 0.569874 1.84909e-19)
(1.28625 0.624895 1.3255e-19)
(1.25522 0.61952 8.80816e-20)
(1.20831 0.605981 5.41329e-20)
(1.15615 0.59025 0)
(1.09909 0.571915 1.88146e-20)
(1.03712 0.550211 -1.38856e-21)
(0.970376 0.523962 3.85266e-20)
(0.899219 0.491476 -1.00372e-20)
(0.834203 0.455723 -6.67833e-20)
(0.78468 0.423161 4.52354e-20)
(0.748637 0.395679 -2.15321e-21)
(0.722207 0.372995 7.75928e-20)
(0.702617 0.354595 5.09716e-20)
(0.687769 0.33985 -1.19487e-19)
(0.674319 0.327377 1.45245e-19)
(0.633855 0.303491 4.37031e-20)
(0.451736 0.214993 1.81172e-19)
(0.0932708 0.0449855 -4.84323e-19)
(0.257137 0.140032 -6.94531e-20)
(1.17638 0.614092 1.06481e-19)
(1.27242 0.673386 -8.21117e-20)
(1.24156 0.666757 -1.01905e-19)
(1.19481 0.651281 0)
(1.14265 0.633473 4.42445e-20)
(1.08534 0.613022 -5.60322e-20)
(1.02282 0.58923 -3.91335e-21)
(0.955093 0.561006 0)
(0.882184 0.526389 -1.57305e-19)
(0.814879 0.48824 1.82819e-19)
(0.763457 0.453016 0)
(0.726232 0.422823 7.04259e-20)
(0.699343 0.397624 -2.26249e-21)
(0.679819 0.377087 -1.62858e-19)
(0.665357 0.360534 6.38853e-20)
(0.652494 0.346484 0)
(0.613193 0.320283 2.38166e-19)
(0.435623 0.225717 0)
(0.0883321 0.0462618 -2.32793e-19)
(0.254965 0.149295 7.69564e-20)
(1.16293 0.655286 1.2168e-19)
(1.25787 0.718518 -8.60132e-20)
(1.22715 0.710737 0)
(1.18064 0.693555 7.41692e-20)
(1.12864 0.673921 0)
(1.07132 0.651632 7.21284e-20)
(1.00848 0.626102 9.40745e-21)
(0.939948 0.596295 2.69599e-21)
(0.865443 0.560075 -7.74119e-20)
(0.795648 0.519848 1.75216e-20)
(0.741869 0.482051 0)
(0.703066 0.448955 -1.51102e-19)
(0.675446 0.420902 2.37342e-21)
(0.655822 0.397846 0)
(0.641719 0.379189 2.56014e-21)
(0.629456 0.363271 2.17701e-19)
(0.591229 0.334476 -2.10998e-19)
(0.418099 0.234074 6.23906e-20)
(0.0827007 0.046694 0)
(0.252921 0.158099 0)
(1.14978 0.693975 1.35518e-19)
(1.24284 0.760492 1.00427e-19)
(1.21229 0.751619 -1.97409e-21)
(1.16612 0.732905 4.58821e-20)
(1.1144 0.711644 1.05563e-19)
(1.05727 0.687768 -2.39884e-20)
(0.99436 0.660815 5.50365e-21)
(0.925212 0.629826 1.91568e-20)
(0.849199 0.592551 -1.19076e-19)
(0.776728 0.550724 -3.67457e-21)
(0.720092 0.51054 -6.11442e-20)
(0.679165 0.474426 2.5008e-19)
(0.65038 0.443212 -2.93308e-21)
(0.630492 0.417194 -1.31403e-19)
(0.616628 0.39593 -2.39842e-19)
(0.604873 0.377888 0)
(0.567646 0.346128 0)
(0.398926 0.239975 6.97311e-20)
(0.0763235 0.0461725 -4.06766e-20)
(0.251187 0.166606 9.49361e-20)
(1.13689 0.730036 -2.94976e-19)
(1.22767 0.79946 -1.0733e-19)
(1.19726 0.78955 0)
(1.15148 0.769448 -1.43695e-21)
(1.10017 0.74673 1.25854e-19)
(1.04339 0.721479 -7.83047e-20)
(0.980639 0.693369 -4.38894e-20)
(0.911123 0.661603 1.52372e-20)
(0.833642 0.623822 -8.94547e-20)
(0.758317 0.581074 -1.55621e-19)
(0.698305 0.53881 1.63786e-19)
(0.654612 0.499678 0)
(0.624102 0.464934 -5.98157e-20)
(0.603554 0.435588 -1.45721e-19)
(0.589669 0.411005 -1.76134e-19)
(0.578437 0.390405 -2.14508e-19)
(0.542281 0.35523 6.46322e-20)
(0.377729 0.243081 -3.78222e-20)
(0.0690834 0.0445923 7.2861e-22)
(0.249372 0.174643 0)
(1.12434 0.763784 0)
(1.21251 0.835645 2.19938e-21)
(1.18223 0.824706 0)
(1.13689 0.803327 -1.71924e-19)
(1.08607 0.779287 -1.10544e-19)
(1.02982 0.752825 0)
(0.967423 0.723778 -9.37867e-21)
(0.897836 0.691604 9.21081e-21)
(0.818981 0.653938 -2.04669e-19)
(0.740569 0.611014 0)
(0.67675 0.567177 -1.06034e-19)
(0.629514 0.525147 -3.45031e-21)
(0.596469 0.486636 -2.82525e-21)
(0.574474 0.453088 1.57778e-19)
(0.560727 0.424712 -1.85142e-22)
(0.550425 0.400637 -4.7183e-19)
(0.515198 0.361514 1.42842e-19)
(0.354231 0.242926 4.26146e-20)
(0.0608532 0.0418072 0)
(0.247539 0.182186 -3.47219e-19)
(1.11195 0.795871 -1.79686e-19)
(1.19741 0.869235 -2.66729e-19)
(1.16732 0.857256 3.75483e-19)
(1.12248 0.834673 -3.21425e-19)
(1.07225 0.809421 0)
(1.01665 0.781886 -6.62133e-20)
(0.95483 0.75207 1.85707e-20)
(0.885425 0.719792 3.75868e-21)
(0.805444 0.682898 1.65914e-20)
(0.723839 0.64051 1.95231e-19)
(0.655787 0.595913 -3.61919e-20)
(0.604082 0.551239 -1.5791e-19)
(0.567131 0.508735 -7.30971e-20)
(0.543068 0.469964 8.89148e-20)
(0.529252 0.437844 -8.50075e-23)
(0.519558 0.409521 1.31625e-19)
(0.484472 0.365276 -3.13119e-19)
(0.327196 0.239347 3.76437e-19)
(0.051579 0.0377834 5.42273e-20)
(0.245588 0.189299 1.26958e-19)
(1.09977 0.825884 -9.76539e-20)
(1.18251 0.900337 5.28086e-21)
(1.15262 0.887364 2.1101e-19)
(1.10832 0.863647 7.44858e-20)
(1.05876 0.837254 2.20902e-19)
(1.00394 0.80874 -2.84037e-20)
(0.942918 0.778271 8.80262e-20)
(0.873994 0.746155 1.87847e-20)
(0.793204 0.710584 -1.06699e-19)
(0.708541 0.669622 0)
(0.63571 0.625134 -1.66087e-19)
(0.578477 0.578205 2.32059e-19)
(0.536295 0.531632 0)
(0.509507 0.488039 -1.91828e-19)
(0.494541 0.449433 1.20317e-19)
(0.48504 0.41621 -1.44051e-19)
(0.449986 0.365648 -1.7514e-19)
(0.296179 0.2315 -3.10637e-19)
(0.0411462 0.0322456 -2.42759e-19)
(0.243879 0.196074 -1.38843e-19)
(1.08777 0.853856 1.04391e-19)
(1.16788 0.92913 2.46511e-19)
(1.13822 0.915182 2.89167e-19)
(1.09449 0.890395 -1.56441e-19)
(1.04565 0.86292 1.51829e-19)
(0.991746 0.83348 -8.94253e-20)
(0.931709 0.802451 1.07009e-19)
(0.863597 0.770698 1.9884e-20)
(0.782448 0.736921 9.62849e-20)
(0.694815 0.698423 4.16058e-19)
(0.616503 0.654798 0)
(0.553124 0.606222 0)
(0.505473 0.556334 -8.50579e-20)
(0.474187 0.508137 0)
(0.457241 0.462218 2.64374e-19)
(0.446562 0.42071 3.19271e-19)
(0.411318 0.361536 0)
(0.260416 0.218246 0)
(0.0296901 0.0251064 2.69378e-19)
(0.242003 0.202295 1.52435e-19)
(1.076 0.879982 1.23732e-19)
(1.15359 0.955772 1.76726e-19)
(1.12416 0.940886 -2.56671e-19)
(1.08102 0.915067 -1.7367e-19)
(1.03295 0.886548 -2.00134e-19)
(0.980058 0.856215 1.32926e-19)
(0.921218 0.824673 1.70846e-21)
(0.854255 0.793392 -4.81053e-21)
(0.773287 0.761877 -7.15303e-21)
(0.682692 0.726838 2.11229e-19)
(0.598486 0.685027 0)
(0.529246 0.635423 2.38836e-19)
(0.476124 0.584188 1.80738e-19)
(0.437734 0.529307 4.66746e-19)
(0.414967 0.476101 1.43629e-19)
(0.401374 0.42477 -1.80119e-19)
(0.366883 0.351649 -1.07019e-19)
(0.221478 0.198289 0)
(0.0191081 0.0169547 2.98215e-19)
(0.240467 0.20842 -3.33592e-19)
(1.06449 0.904368 0)
(1.13967 0.980419 1.96031e-19)
(1.11048 0.964618 -2.09446e-19)
(1.06794 0.937807 1.95236e-19)
(1.02066 0.908269 2.90266e-19)
(0.96888 0.877044 -3.06531e-19)
(0.911418 0.844996 3.72956e-21)
(0.845974 0.814246 0)
(0.76568 0.785414 -7.83072e-20)
(0.672344 0.754788 -4.37046e-19)
(0.582268 0.715644 2.29097e-20)
(0.506909 0.667082 3.29141e-19)
(0.446688 0.613594 0)
(0.39885 0.556562 3.16291e-19)
(0.365752 0.493621 0)
(0.346207 0.426063 0)
(0.312138 0.32786 -1.21778e-19)
(0.186997 0.162167 0)
(0.0262885 0.011462 8.13335e-20)
(0.238729 0.214011 -3.62547e-19)
(1.05323 0.927241 0)
(1.12607 1.00328 3.1638e-19)
(1.09715 0.986624 0)
(1.0552 0.958883 -1.0531e-19)
(1.0087 0.928374 0)
(0.958093 0.896269 -2.23521e-20)
(0.902165 0.863756 -1.89434e-20)
(0.838588 0.833582 -4.39623e-21)
(0.759437 0.807831 -6.79796e-20)
(0.664002 0.782475 1.08945e-20)
(0.568163 0.746565 1.93656e-19)
(0.484764 0.700307 3.20423e-19)
(0.414745 0.648049 4.61029e-20)
(0.356308 0.586461 2.4805e-19)
(0.309193 0.519781 0)
(0.271504 0.435505 3.97457e-19)
(0.22975 0.28679 -2.40866e-19)
(0.0982458 0.136095 2.80478e-19)
(-0.0196955 0.391373 -3.38439e-19)
(0.237151 0.219442 2.94619e-19)
(1.0421 0.948757 4.63148e-19)
(1.11268 1.02465 0)
(1.08401 1.00728 3.77914e-21)
(1.04259 0.978773 2.84573e-19)
(0.996768 0.947398 -5.57307e-19)
(0.947304 0.914436 -1.34253e-19)
(0.893036 0.881527 0)
(0.831689 0.852042 -5.64797e-20)
(0.754497 0.83 -2.58775e-22)
(0.65802 0.81156 0)
(0.555511 0.780918 0)
(0.462616 0.738587 2.84162e-19)
(0.381197 0.684336 -1.44943e-19)
(0.308149 0.629742 -2.46975e-19)
(0.247229 0.560857 0)
(0.166159 0.456725 2.02053e-19)
(0.0659893 0.528433 -2.43938e-19)
(0.0581988 1.71137 -1.36513e-19)
(0.0915279 2.7185 -1.6865e-19)
(0.23546 0.224335 -2.13817e-19)
(1.03111 0.969091 -5.81008e-19)
(1.09953 1.04449 1.80645e-19)
(1.07117 1.02656 1.75107e-19)
(1.03018 0.997377 0)
(0.984943 0.965196 -3.97703e-19)
(0.936587 0.931336 -2.23164e-19)
(0.883982 0.897872 1.23496e-20)
(0.825132 0.869039 -8.34822e-21)
(0.751023 0.851152 3.40875e-20)
(0.65463 0.841389 1.94352e-19)
(0.544542 0.81934 2.07877e-19)
(0.441699 0.779707 2.82894e-19)
(0.347709 0.728716 -3.32497e-19)
(0.265287 0.679821 -3.63414e-19)
(0.188539 0.624719 0)
(0.101332 0.879282 0)
(0.148675 2.41857 1.0544e-19)
(0.15825 3.14227 0)
(0.155399 3.35524 2.52431e-19)
(0.236973 0.228662 0)
(1.01993 0.988328 0)
(1.08655 1.06268 0)
(1.05841 1.04436 4.83257e-20)
(1.01776 1.01459 2.5326e-19)
(0.97305 0.981719 -3.01991e-19)
(0.925896 0.946878 -1.59646e-19)
(0.874919 0.912413 1.39321e-20)
(0.818964 0.883985 -1.13828e-19)
(0.749487 0.870852 -1.35638e-20)
(0.653366 0.872433 3.47957e-19)
(0.534681 0.859539 -2.51727e-20)
(0.420787 0.825742 3.26269e-20)
(0.320782 0.771046 4.73007e-20)
(0.237575 0.737802 2.44065e-21)
(0.162038 0.979464 1.84366e-21)
(0.199907 2.53556 -4.98317e-19)
(0.226349 3.25494 -1.90303e-19)
(0.206122 3.41382 9.07233e-20)
(0.185742 3.44133 -9.32302e-20)
(0.152151 0.168831 1.20761e-19)
(1.00252 1.00904 0)
(1.07415 1.0795 -3.50784e-19)
(1.04596 1.06103 -4.50574e-19)
(1.00573 1.03088 5.21873e-19)
(0.961536 0.997343 3.19764e-19)
(0.915004 0.961151 1.87649e-19)
(0.865814 0.92538 -2.29298e-19)
(0.813053 0.898039 1.14587e-19)
(0.750018 0.889472 0)
(0.655767 0.902952 1.44231e-19)
(0.528782 0.902442 -1.60103e-19)
(0.403148 0.873109 0)
(0.29893 0.818349 4.2629e-20)
(0.226449 0.920597 1.00441e-19)
(0.206299 2.16659 -1.19911e-19)
(0.296211 3.28568 1.33273e-19)
(0.275131 3.43535 6.44063e-20)
(0.231803 3.46453 7.46651e-20)
(0.202937 3.47767 9.3261e-20)
(0.273071 0.266202 -2.31841e-19)
(0.977923 1.01166 0)
(1.0546 1.10046 3.54743e-19)
(1.0273 1.08485 4.60025e-19)
(0.98693 1.05392 -5.32938e-19)
(0.942933 1.01905 -3.36183e-19)
(0.897728 0.98166 -2.83076e-19)
(0.851893 0.94443 -1.75148e-20)
(0.806497 0.915666 -1.60188e-19)
(0.753329 0.913968 -6.98269e-20)
(0.662021 0.95208 4.26221e-21)
(0.520495 0.983737 1.40006e-19)
(0.372113 0.960939 2.99294e-20)
(0.284261 1.0517 -3.93202e-20)
(0.307734 2.10136 -8.36194e-20)
(0.379018 3.27574 5.7618e-20)
(0.372799 3.47326 -4.93526e-20)
(0.326851 3.50479 -2.832e-20)
(0.281415 3.53918 1.01824e-20)
(0.216312 3.53022 -3.56921e-22)
(0.262078 0.264236 0)
(0.972464 1.03019 9.30998e-20)
(1.04287 1.11806 -6.99741e-20)
(1.0147 1.10169 -5.08722e-20)
(0.974253 1.07021 -3.47497e-19)
(0.93062 1.03444 3.27281e-19)
(0.886067 0.995509 1.89782e-19)
(0.842405 0.95644 -1.83301e-20)
(0.802526 0.927038 1.9757e-19)
(0.761324 0.92955 -2.16761e-20)
(0.679199 0.983802 -1.78986e-19)
(0.520777 1.04202 2.15104e-20)
(0.363398 1.03612 -2.80469e-20)
(0.328292 1.39939 -3.23386e-20)
(0.421207 2.91918 1.91326e-20)
(0.471773 3.45398 1.22631e-21)
(0.415755 3.54587 -5.01259e-20)
(0.375756 3.57769 -6.52182e-20)
(0.303117 3.61008 9.1137e-20)
(0.233909 3.59957 3.55067e-20)
(0.246185 0.259992 2.28419e-19)
(0.965666 1.0515 6.21121e-19)
(1.0304 1.13718 -1.97996e-19)
(1.0012 1.11966 -1.92487e-19)
(0.960608 1.08737 0)
(0.917206 1.05033 4.72238e-19)
(0.873443 1.00954 2.86807e-19)
(0.83246 0.968196 -1.92203e-20)
(0.799036 0.936768 2.17416e-20)
(0.771723 0.944299 1.76888e-19)
(0.705406 1.02381 -3.93866e-20)
(0.538095 1.10763 -1.55644e-19)
(0.37504 1.14461 -2.10546e-19)
(0.409242 1.90234 1.86437e-19)
(0.533868 3.29463 7.44238e-20)
(0.545114 3.53814 0)
(0.477864 3.59962 0)
(0.421077 3.66609 9.00816e-20)
(0.337197 3.73066 0)
(0.248909 3.69743 1.69304e-19)
(0.234303 0.259688 -3.30761e-19)
(0.956537 1.07378 -5.13386e-19)
(1.01623 1.15728 0)
(0.986074 1.13826 3.36562e-21)
(0.945337 1.1049 -3.32729e-19)
(0.902039 1.06626 6.9576e-19)
(0.859111 1.02318 1.91591e-19)
(0.82068 0.978371 -2.18666e-20)
(0.79456 0.943093 2.16405e-19)
(0.784313 0.952886 -1.49016e-20)
(0.732422 1.05002 0)
(0.564456 1.17596 0)
(0.414974 1.30242 -1.88235e-19)
(0.510313 2.45377 4.92601e-20)
(0.649297 3.44484 -9.85736e-21)
(0.614932 3.58764 0)