/*--------------------------------*- C++ -*----------------------------------*\
  =========                 |
  \\      /  F ield         | OpenFOAM: The Open Source CFD Toolbox
   \\    /   O peration     | Website:  https://openfoam.org
    \\  /    A nd           | Version:  6
     \\/     M anipulation  |
\*---------------------------------------------------------------------------*/
FoamFile
{
    version     2.0;
    format      ascii;
    class       surfaceScalarField;
    location    "62";
    object      phi;
}
// * * * * * * * * * * * * * * * * * * * * * * * * * * * * * * * * * * * * * //

dimensions      [0 3 -1 0 0 0 0];

internalField   nonuniform List<scalar> 
1300
(
3.75095
5.62643
-3.34371
3.75095
-7.75037
5.62643
-4.25907
4.25907
-0.4808
0.4808
1.87648
1.87447
-2.43887
2.43887
-1.8775
1.8775
-2.52704
2.52704
-5.248
5.248
-5.07004
5.07004
4.70366
-4.70366
-6.32148
6.32148
-0.975528
0.975528
-3.55926
3.55926
3.17257
-3.17257
-1.95152
1.95152
-0.0169121
0.0169121
-0.554086
4.30504
3.19687
3.19687
-1.96352
1.96352
-4.87434
4.87434
6.22249
-6.22249
5.26624
-5.26624
-1.92253
-2.48676
1.8033
-11.5082
-5.94708
-5.94708
-8.44099
8.44099
-2.81456
2.81187
2.94698
-2.94698
-1.72824
1.72824
-4.27346
0.0143947
-4.27346
4.2309
0.0281658
4.2309
-0.559232
0.0784328
-0.559232
3.92759
-3.92759
0.39055
0.0902498
0.39055
3.06722
-3.06722
-1.87686
3.75334
1.87409
-1.87209
6.17713
-1.87887
3.75334
-6.07304
6.07304
-2.6689
0.230031
-2.6689
2.23985
0.199012
2.23985
-6.88107
6.88107
-1.93337
0.0558719
-1.93337
1.88727
-0.00977261
1.88727
2.88695
-2.88695
-2.63232
0.105285
-2.63232
2.38994
0.137097
2.38994
0.353392
5.27304
-5.97982
8.79169
-5.27304
0.0250398
5.21017
0.0378236
5.21017
-5.10531
0.0352717
-5.10531
5.01253
0.0575127
5.01253
4.7938
-0.0901396
4.7938
-4.82221
0.118556
-4.82221
-3.35944
-4.07957
-6.48267
0.161193
-6.48267
-1.03607
0.0605434
-1.03607
0.867434
0.108094
0.867434
-3.71345
3.71345
-3.91964
0.360384
-3.91964
3.12755
0.0450183
3.12755
1.86812
1.88283
5.61908
-5.61908
2.44651
-1.90256
-0.0489575
-1.90256
-2.01167
-3.25457
2.01167
-0.0601557
-0.238378
0.221466
-0.238378
3.1571
0.0397698
3.1571
2.2477
0.142247
-2.2477
0.284172
3.29589
-3.29589
1.30684
0.65668
1.30684
-5.55844
5.55844
4.96153
0.0509959
-4.96153
0.0871912
6.15739
0.0651076
6.15739
-6.20764
-0.0148578
-6.20764
2.48577
-4.97253
-2.64163
6.13395
0.187526
-6.13395
0.186878
2.91842
0.0285594
2.91842
-2.91988
2.91988
-2.98404
0.0370592
-2.98404
-2.15129
0.423055
-2.15129
1.41336
0.31488
1.41336
-4.18578
-0.087682
-4.18578
-4.07761
0.15797
4.07761
0.153293
1.11413
-1.11413
-0.645453
0.0862205
-0.645453
-4.03219
-0.153588
4.03219
-0.104605
-3.87089
-0.056695
-3.87089
-3.02177
0.037739
3.02177
0.0454426
3.11207
0.0450307
-3.11207
0.0448495
-1.87099
3.75382
-1.87996
3.75406
-5.69134
-0.381692
-5.69134
6.35797
-0.284939
6.35797
3.08649
0.472762
-3.08649
0.417598
2.09986
0.139995
2.09986
-6.85556
-0.0255068
-6.85556
6.88509
-0.0040257
6.88509
2.00445
0.0954114
-2.00445
0.0710763
1.88416
0.00310818
1.88416
2.9142
-0.0272546
2.9142
-2.88109
-0.00586312
-2.88109
2.79296
-2.79296
2.72026
0.0726918
-2.72026
0.0879401
-11.1241
11.1093
-0.0362106
-11.0879
5.17396
5.17396
4.24814
0.545662
4.24814
-5.01657
0.194354
-5.01657
2.66089
-5.30252
3.09948
-6.45892
4.68062
-16.1888
4.29771
-8.37727
6.73392
-6.73392
6.61538
0.118545
-6.61538
0.132705
-1.13452
0.0984501
-1.13452
-3.11793
-0.595522
-3.11793
4.36124
-0.647784
4.36124
-3.0278
3.0278
-3.07651
0.0487087
3.07651
0.0510365
1.88115
0.0030115
-1.88115
-0.0214066
0.30081
0.0897396
-0.30081
0.0624323
3.51554
-0.219643
3.51554
-3.09338
-0.202511
-3.09338
-1.22389
0.0893682
1.22389
0.0829542
-5.80736
0.248922
-5.80736
-11.1817
0.0938277
-11.1439
-6.11381
-6.11381
2.32718
11.1189
-2.89663
0.015543
2.89663
0.0217872
2.97539
0.0524173
-2.97539
0.0555062
-2.8599
0.0669484
2.8599
0.0599754
-2.51973
0.368442
-2.51973
-1.0271
1.0271
-1.17595
0.148849
1.17595
0.237411
1.41211
-0.297972
1.41211
0.758998
0.108435
-0.758998
0.113545
-3.82012
-0.0507721
-3.82012
6.5947
-0.236721
6.5947
-2.96503
-0.128353
2.96503
-0.0508235
-0.034784
11.144
-5.13918
0.0338699
5.13918
-11.2092
11.243
-3.22592
0.706192
3.22592
1.02221
5.28454
0.2739
-5.28454
0.267967
6.82493
0.060163
-6.82493
0.0910073
-2.62805
-0.489886
-2.62805
-5.09516
-0.596186
5.09516
-0.73392
-11.4819
-0.203894
11.6858
-11.4244
6.01125
0.146136
-6.01125
11.3892
-0.994625
-0.119508
0.994625
0.0324707
1.75038
-0.33827
1.75038
3.72899
-0.213456
-3.72899
-0.0911297
-6.74944
-0.106121
6.74944
-0.154744
-2.17909
-0.448951
2.17909
-0.428719
-4.26736
4.30713
1.90977
-2.33819
-2.63434
-5.59276
1.85521
1.89861
4.30172
-10.1736
-6.01521
-9.9867
7.21425
-6.94628
-9.33449
9.24435
7.90199
-7.95868
-5.77763
5.82866
6.4845
-6.43906
1.87938
1.87396
8.03739
-7.80736
-15.6974
15.3157
7.5893
-7.53343
15.8511
-15.8766
-17.8979
17.9581
-5.69593
5.80122
-6.74145
6.73559
-6.97707
6.92625
-2.79453
-3.66439
13.1514
-12.9903
8.56295
-8.61191
-8.64964
9.01002
3.38459
0.922541
3.42962
-1.88183
3.76121
-1.87151
3.78127
2.74104
-5.53557
2.56148
-5.19582
4.34984
4.2131
-4.28969
-1.30307
-5.92824
5.9568
-5.80947
5.86945
9.15623
-9.14184
-1.88498
3.75894
-1.86908
3.76769
-3.42318
-2.35444
3.37816
0.923553
8.0867
5.06474
-8.27423
-1.71247
-8.01301
7.79955
-8.21196
8.00945
-0.437675
5.83824
-5.40057
4.43666
-1.65269
7.49094
5.56155
5.7559
5.8604
-5.5865
1.08588
-6.48644
-6.39925
-2.35854
2.44476
2.24493
-2.15468
6.11973
1.78225
6.01513
-5.79049
-2.16819
-5.84127
3.81997
2.00869
3.86868
4.08189
2.40261
4.11963
3.02979
-3.03657
0.00677852
-3.05917
6.08896
0.722371
-5.41362
-4.49006
4.99365
3.04374
5.19266
-5.56827
-2.23909
-5.15067
-9.59587
-6.1015
-10.1921
10.101
5.21466
9.81608
-11.979
11.8242
4.88041
2.70889
4.87064
-4.95306
-2.58036
-4.88199
11.6768
-2.63473
-9.04205
-10.3478
-7.55016
10.3518
5.49932
10.9944
6.96371
11.0854
4.43213
7.24465
-9.93145
2.38129
-3.86327
-1.83266
-3.77533
3.65949
2.14173
3.79659
-4.21848
-2.52297
-4.20293
-4.29429
-2.68278
4.32155
2.41404
-4.415
-3.79696
4.54335
2.3829
4.06216
-10.0774
4.31511
-7.9795
-9.22294
-3.76732
-9.09023
3.53297
2.59616
-6.12914
-2.00259
8.50148
-4.28838
7.19841
-5.19371
-3.4182
-5.21512
-6.94661
-1.70303
-6.78864
-8.93345
8.44357
-9.21599
8.56821
12.5467
-5.6561
-6.89063
-3.96696
-2.4721
3.92211
-0.492496
-3.71006
3.71684
0.0511441
3.83242
4.75496
4.26246
-3.88209
-1.92738
-3.82658
3.82116
2.04829
3.88811
6.83357
2.32267
6.86173
-6.5916
-2.55024
-6.67928
9.11043
-8.68737
2.81165
-2.72228
5.36832
2.64113
-5.14868
-2.86433
6.24143
-3.21136
-3.03007
-12.3466
10.8076
1.53897
-4.85564
-0.418973
-0.402061
-5.57366
-3.76083
5.4551
0.300802
11.1084
7.34757
-5.51475
5.76367
6.17109
6.22209
-0.177167
5.89717
-5.19098
5.27757
-2.68035
-2.59722
5.45792
-5.6115
-1.22137
-5.52597
4.3046
0.403626
1.55687
-1.33541
-1.82692
-0.531619
-1.71338
1.26945
0.97548
1.35919
0.932354
1.51241
-2.92565
0.563835
2.36181
-1.99329
-1.59084
-3.77253
-1.14642
4.91894
5.71392
2.08563
-5.62279
-0.218476
2.59837
-2.49028
-0.804166
-2.96836
2.218
-3.02216
-3.48293
-1.91544
5.39837
-3.36877
-0.457807
3.31636
0.552325
-3.82797
-2.10027
3.79091
0.328718
-3.12849
6.19012
-3.06162
-5.05588
2.52892
3.56004
4.53761
-4.79014
2.44906
2.34109
-1.2301
4.26649
0.926171
4.40648
-7.01032
4.77123
5.71389
3.29613
-6.18666
1.03599
-5.97433
8.59651
-7.43891
-1.1576
4.16546
4.43104
7.05155
5.49518
-5.71915
12.7707
-1.19358
-6.24533
7.16791
-3.87178
4.87696
-8.74874
-10.3721
4.12681
-9.2172
11.0717
-1.85454
-3.61235
-8.36662
12.8295
-1.21274
-11.6168
8.60334
-4.29245
-4.34513
8.63759
-6.92718
6.9255
-1.99544
-4.93006
-10.1616
-5.71507
10.2677
1.55655
-9.91045
12.2917
-2.6658
4.15986
0.71078
4.16297
3.33393
-5.46276
2.12883
3.59325
-5.58869
2.06827
-7.53103
-6.76876
12.1084
-5.33968
-10.5361
-9.56385
-0.972228
2.55398
9.73776
-9.51769
7.45014
2.06755
3.29839
0.589721
-3.37108
-0.404254
0.237778
4.51348
-4.75126
4.03436
4.17661
3.22631
1.28717
3.84902
2.10778
-3.8708
-0.332129
-4.16751
1.48473
-1.75347
-3.69269
5.17742
-4.06156
0.368868
-2.74741
-3.49439
6.2418
-4.58007
3.03632
3.1538
5.0846
-4.91471
1.42032
-2.39106
-2.52365
2.64124
-4.39471
1.99835
3.17907
4.38124
0.584276
5.91234
6.1961
-8.5085
0.528998
11.2608
-9.54838
2.48297
8.60243
-9.93311
0.369262
-8.72097
0.975525
-5.26391
-5.15361
5.21826
-6.9213
-3.53047
6.23832
0.623415
-6.39161
-0.397025
-6.07106
-2.86239
-6.52001
-3.04746
-6.16854
-8.76661
-1.67951
-7.0871
6.76406
-6.71749
-3.47457
7.45141
1.1168
-7.48289
7.36339
-7.54302
7.20475
0.0947684
3.62207
4.35723
1.88513
-2.39197
4.2771
-5.06892
7.39159
-8.72859
3.65967
4.2181
-6.76834
-4.51049
5.06312
4.04731
5.378
8.93428
-10.3939
1.45964
-10.6669
12.006
-1.33915
-16.4516
5.78479
-7.51736
2.43627
0.375378
2.53472
0.560128
2.49309
-3.05322
-2.16215
-2.0792
-2.43456
-3.49756
5.93212
1.07864
-3.4622
2.38357
-3.58649
4.66513
-0.0529751
-3.40923
5.19157
-2.69848
5.56695
-3.63946
1.92748
3.54296
5.84379
-2.30083
4.42249
-1.78136
1.9394
-4.24023
-1.55816
-2.95672
5.09845
-3.28508
3.65395
-0.347191
4.00114
-4.06299
0.851631
-0.836678
3.33993
3.6241
4.33093
-3.04376
2.93938
-4.72073
-1.30086
-4.13646
-0.957384
-0.190248
-3.7904
3.98065
6.01682
-6.20707
-5.28738
9.53332
-4.24594
7.70914
-5.444
-2.26514
-4.29638
-4.39099
3.92794
1.96924
9.67837
0.17955
-5.62355
-5.01143
-3.98922
3.10718
2.1704
-1.774
3.31298
2.17606
-0.61919
0.410745
0.948441
1.77072
-1.35997
0.324534
1.44618
-1.01087
1.75205
0.846317
-1.86049
0.147111
-1.27635
3.49434
1.08546
-2.06094
0.700971
0.903614
-3.58397
5.04753
-2.70374
-2.34379
5.95114
1.1482
-3.85193
4.37777
-3.97414
2.43135
-3.57777
-1.42058
-5.39472
-3.61247
-2.49814
4.88171
-3.43398
5.51961
1.39878
-5.30113
6.69991
-3.6281
1.71266
-3.0695
3.91581
-1.03703
-2.03247
2.88747
2.5109
-3.11598
0.147617
-0.22851
2.41327
-2.64179
-0.608888
-2.60218
-4.57574
4.90446
-2.10398
4.55303
2.17313
-1.91734
6.47037
1.80795
-3.72529
-3.24793
-3.70574
-1.3842
3.15341
-0.604319
-4.27767
-5.53438
4.18226
0.224228
-7.05778
7.9044
-0.846622
-4.01404
-0.757186
4.92265
-6.07425
0.485557
-4.00598
3.89842
4.82459
5.04882
-11.3801
-0.236735
-6.1654
1.11524
-7.28064
5.54628
-3.54545
7.67226
-10.3421
6.86748
-9.22525
6.51466
-0.765981
6.25364
-4.12481
2.78841
-8.50348
-6.94693
5.51025
-2.80136
6.22103
-3.17042
9.39145
-5.83622
5.29823
4.09323
-1.03446
-4.18066
-5.28354
4.24909
0.0146802
4.17765
4.98678
-2.87899
4.65465
2.26304
-4.65409
-2.13167
-6.48775
1.83366
-3.33395
-1.92212
3.75578
3.16248
3.7522
1.23213
-3.34795
7.23187
-8.20409
-1.89219
-3.26142
5.26332
-1.01423
3.41878
-6.68021
-1.84512
4.76132
-0.72908
-4.03224
0.894782
-4.42526
1.66713
-6.09239
5.25416
-5.65119
2.254
-9.77136
-5.22889
-5.19642
-2.27993
-5.2631
-7.58711
5.30718
-1.80232
5.56107
-8.53021
7.80113
-3.47579
8.78297
-5.4653
-1.05471
5.89402
1.31073
10.0937
0.151748
-4.66224
-1.93234
3.74905
-1.81672
1.17484
-3.63865
0.110402
2.48583
3.46532
-6.79043
0.0220836
-4.64015
-3.91217
7.95948
5.62115
11.638
1.24404
9.14784
-1.18836
10.3919
4.18964
4.42705
-3.01532
4.47496
0.965329
4.625
-0.881843
2.80933
1.65288
1.71342
0.776858
2.29535
1.32875
3.14698
0.093764
-1.98543
4.63786
-8.62707
-0.985693
-8.08141
1.16294
5.42839
-4.26545
2.9001
-0.729703
1.08338
-0.134909
-1.28136
1.41627
-2.73213
-1.90055
-0.454372
-1.62927
2.33024
1.86508
-1.87587
-0.856264
0.330522
-3.94299
3.24725
-3.09963
-0.588728
6.11118
-2.88585
0.244066
-1.17319
-2.35811
-2.88973
2.74262
6.1744
0.295973
3.11278
5.20043
3.10016
0.221169
3.8243
-5.67884
-3.70673
-5.91558
-0.369298
4.55335
1.73849
7.99927
5.83172
4.81749
-1.86272
-10.0668
6.5214
-2.04643
5.18224
-1.15001
-4.94238
5.07033
2.32126
-5.69375
0.0425595
-4.89982
-6.94626
-0.482351
8.28348
-9.61135
8.55665
5.69425
1.39285
-4.4404
-0.756024
4.29155
0.135505
10.5274
-0.909486
-7.08166
7.99115
-4.51891
3.53321
0.687994
2.62498
2.10427
1.37456
-5.7071
-9.97255
-2.04148
-1.54248
-4.38527
0.533669
-2.39875
6.07867
-2.54546
3.81354
5.44569
6.52907
-2.05226
-4.15481
6.2982
-2.48466
4.04441
)
;

boundaryField
{
    wall-4
    {
        type            calculated;
        value           uniform 0;
    }
    velocity-inlet-5
    {
        type            calculated;
        value           uniform -3.75095;
    }
    velocity-inlet-6
    {
        type            calculated;
        value           uniform -5.62643;
    }
    pressure-outlet-7
    {
        type            calculated;
        value           nonuniform List<scalar> 8(3.34371 7.75037 4.4093 9.70487 7.43901 5.1274 5.76037 8.97833);
    }
    wall-8
    {
        type            calculated;
        value           uniform 0;
    }
    frontAndBackPlanes
    {
        type            empty;
        value           nonuniform 0();
    }
}


// ************************************************************************* //
