0.490941 	0.00436897 	3.00034 	-3.15339e-20
0.561075 	0.00436897 	3.00034 	-3.15339e-20
0.63121 	0.00436897 	3.00034 	-3.15339e-20
0.701344 	0.00436897 	3.00034 	-3.15339e-20
0.771478 	0.00436897 	3.00034 	-3.15339e-20
0.841613 	0.00436897 	3.00034 	-3.15339e-20
0.911747 	0.0144653 	3.008 	-7.27458e-20
0.981881 	0.0144653 	3.008 	-7.27458e-20
1.05202 	0.0144653 	3.008 	-7.27458e-20
1.12215 	0.0144653 	3.008 	-7.27458e-20
1.19228 	0.0144653 	3.008 	-7.27458e-20
1.26242 	0.0144653 	3.008 	-7.27458e-20
1.33255 	0.019327 	3.02331 	7.26958e-20
1.40269 	0.019327 	3.02331 	7.26958e-20
1.47282 	0.019327 	3.02331 	7.26958e-20
1.54296 	0.019327 	3.02331 	7.26958e-20
1.61309 	0.019327 	3.02331 	7.26958e-20
1.68323 	0.019327 	3.02331 	7.26958e-20
1.75336 	0.0246908 	3.04251 	3.48971e-20
1.82349 	0.0246908 	3.04251 	3.48971e-20
1.89363 	0.0246908 	3.04251 	3.48971e-20
1.96376 	0.0246908 	3.04251 	3.48971e-20
2.0339 	0.0246908 	3.04251 	3.48971e-20
2.10403 	0.0246908 	3.04251 	3.48971e-20
2.17417 	0.024244 	3.06668 	0
2.2443 	0.024244 	3.06668 	0
2.31443 	0.024244 	3.06668 	0
2.38457 	0.024244 	3.06668 	0
2.4547 	0.024244 	3.06668 	0
2.52484 	0.024244 	3.06668 	0
2.59497 	0.0255988 	3.09073 	-1.5969e-19
2.66511 	0.0255988 	3.09073 	-1.5969e-19
2.73524 	0.0255988 	3.09073 	-1.5969e-19
2.80538 	0.0255988 	3.09073 	-1.5969e-19
2.87551 	0.0255988 	3.09073 	-1.5969e-19
2.94564 	0.0255988 	3.09073 	-1.5969e-19
3.01578 	0.0233327 	3.11627 	1.27147e-19
3.08591 	0.0233327 	3.11627 	1.27147e-19
3.15605 	0.0233327 	3.11627 	1.27147e-19
3.22618 	0.0233327 	3.11627 	1.27147e-19
3.29632 	0.0233327 	3.11627 	1.27147e-19
3.36645 	0.0233327 	3.11627 	1.27147e-19
3.43659 	0.0249024 	3.13925 	-2.3427e-19
3.50672 	0.0249024 	3.13925 	-2.3427e-19
3.57685 	0.0249024 	3.13925 	-2.3427e-19
3.64699 	0.0249024 	3.13925 	-2.3427e-19
3.71712 	0.0249024 	3.13925 	-2.3427e-19
3.78726 	0.0140794 	3.13808 	-2.60163e-19
3.85739 	0.0119352 	3.1628 	4.79983e-19
3.92753 	0.0119352 	3.1628 	4.79983e-19
3.99766 	0.0119352 	3.1628 	4.79983e-19
4.06779 	0.0119352 	3.1628 	4.79983e-19
4.13793 	0.0119352 	3.1628 	4.79983e-19
4.20806 	0.0119352 	3.1628 	4.79983e-19
4.2782 	0.0142539 	3.18381 	-2.7525e-19
4.34833 	0.0142539 	3.18381 	-2.7525e-19
4.41847 	0.0142539 	3.18381 	-2.7525e-19
4.4886 	0.0142539 	3.18381 	-2.7525e-19
4.55874 	0.0142539 	3.18381 	-2.7525e-19
4.62887 	0.0142539 	3.18381 	-2.7525e-19
4.699 	0.0142539 	3.18381 	-2.7525e-19
4.76914 	0.0118767 	3.20715 	-2.0284e-19
4.83927 	0.0118767 	3.20715 	-2.0284e-19
4.90941 	0.0118767 	3.20715 	-2.0284e-19
4.97954 	0.0118767 	3.20715 	-2.0284e-19
5.04968 	0.0118767 	3.20715 	-2.0284e-19
5.11981 	0.0118767 	3.20715 	-2.0284e-19
5.18994 	0.0139516 	3.22664 	1.78059e-19
5.26008 	0.0139516 	3.22664 	1.78059e-19
5.33021 	0.0139516 	3.22664 	1.78059e-19
5.40035 	0.0139516 	3.22664 	1.78059e-19
5.47048 	0.0139516 	3.22664 	1.78059e-19
5.54062 	0.0139516 	3.22664 	1.78059e-19
5.61075 	0.0112662 	3.2485 	-3.47547e-19
5.68089 	0.0112662 	3.2485 	-3.47547e-19
5.75102 	0.0112662 	3.2485 	-3.47547e-19
5.82115 	0.0112662 	3.2485 	-3.47547e-19
5.89129 	0.0112662 	3.2485 	-3.47547e-19
5.96142 	0.0112662 	3.2485 	-3.47547e-19
6.03156 	0.0135167 	3.26581 	3.70948e-19
6.10169 	0.0135167 	3.26581 	3.70948e-19
6.17183 	0.0135167 	3.26581 	3.70948e-19
6.24196 	0.0135167 	3.26581 	3.70948e-19
6.3121 	0.0135167 	3.26581 	3.70948e-19
6.38223 	0.0135167 	3.26581 	3.70948e-19
6.45236 	0.0110226 	3.2854 	2.16327e-20
6.5225 	0.0110226 	3.2854 	2.16327e-20
6.59263 	0.0110226 	3.2854 	2.16327e-20
6.66277 	0.0110226 	3.2854 	2.16327e-20
6.7329 	0.0110226 	3.2854 	2.16327e-20
6.80304 	0.0110226 	3.2854 	2.16327e-20
6.87317 	0.0138457 	3.29987 	-2.07388e-20
6.9433 	0.0138457 	3.29987 	-2.07388e-20
7.01344 	0.0138457 	3.29987 	-2.07388e-20
7.08357 	0.0138457 	3.29987 	-2.07388e-20
7.15371 	0.0138457 	3.29987 	-2.07388e-20
7.22384 	0.0138457 	3.29987 	-2.07388e-20
7.29398 	0.0117036 	3.31694 	0
7.36411 	0.0117036 	3.31694 	0
7.43425 	0.0117036 	3.31694 	0
7.50438 	0.0117036 	3.31694 	0
7.57451 	0.0117036 	3.31694 	0
7.64465 	0.0117036 	3.31694 	0
7.71478 	0.0117036 	3.31694 	0
7.78492 	0.0151469 	3.32867 	0
7.85505 	0.0151469 	3.32867 	0
7.92519 	0.0151469 	3.32867 	0
7.99532 	0.0151469 	3.32867 	0
8.06545 	0.0151469 	3.32867 	0
8.13559 	0.0151469 	3.32867 	0
8.20572 	0.0133476 	3.34363 	0
8.27586 	0.0133476 	3.34363 	0
8.34599 	0.0133476 	3.34363 	0
8.41613 	0.0133476 	3.34363 	0
8.48626 	0.0133476 	3.34363 	0
8.5564 	0.0133476 	3.34363 	0
8.62653 	0.0175479 	3.3531 	2.15767e-22
8.69666 	0.0175479 	3.3531 	2.15767e-22
8.7668 	0.0175479 	3.3531 	2.15767e-22
8.83693 	0.0175479 	3.3531 	2.15767e-22
8.90707 	0.0175479 	3.3531 	2.15767e-22
8.9772 	0.0175479 	3.3531 	2.15767e-22
9.04734 	0.0162675 	3.36655 	-2.55146e-19
9.11747 	0.0162675 	3.36655 	-2.55146e-19
9.18761 	0.0162675 	3.36655 	-2.55146e-19
9.25774 	0.0122335 	3.36908 	-2.63634e-20
9.32787 	0.0122335 	3.36908 	-2.63634e-20
9.39801 	0.0122335 	3.36908 	-2.63634e-20
9.46814 	0.0122335 	3.36908 	-2.63634e-20
9.53828 	0.0185481 	3.3778 	-2.64513e-19
9.60841 	0.0185481 	3.3778 	-2.64513e-19
9.67855 	0.0185481 	3.3778 	-2.64513e-19
9.74868 	0.0185481 	3.3778 	-2.64513e-19
9.81881 	0.0185481 	3.3778 	-2.64513e-19
9.88895 	0.0185481 	3.3778 	-2.64513e-19
9.95908 	0.0182514 	3.38985 	-1.58246e-20
10.0292 	0.0182514 	3.38985 	-1.58246e-20
10.0994 	0.0182514 	3.38985 	-1.58246e-20
10.1695 	0.0182514 	3.38985 	-1.58246e-20
10.2396 	0.0182514 	3.38985 	-1.58246e-20
10.3098 	0.0182514 	3.38985 	-1.58246e-20
10.3799 	0.0264558 	3.39749 	2.38353e-19
10.45 	0.0264558 	3.39749 	2.38353e-19
10.5202 	0.0264558 	3.39749 	2.38353e-19
10.5903 	0.0264558 	3.39749 	2.38353e-19
10.6604 	0.0264558 	3.39749 	2.38353e-19
10.7306 	0.0264558 	3.39749 	2.38353e-19
10.8007 	0.0279016 	3.40913 	-2.53114e-19
10.8708 	0.0279016 	3.40913 	-2.53114e-19
10.941 	0.0279016 	3.40913 	-2.53114e-19
11.0111 	0.0279016 	3.40913 	-2.53114e-19
11.0812 	0.0279016 	3.40913 	-2.53114e-19
11.1514 	0.0279016 	3.40913 	-2.53114e-19
11.2215 	0.0279016 	3.40913 	-2.53114e-19
11.2916 	0.0391658 	3.41604 	-4.43454e-19
11.3618 	0.0391658 	3.41604 	-4.43454e-19
11.4319 	0.0391658 	3.41604 	-4.43454e-19
11.502 	0.0391658 	3.41604 	-4.43454e-19
11.5722 	0.0391658 	3.41604 	-4.43454e-19
11.6423 	0.0391658 	3.41604 	-4.43454e-19
11.7124 	0.0436028 	3.42778 	4.29081e-19
11.7826 	0.0436028 	3.42778 	4.29081e-19
11.8527 	0.0436028 	3.42778 	4.29081e-19
11.9228 	0.0436028 	3.42778 	4.29081e-19
11.993 	0.0436028 	3.42778 	4.29081e-19
12.0631 	0.0436028 	3.42778 	4.29081e-19
12.1332 	0.0597877 	3.43468 	0
12.2034 	0.0597877 	3.43468 	0
12.2735 	0.0597877 	3.43468 	0
12.3437 	0.0597877 	3.43468 	0
12.4138 	0.0597877 	3.43468 	0
12.4839 	0.0597877 	3.43468 	0
12.5541 	0.0597877 	3.43468 	0
12.6242 	0.0683295 	3.44717 	-1.21328e-20
12.6943 	0.0683295 	3.44717 	-1.21328e-20
12.7645 	0.0683295 	3.44717 	-1.21328e-20
12.8346 	0.0683295 	3.44717 	-1.21328e-20
12.9047 	0.0683295 	3.44717 	-1.21328e-20
12.9749 	0.0683295 	3.44717 	-1.21328e-20
13.045 	0.0916144 	3.455 	1.22128e-20
13.1151 	0.0916144 	3.455 	1.22128e-20
13.1853 	0.0916144 	3.455 	1.22128e-20
13.2554 	0.0916144 	3.455 	1.22128e-20
13.3255 	0.0916144 	3.455 	1.22128e-20
13.3957 	0.0916144 	3.455 	1.22128e-20
13.4658 	0.0916144 	3.455 	1.22128e-20
13.5359 	0.105078 	3.46876 	0
13.6061 	0.105078 	3.46876 	0
13.6762 	0.105078 	3.46876 	0
13.7463 	0.105078 	3.46876 	0
13.8165 	0.105078 	3.46876 	0
13.8866 	0.105078 	3.46876 	0
13.9567 	0.150057 	3.48119 	8.13112e-22
14.0269 	0.150057 	3.48119 	8.13112e-22
14.097 	0.150057 	3.48119 	8.13112e-22
14.1671 	0.150057 	3.48119 	8.13112e-22
14.2373 	0.150057 	3.48119 	8.13112e-22
14.3074 	0.150057 	3.48119 	8.13112e-22
14.3776 	0.148472 	3.48521 	1.28418e-19
14.4477 	0.150935 	3.51209 	-1.8718e-20
14.5178 	0.150935 	3.51209 	-1.8718e-20
14.588 	0.150935 	3.51209 	-1.8718e-20
14.6581 	0.164146 	3.5052 	0
14.7282 	0.164146 	3.5052 	0
14.7984 	0.178618 	3.52883 	-1.94107e-19
14.8685 	0.201686 	3.51891 	-1.9438e-19
14.9386 	0.201686 	3.51891 	-1.9438e-19
15.0088 	0.201686 	3.51891 	-1.9438e-19
15.0789 	0.201686 	3.51891 	-1.9438e-19
15.149 	0.218706 	3.5082 	1.93727e-19
15.2192 	0.235583 	3.54241 	1.6768e-19
15.2893 	0.235583 	3.54241 	1.6768e-19
15.3594 	0.235583 	3.54241 	1.6768e-19
15.4296 	0.256085 	3.52183 	-5.51649e-19
15.4997 	0.256085 	3.52183 	-5.51649e-19
15.5698 	0.271441 	3.55038 	2.95256e-19
15.64 	0.271441 	3.55038 	2.95256e-19
15.7101 	0.271441 	3.55038 	2.95256e-19
15.7802 	0.289529 	3.54255 	-4.8755e-19
15.8504 	0.289529 	3.54255 	-4.8755e-19
15.9205 	0.308583 	3.55855 	-1.39479e-19
15.9906 	0.308583 	3.55855 	-1.39479e-19
16.0608 	0.308583 	3.55855 	-1.39479e-19
16.1309 	0.333162 	3.53904 	0
16.201 	0.333162 	3.53904 	0
16.2712 	0.346393 	3.57132 	0
16.3413 	0.346393 	3.57132 	0
16.4114 	0.346393 	3.57132 	0
16.4816 	0.346393 	3.57132 	0
16.5517 	0.362621 	3.54925 	-1.99179e-19
16.6219 	0.39675 	3.5684 	5.45794e-20
16.692 	0.39675 	3.5684 	5.45794e-20
16.7621 	0.39675 	3.5684 	5.45794e-20
16.8323 	0.39675 	3.5684 	5.45794e-20
16.9024 	0.39675 	3.5684 	5.45794e-20
16.9725 	0.436537 	3.56153 	0
17.0427 	0.436537 	3.56153 	0
17.1128 	0.436537 	3.56153 	0
17.1829 	0.436537 	3.56153 	0
17.2531 	0.463757 	3.58042 	0
17.3232 	0.463757 	3.58042 	0
17.3933 	0.463757 	3.58042 	0
17.4635 	0.488679 	3.56193 	1.81977e-19
17.5336 	0.488679 	3.56193 	1.81977e-19
17.6037 	0.508337 	3.57017 	0
17.6739 	0.508337 	3.57017 	0
17.744 	0.508337 	3.57017 	0
17.8141 	0.508337 	3.57017 	0
17.8843 	0.508337 	3.57017 	0
17.9544 	0.563884 	3.55936 	1.62242e-19
18.0245 	0.563884 	3.55936 	1.62242e-19
18.0947 	0.563884 	3.55936 	1.62242e-19
18.1648 	0.563884 	3.55936 	1.62242e-19
18.2349 	0.578481 	3.56965 	-2.3602e-19
18.3051 	0.578481 	3.56965 	-2.3602e-19
18.3752 	0.578481 	3.56965 	-2.3602e-19
18.4453 	0.578481 	3.56965 	-2.3602e-19
18.5155 	0.578481 	3.56965 	-2.3602e-19
18.5856 	0.619483 	3.55161 	-3.38765e-19
18.6557 	0.619483 	3.55161 	-3.38765e-19
18.7259 	0.619483 	3.55161 	-3.38765e-19
18.796 	0.619483 	3.55161 	-3.38765e-19
18.8662 	0.636744 	3.56281 	2.85539e-19
18.9363 	0.636744 	3.56281 	2.85539e-19
19.0064 	0.636744 	3.56281 	2.85539e-19
19.0766 	0.636744 	3.56281 	2.85539e-19
19.1467 	0.636744 	3.56281 	2.85539e-19
19.2168 	0.66176 	3.57971 	5.04054e-20
19.287 	0.660316 	3.53636 	1.92348e-19
19.3571 	0.660316 	3.53636 	1.92348e-19
19.4272 	0.660316 	3.53636 	1.92348e-19
19.4974 	0.660316 	3.53636 	1.92348e-19
19.5675 	0.681361 	3.55078 	3.9414e-20
19.6376 	0.681361 	3.55078 	3.9414e-20
19.7078 	0.681361 	3.55078 	3.9414e-20
19.7779 	0.681361 	3.55078 	3.9414e-20
19.848 	0.681361 	3.55078 	3.9414e-20
19.9182 	0.70959 	3.56886 	-8.05403e-20
19.9883 	0.70959 	3.56886 	-8.05403e-20
20.0584 	0.684717 	3.50058 	0
20.1286 	0.684717 	3.50058 	0
20.1987 	0.684717 	3.50058 	0
20.2688 	0.710198 	3.52696 	6.21971e-20
20.339 	0.710198 	3.52696 	6.21971e-20
20.4091 	0.710198 	3.52696 	6.21971e-20
20.4792 	0.710198 	3.52696 	6.21971e-20
20.5494 	0.710198 	3.52696 	6.21971e-20
20.6195 	0.742338 	3.55186 	-2.7885e-20
20.6896 	0.742338 	3.55186 	-2.7885e-20
20.7598 	0.742338 	3.55186 	-2.7885e-20
20.8299 	0.742338 	3.55186 	-2.7885e-20
20.9 	0.691646 	3.39556 	3.39103e-19
20.9702 	0.721317 	3.45423 	1.36416e-19
21.0403 	0.721317 	3.45423 	1.36416e-19
21.1105 	0.721317 	3.45423 	1.36416e-19
21.1806 	0.721317 	3.45423 	1.36416e-19
21.2507 	0.721317 	3.45423 	1.36416e-19
21.3209 	0.755901 	3.50222 	-9.46912e-20
21.391 	0.755901 	3.50222 	-9.46912e-20
21.4611 	0.755901 	3.50222 	-9.46912e-20
21.5313 	0.755901 	3.50222 	-9.46912e-20
21.6014 	0.755901 	3.50222 	-9.46912e-20
21.6715 	0.755901 	3.50222 	-9.46912e-20
21.7417 	0.779913 	3.52787 	1.43508e-20
21.8118 	0.779913 	3.52787 	1.43508e-20
21.8819 	0.779913 	3.52787 	1.43508e-20
21.9521 	0.712657 	3.25879 	4.72067e-20
22.0222 	0.712657 	3.25879 	4.72067e-20
22.0923 	0.74945 	3.35226 	1.34844e-19
22.1625 	0.74945 	3.35226 	1.34844e-19
22.2326 	0.74945 	3.35226 	1.34844e-19
22.3027 	0.74945 	3.35226 	1.34844e-19
22.3729 	0.74945 	3.35226 	1.34844e-19
22.443 	0.74945 	3.35226 	1.34844e-19
22.5131 	0.778389 	3.42 	-3.81801e-20
22.5833 	0.778389 	3.42 	-3.81801e-20
22.6534 	0.778389 	3.42 	-3.81801e-20
22.7235 	0.778389 	3.42 	-3.81801e-20
22.7937 	0.778389 	3.42 	-3.81801e-20
22.8638 	0.811287 	3.47344 	-6.2795e-20
22.9339 	0.811287 	3.47344 	-6.2795e-20
23.0041 	0.811287 	3.47344 	-6.2795e-20
23.0742 	0.704274 	2.9287 	1.07553e-19
23.1443 	0.704274 	2.9287 	1.07553e-19
23.2145 	0.704274 	2.9287 	1.07553e-19
23.2846 	0.744348 	3.09108 	6.5397e-21
23.3548 	0.744348 	3.09108 	6.5397e-21
23.4249 	0.744348 	3.09108 	6.5397e-21
23.495 	0.744348 	3.09108 	6.5397e-21
23.5652 	0.744348 	3.09108 	6.5397e-21
23.6353 	0.744348 	3.09108 	6.5397e-21
23.7054 	0.778763 	3.20074 	1.25072e-20
23.7756 	0.778763 	3.20074 	1.25072e-20
23.8457 	0.778763 	3.20074 	1.25072e-20
23.9158 	0.778763 	3.20074 	1.25072e-20
23.986 	0.778763 	3.20074 	1.25072e-20
24.0561 	0.778763 	3.20074 	1.25072e-20
24.1262 	0.810598 	3.29651 	0
24.1964 	0.810598 	3.29651 	0
24.2665 	0.810598 	3.29651 	0
24.3366 	0.810598 	3.29651 	0
24.4068 	0.810598 	3.29651 	0
24.4769 	0.663567 	2.48808 	1.93787e-20
24.547 	0.663567 	2.48808 	1.93787e-20
24.6172 	0.686638 	2.58281 	-4.40709e-20
24.6873 	0.686638 	2.58281 	-4.40709e-20
24.7574 	0.686638 	2.58281 	-4.40709e-20
24.8276 	0.686638 	2.58281 	-4.40709e-20
24.8977 	0.686638 	2.58281 	-4.40709e-20
24.9678 	0.686638 	2.58281 	-4.40709e-20
25.038 	0.733969 	2.76672 	1.24677e-20
25.1081 	0.733969 	2.76672 	1.24677e-20
25.1782 	0.733969 	2.76672 	1.24677e-20
25.2484 	0.733969 	2.76672 	1.24677e-20
25.3185 	0.733969 	2.76672 	1.24677e-20
25.3886 	0.733969 	2.76672 	1.24677e-20
25.4588 	0.756442 	2.84627 	0
25.5289 	0.756442 	2.84627 	0
25.5991 	0.756442 	2.84627 	0
25.6692 	0.756442 	2.84627 	0
25.7393 	0.756442 	2.84627 	0
25.8095 	0.756442 	2.84627 	0
25.8796 	0.756442 	2.84627 	0
25.9497 	0.801066 	2.99258 	-9.12626e-20
26.0199 	0.801066 	2.99258 	-9.12626e-20
26.09 	0.622553 	2.12007 	-6.47012e-20
26.1601 	0.622553 	2.12007 	-6.47012e-20
26.2303 	0.622553 	2.12007 	-6.47012e-20
26.3004 	0.622553 	2.12007 	-6.47012e-20
26.3705 	0.622553 	2.12007 	-6.47012e-20
26.4407 	0.636268 	2.16804 	1.74584e-19
26.5108 	0.636268 	2.16804 	1.74584e-19
26.5809 	0.636268 	2.16804 	1.74584e-19
26.6511 	0.636268 	2.16804 	1.74584e-19
26.7212 	0.636268 	2.16804 	1.74584e-19
26.7913 	0.636268 	2.16804 	1.74584e-19
26.8615 	0.636268 	2.16804 	1.74584e-19
26.9316 	0.66685 	2.27596 	-1.1863e-19
27.0017 	0.66685 	2.27596 	-1.1863e-19
27.0719 	0.66685 	2.27596 	-1.1863e-19
27.142 	0.66685 	2.27596 	-1.1863e-19
27.2121 	0.66685 	2.27596 	-1.1863e-19
27.2823 	0.66685 	2.27596 	-1.1863e-19
27.3524 	0.67912 	2.31666 	-4.96762e-20
27.4225 	0.67912 	2.31666 	-4.96762e-20
27.4927 	0.67912 	2.31666 	-4.96762e-20
27.5628 	0.67912 	2.31666 	-4.96762e-20
27.6329 	0.67912 	2.31666 	-4.96762e-20
27.7031 	0.67912 	2.31666 	-4.96762e-20
27.7732 	0.67912 	2.31666 	-4.96762e-20
27.8434 	0.67912 	2.31666 	-4.96762e-20
27.9135 	0.706179 	2.40985 	-5.69566e-20
27.9836 	0.706179 	2.40985 	-5.69566e-20
28.0538 	0.706179 	2.40985 	-5.69566e-20
28.1239 	0.706179 	2.40985 	-5.69566e-20
28.194 	0.706179 	2.40985 	-5.69566e-20
28.2642 	0.706179 	2.40985 	-5.69566e-20
28.3343 	0.560583 	1.83597 	6.09899e-20
28.4044 	0.561097 	1.85344 	-1.07777e-19
28.4746 	0.561097 	1.85344 	-1.07777e-19
28.5447 	0.561097 	1.85344 	-1.07777e-19
28.6148 	0.561097 	1.85344 	-1.07777e-19
28.685 	0.561097 	1.85344 	-1.07777e-19
28.7551 	0.561097 	1.85344 	-1.07777e-19
28.8252 	0.561097 	1.85344 	-1.07777e-19
28.8954 	0.561097 	1.85344 	-1.07777e-19
28.9655 	0.569211 	1.8927 	-1.27001e-19
29.0356 	0.569211 	1.8927 	-1.27001e-19
29.1058 	0.569211 	1.8927 	-1.27001e-19
29.1759 	0.569211 	1.8927 	-1.27001e-19
29.246 	0.569211 	1.8927 	-1.27001e-19
29.3162 	0.569211 	1.8927 	-1.27001e-19
29.3863 	0.569211 	1.8927 	-1.27001e-19
29.4564 	0.563672 	1.90241 	1.1752e-19
29.5266 	0.563672 	1.90241 	1.1752e-19
29.5967 	0.563672 	1.90241 	1.1752e-19
29.6668 	0.563672 	1.90241 	1.1752e-19
29.737 	0.563672 	1.90241 	1.1752e-19
29.8071 	0.563672 	1.90241 	1.1752e-19
29.8773 	0.563672 	1.90241 	1.1752e-19
29.9474 	0.563672 	1.90241 	1.1752e-19
30.0175 	0.564062 	1.9284 	-1.28819e-19
30.0877 	0.564062 	1.9284 	-1.28819e-19
30.1578 	0.564062 	1.9284 	-1.28819e-19
30.2279 	0.564062 	1.9284 	-1.28819e-19
30.2981 	0.564062 	1.9284 	-1.28819e-19
30.3682 	0.564062 	1.9284 	-1.28819e-19
30.4383 	0.564062 	1.9284 	-1.28819e-19
30.5085 	0.564062 	1.9284 	-1.28819e-19
30.5786 	0.554761 	1.92886 	2.4147e-19
30.6487 	0.554761 	1.92886 	2.4147e-19
30.7189 	0.554761 	1.92886 	2.4147e-19
30.789 	0.554761 	1.92886 	2.4147e-19
30.8591 	0.554761 	1.92886 	2.4147e-19
30.9293 	0.554761 	1.92886 	2.4147e-19
30.9994 	0.554761 	1.92886 	2.4147e-19
31.0695 	0.554761 	1.92886 	2.4147e-19
31.1397 	0.548233 	1.94391 	-1.22946e-19
31.2098 	0.548233 	1.94391 	-1.22946e-19
31.2799 	0.548233 	1.94391 	-1.22946e-19
31.3501 	0.548233 	1.94391 	-1.22946e-19
31.4202 	0.548233 	1.94391 	-1.22946e-19
31.4903 	0.548233 	1.94391 	-1.22946e-19
31.5605 	0.507349 	1.73726 	2.12389e-19
31.6306 	0.507349 	1.73726 	2.12389e-19
31.7007 	0.50354 	1.74199 	-6.68981e-20
31.7709 	0.50354 	1.74199 	-6.68981e-20
31.841 	0.50354 	1.74199 	-6.68981e-20
31.9111 	0.50354 	1.74199 	-6.68981e-20
31.9813 	0.50354 	1.74199 	-6.68981e-20
32.0514 	0.50354 	1.74199 	-6.68981e-20
32.1216 	0.50354 	1.74199 	-6.68981e-20
32.1917 	0.50354 	1.74199 	-6.68981e-20
32.2618 	0.50354 	1.74199 	-6.68981e-20
32.332 	0.500685 	1.74984 	0
32.4021 	0.500685 	1.74984 	0
32.4722 	0.500685 	1.74984 	0
32.5424 	0.500685 	1.74984 	0
32.6125 	0.500685 	1.74984 	0
32.6826 	0.500685 	1.74984 	0
32.7528 	0.500685 	1.74984 	0
32.8229 	0.500685 	1.74984 	0
32.893 	0.500685 	1.74984 	0
32.9632 	0.498575 	1.74936 	0
33.0333 	0.498575 	1.74936 	0
33.1034 	0.498575 	1.74936 	0
33.1736 	0.498575 	1.74936 	0
33.2437 	0.498575 	1.74936 	0
33.3138 	0.498575 	1.74936 	0
33.384 	0.498575 	1.74936 	0
33.4541 	0.498575 	1.74936 	0
33.5242 	0.498575 	1.74936 	0
33.5944 	0.498649 	1.74938 	3.11494e-20
33.6645 	0.498649 	1.74938 	3.11494e-20
33.7346 	0.498649 	1.74938 	3.11494e-20
33.8048 	0.498649 	1.74938 	3.11494e-20
33.8749 	0.498649 	1.74938 	3.11494e-20
33.945 	0.498649 	1.74938 	3.11494e-20
34.0152 	0.498649 	1.74938 	3.11494e-20
34.0853 	0.498649 	1.74938 	3.11494e-20
34.1554 	0.498649 	1.74938 	3.11494e-20
34.2256 	0.497095 	1.74022 	-2.98048e-20
34.2957 	0.497095 	1.74022 	-2.98048e-20
34.3659 	0.497095 	1.74022 	-2.98048e-20
34.436 	0.497095 	1.74022 	-2.98048e-20
34.5061 	0.497095 	1.74022 	-2.98048e-20
34.5763 	0.497095 	1.74022 	-2.98048e-20
34.6464 	0.497095 	1.74022 	-2.98048e-20
34.7165 	0.497095 	1.74022 	-2.98048e-20
34.7867 	0.497095 	1.74022 	-2.98048e-20
34.8568 	0.497095 	1.74022 	-2.98048e-20
34.9269 	0.499282 	1.729 	5.85039e-20
34.9971 	0.499282 	1.729 	5.85039e-20
35.0672 	0.499282 	1.729 	5.85039e-20
35.1373 	0.499282 	1.729 	5.85039e-20
35.2075 	0.499282 	1.729 	5.85039e-20
35.2776 	0.499282 	1.729 	5.85039e-20
35.3477 	0.499282 	1.729 	5.85039e-20
35.4179 	0.499282 	1.729 	5.85039e-20
35.488 	0.499282 	1.729 	5.85039e-20
35.5581 	0.499282 	1.729 	5.85039e-20
35.6283 	0.496826 	1.71341 	-1.40548e-20
35.6984 	0.496826 	1.71341 	-1.40548e-20
35.7685 	0.496826 	1.71341 	-1.40548e-20
35.8387 	0.496826 	1.71341 	-1.40548e-20
35.9088 	0.496826 	1.71341 	-1.40548e-20
35.9789 	0.496826 	1.71341 	-1.40548e-20
36.0491 	0.496826 	1.71341 	-1.40548e-20
36.1192 	0.496826 	1.71341 	-1.40548e-20
36.1893 	0.496826 	1.71341 	-1.40548e-20
36.2595 	0.496826 	1.71341 	-1.40548e-20
36.3296 	0.484773 	1.69219 	1.22227e-20
36.3997 	0.484773 	1.69219 	1.22227e-20
36.4699 	0.484773 	1.69219 	1.22227e-20
36.54 	0.484773 	1.69219 	1.22227e-20
36.6102 	0.484773 	1.69219 	1.22227e-20
36.6803 	0.484773 	1.69219 	1.22227e-20
36.7504 	0.484773 	1.69219 	1.22227e-20
36.8206 	0.484773 	1.69219 	1.22227e-20
36.8907 	0.484773 	1.69219 	1.22227e-20
36.9608 	0.484773 	1.69219 	1.22227e-20
37.031 	0.484773 	1.69219 	1.22227e-20
37.1011 	0.464534 	1.66947 	0
37.1712 	0.464534 	1.66947 	0
37.2414 	0.464534 	1.66947 	0
37.3115 	0.464534 	1.66947 	0
37.3816 	0.464534 	1.66947 	0
37.4518 	0.464534 	1.66947 	0
37.5219 	0.464534 	1.66947 	0
37.592 	0.464534 	1.66947 	0
37.6622 	0.442303 	1.64743 	0
37.7323 	0.442303 	1.64743 	0
37.8024 	0.442303 	1.64743 	0
37.8726 	0.442303 	1.64743 	0
37.9427 	0.442303 	1.64743 	0
38.0128 	0.442303 	1.64743 	0
38.083 	0.442303 	1.64743 	0
38.1531 	0.442303 	1.64743 	0
38.2232 	0.442303 	1.64743 	0
38.2934 	0.415357 	1.62711 	0
38.3635 	0.415357 	1.62711 	0
38.4336 	0.415357 	1.62711 	0
38.5038 	0.415357 	1.62711 	0
38.5739 	0.415357 	1.62711 	0
38.644 	0.415357 	1.62711 	0
38.7142 	0.415357 	1.62711 	0
38.7843 	0.415357 	1.62711 	0
38.8545 	0.415357 	1.62711 	0
38.9246 	0.384678 	1.61082 	0
38.9947 	0.384678 	1.61082 	0
39.0649 	0.384678 	1.61082 	0
39.135 	0.384678 	1.61082 	0
39.2051 	0.384678 	1.61082 	0
39.2753 	0.384678 	1.61082 	0
39.3454 	0.384678 	1.61082 	0
39.4155 	0.384678 	1.61082 	0
39.4857 	0.384678 	1.61082 	0
39.5558 	0.35194 	1.59886 	0
39.6259 	0.35194 	1.59886 	0
39.6961 	0.35194 	1.59886 	0
39.7662 	0.35194 	1.59886 	0
39.8363 	0.35194 	1.59886 	0
39.9065 	0.35194 	1.59886 	0
39.9766 	0.35194 	1.59886 	0
40.0467 	0.35194 	1.59886 	0
40.1169 	0.319037 	1.58973 	0
40.187 	0.319037 	1.58973 	0
40.2571 	0.319037 	1.58973 	0
40.3273 	0.319037 	1.58973 	0
40.3974 	0.319037 	1.58973 	0
40.4675 	0.319037 	1.58973 	0
40.5377 	0.319037 	1.58973 	0
40.6078 	0.319037 	1.58973 	0
40.6779 	0.319037 	1.58973 	0
40.7481 	0.286991 	1.58277 	0
40.8182 	0.286991 	1.58277 	0
40.8883 	0.286991 	1.58277 	0
40.9585 	0.286991 	1.58277 	0
41.0286 	0.286991 	1.58277 	0
41.0988 	0.286991 	1.58277 	0
41.1689 	0.286991 	1.58277 	0
41.239 	0.286991 	1.58277 	0
41.3092 	0.286991 	1.58277 	0
41.3793 	0.255559 	1.57764 	0
41.4494 	0.255559 	1.57764 	0
41.5196 	0.255559 	1.57764 	0
41.5897 	0.255559 	1.57764 	0
41.6598 	0.255559 	1.57764 	0
41.73 	0.255559 	1.57764 	0
41.8001 	0.255559 	1.57764 	0
41.8702 	0.255559 	1.57764 	0
41.9404 	0.255559 	1.57764 	0
42.0105 	0.223753 	1.57348 	0
42.0806 	0.223753 	1.57348 	0
42.1508 	0.223753 	1.57348 	0
42.2209 	0.223753 	1.57348 	0
42.291 	0.223753 	1.57348 	0
42.3612 	0.223753 	1.57348 	0
42.4313 	0.223753 	1.57348 	0
42.5014 	0.223753 	1.57348 	0
42.5716 	0.223753 	1.57348 	0
42.6417 	0.191255 	1.56952 	0
42.7118 	0.191255 	1.56952 	0
42.782 	0.191255 	1.56952 	0
42.8521 	0.191255 	1.56952 	0
42.9222 	0.191255 	1.56952 	0
42.9924 	0.191255 	1.56952 	0
43.0625 	0.191255 	1.56952 	0
43.1327 	0.191255 	1.56952 	0
43.2028 	0.158579 	1.56554 	0
43.2729 	0.158579 	1.56554 	0
43.3431 	0.158579 	1.56554 	0
43.4132 	0.158579 	1.56554 	0
43.4833 	0.158579 	1.56554 	0
43.5535 	0.158579 	1.56554 	0
43.6236 	0.158579 	1.56554 	0
43.6937 	0.158579 	1.56554 	0
43.7639 	0.158579 	1.56554 	0
43.834 	0.126586 	1.56171 	0
43.9041 	0.126586 	1.56171 	0
43.9743 	0.126586 	1.56171 	0
44.0444 	0.126586 	1.56171 	0
44.1145 	0.126586 	1.56171 	0
44.1847 	0.126586 	1.56171 	0
44.2548 	0.126586 	1.56171 	0
44.3249 	0.126586 	1.56171 	0
44.3951 	0.126586 	1.56171 	0
44.4652 	0.0962147 	1.55839 	0
44.5353 	0.0962147 	1.55839 	0
44.6055 	0.0962147 	1.55839 	0
44.6756 	0.0962147 	1.55839 	0
44.7457 	0.0962147 	1.55839 	0
44.8159 	0.0962147 	1.55839 	0
44.886 	0.0962147 	1.55839 	0
44.9561 	0.0962147 	1.55839 	0
45.0263 	0.0962147 	1.55839 	0
45.0964 	0.0680829 	1.55532 	0
45.1665 	0.0680829 	1.55532 	0
45.2367 	0.0680829 	1.55532 	0
45.3068 	0.0680829 	1.55532 	0
45.377 	0.0680829 	1.55532 	0
45.4471 	0.0680829 	1.55532 	0
45.5172 	0.0680829 	1.55532 	0
45.5874 	0.0680829 	1.55532 	0
45.6575 	0.0426733 	1.55195 	0
45.7276 	0.0426733 	1.55195 	0
45.7978 	0.0426733 	1.55195 	0
45.8679 	0.0426733 	1.55195 	0
45.938 	0.0426733 	1.55195 	0
46.0082 	0.0426733 	1.55195 	0
46.0783 	0.0426733 	1.55195 	0
46.1484 	0.0426733 	1.55195 	0
46.2186 	0.0426733 	1.55195 	0
46.2887 	0.0200511 	1.54756 	0
46.3588 	0.0200511 	1.54756 	0
46.429 	0.0200511 	1.54756 	0
46.4991 	0.0200511 	1.54756 	0
46.5692 	0.0200511 	1.54756 	0
46.6394 	0.0200511 	1.54756 	0
46.7095 	0.0200511 	1.54756 	0
46.7796 	0.0200224 	1.51635 	0
46.8498 	0.0200224 	1.51635 	0
46.9199 	0.00182856 	1.51341 	0
46.99 	0.00182856 	1.51341 	0
47.0602 	0.00182856 	1.51341 	0
47.1303 	0.00182856 	1.51341 	0
47.2004 	0.00182856 	1.51341 	0
47.2706 	0.00182856 	1.51341 	0
47.3407 	0.00182856 	1.51341 	0
47.4108 	0.00182856 	1.51341 	0
47.481 	0.00182856 	1.51341 	0
47.5511 	-0.0130231 	1.50916 	0
47.6213 	-0.0130231 	1.50916 	0
47.6914 	-0.0130231 	1.50916 	0
47.7615 	-0.0130231 	1.50916 	0
47.8317 	-0.0130231 	1.50916 	0
47.9018 	-0.0130231 	1.50916 	0
47.9719 	-0.0130231 	1.50916 	0
48.0421 	-0.0130231 	1.50916 	0
48.1122 	-0.0130231 	1.50916 	0
48.1823 	-0.0243126 	1.50418 	0
48.2525 	-0.0243126 	1.50418 	0
48.3226 	-0.0243126 	1.50418 	0
48.3927 	-0.0243126 	1.50418 	0
48.4629 	-0.0243126 	1.50418 	0
48.533 	-0.0243126 	1.50418 	0
48.6031 	-0.0243126 	1.50418 	0
48.6733 	-0.0243126 	1.50418 	0
48.7434 	-0.0324259 	1.49927 	0
48.8135 	-0.0324259 	1.49927 	0
48.8837 	-0.0324259 	1.49927 	0
48.9538 	-0.0324259 	1.49927 	0
49.0239 	-0.0324259 	1.49927 	0
49.0941 	-0.0324259 	1.49927 	0
49.1642 	-0.0324259 	1.49927 	0
49.2343 	-0.0324259 	1.49927 	0
49.3045 	-0.0324259 	1.49927 	0
49.3746 	-0.0373303 	1.49304 	0
49.4447 	-0.0373303 	1.49304 	0
49.5149 	-0.0373303 	1.49304 	0
49.585 	-0.0373303 	1.49304 	0
49.6551 	-0.0373303 	1.49304 	0
49.7253 	-0.0373303 	1.49304 	0
49.7954 	-0.0373303 	1.49304 	0
49.8656 	-0.0373303 	1.49304 	0
49.9357 	-0.0373303 	1.49304 	0
50.0058 	-0.0402548 	1.48542 	0
50.076 	-0.0402548 	1.48542 	0
50.1461 	-0.0402548 	1.48542 	0
50.2162 	-0.0402548 	1.48542 	0
50.2864 	-0.0402548 	1.48542 	0
50.3565 	-0.0402548 	1.48542 	0
50.4266 	-0.0402548 	1.48542 	0
50.4968 	-0.0402548 	1.48542 	0
50.5669 	-0.0402548 	1.48542 	0
50.637 	-0.0413075 	1.47706 	0
50.7072 	-0.0413075 	1.47706 	0
50.7773 	-0.0413075 	1.47706 	0
50.8474 	-0.0413075 	1.47706 	0
50.9176 	-0.0413075 	1.47706 	0
50.9877 	-0.0413075 	1.47706 	0
51.0578 	-0.0413075 	1.47706 	0
51.128 	-0.0413075 	1.47706 	0
51.1981 	-0.0413075 	1.47706 	0
51.2682 	-0.0409796 	1.46926 	0
51.3384 	-0.0409796 	1.46926 	0
51.4085 	-0.0409796 	1.46926 	0
51.4786 	-0.0409796 	1.46926 	0
51.5488 	-0.0409796 	1.46926 	0
51.6189 	-0.0409796 	1.46926 	0
51.689 	-0.0409796 	1.46926 	0
51.7592 	-0.0409796 	1.46926 	0
51.8293 	-0.0394101 	1.46183 	0
51.8994 	-0.0394101 	1.46183 	0
51.9696 	-0.0394101 	1.46183 	0
52.0397 	-0.0394101 	1.46183 	0
52.1099 	-0.0394101 	1.46183 	0
52.18 	-0.0394101 	1.46183 	0
52.2501 	-0.0394101 	1.46183 	0
52.3203 	-0.0394101 	1.46183 	0
52.3904 	-0.0394101 	1.46183 	0
52.4605 	-0.037344 	1.45484 	0
52.5307 	-0.037344 	1.45484 	0
52.6008 	-0.037344 	1.45484 	0
52.6709 	-0.037344 	1.45484 	0
52.7411 	-0.037344 	1.45484 	0
52.8112 	-0.037344 	1.45484 	0
52.8813 	-0.037344 	1.45484 	0
52.9515 	-0.037344 	1.45484 	0
53.0216 	-0.037344 	1.45484 	0
53.0917 	-0.0350188 	1.44804 	0
53.1619 	-0.0350188 	1.44804 	0
53.232 	-0.0350188 	1.44804 	0
53.3021 	-0.0350188 	1.44804 	0
53.3723 	-0.0350188 	1.44804 	0
53.4424 	-0.0350188 	1.44804 	0
53.5125 	-0.0350188 	1.44804 	0
53.5827 	-0.0350188 	1.44804 	0
53.6528 	-0.0350188 	1.44804 	0
53.7229 	-0.0326597 	1.44158 	0
53.7931 	-0.0326597 	1.44158 	0
53.8632 	-0.0326597 	1.44158 	0
53.9333 	-0.0326597 	1.44158 	0
54.0035 	-0.0326597 	1.44158 	0
54.0736 	-0.0326597 	1.44158 	0
54.1437 	-0.0326597 	1.44158 	0
54.2139 	-0.0326597 	1.44158 	0
54.284 	-0.0303406 	1.43558 	0
54.3542 	-0.0303406 	1.43558 	0
54.4243 	-0.0303406 	1.43558 	0
54.4944 	-0.0303406 	1.43558 	0
54.5646 	-0.0303406 	1.43558 	0
54.6347 	-0.0303406 	1.43558 	0
54.7048 	-0.0303406 	1.43558 	0
54.775 	-0.0303406 	1.43558 	0
54.8451 	-0.0303406 	1.43558 	0
54.9152 	-0.0283998 	1.43026 	0
54.9854 	-0.0283998 	1.43026 	0
55.0555 	-0.0283998 	1.43026 	0
55.1256 	-0.0283998 	1.43026 	0
55.1958 	-0.0283998 	1.43026 	0
55.2659 	-0.0283998 	1.43026 	0
55.336 	-0.0283998 	1.43026 	0
55.4062 	-0.0283998 	1.43026 	0
55.4763 	-0.0283998 	1.43026 	0
55.5464 	-0.0269681 	1.42554 	0
55.6166 	-0.0269681 	1.42554 	0
55.6867 	-0.0269681 	1.42554 	0
55.7568 	-0.0269681 	1.42554 	0
55.827 	-0.0269681 	1.42554 	0
55.8971 	-0.0269681 	1.42554 	0
55.9672 	-0.0269681 	1.42554 	0
56.0374 	-0.0269681 	1.42554 	0
56.1075 	-0.0269681 	1.42554 	0
56.1776 	-0.0259055 	1.42148 	0
56.2478 	-0.0259055 	1.42148 	0
56.3179 	-0.0259055 	1.42148 	0
56.3881 	-0.0259055 	1.42148 	0
56.4582 	-0.0259055 	1.42148 	0
56.5283 	-0.0259055 	1.42148 	0
56.5985 	-0.0259055 	1.42148 	0
56.6686 	-0.0259055 	1.42148 	0
56.7387 	-0.0259055 	1.42148 	0
56.8089 	-0.0255907 	1.41833 	0
56.879 	-0.0255907 	1.41833 	0
56.9491 	-0.0255907 	1.41833 	0
57.0193 	-0.0255907 	1.41833 	0
57.0894 	-0.0255907 	1.41833 	0
57.1595 	-0.0255907 	1.41833 	0
57.2297 	-0.0255907 	1.41833 	0
57.2998 	-0.0255907 	1.41833 	0
57.3699 	-0.0256807 	1.41606 	0
57.4401 	-0.0256807 	1.41606 	0
57.5102 	-0.0256807 	1.41606 	0
57.5803 	-0.0256807 	1.41606 	0
57.6505 	-0.0256807 	1.41606 	0
57.7206 	-0.0256807 	1.41606 	0
57.7907 	-0.0256807 	1.41606 	0
57.8609 	-0.0256807 	1.41606 	0
57.931 	-0.0256807 	1.41606 	0
58.0011 	-0.0268888 	1.41462 	0
58.0713 	-0.0268888 	1.41462 	0
58.1414 	-0.0268888 	1.41462 	0
58.2115 	-0.0268888 	1.41462 	0
58.2817 	-0.0268888 	1.41462 	0
58.3518 	-0.0268888 	1.41462 	0
58.4219 	-0.0268888 	1.41462 	0
58.4921 	-0.0268888 	1.41462 	0
58.5622 	-0.0268888 	1.41462 	0
58.6324 	-0.0279249 	1.41425 	0
58.7025 	-0.0279249 	1.41425 	0
58.7726 	-0.0279249 	1.41425 	0
58.8428 	-0.0279249 	1.41425 	0
58.9129 	-0.0279249 	1.41425 	0
58.983 	-0.0279249 	1.41425 	0
59.0532 	-0.0279249 	1.41425 	0
59.1233 	-0.0279249 	1.41425 	0
59.1934 	-0.0279249 	1.41425 	0
59.2636 	-0.0294201 	1.4149 	0
59.3337 	-0.0294201 	1.4149 	0
59.4038 	-0.0294201 	1.4149 	0