/*--------------------------------*- C++ -*----------------------------------*\
  =========                 |
  \\      /  F ield         | OpenFOAM: The Open Source CFD Toolbox
   \\    /   O peration     | Website:  https://openfoam.org
    \\  /    A nd           | Version:  6
     \\/     M anipulation  |
\*---------------------------------------------------------------------------*/
FoamFile
{
    version     2.0;
    format      ascii;
    class       volVectorField;
    location    "59";
    object      U;
}
// * * * * * * * * * * * * * * * * * * * * * * * * * * * * * * * * * * * * * //

dimensions      [0 1 -1 0 0 0 0];

internalField   nonuniform List<vector> 
8800
(
(0.987184 -0.0766668 0)
(1.00189 -0.0551931 0)
(0.999722 -0.0285526 0)
(1.00002 -0.0151498 0)
(1.00007 -0.00855247 0)
(1.00008 -0.0050553 0)
(1.00005 -0.00301027 0)
(1.00002 -0.00170957 0)
(0.999999 -0.000803461 0)
(1.00006 -8.72425e-05 0)
(0.999987 0.000642161 0)
(0.999994 0.00140664 0)
(1.00002 0.00242922 0)
(1.00004 0.00400113 0)
(1.00004 0.00663184 0)
(1.00001 0.0113702 0)
(0.999894 0.0208139 0)
(0.999148 0.0386709 0)
(1.0071 0.072457 0)
(0.771213 0.0366611 0)
(0.363057 -0.0160185 0)
(1.0433 -0.0768232 0)
(1.08459 -0.0704594 0)
(1.04518 -0.0535596 0)
(1.02326 -0.0389159 0)
(1.01198 -0.026244 0)
(1.00639 -0.0168885 0)
(1.00358 -0.0103603 0)
(1.00214 -0.00570187 0)
(1.00145 -0.0020453 0)
(1.00131 0.00127773 0)
(1.00168 0.00466078 0)
(1.00265 0.00859576 0)
(1.00465 0.0139377 0)
(1.00859 0.0216469 0)
(1.01655 0.0326165 0)
(1.03246 0.0465326 0)
(1.06263 0.0616524 0)
(1.09187 0.0760949 0)
(0.838679 0.0565592 0)
(0.216818 -0.0024311 0)
(1.07587 -0.0501521 0)
(1.09986 -0.0483349 0)
(1.06461 -0.0404937 0)
(1.03999 -0.0336437 0)
(1.02387 -0.0261331 0)
(1.01409 -0.0185582 0)
(1.00854 -0.0117412 0)
(1.00558 -0.00587346 0)
(1.00433 -0.000455797 0)
(1.00468 0.00479268 0)
(1.0066 0.0101858 0)
(1.0106 0.0162862 0)
(1.01793 0.0233161 0)
(1.03053 0.0307826 0)
(1.05061 0.0378183 0)
(1.08032 0.0445068 0)
(1.10625 0.0513281 0)
(0.942549 0.0416086 0)
(0.216174 0.00246073 0)
(0.175126 -0.000818021 0)
(1.01763 -0.0355073 0)
(1.10516 -0.041416 0)
(1.07821 -0.0361084 0)
(1.0534 -0.0301843 0)
(1.03614 -0.0246217 0)
(1.02396 -0.0189034 0)
(1.01585 -0.0128297 0)
(1.011 -0.00664512 0)
(1.00881 -0.000310396 0)
(1.00939 0.00594821 0)
(1.01265 0.0119493 0)
(1.01887 0.0177925 0)
(1.02877 0.0233765 0)
(1.04321 0.0286817 0)
(1.06372 0.0341732 0)
(1.09354 0.0401655 0)
(1.09342 0.0419378 0)
(0.827205 0.0229034 0)
(0.17404 0.000851842 0)
(0.153903 -0.000612079 0)
(0.956057 -0.0254872 0)
(1.10339 -0.0351776 0)
(1.08761 -0.0327133 0)
(1.06164 -0.0280731 0)
(1.04403 -0.0230653 0)
(1.03158 -0.0178325 0)
(1.02275 -0.0123086 0)
(1.01695 -0.00637532 0)
(1.01412 9.23219e-05 0)
(1.01481 0.00655623 0)
(1.01879 0.0124463 0)
(1.0258 0.0177539 0)
(1.03611 0.022681 0)
(1.05068 0.0274442 0)
(1.07191 0.0319866 0)
(1.10007 0.0359313 0)
(1.06812 0.0340027 0)
(0.739639 0.0143024 0)
(0.152269 0.000650404 0)
(0.139507 -0.000468448 0)
(0.89908 -0.0191107 0)
(1.09567 -0.03014 0)
(1.09565 -0.0292654 0)
(1.06915 -0.0255498 0)
(1.05072 -0.0214275 0)
(1.03781 -0.0166683 0)
(1.02871 -0.011394 0)
(1.02262 -0.00566037 0)
(1.01951 0.000665073 0)
(1.02014 0.006983 0)
(1.02424 0.0126234 0)
(1.03139 0.0176002 0)
(1.04192 0.0220776 0)
(1.05705 0.0260535 0)
(1.07924 0.0295318 0)
(1.10229 0.0321689 0)
(1.03606 0.0280852 0)
(0.673123 0.0101986 0)
(0.1372 0.000512673 0)
(0.12894 -0.000363221 0)
(0.849399 -0.0147534 0)
(1.08323 -0.0260199 0)
(1.1013 -0.0263331 0)
(1.07598 -0.0230645 0)
(1.05702 -0.0194393 0)
(1.04365 -0.0152129 0)
(1.0342 -0.0103054 0)
(1.02787 -0.00478191 0)
(1.02457 0.00135963 0)
(1.02508 0.00745877 0)
(1.02913 0.0128264 0)
(1.03639 0.0173995 0)
(1.04721 0.021272 0)
(1.06274 0.0245831 0)
(1.08538 0.0275477 0)
(1.10142 0.0293194 0)
(1.00119 0.0235639 0)
(0.621345 0.00783304 0)
(0.125814 0.000415284 0)
(0.120867 -0.000282754 0)
(0.807153 -0.011601 0)
(1.06788 -0.0224226 0)
(1.10479 -0.0237168 0)
(1.0822 -0.0208676 0)
(1.06283 -0.0174618 0)
(1.04919 -0.0135445 0)
(1.03947 -0.00897876 0)
(1.03285 -0.00373515 0)
(1.02931 0.00219095 0)
(1.02965 0.00805121 0)
(1.03366 0.0130708 0)
(1.04098 0.017176 0)
(1.05191 0.0205461 0)
(1.06766 0.0234472 0)
(1.09063 0.026112 0)
(1.09766 0.0269909 0)
(0.965982 0.0200166 0)
(0.579756 0.0062969 0)
(0.116747 0.000344698 0)
(0.114602 -0.000219774 0)
(0.771564 -0.00924438 0)
(1.05103 -0.0192579 0)
(1.10713 -0.0212963 0)
(1.08804 -0.0188175 0)
(1.06828 -0.0155552 0)
(1.0544 -0.0118055 0)
(1.04448 -0.00745909 0)
(1.03763 -0.00246241 0)
(1.03383 0.00319973 0)
(1.03395 0.00874753 0)
(1.03783 0.0133893 0)
(1.0451 0.0170746 0)
(1.05604 0.0200539 0)
(1.07198 0.022642 0)
(1.09462 0.0249808 0)
(1.09109 0.025054 0)
(0.931741 0.0172769 0)
(0.545343 0.00524749 0)
(0.109274 0.000293897 0)
(0.109709 -0.000169158 0)
(0.741689 -0.00741633 0)
(1.03373 -0.0164553 0)
(1.10851 -0.019023 0)
(1.09358 -0.0168586 0)
(1.07354 -0.013697 0)
(1.05939 -0.0100436 0)
(1.04929 -0.00581809 0)
(1.04222 -0.000998392 0)
(1.03813 0.00441606 0)
(1.03797 0.00964758 0)
(1.04164 0.0139333 0)
(1.04876 0.017269 0)
(1.05968 0.0199067 0)
(1.07583 0.0221949 0)
(1.09733 0.0241575 0)
(1.0821 0.023462 0)
(0.899032 0.0151931 0)
(0.516062 0.00451515 0)
(0.102914 0.000258157 0)
(0.105904 -0.000127112 0)
(0.716709 -0.00594264 0)
(1.01681 -0.0139406 0)
(1.10905 -0.0168215 0)
(1.09902 -0.0149358 0)
(1.07871 -0.0117848 0)
(1.06428 -0.00816557 0)
(1.05396 -0.00401926 0)
(1.04664 0.000669652 0)
(1.04224 0.00587902 0)
(1.04172 0.0108166 0)
(1.04508 0.0147518 0)
(1.05203 0.0177196 0)
(1.06292 0.0200178 0)
(1.07922 0.0220543 0)
(1.09871 0.0236343 0)
(1.07106 0.0222023 0)
(0.867978 0.0136469 0)
(0.490463 0.00400896 0)
(0.0973262 0.000234386 0)
(0.103 -9.07602e-05 0)
(0.69598 -0.00470798 0)
(1.00088 -0.0116502 0)
(1.10891 -0.0146678 0)
(1.10429 -0.0129744 0)
(1.08389 -0.00979198 0)
(1.06913 -0.00615768 0)
(1.05854 -0.00201999 0)
(1.05093 0.00260405 0)
(1.04614 0.00763846 0)
(1.04519 0.0122944 0)
(1.0482 0.0159122 0)
(1.05491 0.0185613 0)
(1.06574 0.0205215 0)
(1.08219 0.0222952 0)
(1.09911 0.0234565 0)
(1.05826 0.0212998 0)
(0.838415 0.0125521 0)
(0.46746 0.00367537 0)
(0.0922529 0.000220435 0)
(0.100875 -5.73241e-05 0)
(0.679032 -0.00362411 0)
(0.986394 -0.00950846 0)
(1.10827 -0.0124678 0)
(1.10937 -0.0109044 0)
(1.08912 -0.00767663 0)
(1.07403 -0.00396085 0)
(1.06314 0.000226273 0)
(1.05515 0.00483192 0)
(1.04988 0.00976221 0)
(1.04841 0.0141933 0)
(1.05099 0.0174836 0)
(1.05744 0.0197862 0)
(1.06816 0.0214121 0)
(1.08464 0.0229094 0)
(1.09851 0.0236604 0)
(1.04388 0.0207533 0)
(0.810034 0.0118345 0)
(0.446212 0.00347445 0)
(0.0874939 0.000214023 0)
(0.099469 -2.45517e-05 0)
(0.665563 -0.00262192 0)
(0.973708 -0.00744362 0)
(1.10748 -0.0101596 0)
(1.11439 -0.00862401 0)
(1.09451 -0.00529115 0)
(1.07904 -0.00144337 0)
(1.06777 0.00284459 0)
(1.05933 0.00749258 0)
(1.05348 0.012336 0)
(1.05138 0.0165297 0)
(1.05342 0.0195136 0)
(1.05955 0.0214697 0)
(1.07017 0.022727 0)
(1.08666 0.0239636 0)
(1.09669 0.0242722 0)
(1.02799 0.0205557 0)
(0.782418 0.0114379 0)
(0.42603 0.00338171 0)
(0.0828874 0.000213943 0)
(0.0987653 9.6339e-06 0)
(0.655419 -0.00164678 0)
(0.963127 -0.00538249 0)
(1.10686 -0.00769717 0)
(1.11949 -0.00612118 0)
(1.10013 -0.00265124 0)
(1.08424 0.00140276 0)
(1.07252 0.00588284 0)
(1.06353 0.0106407 0)
(1.05696 0.0154549 0)
(1.05409 0.0194451 0)
(1.05551 0.022105 0)
(1.06126 0.0237137 0)
(1.07173 0.0245916 0)
(1.08814 0.0255197 0)
(1.09359 0.0253226 0)
(1.01055 0.0207307 0)
(0.755117 0.0113342 0)
(0.406346 0.00338204 0)
(0.0783019 0.000219439 0)
(0.0987855 4.29343e-05 0)
(0.648576 -0.000650786 0)
(0.954957 -0.00324969 0)
(1.10671 -0.00498699 0)
(1.1248 -0.00325023 0)
(1.10606 0.000430322 0)
(1.08972 0.00475632 0)
(1.07747 0.00947303 0)
(1.06779 0.0144001 0)
(1.06037 0.0192479 0)
(1.05658 0.0230643 0)
(1.05724 0.0253924 0)
(1.06251 0.0265825 0)
(1.07283 0.0270531 0)
(1.08885 0.0276206 0)
(1.089 0.0268236 0)
(0.991452 0.0213068 0)
(0.72762 0.0115052 0)
(0.38664 0.0034674 0)
(0.0736172 0.000229929 0)
(0.0995674 8.23642e-05 0)
(0.645112 0.000381596 0)
(0.94952 -0.000973143 0)
(1.10744 -0.00196551 0)
(1.13057 6.39397e-05 0)
(1.11244 0.00405671 0)
(1.09558 0.00873481 0)
(1.08268 0.0137803 0)
(1.07219 0.0189479 0)
(1.06371 0.0238397 0)
(1.05881 0.0274473 0)
(1.05858 0.0294125 0)
(1.06329 0.0302055 0)
(1.0734 0.0302447 0)
(1.08869 0.0303896 0)
(1.08273 0.0288567 0)
(0.970439 0.0223152 0)
(0.699373 0.0119424 0)
(0.366431 0.00363116 0)
(0.0687259 0.000244896 0)
(0.101319 0.000142857 0)
(0.645422 0.00153793 0)
(0.947169 0.00153126 0)
(1.10945 0.0014766 0)
(1.13695 0.00391023 0)
(1.11939 0.00829749 0)
(1.10194 0.0134374 0)
(1.08826 0.0189191 0)
(1.07676 0.0244048 0)
(1.067 0.0294087 0)
(1.06077 0.0328409 0)
(1.05949 0.0343933 0)
(1.06354 0.03473 0)
(1.07336 0.0343013 0)
(1.08741 0.0339534 0)
(1.07449 0.0315088 0)
(0.947161 0.0237897 0)
(0.669782 0.0126423 0)
(0.345259 0.00386865 0)
(0.0635308 0.000263755 0)
(0.104091 0.000203503 0)
(0.649849 0.00294599 0)
(0.948357 0.00441387 0)
(1.11322 0.00549529 0)
(1.14417 0.00850204 0)
(1.12705 0.0134408 0)
(1.10893 0.0191421 0)
(1.09429 0.0251384 0)
(1.08154 0.0310211 0)
(1.07024 0.0361618 0)
(1.0624 0.0393823 0)
(1.05987 0.0404556 0)
(1.06314 0.0402947 0)
(1.07266 0.0393277 0)
(1.08481 0.0384284 0)
(1.06395 0.0348756 0)
(0.921146 0.0257744 0)
(0.638204 0.0136042 0)
(0.322682 0.0041741 0)
(0.0579463 0.000285706 0)
(0.108165 0.000285194 0)
(0.658935 0.00461637 0)
(0.953567 0.00780708 0)
(1.11929 0.0102298 0)
(1.15258 0.0140028 0)
(1.13566 0.0196718 0)
(1.11668 0.026088 0)
(1.10087 0.0327356 0)
(1.08659 0.0390844 0)
(1.07339 0.0443483 0)
(1.06368 0.0472775 0)
(1.05973 0.0477953 0)
(1.06203 0.0470529 0)
(1.07117 0.0454768 0)
(1.08096 0.0439662 0)
(1.05067 0.0390536 0)
(0.891774 0.028296 0)
(0.60394 0.0148147 0)
(0.298273 0.0045363 0)
(0.0519028 0.000309271 0)
(0.113882 0.000396121 0)
(0.673439 0.00670976 0)
(0.963496 0.0119376 0)
(1.12819 0.0159273 0)
(1.16246 0.0206638 0)
(1.14546 0.0272699 0)
(1.12542 0.0345692 0)
(1.10811 0.0420028 0)
(1.09191 0.0488744 0)
(1.07642 0.0542458 0)
(1.06449 0.0567754 0)
(1.05889 0.0566053 0)
(1.06013 0.0552016 0)
(1.06879 0.0529657 0)
(1.07563 0.0506928 0)
(1.03408 0.044136 0)
(0.858317 0.0313692 0)
(0.566269 0.0162482 0)
(0.271664 0.00493719 0)
(0.0453613 0.00033243 0)
(0.121759 0.000551213 0)
(0.694317 0.0094497 0)
(0.979006 0.0171058 0)
(1.14059 0.0229379 0)
(1.17427 0.0289279 0)
(1.15675 0.036784 0)
(1.13533 0.0451361 0)
(1.11609 0.0534361 0)
(1.0975 0.0608326 0)
(1.07926 0.0661826 0)
(1.06474 0.0681069 0)
(1.05718 0.067073 0)
(1.05732 0.0649023 0)
(1.06547 0.0618939 0)
(1.06847 0.0587546 0)
(1.01346 0.0501919 0)
(0.819898 0.0349756 0)
(0.524473 0.0178494 0)
(0.242576 0.00534778 0)
(0.0383223 0.000352346 0)
(0.132525 0.000775123 0)
(0.722855 0.013214 0)
(1.00125 0.0237651 0)
(1.15732 0.0317854 0)
(1.18869 0.039371 0)
(1.16988 0.0488509 0)
(1.14652 0.0584424 0)
(1.12477 0.0676717 0)
(1.10317 0.0754796 0)
(1.08163 0.0805519 0)
(1.06419 0.0815636 0)
(1.05454 0.0794358 0)
(1.05343 0.0762935 0)
(1.06093 0.0723664 0)
(1.05887 0.0681489 0)
(0.987868 0.0572316 0)
(0.775543 0.0390302 0)
(0.477915 0.0195171 0)
(0.2109 0.00572317 0)
(0.0308488 0.000365121 0)
(0.147436 0.00112863 0)
(0.761055 0.0186352 0)
(1.03186 0.0327067 0)
(1.1793 0.0433986 0)
(1.20644 0.0530143 0)
(1.18517 0.0644395 0)
(1.15909 0.075402 0)
(1.13402 0.085459 0)
(1.10868 0.0933476 0)
(1.08331 0.09769 0)
(1.06263 0.0973584 0)
(1.05077 0.0938204 0)
(1.04838 0.0895426 0)
(1.05474 0.0846948 0)
(1.04616 0.0789719 0)
(0.956141 0.0651705 0)
(0.724281 0.0433503 0)
(0.426208 0.0210925 0)
(0.176818 0.00600199 0)
(0.0230894 0.000366073 0)
(0.168654 0.0017394 0)
(0.812117 0.0268371 0)
(1.07339 0.0454556 0)
(1.20761 0.0596289 0)
(1.22816 0.0720399 0)
(1.20273 0.0852698 0)
(1.17277 0.0974031 0)
(1.14336 0.107775 0)
(1.11358 0.115082 0)
(1.08388 0.117936 0)
(1.05974 0.11563 0)
(1.04563 0.110341 0)
(1.04199 0.104729 0)
(1.04691 0.0989116 0)
(1.02941 0.0911798 0)
(0.916845 0.0737325 0)
(0.665327 0.0476341 0)
(0.369507 0.022359 0)
(0.140976 0.00611054 0)
(0.0153008 0.000349992 0)
(0.19949 0.00307771 0)
(0.881725 0.0403907 0)
(1.12954 0.0657675 0)
(1.24276 0.0840801 0)
(1.25357 0.0992038 0)
(1.22188 0.113706 0)
(1.18668 0.126053 0)
(1.152 0.135603 0)
(1.11713 0.141192 0)
(1.0828 0.141562 0)
(1.05517 0.136526 0)
(1.0389 0.128989 0)
(1.03411 0.121794 0)
(1.03708 0.114811 0)
(1.00732 0.104556 0)
(0.868294 0.0824055 0)
(0.59857 0.0513824 0)
(0.309225 0.023104 0)
(0.104909 0.00599485 0)
(0.00794102 0.000309235 0)
(0.241589 0.0091984 1.01504e-20)
(0.973856 0.0671683 8.6831e-21)
(1.19794 0.100119 -3.01905e-21)
(1.28156 0.120459 0)
(1.27985 0.13801 -7.57973e-35)
(1.24045 0.151989 1.10567e-21)
(1.19926 0.162814 -1.98175e-21)
(1.15879 0.170152 0)
(1.11848 0.172956 4.04856e-35)
(1.07923 0.170045 -2.43182e-21)
(1.04787 0.161762 0)
(1.02925 0.151769 -2.87993e-21)
(1.02337 0.143015 -8.49261e-21)
(1.02388 0.135384 -4.01566e-21)
(0.976403 0.121721 -1.20828e-21)
(0.805154 0.0928088 -7.17809e-22)
(0.518687 0.0551011 0)
(0.243719 0.0236875 5.03096e-22)
(0.0688304 0.00595503 5.959e-22)
(0.00104303 0.000257496 1.08757e-20)
(0.270791 0.0241878 7.54184e-21)
(1.05009 0.109451 1.08313e-22)
(1.25438 0.149068 8.10001e-22)
(1.3162 0.169347 0)
(1.30281 0.187167 -3.86323e-21)
(1.25629 0.199004 -4.37377e-21)
(1.20915 0.207527 -2.0025e-21)
(1.16283 0.212359 -7.09648e-21)
(1.11686 0.212377 0)
(1.07219 0.206255 1.03404e-20)
(1.03645 0.194776 1.02382e-20)
(1.01507 0.182287 3.03882e-21)
(1.00704 0.171551 1.10655e-20)
(1.0001 0.161177 1.55429e-20)
(0.928659 0.142136 0)
(0.721023 0.104666 2.19189e-20)
(0.425623 0.0594599 3.14789e-20)
(0.175518 0.0239755 3.50423e-20)
(0.0334018 0.00486007 -4.02061e-20)
(-0.00575529 -0.00038736 -7.65942e-22)
(0.272247 0.0407858 0)
(1.09857 0.164186 1.32653e-21)
(1.29246 0.208956 0)
(1.34309 0.228968 -5.09932e-21)
(1.32072 0.244131 0)
(1.26824 0.252098 -8.62079e-21)
(1.21548 0.256891 4.09871e-21)
(1.16354 0.258143 -1.43134e-20)
(1.11209 0.254545 -3.17458e-22)
(1.06225 0.244602 5.35741e-21)
(1.02241 0.229574 2.25098e-20)
(0.998301 0.214423 -4.97091e-23)
(0.987828 0.201506 -8.03909e-21)
(0.973798 0.188096 -1.46347e-20)
(0.885681 0.163333 1.73335e-20)
(0.661828 0.116883 -3.07275e-20)
(0.373067 0.0638782 -4.06427e-21)
(0.142295 0.0242429 0)
(0.0170871 0.00332489 -2.282e-24)
(-0.00907123 -0.0012241 0)
(0.265913 0.0547759 1.80503e-20)
(1.12483 0.222598 -8.63872e-21)
(1.31597 0.273383 -6.47635e-21)
(1.3608 0.293937 2.41864e-21)
(1.33218 0.305485 -4.05399e-21)
(1.27521 0.308946 1.80911e-20)
(1.21783 0.309323 8.56682e-21)
(1.16105 0.306333 0)
(1.10475 0.298562 -2.69349e-20)
(1.05018 0.284385 0)
(1.00642 0.265474 -1.18266e-20)
(0.979623 0.247434 -1.45736e-20)
(0.966739 0.232298 -8.7566e-21)
(0.947011 0.215574 -1.06292e-20)
(0.850043 0.185284 0)
(0.624021 0.130999 0)
(0.347001 0.0711091 -2.65002e-20)
(0.128756 0.0262682 5.24609e-21)
(0.0102773 0.00217654 -3.07812e-21)
(-0.0109462 -0.00210994 -3.64614e-21)
(0.258409 0.0671157 -7.46722e-21)
(1.13645 0.280972 0)
(1.32889 0.338841 1.33249e-20)
(1.37036 0.360387 6.834e-21)
(1.33734 0.36829 9.36698e-21)
(1.27708 0.367253 0)
(1.21609 0.363116 8.40639e-21)
(1.15531 0.35571 1.58742e-20)
(1.09478 0.343551 1.38186e-20)
(1.03592 0.324906 2.52587e-20)
(0.988503 0.301984 0)
(0.959116 0.281019 -3.14511e-20)
(0.943837 0.263525 -1.89319e-20)
(0.919973 0.243726 -1.11969e-20)
(0.819968 0.208457 6.86257e-20)
(0.599989 0.14729 8.18101e-21)
(0.336275 0.0810937 3.85029e-20)
(0.127899 0.030126 -1.82349e-19)
(0.0102655 0.00201338 1.08065e-19)
(-0.0114944 -0.00283621 -1.31906e-19)
(0.251264 0.0782288 -3.86603e-21)
(1.13883 0.337427 1.3439e-21)
(1.33419 0.403481 -1.45945e-21)
(1.37341 0.426375 -6.99944e-21)
(1.33715 0.43081 -7.95615e-21)
(1.27439 0.425466 3.63559e-22)
(1.21054 0.416989 -9.11285e-21)
(1.14646 0.40527 1.64461e-20)
(1.08234 0.388736 -2.97609e-20)
(1.0197 0.365624 0)
(0.968956 0.338807 -1.42604e-20)
(0.936984 0.31483 -3.24474e-22)
(0.919345 0.294931 -2.07239e-20)
(0.892564 0.272326 0)
(0.793386 0.232437 -1.48827e-20)
(0.583453 0.165611 -3.54365e-20)
(0.334265 0.0934187 9.46337e-20)
(0.133371 0.0360486 -9.32531e-20)
(0.0151277 0.00334982 1.32666e-19)
(-0.0106536 -0.00318187 -1.39607e-19)
(0.245285 0.0885215 -1.0467e-22)
(1.13547 0.391314 -5.30862e-22)
(1.334 0.466292 -4.11814e-21)
(1.37137 0.490755 2.8294e-21)
(1.33267 0.492045 -4.0144e-21)
(1.26802 0.48267 0)
(1.20187 0.470102 -8.51197e-21)
(1.13506 0.454279 -1.72416e-20)
(1.0678 0.433536 -1.54877e-20)
(1.00176 0.406116 0)
(0.94791 0.375384 -1.48217e-20)
(0.913476 0.34834 -1.83369e-20)
(0.893659 0.326162 2.25004e-20)
(0.864641 0.300878 -1.36515e-20)
(0.768252 0.256905 -6.50969e-20)
(0.569722 0.185258 3.87738e-20)
(0.335267 0.107071 1.15499e-20)
(0.141544 0.0436514 0)
(0.0225195 0.00613915 -1.28531e-19)
(-0.00891997 -0.00311983 -4.77731e-21)
(0.240601 0.0983251 1.23606e-22)
(1.12868 0.442479 -4.89029e-24)
(1.32981 0.526725 1.92566e-21)
(1.36544 0.552841 1.00888e-20)
(1.32487 0.551354 -1.48489e-20)
(1.25878 0.538292 1.73469e-20)
(1.19076 0.521937 1.83487e-20)
(1.12157 0.502269 -2.75723e-20)
(1.05154 0.477547 9.54207e-21)
(0.982415 0.445975 -6.22318e-20)
(0.925651 0.41132 -1.67581e-20)
(0.888998 0.381439 0)
(0.867204 0.357095 2.44293e-20)
(0.836428 0.329341 2.92951e-20)
(0.743307 0.281423 3.50854e-20)
(0.556005 0.205535 -4.21868e-20)
(0.335571 0.121563 -1.25125e-20)
(0.14937 0.0526293 1.46939e-20)
(0.0305187 0.0100291 0)
(-0.00673653 -0.00269333 -1.03893e-20)
(0.237092 0.107741 -6.08461e-21)
(1.12011 0.490987 2.39649e-21)
(1.32292 0.58477 -1.70716e-21)
(1.35664 0.612277 6.12297e-21)
(1.31455 0.608339 -6.7021e-21)
(1.24736 0.591943 -8.24816e-22)
(1.17778 0.572153 -2.00604e-20)
(1.10654 0.54894 -9.98108e-21)
(1.03403 0.520494 -2.69444e-20)
(0.962042 0.484928 6.28639e-23)
(0.90256 0.446579 -5.25563e-20)
(0.863843 0.414054 4.42808e-20)
(0.840219 0.387585 -2.6869e-20)
(0.807911 0.357276 3.23194e-20)
(0.717289 0.305857 0)
(0.540897 0.225751 -2.29418e-20)
(0.333156 0.136339 1.98294e-23)
(0.155076 0.0620915 -6.42181e-20)
(0.0375711 0.0144682 -9.46129e-21)
(-0.00451993 -0.00203378 0)
(0.234654 0.116993 0)
(1.1107 0.537048 3.31234e-21)
(1.3141 0.640401 -1.31017e-21)
(1.34576 0.668889 -5.58522e-21)
(1.30238 0.662776 -8.5073e-21)
(1.23434 0.643396 0)
(1.16347 0.620517 -9.1389e-21)
(1.09044 0.594084 -2.16086e-22)
(1.01567 0.562203 5.77886e-20)
(0.940966 0.52287 -8.56554e-21)
(0.878932 0.481095 -3.79644e-20)
(0.838272 0.445902 2.30486e-20)
(0.812908 0.417102 -4.4749e-22)
(0.779251 0.384284 3.44051e-20)
(0.690633 0.329197 2.12065e-20)
(0.523947 0.244688 -4.95449e-20)
(0.327421 0.150426 5.87691e-20)
(0.157331 0.0710703 1.74303e-20)
(0.0424536 0.0187342 7.20988e-20)
(-0.00266487 -0.0013268 -1.95015e-19)
(0.233201 0.126208 -3.04866e-21)
(1.10111 0.580846 3.43144e-21)
(1.30394 0.693245 -1.79842e-21)
(1.33345 0.722617 4.31438e-21)
(1.28893 0.714552 0)
(1.22022 0.69251 -8.01505e-21)
(1.14827 0.666886 3.07109e-20)
(1.07365 0.637576 2.19249e-20)
(0.99678 0.602565 0)
(0.919486 0.559754 -1.23381e-19)
(0.854987 0.514701 1.02761e-19)
(0.812415 0.476618 0)
(0.785481 0.445424 3.14348e-20)
(0.750554 0.410066 -4.48953e-22)
(0.663337 0.350982 -6.79149e-20)
(0.504724 0.261874 2.66132e-20)
(0.31851 0.162913 0)
(0.155785 0.0787288 9.41055e-20)
(0.0446031 0.0221665 0)
(-0.00140003 -0.000750927 -9.23566e-20)
(0.232551 0.135426 3.95106e-21)
(1.09172 0.622549 5.31163e-21)
(1.29288 0.743331 -1.56632e-21)
(1.3202 0.773471 0)
(1.27466 0.763642 -7.22871e-21)
(1.20541 0.73924 0)
(1.13253 0.711189 -3.03566e-20)
(1.0565 0.679337 -1.02072e-20)
(0.977659 0.641535 1.0219e-20)
(0.897859 0.595552 -6.10649e-20)
(0.830858 0.547227 1.06227e-20)
(0.786406 0.506133 0)
(0.758063 0.472613 -6.71757e-20)
(0.721746 0.434451 4.42043e-22)
(0.635323 0.370942 0)
(0.483491 0.276755 2.79135e-22)
(0.306396 0.173041 8.58805e-20)
(0.151007 0.0843005 -8.13181e-20)
(0.044165 0.0242812 2.40717e-20)
(-0.000779911 -0.000429187 0)
(0.232362 0.144546 0)
(1.08273 0.66223 6.96497e-21)
(1.28132 0.790754 3.58219e-21)
(1.30641 0.821514 -5.06418e-22)
(1.25994 0.810068 -2.40573e-21)
(1.19025 0.783578 -1.80394e-20)
(1.11659 0.75341 1.13826e-20)
(1.03926 0.719333 -1.20396e-20)
(0.958559 0.679074 4.56102e-20)
(0.876275 0.630235 -9.76917e-20)
(0.806672 0.578641 -7.94012e-22)
(0.760341 0.534627 -2.94398e-20)
(0.730646 0.498716 1.09049e-19)
(0.692792 0.457141 -5.21206e-22)
(0.606698 0.388626 -5.27423e-20)
(0.460356 0.288887 -9.40374e-20)
(0.291533 0.180476 0)
(0.143279 0.0875579 0)
(0.0417349 0.0249908 2.59724e-20)
(-0.000710465 -0.000397503 -1.54259e-20)
(0.232733 0.153673 6.22135e-21)
(1.07429 0.699815 -1.64513e-20)
(1.26953 0.835602 -3.89065e-21)
(1.29238 0.866826 0)
(1.24505 0.853883 -3.15235e-22)
(1.17502 0.825555 -1.65385e-20)
(1.10068 0.793557 2.75278e-20)
(1.02217 0.757558 4.74801e-20)
(0.939688 0.715173 5.9339e-20)
(0.854919 0.663781 -7.98799e-20)
(0.782582 0.609064 -8.84922e-20)
(0.734271 0.5623 7.8788e-20)
(0.703118 0.52359 0)
(0.663572 0.477831 -2.39661e-20)
(0.577401 0.403661 -5.70367e-20)
(0.435422 0.298038 -6.7576e-20)
(0.274354 0.184963 -8.00392e-20)
(0.133029 0.0883996 2.37039e-20)
(0.0376275 0.0244633 -1.39847e-20)
(-0.000982674 -0.000575032 5.87677e-23)
(0.233411 0.162613 0)
(1.06646 0.73579 0)
(1.25769 0.877965 5.24998e-22)
(1.2783 0.909507 0)
(1.23021 0.895173 5.29472e-21)
(1.15991 0.865232 1.12332e-20)
(1.085 0.831658 0)
(1.00542 0.79402 5.64776e-21)
(0.921236 0.74983 9.91207e-20)
(0.833958 0.696198 -1.8377e-19)
(0.758731 0.638669 0)
(0.708227 0.589228 -5.07479e-20)
(0.675357 0.547038 -6.1439e-22)
(0.634009 0.496372 -4.80932e-22)
(0.547508 0.415889 6.10264e-20)
(0.409354 0.304093 -3.2442e-23)
(0.255254 0.186432 -1.72347e-19)
(0.120893 0.0868818 5.09771e-20)
(0.0323291 0.0227308 1.51198e-20)
(-0.00148126 -0.000919754 0)
(0.234164 0.171421 -2.67369e-20)
(1.05901 0.770114 -1.20977e-20)
(1.24589 0.917902 -1.40509e-20)
(1.26435 0.949644 8.53737e-21)
(1.2156 0.934011 6.20976e-21)
(1.1451 0.902672 0)
(1.0697 0.867757 1.6682e-20)
(0.989149 0.828738 -1.25852e-20)
(0.903352 0.783054 7.90167e-22)
(0.813551 0.727524 1.35435e-20)
(0.735266 0.667594 1.14776e-19)
(0.682233 0.615398 -1.78191e-20)
(0.647292 0.569042 -6.73162e-20)
(0.603978 0.512743 -2.79322e-20)
(0.517024 0.425064 3.31379e-20)
(0.382632 0.306829 5.17932e-24)
(0.23489 0.184783 4.64148e-20)
(0.10773 0.0831523 -1.09674e-19)
(0.0266058 0.0200997 1.30092e-19)
(-0.00207563 -0.00137408 1.92115e-20)
(0.234716 0.180005 1.04189e-20)
(1.05194 0.802876 -7.00331e-21)
(1.23425 0.955524 1.29068e-21)
(1.25068 0.987342 7.03123e-21)
(1.20135 0.970508 6.70635e-23)
(1.13071 0.937951 -1.9587e-20)
(1.05492 0.901902 4.84331e-21)
(0.973485 0.861729 -5.2513e-20)
(0.886162 0.81484 -1.09448e-19)
(0.793842 0.757788 -1.09732e-19)
(0.712335 0.69591 0)
(0.656338 0.640827 -7.8282e-20)
(0.61887 0.589818 9.70763e-20)
(0.57322 0.52694 0)
(0.485864 0.430758 -7.10035e-20)
(0.355709 0.305811 4.22959e-20)
(0.214501 0.179833 -4.9901e-20)
(0.0948509 0.0775794 -5.90028e-20)
(0.0211568 0.0169772 -1.04775e-19)
(-0.00264528 -0.00185546 -8.27248e-20)
(0.235618 0.188449 -1.20681e-20)
(1.04511 0.834057 7.50725e-21)
(1.22286 0.990891 1.66071e-20)
(1.23736 1.02269 1.12514e-20)
(1.18755 1.00476 6.64446e-22)
(1.11683 0.971154 -1.04783e-20)
(1.04073 0.934142 1.61751e-20)
(0.958513 0.893035 -5.40049e-20)
(0.86975 0.845209 -6.48829e-20)
(0.774961 0.787029 1.14979e-19)
(0.690059 0.723633 2.52566e-19)
(0.630624 0.665623 0)
(0.590048 0.609748 0)
(0.54134 0.538998 -3.219e-20)
(0.453667 0.432527 0)
(0.328758 0.300202 9.09384e-20)
(0.195381 0.170837 1.07296e-19)
(0.0842424 0.070194 0)
(0.0172113 0.0137773 0)
(-0.00307518 -0.00228386 8.88905e-20)
(0.236165 0.196425 1.40303e-20)
(1.03853 0.863643 1.10455e-20)
(1.21176 1.02411 1.22302e-20)
(1.22446 1.05581 -1.20288e-20)
(1.17425 1.03688 -8.11155e-22)
(1.10352 1.00236 1.05917e-20)
(1.02719 0.964535 -2.21995e-20)
(0.944297 0.92268 -5.36102e-23)
(0.8542 0.874167 -1.0313e-21)
(0.75701 0.815258 -9.97873e-22)
(0.668575 0.750755 1.30218e-19)
(0.605216 0.689968 0)
(0.560815 0.629238 9.84387e-20)
(0.507913 0.549074 6.87567e-20)
(0.419716 0.430283 1.65736e-19)
(0.301219 0.288708 4.89938e-20)
(0.178858 0.155296 -5.77513e-20)
(0.0801223 0.0582218 -3.40054e-20)
(0.020107 0.00933551 0)
(-0.0020275 -0.00235115 9.55088e-20)
(0.237051 0.204418 -3.23797e-20)
(1.03218 0.891786 0)
(1.20096 1.05523 1.50658e-20)
(1.212 1.08679 -1.06857e-20)
(1.16152 1.06695 3.23401e-21)
(1.09082 1.03165 -1.0941e-20)
(1.01436 0.993133 4.30206e-20)
(0.930876 0.950699 -4.43866e-21)
(0.839555 0.901724 0)
(0.740071 0.842445 -1.27156e-19)
(0.648019 0.777266 -2.83453e-19)
(0.580264 0.714092 1.15888e-20)
(0.531227 0.648595 1.35944e-19)
(0.472675 0.557564 0)
(0.382957 0.424735 1.11907e-19)
(0.270749 0.270329 0)
(0.163137 0.127597 0)
(0.0877874 0.0270531 -3.6764e-20)
(0.0542783 -0.0103564 0)
(0.0270303 0.00663638 2.55969e-20)
(0.23749 0.211828 -3.67239e-20)
(1.02602 0.918671 0)
(1.19046 1.08446 2.56805e-20)
(1.19994 1.11587 0)
(1.14932 1.09525 -2.66527e-21)
(1.07866 1.05931 0)
(1.00215 1.02025 2.10208e-21)
(0.918155 0.977432 7.4494e-21)
(0.825694 0.928251 8.16399e-21)
(0.72397 0.868969 -1.39751e-19)
(0.628204 0.803614 8.52591e-21)
(0.555506 0.738729 9.343e-20)
(0.500824 0.668488 1.32827e-19)
(0.434775 0.565159 1.79001e-20)
(0.341646 0.417677 8.77583e-20)
(0.23254 0.246152 0)
(0.137051 0.0840503 1.21663e-19)
(0.075863 -0.0157033 -7.15111e-20)
(0.0325566 0.0578976 8.3575e-20)
(-0.0382304 0.454718 -9.92928e-20)
(0.237867 0.219072 3.07525e-20)
(1.01983 0.944192 4.57742e-20)
(1.18017 1.11212 0)
(1.18814 1.1435 1.06682e-21)
(1.13744 1.12237 9.19226e-21)
(1.06677 1.08603 1.14636e-20)
(0.990267 1.04668 1.48307e-20)
(0.905721 1.00383 0)
(0.812084 0.954856 5.4107e-20)
(0.708025 0.896143 -7.29354e-21)
(0.608217 0.831326 0)
(0.529662 0.765685 0)
(0.46764 0.690283 1.18966e-19)
(0.391881 0.572452 -5.52792e-20)
(0.292757 0.411253 -8.88612e-20)
(0.182562 0.219539 0)
(0.0779778 0.0947108 6.17836e-20)
(0.00685139 0.465707 -7.19661e-20)
(0.0317244 1.92328 -4.05823e-20)
(0.0584264 2.82292 -4.96201e-20)
(0.237857 0.225739 -2.35512e-20)
(1.01367 0.96852 -5.95687e-20)
(1.17012 1.13819 1.57163e-20)
(1.17659 1.16954 1.18984e-20)
(1.12595 1.14809 0)
(1.05526 1.11154 5.59971e-21)
(0.978908 1.07212 2.00283e-20)
(0.893769 1.02945 -3.60114e-21)
(0.799008 0.981023 8.07562e-21)
(0.692622 0.923347 1.33195e-19)
(0.588679 0.859763 1.4358e-19)
(0.503688 0.794731 1.04747e-19)
(0.432497 0.713736 1.19749e-19)
(0.345628 0.578639 -1.2986e-19)
(0.242752 0.409098 -1.34176e-19)
(0.11952 0.267233 0)
(0.0413211 0.876171 0)
(0.0890777 2.57814 3.44013e-20)
(0.0916212 3.21014 0)
(0.0927268 3.38878 9.00952e-20)
(0.240632 0.231929 0)
(1.00779 0.992024 0)
(1.16001 1.16254 0)
(1.16509 1.19385 3.79977e-21)
(1.11453 1.17219 8.98548e-21)
(1.04392 1.13569 1.22544e-21)
(0.968002 1.09648 1.27712e-20)
(0.88223 1.05419 -3.51126e-21)
(0.786402 1.00658 6.7564e-20)
(0.677747 0.95041 -1.89452e-21)
(0.569681 0.88876 2.83796e-19)
(0.477943 0.825858 -1.20914e-20)
(0.395356 0.739303 1.45454e-20)
(0.298356 0.582099 1.88023e-20)
(0.182324 0.427361 -4.22745e-22)
(0.0946532 1.01189 3.47329e-22)
(0.127187 2.75887 -1.80637e-19)
(0.131929 3.30096 -6.85967e-20)
(0.121822 3.42423 3.66368e-20)
(0.110849 3.44415 -4.14564e-20)
(0.163333 0.177149 1.46973e-20)
(0.997899 1.01742 0)
(1.14971 1.18541 -3.33754e-20)
(1.15402 1.21681 -3.38697e-20)
(1.10364 1.19514 2.42817e-20)
(1.03343 1.15895 -1.69387e-22)
(0.957406 1.11969 -1.30537e-20)
(0.871162 1.07804 3.9054e-20)
(0.774343 1.0316 -5.55218e-20)
(0.663613 0.977441 0)
(0.551499 0.918425 1.39895e-19)
(0.452964 0.85871 -8.55748e-20)
(0.357315 0.769772 0)
(0.243736 0.587518 1.81299e-20)
(0.135438 0.786021 4.33827e-20)
(0.141597 2.56002 -4.95947e-20)
(0.190259 3.33009 5.66177e-20)
(0.172158 3.43618 3.07336e-20)
(0.142646 3.45473 3.52556e-20)
(0.12306 3.4632 5.65965e-20)
(0.276094 0.270948 -2.82003e-20)
(0.981609 1.02869 0)
(1.13218 1.21188 3.68142e-20)
(1.13995 1.24888 3.87729e-20)
(1.0866 1.22904 -2.929e-20)
(1.01584 1.19326 -5.03107e-21)
(0.938641 1.15553 1.15596e-20)
(0.851854 1.11521 3.05108e-21)
(0.753649 1.07107 5.27399e-20)
(0.640045 1.02105 1.152e-19)
(0.522558 0.968455 7.87756e-21)
(0.413041 0.914592 7.60039e-20)
(0.289007 0.809777 1.36935e-20)
(0.206736 0.959714 -1.74077e-20)
(0.212321 2.43335 -3.96636e-20)
(0.263028 3.33614 3.96893e-20)
(0.246001 3.46358 -4.3857e-20)
(0.211527 3.48164 -2.54533e-20)
(0.177574 3.50561 -2.34887e-20)
(0.132521 3.49983 -3.42929e-21)
(0.266638 0.270065 0)
(0.979293 1.0521 1.10983e-20)
(1.1239 1.23584 -7.7124e-21)
(1.12928 1.2727 -4.76228e-21)
(1.07581 1.25255 -2.11074e-20)
(1.00508 1.21698 6.03701e-21)
(0.927574 1.17948 -5.69417e-21)
(0.840557 1.14004 2.72304e-21)
(0.741768 1.09744 -5.4845e-20)
(0.626757 1.05035 -2.87751e-21)
(0.506332 1.00281 -2.52482e-19)
(0.390972 0.951857 1.08482e-20)
(0.276253 0.883635 -1.29677e-20)
(0.24127 1.55943 -1.60466e-20)
(0.30278 3.14518 3.66005e-21)
(0.316459 3.46679 3.2558e-22)
(0.274684 3.51339 6.61336e-20)
(0.240585 3.53554 3.39919e-20)
(0.194771 3.5549 -1.17831e-20)
(0.144847 3.55083 -1.74704e-20)
(0.252697 0.268296 2.88202e-20)
(0.976102 1.07817 7.5738e-20)
(1.11528 1.26192 -2.21261e-20)
(1.11825 1.29812 -1.79548e-20)
(1.06459 1.27755 0)
(0.993962 1.24201 1.5238e-20)
(0.916415 1.2048 -5.04588e-21)
(0.829424 1.16618 2.37161e-21)
(0.730355 1.12521 -6.10077e-21)
(0.614457 1.08127 -1.0394e-19)
(0.491993 1.03939 -1.16392e-19)
(0.372203 0.990806 -8.9072e-20)
(0.275279 1.02666 -9.7386e-20)
(0.305075 2.3115 1.00694e-19)
(0.382025 3.39499 8.65909e-20)
(0.354809 3.52438 0)
(0.306566 3.55968 0)
(0.269814 3.59238 -9.29123e-21)
(0.225516 3.63717 0)
(0.156235 3.62098 -1.54224e-20)
(0.242875 0.270432 -4.3494e-20)
(0.970983 1.10518 -6.47603e-20)
(1.10531 1.2893 0)
(1.106 1.32443 1.29595e-21)
(1.05217 1.30323 -2.44461e-20)
(0.981791 1.26763 2.72612e-20)
(0.904525 1.23072 -1.33835e-21)
(0.817782 1.19285 1.32323e-21)
(0.718686 1.15348 -3.85259e-20)
(0.60233 1.11269 5.18816e-21)
(0.478701 1.07656 0)
(0.354873 1.03391 0)
(0.299347 1.31416 -8.84727e-20)
(0.382043 2.97507 3.63036e-20)
(0.446291 3.49539 4.7014e-20)