/*--------------------------------*- C++ -*----------------------------------*\
  =========                 |
  \\      /  F ield         | OpenFOAM: The Open Source CFD Toolbox
   \\    /   O peration     | Website:  https://openfoam.org
    \\  /    A nd           | Version:  6
     \\/     M anipulation  |
\*---------------------------------------------------------------------------*/
FoamFile
{
    version     2.0;
    format      ascii;
    class       volScalarField;
    location    "27";
    object      p;
}
// * * * * * * * * * * * * * * * * * * * * * * * * * * * * * * * * * * * * * //

dimensions      [0 2 -2 0 0 0 0];

internalField   nonuniform List<scalar> 
2200
(
0.507596
0.49238
0.474904
0.458611
0.444144
0.432099
0.422465
0.41497
0.409509
0.406468
0.406786
0.410389
0.416264
0.424073
0.433929
0.446138
0.46072
0.477084
0.494595
0.509827
0.451298
0.447386
0.442393
0.436802
0.430479
0.423843
0.417444
0.411782
0.407378
0.40483
0.405139
0.408278
0.413124
0.419127
0.425778
0.43259
0.43904
0.444703
0.449736
0.453667
0.409625
0.409317
0.410291
0.411661
0.412201
0.411215
0.408875
0.405925
0.40323
0.401454
0.401802
0.404201
0.407419
0.410751
0.413364
0.414534
0.41412
0.412858
0.411976
0.412309
0.384468
0.385496
0.387932
0.39133
0.394649
0.396999
0.398074
0.398061
0.397347
0.396571
0.396993
0.398512
0.399799
0.40024
0.399482
0.397376
0.394232
0.390927
0.388541
0.387542
0.369717
0.371178
0.373925
0.377431
0.381002
0.384313
0.387041
0.388884
0.389854
0.390473
0.390972
0.391244
0.390935
0.3896
0.38725
0.384216
0.380846
0.377459
0.374776
0.37334
0.362004
0.36332
0.365594
0.36845
0.371507
0.374548
0.377264
0.379371
0.381109
0.382978
0.38357
0.382786
0.381886
0.380388
0.378114
0.375386
0.372558
0.369858
0.367661
0.366364
0.358219
0.359107
0.360626
0.362653
0.364855
0.367038
0.369109
0.371071
0.373198
0.375535
0.376304
0.37531
0.374184
0.372925
0.37139
0.369609
0.367672
0.365809
0.364379
0.363513
0.355745
0.35631
0.357218
0.358436
0.359709
0.360948
0.362408
0.364355
0.36674
0.368785
0.369714
0.369244
0.368068
0.367061
0.366286
0.365536
0.364611
0.363613
0.362815
0.36227
0.353009
0.353423
0.354049
0.354817
0.355603
0.35642
0.357537
0.359187
0.361111
0.362442
0.363512
0.364114
0.36372
0.363278
0.363
0.36275
0.362362
0.361868
0.361372
0.360976
0.349373
0.349693
0.350282
0.351148
0.352235
0.353447
0.354659
0.355952
0.35727
0.358298
0.35963
0.361038
0.361608
0.361654
0.361445
0.361009
0.360427
0.359881
0.359441
0.359143
0.345137
0.345337
0.34591
0.347056
0.348703
0.350538
0.352202
0.353717
0.355168
0.3566
0.35822
0.359661
0.360454
0.360616
0.360284
0.359433
0.358463
0.357723
0.357326
0.357154
0.340897
0.340988
0.34147
0.342639
0.344341
0.346258
0.348297
0.350503
0.352676
0.35482
0.35673
0.357975
0.358515
0.358505
0.358163
0.357514
0.356694
0.356041
0.35578
0.355725
0.336822
0.336845
0.337213
0.338135
0.339429
0.340964
0.342962
0.345497
0.348232
0.351126
0.353593
0.355088
0.355828
0.356053
0.356088
0.356026
0.35569
0.355376
0.355263
0.355259
0.332692
0.332671
0.332974
0.333671
0.334685
0.335966
0.337749
0.34009
0.342878
0.346269
0.349534
0.352002
0.353701
0.354719
0.355173
0.355516
0.355643
0.355643
0.355626
0.355626
0.328155
0.328153
0.328448
0.329143
0.330208
0.331654
0.333557
0.335879
0.338792
0.34254
0.346557
0.350036
0.352658
0.35437
0.355404
0.356097
0.356483
0.356625
0.356655
0.356653
0.322997
0.323028
0.323302
0.324085
0.325434
0.327272
0.329619
0.332514
0.336166
0.34064
0.34546
0.349625
0.352763
0.354995
0.356515
0.357507
0.358031
0.358277
0.358374
0.358384
0.317019
0.31705
0.317397
0.318277
0.319744
0.321819
0.324625
0.328294
0.332975
0.338641
0.344657
0.349753
0.353526
0.356319
0.358289
0.359599
0.360388
0.360816
0.36098
0.360992
0.30968
0.309716
0.310105
0.311053
0.31264
0.314943
0.318129
0.322448
0.328136
0.335255
0.342963
0.349549
0.354466
0.358085
0.360682
0.362456
0.363592
0.364224
0.36446
0.364471
0.30074
0.300766
0.301182
0.302243
0.304074
0.306784
0.310588
0.315797
0.322703
0.331513
0.341242
0.349625
0.355947
0.360563
0.36389
0.366213
0.367756
0.3686
0.36889
0.368889
0.289732
0.289804
0.290351
0.291678
0.293978
0.297435
0.30228
0.308822
0.317451
0.328444
0.340492
0.350844
0.358587
0.364276
0.368342
0.371135
0.372962
0.373949
0.3743
0.374303
0.276217
0.276288
0.27699
0.278727
0.281756
0.286249
0.292457
0.300868
0.311909
0.325763
0.340638
0.35326
0.362572
0.369319
0.374111
0.377455
0.379626
0.380787
0.381195
0.381189
0.259227
0.259366
0.260329
0.262636
0.266574
0.272364
0.28046
0.291365
0.305498
0.322911
0.341243
0.356463
0.367587
0.375654
0.381387
0.385359
0.387911
0.389265
0.389737
0.389725
0.237986
0.238146
0.239401
0.24243
0.247666
0.255413
0.266092
0.28027
0.298331
0.320099
0.342415
0.360611
0.373822
0.38337
0.39022
0.394971
0.398
0.399608
0.400152
0.400115
0.210079
0.210483
0.212479
0.216887
0.224238
0.234852
0.249237
0.26798
0.291076
0.317939
0.344592
0.365968
0.381476
0.392699
0.400761
0.406401
0.410007
0.411885
0.412496
0.412443
0.173266
0.174082
0.17729
0.18406
0.194951
0.210195
0.23018
0.254996
0.28417
0.316709
0.348
0.372664
0.390574
0.403693
0.413192
0.419843
0.424098
0.4263
0.426965
0.426844
0.124301
0.125685
0.131477
0.14271
0.159557
0.181966
0.209499
0.241711
0.277778
0.316403
0.352426
0.380564
0.401073
0.416149
0.427206
0.435067
0.440107
0.442629
0.44325
0.44303
0.0605011
0.0643997
0.0763181
0.0956673
0.121219
0.1524
0.188495
0.228764
0.272162
0.317335
0.358762
0.391179
0.414998
0.432899
0.4463
0.455922
0.462093
0.465167
0.465933
0.465795
-0.0116066
-0.00171571
0.0190626
0.0479639
0.0831069
0.123533
0.16832
0.216621
0.267196
0.318962
0.366733
0.404301
0.431865
0.452881
0.469259
0.481443
0.48955
0.49391
0.495449
0.495768
-0.0770262
-0.0627197
-0.0351925
0.00224509
0.0465125
0.0960125
0.149307
0.205203
0.262445
0.320623
0.374786
0.417257
0.448108
0.471511
0.489918
0.504169
0.514052
0.519643
0.521668
0.521979
-0.128602
-0.113652
-0.0822594
-0.0385098
0.0131026
0.0703006
0.131086
0.19381
0.257468
0.322354
0.382591
0.429096
0.462808
0.488376
0.508348
0.523651
0.534219
0.540054
0.542229
0.542593
-0.171661
-0.155996
-0.12179
-0.0735405
-0.0164684
0.0467284
0.113637
0.182315
0.252133
0.323636
0.389048
0.438645
0.475079
0.502476
0.523167
0.538814
0.549614
0.555615
0.55796
0.558408
-0.208645
-0.192122
-0.155517
-0.103831
-0.0426165
0.025238
0.0970449
0.17085
0.24645
0.32421
0.394271
0.446869
0.485012
0.51336
0.534677
0.550549
0.561507
0.567795
0.570327
0.570841
-0.241236
-0.223956
-0.18519
-0.13057
-0.066022
0.0055192
0.0813127
0.159654
0.240641
0.32409
0.398072
0.453087
0.49237
0.521359
0.54308
0.559347
0.570806
0.5774
0.580115
0.580656
-0.270676
-0.252837
-0.212126
-0.154792
-0.0873497
-0.0127392
0.0664338
0.148887
0.234748
0.322873
0.399957
0.457269
0.498098
0.527711
0.549801
0.566498
0.578262
0.585108
0.587741
0.587985
-0.297717
-0.279391
-0.23697
-0.17719
-0.10714
-0.0298027
0.0523418
0.138457
0.228533
0.320404
0.400702
0.460824
0.503157
0.533643
0.556409
0.573316
0.585031
0.591789
0.594417
0.594587
-0.323049
-0.304257
-0.260246
-0.198172
-0.125712
-0.0459263
0.0388156
0.128079
0.221762
0.317121
0.401125
0.464203
0.508176
0.539918
0.56312
0.579987
0.591627
0.598366
0.601046
0.601262
-0.346995
-0.327694
-0.282296
-0.218178
-0.14351
-0.0615031
0.0255398
0.117494
0.214351
0.313211
0.401263
0.467499
0.513636
0.5463
0.569846
0.586883
0.598496
0.605082
0.607703
0.60793
-0.369894
-0.350088
-0.303457
-0.237492
-0.160841
-0.0768668
0.0121931
0.106478
0.206194
0.308511
0.401103
0.470862
0.519055
0.55272
0.576854
0.59406
0.605602
0.612104
0.614605
0.614821
-0.391911
-0.371614
-0.323958
-0.256407
-0.178028
-0.0923339
-0.00147023
0.094929
0.197333
0.303274
0.400477
0.473848
0.524266
0.559487
0.584095
0.601469
0.613001
0.619335
0.621726
0.6219
-0.413218
-0.392534
-0.343995
-0.275068
-0.195194
-0.107995
-0.0154505
0.0829962
0.187884
0.297017
0.397872
0.475374
0.52942
0.56645
0.591819
0.609274
0.62069
0.62682
0.628932
0.629022
-0.433957
-0.412972
-0.363663
-0.293512
-0.21231
-0.123763
-0.0296416
0.0706754
0.177556
0.289089
0.393721
0.476204
0.534255
0.573889
0.600379
0.617805
0.628679
0.634206
0.636032
0.636019
-0.45427
-0.433004
-0.382946
-0.31165
-0.229239
-0.139508
-0.0439856
0.057995
0.166524
0.280223
0.388445
0.475183
0.538214
0.581963
0.610309
0.627589
0.63735
0.641881
0.643042
0.642812
-0.474156
-0.452629
-0.401801
-0.329358
-0.245807
-0.155047
-0.0583209
0.0451256
0.155039
0.270475
0.381223
0.472614
0.541091
0.58982
0.621697
0.639735
0.647785
0.649953
0.649638
0.649112
-0.493585
-0.471802
-0.42015
-0.346521
-0.261857
-0.170213
-0.0725365
0.0320767
0.143108
0.259844
0.373088
0.468604
0.541686
0.596541
0.634064
0.655122
0.661789
0.659986
0.656081
0.654988
-0.512451
-0.490461
-0.437936
-0.363063
-0.277319
-0.184989
-0.0866486
0.0188954
0.130906
0.248904
0.364579
0.462474
0.539954
0.601133
0.646022
0.673581
0.682141
0.67533
0.664346
0.659866
-0.530693
-0.508507
-0.455078
-0.378967
-0.292223
-0.199402
-0.100595
0.00568147
0.118538
0.238022
0.355371
0.45489
0.535997
0.602625
0.655447
0.692407
0.709388
0.701503
0.676841
0.649586
-0.54821
-0.525861
-0.471558
-0.394356
-0.306839
-0.213731
-0.114666
-0.00786354
0.105776
0.226533
0.344893
0.445861
0.529272
0.600425
0.660499
0.707628
0.736922
0.741923
0.744189
0.751077
-0.564957
-0.542527
-0.487463
-0.40942
-0.321473
-0.228358
-0.129245
-0.0221149
0.092097
0.213703
0.332897
0.434607
0.519106
0.592825
0.657297
0.709876
0.741324
0.744528
0.718631
0.710054
-0.580913
-0.558524
-0.5028
-0.424091
-0.336042
-0.24323
-0.144219
-0.0369239
0.0775359
0.199707
0.319278
0.420406
0.504083
0.577151
0.639954
0.686761
0.695481
0.664931
0.620711
0.604525
-0.596027
-0.573913
-0.517612
-0.438353
-0.350548
-0.258365
-0.159564
-0.0522725
0.062131
0.184418
0.303305
0.402785
0.483683
0.55043
0.602016
0.622327
0.605896
0.548981
0.486229
0.471994
-0.610229
-0.588728
-0.531936
-0.452273
-0.365068
-0.273749
-0.175195
-0.0680782
0.0459415
0.167814
0.285422
0.381571
0.455841
0.510312
0.539699
0.535489
0.491399
0.404948
0.327886
0.315439
-0.623909
-0.603195
-0.546222
-0.466515
-0.380127
-0.289649
-0.191315
-0.0845228
0.0287827
0.149528
0.264857
0.356264
0.421324
0.45843
0.4584
0.433064
0.337542
0.232725
0.146998
0.136826
-0.637984
-0.617775
-0.561278
-0.482164
-0.396515
-0.306477
-0.208255
-0.101968
0.0102366
0.129338
0.241567
0.326305
0.378753
0.394411
0.369273
0.2984
0.17142
0.0444588
-0.0607606
-0.0751612
-0.653033
-0.632977
-0.577468
-0.499477
-0.414341
-0.324265
-0.226077
-0.120476
-0.00961433
0.107345
0.215763
0.292598
0.328858
0.319544
0.276209
0.153663
-0.00633591
-0.177132
-0.316869
-0.338614
-0.669239
-0.649184
-0.594762
-0.518057
-0.433273
-0.34287
-0.244673
-0.139952
-0.0308529
0.0832277
0.186614
0.255782
0.273861
0.233744
0.156449
0.000499297
-0.18785
-0.404381
-0.611798
-0.686858
-0.686771
-0.66673
-0.613201
-0.53758
-0.453028
-0.362256
-0.264118
-0.160488
-0.0535543
0.0571129
0.154987
0.215034
0.213121
0.140279
0.0129715
-0.158171
-0.357701
-0.634674
-1.06607
-1.40312
-0.705724
-0.685642
-0.632744
-0.557889
-0.473462
-0.382377
-0.284337
-0.181882
-0.0773903
0.0292314
0.121498
0.171405
0.149578
0.0505267
-0.137713
-0.333927
-0.515587
-0.776688
-1.30896
-2.14687
-0.726175
-0.706
-0.653463
-0.579092
-0.49472
-0.403425
-0.3056
-0.204463
-0.102761
-0.000886224
0.0851314
0.124424
0.0832814
-0.0306736
-0.269437
-0.486928
-0.64226
-0.786971
-0.980874
-1.28622
-0.748074
-0.727742
-0.675504
-0.601593
-0.517328
-0.425991
-0.3286
-0.228945
-0.130297
-0.0338827
0.0458136
0.0738436
0.0155007
-0.114197
-0.373616
-0.580857
-0.707812
-0.775927
-0.818724
-0.852766
-0.771431
-0.75095
-0.698942
-0.625457
-0.541406
-0.450226
-0.353441
-0.255359
-0.160106
-0.0698034
0.00241068
0.0199666
-0.0505768
-0.1964
-0.448643
-0.632516
-0.731362
-0.761441
-0.791313
-0.796632
-0.796076
-0.775465
-0.723691
-0.650691
-0.567021
-0.476256
-0.380278
-0.283779
-0.191836
-0.108022
-0.044308
-0.0372255
-0.11225
-0.277121
-0.505217
-0.658944
-0.73265
-0.752555
-0.759149
-0.759334
-0.821899
-0.801147
-0.749583
-0.677113
-0.594047
-0.503994
-0.408964
-0.313918
-0.22516
-0.148341
-0.0949336
-0.0984168
-0.168084
-0.355262
-0.548832
-0.66776
-0.713777
-0.738756
-0.736117
-0.733672
-0.84851
-0.827649
-0.776297
-0.70442
-0.622191
-0.533242
-0.439482
-0.34589
-0.25987
-0.18884
-0.146994
-0.162362
-0.229614
-0.417526
-0.583278
-0.679412
-0.701854
-0.714413
-0.716138
-0.714145
-0.875376
-0.854458
-0.803312
-0.732131
-0.651052
-0.5637
-0.471646
-0.379368
-0.29511
-0.229082
-0.198773
-0.227423
-0.300976
-0.469994
-0.602361
-0.678202
-0.700675
-0.700166
-0.702161
-0.702327
-0.9018
-0.881042
-0.830187
-0.759658
-0.679874
-0.594653
-0.504993
-0.414332
-0.330964
-0.268038
-0.251092
-0.297676
-0.38561
-0.520125
-0.605042
-0.652492
-0.688815
-0.691139
-0.692499
-0.693455
-0.926782
-0.906404
-0.856076
-0.786231
-0.707889
-0.625395
-0.539209
-0.45071
-0.367118
-0.304324
-0.298621
-0.370374
-0.480683
-0.583473
-0.628017
-0.632476
-0.661755
-0.682245
-0.692821
-0.697302
-0.949373
-0.929806
-0.880468
-0.811291
-0.734061
-0.654333
-0.572723
-0.488126
-0.40388
-0.338409
-0.342396
-0.440245
-0.579315
-0.676747
-0.696568
-0.681046
-0.694137
-0.720346
-0.734317
-0.741268
-0.968113
-0.949781
-0.902098
-0.833886
-0.757484
-0.680212
-0.603904
-0.52561
-0.442372
-0.369605
-0.372535
-0.496378
-0.674839
-0.805278
-0.855831
-0.871577
-0.868942
-0.859679
-0.851181
-0.847095
-0.981993
-0.965362
-0.920221
-0.853677
-0.77759
-0.701159
-0.629606
-0.559818
-0.48151
-0.400358
-0.386866
-0.523565
-0.750031
-0.958802
-1.09043
-1.15138
-1.15054
-1.11389
-1.06795
-1.03862
-0.989792
-0.975184
-0.933182
-0.869211
-0.793863
-0.716398
-0.646287
-0.585799
-0.519518
-0.43306
-0.387062
-0.505317
-0.770447
-1.06713
-1.28057
-1.35464
-1.3575
-1.32657
-1.27688
-1.23339
-0.990562
-0.978183
-0.939861
-0.879226
-0.805553
-0.726556
-0.653289
-0.596327
-0.546978
-0.469208
-0.37992
-0.435206
-0.671658
-0.99535
-1.27794
-1.38311
-1.38641
-1.35114
-1.30326
-1.26392
-0.983887
-0.9731
-0.937764
-0.880851
-0.81074
-0.73192
-0.652679
-0.589508
-0.547445
-0.494065
-0.378118
-0.329955
-0.445582
-0.676914
-0.932492
-1.03748
-1.00691
-0.931792
-0.856503
-0.814228
-0.965924
-0.956439
-0.925066
-0.872032
-0.806721
-0.73192
-0.648356
-0.571445
-0.518093
-0.476252
-0.366343
-0.223968
-0.143936
-0.124939
-0.162648
-0.146384
-0.0605125
0.0354313
0.106847
0.1477
-0.932624
-0.925327
-0.901129
-0.853828
-0.792201
-0.722143
-0.640646
-0.549942
-0.474734
-0.414966
-0.31061
-0.115583
0.116362
0.373838
0.607763
0.810563
0.992335
1.13787
1.23055
1.26875
-0.887085
-0.883432
-0.86899
-0.829824
-0.770542
-0.700992
-0.623693
-0.528506
-0.430467
-0.342288
-0.223718
-0.0144781
0.267156
0.642666
1.05497
1.41917
1.69487
1.87716
1.97073
1.99779
-0.843757
-0.84384
-0.835844
-0.804009
-0.74697
-0.674332
-0.594979
-0.502864
-0.392524
-0.284559
-0.161424
0.0307822
0.313338
0.659085
1.04875
1.40804
1.6713
1.82732
1.89731
1.91609
-0.805535
-0.806832
-0.800372
-0.773635
-0.719555
-0.645271
-0.562607
-0.47508
-0.369468
-0.260131
-0.156647
-0.00715114
0.238674
0.508336
0.773261
1.01587
1.20006
1.30894
1.35897
1.37633
-0.759553
-0.761123
-0.756869
-0.734438
-0.684436
-0.613464
-0.53311
-0.452629
-0.362683
-0.260674
-0.18071
-0.0909427
0.0870086
0.300056
0.495398
0.658622
0.779056
0.858768
0.902898
0.920518
-0.700018
-0.701747
-0.69983
-0.682011
-0.638915
-0.577363
-0.507478
-0.438476
-0.367253
-0.277834
-0.213007
-0.175478
-0.0784597
0.0681985
0.223993
0.352355
0.442138
0.505436
0.542892
0.556102
-0.623362
-0.625078
-0.624456
-0.611291
-0.578316
-0.532657
-0.480733
-0.425476
-0.370091
-0.297919
-0.236387
-0.224465
-0.186316
-0.0868389
0.0399793
0.144494
0.222632
0.277537
0.306212
0.313192
-0.535194
-0.536659
-0.536689
-0.527969
-0.506
-0.477725
-0.445512
-0.404826
-0.361247
-0.308532
-0.251468
-0.240386
-0.224785
-0.145802
-0.044368
0.0361153
0.0992232
0.141102
0.15917
0.162357
-0.449405
-0.450429
-0.450877
-0.446729
-0.435376
-0.420858
-0.403683
-0.377278
-0.342464
-0.306542
-0.259974
-0.248839
-0.23473
-0.163038
-0.0832291
-0.0222796
0.0163758
0.03765
0.0468961
0.0495557
-0.381551
-0.382201
-0.382987
-0.382204
-0.378962
-0.373847
-0.365479
-0.349963
-0.322687
-0.29764
-0.262266
-0.257382
-0.242267
-0.180867
-0.121463
-0.0794432
-0.059613
-0.0504469
-0.047548
-0.046032
-0.337829
-0.338267
-0.339249
-0.340464
-0.341646
-0.341159
-0.33646
-0.327021
-0.306942
-0.286857
-0.25914
-0.254452
-0.248618
-0.202942
-0.160579
-0.137085
-0.127786
-0.121027
-0.11872
-0.117745
-0.314949
-0.31526
-0.316155
-0.317731
-0.319693
-0.32023
-0.316503
-0.309198
-0.296018
-0.277822
-0.250365
-0.242752
-0.248218
-0.218865
-0.190326
-0.181193
-0.175462
-0.16772
-0.165751
-0.167313
-0.307212
-0.307321
-0.307798
-0.308983
-0.310343
-0.310445
-0.307
-0.299655
-0.289683
-0.270517
-0.243394
-0.237918
-0.243625
-0.226874
-0.205473
-0.204467
-0.203965
-0.204308
-0.205646
-0.208301
-0.311858
-0.311722
-0.311751
-0.312503
-0.313395
-0.313088
-0.30968
-0.30089
-0.288584
-0.271079
-0.245958
-0.242358
-0.237371
-0.226754
-0.215637
-0.221186
-0.220983
-0.229093
-0.234052
-0.234651
-0.328533
-0.328109
-0.327755
-0.328191
-0.328774
-0.328193
-0.325207
-0.317597
-0.305627
-0.282702
-0.259402
-0.257704
-0.240568
-0.239432
-0.229093
-0.226882
-0.22151
-0.219625
-0.222056
-0.221548
-0.356589
-0.356095
-0.355303
-0.354949
-0.355102
-0.3545
-0.352694
-0.348417
-0.340426
-0.319075
-0.300163
-0.293435
-0.27195
-0.270621
-0.247628
-0.225357
-0.201624
-0.175229
-0.170491
-0.174645
-0.391215
-0.390901
-0.390761
-0.39071
-0.390973
-0.391687
-0.393511
-0.396867
-0.397282
-0.386863
-0.369839
-0.353024
-0.33371
-0.317066
-0.277068
-0.240578
-0.213852
-0.186756
-0.175751
-0.18092
-0.430601
-0.430402
-0.430627
-0.431639
-0.433767
-0.438147
-0.447046
-0.46239
-0.474747
-0.484424
-0.470258
-0.429506
-0.395242
-0.367746
-0.333357
-0.298876
-0.27097
-0.261949
-0.251496
-0.252508
-0.469861
-0.470116
-0.471212
-0.473675
-0.478787
-0.489125
-0.509047
-0.542019
-0.576182
-0.620037
-0.610014
-0.540443
-0.468568
-0.421185
-0.388051
-0.357251
-0.314704
-0.30868
-0.311421
-0.311906
-0.499416
-0.500438
-0.502841
-0.507303
-0.516407
-0.534479
-0.568559
-0.625032
-0.703933
-0.78815
-0.778429
-0.684012
-0.588108
-0.51674
-0.448712
-0.405576
-0.376555
-0.36024
-0.368467
-0.369608
-0.508656
-0.510053
-0.513926
-0.521086
-0.533888
-0.558921
-0.605783
-0.685161
-0.807145
-0.93393
-0.940431
-0.8184
-0.704701
-0.607686
-0.526069
-0.471698
-0.465611
-0.453992
-0.453793
-0.452461
-0.490111
-0.491557
-0.494495
-0.502141
-0.518746
-0.548398
-0.602232
-0.694897
-0.837384
-0.993647
-1.01883
-0.881157
-0.749395
-0.632048
-0.56699
-0.535258
-0.512031
-0.517511
-0.512388
-0.510118
-0.443325
-0.445095
-0.448179
-0.454296
-0.468424
-0.497166
-0.550152
-0.641284
-0.779443
-0.931921
-0.958858
-0.831552
-0.688283
-0.599883
-0.553721
-0.534058
-0.522122
-0.524992
-0.520818
-0.518919
-0.370412
-0.371847
-0.374683
-0.379947
-0.390943
-0.413662
-0.456623
-0.531621
-0.644715
-0.765737
-0.782686
-0.677108
-0.552107
-0.520582
-0.502684
-0.481196
-0.493389
-0.4907
-0.486061
-0.483794
-0.283182
-0.284094
-0.285708
-0.288958
-0.296209
-0.31174
-0.34131
-0.393108
-0.470349
-0.552058
-0.556609
-0.464003
-0.412646
-0.406759
-0.404899
-0.412501
-0.419638
-0.413869
-0.411041
-0.40996
-0.194539
-0.194913
-0.195535
-0.196785
-0.200416
-0.209138
-0.2263
-0.257038
-0.301935
-0.350475
-0.343899
-0.273098
-0.276786
-0.282408
-0.293812
-0.31575
-0.316925
-0.314738
-0.315139
-0.314365
-0.117789
-0.117849
-0.118018
-0.118392
-0.119675
-0.123119
-0.129878
-0.142158
-0.157685
-0.176254
-0.166438
-0.161759
-0.168616
-0.184524
-0.203091
-0.216187
-0.214459
-0.21505
-0.215026
-0.214667
-0.0563171
-0.0560923
-0.0558875
-0.0550698
-0.0544165
-0.054756
-0.056308
-0.0603671
-0.0618978
-0.0538445
-0.0473786
-0.0693045
-0.0831256
-0.102017
-0.115185
-0.121023
-0.121461
-0.122141
-0.121556
-0.121386
-0.0132963
-0.012839
-0.0121926
-0.0107542
-0.00943234
-0.00873676
-0.00776202
-0.00667066
-0.00483299
0.000105053
-0.0108266
-0.0222879
-0.0255822
-0.0313553
-0.0366124
-0.0349944
-0.0347535
-0.0356042
-0.0362015
-0.036507
-0.907757
-0.422321
-0.13056
0.0907956
0.271357
0.421619
0.546071
0.652411
0.735225
0.766149
-0.203382
0.0239405
0.148981
0.2783
0.404261
0.511144
0.590871
0.636805
0.63757
0.637358
0.0876573
0.22845
0.330633
0.421694
0.503388
0.571409
0.620434
0.646136
0.654357
0.689373
0.28785
0.382195
0.463062
0.530265
0.585522
0.630065
0.664373
0.690595
0.712063
0.743474
0.447294
0.508213
0.568686
0.618047
0.658259
0.691318
0.719459
0.74507
0.770288
0.794939
0.575665
0.617738
0.660726
0.697704
0.729008
0.756077
0.78072
0.804383
0.827242
0.845928
0.684776
0.713681
0.745183
0.773565
0.798928
0.8221
0.843915
0.864641
0.884019
0.899976
0.780081
0.80029
0.824757
0.84813
0.869589
0.889439
0.908141
0.926
0.942795
0.956468
0.866461
0.884179
0.904162
0.922927
0.940542
0.957303
0.973444
0.9889
1.00349
1.01579
0.950824
0.964571
0.981476
0.997738
1.01301
1.02739
1.04105
1.05423
1.06686
1.07738
1.03825
1.04684
1.05994
1.07402
1.08744
1.09984
1.1114
1.12228
1.13266
1.14173
1.12667
1.13226
1.14213
1.15392
1.16547
1.17588
1.18507
1.19345
1.20149
1.20861
1.21853
1.22206
1.22893
1.23709
1.2453
1.25314
1.26039
1.26688
1.27304
1.27887
1.31451
1.31477
1.3166
1.31944
1.32311
1.32782
1.33366
1.34042
1.34735
1.35339
1.41643
1.40768
1.39824
1.39106
1.38775
1.38926
1.39592
1.40712
1.42137
1.43481
1.52305
1.48599
1.45516
1.43619
1.42726
1.42685
1.43499
1.45414
1.48556
1.52439
)
;

boundaryField
{
    wall-4
    {
        type            zeroGradient;
    }
    pressure-outlet-7
    {
        type            fixedValue;
        value           uniform 0;
    }
    velocity-inlet-6
    {
        type            zeroGradient;
    }
    velocity-inlet-5
    {
        type            zeroGradient;
    }
    frontAndBackPlanes
    {
        type            empty;
    }
}


// ************************************************************************* //
