/*--------------------------------*- C++ -*----------------------------------*\
  =========                 |
  \\      /  F ield         | OpenFOAM: The Open Source CFD Toolbox
   \\    /   O peration     | Website:  https://openfoam.org
    \\  /    A nd           | Version:  6
     \\/     M anipulation  |
\*---------------------------------------------------------------------------*/
FoamFile
{
    version     2.0;
    format      ascii;
    class       volVectorField;
    location    "103.3";
    object      U;
}
// * * * * * * * * * * * * * * * * * * * * * * * * * * * * * * * * * * * * * //

dimensions      [0 1 -1 0 0 0 0];

internalField   nonuniform List<vector> 
8800
(
(0.987183 -0.0766651 0)
(1.00189 -0.05519 0)
(0.999722 -0.0285479 0)
(1.00003 -0.015143 0)
(1.0001 -0.00854454 0)
(1.00012 -0.00504689 0)
(1.00008 -0.00300095 0)
(1.00002 -0.00169954 0)
(0.99999 -0.000792548 0)
(1.00006 -7.52117e-05 0)
(0.99996 0.000658093 0)
(1.00002 0.00142509 0)
(1.00007 0.00242769 0)
(1.00007 0.00399793 0)
(1.00006 0.00663223 0)
(1.00005 0.0113718 0)
(0.99996 0.0208156 0)
(0.999176 0.0386703 0)
(1.0071 0.0724575 0)
(0.771215 0.0366617 0)
(0.363082 -0.0160162 0)
(1.04332 -0.0768102 0)
(1.0846 -0.0704377 0)
(1.0452 -0.0535308 0)
(1.02329 -0.038881 0)
(1.01203 -0.0262017 0)
(1.00644 -0.0168374 0)
(1.0036 -0.0103006 0)
(1.00215 -0.00563504 0)
(1.00143 -0.00197101 0)
(1.00128 0.00135281 0)
(1.00167 0.0047423 0)
(1.0027 0.00865969 0)
(1.00468 0.0139776 0)
(1.00861 0.021686 0)
(1.01657 0.0326521 0)
(1.03252 0.0465632 0)
(1.06269 0.0616793 0)
(1.09187 0.0761062 0)
(0.838663 0.0565647 0)
(0.216878 -0.00242842 0)
(1.07592 -0.0501197 0)
(1.09989 -0.0482871 0)
(1.06466 -0.0404348 0)
(1.04006 -0.0335714 0)
(1.02394 -0.0260431 0)
(1.01413 -0.0184499 0)
(1.00856 -0.011618 0)
(1.00558 -0.00573846 0)
(1.0043 -0.000312388 0)
(1.00464 0.00493996 0)
(1.00662 0.0103296 0)
(1.01064 0.0163845 0)
(1.01794 0.0234022 0)
(1.03053 0.0308635 0)
(1.05062 0.0378856 0)
(1.08037 0.044565 0)
(1.10627 0.0513726 0)
(0.942491 0.0416318 0)
(0.21611 0.00246316 0)
(0.175227 -0.000814807 0)
(1.01777 -0.0354598 0)
(1.10524 -0.0413402 0)
(1.0783 -0.0360153 0)
(1.05351 -0.0300719 0)
(1.03624 -0.0244847 0)
(1.02403 -0.0187399 0)
(1.0159 -0.0126414 0)
(1.01102 -0.00643648 0)
(1.00879 -8.83847e-05 0)
(1.00935 0.00617578 0)
(1.01267 0.0121704 0)
(1.01889 0.0179569 0)
(1.02875 0.023521 0)
(1.04317 0.0288136 0)
(1.0637 0.0342837 0)
(1.09356 0.0402599 0)
(1.09338 0.0420083 0)
(0.827024 0.0229352 0)
(0.173933 0.000855223 0)
(0.154057 -0.000608434 0)
(0.956345 -0.0254237 0)
(1.10354 -0.0350686 0)
(1.08774 -0.0325771 0)
(1.06179 -0.0279114 0)
(1.04418 -0.0228706 0)
(1.0317 -0.0176004 0)
(1.02283 -0.012043 0)
(1.01698 -0.00608356 0)
(1.0141 0.00040422 0)
(1.01475 0.00687784 0)
(1.01879 0.0127545 0)
(1.0258 0.0179876 0)
(1.03605 0.0228906 0)
(1.0506 0.0276371 0)
(1.07184 0.0321489 0)
(1.10004 0.0360689 0)
(1.06798 0.0341032 0)
(0.739282 0.0143443 0)
(0.152102 0.000654374 0)
(0.139725 -0.000464311 0)
(0.899573 -0.0190296 0)
(1.09593 -0.029994 0)
(1.09585 -0.02908 0)
(1.06936 -0.02533 0)
(1.05092 -0.0211672 0)
(1.03797 -0.0163627 0)
(1.02883 -0.0110417 0)
(1.02268 -0.00526683 0)
(1.01949 0.00108463 0)
(1.02007 0.00741167 0)
(1.02423 0.0130372 0)
(1.03135 0.0179269 0)
(1.0418 0.0223743 0)
(1.05691 0.0263225 0)
(1.0791 0.0297587 0)
(1.10219 0.0323634 0)
(1.03575 0.028221 0)
(0.67253 0.0102526 0)
(0.136958 0.000517322 0)
(0.129236 -0.000358446 0)
(0.850163 -0.014653 0)
(1.08366 -0.0258314 0)
(1.10159 -0.0260887 0)
(1.07627 -0.0227776 0)
(1.05729 -0.0191029 0)
(1.04388 -0.0148158 0)
(1.03438 -0.00984733 0)
(1.02797 -0.00427373 0)
(1.02457 0.0019062 0)
(1.02499 0.00802474 0)
(1.0291 0.0133711 0)
(1.03631 0.0178339 0)
(1.04702 0.021673 0)
(1.06253 0.0249509 0)
(1.08516 0.02786 0)
(1.1012 0.029584 0)
(1.00062 0.0237415 0)
(0.620447 0.0079013 0)
(0.125478 0.000420827 0)
(0.121257 -0.000277186 0)
(0.80826 -0.0114784 0)
(1.06854 -0.0221855 0)
(1.10521 -0.0234014 0)
(1.08259 -0.0204949 0)
(1.0632 -0.0170259 0)
(1.0495 -0.0130348 0)
(1.03971 -0.00839217 0)
(1.033 -0.00307899 0)
(1.02933 0.00289173 0)
(1.02955 0.00876823 0)
(1.0336 0.0137653 0)
(1.04085 0.0177389 0)
(1.05164 0.0210667 0)
(1.06736 0.0239267 0)
(1.09032 0.0265276 0)
(1.09729 0.0273423 0)
(0.965049 0.0202457 0)
(0.578468 0.0063826 0)
(0.116296 0.000351402 0)
(0.115103 -0.000213259 0)
(0.773094 -0.00909624 0)
(1.052 -0.0189649 0)
(1.10771 -0.0208998 0)
(1.08855 -0.018354 0)
(1.06877 -0.0150186 0)
(1.05483 -0.0111763 0)
(1.04482 -0.00672977 0)
(1.03785 -0.00164344 0)
(1.03387 0.00408551 0)
(1.03384 0.00966922 0)
(1.03776 0.014288 0)
(1.04491 0.0178227 0)
(1.05567 0.0207599 0)
(1.07157 0.0232872 0)
(1.09417 0.0255318 0)
(1.09047 0.0255141 0)
(0.930312 0.0175701 0)
(0.543562 0.00535459 0)
(0.108679 0.000302023 0)
(0.110343 -0.000161519 0)
(0.743736 -0.00723901 0)
(1.03512 -0.0160976 0)
(1.1093 -0.0185268 0)
(1.09424 -0.0162745 0)
(1.07417 -0.0130177 0)
(1.05995 -0.00924869 0)
(1.04975 -0.00490626 0)
(1.04252 2.34047e-05 0)
(1.03822 0.00552479 0)
(1.03786 0.0108037 0)
(1.04153 0.0150608 0)
(1.0485 0.0182029 0)
(1.05919 0.0207924 0)
(1.07527 0.0230196 0)
(1.09671 0.0248714 0)
(1.08113 0.0240584 0)
(0.896946 0.0155662 0)
(0.513658 0.00464843 0)
(0.102141 0.000268017 0)
(0.106696 -0.00011817 0)
(0.719376 -0.0057321 0)
(1.01872 -0.0135108 0)
(1.11011 -0.0162177 0)
(1.09985 -0.0142215 0)
(1.07952 -0.0109602 0)
(1.065 -0.00720178 0)
(1.05455 -0.00290076 0)
(1.04705 0.00193497 0)
(1.04238 0.00725425 0)
(1.0416 0.0122547 0)
(1.04495 0.0161724 0)
(1.05167 0.0189379 0)
(1.06227 0.0211913 0)
(1.07851 0.0231409 0)
(1.09783 0.0245598 0)
(1.06962 0.022976 0)
(0.865037 0.0141187 0)
(0.48728 0.00417437 0)
(0.0963372 0.00024638 0)
(0.103978 -8.02055e-05 0)
(0.699387 -0.00445866 0)
(1.00343 -0.0111355 0)
(1.11032 -0.0139351 0)
(1.10535 -0.0121085 0)
(1.08491 -0.00879049 0)
(1.07006 -0.00498029 0)
(1.05933 -0.000656674 0)
(1.05148 0.00414576 0)
(1.04636 0.00933665 0)
(1.04508 0.014096 0)
(1.04803 0.0176927 0)
(1.05446 0.0200865 0)
(1.06493 0.0220098 0)
(1.08128 0.0236833 0)
(1.09785 0.0247572 0)
(1.05616 0.022287 0)
(0.834375 0.0131463 0)
(0.463308 0.00387859 0)
(0.0909993 0.000234767 0)
(0.102073 -4.48911e-05 0)
(0.683312 -0.00333067 0)
(0.989727 -0.0088994 0)
(1.11014 -0.0115899 0)
(1.11072 -0.00985059 0)
(1.09041 -0.00644449 0)
(1.07521 -0.00251781 0)
(1.06413 0.00189821 0)
(1.05587 0.00673349 0)
(1.05019 0.0118509 0)
(1.04831 0.0164032 0)
(1.05078 0.0196927 0)
(1.05686 0.0217134 0)
(1.06717 0.0233042 0)
(1.08352 0.024682 0)
(1.09695 0.0252903 0)
(1.04086 0.0219985 0)
(0.804573 0.0125724 0)
(0.440847 0.00372245 0)
(0.0859172 0.000231007 0)
(0.100925 -9.92283e-06 0)
(0.670866 -0.00227751 0)
(0.977979 -0.00672634 0)
(1.10992 -0.00912404 0)
(1.1161 -0.00738571 0)
(1.09612 -0.00384405 0)
(1.08053 0.000267317 0)
(1.06905 0.00484861 0)
(1.06027 0.00978775 0)
(1.05392 0.0148904 0)
(1.05131 0.0192701 0)
(1.0532 0.0222637 0)
(1.05887 0.0239102 0)
(1.06897 0.0251603 0)
(1.08531 0.0262405 0)
(1.0947 0.0263191 0)
(1.02373 0.0221198 0)
(0.77515 0.012353 0)
(0.419168 0.0036821 0)
(0.0809233 0.000233854 0)
(0.100526 2.6841e-05 0)
(0.66191 -0.0012424 0)
(0.968514 -0.00454255 0)
(1.10998 -0.0064761 0)
(1.12164 -0.00463969 0)
(1.10212 -0.000899811 0)
(1.08611 0.00347128 0)
(1.07415 0.00829604 0)
(1.06475 0.0134152 0)
(1.0576 0.0185658 0)
(1.0541 0.0228072 0)
(1.0553 0.0255131 0)
(1.06048 0.0267895 0)
(1.07033 0.0276768 0)
(1.08652 0.0284194 0)
(1.091 0.0278707 0)
(1.00467 0.0226967 0)
(0.74555 0.012464 0)
(0.397637 0.00374432 0)
(0.0758747 0.000242589 0)
(0.100896 6.05918e-05 0)
(0.656441 -0.000167188 0)
(0.961644 -0.0022719 0)
(1.1107 -0.00357714 0)
(1.12752 -0.00152639 0)
(1.10854 0.00249081 0)
(1.09206 0.00720585 0)
(1.07952 0.012361 0)
(1.06938 0.0177442 0)
(1.06125 0.02301 0)
(1.05669 0.0271477 0)
(1.05707 0.0295778 0)
(1.06167 0.0304741 0)
(1.0712 0.030976 0)
(1.08687 0.0313381 0)
(1.08553 0.0300362 0)
(0.983406 0.0237673 0)
(0.715147 0.0128902 0)
(0.375677 0.00389894 0)
(0.0706451 0.000256278 0)
(0.102114 0.000117193 0)
(0.65463 0.000996492 0)
(0.957703 0.00016689 0)
(1.11244 -0.000346833 0)
(1.13394 0.00205486 0)
(1.11549 0.00644797 0)
(1.09849 0.0116045 0)
(1.08527 0.0171891 0)
(1.07423 0.0229278 0)
(1.06492 0.0283794 0)
(1.05909 0.0324467 0)
(1.05848 0.0346106 0)
(1.06241 0.0351018 0)
(1.07153 0.0351973 0)
(1.08621 0.0351363 0)
(1.07802 0.0329017 0)
(0.95955 0.0253704 0)
(0.683247 0.0136205 0)
(0.352742 0.00413599 0)
(0.0651246 0.000273877 0)
(0.104331 0.000169337 0)
(0.656617 0.00213584 0)
(0.957053 0.00286819 0)
(1.11569 0.00332143 0)
(1.14112 0.00622055 0)
(1.12314 0.011117 0)
(1.10554 0.0168316 0)
(1.0915 0.022961 0)
(1.07936 0.0291563 0)
(1.06863 0.0348616 0)
(1.06129 0.0388796 0)
(1.05954 0.0407529 0)
(1.06263 0.0408314 0)
(1.07127 0.0404928 0)
(1.08431 0.0399057 0)
(1.06811 0.036571 0)
(0.93255 0.0275505 0)
(0.649098 0.0146445 0)
(0.328327 0.00444435 0)
(0.0592243 0.000294114 0)
(0.107659 0.000232554 0)
(0.663039 0.00362513 0)
(0.96003 0.00583205 0)
(1.12091 0.00756166 0)
(1.14932 0.0111091 0)
(1.13167 0.0166818 0)
(1.11338 0.0230912 0)
(1.09834 0.0298964 0)
(1.08486 0.0366562 0)
(1.07242 0.0426794 0)
(1.06329 0.0466522 0)
(1.06022 0.0482059 0)
(1.06232 0.0478515 0)
(1.07037 0.0470392 0)
(1.08116 0.0458192 0)
(1.05531 0.0411668 0)
(0.901678 0.0303404 0)
(0.611889 0.0159397 0)
(0.301973 0.00480693 0)
(0.0528805 0.000315089 0)
(0.112385 0.000321509 0)
(0.674295 0.00538812 0)
(0.967192 0.0093422 0)
(1.12862 0.0125441 0)
(1.15889 0.0169404 0)
(1.14133 0.0233854 0)
(1.12219 0.0306519 0)
(1.10592 0.0382787 0)
(1.0908 0.0457088 0)
(1.07629 0.0520955 0)
(1.06505 0.0559961 0)
(1.06039 0.0572092 0)
(1.06141 0.0563677 0)
(1.06875 0.0550373 0)
(1.07667 0.0530748 0)
(1.03892 0.0467931 0)
(0.86601 0.033742 0)
(0.570767 0.0174565 0)
(0.273301 0.00519524 0)
(0.0460686 0.000334034 0)
(0.118877 0.000438756 0)
(0.691187 0.00758166 0)
(0.979474 0.0136458 0)
(1.13938 0.0185011 0)
(1.1702 0.0239843 0)
(1.15241 0.0315544 0)
(1.13219 0.0398701 0)
(1.11437 0.0484737 0)
(1.09721 0.0566637 0)
(1.08022 0.063417 0)
(1.06651 0.0671747 0)
(1.05994 0.0679516 0)
(1.05987 0.0665862 0)
(1.0665 0.064688 0)
(1.07048 0.0618539 0)
(1.01807 0.0535142 0)
(0.82442 0.0376997 0)
(0.524903 0.0190993 0)
(0.242088 0.00556512 0)
(0.0388223 0.000347289 0)
(0.12766 0.000602598 0)
(0.714735 0.0104508 0)
(0.997574 0.0189903 0)
(1.15387 0.025777 0)
(1.18373 0.032617 0)
(1.16525 0.0416485 0)
(1.14361 0.0512318 0)
(1.12379 0.0609583 0)
(1.10411 0.0699464 0)
(1.08414 0.0769907 0)
(1.06759 0.0804591 0)
(1.05889 0.0806727 0)
(1.05763 0.0787066 0)
(1.06328 0.0761477 0)
(1.062 0.0721581 0)
(0.991523 0.0613372 0)
(0.7756 0.042052 0)
(0.473606 0.0207039 0)
(0.208367 0.00585407 0)
(0.0312538 0.000350485 0)
(0.139552 0.000843069 0)
(0.74632 0.0143792 0)
(1.02267 0.0258561 0)
(1.17288 0.0349242 0)
(1.20017 0.0434614 0)
(1.18025 0.054357 0)
(1.15665 0.0654336 0)
(1.13423 0.0763702 0)
(1.11138 0.0860778 0)
(1.0879 0.0931934 0)
(1.06813 0.096111 0)
(1.05712 0.0955838 0)
(1.05473 0.0929797 0)
(1.05877 0.0896542 0)
(1.05031 0.084192 0)
(0.9577 0.0700992 0)
(0.718143 0.0464793 0)
(0.416527 0.0220211 0)
(0.172561 0.00598349 0)
(0.0235718 0.000339202 0)
(0.155866 0.00121922 0)
(0.787952 0.0200177 0)
(1.05641 0.0350349 0)
(1.19739 0.0469134 0)
(1.22039 0.0579303 0)
(1.19779 0.0707598 0)
(1.17141 0.0834744 0)
(1.14553 0.0955279 0)
(1.11879 0.105655 0)
(1.09122 0.112413 0)
(1.06792 0.114366 0)
(1.05452 0.112848 0)
(1.05109 0.109521 0)
(1.05285 0.10545 0)
(1.03418 0.0978806 0)
(0.914542 0.0794061 0)
(0.650775 0.0504508 0)
(0.353985 0.022723 0)
(0.135616 0.00587173 0)
(0.0160841 0.00031012 0)
(0.178868 0.00187206 0)
(0.842875 0.0285328 0)
(1.10173 0.0481327 0)
(1.22847 0.0635968 0)
(1.24484 0.0776236 0)
(1.21798 0.0925378 0)
(1.18762 0.106721 0)
(1.15728 0.11941 0)
(1.12588 0.129301 0)
(1.09375 0.134995 0)
(1.0667 0.135402 0)
(1.05088 0.132565 0)
(1.04648 0.12837 0)
(1.04529 0.123298 0)
(1.01174 0.112903 0)
(0.859528 0.0885136 0)
(0.572867 0.0532087 0)
(0.287443 0.0224563 0)
(0.0990894 0.00545801 0)
(0.00918083 0.000261467 0)
(0.212069 0.00331745 0)
(0.916975 0.0427048 0)
(1.16162 0.0690679 0)
(1.26646 0.0884881 0)
(1.27339 0.105694 0)
(1.2402 0.12215 0)
(1.20444 0.136846 0)
(1.16864 0.149029 0)
(1.13197 0.157551 0)
(1.09498 0.161176 0)
(1.06418 0.159312 0)
(1.04601 0.154734 0)
(1.04075 0.14955 0)
(1.03519 0.143209 0)
(0.980254 0.128575 0)
(0.789878 0.0961963 0)
(0.485549 0.0538781 0)
(0.220217 0.0210308 0)
(0.0652344 0.00474509 0)
(0.00333956 0.000192952 0)
(0.257378 0.00981113 1.06354e-20)
(1.01402 0.0707734 9.1082e-21)
(1.23359 0.104707 -3.17085e-21)
(1.30856 0.125648 0)
(1.30304 0.145936 -7.9723e-35)
(1.26218 0.162023 1.1628e-21)
(1.22027 0.175394 -2.07923e-21)
(1.17854 0.185612 0)
(1.13631 0.191698 4.25875e-35)
(1.09425 0.192511 -2.5599e-21)
(1.05952 0.187992 0)
(1.03918 0.181739 -3.04894e-21)
(1.03389 0.17638 -9.00539e-21)
(1.02018 0.168717 -4.26698e-21)
(0.933412 0.1467 -1.28419e-21)
(0.697307 0.10243 -7.62301e-22)
(0.384206 0.0521424 0)
(0.152028 0.0187272 5.3293e-22)
(0.034187 0.00385431 6.3112e-22)
(-0.00153751 7.22013e-05 1.15464e-20)
(0.289188 0.0256534 7.76852e-21)
(1.09483 0.115213 1.19891e-22)
(1.29297 0.155459 8.43745e-22)
(1.34705 0.176466 0)
(1.32938 0.196741 -4.01687e-21)
(1.28148 0.210816 -4.5516e-21)
(1.23357 0.222066 -2.08939e-21)
(1.18599 0.230078 -7.3932e-21)
(1.13816 0.233831 0)
(1.09086 0.232139 1.08147e-20)
(1.052 0.225351 1.07292e-20)
(1.02887 0.217523 3.18209e-21)
(1.02063 0.211252 1.16461e-20)
(0.990854 0.199352 1.64278e-20)
(0.85509 0.165315 0)
(0.567935 0.105863 2.3104e-20)
(0.268737 0.0483529 3.31162e-20)
(0.0847252 0.0151756 3.68426e-20)
(0.00558563 0.00183324 -4.2257e-20)
(-0.00578851 -0.000471142 -8.06451e-22)
(0.291404 0.0437418 0)
(1.14731 0.17255 1.33299e-21)
(1.33421 0.217497 0)
(1.3775 0.238368 -5.23087e-21)
(1.35056 0.255438 0)
(1.29675 0.265632 -8.87758e-21)
(1.24327 0.273234 4.23773e-21)
(1.1902 0.277851 -1.47967e-20)
(1.13716 0.278355 -3.33507e-22)
(1.08508 0.27349 5.54908e-21)
(1.04257 0.26405 2.34239e-20)
(1.01704 0.254498 -2.34799e-23)
(1.00486 0.246484 -8.42086e-21)
(0.956927 0.229019 -1.5316e-20)
(0.778552 0.180889 1.81368e-20)
(0.467404 0.106279 -3.20733e-20)
(0.197091 0.0441919 -4.21769e-21)
(0.0474137 0.0116563 0)
(-0.00915453 -0.000497787 -3.25109e-24)
(-0.00779295 -0.00109803 0)
(0.285084 0.0588596 1.72516e-20)
(1.1769 0.233736 -8.38748e-21)
(1.36074 0.284335 -6.42624e-21)
(1.39821 0.305478 2.44832e-21)
(1.36501 0.318415 -4.0812e-21)
(1.30685 0.324034 1.84269e-20)
(1.24886 0.327226 8.75294e-21)
(1.19117 0.327699 0)
(1.13362 0.324289 -2.76204e-20)
(1.07737 0.315704 0)
(1.03173 0.303296 -1.2178e-20)
(1.00408 0.291802 -1.50934e-20)
(0.987406 0.281314 -9.09528e-21)
(0.921532 0.256977 -1.10497e-20)
(0.710649 0.194054 0)
(0.394339 0.106732 0)
(0.150632 0.0412769 -2.72487e-20)
(0.0238083 0.00836006 5.37454e-21)
(-0.0185618 -0.00300934 -3.17133e-21)
(-0.00908103 -0.00177066 -3.75641e-21)
(0.277135 0.0720358 -6.461e-21)
(1.19096 0.294828 0)
(1.37617 0.352148 1.27664e-20)
(1.41025 0.373765 6.74864e-21)
(1.37279 0.382662 9.36483e-21)
(1.31152 0.383669 0)
(1.25013 0.382289 8.47289e-21)
(1.18876 0.378349 1.61331e-20)
(1.12751 0.370685 1.40396e-20)
(1.06777 0.358049 2.56822e-20)
(1.01947 0.34242 0)
(0.989964 0.328805 -3.224e-20)
(0.968567 0.315302 -1.94333e-20)
(0.886338 0.283071 -1.14954e-20)
(0.652464 0.20577 7.02398e-20)
(0.341262 0.107756 8.31022e-21)
(0.119108 0.0390206 3.91411e-20)
(0.00713681 0.00496884 -1.84981e-19)
(-0.025636 -0.00575543 1.09559e-19)
(-0.0101088 -0.00248635 -1.33739e-19)
(0.269131 0.0838 -2.52493e-21)
(1.19483 0.353773 1.13328e-21)
(1.38335 0.418927 -1.30383e-21)
(1.41533 0.441322 -6.63886e-21)
(1.37486 0.446408 -7.76248e-21)
(1.31131 0.442938 3.54736e-22)
(1.24732 0.437076 -9.12541e-21)
(1.18307 0.428722 1.64929e-20)
(1.11883 0.416711 -2.99628e-20)
(1.05621 0.399879 0)
(1.00572 0.380888 -1.45679e-20)
(0.974584 0.365025 -3.02712e-22)
(0.948495 0.348221 -2.11378e-20)
(0.852177 0.307486 0)
(0.603288 0.216519 -1.51115e-20)
(0.301788 0.109387 -3.5703e-20)
(0.0959105 0.037115 9.48247e-20)
(-0.00588761 0.00141888 -9.33639e-20)
(-0.0314996 -0.00870605 1.32712e-19)
(-0.0109733 -0.00323204 -1.39647e-19)
(0.261963 0.0945043 -1.17755e-22)
(1.19203 0.409779 -2.04361e-22)
(1.38446 0.483577 -3.24473e-21)
(1.41489 0.507016 2.55164e-21)
(1.37227 0.508618 -3.84151e-21)
(1.30704 0.500899 0)
(1.24103 0.490736 -8.413e-21)
(1.17445 0.478084 -1.71568e-20)
(1.10777 0.461757 -1.54852e-20)
(1.04277 0.440685 0)
(0.990502 0.418243 -1.48862e-20)
(0.958027 0.400004 -1.84523e-20)
(0.927595 0.379642 2.27358e-20)
(0.819548 0.330211 -1.38101e-20)
(0.561793 0.226529 -6.51293e-20)
(0.271409 0.111503 3.84562e-20)
(0.0775823 0.0353665 1.13449e-20)
(-0.0171546 -0.00238767 0)
(-0.0369951 -0.0119181 -1.26903e-19)
(-0.0118125 -0.00402337 -4.70187e-21)
(0.255843 0.104497 3.87325e-22)
(1.18488 0.462625 -4.09088e-22)
(1.38099 0.545528 1.4128e-21)
(1.41017 0.57018 9.08258e-21)
(1.36596 0.568654 -1.38891e-20)
(1.2995 0.556991 1.67839e-20)
(1.23189 0.542773 1.79899e-20)
(1.16341 0.525995 -2.72835e-20)
(1.09465 0.505444 9.50625e-21)
(1.02765 0.480121 -6.20231e-20)
(0.973963 0.454147 -1.67793e-20)
(0.940454 0.433391 0)
(0.906181 0.409298 2.44824e-20)
(0.788648 0.351156 2.92573e-20)
(0.526663 0.235859 3.48953e-20)
(0.247239 0.113884 -4.13402e-20)
(0.0622025 0.0335341 -1.21932e-20)
(-0.0276696 -0.00659992 1.43758e-20)
(-0.0427248 -0.0155401 0)
(-0.0127933 -0.00491341 -1.0099e-20)
(0.250707 0.11384 -9.29189e-21)
(1.17513 0.512341 4.32679e-21)
(1.37427 0.604752 -1.09429e-21)
(1.40218 0.630474 5.28639e-21)
(1.35676 0.626142 -6.09233e-21)
(1.2894 0.610854 -8.57717e-22)
(1.22052 0.592883 -1.95973e-20)
(1.15042 0.572209 -9.84228e-21)
(1.07987 0.54756 -2.66962e-20)
(1.01113 0.518003 3.28196e-23)
(0.956284 0.488393 -5.21028e-20)
(0.922003 0.464937 4.40255e-20)
(0.884443 0.436923 -2.66589e-20)
(0.759555 0.370208 3.18959e-20)
(0.496742 0.244409 0)
(0.227547 0.116208 -2.22194e-20)
(0.0488375 0.0313464 2.34098e-23)
(-0.0377619 -0.0113705 -6.18842e-20)
(-0.0489202 -0.0197284 -9.15041e-21)
(-0.0140205 -0.00596321 0)
(0.24654 0.122811 0)
(1.16387 0.55916 5.39478e-21)
(1.36512 0.661231 1.39042e-22)
(1.39173 0.687743 -4.61817e-21)
(1.34537 0.680887 -7.87372e-21)
(1.27734 0.662306 0)
(1.20742 0.640892 -8.83008e-21)
(1.13595 0.616581 -2.40423e-22)
(1.0638 0.588016 5.70218e-20)
(0.993461 0.554258 -8.46185e-21)
(0.937616 0.520887 -3.75424e-20)
(0.902763 0.494497 2.28176e-20)
(0.862466 0.462327 -3.94162e-22)
(0.732149 0.387221 3.38252e-20)
(0.471063 0.251988 2.0394e-20)
(0.21122 0.118066 -4.7661e-20)
(0.0372468 0.0285497 5.62183e-20)
(-0.0472332 -0.0167703 1.66216e-20)
(-0.055432 -0.0245138 6.88683e-20)
(-0.0155202 -0.00721558 -1.86369e-19)
(0.243273 0.131574 -3.85776e-21)
(1.15192 0.603256 4.63057e-21)
(1.35425 0.714643 -2.69611e-21)
(1.3795 0.741955 3.1992e-21)
(1.33238 0.732815 0)
(1.26385 0.711253 -7.47136e-21)
(1.19307 0.686715 2.97157e-20)
(1.12038 0.659051 2.14992e-20)
(1.04673 0.626787 0)
(0.97486 0.588889 -1.21687e-19)
(0.918067 0.551615 1.01211e-19)
(0.882766 0.522015 0)
(0.840243 0.485415 3.08162e-20)
(0.706209 0.402115 -3.18469e-22)
(0.448758 0.258405 -6.52807e-20)
(0.197556 0.11914 2.55461e-20)
(0.0275397 0.0250995 0)
(-0.0555412 -0.0226698 8.92261e-20)
(-0.0617358 -0.029765 0)
(-0.0172027 -0.00866683 -8.75823e-20)
(0.240836 0.140142 4.821e-21)
(1.1398 0.644873 6.65842e-21)
(1.34215 0.765066 -2.49323e-21)
(1.36602 0.793141 0)
(1.31826 0.781935 -6.40898e-21)
(1.24936 0.757691 0)
(1.17784 0.73033 -2.92483e-20)
(1.10404 0.699608 -9.96002e-21)
(1.02897 0.663895 1.00491e-20)
(0.95553 0.621965 -6.02108e-20)
(0.897717 0.580637 1.04614e-20)
(0.862003 0.547512 0)
(0.817695 0.506168 -6.56716e-20)
(0.681426 0.414845 2.52443e-22)
(0.429045 0.263538 0)
(0.186014 0.119312 4.46167e-23)
(0.0197079 0.0211171 8.10733e-20)
(-0.0622056 -0.0287371 -7.6656e-20)
(-0.0672321 -0.0351567 2.27e-20)
(-0.018893 -0.0102361 0)
(0.2389 0.148494 0)
(1.12779 0.684217 8.4111e-21)
(1.32927 0.812627 4.62558e-21)
(1.35172 0.841383 -5.34571e-22)
(1.30343 0.828303 -1.92735e-21)
(1.23424 0.801652 -1.69037e-20)
(1.16209 0.771763 1.10295e-20)
(1.08725 0.738277 -1.18137e-20)
(1.01076 0.699387 4.49435e-20)
(0.93565 0.653592 -9.64852e-20)
(0.876636 0.608076 -8.28163e-22)
(0.840451 0.571063 -2.88793e-20)
(0.794706 0.524619 1.06373e-19)
(0.657509 0.425485 -3.66202e-22)
(0.411216 0.267383 -5.02622e-20)
(0.176132 0.118632 -8.86571e-20)
(0.0137429 0.016927 0)
(-0.0669138 -0.0345666 0)
(-0.0714509 -0.0403166 2.44004e-20)
(-0.0204056 -0.0118192 -1.44702e-20)
(0.237632 0.156822 7.19939e-21)
(1.11606 0.721349 -1.9435e-20)
(1.31597 0.857445 -4.95817e-21)
(1.33696 0.886774 0)
(1.2882 0.871994 -3.10365e-22)
(1.2188 0.843196 -1.53622e-20)
(1.14609 0.811059 2.66102e-20)
(1.07027 0.775105 4.65757e-20)
(0.992354 0.73334 5.86016e-20)
(0.915414 0.683898 -7.9155e-20)
(0.854914 0.634109 -8.74287e-20)
(0.818074 0.592793 7.73886e-20)
(0.771201 0.540856 0)
(0.634011 0.43406 -2.30514e-20)
(0.394818 0.26988 -5.40502e-20)
(0.167588 0.117293 -6.35652e-20)
(0.00943188 0.0128242 -7.49415e-20)
(-0.069695 -0.0397959 2.21772e-20)
(-0.0741735 -0.0449099 -1.31033e-20)
(-0.0216023 -0.0133091 4.06263e-23)
(0.236624 0.164953 0)
(1.10506 0.756288 0)
(1.30249 0.899639 5.09359e-22)
(1.32199 0.929424 0)
(1.27284 0.913113 3.81107e-21)
(1.20328 0.882406 1.03592e-20)
(1.13008 0.84828 0)
(1.05333 0.810147 5.54691e-21)
(0.973963 0.765823 9.83236e-20)
(0.895015 0.71302 -1.82631e-19)
(0.832655 0.658959 0)
(0.794832 0.612882 -5.01065e-20)
(0.74701 0.554901 -4.88215e-22)
(0.610765 0.440553 -2.68548e-22)
(0.379526 0.271057 5.81191e-20)
(0.160271 0.115514 3.42601e-23)
(0.00657192 0.00923648 -1.61185e-19)
(-0.0709094 -0.0440528 4.76511e-20)
(-0.0755515 -0.048716 1.41361e-20)
(-0.0223983 -0.0146018 0)
(0.235877 0.172847 -2.99334e-20)
(1.09452 0.789492 -1.37379e-20)
(1.28896 0.939297 -1.6351e-20)
(1.30703 0.969448 1.16005e-20)
(1.25756 0.951748 3.78477e-21)
(1.18789 0.919365 0)
(1.11425 0.883498 1.62934e-20)
(1.03662 0.843466 -1.24535e-20)
(0.955782 0.79691 8.0065e-22)
(0.874651 0.741093 1.352e-20)
(0.80998 0.682864 1.14496e-19)
(0.770693 0.631589 -1.7669e-20)
(0.721968 0.566791 -6.59888e-20)
(0.587684 0.444735 -2.68581e-20)
(0.365309 0.270665 3.13124e-20)
(0.154518 0.113437 4.80313e-23)
(0.00520256 0.00690916 4.3375e-20)
(-0.0714405 -0.0466003 -1.02426e-19)
(-0.0766413 -0.0516486 1.21627e-19)
(-0.0230266 -0.0157579 1.79611e-20)
(0.235181 0.180499 1.15088e-20)
(1.08448 0.821018 -7.81509e-21)
(1.27557 0.976563 1.3279e-21)
(1.29225 1.00698 8.53556e-21)
(1.24252 0.988021 5.72097e-22)
(1.17278 0.954161 -1.82736e-20)
(1.09878 0.916784 4.70324e-21)
(1.0203 0.875113 -5.21958e-20)
(0.937991 0.826649 -1.09713e-19)
(0.854502 0.768212 -1.10071e-19)
(0.787045 0.706058 0)
(0.745631 0.649229 -7.81307e-20)
(0.695787 0.576647 9.54854e-20)
(0.564394 0.446178 0)
(0.352352 0.267905 -6.73195e-20)
(0.151626 0.110543 3.96156e-20)
(0.0070144 0.00632761 -4.6661e-20)
(-0.0713174 -0.0468721 -5.51831e-20)
(-0.0796793 -0.0542927 -9.80224e-20)
(-0.0245146 -0.0173228 -7.74048e-20)
(0.234834 0.187998 -1.31778e-20)
(1.07481 0.850886 8.37762e-21)
(1.26241 1.01152 1.84022e-20)
(1.27777 1.04212 1.32075e-20)
(1.22784 1.02204 -2.57962e-22)
(1.15808 0.986889 -9.87228e-21)
(1.08377 0.948203 1.58655e-20)
(1.0045 0.905154 -5.40171e-20)
(0.920725 0.855099 -6.55559e-20)
(0.834749 0.794464 1.16468e-19)
(0.764013 0.728755 2.55047e-19)
(0.719656 0.666178 0)
(0.668126 0.584714 0)
(0.540202 0.444476 -3.1015e-20)
(0.340573 0.261381 0)
(0.153037 0.104828 8.51684e-20)
(0.0160792 0.00435179 1.00309e-19)
(-0.0652647 -0.0480158 0)
(-0.0833976 -0.0586486 0)
(-0.0283231 -0.0204126 8.33904e-20)
(0.234364 0.195081 1.51463e-20)
(1.06556 0.879126 1.19002e-20)
(1.24958 1.04428 1.34439e-20)
(1.26369 1.07502 -1.34908e-20)
(1.21361 1.05391 -1.68247e-21)
(1.14388 1.01764 9.99332e-21)
(1.06933 0.977823 -2.20062e-20)
(0.989336 0.93363 -2.89498e-22)
(0.904117 0.882293 -1.06267e-21)
(0.815553 0.8199 -5.74064e-22)
(0.741086 0.75113 1.32269e-19)
(0.692846 0.682824 0)
(0.638646 0.591442 9.82017e-20)
(0.513991 0.439495 6.70956e-20)
(0.328094 0.249386 1.5803e-19)
(0.157937 0.0905054 4.61002e-20)
(0.0361883 -0.00996052 -5.40643e-20)
(-0.0389333 -0.062307 -3.19808e-20)
(-0.0675059 -0.0668215 0)
(-0.0302642 -0.0239165 9.01446e-20)
(0.234241 0.202187 -3.4613e-20)
(1.05669 0.905838 0)
(1.2371 1.07493 1.62324e-20)
(1.25003 1.10575 -1.17081e-20)
(1.19991 1.08374 3.97481e-21)
(1.13023 1.04649 -1.03177e-20)
(1.05553 1.0057 4.31468e-20)
(0.974871 0.960585 -4.28011e-21)
(0.888259 0.908255 0)
(0.797064 0.844533 -1.30702e-19)
(0.718478 0.773309 -2.9102e-19)
(0.665348 0.699552 1.18731e-20)
(0.607126 0.597456 1.37792e-19)
(0.484567 0.431844 0)
(0.311728 0.231339 1.0767e-19)
(0.160375 0.0633651 0)
(0.0592319 -0.0497836 0)
(0.0108872 -0.110718 -3.45495e-20)
(0.00986248 -0.0890863 0)
(0.014445 -0.00791641 2.43256e-20)
(0.233877 0.208762 -3.89205e-20)
(1.04819 0.931371 0)
(1.22497 1.10366 2.74733e-20)
(1.23678 1.13458 0)
(1.18672 1.1118 -2.9639e-21)
(1.1171 1.07374 0)
(1.04231 1.03216 2.1196e-21)
(0.961026 0.986349 7.65123e-21)
(0.873045 0.933339 8.42133e-21)
(0.779132 0.86873 -1.4475e-19)
(0.696023 0.795759 8.82858e-21)
(0.636855 0.717162 9.63913e-20)
(0.572911 0.603775 1.35568e-19)
(0.450347 0.422423 1.80135e-20)
(0.287982 0.208814 8.53827e-20)
(0.150995 0.0251958 0)
(0.0654767 -0.114143 1.1428e-19)
(0.0379074 -0.134546 -6.70419e-20)
(0.019088 0.0250189 7.87806e-20)
(-0.0390638 0.464493 -9.35716e-20)
(0.23356 0.215178 3.24041e-20)
(1.03983 0.955538 4.83064e-20)
(1.2131 1.13081 0)
(1.22378 1.16194 9.83515e-22)
(1.17382 1.13867 9.88614e-21)
(1.1042 1.10006 1.12032e-20)
(1.02935 1.05796 1.5172e-20)
(0.947379 1.01184 0)
(0.857929 0.958607 5.61001e-20)
(0.761058 0.893745 -7.59774e-21)
(0.672746 0.819885 0)
(0.605885 0.737174 0)
(0.533406 0.611328 1.23191e-19)
(0.407905 0.41139 -5.59452e-20)
(0.252974 0.183573 -8.79212e-20)
(0.124441 -0.0199291 0)
(0.0454264 -0.074981 5.8401e-20)
(0.000862411 0.443652 -6.75853e-20)
(0.0265584 1.953 -3.79498e-20)
(0.0522725 2.83754 -4.66744e-20)
(0.232988 0.221109 -2.45768e-20)
(1.03169 0.978528 -6.24361e-20)
(1.20153 1.15637 1.65344e-20)
(1.21106 1.18771 1.24836e-20)
(1.16131 1.16416 0)
(1.09164 1.12519 5.69837e-21)
(1.01688 1.08282 2.08341e-20)
(0.934147 1.03665 -3.76906e-21)
(0.843227 0.983573 8.47077e-21)
(0.743289 0.919039 1.39792e-19)
(0.649369 0.845208 1.51333e-19)
(0.573533 0.759874 1.11413e-19)
(0.489273 0.621241 1.25943e-19)
(0.357425 0.398965 -1.34304e-19)
(0.210645 0.161211 -1.3502e-19)
(0.0843716 0.0424769 0)
(0.0316169 0.930453 0)
(0.0759755 2.60389 3.27012e-20)
(0.0793061 3.22316 0)
(0.0817461 3.39289 8.53252e-20)
(0.235288 0.226749 0)
(1.02413 1.00076 0)
(1.18995 1.18023 0)
(1.19843 1.21175 3.94903e-21)
(1.14884 1.18802 9.25723e-21)
(1.07924 1.14898 1.68521e-21)
(1.00484 1.10664 1.35086e-20)
(0.921266 1.06064 -3.71466e-21)
(0.828883 1.00806 7.1338e-20)
(0.725839 0.944453 -1.41522e-21)
(0.626038 0.871572 3.02996e-19)
(0.540252 0.785535 -1.29981e-20)
(0.44055 0.635232 1.56096e-20)
(0.299644 0.384359 1.97269e-20)
(0.154922 0.17394 -9.62789e-22)
(0.0737422 1.04722 3.36495e-22)
(0.108645 2.78841 -1.77733e-19)
(0.112965 3.30398 -6.66704e-20)
(0.106512 3.42259 3.51825e-20)
(0.0983764 3.44169 -3.99407e-20)
(0.157834 0.171838 1.51698e-20)
(1.01207 1.02493 0)
(1.17812 1.20259 -3.45583e-20)
(1.18633 1.23452 -3.49595e-20)
(1.13685 1.21073 2.4534e-20)
(1.06769 1.17192 -7.53758e-22)
(0.992994 1.12943 -1.41308e-20)
(0.908772 1.08387 4.20324e-20)
(0.814988 1.03215 -5.91936e-20)
(0.708966 0.970109 0)
(0.603144 0.899088 1.51329e-19)
(0.506686 0.814134 -9.28237e-20)
(0.392366 0.665474 0)
(0.233801 0.374852 1.96207e-20)
(0.10698 0.6877 4.54501e-20)
(0.123048 2.60453 -5.05822e-20)
(0.167737 3.3259 5.71315e-20)
(0.153651 3.42838 3.07746e-20)
(0.128858 3.44731 3.46008e-20)
(0.111491 3.45638 5.55026e-20)
(0.269473 0.263594 -2.90956e-20)
(0.99278 1.03379 0)
(1.15839 1.22791 3.76993e-20)
(1.17074 1.26567 3.93648e-20)
(1.11845 1.24419 -2.90889e-20)
(1.04871 1.20566 -3.95945e-21)
(0.972778 1.16467 1.34944e-20)
(0.887792 1.12026 3.33161e-21)
(0.792139 1.07059 5.74072e-20)
(0.682173 1.01239 1.2486e-19)
(0.568337 0.947061 8.60854e-21)
(0.454372 0.860239 8.44848e-20)
(0.300746 0.682611 1.52563e-20)
(0.190496 0.826036 -1.91704e-20)
(0.197144 2.49625 -4.22124e-20)
(0.247989 3.32483 4.1526e-20)
(0.230814 3.44806 -4.55151e-20)
(0.198187 3.46813 -2.6002e-20)
(0.16642 3.49336 -2.3983e-20)
(0.122331 3.49008 -3.43088e-21)
(0.259201 0.262182 0)
(0.98896 1.0561 1.13543e-20)
(1.14886 1.25126 -7.87683e-21)
(1.15894 1.28916 -4.82697e-21)
(1.10666 1.26743 -2.07243e-20)
(1.03688 1.22905 4.90934e-21)
(0.960527 1.1882 -7.14814e-21)
(0.875098 1.14457 3.02303e-21)
(0.778437 1.09634 -6.0437e-20)
(0.666178 1.04101 -2.51883e-21)
(0.547463 0.980389 -2.79476e-19)
(0.423515 0.895004 1.21884e-20)
(0.273757 0.75623 -1.45993e-20)
(0.226957 1.52015 -1.77924e-20)
(0.29211 3.14605 3.62727e-21)
(0.302706 3.44687 -6.81427e-25)
(0.262978 3.4939 6.98694e-20)
(0.230316 3.51992 3.58103e-20)
(0.185438 3.5411 -1.24973e-20)
(0.136667 3.5392 -1.7866e-20)
(0.244895 0.259799 2.93575e-20)
(0.98417 1.08091 7.71306e-20)
(1.13893 1.27669 -2.24073e-20)
(1.14675 1.31429 -1.80347e-20)
(1.09438 1.29215 0)
(1.02464 1.25377 1.32672e-20)
(0.948151 1.21314 -7.33835e-21)
(0.86254 1.17027 2.68719e-21)
(0.765193 1.12365 -6.78766e-21)
(0.651232 1.07164 -1.1578e-19)
(0.528705 1.01651 -1.30571e-19)
(0.396047 0.931348 -1.00608e-19)
(0.273281 0.916988 -1.11007e-19)
(0.295562 2.33739 1.13601e-19)
(0.375301 3.37552 9.59914e-20)
(0.343757 3.49925 0)
(0.297621 3.53951 0)
(0.261806 3.57476 -1.02004e-20)
(0.220277 3.6196 0)
(0.151559 3.60718 -1.64897e-20)
(0.234798 0.261357 -4.39982e-20)
(0.977421 1.1065 -6.56364e-20)
(1.12756 1.30334 0)
(1.13325 1.34023 1.19274e-21)
(1.08081 1.31753 -2.38587e-20)
(1.01128 1.27907 2.40704e-20)
(0.934987 1.23872 -3.00333e-21)
(0.849429 1.19658 1.6019e-21)
(0.751665 1.15158 -4.38492e-20)
(0.636492 1.10303 5.83786e-21)
(0.511224 1.05357 0)
(0.369228 0.970733 0)
(0.294999 1.23471 -1.01882e-19)
(0.37871 2.98771 4.14143e-20)