/*--------------------------------*- C++ -*----------------------------------*\
  =========                 |
  \\      /  F ield         | OpenFOAM: The Open Source CFD Toolbox
   \\    /   O peration     | Website:  https://openfoam.org
    \\  /    A nd           | Version:  6
     \\/     M anipulation  |
\*---------------------------------------------------------------------------*/
FoamFile
{
    version     2.0;
    format      ascii;
    class       surfaceScalarField;
    location    "49";
    object      phi;
}
// * * * * * * * * * * * * * * * * * * * * * * * * * * * * * * * * * * * * * //

dimensions      [0 3 -1 0 0 0 0];

internalField   nonuniform List<scalar> 
17370
(
-0.0900006
0.0898548
0.289157
-0.0714631
0.0537592
0.364479
-0.038128
0.0277029
0.426593
-0.0196545
0.0146228
0.504283
-0.0107803
0.00828841
0.601894
-0.00628748
0.00491104
0.720434
-0.00374858
0.00290943
0.863746
-0.00216886
0.00160989
1.03601
-0.00109332
0.00068114
1.24292
-0.000273804
-0.000116073
1.49158
0.000493521
-0.000899669
1.4916
0.00129439
-0.00178359
1.24318
0.00231583
-0.00302982
1.03635
0.00385063
-0.00500051
0.864056
0.00637061
-0.00836674
0.721054
0.0108536
-0.0146897
0.603051
0.0197154
-0.0277574
0.507481
0.038177
-0.053801
0.431792
0.0714973
-0.0898775
0.365156
0.0900139
0.198997
-0.12813
0.0882075
0.039922
-0.364588
0.353399
-0.0746944
0.0858836
-0.446476
0.454315
-0.0843924
0.0765526
-0.521186
0.529893
-0.0684645
0.0597574
-0.612783
0.621558
-0.0515726
0.0427978
-0.72689
0.734152
-0.0353424
0.0280804
-0.867473
0.872579
-0.0224879
0.017382
-1.03847
1.04191
-0.0135795
0.0101354
-1.2446
1.24703
-0.00752823
0.00509902
-1.49263
1.4946
-0.00315558
0.00118442
-1.4925
1.49422
0.000498593
-0.00221941
-1.24398
1.24586
0.00412008
-0.00600208
-1.03751
1.04005
0.00835923
-0.0108943
-0.866104
0.869841
0.0142581
-0.0179943
-0.724396
0.729943
0.0230396
-0.0285865
-0.608702
0.616117
0.0358045
-0.0432202
-0.5149
0.523046
0.0519518
-0.0600984
-0.439858
0.447914
0.0687657
-0.0768217
-0.375304
0.376745
0.0846256
-0.0860665
-0.257333
0.222485
0.0748191
-0.0399707
-0.068503
0.0586754
0.00982765
-0.0518465
0.0584403
-0.374116
0.367522
-0.057533
0.0537861
-0.453588
0.457335
-0.0487008
0.0447515
-0.527937
0.531886
-0.0409148
0.0372799
-0.62155
0.625185
-0.0331838
0.0291153
-0.735332
0.739401
-0.0245543
0.0204036
-0.874322
0.878473
-0.0160669
0.0123805
-1.04347
1.04716
-0.00865185
0.00548592
-1.24855
1.25172
-0.00216437
-0.000905094
-1.49665
1.49972
0.00395033
-0.0072111
-1.49721
1.50047
0.0102887
-0.0138971
-1.25008
1.25369
0.0174643
-0.0216682
-1.04593
1.05014
0.0257054
-0.0301558
-0.877775
0.882226
0.0341362
-0.038146
-0.739914
0.743923
0.041706
-0.0454638
-0.626789
0.630546
0.0493453
-0.0543661
-0.534824
0.539845
0.0580442
-0.0588642
-0.457491
0.458311
0.0521689
-0.0319705
-0.335782
0.315583
0.00988022
-0.0683579
0.0584777
-0.0529206
0.0489195
0.0040011
-0.033197
0.0437577
-0.358076
0.347515
-0.0474705
0.0468537
-0.459266
0.459883
-0.0438083
0.040465
-0.535783
0.539126
-0.0367033
0.0334089
-0.628504
0.631798
-0.0299818
0.0269597
-0.742617
0.745639
-0.0237113
0.0206132
-0.881981
0.885079
-0.0170924
0.0137222
-1.05074
1.05411
-0.00994019
0.00641096
-1.25514
1.25867
-0.00245119
-0.00133959
-1.50323
1.50702
0.00510015
-0.00896976
-1.50414
1.50801
0.0123777
-0.015997
-1.25744
1.26106
0.0192033
-0.0225374
-1.05395
1.05728
0.0254704
-0.028553
-0.885726
0.888809
0.0314419
-0.0347401
-0.747194
0.750492
0.0379259
-0.0415756
-0.634343
0.637992
0.0448224
-0.0477577
-0.544165
0.547101
0.0482595
-0.0443848
-0.456607
0.452732
0.0336307
-0.0162018
-0.296237
0.278808
0.00406628
-0.0526643
0.048598
-0.0458366
0.043335
0.00250159
-0.0228496
0.0332502
-0.336809
0.326409
-0.0390925
0.0401241
-0.459558
0.458526
-0.0389481
0.0366723
-0.541838
0.544114
-0.0340177
0.0314339
-0.634837
0.637421
-0.0283853
0.0255001
-0.748671
0.751556
-0.0222519
0.019273
-0.888017
0.890996
-0.0159844
0.0128999
-1.05722
1.06031
-0.00938954
0.00599368
-1.26211
1.26551
-0.00204254
-0.00183314
-1.51089
1.51477
0.00566972
-0.00950362
-1.51191
1.51575
0.0127414
-0.0160402
-1.26451
1.26781
0.0189115
-0.0219556
-1.06039
1.06343
0.024715
-0.0277385
-0.891878
0.894901
0.03044
-0.0333099
-0.753711
0.75658
0.0357445
-0.0382481
-0.64107
0.643574
0.0403942
-0.0413992
-0.548918
0.549923
0.0401902
-0.0340887
-0.447472
0.44137
0.023405
-0.0102127
-0.263614
0.250421
0.00258185
-0.0454424
0.0428605
-0.0412538
0.0394798
0.00177395
-0.0167965
0.0260753
-0.316533
0.307254
-0.0327097
0.0348713
-0.456912
0.45475
-0.0344696
0.0328145
-0.546081
0.547736
-0.0306504
0.028571
-0.639712
0.641791
-0.0261587
0.0237799
-0.754182
0.756561
-0.020943
0.0181733
-0.893869
0.896639
-0.0149587
0.0119093
-1.06333
1.06638
-0.00844001
0.00513174
-1.26881
1.27212
-0.00131353
-0.00241044
-1.51855
1.52227
0.00608429
-0.00975347
-1.51949
1.52316
0.0128615
-0.0160628
-1.27106
1.27427
0.0188414
-0.0217447
-1.06646
1.06937
0.0242332
-0.0267798
-0.897734
0.900281
0.0289194
-0.0310991
-0.759047
0.761227
0.0329874
-0.0349578
-0.645744
0.647714
0.036424
-0.0365937
-0.550459
0.550629
0.0341596
-0.0271467
-0.434734
0.427721
0.017488
-0.00737728
-0.238921
0.228811
0.00187188
-0.0406907
0.0388188
-0.0379507
0.0366137
0.00133696
-0.0128429
0.0208211
-0.298632
0.290654
-0.027607
0.0305573
-0.452169
0.449219
-0.0307858
0.0296862
-0.54915
0.55025
-0.0277112
0.0258129
-0.643808
0.645706
-0.0236346
0.0215184
-0.758777
0.760893
-0.0190284
0.0165698
-0.899186
0.901645
-0.0136569
0.0108051
-1.06929
1.07214
-0.00747151
0.00425247
-1.27536
1.27857
-0.000521945
-0.00309777
-1.52591
1.52953
0.00665585
-0.0102005
-1.52676
1.53031
0.0131695
-0.0161697
-1.27741
1.28041
0.0186846
-0.0212095
-1.0721
1.07463
0.0233146
-0.0254364
-0.902595
0.904716
0.0272475
-0.0291284
-0.763233
0.765114
0.0307859
-0.0325284
-0.649548
0.651291
0.0333532
-0.0328
-0.550445
0.549892
0.0294604
-0.0221574
-0.420509
0.413206
0.0136926
-0.00570553
-0.219865
0.211877
0.00145603
-0.037182
0.0357259
-0.0354447
0.0344118
0.00103294
-0.010053
0.0168049
-0.283317
0.276565
-0.0233307
0.0267391
-0.446025
0.442616
-0.0275522
0.0268761
-0.551134
0.55181
-0.0251408
0.0233783
-0.64758
0.649342
-0.0213349
0.0193446
-0.762937
0.764927
-0.0170032
0.0147039
-0.903949
0.906249
-0.0119961
0.00933965
-1.07482
1.07748
-0.00621273
0.00315512
-1.28167
1.28473
0.000429127
-0.00392291
-1.53307
1.53656
0.00734129
-0.0106976
-1.53376
1.53712
0.0134482
-0.0161634
-1.28328
1.286
0.0184039
-0.0206323
-1.07701
1.07924
0.0224947
-0.0243798
-0.906727
0.908612
0.0259904
-0.0276627
-0.76689
0.768563
0.0291249
-0.0305369
-0.652888
0.6543
0.0308689
-0.0296005
-0.548992
0.547724
0.0256569
-0.018453
-0.40593
0.398726
0.0110918
-0.00459257
-0.204705
0.198206
0.00117755
-0.0344262
0.0332487
-0.0335037
0.0326966
0.00080716
-0.00798601
0.0136695
-0.270379
0.264696
-0.0197159
0.0233274
-0.439101
0.43549
-0.0246246
0.0242026
-0.552397
0.552819
-0.0227415
0.0210956
-0.651097
0.652742
-0.019154
0.0172553
-0.766862
0.768761
-0.0150128
0.0128083
-0.90843
0.910634
-0.0102133
0.00767661
-1.08
1.08254
-0.0047018
0.00179562
-1.28766
1.29057
0.00161021
-0.00492719
-1.53994
1.54326
0.00815047
-0.0112753
-1.54035
1.54348
0.013805
-0.0162762
-1.2886
1.29108
0.0183033
-0.0203102
-1.08138
1.08338
0.0219775
-0.0236573
-0.910415
0.912095
0.0250863
-0.0265669
-0.770143
0.771624
0.027838
-0.0288841
-0.655504
0.656551
0.0288534
-0.0269315
-0.546132
0.54421
0.0226086
-0.015695
-0.391663
0.384749
0.00925597
-0.00381805
-0.192288
0.18685
0.000983281
-0.0321816
0.0311984
-0.0319862
0.031354
0.000632169
-0.00639157
0.011163
-0.259499
0.254728
-0.0166246
0.0202421
-0.431879
0.428261
-0.0218691
0.0216788
-0.553167
0.553358
-0.0204571
0.0188731
-0.654408
0.655992
-0.016994
0.0151526
-0.77062
0.772461
-0.0129795
0.010844
-0.912722
0.914857
-0.00832929
0.00587334
-1.08495
1.0874
-0.00300178
0.000213643
-1.29335
1.29614
0.00302427
-0.00614791
-1.54644
1.54957
0.009158
-0.0120546
-1.54648
1.54938
0.0143845
-0.0166413
-1.29346
1.29572
0.0184737
-0.0202686
-1.08531
1.08711
0.0217453
-0.0232295
-0.913701
0.915185
0.0244962
-0.0258096
-0.773034
0.774348
0.0269436
-0.0275913
-0.657378
0.658026
0.0272025
-0.0247428
-0.542033
0.539573
0.0201991
-0.0136444
-0.378027
0.371472
0.00794137
-0.00327038
-0.181836
0.177165
0.000846412
-0.0302955
0.0294491
-0.0308005
0.0303095
0.000490987
-0.00510964
0.00909474
-0.250377
0.246392
-0.0139273
0.0174044
-0.424724
0.421247
-0.0192273
0.0192417
-0.553497
0.553483
-0.0182287
0.0166936
-0.657627
0.659163
-0.0148494
0.0130325
-0.774276
0.776093
-0.0108867
0.0087823
-0.916883
0.918988
-0.00631358
0.00391348
-1.08974
1.09214
-0.00112156
-0.00157135
-1.29882
1.30151
0.00467313
-0.00763477
-1.55257
1.55553
0.0104585
-0.0131463
-1.55215
1.55484
0.0152845
-0.0173323
-1.29789
1.29994
0.0189764
-0.0205693
-1.08884
1.09044
0.0218694
-0.0231733
-0.916609
0.917913
0.0242892
-0.0254393
-0.775595
0.776745
0.0263758
-0.0266676
-0.658468
0.65876
0.0258991
-0.022991
-0.5369
0.533992
0.0183304
-0.0121336
-0.365117
0.35892
0.00700232
-0.00288586
-0.172806
0.168689
0.000751838
-0.0286617
0.0279098
-0.0298859
0.0295139
0.000371943
-0.00403712
0.00733214
-0.242776
0.239481
-0.0115252
0.0147523
-0.417912
0.414685
-0.0166435
0.0168234
-0.553447
0.553267
-0.0158979
0.0144442
-0.660738
0.662191
-0.012603
0.0107791
-0.777893
0.779717
-0.00862995
0.00653391
-0.920981
0.923077
-0.00408905
0.0017256
-1.09442
1.09678
0.00100913
-0.00363049
-1.30409
1.30671
0.00662693
-0.00945482
-1.55838
1.56121
0.0121154
-0.0146088
-1.55741
1.5599
0.0165558
-0.0183864
-1.3019
1.30373
0.0198326
-0.0212142
-1.09197
1.09335
0.0223316
-0.0234559
-0.919167
0.920291
0.0244262
-0.025415
-0.777841
0.778829
0.0261108
-0.0261107
-0.65891
0.658909
0.0249502
-0.0216588
-0.5309
0.527609
0.0169355
-0.0110504
-0.352908
0.347023
0.00634799
-0.00262447
-0.164802
0.161079
0.000689531
-0.0272015
0.026512
-0.0292025
0.0289367
0.000265814
-0.00309702
0.00576943
-0.236519
0.233847
-0.00932455
0.0122223
-0.411648
0.40875
-0.0140742
0.0143516
-0.553114
0.552837
-0.0134849
0.0120845
-0.663712
0.665112
-0.0102278
0.00836988
-0.781527
0.783385
-0.00618012
0.00405241
-0.925064
0.927192
-0.00158418
-0.000783705
-1.09903
1.1014
0.00349878
-0.00607268
-1.30923
1.3118
0.00897743
-0.0116768
-1.56392
1.56661
0.0141732
-0.0164697
-1.56228
1.56457
0.0182293
-0.0198518
-1.30548
1.3071
0.0211091
-0.0222867
-1.09469
1.09587
0.0232232
-0.0241676
-0.921371
0.922315
0.0249902
-0.0258128
-0.779744
0.780567
0.0262459
-0.0259914
-0.658773
0.658519
0.0244049
-0.0207455
-0.524156
0.520496
0.0159661
-0.0103188
-0.341297
0.33565
0.00591979
-0.00246053
-0.157522
0.154062
0.000653047
-0.0258546
0.0252016
-0.0287282
0.0285635
0.000164729
-0.00222557
0.0043134
-0.231488
0.2294
-0.00722484
0.00972108
-0.406086
0.403589
-0.0114234
0.0117199
-0.552639
0.552342
-0.010882
0.00950439
-0.666604
0.667981
-0.00761057
0.00569439
-0.785229
0.787145
-0.00343441
0.00124802
-0.929211
0.931398
0.00127193
-0.00367053
-1.10366
1.10606
0.00639541
-0.00895143
-1.31427
1.31683
0.0117981
-0.0144
-1.5692
1.57181
0.016754
-0.0188607
-1.56674
1.56885
0.0204289
-0.0218327
-1.30864
1.31004
0.022889
-0.0238447
-1.09702
1.09797
0.0245799
-0.0253185
-0.92322
0.923959
0.0259735
-0.0266392
-0.781295
0.781961
0.0267752
-0.0261789
-0.658037
0.657441
0.0241872
-0.0201915
-0.516716
0.51272
0.0153514
-0.00986623
-0.330135
0.32465
0.00566661
-0.00237103
-0.150722
0.147426
0.000635975
-0.0245723
0.0239364
-0.0284555
0.028393
6.24554e-05
-0.00137484
0.0028911
-0.227619
0.226103
-0.00514198
0.00717119
-0.401365
0.399335
-0.00861906
0.0088496
-0.552186
0.551956
-0.0079876
0.00658841
-0.669489
0.670888
-0.00461488
0.00260964
-0.789047
0.791052
-0.000248539
-0.00202352
-0.933467
0.935739
0.00462591
-0.00708591
-1.10835
1.11081
0.00985424
-0.0124172
-1.31929
1.32185
0.0152195
-0.0177199
-1.57429
1.57679
0.0199215
-0.0218289
-1.57082
1.57273
0.0231991
-0.024372
-1.31135
1.31252
0.0252092
-0.0259166
-1.0989
1.09961
0.0264272
-0.0269459
-0.924667
0.925186
0.0274363
-0.0279089
-0.782478
0.78295
0.0277692
-0.0267819
-0.656583
0.655595
0.0243671
-0.0200184
-0.508621
0.504272
0.0150773
-0.00966399
-0.319266
0.313852
0.00556698
-0.00234738
-0.144211
0.140991
0.000636662
-0.0233173
0.0226807
-0.0283877
0.0284336
-4.5853e-05
-0.000495712
0.00143203
-0.224896
0.22396
-0.00299267
0.00449052
-0.397611
0.396113
-0.00558743
0.00567642
-0.551929
0.55184
-0.00474647
0.00328098
-0.672459
0.673924
-0.00120445
-0.000925284
-0.793044
0.795173
0.00343543
-0.00584172
-0.937896
0.940302
0.00857949
-0.0111417
-1.11316
1.11573
0.0139888
-0.0165826
-1.32432
1.32691
0.0193612
-0.021774
-1.57917
1.58159
0.0238233
-0.0255182
-1.57449
1.57619
0.0266701
-0.0275929
-1.31359
1.31451
0.0282002
-0.0286539
-1.1003
1.10076
0.0289295
-0.0292083
-0.925683
0.925962
0.0295024
-0.0297022
-0.783153
0.783353
0.0292981
-0.0278351
-0.654325
0.652862
0.024957
-0.0202233
-0.49984
0.495106
0.0151276
-0.00969257
-0.308507
0.303072
0.00560716
-0.0023836
-0.137817
0.134593
0.000653501
-0.0220549
0.0214014
-0.0285368
0.0287005
-0.000163697
0.000436625
-0.000118416
-0.223348
0.22303
-0.000702133
0.00158919
-0.394958
0.394071
-0.00222233
0.00207452
-0.552031
0.552179
-0.00100694
-0.000582569
-0.675609
0.677198
0.00280094
-0.00509291
-0.797286
0.799578
0.00779341
-0.0103696
-0.942591
0.945167
0.0132801
-0.015979
-1.11819
1.12089
0.0189426
-0.0215996
-1.32941
1.33207
0.0243842
-0.0267231
-1.58388
1.58622
0.028624
-0.0300949
-1.57773
1.5792
0.0310138
-0.0316537
-1.3153
1.31594
0.0319953
-0.0321647
-1.10118
1.10135
0.0321834
-0.0321929
-0.92621
0.926219
0.0322672
-0.0321356
-0.783193
0.783061
0.031398
-0.0293762
-0.651146
0.649124
0.0259955
-0.0208272
-0.490303
0.485135
0.0155039
-0.00994369
-0.297667
0.292107
0.00577936
-0.00247569
-0.131382
0.128079
0.000685202
-0.0207536
0.0200684
-0.028943
0.0292478
-0.00030476
0.00144656
-0.00177966
-0.22307
0.223403
0.00180622
-0.00163496
-0.393549
0.393378
0.00159377
-0.00208653
-0.552708
0.553201
0.00336567
-0.00514027
-0.679061
0.680835
0.00757941
-0.0100884
-0.801849
0.804358
0.0130295
-0.0158169
-0.947619
0.950406
0.0189451
-0.0218227
-1.12349
1.12636
0.0249464
-0.0276959
-1.33464
1.33739
0.0304982
-0.0327564
-1.58844
1.59069
0.0344827
-0.0356928
-1.58049
1.5817
0.0363504
-0.0366661
-1.31642
1.31674
0.0367102
-0.0365621
-1.10145
1.1013
0.0362922
-0.036004
-0.926168
0.92588
0.0358501
-0.0352935
-0.782479
0.781923
0.0341424
-0.0314915
-0.646914
0.644263
0.0275387
-0.0218538
-0.479899
0.474214
0.016211
-0.0104146
-0.286539
0.280742
0.00608014
-0.00262172
-0.124757
0.121299
0.000731205
-0.0193844
0.0186532
-0.0296242
0.0301008
-0.000476569
0.002713
-0.00379002
-0.22412
0.225198
0.00470515
-0.00534109
-0.393587
0.394223
0.00601117
-0.00694122
-0.554213
0.555143
0.00851306
-0.0105372
-0.682945
0.684969
0.013271
-0.0160655
-0.806846
0.809641
0.0193256
-0.0223974
-0.953081
0.956153
0.0258185
-0.0289298
-1.12915
1.13226
0.0322532
-0.0351176
-1.34004
1.3429
0.0379469
-0.0401153
-1.5928
1.59497
0.0416375
-0.042537
-1.5827
1.5836
0.0428639
-0.0428129
-1.31686
1.31681
0.0425164
-0.04201
-1.10101
1.10051
0.0414184
-0.0407935
-0.925472
0.924847
0.0403179
-0.0392973
-0.780868
0.779847
0.037617
-0.0342465
-0.641481
0.63811
0.0296317
-0.0233274
-0.468459
0.462155
0.0172584
-0.0111051
-0.274898
0.268745
0.00650649
-0.00281902
-0.117794
0.114107
0.00079027
-0.0179192
0.017129
-0.030657
0.0313503
-0.000693259
0.00419738
-0.00616199
-0.226718
0.228683
0.00812898
-0.00965796
-0.395284
0.396813
0.0111708
-0.0126835
-0.556765
0.558278
0.014696
-0.0170609
-0.687388
0.689753
0.0201768
-0.023332
-0.812409
0.815564
0.0269928
-0.0304189
-0.959124
0.96255
0.0341991
-0.0375941
-1.13529
1.13869
0.0411586
-0.0441556
-1.34566
1.34866
0.0470112
-0.049064
-1.59697
1.59902
0.050339
-0.0508795
-1.58426
1.5848
0.0508063
-0.0503339
-1.31652
1.31604
0.0496411
-0.0487175
-1.09978
1.09886
0.0477556
-0.0467401
-0.924027
0.923012
0.0458251
-0.0442925
-0.7783
0.776767
0.0419517
-0.0377455
-0.634642
0.630436
0.0323555
-0.0252969
-0.45577
0.448711
0.0186707
-0.0120244
-0.262498
0.255852
0.00706037
-0.00306678
-0.110344
0.10635
0.000861631
-0.0163324
0.0154708
-0.0321217
0.0330988
-0.000977102
0.00606859
-0.00910826
-0.231109
0.234148
0.0123113
-0.0148953
-0.398931
0.401515
0.0173829
-0.0196096
-0.560663
0.56289
0.0222215
-0.0250621
-0.6926
0.695441
0.0286957
-0.0323149
-0.818698
0.822318
0.0364674
-0.0403151
-0.965877
0.969725
0.0445156
-0.0482367
-1.142
1.14572
0.0520693
-0.0551975
-1.35153
1.35466
0.0580367
-0.0599029
-1.60086
1.60272
0.0608459
-0.0609348
-1.58504
1.58513
0.060408
-0.0594203
-1.31525
1.31426
0.0582673
-0.0568549
-1.09761
1.0962
0.0554642
-0.0540078
-0.92171
0.920254
0.0525671
-0.0504316
-0.774678
0.772542
0.0473142
-0.0421123
-0.626149
0.620947
0.0357882
-0.0277992
-0.441553
0.433564
0.0204605
-0.0131698
-0.249067
0.241776
0.00773405
-0.00335849
-0.102253
0.0978777
0.000942564
-0.0146011
0.0136585
-0.0341472
0.03552
-0.00137283
0.00855061
-0.0129183
-0.237642
0.24201
0.0176004
-0.0214078
-0.404876
0.408684
0.0250201
-0.028097
-0.566235
0.569312
0.0314739
-0.0349424
-0.69886
0.702328
0.0392486
-0.0434575
-0.825918
0.830127
0.0482268
-0.0525973
-0.973491
0.977861
0.0573038
-0.0613933
-1.14935
1.15344
0.0654911
-0.0687059
-1.35763
1.36085
0.0714374
-0.0729972
-1.60431
1.60587
0.0734717
-0.0729621
-1.58484
1.58433
0.071878
-0.0702578
-1.31282
1.3112
0.0685773
-0.0666146
-1.09435
1.09238
0.0647473
-0.0627978
-0.918409
0.916459
0.0607246
-0.0578744
-0.769803
0.766953
0.053821
-0.0474216
-0.615676
0.609277
0.0399724
-0.0308457
-0.425463
0.416336
0.022616
-0.0145164
-0.234305
0.226206
0.00850285
-0.00367866
-0.0933782
0.088554
0.00102732
-0.012709
0.0116817
-0.0369361
0.0388783
-0.0019423
0.011962
-0.0180316
-0.2468
0.25287
0.0244986
-0.029735
-0.413599
0.418835
0.0346695
-0.0387833
-0.573845
0.577959
0.0431398
-0.0474366
-0.70648
0.710777
0.0526181
-0.0575681
-0.834324
0.839274
0.0630831
-0.0680498
-0.982168
0.987135
0.073288
-0.0777163
-1.15742
1.16185
0.0819963
-0.0851821
-1.36383
1.36701
0.0876499
-0.0887408
-1.60705
1.60814
0.0885838
-0.0873127
-1.58336
1.58209
0.0855179
-0.0831521
-1.30904
1.30667
0.0808409
-0.078261
-1.08983
1.08725
0.0758772
-0.0733061
-0.913976
0.911405
0.0705886
-0.0668047
-0.763387
0.759603
0.0616122
-0.0537692
-0.602806
0.594963
0.0449557
-0.0344332
-0.407091
0.396569
0.0251027
-0.0160163
-0.217895
0.208808
0.00932356
-0.00400117
-0.0835976
0.0782752
0.00110638
-0.010653
0.00954664
-0.0408056
0.0436257
-0.00282009
0.0169134
-0.0252192
-0.259304
0.26761
0.0338785
-0.0408227
-0.425765
0.432709
0.0473562
-0.0527562
-0.583976
0.589376
0.058366
-0.0637603
-0.715887
0.721281
0.0700673
-0.0758932
-0.8442
0.850026
0.0822079
-0.0877442
-0.992012
0.997549
0.0934118
-0.0980331
-1.16607
1.17069
0.102284
-0.105215
-1.36984
1.37277
0.107141
-0.107499
-1.60871
1.60906
0.106472
-0.104232
-1.58024
1.578
0.101575
-0.0983134
-1.30367
1.3004
0.0952592
-0.0919664
-1.0839
1.08061
0.0889995
-0.0857042
-0.908085
0.90479
0.0822808
-0.0773689
-0.754987
0.750075
0.0707949
-0.061203
-0.587015
0.577423
0.0507353
-0.0385141
-0.385934
0.373713
0.0278448
-0.0175859
-0.199506
0.189247
0.010127
-0.00428713
-0.0728347
0.0669949
0.0011661
-0.00845053
0.00728443
-0.0463171
0.0506159
-0.00429881
0.0245849
-0.0359185
-0.276302
0.287635
0.0474004
-0.0566263
-0.442381
0.451607
0.0651546
-0.072085
-0.597245
0.604175
0.0792476
-0.0861002
-0.727541
0.734393
0.0935835
-0.100218
-0.85575
0.862384
0.107169
-0.113052
-1.00289
1.00878
0.118832
-0.123306
-1.17494
1.17941
0.127118
-0.129397
-1.37512
1.3774
0.130341
-0.129579
-1.60867
1.60791
0.127348
-0.123857
-1.57502
1.57153
0.12014
-0.115816
-1.29641
1.29209
0.11191
-0.107839
-1.07639
1.07232
0.104256
-0.100181
-0.900531
0.896455
0.0959254
-0.0896037
-0.744154
0.737833
0.0813461
-0.0696444
-0.567632
0.555931
0.0572045
-0.0429611
-0.361407
0.347163
0.0307028
-0.0190959
-0.178831
0.167224
0.0108151
-0.00448575
-0.0610958
0.0547664
0.00118922
-0.00614675
0.00495753
-0.0545313
0.0618734
-0.00734216
0.0379479
-0.0537327
-0.299906
0.315691
0.069202
-0.0815693
-0.46508
0.477448
0.0922081
-0.100496
-0.614095
0.622383
0.10919
-0.117322
-0.741783
0.749914
0.125732
-0.13275
-0.86871
0.875728
0.13975
-0.14539
-1.0142
1.01984
0.150636
-0.154363
-1.18321
1.18694
0.157119
-0.158192
-1.37881
1.37988
0.157623
-0.15528
-1.60615
1.60381
0.151456
-0.146404
-1.56714
1.56208
0.1414
-0.13585
-1.28695
1.2814
0.130966
-0.126004
-1.06712
1.06215
0.121743
-0.116887
-0.891111
0.886255
0.111503
-0.103429
-0.730279
0.722204
0.0930819
-0.0787902
-0.543807
0.529515
0.064
-0.0474814
-0.332865
0.316346
0.0334524
-0.0204105
-0.155669
0.142627
0.0113042
-0.00455733
-0.0485371
0.0417902
0.00115339
-0.0038183
0.00266491
-0.0687199
0.0728109
-0.00409095
0.0288989
-0.0426768
-0.334039
0.347817
0.0564708
-0.0678394
-0.49524
0.506608
0.0779347
-0.087338
-0.634171
0.643574
0.0978093
-0.107424
-0.757431
0.767045
0.118028
-0.127337
-0.881745
0.891054
0.137137
-0.145729
-1.02455
1.03314
0.154551
-0.161907
-1.18956
1.19691
0.168918
-0.174102
-1.37972
1.38491
0.178069
-0.179707
-1.60018
1.60182
0.178965
-0.176388
-1.55591
1.55333
0.172815
-0.168111
-1.27492
1.27022
0.163745
-0.158623
-1.05587
1.05075
0.154222
-0.148869
-0.87947
0.874118
0.142061
-0.130684
-0.712445
0.701068
0.11569
-0.0957001
-0.514582
0.494591
0.0757886
-0.0541614
-0.299622
0.277994
0.03671
-0.0213936
-0.130093
0.114776
0.011274
-0.00428187
-0.0355764
0.0285843
0.000973835
-0.00155065
0.000576819
-0.0801254
0.0782078
0.00191759
0.00758231
-0.0164371
-0.364316
0.373171
0.0268749
-0.0350574
-0.52256
0.530743
0.0432
-0.0510014
-0.655551
0.663352
0.0605611
-0.0694675
-0.776135
0.785042
0.0789341
-0.0874912
-0.899762
0.908319
0.0964726
-0.103995
-1.04143
1.04896
0.111875
-0.118047
-1.20402
1.21019
0.123818
-0.127714
-1.38967
1.39356
0.130003
-0.130141
-1.60246
1.6026
0.12795
-0.123913
-1.54984
1.5458
0.118859
-0.112634
-1.26486
1.25864
0.10682
-0.100361
-1.04431
1.03785
0.0943647
-0.087505
-0.864637
0.857778
0.0803569
-0.0705151
-0.68581
0.675968
0.0593395
-0.0459364
-0.473062
0.459659
0.0338559
-0.0223776
-0.256412
0.244934
0.0141253
-0.00770419
-0.100116
0.0936949
0.00382572
-0.00136228
-0.0218213
0.0193578
0.000265012
0.000666957
-0.000931969
-0.081534
0.0786982
0.00283577
-0.00117731
-0.00385845
-0.384818
0.389854
0.0107446
-0.0167339
-0.542761
0.548751
0.0227955
-0.0295203
-0.67361
0.680335
0.0378199
-0.0455479
-0.793015
0.800743
0.0539662
-0.0614123
-0.916074
0.92352
0.0689764
-0.0756714
-1.0563
1.06299
0.0824678
-0.0878555
-1.2159
1.22129
0.0924187
-0.0952257
-1.39675
1.39955
0.0966481
-0.0958165
-1.60197
1.60114
0.0926863
-0.0877185
-1.54105
1.53608
0.0819212
-0.0750597
-1.25207
1.2452
0.0682275
-0.0608384
-1.03019
1.02281
0.0539684
-0.0463405
-0.848194
0.840566
0.0393899
-0.031033
-0.662586
0.654229
0.0228277
-0.0143167
-0.44446
0.435949
0.00827366
-0.00395486
-0.232686
0.228367
0.0016616
-0.00046238
-0.086928
0.0857288
1.0017e-05
7.99276e-05
-0.0165056
0.0164157
-7.11709e-05
0.00153129
-0.00146012
-0.0803599
0.0776311
0.00272887
-0.00483765
0.00232166
-0.398432
0.400948
0.00212445
-0.00663675
-0.557832
0.562344
0.0117597
-0.0174112
-0.68848
0.694131
0.0245661
-0.0312159
-0.807798
0.814448
0.0384128
-0.0447993
-0.930413
0.936799
0.051667
-0.0573391
-1.06924
1.07492
0.0632637
-0.0675043
-1.22626
1.2305
0.0713446
-0.0735547
-1.40211
1.40432
0.0741957
-0.0724938
-1.59982
1.59812
0.06892
-0.0635445
-1.53045
1.52508
0.0574111
-0.049878
-1.23795
1.23042
0.0428103
-0.035154
-1.01456
1.0069
0.0279233
-0.0203612
-0.830909
0.823346
0.0134436
-0.00645274
-0.64273
0.635739
0.000584825
0.0039191
-0.42593
0.421426
-0.00583723
0.00600213
-0.221831
0.221666
-0.00522587
0.00367776
-0.0835527
0.0851008
-0.00235648
0.00107822
-0.0157439
0.0170221
-0.000334326
0.00176854
-0.00143422
-0.0789471
0.0765586
0.00238857
-0.00596198
0.00498419
-0.40761
0.408588
-0.00163426
-0.00173913
-0.56993
0.573303
0.00585507
-0.0109939
-0.700997
0.706136
0.0170337
-0.0229028
-0.820369
0.826238
0.0291635
-0.0347442
-0.942738
0.948319
0.0406726
-0.0457572
-1.08046
1.08554
0.0507987
-0.0547188
-1.2346
1.23852
0.0579797
-0.0597296
-1.40616
1.40791
0.0599275
-0.0578974
-1.5962
1.59417
0.0541077
-0.0484465
-1.51898
1.51332
0.0423379
-0.0350397
-1.22282
1.21552
0.0280638
-0.0202554
-0.998628
0.99082
0.0130444
-0.00533497
-0.813995
0.806286
-0.00115163
0.00692356
-0.62601
0.620238
-0.0109849
0.0132346
-0.414259
0.41201
-0.0132151
0.011383
-0.218717
0.220549
-0.00907189
0.00626054
-0.08567
0.0884814
-0.00388144
0.00172261
-0.0178532
0.020012
-0.000501996
0.00137527
-0.000873277
-0.0776747
0.0756519
0.00202282
-0.0058306
0.00530753
-0.414001
0.414524
-0.00328177
0.000509958
-0.579327
0.582098
0.00354226
-0.00797017
-0.711643
0.716071
0.0131922
-0.0183105
-0.831293
0.836411
0.0239087
-0.0289435
-0.953561
0.958596
0.0344328
-0.0389487
-1.09037
1.09489
0.0435492
-0.0471259
-1.24217
1.24575
0.0500203
-0.0515015
-1.4094
1.41088
0.0514751
-0.0497638
-1.59207
1.59036
0.0460557
-0.040793
-1.50732
1.50206
0.0349677
-0.0279807
-1.20814
1.20115
0.0214684
-0.0137421
-0.982696
0.97497
0.00669073
0.000590394
-0.797514
0.790233
-0.00662546
0.0117203
-0.611647
0.606552
-0.0149774
0.0166008
-0.406694
0.405071
-0.0157673
0.0131944
-0.219452
0.222024
-0.0104792
0.00721507
-0.0903327
0.0935969
-0.00444388
0.00199441
-0.0216543
0.0241037
-0.000583101
0.000550808
3.22932e-05
-0.0767602
0.0752041
0.00155611
-0.0049214
0.0046951
-0.418862
0.419088
-0.0029831
0.00086577
-0.587601
0.589718
0.00294948
-0.00700203
-0.720919
0.724971
0.0119884
-0.0164272
-0.841129
0.845568
0.0213862
-0.0259007
-0.963612
0.968127
0.0311756
-0.0353398
-1.09945
1.10362
0.0395017
-0.0429534
-1.24917
1.25262
0.0460739
-0.0474865
-1.41239
1.41381
0.047644
-0.0460323
-1.58833
1.58671
0.0429033
-0.037752
-1.49668
1.49153
0.0324118
-0.0259166
-1.19407
1.18758
0.0195982
-0.0124905
-0.967187
0.96008
0.00588148
0.000994503
-0.782074
0.775198
-0.00628718
0.0111024
-0.598793
0.593978
-0.0140604
0.0154621
-0.400679
0.399277
-0.0149833
0.0128463
-0.221547
0.223684
-0.0102601
0.00708856
-0.0957711
0.0989427
-0.00439485
0.0020043
-0.0258844
0.028275
-0.000599508
-0.000409246
0.00100875
-0.0763643
0.0751665
0.00119778
-0.00380743
0.00368052
-0.422827
0.422954
-0.00204925
2.9687e-05
-0.594861
0.596881
0.00359582
-0.00727267
-0.729302
0.732979
0.0115817
-0.015886
-0.849962
0.854266
0.0205113
-0.0252121
-0.97246
0.977161
0.0298116
-0.033841
-1.1079
1.11193
0.0381884
-0.041468
-1.25597
1.25925
0.0441944
-0.0461018
-1.41516
1.41707
0.0465601
-0.0453534
-1.58522
1.58401
0.0424609
-0.0379114
-1.48661
1.48206
0.0329018
-0.026775
-1.18079
1.17466
0.0209833
-0.0144962
-0.95287
0.946383
0.00858882
-0.00254903
-0.768017
0.761977
-0.00269518
0.00736929
-0.587051
0.582377
-0.010199
0.0118329
-0.395176
0.393542
-0.0118618
0.010293
-0.223202
0.224771
-0.00833484
0.0058231
-0.100586
0.103097
-0.00366386
0.00170385
-0.0297902
0.0317502
-0.000528426
-0.00135259
0.00188101
-0.0765194
0.0755222
0.000997184
-0.00250554
0.00211426
-0.426462
0.426853
-0.000643923
-0.00142289
-0.60159
0.603656
0.00476517
-0.00834628
-0.73715
0.740731
0.0125101
-0.0164431
-0.85838
0.862313
0.0212218
-0.0251657
-0.981294
0.985238
0.0297749
-0.0336727
-1.11613
1.12003
0.0379507
-0.0414664
-1.26252
1.26604
0.0445527
-0.0463312
-1.41877
1.42055
0.0472262
-0.0464715
-1.58276
1.582
0.0442404
-0.0400204
-1.4774
1.47318
0.0355173
-0.0299872
-1.16872
1.16319
0.0248721
-0.0190984
-0.939829
0.934055
0.0139387
-0.00825087
-0.755424
0.749736
0.00317651
0.00170662
-0.575927
0.571044
-0.00497104
0.00669385
-0.389383
0.38766
-0.00723338
0.00651072
-0.223833
0.224556
-0.00540308
0.00382926
-0.104003
0.105576
-0.00245521
0.00119401
-0.0327158
0.033977
-0.000388735
-0.00212356
0.00251229
-0.0769722
0.0762818
0.000690427
-0.00135943
0.000495877
-0.43022
0.431084
0.000789859
-0.00301348
-0.607609
0.609833
0.0060837
-0.00957225
-0.744517
0.748005
0.0135869
-0.0176702
-0.866125
0.870209
0.0218616
-0.025995
-0.989401
0.993535
0.030596
-0.0343142
-1.12436
1.12808
0.0387261
-0.0422482
-1.26937
1.27289
0.045455
-0.0478331
-1.42276
1.42514
0.0492903
-0.0488813
-1.58131
1.5809
0.0469577
-0.0435913
-1.46918
1.46582
0.0398562
-0.0350381
-1.15773
1.15291
0.0305153
-0.0255876
-0.928364
0.923436
0.020483
-0.0151265
-0.743495
0.738138
0.0100417
-0.00487857
-0.564915
0.559752
0.00137145
0.00100848
-0.38307
0.380691
-0.00205567
0.00232396
-0.22309
0.222821
-0.00208339
0.00155274
-0.105561
0.106091
-0.00106853
0.000565327
-0.0342763
0.0347795
-0.00020581
-0.00261263
0.00281844
-0.0778281
0.0772999
0.000528232
-0.000399218
-0.000406187
-0.434239
0.435044
0.00226267
-0.00435571
-0.613749
0.615842
0.00764094
-0.0110312
-0.751431
0.754821
0.0149096
-0.0186141
-0.873981
0.877685
0.022955
-0.0267977
-0.997676
1.00152
0.0313701
-0.0355498
-1.13226
1.13644
0.0396416
-0.0435344
-1.27648
1.28037
0.0472264
-0.0497629
-1.42744
1.42998
0.0516635
-0.0521115
-1.58074
1.58119
0.0507888
-0.0482912
-1.46244
1.45995
0.0450649
-0.0410337
-1.14834
1.14431
0.0371382
-0.0324269
-0.918153
0.913441
0.0275561
-0.0220215
-0.731897
0.726362
0.0167807
-0.0113244
-0.553446
0.54799
0.00736688
-0.00445252
-0.376019
0.373105
0.00259302
-0.00143883
-0.220533
0.219378
0.000745744
-0.00027585
-0.105098
0.104628
-1.07369e-05
0.000139037
-0.0344425
0.0343142
-0.000102746
-0.00275921
0.00286195
-0.0789599
0.0786079
0.000352058
0.000644451
-0.00164155
-0.438404
0.439401
0.00337702
-0.00578186
-0.619528
0.621932
0.00903481
-0.0122919
-0.758147
0.761404
0.0162647
-0.0198384
-0.881383
0.884957
0.0240414
-0.0280206
-1.00584
1.00982
0.0325209
-0.0366876
-1.14048
1.14465
0.0410335
-0.0449982
-1.2842
1.28816
0.048931
-0.052268
-1.43282
1.43616
0.0546832
-0.0555458
-1.58163
1.58249
0.0550907
-0.0531828
-1.45749
1.45558
0.0507463
-0.0474175
-1.14037
1.13704
0.0435964
-0.0389435
-0.908378
0.903725
0.0339934
-0.0281465
-0.720062
0.714215
0.0228639
-0.017237
-0.541845
0.536218
0.0130697
-0.00948955
-0.368179
0.364598
0.00701353
-0.00494119
-0.216276
0.214203
0.00326019
-0.0018327
-0.102783
0.101355
0.000864734
-0.000216227
-0.0333606
0.0327121
-2.18402e-05
-0.00263147
0.00265331
-0.080314
0.0800829
0.000231103