/*--------------------------------*- C++ -*----------------------------------*\
  =========                 |
  \\      /  F ield         | OpenFOAM: The Open Source CFD Toolbox
   \\    /   O peration     | Website:  https://openfoam.org
    \\  /    A nd           | Version:  6
     \\/     M anipulation  |
\*---------------------------------------------------------------------------*/
FoamFile
{
    version     2.0;
    format      ascii;
    class       volScalarField;
    location    "7";
    object      T;
}
// * * * * * * * * * * * * * * * * * * * * * * * * * * * * * * * * * * * * * //

dimensions      [0 0 0 1 0 0 0];

internalField   nonuniform List<scalar> 
5250
(
1.00001
1.00001
1.00005
1.00009
1.00029
1.00052
1.00162
1.00301
1.0089
1.01851
1.04769
1.12319
1.28634
1.76725
2.74943
2.78301
2.75956
2.74979
2.73494
2.7472
2.7601
2.77633
2.78462
2.78936
2.79262
1.00001
1.00001
1.00005
1.00009
1.00028
1.00051
1.00162
1.003
1.00886
1.01842
1.04748
1.12266
1.28492
1.76475
2.74518
2.78229
2.75743
2.74841
2.73408
2.74693
2.75878
2.77459
2.78264
2.78672
2.79046
1.00001
1.00001
1.00005
1.00009
1.00028
1.00051
1.0016
1.00297
1.00878
1.01823
1.04705
1.12147
1.28187
1.75886
2.73541
2.78049
2.75297
2.74522
2.73195
2.74529
2.757
2.77065
2.77946
2.78322
2.78534
1.00001
1.00001
1.00005
1.00009
1.00028
1.0005
1.00158
1.00292
1.00865
1.01793
1.04637
1.11954
1.27698
1.74911
2.71968
2.7773
2.74713
2.74094
2.72846
2.74174
2.75301
2.76708
2.77212
2.77789
2.78032
1.00001
1.00001
1.00005
1.00008
1.00027
1.00049
1.00154
1.00285
1.00848
1.01751
1.0454
1.1168
1.27005
1.73523
2.69713
2.77246
2.73997
2.73557
2.72351
2.73593
2.74378
2.75829
2.7657
2.76713
2.76841
1.00001
1.00001
1.00004
1.00008
1.00026
1.00047
1.0015
1.00276
1.00824
1.01694
1.04409
1.11313
1.26083
1.71632
2.6678
2.76414
2.72822
2.72766
2.71943
2.7304
2.73824
2.74703
2.75208
2.75719
2.75805
1.00001
1.00001
1.00004
1.00008
1.00025
1.00046
1.00144
1.00265
1.00793
1.01621
1.04242
1.10823
1.24928
1.68989
2.63366
2.74596
2.73155
2.71447
2.70667
2.7176
2.72759
2.73667
2.73825
2.73706
2.73453
1.00001
1.00001
1.00004
1.00007
1.00024
1.00043
1.00136
1.0025
1.00753
1.01528
1.04028
1.10208
1.23472
1.65677
2.58145
2.72841
2.72698
2.71246
2.69674
2.70088
2.71014
2.71854
2.71849
2.71786
2.7111
1.00001
1.00001
1.00004
1.00007
1.00022
1.0004
1.00127
1.00232
1.00705
1.01413
1.03771
1.09435
1.21751
1.61424
2.51213
2.69998
2.71761
2.70781
2.69095
2.68974
2.69118
2.69657
2.6929
2.67959
2.64837
1
1.00001
1.00003
1.00006
1.00019
1.00035
1.00109
1.00208
1.00598
1.01289
1.03267
1.08764
1.19206
1.57464
2.44496
2.66872
2.70894
2.69558
2.67868
2.67643
2.67443
2.66865
2.65647
2.6389
2.57825
1
1.00001
1.00002
1.00007
1.00013
1.00039
1.00074
1.00209
1.00457
1.0114
1.03041
1.0676
1.20076
1.45777
2.24896
2.64249
2.71316
2.69543
2.6656
2.6565
2.65317
2.64183
2.61392
2.55646
2.43189
1
1.00001
1.00002
1.00006
1.00011
1.00035
1.00065
1.00196
1.00389
1.01043
1.02529
1.0588
1.16818
1.38167
2.03773
2.57089
2.70331
2.68805
2.65773
2.63458
2.6234
2.61042
2.57759
2.50884
2.36822
1
1.00001
1.00002
1.00004
1.00013
1.00023
1.00073
1.00136
1.00406
1.00811
1.02212
1.05121
1.12498
1.32379
1.92114
2.47948
2.66427
2.6539
2.64118
2.61642
2.59804
2.57123
2.5369
2.48289
2.3638
1
1.00001
1.00002
1.00004
1.00011
1.0002
1.00065
1.00118
1.00362
1.00694
1.01971
1.04333
1.10801
1.27618
1.78127
2.47535
2.65915
2.6208
2.61268
2.59497
2.57781
2.54806
2.49634
2.4556
2.36335
1
1
1.00002
1.00003
1.0001
1.00017
1.00055
1.001
1.00308
1.00591
1.01643
1.03789
1.08938
1.24944
1.61427
2.41819
2.63384
2.59488
2.58813
2.57103
2.55882
2.53504
2.4756
2.43147
2.35963
1
1
1.00001
1.00003
1.00008
1.00014
1.00046
1.00083
1.00254
1.00498
1.01344
1.03228
1.07487
1.2164
1.49679
2.26526
2.58127
2.59148
2.56873
2.55049
2.53212
2.51656
2.4719
2.41813
2.35457
1
1
1.00001
1.00002
1.00007
1.00012
1.00038
1.00069
1.00214
1.00406
1.01142
1.02573
1.06208
1.17312
1.39844
2.06502
2.49811
2.58314
2.56037
2.54335
2.51131
2.48806
2.46093
2.41286
2.3542
1
1
1.00001
1.00002
1.00005
1.0001
1.0003
1.00055
1.0017
1.00318
1.00911
1.01969
1.04878
1.1307
1.29553
1.8384
2.35411
2.54164
2.53982
2.52713
2.49992
2.46864
2.43626
2.4006
2.35218
1
1
1.00001
1.00001
1.00004
1.00008
1.00024
1.00043
1.00135
1.00247
1.0075
1.01479
1.03979
1.09503
1.2275
1.59553
2.31612
2.48906
2.49495
2.49023
2.47854
2.45464
2.42354
2.38249
2.34453
1
1
1.00001
1.00001
1.00003
1.00006
1.00018
1.00033
1.00104
1.00191
1.00569
1.01149
1.03014
1.07642
1.16983
1.49174
2.20006
2.44431
2.47806
2.45785
2.44789
2.42613
2.40898
2.37417
2.33575
1
1
1
1.00001
1.00002
1.00005
1.00014
1.00026
1.00081
1.00146
1.00447
1.00868
1.02353
1.05631
1.12889
1.36418
1.94995
2.35374
2.4609
2.44993
2.42913
2.39972
2.38012
2.36039
2.32917
1
1
1
1.00001
1.00002
1.00003
1.00011
1.00019
1.0006
1.00109
1.00333
1.00632
1.01808
1.03816
1.09917
1.23408
1.69641
2.18578
2.41447
2.42272
2.41095
2.38773
2.35826
2.33369
2.31223
1
1
1
1
1.00001
1.00002
1.00008
1.00014
1.00044
1.0008
1.00245
1.0046
1.01316
1.02837
1.06963
1.18282
1.44145
2.05845
2.35899
2.40337
2.39155
2.37846
2.35124
2.32151
2.29221
1
1
1
1
1.00001
1.00002
1.00006
1.0001
1.00031
1.00057
1.00175
1.00331
1.00932
1.02031
1.05006
1.13417
1.3031
1.78928
2.23312
2.36583
2.36456
2.35622
2.34096
2.3148
2.28587
1
1
1
1
1.00001
1.00002
1.00003
1.00009
1.00017
1.00052
1.00097
1.00287
1.00566
1.01561
1.03376
1.08767
1.20295
1.60515
2.07056
2.31133
2.33583
2.33097
2.31787
2.29817
2.27291
1
1
1
1
1
1.00001
1.00002
1.00007
1.00012
1.00037
1.00067
1.00205
1.00387
1.01105
1.02362
1.05853
1.15035
1.36266
1.87792
2.2115
2.30544
2.31092
2.30367
2.28824
2.26502
1
1
1
1
1
1.00001
1.00002
1.00003
1.0001
1.00019
1.00058
1.00109
1.00319
1.00629
1.01713
1.03771
1.0946
1.22617
1.64055
2.06928
2.25243
2.27051
2.27012
2.2635
2.24723
1
1
1
1
1
1
1.00001
1.00002
1.00007
1.00013
1.0004
1.00074
1.00223
1.00422
1.012
1.02553
1.06347
1.15828
1.39951
1.90862
2.19442
2.25121
2.2511
2.24118
2.22955
1
1
1
1
1
1
1.00001
1.00002
1.00004
1.00011
1.00021
1.00062
1.00117
1.0034
1.00681
1.01835
1.0415
1.10211
1.25353
1.71146
2.06139
2.2046
2.22453
2.22205
2.21558
1
1
1
1
1
1
1.00001
1.00001
1.00003
1.00006
1.00017
1.00031
1.00093
1.00179
1.00498
1.01072
1.02657
1.06908
1.14948
1.42802
1.95904
2.15127
2.18773
2.19224
2.18627
1
1
1
1
1
1
1
1.00001
1.00002
1.00005
1.00009
1.00026
1.00049
1.00145
1.00278
1.00775
1.01675
1.04147
1.10797
1.24086
1.64918
2.03951
2.16827
2.17103
2.16863
1
1
1
1
1
1
1
1.00001
1.00001
1.00003
1.00006
1.00018
1.00032
1.00098
1.00177
1.00534
1.01029
1.02764
1.06539
1.14692
1.40309
1.89139
2.11021
2.15696
2.15483
1
1
1
1
1
1
1
1
1.00001
1.00002
1.00004
1.00011
1.0002
1.00061
1.00112
1.00336
1.00644
1.01787
1.03897
1.09512
1.23759
1.65178
1.96776
2.12123
2.14354
1
1
1
1
1
1
1
1
1.00001
1.00001
1.00003
1.00005
1.00016
1.00029
1.00086
1.00164
1.00454
1.00968
1.02392
1.0616
1.13276
1.37909
1.85506
2.04763
2.11335
1
1
1
1
1
1
1
1
1
1.00001
1.00001
1.00004
1.00008
1.00023
1.00042
1.00124
1.00238
1.00663
1.01403
1.03492
1.08603
1.19904
1.49933
1.93815
2.09009
1
1
1
1
1
1
1
1
1
1
1.00001
1.00002
1.00006
1.00011
1.00034
1.00062
1.00184
1.00353
1.00989
1.02092
1.05241
1.12682
1.31557
1.73262
2.03704
1
1
1
1
1
1
1
1
1
1
1.00001
1.00001
1.00004
1.00007
1.00022
1.00039
1.00118
1.00218
1.00636
1.0125
1.03347
1.07397
1.18616
1.43376
1.90477
1
1
1
1
1
1
1
1
1
1
1
1.00001
1.00002
1.00005
1.00014
1.00025
1.00077
1.00141
1.0042
1.00812
1.0222
1.04964
1.11847
1.30618
1.79572
1
1
1
1
1
1
1
1
1
1
1
1.00001
1.00001
1.00004
1.00008
1.00023
1.00043
1.00129
1.00247
1.00711
1.01495
1.03869
1.09589
1.23261
1.5953
1
1
1
1
1
1
1
1
1
1
1
1
1.00001
1.00002
1.00007
1.00014
1.00041
1.00081
1.00218
1.00511
1.01225
1.03409
1.07549
1.22647
1.53911
1
1
1
1
1
1
1
1
1
1
1
1
1.00001
1.00003
1.00005
1.00016
1.0003
1.00089
1.00179
1.00488
1.0115
1.02806
1.07955
1.17375
1.53535
1
1
1
1
1
1
1
1
1
1
1
1
1.00001
1.00002
1.00006
1.00011
1.00032
1.00067
1.00172
1.00428
1.00991
1.02847
1.06155
1.19163
1.43959
1
1
1
1
1
1
1
1
1
1
1
1
1.00001
1.00003
1.00005
1.00015
1.00027
1.00085
1.00161
1.00474
1.01001
1.02606
1.06804
1.15462
1.44727
1
1
1
1
1
1
1
1
1
1
1
1
1.00001
1.00003
1.00005
1.00015
1.00028
1.00088
1.00161
1.00497
1.0097
1.02695
1.06328
1.15103
1.41743
1
1
1
1
1
1
1
1
1
1
1
1
1.00001
1.00003
1.00005
1.00015
1.00027
1.00087
1.00159
1.00489
1.00952
1.02644
1.06181
1.14742
1.40613
1
1
1
1
1
1
1
1
1
1
1
1
1.00001
1.00003
1.00005
1.00015
1.00027
1.00082
1.00154
1.00458
1.0094
1.02475
1.0624
1.14283
1.40342
1
1
1
1
1
1
1
1
1
1
1
1
1.00001
1.00002
1.00006
1.00011
1.00033
1.00061
1.00179
1.00371
1.00959
1.02426
1.05551
1.15985
1.36221
1
1
1
1
1
1
1
1
1
1
1
1
1.00001
1.00002
1.00006
1.00011
1.00034
1.00062
1.00194
1.00364
1.01052
1.02296
1.05682
1.15396
1.35953
1
1
1
1
1
1
1
1
1
1
1
1
1.00001
1.00002
1.00006
1.0001
1.00032
1.0006
1.00176
1.00365
1.00939
1.02384
1.05437
1.15692
1.3544
1
1
1
1
1
1
1
1
1
1
1
1
1.00001
1.00002
1.00004
1.00014
1.00026
1.00079
1.00149
1.00434
1.00911
1.0233
1.06082
1.13537
1.39079
2.40531
2.41721
2.80926
2.91433
3.02969
3.03053
3.01293
2.98447
2.9621
2.93573
2.91433
2.893
2.87068
2.85079
2.82995
2.8112
2.79562
2.78369
2.78082
2.77888
2.78132
2.79434
2.81229
2.83472
2.85922
2.87834
2.89989
2.91533
2.93136
2.94373
2.95479
2.9606
2.96911
2.97561
2.97954
2.98303
2.9851
2.98583
2.98386
2.98288
2.98071
2.97999
2.9748
2.9726
2.96699
2.9637
2.95617
2.95137
2.94351
2.938
2.92929
2.92269
2.91309
2.90599
2.89695
2.88825
2.878
2.86945
2.85879
2.84928
2.83806
2.82868
2.817
2.80635
2.79465
2.78285
2.7717
2.75877
2.7475
2.73518
2.72263
2.71189
2.69829
2.68796
2.67524
2.66415
2.65253
2.64154
2.62987
2.61968
2.608
2.59801
2.58692
2.57652
2.5666
2.5552
2.54674
2.53462
2.52658
2.5153
2.50603
2.49687
2.48615
2.47851
2.46802
2.46081
2.45217
2.44583
2.44043
2.43669
2.32545
2.36892
2.59144
2.82924
2.98837
3.06872
3.10415
3.10588
3.10485
3.09882
3.0887
3.07386
3.06028
3.04503
3.02887
3.01453
3.0012
2.99403
2.99401
2.99339
2.99831
3.00786
3.0203
3.03234
3.04147
3.04677
3.05012
3.05152
3.05176
3.0507
3.04666
3.0379
3.02823
3.0218
3.01431
3.00643
2.99584
2.98886
2.9777
2.96931
2.95867
2.94906
2.93863
2.92889
2.9189
2.90985
2.89869
2.88877
2.87825
2.86868
2.85751
2.84757
2.83608
2.82638
2.81544
2.80598
2.79429
2.78408
2.77214
2.76128
2.74957
2.73782
2.72673
2.71421
2.70302
2.69038
2.67786
2.66614
2.65216
2.64114
2.62706
2.61557
2.60248
2.59031
2.57777
2.56573
2.5531
2.54154
2.52896
2.51767
2.50558
2.49415
2.48314
2.47096
2.46146
2.44846
2.43999
2.42704
2.41835
2.40671
2.39684
2.38695
2.37628
2.3674
2.35717
2.34862
2.34014
2.33261
2.3273
2.32256
2.32334
2.3233
2.41527
2.54107
2.65911
2.79883
2.95515
3.04109
3.10098
3.13846
3.14926
3.1561
3.15406
3.1495
3.1479
3.1435
3.13464
3.13008
3.13684
3.13961
3.14564
3.1532
3.15708
3.15904
3.15109
3.13124
3.11517
3.09818
3.07954
3.06318
3.03806
3.01696
2.99682
2.97515
2.95492
2.93383
2.91454
2.89582
2.87772
2.86056
2.84276
2.82678
2.81057
2.7958
2.78066
2.76669
2.75206
2.74001
2.72548
2.71315
2.69941
2.68821
2.67533
2.66462
2.65227
2.64102
2.62958
2.61808
2.60822
2.59662
2.58744
2.57585
2.56605
2.55548
2.54467
2.53526
2.52381
2.5145
2.50344
2.49377
2.48362
2.47383
2.46412
2.45461
2.44492
2.43576
2.426
2.41704
2.40745
2.3984
2.38947
2.37987
2.37198
2.36156
2.35454
2.34369
2.33669
2.32642
2.31837
2.30948
2.30001
2.29232
2.28215
2.27498
2.26538
2.25842
2.25037
2.24442
2.23925
2.23615
2.312
2.27873
2.30432
2.37309
2.44623
2.52376
2.62016
2.75663
2.87943
2.99667
3.05619
3.09735
3.12912
3.15382
3.17273
3.18008
3.16918
3.15997
3.1734
3.18305
3.1847
3.18091
3.16533
3.14389
3.12281
3.09867
3.07049
3.04208
3.0154
2.98829
2.9609
2.93594
2.90868
2.88516
2.85988
2.83781
2.81546
2.79475
2.77348
2.75507
2.73501
2.71832
2.70059
2.68569
2.66974
2.65596
2.64103
2.62835
2.61536
2.60303
2.59033
2.57857
2.5669
2.55551
2.54497
2.53376
2.52388
2.51289
2.5028
2.4922
2.48128
2.47141
2.45986
2.45042
2.4384
2.42885
2.41706
2.40746
2.39615
2.38652
2.3754
2.366
2.35492
2.34595
2.33495
2.32636
2.31565
2.30722
2.29723
2.28869
2.27983
2.27085
2.26323
2.25379
2.24699
2.23756
2.23074
2.22195
2.21426
2.20648
2.19787
2.19088
2.18199
2.1752
2.16677
2.15998
2.15273
2.14669
2.14185
2.13849
2.3003
2.2674
2.24973
2.28007
2.31607
2.36588
2.41294
2.48584
2.57173
2.67462
2.78805
2.88468
2.96821
3.02911
3.0737
3.10558
3.1198
3.12487
3.12713
3.12522
3.11025
3.08776
3.05303
3.01671
2.97743
2.93941
2.90332
2.86881
2.83841
2.80963
2.78555
2.76123
2.739
2.71748
2.69721
2.67881
2.66164
2.64489
2.62948
2.61427
2.59975
2.58614
2.5732
2.56112
2.54889
2.53801
2.52687
2.51655
2.50674
2.49795
2.48883
2.4796
2.47097
2.46242
2.45473
2.44689
2.43924
2.43214
2.42409
2.41773
2.40928
2.40316
2.39447
2.38788
2.37917
2.3717
2.36295
2.35447
2.34555
2.33626
2.32714
2.3174
2.3081
2.2982
2.28883
2.27878
2.26972
2.25936
2.25103
2.24028
2.23295
2.22192
2.21546
2.20457
2.19838
2.18804
2.18156
2.17218
2.16524
2.15703
2.14944
2.1423
2.13444
2.12775
2.12032
2.1139
2.10739
2.10187
2.09735
2.09461
2.29205
2.25222
2.22782
2.22479
2.24002
2.26789
2.29482
2.33271
2.37776
2.43616
2.50524
2.5853
2.66076
2.74111
2.81583
2.88597
2.94344
2.98191
2.99923
2.99355
2.9694
2.92075
2.87043
2.8123
2.75968
2.71142
2.67478
2.6449
2.61901
2.59595
2.57534
2.55753
2.54211
2.52952
2.51704
2.50803
2.49802
2.49157
2.4833
2.47746
2.47031
2.46508
2.45909
2.45415
2.44881
2.44338
2.43806
2.43147
2.42642
2.4192
2.41398
2.40519
2.3992
2.3904
2.38462
2.37645
2.37041
2.36275
2.35646
2.34906
2.34262
2.33511
2.32864
2.32099
2.31465
2.30692
2.3005
2.29265
2.28573
2.27782
2.27022
2.26235
2.25418
2.24635
2.23787
2.22982
2.22135
2.21275
2.20464
2.19527
2.18778
2.17782
2.17081
2.16064
2.15375
2.14417
2.1371
2.1285
2.121
2.11336
2.1055
2.09854
2.0906
2.08398
2.07642
2.07004
2.06335
2.05776
2.053
2.05017
2.29277
2.24649
2.21418
2.20086
2.19419
2.20333
2.22142
2.23755
2.2653
2.29333
2.3331
2.37924
2.43269
2.49117
2.55084
2.60868
2.66166
2.6992
2.72144
2.7169
2.69122
2.64135
2.59072
2.53086
2.4912
2.45378
2.43891
2.4262
2.42357
2.42086
2.4189
2.41604
2.41419
2.41206
2.41056
2.40846
2.4075
2.40554
2.4039
2.40099
2.39903
2.39613
2.39421
2.39079
2.38807
2.38336
2.37941
2.37396
2.37008
2.36456
2.36026
2.35422
2.34843
2.34187
2.33552
2.32942
2.32279
2.31711
2.31018
2.3047
2.29748
2.29175
2.28431
2.27826
2.27075
2.26446
2.25695
2.25045
2.24284
2.23604
2.2282
2.22089
2.21292
2.20499
2.19724
2.18863
2.18137
2.172
2.16531
2.15527
2.14896
2.13849
2.13221
2.12201
2.11564
2.1061
2.09942
2.0908
2.08361
2.07609
2.06843
2.06178
2.05403
2.04802
2.04046
2.03499
2.02818
2.0236
2.01857
2.01678
2.29584
2.24836
2.20878
2.1871
2.17356
2.16667
2.17008
2.17901
2.18888
2.20833
2.22656
2.25602
2.29078
2.33159
2.37907
2.4234
2.46792
2.50293
2.52075
2.51882
2.49599
2.46138
2.41399
2.37609
2.34613
2.3258
2.31651
2.31819
2.32699
2.33598
2.34326
2.3485
2.3512
2.35402
2.35388
2.35339
2.35219
2.35125
2.34918
2.34769
2.3443
2.34211
2.3378
2.33454
2.33041
2.3261
2.32183
2.31666
2.31274
2.30749
2.30269
2.29666
2.29054
2.28409
2.27723
2.27087
2.26392
2.25776
2.25088
2.2448
2.23822
2.23228
2.22599
2.21984
2.21369
2.20726
2.20111
2.19443
2.18805
2.18118
2.17444
2.16738
2.16031
2.15294
2.14572
2.13783
2.13069
2.12218
2.11525
2.10613
2.09922
2.08996
2.08306
2.07421
2.06706
2.05895
2.05149
2.04421
2.0365
2.03002
2.02218
2.01639
2.00858
2.00332
1.9958
1.99092
1.98411
1.9799
1.97475
1.97314
2.29562
2.25059
2.21102
2.17937
2.16192
2.14688
2.14201
2.13846
2.14212
2.14915
2.16274
2.17701
2.20416
2.23569
2.27389
2.31215
2.35382
2.38852
2.40441
2.40063
2.37996
2.34885
2.30979
2.27303
2.24662
2.23033
2.21913
2.21605
2.22119
2.23294
2.24618
2.25772
2.26636
2.27153
2.27477
2.27675
2.27853
2.27901
2.27931
2.27915
2.27882
2.27792
2.27726
2.27575
2.27466
2.27216
2.27039
2.26685
2.26435
2.26083
2.25754
2.25304
2.24878
2.24394
2.2392
2.23418
2.22938
2.22449
2.21963
2.21467
2.20957
2.20438
2.19893
2.19339
2.18752
2.18172
2.17549
2.16949
2.16288
2.15657
2.14965
2.14291
2.13592
2.12857
2.12167
2.11352
2.10676
2.09782
2.09104
2.08156
2.07476
2.06531
2.05828
2.04923
2.0419
2.03346
2.0259
2.01808
2.01038
2.00317
1.99539
1.98872
1.98099
1.97476
1.9673
1.96145
1.95463
1.94944
1.94419
1.9416
2.29307
2.25123
2.21293
2.17955
2.15537
2.137
2.12374
2.11707
2.11172
2.11293
2.11937
2.13389
2.15156
2.18173
2.21318
2.25313
2.29733
2.33349
2.34369
2.33697
2.31729
2.2835
2.24536
2.20772
2.18166
2.164
2.15605
2.15086
2.15136
2.15823
2.17112
2.18728
2.20162
2.21381
2.22197
2.22837
2.23205
2.23541
2.23727
2.23867
2.24007
2.24075
2.24124
2.24113
2.24069
2.2395
2.23828
2.23575
2.2342
2.23137
2.22928
2.22554
2.22182
2.21745
2.21311
2.20834
2.20327
2.19827
2.19299
2.18804
2.18271
2.17764
2.17224
2.16683
2.16134
2.15559
2.15003
2.14404
2.13836
2.132
2.1261
2.11922
2.1132
2.10573
2.09979
2.09172
2.0859
2.07725
2.07144
2.0626
2.05661
2.04787
2.04147
2.03305
2.0262
2.01819
2.01106
2.00347
1.99623
1.98909
1.98181
1.97515
1.96788
1.96168
1.95455
1.94879
1.9421
1.93707
1.93175
1.92934
2.29116
2.25061
2.21561
2.18104
2.15396
2.13226
2.11511
2.10271
2.09546
2.09105
2.09481
2.1085
2.12833
2.15186
2.18595
2.2317
2.28057
2.30759
2.31029
2.30148
2.27766
2.24565
2.20511
2.16894
2.14164
2.12322
2.11257
2.10623
2.10482
2.10586
2.11292
2.1241
2.13996
2.15712
2.17174
2.1833
2.19116
2.19695
2.20036
2.20336
2.20488
2.20584
2.20669
2.20642
2.20585
2.20469
2.2033
2.20146
2.1993
2.19719
2.19462
2.19183
2.18797
2.18412
2.17981
2.17546
2.17053
2.1657
2.16064
2.15596
2.15105
2.14629
2.14127
2.13617
2.13095
2.12554
2.12014
2.11446
2.10886
2.1028
2.09691
2.09023
2.08408
2.07673
2.07056
2.0626
2.0564
2.04808
2.04178
2.03343
2.02683
2.01876
2.01176
2.0041
1.99676
1.98943
1.98196
1.97488
1.96744
1.96073
1.95336
1.94721
1.93988
1.93437
1.92715
1.92224
1.91541
1.91125
1.90578
1.9042
2.28544
2.24943
2.21543
2.18381
2.1549
2.13148
2.11234
2.09701
2.08778
2.08214
2.0879
2.10355
2.12195
2.15082
2.19039
2.24396
2.28693
2.30043
2.29799
2.28449
2.25857
2.22027
2.18284
2.15046
2.12388
2.1036
2.08863
2.08003
2.07415
2.07315
2.07413
2.07967
2.08966
2.10283
2.11938
2.13463
2.14773
2.15761
2.16498
2.16966
2.17305
2.17508
2.17669
2.1771
2.17749
2.17722
2.17667
2.1755
2.17445
2.17284
2.17145
2.1692
2.16686
2.16318
2.15991
2.15588
2.15199
2.14743
2.14278
2.13824
2.13349
2.12912
2.12423
2.11964
2.11451
2.10958
2.1042
2.0988
2.09314
2.08717
2.08138
2.07484
2.06904
2.06188
2.05609
2.04837
2.04253
2.03442
2.02822
2.01996
2.01323
2.00512
1.99792
1.99008
1.98264
1.97497
1.96752
1.95997
1.95262
1.94533
1.93804
1.93127
1.92401
1.91786
1.91071
1.90516
1.89841
1.89358
1.88817
1.88584
2.26811
2.24129
2.2123
2.18289
2.15584
2.1313
2.11276
2.09544
2.08824
2.08336
2.09214
2.10719
2.12899
2.16548
2.22358
2.27443
2.3008
2.30225
2.29542
2.27526
2.24543
2.20742
2.17362
2.14379
2.11737
2.09581
2.07814
2.06582
2.05768
2.05218
2.05041
2.0509
2.0534
2.06029
2.07088
2.08573
2.1024
2.11648
2.12843
2.13648
2.14256
2.14623
2.14849
2.15014
2.15048
2.15125
2.15103
2.1505
2.14944
2.14813
2.14655
2.14443
2.14221
2.13914
2.13567
2.1317
2.12762
2.12327
2.11858
2.11391
2.10904
2.10444
2.0996
2.09485
2.08983
2.08479
2.07963
2.07428
2.06898
2.06315
2.05775
2.05133
2.04592
2.03888
2.03354
2.02603
2.02062
2.01286
2.0071
1.99935
1.99301
1.98552
1.97869
1.97155
1.9645
1.95753
1.95049
1.94352
1.93654
1.92964
1.92269
1.9162
1.90925
1.90342
1.89657
1.89148
1.88499
1.88079
1.87556
1.87392
2.25968
2.23237
2.20615
2.18002
2.15551
2.13144
2.11406
2.09771
2.09246
2.09626
2.10957
2.12608
2.16004
2.21014
2.26969
2.30654
2.31446
2.31084
2.29704
2.27231
2.23693
2.20285
2.17207
2.14388
2.11929
2.09799
2.07915
2.06395
2.05087
2.04205
2.03733
2.03364
2.03336
2.03377
2.03765
2.04654
2.05869
2.07366
2.08755
2.10007
2.10919
2.11601
2.1204
2.12316
2.1248
2.12576
2.12612
2.12572
2.12469
2.12309
2.12142
2.11937
2.11722
2.11463
2.11161
2.10799
2.10401
2.10012
2.09565
2.09133
2.08635
2.08183
2.07691
2.07241
2.06755
2.06284
2.05796
2.05295
2.04807
2.04263
2.03765
2.03156
2.02648
2.01977
2.01449
2.00725
2.00156
1.99411
1.98785
1.98056
1.97368
1.9667
1.95938
1.95267
1.94527
1.93863
1.9314
1.92467
1.91761
1.91089
1.90388
1.89753
1.89052
1.88485
1.87794
1.87307
1.86656
1.86267
1.85752
1.85615
2.24738
2.22175
2.19674
2.17226
2.15289
2.13145
2.11706
2.10728
2.10611
2.11674
2.1308
2.16036
2.20576
2.27067
2.31585
2.33016
2.32849
2.31969
2.30037
2.26777
2.23467
2.20447
2.17652
2.15204
2.12868
2.10826
2.08918
2.07194
2.05669
2.04361
2.03111
2.02227
2.01757
2.01519
2.01528
2.01639
2.02156
2.03009
2.04283
2.05558
2.06765
2.07765
2.08528
2.09061
2.09404
2.09597
2.09673
2.09665
2.09598
2.09461
2.09295
2.09154
2.08982
2.08781
2.08558
2.0826
2.07891
2.07519
2.07106
2.06725
2.06257
2.05824
2.0533
2.04889
2.04412
2.03962
2.03491
2.03008
2.02535
2.02006
2.01525
2.00944
2.0046
1.99829
1.99323
1.98648
1.98092
1.97396
1.96773
1.96086
1.95395
1.94731
1.93992
1.93343
1.92596
1.91948
1.91227
1.90573
1.8988
1.89233
1.88551
1.87941
1.8726
1.86716
1.86046
1.85585
1.8496
1.846
1.84121
1.83999
2.24039
2.21513
2.19075
2.16575
2.14628
2.1295
2.11901
2.1188
2.12732
2.14233
2.16802
2.21247
2.27575
2.32479
2.34675
2.34652
2.33986
2.32343
2.29658
2.26559
2.23601
2.20933
2.18458
2.16178
2.13974
2.11946
2.09867
2.07961
2.06105
2.04426
2.02917
2.01756
2.00725
2.00197
1.99732
1.99544
1.99394
1.99569
2.00186
2.01123
2.0237
2.03595
2.04753
2.05647
2.0634
2.06769
2.07041
2.07139
2.07188
2.0714
2.07052
2.06935
2.0686
2.06705
2.06536
2.06299
2.05997
2.05638
2.05235
2.04872
2.0444
2.04021
2.03533
2.03086
2.02621
2.0218
2.01735
2.01263
2.00806
2.00276
1.99812
1.9923
1.98755
1.98124
1.97625
1.96962
1.96414
1.95741
1.9512
1.94468
1.93777
1.93158
1.92425
1.91819
1.91081
1.90461
1.89751
1.89109
1.8843
1.87779
1.87118
1.86492
1.85836
1.85277
1.84636
1.84176
1.8359
1.83258
1.82833
1.82736
2.23036
2.21007
2.18859
2.16539
2.14662
2.13209
2.12674
2.13296
2.14835
2.17361
2.21826
2.28189
2.33785
2.36482
2.36707
2.3611
2.34579
2.32073
2.29149
2.26469
2.23899
2.21526
2.19239
2.17061
2.14875
2.12727
2.10567
2.08509
2.0656
2.04727
2.03112
2.0168
2.00364
1.99261
1.98321
1.97778
1.9743
1.97299
1.97305
1.97656
1.98426
1.99603
2.00792
2.02014
2.02973
2.03774
2.04255
2.04625
2.04757
2.04863
2.04831
2.04754
2.04671
2.04555
2.04413
2.04191
2.03951
2.03643
2.03263
2.02918
2.02527
2.02146
2.01674
2.01221
2.00745
2.003
1.99865
1.99402
1.98974
1.98464
1.98039
1.97479
1.97048
1.96438
1.95975
1.9533
1.94804
1.94148
1.93535
1.9289
1.92198
1.91575
1.90839
1.90223
1.89487
1.88855
1.88155
1.8751
1.86855
1.86222
1.85595
1.85005
1.84391
1.8387
1.83278
1.82856
1.82333
1.82055
1.81703
1.81628
2.20938
2.19341
2.18045
2.16324
2.15025
2.14172
2.14546
2.15805
2.17933
2.22089
2.28436
2.34438
2.37327
2.37785
2.37254
2.35896
2.33543
2.30845
2.28258
2.26002
2.23788
2.21715
2.1959
2.17496
2.15311
2.13136
2.1098
2.08909
2.06967
2.05076
2.03368
2.0169
2.00166
1.98852
1.97656
1.96813
1.96065
1.9578
1.95437
1.95457
1.95519
1.96021
1.97016
1.98086
1.9928
2.00319
2.01215
2.01835
2.02282
2.02502
2.02637
2.02618
2.02551
2.02433
2.02326
2.02147
2.01951
2.01718
2.01393
2.01066
2.00704
2.00359
1.99932
1.99482
1.99014
1.98542
1.98114
1.97639
1.97241
1.96739
1.96349
1.9581
1.95417
1.94842
1.94416
1.93806
1.9331
1.92683
1.92092
1.9147
1.9079
1.90182
1.89458
1.88853
1.88135
1.87515
1.86828
1.86197
1.85552
1.84932
1.84326
1.83753
1.83172
1.82686
1.82145
1.81783
1.81343
1.81134
1.80865
1.80831
2.20103
2.18396
2.16929
2.1577
2.1527
2.15696
2.17033
2.19047
2.23208
2.29667
2.35841
2.38954
2.3952
2.39014
2.37679
2.35443
2.32677
2.3027
2.28014
2.25976
2.24001
2.2201
2.20052
2.17901
2.15848
2.13674
2.11675
2.09626
2.07725
2.05742
2.03951
2.02104
2.00478
1.98931
1.97562
1.96375
1.95428
1.94638
1.94149
1.93788
1.93527
1.93539
1.93681
1.94364
1.95281
1.96403
1.9751
1.98407
1.99202
1.99654
2.00008
2.00131
2.00143
2.00042
1.99928
1.99791
1.99649
1.99466
1.99216
1.9893
1.98588
1.9827
1.97875
1.97454
1.96983
1.96511
1.96072
1.95615
1.95236
1.94768
1.9442
1.93918
1.93578
1.93041
1.92664
1.92097
1.91637
1.9106
1.90493
1.89926
1.89262
1.88702
1.87982
1.87413
1.86689
1.86097
1.85409
1.84797
1.8417
1.83569
1.83001
1.82459
1.8194
1.81505
1.81051
1.80779
1.80429
1.80311
1.80175
1.8018
2.18142
2.17114
2.16372
2.15811
2.16349
2.17837
2.1989
2.24207
2.30596
2.37038
2.40519
2.41189
2.40673
2.39381
2.36939
2.34252
2.31809
2.29708
2.27779
2.25956
2.24162
2.22282
2.2035
2.18306
2.16268
2.14251
2.12258
2.1024
2.08293
2.06251
2.04441
2.02497
2.00887
1.99169
1.97749
1.9631
1.95131
1.93953
1.9316
1.92363
1.91946
1.91473
1.91373
1.91385
1.91676
1.92448
1.93372
1.94508
1.95456
1.96332
1.96908
1.97298
1.97455
1.97468
1.97388
1.97264
1.97125
1.96975
1.96762
1.96522
1.96214
1.95934
1.95596
1.95227
1.94804
1.9434
1.93929
1.93462
1.93117
1.92639
1.92335
1.91829
1.91544
1.91013
1.90706
1.90161
1.8977
1.8923
1.88723
1.88207
1.8759
1.8709
1.864
1.85899
1.85186
1.84664
1.83974
1.83433
1.82796
1.82268
1.81714
1.81237
1.80793
1.80421
1.8011
1.79891
1.79718
1.79692
1.79807
1.79722
2.16049
2.14953
2.15074
2.16026
2.1826
2.2038
2.24919
2.31717
2.38739
2.42515
2.43147
2.42575
2.41169
2.38637
2.35907
2.33379
2.31345
2.29377
2.2771
2.25933
2.24244
2.22384
2.20514
2.1859
2.16632
2.14726
2.1268
2.10755
2.08652
2.06763
2.04749
2.02954
2.01159
1.9948
1.97862
1.96316
1.94861
1.9351
1.92342
1.91277
1.90505
1.89855
1.89376
1.88996
1.88935
1.88955
1.8948
1.90101
1.91205
1.92108
1.93032
1.93714
1.94163
1.94445
1.94483
1.94439
1.94304
1.94157
1.93988
1.93791
1.93532
1.9326
1.92958
1.92629
1.92256
1.91839
1.91442
1.9101
1.90662
1.90236
1.89935
1.89496
1.8921
1.88757
1.88448
1.87991
1.87617
1.87163
1.867
1.86252
1.85709
1.85252
1.84663
1.84174
1.83585
1.8306
1.82495
1.8196
1.81423
1.80926
1.80445
1.80037
1.79685
1.79413
1.7923
1.79143
1.7918
1.79301
1.79577
1.79645
2.14771
2.14186
2.14435
2.16601
2.19503
2.25117
2.32144
2.40187
2.44437
2.45337
2.44751
2.43327
2.40563
2.37705
2.35197
2.32992
2.31153
2.29394
2.27749
2.26046
2.24301
2.22455
2.20585
2.18678
2.16781
2.14851
2.1291
2.10936
2.08963
2.07035
2.05092
2.03283
2.01412
1.99681
1.97927
1.96285
1.94674
1.93165
1.91734
1.90466
1.89279
1.8842
1.87511
1.87009
1.86356
1.86185
1.86013
1.86158
1.86681
1.87482
1.88443
1.89353
1.90171
1.90709
1.91086
1.91194
1.91185
1.9108
1.90965
1.90863
1.90653
1.90429
1.90125
1.89843
1.89484
1.89113
1.88739
1.88335
1.88011
1.87595
1.87324
1.86901
1.86653
1.8624
1.85966
1.85578
1.8524
1.84863
1.84451
1.84058
1.83592
1.83167
1.82674
1.82215
1.81716
1.81236
1.8075
1.80274
1.79828
1.79397
1.79043
1.7873
1.78541
1.78397
1.78401
1.78525
1.7872
1.7906
1.79691
1.80035
2.14392
2.14545
2.15654
2.18167
2.23228
2.31073
2.40497
2.45226
2.46508
2.45922
2.44427
2.4165
2.38867
2.36351
2.34283
2.32473
2.30869
2.29264
2.27657
2.25983
2.24237
2.22441
2.20615
2.18783
2.16921
2.15019
2.13067
2.11072
2.09087
2.07111
2.05165
2.03302
2.01389
1.99638
1.97737
1.9606
1.94231
1.92622
1.90993
1.89498
1.88137
1.86899
1.85794
1.84976
1.84112
1.83584
1.83043
1.82977
1.82833
1.83142
1.83691
1.84754
1.85587
1.86576
1.87249
1.87763
1.88047
1.88083
1.88042
1.87928
1.8777
1.87603
1.87362
1.87099
1.86821
1.86459
1.86171
1.8573
1.85461
1.84996
1.84749
1.8432
1.8407
1.83696
1.83402
1.8307
1.82713
1.82401
1.8199
1.81672
1.8123
1.80887
1.8044
1.80059
1.79623
1.79214
1.78805
1.78411
1.78062
1.77744
1.77526
1.77375
1.77296
1.77375
1.77531
1.77859
1.78258
1.79062
1.80195
1.81025
2.12996
2.14707
2.17657
2.23189
2.3116
2.40355
2.45441
2.46784
2.46159
2.44572
2.41615
2.38732
2.36179
2.34106
2.32404
2.30983
2.29575
2.28243
2.2674
2.25262
2.23597
2.21952
2.20199
2.1843
2.16557
2.14631
2.12648
2.1063
2.08685
2.06674
2.04807
2.02848
2.00979
1.99066
1.97138
1.95296
1.93415
1.91659
1.89976
1.88331
1.86904
1.85478
1.84296
1.8319
1.82303
1.8147
1.80831
1.80275
1.80036
1.79986
1.80109
1.80628
1.81339
1.82436
1.8335
1.84292
1.84879
1.85304
1.85453
1.85449
1.85377
1.85244
1.85112
1.84856
1.84617
1.84305
1.84038
1.83708
1.83404
1.83063
1.82735
1.82396
1.82049
1.81715
1.81346
1.81015
1.8063
1.80296
1.79891
1.79544
1.79111
1.78744
1.78303
1.77922
1.77499
1.7713
1.76754
1.76441
1.76164
1.76002
1.75866
1.75907
1.76016
1.76248
1.76567
1.77232
1.78138
1.79528
1.81031
1.81942
2.1262
2.15893
2.22364
2.32405
2.42329
2.47037
2.47831
2.46963
2.44981
2.41571
2.3861
2.36094
2.34029
2.32431
2.30981
2.29681
2.28271
2.26875
2.25327
2.23729
2.22083
2.20371
2.1869
2.16891
2.15123
2.13248
2.11417
2.09494
2.07586
2.0564
2.03713
2.0178
1.99888
1.98039
1.96185
1.94382
1.92597
1.90886
1.8925
1.87675
1.86248
1.84839
1.83605
1.82396
1.81377
1.80401
1.79667
1.78881
1.78367
1.77942
1.77918
1.77929
1.782
1.78752
1.79848
1.80658
1.81814
1.82442
1.83085
1.83321
1.83364
1.83318
1.83202
1.83081
1.82927
1.82675
1.82481
1.82178
1.8195
1.81623
1.81352
1.81028
1.80715
1.80383
1.80046
1.79697
1.79339
1.78965
1.78573
1.7817
1.77749
1.77321
1.76883
1.76461
1.76032
1.75644
1.75297
1.74988
1.74795
1.74681
1.747
1.74794
1.74993
1.75462
1.76062
1.77295
1.78688
1.80274
1.8184
1.82637
2.13485
2.21959
2.3267
2.4351
2.48767
2.49431
2.48289
2.45744
2.42241
2.38846
2.35921
2.33588
2.3173
2.30327
2.2916
2.28084
2.26952
2.25745
2.24387
2.22931
2.21385
2.19745
2.18037
2.1622
2.14367
2.12413
2.10474
2.08517
2.06663
2.04833
2.03049
2.01249
1.99443
1.97668
1.95857
1.94101
1.92315
1.90658
1.89033
1.87528
1.8606
1.84687
1.83353
1.82116
1.80921
1.79835
1.78853
1.77978
1.77182
1.76543
1.76054
1.75858
1.75862
1.75998
1.76473
1.7707
1.78177
1.79042
1.8008
1.80647
1.81179
1.81295
1.81355
1.81283
1.81175
1.81035
1.80814
1.80556
1.80304
1.80019
1.79755
1.79466
1.79199
1.78905
1.78629
1.78314
1.78014
1.7768
1.77343
1.7699
1.76612
1.76249
1.75839
1.75479
1.75085
1.74746
1.74463
1.74244
1.7414
1.74152
1.74238
1.74463
1.74893
1.75733
1.76939
1.78424
1.79966
1.8149
1.82777
1.83334
2.12893
2.29693
2.45217
2.51786
2.51839
2.50229
2.46866
2.42743
2.38936
2.35971
2.33687
2.31885
2.30416
2.29177
2.28041
2.26911
2.25698
2.24423
2.23038
2.21572
2.20022
2.18381
2.16739
2.15027
2.13319
2.11545
2.09808
2.08047
2.0633
2.04577
2.02833
2.0108
1.99251
1.97422
1.95566
1.93854
1.92147
1.90556
1.88957
1.87478
1.85982
1.84615
1.83201
1.81929
1.80613
1.79456
1.78326
1.77362
1.76496
1.75714
1.74999
1.74427
1.74135
1.74007
1.74068
1.74314
1.74775
1.7575
1.76593
1.77815
1.78474
1.79249
1.79479
1.79659
1.79594
1.79523
1.7939
1.79217
1.78926
1.78683
1.78355