/*--------------------------------*- C++ -*----------------------------------*\
  =========                 |
  \\      /  F ield         | OpenFOAM: The Open Source CFD Toolbox
   \\    /   O peration     | Website:  https://openfoam.org
    \\  /    A nd           | Version:  6
     \\/     M anipulation  |
\*---------------------------------------------------------------------------*/
FoamFile
{
    version     2.0;
    format      ascii;
    class       volVectorField;
    location    "35";
    object      U;
}
// * * * * * * * * * * * * * * * * * * * * * * * * * * * * * * * * * * * * * //

dimensions      [0 1 -1 0 0 0 0];

internalField   nonuniform List<vector> 
8800
(
(0.987189 -0.0766661 0)
(1.0019 -0.0551898 0)
(0.999753 -0.028547 0)
(1.00004 -0.0151373 0)
(1.00005 -0.00853126 0)
(1.00002 -0.00502908 0)
(1 -0.00299929 0)
(0.999978 -0.00172399 0)
(0.999969 -0.000833203 0)
(1.00005 -0.00012412 0)
(0.999983 0.000599422 0)
(0.999999 0.00136146 0)
(1.00001 0.00239174 0)
(1.00002 0.00397394 0)
(1.00003 0.00661041 0)
(1.00003 0.011353 0)
(0.999937 0.0208029 0)
(0.999163 0.0386628 0)
(1.00709 0.0724536 0)
(0.771214 0.0366602 0)
(0.363044 -0.0160199 0)
(1.04329 -0.0768305 0)
(1.08461 -0.0704731 0)
(1.04522 -0.053575 0)
(1.02326 -0.0389284 0)
(1.01193 -0.0262538 0)
(1.00632 -0.0169118 0)
(1.0035 -0.0104129 0)
(1.00208 -0.00577568 0)
(1.00141 -0.00213994 0)
(1.00129 0.00115171 0)
(1.00168 0.00452208 0)
(1.00265 0.00846962 0)
(1.00462 0.013845 0)
(1.00857 0.0215783 0)
(1.01656 0.0325584 0)
(1.0325 0.0464847 0)
(1.06268 0.0616173 0)
(1.09189 0.0760644 0)
(0.838727 0.0565475 0)
(0.216773 -0.00243257 0)
(1.07585 -0.0501738 0)
(1.09986 -0.0483674 0)
(1.0646 -0.0405298 0)
(1.03993 -0.0336772 0)
(1.02377 -0.0261702 0)
(1.01401 -0.0186362 0)
(1.00848 -0.0118712 0)
(1.00554 -0.00603309 0)
(1.00432 -0.00063654 0)
(1.00469 0.00459989 0)
(1.00663 0.00999021 0)
(1.01062 0.0161025 0)
(1.01793 0.0231591 0)
(1.03055 0.030658 0)
(1.05064 0.0377138 0)
(1.08038 0.0444201 0)
(1.10633 0.0512616 0)
(0.94269 0.0415762 0)
(0.216271 0.00245608 0)
(0.175054 -0.0008195 0)
(1.01754 -0.0355349 0)
(1.10514 -0.0414633 0)
(1.07819 -0.0361626 0)
(1.05332 -0.0302367 0)
(1.03601 -0.0246862 0)
(1.02383 -0.0190233 0)
(1.01575 -0.0130007 0)
(1.01095 -0.00685088 0)
(1.0088 -0.000576234 0)
(1.0094 0.00562654 0)
(1.01268 0.0116109 0)
(1.01887 0.017497 0)
(1.02878 0.0231295 0)
(1.04327 0.0284789 0)
(1.06381 0.0339998 0)
(1.09365 0.0400201 0)
(1.09359 0.041827 0)
(0.827533 0.0228534 0)
(0.174208 0.000845913 0)
(0.153802 -0.00061342 0)
(0.955886 -0.0255173 0)
(1.1033 -0.035233 0)
(1.08751 -0.0327899 0)
(1.06146 -0.0281695 0)
(1.04384 -0.0231902 0)
(1.03144 -0.0180263 0)
(1.02264 -0.0125717 0)
(1.01686 -0.00669955 0)
(1.01409 -0.000275213 0)
(1.01482 0.00616448 0)
(1.01884 0.0120357 0)
(1.02587 0.0173615 0)
(1.03617 0.0223528 0)
(1.05078 0.0271754 0)
(1.07202 0.031747 0)
(1.10024 0.0357139 0)
(1.06845 0.0338384 0)
(0.74025 0.0142327 0)
(0.152533 0.000643468 0)
(0.139374 -0.000469689 0)
(0.898811 -0.0191419 0)
(1.09553 -0.0302026 0)
(1.09552 -0.029333 0)
(1.06892 -0.0256052 0)
(1.05046 -0.0215145 0)
(1.03758 -0.016875 0)
(1.02853 -0.0117275 0)
(1.02252 -0.00607179 0)
(1.0195 0.000183201 0)
(1.0202 0.00645391 0)
(1.02433 0.0120804 0)
(1.03147 0.017054 0)
(1.04202 0.0215505 0)
(1.05724 0.0255908 0)
(1.07946 0.0291407 0)
(1.10261 0.0318452 0)
(1.03669 0.0278581 0)
(0.674131 0.0101048 0)
(0.137588 0.000504351 0)
(0.128775 -0.000364233 0)
(0.849017 -0.0147752 0)
(1.08297 -0.0260785 0)
(1.10107 -0.0264396 0)
(1.07564 -0.023228 0)
(1.05665 -0.0196748 0)
(1.04333 -0.0155321 0)
(1.03393 -0.0107034 0)
(1.02765 -0.00529818 0)
(1.02443 0.000730372 0)
(1.02505 0.00674836 0)
(1.02922 0.0120821 0)
(1.03652 0.0166832 0)
(1.04737 0.0206742 0)
(1.06301 0.0240766 0)
(1.08568 0.0270705 0)
(1.10189 0.0288712 0)
(1.00224 0.0232431 0)
(0.622891 0.0077063 0)
(0.126361 0.000404982 0)
(0.120678 -0.000283276 0)
(0.806702 -0.0116101 0)
(1.06753 -0.0224578 0)
(1.10441 -0.0237584 0)
(1.08171 -0.0209156 0)
(1.06232 -0.0175959 0)
(1.04874 -0.0138637 0)
(1.03905 -0.00948638 0)
(1.03251 -0.00440039 0)
(1.02912 0.00140275 0)
(1.0296 0.00718322 0)
(1.03373 0.012153 0)
(1.04113 0.0162295 0)
(1.05213 0.0196086 0)
(1.068 0.0225578 0)
(1.09102 0.0253312 0)
(1.09839 0.0263345 0)
(0.967689 0.019582 0)
(0.582033 0.00612934 0)
(0.117504 0.000331792 0)
(0.114397 -0.000220023 0)
(0.771086 -0.00922783 0)
(1.05056 -0.0192616 0)
(1.10667 -0.02136 0)
(1.08744 -0.0189416 0)
(1.06755 -0.0157883 0)
(1.05368 -0.0121932 0)
(1.04383 -0.00799931 0)
(1.03706 -0.00319433 0)
(1.03339 0.00222845 0)
(1.03372 0.00758497 0)
(1.03782 0.0121187 0)
(1.04519 0.0158126 0)
(1.05625 0.0188962 0)
(1.07243 0.021572 0)
(1.09522 0.0239975 0)
(1.09224 0.024169 0)
(0.934356 0.0166828 0)
(0.548597 0.00502612 0)
(0.110298 0.000277863 0)
(0.109508 -0.000168572 0)
(0.741294 -0.00735552 0)
(1.03314 -0.0163698 0)
(1.10776 -0.0189828 0)
(1.09268 -0.0169323 0)
(1.07262 -0.0139358 0)
(1.05853 -0.0104651 0)
(1.04846 -0.00646678 0)
(1.04148 -0.00193352 0)
(1.0376 0.00320993 0)
(1.03769 0.0082238 0)
(1.04161 0.012328 0)
(1.04893 0.0155827 0)
(1.06 0.0183038 0)
(1.07632 0.0206909 0)
(1.09807 0.0227525 0)
(1.08378 0.0222359 0)
(0.902935 0.0143936 0)
(0.52062 0.00422612 0)
(0.104284 0.00023855 0)
(0.105733 -0.000125895 0)
(0.716557 -0.00582736 0)
(1.01624 -0.0137589 0)
(1.10814 -0.016658 0)
(1.09786 -0.0148295 0)
(1.07747 -0.0118851 0)
(1.0631 -0.00857902 0)
(1.05287 -0.00476424 0)
(1.04571 -0.000423923 0)
(1.04156 0.00441173 0)
(1.04137 0.00901064 0)
(1.04505 0.0127414 0)
(1.05219 0.0156329 0)
(1.06324 0.0179472 0)
(1.07982 0.0199522 0)
(1.09979 0.0217082 0)
(1.07367 0.0205484 0)
(0.873702 0.0125871 0)
(0.496763 0.00363613 0)
(0.0991427 0.00021008 0)
(0.10288 -8.88666e-05 0)
(0.696275 -0.00452188 0)
(1.00037 -0.0113289 0)
(1.10771 -0.0144072 0)
(1.10278 -0.012905 0)
(1.08223 -0.0100197 0)
(1.06751 -0.00669945 0)
(1.05705 -0.00290101 0)
(1.04964 0.00129202 0)
(1.04515 0.0058339 0)
(1.04462 0.0100521 0)
(1.04802 0.0133408 0)
(1.05496 0.0158549 0)
(1.06605 0.0178853 0)
(1.08284 0.0196394 0)
(1.10054 0.0209384 0)
(1.06207 0.0191175 0)
(0.846559 0.0111638 0)
(0.476014 0.00320507 0)
(0.0946153 0.00019174 0)
(0.100848 -5.34391e-05 0)
(0.680089 -0.00334538 0)
(0.986154 -0.00898439 0)
(1.10667 -0.0119435 0)
(1.10724 -0.0106049 0)
(1.08693 -0.00777134 0)
(1.0719 -0.00447488 0)
(1.06108 -0.000775642 0)
(1.05329 0.00325622 0)
(1.04838 0.0075723 0)
(1.04742 0.0114744 0)
(1.0505 0.0143456 0)
(1.05733 0.0164282 0)
(1.06841 0.0180542 0)
(1.08523 0.0194286 0)
(1.10022 0.0202851 0)
(1.04936 0.0178467 0)
(0.821439 0.0100404 0)
(0.457665 0.00288459 0)
(0.0905372 0.000179518 0)
(0.0995827 -1.96827e-05 0)
(0.667727 -0.00222773 0)
(0.974019 -0.0066811 0)
(1.10558 -0.00934604 0)
(1.11158 -0.00803138 0)
(1.0916 -0.00515026 0)
(1.07621 -0.00187183 0)
(1.06505 0.00172881 0)
(1.05685 0.00563112 0)
(1.05145 0.00970184 0)
(1.04994 0.0131871 0)
(1.0526 0.0155716 0)
(1.05914 0.017105 0)
(1.07017 0.0181846 0)
(1.0871 0.019231 0)
(1.09892 0.0197321 0)
(1.0359 0.0167764 0)
(0.798144 0.00915127 0)
(0.441175 0.00265184 0)
(0.0867679 0.000173306 0)
(0.0990817 1.8139e-05 0)
(0.659151 -0.0011255 0)
(0.964281 -0.00433699 0)
(1.10465 -0.0065933 0)
(1.11594 -0.00537383 0)
(1.09637 -0.00251785 0)
(1.08057 0.000852661 0)
(1.06911 0.00459279 0)
(1.0605 0.00848901 0)
(1.05449 0.0123103 0)
(1.05231 0.0153764 0)
(1.0544 0.0173002 0)
(1.06051 0.0184444 0)
(1.07141 0.0191436 0)
(1.08834 0.0196688 0)
(1.09657 0.0196088 0)
(1.02173 0.0159799 0)
(0.776412 0.00849972 0)
(0.426098 0.00250973 0)
(0.0831798 0.000173965 0)
(0.099353 4.89353e-05 0)
(0.654386 1.35646e-05 0)
(0.957311 -0.00185709 0)
(1.10399 -0.00349032 0)
(1.12003 -0.00228381 0)
(1.10113 0.000612049 0)
(1.08499 0.0041506 0)
(1.07295 0.00793444 0)
(1.06366 0.0117831 0)
(1.05689 0.0154859 0)
(1.05388 0.0182297 0)
(1.05532 0.0196049 0)
(1.06111 0.0200983 0)
(1.07187 0.0202523 0)
(1.08847 0.0203116 0)
(1.0928 0.0195896 0)
(1.00687 0.0153376 0)
(0.756019 0.00804387 0)
(0.412014 0.00243412 0)
(0.0796622 0.000178416 0)
(0.100514 0.000110707 0)
(0.653619 0.0012548 0)
(0.953478 0.000740634 0)
(1.10429 -3.50154e-05 0)
(1.12437 0.00147979 0)
(1.10613 0.00455246 0)
(1.0896 0.0081837 0)
(1.07701 0.0120696 0)
(1.06701 0.0159427 0)
(1.05926 0.0194139 0)
(1.05528 0.0216562 0)
(1.05592 0.0224454 0)
(1.06112 0.0223157 0)
(1.07162 0.0218088 0)
(1.08768 0.0212338 0)
(1.08763 0.0198496 0)
(0.991619 0.015036 0)
(0.736641 0.00781104 0)
(0.398559 0.00243056 0)
(0.0761251 0.000186627 0)
(0.102653 0.000154001 0)
(0.656586 0.00244515 0)
(0.953101 0.00351482 0)
(1.10598 0.00363484 0)
(1.12923 0.00541404 0)
(1.1114 0.00871242 0)
(1.09442 0.012617 0)
(1.08124 0.0167576 0)
(1.07042 0.020806 0)
(1.06156 0.024224 0)
(1.05631 0.0260908 0)
(1.05583 0.0263075 0)
(1.06026 0.0254725 0)
(1.07037 0.0242669 0)
(1.08578 0.0229506 0)
(1.08111 0.0207746 0)
(0.975563 0.015173 0)
(0.717771 0.00788071 0)
(0.385276 0.00252234 0)
(0.0724856 0.000198322 0)
(0.10594 0.000221617 0)
(0.664134 0.00384114 0)
(0.956189 0.00635055 0)
(1.1091 0.00768169 0)
(1.13448 0.00983985 0)
(1.11707 0.0134917 0)
(1.09959 0.0178686 0)
(1.08562 0.0224468 0)
(1.0736 0.0267559 0)
(1.06322 0.0301462 0)
(1.05647 0.03162 0)
(1.05485 0.0311292 0)
(1.05838 0.029568 0)
(1.0679 0.0276367 0)
(1.08248 0.0255512 0)
(1.07279 0.022304 0)
(0.958499 0.0159354 0)
(0.698768 0.00840276 0)
(0.371463 0.00275595 0)
(0.0686216 0.000216618 0)
(0.110561 0.000302331 0)
(0.676266 0.00535446 0)
(0.963262 0.00945619 0)
(1.11428 0.0121738 0)
(1.1406 0.0150603 0)
(1.12355 0.0193498 0)
(1.10558 0.0243458 0)
(1.09067 0.0294539 0)
(1.07734 0.0340973 0)
(1.06525 0.0374465 0)
(1.05655 0.038404 0)
(1.05332 0.0371423 0)
(1.05568 0.0346957 0)
(1.06444 0.0319743 0)
(1.0776 0.0290749 0)
(1.06269 0.0248005 0)
(0.940216 0.0176251 0)
(0.678588 0.00950065 0)
(0.356161 0.00316427 0)
(0.0643275 0.000246399 0)
(0.116714 0.000403803 0)
(0.693179 0.00714549 0)
(0.974954 0.0130048 0)
(1.12237 0.0172715 0)
(1.1483 0.021259 0)
(1.13113 0.0265692 0)
(1.11228 0.0324078 0)
(1.096 0.0381972 0)
(1.08085 0.0432231 0)
(1.0665 0.0464325 0)
(1.05559 0.0466677 0)
(1.05063 0.0444461 0)
(1.05178 0.0410132 0)
(1.05974 0.0374482 0)
(1.07115 0.0338169 0)
(1.05085 0.0284971 0)
(0.920059 0.0202898 0)
(0.65597 0.011102 0)
(0.338433 0.00371209 0)
(0.0593778 0.000285173 0)
(0.124827 0.000547636 0)
(0.715533 0.0095442 0)
(0.991575 0.0174335 0)
(1.13391 0.0233322 0)
(1.15827 0.0285684 0)
(1.14034 0.0351841 0)
(1.12019 0.0421216 0)
(1.10213 0.04882 0)
(1.0847 0.0543594 0)
(1.06758 0.0574541 0)
(1.05404 0.056898 0)
(1.04702 0.0535276 0)
(1.04675 0.0490191 0)
(1.0539 0.0445085 0)
(1.06334 0.0400584 0)
(1.03685 0.0334831 0)
(0.897054 0.0238339 0)
(0.629734 0.0131183 0)
(0.317558 0.00435972 0)
(0.0536073 0.000330628 0)
(0.13564 0.000763141 0)
(0.74459 0.0129541 0)
(1.01391 0.0233189 0)
(1.14921 0.0310622 0)
(1.17083 0.0376938 0)
(1.15145 0.0457855 0)
(1.12951 0.0540764 0)
(1.10902 0.0618534 0)
(1.08862 0.0679705 0)
(1.06815 0.0709599 0)
(1.0515 0.0695643 0)
(1.04217 0.0649789 0)
(1.04035 0.0591203 0)
(1.04653 0.0533556 0)
(1.05366 0.0477918 0)
(1.01984 0.0395543 0)
(0.870276 0.0281031 0)
(0.598871 0.0154062 0)
(0.2931 0.0050449 0)
(0.0469514 0.000374719 0)
(0.150399 0.00110766 0)
(0.782268 0.018054 0)
(1.04374 0.0315675 0)
(1.16906 0.0416816 0)
(1.18642 0.0503609 0)
(1.16481 0.0601 0)
(1.14036 0.0698868 0)
(1.11668 0.0786576 0)
(1.09256 0.0850169 0)
(1.06813 0.0873341 0)
(1.04795 0.0845049 0)
(1.036 0.0783075 0)
(1.03227 0.0710037 0)
(1.03716 0.0637902 0)
(1.04149 0.056574 0)
(0.999171 0.046688 0)
(0.838836 0.0331679 0)
(0.562523 0.0179074 0)
(0.264857 0.00574274 0)
(0.0394533 0.000413539 0)
(0.171284 0.00171255 0)
(0.831782 0.0259714 0)
(1.08383 0.0436417 0)
(1.19487 0.057089 0)
(1.2059 0.0685991 0)
(1.18054 0.0803113 0)
(1.15252 0.0914159 0)
(1.12458 0.100598 0)
(1.09587 0.106312 0)
(1.06684 0.106911 0)
(1.04274 0.101641 0)
(1.02809 0.0930966 0)
(1.0225 0.0839072 0)
(1.02568 0.0752981 0)
(1.02661 0.0667192 0)
(0.974546 0.0552798 0)
(0.801288 0.0389352 0)
(0.520161 0.0205889 0)
(0.23288 0.00642847 0)
(0.0312502 0.000441544 0)
(0.201619 0.00304945 0)
(0.898918 0.0392916 0)
(1.13708 0.0631565 0)
(1.22739 0.0801633 0)
(1.22957 0.0949818 0)
(1.19827 0.108413 0)
(1.16507 0.119922 0)
(1.13169 0.128308 0)
(1.09766 0.132223 0)
(1.06356 0.130128 0)
(1.03537 0.12184 0)
(1.01795 0.110626 0)
(1.01069 0.0992798 0)
(1.01257 0.0891764 0)
(1.00955 0.0795432 0)
(0.944451 0.0656024 0)
(0.755924 0.0450671 0)
(0.472085 0.0234939 0)
(0.197945 0.00711618 0)
(0.0227185 0.000453467 0)
(0.243073 0.0092359 1.37647e-20)
(0.987462 0.0658604 1.17186e-20)
(1.20086 0.096644 -4.03791e-21)
(1.26454 0.114889 0)
(1.25494 0.132741 -9.72414e-35)
(1.21605 0.145957 1.40728e-21)
(1.17643 0.156026 -2.45802e-21)
(1.13703 0.162342 0)
(1.09728 0.163729 4.87952e-35)
(1.0578 0.158737 -2.88695e-21)
(1.02518 0.147686 0)
(1.00452 0.134301 -3.35871e-21)
(0.995258 0.12129 -9.86261e-21)
(0.995981 0.109848 -4.6459e-21)
(0.987049 0.0981288 -1.39306e-21)
(0.903638 0.0797178 -8.26581e-22)
(0.698748 0.0538826 0)
(0.415317 0.0278992 5.80566e-22)
(0.160659 0.00885785 6.8799e-22)
(0.0146942 0.000720047 1.25352e-20)
(0.270698 0.0246457 1.11179e-20)
(1.05979 0.107887 1.05448e-22)
(1.25233 0.144628 1.12531e-21)
(1.29862 0.163051 0)
(1.27755 0.18027 -5.09324e-21)
(1.23136 0.191336 -5.6832e-21)
(1.18542 0.199277 -2.5186e-21)
(1.14 0.203572 -8.72415e-21)
(1.09436 0.202938 0)
(1.04901 0.195899 1.23253e-20)
(1.01114 0.183037 1.20975e-20)
(0.986146 0.168228 3.57246e-21)
(0.973022 0.153716 1.28923e-20)
(0.967654 0.139088 1.79884e-20)
(0.945416 0.121524 0)
(0.845958 0.0979569 2.53565e-20)
(0.633266 0.0665715 3.64864e-20)
(0.358923 0.0354177 4.06499e-20)
(0.12882 0.0117832 -4.66725e-20)
(0.00849877 0.000803442 -8.86563e-22)
(0.270758 0.0405858 0)
(1.10417 0.162642 2.1693e-21)
(1.28672 0.203496 0)
(1.32451 0.221936 -7.32113e-21)
(1.29511 0.235283 0)
(1.243 0.242346 -1.14535e-20)
(1.19149 0.24701 5.21431e-21)
(1.14059 0.248422 -1.78367e-20)
(1.08948 0.245134 -3.1626e-22)
(1.03871 0.235385 6.43768e-21)
(0.995811 0.219815 2.65673e-20)
(0.966187 0.2025 -6.16318e-23)
(0.947671 0.185337 -9.36758e-21)
(0.934206 0.167644 -1.69761e-20)
(0.903049 0.146949 2.00998e-20)
(0.802896 0.120196 -3.56606e-20)
(0.598686 0.0839789 -4.73358e-21)
(0.34017 0.0463548 0)
(0.12576 0.0167126 1.77278e-24)
(0.008873 0.00120188 0)
(0.263457 0.0542535 3.48706e-20)
(1.12645 0.220993 -1.59201e-20)
(1.30705 0.267273 -1.09396e-20)
(1.34045 0.285753 3.61813e-21)
(1.30601 0.294705 -5.989e-21)
(1.24998 0.297399 2.41836e-20)
(1.19424 0.29824 1.0976e-20)
(1.13868 0.296185 0)
(1.0827 0.28948 -3.2911e-20)
(1.02675 0.27612 0)
(0.978917 0.256786 -1.40299e-20)
(0.944602 0.236132 -1.70899e-20)
(0.92075 0.21615 -1.02099e-20)
(0.901021 0.196297 -1.23308e-20)
(0.866229 0.174377 0)
(0.772171 0.146014 0)
(0.582805 0.105716 -3.09823e-20)
(0.342641 0.0619411 6.13637e-21)
(0.13533 0.0243532 -3.60258e-21)
(0.0121348 0.00229236 -4.26592e-21)
(0.255601 0.0664633 -1.84076e-20)
(1.13488 0.279243 0)
(1.31699 0.332189 2.46005e-20)
(1.34778 0.3511 1.07174e-20)
(1.31036 0.356079 1.34953e-20)
(1.25206 0.354629 0)
(1.1933 0.351585 1.10048e-20)
(1.13394 0.345758 1.99631e-20)
(1.07365 0.335146 1.7036e-20)
(1.01298 0.317507 3.03036e-20)
(0.960438 0.293981 0)
(0.9218 0.269891 -3.68949e-20)
(0.893615 0.247492 -2.20774e-20)
(0.869789 0.226265 -1.30154e-20)
(0.834124 0.203917 7.95057e-20)
(0.748066 0.174177 9.50183e-21)
(0.574378 0.130317 4.49062e-20)
(0.350865 0.0802117 -2.13184e-19)
(0.148599 0.0342141 1.26542e-19)
(0.0165175 0.00399448 -1.5447e-19)
(0.248586 0.077509 -1.43887e-20)
(1.13497 0.335619 3.47264e-21)
(1.31961 0.396413 -3.20298e-21)
(1.34841 0.416176 -1.26092e-20)
(1.30923 0.417755 -1.24231e-20)
(1.24973 0.412512 3.53916e-22)
(1.18872 0.405701 -1.18939e-20)
(1.12627 0.395996 2.08368e-20)
(1.06225 0.381258 -3.66616e-20)
(0.997305 0.359141 0)
(0.94061 0.331392 -1.68162e-20)
(0.898263 0.304152 -3.23253e-22)
(0.866777 0.279746 -2.40874e-20)
(0.840359 0.257649 0)
(0.804766 0.234799 -1.71988e-20)
(0.726081 0.203958 -4.10103e-20)
(0.567659 0.156448 1.10234e-19)
(0.359073 0.0998981 -1.08803e-19)
(0.160684 0.0452649 1.54893e-19)
(0.0206307 0.00603743 -1.63013e-19)
(0.243086 0.0878585 -1.03133e-22)
(1.1303 0.389518 -2.83812e-21)
(1.31728 0.458912 -1.1629e-20)
(1.34412 0.47976 5.85496e-21)
(1.30383 0.478535 -6.40191e-21)
(1.24371 0.469919 0)
(1.181 0.459517 -1.14992e-20)
(1.11595 0.445982 -2.19345e-20)
(1.04867 0.427128 -1.91778e-20)
(0.979977 0.400569 0)
(0.919623 0.36875 -1.75409e-20)
(0.874307 0.338578 -2.14389e-20)
(0.840448 0.312287 2.60681e-20)
(0.812558 0.289282 -1.57373e-20)
(0.777608 0.265789 -7.48086e-20)
(0.704257 0.233576 4.47468e-20)
(0.559083 0.182889 1.34749e-20)
(0.363007 0.119589 0)
(0.168571 0.0561984 -1.49346e-19)
(0.0235856 0.00807802 -5.54294e-21)
(0.239067 0.0978257 -1.40424e-21)
(1.12302 0.440767 2.47926e-21)
(1.31172 0.519628 5.95411e-21)
(1.33637 0.541116 1.97404e-20)
(1.29523 0.537579 -2.50885e-20)
(1.23478 0.526009 2.54293e-20)
(1.17071 0.512272 2.47049e-20)
(1.10345 0.495076 -3.50787e-20)
(1.0333 0.472245 1.15088e-20)
(0.961268 0.441406 -7.45381e-20)
(0.89774 0.405678 -1.96615e-20)
(0.849977 0.372611 0)
(0.814427 0.34442 2.8192e-20)
(0.785597 0.320173 3.36108e-20)
(0.751335 0.29567 4.01601e-20)
(0.68258 0.261778 -4.84123e-20)
(0.547805 0.20794 -1.43824e-20)
(0.361573 0.137923 1.69791e-20)
(0.171097 0.065853 0)
(0.0250899 0.00979178 -1.19872e-20)
(0.236292 0.107505 1.03487e-20)
(1.1146 0.489438 -8.27158e-21)
(1.3039 0.577564 -6.01393e-21)
(1.32625 0.599812 1.30006e-20)
(1.28435 0.594339 -1.2188e-20)
(1.22367 0.580199 -8.16336e-22)
(1.15847 0.563445 -2.68126e-20)
(1.08929 0.54285 -1.26453e-20)
(1.01659 0.516279 -3.32358e-20)
(0.941537 0.481373 5.07751e-23)
(0.875165 0.44185 -6.17526e-20)
(0.825344 0.405856 5.12318e-20)
(0.788527 0.375574 -3.07978e-20)
(0.759141 0.349864 3.68252e-20)
(0.725519 0.324174 0)
(0.660244 0.288243 -2.61281e-20)
(0.533536 0.230883 -1.45389e-22)
(0.354807 0.153838 -7.36138e-20)
(0.168991 0.0733648 -1.08803e-20)
(0.0252494 0.011005 0)
(0.234608 0.117069 0)
(1.10576 0.535763 -8.11253e-21)
(1.29457 0.632675 -1.05561e-20)
(1.31459 0.655662 -1.29359e-20)
(1.2719 0.648518 -1.43093e-20)
(1.21099 0.632145 0)
(1.14481 0.612702 -1.27539e-20)
(1.07394 0.589025 -2.35883e-22)
(0.998954 0.559022 7.11448e-20)
(0.921106 0.520296 -1.03019e-20)
(0.852097 0.477066 -4.44867e-20)
(0.800488 0.438044 2.67581e-20)
(0.76266 0.40547 -4.12824e-22)
(0.732957 0.377997 3.91589e-20)
(0.699907 0.350691 2.40287e-20)
(0.637273 0.312287 -5.63475e-20)
(0.516174 0.250691 6.7039e-20)
(0.343089 0.166334 1.98914e-20)
(0.162619 0.0781814 8.24193e-20)
(0.0240274 0.0115163 -2.23076e-19)
(0.233829 0.126641 7.17188e-22)
(1.09697 0.579876 -2.68272e-21)
(1.28432 0.685039 3.16803e-21)
(1.30197 0.708636 1.21565e-20)
(1.25846 0.699989 0)
(1.19728 0.681666 -1.29082e-20)
(1.13022 0.659857 4.21766e-20)
(1.05784 0.633437 2.79214e-20)
(0.980744 0.600338 0)
(0.900262 0.55807 -1.47289e-19)
(0.828724 0.511229 1.1994e-19)
(0.77539 0.469081 0)
(0.736688 0.433944 3.57925e-20)
(0.706738 0.404423 -4.08576e-22)
(0.674111 0.375115 -7.6664e-20)
(0.613256 0.333709 3.00777e-20)
(0.495955 0.267025 0)
(0.327353 0.175333 1.071e-19)
(0.152713 0.0806076 0)
(0.0218817 0.0114548 -1.05276e-19)
(0.23376 0.13621 -6.88756e-23)
(1.08849 0.621927 -1.22087e-21)
(1.27347 0.734678 3.73081e-21)
(1.28879 0.758752 0)
(1.24446 0.748744 -1.37895e-20)
(1.18296 0.72871 0)
(1.11509 0.704824 -4.25837e-20)
(1.04133 0.675998 -1.3406e-20)
(0.962274 0.640157 1.27218e-20)
(0.879247 0.594654 -7.28001e-20)
(0.805164 0.544319 1.24482e-20)
(0.750076 0.498937 0)
(0.710482 0.461011 -7.64217e-20)
(0.680316 0.429132 4.16189e-22)
(0.647933 0.397406 0)
(0.588054 0.352459 4.36734e-22)
(0.47303 0.279843 9.72303e-20)
(0.307989 0.18055 -9.24261e-20)
(0.140104 0.0806099 2.73721e-20)
(0.019116 0.0108305 0)
(0.234035 0.145637 0)
(1.08046 0.66188 -4.56015e-24)
(1.26233 0.781687 -2.07711e-21)
(1.27536 0.806083 -4.71468e-22)
(1.23021 0.794819 -5.94616e-21)
(1.16837 0.773282 -2.8985e-20)
(1.09975 0.747589 1.56842e-20)
(1.02472 0.716673 -1.54179e-20)
(0.943812 0.678438 5.62271e-20)
(0.85826 0.630041 -1.16207e-19)
(0.781534 0.576375 -7.00183e-22)
(0.724538 0.527669 -3.37832e-20)
(0.68397 0.486711 1.23722e-19)
(0.65355 0.45216 -4.88231e-22)
(0.621228 0.417605 -5.92868e-20)
(0.561588 0.36845 -1.06072e-19)
(0.447697 0.289142 0)
(0.285677 0.182183 0)
(0.125473 0.0782004 2.9517e-20)
(0.0159647 0.00972859 -1.75095e-20)
(0.234865 0.155028 1.65679e-21)
(1.07292 0.699847 -1.60173e-21)
(1.25107 0.826154 2.12792e-21)
(1.26188 0.850713 0)
(1.21595 0.838286 -3.21366e-22)
(1.15377 0.815426 -2.81867e-20)
(1.08446 0.78817 3.89804e-20)
(1.00826 0.755462 6.1857e-20)
(0.925575 0.715179 7.33881e-20)
(0.837502 0.664243 -9.51057e-20)
(0.757976 0.60747 -1.02712e-19)
(0.698846 0.55541 9.032e-20)
(0.657131 0.511156 0)
(0.626349 0.473594 -2.69205e-20)
(0.593916 0.435742 -6.41007e-20)
(0.53388 0.381631 -7.61214e-20)
(0.419997 0.294732 -9.06194e-20)
(0.261054 0.180232 2.68807e-20)
(0.109339 0.0734463 -1.58735e-20)
(0.0125063 0.00817457 6.32635e-23)
(0.23582 0.164229 0)
(1.06587 0.736148 0)
(1.23982 0.868151 5.4e-22)
(1.24852 0.892736 0)
(1.20187 0.879242 1.72303e-20)
(1.13935 0.855216 2.05164e-20)
(1.06941 0.82661 0)
(0.992132 0.792388 7.55197e-21)
(0.90776 0.750389 1.22862e-19)
(0.817165 0.69729 -2.1837e-19)
(0.734666 0.637702 0)
(0.673099 0.582319 -5.80207e-20)
(0.629908 0.534521 -5.927e-22)
(0.598589 0.493521 -4.81224e-22)
(0.56587 0.451781 6.84828e-20)
(0.504911 0.391841 -7.70434e-23)
(0.39014 0.296511 -1.95016e-19)
(0.234375 0.174655 5.78342e-20)
(0.0926397 0.0668271 1.71565e-20)
(0.0090855 0.00636016 0)
(0.236746 0.173272 -1.12305e-20)
(1.05908 0.770777 -3.66275e-21)
(1.22864 0.90774 -4.1844e-22)
(1.2354 0.932257 -1.30594e-20)
(1.1881 0.917768 2.73117e-20)
(1.12526 0.892726 0)
(1.05476 0.862967 2.43689e-20)
(0.976496 0.827483 -1.66119e-20)
(0.890524 0.784089 7.84453e-22)
(0.797427 0.729219 1.59767e-20)
(0.711773 0.667164 1.32897e-19)
(0.647372 0.608579 -2.03918e-20)
(0.602271 0.557025 -7.61116e-20)
(0.570105 0.51205 -3.13078e-20)
(0.536922 0.465606 3.72313e-20)
(0.474702 0.398817 -4.3088e-23)
(0.358857 0.294365 5.25884e-20)
(0.206868 0.165843 -1.24412e-19)
(0.0760748 0.0588133 1.47666e-19)
(0.00585466 0.00441964 2.18006e-20)
(0.23741 0.182044 4.91719e-21)
(1.05257 0.803803 -2.52377e-21)
(1.21764 0.945033 1.2674e-21)
(1.2226 0.969397 -4.43279e-21)
(1.17472 0.953979 -4.44744e-21)
(1.1116 0.928038 -3.70571e-20)
(1.04062 0.897299 7.58536e-21)
(0.961471 0.860779 -6.96124e-20)
(0.874 0.816282 -1.3603e-19)
(0.778431 0.760038 -1.30387e-19)
(0.689446 0.695932 0)
(0.621794 0.634375 -8.90461e-20)
(0.574242 0.578954 1.0944e-19)
(0.540689 0.529363 0)
(0.50677 0.477029 -7.96955e-20)
(0.443237 0.402039 4.77332e-20)
(0.326721 0.287914 -5.65006e-20)
(0.179695 0.15406 -6.70047e-20)
(0.0605498 0.0499462 -1.1899e-19)
(0.00299494 0.00250415 -9.39469e-20)
(0.238372 0.190635 -6.21853e-21)
(1.0462 0.835196 2.7166e-21)
(1.20688 0.980088 5.03448e-21)
(1.21018 1.00424 -4.04677e-21)
(1.1618 0.987969 1.01887e-20)
(1.09845 0.961243 -2.15562e-20)
(1.02708 0.929667 2.48969e-20)
(0.947138 0.892322 -7.21246e-20)
(0.858272 0.846995 -8.06608e-20)
(0.760298 0.789764 1.36645e-19)
(0.667841 0.724062 2.91669e-19)
(0.596536 0.659871 0)
(0.545878 0.600629 0)
(0.510086 0.545797 -3.60385e-20)
(0.474846 0.485881 0)
(0.410202 0.400559 1.02785e-19)
(0.294545 0.276221 1.21692e-19)
(0.154659 0.139305 0)
(0.0473743 0.0408176 0)
(0.00067871 0.000775943 1.01025e-19)
(0.238933 0.19871 7.80591e-21)
(1.03999 0.864943 5.98051e-21)
(1.19639 1.01301 4.01328e-21)
(1.19818 1.0369 9.38832e-22)
(1.14939 1.01984 9.31947e-21)
(1.08586 0.99242 2.43421e-20)
(1.01418 0.960135 -3.45182e-20)
(0.933558 0.922146 4.60203e-23)
(0.843416 0.876234 -1.01958e-21)
(0.743128 0.81839 -1.14605e-21)
(0.647138 0.751598 1.50205e-19)
(0.57178 0.685185 0)
(0.517328 0.622353 1.10375e-19)
(0.478109 0.561868 7.6822e-20)
(0.440267 0.492358 1.85921e-19)
(0.374523 0.393225 5.52991e-20)
(0.262927 0.257032 -6.56808e-20)
(0.135298 0.119659 -3.8673e-20)
(0.0409609 0.0308186 0)
(-0.000107908 -0.000538369 1.08616e-19)
(0.239796 0.206768 -1.91613e-20)
(1.03392 0.893202 0)
(1.18619 1.04386 6.34088e-21)
(1.18661 1.06747 -3.70195e-22)
(1.13752 1.04968 -7.51299e-21)
(1.07386 1.02166 -2.97743e-20)
(1.00196 0.988764 6.91308e-20)
(0.920763 0.95029 -5.79691e-21)
(0.829469 0.904013 0)
(0.727003 0.845886 -1.51313e-19)
(0.62749 0.778542 -3.26713e-19)
(0.547733 0.710411 1.31517e-20)
(0.488845 0.644362 1.51704e-19)
(0.444753 0.578209 0)
(0.402042 0.497369 1.25263e-19)
(0.333774 0.37965 0)
(0.22959 0.226339 0)
(0.125194 0.0838737 -4.19369e-20)
(0.0635389 0.00650353 0)
(0.0250107 0.00593853 2.91304e-20)
(0.240181 0.214205 -2.26701e-20)
(1.02797 0.920152 0)
(1.17625 1.07282 1.19014e-20)
(1.17544 1.09616 0)
(1.12615 1.07775 2.89126e-21)
(1.06238 1.04923 0)
(0.990354 1.01587 3.77396e-21)
(0.908659 0.977099 1.0002e-20)
(0.81632 0.930707 1.01193e-20)
(0.711773 0.872645 -1.66498e-19)
(0.608756 0.80535 9.88827e-21)
(0.524217 0.736142 1.05394e-19)
(0.460155 0.667277 1.47921e-19)
(0.409443 0.595708 1.98551e-20)
(0.358636 0.502913 9.79781e-20)
(0.283655 0.361814 0)
(0.184066 0.183896 1.38787e-19)
(0.0963034 0.0274024 -8.1763e-20)
(0.0336328 0.0572636 9.5461e-20)
(-0.0377941 0.446186 -1.13345e-19)
(0.240476 0.221438 1.95216e-20)
(1.02194 0.945701 2.76562e-20)
(1.16652 1.10021 0)
(1.16452 1.12342 1.10016e-21)
(1.11508 1.10463 -5.39621e-21)
(1.05117 1.07585 4.50534e-20)
(0.979057 1.04225 2.51663e-20)
(0.896853 1.00352 0)
(0.803453 0.957423 6.81367e-20)
(0.696776 0.89998 -8.80668e-21)
(0.59005 0.83351 0)
(0.500084 0.764156 0)
(0.429804 0.692916 1.3197e-19)
(0.370488 0.615764 -6.10805e-20)
(0.307554 0.51194 -9.87531e-20)
(0.220205 0.345043 0)
(0.103645 0.174285 7.04691e-20)
(0.0103376 0.46058 -8.23613e-20)
(0.0347591 1.90529 -4.66196e-20)
(0.0622062 2.81312 -5.6778e-20)
(0.240381 0.228065 -1.55981e-20)
(1.01588 0.970026 -3.72063e-20)
(1.15699 1.12603 8.06025e-21)
(1.15386 1.1491 3.94062e-21)
(1.10438 1.13011 0)
(1.0403 1.10122 2.8888e-20)
(0.968264 1.0676 3.60424e-20)
(0.885524 1.02913 -4.9442e-21)
(0.791136 0.983642 1.01005e-20)
(0.682385 0.927272 1.59028e-19)
(0.571982 0.862319 1.65194e-19)
(0.47632 0.794097 1.17534e-19)
(0.398861 0.720994 1.32239e-19)
(0.329827 0.636934 -1.42507e-19)
(0.255836 0.52713 -1.4842e-19)
(0.142337 0.378312 0)
(0.0492583 0.864087 0)
(0.0967451 2.56653 3.93707e-20)
(0.099082 3.20176 0)
(0.0996188 3.38549 1.03813e-19)
(0.243049 0.234186 0)
(1.01004 0.993454 0)
(1.14741 1.15013 0)
(1.14324 1.17303 1.69583e-21)
(1.09378 1.15397 -3.6862e-21)
(1.02957 1.1252 1.80877e-20)
(0.957897 1.09182 2.3783e-20)
(0.874603 1.0538 -4.88757e-21)
(0.779306 1.0092 8.62169e-20)
(0.668594 0.95436 -2.04916e-21)
(0.554638 0.891555 3.26596e-19)
(0.453347 0.825994 -1.34585e-20)
(0.367553 0.751944 1.60421e-20)
(0.28991 0.65691 2.05389e-20)
(0.196803 0.549688 -1.55902e-22)
(0.107586 1.00428 3.27166e-22)
(0.137923 2.73469 -2.03066e-19)
(0.144121 3.29591 -7.7816e-20)
(0.132243 3.42448 4.21292e-20)
(0.119327 3.44508 -4.7845e-20)
(0.164969 0.178845 1.02366e-20)
(1.00001 1.01872 0)
(1.13771 1.17279 -1.93287e-20)
(1.13301 1.19547 -1.41182e-20)
(1.08371 1.17669 -5.63832e-22)
(1.01961 1.14823 -1.77358e-20)
(0.94774 1.11492 -2.5428e-20)
(0.864123 1.07756 5.77152e-20)
(0.768083 1.03409 -7.15282e-20)
(0.655676 0.981259 0)
(0.538369 0.921182 1.61314e-19)
(0.431727 0.859627 -9.59107e-20)
(0.336436 0.788403 0)
(0.246335 0.682167 1.9697e-20)
(0.152188 0.845505 4.74793e-20)
(0.152828 2.52313 -5.50191e-20)
(0.205019 3.32961 6.3279e-20)
(0.184797 3.43946 3.47605e-20)
(0.152522 3.45823 4.03492e-20)
(0.131506 3.46669 6.5532e-20)
(0.278496 0.273251 -1.93206e-20)
(0.983761 1.02975 0)
(1.12031 1.19877 2.27927e-20)
(1.11893 1.22882 1.92711e-20)
(1.06783 1.21063 -4.64446e-21)
(1.00318 1.18267 1.23489e-20)
(0.930252 1.15073 2.8423e-20)
(0.845934 1.11459 4.44612e-21)
(0.748487 1.07325 6.93409e-20)
(0.633278 1.02428 1.3946e-19)
(0.51089 0.970047 9.19796e-21)
(0.396213 0.916524 8.5211e-20)
(0.282197 0.85326 1.50912e-20)
(0.215733 1.01869 -1.88853e-20)
(0.222882 2.38974 -4.36306e-20)
(0.274503 3.33805 4.4713e-20)
(0.25833 3.47067 -4.99387e-20)
(0.222563 3.48847 -2.9223e-20)
(0.187154 3.51209 -2.78814e-20)
(0.140665 3.50521 -4.0683e-21)
(0.268825 0.272246 0)
(0.981402 1.05289 7.76622e-21)
(1.1124 1.22245 -5.06083e-21)
(1.10905 1.25227 -2.69349e-21)
(1.05768 1.23396 -5.49212e-21)
(0.993094 1.20625 -1.05969e-20)
(0.919831 1.17456 -1.64654e-20)
(0.835331 1.13926 4.06733e-21)
(0.737438 1.09939 -7.29124e-20)
(0.621106 1.05323 -2.98713e-21)
(0.496329 1.00355 -2.92831e-19)
(0.37761 0.955451 1.20918e-20)
(0.2719 0.928045 -1.43355e-20)
(0.251879 1.56501 -1.75335e-20)
(0.312714 3.13263 3.63598e-21)
(0.328764 3.47506 4.50395e-22)
(0.286283 3.52348 7.78685e-20)
(0.250995 3.54373 4.09747e-20)
(0.204014 3.56287 -1.59051e-20)
(0.152414 3.55766 -2.17145e-20)
(0.254613 0.270175 2.09953e-20)
(0.978129 1.07864 5.3869e-20)
(1.1041 1.24819 -1.46745e-20)
(1.09877 1.27726 -1.01861e-20)
(1.04718 1.25877 0)
(0.982673 1.23109 -7.44083e-21)
(0.909324 1.19967 -2.05743e-20)
(0.824903 1.16514 3.66648e-21)
(0.726872 1.12681 -8.03183e-21)
(0.609922 1.08365 -1.28116e-19)
(0.483579 1.03895 -1.36013e-19)
(0.362657 0.997652 -1.00472e-19)
(0.277042 1.06831 -1.07777e-19)
(0.314876 2.28039 1.11002e-19)
(0.392128 3.39896 9.76809e-20)
(0.367898 3.53531 0)
(0.317577 3.57024 0)
(0.280213 3.60278 -1.26428e-20)
(0.233073 3.64872 0)
(0.162178 3.62937 -2.26472e-20)
(0.244455 0.271986 -3.25711e-20)
(0.972865 1.10527 -4.71816e-20)
(1.09446 1.27521 0)
(1.08731 1.30319 1.32369e-21)
(1.03555 1.28427 -1.02879e-20)
(0.971236 1.2565 -5.21408e-21)
(0.898113 1.22536 -1.12471e-20)
(0.813993 1.19151 2.58748e-21)
(0.716074 1.15463 -5.35822e-20)
(0.598923 1.11444 6.59176e-21)
(0.471819 1.07492 0)
(0.352703 1.04435 0)
(0.305352 1.33963 -9.88658e-20)
(0.391219 2.94783 4.08372e-20)
(0.45809 3.50501 5.42702e-20)
(0.406305 3.57167 0)
(0.36305 3.62565 -1.13736e-20)
(0.319545 3.67225 3.8075e-21)
(0.26906 3.6377 -1.19997e-20)