/*--------------------------------*- C++ -*----------------------------------*\
  =========                 |
  \\      /  F ield         | OpenFOAM: The Open Source CFD Toolbox
   \\    /   O peration     | Website:  https://openfoam.org
    \\  /    A nd           | Version:  6
     \\/     M anipulation  |
\*---------------------------------------------------------------------------*/
FoamFile
{
    version     2.0;
    format      ascii;
    class       volScalarField;
    location    "23";
    object      p;
}
// * * * * * * * * * * * * * * * * * * * * * * * * * * * * * * * * * * * * * //

dimensions      [0 2 -2 0 0 0 0];

internalField   nonuniform List<scalar> 
8800
(
0.43833
0.389019
0.351052
0.322973
0.30279
0.288166
0.277514
0.269906
0.264934
0.262722
0.263867
0.267988
0.274607
0.283903
0.296551
0.31381
0.337643
0.37071
0.413619
0.466142
0.272806
0.279152
0.2883
0.291842
0.289228
0.283131
0.276168
0.269884
0.265006
0.262002
0.261571
0.263972
0.268409
0.274369
0.281342
0.288279
0.293087
0.292915
0.286208
0.277293
0.246383
0.252622
0.257122
0.260991
0.263931
0.264865
0.263752
0.261551
0.259429
0.258404
0.259196
0.261437
0.264149
0.266256
0.266643
0.264759
0.26132
0.257248
0.252432
0.248706
0.242112
0.244881
0.247501
0.249671
0.251414
0.252977
0.254051
0.254337
0.254079
0.253948
0.254505
0.255411
0.25593
0.255583
0.254448
0.252962
0.251186
0.248799
0.246339
0.24477
0.237122
0.238551
0.240411
0.242517
0.244244
0.245528
0.24658
0.247467
0.248108
0.248577
0.249
0.249196
0.248968
0.248392
0.247538
0.24626
0.244464
0.24246
0.241048
0.240247
0.232228
0.233133
0.234411
0.236073
0.237786
0.239307
0.240531
0.241554
0.24249
0.243264
0.243679
0.243674
0.243353
0.242735
0.24171
0.240323
0.238785
0.237378
0.23649
0.235974
0.227479
0.228132
0.22915
0.230554
0.23208
0.233648
0.235148
0.236457
0.237547
0.238453
0.238975
0.239021
0.238627
0.237794
0.236671
0.235424
0.234163
0.233055
0.232394
0.232026
0.22293
0.223429
0.224293
0.225558
0.226983
0.228514
0.230102
0.231623
0.232955
0.234042
0.234701
0.234776
0.234315
0.233463
0.232417
0.231313
0.230219
0.229293
0.228772
0.228496
0.218533
0.218907
0.219665
0.220864
0.222244
0.22368
0.225189
0.226772
0.22833
0.229663
0.230474
0.230602
0.230222
0.229566
0.228744
0.227794
0.226805
0.226001
0.22559
0.22539
0.214355
0.214636
0.215289
0.216394
0.217712
0.219122
0.220592
0.222121
0.223703
0.225242
0.226275
0.226678
0.226622
0.226229
0.225587
0.224796
0.223956
0.223295
0.22298
0.222834
0.210347
0.210543
0.211153
0.212278
0.213643
0.215133
0.21678
0.218517
0.22028
0.221996
0.223374
0.224096
0.224211
0.223879
0.22331
0.222598
0.221806
0.221203
0.220961
0.220867
0.20669
0.206808
0.207316
0.20832
0.209564
0.210932
0.212455
0.21421
0.21621
0.218324
0.220041
0.221043
0.221504
0.221608
0.221402
0.220967
0.220413
0.219982
0.219833
0.219782
0.203265
0.203334
0.203721
0.20456
0.205681
0.20702
0.208614
0.210484
0.212625
0.215047
0.217278
0.218847
0.219742
0.220164
0.22027
0.220142
0.219882
0.219679
0.21962
0.219586
0.199638
0.199691
0.199994
0.200694
0.201718
0.203024
0.204673
0.206753
0.209316
0.212291
0.215087
0.217111
0.218449
0.219249
0.219723
0.219941
0.22
0.220018
0.220022
0.219989
0.195359
0.195412
0.19568
0.196296
0.197266
0.198591
0.200354
0.202655
0.205587
0.209166
0.212715
0.215478
0.217422
0.218756
0.219632
0.220199
0.220552
0.220741
0.220784
0.220746
0.190172
0.190231
0.190537
0.191195
0.192245
0.193741
0.195809
0.19857
0.202159
0.206584
0.21102
0.214525
0.217051
0.218824
0.220067
0.220938
0.221518
0.221806
0.221869
0.221827
0.183908
0.183968
0.184339
0.185112
0.186342
0.188124
0.190601
0.193956
0.198341
0.203809
0.209366
0.213802
0.217029
0.21937
0.221033
0.22221
0.22297
0.223335
0.223424
0.223382
0.176458
0.176511
0.176956
0.177936
0.179479
0.181704
0.184783
0.188956
0.194401
0.201193
0.208125
0.213682
0.21775
0.220679
0.22276
0.22426
0.225166
0.225603
0.225729
0.225686
0.167685
0.167735
0.168267
0.169512
0.171454
0.174279
0.178156
0.183354
0.190142
0.198596
0.207203
0.214114
0.219202
0.222862
0.225482
0.227257
0.228362
0.228911
0.229083
0.229037
0.157332
0.157378
0.158027
0.159561
0.162076
0.165596
0.170496
0.177041
0.185529
0.196043
0.206706
0.215261
0.221557
0.226098
0.229326
0.2315
0.232858
0.233556
0.233774
0.23372
0.144891
0.144949
0.145755
0.147655
0.150812
0.155364
0.161546
0.169816
0.180472
0.193562
0.206724
0.217228
0.224952
0.230534
0.234482
0.237176
0.238871
0.23975
0.240013
0.239944
0.129515
0.129597
0.13064
0.133086
0.137144
0.142957
0.150909
0.161469
0.174921
0.191207
0.207376
0.22018
0.229582
0.236364
0.241175
0.244487
0.246596
0.247682
0.247994
0.247905
0.110028
0.110149
0.111578
0.114884
0.120244
0.127878
0.13828
0.151897
0.168913
0.189107
0.208821
0.224279
0.235598
0.243778
0.249607
0.253655
0.256252
0.257581
0.257946
0.257833
0.0846087
0.0848104
0.0869083
0.0916168
0.0990827
0.109495
0.123379
0.141076
0.162581
0.187448
0.211235
0.229687
0.24317
0.252951
0.259976
0.264904
0.268081
0.269687
0.270108
0.269961
0.0501983
0.0506037
0.0540526
0.0613979
0.0724545
0.0872145
0.106095
0.129177
0.156197
0.186481
0.214802
0.236531
0.252395
0.263976
0.272396
0.278387
0.282269
0.284201
0.284671
0.284479
0.000974535
0.00240994
0.00937535
0.0221877
0.0395176
0.0610112
0.0868091
0.116688
0.150184
0.186495
0.219682
0.244874
0.263269
0.276817
0.286825
0.29409
0.298882
0.301235
0.301756
0.301498
-0.0717888
-0.0634923
-0.0475539
-0.0249773
0.00179756
0.0322875
0.0664978
0.104195
0.144898
0.187822
0.226357
0.255443
0.276789
0.292739
0.304848
0.313934
0.320085
0.323245
0.324042
0.323892
-0.148909
-0.131463
-0.105712
-0.0727924
-0.0361876
0.0034169
0.0461443
0.0918894
0.140269
0.190609
0.235596
0.2697
0.295031
0.314277
0.329211
0.340819
0.348977
0.353421
0.354769
0.354791
-0.21374
-0.19261
-0.158981
-0.117459
-0.0722133
-0.0240829
0.0268666
0.0804233
0.136219
0.193634
0.244606
0.283215
0.311984
0.334028
0.351213
0.364563
0.374373
0.379645
0.380888
0.381029
-0.266032
-0.242687
-0.203967
-0.156399
-0.10448
-0.0492793
0.0088413
0.0694941
0.132149
0.19611
0.252495
0.294986
0.326531
0.350579
0.369308
0.38384
0.394505
0.400323
0.401846
0.402117
-0.309129
-0.284613
-0.242333
-0.190076
-0.132823
-0.0718682
-0.00771229
0.0591181
0.127928
0.197791
0.258983
0.304741
0.338454
0.363976
0.383706
0.39899
0.41008
0.416355
0.418246
0.418538
-0.345964
-0.320747
-0.275851
-0.219827
-0.158147
-0.0923253
-0.0229719
0.0492705
0.123557
0.198733
0.264217
0.312801
0.348256
0.374842
0.395199
0.41084
0.422095
0.428555
0.430612
0.430856
-0.378524
-0.352867
-0.305929
-0.246764
-0.181317
-0.11129
-0.0373631
0.0397336
0.118991
0.199069
0.268512
0.319657
0.356635
0.384051
0.404781
0.420523
0.431776
0.43826
0.440429
0.440667
-0.408241
-0.382205
-0.33358
-0.271746
-0.203064
-0.129344
-0.0513093
0.0302104
0.114085
0.1988
0.272067
0.325704
0.364101
0.392244
0.413279
0.429095
0.440318
0.446773
0.449012
0.449235
-0.436007
-0.409617
-0.359527
-0.295358
-0.223839
-0.146855
-0.0651343
0.0204334
0.108646
0.197834
0.27487
0.330978
0.370844
0.399795
0.421219
0.437163
0.448381
0.454744
0.457004
0.457276
-0.46252
-0.435729
-0.3843
-0.318029
-0.244011
-0.164115
-0.0790697
0.0102194
0.102508
0.196011
0.276845
0.335619
0.377157
0.407072
0.428993
0.445151
0.456408
0.462679
0.464871
0.465134
-0.48805
-0.460854
-0.408212
-0.340076
-0.263817
-0.181303
-0.0932502
-0.000553245
0.0955657
0.193303
0.278105
0.339771
0.383176
0.414233
0.436804
0.453289
0.464652
0.470861
0.472923
0.473116
-0.512939
-0.485235
-0.431494
-0.361663
-0.283393
-0.198538
-0.107761
-0.0119309
0.0877991
0.189706
0.278563
0.343353
0.388901
0.421335
0.444737
0.46167
0.473189
0.479343
0.481251
0.481353
-0.537247
-0.509046
-0.454253
-0.382884
-0.302827
-0.215869
-0.122626
-0.0239254
0.0791791
0.185096
0.278079
0.346284
0.394316
0.42839
0.452807
0.470303
0.482015
0.488102
0.489863
0.489848
-0.561038
-0.532307
-0.476541
-0.403785
-0.322126
-0.233285
-0.137841
-0.0365492
0.0696513
0.179388
0.276572
0.348464
0.399319
0.435355
0.460997
0.479166
0.491086
0.497054
0.498637
0.498514
-0.584355
-0.555092
-0.498358
-0.424356
-0.341278
-0.250767
-0.153376
-0.0497746
0.0592344
0.172584
0.273925
0.349722
0.403793
0.442167
0.469282
0.488218
0.500325
0.506081
0.507435
0.507217
-0.607211
-0.577347
-0.519699
-0.44457
-0.360232
-0.26826
-0.169162
-0.0635305
0.0479944
0.164657
0.270029
0.349873
0.407542
0.448732
0.477663
0.497446
0.509629
0.515048
0.516122
0.515819
-0.629437
-0.599015
-0.540507
-0.464381
-0.378928
-0.285678
-0.185112
-0.0777173
0.0359994
0.155626
0.264806
0.348739
0.410311
0.454883
0.48618
0.506972
0.518982
0.523777
0.524483
0.524106
-0.650992
-0.620044
-0.560739
-0.483721
-0.397295
-0.302948
-0.201125
-0.0922499
0.0233352
0.14554
0.258214
0.346145
0.411809
0.460329
0.494834
0.517136
0.528645
0.532189
0.532292
0.531874
-0.671915
-0.640392
-0.58036
-0.502546
-0.415263
-0.31998
-0.217107
-0.107016
0.0101148
0.134486
0.250229
0.341967
0.411714
0.464585
0.503379
0.528453
0.539625
0.540784
0.539392
0.538995
-0.692054
-0.660025
-0.599313
-0.520784
-0.432766
-0.336686
-0.232954
-0.121893
-0.00352891
0.122589
0.240881
0.336103
0.409742
0.466993
0.511043
0.540974
0.553832
0.552456
0.547053
0.544211
-0.711483
-0.678953
-0.6176
-0.538465
-0.449836
-0.353111
-0.248722
-0.136943
-0.0176735
0.109782
0.230035
0.328307
0.405587
0.466769
0.51641
0.553395
0.571791
0.572449
0.560593
0.555581
-0.730129
-0.697238
-0.635359
-0.555776
-0.466765
-0.369598
-0.264831
-0.15267
-0.0328949
0.0953762
0.216958
0.317677
0.398536
0.462646
0.516583
0.560971
0.585524
0.583558
0.571332
0.559462
-0.747875
-0.714848
-0.652436
-0.572507
-0.483322
-0.385844
-0.281059
-0.168735
-0.0488584
0.0796856
0.201867
0.303886
0.388252
0.453836
0.506809
0.551591
0.578282
0.564175
0.502427
0.472432
-0.764606
-0.732499
-0.668402
-0.588143
-0.498881
-0.401381
-0.297148
-0.184873
-0.0652836
0.0629094
0.184898
0.286675
0.37408
0.4409
0.483865
0.518536
0.527717
0.485073
0.419272
0.378578
-0.807393
-0.749527
-0.683181
-0.603361
-0.514158
-0.417066
-0.312978
-0.20119
-0.0823482
0.0447719
0.165744
0.265891
0.353136
0.425399
0.442806
0.450487
0.424889
0.369784
0.29952
0.26066
-0.781641
-0.763535
-0.705129
-0.626212
-0.537074
-0.440456
-0.337278
-0.226603
-0.109408
0.0151579
0.132918
0.22923
0.307457
0.379626
0.37944
0.282559
0.194072
0.133825
0.0692229
0.106609
-0.812141
-0.780947
-0.721871
-0.643096
-0.554274
-0.458135
-0.355038
-0.245294
-0.129549
-0.00739341
0.106871
0.19906
0.268232
0.306286
0.262709
0.127106
0.0164165
-0.0577965
-0.143618
-0.0853146
-0.835581
-0.802051
-0.741189
-0.662194
-0.573571
-0.477614
-0.374828
-0.266149
-0.152158
-0.0329483
0.0769197
0.163379
0.221289
0.224868
0.119652
-0.0449796
-0.181078
-0.276748
-0.380719
-0.335625
-0.858161
-0.823613
-0.761441
-0.681871
-0.593186
-0.49742
-0.395281
-0.287812
-0.175774
-0.0598595
0.0448347
0.124528
0.166277
0.133868
-0.0309692
-0.224595
-0.398954
-0.547039
-0.683894
-0.65092
-0.880258
-0.845409
-0.782447
-0.702373
-0.61355
-0.518039
-0.416669
-0.310525
-0.200689
-0.088416
0.0104759
0.0824363
0.104739
0.030792
-0.179999
-0.40128
-0.613021
-0.79013
-1.02458
-1.114
-0.902539
-0.867864
-0.804484
-0.724044
-0.635074
-0.539778
-0.43911
-0.3343
-0.226754
-0.118311
-0.0255216
0.037599
0.0391382
-0.0927633
-0.316918
-0.556839
-0.782052
-0.97065
-1.11975
-1.28518
-0.925928
-0.891378
-0.827839
-0.747218
-0.658221
-0.56323
-0.463358
-0.360037
-0.255104
-0.150998
-0.0648284
-0.0127247
-0.0406969
-0.217792
-0.445489
-0.683473
-0.890071
-1.00984
-1.04284
-1.05908
-0.950592
-0.916178
-0.852588
-0.771942
-0.683078
-0.588539
-0.489694
-0.388146
-0.286248
-0.187169
-0.108069
-0.0698772
-0.127028
-0.339287
-0.564116
-0.781815
-0.944384
-0.993702
-1.00676
-1.00742
-0.976777
-0.942347
-0.878725
-0.798144
-0.709534
-0.615639
-0.518053
-0.418604
-0.320124
-0.226815
-0.15533
-0.134149
-0.220297
-0.455727
-0.672646
-0.866824
-0.967787
-0.986194
-0.987408
-0.987408
-1.00438
-0.969877
-0.906204
-0.825748
-0.737524
-0.644427
-0.548328
-0.451345
-0.356565
-0.26979
-0.206962
-0.201759
-0.332601
-0.566353
-0.773294
-0.93023
-0.975388
-0.977335
-0.978657
-0.978388
-1.03313
-0.998539
-0.934849
-0.854597
-0.766874
-0.67474
-0.580339
-0.486227
-0.395391
-0.31572
-0.262803
-0.27652
-0.450479
-0.677854
-0.85871
-0.961806
-0.974593
-0.974997
-0.974484
-0.974321
-1.06239
-1.02792
-0.964347
-0.884383
-0.797292
-0.706296
-0.613743
-0.522894
-0.436387
-0.363862
-0.321695
-0.354792
-0.561668
-0.796347
-0.94263
-0.972099
-0.981404
-0.977971
-0.974168
-0.972408
-1.09165
-1.05745
-0.994194
-0.914631
-0.82832
-0.738643
-0.648056
-0.560679
-0.479304
-0.41298
-0.382849
-0.434007
-0.661189
-0.929706
-1.05524
-1.04919
-1.02476
-0.997629
-0.985194
-0.981938
-1.11987
-1.08631
-1.02366
-0.944674
-0.859302
-0.771151
-0.682645
-0.59856
-0.523525
-0.461649
-0.446061
-0.515275
-0.732776
-1.05077
-1.23553
-1.16273
-1.10858
-1.06681
-1.04069
-1.03317
-1.14627
-1.11349
-1.05179
-0.973643
-0.889391
-0.802918
-0.716702
-0.635308
-0.567354
-0.509851
-0.50618
-0.600476
-0.781897
-1.04243
-1.39815
-1.32142
-1.30499
-1.29374
-1.25196
-1.2281
-1.1691
-1.13769
-1.07744
-1.00044
-0.917523
-0.832786
-0.749123
-0.669849
-0.60756
-0.558966
-0.554561
-0.680195
-0.845822
-0.82088
-0.914307
-1.11365
-1.34878
-1.3949
-1.37842
-1.37375
-1.18675
-1.1573
-1.09919
-1.02379
-0.942464
-0.859427
-0.778263
-0.701401
-0.64059
-0.60734
-0.590645
-0.74138
-0.946694
-0.736861
-0.504102
-0.88335
-1.26894
-1.3338
-1.35005
-1.35765
-1.19785
-1.17091
-1.11557
-1.0423
-0.962832
-0.881469
-0.802154
-0.728367
-0.66564
-0.642533
-0.628786
-0.808506
-1.2332
-1.46714
-1.65483
-1.93595
-1.91094
-1.64708
-1.51723
-1.52821
-1.20039
-1.1769
-1.12527
-1.0546
-0.977184
-0.897553
-0.819329
-0.747019
-0.685476
-0.652861
-0.67002
-0.920408
-1.6119
-2.51411
-2.98849
-3.1701
-3.04312
-2.69285
-2.35094
-2.23958
-1.1938
-1.17404
-1.12699
-1.05967
-0.984347
-0.906489
-0.828371
-0.756169
-0.691768
-0.654706
-0.66302
-0.940679
-1.59845
-2.61018
-3.2112
-3.31519
-3.20229
-2.98189
-2.74307
-2.56645
-1.17606
-1.16058
-1.11975
-1.05694
-0.983966
-0.907288
-0.828667
-0.754376
-0.68208
-0.640338
-0.615532
-0.72685
-1.12892
-1.60392
-2.06194
-2.09732
-1.9095
-1.63498
-1.42389
-1.29418
-1.14922
-1.13811
-1.10419
-1.04683
-0.976465
-0.899961
-0.82113
-0.738068
-0.667268
-0.572709
-0.539967
-0.422449
-0.397221
-0.208802
0.0939574
0.423286
0.785226
1.02721
1.15015
1.19972
-1.11596
-1.10905
-1.08285
-1.03143
-0.963226
-0.886871
-0.804717
-0.719517
-0.625847
-0.528174
-0.414858
-0.297505
0.0493406
0.620651
1.30726
1.91348
2.34215
2.58728
2.6913
2.71853
-1.08059
-1.07675
-1.05898
-1.01382
-0.947184
-0.869928
-0.785893
-0.695716
-0.596263
-0.487113
-0.360725
-0.246288
0.0151552
0.600272
1.22151
1.76836
2.17106
2.41265
2.52618
2.56159
-1.04833
-1.04632
-1.03592
-0.996897
-0.930765
-0.851944
-0.767056
-0.675942
-0.577938
-0.463288
-0.345991
-0.248914
-0.118724
0.26555
0.712471
1.10577
1.39951
1.58184
1.67062
1.69866
-1.01645
-1.01726
-1.01184
-0.977256
-0.910918
-0.830984
-0.747841
-0.66088
-0.566409
-0.461098
-0.354256
-0.263638
-0.191006
0.0313306
0.361816
0.657641
0.867868
0.994367
1.05664
1.07835
-0.964747
-0.967409
-0.964087
-0.933262
-0.871856
-0.798784
-0.723383
-0.645294
-0.559961
-0.462894
-0.370007
-0.291691
-0.224727
-0.108353
0.120416
0.328526
0.472093
0.555011
0.595831
0.604193
-0.869193
-0.871057
-0.867946
-0.845984
-0.80217
-0.747826
-0.688769
-0.625012
-0.552134
-0.46884
-0.386862
-0.327855
-0.265591
-0.198911
-0.0534795
0.0810841
0.169602
0.227674
0.252606
0.257264
-0.758567
-0.758647
-0.756091
-0.745076
-0.721828
-0.68946
-0.65024
-0.603183
-0.543546
-0.471592
-0.398591
-0.357194
-0.323955
-0.28972
-0.191992
-0.104001
-0.03674
0.00310552
0.0199653
0.0220371
-0.676362
-0.675646
-0.674232
-0.670254
-0.660197
-0.643251
-0.61934
-0.586007
-0.537547
-0.46982
-0.408412
-0.37664
-0.361822
-0.345201
-0.272112
-0.210937
-0.165054
-0.1409
-0.131377
-0.131733
-0.63516
-0.63429
-0.633135
-0.631624
-0.626806
-0.617141
-0.601641
-0.577249
-0.537555
-0.473277
-0.413551
-0.381998
-0.361313
-0.343487
-0.296111
-0.257528
-0.232435
-0.220744
-0.21751
-0.218151
-0.627322
-0.626402
-0.62521
-0.623899
-0.620747
-0.614458
-0.604072
-0.586566
-0.552563
-0.490595
-0.425853
-0.374487
-0.332129
-0.312173
-0.290506
-0.274298
-0.258894
-0.249645
-0.244574
-0.245224
-0.644391
-0.643522
-0.64259
-0.641783
-0.640039
-0.636819
-0.631875
-0.62289
-0.598208
-0.541753
-0.479545
-0.404034
-0.332733
-0.314959
-0.30609
-0.291383
-0.273478
-0.259632
-0.253522
-0.254403
-0.679408
-0.678814
-0.678666
-0.679191
-0.680325
-0.682893
-0.688296
-0.696653
-0.698562
-0.673772
-0.626048
-0.523107
-0.420593
-0.381203
-0.362545
-0.32429
-0.287723
-0.260399
-0.248798
-0.251817
-0.722846
-0.722999
-0.724305
-0.727431
-0.73392
-0.746804
-0.770916
-0.813158
-0.874788
-0.930146
-0.907565
-0.754376
-0.602754
-0.542687
-0.48575
-0.401607
-0.322809
-0.272331
-0.260116
-0.264736
-0.762118
-0.763299
-0.766581
-0.773479
-0.787595
-0.815004
-0.866457
-0.962245
-1.12486
-1.31785
-1.33537
-1.09083
-0.859422
-0.75715
-0.646735
-0.517401
-0.404099
-0.342946
-0.336004
-0.339356
-0.781085
-0.783463
-0.788839
-0.799737
-0.821888
-0.86457
-0.945848
-1.10367
-1.3885
-1.75546
-1.80825
-1.46358
-1.14972
-0.986658
-0.833856
-0.678655
-0.555216
-0.498528
-0.497935
-0.503952
-0.765221
-0.768264
-0.774809
-0.788442
-0.815927
-0.868767
-0.970263
-1.17086
-1.54438
-2.02134
-2.11357
-1.74617
-1.38444
-1.20826
-1.04198
-0.918489
-0.841298
-0.809787
-0.799242
-0.800346
-0.706391
-0.709493
-0.716058
-0.729683
-0.757372
-0.810685
-0.913533
-1.11739
-1.50206
-1.97745
-2.05887
-1.74671
-1.46441
-1.31186
-1.20412
-1.16792
-1.14411
-1.11631
-1.09533
-1.08849
-0.608732
-0.611203
-0.616396
-0.627346
-0.650095
-0.69416
-0.779254
-0.947956
-1.26955
-1.66611
-1.72024
-1.51799
-1.34377
-1.22932
-1.19788
-1.22071
-1.22946
-1.20553
-1.18583
-1.17714
-0.487137
-0.488561
-0.491581
-0.498385
-0.513236
-0.542518
-0.599308
-0.711946
-0.932076
-1.22668
-1.29997
-1.20056
-1.08328
-0.990173
-1.00052
-1.06508
-1.07451
-1.06117
-1.05014
-1.04472
-0.361021
-0.361396
-0.362329
-0.365069
-0.372026
-0.386457
-0.414872
-0.471481
-0.585179
-0.761826
-0.826706
-0.771149
-0.682705
-0.658329
-0.724519
-0.791149
-0.802971
-0.801415
-0.798829
-0.796881
-0.247278
-0.246905
-0.246414
-0.246294
-0.247488
-0.250907
-0.258342
-0.273597
-0.304463
-0.363217
-0.390006
-0.34133
-0.332417
-0.38563
-0.47675
-0.523353
-0.535242
-0.53918
-0.541177
-0.541274
-0.155841
-0.155119
-0.153991
-0.15253
-0.150735
-0.148217
-0.144432
-0.138339
-0.127329
-0.1028
-0.0736083
-0.072765
-0.134184
-0.216637
-0.278456
-0.309972
-0.323101
-0.32937
-0.333329
-0.334484
-0.0892975
-0.0885366
-0.087363
-0.085708
-0.0831161
-0.0787275
-0.0713863
-0.0592204
-0.0393094
-0.00913633
0.0149359
-0.000520795
-0.0568885
-0.115133
-0.155338
-0.173595
-0.183519
-0.189171
-0.192838
-0.194074
-0.0450934
-0.0444615
-0.0435294
-0.0422425
-0.0400407
-0.036022
-0.02917
-0.0181035
-0.00141769
0.0197052
0.0302926
0.0134168
-0.0239046
-0.0597399
-0.083828
-0.0966665
-0.102894
-0.106448
-0.10882
-0.109657
-0.0183698
-0.0179136
-0.0172735
-0.0165093
-0.015061
-0.012194
-0.00718844
0.000726028
0.0118528
0.0238697
0.0263055
0.0124288
-0.0106392
-0.0317728
-0.0460508
-0.0537989
-0.0575307
-0.0596048
-0.0609731
-0.0614576
-0.00407503
-0.00377701
-0.00339869
-0.00305784
-0.0022998
-0.000580439
0.0025684
0.00751556
0.0140845
0.0201266
0.0192074
0.00920538
-0.00465378
-0.0168457
-0.0250976
-0.0296378
-0.0318137
-0.0330112
-0.0337625
-0.0340268
0.0019925
0.00216972
0.00235605
0.00240889
0.00268473
0.00353476
0.00526488
0.0080228
0.0115332
0.0142744
0.012649
0.00625913
-0.00163823
-0.00837716
-0.0129657
-0.015592
-0.0167992
-0.017438
-0.0178455
-0.0179859
0.002932
0.00302596
0.00308591
0.00298998
0.00298454
0.00329435
0.00407786
0.00537174
0.00697497
0.0080559
0.00690015
0.00358148
-0.000239018
-0.00342453
-0.00559216
-0.00685206
-0.00749796
-0.00777815
-0.00797399
-0.00804825
0.000855697
0.000877085
0.000981979
0.00108379
0.0011
0.00110122
0.00115236
0.00127913
0.0014697
0.00163103
0.0015174
0.000933793
0.000128199
-0.000651166
-0.00124297
-0.00158309
-0.00164205
-0.00152564
-0.00139972
-0.00138508
-0.501534
-0.287236
-0.0863889
0.081416
0.21899
0.330932
0.426258
0.504099
0.526633
0.522909
-0.165579
-0.0261242
0.104442
0.21861
0.316053
0.397772
0.462898
0.507592
0.531648
0.547751
0.0630644
0.154763
0.246012
0.326928
0.396523
0.454558
0.500388
0.534984
0.56008
0.579214
0.227249
0.291938
0.357686
0.416859
0.46804
0.511416
0.547479
0.577125
0.599378
0.618376
0.355668
0.404238
0.452844
0.497738
0.537606
0.572589
0.602876
0.628277
0.647505
0.665702
0.462845
0.501205
0.539301
0.575918
0.609476
0.639662
0.666156
0.688256
0.70486
0.722457
0.555452
0.58953
0.623743
0.656694
0.687267
0.714946
0.73913
0.75888
0.773359
0.790487
0.645531
0.679318
0.71303
0.745384
0.775162
0.801789
0.824606
0.84267
0.855447
0.872084
0.741902
0.779095
0.814654
0.84781
0.877609
0.903501
0.925075
0.94173
0.953591
0.96983
0.856195
0.897304
0.934804
0.968146
0.997015
1.02136
1.0413
1.05681
1.06887
1.08502
0.998303
1.03962
1.07522
1.10509
1.13054
1.15238
1.17109
1.18672
1.19994
1.21596
1.17038
1.20284
1.22995
1.2525
1.27276
1.29162
1.30947
1.32631
1.34129
1.35712
1.35703
1.37436
1.3916
1.4084
1.4246
1.43941
1.45336
1.46787
1.48315
1.5006
1.54047
1.5504
1.5636
1.5746
1.58403
1.59373
1.60439
1.61464
1.62401
1.64943
1.758
1.75226
1.73925
1.725
1.71875
1.72449
1.74262
1.77114
1.80495
1.84126
2.06121
1.92537
1.84595
1.80351
1.78614
1.79015
1.81768
1.87561
1.98326
2.16148
0.341986
0.335686
0.327952
0.316833
0.303261
0.290606
0.28019
0.272141
0.26636
0.262933
0.262423
0.265055
0.270113
0.277335
0.286779
0.29853
0.31203
0.324918
0.333883
0.341407
0.251104
0.257031
0.265102
0.27123
0.274293
0.273773
0.270674
0.266641
0.262986
0.260596
0.260292
0.262341
0.265911
0.270211
0.274197
0.27635
0.275212
0.270528
0.263439
0.255583
0.244376
0.246749
0.250025
0.252813
0.255276
0.257473
0.258651
0.258484
0.25746
0.256486
0.256505
0.257736
0.259356
0.26041
0.26018
0.258591
0.256334
0.253893
0.250853
0.247814
0.239626
0.240714
0.242643
0.245
0.246889
0.248297
0.249506
0.250456
0.250951
0.251165
0.251499
0.252022
0.252286
0.251985
0.25119
0.250125
0.248675
0.246606
0.244428
0.242928
0.234658
0.235289
0.236437
0.23823
0.240105
0.241714
0.242944
0.243949
0.24486
0.245596
0.246134
0.246377
0.246226
0.245786
0.245067
0.243922
0.24234
0.240594
0.239162
0.238339
0.229828
0.230259
0.231075
0.232443
0.234031
0.235641
0.237131
0.238386
0.239438
0.240371
0.241043
0.241273
0.24112
0.240599
0.239673
0.238433
0.237057
0.23572
0.234693
0.23414
0.225187
0.225501
0.226149
0.227313
0.228721
0.23023
0.231798
0.233325
0.234669
0.235787
0.236604
0.236922
0.236705
0.236011
0.235003
0.233859
0.232698
0.231583
0.230767
0.230357
0.220702
0.220932
0.221471
0.222534
0.223888
0.22535
0.226894
0.228475
0.229984
0.231297
0.232287
0.23273
0.232555
0.231933
0.23104
0.230032
0.228975
0.22798
0.227295
0.226985
0.216425
0.21659
0.217029
0.217974
0.219237
0.220602
0.22201
0.223503
0.225113
0.226704
0.227932
0.228459
0.228395
0.228002
0.227406
0.226634
0.225744
0.224905
0.224359
0.22413
0.212321
0.212433
0.212806
0.213706
0.21497
0.216379
0.217909
0.219508
0.221096
0.222695
0.224145
0.225077
0.225421
0.225253
0.224723
0.224011
0.223206
0.222445
0.221987
0.221822
0.208472
0.20853
0.208837
0.209688
0.210927
0.212309
0.213819
0.215509
0.217408
0.219371
0.221155
0.222332
0.222799
0.222806
0.222513
0.222012
0.221357
0.220712
0.220349
0.220249
0.204974
0.204998
0.205226
0.20592
0.206987
0.208243
0.209667
0.211293
0.213171
0.215315
0.21749
0.219164
0.220169
0.22067
0.220775
0.220604
0.220262
0.219875
0.219674
0.219624
0.201508
0.201515
0.201687
0.202241
0.203182
0.204393
0.205869
0.207689
0.209875
0.212421
0.215089
0.217256
0.218652
0.219441
0.219833
0.219972
0.219944
0.219837
0.219791
0.219767
0.197595
0.197602
0.19775
0.198202
0.199023
0.200162
0.201626
0.203528
0.205961
0.208964
0.212269
0.215103
0.217103
0.218448
0.219294
0.219838
0.22014
0.220305
0.220378
0.220366
0.192897
0.192901
0.193064
0.1935
0.194308
0.195496
0.197122
0.199331
0.202204
0.205814
0.209909
0.213538
0.216176
0.21803
0.219314
0.220188
0.220786
0.221154
0.221296
0.221288
0.187186
0.187185
0.187371
0.187886
0.188797
0.190155
0.192063
0.194679
0.198172
0.202619
0.207719
0.212285
0.21567
0.218082
0.219784
0.221012
0.221889
0.2224
0.222586
0.222586
0.180341
0.180328
0.180542
0.181185
0.182299
0.183948
0.186285
0.189506
0.193798
0.199295
0.205637
0.211365
0.215632
0.218722
0.220944
0.222518
0.223615
0.224236
0.224469
0.224485
0.172248
0.17222
0.172468
0.173268
0.174704
0.176791
0.179718
0.183747
0.189095
0.195935
0.203815
0.210953
0.216281
0.220144
0.222915
0.224899
0.226206
0.226953
0.227256
0.227288
0.162716
0.162669
0.162973
0.163943
0.165797
0.168402
0.172121
0.177179
0.183869
0.192385
0.202176
0.211027
0.217654
0.222473
0.225912
0.228338
0.229923
0.230845
0.23124
0.231286
0.15139
0.151332
0.151723
0.152941
0.155162
0.158579
0.163255
0.169622
0.178025
0.188668
0.200813
0.211738
0.219902
0.225841
0.230089
0.233055
0.235025
0.236189
0.236687
0.236741
0.137578
0.137512
0.138044
0.139601
0.142406
0.14669
0.15267
0.160801
0.171439
0.18476
0.199793
0.213197
0.223174
0.230439
0.235628
0.239258
0.241696
0.243151
0.243767
0.243829
0.120253
0.120182
0.120945
0.123022
0.126652
0.132193
0.139983
0.150476
0.164022
0.180714
0.199244
0.215568
0.227652
0.236438
0.24273
0.247156
0.250158
0.251948
0.252687
0.252754
0.0979826
0.0979276
0.0990707
0.101942
0.106884
0.11434
0.124707
0.138431
0.155776
0.17665
0.199326
0.219008
0.233491
0.244023
0.251596
0.256964
0.260641
0.262831
0.263717
0.263785
0.0683979
0.068414
0.070251
0.0745302
0.0816793
0.0922163
0.106427
0.124629
0.146862
0.17279
0.20024
0.223681
0.240829
0.253325
0.262376
0.268859
0.273339
0.275991
0.277039
0.277104
0.0273083
0.0275657
0.030907
0.0381649
0.0494698
0.065126
0.0850748
0.109322
0.137634
0.169461
0.20222
0.229726
0.249743
0.264388
0.275113
0.282921
0.288394
0.291605
0.29281
0.292858
-0.0329345
-0.0313902
-0.0233862
-0.00959956
0.0094416
0.0332571
0.0612503
0.0931629
0.128644
0.167044
0.205466
0.237201
0.260192
0.277093
0.289639
0.298929
0.305564
0.309466
0.31087
0.310911
-0.105687
-0.102564
-0.0870846
-0.0630547
-0.03357
-0.00022845
0.0365357
0.0766662
0.119883
0.165628
0.210774
0.247947
0.275083
0.295336
0.310688
0.322399
0.330935
0.335971
0.337654
0.337914
-0.179741
-0.171774
-0.148722
-0.114881
-0.0755461
-0.0329501
0.0125628
0.0609437
0.111946
0.165085
0.217064
0.259789
0.291115
0.314767
0.333002
0.347201
0.357712
0.363693
0.366235
0.366908
-0.238463
-0.229044
-0.20118
-0.160553
-0.113667
-0.0632898
-0.00996041
0.0460529
0.104408
0.164555
0.222878
0.270578
0.30551
0.331873
0.352246
0.36808
0.379872
0.386975
0.390331
0.391175
-0.286315
-0.276232
-0.245013
-0.199457
-0.146901
-0.0903491
-0.0305346
0.032107
0.0970421
0.163592
0.227676
0.279732
0.317598
0.346014
0.367835
0.384794
0.397487
0.405431
0.409162
0.410082
-0.326315
-0.316039
-0.282618
-0.233257
-0.176086
-0.114454
-0.0492097
0.019129
0.0898766
0.162147
0.231388
0.287238
0.327522
0.357488
0.380314
0.397941
0.411138
0.419612
0.423563
0.424509
-0.361142
-0.3508
-0.315724
-0.263291
-0.202313
-0.136372
-0.0664243
0.00690605
0.0828378
0.160274
0.234213
0.293466
0.335834
0.367028
0.390543
0.408499
0.42186
0.430436
0.434413
0.435414
-0.392375
-0.382025
-0.345678
-0.290706
-0.226489
-0.156834
-0.0827431
-0.00491608
0.0757392
0.157975
0.236318
0.298784
0.343099
0.375375
0.399402
0.417533
0.430919
0.43956
0.443511
0.444466
-0.421186
-0.41081
-0.373425
-0.316268
-0.24926
-0.176356
-0.0985768
-0.0166752
0.0683428
0.155121
0.237742
0.303372
0.349559
0.382881
0.407426
0.425769
0.439205
0.447858
0.451835
0.452635
-0.448396
-0.437971
-0.399639
-0.340546
-0.271061
-0.195293
-0.114226
-0.0286279
0.0604448
0.151556
0.23836
0.307171
0.355369
0.38988
0.415069
0.433704
0.447231
0.455872
0.459824
0.460546
-0.474469
-0.463974
-0.424754
-0.363924
-0.292249
-0.213923
-0.129894
-0.0409304
0.0518977
0.147129
0.238108
0.310324
0.360767
0.396644
0.422615
0.441657
0.455361
0.463999
0.467887
0.468581
-0.499749
-0.489107
-0.449052
-0.386663
-0.313025
-0.232401
-0.145704
-0.0536829
0.0426359
0.141821
0.237041
0.312845
0.365751
0.403226
0.430163
0.449757
0.46373
0.472407
0.476175
0.476833
-0.524439
-0.513583
-0.47274
-0.408903
-0.333498
-0.250833
-0.161731
-0.066917
0.0326383
0.135616
0.235032
0.314601
0.370278
0.409639
0.437767
0.458061
0.472382
0.481118
0.484757
0.485343
-0.548576
-0.537483
-0.495882
-0.43072
-0.35374
-0.269239
-0.177978
-0.0806437
0.0218843
0.128409
0.231954
0.315514
0.374296
0.415853
0.445413
0.466561
0.481296
0.49008
0.493565
0.49404
-0.572237
-0.560862
-0.518526
-0.452135
-0.373748
-0.287611
-0.194432
-0.0948502
0.0103601
0.120178
0.227763
0.315445
0.377656
0.421794
0.453071
0.475231
0.490432
0.499239
0.502513
0.50284
-0.595358
-0.583733
-0.540657
-0.473142
-0.393498
-0.305914
-0.211046
-0.109484
-0.00188294
0.110956
0.222387
0.31424
0.380182
0.427331
0.460699
0.484055
0.49971
0.508427
0.511424
0.511596
-0.617976
-0.606046
-0.562235
-0.493704
-0.412944
-0.324088
-0.227747
-0.124453
-0.0147563
0.100771
0.215776
0.311758
0.381661
0.432284
0.468256
0.493085
0.509138
0.517541
0.520116
0.52012
-0.639878
-0.627744
-0.583213
-0.513766
-0.432015
-0.342042
-0.244448
-0.139669
-0.0281753
0.0896876
0.20792
0.307885
0.381851
0.436374
0.47564
0.502485
0.518894
0.526541
0.528403
0.528207
-0.661186
-0.648766
-0.603545
-0.533285
-0.450665
-0.359725
-0.261049
-0.155042
-0.0420434
0.077811
0.198847
0.302526
0.38053
0.43922
0.482558
0.512448
0.529577
0.535777
0.536169
0.535636
-0.681731
-0.669052
-0.623212
-0.552207
-0.468807
-0.377046
-0.277461
-0.170442
-0.0562349
0.0652356
0.188622
0.295627
0.377499
0.440373
0.488411
0.522851
0.542225
0.546907
0.544146
0.542304
-0.70159
-0.688639
-0.642154
-0.57047
-0.486397
-0.393931
-0.293593
-0.185778
-0.0706262
0.0521143
0.177362
0.287154
0.37263
0.439375
0.49222
0.532673
0.557126
0.563277
0.557129
0.545673
-0.720646
-0.707514
-0.660456
-0.58824
-0.503652
-0.410673
-0.309797
-0.201475
-0.0857032
0.0378892
0.164469
0.276411
0.365286
0.43553
0.492562
0.539754
0.572112
0.583229