/*--------------------------------*- C++ -*----------------------------------*\
  =========                 |
  \\      /  F ield         | OpenFOAM: The Open Source CFD Toolbox
   \\    /   O peration     | Website:  https://openfoam.org
    \\  /    A nd           | Version:  6
     \\/     M anipulation  |
\*---------------------------------------------------------------------------*/
FoamFile
{
    version     2.0;
    format      ascii;
    class       volScalarField;
    location    "106";
    object      p;
}
// * * * * * * * * * * * * * * * * * * * * * * * * * * * * * * * * * * * * * //

dimensions      [0 2 -2 0 0 0 0];

internalField   nonuniform List<scalar> 
8800
(
0.973898
0.924585
0.886622
0.858557
0.838402
0.823823
0.813238
0.805714
0.800852
0.798814
0.800218
0.804589
0.811405
0.820847
0.833596
0.850925
0.874809
0.90791
0.95085
1.00337
0.808385
0.814731
0.823884
0.827436
0.824833
0.818751
0.811821
0.805595
0.800814
0.797973
0.797776
0.800438
0.805107
0.811256
0.818371
0.825416
0.830303
0.830184
0.823515
0.81462
0.781885
0.788122
0.792627
0.796503
0.799459
0.800418
0.799344
0.797242
0.795289
0.794485
0.795556
0.798044
0.800957
0.803248
0.803785
0.802008
0.798652
0.794646
0.789869
0.786154
0.777561
0.780328
0.782939
0.785104
0.78685
0.788431
0.789551
0.789927
0.789844
0.789983
0.790833
0.792016
0.79279
0.792665
0.79171
0.79037
0.788713
0.78642
0.784014
0.782448
0.772472
0.773899
0.775744
0.777834
0.779557
0.780865
0.781984
0.782991
0.783837
0.784622
0.785388
0.785896
0.785959
0.785627
0.784984
0.783888
0.782248
0.780365
0.779018
0.778216
0.76744
0.768344
0.769597
0.771235
0.772942
0.774493
0.775802
0.776958
0.778067
0.779144
0.779996
0.780445
0.780504
0.780175
0.779404
0.77824
0.7769
0.775649
0.774834
0.77431
0.762478
0.763135
0.764104
0.765434
0.766899
0.768439
0.769955
0.77136
0.772677
0.773955
0.774988
0.775555
0.775635
0.775248
0.774508
0.773598
0.772632
0.771746
0.771174
0.770789
0.757583
0.758089
0.758883
0.760039
0.761361
0.762807
0.764354
0.765945
0.767524
0.76907
0.770325
0.771027
0.771184
0.770926
0.770414
0.769767
0.769064
0.768424
0.768006
0.767705
0.752697
0.753099
0.753768
0.754808
0.756065
0.757465
0.759017
0.760719
0.762532
0.764387
0.765928
0.76685
0.767224
0.767216
0.766962
0.766549
0.766062
0.765622
0.765317
0.765072
0.747736
0.748063
0.748647
0.749613
0.750831
0.75223
0.753831
0.755652
0.757687
0.759873
0.761784
0.763049
0.763742
0.764026
0.764032
0.763866
0.76359
0.763318
0.763098
0.762892
0.742608
0.742879
0.743405
0.74433
0.745541
0.74698
0.748674
0.750661
0.752959
0.755535
0.757909
0.759613
0.760691
0.761308
0.761601
0.761688
0.761626
0.761507
0.761356
0.761177
0.737219
0.737447
0.737936
0.738851
0.740096
0.741619
0.743452
0.745663
0.748301
0.751358
0.754297
0.756525
0.758055
0.759056
0.759674
0.76002
0.760188
0.760213
0.76012
0.759958
0.731469
0.731663
0.732135
0.73307
0.73439
0.736042
0.738072
0.740581
0.743648
0.747302
0.750924
0.753779
0.755838
0.757282
0.758272
0.758928
0.759326
0.759484
0.759439
0.759289
0.725246
0.725413
0.725885
0.726869
0.728306
0.730141
0.732437
0.735328
0.738933
0.743317
0.747766
0.751371
0.75406
0.75602
0.757439
0.758441
0.759089
0.759383
0.75938
0.759237
0.718421
0.718564
0.719052
0.720113
0.721713
0.723793
0.726435
0.72981
0.734079
0.739355
0.744802
0.749305
0.75274
0.755311
0.75722
0.758619
0.759553
0.759988
0.760023
0.759881
0.710841
0.710962
0.711477
0.712646
0.71446
0.716855
0.719936
0.723916
0.729006
0.735366
0.742014
0.747586
0.751904
0.755197
0.757694
0.759553
0.760808
0.761388
0.761457
0.761313
0.702305
0.702408
0.702958
0.70427
0.70636
0.709155
0.712787
0.717519
0.723618
0.731294
0.739381
0.746226
0.751585
0.755729
0.758931
0.761332
0.762945
0.763678
0.763777
0.763627
0.692525
0.692628
0.693247
0.694736
0.697182
0.70048
0.704803
0.71047
0.717809
0.727081
0.736889
0.745237
0.751826
0.756971
0.761
0.764036
0.766054
0.766946
0.767071
0.766909
0.681205
0.681285
0.681994
0.683737
0.686628
0.690565
0.695758
0.702592
0.711461
0.722669
0.734525
0.744638
0.752666
0.758986
0.763969
0.76775
0.770215
0.771264
0.771406
0.77123
0.667912
0.667979
0.668799
0.670858
0.674316
0.679074
0.685376
0.693681
0.704443
0.717999
0.732284
0.744451
0.754136
0.761818
0.767913
0.772534
0.775474
0.776669
0.776817
0.776623
0.652036
0.652095
0.653068
0.655551
0.659758
0.665587
0.673325
0.683508
0.696632
0.71303
0.730172
0.744703
0.756272
0.765506
0.772855
0.778406
0.781829
0.783139
0.783276
0.783063
0.632729
0.632784
0.633984
0.637065
0.642291
0.649568
0.659213
0.671833
0.687924
0.707755
0.728214
0.745421
0.759103
0.770065
0.778786
0.785338
0.789202
0.790571
0.790677
0.790444
0.608739
0.6088
0.610356
0.614339
0.621037
0.630343
0.642608
0.658448
0.678278
0.702221
0.726472
0.746646
0.762637
0.775482
0.785673
0.793214
0.797411
0.798757
0.798808
0.798559
0.578105
0.578197
0.580375
0.585825
0.594834
0.607143
0.623119
0.643252
0.667761
0.696552
0.725053
0.748434
0.766888
0.781693
0.793419
0.801827
0.806161
0.807375
0.807352
0.807095
0.537509
0.537742
0.541206
0.549373
0.562301
0.579293
0.600581
0.626371
0.656602
0.690964
0.72411
0.750871
0.77185
0.78866
0.801854
0.810864
0.81505
0.816015
0.815909
0.815656
0.480611
0.481807
0.488754
0.502608
0.522404
0.546663
0.575327
0.608268
0.64522
0.685752
0.723814
0.754047
0.777534
0.79626
0.810721
0.819914
0.823601
0.824238
0.824062
0.823825
0.398228
0.406331
0.422375
0.446684
0.476766
0.510759
0.548394
0.589499
0.633842
0.681022
0.724324
0.758279
0.784489
0.805234
0.820599
0.829501
0.832472
0.832788
0.832577
0.832385
0.31024
0.328078
0.354158
0.389706
0.430642
0.474475
0.521041
0.570353
0.622292
0.676563
0.725748
0.764051
0.793527
0.816457
0.83244
0.840283
0.842235
0.84228
0.842109
0.841994
0.234594
0.256431
0.290887
0.336045
0.386578
0.439681
0.49493
0.552275
0.611573
0.672546
0.72713
0.769297
0.801587
0.826209
0.842106
0.848631
0.84985
0.849809
0.849682
0.849602
0.172273
0.196553
0.236763
0.288813
0.346826
0.407637
0.470504
0.535164
0.601279
0.668463
0.727987
0.773637
0.808333
0.834153
0.849746
0.855353
0.856216
0.85615
0.856047
0.855982
0.120354
0.146126
0.190504
0.247892
0.311861
0.378964
0.448261
0.519307
0.591534
0.664381
0.72842
0.777226
0.814084
0.840948
0.856185
0.861082
0.861728
0.861646
0.861558
0.861496
0.0762511
0.102904
0.150362
0.212058
0.281003
0.353442
0.428258
0.504888
0.582571
0.660548
0.728704
0.780372
0.819169
0.846873
0.861715
0.866085
0.866594
0.866498
0.866412
0.866351
0.0378839
0.065107
0.114959
0.180219
0.253407
0.330485
0.410181
0.491817
0.574455
0.657123
0.729025
0.783248
0.823695
0.852019
0.866479
0.870461
0.870881
0.870768
0.870677
0.870612
0.00373755
0.0313879
0.0831977
0.151493
0.228362
0.309523
0.39361
0.479828
0.567065
0.65411
0.729451
0.785923
0.827734
0.856461
0.870528
0.874226
0.874592
0.87447
0.874375
0.874301
-0.02725
0.000769587
0.0542291
0.125178
0.205297
0.290097
0.378167
0.468627
0.560212
0.65143
0.73001
0.788492
0.831395
0.860298
0.873933
0.877408
0.877754
0.877648
0.87756
0.877477
-0.0559299
-0.0275384
0.0273928
0.100739
0.183755
0.271832
0.363545
0.457967
0.553706
0.648999
0.730736
0.791081
0.834843
0.8637
0.876837
0.880118
0.88048
0.880425
0.880363
0.880276
-0.0827381
-0.0540205
0.00224952
0.0777472
0.163378
0.254432
0.349501
0.447643
0.547392
0.646753
0.731685
0.793838
0.838293
0.866907
0.87948
0.882572
0.882975
0.883004
0.882991
0.882905
-0.108207
-0.0790867
-0.0215823
0.0558843
0.143888
0.237658
0.335838
0.43749
0.54113
0.644613
0.732908
0.79693
0.84198
0.870199
0.882148
0.885041
0.88549
0.885622
0.885673
0.885596
-0.132515
-0.102996
-0.0443364
0.0349241
0.125079
0.221337
0.3224
0.42737
0.534792
0.642486
0.73443
0.800519
0.846143
0.873839
0.885102
0.887771
0.888255
0.888483
0.888601
0.888539
-0.155861
-0.12593
-0.0661952
0.0147113
0.106821
0.205348
0.309072
0.417161
0.528255
0.640248
0.736216
0.804738
0.851003
0.878035
0.888516
0.890914
0.891414
0.891716
0.891888
0.891843
-0.17839
-0.148003
-0.0872656
-0.0048506
0.0890129
0.189606
0.295778
0.406784
0.521409
0.637756
0.738165
0.809677
0.856801
0.883018
0.892455
0.894492
0.895002
0.895352
0.895546
0.895509
-0.200219
-0.169338
-0.107602
-0.0238211
0.0716138
0.174061
0.282469
0.396174
0.514162
0.634853
0.740111
0.815342
0.863806
0.88903
0.896976
0.898362
0.898878
0.899321
0.899528
0.899478
-0.221263
-0.189915
-0.127233
-0.0422465
0.0545916
0.158705
0.269121
0.385307
0.50645
0.631414
0.741844
0.821628
0.872254
0.896588
0.90237
0.902398
0.902723
0.903488
0.903944
0.903883
-0.241544
-0.209759
-0.146197
-0.0601371
0.0379458
0.143535
0.255749
0.374165
0.498238
0.627309
0.743134
0.828318
0.882265
0.906358
0.909539
0.907113
0.906526
0.907913
0.909384
0.909637
-0.261153
-0.228869
-0.164514
-0.0775012
0.0216938
0.128582
0.242381
0.362773
0.489507
0.622453
0.743726
0.835089
0.893729
0.918902
0.919972
0.914406
0.911819
0.913754
0.917287
0.918989
-0.279982
-0.247253
-0.182162
-0.0943077
0.00585486
0.113888
0.229062
0.351174
0.480282
0.616799
0.743383
0.841516
0.906247
0.934258
0.934782
0.926692
0.92127
0.921441
0.925398
0.927739
-0.298132
-0.264949
-0.199169
-0.110611
-0.00962786
0.0993928
0.21572
0.339288
0.47046
0.610229
0.741867
0.847217
0.919432
0.952063
0.954048
0.945046
0.936313
0.929253
0.921852
0.925825
-0.31556
-0.282024
-0.215685
-0.126612
-0.025051
0.0847758
0.201959
0.326662
0.459551
0.602197
0.738648
0.851613
0.933171
0.972343
0.977306
0.96892
0.955548
0.940038
0.916736
0.920829
-0.332162
-0.298485
-0.231571
-0.142138
-0.0401726
0.0703129
0.187943
0.313561
0.447756
0.592774
0.733421
0.853414
0.945723
0.993075
1.00024
0.990862
0.973075
0.940113
0.885008
0.862657
-0.347847
-0.315378
-0.246426
-0.156761
-0.0541891
0.0564909
0.173947
0.300252
0.435331
0.582072
0.726053
0.851637
0.954917
1.0118
1.01598
1.00043
0.969459
0.90937
0.847164
0.809847
-0.38961
-0.332086
-0.25996
-0.171461
-0.0678803
0.0422931
0.160117
0.286588
0.422022
0.569641
0.715869
0.845115
0.956822
1.02202
1.02124
0.983121
0.915919
0.840063
0.768195
0.728464
-0.362598
-0.343561
-0.280475
-0.191342
-0.089174
0.0209218
0.138288
0.264554
0.399863
0.547542
0.69466
0.825618
0.932636
1.00524
0.968439
0.835652
0.730968
0.658285
0.588954
0.608344
-0.392251
-0.360067
-0.296089
-0.207355
-0.105527
0.0045105
0.122246
0.248124
0.382854
0.529565
0.675208
0.80354
0.899125
0.939926
0.865151
0.705199
0.58255
0.499811
0.412512
0.449616
-0.414821
-0.380352
-0.314673
-0.225871
-0.124067
-0.0139556
0.10381
0.22911
0.362809
0.507652
0.650061
0.772477
0.855868
0.858199
0.728442
0.557296
0.416569
0.314939
0.214995
0.238283
-0.436559
-0.401142
-0.334172
-0.244745
-0.14285
-0.0327979
0.0845439
0.209032
0.341365
0.483687
0.62138
0.734001
0.799257
0.767271
0.58794
0.39838
0.229662
0.0893307
-0.0395652
-0.0358411
-0.457871
-0.422168
-0.354377
-0.264407
-0.162386
-0.05253
0.0641972
0.187654
0.318214
0.457366
0.58894
0.691018
0.734361
0.649831
0.448763
0.241683
0.0489244
-0.109173
-0.31522
-0.396073
-0.47945
-0.443912
-0.375691
-0.285375
-0.183234
-0.0735723
0.042557
0.16487
0.293403
0.428873
0.553345
0.645611
0.659219
0.523805
0.32072
0.103947
-0.0926233
-0.255675
-0.37843
-0.490683
-0.502351
-0.466849
-0.398468
-0.308031
-0.205932
-0.096599
0.0187892
0.139708
0.265743
0.396734
0.513324
0.591434
0.575388
0.403764
0.200328
-0.00981521
-0.189495
-0.288089
-0.31387
-0.326831
-0.526724
-0.491274
-0.422832
-0.332462
-0.230625
-0.121837
-0.00749269
0.111635
0.234588
0.360125
0.467873
0.526496
0.488419
0.288208
0.0873174
-0.102246
-0.238214
-0.276668
-0.284985
-0.285341
-0.552863
-0.51732
-0.448827
-0.358655
-0.257264
-0.149304
-0.0363309
0.0805691
0.199833
0.319028
0.417135
0.457555
0.382546
0.181884
-0.0119953
-0.17673
-0.252947
-0.267001
-0.267979
-0.267853
-0.58077
-0.545021
-0.476483
-0.386619
-0.28588
-0.179008
-0.0677552
0.0464701
0.161474
0.273553
0.360933
0.383738
0.269843
0.0848944
-0.0977552
-0.228203
-0.257347
-0.257934
-0.258449
-0.258044
-0.610201
-0.574226
-0.505711
-0.416287
-0.316402
-0.210914
-0.101762
0.00933891
0.119562
0.223819
0.300335
0.302406
0.170569
-0.0033372
-0.164619
-0.240045
-0.254722
-0.252634
-0.252306
-0.251903
-0.64061
-0.604591
-0.536258
-0.447441
-0.348657
-0.244882
-0.138217
-0.0307172
0.074329
0.170364
0.235598
0.220844
0.0801254
-0.0802503
-0.209334
-0.248522
-0.247829
-0.248172
-0.247896
-0.247569
-0.671556
-0.635593
-0.567646
-0.479673
-0.382304
-0.280597
-0.176844
-0.0734209
0.0260823
0.114196
0.165811
0.144238
-0.000436343
-0.140525
-0.235108
-0.243568
-0.245031
-0.245354
-0.24525
-0.245048
-0.702058
-0.666374
-0.599162
-0.512363
-0.416799
-0.317584
-0.217176
-0.11827
-0.0247381
0.0562071
0.0964458
0.0674472
-0.0685244
-0.182524
-0.239579
-0.249804
-0.244508
-0.243505
-0.243145
-0.242973
-0.730504
-0.695673
-0.62978
-0.544632
-0.451369
-0.355138
-0.258535
-0.164511
-0.0773184
-0.00313069
0.0322492
-0.0108061
-0.123369
-0.21478
-0.237576
-0.24109
-0.241865
-0.241407
-0.241211
-0.24109
-0.755634
-0.722001
-0.658121
-0.575291
-0.484957
-0.392314
-0.300031
-0.211199
-0.130377
-0.0632503
-0.0301609
-0.0779419
-0.164705
-0.23402
-0.254852
-0.244833
-0.241244
-0.240104
-0.239778
-0.239622
-0.77486
-0.74328
-0.682447
-0.602834
-0.516258
-0.427928
-0.340549
-0.257245
-0.182595
-0.122316
-0.092048
-0.130354
-0.191848
-0.23719
-0.242628
-0.241806
-0.240098
-0.239468
-0.239241
-0.239061
-0.786198
-0.757454
-0.700717
-0.625542
-0.543758
-0.460597
-0.378765
-0.301381
-0.232848
-0.177687
-0.148595
-0.173857
-0.207491
-0.233548
-0.233882
-0.237825
-0.239542
-0.23974
-0.239702
-0.239613
-0.786998
-0.762189
-0.710876
-0.641592
-0.56584
-0.488865
-0.413254
-0.34212
-0.279889
-0.228688
-0.195822
-0.213127
-0.22108
-0.234387
-0.238083
-0.239415
-0.24046
-0.240829
-0.24095
-0.240972
-0.774886
-0.754836
-0.710806
-0.649273
-0.581054
-0.51137
-0.442691
-0.377953
-0.321931
-0.276544
-0.231297
-0.250275
-0.237684
-0.245314
-0.246666
-0.244459
-0.243606
-0.243726
-0.243944
-0.243976
-0.747856
-0.733243
-0.698736
-0.6474
-0.588376
-0.527131
-0.466063
-0.407791
-0.357217
-0.319392
-0.271354
-0.266968
-0.259811
-0.265492
-0.256963
-0.253051
-0.25058
-0.250268
-0.250425
-0.250412
-0.709387
-0.700087
-0.675951
-0.636302
-0.587869
-0.535909
-0.482817
-0.431047
-0.385242
-0.352849
-0.321329
-0.29332
-0.265998
-0.270999
-0.276868
-0.268376
-0.262696
-0.261438
-0.261799
-0.261791
-0.666499
-0.661192
-0.647351
-0.619091
-0.581631
-0.538596
-0.493059
-0.447388
-0.405433
-0.37421
-0.346017
-0.317261
-0.28045
-0.252105
-0.235531
-0.245023
-0.268584
-0.282627
-0.286711
-0.287021
-0.628876
-0.625626
-0.619
-0.60103
-0.572516
-0.536987
-0.497821
-0.456817
-0.416788
-0.384078
-0.358033
-0.339006
-0.328131
-0.333037
-0.353972
-0.389767
-0.396516
-0.368791
-0.35358
-0.356039
-0.601775
-0.599848
-0.596495
-0.585869
-0.56414
-0.53417
-0.499055
-0.460237
-0.420125
-0.383739
-0.355139
-0.349313
-0.390031
-0.465558
-0.546478
-0.587411
-0.592157
-0.555293
-0.505833
-0.488857
-0.581915
-0.581237
-0.580111
-0.57486
-0.558977
-0.532637
-0.498726
-0.459648
-0.416654
-0.373423
-0.343198
-0.318204
-0.315785
-0.348598
-0.411659
-0.433741
-0.416437
-0.385619
-0.348845
-0.330169
-0.570304
-0.570082
-0.569474
-0.567072
-0.556305
-0.532116
-0.497865
-0.456679
-0.409027
-0.356473
-0.312237
-0.251267
-0.175581
-0.110473
-0.0796086
-0.04856
-0.00562612
0.034776
0.0671313
0.0830716
-0.562273
-0.562128
-0.561723
-0.561046
-0.554493
-0.532757
-0.497482
-0.452805
-0.39958
-0.335259
-0.268957
-0.185631
-0.0436388
0.138338
0.317439
0.462916
0.551541
0.602707
0.62541
0.634346
-0.55704
-0.556995
-0.556873
-0.556705
-0.552827
-0.534588
-0.498332
-0.449473
-0.390092
-0.315281
-0.230879
-0.134829
0.0488086
0.305863
0.569805
0.798893
0.9565
1.03788
1.07178
1.08276
-0.552819
-0.552809
-0.552728
-0.552608
-0.551208
-0.536901
-0.500629
-0.447899
-0.38301
-0.300676
-0.204622
-0.101907
0.0923829
0.375162
0.681723
0.957333
1.16151
1.27489
1.32357
1.33963
-0.549312
-0.549315
-0.5492
-0.54894
-0.548721
-0.538806
-0.504169
-0.449407
-0.380317
-0.29391
-0.192941
-0.0885947
0.0927775
0.370443
0.676008
0.959574
1.18348
1.31327
1.36703
1.38131
-0.5467
-0.546736
-0.546766
-0.546822
-0.547307
-0.540361
-0.508934
-0.453544
-0.382645
-0.295619
-0.19659
-0.098445
0.0514035
0.302103
0.571198
0.814436
1.01501
1.13637
1.1838
1.19492
-0.543937
-0.544088
-0.544433
-0.54506
-0.545561
-0.541761
-0.5138
-0.45997
-0.39009
-0.305652
-0.212787
-0.125662
-0.0108107
0.195426
0.416963
0.60559
0.755787
0.847172
0.882573
0.890106
-0.541089
-0.541269
-0.541467
-0.54164
-0.541785
-0.540199
-0.517063
-0.467705
-0.401794
-0.321789
-0.236928
-0.161124
-0.0751039
0.083486
0.252782
0.388997
0.493622
0.554235
0.576684
0.581073
-0.539691
-0.539723
-0.539374
-0.538259
-0.536771
-0.535399
-0.51862
-0.476625
-0.416287
-0.341485
-0.265983
-0.201328
-0.138984
-0.0238047
0.101866
0.19755
0.267655
0.306963
0.321164
0.323666
-0.541467
-0.541289
-0.540407
-0.538045
-0.5343
-0.532047
-0.522695
-0.487998
-0.431759
-0.362509
-0.296264
-0.241761
-0.192855
-0.109425
-0.0188873
0.0477474
0.0930635
0.118791
0.128635
0.130411
-0.54728
-0.547222
-0.546979
-0.546346
-0.54494
-0.543717
-0.536921
-0.503344
-0.446693
-0.383051
-0.327231
-0.279493
-0.243437
-0.178557
-0.109122
-0.0598527
-0.0258947
-0.00719687
-0.000356541
0.00090216
-0.553974
-0.554628
-0.557001
-0.563452
-0.573
-0.577144
-0.564849
-0.521186
-0.460517
-0.40446
-0.354782
-0.312409
-0.283281
-0.234562
-0.178842
-0.137797
-0.108759
-0.0920031
-0.086128
-0.0856975
-0.555873
-0.557132
-0.56193
-0.575867
-0.598301
-0.609029
-0.588091
-0.531532
-0.47277
-0.424469
-0.376783
-0.339317
-0.316201
-0.274704
-0.227743
-0.193322
-0.167477
-0.152494
-0.147885
-0.147999
-0.555214
-0.556148
-0.559434
-0.567139
-0.57884
-0.58914
-0.566644
-0.521877
-0.480739
-0.438255
-0.392038
-0.35958
-0.342588
-0.306242
-0.264329
-0.234103
-0.211942
-0.199831
-0.196145
-0.19656
-0.560261
-0.560685
-0.560615
-0.54818
-0.515207
-0.490393
-0.494172
-0.493513
-0.480671
-0.443235
-0.399773
-0.372783
-0.356555
-0.324405
-0.289556
-0.264379
-0.245806
-0.235639
-0.232459
-0.232938
-0.572769
-0.572122
-0.568009
-0.541332
-0.482366
-0.435591
-0.451325
-0.485429
-0.483179
-0.444908
-0.403448
-0.378098
-0.360932
-0.329264
-0.299406
-0.279526
-0.265755
-0.258829
-0.256499
-0.256899
-0.599573
-0.596713
-0.595244
-0.586079
-0.562726
-0.528764
-0.525368
-0.534409
-0.508327
-0.450423
-0.404552
-0.37765
-0.355267
-0.32642
-0.301306
-0.283776
-0.272284
-0.266512
-0.264354
-0.264664
-0.676942
-0.680057
-0.70423
-0.738821
-0.752094
-0.730752
-0.69191
-0.6292
-0.541968
-0.455875
-0.40506
-0.370831
-0.342805
-0.315281
-0.290996
-0.273815
-0.262753
-0.256838
-0.254654
-0.254937
-0.790938
-0.803962
-0.839577
-0.876993
-0.891971
-0.871908
-0.811846
-0.702142
-0.56415
-0.456764
-0.397284
-0.352918
-0.325347
-0.297387
-0.270939
-0.251527
-0.238445
-0.231406
-0.229029
-0.229454
-0.851371
-0.864788
-0.891342
-0.917096
-0.92918
-0.910092
-0.841444
-0.69801
-0.545634
-0.439882
-0.369153
-0.324149
-0.299747
-0.270752
-0.241402
-0.219094
-0.203816
-0.195196
-0.192614
-0.193225
-0.809487
-0.818845
-0.837561
-0.857595
-0.869287
-0.853897
-0.783899
-0.6307
-0.490998
-0.391269
-0.319067
-0.284467
-0.263979
-0.233281
-0.203119
-0.179886
-0.162732
-0.153216
-0.150866
-0.151779
-0.672812
-0.681769
-0.698827
-0.719447
-0.734092
-0.721007
-0.648216
-0.52023
-0.40855
-0.313869
-0.256683
-0.234296
-0.216896
-0.188296
-0.160062
-0.137813
-0.121415
-0.113023
-0.111367
-0.112385
-0.471081
-0.481747
-0.501296
-0.525574
-0.543026
-0.529284
-0.461478
-0.370578
-0.287907
-0.21986
-0.187468
-0.171746
-0.160137
-0.137526
-0.114055
-0.0955572
-0.0824308
-0.076626
-0.0759057
-0.0768822
-0.218962
-0.231028
-0.256952
-0.288346
-0.307165
-0.293805
-0.249045
-0.197301
-0.15064
-0.121659
-0.106074
-0.0979637
-0.0967383
-0.0803451
-0.0644617
-0.0531998
-0.045255
-0.0424094
-0.0427274
-0.0436236
0.011411
-0.00511437
-0.0333627
-0.0522721
-0.0599548
-0.0601669
-0.0553857
-0.0454503
-0.034805
-0.0281015
-0.0237345
-0.020086
-0.0209539
-0.0188395
-0.0147516
-0.0154761
-0.0154188
-0.0150858
-0.0124697
-0.0112944
0.0870664
0.269285
0.435385
0.574884
0.684352
0.768548
0.837299
0.892962
0.906069
0.903468
0.36191
0.477803
0.585989
0.67864
0.755588
0.818311
0.867419
0.90058
0.91843
0.935539
0.547585
0.624282
0.699975
0.765989
0.821843
0.867996
0.904449
0.932524
0.953712
0.973035
0.685228
0.739889
0.79472
0.843802
0.886096
0.922134
0.95252
0.97811
0.997869
1.01678
0.797255
0.838523
0.879342
0.917629
0.951912
0.982315
1.00898
1.03171
1.04942
1.06752
0.891033
0.925467
0.959308
0.991803
1.02184
1.04912
1.07331
1.09372
1.10924
1.12674
0.977235
1.00842
1.03984
1.07027
1.09863
1.12447
1.14717
1.16582
1.17954
1.19654
1.06283
1.09495
1.12687
1.15763
1.18603
1.21149
1.23334
1.25066
1.2629
1.27939
1.15642
1.19267
1.22717
1.25935
1.28826
1.31338
1.3343
1.35045
1.36194
1.37805
1.26912
1.30983
1.34663
1.37928
1.40754
1.43137
1.45086
1.46604
1.47784
1.49389
1.41052
1.45132
1.48644
1.51584
1.54091
1.56242
1.58084
1.59627
1.60933
1.62525
1.58174
1.61364
1.64057
1.6629
1.68294
1.70161
1.71931
1.73605
1.75093
1.76663
1.76774
1.78491
1.80198
1.81864
1.83472
1.84944
1.86332
1.87778
1.89299
1.9103
1.9511
1.961
1.97415
1.98512
1.99453
2.00417
2.01476
2.02492
2.0342
2.05987
2.16887
2.16316
2.15021
2.13596
2.12965
2.13534
2.15347
2.182
2.21576
2.25208
2.4717
2.33575
2.25623
2.21366
2.19632
2.20032
2.22774
2.2856
2.39325
2.57166
0.87759
0.871288
0.863562
0.852453
0.83889
0.826253
0.815873
0.807888
0.802207
0.798928
0.798644
0.801542
0.806827
0.814223
0.823801
0.835651
0.849226
0.862165
0.871161
0.878706
0.786641
0.792562
0.800638
0.806778
0.809856
0.809357
0.806291
0.802324
0.798775
0.796547
0.796484
0.798809
0.80262
0.807108
0.811241
0.813509
0.812451
0.807827
0.800779
0.792949
0.77986
0.782233
0.785506
0.788288
0.79075
0.792956
0.794158
0.794043
0.79315
0.792406
0.792702
0.794197
0.796043
0.797321
0.797283
0.795844
0.793705
0.791359
0.788387
0.785374
0.775029
0.776117
0.77804
0.780389
0.782275
0.783693
0.784939
0.785969
0.786621
0.787072
0.78772
0.788557
0.7891
0.78904
0.788456
0.787567
0.786261
0.78431
0.782215
0.780742
0.769949
0.770583
0.771718
0.773489
0.775351
0.776968
0.778251
0.77936
0.780403
0.781388
0.782285
0.782917
0.783145
0.783008
0.782525
0.781593
0.780197
0.77861
0.777288
0.77649
0.764953
0.765391
0.766187
0.767506
0.76905
0.770643
0.77216
0.77351
0.774738
0.775928
0.777013
0.777749
0.778037
0.777887
0.77729
0.776342
0.775228
0.774114
0.773228
0.772698
0.760028
0.760355
0.760975
0.762063
0.763386
0.764821
0.766346
0.767885
0.769364
0.770789
0.772095
0.773001
0.773362
0.773223
0.772709
0.77199
0.771194
0.770377
0.769736
0.769348
0.755148
0.7554
0.755902
0.756835
0.75804
0.759391
0.76087
0.762474
0.764158
0.765866
0.767453
0.768568
0.769075
0.769107
0.768829
0.768365
0.767794
0.767213
0.766757
0.766461
0.750236
0.750436
0.750855
0.751682
0.752816
0.754128
0.755605
0.757269
0.759116
0.761099
0.76302
0.764442
0.765223
0.765531
0.76552
0.765303
0.764956
0.764578
0.764266
0.764034
0.745203
0.745364
0.745725
0.746483
0.747577
0.748882
0.750403
0.752171
0.754202
0.75648
0.758798
0.760635
0.76179
0.76243
0.762708
0.762749
0.762637
0.762448
0.762255
0.76207
0.739957
0.740086
0.740407
0.741124
0.74221
0.743553
0.745158
0.747077
0.749352
0.751992
0.754794
0.757142
0.758747
0.759773
0.760381
0.760704
0.760828
0.760827
0.760739
0.76059
0.734401
0.734504
0.734797
0.7355
0.736614
0.738038
0.739776
0.741904
0.744496
0.747592
0.750988
0.753951
0.756086
0.75756
0.758546
0.759178
0.759569
0.759753
0.759755
0.759633
0.728429
0.72851
0.728789
0.729501
0.73068
0.732228
0.734154
0.736563
0.73956
0.743223
0.747343
0.751046
0.753811
0.75581
0.757231
0.758236
0.758906
0.759275
0.759362
0.75926
0.721923
0.721984
0.722257
0.723003
0.724282
0.726003
0.728184
0.730956
0.734462
0.738824
0.743825
0.748416
0.751934
0.754554
0.756477
0.757897
0.75889
0.759464
0.759631
0.759545
0.714741
0.714779
0.715056
0.715858
0.717277
0.719227
0.721738
0.724972
0.729113
0.73433
0.740397
0.746055
0.750466
0.753822
0.756342
0.75824
0.759607
0.760401
0.760648
0.760573
0.706712
0.706731
0.707012
0.707892
0.709494
0.711739
0.714669
0.71848
0.723408
0.729672
0.737026
0.743958
0.74943
0.753651
0.756882
0.759356
0.761146
0.76218
0.762506
0.762438
0.697577
0.697585
0.697893
0.69888
0.70072
0.703337
0.706794
0.711327
0.717226
0.724769
0.733674
0.742124
0.74885
0.754091
0.758158
0.76132
0.763599
0.764894
0.765297
0.765232
0.687075
0.687056
0.687404
0.688541
0.690681
0.693772
0.697893
0.703327
0.71043
0.719537
0.730307
0.740554
0.748754
0.755197
0.76025
0.764206
0.76705
0.768627
0.769102
0.769034
0.674816
0.674777
0.675177
0.676504
0.679026
0.682724
0.68769
0.69426
0.702861
0.713883
0.726893
0.739253
0.749174
0.757013
0.763221
0.76809
0.77157
0.773438
0.773975
0.773898
0.660293
0.660232
0.660712
0.662293
0.665306
0.66979
0.675843
0.683865
0.694348
0.70772
0.723409
0.738242
0.750134
0.759571
0.767118
0.773023
0.777194
0.779345
0.779925
0.779831
0.642782
0.642698
0.643308
0.645247
0.648917
0.654445
0.661932
0.671841
0.684715
0.700981
0.719853
0.73754
0.751669
0.762912
0.771938
0.779004
0.783902
0.786297
0.786887
0.786768
0.621247
0.621147
0.621968
0.62443
0.629025
0.636002
0.645444
0.657866
0.673814
0.693645
0.716262
0.737186
0.753807
0.767039
0.777684
0.786001
0.791591
0.794149
0.794704
0.794554
0.594118
0.594019
0.595196
0.598468
0.604482
0.613575
0.625803
0.641653
0.661578
0.685768
0.712728
0.737246
0.756574
0.771945
0.784314
0.7939
0.800058
0.802642
0.803109
0.802923
0.558844
0.558803
0.560626
0.565308
0.573704
0.586149
0.602493
0.623068
0.648096
0.677519
0.709404
0.737823
0.760004
0.777604
0.791739
0.802503
0.808981
0.811404
0.811729
0.811512
0.510899
0.511096
0.514356
0.522019
0.534874
0.552854
0.575337
0.60231
0.63369
0.669198
0.706503
0.739049
0.764148
0.783966
0.799829
0.81153
0.817928
0.819969
0.820121
0.819887
0.441795
0.443308
0.451277
0.465845
0.486962
0.513785
0.544945
0.580065
0.618935
0.661209
0.704255
0.741019
0.769039
0.79096
0.808295
0.820477
0.826322
0.8278
0.827796
0.827576
0.359207
0.362127
0.377683
0.40293
0.435404
0.472633
0.513146
0.556805
0.603525
0.653058
0.702525
0.744273
0.775931
0.800531
0.819331
0.831379
0.836377
0.837366
0.837311
0.837181
0.274427
0.282027
0.305446
0.34135
0.384767
0.432191
0.482045
0.534263
0.588832
0.645566
0.701379
0.748012
0.783168
0.81039
0.830508
0.841885
0.845518
0.845954
0.845867
0.845793
0.204811
0.214615
0.242998
0.28644
0.338409
0.394429
0.45267
0.512874
0.574878
0.638404
0.700091
0.751143
0.789388
0.818655
0.839366
0.849862
0.852683
0.852941
0.852866
0.852819
0.147572
0.158146
0.190317
0.239328
0.29774
0.360589
0.425823
0.492983
0.56167
0.631415
0.698491
0.753571
0.794581
0.825591
0.846679
0.856436
0.858714
0.858873
0.858811
0.858779
0.0994753
0.110427
0.145211
0.198545
0.262185
0.330667
0.401759
0.474889
0.549466
0.62481
0.696801
0.755542
0.799059
0.831634
0.852958
0.862061
0.863972
0.86407
0.864012
0.863988
0.0581009
0.0692177
0.105941
0.16273
0.230715
0.304006
0.38018
0.45855
0.53838
0.618786
0.695254
0.757322
0.803076
0.836973
0.858381
0.866946
0.868608
0.868659
0.868596
0.868571
0.0217305
0.0329011
0.071135
0.130776
0.202454
0.279913
0.360583
0.44367
0.528301
0.613373
0.693961
0.759019
0.806704
0.841648
0.863038
0.871155
0.872649
0.872668
0.872597
0.872566
-0.0108986
0.000284507
0.0397092
0.101802
0.176688
0.257815
0.342505
0.429902
0.518992
0.608466
0.692921
0.760698
0.810031
0.845758
0.866998
0.874719
0.876104
0.876113
0.876045
0.876009
-0.0408214
-0.0296096
0.0108632
0.0751263
0.152864
0.237255
0.325571
0.416934
0.510219
0.603917
0.692104
0.762435
0.813187
0.849436
0.870374
0.877718
0.879032
0.879065
0.879024
0.878993
-0.0686249
-0.0573752
-0.0159723
0.0502425
0.13053
0.21786
0.309483
0.404518
0.501779
0.599595
0.691496
0.764326
0.81634
0.852886
0.873376
0.880331
0.881596
0.881688
0.881705
0.881692
-0.0948061
-0.0835085
-0.0412401
0.0267517
0.109344
0.199339
0.293996
0.392454
0.49351
0.595385
0.691089
0.766486
0.819691
0.856358
0.876273
0.882816
0.884041
0.884217
0.884315
0.884334
-0.11977
-0.108337
-0.0652631
0.00436947
0.0890539
0.181468
0.27892
0.380583
0.485263
0.591174
0.690857
0.76902
0.82345
0.860117
0.879352
0.885455
0.886626
0.886888
0.887076
0.887135
-0.143667
-0.13208
-0.0882405
-0.0171093
0.0694774
0.1641
0.264118
0.368769
0.476914
0.586829
0.690726
0.772013
0.827814
0.8644
0.882838
0.888457
0.889552
0.889885
0.890152
0.890251
-0.166711
-0.154919
-0.110348
-0.0378118
0.0504973
0.14712
0.249489
0.356916
0.468356
0.58223
0.690576
0.775483
0.832971
0.86944
0.886909
0.891919
0.892912
0.893297
0.893611
0.893738
-0.188919
-0.17694
-0.131671
-0.0578179
0.0320411
0.130463
0.234976
0.344961
0.459504
0.577246
0.690248
0.779368
0.839098
0.875504
0.891678
0.895821
0.896651
0.897101
0.897436
0.897561
-0.210417
-0.198207
-0.152225
-0.0771704
0.0140618
0.114093
0.22054
0.332869
0.450302
0.571768
0.689564
0.783522
0.846298
0.882953
0.897437
0.900104
0.900513
0.901097
0.901564
0.901709
-0.231084
-0.218727
-0.172045
-0.0959086
-0.00345404
0.0980199
0.206178
0.320622
0.440716
0.565721
0.688337
0.787725
0.854556
0.892223
0.904826
0.905109
0.904347
0.905042
0.906146
0.906627
-0.25109
-0.238509
-0.191149
-0.114057
-0.0205225
0.082229
0.19192
0.30823
0.430738
0.559058
0.686395
0.79169
0.863697
0.903618
0.914882
0.912181
0.909068
0.909379
0.911833
0.91354
-0.270326
-0.257519
-0.209561
-0.131605
-0.0371014
0.066762
0.1778
0.29575
0.42039
0.551727
0.683596
0.795085
0.873364
0.917124
0.928459
0.923292
0.917169
0.916085
0.91983
0.924097
-0.288879
-0.275854
-0.227257
-0.148524
-0.0531873
0.0516508
0.163864
0.283214
0.409713
0.543759
0.679834
0.797541
0.883038
0.932238
0.945531
0.939574
0.93092
0.92635
0.924536
0.920173
-0.306679
-0.293496
-0.24433
-0.164993
-0.0690067
0.036619
0.149792
0.270245
0.39831
0.534736
0.67473
0.79871
0.892626
0.949154
0.966319
0.961514
0.951287
0.939857
0.927358
0.927925
-0.323723
-0.310546
-0.26081
-0.180968
-0.0845654
0.0216845
0.135593
0.256795
0.386103
0.524457
0.66794
0.797803
0.900924
0.966799
0.988812
0.985992
0.973096
0.958697
0.921725
0.88483
-0.339837
-0.326875
-0.276691
-0.196332
-0.0998833
0.00682319
0.121239
0.242966
0.373106
0.512865
0.65919
0.79409
0.906033
0.983195
1.01027
1.00545
0.988203
0.954399
0.899837
0.847756
-0.357717