/*--------------------------------*- C++ -*----------------------------------*\
  =========                 |
  \\      /  F ield         | OpenFOAM: The Open Source CFD Toolbox
   \\    /   O peration     | Website:  https://openfoam.org
    \\  /    A nd           | Version:  6
     \\/     M anipulation  |
\*---------------------------------------------------------------------------*/
FoamFile
{
    version     2.0;
    format      ascii;
    class       volVectorField;
    location    "40.9";
    object      U;
}
// * * * * * * * * * * * * * * * * * * * * * * * * * * * * * * * * * * * * * //

dimensions      [0 1 -1 0 0 0 0];

internalField   nonuniform List<vector> 
8800
(
(0.987188 -0.0766664 0)
(1.0019 -0.0551908 0)
(0.999747 -0.028549 0)
(1.00004 -0.0151418 0)
(1.00006 -0.00853814 0)
(1.00006 -0.00503833 0)
(1.00004 -0.00300655 0)
(1.00001 -0.00172058 0)
(0.999995 -0.000818831 0)
(1.00005 -0.000105922 0)
(0.999988 0.000615679 0)
(0.999997 0.00137469 0)
(1.00001 0.00240192 0)
(1.00002 0.00398646 0)
(1.00002 0.00662615 0)
(1 0.0113654 0)
(0.999894 0.0208097 0)
(0.999147 0.0386679 0)
(1.00709 0.0724556 0)
(0.771213 0.0366606 0)
(0.363047 -0.0160195 0)
(1.04329 -0.0768283 0)
(1.0846 -0.0704681 0)
(1.04521 -0.053569 0)
(1.02326 -0.0389223 0)
(1.01195 -0.0262469 0)
(1.00636 -0.0169041 0)
(1.00356 -0.0104015 0)
(1.00214 -0.00575858 0)
(1.00144 -0.00211555 0)
(1.00131 0.00120674 0)
(1.00168 0.00458744 0)
(1.00266 0.0085203 0)
(1.00463 0.0138692 0)
(1.00858 0.0215996 0)
(1.01654 0.0325855 0)
(1.03246 0.0465053 0)
(1.06263 0.061629 0)
(1.09188 0.0760777 0)
(0.838704 0.0565522 0)
(0.21678 -0.00243243 0)
(1.07586 -0.0501701 0)
(1.09987 -0.0483613 0)
(1.06462 -0.0405199 0)
(1.03996 -0.033665 0)
(1.02381 -0.0261589 0)
(1.01404 -0.0186153 0)
(1.0085 -0.0118233 0)
(1.00556 -0.00597621 0)
(1.00433 -0.000587282 0)
(1.00468 0.00464007 0)
(1.00661 0.0100318 0)
(1.0106 0.0161451 0)
(1.01792 0.0232058 0)
(1.03054 0.0307023 0)
(1.05063 0.0377544 0)
(1.08034 0.0444537 0)
(1.10628 0.0512875 0)
(0.942627 0.0415881 0)
(0.216235 0.00245807 0)
(0.175064 -0.000819655 0)
(1.01756 -0.0355334 0)
(1.10514 -0.041458 0)
(1.07819 -0.0361588 0)
(1.05333 -0.0302389 0)
(1.03604 -0.0246884 0)
(1.02389 -0.0190036 0)
(1.01581 -0.0129624 0)
(1.01097 -0.00680544 0)
(1.0088 -0.000496789 0)
(1.00941 0.00574819 0)
(1.01268 0.0117459 0)
(1.01889 0.0176005 0)
(1.02878 0.023217 0)
(1.04324 0.0285606 0)
(1.06377 0.0340729 0)
(1.09359 0.0400749 0)
(1.0935 0.0418673 0)
(0.827403 0.0228721 0)
(0.174146 0.000848237 0)
(0.153811 -0.000614091 0)
(0.955902 -0.0255236 0)
(1.10333 -0.0352408 0)
(1.08756 -0.0327849 0)
(1.06154 -0.0281427 0)
(1.0439 -0.023148 0)
(1.03146 -0.0179631 0)
(1.02266 -0.0124855 0)
(1.0169 -0.00659428 0)
(1.01411 -0.000163647 0)
(1.01483 0.00627404 0)
(1.01882 0.0121538 0)
(1.02583 0.0174701 0)
(1.03614 0.0224288 0)
(1.05075 0.0272421 0)
(1.072 0.0318231 0)
(1.10018 0.0357971 0)
(1.06831 0.0339051 0)
(0.740009 0.014261 0)
(0.152432 0.000646394 0)
(0.139379 -0.000470548 0)
(0.898806 -0.0191528 0)
(1.09553 -0.0302197 0)
(1.09554 -0.0293735 0)
(1.06898 -0.0256848 0)
(1.05052 -0.0216034 0)
(1.03765 -0.0168914 0)
(1.02861 -0.0116512 0)
(1.02255 -0.00595464 0)
(1.01949 0.000324983 0)
(1.02018 0.00660817 0)
(1.02432 0.0122424 0)
(1.03147 0.0172516 0)
(1.04198 0.0217961 0)
(1.05717 0.0258219 0)
(1.0794 0.0293262 0)
(1.10248 0.0319831 0)
(1.03642 0.0279483 0)
(0.673732 0.010143 0)
(0.137439 0.000507795 0)
(0.128772 -0.00036552 0)
(0.848985 -0.0148003 0)
(1.08298 -0.0261109 0)
(1.1011 -0.026447 0)
(1.07572 -0.0231922 0)
(1.05674 -0.0196031 0)
(1.04342 -0.0154507 0)
(1.03402 -0.0106338 0)
(1.02775 -0.00518515 0)
(1.02452 0.000917849 0)
(1.0251 0.00700595 0)
(1.02922 0.0123556 0)
(1.03648 0.0169262 0)
(1.04732 0.0208297 0)
(1.06292 0.0241883 0)
(1.08558 0.0272167 0)
(1.10172 0.0290484 0)
(1.00182 0.0233765 0)
(0.622275 0.00775923 0)
(0.12615 0.00040918 0)
(0.120656 -0.000285361 0)
(0.806576 -0.0116518 0)
(1.0675 -0.0225324 0)
(1.1045 -0.0238795 0)
(1.08187 -0.0210734 0)
(1.06246 -0.0177314 0)
(1.04885 -0.0138778 0)
(1.0392 -0.0093696 0)
(1.03266 -0.00419842 0)
(1.02922 0.00163283 0)
(1.02966 0.00741612 0)
(1.03376 0.0124135 0)
(1.0411 0.0165581 0)
(1.05207 0.0200214 0)
(1.06793 0.0229782 0)
(1.09096 0.025689 0)
(1.09812 0.0266144 0)
(0.966994 0.0197636 0)
(0.581111 0.00620033 0)
(0.117206 0.000337151 0)
(0.114345 -0.000222405 0)
(0.770823 -0.00929357 0)
(1.05046 -0.019366 0)
(1.10667 -0.0214628 0)
(1.08754 -0.0190434 0)
(1.06779 -0.0158597 0)
(1.05397 -0.0122063 0)
(1.0441 -0.00796487 0)
(1.03731 -0.00307966 0)
(1.03362 0.0024952 0)
(1.03389 0.00799165 0)
(1.03793 0.0125918 0)
(1.04527 0.0162862 0)
(1.05626 0.0193311 0)
(1.0723 0.0219639 0)
(1.09502 0.02437 0)
(1.09177 0.0245308 0)
(0.933281 0.0169382 0)
(0.547253 0.00512265 0)
(0.109889 0.00028463 0)
(0.109407 -0.000172064 0)
(0.740788 -0.00746197 0)
(1.033 -0.0165693 0)
(1.10794 -0.0192103 0)
(1.09297 -0.0170911 0)
(1.07288 -0.0140035 0)
(1.05877 -0.0104663 0)
(1.04875 -0.00637923 0)
(1.04179 -0.0017101 0)
(1.03787 0.00354881 0)
(1.03789 0.00865909 0)
(1.04172 0.0128738 0)
(1.04892 0.0162128 0)
(1.05993 0.0189201 0)
(1.07626 0.0212571 0)
(1.09794 0.0233381 0)
(1.08316 0.0227715 0)
(0.901307 0.0147501 0)
(0.518697 0.00435517 0)
(0.103729 0.000246895 0)
(0.105559 -0.00012983 0)
(0.715684 -0.00597481 0)
(1.01587 -0.0140307 0)
(1.10826 -0.0170192 0)
(1.09821 -0.0152611 0)
(1.07789 -0.0122344 0)
(1.06353 -0.00871832 0)
(1.05329 -0.00470202 0)
(1.0461 -0.000197165 0)
(1.04188 0.00480233 0)
(1.04161 0.00957094 0)
(1.04522 0.0134028 0)
(1.05227 0.0163907 0)
(1.06327 0.0188136 0)
(1.07972 0.0208892 0)
(1.09952 0.0225389 0)
(1.0726 0.0212755 0)
(0.871239 0.0130584 0)
(0.494046 0.00380237 0)
(0.0983909 0.000220378 0)
(0.102616 -9.32972e-05 0)
(0.69489 -0.00472177 0)
(0.999782 -0.0117062 0)
(1.10787 -0.0148059 0)
(1.1032 -0.0132104 0)
(1.08281 -0.0101743 0)
(1.06816 -0.00674408 0)
(1.05767 -0.00285606 0)
(1.05021 0.00151046 0)
(1.04566 0.00631704 0)
(1.04502 0.0108028 0)
(1.04829 0.0142905 0)
(1.05516 0.0168935 0)
(1.06614 0.0189253 0)
(1.08277 0.020682 0)
(1.1002 0.0219689 0)
(1.06053 0.0200734 0)
(0.843026 0.011792 0)
(0.472275 0.00341582 0)
(0.0936338 0.000203678 0)
(0.100458 -5.97862e-05 0)
(0.677951 -0.00361495 0)
(0.985147 -0.00952243 0)
(1.10701 -0.0125998 0)
(1.10804 -0.0111839 0)
(1.08774 -0.00812719 0)
(1.07271 -0.00463453 0)
(1.06194 -0.00071241 0)
(1.05416 0.00358266 0)
(1.04919 0.00815381 0)
(1.0481 0.0122746 0)
(1.05101 0.0153729 0)
(1.05762 0.0176178 0)
(1.06857 0.0193386 0)
(1.08535 0.0208414 0)
(1.09987 0.0217398 0)
(1.04717 0.0191694 0)
(0.816419 0.010861 0)
(0.452596 0.00315136 0)
(0.0892621 0.000194117 0)
(0.0990275 -2.64852e-05 0)
(0.664604 -0.00257432 0)
(0.972359 -0.00737363 0)
(1.10583 -0.010207 0)
(1.11261 -0.00889683 0)
(1.09275 -0.00582452 0)
(1.07737 -0.00224304 0)
(1.0662 0.00172462 0)
(1.05794 0.00596239 0)
(1.05242 0.0103908 0)
(1.05078 0.0142499 0)
(1.05328 0.0169493 0)
(1.0597 0.0188133 0)
(1.07061 0.0201799 0)
(1.08737 0.021318 0)
(1.09846 0.021753 0)
(1.03264 0.0184821 0)
(0.791147 0.0101944 0)
(0.43441 0.00298022 0)
(0.0851259 0.000190225 0)
(0.0983142 8.41839e-06 0)
(0.654716 -0.00154228 0)
(0.961804 -0.0052057 0)
(1.10485 -0.00760861 0)
(1.1172 -0.00623862 0)
(1.09788 -0.00306089 0)
(1.08212 0.000611808 0)
(1.07053 0.0046151 0)
(1.06179 0.00885374 0)
(1.05565 0.0131228 0)
(1.05332 0.016629 0)
(1.05524 0.0189146 0)
(1.06128 0.0202843 0)
(1.0721 0.0211754 0)
(1.08885 0.0220095 0)
(1.09588 0.0220109 0)
(1.01714 0.0180891 0)
(0.766919 0.00977998 0)
(0.417234 0.00289477 0)
(0.0811154 0.000192072 0)
(0.0983305 3.97921e-05 0)
(0.648285 -0.000485743 0)
(0.953749 -0.00295272 0)
(1.10436 -0.00479358 0)
(1.122 -0.003339 0)
(1.10323 -4.39692e-05 0)
(1.08699 0.00380353 0)
(1.07493 0.00800151 0)
(1.06556 0.012325 0)
(1.0586 0.0164615 0)
(1.05545 0.0196199 0)
(1.05674 0.0214687 0)
(1.06233 0.0224 0)
(1.07303 0.0228367 0)
(1.08962 0.0231965 0)
(1.09204 0.0226555 0)
(1.00062 0.0179834 0)
(0.743354 0.00958259 0)
(0.400633 0.00288557 0)
(0.0771044 0.000199349 0)
(0.0991583 9.07022e-05 0)
(0.645444 0.000618735 0)
(0.948517 -0.000530214 0)
(1.10457 -0.00162265 0)
(1.12698 -3.14371e-06 0)
(1.10884 0.00345384 0)
(1.09214 0.00759666 0)
(1.07945 0.0120249 0)
(1.06929 0.0164428 0)
(1.06137 0.0205251 0)
(1.0572 0.0233981 0)
(1.05766 0.0247303 0)
(1.06276 0.025078 0)
(1.07329 0.0249982 0)
(1.08929 0.0248709 0)
(1.08674 0.0236112 0)
(0.982972 0.0181598 0)
(0.720108 0.00960979 0)
(0.384197 0.00295021 0)
(0.0729953 0.0002113 0)
(0.100934 0.000142627 0)
(0.646503 0.00180935 0)
(0.946562 0.00212264 0)
(1.10609 0.00202557 0)
(1.13241 0.00407762 0)
(1.11488 0.00786032 0)
(1.09765 0.0122915 0)
(1.08417 0.0169539 0)
(1.073 0.021524 0)
(1.06385 0.0255179 0)
(1.05846 0.0279857 0)
(1.058 0.0287249 0)
(1.06249 0.0284245 0)
(1.07277 0.0277169 0)
(1.08788 0.0269944 0)
(1.07978 0.0249488 0)
(0.964194 0.0187011 0)
(0.696763 0.00986396 0)
(0.367531 0.00309021 0)
(0.0686868 0.000228353 0)
(0.103787 0.000202941 0)
(0.651977 0.00325071 0)
(0.948326 0.00511627 0)
(1.10944 0.00613753 0)
(1.13871 0.00871346 0)
(1.12149 0.0129262 0)
(1.10357 0.0177883 0)
(1.08928 0.0228497 0)
(1.07705 0.0276864 0)
(1.06647 0.0316194 0)
(1.05951 0.0336494 0)
(1.05777 0.0337714 0)
(1.06142 0.0327257 0)
(1.07135 0.0313163 0)
(1.08523 0.0298546 0)
(1.0711 0.0268948 0)
(0.943946 0.0196624 0)
(0.672838 0.0103802 0)
(0.350206 0.00331168 0)
(0.0640701 0.000250407 0)
(0.107993 0.000287967 0)
(0.66231 0.00497097 0)
(0.954007 0.00852745 0)
(1.11488 0.0109586 0)
(1.14585 0.0141062 0)
(1.1288 0.018881 0)
(1.1101 0.0243968 0)
(1.09464 0.0300271 0)
(1.08083 0.0351812 0)
(1.06835 0.0391002 0)
(1.05962 0.0406665 0)
(1.05658 0.0399906 0)
(1.05928 0.0381315 0)
(1.06876 0.035965 0)
(1.08106 0.0336596 0)
(1.06026 0.0294562 0)
(0.921895 0.0211155 0)
(0.647759 0.0111815 0)
(0.331758 0.00361259 0)
(0.0590532 0.000275127 0)
(0.113901 0.000399872 0)
(0.678168 0.0070781 0)
(0.964677 0.0127108 0)
(1.12303 0.0167152 0)
(1.15423 0.0207571 0)
(1.13717 0.0263907 0)
(1.11755 0.0326738 0)
(1.10067 0.0389367 0)
(1.08507 0.0444633 0)
(1.07041 0.0482532 0)
(1.05941 0.0491462 0)
(1.05463 0.0475663 0)
(1.05615 0.044766 0)
(1.06499 0.0416966 0)
(1.07524 0.0384777 0)
(1.04697 0.0328814 0)
(0.89759 0.0232576 0)
(0.620767 0.0123559 0)
(0.311622 0.00401217 0)
(0.0535538 0.000302495 0)
(0.121985 0.000552862 0)
(0.700335 0.00976314 0)
(0.980836 0.0177436 0)
(1.13463 0.0235519 0)
(1.16454 0.0288232 0)
(1.14689 0.0356677 0)
(1.12597 0.0428945 0)
(1.10723 0.0499116 0)
(1.08925 0.0558346 0)
(1.07182 0.0594326 0)
(1.05824 0.0594852 0)
(1.05152 0.0567805 0)
(1.05177 0.0528495 0)
(1.05986 0.0487932 0)
(1.06759 0.0446321 0)
(1.03092 0.0374786 0)
(0.870306 0.0262655 0)
(0.59087 0.0139967 0)
(0.28908 0.00452493 0)
(0.0474762 0.000332959 0)
(0.132944 0.000774246 0)
(0.729912 0.0133764 0)
(1.00343 0.0240752 0)
(1.15035 0.03198 0)
(1.17738 0.0387668 0)
(1.15832 0.0471942 0)
(1.13555 0.055632 0)
(1.11438 0.0635588 0)
(1.09343 0.0698404 0)
(1.07267 0.0730347 0)
(1.05611 0.0719769 0)
(1.04713 0.0678948 0)
(1.04589 0.0627029 0)
(1.05323 0.0574813 0)
(1.05796 0.052242 0)
(1.01159 0.0433908 0)
(0.839218 0.0302391 0)
(0.556863 0.0160947 0)
(0.263388 0.00512923 0)
(0.0407254 0.000364863 0)
(0.147967 0.00112201 0)
(0.768738 0.0185752 0)
(1.03396 0.0325632 0)
(1.17101 0.043009 0)
(1.1935 0.0518216 0)
(1.17194 0.062079 0)
(1.14657 0.0719032 0)
(1.12217 0.0806775 0)
(1.09753 0.0870454 0)
(1.07286 0.0894883 0)
(1.05288 0.0869469 0)
(1.04143 0.0811543 0)
(1.03854 0.0744811 0)
(1.04478 0.0679658 0)
(1.04588 0.0614411 0)
(0.98841 0.0507011 0)
(0.803314 0.0351956 0)
(0.517524 0.0185457 0)
(0.234017 0.00577002 0)
(0.0332744 0.000393959 0)
(0.169154 0.00172632 0)
(0.819811 0.0265147 0)
(1.07524 0.0448066 0)
(1.19772 0.0585744 0)
(1.21345 0.0702254 0)
(1.18785 0.0823082 0)
(1.15871 0.093384 0)
(1.13 0.102514 0)
(1.10085 0.108272 0)
(1.07173 0.109128 0)
(1.04804 0.104408 0)
(1.03403 0.0965728 0)
(1.02945 0.0882184 0)
(1.03426 0.080378 0)
(1.03087 0.0723613 0)
(0.960539 0.0594098 0)
(0.761293 0.0409055 0)
(0.472013 0.0211426 0)
(0.200958 0.00635472 0)
(0.0252323 0.00041162 0)
(0.199826 0.00306618 0)
(0.88877 0.039935 0)
(1.13013 0.0646197 0)
(1.231 0.0821855 0)
(1.2373 0.0968337 0)
(1.20558 0.110288 0)
(1.17121 0.121682 0)
(1.13718 0.130017 0)
(1.10284 0.134038 0)
(1.06886 0.13224 0)
(1.04133 0.124545 0)
(1.02478 0.114203 0)
(1.01869 0.103979 0)
(1.02196 0.0947218 0)
(1.01257 0.0850521 0)
(0.926644 0.0692541 0)
(0.711899 0.0469395 0)
(0.420565 0.0236646 0)
(0.165319 0.00681923 0)
(0.0170153 0.000407948 0)
(0.241698 0.00921277 1.1369e-20)
(0.979538 0.0666502 9.70698e-21)
(1.19629 0.0984897 -3.36231e-21)
(1.26819 0.117515 0)
(1.26234 0.134997 -8.28778e-35)
(1.22297 0.148021 1.20478e-21)
(1.18248 0.15796 -2.13631e-21)
(1.14254 0.164165 0)
(1.10256 0.165505 4.31026e-35)
(1.0633 0.160541 -2.57365e-21)
(1.03159 0.149669 0)
(1.01218 0.136731 -3.02383e-21)
(1.00445 0.124506 -8.89965e-21)
(1.00612 0.113945 -4.19998e-21)
(0.988655 0.102468 -1.26238e-21)
(0.882586 0.0827935 -7.49924e-22)
(0.649904 0.0548139 0)
(0.360588 0.0268927 5.26655e-22)
(0.128015 0.00793659 6.24003e-22)
(0.00921264 0.00054791 1.13684e-20)
(0.270354 0.0243438 8.77743e-21)
(1.05429 0.108933 1.0576e-22)
(1.2502 0.146974 9.18457e-22)
(1.30204 0.165942 0)
(1.28435 0.183334 -4.28242e-21)
(1.23788 0.194257 -4.81697e-21)
(1.19127 0.20202 -2.17401e-21)
(1.1453 0.205984 -7.63315e-21)
(1.09939 0.204854 0)
(1.05426 0.197055 1.09795e-20)
(1.01737 0.183137 1.08316e-20)
(0.994069 0.167636 3.21049e-21)
(0.9832 0.153251 1.16411e-20)
(0.979737 0.139946 1.62965e-20)
(0.951906 0.124938 0)
(0.823603 0.100622 2.30154e-20)
(0.577384 0.0652731 3.31101e-20)
(0.299576 0.0316987 3.68825e-20)
(0.0944353 0.00931858 -4.23416e-20)
(0.002584 0.000306041 -8.04649e-22)
(0.271437 0.0407262 0)
(1.10142 0.163875 1.62579e-21)
(1.28659 0.206446 0)
(1.32819 0.225374 -5.8815e-21)
(1.3015 0.23957 0)
(1.2491 0.246707 -9.60008e-21)
(1.19687 0.250986 4.47743e-21)
(1.1452 0.251756 -1.5502e-20)
(1.09359 0.247335 -3.15334e-22)
(1.04266 0.235824 5.71728e-21)
(1.00056 0.218079 2.38468e-20)
(0.973351 0.199434 -6.02738e-23)
(0.959417 0.183014 -8.47025e-21)
(0.952096 0.168678 -1.54097e-20)
(0.916495 0.151221 1.82661e-20)
(0.780096 0.120949 -3.24159e-20)
(0.537738 0.0783643 -4.3036e-21)
(0.276888 0.0386985 0)
(0.0873107 0.0117837 3.03002e-26)
(0.0015818 0.000200489 0)
(0.265006 0.0546566 2.40749e-20)
(1.12666 0.222558 -1.12526e-20)
(1.30917 0.270842 -8.08129e-21)
(1.34514 0.290193 2.84675e-21)
(1.31234 0.300445 -4.74598e-21)
(1.25564 0.30331 2.02209e-20)
(1.19887 0.303554 9.39926e-21)
(1.14221 0.30046 0)
(1.08532 0.292124 -2.89716e-20)
(1.02889 0.276497 0)
(0.981891 0.255243 -1.25743e-20)
(0.951002 0.234386 -1.54223e-20)
(0.934678 0.216826 -9.2467e-21)
(0.924423 0.201231 -1.1215e-20)
(0.882973 0.179808 0)
(0.747758 0.143701 0)
(0.52004 0.0954458 -2.81945e-20)
(0.277456 0.0501249 5.58723e-21)
(0.0935906 0.0165763 -3.27496e-21)
(0.00347209 0.000598861 -3.87829e-21)
(0.257701 0.0670224 -1.14223e-20)
(1.13779 0.281206 0)
(1.32173 0.336425 1.7425e-20)
(1.35418 0.356509 8.23597e-21)
(1.3171 0.363067 1.08399e-20)
(1.25735 0.361786 0)
(1.19702 0.357931 9.31505e-21)
(1.13621 0.35069 1.72876e-20)
(1.07472 0.338223 1.49271e-20)
(1.01352 0.31868 2.69923e-20)
(0.962278 0.294636 0)
(0.928158 0.272311 -3.33243e-20)
(0.908951 0.253454 -2.00211e-20)
(0.894415 0.235192 -1.18234e-20)
(0.849032 0.209297 7.25972e-20)
(0.722007 0.169033 8.68359e-21)
(0.512953 0.116295 4.09994e-20)
(0.28592 0.064607 -1.94466e-19)
(0.105401 0.0237953 1.15366e-19)
(0.00719514 0.00167622 -1.40821e-19)
(0.250906 0.0782023 -7.67705e-21)
(1.1401 0.337919 2.11756e-21)
(1.32713 0.40124 -2.09537e-21)
(1.35712 0.422396 -9.04098e-21)
(1.31687 0.425591 -9.56499e-21)
(1.25483 0.420385 3.55315e-22)
(1.19162 0.412486 -1.00837e-20)
(1.12736 0.401113 1.79657e-20)
(1.06207 0.384618 -3.2137e-20)
(0.996958 0.36149 0)
(0.942243 0.334794 -1.51443e-20)
(0.905022 0.310459 -3.23646e-22)
(0.882187 0.28939 -2.18948e-20)
(0.86259 0.26783 0)
(0.815333 0.238702 -1.57299e-20)
(0.699445 0.195925 -3.75337e-20)
(0.508554 0.139273 1.00831e-19)
(0.295436 0.0811375 -9.943e-20)
(0.117521 0.0324843 1.41526e-19)
(0.0111104 0.00319292 -1.48941e-19)
(0.245328 0.0886057 -1.04905e-22)
(1.13693 0.39202 -1.36449e-21)
(1.32743 0.464207 -6.84698e-21)
(1.35544 0.486663 3.93106e-21)
(1.31274 0.486843 -4.86803e-21)
(1.24887 0.477928 0)
(1.18327 0.466107 -9.55609e-21)
(1.11615 0.450793 -1.88552e-20)
(1.04777 0.430521 -1.67521e-20)
(0.979436 0.403934 0)
(0.921678 0.374167 -1.57499e-20)
(0.881419 0.346879 -1.93994e-20)
(0.854714 0.322708 2.37355e-20)
(0.830806 0.298119 -1.43964e-20)
(0.783757 0.26704 -6.85687e-20)
(0.678177 0.222792 4.10328e-20)
(0.502942 0.162683 1.23323e-20)
(0.302247 0.0980239 0)
(0.126985 0.0416015 -1.36731e-19)
(0.0142986 0.00483695 -5.07708e-21)
(0.241017 0.0985403 -4.23246e-22)
(1.1304 0.443344 8.82673e-22)
(1.32399 0.524744 3.38181e-21)
(1.35028 0.548616 1.35575e-20)
(1.30562 0.546081 -1.84913e-20)
(1.24022 0.533677 2.01869e-20)
(1.17262 0.518158 2.05374e-20)
(1.10315 0.499194 -3.01248e-20)
(1.03219 0.475425 1.02041e-20)
(0.961023 0.445345 -6.63755e-20)
(0.900384 0.411943 -1.77436e-20)
(0.857189 0.381115 0)
(0.82698 0.35366 2.57069e-20)
(0.799847 0.326723 3.07526e-20)
(0.753827 0.294385 3.68383e-20)
(0.657195 0.248835 -4.44726e-20)
(0.494799 0.185327 -1.32093e-20)
(0.304281 0.114341 1.55717e-20)
(0.132515 0.0501646 0)
(0.0164849 0.00638 -1.09985e-20)
(0.237812 0.108094 -3.0715e-22)
(1.12203 0.491936 -1.36882e-21)
(1.318 0.583187 -3.23527e-21)
(1.34249 0.607893 8.56365e-21)
(1.29623 0.60286 -8.63812e-21)
(1.22954 0.587196 -8.21357e-22)
(1.16028 0.568313 -2.23472e-20)
(1.08887 0.546072 -1.0875e-20)
(1.01565 0.519062 -2.90511e-20)
(0.94184 0.485413 4.93448e-23)
(0.87835 0.448032 -5.55985e-20)
(0.832405 0.413493 4.65951e-20)
(0.79937 0.383028 -2.81594e-20)
(0.770133 0.354305 3.37912e-20)
(0.725386 0.321085 0)
(0.635038 0.273938 -2.40383e-20)
(0.48333 0.206804 -1.03582e-22)
(0.301269 0.129047 -6.765e-20)
(0.133247 0.0573168 -9.99003e-21)
(0.017425 0.00757268 0)
(0.235604 0.117475 0)
(1.1127 0.538021 -6.63949e-22)
(1.3099 0.638753 -4.54883e-21)
(1.33275 0.664316 -8.16709e-21)
(1.28515 0.656968 -1.0529e-20)
(1.21736 0.638305 0)
(1.14676 0.616435 -1.03595e-20)
(1.07371 0.591315 -2.3744e-22)
(0.998429 0.561316 6.21778e-20)
(0.922013 0.524077 -9.13241e-21)
(0.855702 0.482631 -4.0101e-20)
(0.807235 0.444437 2.427e-20)
(0.772029 0.411195 -4.2181e-22)
(0.741538 0.380781 3.59069e-20)
(0.697917 0.34629 2.21357e-20)
(0.612221 0.296694 -5.18617e-20)
(0.468711 0.225304 6.1675e-20)
(0.293436 0.140876 1.82978e-20)
(0.130223 0.0622717 7.57868e-20)
(0.0172218 0.00823859 -2.05089e-19)
(0.234317 0.126805 -1.77551e-21)
(1.10307 0.5818 1.34691e-21)
(1.30033 0.691525 -1.1093e-22)
(1.32155 0.717838 7.01486e-21)
(1.27284 0.708327 0)
(1.20416 0.686952 -9.67014e-21)
(1.13247 0.662501 3.44917e-20)
(1.058 0.634881 2.38638e-20)
(0.980766 0.602137 0)
(0.901729 0.561391 -1.31043e-19)
(0.832603 0.515953 1.08252e-19)
(0.781814 0.474224 0)
(0.744911 0.438301 3.27845e-20)
(0.713602 0.406009 -4.14639e-22)
(0.670724 0.369703 -7.05918e-20)
(0.58832 0.317027 2.77008e-20)
(0.450928 0.240851 0)
(0.281389 0.149618 9.85674e-20)
(0.123633 0.0648671 0)
(0.015982 0.00834235 -9.68504e-20)
(0.233784 0.136125 2.61661e-21)
(1.09353 0.623453 3.1291e-21)
(1.28968 0.741514 2.2804e-22)
(1.30931 0.768459 0)
(1.25967 0.756955 -9.43027e-21)
(1.19032 0.733179 0)
(1.11776 0.706531 -3.43555e-20)
(1.042 0.67675 -1.1236e-20)
(0.962876 0.641507 1.10137e-20)
(0.881199 0.597443 -6.47874e-20)
(0.809233 0.54818 1.11984e-20)
(0.756229 0.502998 0)
(0.717896 0.464335 -6.99723e-20)
(0.685975 0.4299 4.18076e-22)
(0.643495 0.391302 0)
(0.563219 0.334962 4.01444e-22)
(0.430149 0.253074 8.95727e-20)
(0.265455 0.154895 -8.50773e-20)
(0.114116 0.0653706 2.51889e-20)
(0.0140993 0.007979 0)
(0.233676 0.145335 0)
(1.0843 0.663079 4.67937e-21)
(1.27834 0.788804 1.71413e-21)
(1.29635 0.816242 -4.87455e-22)
(1.24597 0.802914 -3.59059e-21)
(1.17615 0.777054 -2.15883e-20)
(1.10289 0.748562 1.27551e-20)
(1.02595 0.716917 -1.31008e-20)
(0.94497 0.679419 4.89312e-20)
(0.860616 0.632303 -1.03415e-19)
(0.785741 0.579439 -7.21535e-22)
(0.730512 0.530835 -3.07678e-20)
(0.690879 0.48926 1.13377e-19)
(0.658442 0.452363 -4.89177e-22)
(0.61609 0.410912 -5.46199e-20)
(0.53691 0.350143 -9.77603e-20)
(0.406679 0.261814 0)
(0.246222 0.156659 0)
(0.10229 0.0636163 2.71639e-20)
(0.0117772 0.0071727 -1.61171e-20)
(0.234114 0.154549 4.75848e-21)
(1.0756 0.700565 -1.16616e-20)
(1.26659 0.833475 -1.92698e-21)
(1.28296 0.861255 0)
(1.232 0.846285 -3.28272e-22)
(1.16188 0.818654 -2.02609e-20)
(1.08806 0.788629 3.11451e-20)
(1.01003 0.75538 5.19529e-20)
(0.927231 0.715879 6.36598e-20)
(0.840178 0.666028 -8.45026e-20)
(0.762282 0.609824 -9.27946e-20)
(0.704711 0.557812 8.22656e-20)
(0.663758 0.513089 0)
(0.630804 0.473309 -2.47792e-20)
(0.588321 0.428396 -5.9072e-20)
(0.509433 0.36239 -7.01598e-20)
(0.380868 0.266805 -8.34571e-20)
(0.224486 0.154927 2.47446e-20)
(0.0887937 0.0596293 -1.46103e-20)
(0.00909457 0.00595334 5.6719e-23)
(0.234869 0.163568 0)
(1.06751 0.736438 0)
(1.25465 0.875611 5.46479e-22)
(1.26937 0.903589 0)
(1.21798 0.887173 9.12837e-21)
(1.14772 0.858062 1.41512e-20)
(1.07345 0.826762 0)
(0.994405 0.792137 6.23052e-21)
(0.909833 0.750894 1.06281e-19)
(0.820074 0.698661 -1.94145e-19)
(0.739021 0.639426 0)
(0.678885 0.584036 -5.28741e-20)
(0.636444 0.535875 -5.92482e-22)
(0.602872 0.492707 -4.76528e-22)
(0.560054 0.443643 6.30879e-20)
(0.48083 0.371535 -7.0998e-23)
(0.352793 0.267947 -1.7958e-19)
(0.200687 0.149669 5.32187e-20)
(0.0747082 0.0539501 1.57852e-20)
(0.00639478 0.00449756 0)
(0.235666 0.172461 -2.19041e-20)
(1.0598 0.770668 -9.45342e-21)
(1.24264 0.91528 -9.76757e-21)
(1.25577 0.943347 1.69724e-21)
(1.20408 0.925663 1.28567e-20)
(1.1338 0.895344 0)
(1.05919 0.862993 1.90101e-20)
(0.9792 0.827196 -1.37939e-20)
(0.892927 0.784475 7.86545e-22)
(0.800482 0.730242 1.42595e-20)
(0.716118 0.668327 1.20048e-19)
(0.653116 0.609654 -1.85614e-20)
(0.60885 0.557765 -6.9778e-20)
(0.574425 0.510569 -2.88322e-20)
(0.531106 0.456446 3.43074e-20)
(0.451209 0.377246 -3.38527e-23)
(0.323506 0.265129 4.83977e-20)
(0.176261 0.141398 -1.14462e-19)
(0.0607536 0.04706 1.35819e-19)
(0.00383026 0.00293191 2.00546e-20)
(0.236261 0.181135 8.7252e-21)
(1.05251 0.803346 -5.62208e-21)
(1.23075 0.952603 1.29494e-21)
(1.24232 0.980659 3.47706e-21)
(1.19043 0.961871 -1.33415e-21)
(1.12024 0.930564 -2.49369e-20)
(1.04537 0.897349 5.67005e-21)
(0.964523 0.860559 -5.75824e-20)
(0.876643 0.816616 -1.1721e-19)
(0.781553 0.760775 -1.15736e-19)
(0.69374 0.69659 0)
(0.627494 0.634816 -8.1263e-20)
(0.580916 0.578991 1.00424e-19)
(0.545184 0.526968 0)
(0.501169 0.466511 -7.34359e-20)
(0.420641 0.378975 4.39576e-20)
(0.293727 0.258068 -5.19954e-20)
(0.152454 0.130509 -6.16084e-20)
(0.0478417 0.0395289 -1.09405e-19)
(0.00156914 0.00139211 -8.63769e-20)
(0.237207 0.18967 -1.02887e-20)
(1.04549 0.834456 6.03182e-21)
(1.21907 0.987647 1.30819e-20)
(1.22913 1.01562 6.54847e-21)
(1.17714 0.995887 3.58049e-21)
(1.10713 0.963793 -1.37882e-20)
(1.03207 0.929856 1.87687e-20)
(0.950461 0.892249 -5.92946e-20)
(0.861074 0.847332 -6.93985e-20)
(0.763421 0.790271 1.21105e-19)
(0.672032 0.724265 2.63483e-19)
(0.602144 0.659671 0)
(0.552644 0.599835 0)
(0.514824 0.542146 -3.32026e-20)
(0.469673 0.47356 0)
(0.388931 0.375757 9.46192e-20)
(0.264496 0.245989 1.11923e-19)
(0.131174 0.117153 0)
(0.0372347 0.0319453 0)
(-0.000239673 1.9892e-05 9.28448e-20)
(0.237795 0.197736 1.21582e-20)
(1.03876 0.863981 9.53027e-21)
(1.20768 1.02053 9.74481e-21)
(1.2163 1.04836 -8.12282e-21)
(1.16428 1.02781 2.24368e-21)
(1.09451 0.995085 1.46442e-20)
(1.01936 0.960551 -2.57984e-20)
(0.937076 0.922278 1.95125e-23)
(0.846306 0.876619 -1.02474e-21)
(0.746191 0.818719 -1.0993e-21)
(0.65116 0.751386 1.35691e-19)
(0.577226 0.684337 0)
(0.524122 0.620596 1.0143e-19)
(0.483062 0.556555 7.07968e-20)
(0.435705 0.477649 1.71423e-19)
(0.355158 0.36636 5.09282e-20)
(0.236731 0.226683 -6.03513e-20)
(0.116198 0.0993091 -3.55286e-20)
(0.0335447 0.0234627 0)
(-0.000567327 -0.000973324 9.97844e-20)
(0.238718 0.205817 -2.84493e-20)
(1.03229 0.892098 0)
(1.19659 1.05131 1.24715e-20)
(1.20386 1.07896 -7.62259e-21)
(1.15193 1.05774 6.23955e-23)
(1.08244 1.02451 -1.64212e-20)
(1.00726 0.989467 5.05103e-20)
(0.92441 0.950668 -4.86399e-21)
(0.832387 0.904482 0)
(0.729949 0.846081 -1.3373e-19)
(0.631278 0.777959 -2.94899e-19)
(0.552933 0.708917 1.19848e-20)
(0.495534 0.641525 1.39563e-19)
(0.449784 0.570804 0)
(0.39818 0.479571 1.15609e-19)
(0.31693 0.350192 0)
(0.208434 0.195694 0)
(0.111772 0.0645347 -3.84985e-20)
(0.0598933 0.000305455 0)
(0.0257425 0.00624687 2.67534e-20)
(0.239189 0.21331 -3.25839e-20)
(1.02604 0.918946 0)
(1.18582 1.08019 2.16088e-20)
(1.1918 1.10768 0)
(1.14004 1.08592 -1.05295e-21)
(1.07085 1.05233 0)
(0.995731 1.0169 2.57686e-21)
(0.912381 0.977754 8.15762e-21)
(0.819213 0.931291 8.69767e-21)
(0.71455 0.872746 -1.46889e-19)
(0.612248 0.804433 8.88024e-21)
(0.529058 0.73401 9.63006e-20)
(0.466561 0.66327 1.36147e-19)
(0.414312 0.58575 1.83285e-20)
(0.355467 0.481251 9.05422e-20)
(0.269759 0.328922 0)
(0.169021 0.151461 1.27509e-19)
(0.0896311 0.0111071 -7.50649e-20)
(0.0326474 0.0572795 8.75928e-20)
(-0.0383213 0.450791 -1.0402e-19)
(0.239594 0.220631 2.74656e-20)
(1.01979 0.944441 4.04763e-20)
(1.1753 1.1075 0)
(1.17999 1.13495 1.10157e-21)
(1.12845 1.11293 4.9971e-21)
(1.0595 1.07923 2.09886e-20)
(0.984466 1.04366 1.77251e-20)
(0.900601 1.00449 0)
(0.806274 0.958156 5.79064e-20)
(0.699333 0.900024 -7.69406e-21)
(0.593168 0.832289 0)
(0.504426 0.761374 0)
(0.435598 0.68756 1.21554e-19)
(0.374744 0.602595 -5.6497e-20)
(0.304854 0.485319 -9.1406e-20)
(0.209641 0.30733 0)
(0.0950466 0.147106 6.47945e-20)
(0.00868263 0.464257 -7.56065e-20)
(0.0331147 1.91584 -4.26467e-20)
(0.0601474 2.81886 -5.20655e-20)
(0.239601 0.227364 -2.12513e-20)
(1.01359 0.968755 -5.30842e-20)
(1.16504 1.13324 1.34946e-20)
(1.16844 1.16063 9.60851e-21)
(1.11723 1.13856 0)
(1.04847 1.10493 1.21276e-20)
(0.97367 1.06941 2.44458e-20)
(0.889253 1.03043 -3.96303e-21)
(0.793843 0.984552 8.61003e-21)
(0.684677 0.927298 1.39862e-19)
(0.574655 0.860837 1.48801e-19)
(0.480027 0.790704 1.07343e-19)
(0.403643 0.714178 1.21905e-19)
(0.332931 0.620095 -1.32018e-19)
(0.253284 0.494585 -1.37569e-19)
(0.134814 0.343558 0)
(0.0457823 0.869032 0)
(0.093092 2.57337 3.60884e-20)
(0.0952562 3.20608 0)
(0.0959575 3.38725 9.47634e-20)
(0.242384 0.233599 0)
(1.00768 0.992236 0)
(1.15477 1.15726 0)
(1.15695 1.18456 3.19883e-21)
(1.10609 1.1626 5.42622e-21)
(1.03756 1.12927 5.85382e-21)
(0.96327 1.09405 1.577e-20)
(0.878272 1.05544 -3.87668e-21)
(0.781856 1.0103 7.24474e-20)
(0.670575 0.954402 -2.00036e-21)
(0.556801 0.889861 2.93659e-19)
(0.456297 0.822052 -1.23288e-20)
(0.37086 0.74364 1.47674e-20)
(0.291345 0.635983 1.90563e-20)
(0.191956 0.514288 -2.40702e-22)
(0.102078 1.00991 3.33949e-22)
(0.132852 2.7479 -1.87298e-19)
(0.138131 3.29892 -7.1501e-20)
(0.12702 3.42465 3.84309e-20)
(0.114898 3.44479 -4.35262e-20)
(0.164775 0.178593 1.34272e-20)
(0.997776 1.01756 0)
(1.14436 1.17985 -2.93968e-20)
(1.14586 1.20704 -2.82433e-20)
(1.09549 1.18552 1.74121e-20)
(1.02744 1.1527 -4.96407e-21)
(0.953087 1.11756 -1.63696e-20)
(0.867725 1.07952 4.39341e-20)
(0.77045 1.03541 -5.96495e-20)
(0.657292 0.981365 0)
(0.539909 0.919376 1.44629e-19)
(0.433813 0.855208 -8.7444e-20)
(0.337758 0.778789 0)
(0.243938 0.655392 1.82656e-20)
(0.145489 0.831023 4.40546e-20)
(0.147232 2.54381 -5.08458e-20)
(0.19761 3.33105 5.83216e-20)
(0.178296 3.43848 3.18344e-20)
(0.147237 3.45687 3.67987e-20)
(0.126916 3.4652 5.93207e-20)
(0.278019 0.272944 -2.56774e-20)
(0.981618 1.0289 0)
(1.12627 1.20573 3.28857e-20)
(1.13114 1.23984 3.33802e-20)
(1.07879 1.21952 -2.25963e-20)
(1.01053 1.18756 -4.12623e-22)
(0.935233 1.15398 1.59694e-20)
(0.849229 1.11711 3.40871e-21)
(0.750465 1.07496 5.68933e-20)
(0.634339 1.02456 1.21019e-19)
(0.511609 0.968171 8.16647e-21)
(0.396606 0.911374 7.74216e-20)
(0.28114 0.838426 1.38482e-20)
(0.210971 1.0065 -1.74845e-20)
(0.216832 2.41217 -4.02418e-20)
(0.267646 3.33898 4.07467e-20)
(0.250954 3.46824 -4.52735e-20)
(0.216001 3.48567 -2.64256e-20)
(0.181443 3.50914 -2.4694e-20)
(0.136049 3.50268 -3.61559e-21)
(0.268609 0.272083 0)
(0.979309 1.05227 1.01636e-20)
(1.1179 1.22935 -6.97235e-21)
(1.1205 1.26329 -4.19209e-21)
(1.06814 1.24301 -1.69251e-20)
(1.00015 1.21152 1.64319e-21)
(0.92463 1.17825 -8.46306e-21)
(0.838432 1.14217 3.0624e-21)
(0.739135 1.10139 -5.92898e-20)
(0.621719 1.05367 -2.95527e-21)
(0.496349 1.00169 -2.6069e-19)
(0.376918 0.949823 1.10038e-20)
(0.27073 0.914388 -1.31016e-20)
(0.24607 1.57297 -1.61393e-20)
(0.305613 3.14342 3.61138e-21)
(0.320597 3.47257 4.13027e-22)
(0.278632 3.51923 6.89514e-20)
(0.244121 3.54 3.57788e-20)
(0.198067 3.55892 -1.29531e-20)
(0.147816 3.55415 -1.86909e-20)
(0.254609 0.270289 2.66393e-20)
(0.976144 1.07828 6.96522e-20)
(1.10916 1.25508 -2.00789e-20)
(1.10947 1.28831 -1.5846e-20)
(1.05709 1.268 0)
(0.989412 1.23679 9.36715e-21)
(0.913911 1.20385 -8.98851e-21)
(0.827774 1.16848 2.69361e-21)
(0.72825 1.12914 -6.56585e-21)
(0.610057 1.08431 -1.09457e-19)
(0.48289 1.03721 -1.2027e-19)
(0.359772 0.991176 -9.07446e-20)
(0.274121 1.05752 -9.81808e-20)
(0.308278 2.30371 1.01373e-19)
(0.383844 3.39987 8.81755e-20)
(0.358422 3.53139 0)
(0.309622 3.56539 0)
(0.272701 3.5975 -1.02003e-20)
(0.227502 3.64228 0)
(0.158168 3.62481 -1.7549e-20)
(0.244698 0.272391 -4.04905e-20)
(0.971043 1.10524 -5.99105e-20)
(1.09908 1.28209 0)
(1.09725 1.31424 1.32764e-21)
(1.04487 1.2937 -2.07244e-20)
(0.97763 1.26265 1.89543e-20)
(0.902448 1.23005 -3.81043e-21)
(0.816599 1.19531 1.63598e-21)
(0.717105 1.15735 -4.21165e-20)
(0.598542 1.11538 5.51072e-21)
(0.47038 1.07332 0)
(0.34886 1.03778 0)
(0.301041 1.33845 -8.93927e-20)
(0.383364 2.96836 3.67843e-20)
(0.447996 3.50224 4.81219e-20)
(0.396109 3.56654 0)
(0.354009 3.62045 -7.60741e-21)
(0.312378 3.66452 -4.01536e-22)