/*--------------------------------*- C++ -*----------------------------------*\
  =========                 |
  \\      /  F ield         | OpenFOAM: The Open Source CFD Toolbox
   \\    /   O peration     | Website:  https://openfoam.org
    \\  /    A nd           | Version:  6
     \\/     M anipulation  |
\*---------------------------------------------------------------------------*/
FoamFile
{
    version     2.0;
    format      ascii;
    class       surfaceScalarField;
    location    "105.5";
    object      phi;
}
// * * * * * * * * * * * * * * * * * * * * * * * * * * * * * * * * * * * * * //

dimensions      [0 3 -1 0 0 0 0];

internalField   nonuniform List<scalar> 
17370
(
-0.0899999
0.0898488
0.289162
-0.0714621
0.0537521
0.364485
-0.0381189
0.0276898
0.426597
-0.0196381
0.0146053
0.504284
-0.0107638
0.00827396
0.601892
-0.00627477
0.00489848
0.720434
-0.00373442
0.00289344
0.863747
-0.00215135
0.00159169
1.03601
-0.00107457
0.000661651
1.24292
-0.000253795
-0.000145187
1.49159
0.000525499
-0.000935654
1.4916
0.00133165
-0.00181436
1.24317
0.00233563
-0.00303891
1.03634
0.00385379
-0.00499975
0.864052
0.00636684
-0.00836044
0.721051
0.0108462
-0.0146825
0.603051
0.0197096
-0.0277539
0.507484
0.0381753
-0.0537997
0.431793
0.0715014
-0.0898754
0.36515
0.0900164
0.198994
-0.128139
0.0882308
0.0399078
-0.364601
0.353383
-0.0746673
0.0858849
-0.446478
0.454323
-0.08438
0.0765341
-0.521192
0.529905
-0.0684359
0.0597232
-0.612791
0.621572
-0.0515333
0.0427526
-0.726897
0.734168
-0.0352907
0.0280196
-0.867477
0.872596
-0.0224166
0.0172978
-1.03848
1.04193
-0.0134847
0.0100312
-1.2446
1.24704
-0.00741734
0.00498118
-1.49262
1.49461
-0.00302918
0.00104286
-1.49251
1.49423
0.000628679
-0.00235195
-1.24397
1.24586
0.004262
-0.00614621
-1.03751
1.04003
0.00849162
-0.0110068
-0.866097
0.869825
0.0143529
-0.0180813
-0.724388
0.729931
0.0231221
-0.0286647
-0.608696
0.616108
0.0358775
-0.0432897
-0.514895
0.523037
0.0520183
-0.0601611
-0.439855
0.447912
0.0688222
-0.0768794
-0.375293
0.376736
0.084673
-0.0861158
-0.257328
0.222472
0.0748235
-0.0399677
-0.0685268
0.0587036
0.00982312
-0.051794
0.0583714
-0.374135
0.367558
-0.0574509
0.0536951
-0.453601
0.457356
-0.0486022
0.0446467
-0.527955
0.53191
-0.0408035
0.0371612
-0.621572
0.625215
-0.0330551
0.0289744
-0.735358
0.739439
-0.0243975
0.0202315
-0.87435
0.878516
-0.0158781
0.0121774
-1.0435
1.0472
-0.00843297
0.00525461
-1.24857
1.25175
-0.0019216
-0.00115622
-1.49666
1.49974
0.00420749
-0.0074759
-1.4972
1.50047
0.0105526
-0.0141436
-1.25006
1.25365
0.0176837
-0.0218624
-1.04591
1.05009
0.0258847
-0.0303216
-0.877749
0.882186
0.0342887
-0.0382816
-0.73989
0.743883
0.0418277
-0.0455718
-0.626764
0.630508
0.0494421
-0.054454
-0.534802
0.539814
0.0581188
-0.0589255
-0.457466
0.458273
0.0522123
-0.0320002
-0.335738
0.315525
0.009891
-0.068335
0.058444
-0.0529567
0.0489653
0.00399134
-0.0331331
0.0436655
-0.358135
0.347602
-0.0473535
0.0467191
-0.459302
0.459936
-0.0436569
0.0402987
-0.535819
0.539177
-0.0365202
0.0332104
-0.628548
0.631858
-0.0297652
0.0267255
-0.74267
0.74571
-0.0234567
0.0203401
-0.882041
0.885158
-0.0167988
0.0134097
-1.05079
1.05418
-0.0096067
0.00606025
-1.25519
1.25873
-0.00208349
-0.00171986
-1.50325
1.50705
0.00549052
-0.00936666
-1.50413
1.508
0.012769
-0.0163609
-1.2574
1.26099
0.019529
-0.0228265
-1.0539
1.05719
0.0257376
-0.028802
-0.885663
0.888728
0.0316731
-0.0349499
-0.747134
0.75041
0.0381175
-0.041752
-0.634284
0.637919
0.0449869
-0.0479077
-0.544116
0.547037
0.048392
-0.0444921
-0.456548
0.452648
0.0337054
-0.0162372
-0.296144
0.278676
0.00407631
-0.0526197
0.0485434
-0.0458929
0.0434029
0.00248993
-0.0227669
0.0331254
-0.33693
0.326572
-0.0389291
0.0399342
-0.459631
0.458626
-0.0387337
0.0364396
-0.541906
0.5442
-0.0337639
0.0311596
-0.63492
0.637524
-0.028086
0.0251755
-0.748766
0.751676
-0.021897
0.0188897
-0.888121
0.891128
-0.0155697
0.0124572
-1.05733
1.06044
-0.00891789
0.0054985
-1.2622
1.26562
-0.00152581
-0.00236563
-1.51094
1.51483
0.00621296
-0.0100509
-1.51188
1.51572
0.0132795
-0.0165424
-1.26443
1.2677
0.0193663
-0.0223669
-1.06029
1.06329
0.0251008
-0.0281038
-0.891762
0.894765
0.0307841
-0.0336262
-0.753604
0.756446
0.0360349
-0.0385153
-0.640973
0.643453
0.0406428
-0.0416222
-0.548827
0.549806
0.0403841
-0.0342385
-0.447348
0.441203
0.0235042
-0.0102589
-0.263432
0.250186
0.0025952
-0.0453737
0.0427785
-0.0413346
0.0395746
0.00176005
-0.0166948
0.0259172
-0.316745
0.307522
-0.0324952
0.0346163
-0.457044
0.454923
-0.0341803
0.0324986
-0.54619
0.547872
-0.0303068
0.0282005
-0.639844
0.64195
-0.0257552
0.0233428
-0.754334
0.756747
-0.0204656
0.0176582
-0.894036
0.896844
-0.0144017
0.0113146
-1.0635
1.06658
-0.00780629
0.00446594
-1.26895
1.27229
-0.000620043
-0.00312281
-1.51862
1.52236
0.00680901
-0.0104822
-1.51944
1.52312
0.0135785
-0.016735
-1.27095
1.2741
0.019455
-0.0223037
-1.06631
1.06915
0.0247592
-0.0272791
-0.897555
0.900075
0.0293928
-0.0315385
-0.758879
0.761025
0.0333938
-0.0353333
-0.645592
0.647531
0.0367722
-0.0369074
-0.550304
0.55044
0.0344279
-0.0273473
-0.434505
0.427424
0.0176171
-0.00743657
-0.238621
0.22844
0.00188883
-0.040591
0.0387021
-0.0380609
0.0367405
0.00132042
-0.0127198
0.0206262
-0.298965
0.291058
-0.0273361
0.0302297
-0.452389
0.449496
-0.0304115
0.0292738
-0.54932
0.550458
-0.0272661
0.0253343
-0.644004
0.645936
-0.023115
0.0209571
-0.759003
0.761161
-0.0184165
0.0159082
-0.899435
0.901943
-0.012938
0.0100336
-1.06954
1.07244
-0.0066457
0.00338331
-1.27556
1.27883
0.0003827
-0.00402491
-1.52602
1.52966
0.00759603
-0.0111446
-1.5267
1.53024
0.014101
-0.0170492
-1.27723
1.28018
0.0194959
-0.0219568
-1.07187
1.07433
0.0240238
-0.026114
-0.902332
0.904422
0.0278936
-0.0297323
-0.762987
0.764825
0.0313466
-0.0330466
-0.649332
0.651032
0.0338298
-0.0332258
-0.550202
0.549598
0.0298178
-0.0224176
-0.420123
0.412722
0.013857
-0.00578035
-0.21941
0.211334
0.00147725
-0.0370431
0.0355659
-0.03559
0.0345766
0.00101341
-0.0099062
0.0165697
-0.283801
0.277138
-0.0229971
0.0263283
-0.446368
0.443037
-0.0270761
0.0263523
-0.551389
0.552113
-0.0245721
0.0227676
-0.647854
0.649659
-0.0206715
0.0186271
-0.763257
0.765301
-0.0162209
0.0138601
-0.904304
0.906665
-0.0110838
0.00836493
-1.07518
1.0779
-0.00517199
0.00205801
-1.28198
1.28509
0.0015787
-0.00511029
-1.53322
1.53675
0.00855345
-0.0119197
-1.53367
1.53704
0.0146549
-0.0173054
-1.28305
1.2857
0.0194609
-0.0216102
-1.07669
1.07884
0.0234256
-0.025273
-0.906362
0.90821
0.0268476
-0.0284711
-0.766546
0.76817
0.0298812
-0.0312332
-0.652589
0.653941
0.0315173
-0.0301694
-0.548627
0.547279
0.0261272
-0.0187888
-0.405322
0.397984
0.0113016
-0.00468731
-0.204054
0.19744
0.00120429
-0.0342389
0.0330347
-0.0336904
0.032906
0.000784372
-0.00781303
0.0133903
-0.27105
0.265473
-0.0193144
0.0228261
-0.439611
0.4361
-0.0240367
0.0235522
-0.552759
0.553244
-0.0220314
0.0203302
-0.651471
0.653172
-0.0183212
0.0163543
-0.767299
0.769266
-0.0140305
0.0117484
-0.908914
0.911196
-0.00906606
0.00644925
-1.08049
1.08311
-0.0033893
0.000411732
-1.28808
1.29106
0.00306018
-0.00642294
-1.54017
1.54353
0.00967703
-0.0128171
-1.54025
1.54339
0.0153308
-0.0177284
-1.28829
1.29069
0.0196576
-0.0215737
-1.08095
1.08286
0.0231865
-0.0248226
-0.909928
0.911564
0.0262116
-0.0276385
-0.769683
0.77111
0.0288456
-0.0298062
-0.655096
0.656057
0.0297105
-0.0276804
-0.545577
0.543547
0.0232172
-0.0161223
-0.390755
0.38366
0.00952024
-0.0039365
-0.191387
0.185804
0.00101648
-0.0319341
0.0309177
-0.0322216
0.0316159
0.000605735
-0.00618989
0.0108359
-0.260393
0.255747
-0.0161498
0.0196429
-0.432604
0.429111
-0.0211597
0.0208911
-0.553669
0.553938
-0.0195922
0.0179443
-0.654906
0.656554
-0.0159823
0.0140554
-0.7712
0.773127
-0.0117795
0.00954554
-0.913371
0.915605
-0.00692035
0.00436383
-1.08561
1.08817
-0.00138413
-0.00149694
-1.29393
1.29681
0.00482686
-0.00802035
-1.54676
1.54995
0.0110811
-0.0140061
-1.54636
1.54929
0.0163217
-0.0184962
-1.29306
1.29524
0.0202181
-0.0219122
-1.08476
1.08645
0.0233298
-0.0247635
-0.913068
0.914502
0.0259807
-0.0272272
-0.772434
0.77368
0.0282897
-0.0288258
-0.656813
0.657349
0.0283306
-0.0257166
-0.541215
0.538601
0.0209807
-0.0141869
-0.376718
0.369924
0.0082745
-0.00341873
-0.180618
0.175762
0.000887721
-0.0299733
0.0290855
-0.0310928
0.0306329
0.000459906
-0.00487508
0.00871412
-0.251535
0.247696
-0.0133717
0.0166958
-0.42572
0.422396
-0.0183765
0.018286
-0.554176
0.554267
-0.0171685
0.0155478
-0.658266
0.659887
-0.0135971
0.0116736
-0.775033
0.776956
-0.009403
0.00718081
-0.917735
0.919958
-0.00457932
0.00205606
-1.09062
1.09314
0.000871381
-0.00368399
-1.2996
1.30241
0.00690696
-0.00996387
-1.55302
1.55608
0.0128596
-0.0155904
-1.55205
1.55478
0.0177168
-0.0196694
-1.29741
1.29936
0.0211834
-0.0226582
-1.08814
1.08961
0.02389
-0.0251373
-0.915805
0.917052
0.0262004
-0.0272835
-0.774827
0.775911
0.028133
-0.0282974
-0.657683
0.657848
0.0273708
-0.0242469
-0.535724
0.5326
0.0193267
-0.0128172
-0.363285
0.356775
0.00741876
-0.0030698
-0.171188
0.166839
0.000802603
-0.0282472
0.0274446
-0.0302443
0.0299089
0.000335398
-0.00376497
0.00689077
-0.244243
0.241118
-0.0108782
0.013921
-0.419239
0.416196
-0.0156362
0.0156844
-0.55436
0.554312
-0.014636
0.0130753
-0.661566
0.663127
-0.0111054
0.00915038
-0.778868
0.780823
-0.00684403
0.00459572
-0.922082
0.92433
-0.00197732
-0.000547322
-1.09557
1.09809
0.00345681
-0.00623051
-1.30513
1.30791
0.00937883
-0.0123284
-1.55902
1.56197
0.0150827
-0.0176346
-1.55734
1.5599
0.0195781
-0.021311
-1.30132
1.30306
0.0226196
-0.0238803
-1.0911
1.09236
0.024932
-0.0259998
-0.918165
0.919233
0.0269165
-0.02784
-0.776882
0.777805
0.0284264
-0.0282858
-0.657858
0.657717
0.0268749
-0.0232699
-0.529237
0.525632
0.0181983
-0.0119085
-0.350394
0.344105
0.00686697
-0.0028519
-0.162682
0.158667
0.000751748
-0.0266737
0.0259219
-0.0296379
0.0294148
0.000223115
-0.0027829
0.00526034
-0.238344
0.235867
-0.0085752
0.0112516
-0.413371
0.410695
-0.0128849
0.0129955
-0.554319
0.554208
-0.0119756
0.0104418
-0.664773
0.666307
-0.00842648
0.00640819
-0.78277
0.784788
-0.00402757
0.0017158
-0.926483
0.928795
0.000962564
-0.00352851
-1.10053
1.10309
0.00646285
-0.0092339
-1.3106
1.31337
0.0123424
-0.0152114
-1.56482
1.56769
0.0178446
-0.0202334
-1.56228
1.56466
0.0220034
-0.0235205
-1.30482
1.30634
0.0246229
-0.0256664
-1.09366
1.0947
0.0265324
-0.0274092
-0.920159
0.921036
0.0281639
-0.0289187
-0.778554
0.779309
0.0292186
-0.0287248
-0.657445
0.656951
0.0268441
-0.0227778
-0.521818
0.517752
0.0175478
-0.0113847
-0.337903
0.331739
0.00655928
-0.00273792
-0.15477
0.150949
0.000727959
-0.0251879
0.0244599
-0.0292533
0.029138
0.00011533
-0.00186433
0.00372875
-0.233723
0.231859
-0.00636329
0.00860083
-0.40828
0.406043
-0.0100423
0.0101349
-0.554214
0.554121
-0.00910636
0.00755747
-0.667964
0.669513
-0.005465
0.00334976
-0.7868
0.788916
-0.000854897
-0.00155842
-0.931012
0.933425
0.00433994
-0.00698735
-1.10558
1.10822
0.00999013
-0.012796
-1.31608
1.31888
0.0159005
-0.0187156
-1.57045
1.57327
0.0212464
-0.0234845
-1.56687
1.56911
0.0250863
-0.0263884
-1.30792
1.30922
0.0272849
-0.0281079
-1.09579
1.09661
0.0287797
-0.0294576
-0.921766
0.922444
0.0300551
-0.030659
-0.779881
0.780484
0.0305897
-0.0296763
-0.656284
0.65537
0.0272983
-0.0227588
-0.513484
0.508945
0.0173312
-0.0111876
-0.325615
0.319471
0.00645265
-0.00270872
-0.147187
0.143443
0.000726254
-0.0237385
0.0230123
-0.0290848
0.0290776
7.19031e-06
-0.000960424
0.00222266
-0.230321
0.229058
-0.00415941
0.00589198
-0.404106
0.402373
-0.00703703
0.00702803
-0.554214
0.554223
-0.00594114
0.0043344
-0.671226
0.672833
-0.00212151
-0.000128055
-0.791024
0.793274
0.00278137
-0.0053384
-0.935745
0.938302
0.00827052
-0.011043
-1.1108
1.11357
0.0141609
-0.0170418
-1.32163
1.32451
0.020182
-0.0229729
-1.57599
1.57878
0.025422
-0.0275208
-1.57115
1.57325
0.0289578
-0.03005
-1.3106
1.31169
0.0307409
-0.0313402
-1.09749
1.09809
0.031811
-0.0322753
-0.922968
0.923433
0.0326834
-0.0330099
-0.780814
0.781141
0.0326348
-0.0312181
-0.654276
0.652859
0.0283001
-0.0232397
-0.504192
0.499131
0.0175411
-0.0112923
-0.313308
0.30706
0.00652644
-0.0027548
-0.139706
0.135935
0.000744106
-0.0222828
0.0215387
-0.0291359
0.0292432
-0.000107309
-2.13085e-05
0.000672319
-0.228123
0.227472
-0.00187887
0.00303897
-0.400979
0.399819
-0.00378565
0.00358964
-0.554498
0.554694
-0.00238413
0.000659409
-0.674653
0.676378
0.0017152
-0.00414434
-0.795516
0.797945
0.00700758
-0.00975636
-0.940767
0.943516
0.0128924
-0.0158382
-1.11628
1.11922
0.0191221
-0.0221207
-1.32734
1.33034
0.0253374
-0.0281347
-1.58148
1.58427
0.0305232
-0.0324937
-1.57513
1.5771
0.0337716
-0.0346529
-1.31286
1.31374
0.0351318
-0.0354954
-1.09874
1.09911
0.035756
-0.0359988
-0.923735
0.923978
0.0361965
-0.0361754
-0.781167
0.781146
0.0354443
-0.0334387
-0.65124
0.649234
0.0299084
-0.0242442
-0.49383
0.488166
0.0181728
-0.0116808
-0.300728
0.294236
0.00676476
-0.002868
-0.132122
0.128225
0.000779004
-0.0207829
0.0200039
-0.0294222
0.0296676
-0.000245355
0.000956268
-0.000981491
-0.227164
0.227189
0.000565099
-5.21543e-05
-0.399039
0.398526
-0.000193465
-0.000283726
-0.555256
0.555733
0.00167839
-0.00358343
-0.678369
0.680274
0.00618172
-0.00884375
-0.800364
0.803026
0.0119764
-0.0149726
-0.946176
0.949172
0.0183743
-0.0215487
-1.12211
1.12529
0.025056
-0.0282192
-1.3333
1.33646
0.0315542
-0.0343839
-1.58698
1.58981
0.0367236
-0.0385746
-1.57884
1.58069
0.0397023
-0.04037
-1.31468
1.31535
0.0406225
-0.0407305
-1.09951
1.09962
0.0407614
-0.0407663
-0.924036
0.924041
0.0407731
-0.0402943
-0.780819
0.78034
0.0391235
-0.0364268
-0.647016
0.64432
0.0321838
-0.0257969
-0.482215
0.475828
0.0192238
-0.0123377
-0.287588
0.280702
0.00715303
-0.00304017
-0.124241
0.120128
0.000828239
-0.0192058
0.0183775
-0.0299827
0.0303749
-0.000392121
0.00207222
-0.00273244
-0.227529
0.228189
0.00319447
-0.00345316
-0.398428
0.398687
0.00386402
-0.0047272
-0.556717
0.55758
0.00637962
-0.00853738
-0.682504
0.684662
0.0114353
-0.014398
-0.805673
0.808635
0.0178719
-0.0211805
-0.952087
0.955395
0.0249181
-0.0283828
-1.12842
1.13189
0.0321757
-0.0355533
-1.3396
1.34298
0.03905
-0.0419371
-1.59255
1.59544
0.0442345
-0.0459575
-1.58226
1.58398
0.0469234
-0.0473829
-1.31604
1.3165
0.0474002
-0.0472343
-1.09975
1.09958
0.0470203
-0.0467745
-0.923821
0.923575
0.0465363
-0.045544
-0.779587
0.778594
0.0438262
-0.0402965
-0.641402
0.637872
0.0351976
-0.0279242
-0.46909
0.461817
0.0206917
-0.0132471
-0.273582
0.266137
0.00767562
-0.00326218
-0.115886
0.111472
0.000888676
-0.0175243
0.0166356
-0.030851
0.0314205
-0.000569478
0.00334742
-0.00482142
-0.229285
0.230759
0.00620794
-0.00729336
-0.399359
0.400444
0.00846771
-0.00984915
-0.559108
0.560489
0.0119005
-0.0143962
-0.6872
0.689696
0.0176844
-0.0210264
-0.811578
0.81492
0.0249263
-0.0286242
-0.958633
0.962331
0.0327791
-0.0366029
-1.13533
1.13915
0.0407473
-0.0443877
-1.34634
1.34998
0.0480845
-0.0510484
-1.59824
1.6012
0.0533062
-0.0548903
-1.58538
1.58696
0.055689
-0.0559203
-1.31693
1.31716
0.0556804
-0.0552233
-1.09942
1.09897
0.0547545
-0.0542279
-0.923062
0.922535
0.0535926
-0.05211
-0.777417
0.775934
0.0496806
-0.0451435
-0.634099
0.629562
0.039005
-0.0306362
-0.454107
0.445738
0.0225589
-0.0143805
-0.258376
0.250197
0.00830789
-0.00352018
-0.106891
0.102104
0.000955626
-0.0157182
0.0147625
-0.0320879
0.0328921
-0.00080411
0.00492617
-0.00731297
-0.23269
0.235077
0.00977836
-0.0117962
-0.402028
0.404046
0.0138674
-0.0158954
-0.562674
0.564702
0.0184822
-0.0214143
-0.692634
0.695566
0.025208
-0.0290202
-0.818243
0.822055
0.0334462
-0.0376223
-0.965975
0.970151
0.0422856
-0.0465419
-1.14296
1.14722
0.0511039
-0.0550498
-1.35361
1.35755
0.0589709
-0.0620125
-1.60406
1.60711
0.0642148
-0.0656338
-1.58817
1.58959
0.0662311
-0.0661972
-1.31725
1.31721
0.0656947
-0.0649216
-1.0985
1.09773
0.0641834
-0.0633916
-0.921701
0.920909
0.062243
-0.0601591
-0.774318
0.772234
0.0568545
-0.0510625
-0.624723
0.618931
0.0436364
-0.0339085
-0.436824
0.427096
0.0247746
-0.0156837
-0.241615
0.232524
0.0090079
-0.00379222
-0.0971187
0.091903
0.00102205
-0.0137773
0.0127553
-0.0337946
0.034904
-0.00110939
0.00690409
-0.0103952
-0.237955
0.241446
0.0141382
-0.0172472
-0.406743
0.409852
0.0203412
-0.0231397
-0.567712
0.570511
0.0264186
-0.0299166
-0.699032
0.70253
0.0343634
-0.0387675
-0.825859
0.830263
0.0438413
-0.0485962
-0.974291
0.979046
0.0538643
-0.0586231
-1.15148
1.15624
0.0636551
-0.067929
-1.36148
1.36576
0.072069
-0.0751576
-1.61002
1.61311
0.0772621
-0.0784728
-1.59057
1.59178
0.0788344
-0.0784978
-1.31689
1.31656
0.0777063
-0.0765827
-1.0969
1.09578
0.0755687
-0.0744777
-0.919765
0.918674
0.0727621
-0.0699032
-0.77007
0.767211
0.0654736
-0.0580821
-0.612762
0.605371
0.0490462
-0.037643
-0.416694
0.40529
0.0272256
-0.0170581
-0.222948
0.21278
0.00970693
-0.00404495
-0.0864763
0.0808143
0.00107788
-0.0117074
0.0106295
-0.0361031
0.0376323
-0.00152926
0.00950481
-0.0143702
-0.245436
0.250302
0.0196303
-0.0239953
-0.413864
0.418229
0.028269
-0.0319927
-0.574551
0.578275
0.0361443
-0.0404016
-0.706666
0.710923
0.0456701
-0.0508139
-0.834667
0.839811
0.0566782
-0.0621208
-0.98379
0.989233
0.0680842
-0.0733963
-1.161
1.16631
0.0789146
-0.0834948
-1.36999
1.37457
0.0877927
-0.0908438
-1.61602
1.61907
0.0927586
-0.0936701
-1.59247
1.59338
0.093735
-0.0930974
-1.31581
1.31517
0.0919296
-0.0904485
-1.0946
1.09312
0.0891592
-0.08758
-0.917093
0.915514
0.0853464
-0.0814255
-0.76426
0.760339
0.0755481
-0.0661156
-0.597499
0.588066
0.0550682
-0.0416283
-0.393069
0.379629
0.0297069
-0.0183449
-0.202067
0.190705
0.0103027
-0.00423233
-0.0749528
0.0688824
0.00111015
-0.00953548
0.00842533
-0.039223
0.0413599
-0.00213696
0.0130888
-0.0197121
-0.255642
0.262265
0.0267979
-0.0326283
-0.423874
0.429704
0.038272
-0.0431236
-0.583578
0.588429
0.048362
-0.053584
-0.715936
0.721158
0.0599268
-0.0659873
-0.84496
0.851021
0.072783
-0.0789968
-0.994682
1.0009
0.0856983
-0.0915546
-1.17161
1.17747
0.0974973
-0.102285
-1.37904
1.38383
0.106596
-0.109455
-1.62186
1.62472
0.111027
-0.111498
-1.59366
1.59413
0.111182
-0.110165
-1.31393
1.31292
0.108609
-0.106738
-1.09157
1.0897
0.105154
-0.103027
-0.91331
0.911183
0.100143
-0.0947831
-0.756285
0.750925
0.0869669
-0.0748938
-0.578006
0.565933
0.0613437
-0.0454875
-0.365233
0.349377
0.0318929
-0.0193169
-0.178782
0.166206
0.0106604
-0.00429833
-0.0626608
0.0562988
0.00110432
-0.00731526
0.00621094
-0.0434944
0.0465687
-0.00307428
0.0182952
-0.0272201
-0.269322
0.278247
0.036537
-0.0441376
-0.437456
0.445056
0.0514303
-0.0576339
-0.5953
0.601503
0.0642983
-0.0708601
-0.727262
0.733824
0.0784649
-0.0855465
-0.857061
0.864143
0.0933348
-0.100315
-1.0071
1.01409
0.107676
-0.113942
-1.18323
1.1895
0.120104
-0.124878
-1.38839
1.39317
0.128936
-0.131356
-1.62718
1.6296
0.132364
-0.132204
-1.59384
1.59368
0.13136
-0.129852
-1.31108
1.30957
0.127911
-0.125621
-1.08776
1.08547
0.123604
-0.120964
-0.908266
0.905626
0.117047
-0.109711
-0.745309
0.737973
0.0993068
-0.0838475
-0.553049
0.53759
0.0672437
-0.0486411
-0.332475
0.313872
0.033331
-0.0196918
-0.153139
0.139499
0.0106277
-0.00418594
-0.0498809
0.0434391
0.00104703
-0.00512843
0.0040814
-0.0495125
0.0541717
-0.00465918
0.0263638
-0.0383941
-0.287662
0.299693
0.0505853
-0.0605417
-0.455722
0.465678
0.0698825
-0.077717
-0.610293
0.618128
0.0861328
-0.0942373
-0.741168
0.749273
0.10322
-0.111308
-0.871179
0.879267
0.119952
-0.127478
-1.02096
1.02849
0.13517
-0.141497
-1.19549
1.20182
0.147465
-0.15184
-1.39751
1.40188
0.155231
-0.156861
-1.63144
1.63307
0.157011
-0.155976
-1.59261
1.59158
0.154446
-0.152339
-1.30703
1.30492
0.149956
-0.147164
-1.08303
1.08024
0.144701
-0.14132
-0.901804
0.898423
0.135882
-0.125674
-0.730109
0.719901
0.11176
-0.0920196
-0.521084
0.501343
0.0718283
-0.0503325
-0.294269
0.272774
0.0335005
-0.0191923
-0.125578
0.111269
0.0100762
-0.00385424
-0.0370863
0.0308643
0.000928867
-0.00307845
0.00214958
-0.0584094
0.0663642
-0.0079548
0.0404987
-0.0571116
-0.312872
0.329485
0.0733512
-0.0864217
-0.480267
0.493337
0.0978946
-0.107328
-0.629083
0.638516
0.117486
-0.127021
-0.757868
0.767403
0.137093
-0.145715
-0.887073
0.895695
0.154574
-0.162011
-1.03563
1.04307
0.169352
-0.175112
-1.20757
1.21333
0.180248
-0.183644
-1.40552
1.40892
0.185815
-0.186184
-1.63387
1.63424
0.185092
-0.182896
-1.58948
1.58728
0.180481
-0.177655
-1.30151
1.29868
0.17474
-0.171371
-1.07718
1.07381
0.168298
-0.163713
-0.893238
0.888653
0.155918
-0.141508
-0.70873
0.69432
0.12281
-0.0979183
-0.480236
0.455344
0.0739304
-0.0498492
-0.250615
0.226533
0.0320401
-0.017708
-0.0970972
0.0827651
0.00898251
-0.00330224
-0.0249152
0.0192349
0.000746384
-0.00127467
0.000528285
-0.0737479
0.0782535
-0.00450561
0.031135
-0.0457214
-0.348992
0.363578
0.0603304
-0.0723832
-0.512365
0.524418
0.0834481
-0.0940351
-0.65153
0.662117
0.10617
-0.11732
-0.776248
0.787397
0.129785
-0.140969
-0.903326
0.91451
0.153046
-0.163956
-1.04963
1.06054
0.175627
-0.185915
-1.21808
1.22837
0.196566
-0.205535
-1.41124
1.42021
0.214244
-0.220855
-1.63351
1.64012
0.225415
-0.228646
-1.58381
1.58704
0.230544
-0.231974
-1.29419
1.29562
0.232768
-0.232293
-1.06977
1.06929
0.230828
-0.225284
-0.881082
0.875539
0.21284
-0.189175
-0.678314
0.654649
0.158818
-0.120888
-0.428932
0.391002
0.0871822
-0.0557095
-0.202535
0.171062
0.0341815
-0.0180181
-0.0693165
0.0531532
0.00868588
-0.00297423
-0.0140486
0.00833692
0.000592636
0.000230524
-0.000823161
-0.0861023
0.0842363
0.00186598
0.00888098
-0.0185631
-0.381136
0.390818
0.0298231
-0.0386905
-0.541458
0.550325
0.047787
-0.056761
-0.675453
0.684427
0.0678563
-0.0782916
-0.797984
0.808419
0.0895707
-0.0999478
-0.925137
0.935514
0.111145
-0.120932
-1.07122
1.08101
0.131625
-0.14072
-1.23854
1.24763
0.150178
-0.157975
-1.42901
1.4368
0.165264
-0.170769
-1.64625
1.65175
0.174407
-0.1768
-1.58966
1.59205
0.177807
-0.178497
-1.29531
1.296
0.178775
-0.177946
-1.06708
1.06625
0.175045
-0.166969
-0.864477
0.8564
0.152411
-0.128715
-0.626471
0.602775
0.102074
-0.0724617
-0.350757
0.321144
0.0491532
-0.0297036
-0.14093
0.12148
0.017376
-0.008735
-0.0383628
0.0297217
0.00398829
-0.00127278
-0.0029541
0.000238596
0.00020718
0.00159756
-0.00180474
-0.0879091
0.0849358
0.00297329
-0.000441215
-0.00531823
-0.403298
0.409057
0.0129319
-0.0196329
-0.563403
0.570104
0.0265914
-0.0343465
-0.695952
0.703708
0.0440391
-0.0531449
-0.817764
0.826869
0.0632135
-0.0723355
-0.94509
0.954212
0.0819634
-0.0908061
-1.09068
1.09952
0.100297
-0.108519
-1.25638
1.2646
0.116688
-0.123357
-1.4441
1.45077
0.129781
-0.134392
-1.65688
1.66149
0.137232
-0.13891
-1.59394
1.59562
0.139365
-0.139614
-1.29522
1.29547
0.1392
-0.137883
-1.06249
1.06117
0.134057
-0.124671
-0.844103
0.834716
0.109872
-0.088073
-0.575747
0.553948
0.0661721
-0.0443642
-0.28977
0.267963
0.0290849
-0.017263
-0.102501
0.0906794
0.01003
-0.00506287
-0.0213255
0.0163584
0.00233361
-0.000754533
0.00264396
-0.00422304
0.00012872
0.00220953
-0.00233825
-0.086747
0.0838731
0.00287394
-0.00459106
0.00155316
-0.418391
0.421429
0.00351371
-0.00868438
-0.580093
0.585263
0.0146362
-0.0211797
-0.712902
0.719446
0.0295226
-0.0373752
-0.835187
0.843039
0.0460335
-0.0539162
-0.96277
0.970653
0.0626493
-0.0702624
-1.10794
1.11555
0.0786512
-0.0854928
-1.27245
1.27929
0.0926904
-0.098538
-1.45731
1.46315
0.103953
-0.107557
-1.6659
1.66951
0.109922
-0.111255
-1.59688
1.59821
0.111417
-0.110907
-1.29456
1.29405
0.110077
-0.10827
-1.0565
1.05469
0.103826
-0.0943638
-0.821448
0.811986
0.0803428
-0.0617953
-0.529552
0.511005
0.0448351
-0.0294933
-0.245152
0.22981
0.0193048
-0.0116447
-0.0782996
0.0706396
0.00691869
-0.00360685
-0.0109914
0.00767952
0.00173404
-0.00059356
0.00607986
-0.00722033
0.000112971
0.00259506
-0.00270804
-0.0852433
0.0826311
0.00261224
-0.0062083
0.00489219
-0.428681
0.429998
-0.00104056
-0.00289129
-0.593577
0.597509
0.00770135
-0.0135872
-0.727199
0.733085
0.0206015
-0.027491
-0.850069
0.856958
0.0350003
-0.0418639
-0.978052
0.984916
0.0493923
-0.0561578
-1.12301
1.12978
0.063336
-0.0695477
-1.28599
1.2922
0.0757902
-0.0808189
-1.46866
1.47369
0.0853987
-0.0883305
-1.67308
1.67602
0.090162
-0.0908737
-1.59895
1.59966
0.0907371
-0.0900107
-1.29285
1.29213
0.0887645
-0.0862942
-1.04962
1.04715
0.0818357
-0.07276
-0.798854
0.789779
0.0604648
-0.0451867
-0.490319
0.47504
0.0323389
-0.0213824
-0.213156
0.202199
0.0142127
-0.0088499
-0.0621433
0.0567805
0.00546271
-0.00296604
-0.00383113
0.00133447
0.00149051
-0.00053583
0.00862705
-0.00958173
0.000116023
0.00290459
-0.00302061
-0.0837188
0.0814157
0.00230307
-0.00652412
0.00585491
-0.435818
0.436487
-0.00349128
0.000284695
-0.604049
0.607256
0.00431267
-0.00932288
-0.739309
0.744319
0.0153169
-0.021259
-0.862937
0.868879
0.0278737
-0.0339527
-0.991382
0.997461
0.0407499
-0.046636
-1.13622
1.14211
0.0529967
-0.0584831
-1.29808
1.30357
0.0638947
-0.0681898
-1.47842
1.48271
0.0719823
-0.0746485
-1.67891
1.68158
0.0759219
-0.0763762
-1.59998
1.60043
0.0759411
-0.074911
-1.29078
1.28975
0.0735671
-0.0705542
-1.04216
1.03915
0.0659867
-0.0577648
-0.7773
0.769078
0.0471627
-0.0347681
-0.457806
0.445411
0.0249606
-0.0168472
-0.189841
0.181728
0.0116077
-0.00754244
-0.0504667
0.0464014
0.00483172
-0.00272775
0.00169427
-0.00379824
0.00141608
-0.000533612
0.0107363
-0.0116188
0.000122801
0.00317132
-0.00329412
-0.0824096
0.0805384
0.0018712
-0.00601143
0.0058452
-0.441025
0.441191
-0.00394458
0.0015385
-0.613092
0.615498
0.0026521
-0.00713054
-0.749722
0.754201
0.012704
-0.0177635
-0.874335
0.879395
0.0234928
-0.0287962
-1.00346
1.00876
0.0350729
-0.0402803
-1.14797
1.15318
0.0457931
-0.0507414
-1.3088
1.31375
0.0558786
-0.059564
-1.48696
1.49064
0.0628593
-0.064886
-1.68383
1.68585
0.0660121
-0.065846
-1.60067
1.6005
0.0653415
-0.0642526
-1.28824
1.28715
0.0625604
-0.0595378
-1.03434
1.03132
0.0549901
-0.0473686
-0.757424
0.749803
0.0384822
-0.0283474
-0.43099
0.420855
0.0206958
-0.0145725
-0.172251
0.166128
0.0104647
-0.00712956
-0.0413855
0.0380504
0.0047701
-0.0028057
0.00641893
-0.00838332
0.00150831
-0.000589817
0.0126759
-0.0135944
0.000144681
0.00341969
-0.00356437
-0.0815065
0.0799779
0.00152865
-0.0052253
0.0053606
-0.444936
0.4448
-0.00371715
0.0015292
-0.620804
0.622992
0.00231229
-0.00626833
-0.758917
0.762873
0.010966
-0.0157075
-0.884335
0.889077
0.0208647
-0.0261263
-1.01379
1.01906
0.0314015
-0.036156
-1.15841
1.16317
0.0414696
-0.0458184
-1.31847
1.32282
0.0500022
-0.0536236
-1.49413
1.49775
0.0564816
-0.0581677
-1.68787
1.68956
0.0587993
-0.0585624
-1.60048
1.60024
0.0578366
-0.0565083
-1.28546
1.28413
0.0547099
-0.0515318
-1.0267
1.02353
0.0471237
-0.0403783
-0.73925
0.732505
0.0325618
-0.024365
-0.408811
0.400614
0.0183902
-0.0135345
-0.158647
0.153791
0.0101816
-0.00731148
-0.0337951
0.030925
0.00509653
-0.00313086
0.0108328
-0.0127984
0.0017524
-0.000711965
0.0146727
-0.0157131
0.000185784
0.00369383
-0.00387961
-0.0810758
0.079741
0.00133484
-0.0041561
0.0041815
-0.448153
0.448128
-0.0028654
0.000801663
-0.627669
0.629733
0.00264316
-0.00636898
-0.767273
0.770999
0.0107436
-0.0149255
-0.893547
0.897729
0.0200301
-0.0242803
-1.02364
1.02789
0.0292861
-0.0336067
-1.168
1.17232
0.0384689
-0.042655
-1.32703
1.33122
0.0466778
-0.0495686
-1.50098
1.50387
0.0521224
-0.0535107
-1.69102
1.69241
0.0540738
-0.0533908
-1.59975
1.59906
0.0524663
-0.0508936
-1.28266
1.28109
0.0489517
-0.0455905
-1.01896
1.0156
0.0413967
-0.0351596
-0.722853
0.716616
0.0284883
-0.0217591
-0.390586
0.383856
0.016962
-0.0131435
-0.147708
0.143889
0.0103209
-0.00774126
-0.0271304
0.0245507
0.00561079
-0.00359438
0.0151991
-0.0172155
0.00208267
-0.000890513
0.0168729
-0.0180651
0.000241894
0.00402994
-0.00427183
-0.0808716
0.0798664
0.00100522
-0.00315818
0.00280276
-0.451183
0.451538
-0.0017624
-0.000268682
-0.633557
0.635588
0.0032814
-0.00677932
-0.774858
0.778356
0.0108478
-0.0150328
-0.901717
0.905902
0.019334
-0.0235828
-1.03229
1.03653
0.0283278
-0.0321896
-1.17699
1.18085
0.0368391
-0.0406399
-1.33507
1.33887
0.0442657
-0.0472099
-1.50703
1.50997
0.0496068
-0.050555
-1.69364
1.69459
0.0505653
-0.0498023
-1.59837
1.59761
0.0487383
-0.0468236
-1.27911
1.2772
0.0445474
-0.0412377
-1.01123
1.00792
0.0367306
-0.0311458
-0.70775
0.702165
0.0253853
-0.0197852
-0.375527
0.369926
0.0159666
-0.0127997
-0.138782
0.135615
0.0103842
-0.00803697
-0.021133
0.0187858
0.00600226
-0.00397662
0.0195936
-0.0216192
0.00239552
-0.00106891
0.0193442
-0.0206708
0.000307708
0.00445793
-0.00476564
-0.0810446
0.0802141
0.000830467
-0.00229338
0.00205428
-0.454208
0.454448
-0.000567928
-0.00122288
-0.639321
0.641112
0.00433245
-0.00761439
-0.781723
0.785005
0.0114122
-0.0150682
-0.909697
0.913353
0.0193587
-0.02313
-1.04071
1.04448
0.0276229
-0.0317276
-1.18509
1.18919
0.0357177
-0.0395461
-1.34259
1.34642
0.0431943
-0.0457568
-1.51262
1.51518
0.0478931
-0.0489138
-1.69553
1.69655
0.0485751
-0.047582
-1.59643
1.59544
0.0459669
-0.0437574
-1.27503
1.27282
0.0412898
-0.0375971
-1.00339
0.999701
0.0331955
-0.0278475
-0.693976
0.688628
0.0227582
-0.0179765
-0.362726
0.357944
0.0147597
-0.0121133
-0.131318
0.128671
0.0100006
-0.00790659
-0.0157025
0.0136084
0.00604383
-0.00412318
0.0238957
-0.0258163
0.00255609
-0.00118441
0.0220102
-0.0233819
0.000356693
0.00498913
-0.00534582
-0.0815016
0.0808453
0.000656292
-0.00128201
0.000916586
-0.457225
0.45759
0.000352507
-0.00238997
-0.644513
0.646551
0.00536954
-0.00842306
-0.788164
0.791217
0.0122143
-0.0156229
-0.916941
0.92035
0.0196302
-0.0233975
-1.04868
1.05245
0.0276255
-0.0315059
-1.19305
1.19693
0.035478
-0.0390588
-1.35003
1.35361
0.0425189
-0.0454271
-1.51786
1.52077
0.0474146
-0.0480299
-1.69723
1.69784
0.0475816
-0.0460004
-1.59399
1.59241
0.0441521
-0.0416753
-1.27021
1.26774
0.0385873
-0.0345466
-0.995045
0.991004
0.0300072
-0.0246932
-0.681057
0.675743
0.0201463
-0.0159417
-0.351822
0.347618
0.0131972
-0.0108796
-0.124926
0.122609
0.00907324
-0.00726333
-0.0108622
0.00905229
0.00565714
-0.00395496
0.0278989
-0.0296011
0.00251549
-0.00121051
0.0246778
-0.0259827
0.000389572
0.0055869
-0.00597647
-0.0821906
0.0816569
0.000533685
-0.000447289
4.99198e-06
-0.46029
0.460732
0.00129131
-0.00332717