/*--------------------------------*- C++ -*----------------------------------*\
  =========                 |
  \\      /  F ield         | OpenFOAM: The Open Source CFD Toolbox
   \\    /   O peration     | Website:  https://openfoam.org
    \\  /    A nd           | Version:  6
     \\/     M anipulation  |
\*---------------------------------------------------------------------------*/
FoamFile
{
    version     2.0;
    format      ascii;
    class       volScalarField;
    location    "0.003";
    object      p;
}
// * * * * * * * * * * * * * * * * * * * * * * * * * * * * * * * * * * * * * //

dimensions      [1 -1 -2 0 0 0 0];

internalField   nonuniform List<scalar> 
1000
(
100000
100000
100000
100000
100000
100000
100000
100000
100000
100000
100000
100000
100000
100000
100000
100000
100000
100000
100000
100000
100000
100000
100000
100000
100000
100000
100000
100000
100000
100000
100000
100000
100000
100000
100000
100000
100000
100000
100000
100000
100000
100000
100000
100000
100000
100000
100000
100000
100000
100000
100000
100000
100000
100000
100000
100000
100000
100000
100000
100000
100000
100000
100000
100000
100000
100000
100000
100000
100000
100000
100000
100000
100000
100000
100000
100000
100000
100000
100000
100000
100000
100000
100000
100000
100000
100000
100000
100000
100000
100000
100000
100000
100000
100000
100000
100000
100000
100000
100000
100000
100000
100000
100000
100000
100000
100000
100000
100000
100000
100000
100000
100000
100000
100000
100000
100000
100000
100000
100000
100000
100000
100000
100000
100000
100000
100000
100000
100000
100000
100000
100000
100000
100000
100000
100000
100000
100000
100000
100000
100000
100000
100000
100000
100000
100000
100000
100000
100000
100000
100000
100000
100000
100000
100000
100000
100000
100000
100000
100000
100000
100000
100000
100000
100000
100000
100000
100000
100000
100000
100000
100000
100000
100000
100000
100000
100000
100000
100000
100000
100000
100000
100000
100000
100000
100000
100000
100000
100000
100000
100000
100000
100000
100000
100000
100000
100000
100000
100000
100000
100000
100000
100000
100000
100000
100000
100000
100000
100000
100000
100000
100000
100000
100000
100000
100000
100000
100000
100000
100000
100000
100000
100000
100000
100000
100000
100000
100000
100000
100000
100000
100000
100000
100000
100000
100000
100000
100000
100000
100000
100000
100000
100000
100000
100000
100000
100000
100000
100000
100000
100000
100000
100000
100000
100000
100000
100000
100000
100000
100000
100000
100000
100000
100000
100000
100000
100000
100000
100000
100000
100000
100000
100000
100000
100000
100000
100000
100000
100000
100000
100000
100000
100000
100000
100000
100000
100000
100000
100000
100000
100000
100000
100000
100000
100000
100000
100000
100000
100000
100000
100000
100000
100000
100000
100000
100000
100000
100000
100000
100000
100000
100000
100000
100000
100000
100000
100000
100000
100000
100000
100000
100000
100000
100000
100000
100000
100000
100000
100000
100000
100000
100000
100000
100000
100000
100000
100000
100000
100000
100000
100000
100000
100000
100000
100000
100000
100000
100000
100000
100000
100000
100000
100000
100000
99999.9
99999.9
99999.8
99999.7
99999.6
99999.3
99998.9
99998.2
99997.1
99995.4
99992.8
99989
99983.3
99975.1
99963.3
99946.6
99923.6
99892.1
99849.8
99793.9
99721.3
99628.6
99512.1
99368.3
99193.6
98984.8
98739.1
98454.4
98129.3
97763
97355.5
96907.9
96421.3
95897.9
95340
94750.2
94131.3
93486.4
92818.2
92129.4
91422.8
90700.8
89965.6
89219.4
88463.9
87700.9
86931.9
86158.1
85380.7
84600.8
83819.2
83036.8
82254.3
81472.2
80691.1
79911.6
79134
78358.7
77586.1
76816.5
76050.2
75287.4
74528.5
73773.5
73022.8
72276.5
71534.8
70797.8
70065.7
69338.6
68616.6
67899.8
67188.3
66482.2
65781.6
65086.4
64396.9
63713
63034.8
62362.3
61695.5
61034.4
60379.1
59729.7
59086
58448.1
57816
57189.7
56569.2
55954.4
55345.5
54742.4
54145
53553.4
52967.4
52387.3
51812.8
51244.2
50681
50123.8
49572
49026
48485.6
47950.8
47421.7
46898.2
46380.3
45868.1
45361.5
44860.5
44365.2
43875.5
43391.6
42913.3
42440.8
41974
41513.1
41058.1
40609
40165.9
39728.9
39298.2
38873.7
38455.7
38044.3
37639.6
37241.9
36851.4
36468.3
36092.8
35725.3
35366.2
35015.7
34674.3
34342.4
34020.5
33709.2
33409.1
33120.7
32844.6
32581.5
32332.1
32097.1
31877
31672.4
31483.9
31311.7
31156.1
31017.2
30894.8
30788.4
30697.5
30621.2
30558.3
30507.6
30467.7
30437
30414.2
30397.6
30386
30378.2
30373.2
30370
30368
30366.9
30366.1
30365.5
30364.9
30364.2
30363.4
30362.5
30361.4
30360.4
30359.3
30358.4
30357.4
30356.7
30356
30355.4
30355
30354.6
30354.3
30354.2
30354
30354
30353.9
30353.8
30353.8
30353.8
30353.8
30353.7
30353.7
30353.6
30353.6
30353.6
30353.5
30353.5
30353.4
30353.4
30353.3
30353.3
30353.2
30353.2
30353.1
30353
30353
30352.9
30352.8
30352.8
30352.7
30352.7
30352.6
30352.6
30352.4
30352.4
30352.3
30352.4
30352.2
30352.1
30351.7
30351.8
30352.6
30352.8
30351.3
30352.3
30349.5
30349.6
30350
30349.9
30349.9
30349.8
30350
30350.3
30350.7
30351
30351.3
30351.6
30351.7
30351.7
30351.7
30351.6
30351.6
30351.4
30351.3
30351.1
30351
30350.9
30350.8
30350.7
30350.6
30350.5
30350.4
30350.4
30350.3
30350.2
30350
30349.9
30349.7
30349.6
30349.5
30349.4
30349.3
30349.3
30349.3
30349.3
30349.3
30349.3
30349.3
30349.3
30349.2
30349.1
30349
30348.8
30348.7
30348.5
30348.3
30348.1
30347.9
30347.6
30347.5
30347.3
30347.2
30347.2
30347.2
30347.2
30347.1
30347.1
30346.9
30346.6
30346.2
30345.9
30345.7
30345.4
30345.2
30344.8
30344.3
30343.6
30342.6
30341.7
30340.5
30338.5
30335.9
30330.8
30322.4
30311.5
30287.8
30246.5
30170.8
29920.8
29505.6
28271.1
25828.1
21125.6
16129.9
12539.3
10789.8
10195.4
10042.6
10008.9
10001.8
10000.4
10000.1
10000
10000
10000
10000
10000
10000
10000
10000
10000
10000
10000
10000
10000
10000
10000
10000
10000
10000
10000
10000
10000
10000
10000
10000
10000
10000
10000
10000
10000
10000
10000
10000
10000
10000
10000
10000
10000
10000
10000
10000
10000
10000
10000
10000
10000
10000
10000
10000
10000
10000
10000
10000
10000
10000
10000
10000
10000
10000
10000
10000
10000
10000
10000
10000
10000
10000
10000
10000
10000
10000
10000
10000
10000
10000
10000
10000
10000
10000
10000
10000
10000
10000
10000
10000
10000
10000
10000
10000
10000
10000
10000
10000
10000
10000
10000
10000
10000
10000
10000
10000
10000
10000
10000
10000
10000
10000
10000
10000
10000
10000
10000
10000
10000
10000
10000
10000
10000
10000
10000
10000
10000
10000
10000
10000
10000
10000
10000
10000
10000
10000
10000
10000
10000
10000
10000
10000
10000
10000
10000
10000
10000
10000
10000
10000
10000
10000
10000
10000
10000
10000
10000
10000
10000
10000
10000
10000
10000
10000
10000
10000
10000
10000
10000
10000
10000
10000
10000
10000
10000
10000
10000
10000
10000
10000
10000
10000
10000
10000
10000
10000
10000
10000
10000
10000
10000
10000
10000
10000
10000
10000
10000
10000
10000
10000
10000
10000
10000
10000
10000
10000
10000
10000
10000
10000
10000
10000
10000
10000
10000
10000
10000
10000
10000
10000
10000
10000
10000
10000
10000
10000
10000
10000
10000
10000
10000
10000
10000
10000
10000
10000
10000
10000
10000
10000
10000
10000
10000
10000
10000
10000
10000
10000
10000
10000
10000
10000
10000
10000
10000
10000
10000
10000
10000
10000
10000
10000
10000
10000
10000
10000
10000
10000
10000
10000
10000
10000
10000
10000
10000
10000
10000
10000
10000
10000
10000
10000
10000
10000
10000
10000
10000
10000
10000
10000
10000
10000
10000
10000
10000
10000
10000
10000
10000
10000
10000
10000
10000
10000
10000
10000
10000
10000
10000
10000
10000
10000
10000
10000
10000
10000
10000
10000
10000
10000
10000
10000
10000
10000
10000
10000
10000
10000
10000
10000
10000
)
;

boundaryField
{
    sides
    {
        type            zeroGradient;
    }
    empty
    {
        type            empty;
    }
}


// ************************************************************************* //
