/*--------------------------------*- C++ -*----------------------------------*\
| =========                 |                                                 |
| \\      /  F ield         | OpenFOAM: The Open Source CFD Toolbox           |
|  \\    /   O peration     | Version:  2106                                  |
|   \\  /    A nd           | Website:  www.openfoam.com                      |
|    \\/     M anipulation  |                                                 |
\*---------------------------------------------------------------------------*/
FoamFile
{
    version     2.0;
    format      ascii;
    arch        "LSB;label=32;scalar=64";
    class       volScalarField;
    location    "3";
    object      T;
}
// * * * * * * * * * * * * * * * * * * * * * * * * * * * * * * * * * * * * * //

dimensions      [0 0 0 1 0 0 0];

internalField   nonuniform List<scalar> 
1000
(
0
0
0
0
0
0
0
0
0
0
0
0
0
0
0
0
0
0
0
0
0
0
0
0
0
0
0
0
0
0
0
0
0
0
0
0
0
0
0
0
0
0
0
0
0
0
0
0
0
0
0
0
0
0
0
0
0
0
0
0
0
0
0
0
0
0
0
0
0
0
0
0
0
0
0
0
0
0
0
0
0
0
0
0
0
0
0
0
0
0
0
0
0
0
0
0
0
0
0
0
0
0
0
0
0
0
0
0
0
0
0
0
0
0
0
0
0
0
0
0
0
0
0
0
0
0
0
0
0
0
0
0
0
0
0
0
0
0
0
0
0
0
0
0
0
0
0
0
0
0
0
0
0
0
0
0
0
0
0
0
0
0
0
0
0
0
0
0
0
0
0
0
0
0
0
0
0
0
0
0
0
0
0
0
0
0
0
0
0
0
0
0
0
0
0
0
0
0
0
0
0
0
0
0
0
0
0
0
0
0
0
0
0
0
0
0
0
0
0
0
0
0
0
0
0
0
0
0
0
0
0
0
0
0
0
0
0
0
0
0
0
0
0
0
0
0
0
0
0
0
0
0
0
0
0
0
0
0
0
0
0
0
0
0
0
0
0
0
0
0
0
0
0
0
0
0
0
0
0
0
0
0
0
0
0
0
0
0
0
0
0
0
0
0
0
0
0
0
0
0
0
0
0
0
0
0
0
0
0
0
0
0
0
0
0
0
0
0
0
0
0
0
0
0
0
0
0
0
0
0
0
0
0
0
0
0
0
0
0
0
0
0
0
0
0
0
0
0
0
0
0
0
0
0
0
0
0
0
0
0
0
0
0
0
0
0
0
0
0
0
0
0
0
0
0
0
0
0
0
0
0
0
0
0
0
0
0
0
0
0
0
0
0
0
0
0
0
0
0
0
0
0
0
0
1.29993e-155
-1.48186e-139
1.16854e-131
-7.7756e-128
-1.35082e-125
-1.02041e-123
-3.6441e-122
3.45358e-121
1.2967e-118
9.38703e-117
4.55292e-115
1.73618e-113
5.54144e-112
1.5315e-110
3.74558e-109
8.23196e-108
1.64469e-106
3.01442e-105
5.10568e-104
8.04045e-103
1.18337e-101
1.6349e-100
2.12837e-99
2.61967e-98
3.05751e-97
3.39271e-96
3.58754e-95
3.62264e-94
3.49984e-93
3.24039e-92
2.87961e-91
2.45953e-90
2.02155e-89
1.60068e-88
1.22218e-87
9.00615e-87
6.40956e-86
4.40815e-85
2.93099e-84
1.88461e-83
1.17198e-82
7.0477e-82
4.09649e-81
2.29961e-80
1.24501e-79
6.48663e-79
3.24111e-78
1.54454e-77
6.95525e-77
2.91017e-76
1.09262e-75
3.35766e-75
5.42444e-75
-3.04298e-74
-4.2652e-73
-3.36139e-72
-2.19337e-71
-1.29207e-70
-7.10911e-70
-3.71623e-69
-1.86388e-68
-9.02556e-68
-4.23758e-67
-1.93498e-66
-8.61273e-66
-3.74356e-65
-1.59119e-64
-6.62157e-64
-2.70036e-63
-1.0801e-62
-4.24031e-62
-1.63494e-61
-6.19464e-61
-2.30762e-60
-8.45557e-60
-3.04886e-59
-1.08223e-58
-3.78309e-58
-1.30277e-57
-4.42101e-57
-1.47892e-56
-4.87821e-56
-1.58706e-55
-5.09395e-55
-1.61346e-54
-5.0444e-54
-1.55708e-53
-4.74632e-53
-1.42905e-52
-4.25076e-52
-1.24941e-51
-3.62947e-51
-1.04223e-50
-2.95897e-50
-8.30709e-50
-2.30654e-49
-6.33495e-49
-1.72133e-48
-4.62792e-48
-1.23133e-47
-3.24255e-47
-8.45254e-47
-2.18139e-46
-5.57418e-46
-1.41055e-45
-3.53519e-45
-8.77618e-45
-2.15834e-44
-5.25906e-44
-1.26974e-43
-3.03801e-43
-7.20395e-43
-1.69315e-42
-3.94453e-42
-9.10957e-42
-2.08556e-41
-4.73352e-41
-1.0651e-40
-2.37595e-40
-5.25443e-40
-1.15197e-39
-2.50359e-39
-5.39356e-39
-1.15173e-38
-2.43761e-38
-5.11312e-38
-1.0629e-37
-2.18961e-37
-4.46978e-37
-9.04162e-37
-1.81237e-36
-3.6e-36
-7.08668e-36
-1.38265e-35
-2.67407e-35
-5.1276e-35
-9.75085e-35
-1.83947e-34
-3.44365e-34
-6.40043e-34
-1.18159e-33
-2.1678e-33
-3.95473e-33
-7.17818e-33
-1.29712e-32
-2.33495e-32
-4.18954e-32
-7.49705e-32
-1.33867e-31
-2.38625e-31
-4.24805e-31
-7.55513e-31
-1.34274e-30
-2.38524e-30
-4.23576e-30
-7.52024e-30
-1.33489e-29
-2.36891e-29
-4.20224e-29
-7.4496e-29
-1.3193e-28
-2.33294e-28
-4.11666e-28
-7.24365e-28
-1.26997e-27
-2.21654e-27
-3.84785e-27
-6.63789e-27
-1.13693e-26
-1.93182e-26
-3.25392e-26
-5.42953e-26
-8.96988e-26
-1.46651e-25
-2.37199e-25
-3.79486e-25
-6.00512e-25
-9.40066e-25
-1.45634e-24
-2.234e-24
-3.39608e-24
-5.12165e-24
-7.67252e-24
-1.14341e-23
-1.69775e-23
-2.51537e-23
-3.72333e-23
-5.51073e-23
-8.15666e-23
-1.20669e-22
-1.78189e-22
-2.62108e-22
-3.83047e-22
-5.54459e-22
-7.92256e-22
-1.11344e-21
-1.53312e-21
-2.05937e-21
-2.68538e-21
-3.37915e-21
-4.07225e-21
-4.65129e-21
-4.95976e-21
-4.82297e-21
-4.11516e-21
-2.89516e-21
-1.64128e-21
-1.61564e-21
-5.37416e-21
-1.74037e-20
-4.48e-20
-9.7786e-20
-1.89704e-19
-3.35891e-19
-5.50581e-19
-8.40733e-19
-1.19554e-18
-1.57048e-18
-1.86551e-18
-1.89828e-18
-1.37551e-18
1.3054e-19
3.18714e-18
8.46743e-18
1.66483e-17
2.82013e-17
4.30355e-17
5.99655e-17
7.60213e-17
8.57337e-17
8.03868e-17
4.62775e-17
-3.77957e-17
-2.03235e-16
-4.93522e-16
-9.40219e-16
-1.51418e-15
-2.06217e-15
-2.30833e-15
-5.38327e-16
5.89371e-15
1.43048e-14
1.69692e-14
1.0608e-15
-3.62881e-14
-6.37107e-14
-3.71907e-14
6.79123e-14
1.82713e-13
1.62642e-13
-8.41301e-14
-4.56223e-13
-5.49694e-13
-6.86211e-14
9.61245e-13
1.686e-12
9.62017e-13
-1.60837e-12
-4.5188e-12
-4.31532e-12
9.69782e-13
1.00578e-11
1.47049e-11
6.74642e-12
-1.60665e-11
-4.07367e-11
-3.88803e-11
6.05375e-12
8.49764e-11
1.33805e-10
8.28094e-11
-9.7861e-11
-3.35828e-10
-4.03013e-10
-1.32583e-10
5.12878e-10
1.19606e-09
1.19153e-09
9.6677e-11
-2.06265e-09
-3.9996e-09
-3.65296e-09
2.33338e-10
7.20792e-09
1.32058e-08
1.19556e-08
-2.99752e-10
-2.28485e-08
-4.39677e-08
-4.32521e-08
-8.22371e-09
6.2715e-08
1.42088e-07
1.61678e-07
8.01259e-08
-1.30336e-07
-4.14517e-07
-6.01206e-07
-4.91196e-07
4.31908e-08
9.85603e-07
1.98686e-06
2.30378e-06
1.42854e-06
-1.06446e-06
-4.87943e-06
-8.60308e-06
-9.27654e-06
-5.44063e-06
4.58515e-06
1.99935e-05
3.58433e-05
4.21703e-05
3.15877e-05
-2.61904e-06
-6.25726e-05
-0.000137311
-0.000199785
-0.000203691
-0.00012873
5.92711e-05
0.000367727
0.000756091
0.00111524
0.00125433
0.00104056
0.000318855
-0.00105822
-0.00312806
-0.00571743
-0.0084199
-0.0104192
-0.010515
-0.00825455
-0.00227905
0.0087153
0.0259567
0.0504566
0.0828888
0.123494
0.172025
0.227735
0.289428
0.35554
0.424262
0.493682
0.561928
0.627295
0.688347
0.743992
0.793507
0.836541
0.87308
0.903391
0.927959
0.947412
0.962456
0.973812
0.982176
0.988182
0.992381
0.995236
0.997121
0.998326
0.999069
0.99951
0.999759
0.999893
0.999959
0.999989
0.999999
1
1
1
1
1
1
1
1
1
1
1
1
1
1
1
1
1
1
1
1
1
1
1
1
1
1
1
1
1
0.999999
0.999998
0.999998
0.999999
1
1
1.00001
1.00001
1.00001
0.999995
0.99998
0.999964
0.999958
0.999969
1
1.00006
1.00014
1.0002
1.0002
1.00013
0.99994
0.999632
0.999244
0.998885
0.998747
0.998961
0.999684
1.00106
1.00313
1.00572
1.00842
1.01041
1.01051
1.00824
1.00226
0.99126
0.974014
0.949511
0.917077
0.876472
0.827944
0.772238
0.710552
0.644448
0.575734
0.506322
0.438083
0.372723
0.311675
0.256034
0.206521
0.163487
0.126947
0.0966331
0.0720622
0.052606
0.0375597
0.0262004
0.0178335
0.0118255
0.00762433
0.00476742
0.00288151
0.00167593
0.000932029
0.000490933
0.000241234
0.000107614
4.11291e-05
1.13534e-05
9.12156e-07
2.64325e-16
2.62331e-16
2.6012e-16
2.55791e-16
2.49644e-16
2.41954e-16
2.32981e-16
2.22972e-16
2.12163e-16
2.0077e-16
1.88994e-16
1.77016e-16
1.64996e-16
1.53077e-16
1.41379e-16
1.30005e-16
1.1904e-16
1.08549e-16
9.85852e-17
8.91841e-17
8.03697e-17
7.21541e-17
6.45396e-17
5.752e-17
5.10819e-17
4.52061e-17
3.98688e-17
3.5043e-17
3.06988e-17
2.6805e-17
2.33295e-17
2.02399e-17
1.75043e-17
1.50915e-17
1.29714e-17
1.11155e-17
9.49666e-18
8.08969e-18
6.8711e-18
5.81929e-18
4.91448e-18
4.13869e-18
3.47569e-18
2.9109e-18
2.43127e-18
2.02523e-18
1.68252e-18
1.39415e-18
1.15221e-18
9.49813e-19
7.80985e-19
6.40556e-19
5.24075e-19
4.27722e-19
3.48236e-19
2.82839e-19
2.29177e-19
1.85258e-19
1.49406e-19
1.20214e-19
9.65038e-20
7.72942e-20
6.17689e-20
4.92519e-20
3.91844e-20
3.11063e-20
2.46398e-20
1.94753e-20
1.53603e-20
1.20889e-20
9.49403e-21
7.44049e-21
5.81892e-21
4.54129e-21
3.53685e-21
2.74891e-21
2.13213e-21
1.65037e-21
1.27488e-21
9.82831e-22
7.56162e-22
5.80606e-22
4.44919e-22
3.40265e-22
2.59712e-22
1.97838e-22
1.50409e-22
1.14126e-22
8.6426e-23
6.53218e-23
4.92749e-23
3.7098e-23
2.78763e-23
2.09064e-23
1.5649e-23
1.16912e-23
8.71762e-24
6.4879e-24
4.81927e-24
3.57296e-24
2.64393e-24
1.95274e-24
1.43951e-24
1.05917e-24
7.77842e-25
5.70163e-25
4.17146e-25
3.04621e-25
2.22032e-25
1.61532e-25
1.17297e-25
8.50168e-26
6.15052e-26
4.44129e-26
3.2011e-26
2.30294e-26
1.65372e-26
1.18532e-26
8.48021e-27
6.05587e-27
4.31665e-27
3.07126e-27
2.18117e-27
1.54621e-27
1.09408e-27
)
;

boundaryField
{
    sides
    {
        type            zeroGradient;
    }
    empty
    {
        type            empty;
    }
}


// ************************************************************************* //
