/*--------------------------------*- C++ -*----------------------------------*\
  =========                 |
  \\      /  F ield         | OpenFOAM: The Open Source CFD Toolbox
   \\    /   O peration     | Website:  https://openfoam.org
    \\  /    A nd           | Version:  6
     \\/     M anipulation  |
\*---------------------------------------------------------------------------*/
FoamFile
{
    version     2.0;
    format      ascii;
    class       volScalarField;
    location    "73";
    object      p;
}
// * * * * * * * * * * * * * * * * * * * * * * * * * * * * * * * * * * * * * //

dimensions      [0 2 -2 0 0 0 0];

internalField   nonuniform List<scalar> 
8800
(
0.842075
0.792765
0.754802
0.72673
0.706563
0.691969
0.681363
0.673814
0.668918
0.666833
0.668189
0.67252
0.679305
0.688723
0.701459
0.71878
0.742658
0.775757
0.818685
0.871216
0.676546
0.682892
0.692043
0.695587
0.692977
0.686889
0.679948
0.673703
0.668894
0.666013
0.665766
0.66838
0.67301
0.679128
0.686219
0.693245
0.69812
0.697996
0.691322
0.682425
0.650096
0.656332
0.660832
0.6647
0.667641
0.66858
0.667483
0.665351
0.663359
0.662505
0.663521
0.665962
0.668841
0.671107
0.671629
0.669843
0.666479
0.662464
0.657683
0.653966
0.645795
0.64856
0.651166
0.653323
0.655058
0.65662
0.657714
0.658055
0.657927
0.65801
0.658798
0.65993
0.660664
0.660511
0.659535
0.658179
0.656507
0.654202
0.651791
0.650225
0.640744
0.642168
0.644006
0.646084
0.647792
0.64908
0.650171
0.651141
0.651935
0.652655
0.653349
0.653797
0.653813
0.653444
0.652773
0.651656
0.649999
0.648105
0.646752
0.64595
0.63576
0.636663
0.637907
0.639531
0.641219
0.642745
0.644021
0.645133
0.646183
0.647182
0.64795
0.648327
0.648328
0.647955
0.64715
0.645961
0.644599
0.643334
0.642513
0.641989
0.63086
0.631516
0.632475
0.633789
0.635231
0.636741
0.638217
0.639569
0.640816
0.642001
0.642933
0.643414
0.643424
0.642983
0.642201
0.641258
0.640267
0.639363
0.638784
0.6384
0.626041
0.626546
0.627329
0.628466
0.629761
0.631171
0.63267
0.634199
0.635693
0.637128
0.638263
0.638859
0.63893
0.638605
0.63804
0.637353
0.636617
0.635956
0.63553
0.63523
0.621248
0.621649
0.622307
0.623324
0.624548
0.625906
0.627401
0.629028
0.630741
0.632463
0.633857
0.634651
0.634919
0.634827
0.634507
0.634043
0.633515
0.633049
0.632735
0.632491
0.6164
0.616727
0.617298
0.618237
0.619417
0.620765
0.622299
0.624031
0.625946
0.627974
0.629707
0.630814
0.631375
0.631556
0.631479
0.631246
0.630918
0.630616
0.630387
0.630183
0.611408
0.61168
0.612191
0.613086
0.614252
0.615631
0.617246
0.619127
0.621282
0.623667
0.625827
0.627337
0.628254
0.628741
0.628931
0.628935
0.628809
0.628651
0.62849
0.628313
0.606183
0.606412
0.606885
0.607765
0.608958
0.61041
0.61215
0.614237
0.616704
0.619532
0.622212
0.624205
0.625536
0.626377
0.626865
0.627111
0.627194
0.627172
0.627067
0.626909
0.60063
0.600825
0.60128
0.602176
0.603435
0.605006
0.606927
0.609287
0.612153
0.615533
0.618842
0.621412
0.623227
0.624473
0.625299
0.625816
0.626119
0.626223
0.626165
0.62602
0.594643
0.594811
0.595266
0.596205
0.597573
0.599314
0.601484
0.604201
0.607567
0.611626
0.6157
0.618958
0.621347
0.623061
0.624275
0.625115
0.625637
0.625865
0.625847
0.62571
0.5881
0.588246
0.588715
0.589728
0.591249
0.593221
0.595718
0.598891
0.602881
0.607771
0.612769
0.616852
0.619921
0.622188
0.623845
0.625034
0.625814
0.626171
0.626192
0.626058
0.580859
0.580982
0.58148
0.582597
0.584321
0.586595
0.58951
0.593257
0.598021
0.603927
0.610039
0.615105
0.618978
0.621897
0.624078
0.625677
0.626742
0.627233
0.627287
0.627153
0.572725
0.572836
0.573377
0.574628
0.576616
0.579275
0.58272
0.587184
0.592904
0.600047
0.607499
0.613737
0.618559
0.622245
0.625054
0.62713
0.628516
0.629148
0.629234
0.629095
0.56346
0.563563
0.564159
0.565587
0.56792
0.571068
0.575178
0.580538
0.587437
0.596085
0.605144
0.612772
0.618715
0.623303
0.626853
0.629488
0.631236
0.632017
0.63213
0.631983
0.552745
0.552833
0.553517
0.555184
0.557956
0.561727
0.566679
0.573162
0.581521
0.592001
0.60298
0.612243
0.619501
0.625151
0.62955
0.632845
0.635
0.635933
0.636069
0.63591
0.540197
0.540272
0.54106
0.543039
0.546372
0.550946
0.556976
0.564878
0.575052
0.587762
0.601022
0.612192
0.620971
0.627853
0.633244
0.637295
0.639888
0.64097
0.641121
0.640947
0.525244
0.525311
0.526246
0.52864
0.53271
0.538338
0.545768
0.555487
0.567931
0.583348
0.599299
0.61267
0.623181
0.631473
0.638003
0.642892
0.645946
0.647163
0.647317
0.647124
0.507089
0.507148
0.5083
0.511282
0.516365
0.523413
0.532704
0.544784
0.56008
0.578774
0.597859
0.61373
0.626192
0.636065
0.643845
0.64966
0.653167
0.654484
0.654624
0.654412
0.484548
0.484613
0.486111
0.489976
0.496512
0.505558
0.517403
0.5326
0.551493
0.574114
0.596789
0.615438
0.630044
0.641653
0.650786
0.657556
0.661459
0.662819
0.662925
0.662693
0.455802
0.455898
0.457999
0.46329
0.472086
0.484077
0.499529
0.518882
0.542278
0.569527
0.596225
0.617881
0.63477
0.648209
0.658777
0.666454
0.670627
0.671945
0.671994
0.671745
0.417738
0.417963
0.421299
0.429222
0.441828
0.458369
0.478978
0.503804
0.532706
0.565267
0.596343
0.621161
0.640404
0.655694
0.667705
0.67612
0.680357
0.681525
0.681497
0.681239
0.364405
0.365523
0.372162
0.385543
0.404813
0.428393
0.456139
0.487866
0.523223
0.561658
0.59734
0.625374
0.646956
0.664038
0.677338
0.686213
0.690222
0.691138
0.69103
0.690772
0.287203
0.294779
0.310021
0.333423
0.362646
0.395645
0.432073
0.471687
0.514157
0.558938
0.599531
0.630974
0.655074
0.674056
0.688458
0.697471
0.701079
0.701729
0.701566
0.701342
0.205124
0.221658
0.246409
0.280583
0.320284
0.362852
0.407987
0.455623
0.505526
0.557221
0.603476
0.63897
0.666023
0.687117
0.702535
0.711196
0.714074
0.714435
0.714292
0.714146
0.134779
0.15499
0.187679
0.231118
0.280138
0.331719
0.385333
0.440854
0.498018
0.556325
0.60785
0.646979
0.676552
0.699265
0.715088
0.723024
0.725299
0.725567
0.725478
0.72537
0.0772024
0.0996683
0.13781
0.18789
0.244203
0.303339
0.364446
0.427211
0.491186
0.555743
0.612194
0.65468
0.686453
0.710408
0.726419
0.733941
0.73598
0.736242
0.736204
0.73612
0.0295133
0.0533163
0.095405
0.15067
0.212819
0.278176
0.345682
0.41486
0.485064
0.555485
0.616628
0.662298
0.696158
0.721334
0.7377
0.745045
0.746926
0.747203
0.747208
0.747145
-0.0109233
0.0136686
0.0586667
0.11815
0.18522
0.255894
0.328951
0.40383
0.479722
0.555637
0.621289
0.670069
0.706034
0.732482
0.749303
0.756652
0.758565
0.75883
0.758865
0.758818
-0.0461613
-0.021051
0.0262199
0.0892025
0.160488
0.235811
0.313818
0.393869
0.475023
0.556119
0.626141
0.678004
0.716065
0.743838
0.761282
0.76893
0.770886
0.77115
0.771189
0.771156
-0.077715
-0.0521875
-0.00304821
0.0629186
0.137868
0.217291
0.299764
0.384577
0.470677
0.556759
0.631013
0.685928
0.726092
0.755276
0.773491
0.781484
0.783545
0.7838
0.783826
0.783806
-0.106621
-0.0807131
-0.02998
0.0385848
0.116762
0.199834
0.286357
0.375585
0.466387
0.557289
0.635697
0.693626
0.735903
0.766482
0.785494
0.793833
0.796035
0.796284
0.796293
0.79628
-0.133703
-0.107388
-0.0552302
0.0156759
0.0967138
0.183057
0.273272
0.366597
0.461852
0.557439
0.640001
0.700918
0.745268
0.77721
0.796956
0.805658
0.807994
0.808256
0.808226
0.80821
-0.159371
-0.132663
-0.0791953
-0.00620627
0.0773892
0.166678
0.260257
0.357378
0.456863
0.557056
0.643767
0.707699
0.754079
0.787303
0.807694
0.816683
0.819106
0.81935
0.819286
0.819258
-0.184086
-0.156906
-0.102226
-0.0273477
0.0585434
0.150484
0.247135
0.347786
0.451289
0.555983
0.646888
0.713894
0.76229
0.796685
0.817599
0.826721
0.829172
0.829389
0.829288
0.829247
-0.207996
-0.180339
-0.124515
-0.0479314
0.0400159
0.134352
0.233804
0.337719
0.445011
0.554097
0.649283
0.719484
0.769922
0.805365
0.826593
0.835736
0.838142
0.838318
0.838185
0.838129
-0.231246
-0.203076
-0.146196
-0.0680628
0.0217285
0.118216
0.220204
0.327105
0.437953
0.551322
0.650869
0.724467
0.77704
0.813453
0.834802
0.843778
0.846064
0.846192
0.846032
0.845964
-0.253941
-0.225247
-0.167331
-0.0877913
0.00363312
0.102046
0.206315
0.315938
0.43009
0.547582
0.651568
0.72883
0.783772
0.821134
0.842378
0.850963
0.853032
0.853085
0.852908
0.85283
-0.276152
-0.246863
-0.18794
-0.107132
-0.0142605
0.0858511
0.19216
0.304234
0.421416
0.542815
0.651296
0.732545
0.79022
0.828634
0.849559
0.857469
0.859154
0.859102
0.858911
0.858829
-0.29775
-0.267895
-0.208013
-0.126084
-0.0319337
0.0696788
0.177779
0.292039
0.411957
0.537015
0.649963
0.735533
0.796448
0.836245
0.856719
0.863553
0.864558
0.864326
0.864142
0.864068
-0.318723
-0.288322
-0.227553
-0.144615
-0.0493437
0.0535747
0.163244
0.279409
0.40177
0.530177
0.647491
0.737673
0.802425
0.844209
0.864408
0.869776
0.869548
0.86888
0.868732
0.868729
-0.339123
-0.308122
-0.246543
-0.162706
-0.0664399
0.0376098
0.148632
0.266434
0.390929
0.522333
0.643797
0.738819
0.807996
0.852587
0.873236
0.877192
0.875012
0.873158
0.872884
0.873238
-0.358813
-0.327272
-0.264933
-0.180298
-0.0831739
0.0218614
0.134032
0.253212
0.37953
0.513557
0.638821
0.738785
0.812902
0.861121
0.883452
0.887112
0.883035
0.878736
0.876604
0.875845
-0.377882
-0.345785
-0.282734
-0.197428
-0.0995828
0.00628942
0.119391
0.239685
0.367505
0.503784
0.632406
0.737316
0.816907
0.869368
0.894661
0.900118
0.895944
0.888478
0.879236
0.880146
-0.396254
-0.363723
-0.300083
-0.214293
-0.115957
-0.00943086
0.104303
0.22538
0.354325
0.492411
0.623931
0.733696
0.819641
0.876865
0.905588
0.914568
0.910877
0.898791
0.879663
0.878582
-0.413802
-0.381049
-0.316824
-0.230709
-0.132032
-0.0250027
0.0889656
0.21061
0.340268
0.479649
0.613386
0.727155
0.820149
0.882354
0.912205
0.921827
0.919183
0.892448
0.835015
0.810276
-0.4304
-0.398642
-0.332559
-0.246238
-0.14702
-0.0399447
0.0736643
0.195651
0.325612
0.465662
0.600814
0.717042
0.817239
0.884711
0.909487
0.913946
0.897507
0.844367
0.782005
0.744373
-0.472844
-0.416167
-0.346958
-0.261734
-0.161666
-0.055218
0.0585443
0.180379
0.310147
0.450082
0.585776
0.702649
0.806944
0.880142
0.894442
0.87764
0.826521
0.759461
0.689583
0.651138
-0.447924
-0.429595
-0.368815
-0.282764
-0.184395
-0.078172
0.0349106
0.156117
0.285034
0.423707
0.558315
0.673661
0.769991
0.850714
0.831075
0.718314
0.624893
0.5598
0.494866
0.521759
-0.478431
-0.446963
-0.385397
-0.3
-0.201801
-0.095696
0.0175585
0.138115
0.266037
0.40301
0.535159
0.647186
0.732303
0.777986
0.722885
0.579591
0.467786
0.392298
0.309081
0.354337
-0.502065
-0.468242
-0.404943
-0.319506
-0.221349
-0.115259
-0.00213023
0.117632
0.244198
0.378803
0.507155
0.613228
0.686805
0.694241
0.583947
0.425764
0.294286
0.199854
0.10374
0.135451
-0.525029
-0.490172
-0.425498
-0.339387
-0.241196
-0.135252
-0.0226512
0.0961343
0.22109
0.352871
0.476313
0.573866
0.630768
0.604521
0.442883
0.263514
0.101882
-0.0338355
-0.159863
-0.14694
-0.547714
-0.512478
-0.4469
-0.360198
-0.261895
-0.156195
-0.0442738
0.0733681
0.196396
0.324887
0.4425
0.531612
0.567521
0.494868
0.303979
0.104963
-0.0832617
-0.238219
-0.444591
-0.524792
-0.570807
-0.535632
-0.469528
-0.382417
-0.283972
-0.178471
-0.0671778
0.0492662
0.170211
0.295091
0.406341
0.486025
0.495519
0.371546
0.177228
-0.0336356
-0.226893
-0.389175
-0.513513
-0.631827
-0.595374
-0.560114
-0.493726
-0.406406
-0.307957
-0.202762
-0.0922064
0.0228413
0.141325
0.26198
0.366395
0.433018
0.414732
0.254488
0.0586498
-0.146306
-0.322991
-0.420995
-0.447301
-0.460761
-0.621545
-0.586209
-0.519621
-0.432253
-0.333992
-0.229292
-0.119737
-0.00642238
0.109116
0.22475
0.321875
0.370519
0.332612
0.141843
-0.051887
-0.236788
-0.370327
-0.408536
-0.417461
-0.41779
-0.649597
-0.614047
-0.547257
-0.459949
-0.362031
-0.258072
-0.149797
-0.0385871
0.0735066
0.18337
0.272133
0.304182
0.234183
0.0387391
-0.148593
-0.30935
-0.384696
-0.398772
-0.399797
-0.399658
-0.679538
-0.643659
-0.576653
-0.489496
-0.392093
-0.289095
-0.182403
-0.0736785
0.0344984
0.137944
0.217006
0.234222
0.125391
-0.0548481
-0.231654
-0.359369
-0.388951
-0.389518
-0.390021
-0.389575
-0.711112
-0.674877
-0.607707
-0.520812
-0.424096
-0.322315
-0.217534
-0.111681
-0.00786126
0.088603
0.157757
0.155782
0.0288139
-0.140913
-0.296914
-0.369933
-0.385432
-0.384039
-0.383961
-0.383598
-0.743756
-0.707348
-0.640154
-0.553663
-0.457849
-0.357572
-0.255042
-0.152476
-0.0533537
0.0357411
0.0948513
0.0764667
-0.0603456
-0.216713
-0.33993
-0.377736
-0.378288
-0.379546
-0.37976
-0.379568
-0.777022
-0.740535
-0.673498
-0.587626
-0.492992
-0.394538
-0.294637
-0.195785
-0.101689
-0.0197198
0.0269712
0.00139475
-0.141597
-0.277652
-0.366223
-0.374616
-0.376559
-0.377178
-0.377085
-0.37701
-0.809932
-0.773543
-0.706996
-0.622051
-0.528962
-0.432721
-0.335845
-0.241111
-0.152451
-0.0769152
-0.0411054
-0.0734796
-0.211534
-0.325249
-0.37679
-0.385305
-0.378777
-0.375836
-0.374857
-0.374628
-0.84066
-0.80508
-0.7396
-0.656032
-0.564962
-0.471401
-0.377983
-0.287714
-0.204854
-0.135425
-0.104336
-0.150879
-0.268219
-0.365631
-0.390137
-0.386609
-0.379589
-0.374713
-0.373186
-0.372612
-0.868092
-0.833611
-0.769884
-0.688347
-0.59991
-0.509617
-0.420155
-0.334666
-0.257639
-0.194762
-0.165727
-0.217516
-0.309606
-0.384256
-0.410574
-0.395909
-0.385759
-0.381416
-0.37929
-0.378142
-0.889511
-0.856997
-0.796062
-0.717446
-0.632461
-0.546163
-0.461237
-0.380884
-0.309524
-0.25304
-0.226688
-0.268731
-0.334609
-0.37878
-0.385426
-0.393718
-0.398278
-0.397373
-0.395073
-0.394233
-0.902791
-0.873078
-0.816025
-0.741553
-0.661061
-0.579619
-0.499908
-0.425074
-0.359465
-0.307477
-0.28226
-0.311539
-0.349438
-0.377649
-0.380222
-0.390033
-0.395098
-0.396088
-0.396347
-0.396839
-0.905209
-0.879431
-0.827632
-0.758777
-0.684047
-0.608481
-0.534722
-0.465738
-0.406184
-0.357445
-0.328456
-0.351294
-0.364814
-0.380019
-0.384969
-0.389781
-0.392301
-0.393285
-0.394003
-0.394175
-0.894443
-0.873497
-0.82872
-0.767339
-0.699906
-0.63137
-0.564258
-0.501433
-0.447708
-0.404521
-0.362494
-0.387857
-0.382961
-0.386762
-0.391657
-0.395619
-0.397773
-0.398537
-0.398639
-0.398629
-0.867991
-0.852613
-0.817356
-0.765981
-0.707545
-0.647295
-0.587447
-0.530993
-0.482264
-0.44683
-0.400977
-0.412113
-0.416801
-0.431288
-0.428764
-0.415561
-0.405309
-0.40451
-0.405463
-0.405706
-0.829294
-0.81947
-0.794641
-0.754945
-0.706968
-0.6559
-0.603896
-0.553554
-0.509587
-0.479531
-0.450948
-0.435223
-0.423768
-0.443129
-0.452325
-0.434979
-0.425894
-0.423415
-0.423667
-0.423619
-0.785466
-0.779885
-0.765564
-0.737287
-0.700295
-0.658015
-0.61363
-0.569053
-0.528725
-0.499341
-0.473484
-0.451218
-0.418947
-0.378438
-0.358877
-0.389399
-0.434244
-0.454376
-0.456939
-0.456663
-0.746641
-0.743267
-0.736484
-0.718483
-0.690426
-0.655749
-0.617418
-0.577617
-0.538712
-0.507337
-0.481837
-0.474909
-0.475048
-0.493803
-0.511032
-0.551382
-0.558349
-0.539808
-0.522815
-0.526531
-0.718818
-0.71684
-0.713362
-0.702633
-0.681263
-0.652
-0.617806
-0.579679
-0.540873
-0.504437
-0.479731
-0.487304
-0.562885
-0.702998
-0.858208
-0.921505
-0.91276
-0.85191
-0.765209
-0.729502
-0.698343
-0.69764
-0.696445
-0.691094
-0.675337
-0.649644
-0.616456
-0.578262
-0.536107
-0.493214
-0.464581
-0.443812
-0.446747
-0.490394
-0.561931
-0.574372
-0.526584
-0.478675
-0.419364
-0.390386
-0.686507
-0.686232
-0.685544
-0.682988
-0.672239
-0.648521
-0.614743
-0.574774
-0.526792
-0.475782
-0.431585
-0.369317
-0.266308
-0.136727
-0.0259878
0.0753679
0.165495
0.209211
0.234497
0.24417
-0.678796
-0.678651
-0.678254
-0.677482
-0.670805
-0.64894
-0.614209
-0.569388
-0.516541
-0.452616
-0.382624
-0.299793
-0.118658
0.13764
0.409164
0.640428
0.723476
0.741965
0.729732
0.720194
-0.673838
-0.673789
-0.673633
-0.673603
-0.669701
-0.651208
-0.615217
-0.565131
-0.506442
-0.428069
-0.34409
-0.232573
-0.0412996
0.216889
0.458074
0.644229
0.761383
0.821939
0.864729
0.884735
-0.670343
-0.670261
-0.669958
-0.669476
-0.668435
-0.655204
-0.61849
-0.563396
-0.494975
-0.413041
-0.313801
-0.204176
0.0119231
0.271212
0.538106
0.77117
0.933284
1.0397
1.11209
1.14304
-0.668302
-0.66873
-0.669716
-0.670912
-0.671831
-0.66317
-0.624199
-0.562956
-0.491647
-0.406286
-0.301787
-0.19769
-0.00585945
0.262732
0.568876
0.855049
1.0835
1.23225
1.30764
1.33041
-0.663457
-0.665314
-0.67025
-0.679417
-0.688247
-0.67541
-0.628007
-0.565628
-0.498292
-0.408268
-0.303964
-0.208002
-0.0496239
0.210457
0.493934
0.751651
0.966738
1.10905
1.17103
1.18685
-0.661467
-0.663438
-0.667279
-0.671883
-0.676708
-0.660805
-0.618334
-0.57367
-0.512139
-0.419473
-0.320629
-0.232978
-0.121176
0.100029
0.352188
0.560508
0.726233
0.827844
0.868621
0.877978
-0.686583
-0.687539
-0.682255
-0.650632
-0.603622
-0.590713
-0.599047
-0.589364
-0.531061
-0.436286
-0.341916
-0.260359
-0.175049
-0.012059
0.185774
0.344204
0.468567
0.538675
0.565999
0.570288
-0.728171
-0.726551
-0.716264
-0.677026
-0.620106
-0.596909
-0.633978
-0.626463
-0.556712
-0.455139
-0.365903
-0.294368
-0.224237
-0.102407
0.0471926
0.162171
0.248825
0.294673
0.311939
0.313295
-0.80169
-0.801797
-0.8218
-0.849986
-0.854627
-0.829633
-0.802534
-0.71796
-0.594396
-0.477792
-0.39383
-0.322685
-0.275333
-0.18008
-0.0729061
0.00956057
0.0703175
0.101206
0.111705
0.112509
-0.949862
-0.968756
-1.02225
-1.08103
-1.10448
-1.07497
-0.984478
-0.814901
-0.632902
-0.504336
-0.409464
-0.345666
-0.305865
-0.24098
-0.165079
-0.107736
-0.0701116
-0.0520741
-0.0455944
-0.0462412
-1.06011
-1.08333
-1.12813
-1.16925
-1.18706
-1.15784
-1.05022
-0.832776
-0.642899
-0.51591
-0.411535
-0.361164
-0.328438
-0.277812
-0.231255
-0.200837
-0.184012
-0.176564
-0.174156
-0.174508
-1.02026
-1.03737
-1.06933
-1.10131
-1.11718
-1.08985
-0.964652
-0.757585
-0.608087
-0.481443
-0.402601
-0.355928
-0.33114
-0.298099
-0.270261
-0.260365
-0.25923
-0.261052
-0.260858
-0.260811
-0.807041
-0.825183
-0.858272
-0.895843
-0.918955
-0.891807
-0.777466
-0.637857
-0.516317
-0.419737
-0.374441
-0.336457
-0.316003
-0.296831
-0.287974
-0.289459
-0.296015
-0.300035
-0.300291
-0.299948
-0.472128
-0.487745
-0.518612
-0.558203
-0.58828
-0.583115
-0.530717
-0.466713
-0.395322
-0.356022
-0.326169
-0.308807
-0.302221
-0.284361
-0.280168
-0.283421
-0.291625
-0.293739
-0.292856
-0.292363
-0.140996
-0.15042
-0.172026
-0.206391
-0.24489
-0.271339
-0.285781
-0.287897
-0.286319
-0.278984
-0.272942
-0.28026
-0.285966
-0.265445
-0.254926
-0.251875
-0.251136
-0.249631
-0.248378
-0.248403
0.074307
0.069354
0.0549453
0.0261405
-0.0184444
-0.0727042
-0.123043
-0.161929
-0.187716
-0.204457
-0.221231
-0.23982
-0.251765
-0.230805
-0.212743
-0.203226
-0.194932
-0.190948
-0.190115
-0.190878
0.16256
0.159525
0.149088
0.125287
0.0853165
0.0321098
-0.0251205
-0.0758076
-0.1146
-0.142248
-0.163196
-0.17954
-0.188386
-0.173713
-0.159975
-0.150694
-0.14197
-0.138208
-0.138188
-0.139442
0.174436
0.172359
0.164813
0.147124
0.115953
0.0734016
0.0263674
-0.0216773
-0.0605098
-0.088171
-0.105626
-0.111243
-0.11367
-0.111456
-0.110307
-0.108638
-0.105581
-0.104357
-0.105136
-0.1063
0.154477
0.153179
0.148098
0.13589
0.114063
0.0827565
0.0457104
0.00851356
-0.023025
-0.0452794
-0.0535916
-0.046992
-0.043127
-0.054431
-0.0682387
-0.0775503
-0.0824308
-0.0856049
-0.0874651
-0.088283
0.124652
0.123958
0.12078
0.112873
0.0983561
0.0770873
0.0509404
0.023017
-0.00128162
-0.0154074
-0.0147959
0.000313929
0.00551527
-0.0147301
-0.0371
-0.054057
-0.0655135
-0.0725663
-0.0750083
-0.0754229
0.0931103
0.0929068
0.0910784
0.0862133
0.076968
0.062988
0.0453486
0.026891
0.0109184
0.00352745
0.0089432
0.0248946
0.0293075
0.00780398
-0.0165959
-0.0346451
-0.0478193
-0.0558485
-0.0583486
-0.0585419
0.0629166
0.0628794
0.0619895
0.0592488
0.0537749
0.0453475
0.034404
0.0229123
0.013374
0.0111316
0.0182521
0.0324559
0.0337358
0.0154281
-0.00421692
-0.0179647
-0.0279037
-0.0340281
-0.0359915
-0.0362133
0.0342125
0.0342987
0.034009
0.0327609
0.0300464
0.0257856
0.0201424
0.0143499
0.00940167
0.00971267
0.0163084
0.0256973
0.0245505
0.0122953
0.00169094
-0.00518536
-0.010631
-0.0134445
-0.0147421
-0.0150929
0.00631872
0.00641348
0.00648115
0.00672491
0.00666851
0.00598362
0.00483887
0.00349985
0.00242263
0.0019302
0.00339211
0.00623922
0.00935539
0.00904824
0.00383496
0.000988647
-0.00188767
-0.0034563
-0.00276604
-0.00261143
-0.0162619
0.172228
0.345205
0.491908
0.609341
0.701883
0.778784
0.841325
0.85716
0.853821
0.272709
0.393889
0.507538
0.606151
0.688982
0.757252
0.811038
0.847494
0.867071
0.883722
0.469193
0.550117
0.630028
0.700019
0.759624
0.809045
0.848011
0.877758
0.900157
0.919397
0.614996
0.672216
0.729634
0.781252
0.82587
0.863859
0.895756
0.922553
0.942784
0.961672
0.731096
0.77414
0.816784
0.856792
0.89259
0.924247
0.95194
0.975418
0.993334
1.01138
0.827512
0.863068
0.89831
0.931966
0.962978
0.991061
1.01586
1.03668
1.05242
1.0699
0.915759
0.947648
0.979873
1.01103
1.03999
1.06631
1.08939
1.1083
1.12219
1.13921
1.00261
1.03514
1.06752
1.09869
1.12744
1.15321
1.17531
1.19282
1.20518
1.22172
1.09693
1.13332
1.16807
1.20052
1.22967
1.255
1.27611
1.29238
1.30398
1.32014
1.20997
1.2506
1.28759
1.32051
1.34898
1.37295
1.39257
1.40783
1.41972
1.43582
1.35141
1.39243
1.42766
1.45722
1.48242
1.50403
1.52253
1.53801
1.55111
1.56709
1.52293
1.55523
1.58216
1.6045
1.62459
1.64331
1.66104
1.67779
1.6927
1.70851
1.70926
1.72652
1.74365
1.76034
1.77643
1.79116
1.80504
1.8195
1.83474
1.85215
1.89249
1.90241
1.91557
1.92652
1.93592
1.94556
1.95616
1.96635
1.97569
2.00108
2.10991
2.10414
2.09113
2.07689
2.0706
2.07629
2.0944
2.1229
2.15668
2.19297
2.41318
2.27735
2.19787
2.15531
2.1379
2.14193
2.16942
2.22734
2.33499
2.51321
0.745732
0.739433
0.731702
0.720589
0.707026
0.694387
0.683998
0.675995
0.670287
0.666969
0.666635
0.669486
0.674733
0.6821
0.691653
0.703482
0.717041
0.729969
0.738962
0.746501
0.654836
0.660764
0.66883
0.674958
0.678024
0.677511
0.674428
0.670439
0.666859
0.664589
0.664476
0.66675
0.670521
0.674979
0.679091
0.681345
0.680281
0.675653
0.668608
0.660776
0.648081
0.650453
0.653723
0.6565
0.658953
0.661143
0.662322
0.662178
0.661249
0.660458
0.660696
0.662136
0.66394
0.665188
0.665129
0.663675
0.661526
0.659167
0.656186
0.653169
0.64328
0.644368
0.646286
0.648626
0.650501
0.651905
0.653128
0.654127
0.654737
0.655134
0.655717
0.656491
0.656985
0.656888
0.656276
0.655365
0.654042
0.652078
0.649975
0.648499
0.638243
0.638877
0.640006
0.641767
0.643613
0.645212
0.64647
0.647543
0.648539
0.649461
0.650282
0.65084
0.651009
0.650827
0.650309
0.649349
0.647933
0.646332
0.644999
0.644199
0.633301
0.63374
0.63453
0.635837
0.637364
0.638933
0.640419
0.641726
0.642899
0.644014
0.645009
0.645657
0.645874
0.645669
0.645029
0.644048
0.642909
0.641775
0.640878
0.640346
0.628445
0.628773
0.629387
0.63046
0.631762
0.633169
0.634658
0.636146
0.637558
0.638894
0.640092
0.640893
0.641166
0.64096
0.640393
0.639633
0.638805
0.637963
0.637309
0.636919
0.623649
0.623903
0.624398
0.625314
0.626494
0.627812
0.629247
0.630791
0.632395
0.633997
0.635454
0.636441
0.636841
0.63679
0.636445
0.635928
0.635318
0.634707
0.634234
0.633936
0.61884
0.619041
0.619454
0.620261
0.621365
0.622638
0.624062
0.625656
0.627407
0.629264
0.631028
0.632293
0.632944
0.633148
0.633053
0.632771
0.632373
0.631958
0.631626
0.631392
0.613931
0.614094
0.614448
0.615184
0.616243
0.617501
0.618959
0.620643
0.622562
0.624688
0.626817
0.628463
0.629458
0.629969
0.630143
0.630101
0.629924
0.629689
0.629474
0.629287
0.608835
0.608966
0.609279
0.609971
0.611017
0.612305
0.613836
0.615656
0.617796
0.620255
0.62283
0.624946
0.626354
0.627222
0.6277
0.627918
0.627962
0.627902
0.627788
0.627637
0.603458
0.603564
0.60385
0.604524
0.605592
0.606952
0.608603
0.610614
0.613047
0.615927
0.619049
0.621731
0.623626
0.624905
0.625728
0.626231
0.626512
0.626628
0.626601
0.626478
0.597702
0.597787
0.598057
0.598738
0.599863
0.601338
0.603163
0.605435
0.608244
0.61165
0.615443
0.618806
0.621279
0.623036
0.624253
0.62509
0.625633
0.625916
0.625969
0.625866
0.591455
0.59152
0.591784
0.592495
0.593713
0.595351
0.597416
0.600029
0.603315
0.607373
0.611983
0.616165
0.619327
0.621647
0.62332
0.624533
0.625363
0.625831
0.62596
0.625874
0.584582
0.584628
0.584894
0.585657
0.587009
0.588865
0.591244
0.594294
0.598179
0.60304
0.608642
0.613808
0.617788
0.620775
0.622984
0.624623
0.625787
0.626454
0.626658
0.626584
0.57693
0.57695
0.577219
0.57806
0.57959
0.581729
0.58451
0.58811
0.592741
0.598589
0.605394
0.611738
0.616688
0.620461
0.623306
0.625454
0.626996
0.62788
0.628158
0.628093
0.568252
0.568269
0.568556
0.569496
0.571257
0.573758
0.577047
0.581339
0.586895
0.593952
0.602211
0.609963
0.616063
0.62076
0.624354
0.627113
0.629089
0.630209
0.630561
0.630501
0.558282
0.558273
0.558606
0.559695
0.561757
0.56472
0.568652
0.573812
0.580519
0.58906
0.599072
0.608496
0.615953
0.62174
0.626216
0.629683
0.632159
0.633538
0.633964
0.633905
0.546698
0.546666
0.547051
0.54833
0.550764
0.55432
0.559073
0.565333
0.573479
0.583843
0.595968
0.607366
0.616404
0.623464
0.628973
0.633257
0.636306
0.637958
0.638451
0.638387
0.532997
0.532944
0.533408
0.53494
0.53786
0.542186
0.548001
0.555669
0.565628
0.578239
0.592899
0.606609
0.617468
0.625988
0.632697
0.63792
0.641598
0.643528
0.644076
0.644002
0.516511
0.516435
0.517026
0.51891
0.52248
0.527834
0.535054
0.544555
0.556821
0.572204
0.589884
0.606271
0.619204
0.629377
0.63744
0.643707
0.648067
0.65026
0.650844
0.650752
0.496262
0.49617
0.496965
0.499364
0.50385
0.510631
0.519766
0.531709
0.546942
0.565742
0.586983
0.606414
0.621665
0.633674
0.643213
0.650639
0.655686
0.658096
0.658682
0.658565
0.470791
0.470699
0.471835
0.475029
0.480901
0.489766
0.501623
0.516894
0.535966
0.558944
0.584316
0.607135
0.624907
0.6389
0.650033
0.658663
0.664339
0.666875
0.667419
0.667269
0.43771
0.437667
0.439417
0.443986
0.452178
0.464308
0.480172
0.500027
0.524026
0.552022
0.582068
0.60856
0.628991
0.645055
0.657835
0.667653
0.673797
0.676318
0.676767
0.676582
0.39277
0.392936
0.396027
0.403465
0.415995
0.433495
0.455311
0.48136
0.511484
0.545308
0.580482
0.610834
0.633985
0.652115
0.666531
0.677384
0.683709
0.68602
0.686327
0.686112
0.328034
0.329405
0.336913
0.350956
0.371448
0.397489
0.427699
0.461613
0.498942
0.539233
0.579826
0.614081
0.639908
0.660021
0.675842
0.687407
0.693554
0.695432
0.695571
0.695351
0.250802
0.253495
0.268085
0.292276
0.323662
0.359816
0.399116
0.441334
0.486297
0.533624
0.580383
0.619317
0.648469
0.671057
0.688465
0.700416
0.706159
0.707701
0.707783
0.707652
0.171792
0.178869
0.20077
0.235114
0.277065
0.323099
0.37149
0.422071
0.474735
0.529134
0.582089
0.625684
0.658073
0.68299
0.701861
0.713839
0.718712
0.719729
0.719747
0.719673
0.107329
0.116326
0.142913
0.184439
0.234703
0.289121
0.345709
0.404131
0.464146
0.525301
0.584081
0.631967
0.667198
0.693983
0.713672
0.725334
0.72968
0.730555
0.730621
0.730597
0.0545519
0.0642733
0.0944259
0.14129
0.197811
0.258934
0.322421
0.387747
0.454459
0.521925
0.58621
0.638133
0.676013
0.704488
0.724863
0.736426
0.740526
0.741328
0.741438
0.741457
0.0104226
0.0204551
0.0530392
0.104071
0.16572
0.232416
0.301742
0.373073
0.445796
0.519096
0.588603
0.644398
0.684842
0.714989
0.736213
0.747849
0.751733
0.752596
0.75276
0.752819
-0.0275388
-0.0173759
0.0170224
0.0713886
0.137333
0.208819
0.283247
0.359914
0.4381
0.516812
0.591284
0.650876
0.69387
0.725722
0.747827
0.759689
0.763699
0.764605
0.764788
0.76488
-0.0610271
-0.0508245
-0.0150057
0.0421215
0.111727
0.187376
0.266343
0.34785
0.431078
0.51489
0.594134
0.657446
0.702974
0.736562
0.759694
0.772067
0.77629
0.777221
0.777382
0.777468
-0.091315
-0.0810896
-0.0441212
0.0153775
0.0881619
0.167474
0.250501
0.336433
0.424378
0.513081
0.596958
0.663903
0.711964
0.747302
0.771529
0.784481
0.788942
0.789898
0.790025
0.790096
-0.11938
-0.109114
-0.07113
-0.00952672
0.0660751
0.148634
0.235315
0.325315
0.417692
0.511076
0.599502
0.670052
0.720629
0.757698
0.783008
0.796504
0.801219
0.8022
0.802292
0.802341
-0.145797
-0.135476
-0.0965595
-0.0330639
0.0450317
0.130494
0.220486
0.314224
0.410742
0.508639
0.601571
0.675745
0.728794
0.767544
0.793864
0.807847
0.812819
0.813812
0.813848
0.813862
-0.171037
-0.160611
-0.120819
-0.0556053
0.0247205
0.11279
0.205781
0.302953
0.403365
0.505617
0.603029
0.680867
0.736412
0.776759
0.803986
0.818338
0.823423
0.82442
0.824415
0.824397
-0.195427
-0.184814
-0.144193
-0.0773989
0.00493005
0.0953347
0.191049
0.291382
0.395441
0.501871
0.603749
0.685348
0.743439
0.785333
0.813302
0.827873
0.832966
0.833926
0.833883
0.833834
-0.219081
-0.208253
-0.166837
-0.0986037
-0.0144748
0.0780325
0.176209
0.279429
0.386873
0.497297
0.603635
0.689152
0.749906
0.793314
0.821839
0.836449
0.841446
0.842334
0.842258
0.842185
-0.24216
-0.231063
-0.188883
-0.119298
-0.0335598
0.0608242
0.161213
0.267054
0.377618
0.491843
0.602605
0.692219
0.755861
0.800845
0.829787
0.8442
0.848958
0.849736
0.849616
0.849525
-0.264632
-0.253314
-0.210368
-0.13952
-0.0523493
0.0436998
0.146066
0.254264
0.367682
0.48546
0.600572
0.694492
0.761357
0.808096
0.837326
0.851277
0.855619
0.856219
0.856056
0.855952
-0.2866
-0.274994
-0.231273
-0.159272
-0.0708411
0.026676
0.130794
0.241098
0.357086
0.478139
0.597473
0.695888
0.766395
0.815255
0.844773
0.857947
0.861569
0.86188
0.861668
0.861562
-0.307886
-0.296082
-0.251596
-0.178553
-0.0890011
0.0098114
0.115447
0.227605
0.345879
0.469913
0.593258
0.696302
0.77092
0.822467
0.852524
0.864659
0.867084
0.866826
0.866541
0.866471
-0.328639
-0.31654
-0.271322
-0.197353
-0.106809
-0.00686651
0.100105
0.213854
0.334131
0.460838
0.587895
0.695618
0.774799
0.829734
0.860974
0.872176
0.872866
0.871396
0.870828
0.8709
-0.34869
-0.33633
-0.290443
-0.215628
-0.124197
-0.0232821
0.0848417
0.199953
0.321936
0.450961
0.581388
0.693707
0.777839
0.836872
0.870275
0.881405
0.880376
0.876779
0.875029
0.875129
-0.368144
-0.355488
-0.308906
-0.233328
-0.141134
-0.0393731
0.0697405
0.18598
0.309391
0.440404
0.573775
0.690423
0.779803
0.843499
0.880039
0.892699
0.891416
0.88574
0.880112
0.872081
-0.386889
-0.374008
-0.326801
-0.250619
-0.157842
-0.0554147
0.0544731
0.171539
0.296069
0.428694
0.564586
0.685257
0.780383
0.849483
0.88985
0.905756
0.906558
0.899538
0.888122
0.887217
-0.404889
-0.391962
-0.344126
-0.267453
-0.174309
-0.0713705
0.0390655
0.15661
0.281928
0.415694
0.553617
0.677671
0.778765
0.854025
0.897854
0.916769
0.919363
0.913771
0.879365
0.840863
-0.421938
-0.409227
-0.360831
-0.283711
-0.190527
-0.0872474
0.023514
0.14132
0.267029
0.401424