/*--------------------------------*- C++ -*----------------------------------*\
  =========                 |
  \\      /  F ield         | OpenFOAM: The Open Source CFD Toolbox
   \\    /   O peration     | Website:  https://openfoam.org
    \\  /    A nd           | Version:  6
     \\/     M anipulation  |
\*---------------------------------------------------------------------------*/
FoamFile
{
    version     2.0;
    format      ascii;
    class       surfaceScalarField;
    location    "73";
    object      phi;
}
// * * * * * * * * * * * * * * * * * * * * * * * * * * * * * * * * * * * * * //

dimensions      [0 3 -1 0 0 0 0];

internalField   nonuniform List<scalar> 
17370
(
-0.0899994
0.0898528
0.289157
-0.07146
0.0537553
0.36448
-0.0381232
0.0276976
0.426594
-0.019649
0.0146176
0.504283
-0.0107755
0.00828391
0.601894
-0.00628248
0.0049045
0.720435
-0.00373944
0.00289813
0.863748
-0.00215609
0.00159649
1.03601
-0.00107937
0.000666435
1.24292
-0.000258415
-0.000135423
1.49158
0.000515086
-0.000925644
1.4916
0.00132414
-0.00181453
1.24318
0.00234368
-0.00305082
1.03634
0.00386516
-0.00500973
0.864051
0.0063768
-0.00837127
0.721052
0.0108577
-0.0146936
0.60305
0.0197188
-0.0277601
0.507481
0.0381786
-0.0538021
0.431792
0.0714984
-0.0898784
0.365156
0.0900148
0.198996
-0.128133
0.0882152
0.0399182
-0.364592
0.353408
-0.0746846
0.0858693
-0.446478
0.454321
-0.0843737
0.0765305
-0.521188
0.529899
-0.0684396
0.0597287
-0.612786
0.621564
-0.0515406
0.0427624
-0.726894
0.734161
-0.0353038
0.0280372
-0.867476
0.872589
-0.022439
0.0173258
-1.03847
1.04192
-0.0135174
0.0100685
-1.2446
1.24703
-0.00745811
0.00502522
-1.49262
1.4946
-0.00307771
0.00110068
-1.4925
1.49423
0.000580715
-0.00230417
-1.24398
1.24586
0.00420743
-0.00609245
-1.03751
1.04004
0.00844943
-0.0109786
-0.866103
0.869829
0.0143309
-0.0180564
-0.724393
0.729933
0.0230926
-0.028633
-0.608698
0.61611
0.0358453
-0.0432576
-0.514896
0.52304
0.0519865
-0.0601301
-0.439855
0.447908
0.0687934
-0.0768461
-0.375301
0.376739
0.0846439
-0.0860814
-0.257329
0.222474
0.0748288
-0.039974
-0.0685145
0.0586917
0.00982278
-0.0518183
0.0584035
-0.374128
0.367543
-0.0574886
0.0537356
-0.453597
0.45735
-0.0486443
0.0446889
-0.527947
0.531902
-0.0408455
0.0372042
-0.621562
0.625203
-0.0331003
0.0290238
-0.735346
0.739422
-0.0244532
0.0202943
-0.874338
0.878497
-0.0159491
0.0122558
-1.04349
1.04718
-0.00851859
0.00534544
-1.24856
1.25173
-0.00201609
-0.00105712
-1.49666
1.49973
0.00410489
-0.00737101
-1.4972
1.50047
0.0104514
-0.0140576
-1.25007
1.25368
0.0176144
-0.0218012
-1.04592
1.05011
0.0258225
-0.0302587
-0.87776
0.882197
0.0342286
-0.0382283
-0.739898
0.743898
0.0417811
-0.0455323
-0.626774
0.630525
0.0494083
-0.0544237
-0.534812
0.539827
0.0580943
-0.0589055
-0.457479
0.45829
0.0521987
-0.0319859
-0.335761
0.315548
0.00988479
-0.0683427
0.0584579
-0.0529413
0.0489458
0.00399549
-0.0331596
0.0437034
-0.358108
0.347565
-0.0474014
0.0467736
-0.459287
0.459914
-0.0437176
0.0403647
-0.535805
0.539158
-0.0365921
0.0332875
-0.62853
0.631835
-0.0298486
0.0268153
-0.742647
0.745681
-0.0235548
0.0204468
-0.882016
0.885124
-0.0169151
0.0135347
-1.05077
1.05415
-0.00974031
0.00620066
-1.25517
1.25871
-0.00223029
-0.00156751
-1.50324
1.50704
0.00533272
-0.00920653
-1.50413
1.50801
0.0126155
-0.016229
-1.25742
1.26103
0.01942
-0.0227303
-1.05392
1.05723
0.0256431
-0.0287094
-0.88569
0.888756
0.0315859
-0.0348705
-0.747159
0.750444
0.0380451
-0.0416846
-0.634311
0.63795
0.0449231
-0.0478489
-0.544138
0.547064
0.0483395
-0.0444489
-0.456573
0.452682
0.0336753
-0.0162232
-0.296181
0.278729
0.00407252
-0.0526382
0.0485656
-0.0458683
0.0433735
0.00249484
-0.0228022
0.0331783
-0.336877
0.326501
-0.0389974
0.0400124
-0.4596
0.458585
-0.0388206
0.0365324
-0.541877
0.544165
-0.0338637
0.0312668
-0.634885
0.637482
-0.0282029
0.0253031
-0.748726
0.751626
-0.0220379
0.0190436
-0.888078
0.891073
-0.0157375
0.0126369
-1.05728
1.06038
-0.00910925
0.00569886
-1.26216
1.26558
-0.00173417
-0.00215105
-1.51092
1.51481
0.0059929
-0.00982913
-1.5119
1.51574
0.0130662
-0.016356
-1.26446
1.26775
0.0192081
-0.0222234
-1.06033
1.06335
0.0249592
-0.0279647
-0.891811
0.894817
0.0306517
-0.0335041
-0.753649
0.756501
0.0359232
-0.0384121
-0.641015
0.643504
0.0405458
-0.041535
-0.548866
0.549855
0.0403079
-0.0341794
-0.447399
0.441271
0.0234652
-0.0102408
-0.263505
0.250281
0.00259004
-0.0454016
0.0428116
-0.0412992
0.0395332
0.00176602
-0.0167391
0.0259858
-0.316652
0.307405
-0.0325872
0.0347241
-0.456987
0.45485
-0.0343005
0.0326279
-0.546144
0.547816
-0.0304448
0.0283474
-0.639787
0.641885
-0.0259139
0.0235148
-0.75427
0.756669
-0.0206549
0.0178646
-0.893968
0.896758
-0.0146271
0.0115565
-1.06343
1.0665
-0.00806428
0.00473644
-1.2689
1.27222
-0.000901308
-0.00283371
-1.51859
1.52233
0.00651356
-0.0101851
-1.51947
1.52314
0.0132923
-0.016482
-1.27099
1.27418
0.019236
-0.0221015
-1.06637
1.06924
0.0245596
-0.027084
-0.897631
0.900155
0.0292075
-0.0313675
-0.758949
0.761109
0.0332371
-0.035189
-0.645656
0.647608
0.0366375
-0.0367855
-0.55037
0.550518
0.0343233
-0.027269
-0.434598
0.427544
0.0175668
-0.00741354
-0.238742
0.228589
0.00188229
-0.0406312
0.0387489
-0.0380122
0.0366846
0.00132762
-0.0127742
0.0207121
-0.298818
0.29088
-0.0274543
0.0303709
-0.452294
0.449377
-0.0305702
0.0294464
-0.549249
0.550372
-0.0274491
0.0255289
-0.643921
0.645841
-0.023325
0.0211843
-0.758909
0.76105
-0.0186657
0.016179
-0.899334
0.90182
-0.0132326
0.0103491
-1.06944
1.07232
-0.00698229
0.00373665
-1.27548
1.27873
1.46654e-05
-0.00364606
-1.52598
1.52961
0.0072085
-0.0107544
-1.52673
1.53028
0.0137236
-0.0167127
-1.2773
1.28029
0.0192007
-0.021682
-1.07197
1.07446
0.0237529
-0.0258504
-0.902443
0.904541
0.0276431
-0.0294996
-0.763089
0.764946
0.0311319
-0.0328488
-0.649424
0.651141
0.0336461
-0.0330611
-0.550304
0.549719
0.0296793
-0.0223168
-0.420279
0.412917
0.0137933
-0.00575142
-0.219592
0.21155
0.00146907
-0.0370988
0.0356297
-0.0355254
0.0345033
0.00102207
-0.00997242
0.0166754
-0.283586
0.276883
-0.0231455
0.0265087
-0.446218
0.442855
-0.0272814
0.0265747
-0.55128
0.551987
-0.0248094
0.0230191
-0.647738
0.649528
-0.0209425
0.0189201
-0.763124
0.765146
-0.0165418
0.0142082
-0.904161
0.906495
-0.0114619
0.00876927
-1.07504
1.07773
-0.00560287
0.00251032
-1.28186
1.28495
0.00110695
-0.00462369
-1.53317
1.53669
0.00805493
-0.011417
-1.53372
1.53709
0.0141677
-0.0168686
-1.28314
1.28584
0.019074
-0.0212465
-1.07683
1.07901
0.0230664
-0.0249239
-0.906518
0.908375
0.0265149
-0.0281599
-0.766689
0.768334
0.0295925
-0.0309702
-0.652713
0.654091
0.0312719
-0.0299513
-0.54878
0.547459
0.0259469
-0.0186602
-0.405566
0.398279
0.0112213
-0.00465107
-0.204314
0.197743
0.00119407
-0.0343136
0.0331195
-0.0336067
0.032812
0.00079476
-0.00789304
0.0135189
-0.270748
0.265122
-0.0194976
0.0230521
-0.439386
0.435832
-0.0242968
0.0238349
-0.552605
0.553066
-0.0223334
0.0206504
-0.651314
0.652997
-0.0186658
0.0167264
-0.767119
0.769058
-0.0144376
0.0121893
-0.908719
0.910967
-0.00954407
0.00695995
-1.0803
1.08288
-0.00393322
0.00098269
-1.28792
1.29087
0.0024642
-0.00580764
-1.54009
1.54344
0.00904613
-0.0121795
-1.54031
1.54345
0.0147108
-0.0171685
-1.28842
1.29088
0.0191566
-0.0210984
-1.08114
1.08308
0.0227161
-0.0243654
-0.910137
0.911786
0.0257747
-0.0272278
-0.769876
0.771329
0.0284642
-0.0294616
-0.655266
0.656264
0.0293878
-0.0273962
-0.545805
0.543813
0.0229855
-0.0159593
-0.391118
0.384092
0.00941945
-0.00389126
-0.191743
0.186215
0.00100377
-0.0320323
0.0310285
-0.0321151
0.0314969
0.000618166
-0.00628598
0.0109911
-0.259985
0.25528
-0.016373
0.0199215
-0.432281
0.428732
-0.021484
0.0212449
-0.553454
0.553693
-0.0199726
0.0183459
-0.654698
0.656324
-0.0164146
0.0145221
-0.770962
0.772855
-0.0122893
0.0100969
-0.913111
0.915303
-0.00751765
0.00500184
-1.08536
1.08787
-0.00206405
-0.000782478
-1.29371
1.29656
0.00407981
-0.00724788
-1.54666
1.54983
0.010288
-0.0132032
-1.54644
1.54936
0.0155392
-0.017785
-1.29324
1.29548
0.0195749
-0.0212961
-1.08501
1.08673
0.0227192
-0.0241709
-0.913341
0.914792
0.0254141
-0.0266912
-0.772686
0.773963
0.0277822
-0.0283563
-0.657051
0.657625
0.0279087
-0.0253485
-0.541549
0.538989
0.0206846
-0.0139815
-0.377236
0.370533
0.00814844
-0.00336248
-0.181095
0.176309
0.000871972
-0.0301002
0.0292282
-0.030959
0.0304843
0.000474772
-0.00498997
0.0089003
-0.251
0.247089
-0.0136413
0.0170353
-0.42527
0.421876
-0.0187753
0.0187233
-0.553883
0.553935
-0.0176401
0.0160462
-0.657999
0.659592
-0.0141337
0.012253
-0.774724
0.776604
-0.0100355
0.00786426
-0.917396
0.919568
-0.00531904
0.00284602
-1.09028
1.09275
2.89049e-05
-0.0027973
-1.29931
1.30208
0.00597736
-0.00899998
-1.55288
1.5559
0.0118673
-0.0145835
-1.55214
1.55486
0.0167334
-0.0187707
-1.29763
1.29966
0.0203631
-0.0218654
-1.08847
1.08997
0.0231022
-0.0243726
-0.916153
0.917423
0.0254673
-0.0265856
-0.775151
0.776269
0.0274757
-0.0276856
-0.658013
0.658223
0.0268181
-0.0237753
-0.536197
0.533155
0.0189536
-0.0125619
-0.364002
0.357611
0.00726328
-0.00300089
-0.171817
0.167554
0.000783416
-0.0284091
0.0276257
-0.0300782
0.029725
0.000353202
-0.003902
0.00711306
-0.243554
0.240343
-0.0112014
0.0143309
-0.418632
0.415503
-0.0161219
0.0162201
-0.553964
0.553866
-0.0152126
0.0136881
-0.661223
0.662748
-0.0117661
0.00986409
-0.778472
0.780374
-0.00762272
0.00543648
-0.921645
0.923831
-0.00288693
0.000424426
-1.09513
1.09759
0.00241932
-0.00513707
-1.30475
1.30747
0.00823047
-0.0111355
-1.55883
1.56173
0.0138522
-0.016383
-1.55745
1.55998
0.0183521
-0.0201841
-1.30159
1.30343
0.0215816
-0.0228686
-1.09151
1.0928
0.0239244
-0.0250199
-0.9186
0.919696
0.0259704
-0.0269222
-0.77729
0.778242
0.0275513
-0.0274679
-0.658298
0.658215
0.0261538
-0.0226702
-0.529901
0.526417
0.0177297
-0.0115906
-0.35137
0.345231
0.0066745
-0.00276709
-0.163497
0.15959
0.000728259
-0.0268784
0.0261501
-0.0294335
0.029189
0.000244502
-0.00294613
0.00552498
-0.237471
0.234892
-0.00896099
0.0117431
-0.41257
0.409788
-0.0134706
0.0136442
-0.55379
0.553617
-0.0126751
0.0111871
-0.664334
0.665822
-0.00923188
0.00727864
-0.78227
0.784223
-0.00497728
0.00274117
-0.925927
0.928163
-0.000147166
-0.00234205
-1.09996
1.10245
0.0051945
-0.00789488
-1.31011
1.31281
0.0109327
-0.0137432
-1.56454
1.56736
0.0163259
-0.0186833
-1.56238
1.56474
0.0204793
-0.022111
-1.30515
1.30678
0.0233128
-0.0243793
-1.09416
1.09523
0.0252488
-0.0261653
-0.920695
0.921611
0.0269689
-0.027758
-0.779071
0.77986
0.028099
-0.0277147
-0.657986
0.657602
0.0259395
-0.0220273
-0.522743
0.518831
0.0169659
-0.0109933
-0.339207
0.333235
0.00632408
-0.0026352
-0.155819
0.15213
0.000699804
-0.0254446
0.0247448
-0.0290036
0.0288626
0.000141041
-0.00205867
0.00404309
-0.232633
0.230648
-0.00682195
0.0091868
-0.407243
0.404878
-0.0107429
0.0109131
-0.553519
0.553349
-0.00994751
0.00845741
-0.667407
0.668897
-0.0064404
0.00440545
-0.786174
0.788209
-0.00200737
-0.00031381
-0.930309
0.93263
0.00299223
-0.00554501
-1.10485
1.1074
0.0084456
-0.0111621
-1.31543
1.31815
0.0141762
-0.0169154
-1.57008
1.57282
0.0193799
-0.0215734
-1.56697
1.56916
0.0232016
-0.0246342
-1.3083
1.30973
0.0256341
-0.0264683
-1.0964
1.09724
0.0271393
-0.02786
-0.922417
0.923138
0.0285078
-0.0291534
-0.780497
0.781143
0.0291754
-0.0283885
-0.657019
0.656232
0.0261554
-0.0218199
-0.514753
0.510418
0.0166099
-0.0107071
-0.327336
0.321433
0.00616631
-0.00258483
-0.148522
0.14494
0.000692619
-0.0240573
0.0233646
-0.0287812
0.0287448
3.63784e-05
-0.00119285
0.00259694
-0.228975
0.227571
-0.00470433
0.00658745
-0.402787
0.400904
-0.00786763
0.00795138
-0.553312
0.553228
-0.00694184
0.00541133
-0.67052
0.67205
-0.0032923
0.00114135
-0.790243
0.792394
0.00139448
-0.00383966
-0.934863
0.937308
0.00664566
-0.00930114
-1.10988
1.11253
0.0122914
-0.0150594
-1.3208
1.32357
0.0180832
-0.0207743
-1.57548
1.57817
0.0231345
-0.0251699
-1.57122
1.57326
0.0266304
-0.0278604
-1.31103
1.31226
0.0286537
-0.0292519
-1.09822
1.09882
0.0297193
-0.0302341
-0.923747
0.924262
0.0307107
-0.0311284
-0.781553
0.781971
0.0308621
-0.0295996
-0.655252
0.65399
0.0268675
-0.0220715
-0.505917
0.501121
0.0166511
-0.0107053
-0.315554
0.309608
0.00617976
-0.00260638
-0.141391
0.137817
0.000704281
-0.0226755
0.0219712
-0.0287697
0.0288398
-7.01351e-05
-0.000309927
0.00112445
-0.226479
0.225664
-0.00252788
0.00386128
-0.399327
0.397993
-0.00476223
0.00467459
-0.553341
0.553429
-0.00356358
0.00193514
-0.673762
0.675391
0.000321237
-0.00262943
-0.794547
0.796855
0.00535026
-0.00796346
-0.939665
0.942278
0.0109458
-0.0137481
-1.11512
1.11792
0.0168737
-0.0197305
-1.32628
1.32913
0.0227983
-0.0254654
-1.58078
1.58345
0.0277345
-0.0296137
-1.57515
1.57703
0.0309013
-0.0319199
-1.31334
1.31436
0.0325019
-0.0328571
-1.09959
1.09995
0.0331099
-0.0334043
-0.924655
0.924949
0.0336816
-0.0337927
-0.782063
0.782174
0.0332119
-0.0314
-0.652541
0.65073
0.028115
-0.0227972
-0.496151
0.490833
0.017082
-0.0109701
-0.303632
0.29752
0.00634996
-0.00269295
-0.134232
0.130575
0.000732815
-0.0212624
0.0205296
-0.0289852
0.0291784
-0.000193222
0.000625607
-0.000438036
-0.22517
0.224982
-0.000211412
0.000915953
-0.396989
0.396284
-0.00132824
0.000978166
-0.553791
0.554141
0.000302442
-0.00208621
-0.677257
0.679041
0.00453219
-0.00704515
-0.799167
0.80168
0.0100054
-0.0128372
-0.944805
0.947637
0.0160511
-0.0190485
-1.12066
1.12366
0.022359
-0.0253444
-1.33194
1.33493
0.0284915
-0.0311562
-1.58605
1.58871
0.0333436
-0.0350635
-1.57877
1.58049
0.0361737
-0.0369686
-1.3152
1.316
0.0373268
-0.0374234
-1.10048
1.10057
0.0374446
-0.0375044
-0.925102
0.925161
0.0375867
-0.0372998
-0.781926
0.781639
0.0363184
-0.0338753
-0.648743
0.646299
0.0299571
-0.0240215
-0.485315
0.479379
0.0179018
-0.0114891
-0.291316
0.284904
0.00666507
-0.00283793
-0.126863
0.123036
0.000776013
-0.0197853
0.0190093
-0.0294556
0.029798
-0.000342332
0.00167928
-0.00213214
-0.225142
0.225595
0.00232602
-0.00234304
-0.395928
0.395945
0.00255176
-0.00327267
-0.554874
0.555595
0.00478893
-0.00679188
-0.681122
0.683125
0.00950129
-0.0122822
-0.804197
0.806978
0.0155478
-0.0186569
-0.950387
0.953496
0.0221648
-0.0254115
-1.1266
1.12985
0.02896
-0.0321141
-1.33787
1.34102
0.0353712
-0.0380463
-1.59131
1.59398
0.040149
-0.041696
-1.58204
1.58359
0.0426091
-0.0431718
-1.31656
1.31713
0.0432982
-0.0431137
-1.10082
1.10064
0.0428804
-0.0426896
-0.925033
0.924843
0.0425532
-0.0417765
-0.780966
0.780189
0.0403055
-0.0371198
-0.643696
0.64051
0.0324559
-0.0257706
-0.473203
0.466517
0.0191125
-0.0122526
-0.278334
0.271474
0.00711478
-0.00303529
-0.119115
0.115036
0.000831819
-0.0182158
0.017384
-0.0302118
0.0307318
-0.000520011
0.00296912
-0.0041915
-0.226457
0.22768
0.00525861
-0.0060793
-0.396331
0.397151
0.00701989
-0.00821675
-0.556833
0.55803
0.0100767
-0.0123744
-0.685496
0.687793
0.0154288
-0.0185497
-0.809761
0.812882
0.0221976
-0.0256532
-0.95653
0.959985
0.0295277
-0.0330841
-1.13305
1.13661
0.0369274
-0.0402902
-1.34414
1.3475
0.0436861
-0.04638
-1.59658
1.59928
0.0483881
-0.0497403
-1.58495
1.5863
0.0504242
-0.0507401
-1.3174
1.31772
0.0506132
-0.0501237
-1.10059
1.1001
0.0496169
-0.0491567
-0.924401
0.923941
0.0486747
-0.0474353
-0.779081
0.777842
0.0453129
-0.0412351
-0.63716
0.633082
0.0356755
-0.0280682
-0.459534
0.451927
0.0207123
-0.0132465
-0.264385
0.256919
0.00768496
-0.00327649
-0.110825
0.106417
0.000897193
-0.0165302
0.015633
-0.0313281
0.0320712
-0.000743089
0.00447969
-0.00658698
-0.229327
0.231434
0.00874514
-0.0104781
-0.398423
0.400156
0.0122543
-0.014046
-0.559915
0.561707
0.0163887
-0.0190806
-0.690534
0.693226
0.0225886
-0.026136
-0.816006
0.819553
0.0302579
-0.0341394
-0.963378
0.967259
0.0384601
-0.0423884
-1.14013
1.14406
0.0465799
-0.0501836
-1.35083
1.35443
0.0537317
-0.0564361
-1.60189
1.60459
0.0583232
-0.0594395
-1.58745
1.58857
0.0598544
-0.0598824
-1.31765
1.31768
0.0594758
-0.0586556
-1.0997
1.09888
0.0578497
-0.0570962
-0.923151
0.922397
0.0561893
-0.054401
-0.776308
0.77452
0.0514847
-0.0463145
-0.628829
0.623659
0.0396607
-0.0309151
-0.443948
0.435202
0.0226778
-0.0144397
-0.24915
0.240912
0.00834952
-0.00354697
-0.101846
0.0970431
0.000967189
-0.0147113
0.0137441
-0.0328865
0.0339242
-0.00103773
0.00639347
-0.00956912
-0.233995
0.23717
0.0129806
-0.0157817
-0.402469
0.40527
0.0185387
-0.0210567
-0.564398
0.566916
0.0240295
-0.0272461
-0.696448
0.699665
0.0313448
-0.0354279
-0.823111
0.827194
0.0401338
-0.0445312
-0.971091
0.975489
0.0493822
-0.0537413
-1.14797
1.15233
0.0583204
-0.062174
-1.35799
1.36184
0.0658528
-0.0685212
-1.60718
1.60985
0.0702293
-0.0710471
-1.58944
1.59026
0.0711287
-0.0708125
-1.31717
1.31685
0.0701079
-0.0689197
-1.0981
1.09691
0.0677811
-0.0667285
-0.921244
0.920192
0.0652737
-0.0628338
-0.772464
0.770024
0.0589442
-0.0524198
-0.618295
0.61177
0.044417
-0.0342707
-0.425998
0.415852
0.0249486
-0.0157735
-0.232298
0.223123
0.00906468
-0.0038242
-0.0920553
0.0868148
0.00103462
-0.0127532
0.0117185
-0.0350193
0.0364611
-0.00144184
0.00888173
-0.0134257
-0.240787
0.245331
0.0183299
-0.022365
-0.408844
0.412879
0.0262582
-0.0296534
-0.570617
0.574013
0.0334385
-0.0373425
-0.703521
0.707425
0.042201
-0.0469588
-0.831291
0.836049
0.0523754
-0.0573821
-0.979853
0.98486
0.0628387
-0.0676661
-1.15666
1.16149
0.0726355
-0.0767061
-1.36562
1.36969
0.0804445
-0.0829844
-1.61234
1.61488
0.0844128
-0.0848346
-1.59078
1.59121
0.0845252
-0.0837763
-1.31587
1.31512
0.0827143
-0.0811418
-1.09569
1.09412
0.0796815
-0.0781832
-0.918636
0.917138
0.0762179
-0.0728794
-0.767282
0.763943
0.0677694
-0.0595533
-0.605004
0.596788
0.0498814
-0.0380255
-0.405151
0.393295
0.0274058
-0.0171473
-0.213509
0.203251
0.00976145
-0.00407496
-0.0813833
0.0756968
0.00108949
-0.0106655
0.00957601
-0.037922
0.0399445
-0.00202257
0.0123593
-0.0186214
-0.250238
0.2565
0.025321
-0.0307957
-0.418036
0.423511
0.0360303
-0.0404983
-0.578962
0.58343
0.0453074
-0.0501066
-0.712094
0.716893
0.0559416
-0.0615281
-0.840815
0.846402
0.067781
-0.0734702
-0.989845
0.995534
0.0795629
-0.0848373
-1.16627
1.17154
0.0901212
-0.0942974
-1.37361
1.37779
0.0979362
-0.100182
-1.61716
1.6194
0.10117
-0.101049
-1.59124
1.59112
0.100261
-0.0989705
-1.31362
1.31233
0.0975004
-0.0955256
-1.09241
1.09044
0.0937041
-0.0916454
-0.914993
0.912934
0.0891188
-0.084629
-0.760234
0.755745
0.077954
-0.067599
-0.588251
0.577896
0.0558639
-0.0419566
-0.380796
0.366889
0.0298408
-0.0184037
-0.192521
0.181084
0.0103392
-0.00425399
-0.0698401
0.0637549
0.00111888
-0.00847906
0.00736018
-0.0419229
0.044841
-0.00291817
0.0174079
-0.025933
-0.263063
0.271588
0.0348453
-0.0420463
-0.430721
0.437922
0.048893
-0.0546587
-0.589928
0.595694
0.0608046
-0.0667869
-0.722606
0.728588
0.0738268
-0.0803669
-0.851969
0.858509
0.0875142
-0.0938677
-1.00118
1.00754
0.100502
-0.106076
-1.17668
1.18225
0.111457
-0.115505
-1.38168
1.38573
0.118765
-0.120457
-1.62124
1.62293
0.120776
-0.119916
-1.59051
1.58965
0.118492
-0.116572
-1.31022
1.3083
0.11464
-0.112235
-1.08817
1.08577
0.110016
-0.107318
-0.910076
0.907378
0.104036
-0.0980012
-0.750738
0.744703
0.0892945
-0.076249
-0.567103
0.554057
0.0619981
-0.0456964
-0.352288
0.335986
0.0319415
-0.0193271
-0.169199
0.156585
0.0106702
-0.00430797
-0.0575577
0.0511954
0.00110863
-0.00625035
0.00514171
-0.0475969
0.0520268
-0.00442993
0.0252088
-0.0368023
-0.280441
0.292034
0.0485866
-0.0581076
-0.447935
0.457456
0.0670015
-0.0743365
-0.60411
0.611445
0.0820799
-0.0895704
-0.735465
0.742956
0.0978514
-0.105269
-0.864955
0.872373
0.113139
-0.119922
-1.01374
1.02053
0.126763
-0.132285
-1.18751
1.19303
0.137344
-0.140875
-1.38929
1.39282
0.143333
-0.144107
-1.62402
1.62479
0.143448
-0.141593
-1.58816
1.58631
0.139356
-0.136689
-1.30547
1.3028
0.134209
-0.131347
-1.08286
1.07999
0.128598
-0.125272
-0.903763
0.900437
0.120847
-0.112695
-0.737924
0.729772
0.101313
-0.0849138
-0.540395
0.523995
0.067677
-0.0487148
-0.319035
0.300073
0.0333012
-0.0196644
-0.143658
0.130021
0.0106155
-0.00418258
-0.0448294
0.0383965
0.00104416
-0.0040616
0.00301744
-0.0560311
0.0635773
-0.00754616
0.0387947
-0.0548958
-0.30453
0.320631
0.0707416
-0.0834859
-0.471341
0.484086
0.0945608
-0.10331
-0.621976
0.630726
0.112611
-0.121431
-0.751014
0.759834
0.130709
-0.13857
-0.879481
0.887342
0.146543
-0.153129
-1.02688
1.03347
0.159496
-0.164336
-1.19792
1.20276
0.168431
-0.170857
-1.39556
1.39799
0.171948
-0.171322
-1.6247
1.62407
0.169289
-0.166145
-1.58367
1.58053
0.16289
-0.159309
-1.2991
1.29552
0.156193
-0.152818
-1.07632
1.07295
0.149521
-0.145243
-0.895755
0.891478
0.139149
-0.128019
-0.720499
0.709369
0.113059
-0.092537
-0.506652
0.48613
0.0720448
-0.0504241
-0.280692
0.259072
0.0335624
-0.0192553
-0.116402
0.102095
0.0101029
-0.00385086
-0.0321309
0.0258789
0.000909881
-0.00201517
0.00110529
-0.0705801
0.074785
-0.00420498
0.0295593
-0.043639
-0.339307
0.353387
0.0578039
-0.0695715
-0.502364
0.514131
0.0801191
-0.0899972
-0.64322
0.653098
0.101086
-0.111424
-0.768062
0.7784
0.122958
-0.133187
-0.894156
0.904385
0.144096
-0.153827
-1.03914
1.04887
0.164074
-0.172928
-1.20654
1.21539
0.181846
-0.189073
-1.39926
1.40649
0.195696
-0.200231
-1.6223
1.62683
0.202679
-0.20366
-1.57638
1.57736
0.20347
-0.202721
-1.29077
1.29002
0.202148
-0.20103
-1.06825
1.06713
0.199345
-0.194857
-0.885064
0.880576
0.186021
-0.168808
-0.696528
0.679315
0.145565
-0.115141
-0.464546
0.434123
0.086553
-0.058089
-0.237486
0.209022
0.0372404
-0.0205499
-0.0884841
0.0717935
0.0103426
-0.00372658
-0.020088
0.013472
0.000799733
-0.000183533
-0.0006162
-0.0822634
0.0803169
0.00194652
0.00783915
-0.016941
-0.370182
0.379284
0.0276977
-0.0362201
-0.530525
0.539048
0.0448249
-0.0530132
-0.665756
0.673944
0.0631085
-0.072664
-0.788192
0.797747
0.0829448
-0.0923228
-0.913963
0.923341
0.102307
-0.110864
-1.0583
1.06686
0.120054
-0.127616
-1.22402
1.23159
0.135186
-0.141045
-1.41338
1.41924
0.145942
-0.149
-1.63061
1.63367
0.150097
-0.149786
-1.57782
1.57751
0.148282
-0.146157
-1.28844
1.28632
0.144295
-0.14225
-1.0635
1.06145
0.139618
-0.133941
-0.87167
0.865992
0.1243
-0.108368
-0.658161
0.642228
0.0894957
-0.0671803
-0.401957
0.379641
0.0481916
-0.0311832
-0.181148
0.16414
0.019525
-0.0106384
-0.0561757
0.0472891
0.00530257
-0.00190098
-0.00703511
0.00363353
0.000392813
0.00165314
-0.00204595
-0.0837123
0.0807819
0.00293045
-0.00119503
-0.00399853
-0.391138
0.396332
0.0111344
-0.0173693
-0.551453
0.557688
0.0237148
-0.0307813
-0.684774
0.691841
0.0395397
-0.0478144
-0.806334
0.814609
0.056929
-0.0650805
-0.931864
0.940016
0.0735076
-0.0811046
-1.07522
1.08282
0.0890468
-0.0956619
-1.23869
1.2453
0.101819
-0.10638
-1.42441
1.42898
0.110145
-0.111963
-1.63605
1.63787
0.111858
-0.110396
-1.57663
1.57517
0.107988
-0.105069
-1.28373
1.28081
0.102024
-0.0988055
-1.05677
1.05355
0.0952111
-0.089345
-0.856342
0.850476
0.0804729
-0.0671418
-0.623446
0.610114
0.0531122
-0.0381303
-0.355904
0.340922
0.0268259
-0.017507
-0.146961
0.137642
0.0113021
-0.00653771
-0.0384209
0.0336564
0.00349223
-0.00138049
3.39482e-05
-0.00214569
0.000332041
0.00267824
-0.00301028
-0.0824364
0.0795804
0.00285597
-0.00511514
0.00255096
-0.405043
0.407607
0.00206134
-0.00675277
-0.566996
0.571688
0.0120723
-0.0179789
-0.700383
0.706289
0.0254713
-0.0325465
-0.822181
0.829256
0.0402985
-0.0472549
-0.947561
0.954517
0.0548278
-0.0612301
-1.08994
1.09634
0.068088
-0.0733201
-1.25146
1.25669
0.0784611
-0.0821109
-1.43325
1.4369
0.084697
-0.0852456
-1.63919
1.63974
0.0843076
-0.08205
-1.57308
1.57082
0.0789479
-0.0748801
-1.27735
1.27328
0.0710437
-0.066801
-1.04821
1.04397
0.0622206
-0.0564933
-0.840335
0.834607
0.0487279
-0.0386701
-0.594262
0.584204
0.0291956
-0.0203847
-0.325006
0.316195
0.0144286
-0.00987211
-0.127659
0.123103
0.00682657
-0.00435904
-0.0283495
0.0258819
0.00256095
-0.001132
0.00470264
-0.00613159
0.000311121
0.00354802
-0.00385914
-0.0808448
0.0782986
0.00254616
-0.00646784
0.0055516
-0.414312
0.415228
-0.00211393
-0.00135793
-0.579394
0.582866
0.00557621
-0.0108928
-0.713456
0.718773
0.0171616
-0.0233455
-0.835576
0.84176
0.03002
-0.036024
-0.960964
0.966968
0.0424706
-0.0480927
-1.10256
1.10819
0.053814
-0.0584651
-1.26172
1.26637
0.0626864
-0.0655148
-1.44008
1.44291
0.0672034
-0.0669347
-1.64001
1.63975
0.0652195
-0.0619883
-1.56773
1.5645
0.0582228
-0.0535715
-1.26886
1.26421
0.0490328
-0.0438083
-1.03809
1.03287
0.0387508
-0.0329833
-0.824576
0.818808
0.0265791
-0.0191368
-0.571876
0.564433
0.0132353
-0.0087257
-0.306107
0.301598
0.00621516
-0.004653
-0.117565
0.116003
0.00363087
-0.00266636
-0.0227484
0.0217839
0.00177702
-0.000886686
0.00794764
-0.00883798
0.000280537
0.00432232
-0.00460286
-0.079322
0.077124
0.002198
-0.0065283
0.00616979
-0.420594
0.420952
-0.00414646
0.0013508
-0.588907
0.591702
0.00272882
-0.00725602
-0.724471
0.728998
0.0125992
-0.017921
-0.847104
0.852426
0.0237961
-0.0291086
-0.972568
0.97788
0.034931
-0.0397813
-1.11348
1.11833
0.0448047
-0.0488407
-1.27066
1.2747
0.0523472
-0.0545299
-1.44536
1.44755
0.055486
-0.0549309
-1.63925
1.6387
0.0525554
-0.0488484
-1.56065
1.55694
0.0445203
-0.0392593
-1.25907
1.25381
0.034392
-0.0284414
-1.02652
1.02057
0.022911
-0.0172287
-0.809515
0.803833
0.0117278
-0.00618351
-0.555047
0.549502
0.00264594
-0.000783687
-0.295204
0.293342
0.000474622
-0.000686534
-0.113099
0.113311
0.000874376
-0.000997128
-0.0202816
0.0204043
0.000870859
-0.000542134
0.00991722
-0.0102459
0.000205595
0.00494701
-0.00515261
-0.0781042
0.0763669
0.00173734
-0.00577078
0.00579939
-0.425154
0.425125
-0.00416908
0.00210094
-0.597139
0.599207
0.00168011
-0.00575558
-0.733942
0.738017
0.0107641
-0.0152993
-0.857329
0.861864
0.0204016
-0.0250518
-0.983111
0.987762
0.0304861
-0.0347965
-1.12316
1.12747
0.0391404
-0.0427992
-1.27848
1.28214
0.0462112
-0.0479583
-1.44964
1.45139
0.0485894
-0.0475206
-1.6376
1.63653
0.0450458
-0.040693
-1.55284
1.54849
0.0361881
-0.0307026
-1.24812
1.24264
0.0253413
-0.0192233
-1.0139
1.00778
0.0133805
-0.00744005
-0.79503
0.78909
0.00281027
0.00156337
-0.541768
0.537395
-0.00387851
0.00427602
-0.289099
0.288701
-0.00363667
0.00258101
-0.112367
0.113423
-0.00157519
0.000634874
-0.02013
0.0210703
-0.000101413
-0.000123729
0.0106239
-0.0103987
9.50888e-05
0.00533858
-0.00543367
-0.0773702
0.0759947
0.00137554
-0.00476009
0.0049711
-0.428653
0.428442
-0.00352633
0.00159454
-0.604211
0.606143
0.00194895
-0.00558505
-0.742358
0.745994
0.009822
-0.0141339
-0.866347
0.870659
0.0187829
-0.0235033
-0.992165
0.996885
0.0280965
-0.0321105
-1.13184
1.13585
0.0364436
-0.039708
-1.28561
1.28887
0.0424245
-0.0443494
-1.45295
1.45487
0.0448363
-0.0436934
-1.63541
1.63426
0.0409527
-0.0366978
-1.54417
1.53992
0.0320708
-0.0264081
-1.23662
1.23096
0.0209672
-0.0146752
-1.00097
0.994678
0.00876628
-0.0029474
-0.780978
0.775159
-0.00154837
0.00521207
-0.530605
0.526941
-0.00696909
0.00703834
-0.285657
0.285588
-0.00605288
0.00454679
-0.113332
0.114838
-0.0031952
0.00181668
-0.0216075
0.022986
-0.000880841
0.000252539
0.01017
-0.00954168
-1.65124e-05
0.00545389
-0.00543738
-0.0771684
0.0760091
0.00115929
-0.00349759
0.00349524
-0.431691
0.431693
-0.00229224
0.000417398
-0.610609
0.612484
0.00285035
-0.00633417
-0.750102
0.753586
0.0103459
-0.014201
-0.87477
0.878625
0.0189091
-0.022756
-1.00097
1.00482
0.0272347
-0.0309845
-1.13998
1.14373
0.0350821
-0.0384084
-1.29205
1.29537
0.0412509
-0.0427641
-1.45647
1.45799
0.0433334
-0.0422912
-1.63294
1.63189
0.0398661
-0.0355443
-1.53541
1.53109
0.031013
-0.0253949
-1.22524
1.21963
0.0200235
-0.0137048
-0.987773
0.981454
0.00793577
-0.00194486
-0.76747
0.761479
-0.00248379
0.00587953
-0.520712
0.517316
-0.00765868
0.00776411
-0.283086
0.28298
-0.00693017
0.00545862
-0.115038
0.116509
-0.00405864
0.002518
-0.0239152
0.0254559
-0.00138008
0.00050939
0.00894007
-0.00806938
-0.000104751
0.00533725
-0.0052325
-0.077256
0.0764277
0.000828336
-0.00234833
0.00187657
-0.434751
0.435223
-0.000862185
-0.00107922
-0.616212
0.618153
0.00399833
-0.00732231
-0.757244
0.760568
0.0111288
-0.0150778
-0.882353
0.886302
0.019109
-0.0230705
-1.00884
1.0128
0.0274448
-0.0309101
-1.14787
1.15134
0.0350124
-0.0381956
-1.29844
1.30162
0.0409589
-0.042862
-1.45984
1.46175
0.0437247
-0.0427462
-1.6308
1.62982
0.0403075
-0.0364505
-1.52685
1.523
0.0322429
-0.026764
-1.21378
1.2083
0.0214551
-0.0155217
-0.974806
0.968872
0.00954555
-0.00376264
-0.7541
0.748317
-0.0007658
0.00430367
-0.511437
0.507899
-0.00610688
0.00678551
-0.280441
0.279762
-0.00643532
0.00543434
-0.116686
0.117687
-0.0042185
0.00278405
-0.0264433
0.0278778
-0.00163374
0.000674692
0.00728743
-0.00632838
-0.000168801
0.00504742
-0.00487862
-0.0777628
0.0771062
0.000656664
-0.00136654
0.000929562
-0.437995
0.438432
0.000601788
-0.0023895
-0.621855
0.623643
0.00546536
-0.008642
-0.763824
0.767001
0.0122782
-0.0157951
-0.889923
0.893439
0.0199178
-0.0235219
-1.01672
1.02033
0.0277933
-0.0316526
-1.15523
1.15909
0.0353206
-0.0387612
-1.30481
1.30825
0.0418576
-0.0437449
-1.46348
1.46537
0.04484
-0.0444787
-1.62899
1.62863
0.0423195
-0.0389038
-1.51893
1.51551
0.0347685
-0.0296352
-1.20281
1.19767
0.0246756
-0.0188484
-0.962365
0.956538
0.0132224
-0.00742904
-0.7412
0.735407
0.00271316
0.00119626
-0.501902
0.497992
-0.00343112
0.00455516
-0.277053
0.275929
-0.00484857
0.00438507
-0.11746
0.117924
-0.0035944
0.00251389
-0.0286621
0.0297426
-0.00155721
0.000690656
0.00554461
-0.00467806
-0.000192252
0.00465585
-0.0044636
-0.0785692
0.0780928
0.000476486
-0.000280709
-0.000343428
-0.441389
0.442013
0.00173891
-0.00383194
-0.627081
0.629174
0.00683224
-0.00984368
-0.770123
0.773134
0.0135603
-0.0169117
-0.896935
0.900286
0.0208493
-0.0245483
-1.02439
1.02809
0.0286915
-0.0324771
-1.16276
1.16655
0.0363223
-0.039742
-1.31156
1.31498
0.0429566
-0.0455246
-1.46749
1.47006
0.0469605
-0.0467827
-1.62814
1.62796
0.0451816
-0.0419597
-1.51192
1.5087
0.0382906
-0.03365
-1.19245
1.18781
0.0287295
-0.0231393
-0.950337
0.944746
0.0177071
-0.0118479
-0.728596
0.722737
0.00705526
-0.00264351
-0.492212
0.4878
-4.68769e-05
0.00185447
-0.272719
0.270911
-0.00265605
0.00278493
-0.117124
0.116995
-0.00252036
0.00189811
-0.0301381
0.0307603
-0.00124663
0.000588654
0.00405055
-0.00339257
-0.000171887
0.00424657
-0.00407468
-0.0796203