/*--------------------------------*- C++ -*----------------------------------*\
  =========                 |
  \\      /  F ield         | OpenFOAM: The Open Source CFD Toolbox
   \\    /   O peration     | Website:  https://openfoam.org
    \\  /    A nd           | Version:  6
     \\/     M anipulation  |
\*---------------------------------------------------------------------------*/
FoamFile
{
    version     2.0;
    format      ascii;
    class       volVectorField;
    location    "73";
    object      U;
}
// * * * * * * * * * * * * * * * * * * * * * * * * * * * * * * * * * * * * * //

dimensions      [0 1 -1 0 0 0 0];

internalField   nonuniform List<vector> 
8800
(
(0.987195 -0.0767049 0)
(1.0019 -0.055176 0)
(0.999723 -0.0285484 0)
(1.00003 -0.0151517 0)
(1.0001 -0.0085534 0)
(1.00012 -0.00505291 0)
(1.00007 -0.00300554 0)
(1.00003 -0.00170406 0)
(0.999997 -0.000797085 0)
(1.00006 -8.03482e-05 0)
(0.999972 0.00065118 0)
(0.999984 0.0014195 0)
(1.00003 0.002438 0)
(1.00006 0.00400615 0)
(1.00004 0.00664002 0)
(1.00002 0.0113803 0)
(0.999916 0.0208196 0)
(0.999158 0.0386589 0)
(1.00711 0.0724582 0)
(0.771226 0.03669 0)
(0.363047 -0.0160149 0)
(1.04332 -0.0768238 0)
(1.08462 -0.0704393 0)
(1.04522 -0.0535408 0)
(1.02331 -0.0388903 0)
(1.01204 -0.0262155 0)
(1.00644 -0.0168582 0)
(1.0036 -0.0103288 0)
(1.00215 -0.00566919 0)
(1.00145 -0.00201143 0)
(1.0013 0.00131315 0)
(1.00167 0.00469721 0)
(1.00266 0.0086302 0)
(1.00467 0.0139575 0)
(1.00861 0.0216605 0)
(1.01658 0.0326268 0)
(1.03251 0.0465405 0)
(1.06268 0.061661 0)
(1.09189 0.0760893 0)
(0.838666 0.0565795 0)
(0.216838 -0.00242098 0)
(1.07589 -0.0501445 0)
(1.09987 -0.0483232 0)
(1.06464 -0.0404697 0)
(1.04003 -0.0336071 0)
(1.02391 -0.0260837 0)
(1.01412 -0.0185005 0)
(1.00856 -0.0116803 0)
(1.00559 -0.00581082 0)
(1.00432 -0.000391422 0)
(1.00465 0.00485635 0)
(1.00658 0.0102493 0)
(1.01061 0.0163349 0)
(1.01794 0.0233504 0)
(1.03052 0.0308163 0)
(1.05061 0.03785 0)
(1.08034 0.0445403 0)
(1.10625 0.0513569 0)
(0.942513 0.0416187 0)
(0.21614 0.00245297 0)
(0.175171 -0.000814063 0)
(1.01769 -0.0354867 0)
(1.1052 -0.0413843 0)
(1.07826 -0.036069 0)
(1.05346 -0.0301346 0)
(1.0362 -0.0245567 0)
(1.02399 -0.0188252 0)
(1.01587 -0.0127417 0)
(1.01101 -0.00654994 0)
(1.0088 -0.000211302 0)
(1.00936 0.00604663 0)
(1.01262 0.012048 0)
(1.01886 0.0178768 0)
(1.02876 0.023442 0)
(1.04318 0.0287438 0)
(1.06371 0.0342272 0)
(1.09355 0.0402106 0)
(1.0934 0.0419695 0)
(0.827124 0.0229156 0)
(0.173995 0.000850857 0)
(0.153969 -0.000609166 0)
(0.956181 -0.0254596 0)
(1.10346 -0.03513 0)
(1.08768 -0.032653 0)
(1.06172 -0.0279988 0)
(1.0441 -0.0229731 0)
(1.03164 -0.0177232 0)
(1.02278 -0.012187 0)
(1.01696 -0.00624493 0)
(1.0141 0.000230359 0)
(1.01477 0.00669643 0)
(1.01874 0.0125832 0)
(1.02579 0.0178691 0)
(1.03609 0.0227735 0)
(1.05064 0.0275317 0)
(1.07188 0.0320616 0)
(1.10006 0.0359937 0)
(1.06806 0.034047 0)
(0.739483 0.0143204 0)
(0.152196 0.000650909 0)
(0.1396 -0.000465847 0)
(0.899291 -0.0190758 0)
(1.09579 -0.0300771 0)
(1.09575 -0.0291842 0)
(1.06925 -0.0254489 0)
(1.05081 -0.0213052 0)
(1.03788 -0.016528 0)
(1.02876 -0.0112358 0)
(1.02264 -0.00548442 0)
(1.01949 0.000850515 0)
(1.02009 0.00716773 0)
(1.02418 0.0128065 0)
(1.03136 0.0177604 0)
(1.04187 0.022209 0)
(1.05698 0.026174 0)
(1.07918 0.0296358 0)
(1.10225 0.0322569 0)
(1.03592 0.0281454 0)
(0.672865 0.0102223 0)
(0.137095 0.000513975 0)
(0.129064 -0.000360589 0)
(0.849724 -0.0147107 0)
(1.08342 -0.0259391 0)
(1.10144 -0.0262265 0)
(1.07611 -0.0229351 0)
(1.05714 -0.0192847 0)
(1.04375 -0.0150323 0)
(1.03428 -0.010101 0)
(1.02791 -0.00455859 0)
(1.02457 0.00159905 0)
(1.02502 0.00770426 0)
(1.02906 0.013067 0)
(1.03634 0.0176086 0)
(1.04713 0.0214495 0)
(1.06264 0.0247501 0)
(1.08528 0.0276908 0)
(1.10133 0.0294382 0)
(1.00094 0.0236426 0)
(0.620955 0.00786321 0)
(0.125668 0.000417208 0)
(0.121031 -0.000279927 0)
(0.80762 -0.0115492 0)
(1.06817 -0.0223217 0)
(1.10498 -0.0235789 0)
(1.08238 -0.0206983 0)
(1.06299 -0.0172602 0)
(1.04933 -0.0133131 0)
(1.03957 -0.00871729 0)
(1.03292 -0.00344406 0)
(1.02932 0.00249731 0)
(1.02959 0.00835518 0)
(1.03357 0.0133707 0)
(1.04092 0.01744 0)
(1.0518 0.02077 0)
(1.06752 0.0236596 0)
(1.0905 0.026299 0)
(1.0975 0.0271474 0)
(0.96558 0.0201181 0)
(0.579195 0.00633483 0)
(0.11655 0.000347263 0)
(0.114811 -0.000216652 0)
(0.772206 -0.00918239 0)
(1.05145 -0.0191345 0)
(1.10739 -0.0211258 0)
(1.08826 -0.0186124 0)
(1.06849 -0.0153161 0)
(1.05459 -0.0115287 0)
(1.04463 -0.00714053 0)
(1.03772 -0.00210507 0)
(1.03384 0.00358644 0)
(1.03388 0.00914629 0)
(1.03773 0.0137845 0)
(1.04501 0.0174337 0)
(1.05588 0.020372 0)
(1.0718 0.0229368 0)
(1.09442 0.0252286 0)
(1.09083 0.025259 0)
(0.931124 0.0174068 0)
(0.544566 0.00529493 0)
(0.109014 0.00029717 0)
(0.109973 -0.000165648 0)
(0.742541 -0.0073429 0)
(1.03432 -0.0163055 0)
(1.10886 -0.0188095 0)
(1.09386 -0.0165987 0)
(1.07381 -0.0133909 0)
(1.05964 -0.00968946 0)
(1.04949 -0.00541912 0)
(1.04235 -0.000554227 0)
(1.03817 0.00489833 0)
(1.0379 0.0101457 0)
(1.04152 0.014423 0)
(1.04865 0.0176994 0)
(1.05948 0.0202885 0)
(1.07558 0.0225628 0)
(1.09705 0.0244725 0)
(1.08168 0.0237258 0)
(0.898129 0.0153586 0)
(0.51501 0.00457434 0)
(0.102576 0.000262252 0)
(0.106232 -0.000123157 0)
(0.717811 -0.00585662 0)
(1.01761 -0.0137632 0)
(1.10951 -0.0165663 0)
(1.09938 -0.0146239 0)
(1.07906 -0.0114231 0)
(1.06459 -0.00774804 0)
(1.05422 -0.00353521 0)
(1.04682 0.00121904 0)
(1.0423 0.00647348 0)
(1.04164 0.0114303 0)
(1.04495 0.0153706 0)
(1.05188 0.0182926 0)
(1.06265 0.020542 0)
(1.07892 0.0225504 0)
(1.09833 0.0240468 0)
(1.07044 0.0225499 0)
(0.866696 0.0138587 0)
(0.489063 0.00408338 0)
(0.0968911 0.000239534 0)
(0.103402 -8.62189e-05 0)
(0.697375 -0.00460729 0)
(1.00194 -0.0114395 0)
(1.10951 -0.01436 0)
(1.10474 -0.0126015 0)
(1.08433 -0.00936051 0)
(1.06954 -0.00565242 0)
(1.05889 -0.00143664 0)
(1.05118 0.00326397 0)
(1.04624 0.00837093 0)
(1.04512 0.0130705 0)
(1.04804 0.0166898 0)
(1.05474 0.0192638 0)
(1.0654 0.0211779 0)
(1.0818 0.0229247 0)
(1.09857 0.0240316 0)
(1.05736 0.0217424 0)
(0.836651 0.0128189 0)
(0.465629 0.00376662 0)
(0.0917003 0.000226585 0)
(0.101364 -5.21575e-05 0)
(0.680767 -0.00350751 0)
(0.987768 -0.00926359 0)
(1.10907 -0.0121027 0)
(1.10995 -0.0104482 0)
(1.08968 -0.00713927 0)
(1.07454 -0.00333741 0)
(1.06357 0.000946191 0)
(1.05547 0.0056543 0)
(1.05002 0.0106636 0)
(1.04834 0.0151354 0)
(1.0508 0.0184452 0)
(1.05721 0.0206694 0)
(1.06775 0.0222442 0)
(1.08418 0.0237151 0)
(1.0978 0.0244058 0)
(1.04259 0.0213152 0)
(0.807638 0.0121679 0)
(0.443837 0.00358649 0)
(0.0867967 0.000221454 0)
(0.100058 -1.87263e-05 0)
(0.667685 -0.00248771 0)
(0.975449 -0.00716118 0)
(1.10851 -0.00973751 0)
(1.11513 -0.00810492 0)
(1.09521 -0.00468631 0)
(1.07969 -0.000727113 0)
(1.06834 0.0036923 0)
(1.05975 0.008472 0)
(1.05369 0.0134355 0)
(1.05132 0.0177087 0)
(1.05323 0.0207174 0)
(1.0593 0.022582 0)
(1.06967 0.0238053 0)
(1.08609 0.0249954 0)
(1.0958 0.0252129 0)
(1.02615 0.02126 0)
(0.779214 0.0118522 0)
(0.422979 0.00351766 0)
(0.0820158 0.000222658 0)
(0.0994683 1.68161e-05 0)
(0.65798 -0.00149444 0)
(0.965304 -0.00506126 0)
(1.10816 -0.00720172 0)
(1.12041 -0.00549622 0)
(1.101 -0.0019119 0)
(1.08506 0.00227475 0)
(1.07325 0.00690082 0)
(1.06408 0.0118203 0)
(1.05727 0.0167912 0)
(1.05408 0.0208903 0)
(1.05533 0.0236016 0)
(1.06098 0.0250935 0)
(1.07116 0.0259537 0)
(1.08746 0.026821 0)
(1.09249 0.0264817 0)
(1.008 0.0216203 0)
(0.750879 0.0118478 0)
(0.402457 0.00354676 0)
(0.0772212 0.000229628 0)
(0.0996172 4.80301e-05 0)
(0.651635 -0.00048313 0)
(0.957639 -0.00289025 0)
(1.10837 -0.00442557 0)
(1.12598 -0.00253752 0)
(1.10715 0.00128423 0)
(1.09075 0.00577566 0)
(1.07838 0.010688 0)
(1.06852 0.0158223 0)
(1.06079 0.0208567 0)
(1.05662 0.0248044 0)
(1.05707 0.0272116 0)
(1.06223 0.0283273 0)
(1.07217 0.0287967 0)
(1.08805 0.029286 0)
(1.08755 0.0282802 0)
(0.987948 0.0224244 0)
(0.722066 0.0121383 0)
(0.381721 0.00366474 0)
(0.0722885 0.000241642 0)
(0.100577 9.48182e-05 0)
(0.648778 0.000567118 0)
(0.952774 -0.000563857 0)
(1.1095 -0.00132808 0)
(1.13203 0.000868588 0)
(1.11378 0.005018 0)
(1.09686 0.00990361 0)
(1.08384 0.0151917 0)
(1.07312 0.0206212 0)
(1.06429 0.0257785 0)
(1.05894 0.0295959 0)
(1.05845 0.0316837 0)
(1.06302 0.0324066 0)
(1.07266 0.0324591 0)
(1.0877 0.032519 0)
(1.08076 0.0306942 0)
(0.965671 0.0237094 0)
(0.692156 0.0127143 0)
(0.360258 0.00386369 0)
(0.0671088 0.000257885 0)
(0.102504 0.000152449 0)
(0.649729 0.00175123 0)
(0.951073 0.00198707 0)
(1.11201 0.00219656 0)
(1.13875 0.00483879 0)
(1.12103 0.00943774 0)
(1.10353 0.0148239 0)
(1.08971 0.0205897 0)
(1.07795 0.0264003 0)
(1.06779 0.0317314 0)
(1.06102 0.0354269 0)
(1.05942 0.0371533 0)
(1.06329 0.0374719 0)
(1.07255 0.0370709 0)
(1.08615 0.0366292 0)
(1.07181 0.0338161 0)
(0.94073 0.0255148 0)
(0.660477 0.0135699 0)
(0.337583 0.00413621 0)
(0.0615875 0.000277494 0)
(0.105478 0.000215954 0)
(0.654937 0.00320141 0)
(0.952978 0.00492543 0)
(1.11635 0.00629145 0)
(1.14641 0.00952334 0)
(1.12908 0.0147195 0)
(1.11089 0.020732 0)
(1.09611 0.0270929 0)
(1.08307 0.0333768 0)
(1.0713 0.0389289 0)
(1.06286 0.0424881 0)
(1.05996 0.0438145 0)
(1.06298 0.0436933 0)
(1.07179 0.0427887 0)
(1.08332 0.0418193 0)
(1.06031 0.0377543 0)
(0.912533 0.0278833 0)
(0.626301 0.0146961 0)
(0.313238 0.00447184 0)
(0.0556474 0.0002992 0)
(0.109793 0.000299957 0)
(0.664798 0.00489599 0)
(0.958965 0.00838474 0)
(1.12305 0.0111072 0)
(1.15529 0.0151244 0)
(1.13815 0.0211045 0)
(1.11912 0.027892 0)
(1.10314 0.0349761 0)
(1.08853 0.0418199 0)
(1.07481 0.0476194 0)
(1.0644 0.0510002 0)
(1.05999 0.051862 0)
(1.06202 0.0512566 0)
(1.0703 0.0497794 0)
(1.07923 0.0481977 0)
(1.0457 0.0426166 0)
(0.880325 0.0308319 0)
(0.588849 0.0160648 0)
(0.28681 0.00485191 0)
(0.0492373 0.000320921 0)
(0.115787 0.000413811 0)
(0.680169 0.00702324 0)
(0.969726 0.0125712 0)
(1.13267 0.0168816 0)
(1.16575 0.0219084 0)
(1.14851 0.0289191 0)
(1.12841 0.0366567 0)
(1.11092 0.0445993 0)
(1.09436 0.0520702 0)
(1.07828 0.0580935 0)
(1.06556 0.0611985 0)
(1.05934 0.0614775 0)
(1.06035 0.0603467 0)
(1.06807 0.0582405 0)
(1.07358 0.0559401 0)
(1.02728 0.0484761 0)
(0.843185 0.0343468 0)
(0.547334 0.0176211 0)
(0.257982 0.00524676 0)
(0.0423486 0.000339864 0)
(0.123986 0.000571658 0)
(0.701945 0.00980176 0)
(0.986113 0.0177904 0)
(1.14587 0.0239552 0)
(1.17829 0.0302665 0)
(1.16046 0.0386141 0)
(1.13897 0.0474978 0)
(1.11954 0.0564232 0)
(1.10054 0.0645372 0)
(1.08164 0.0706875 0)
(1.06625 0.0733499 0)
(1.058 0.0728964 0)
(1.05787 0.0711154 0)
(1.06497 0.0683003 0)
(1.06597 0.0649731 0)
(1.00411 0.0553937 0)
(0.800031 0.038355 0)
(0.501018 0.0192636 0)
(0.226599 0.00561198 0)
(0.0350319 0.000352377 0)
(0.135128 0.000800962 0)
(0.731439 0.0136209 0)
(1.00929 0.0245099 0)
(1.16345 0.0328766 0)
(1.19353 0.0408018 0)
(1.17439 0.0508664 0)
(1.15097 0.0610931 0)
(1.129 0.0710623 0)
(1.10696 0.0797216 0)
(1.08471 0.085761 0)
(1.0663 0.0877013 0)
(1.05587 0.0863277 0)
(1.05453 0.0838215 0)
(1.06063 0.0801121 0)
(1.05564 0.0756007 0)
(0.974979 0.0633128 0)
(0.749676 0.042675 0)
(0.449352 0.0208243 0)
(0.192777 0.00588545 0)
(0.0274174 0.000354042 0)
(0.150474 0.00116018 0)
(0.770637 0.0191034 0)
(1.0409 0.0335136 0)
(1.18635 0.0445826 0)
(1.21229 0.0547086 0)
(1.19062 0.0667331 0)
(1.16446 0.0784179 0)
(1.13914 0.0893168 0)
(1.11334 0.0982002 0)
(1.0872 0.103681 0)
(1.06548 0.104473 0)
(1.05276 0.101911 0)
(1.05022 0.0985507 0)
(1.0548 0.094067 0)
(1.04169 0.0878157 0)
(0.93831 0.0720334 0)
(0.690956 0.0469791 0)
(0.392193 0.0220635 0)
(0.15703 0.00599241 0)
(0.0197306 0.000340525 0)
(0.17222 0.00178309 0)
(0.822787 0.0273851 0)
(1.08363 0.0463512 0)
(1.21573 0.0609525 0)
(1.23511 0.0739288 0)
(1.20924 0.0878472 0)
(1.17918 0.100804 0)
(1.14951 0.112139 0)
(1.11922 0.120572 0)
(1.08873 0.124771 0)
(1.06352 0.12383 0)
(1.04851 0.119737 0)
(1.04479 0.115325 0)
(1.04748 0.109882 0)
(1.02284 0.101477 0)
(0.892173 0.0810864 0)
(0.623077 0.0507669 0)
(0.330204 0.0226826 0)
(0.12043 0.00585669 0)
(0.0123026 0.000307668 0)
(0.203751 0.00315313 0)
(0.893655 0.0410954 0)
(1.14098 0.0668369 0)
(1.25195 0.0855721 0)
(1.26174 0.101319 0)
(1.22961 0.116592 0)
(1.19427 0.129877 0)
(1.15929 0.140507 0)
(1.12391 0.147359 0)
(1.08878 0.149252 0)
(1.06009 0.145837 0)
(1.04293 0.139807 0)
(1.03812 0.134138 0)
(1.03804 0.127646 0)
(0.997245 0.116135 0)
(0.834307 0.0896626 0)
(0.546351 0.0533775 0)
(0.265592 0.0224586 0)
(0.0848799 0.00544559 0)
(0.00562214 0.000250688 0)
(0.246766 0.0094015 4.2111e-20)
(0.987193 0.0682244 3.68815e-20)
(1.21057 0.101567 -1.2951e-20)
(1.29191 0.12212 0)
(1.28927 0.140536 -3.36223e-34)
(1.2495 0.155337 4.93051e-21)
(1.20814 0.167145 -8.96441e-21)
(1.16738 0.175624 0)
(1.1266 0.179806 1.86256e-34)
(1.08662 0.178599 -1.12822e-20)
(1.05426 0.172237 0)
(1.0349 0.164144 -1.35024e-20)
(1.02938 0.157502 -3.99073e-20)
(1.02503 0.150557 -1.88813e-20)
(0.960326 0.134209 -5.69209e-21)
(0.75816 0.0987788 -3.38361e-21)
(0.455815 0.0549177 0)
(0.197246 0.0217418 2.36404e-21)
(0.0505398 0.00498605 2.79056e-21)
(-0.000326937 0.00016154 5.03417e-20)
(0.276587 0.0246964 2.93327e-20)
(1.06467 0.111104 5.52378e-22)
(1.26796 0.151053 3.3749e-21)
(1.32785 0.171564 0)
(1.31346 0.19016 -1.67823e-20)
(1.26661 0.202838 -1.91984e-20)
(1.21933 0.212365 -8.97666e-21)
(1.17276 0.218401 -3.22378e-20)
(1.12643 0.219915 0)
(1.08127 0.215721 4.78815e-20)
(1.04494 0.206536 4.76613e-20)
(1.02322 0.19645 1.41821e-20)
(1.01534 0.188159 5.19552e-20)
(1.00104 0.178906 7.32066e-20)
(0.901279 0.154549 0)
(0.653776 0.10774 1.03247e-19)
(0.349034 0.0559231 1.47957e-19)
(0.126527 0.020273 1.64227e-19)
(0.0164952 0.00336779 -1.87686e-19)
(-0.00616073 -0.000451264 -3.53457e-21)
(0.278043 0.0416644 0)
(1.11408 0.166561 4.74152e-21)
(1.30697 0.211577 0)
(1.35592 0.231768 -2.07656e-20)
(1.33251 0.247568 0)
(1.27972 0.256344 -3.71857e-20)
(1.22688 0.262119 1.81963e-20)
(1.17482 0.264569 -6.43627e-20)
(1.12324 0.262511 -1.60446e-21)
(1.07325 0.254638 2.46278e-20)
(1.03327 0.242132 1.04657e-19)
(1.00942 0.229769 -1.87238e-22)
(0.99903 0.219528 -3.76925e-20)
(0.974763 0.206513 -6.87056e-20)
(0.846962 0.17392 8.13831e-20)
(0.576666 0.115423 -1.4402e-19)
(0.284002 0.0565177 -1.8974e-20)
(0.0873008 0.0185144 0)
(-0.00226262 0.00107158 -1.68814e-23)
(-0.00955982 -0.00128728 0)
(0.271424 0.0559155 5.14614e-20)
(1.14092 0.225681 -2.67325e-20)
(1.33121 0.276648 -2.25523e-20)
(1.37458 0.29727 9.50712e-21)
(1.34497 0.309297 -1.6098e-20)
(1.28775 0.313503 7.74444e-20)
(1.23035 0.314807 3.77313e-20)
(1.17357 0.312972 0)
(1.11733 0.306712 -1.22281e-19)
(1.06298 0.294602 0)
(1.0197 0.278359 -5.46653e-20)
(0.993857 0.263298 -6.78804e-20)
(0.980953 0.250661 -4.09265e-20)
(0.948226 0.2332 -4.97978e-20)
(0.802295 0.192097 0)
(0.525325 0.123576 0)
(0.247284 0.0585264 -1.23153e-19)
(0.0648019 0.0169348 2.42899e-20)
(-0.0148893 -0.00179746 -1.42322e-20)
(-0.0124693 -0.00236481 -1.66478e-20)
(0.263483 0.068413 -1.24055e-20)
(1.15274 0.284679 0)
(1.3446 0.342681 4.16151e-20)
(1.38484 0.364186 2.56362e-20)
(1.35093 0.372425 3.78098e-20)
(1.29049 0.372055 0)
(1.22955 0.36876 3.63871e-20)
(1.16891 0.362415 7.06422e-20)
(1.1087 0.35166 6.22474e-20)
(1.05047 0.335 1.15621e-19)
(1.00414 0.314715 0)
(0.976376 0.296674 -1.4598e-19)
(0.961113 0.281308 -8.81065e-20)
(0.921427 0.259172 -5.21393e-20)
(0.766671 0.210079 3.19132e-19)
(0.492806 0.132978 3.78907e-20)
(0.227509 0.0617539 1.77931e-19)
(0.0524007 0.0156655 -8.4002e-19)
(-0.0233401 -0.00491421 4.96239e-19)
(-0.014945 -0.00360579 -5.98163e-19)
(0.255781 0.0796013 4.35828e-21)
(1.15494 0.34163 1.92512e-21)
(1.35012 0.407804 -3.40856e-21)
(1.38839 0.430577 -2.25663e-20)
(1.35138 0.435225 -2.98923e-20)
(1.28852 0.430447 1.80802e-21)
(1.2248 0.422682 -3.9441e-20)
(1.161 0.411878 7.25884e-20)
(1.09741 0.396605 -1.33789e-19)
(1.03575 0.375304 0)
(0.986584 0.350815 -6.59446e-20)
(0.956882 0.329593 -1.57399e-21)
(0.939321 0.311276 -9.63697e-20)
(0.894674 0.284555 0)
(0.737521 0.228435 -6.90199e-20)
(0.472449 0.143703 -1.63433e-19)
(0.218185 0.0665653 4.34479e-19)
(0.0475984 0.0151984 -4.28019e-19)
(-0.0277121 -0.00775204 6.06526e-19)
(-0.0167381 -0.00487578 -6.30354e-19)
(0.24917 0.0898825 -5.20887e-22)
(1.1511 0.39585 2.50491e-21)
(1.34995 0.470988 -3.79105e-21)
(1.38667 0.495287 7.41011e-21)
(1.34737 0.496681 -1.47075e-20)
(1.28268 0.487748 0)
(1.21673 0.475747 -3.58815e-20)
(1.15028 0.460666 -7.57503e-20)
(1.08375 0.440987 -6.9288e-20)
(1.01902 0.415111 0)
(0.967167 0.386409 -6.81318e-20)
(0.935512 0.361903 -8.48087e-20)
(0.915811 0.340591 1.04471e-19)
(0.867904 0.309412 -6.34194e-20)
(0.712662 0.247205 -3.00944e-19)
(0.459014 0.155941 1.78127e-19)
(0.21578 0.0726993 5.27464e-20)
(0.0481612 0.0159017 0)
(-0.0283461 -0.00977659 -5.85824e-19)
(-0.0176159 -0.00598853 -2.1505e-20)
(0.243808 0.0995948 3.97058e-21)
(1.14355 0.447174 -5.54142e-21)
(1.34558 0.53168 6.13112e-22)
(1.38091 0.557626 2.87294e-20)
(1.33987 0.556145 -5.10934e-20)
(1.27379 0.543395 6.84376e-20)
(1.20602 0.527453 7.73334e-20)
(1.13732 0.508339 -1.20944e-19)
(1.06818 0.484453 4.33127e-20)
(1.00058 0.454133 -2.83709e-19)
(0.946191 0.421321 -7.73205e-20)
(0.91259 0.393522 0)
(0.890858 0.369268 1.13432e-19)
(0.840703 0.333907 1.36096e-19)
(0.689671 0.266409 1.62272e-19)
(0.448444 0.16926 -1.93765e-19)
(0.215801 0.0801085 -5.72139e-20)
(0.0518034 0.0180605 6.72474e-20)
(-0.0259739 -0.0106331 0)
(-0.0175234 -0.00677721 -4.67654e-20)
(0.239602 0.108837 -6.57636e-20)
(1.13398 0.49568 3.55371e-20)
(1.3383 0.589729 1.12112e-21)
(1.37214 0.617242 1.50656e-20)
(1.32971 0.613228 -2.10581e-20)
(1.26257 0.597008 -4.14746e-21)
(1.19329 0.577473 -8.4856e-20)
(1.12263 0.554634 -4.38523e-20)
(1.05111 0.526783 -1.20537e-19)
(0.980844 0.492204 3.29141e-22)
(0.924011 0.455403 -2.41913e-19)
(0.888498 0.4244 2.05331e-19)
(0.8648 0.397246 -1.24928e-19)
(0.813082 0.357964 1.50238e-19)
(0.66733 0.285319 0)
(0.438317 0.183094 -1.05612e-19)
(0.216297 0.0883656 3.34307e-22)
(0.056692 0.0214303 -2.94068e-19)
(-0.021866 -0.0103983 -4.31199e-20)
(-0.0167389 -0.00722892 0)
(0.236474 0.117855 0)
(1.12342 0.541597 4.1604e-20)
(1.32901 0.645428 1.41287e-20)
(1.36116 0.673973 -1.12782e-20)
(1.31758 0.667714 -2.92524e-20)
(1.24962 0.648379 0)
(1.17909 0.625603 -3.73865e-20)
(1.1067 0.59937 -1.05659e-21)
(1.03301 0.567849 2.58578e-19)
(0.960208 0.529243 -3.88894e-20)
(0.900958 0.488578 -1.7493e-19)
(0.863572 0.45447 1.06682e-19)
(0.838016 0.424471 -2.24158e-21)
(0.78502 0.38143 1.60182e-19)
(0.644529 0.303824 9.80479e-20)
(0.426997 0.196889 -2.28123e-19)
(0.215703 0.0968105 2.6971e-19)
(0.0613377 0.0254956 7.99457e-20)
(-0.0169801 -0.00930046 3.29131e-19)
(-0.0154653 -0.00735637 -8.79372e-19)
(0.234334 0.126789 -2.30429e-20)
(1.11258 0.585106 3.04107e-20)
(1.31828 0.698251 -2.00071e-20)
(1.34863 0.727765 3.81274e-21)
(1.30407 0.719503 0)
(1.23546 0.697388 -2.8798e-20)
(1.16388 0.671726 1.27069e-19)
(1.08995 0.642435 9.58413e-20)
(1.01425 0.607566 0)
(0.938952 0.565186 -5.62475e-19)
(0.877318 0.520807 4.74419e-19)
(0.838083 0.483624 0)
(0.810749 0.450825 1.4657e-19)
(0.75656 0.40402 -2.20759e-21)
(0.620718 0.321408 -3.15688e-19)
(0.413863 0.209932 1.23171e-19)
(0.212815 0.105017 0)
(0.0646157 0.0298464 4.32391e-19)
(-0.0123082 -0.00766153 0)
(-0.0139719 -0.0072353 -4.17203e-19)
(0.233044 0.135674 2.7925e-20)
(1.10191 0.626419 4.05679e-20)
(1.30658 0.748255 -1.95629e-20)
(1.33507 0.778638 0)
(1.28964 0.768583 -2.10574e-20)
(1.22052 0.743999 0)
(1.14804 0.715777 -1.23472e-19)
(1.07272 0.683762 -4.36593e-20)
(0.995097 0.645885 4.53617e-20)
(0.917364 0.600019 -2.78551e-19)
(0.853316 0.552065 4.89392e-20)
(0.812243 0.511841 0)
(0.783206 0.476153 -3.13676e-19)
(0.727776 0.425462 2.09973e-21)
(0.595591 0.337718 0)
(0.398767 0.221547 8.54907e-22)
(0.20742 0.112319 3.96389e-19)
(0.0657713 0.0338112 -3.74189e-19)
(-0.00866505 -0.00599091 1.10335e-19)
(-0.0125438 -0.00698604 0)
(0.232258 0.144441 0)
(1.09158 0.66571 4.95895e-20)
(1.29432 0.795549 3.03154e-20)
(1.3209 0.826661 -2.56903e-21)
(1.27469 0.814985 -3.94814e-21)
(1.20517 0.788213 -6.48463e-20)
(1.13191 0.757743 4.69361e-20)
(1.05531 0.723332 -5.24054e-20)
(0.97586 0.68278 2.03716e-19)
(0.895693 0.633753 -4.46346e-19)
(0.829138 0.582374 -4.30235e-21)
(0.786191 0.539082 -1.37091e-19)
(0.755486 0.50033 5.10018e-19)
(0.698771 0.445478 -2.5571e-21)
(0.569454 0.35239 -2.46215e-19)
(0.381708 0.23134 -4.36223e-19)
(0.199716 0.118208 0)
(0.0647861 0.0368391 0)
(-0.00633353 -0.00468091 1.19254e-19)
(-0.0113338 -0.00673512 -6.99657e-20)
(0.232105 0.153253 3.99888e-20)
(1.08183 0.70278 -1.13477e-19)
(1.28181 0.840225 -3.25759e-20)
(1.30643 0.871916 0)
(1.2595 0.858766 -1.53785e-21)
(1.18966 0.830065 -5.57849e-20)
(1.11574 0.797635 1.11073e-19)
(1.03798 0.76114 2.04193e-19)
(0.956772 0.718259 2.64507e-19)
(0.874135 0.666401 -3.6489e-19)
(0.80495 0.611786 -4.10176e-19)
(0.760016 0.565351 3.67238e-19)
(0.72765 0.523237 0)
(0.669571 0.46375 -1.12371e-19)
(0.542603 0.364944 -2.66219e-19)
(0.36303 0.238919 -3.14136e-19)
(0.189945 0.122225 -3.70326e-19)
(0.0620085 0.0385872 1.09349e-19)
(-0.00520978 -0.00395139 -6.42531e-20)
(-0.0103813 -0.00654699 3.20716e-22)
(0.232159 0.16189 0)
(1.07278 0.738143 0)
(1.26926 0.882386 2.5339e-21)
(1.29188 0.914508 0)
(1.24432 0.900015 -6.12568e-22)
(1.17424 0.869617 3.48061e-20)
(1.09976 0.835484 0)
(1.02092 0.797198 2.38467e-20)
(0.938023 0.752325 4.41343e-19)
(0.852888 0.697996 -8.40496e-19)
(0.780902 0.640373 0)
(0.733779 0.590702 -2.37143e-19)
(0.699635 0.544792 -2.99641e-21)
(0.640107 0.480027 -2.20229e-21)
(0.515213 0.374999 2.8563e-19)
(0.343014 0.243943 2.99911e-23)
(0.178549 0.124137 -7.98501e-19)
(0.057739 0.0389977 2.35372e-19)
(-0.00507311 -0.00379817 6.95742e-20)
(-0.00965546 -0.00642124 0)
(0.232474 0.170339 -1.62158e-19)
(1.0642 0.771851 -7.77641e-20)
(1.25673 0.9221 -9.92081e-20)
(1.27745 0.954543 9.00605e-20)
(1.22934 0.938804 -1.65568e-20)
(1.15909 0.906932 0)
(1.08412 0.871336 6.56786e-20)
(1.00431 0.831532 -5.36564e-20)
(0.919781 0.784997 3.97183e-21)
(0.832135 0.728582 6.22264e-20)
(0.757126 0.668218 5.33206e-19)
(0.707506 0.615242 -8.32495e-20)
(0.671349 0.564998 -3.15831e-19)
(0.610289 0.494055 -1.31232e-19)
(0.487405 0.382135 1.54859e-19)
(0.322081 0.246069 1.79705e-22)
(0.166186 0.123807 2.15186e-19)
(0.0525227 0.038094 -5.06891e-19)
(-0.00557349 -0.00413161 5.99164e-19)
(-0.00908955 -0.00634553 8.73474e-20)
(0.232664 0.178551 6.19213e-20)
(1.05608 0.803987 -4.40283e-20)
(1.24441 0.959488 6.37338e-21)
(1.26327 0.992147 5.99648e-20)
(1.21468 0.975247 1.03925e-20)
(1.14433 0.942083 -5.79038e-20)
(1.06896 0.905242 1.79121e-20)
(0.988265 0.864166 -2.23195e-19)
(0.902193 0.816277 -4.86715e-19)
(0.812014 0.75817 -5.02057e-19)
(0.733767 0.695412 0)
(0.681241 0.63913 -3.67117e-19)
(0.642648 0.583941 4.56269e-19)
(0.579831 0.505599 0)
(0.459194 0.385884 -3.32185e-19)
(0.301157 0.244861 1.9696e-19)
(0.15389 0.12106 -2.31552e-19)
(0.0473883 0.0361204 -2.72839e-19)
(-0.00628286 -0.00473012 -4.82571e-19)
(-0.00867022 -0.00631172 -3.76411e-19)
(0.233228 0.186641 -7.02724e-20)
(1.04828 0.834541 4.71157e-20)
(1.23234 0.994615 1.06711e-19)
(1.24945 1.0274 8.90412e-20)
(1.20047 1.00944 -1.78921e-20)
(1.13006 0.975157 -2.72283e-20)
(1.05438 0.937254 6.08173e-20)
(0.972895 0.895143 -2.2838e-19)
(0.885353 0.846189 -2.88625e-19)
(0.792661 0.786784 5.26415e-19)
(0.710957 0.722035 1.17573e-18)
(0.655035 0.662547 0)
(0.613388 0.601815 0)
(0.548346 0.514585 -1.51227e-19)
(0.430302 0.385674 0)
(0.280694 0.239276 4.23207e-19)
(0.143457 0.115034 4.97727e-19)
(0.0444892 0.0328523 0)
(-0.00608057 -0.00542729 0)
(-0.0084303 -0.00636325 4.04653e-19)
(0.233485 0.194281 8.03091e-20)
(1.04082 0.863511 6.47975e-20)
(1.22062 1.0276 7.77234e-20)
(1.23605 1.06043 -8.74586e-20)
(1.18676 1.04148 -2.63916e-20)
(1.11635 1.00623 2.19577e-20)
(1.04045 0.96743 -8.27726e-20)
(0.958269 0.924489 -6.661e-22)
(0.869353 0.874737 -5.18987e-21)
(0.77419 0.81443 -4.35599e-21)
(0.688846 0.748156 6.06569e-19)
(0.628978 0.685661 0)
(0.583477 0.618903 4.64283e-19)
(0.515347 0.521185 3.23728e-19)
(0.399913 0.381119 7.76296e-19)
(0.260332 0.22759 2.28302e-19)
(0.136739 0.10246 -2.67772e-19)
(0.0491051 0.0244654 -1.57249e-19)
(0.00157184 -0.00779913 0)
(-0.00686344 -0.00620287 4.34926e-19)
(0.234117 0.201954 -1.81798e-19)
(1.03365 0.891027 0)
(1.20922 1.05848 9.23879e-20)
(1.2231 1.09131 -7.48369e-20)
(1.17362 1.07148 3.94692e-20)
(1.10325 1.03539 -1.26262e-20)
(1.02722 0.995825 1.55652e-19)
(0.944434 0.952238 -1.88935e-20)
(0.854245 0.901932 0)
(0.756691 0.841078 -5.81853e-19)
(0.667585 0.773818 -1.32153e-18)
(0.603197 0.708633 5.4478e-20)
(0.552919 0.635533 6.43337e-19)
(0.480438 0.525911 0)
(0.366686 0.372568 5.25019e-19)
(0.237496 0.208202 0)
(0.131812 0.0758956 0)
(0.0678958 -0.00648184 -1.69981e-19)
(0.0446593 -0.0252715 0)
(0.0249031 0.00424193 1.16609e-19)
(0.234336 0.209067 -2.03934e-19)
(1.02676 0.917322 0)
(1.19815 1.08747 1.54629e-19)
(1.21057 1.12029 0)
(1.16101 1.09971 -2.5159e-20)
(1.09069 1.06292 0)
(1.01462 1.02275 6.73461e-21)
(0.931294 0.978726 3.13824e-20)
(0.839908 0.928134 3.63466e-20)
(0.739989 0.867103 -6.38462e-19)
(0.64698 0.799476 3.95868e-20)
(0.577388 0.73212 4.40205e-19)
(0.521194 0.652515 6.2879e-19)
(0.442603 0.529501 8.47136e-20)
(0.328556 0.361481 4.12543e-19)
(0.20664 0.181837 0)
(0.115331 0.0308445 5.6418e-19)
(0.0661856 -0.0423724 -3.29123e-19)
(0.0303564 0.0519239 3.82533e-19)
(-0.0384084 0.456796 -4.55901e-19)
(0.234524 0.216027 1.69374e-19)
(1.01991 0.942261 2.60192e-19)
(1.18732 1.11489 0)
(1.1983 1.14782 5.06115e-21)
(1.14872 1.12673 7.65969e-20)
(1.07841 1.08952 -1.6421e-20)
(1.00233 1.049 5.08173e-20)
(0.918431 1.00489 0)
(0.825799 0.95444 2.38721e-19)
(0.723391 0.893811 -3.30965e-20)
(0.626094 0.82663 0)
(0.550207 0.757806 0)
(0.486165 0.671162 5.65353e-19)
(0.399176 0.532334 -2.62331e-19)
(0.282219 0.349568 -4.19581e-19)
(0.163195 0.151396 0)
(0.0666917 0.0512569 2.85129e-19)
(0.00553762 0.461302 -3.28508e-19)
(0.0306351 1.92902 -1.83695e-19)
(0.0570258 2.82595 -2.3177e-19)
(0.234378 0.222446 -1.27553e-19)
(1.01314 0.966011 -3.34788e-19)
(1.17676 1.14073 9.23934e-20)
(1.18631 1.17377 7.49619e-20)
(1.13683 1.15237 0)
(1.0665 1.1149 -2.26523e-20)
(0.990571 1.07427 6.43484e-20)
(0.906043 1.03031 -1.49667e-20)
(0.812207 0.980336 3.58296e-20)
(0.707297 0.920604 6.08849e-19)
(0.605563 0.854637 6.71199e-19)
(0.522633 0.785527 4.96685e-19)
(0.448608 0.691683 5.71102e-19)
(0.351386 0.53364 -6.19548e-19)
(0.233593 0.340572 -6.35943e-19)
(0.108786 0.206747 0)
(0.0385036 0.88817 0)
(0.0860347 2.58314 1.5791e-19)
(0.0889088 3.21283 0)
(0.0904466 3.38975 3.81882e-19)
(0.236964 0.228443 0)
(1.00675 0.988953 0)
(1.16617 1.16486 0)
(1.17439 1.198 2.29217e-20)
(1.12498 1.17637 7.09537e-20)
(1.05477 1.13892 -2.9916e-20)
(0.979267 1.09846 3.94116e-20)
(0.894061 1.05484 -1.44635e-20)
(0.799066 1.00564 2.96089e-19)
(0.691699 0.947319 -8.76532e-21)
(0.585478 0.883284 1.32825e-18)
(0.495034 0.81536 -5.75984e-20)
(0.408427 0.71489 6.9411e-20)
(0.301125 0.531647 9.00424e-20)
(0.174469 0.358372 -2.74593e-21)
(0.0891965 1.01538 1.71824e-21)
(0.122873 2.76469 -8.39565e-19)
(0.127587 3.30148 -3.13774e-19)
(0.118513 3.42377 1.61876e-19)
(0.108222 3.44354 -1.80306e-19)
(0.16051 0.174177 7.56228e-20)
(0.996444 1.014 0)
(1.15533 1.18746 -1.86368e-19)
(1.16291 1.22093 -2.04993e-19)
(1.11363 1.1992 1.71509e-19)
(1.0439 1.16205 3.65279e-20)
(0.968232 1.12155 -3.79162e-20)
(0.882516 1.07855 1.53369e-19)
(0.786454 1.03045 -2.41302e-19)
(0.676816 0.974077 0)
(0.56613 0.912635 6.53641e-19)
(0.467944 0.84709 -4.06605e-19)
(0.368472 0.744197 0)
(0.24235 0.530506 8.50507e-20)
(0.127879 0.752622 2.03853e-19)
(0.137381 2.56857 -2.32138e-19)
(0.185329 3.32843 2.60742e-19)
(0.168342 3.43399 1.4117e-19)
(0.139721 3.45281 1.5814e-19)
(0.120662 3.46158 2.54866e-19)
(0.271843 0.266444 -1.44286e-19)
(0.979121 1.02431 0)
(1.13721 1.21355 2.04433e-19)
(1.14824 1.25207 2.26835e-19)
(1.09617 1.2329 -1.93248e-19)
(1.02582 1.19614 -6.07077e-20)
(0.948961 1.15718 2.16548e-20)
(0.862673 1.11549 1.2167e-20)
(0.765135 1.06967 2.27306e-19)
(0.652426 1.01748 5.23809e-19)
(0.535762 0.962395 3.666e-20)
(0.42575 0.90088 3.62195e-19)
(0.293112 0.777966 6.5468e-20)
(0.203374 0.920794 -8.36552e-20)
(0.209056 2.44493 -1.86587e-19)
(0.260377 3.33268 1.8068e-19)
(0.243394 3.45942 -2.01721e-19)
(0.209158 3.47825 -1.16772e-19)
(0.175756 3.50262 -1.0216e-19)
(0.130794 3.49721 -1.19917e-20)
(0.262075 0.265403 0)
(0.976396 1.04734 5.9694e-20)
(1.12858 1.23733 -4.23715e-20)
(1.13729 1.27587 -2.72558e-20)
(1.08509 1.25632 -1.34865e-19)
(1.0147 1.21974 6.40705e-20)
(0.937516 1.18101 -5.7485e-21)
(0.850961 1.14018 1.06898e-20)
(0.752753 1.09589 -2.35296e-19)
(0.638472 1.04671 -1.37852e-20)
(0.518404 0.996563 -1.18161e-18)
(0.401888 0.937733 5.19063e-20)
(0.275287 0.851316 -6.17642e-20)
(0.23853 1.54334 -7.71687e-20)
(0.301427 3.14348 1.77186e-20)
(0.314586 3.46143 1.16665e-21)
(0.273189 3.50856 3.00478e-19)
(0.239357 3.53167 1.5139e-19)
(0.193763 3.55164 -4.64763e-20)
(0.143872 3.54789 -5.94272e-20)
(0.248185 0.26353 1.51968e-19)
(0.972771 1.07293 4.07158e-19)
(1.11959 1.26315 -1.21484e-19)
(1.12588 1.30121 -1.02889e-19)
(1.0735 1.28119 0)
(1.00319 1.24464 1.21239e-19)
(0.925968 1.20619 7.0074e-21)
(0.839402 1.16618 9.09101e-21)
(0.740839 1.12354 -2.64095e-20)
(0.625529 1.07765 -4.70045e-19)
(0.502998 1.03305 -5.43698e-19)
(0.380723 0.975987 -4.22537e-19)
(0.278659 0.996612 -4.67632e-19)
(0.303948 2.31191 4.79117e-19)
(0.382261 3.38916 4.00572e-19)
(0.353886 3.51805 0)
(0.305994 3.55467 0)
(0.269366 3.58828 -3.76419e-20)
(0.225224 3.63335 0)
(0.155788 3.6175 -5.4717e-20)
(0.238422 0.265537 -2.28041e-19)
(0.967209 1.0994 -3.46642e-19)
(1.1092 1.29021 0)
(1.11319 1.32735 6.09813e-21)
(1.06068 1.30672 -1.48287e-19)
(0.990616 1.27012 2.00085e-19)
(0.913669 1.23198 1.35192e-20)
(0.827319 1.19272 3.98205e-21)
(0.728661 1.1517 -1.61389e-19)
(0.612767 1.10913 2.30851e-20)
(0.488732 1.07018 0)
(0.361843 1.01858 0)
(0.300985 1.28946 -4.23979e-19)
(0.383157 2.97385 1.6982e-19)
(0.447424 3.48845 2.16847e-19)