/*--------------------------------*- C++ -*----------------------------------*\
  =========                 |
  \\      /  F ield         | OpenFOAM: The Open Source CFD Toolbox
   \\    /   O peration     | Website:  https://openfoam.org
    \\  /    A nd           | Version:  6
     \\/     M anipulation  |
\*---------------------------------------------------------------------------*/
FoamFile
{
    version     2.0;
    format      ascii;
    class       volVectorField;
    location    "95";
    object      U;
}
// * * * * * * * * * * * * * * * * * * * * * * * * * * * * * * * * * * * * * //

dimensions      [0 1 -1 0 0 0 0];

internalField   nonuniform List<vector> 
8800
(
(0.987184 -0.0766652 0)
(1.00189 -0.05519 0)
(0.999722 -0.0285477 0)
(1.00003 -0.0151424 0)
(1.0001 -0.00854321 0)
(1.00012 -0.0050449 0)
(1.00008 -0.00299905 0)
(1.00002 -0.00169827 0)
(0.999991 -0.000791863 0)
(1.00006 -7.60093e-05 0)
(0.999958 0.000656644 0)
(1 0.0014247 0)
(1.00006 0.00243119 0)
(1.00007 0.00399953 0)
(1.00006 0.00663318 0)
(1.00005 0.0113725 0)
(0.999952 0.0208159 0)
(0.999172 0.0386706 0)
(1.0071 0.0724575 0)
(0.771215 0.0366617 0)
(0.363079 -0.0160164 0)
(1.04332 -0.0768115 0)
(1.0846 -0.0704398 0)
(1.04519 -0.0535332 0)
(1.02329 -0.0388832 0)
(1.01203 -0.0262036 0)
(1.00643 -0.0168397 0)
(1.00359 -0.0103044 0)
(1.00215 -0.00564048 0)
(1.00144 -0.00197798 0)
(1.00128 0.00134408 0)
(1.00166 0.00473269 0)
(1.00269 0.00865692 0)
(1.00468 0.0139745 0)
(1.00861 0.0216824 0)
(1.01657 0.032649 0)
(1.03251 0.0465606 0)
(1.06268 0.0616766 0)
(1.09187 0.0761051 0)
(0.838665 0.0565642 0)
(0.216871 -0.0024287 0)
(1.07592 -0.0501232 0)
(1.09989 -0.048292 0)
(1.06465 -0.0404403 0)
(1.04005 -0.0335771 0)
(1.02393 -0.0260494 0)
(1.01413 -0.0184583 0)
(1.00856 -0.011629 0)
(1.00558 -0.00575178 0)
(1.00431 -0.0003274 0)
(1.00463 0.0049222 0)
(1.0066 0.0103152 0)
(1.01063 0.0163773 0)
(1.01794 0.0233931 0)
(1.03053 0.0308552 0)
(1.05062 0.0378788 0)
(1.08037 0.0445589 0)
(1.10627 0.0513677 0)
(0.942498 0.0416291 0)
(0.216117 0.00246288 0)
(0.175216 -0.000815153 0)
(1.01775 -0.0354651 0)
(1.10523 -0.0413483 0)
(1.07829 -0.0360246 0)
(1.0535 -0.0300819 0)
(1.03623 -0.024496 0)
(1.02402 -0.0187545 0)
(1.01589 -0.0126598 0)
(1.01102 -0.00645801 0)
(1.00879 -0.000112171 0)
(1.00934 0.00614883 0)
(1.01265 0.0121472 0)
(1.01889 0.0179424 0)
(1.02875 0.023505 0)
(1.04318 0.0287992 0)
(1.0637 0.0342718 0)
(1.09356 0.0402495 0)
(1.09339 0.0420003 0)
(0.827045 0.0229315 0)
(0.173945 0.00085483 0)
(0.154039 -0.00060883 0)
(0.956312 -0.0254308 0)
(1.10352 -0.0350805 0)
(1.08772 -0.0325912 0)
(1.06177 -0.0279266 0)
(1.04416 -0.0228879 0)
(1.03168 -0.0176224 0)
(1.02282 -0.01207 0)
(1.01698 -0.00611483 0)
(1.0141 0.000369361 0)
(1.01475 0.00683898 0)
(1.01877 0.0127211 0)
(1.0258 0.0179651 0)
(1.03606 0.0228665 0)
(1.05061 0.0276155 0)
(1.07184 0.0321308 0)
(1.10005 0.0360534 0)
(1.068 0.0340916 0)
(0.739324 0.0143394 0)
(0.152121 0.000653908 0)
(0.139699 -0.000464766 0)
(0.899516 -0.0190388 0)
(1.0959 -0.0300103 0)
(1.09582 -0.0290996 0)
(1.06933 -0.0253513 0)
(1.0509 -0.0211917 0)
(1.03795 -0.0163935 0)
(1.02882 -0.0110788 0)
(1.02267 -0.00530932 0)
(1.01949 0.00103759 0)
(1.02007 0.00735954 0)
(1.02421 0.0129912 0)
(1.03135 0.0178942 0)
(1.04182 0.02234 0)
(1.05693 0.026292 0)
(1.07912 0.0297329 0)
(1.10221 0.0323412 0)
(1.03579 0.0282053 0)
(0.6726 0.0102463 0)
(0.136986 0.000516771 0)
(0.1292 -0.000358973 0)
(0.850073 -0.0146646 0)
(1.08361 -0.0258527 0)
(1.10156 -0.0261151 0)
(1.07623 -0.0228065 0)
(1.05726 -0.0191362 0)
(1.04385 -0.0148569 0)
(1.03436 -0.00989658 0)
(1.02796 -0.00432968 0)
(1.02457 0.00184486 0)
(1.02499 0.00795761 0)
(1.02908 0.013311 0)
(1.03632 0.0177891 0)
(1.04705 0.0216265 0)
(1.06255 0.0249094 0)
(1.08518 0.0278243 0)
(1.10123 0.0295535 0)
(1.00069 0.0237208 0)
(0.620553 0.0078933 0)
(0.125517 0.000420162 0)
(0.12121 -0.000277804 0)
(0.808128 -0.0114927 0)
(1.06847 -0.0222127 0)
(1.10516 -0.0234357 0)
(1.08254 -0.0205328 0)
(1.06316 -0.0170698 0)
(1.04947 -0.0130886 0)
(1.03968 -0.00845614 0)
(1.03298 -0.00315154 0)
(1.02933 0.00281205 0)
(1.02955 0.00868143 0)
(1.03358 0.0136865 0)
(1.04087 0.0176782 0)
(1.05168 0.0210044 0)
(1.06739 0.0238711 0)
(1.09036 0.0264794 0)
(1.09734 0.0273012 0)
(0.965162 0.0202189 0)
(0.578619 0.00637255 0)
(0.116348 0.000350599 0)
(0.115043 -0.000213991 0)
(0.77291 -0.00911365 0)
(1.05189 -0.018999 0)
(1.10764 -0.020944 0)
(1.08849 -0.0184028 0)
(1.06871 -0.0150754 0)
(1.05477 -0.0112452 0)
(1.04478 -0.00681124 0)
(1.03782 -0.0017358 0)
(1.03386 0.00398396 0)
(1.03383 0.00955914 0)
(1.03773 0.0141877 0)
(1.04493 0.0177433 0)
(1.05571 0.0206789 0)
(1.07162 0.0232142 0)
(1.09422 0.0254686 0)
(1.09055 0.0254607 0)
(0.930484 0.0175361 0)
(0.54377 0.0053422 0)
(0.108748 0.000301069 0)
(0.110267 -0.000162388 0)
(0.743488 -0.00726011 0)
(1.03495 -0.0161396 0)
(1.10921 -0.0185825 0)
(1.09416 -0.0163365 0)
(1.0741 -0.0130899 0)
(1.05989 -0.00933573 0)
(1.04969 -0.00500865 0)
(1.04249 -9.25016e-05 0)
(1.03821 0.00539756 0)
(1.03785 0.0106658 0)
(1.04151 0.0149335 0)
(1.04854 0.0180988 0)
(1.05925 0.0206871 0)
(1.07534 0.0229244 0)
(1.09678 0.0247891 0)
(1.08125 0.0239898 0)
(0.897195 0.0155236 0)
(0.513937 0.00463325 0)
(0.10223 0.000266876 0)
(0.1066 -0.000119201 0)
(0.719051 -0.00575749 0)
(1.01849 -0.0135621 0)
(1.10999 -0.0162868 0)
(1.09975 -0.0142993 0)
(1.07943 -0.0110509 0)
(1.06492 -0.00731063 0)
(1.05448 -0.00302826 0)
(1.047 0.00179039 0)
(1.04236 0.00709518 0)
(1.0416 0.0120831 0)
(1.04493 0.016015 0)
(1.05172 0.0188052 0)
(1.06235 0.0210568 0)
(1.0786 0.0230184 0)
(1.09793 0.0244549 0)
(1.0698 0.022888 0)
(0.865384 0.014065 0)
(0.487648 0.00415558 0)
(0.0964507 0.000245003 0)
(0.103858 -8.14336e-05 0)
(0.698968 -0.00448908 0)
(1.00312 -0.0111976 0)
(1.11015 -0.0140198 0)
(1.10522 -0.0122047 0)
(1.08479 -0.00890331 0)
(1.06995 -0.00511501 0)
(1.05924 -0.000813862 0)
(1.05142 0.00396744 0)
(1.04633 0.00913953 0)
(1.04507 0.0138819 0)
(1.04801 0.0174966 0)
(1.05453 0.019916 0)
(1.06503 0.0218379 0)
(1.08139 0.0235261 0)
(1.09799 0.0246099 0)
(1.05642 0.022175 0)
(0.834848 0.0130792 0)
(0.463787 0.0038557 0)
(0.0911428 0.000233133 0)
(0.101926 -4.63643e-05 0)
(0.682781 -0.003367 0)
(0.989324 -0.00897423 0)
(1.10992 -0.0116925 0)
(1.11056 -0.00996808 0)
(1.09026 -0.00658319 0)
(1.07507 -0.00268314 0)
(1.06402 0.00170537 0)
(1.05578 0.00651446 0)
(1.05015 0.0116083 0)
(1.04829 0.0161392 0)
(1.05076 0.0194523 0)
(1.05694 0.0214976 0)
(1.06729 0.0230863 0)
(1.08366 0.0244818 0)
(1.09713 0.0251119 0)
(1.04122 0.0218584 0)
(0.805208 0.0124898 0)
(0.441462 0.00369477 0)
(0.0860968 0.000229092 0)
(0.100744 -1.16985e-05 0)
(0.670202 -0.0023209 0)
(0.977458 -0.00681614 0)
(1.10963 -0.00924737 0)
(1.1159 -0.00752825 0)
(1.09593 -0.0040136 0)
(1.08036 6.56495e-05 0)
(1.0689 0.00461367 0)
(1.06016 0.00952001 0)
(1.05387 0.0145929 0)
(1.05129 0.0189453 0)
(1.05319 0.0219679 0)
(1.05896 0.0236346 0)
(1.06911 0.0248833 0)
(1.08547 0.025983 0)
(1.09494 0.0260928 0)
(1.02424 0.0219442 0)
(0.775989 0.0122511 0)
(0.419949 0.00364871 0)
(0.0811459 0.000231608 0)
(0.100308 2.52201e-05 0)
(0.661091 -0.0012942 0)
(0.967853 -0.00464989 0)
(1.1096 -0.00662244 0)
(1.12139 -0.00481065 0)
(1.10189 -0.00110482 0)
(1.0859 0.00322782 0)
(1.07396 0.00801201 0)
(1.06462 0.0130908 0)
(1.05753 0.0182033 0)
(1.05407 0.0224095 0)
(1.05529 0.0251515 0)
(1.06059 0.0264395 0)
(1.0705 0.0273252 0)
(1.08672 0.0280909 0)
(1.09133 0.027585 0)
(1.00536 0.0224773 0)
(0.746647 0.0123391 0)
(0.398622 0.0037044 0)
(0.0761482 0.000240003 0)
(0.100626 5.80502e-05 0)
(0.655439 -0.000228354 0)
(0.960818 -0.00239899 0)
(1.11021 -0.00374873 0)
(1.1272 -0.00172963 0)
(1.10825 0.00224467 0)
(1.09179 0.00691303 0)
(1.07929 0.0120185 0)
(1.06921 0.0173512 0)
(1.06116 0.0225696 0)
(1.05665 0.026663 0)
(1.05705 0.0291269 0)
(1.0618 0.0300342 0)
(1.0714 0.0305333 0)
(1.08712 0.0309195 0)
(1.08597 0.029678 0)
(0.98435 0.0234949 0)
(0.716567 0.0127385 0)
(0.376908 0.00385194 0)
(0.0709778 0.000253386 0)
(0.101794 0.000113695 0)
(0.653402 0.000920569 0)
(0.956678 1.41551e-05 0)
(1.11182 -0.000547036 0)
(1.13355 0.00181467 0)
(1.11514 0.00615403 0)
(1.09816 0.011255 0)
(1.08498 0.0167797 0)
(1.074 0.0224562 0)
(1.06479 0.0278471 0)
(1.05903 0.0318574 0)
(1.05845 0.034036 0)
(1.06255 0.0345517 0)
(1.07176 0.0346432 0)
(1.08652 0.034607 0)
(1.0786 0.0324536 0)
(0.960816 0.0250348 0)
(0.685069 0.0134386 0)
(0.354268 0.00408182 0)
(0.0655246 0.000270753 0)
(0.103954 0.000165925 0)
(0.65517 0.00204392 0)
(0.955797 0.00268153 0)
(1.11492 0.00308816 0)
(1.14063 0.00593508 0)
(1.12271 0.0107696 0)
(1.10513 0.0164171 0)
(1.09114 0.0224728 0)
(1.07908 0.028591 0)
(1.06846 0.0342203 0)
(1.06121 0.0381666 0)
(1.05949 0.0400292 0)
(1.06279 0.0401483 0)
(1.07153 0.0398025 0)
(1.08469 0.0392503 0)
(1.06889 0.0360144 0)
(0.934236 0.0271412 0)
(0.651418 0.0144306 0)
(0.330199 0.00438369 0)
(0.0596983 0.000290932 0)
(0.107211 0.000230285 0)
(0.661384 0.0035341 0)
(0.958533 0.00562812 0)
(1.11996 0.0072971 0)
(1.14873 0.0107783 0)
(1.13114 0.0162723 0)
(1.11287 0.0226006 0)
(1.09789 0.0293166 0)
(1.0845 0.0359819 0)
(1.0722 0.0419114 0)
(1.06318 0.0457926 0)
(1.06013 0.0473219 0)
(1.06248 0.0470109 0)
(1.07066 0.0461843 0)
(1.08162 0.0450236 0)
(1.05635 0.04048 0)
(0.903908 0.0298492 0)
(0.614816 0.0156943 0)
(0.30424 0.00474197 0)
(0.0534319 0.000312139 0)
(0.111848 0.000317029 0)
(0.67236 0.0052847 0)
(0.965486 0.00914627 0)
(1.12745 0.0122447 0)
(1.15815 0.0165596 0)
(1.14068 0.0229067 0)
(1.12156 0.0300762 0)
(1.10536 0.037594 0)
(1.09035 0.0449082 0)
(1.076 0.0511775 0)
(1.0649 0.0549642 0)
(1.06027 0.0561261 0)
(1.06157 0.0553394 0)
(1.06907 0.0539833 0)
(1.07722 0.0520952 0)
(1.04034 0.0459583 0)
(0.868941 0.0331655 0)
(0.574423 0.017186 0)
(0.276003 0.00513039 0)
(0.046695 0.000331767 0)
(0.118229 0.000433494 0)
(0.688895 0.00746722 0)
(0.977427 0.0134242 0)
(1.13797 0.0181604 0)
(1.16928 0.0235425 0)
(1.15161 0.030998 0)
(1.13142 0.0391953 0)
(1.11367 0.0476656 0)
(1.09665 0.0557135 0)
(1.07985 0.0623246 0)
(1.06631 0.0659452 0)
(1.05978 0.0666364 0)
(1.06 0.0653366 0)
(1.06682 0.0633984 0)
(1.07115 0.0606604 0)
(1.01998 0.0525158 0)
(0.82825 0.0370434 0)
(0.529415 0.0188184 0)
(0.245242 0.00550752 0)
(0.0395119 0.000346289 0)
(0.126878 0.000595697 0)
(0.712023 0.0103167 0)
(0.995138 0.0187376 0)
(1.15218 0.0253881 0)
(1.18261 0.032109 0)
(1.16427 0.0410002 0)
(1.14266 0.0504399 0)
(1.12294 0.0600051 0)
(1.10341 0.0688225 0)
(1.08366 0.075695 0)
(1.06731 0.0789983 0)
(1.05866 0.0790878 0)
(1.05773 0.0772047 0)
(1.06364 0.0745844 0)
(1.06283 0.0707357 0)
(0.994138 0.0601695 0)
(0.780569 0.0413418 0)
(0.479083 0.0204404 0)
(0.211948 0.00581447 0)
(0.0319825 0.000351451 0)
(0.138598 0.000833949 0)
(0.743124 0.014215 0)
(1.01979 0.0255645 0)
(1.17088 0.0344804 0)
(1.19878 0.0428693 0)
(1.17904 0.0536037 0)
(1.1555 0.0645061 0)
(1.13318 0.0752471 0)
(1.11051 0.0847491 0)
(1.08729 0.0916585 0)
(1.06777 0.0943822 0)
(1.05682 0.0936902 0)
(1.05476 0.0911933 0)
(1.05919 0.0877647 0)
(1.05143 0.0825133 0)
(0.961285 0.0687885 0)
(0.724528 0.0457713 0)
(0.423026 0.0218197 0)
(0.176479 0.00597548 0)
(0.0242998 0.000342788 0)
(0.15469 0.0012061 0)
(0.784194 0.0198149 0)
(1.05304 0.0346975 0)
(1.19504 0.0463897 0)
(1.21871 0.0572169 0)
(1.19631 0.0698776 0)
(1.16999 0.0823787 0)
(1.14425 0.0941979 0)
(1.11772 0.104085 0)
(1.09047 0.110606 0)
(1.06746 0.112336 0)
(1.05413 0.110612 0)
(1.05101 0.107408 0)
(1.05329 0.103228 0)
(1.03577 0.0959404 0)
(0.919466 0.0780147 0)
(0.658861 0.0498427 0)
(0.361453 0.0226431 0)
(0.13969 0.00590882 0)
(0.0167566 0.000316683 0)
(0.177396 0.00185117 0)
(0.838463 0.0282645 0)
(1.09781 0.0477283 0)
(1.22574 0.0629942 0)
(1.24281 0.0767862 0)
(1.21617 0.0914906 0)
(1.18589 0.105417 0)
(1.15572 0.117832 0)
(1.12458 0.127443 0)
(1.09282 0.132866 0)
(1.06613 0.13303 0)
(1.05038 0.129942 0)
(1.04625 0.125885 0)
(1.04582 0.120692 0)
(1.01413 0.110739 0)
(0.866273 0.0871692 0)
(0.582881 0.0528482 0)
(0.295653 0.0225625 0)
(0.10305 0.00554875 0)
(0.00973477 0.00027077 0)
(0.210197 0.00327743 0)
(0.911793 0.0423186 0)
(1.1571 0.0685462 0)
(1.26334 0.0878139 0)
(1.27094 0.104682 0)
(1.23799 0.120888 0)
(1.20236 0.135285 0)
(1.16676 0.147152 0)
(1.13041 0.155354 0)
(1.09385 0.158675 0)
(1.06348 0.156548 0)
(1.0454 0.151687 0)
(1.04036 0.146648 0)
(1.03592 0.140204 0)
(0.983929 0.12628 0)
(0.798996 0.0951139 0)
(0.497513 0.0539457 0)
(0.228715 0.0213721 0)
(0.068761 0.00488927 0)
(0.00371892 0.000203934 0)
(0.254952 0.00971336 8.99377e-21)
(1.00799 0.0701524 7.7297e-21)
(1.22852 0.103959 -2.70742e-21)
(1.30494 0.124801 0)
(1.30012 0.144656 -6.97665e-35)
(1.25953 0.160469 1.02197e-21)
(1.21778 0.173507 -1.85339e-21)
(1.17631 0.183371 0)
(1.13445 0.189095 3.85251e-35)
(1.09288 0.189566 -2.3345e-21)
(1.05865 0.184753 0)
(1.03835 0.178145 -2.8038e-21)
(1.03314 0.172843 -8.29726e-21)
(1.02145 0.165274 -3.93697e-21)
(0.939234 0.144509 -1.18764e-21)
(0.709694 0.102043 -7.05707e-22)
(0.397983 0.052878 0)
(0.160195 0.0193491 4.93658e-22)
(0.0369778 0.00406585 5.84608e-22)
(-0.00137244 8.70129e-05 1.06905e-20)
(0.286237 0.0254435 6.20955e-21)
(1.08797 0.114202 1.18093e-22)
(1.28742 0.154399 7.0396e-22)
(1.34283 0.17523 0)
(1.32598 0.195146 -3.46425e-21)
(1.27835 0.208914 -3.95824e-21)
(1.23063 0.219792 -1.8501e-21)
(1.18334 0.227395 -6.63033e-21)
(1.13593 0.230716 0)
(1.08919 0.228599 9.85773e-21)
(1.0509 0.221458 9.82353e-21)
(1.02794 0.213262 2.92321e-21)
(1.01981 0.206802 1.07422e-20)
(0.993512 0.195571 1.51946e-20)
(0.865013 0.163765 0)
(0.585016 0.106741 2.14213e-20)
(0.283445 0.0500545 3.07145e-20)
(0.091726 0.0161495 3.41728e-20)
(0.00718998 0.00209365 -3.91953e-20)
(-0.00592368 -0.000473132 -7.4789e-22)
(0.288199 0.0432364 0)
(1.13964 0.171069 9.78977e-22)
(1.32809 0.216055 0)
(1.37272 0.236648 -4.27613e-21)
(1.34668 0.25349 0)
(1.29314 0.263365 -7.62641e-21)
(1.23987 0.270564 3.73252e-21)
(1.18712 0.274721 -1.31862e-20)
(1.13453 0.274718 -3.30299e-22)
(1.08305 0.269331 5.04496e-21)
(1.04119 0.259454 2.14961e-20)
(1.01596 0.249508 -2.54618e-23)
(1.00414 0.24129 -7.77753e-21)
(0.961546 0.22518 -1.41938e-20)
(0.793217 0.180469 1.68294e-20)
(0.488551 0.108817 -2.97788e-20)
(0.212098 0.0467273 -3.91951e-21)
(0.053561 0.0128555 0)
(-0.00839871 -0.000286842 -3.4163e-24)
(-0.00815686 -0.00114222 0)
(0.281713 0.0581179 1.04097e-20)
(1.16846 0.231721 -5.40969e-21)
(1.35402 0.282428 -4.58771e-21)
(1.39294 0.303358 1.94408e-21)
(1.36065 0.316114 -3.27095e-21)
(1.30276 0.321404 1.57832e-20)
(1.245 0.324162 7.68843e-21)
(1.18763 0.324128 0)
(1.13054 0.320132 -2.49172e-20)
(1.07493 0.31091 0)
(1.03 0.297932 -1.11633e-20)
(1.00283 0.286025 -1.39162e-20)
(0.987019 0.275461 -8.41121e-21)
(0.928615 0.253363 -1.02538e-20)
(0.730341 0.195176 0)
(0.418887 0.111112 0)
(0.166155 0.0448078 -2.53513e-20)
(0.029093 0.00982279 5.00208e-21)
(-0.0187502 -0.00290212 -2.94943e-21)
(-0.00969073 -0.00188013 -3.49378e-21)
(0.273665 0.0710993 -2.16114e-21)
(1.18183 0.292247 0)
(1.36887 0.349758 8.25402e-21)
(1.40454 0.371262 5.16172e-21)
(1.36799 0.380022 7.64209e-21)
(1.30697 0.380694 0)
(1.24579 0.378855 7.35727e-21)
(1.18473 0.374358 1.43343e-20)
(1.12394 0.366025 1.26175e-20)
(1.06485 0.352615 2.34317e-20)
(1.01733 0.33625 0)
(0.988464 0.322122 -2.97518e-20)
(0.968638 0.308838 -1.79868e-20)
(0.896324 0.279912 -1.06498e-20)
(0.677301 0.208867 6.53379e-20)
(0.368986 0.114182 7.74165e-21)
(0.135305 0.0436766 3.64628e-20)
(0.0115112 0.00666202 -1.72341e-19)
(-0.0270455 -0.00587487 1.0207e-19)
(-0.011058 -0.00270377 -1.24595e-19)
(0.265629 0.0826824 1.4897e-21)
(1.1851 0.35063 3.0712e-22)
(1.37556 0.416067 -6.27325e-22)
(1.4092 0.438467 -4.41874e-21)
(1.36964 0.443462 -5.95464e-21)
(1.30632 0.439656 3.56919e-22)
(1.24251 0.433313 -7.94252e-21)
(1.17854 0.424358 1.46108e-20)
(1.11471 0.411591 -2.69669e-20)
(1.05273 0.393822 0)
(1.00305 0.373863 -1.34094e-20)
(0.972756 0.35731 -3.01843e-22)
(0.949182 0.341023 -1.95961e-20)
(0.865365 0.304844 0)
(0.633344 0.221812 -1.40697e-20)
(0.332837 0.118005 -3.32845e-20)
(0.113084 0.0429926 8.84629e-20)
(-0.00253548 0.00325328 -8.70998e-20)
(-0.0345322 -0.00925312 1.23809e-19)
(-0.0124249 -0.00363174 -1.30276e-19)
(0.258495 0.0932358 -1.15028e-22)
(1.18185 0.406107 6.58555e-22)
(1.37624 0.480284 -3.90859e-22)
(1.4084 0.503849 1.38044e-21)
(1.36666 0.50541 -2.88942e-21)
(1.30163 0.497359 0)
(1.23576 0.486701 -7.17114e-21)
(1.16941 0.473412 -1.51731e-20)
(1.10306 0.456242 -1.39064e-20)
(1.03862 0.434048 0)
(0.987151 0.410346 -1.36971e-20)
(0.955706 0.391152 -1.70729e-20)
(0.92887 0.371588 2.11061e-20)
(0.836088 0.328102 -1.2854e-20)
(0.597205 0.234104 -6.0738e-20)
(0.30623 0.122349 3.59141e-20)
(0.0962911 0.0424285 1.06071e-20)
(-0.0146183 -0.000575599 0)
(-0.0419463 -0.013157 -1.18567e-19)
(-0.0139767 -0.00471795 -4.39485e-21)
(0.252468 0.103108 9.46047e-22)
(1.17438 0.458474 -1.31976e-21)
(1.37242 0.541847 -1.02313e-22)
(1.40336 0.566744 5.35725e-21)
(1.36 0.565233 -9.86563e-21)
(1.29371 0.553248 1.35173e-20)
(1.22619 0.53853 1.53712e-20)
(1.15785 0.521089 -2.41392e-20)
(1.08932 0.499624 8.66774e-21)
(1.02273 0.472989 -5.67629e-20)
(0.969745 0.445423 -1.55094e-20)
(0.937375 0.423347 0)
(0.907832 0.400261 2.2769e-20)
(0.808458 0.349516 2.72655e-20)
(0.567414 0.245657 3.25676e-20)
(0.286327 0.126799 -3.86732e-20)
(0.0833188 0.0416151 -1.14166e-20)
(-0.0251446 -0.00493692 1.34495e-20)
(-0.0493739 -0.0176612 0)
(-0.015798 -0.00601581 -9.45782e-21)
(0.247481 0.112372 -1.51667e-20)
(1.16446 0.507778 8.17676e-21)
(1.36542 0.600696 5.06594e-22)
(1.39509 0.626814 2.66143e-21)
(1.35049 0.622555 -3.96416e-21)
(1.28326 0.606964 -8.49994e-22)
(1.2144 0.588499 -1.68236e-20)
(1.14436 0.567149 -8.73235e-21)
(1.0739 0.541538 -2.40506e-20)
(1.00536 0.510508 4.60267e-23)
(0.950998 0.478948 -4.81935e-20)
(0.917846 0.453757 4.09626e-20)
(0.886088 0.426866 -2.48784e-20)
(0.782233 0.368969 2.98287e-20)
(0.542486 0.256277 0)
(0.271194 0.130928 -2.08474e-20)
(0.0734536 0.0403445 3.10031e-23)
(-0.0338291 -0.0097585 -5.80863e-20)
(-0.0563136 -0.0226476 -8.58118e-21)
(-0.0177799 -0.00751913 0)
(0.243506 0.121303 0)
(1.15316 0.554259 9.49562e-21)
(1.3561 0.656904 3.53128e-21)
(1.38442 0.683905 -1.83171e-21)
(1.33884 0.677181 -5.59978e-21)
(1.27089 0.65832 0)
(1.20093 0.636431 -7.36314e-21)
(1.12941 0.611457 -2.2811e-22)
(1.05718 0.581905 5.14531e-20)
(0.986795 0.546566 -7.73672e-21)
(0.931083 0.510907 -3.47913e-20)
(0.897185 0.482365 2.1227e-20)
(0.863572 0.451402 -4.07633e-22)
(0.756957 0.38648 3.16955e-20)
(0.520974 0.265849 1.91799e-20)
(0.25926 0.134467 -4.47936e-20)
(0.0662059 0.0386921 5.28919e-20)
(-0.0402198 -0.0147067 1.56623e-20)
(-0.0620329 -0.0277621 6.48468e-20)
(-0.0196902 -0.00914042 -1.75449e-19)
(0.240463 0.13006 -5.1756e-21)
(1.14129 0.598092 6.79827e-21)
(1.34513 0.710095 -4.47754e-21)
(1.37201 0.737979 2.47705e-22)
(1.32562 0.729029 0)
(1.25713 0.707219 -5.53465e-21)
(1.18624 0.682238 2.50421e-20)
(1.11339 0.653948 1.90184e-20)
(1.0395 0.620706 0)
(0.967271 0.581177 -1.1177e-19)
(0.910159 0.54136 9.41054e-20)
(0.875453 0.509247 0)
(0.840225 0.473987 2.89408e-20)
(0.732176 0.402152 -3.58297e-22)
(0.501491 0.274349 -6.16236e-20)
(0.249236 0.137464 2.40864e-20)
(0.0610417 0.0369426 0)
(-0.0441057 -0.0193165 8.43434e-20)
(-0.0659496 -0.0325425 0)
(-0.021274 -0.0107458 -8.27699e-20)
(0.238274 0.13866 6.22386e-21)
(1.12936 0.63952 8.95452e-21)
(1.33299 0.760346 -4.4033e-21)
(1.35841 0.789064 0)
(1.31133 0.778103 -3.85302e-21)
(1.24242 0.75365 0)
(1.17074 0.725892 -2.42732e-20)
(1.09667 0.694598 -8.64174e-21)
(1.02117 0.657962 9.0103e-21)
(0.94704 0.614412 -5.53546e-20)
(0.888377 0.570416 9.71149e-21)
(0.852736 0.53452 0)
(0.816026 0.494778 -6.18823e-20)
(0.707111 0.416161 3.08256e-22)
(0.483129 0.281734 0)
(0.240298 0.139993 5.90318e-23)
(0.057433 0.035283 7.6919e-20)
(-0.0457771 -0.0232392 -7.27596e-20)
(-0.0678903 -0.0365803 2.15443e-20)
(-0.0223507 -0.0121775 0)
(0.236598 0.147077 0)
(1.11762 0.678746 1.08557e-20)
(1.32015 0.80778 6.64837e-21)
(1.34405 0.837236 -5.32091e-22)
(1.29637 0.824451 -5.68557e-22)
(1.22714 0.797638 -1.25029e-20)
(1.15476 0.76741 9.2614e-21)
(1.07956 0.733423 -1.04086e-20)
(1.00247 0.6937 4.05212e-20)
(0.926329 0.646374 -8.88119e-20)
(0.865889 0.598202 -8.81674e-22)
(0.829144 0.558335 -2.71324e-20)
(0.79103 0.513902 1.00561e-19)
(0.681845 0.428658 -4.27329e-22)
(0.465091 0.288113 -4.78911e-20)
(0.231742 0.142076 -8.4457e-20)
(0.054868 0.0339455 0)
(-0.0456767 -0.0262722 0)
(-0.0680153 -0.0397219 2.32537e-20)
(-0.0228436 -0.0133398 -1.38054e-20)
(0.235597 0.155495 8.7929e-21)
(1.10625 0.715774 -2.46659e-20)
(1.30693 0.852509 -7.12411e-21)
(1.32926 0.882583 0)
(1.28106 0.868146 -3.08452e-22)
(1.21158 0.839234 -1.06662e-20)
(1.13859 0.806826 2.18911e-20)
(1.06232 0.770458 4.05713e-20)
(0.983643 0.727975 5.27058e-20)
(0.905368 0.677169 -7.27834e-20)
(0.842876 0.62489 -8.16225e-20)
(0.804774 0.580837 7.27935e-20)
(0.76528 0.531449 0)
(0.656252 0.439593 -2.20089e-20)
(0.44694 0.293393 -5.16857e-20)
(0.223141 0.143656 -6.0826e-20)
(0.0527887 0.0329209 -7.16734e-20)
(-0.0444443 -0.0284004 2.12376e-20)
(-0.0666709 -0.0418813 -1.25246e-20)
(-0.0228165 -0.0141912 6.39805e-23)
(0.234854 0.163735 0)
(1.09563 0.750731 0)
(1.29359 0.894648 5.07991e-22)
(1.31431 0.92521 0)
(1.26566 0.909285 -8.36317e-22)
(1.19598 0.878517 6.59298e-21)
(1.12247 0.844192 0)
(1.0452 0.805742 4.74445e-21)
(0.964932 0.760841 8.82229e-20)
(0.884379 0.706897 -1.68027e-19)
(0.8195 0.650652 0)
(0.779708 0.602186 -4.72021e-20)
(0.7388 0.54742 -5.29658e-22)
(0.630298 0.448857 -3.21929e-22)
(0.428652 0.297355 5.57445e-20)
(0.214381 0.144599 5.26219e-23)
(0.0509366 0.032181 -1.54638e-19)
(-0.0426192 -0.0296739 4.57313e-20)
(-0.0644279 -0.0431151 1.35763e-20)
(-0.0223509 -0.0147185 0)
(0.234357 0.171753 -3.53922e-20)
(1.08551 0.783986 -1.67249e-20)
(1.28022 0.93428 -2.12941e-20)
(1.29939 0.965228 1.97287e-20)
(1.25038 0.947952 -4.51095e-21)
(1.18056 0.915562 0)
(1.10658 0.879571 1.30426e-20)
(1.02837 0.839325 -1.07306e-20)
(0.946527 0.79235 8.02429e-22)
(0.86357 0.735655 1.24801e-20)
(0.795933 0.675666 1.06854e-19)
(0.754016 0.622576 -1.66237e-20)
(0.711538 0.561816 -6.26579e-20)
(0.604006 0.456151 -2.57965e-20)
(0.410379 0.299627 3.01338e-20)
(0.205832 0.144649 6.89828e-23)
(0.0494338 0.0317177 4.17221e-20)
(-0.0405517 -0.0300815 -9.85753e-20)
(-0.061951 -0.043639 1.17048e-19)
(-0.0216978 -0.0150297 1.72742e-20)
(0.233911 0.179538 1.34564e-20)
(1.07589 0.815601 -9.41846e-21)
(1.26702 0.971542 1.31904e-21)
(1.28469 1.00277 1.2891e-20)
(1.23535 0.984266 2.34485e-21)
(1.16546 0.95045 -1.10621e-20)
(1.09109 0.913024 3.54485e-21)
(1.01199 0.871245 -4.47959e-20)
(0.928603 0.822529 -9.80389e-20)
(0.843127 0.763503 -1.01059e-19)
(0.772357 0.700098 0)
(0.727751 0.642237 -7.36548e-20)
(0.683375 0.574704 9.08107e-20)
(0.577108 0.46105 0)
(0.392013 0.299359 -6.48627e-20)
(0.198331 0.143099 3.8276e-20)
(0.0494676 0.0313891 -4.50184e-20)
(-0.0379302 -0.0293125 -5.31959e-20)
(-0.0602941 -0.0436685 -9.44559e-20)
(-0.0213882 -0.0153905 -7.46007e-20)
(0.233793 0.187178 -1.52649e-20)
(1.06664 0.845589 1.00918e-20)
(1.25407 1.00651 2.26449e-20)
(1.27031 1.03793 1.90314e-20)
(1.22073 1.01833 -4.06598e-21)
(1.1508 0.983275 -5.2187e-21)
(1.0761 0.94461 1.21318e-20)
(0.996191 0.901557 -4.60578e-20)
(0.911289 0.851419 -5.84608e-20)
(0.823226 0.790496 1.06657e-19)
(0.748945 0.724095 2.37649e-19)
(0.70098 0.661435 0)
(0.654094 0.586257 0)
(0.549137 0.46319 -2.98111e-20)
(0.373705 0.295382 0)
(0.193143 0.138133 8.23193e-20)
(0.0537612 0.0296439 9.69116e-20)
(-0.0319101 -0.0286004 0)
(-0.0589769 -0.0440785 0)
(-0.0223657 -0.0164744 8.04047e-20)
(0.233533 0.194391 1.73837e-20)
(1.05781 0.873968 1.37303e-20)
(1.24147 1.03931 1.64762e-20)
(1.25634 1.07084 -1.84952e-20)
(1.20657 1.05025 -5.76955e-21)
(1.13666 1.01411 4.16849e-21)
(1.06172 0.974393 -1.66497e-20)
(0.981068 0.930297 -2.5587e-22)
(0.894708 0.879039 -1.0615e-21)
(0.804017 0.81666 -6.51929e-22)
(0.725893 0.747776 1.23125e-19)
(0.673801 0.680433 0)
(0.623496 0.596805 9.334e-20)
(0.519317 0.462491 6.43515e-20)
(0.354259 0.286493 1.52547e-19)
(0.189908 0.126541 4.45944e-20)
(0.0656831 0.0191029 -5.22534e-20)
(-0.0122605 -0.0371182 -3.08435e-20)
(-0.0450244 -0.0478628 0)
(-0.0221969 -0.0179363 8.68586e-20)
(0.233642 0.201644 -3.94028e-20)
(1.04936 0.900845 0)
(1.22921 1.06999 1.94885e-20)
(1.24281 1.10161 -1.57393e-20)
(1.19296 1.08012 8.36998e-21)
(1.12309 1.04306 -2.2807e-21)
(1.048 1.00243 3.1612e-20)
(0.966686 0.9575 -3.73731e-21)
(0.878939 0.905403 0)
(0.785632 0.841982 -1.1913e-19)
(0.703396 0.771215 -2.70156e-19)
(0.646368 0.699505 1.11208e-20)
(0.591477 0.606807 1.30607e-19)
(0.486849 0.45945 0)
(0.331465 0.27248 1.038e-19)
(0.184181 0.104071 0)
(0.0809637 -0.0127679 0)
(0.0284266 -0.0776793 -3.33797e-20)
(0.020398 -0.0676399 0)
(0.0172847 -0.00406007 2.33934e-20)
(0.233433 0.208358 -4.40652e-20)
(1.04125 0.926539 0)
(1.21731 1.09877 3.26268e-20)
(1.2297 1.13046 0)
(1.17987 1.10823 -5.26446e-21)
(1.11006 1.07039 0)
(1.03488 1.02903 1.37842e-21)
(0.952958 0.983497 6.46363e-21)
(0.863871 0.930863 7.48493e-21)
(0.76791 0.866825 -1.31561e-19)
(0.681271 0.79486 8.14674e-21)
(0.618363 0.71937 9.03561e-20)
(0.557416 0.61716 1.28319e-19)
(0.450376 0.454853 1.71626e-20)
(0.302281 0.254627 8.21383e-20)
(0.168027 0.0715767 0)
(0.0810305 -0.0679375 1.10482e-19)
(0.047574 -0.105719 -6.48722e-20)
(0.0227594 0.0330146 7.59707e-20)
(-0.0390044 0.462037 -9.02425e-20)
(0.233268 0.214917 3.65386e-20)
(1.03327 0.950877 5.50009e-20)
(1.20568 1.12597 0)
(1.21685 1.15786 9.93946e-22)
(1.16709 1.13515 1.59423e-20)
(1.09727 1.0968 -3.41094e-21)
(1.02205 1.05497 1.05077e-20)
(0.939458 1.00921 0)
(0.848951 0.956489 4.93137e-20)
(0.750144 0.892456 -6.84126e-21)
(0.658545 0.820141 0)
(0.588329 0.741597 0)
(0.518846 0.628891 1.16219e-19)
(0.406696 0.448895 -5.32904e-20)
(0.262982 0.234724 -8.42758e-20)
(0.135552 0.0322533 0)
(0.0501929 -0.0343383 5.64454e-20)
(0.0024433 0.450417 -6.52929e-20)
(0.027742 1.9458 -3.6604e-20)
(0.0537708 2.83392 -4.50203e-20)
(0.232835 0.220975 -2.75359e-20)
(1.02549 0.97404 -7.07704e-20)
(1.19433 1.1516 1.94531e-20)
(1.20428 1.18367 1.56487e-20)
(1.1547 1.16068 0)
(1.08484 1.12201 -4.52385e-21)
(1.00972 1.07996 1.3517e-20)
(0.926399 1.03423 -3.12295e-21)
(0.834489 0.981784 7.45576e-21)
(0.732771 0.918312 1.26423e-19)
(0.635914 0.846509 1.39472e-19)
(0.55733 0.766286 1.03623e-19)
(0.476489 0.642764 1.18389e-19)
(0.356405 0.441424 -1.27307e-19)
(0.21827 0.217644 -1.28927e-19)
(0.0904148 0.0942768 0)
(0.0336992 0.917458 0)
(0.0790653 2.59716 3.14493e-20)
(0.0823352 3.21967 0)
(0.0844745 3.39179 8.18803e-20)
(0.235242 0.226712 0)
(1.01824 0.996437 0)
(1.18298 1.17551 0)
(1.19181 1.20775 4.78226e-21)
(1.14235 1.18458 1.46422e-20)
(1.07258 1.14587 -5.84364e-21)
(0.997837 1.1039 8.41655e-21)
(0.913717 1.0584 -3.04183e-21)
(0.820427 1.00657 6.19171e-20)
(0.715793 0.944227 -1.52585e-21)
(0.613502 0.873779 2.78058e-19)
(0.525776 0.793612 -1.20862e-20)
(0.430299 0.66016 1.45743e-20)
(0.300732 0.431284 1.8642e-20)
(0.161035 0.233764 -8.30825e-22)
(0.0784374 1.03536 3.44497e-22)
(0.11321 2.7806 -1.70156e-19)
(0.117645 3.30307 -6.38637e-20)
(0.110303 3.42277 3.3583e-20)
(0.101501 3.44212 -3.80007e-20)
(0.158195 0.172118 1.68564e-20)
(1.00661 1.0208 0)
(1.17138 1.19794 -4.00133e-20)
(1.17986 1.23056 -4.2914e-20)
(1.1305 1.20732 3.51639e-20)
(1.06118 1.16887 7.12182e-21)
(0.986171 1.1268 -8.31869e-21)
(0.901443 1.0818 3.28163e-20)
(0.80685 1.03093 -5.09517e-20)
(0.699457 0.970322 0)
(0.591663 0.902041 1.38159e-19)
(0.494252 0.82345 -8.57992e-20)
(0.38462 0.690248 0)
(0.237039 0.424601 1.83778e-20)
(0.113962 0.706058 4.29467e-20)
(0.1279 2.59275 -4.80053e-20)
(0.173501 3.32646 5.4253e-20)
(0.158413 3.42995 2.91243e-20)
(0.132459 3.44889 3.28131e-20)
(0.114523 3.45788 5.22686e-20)
(0.269542 0.263804 -3.24827e-20)
(0.987893 1.03006 0)
(1.1521 1.22343 4.32169e-20)
(1.16444 1.2617 4.73741e-20)
(1.11231 1.24086 -3.9762e-20)
(1.0424 1.20273 -1.19006e-20)
(0.96616 1.16218 5.43914e-21)
(0.880726 1.11839 2.62413e-21)
(0.784373 1.06967 4.85597e-20)
(0.673316 1.0131 1.11025e-19)
(0.558204 0.950868 7.78398e-21)
(0.445209 0.872496 7.74448e-20)
(0.298012 0.712516 1.40788e-20)
(0.195014 0.855189 -1.78482e-20)
(0.201399 2.4786 -3.95616e-20)
(0.252381 3.32746 3.87044e-20)
(0.235143 3.45158 -4.23031e-20)
(0.201968 3.47123 -2.42076e-20)
(0.169589 3.49624 -2.18946e-20)
(0.125117 3.49237 -3.15723e-21)
(0.259435 0.262501 0)
(0.984369 1.05256 1.26401e-20)
(1.14278 1.24688 -8.91783e-21)
(1.15282 1.28524 -5.67012e-21)
(1.10067 1.26415 -2.75554e-20)
(1.03073 1.22617 1.25399e-20)
(0.954094 1.1858 -1.93231e-21)
(0.868271 1.14284 2.33123e-21)
(0.771015 1.0956 -5.06287e-20)
(0.657907 1.04199 -2.60623e-21)
(0.538415 0.984615 -2.52553e-19)
(0.416705 0.908095 1.11591e-20)
(0.274618 0.786221 -1.34084e-20)
(0.231246 1.52595 -1.64743e-20)
(0.295674 3.14503 3.65491e-21)
(0.306971 3.45152 8.09151e-23)
(0.266558 3.49854 6.3263e-20)
(0.233457 3.52365 3.19998e-20)
(0.188274 3.54445 -1.03317e-20)
(0.139052 3.54205 -1.58456e-20)
(0.245284 0.260286 3.23875e-20)
(0.979895 1.07756 8.56489e-20)
(1.13308 1.27241 -2.53908e-20)
(1.14081 1.31041 -2.12647e-20)
(1.08855 1.28891 0)
(1.01866 1.25095 2.37849e-20)
(0.941915 1.21083 2.37083e-22)
(0.855962 1.16865 2.01196e-21)
(0.75813 1.12305 -5.70912e-21)
(0.643546 1.07279 -1.01178e-19)
(0.520703 1.021 -1.17069e-19)
(0.391515 0.945168 -9.15245e-20)
(0.275603 0.94119 -1.01372e-19)
(0.298759 2.32804 1.04193e-19)
(0.378067 3.37991 8.75216e-20)
(0.34747 3.50536 0)
(0.300646 3.54441 0)
(0.264522 3.57914 -8.2811e-21)
(0.222127 3.6241 0)
(0.153064 3.61066 -1.2717e-20)
(0.235325 0.261997 -4.82824e-20)
(0.973479 1.10337 -7.25356e-20)
(1.12197 1.29917 0)
(1.12751 1.33641 1.20793e-21)
(1.07516 1.31433 -3.00986e-20)
(1.00548 1.2763 3.92311e-20)
(0.928961 1.23648 1.89201e-21)
(0.843112 1.19506 9.53191e-22)
(0.744972 1.15109 -3.54457e-20)
(0.629389 1.10427 5.00249e-21)
(0.50422 1.05823 0)
(0.368088 0.985456 0)
(0.297355 1.25009 -9.23295e-20)
(0.380586 2.98269 3.74883e-20)
(0.443659 3.47566 4.76774e-20)