/*--------------------------------*- C++ -*----------------------------------*\
  =========                 |
  \\      /  F ield         | OpenFOAM: The Open Source CFD Toolbox
   \\    /   O peration     | Website:  https://openfoam.org
    \\  /    A nd           | Version:  6
     \\/     M anipulation  |
\*---------------------------------------------------------------------------*/
FoamFile
{
    version     2.0;
    format      ascii;
    class       volScalarField;
    location    "115.6";
    object      p;
}
// * * * * * * * * * * * * * * * * * * * * * * * * * * * * * * * * * * * * * //

dimensions      [0 2 -2 0 0 0 0];

internalField   nonuniform List<scalar> 
8800
(
1.19214
1.14282
1.10486
1.0768
1.05664
1.04207
1.03149
1.02397
1.01911
1.01708
1.01849
1.02287
1.02969
1.03913
1.05188
1.06921
1.0931
1.1262
1.16914
1.22166
1.02662
1.03297
1.04212
1.04568
1.04307
1.03699
1.03007
1.02384
1.01907
1.01623
1.01604
1.01871
1.02339
1.02954
1.03666
1.0437
1.04859
1.04848
1.04181
1.03291
1.00012
1.00636
1.01086
1.01474
1.0177
1.01866
1.01759
1.01549
1.01354
1.01275
1.01383
1.01632
1.01924
1.02154
1.02207
1.0203
1.01695
1.01294
1.00817
1.00445
0.995793
0.99856
1.00117
1.00334
1.00509
1.00667
1.00779
1.00817
1.0081
1.00825
1.00911
1.0103
1.01108
1.01096
1.01
1.00867
1.00701
1.00472
1.00231
1.00075
0.990699
0.992125
0.993972
0.996063
0.997789
0.9991
1.00022
1.00124
1.00209
1.00288
1.00366
1.00418
1.00425
1.00392
1.00328
1.00219
1.00055
0.998671
0.997325
0.996522
0.985659
0.986563
0.987818
0.989457
0.991168
0.992723
0.994037
0.995199
0.996317
0.997405
0.998269
0.998729
0.998797
0.998475
0.997708
0.996549
0.995211
0.993962
0.993149
0.992625
0.980688
0.981345
0.982315
0.983648
0.985117
0.986661
0.988183
0.989596
0.990924
0.992215
0.993262
0.993843
0.993933
0.993554
0.99282
0.991915
0.990954
0.99007
0.989499
0.989114
0.975782
0.976288
0.977083
0.978243
0.979569
0.98102
0.982574
0.984175
0.985766
0.987328
0.988601
0.989318
0.989488
0.98924
0.988736
0.988095
0.987397
0.98676
0.986344
0.986043
0.970882
0.971284
0.971955
0.972999
0.974261
0.975668
0.977227
0.97894
0.980769
0.982642
0.984204
0.985145
0.985535
0.98554
0.985295
0.98489
0.98441
0.983974
0.98367
0.983425
0.965905
0.966232
0.966818
0.967788
0.969012
0.970419
0.972029
0.973863
0.975916
0.978125
0.980062
0.981349
0.982062
0.982361
0.982379
0.982224
0.981956
0.981688
0.98147
0.981263
0.960758
0.961029
0.961557
0.962486
0.963705
0.965153
0.966858
0.96886
0.971179
0.973782
0.976187
0.977919
0.979021
0.979656
0.979965
0.980064
0.980013
0.979899
0.97975
0.97957
0.955346
0.955573
0.956064
0.956985
0.958238
0.959771
0.961617
0.963847
0.966509
0.969599
0.972574
0.974837
0.976395
0.97742
0.978058
0.97842
0.9786
0.978632
0.97854
0.978378
0.949568
0.949761
0.950236
0.951177
0.952507
0.954171
0.956216
0.958746
0.961842
0.965534
0.9692
0.972096
0.974191
0.975663
0.976678
0.977354
0.977767
0.977934
0.97789
0.97774
0.943313
0.943478
0.943953
0.944943
0.946391
0.94824
0.950554
0.953469
0.957107
0.961537
0.966039
0.969694
0.972425
0.974422
0.975871
0.976897
0.977565
0.977868
0.977867
0.977723
0.936448
0.936591
0.937081
0.938149
0.939761
0.941856
0.944519
0.947922
0.95223
0.957559
0.963069
0.967631
0.971119
0.973734
0.97568
0.97711
0.978068
0.978513
0.97855
0.978408
0.928821
0.928942
0.929459
0.930636
0.932462
0.934875
0.93798
0.941992
0.947127
0.953549
0.96027
0.965913
0.970294
0.973642
0.976185
0.978083
0.979365
0.979958
0.98003
0.979884
0.920226
0.920329
0.920882
0.922203
0.924308
0.927122
0.930781
0.93555
0.9417
0.949448
0.957622
0.96455
0.969985
0.974193
0.977453
0.979902
0.981548
0.982296
0.982397
0.982244
0.910376
0.910476
0.911099
0.9126
0.915064
0.918383
0.922736
0.928444
0.935843
0.945199
0.955108
0.963553
0.970232
0.975454
0.979553
0.982647
0.984705
0.985612
0.985737
0.985574
0.898978
0.899056
0.89977
0.901523
0.90443
0.90839
0.913615
0.920497
0.929433
0.940739
0.952712
0.962938
0.97107
0.977484
0.98255
0.9864
0.988909
0.989973
0.990115
0.989937
0.885583
0.88565
0.886474
0.888544
0.89202
0.896803
0.90314
0.911499
0.92234
0.936006
0.950426
0.962725
0.97253
0.980321
0.986514
0.991215
0.994202
0.99541
0.995556
0.995359
0.869581
0.869639
0.870618
0.873114
0.877338
0.883195
0.890974
0.901218
0.914433
0.930959
0.948252
0.962935
0.974644
0.984002
0.991462
0.997103
1.00057
1.00189
1.00202
1.00181
0.850114
0.850167
0.851373
0.85447
0.859717
0.867024
0.876717
0.88941
0.905607
0.925586
0.946219
0.963594
0.977433
0.988535
0.997379
1.00403
1.00793
1.0093
1.0094
1.00916
0.825916
0.825976
0.827541
0.831541
0.838264
0.847607
0.859931
0.87586
0.895816
0.91993
0.944382
0.964741
0.980904
0.993899
1.00423
1.01186
1.01608
1.01742
1.01746
1.01721
0.795009
0.7951
0.79729
0.802766
0.811807
0.824164
0.840217
0.860462
0.885123
0.914115
0.942842
0.96643
0.985065
1.00003
1.0119
1.02038
1.02471
1.0259
1.02587
1.02561
0.754037
0.754271
0.757757
0.765965
0.778944
0.796008
0.8174
0.843334
0.873755
0.908355
0.941754
0.968743
0.989918
1.0069
1.02022
1.02927
1.03342
1.03434
1.03422
1.03397
0.696589
0.697797
0.704798
0.718736
0.738619
0.762992
0.791805
0.824935
0.862123
0.902941
0.941293
0.97177
0.995467
1.01436
1.02893
1.03811
1.04171
1.0423
1.04212
1.04189
0.613367
0.621562
0.63775
0.662223
0.692455
0.726623
0.764464
0.805814
0.850446
0.897966
0.941605
0.975826
1.00225
1.02315
1.03858
1.04738
1.05023
1.0505
1.05029
1.0501
0.52437
0.542457
0.568783
0.604589
0.645749
0.689815
0.736641
0.786247
0.838522
0.89318
0.942744
0.981347
1.01105
1.03409
1.05002
1.05766
1.05946
1.05947
1.0593
1.05919
0.447808
0.469955
0.504744
0.550238
0.601059
0.654457
0.710021
0.767712
0.827395
0.888805
0.943811
0.986316
1.01883
1.04353
1.05924
1.06545
1.06652
1.06645
1.06633
1.06625
0.384628
0.409264
0.449874
0.502314
0.560671
0.621825
0.685058
0.75011
0.816656
0.884328
0.944332
0.990351
1.02529
1.05114
1.06639
1.0716
1.07232
1.07223
1.07213
1.07207
0.3319
0.358076
0.40291
0.460728
0.525077
0.592559
0.662257
0.733731
0.806428
0.879811
0.944401
0.993665
1.03078
1.05757
1.07232
1.07674
1.07724
1.07715
1.07706
1.07701
0.287052
0.314144
0.362105
0.424263
0.493613
0.566451
0.641689
0.718768
0.796946
0.8755
0.944278
0.996501
1.03561
1.06315
1.07733
1.08115
1.08151
1.08141
1.08133
1.08129
0.247999
0.275689
0.326083
0.391831
0.465439
0.542928
0.623054
0.705143
0.78828
0.871546
0.944137
0.999028
1.03989
1.06799
1.08162
1.08499
1.08525
1.08513
1.08506
1.08501
0.213231
0.24137
0.293755
0.362555
0.439854
0.521428
0.605944
0.692606
0.780319
0.867952
0.944027
1.00131
1.04368
1.07218
1.08529
1.08831
1.08849
1.08835
1.08828
1.08823
0.181691
0.210214
0.264274
0.335742
0.416294
0.501505
0.589994
0.680874
0.772891
0.864641
0.943953
1.00335
1.04701
1.07576
1.08837
1.09111
1.09122
1.09106
1.09098
1.09092
0.152526
0.181433
0.236989
0.310864
0.394312
0.482793
0.574907
0.669714
0.765821
0.861543
0.943925
1.00522
1.04991
1.07873
1.09085
1.09336
1.09342
1.09324
1.09314
1.09308
0.125302
0.15454
0.211455
0.287491
0.373555
0.465005
0.560452
0.658937
0.758973
0.858613
0.944003
1.00701
1.05245
1.08111
1.0927
1.09503
1.09506
1.09488
1.09478
1.0947
0.0994863
0.12913
0.187292
0.265309
0.353748
0.447907
0.546443
0.648392
0.75223
0.855805
0.94427
1.00888
1.05478
1.08301
1.094
1.09616
1.0962
1.09606
1.09596
1.09588
0.0748957
0.104938
0.164266
0.24409
0.334686
0.431331
0.532733
0.637955
0.745487
0.853077
0.944817
1.01102
1.05709
1.08456
1.09485
1.09688
1.09697
1.09689
1.09682
1.09673
0.0513285
0.0817756
0.14219
0.223676
0.316238
0.415154
0.519209
0.627515
0.73864
0.850344
0.945695
1.01369
1.05969
1.086
1.09545
1.09736
1.09755
1.09754
1.09749
1.09741
0.0286336
0.0595336
0.120957
0.203968
0.298297
0.399288
0.505793
0.616997
0.731593
0.847498
0.946902
1.01714
1.06299
1.08764
1.0959
1.0977
1.09808
1.09814
1.09809
1.09798
0.00668705
0.0380752
0.100508
0.1849
0.280818
0.38368
0.492433
0.606337
0.724262
0.844407
0.948355
1.02157
1.06751
1.08998
1.09636
1.09774
1.09842
1.09873
1.09871
1.09854
-0.0144284
0.0174175
0.0808047
0.166421
0.263763
0.368313
0.479097
0.595502
0.716586
0.840958
0.949892
1.02705
1.07382
1.09386
1.09731
1.0974
1.09821
1.09935
1.09987
1.09965
-0.0347419
-0.00247155
0.0618054
0.148513
0.247124
0.353179
0.465793
0.584466
0.708517
0.837025
0.951307
1.03349
1.0824
1.10048
1.10029
1.09766
1.09789
1.1004
1.10265
1.10294
-0.0543526
-0.0215959
0.0434828
0.131163
0.230912
0.338298
0.452536
0.573238
0.700025
0.832506
0.952343
1.04062
1.09341
1.11101
1.10758
1.10156
1.10029
1.10425
1.10937
1.11151
-0.0731545
-0.039966
0.0258538
0.114395
0.215139
0.323705
0.439364
0.561851
0.691112
0.827332
0.952739
1.04801
1.10659
1.12587
1.1208
1.11191
1.10814
1.11086
1.11673
1.11973
-0.091257
-0.0576266
0.00888739
0.0981512
0.199743
0.309333
0.426195
0.550213
0.681663
0.82136
0.952229
1.05524
1.1215
1.14475
1.14008
1.12951
1.12191
1.11625
1.11016
1.11537
-0.10862
-0.0746492
-0.00757146
0.0822266
0.184424
0.294858
0.412632
0.53787
0.671187
0.814047
0.95029
1.06176
1.13813
1.16788
1.16511
1.15394
1.14039
1.1253
1.10241
1.10849
-0.125143
-0.0910451
-0.0233838
0.0667944
0.169417
0.280552
0.39883
0.525078
0.659865
0.805425
0.946524
1.06615
1.15452
1.19315
1.19166
1.17782
1.15872
1.12591
1.07237
1.05145
-0.140744
-0.10788
-0.0381357
0.0522852
0.155529
0.266902
0.385061
0.512095
0.647944
0.795585
0.940727
1.06728
1.16809
1.21751
1.21225
1.19186
1.1586
1.09891
1.03807
1.00178
-0.182649
-0.12454
-0.0515488
0.0377097
0.141971
0.252879
0.37147
0.49877
0.635155
0.784041
0.932142
1.06372
1.17514
1.23359
1.22587
1.18077
1.11088
1.03436
0.963111
0.923794
-0.154952
-0.135665
-0.0719289
0.0179731
0.120895
0.231775
0.349989
0.47723
0.613754
0.763215
0.913203
1.04809
1.15713
1.22323
1.17907
1.04051
0.933398
0.859268
0.789486
0.807254
-0.18461
-0.152084
-0.0874398
0.00208474
0.104702
0.215556
0.334202
0.461153
0.597271
0.746087
0.895158
1.0281
1.12605
1.16307
1.07996
0.914639
0.789164
0.704681
0.616687
0.651958
-0.207096
-0.172281
-0.105906
-0.0162989
0.0863163
0.197284
0.316022
0.442484
0.577727
0.724945
0.87117
0.998709
1.08432
1.08338
0.945837
0.770356
0.627019
0.523425
0.422822
0.444074
-0.228707
-0.192944
-0.125269
-0.0350235
0.0677073
0.178653
0.29702
0.422752
0.556762
0.701672
0.843395
0.961221
1.02782
0.99261
0.806588
0.613876
0.44328
0.301852
0.172216
0.173023
-0.249847
-0.213808
-0.145311
-0.0545115
0.0483672
0.159148
0.276946
0.401717
0.534061
0.67596
0.811603
0.918419
0.962697
0.873003
0.668244
0.458821
0.265194
0.106778
-0.09849
-0.17989
-0.27121
-0.235357
-0.166437
-0.0752848
0.027729
0.138342
0.255578
0.379261
0.509655
0.647962
0.776423
0.873015
0.886952
0.746773
0.540508
0.322187
0.12517
-0.0373312
-0.158743
-0.268518
-0.293846
-0.258061
-0.188998
-0.0977278
0.00525468
0.115559
0.232083
0.354414
0.482363
0.616204
0.736703
0.818413
0.802724
0.626249
0.420111
0.208552
0.0285252
-0.0695795
-0.0950193
-0.107768
-0.317917
-0.282216
-0.213118
-0.121924
-0.0191998
0.0905722
0.206071
0.326634
0.451524
0.579865
0.691
0.753067
0.713946
0.51011
0.30672
0.115946
-0.0203303
-0.0585802
-0.0665824
-0.066973
-0.343719
-0.307958
-0.238839
-0.14786
-0.0455869
0.06336
0.177493
0.295833
0.417018
0.538917
0.639878
0.683599
0.605393
0.402962
0.206802
0.0409939
-0.0350689
-0.0490431
-0.0499259
-0.0497849
-0.371255
-0.335322
-0.266193
-0.175546
-0.0739379
0.0339119
0.146316
0.261962
0.378829
0.49343
0.583448
0.608185
0.491709
0.30523
0.120534
-0.0106668
-0.0393622
-0.0399937
-0.040509
-0.0400959
-0.400281
-0.364158
-0.295093
-0.204917
-0.104186
0.00225735
0.112535
0.225013
0.337006
0.443542
0.522476
0.525589
0.391507
0.216421
0.0534204
-0.0222606
-0.0367681
-0.0347784
-0.034495
-0.0341003
-0.43025
-0.394121
-0.325287
-0.235756
-0.136162
-0.0314658
0.07628
0.185091
0.291786
0.389856
0.457004
0.443
0.300193
0.138788
0.00864399
-0.0306298
-0.0298199
-0.0302783
-0.0300575
-0.0297618
-0.460719
-0.42469
-0.356298
-0.267659
-0.169527
-0.0669481
0.0378248
0.142469
0.243475
0.333394
0.386333
0.365608
0.219215
0.0782747
-0.0168404
-0.025264
-0.026812
-0.0271197
-0.0270632
-0.0269024
-0.490694
-0.455006
-0.387415
-0.300009
-0.203741
-0.103717
-0.00236524
0.0976536
0.192518
0.275028
0.316392
0.287361
0.150848
0.0363409
-0.0209189
-0.0313101
-0.0260867
-0.0250473
-0.0246977
-0.0245361
-0.518632
-0.483818
-0.417616
-0.331931
-0.238032
-0.141069
-0.0436119
0.0514048
0.139752
0.215234
0.251642
0.208059
0.0955989
0.00451747
-0.0188539
-0.0224916
-0.0234117
-0.0230363
-0.022853
-0.022723
-0.543203
-0.50964
-0.445527
-0.362236
-0.271347
-0.178058
-0.0850243
0.00467463
0.0864748
0.154621
0.18842
0.140339
0.0536611
-0.0142859
-0.034826
-0.0260832
-0.0230925
-0.0220817
-0.0217569
-0.0216074
-0.561862
-0.530398
-0.469415
-0.38943
-0.302385
-0.213502
-0.125479
-0.0414416
0.0340159
0.0950962
0.125747
0.0872303
0.0253934
-0.0196944
-0.0245523
-0.023749
-0.022051
-0.0214333
-0.0212163
-0.0210646
-0.572655
-0.544064
-0.487253
-0.411798
-0.329634
-0.246018
-0.163647
-0.0856641
-0.0164841
0.0393136
0.0686902
0.0427884
0.00799992
-0.0189295
-0.0181762
-0.0207144
-0.0216375
-0.0216046
-0.0215556
-0.021455
-0.572944
-0.548317
-0.497004
-0.427531
-0.351486
-0.274151
-0.198102
-0.126485
-0.0637533
-0.0121143
0.021067
0.00316211
-0.00594408
-0.0211596
-0.0230315
-0.022815
-0.0231225
-0.0232573
-0.0232953
-0.0232418
-0.560316
-0.540457
-0.496547
-0.434928
-0.366504
-0.296542
-0.227519
-0.162386
-0.105978
-0.060355
-0.014827
-0.0329754
-0.0200772
-0.028815
-0.0299226
-0.0275455
-0.026824
-0.0269614
-0.0271215
-0.027105
-0.532949
-0.518519
-0.484169
-0.432829
-0.373674
-0.31222
-0.250879
-0.192286
-0.141391
-0.103378
-0.0554506
-0.0491678
-0.0389087
-0.042379
-0.0375362
-0.0353963
-0.0338274
-0.0339565
-0.0343893
-0.0344528
-0.494353
-0.485191
-0.461237
-0.421613
-0.373086
-0.320961
-0.267627
-0.215592
-0.169497
-0.136873
-0.105247
-0.07717
-0.0482069
-0.0488989
-0.0549382
-0.0501324
-0.0486674
-0.0490704
-0.0496807
-0.0497115
-0.451564
-0.446337
-0.432647
-0.404412
-0.366865
-0.323655
-0.277889
-0.231957
-0.189718
-0.158408
-0.13045
-0.1043
-0.0722988
-0.0485029
-0.0300256
-0.0400374
-0.0630569
-0.0754666
-0.079043
-0.079537
-0.414178
-0.410965
-0.404408
-0.38647
-0.357842
-0.3221
-0.282698
-0.241373
-0.201139
-0.168357
-0.142839
-0.12771
-0.123997
-0.143022
-0.172253
-0.206057
-0.209649
-0.172224
-0.150363
-0.151839
-0.38722
-0.385313
-0.382026
-0.371445
-0.34959
-0.319381
-0.283958
-0.244831
-0.204391
-0.167673
-0.140416
-0.134184
-0.172729
-0.242261
-0.314109
-0.352742
-0.358271
-0.323872
-0.278029
-0.261103
-0.367455
-0.366787
-0.365698
-0.36049
-0.344539
-0.317941
-0.283655
-0.244164
-0.20072
-0.157085
-0.126432
-0.100894
-0.0902917
-0.111036
-0.16078
-0.173446
-0.160011
-0.134196
-0.103108
-0.0869096
-0.355814
-0.355595
-0.355002
-0.352673
-0.341903
-0.317474
-0.282807
-0.241083
-0.192872
-0.139531
-0.0938756
-0.0315054
0.0471928
0.119443
0.158418
0.186633
0.222971
0.25957
0.290252
0.305434
-0.347686
-0.347542
-0.347146
-0.346531
-0.34002
-0.31811
-0.282362
-0.237088
-0.182981
-0.117632
-0.0498255
0.037569
0.179609
0.356983
0.524628
0.658187
0.74983
0.807761
0.840512
0.854094
-0.342281
-0.342241
-0.342131
-0.341994
-0.338224
-0.31985
-0.283138
-0.233525
-0.173404
-0.0974464
-0.0116401
0.0856491
0.271127
0.531239
0.803092
1.04128
1.20966
1.30123
1.34076
1.35343
-0.337807
-0.337801
-0.337732
-0.337648
-0.336322
-0.321984
-0.28525
-0.231884
-0.166456
-0.0831314
0.0138033
0.116701
0.313104
0.603934
0.921606
1.21109
1.43051
1.55084
1.59643
1.60921
-0.333955
-0.333943
-0.333818
-0.333567
-0.333446
-0.323527
-0.288548
-0.233503
-0.163847
-0.0769694
0.024531
0.129107
0.307676
0.585624
0.891327
1.17438
1.39668
1.52284
1.57183
1.58401
-0.331008
-0.331
-0.330934
-0.330874
-0.331263
-0.324396
-0.293054
-0.237695
-0.166227
-0.0789674
0.019983
0.117701
0.264995
0.510349
0.77126
1.00546
1.19474
1.3068
1.35083
1.36148
-0.328064
-0.328126
-0.328302
-0.328635
-0.328872
-0.325273
-0.297905
-0.243966
-0.173415
-0.0888822
0.00282164
0.0890556
0.201842
0.402243
0.615388
0.794669
0.937046
1.02289
1.05686
1.06477
-0.324993
-0.325097
-0.325256
-0.325443
-0.325658
-0.324445
-0.301936
-0.251225
-0.184084
-0.105021
-0.0222886
0.0519298
0.134926
0.288746
0.454308
0.587257
0.689526
0.750673
0.773907
0.778736
-0.322017
-0.322158
-0.322369
-0.322659
-0.323169
-0.322761
-0.304706
-0.258622
-0.196847
-0.124871
-0.0514782
0.0115128
0.0712723
0.184727
0.309274
0.405943
0.477881
0.520079
0.535739
0.538161
-0.319005
-0.319163
-0.319374
-0.319677
-0.320259
-0.320549
-0.30592
-0.265255
-0.21039
-0.145687
-0.081283
-0.0285853
0.0157245
0.0988696
0.190579
0.259329
0.308784
0.33731
0.347316
0.348874
-0.316477
-0.316547
-0.316416
-0.315895
-0.315252
-0.315425
-0.304643
-0.271161
-0.22354
-0.165552
-0.110009
-0.0662714
-0.0330078
0.0292677
0.0974213
0.14644
0.180922
0.200192
0.206779
0.207624
-0.316045
-0.315936
-0.315266
-0.313301
-0.309968
-0.308171
-0.302884
-0.277465
-0.235488
-0.183348
-0.136299
-0.100336
-0.0739341
-0.027319
0.0240327
0.060348
0.0856544
0.0998353
0.104366
0.104707
-0.318702
-0.318588
-0.318145
-0.316928
-0.314777
-0.312942
-0.308516
-0.286282
-0.245986
-0.198812
-0.160135
-0.128998
-0.107458
-0.0705695
-0.0306605
-0.00310222
0.016403
0.0271066
0.0305253
0.030407
-0.32238
-0.32268
-0.32393
-0.327635
-0.33316
-0.334466
-0.327189
-0.298565
-0.254891
-0.213798
-0.18061
-0.151708
-0.134394
-0.105442
-0.0729627
-0.0502568
-0.0342161
-0.0255752
-0.0229494
-0.0232972
-0.322261
-0.323102
-0.326391
-0.336555
-0.352621
-0.35821
-0.344082
-0.306018
-0.26274
-0.228021
-0.195209
-0.168649
-0.154403
-0.13009
-0.10314
-0.0842553
-0.0708591
-0.0637333
-0.0616901
-0.0621494
-0.317948
-0.318693
-0.321272
-0.328041
-0.340151
-0.348227
-0.332121
-0.299642
-0.267897
-0.236934
-0.203826
-0.179767
-0.168685
-0.146516
-0.122761
-0.106696
-0.0956081
-0.0900497
-0.0884168
-0.0888906
-0.316448
-0.316744
-0.316175
-0.305898
-0.283038
-0.270857
-0.27911
-0.279157
-0.266315
-0.238256
-0.205772
-0.186126
-0.174918
-0.154526
-0.133591
-0.119614
-0.110132
-0.105531
-0.104022
-0.104436
-0.322377
-0.321564
-0.31704
-0.294108
-0.250135
-0.223582
-0.243664
-0.2686
-0.265335
-0.235294
-0.205013
-0.186822
-0.17458
-0.154298
-0.135382
-0.122507
-0.11377
-0.109143
-0.107692
-0.10811
-0.344393
-0.341878
-0.340909
-0.334061
-0.320848
-0.300284
-0.302591
-0.305798
-0.279261
-0.234687
-0.202062
-0.18281
-0.168687
-0.148779
-0.130297
-0.117088
-0.107596
-0.10253
-0.100987
-0.101486
-0.408451
-0.41196
-0.433112
-0.460963
-0.469685
-0.451662
-0.419388
-0.365633
-0.296264
-0.233053
-0.196718
-0.175229
-0.157978
-0.138638
-0.120599
-0.106025
-0.0951134
-0.0889967
-0.0873189
-0.0879436
-0.48808
-0.498985
-0.528293
-0.556446
-0.565477
-0.545896
-0.495923
-0.402513
-0.299069
-0.223261
-0.185532
-0.160394
-0.143749
-0.125369
-0.106211
-0.0903867
-0.0787273
-0.0725272
-0.0710413
-0.0718152
-0.509445
-0.52046
-0.541565
-0.561249
-0.56797
-0.548999
-0.490783
-0.378615
-0.272303
-0.201097
-0.161195
-0.136941
-0.125311
-0.10851
-0.0888046
-0.0729741
-0.0621515
-0.0568142
-0.0557305
-0.056526
-0.431945
-0.443145
-0.461388
-0.478069
-0.48546
-0.469216
-0.40878
-0.299734
-0.213451
-0.156886
-0.120233
-0.106338
-0.10096
-0.0846358
-0.0662866
-0.0531245
-0.0445038
-0.0407825
-0.0403887
-0.0411429
-0.267635
-0.278754
-0.297757
-0.317409
-0.326059
-0.310935
-0.257023
-0.183703
-0.131384
-0.0914046
-0.0697219
-0.066633
-0.0661266
-0.0515821
-0.0386849
-0.0303602
-0.0243833
-0.0222321
-0.0226292
-0.0234679
-0.000332627
-0.00781058
-0.0357174
-0.0682556
-0.078675
-0.0764385
-0.0637638
-0.0462237
-0.0350156
-0.0234685
-0.0171532
-0.015174
-0.0144048
-0.0129011
-0.00882106
-0.0096044
-0.00951268
-0.00931791
-0.00762938
-0.00670419
0.293455
0.473128
0.636341
0.773167
0.880057
0.961884
1.02873
1.08318
1.09629
1.09407
0.563131
0.677086
0.783416
0.874289
0.949609
1.01096
1.05907
1.09168
1.10938
1.1267
0.74547
0.820894
0.895394
0.960287
1.01516
1.06054
1.09646
1.12424
1.14523
1.16462
0.881243
0.935074
0.989073
1.03744
1.07913
1.11472
1.14479
1.17018
1.18976
1.20867
0.992054
1.03284
1.07309
1.11091
1.14482
1.17494
1.2014
1.22396
1.24156
1.25965
1.08504
1.11917
1.15268
1.18488
1.21468
1.24177
1.26581
1.28611
1.30156
1.31904
1.17075
1.20175
1.23296
1.26322
1.29143
1.31714
1.33974
1.35831
1.37198
1.38897
1.25604
1.28805
1.31984
1.35049
1.3788
1.40417
1.42596
1.44323
1.45542
1.47191
1.34944
1.38563
1.42005
1.45216
1.48102
1.50608
1.52696
1.54306
1.55453
1.57064
1.46204
1.50273
1.53947
1.57206
1.60029
1.62407
1.64353
1.65869
1.67048
1.68652
1.60338
1.64414
1.67923
1.7086
1.73364
1.75513
1.77353
1.78894
1.802
1.81791
1.77453
1.8064
1.83332
1.85564
1.87567
1.89432
1.91201
1.92874
1.94361
1.95932
1.9605
1.97766
1.99472
2.01137
2.02745
2.04216
2.05603
2.07049
2.0857
2.103
2.14386
2.15374
2.16688
2.17785
2.18726
2.1969
2.20748
2.21763
2.22691
2.25258
2.3616
2.35589
2.34294
2.32869
2.32238
2.32806
2.34619
2.37471
2.40847
2.4448
2.66444
2.52849
2.44896
2.40638
2.38904
2.39304
2.42045
2.47831
2.58596
2.76437
1.09583
1.08953
1.0818
1.07069
1.05713
1.0445
1.03412
1.02614
1.02046
1.01719
1.01691
1.01982
1.02511
1.03251
1.04209
1.05394
1.06752
1.08046
1.08945
1.097
1.00488
1.0108
1.01888
1.02502
1.0281
1.0276
1.02454
1.02057
1.01703
1.01481
1.01475
1.01708
1.0209
1.02539
1.02953
1.0318
1.03074
1.02612
1.01907
1.01124
0.998095
1.00047
1.00374
1.00652
1.00899
1.0112
1.0124
1.01229
1.0114
1.01066
1.01097
1.01247
1.01433
1.01561
1.01557
1.01414
1.012
1.00966
1.00668
1.00367
0.993258
0.994347
0.996271
0.998621
1.00051
1.00193
1.00318
1.00421
1.00487
1.00533
1.00599
1.00683
1.00738
1.00733
1.00675
1.00586
1.00456
1.00261
1.00052
0.999045
0.988172
0.988806
0.989942
0.991714
0.993578
0.995199
0.996486
0.997599
0.99865
0.999644
1.00055
1.0012
1.00143
1.0013
1.00082
0.999896
0.998503
0.996919
0.995598
0.994801
0.983168
0.983606
0.984402
0.985724
0.987271
0.988867
0.990389
0.991744
0.992981
0.994182
0.99528
0.996029
0.996328
0.996186
0.995595
0.994653
0.993543
0.992431
0.991548
0.991018
0.978233
0.97856
0.97918
0.980271
0.981597
0.983036
0.984567
0.986113
0.987602
0.98904
0.990361
0.991284
0.991657
0.991528
0.991022
0.99031
0.989519
0.988705
0.988067
0.987679
0.973341
0.973593
0.974095
0.975031
0.97624
0.977596
0.979082
0.980695
0.98239
0.984113
0.98572
0.986854
0.987375
0.98742
0.987152
0.986696
0.986132
0.985555
0.985101
0.984806
0.968414
0.968614
0.969034
0.969864
0.971002
0.972321
0.973805
0.97548
0.97734
0.979342
0.981286
0.98273
0.98353
0.983854
0.983855
0.983648
0.983309
0.982937
0.982627
0.982396
0.963364
0.963524
0.963886
0.964647
0.965747
0.967059
0.968589
0.970369
0.972417
0.974716
0.977061
0.978926
0.980104
0.980763
0.981057
0.98111
0.981008
0.980827
0.980637
0.980453
0.958096
0.958225
0.958546
0.959267
0.96036
0.96171
0.963327
0.96526
0.967554
0.97022
0.973054
0.975437
0.977069
0.978119
0.978747
0.979085
0.979222
0.979229
0.979145
0.978996
0.952514
0.952617
0.952912
0.953618
0.95474
0.956173
0.957923
0.960069
0.962683
0.96581
0.969244
0.972248
0.974416
0.97592
0.97693
0.977582
0.977988
0.978183
0.97819
0.978068
0.946513
0.946593
0.946873
0.94759
0.948777
0.950336
0.952276
0.954704
0.957728
0.961427
0.965594
0.969344
0.972151
0.974186
0.975636
0.976666
0.977356
0.977739
0.97783
0.977728
0.93997
0.94003
0.940305
0.941056
0.942344
0.944077
0.946274
0.949069
0.952607
0.95701
0.962065
0.966715
0.970282
0.972947
0.974906
0.976357
0.977375
0.977964
0.978138
0.978051
0.932747
0.932783
0.933061
0.93387
0.935297
0.937261
0.939791
0.94305
0.947227
0.952494
0.958624
0.964351
0.968823
0.972231
0.974798
0.976734
0.978131
0.978944
0.979197
0.979122
0.924663
0.924681
0.924965
0.925852
0.927464
0.929724
0.932675
0.936516
0.941484
0.947805
0.955234
0.962248
0.967791
0.972077
0.975363
0.977886
0.979713
0.980769
0.981102
0.981033
0.915469
0.915475
0.915784
0.916776
0.918628
0.921263
0.924744
0.92931
0.935255
0.942864
0.951857
0.960402
0.967213
0.972531
0.976665
0.979887
0.98221
0.983531
0.98394
0.983874
0.904892
0.904872
0.905222
0.906365
0.908516
0.911626
0.915773
0.921244
0.9284
0.937583
0.948455
0.958812
0.967113
0.973647
0.978783
0.982807
0.985704
0.98731
0.987791
0.987721
0.892546
0.892506
0.892906
0.89424
0.896773
0.90049
0.905484
0.912097
0.920758
0.931867
0.944994
0.957484
0.967518
0.975465
0.981772
0.986722
0.990263
0.99216
0.992702
0.992622
0.87791
0.877847
0.87833
0.879918
0.882942
0.887447
0.893531
0.901601
0.912154
0.925626
0.941447
0.956429
0.968455
0.978016
0.985676
0.991675
0.995913
0.998092
0.998673
0.998575
0.860256
0.860171
0.860783
0.862729
0.866413
0.871965
0.879488
0.889451
0.902406
0.918789
0.937814
0.955666
0.969951
0.981334
0.990486
0.997658
1.00263
1.00504
1.00563
1.00551
0.83854
0.838437
0.839262
0.841731
0.846344
0.853348
0.862834
0.875321
0.891366
0.911331
0.934127
0.955236
0.972028
0.985415
0.996201
1.00463
1.01029
1.01285
1.0134
1.01324
0.811173
0.811071
0.812255
0.815539
0.821574
0.830701
0.842982
0.858915
0.878958
0.903308
0.930471
0.9552
0.974713
0.990251
1.00277
1.01247
1.01868
1.02125
1.0217
1.02151
0.775578
0.775536
0.777372
0.782072
0.7905
0.802993
0.819409
0.840092
0.865267
0.894884
0.927001
0.955656
0.978037
0.995817
1.01011
1.02097
1.02746
1.02985
1.03016
1.02993
0.727177
0.727379
0.730668
0.738369
0.751278
0.769336
0.791926
0.819044
0.850611
0.886355
0.923931
0.956734
0.982055
1.00206
1.01808
1.02984
1.03621
1.03819
1.03832
1.03808
0.65738
0.65892
0.666971
0.681628
0.702855
0.729814
0.761134
0.796452
0.83556
0.878122
0.921489
0.958542
0.986795
1.00891
1.02638
1.03858
1.04433
1.04573
1.04571
1.04549
0.573915
0.57687
0.592604
0.618041
0.650714
0.688136
0.728865
0.772775
0.819784
0.869655
0.919492
0.961566
0.993472
1.01825
1.03714
1.04909
1.05393
1.05484
1.05477
1.05464
0.488141
0.495835
0.519543
0.555738
0.599432
0.647118
0.697248
0.749768
0.804677
0.861797
0.918023
0.965025
1.00046
1.02783
1.04797
1.05911
1.06252
1.06289
1.06279
1.06272
0.417603
0.427565
0.456299
0.500107
0.552415
0.608751
0.667322
0.727881
0.790273
0.854233
0.916388
0.967846
1.00638
1.03582
1.05643
1.06656
1.06912
1.06931
1.06923
1.06919
0.359539
0.370283
0.402861
0.452291
0.51109
0.574298
0.639904
0.707462
0.776579
0.846803
0.914403
0.969959
1.0113
1.04246
1.06331
1.07258
1.07458
1.07467
1.07461
1.07458
0.310663
0.321804
0.357046
0.410844
0.474902
0.543771
0.615263
0.68882
0.763856
0.839716
0.912289
0.971598
1.01552
1.04821
1.06915
1.07764
1.07924
1.07928
1.07922
1.0792
0.268571
0.279891
0.317114
0.374403
0.44283
0.516525
0.593115
0.671923
0.752226
0.833169
0.910269
0.972992
1.01926
1.05327
1.07416
1.08196
1.08329
1.08329
1.08324
1.08322
0.231543
0.242929
0.281697
0.341868
0.414003
0.491875
0.572967
0.656494
0.741589
0.827194
0.908442
0.974252
1.02259
1.05771
1.07847
1.0857
1.08682
1.08679
1.08673
1.08671
0.198324
0.209731
0.249714
0.312364
0.387718
0.46926
0.554368
0.642195
0.731724
0.821693
0.906796
0.975402
1.02557
1.06158
1.08214
1.08889
1.08986
1.08978
1.08971
1.08968
0.167882
0.179323
0.220377
0.285218
0.363426
0.44823
0.536955
0.628726
0.722411
0.816535
0.905297
0.976467
1.0282
1.0649
1.08518
1.09152
1.09236
1.09225
1.09215
1.09212
0.139628
0.151108
0.193111
0.25992
0.340683
0.428421
0.520439
0.615855
0.713462
0.811604
0.903937
0.977515
1.03057
1.06772
1.0876
1.09356
1.09431
1.09417
1.09406
1.09402
0.113062
0.124593
0.167473
0.236075
0.319147
0.409549
0.504587
0.603393
0.704733
0.806811
0.902734
0.97865
1.03279
1.07009
1.08942
1.09501
1.09569
1.09557
1.09547
1.09542
0.0877826
0.0994479
0.143143
0.213398
0.298571
0.391392
0.489215
0.591192
0.696093
0.802077
0.90171
0.980017
1.03505
1.07216
1.09075
1.09595
1.09661
1.09653
1.09647
1.09642
0.0636323
0.0754483
0.119915
0.191683
0.278771
0.373804
0.474187
0.579128
0.687434
0.797298
0.900856
0.981784
1.03761
1.07416
1.09175
1.09655
1.09722
1.09722
1.09721
1.09718
0.0403936
0.0524096
0.0976124
0.170799
0.259625
0.356666
0.459402
0.567106
0.678661
0.792377
0.900115
0.984095
1.04079
1.0764
1.09264
1.09695
1.09771
1.09782
1.09784
1.0978
0.018045
0.0302414
0.0761464
0.150664
0.241056
0.339911
0.444801
0.555065
0.669698
0.787201
0.899382
0.987025
1.04499
1.07937
1.09365
1.09718
1.09807
1.09839
1.09843
1.09837
-0.00355118
0.0088773
0.0554945
0.131228
0.223011
0.323495
0.43034
0.542961
0.660484
0.781674
0.89851
0.990554
1.05055
1.08372
1.09528
1.09719
1.09796
1.09874
1.09915
1.09914
-0.0242679
-0.0117031
0.035614
0.112445
0.205471
0.307423
0.416005
0.530771
0.650982
0.77572
0.897329
0.994541
1.05772
1.09029
1.09858
1.09764
1.09738
1.09876
1.1005
1.10111
-0.0442916
-0.0315118
0.016483
0.0942854
0.188414
0.291671
0.401819
0.518491
0.641167
0.769282
0.89567
0.998734
1.06652
1.09988
1.10529
1.10075
1.09818
1.09984
1.10379
1.10618
-0.0635126
-0.0505172
-0.00192783
0.0767537
0.171875
0.276273
0.387805
0.506168
0.631049
0.762288
0.893371
1.0028
1.07669
1.11284
1.11696
1.10921
1.1038
1.10486
1.11093
1.1165
-0.0820299
-0.0688223
-0.0195979
0.0598733
0.155851
0.261255
0.374004
0.493823
0.620651
0.754745
0.890293
1.00632
1.08767
1.12878
1.13374
1.12437
1.1162
1.11379
1.11379
1.11046
-0.0997721
-0.0864167
-0.0366268
0.0434625
0.140113
0.246337
0.36009
0.481076
0.609575
0.746234
0.886059
1.00898
1.0994
1.14795
1.15597
1.14662
1.13592
1.1252
1.11354
1.11567
-0.116744
-0.103403
-0.0530471
0.0275612
0.124651
0.23153
0.346067
0.467872
0.597732
0.736535
0.880283
1.00992
1.11062
1.1693
1.18178
1.17318
1.15834
1.14376
1.10728
1.07164
-0.132778
-0.119654
-0.0688631
0.0122924
0.10944
0.216807
0.331902
0.454304
0.585123
0.725569
0.87264
1.0083
1.1192
1.19054
1.20855
1.19674
1.17554
1.1413
1.08801
1.03754
-0.150583
-0.134096
-0.0838913
-0.00187546
0.0947539
0.202402
0.317196
0.440388
0.571794
0.713368
0.862887
1.00335
1.12247
1.20949
1.23442
1.21521
1.1696
1.10705
1.03676
0.978043
-0.138529
-0.1132
-0.0581646
0.0277458
0.131628
0.242585
0.363505
0.490827
0.627315
0.776526
0.92559
1.0587
1.17069
1.24701
1.23763
1.1466
1.07747
1.00314
0.932665
0.888158
-0.151582
-0.143511
-0.10122
-0.0248511
0.0719977
0.178908
0.294315
0.417685
0.549413
0.691642
0.842783
0.987225
1.11121
1.20472
1.24137
1.18919
1.06051
0.969956
0.903274
0.827477
-0.171739
-0.160885
-0.115006
-0.0371803
0.0603299
0.166819
0.281337
0.404018
0.535363
0.677226
0.828479
0.973845
1.09654
1.17718
1.18008
1.06102
0.91525
0.819886
0.747354
0.668979
-0.193815
-0.181808
-0.132775
-0.0539814