/*--------------------------------*- C++ -*----------------------------------*\
  =========                 |
  \\      /  F ield         | OpenFOAM: The Open Source CFD Toolbox
   \\    /   O peration     | Website:  https://openfoam.org
    \\  /    A nd           | Version:  6
     \\/     M anipulation  |
\*---------------------------------------------------------------------------*/
FoamFile
{
    version     2.0;
    format      ascii;
    class       volScalarField;
    location    "32";
    object      p;
}
// * * * * * * * * * * * * * * * * * * * * * * * * * * * * * * * * * * * * * //

dimensions      [0 2 -2 0 0 0 0];

internalField   nonuniform List<scalar> 
2200
(
1.16778
1.15256
1.13508
1.1188
1.10436
1.09233
1.08266
1.07513
1.0697
1.06672
1.06706
1.07063
1.07653
1.08441
1.09432
1.10652
1.12109
1.13745
1.15497
1.17021
1.11148
1.10757
1.10257
1.09699
1.09069
1.08406
1.07765
1.07201
1.06756
1.06505
1.06541
1.06855
1.07348
1.07949
1.08616
1.09299
1.09943
1.10509
1.11014
1.11408
1.06997
1.06967
1.07062
1.07194
1.07238
1.07133
1.06909
1.06624
1.06354
1.06192
1.0623
1.06463
1.06786
1.07112
1.07366
1.07493
1.07464
1.07341
1.07253
1.07287
1.04481
1.04584
1.04825
1.0516
1.05488
1.05722
1.05824
1.05811
1.05742
1.05689
1.05732
1.05865
1.05997
1.06059
1.05991
1.05782
1.05473
1.0515
1.04916
1.04816
1.0299
1.03136
1.03411
1.03765
1.04129
1.04457
1.04717
1.049
1.05003
1.05039
1.05094
1.05152
1.05123
1.04995
1.04777
1.04479
1.04136
1.03794
1.03526
1.03383
1.02233
1.02363
1.0259
1.02875
1.03172
1.03464
1.03744
1.03999
1.04204
1.0433
1.04397
1.04385
1.04268
1.0408
1.03849
1.03594
1.03323
1.03056
1.02837
1.02709
1.01871
1.01962
1.02112
1.02307
1.02517
1.02733
1.0295
1.03155
1.03364
1.03566
1.03644
1.03584
1.03484
1.03362
1.03206
1.03033
1.02853
1.02679
1.02539
1.02451
1.01604
1.01662
1.01754
1.01879
1.02019
1.02163
1.02307
1.02452
1.02636
1.02876
1.02973
1.02911
1.0286
1.0281
1.02738
1.02648
1.02545
1.02444
1.02364
1.02308
1.01294
1.01333
1.01394
1.01481
1.01573
1.01667
1.01776
1.01919
1.02102
1.02322
1.02441
1.0243
1.0241
1.0239
1.02374
1.02347
1.02301
1.02243
1.02195
1.02159
1.00923
1.00952
1.01004
1.01078
1.01159
1.01244
1.01355
1.01506
1.0167
1.01824
1.01965
1.02062
1.02099
1.02107
1.02114
1.02106
1.0208
1.02044
1.0201
1.01983
1.005
1.00523
1.00573
1.00656
1.00766
1.00893
1.01034
1.01182
1.01327
1.01457
1.0163
1.01814
1.01913
1.01952
1.01949
1.01927
1.0189
1.01853
1.01822
1.01802
1.00036
1.00052
1.001
1.00196
1.00344
1.00527
1.00712
1.00889
1.01075
1.01259
1.01472
1.01671
1.01781
1.01826
1.01816
1.0177
1.01715
1.01675
1.0165
1.01637
0.995405
0.995505
0.995941
0.99693
0.998484
1.00044
1.00261
1.00505
1.00779
1.0105
1.01306
1.01494
1.01586
1.01629
1.01639
1.01612
1.0157
1.01537
1.01521
1.01514
0.99023
0.990281
0.990644
0.991555
0.992948
0.99468
0.99685
0.999704
1.00309
1.00661
1.00987
1.01213
1.01341
1.01423
1.0148
1.01498
1.01487
1.01474
1.01468
1.01465
0.984962
0.984944
0.985313
0.986161
0.987407
0.988988
0.991109
0.993981
0.997467
1.00159
1.00583
1.00922
1.01161
1.01321
1.01419
1.01482
1.0151
1.01519
1.01519
1.01517
0.979319
0.979322
0.97969
0.980585
0.981959
0.98381
0.986205
0.989208
0.99288
0.997637
1.00288
1.0075
1.01099
1.01332
1.01482
1.01583
1.01638
1.01661
1.01667
1.01667
0.972958
0.973001
0.973344
0.974328
0.976053
0.978405
0.981423
0.985174
0.98978
0.995577
1.00186
1.00738
1.01158
1.01449
1.01652
1.01789
1.01867
1.01905
1.01918
1.01917
0.965497
0.965538
0.96598
0.967151
0.969139
0.9719
0.975588
0.980328
0.986299
0.993614
1.00136
1.00799
1.01297
1.0166
1.01918
1.0209
1.02192
1.02246
1.02267
1.02268
0.956777
0.956796
0.957273
0.958535
0.960708
0.963806
0.968028
0.973666
0.981027
0.990185
1.00001
1.00846
1.01476
1.01937
1.02266
1.02492
1.02635
1.02712
1.02741
1.02741
0.945919
0.945959
0.946504
0.947934
0.950418
0.954029
0.959053
0.96585
0.974787
0.986098
0.998471
1.0091
1.01709
1.02295
1.02717
1.03013
1.03202
1.03304
1.03338
1.03337
0.932605
0.932656
0.933314
0.935036
0.938096
0.942666
0.949041
0.957555
0.968716
0.98279
0.998075
1.01105
1.02076
1.02789
1.03304
1.03664
1.03898
1.04022
1.04062
1.04058
0.915635
0.915767
0.916729
0.919042
0.92308
0.92906
0.937279
0.94831
0.9626
0.980244
0.998889
1.01446
1.02595
1.03434
1.04038
1.04463
1.0474
1.04884
1.04929
1.04924
0.894215
0.894344
0.895583
0.898706
0.904115
0.912062
0.922992
0.937436
0.955745
0.977782
1.00042
1.01888
1.03234
1.04222
1.04934
1.05434
1.05754
1.05917
1.05967
1.0596
0.866196
0.866561
0.868484
0.872851
0.880356
0.8913
0.90596
0.924866
0.948192
0.975376
1.00246
1.02416
1.03988
1.05139
1.0598
1.06572
1.06946
1.07132
1.07186
1.07176
0.82886
0.829598
0.832766
0.839698
0.850917
0.866416
0.886471
0.9114
0.940878
0.973855
1.0056
1.03064
1.0488
1.06217
1.07195
1.07883
1.08314
1.08524
1.08579
1.08563
0.779544
0.780833
0.786456
0.797755
0.815015
0.837726
0.865415
0.897974
0.934464
0.973586
1.01008
1.03847
1.05915
1.07447
1.08575
1.09365
1.09853
1.10078
1.10125
1.10101
0.715914
0.719734
0.73141
0.750532
0.776093
0.807533
0.844094
0.884893
0.928798
0.974541
1.01638
1.04889
1.07296
1.09102
1.10437
1.11378
1.11952
1.12214
1.12268
1.1225
0.644308
0.653845
0.674161
0.702813
0.737931
0.778555
0.823787
0.872559
0.923891
0.976616
1.02453
1.06196
1.08977
1.11106
1.12722
1.13867
1.1458
1.1492
1.15014
1.15028
0.578951
0.592891
0.619929
0.657073
0.70136
0.751108
0.804854
0.861334
0.919585
0.97865
1.03241
1.07456
1.10564
1.12926
1.14747
1.16091
1.16961
1.17413
1.17557
1.1757
0.526888
0.54151
0.572534
0.616182
0.667971
0.725524
0.786903
0.850483
0.915078
0.980113
1.03988
1.08673
1.12053
1.14599
1.16589
1.18071
1.19024
1.19499
1.19653
1.1967
0.483695
0.499017
0.532761
0.580866
0.638232
0.701989
0.769777
0.839627
0.91026
0.981434
1.04695
1.09752
1.13361
1.16071
1.18152
1.19683
1.20676
1.21171
1.21338
1.21361
0.446547
0.462751
0.498903
0.550486
0.612056
0.68059
0.753517
0.828738
0.904988
0.982155
1.05256
1.10587
1.14417
1.17267
1.19393
1.20945
1.21956
1.2248
1.22668
1.22698
0.413846
0.43076
0.469081
0.523706
0.588707
0.661057
0.738122
0.81787
0.89924
0.982112
1.05702
1.11271
1.15246
1.1818
1.20365
1.21959
1.23009
1.23564
1.23771
1.23806
0.38442
0.401933
0.442183
0.499504
0.567432
0.642986
0.723513
0.80716
0.893239
0.98127
1.06008
1.11786
1.15886
1.189
1.21137
1.22778
1.23881
1.24471
1.24679
1.24696
0.35735
0.375352
0.417335
0.477146
0.547708
0.626039
0.709515
0.796573
0.886898
0.979593
1.06176
1.12176
1.16422
1.19517
1.21797
1.2348
1.24607
1.25201
1.25402
1.25404
0.332027
0.35049
0.394031
0.456115
0.529063
0.609857
0.695978
0.786145
0.880312
0.977162
1.06212
1.12473
1.16924
1.20108
1.22452
1.24146
1.25257
1.25851
1.26058
1.26065
0.308081
0.327031
0.371935
0.43604
0.511164
0.594206
0.682724
0.775675
0.873118
0.973407
1.06189
1.12807
1.17439
1.20735
1.2312
1.24812
1.25915
1.26498
1.26703
1.26713
0.285182
0.304646
0.350773
0.416718
0.493835
0.578886
0.669495
0.764848
0.865159
0.968988
1.06184
1.13149
1.17987
1.21394
1.23807
1.25506
1.26601
1.27174
1.27366
1.27373
0.263153
0.283107
0.3303
0.39791
0.476853
0.56371
0.65616
0.753578
0.85653
0.963878
1.06085
1.13448
1.18548
1.22049
1.24512
1.26219
1.27301
1.2785
1.28032
1.28037
0.241824
0.262186
0.310335
0.379451
0.460057
0.548531
0.642579
0.741848
0.847116
0.957528
1.05903
1.1372
1.19083
1.22746
1.25264
1.26958
1.28015
1.28544
1.28706
1.28703
0.221042
0.24172
0.290746
0.361253
0.443372
0.533274
0.628724
0.729656
0.836914
0.95006
1.05594
1.13819
1.19579
1.23512
1.26096
1.27767
1.28764
1.29231
1.29361
1.2935
0.200685
0.221672
0.27152
0.34329
0.42678
0.517973
0.614666
0.717042
0.826141
0.941525
1.05088
1.13793
1.20053
1.24323
1.27068
1.287
1.29566
1.29928
1.29995
1.29965
0.180716
0.201979
0.252648
0.325643
0.410403
0.502712
0.600456
0.704185
0.814986
0.932088
1.04414
1.13598
1.2038
1.25161
1.28214
1.29869
1.30537
1.30652
1.3058
1.30533
0.161182
0.182717
0.234211
0.308398
0.394325
0.487578
0.586246
0.691195
0.803329
0.921721
1.03609
1.132
1.20533
1.25919
1.2949
1.31381
1.31854
1.31551
1.31148
1.31057
0.142169
0.163923
0.216272
0.291669
0.378698
0.472709
0.572103
0.678078
0.791345
0.910856
1.02737
1.12644
1.20462
1.26488
1.30781
1.33244
1.33809
1.32954
1.3188
1.31483
0.12376
0.145731
0.19896
0.275548
0.363578
0.458116
0.55802
0.664885
0.779202
0.899873
1.01805
1.11942
1.20138
1.26765
1.31869
1.35229
1.36482
1.35399
1.32912
1.3027
0.106053
0.128211
0.182311
0.259965
0.348755
0.443562
0.543759
0.651351
0.766658
0.88848
1.00773
1.11084
1.19528
1.26671
1.32566
1.36949
1.39318
1.39263
1.39371
1.40221
0.0891138
0.11138
0.166252
0.244746
0.333939
0.428686
0.528946
0.637085
0.75317
0.87586
0.996022
1.09973
1.18562
1.26029
1.32443
1.37461
1.40107
1.39802
1.36952
1.36241
0.0729582
0.0952022
0.15075
0.229931
0.319221
0.413581
0.513719
0.622222
0.738784
0.862133
0.982806
1.08594
1.17147
1.24567
1.30889
1.35417
1.35935
1.32506
1.27938
1.26287
0.0576507
0.0796314
0.135761
0.215518
0.30459
0.398235
0.498091
0.606783
0.723554
0.847166
0.967499
1.06896
1.15149
1.21981
1.27229
1.29126
1.27364
1.21483
1.15154
1.13612
0.0432576
0.064624
0.121233
0.201419
0.289956
0.382647
0.482156
0.590875
0.70747
0.830713
0.9497
1.04825
1.12427
1.18088
1.21093
1.20636
1.16067
1.07434
0.997513
0.983839
0.0293813
0.0499717
0.106742
0.186977
0.274752
0.36652
0.465734
0.574291
0.690257
0.812601
0.929643
1.02335
1.09006
1.12977
1.1302
1.10573
1.00993
0.906008
0.820602
0.80916
0.0150866
0.0351771
0.0914759
0.171113
0.258146
0.349404
0.448489
0.556672
0.671588
0.792404
0.906541
0.993746
1.04861
1.06599
1.04266
0.972376
0.847186
0.721813
0.617187
0.601945
-0.000219703
0.0197509
0.07509
0.153573
0.240012
0.331255
0.430366
0.537945
0.651475
0.770247
0.880588
0.959942
0.99923
0.991504
0.951215
0.830156
0.673247
0.505546
0.367578
0.344944
-0.0167206
0.00325598
0.0575613
0.134736
0.22072
0.312229
0.411411
0.518171
0.629918
0.745958
0.851626
0.922996
0.944153
0.907235
0.832913
0.680521
0.496876
0.285189
0.0819321
0.00561502
-0.0345884
-0.0145926
0.0388626
0.114919
0.200559
0.292376
0.391558
0.497296
0.606915
0.719787
0.819963
0.882398
0.883599
0.81525
0.691468
0.52588
0.333196
0.0630288
-0.360199
-0.692337
-0.0539617
-0.0338998
0.0189807
0.0942711
0.179712
0.271765
0.370845
0.475466
0.582675
0.691636
0.785875
0.838707
0.820384
0.72803
0.545073
0.355726
0.181666
-0.0705694
-0.587817
-1.4024
-0.0749205
-0.0546983
-0.00212688
0.0726803
0.158008
0.250204
0.349029
0.45235
0.556868
0.661289
0.749426
0.791238
0.754017
0.648405
0.418271
0.209959
0.0615704
-0.076249
-0.26276
-0.559443
-0.0974443
-0.077012
-0.024671
0.0497287
0.134943
0.22712
0.325419
0.427164
0.528624
0.627796
0.709696
0.740297
0.686881
0.566546
0.318954
0.121595
0.00216819
-0.0614594
-0.10316
-0.136242
-0.121466
-0.10087
-0.0486941
0.0253311
0.110355
0.202364
0.299907
0.39981
0.497912
0.591579
0.666525
0.686472
0.621706
0.484596
0.246507
0.0745542
-0.0183365
-0.0453797
-0.0738115
-0.0787586
-0.146855
-0.126142
-0.0741697
-0.000547738
0.0841936
0.175827
0.272422
0.370328
0.464812
0.55259
0.619421
0.628737
0.56199
0.404601
0.191202
0.0520416
-0.0137924
-0.0342291
-0.0410573
-0.041175
-0.173532
-0.152695
-0.100908
-0.027758
0.0565116
0.14759
0.243081
0.3389
0.429634
0.511108
0.569411
0.568823
0.506305
0.325339
0.144918
0.0405237
0.00500985
-0.0205808
-0.0206519
-0.019256
-0.201116
-0.180168
-0.128639
-0.0560766
0.0275272
0.117779
0.212036
0.305745
0.392662
0.46819
0.517141
0.507377
0.446817
0.26382
0.10868
0.0226561
0.00666577
-0.00400207
-0.0065651
-0.00609705
-0.229079
-0.208102
-0.156867
-0.0850703
-0.00246105
0.0866509
0.179476
0.271204
0.354787
0.424739
0.464063
0.444487
0.380233
0.214627
0.0865621
0.01473
-0.00715812
0.00118751
0.00355706
0.00420334
-0.256603
-0.2358
-0.185034
-0.114187
-0.0328989
0.0546148
0.145774
0.235688
0.316541
0.381488
0.410032
0.378934
0.305154
0.174138
0.0883216
0.0406048
0.00114034
0.00970434
0.0159319
0.0178812
-0.282816
-0.262394
-0.212294
-0.142586
-0.0630933
0.0221674
0.111117
0.199467
0.278701
0.339354
0.355714
0.308913
0.224102
0.132043
0.082741
0.0724111
0.0471337
0.0319348
0.0259789
0.0248942
-0.306475
-0.28678
-0.237796
-0.169485
-0.0920805
-0.00965667
0.0762578
0.162502
0.241421
0.299641
0.30479
0.238571
0.140102
0.0747984
0.0580402
0.0643316
0.0494546
0.0223083
0.00736647
0.00274134
-0.32634
-0.307757
-0.260389
-0.193724
-0.118646
-0.0397778
0.0420223
0.125408
0.204223
0.263174
0.259871
0.172046
0.0518569
-0.0126705
-0.021248
-0.0297321
-0.0353623
-0.0499486
-0.057968
-0.0627115
-0.341061
-0.324175
-0.279184
-0.214481
-0.141453
-0.0660255
0.0103424
0.0887317
0.167317
0.231043
0.230708
0.120395
-0.0422717
-0.160458
-0.215786
-0.253072
-0.246153
-0.222523
-0.202617
-0.192309
-0.349532
-0.334959
-0.293119
-0.230518
-0.159125
-0.0866787
-0.0158288
0.05514
0.130034
0.201981
0.21877
0.100109
-0.114557
-0.324226
-0.457233
-0.513157
-0.50813
-0.467184
-0.420194
-0.388047
-0.351086
-0.339074
-0.300957
-0.240986
-0.17082
-0.0997004
-0.0332397
0.0293587
0.0956573
0.172753
0.220987
0.126781
-0.110408
-0.390001
-0.586131
-0.646377
-0.640224
-0.603139
-0.557958
-0.523484
-0.344856
-0.334698
-0.300549
-0.244203
-0.176091
-0.105045
-0.0392671
0.0172109
0.0722619
0.146617
0.231452
0.202384
0.0246141
-0.230942
-0.455997
-0.534493
-0.526734
-0.481203
-0.427139
-0.389053
-0.326912
-0.317956
-0.288976
-0.238624
-0.174712
-0.104065
-0.0345082
0.0237961
0.0720283
0.134354
0.247312
0.318828
0.283454
0.165924
0.0300099
-0.0059764
0.0398742
0.110275
0.170471
0.206571
-0.292523
-0.285318
-0.264396
-0.223238
-0.166019
-0.0975549
-0.0231366
0.0462573
0.102603
0.159023
0.277869
0.445899
0.594588
0.723399
0.794376
0.883858
0.989921
1.08039
1.14246
1.17195
-0.247713
-0.244783
-0.233109
-0.200439
-0.150035
-0.0850978
-0.00786
0.0751668
0.151381
0.226209
0.344731
0.556112
0.82166
1.13242
1.4304
1.67919
1.88073
2.03331
2.12615
2.16193
-0.208854
-0.209194
-0.202222
-0.176407
-0.129718
-0.0657679
0.0128885
0.104497
0.200042
0.29969
0.424427
0.630003
0.918268
1.28842
1.70094
2.06768
2.338
2.50808
2.59109
2.61113
-0.175085
-0.175621
-0.170863
-0.152304
-0.108764
-0.0434505
0.0376937
0.132052
0.235747
0.343498
0.462369
0.639342
0.895997
1.19836
1.54397
1.86511
2.09808
2.23308
2.29108
2.3046
-0.142629
-0.143396
-0.142197
-0.128206
-0.0857565
-0.0190271
0.0631634
0.156766
0.2602
0.361419
0.460578
0.598675
0.814394
1.05757
1.30132
1.52164
1.68931
1.79371
1.8417
1.85549
-0.106354
-0.107805
-0.110152
-0.0976861
-0.0557518
0.0111002
0.0899175
0.176333
0.272265
0.361319
0.431173
0.515646
0.675519
0.863503
1.03521
1.17489
1.28123
1.35571
1.39456
1.40837
-0.0534885
-0.0554716
-0.0573448
-0.0457548
-0.00909781
0.0512611
0.120198
0.190473
0.26991
0.349904
0.399454
0.42725
0.521012
0.662339
0.796035
0.90035
0.977502
1.03403
1.0662
1.07735
0.0215554
0.0195556
0.0183373
0.0271371
0.0559695
0.102612
0.154656
0.203837
0.261829
0.332692
0.380872
0.377792
0.411071
0.513589
0.625932
0.717169
0.785606
0.83388
0.860651
0.869609
0.110953
0.109216
0.108013
0.113956
0.132855
0.161628
0.194463
0.226427
0.264439
0.321184
0.370856
0.378277
0.387892
0.456252
0.541981
0.616993
0.677562
0.718554
0.738046
0.742873
0.201441
0.200073
0.198745
0.201337
0.210522
0.223621
0.240555
0.262027
0.285584
0.326048
0.367903
0.391186
0.41319
0.461705
0.519849
0.573158
0.614301
0.638887
0.648928
0.650453
0.277822
0.27687
0.275377
0.274995
0.277147
0.279935
0.286414
0.301017
0.3162
0.341409
0.372523
0.393273
0.423785
0.469497
0.514572
0.548599
0.565428
0.572324
0.572699
0.571772
0.331064
0.330438
0.328918
0.326444
0.324375
0.321855
0.322052
0.330893
0.340827
0.352675
0.376175
0.38568
0.40763
0.449463
0.490173
0.511923
0.514065
0.512297
0.509355
0.508197
0.361264
0.360785
0.359416
0.356438
0.352042
0.347198
0.344732
0.348231
0.353288
0.356485
0.375488
0.376585
0.383773
0.412448
0.445207
0.45931
0.461254
0.463251
0.463166
0.462091
0.375043
0.374561
0.373147
0.370166
0.365557
0.360829
0.357382
0.357194
0.359756
0.358058
0.37277
0.369067
0.368454
0.385556
0.406735
0.41513
0.417487
0.420411
0.421379
0.420711
0.380103
0.379697
0.378396
0.375682
0.371286
0.367172
0.364222
0.363021
0.365028
0.36167
0.370508
0.365379
0.362397
0.377866
0.392255
0.394261
0.394441
0.394326
0.392521
0.391654
0.38096
0.380724
0.379783
0.377551
0.373612
0.369902
0.367264
0.365838
0.368433
0.366943
0.368647
0.364091
0.359138
0.377716
0.393759
0.392409
0.391868
0.394064
0.392334
0.389914
0.378679
0.378557
0.37799
0.376411
0.373475
0.370575
0.369043
0.367905
0.370221
0.370729
0.368832
0.367679
0.359114
0.376867
0.394458
0.396878
0.396214
0.397411
0.396597
0.393985
0.374306
0.374282
0.374086
0.373194
0.371718
0.370057
0.369346
0.36927
0.371922
0.375565
0.375554
0.375054
0.366228
0.379682
0.3927
0.396418
0.392015
0.384593
0.382736
0.382707
0.367424
0.367574
0.367827
0.367882
0.367816
0.367462
0.367487
0.368721
0.372285
0.381827
0.386073
0.380325
0.373816
0.384445
0.390841
0.394279
0.396295
0.391613
0.390697
0.392028
0.356018
0.356349
0.357039
0.357807
0.358851
0.360133
0.360532
0.363735
0.372061
0.387291
0.39112
0.382643
0.377268
0.390303
0.398792
0.410866
0.434585
0.449688
0.452252
0.450649
0.338679
0.338974
0.339586
0.340397
0.341604
0.344313
0.34834
0.354301
0.364508
0.382005
0.387464
0.383343
0.381759
0.396073
0.411917
0.431162
0.464774
0.491621
0.49539
0.490044
0.315567
0.316133
0.317144
0.318382
0.320057
0.32304
0.327857
0.334969
0.346376
0.365409
0.372271
0.371368
0.38145
0.386395
0.400447
0.410164
0.418919
0.43285
0.438753
0.435624
0.283738
0.284398
0.285527
0.287312
0.28968
0.292896
0.297326
0.303135
0.313882
0.32669
0.330062
0.33137
0.346236
0.336805
0.342751
0.351404
0.34181
0.334327
0.339537
0.340375
0.243195
0.243867
0.24499
0.246551
0.248917
0.251559
0.253889
0.255712
0.260613
0.264699
0.272321
0.270993
0.282774
0.282719
0.286605
0.299871
0.309172
0.299324
0.298586
0.299528
0.193977
0.194613
0.195724
0.197398
0.199436
0.200704
0.199151
0.194873
0.1901
0.185693
0.20315
0.211477
0.225511
0.242082
0.255075
0.269587
0.303344
0.310339
0.298977
0.296287
0.140479
0.14078
0.14146
0.142694
0.143663
0.142559
0.136014
0.12307
0.100765
0.0847175
0.11158
0.149705
0.178604
0.187602
0.214949
0.217926
0.225053
0.240676
0.233699
0.232409
0.0881077
0.0877675
0.087777
0.0891344
0.089964
0.0863516
0.0733249
0.0470455
0.00862964
-0.00881569
0.0278101
0.0821017
0.111746
0.112702
0.138235
0.152183
0.126735
0.13058
0.13417
0.136406
0.0458595
0.0457751
0.0464233
0.0461449
0.0430965
0.0354774
0.020414
-0.00721184
-0.0465433
-0.0732222
-0.0426689
0.0210636
0.0290922
0.0658897
0.08772
0.105833
0.105707
0.0872993
0.087264
0.0867594
0.0160614
0.015825
0.0162576
0.0167897
0.0151618
0.00953594
-0.00228521
-0.0242086
-0.0529382
-0.0721682
-0.0412839
0.0339458
0.0171996
0.0186121
0.012951
0.0102491
0.0416449
0.0361803
0.035287
0.0339551
-0.217997
0.258087
0.545154
0.76243
0.939162
1.08552
1.2061
1.30871
1.38875
1.42022
0.473352
0.695775
0.818072
0.944632
1.0676
1.17152
1.24868
1.29273
1.29226
1.29186
0.7574
0.895685
0.995465
1.08433
1.16398
1.23014
1.27765
1.30221
1.30955
1.345
0.953425
1.04608
1.12516
1.19079
1.24469
1.28811
1.32151
1.34699
1.36776
1.39987
1.1098
1.16985
1.22914
1.27744
1.31678
1.34911
1.37665
1.40182
1.42685
1.45173
1.23624
1.2778
1.32008
1.35641
1.38716
1.41377
1.43806
1.46147
1.48421
1.50293
1.34425
1.37272
1.4038
1.43182
1.45688
1.47979
1.50139
1.52198
1.5413
1.55721
1.43887
1.45878
1.48296
1.50611
1.52741
1.54714
1.56575
1.58353
1.60026
1.61389
1.52477
1.54236
1.56216
1.58079
1.59831
1.61501
1.63111
1.64653
1.6611
1.67337
1.60887
1.62256
1.63938
1.65556
1.67078
1.68513
1.69878
1.71194
1.72454
1.73503
1.69618
1.70474
1.71781
1.73184
1.74522
1.75761
1.76916
1.78002
1.79038
1.79944
1.78449
1.7901
1.79997
1.81175
1.82328
1.83368
1.84286
1.85121
1.85921
1.86631
1.87631
1.87985
1.88675
1.89492
1.90312
1.91094
1.91815
1.92462
1.93077
1.93658
1.97226
1.97253
1.97438
1.97724
1.98091
1.98559
1.99141
1.99814
2.00506
2.01109
2.07417
2.06542
2.05598
2.0488
2.04547
2.04697
2.05362
2.06482
2.07909
2.09254
2.18078
2.14372
2.11288
2.0939
2.08496
2.08454
2.09267
2.11181
2.14326
2.18213
)
;

boundaryField
{
    wall-4
    {
        type            zeroGradient;
    }
    pressure-outlet-7
    {
        type            fixedValue;
        value           uniform 0;
    }
    velocity-inlet-6
    {
        type            zeroGradient;
    }
    velocity-inlet-5
    {
        type            zeroGradient;
    }
    frontAndBackPlanes
    {
        type            empty;
    }
}


// ************************************************************************* //
