/*--------------------------------*- C++ -*----------------------------------*\
  =========                 |
  \\      /  F ield         | OpenFOAM: The Open Source CFD Toolbox
   \\    /   O peration     | Website:  https://openfoam.org
    \\  /    A nd           | Version:  6
     \\/     M anipulation  |
\*---------------------------------------------------------------------------*/
FoamFile
{
    version     2.0;
    format      ascii;
    class       surfaceScalarField;
    location    "10.9";
    object      phi;
}
// * * * * * * * * * * * * * * * * * * * * * * * * * * * * * * * * * * * * * //

dimensions      [0 3 -1 0 0 0 0];

internalField   nonuniform List<scalar> 
17370
(
-0.0899864
0.0898235
0.289174
-0.0714266
0.0537033
0.364499
-0.0380358
0.0275386
0.426665
-0.0194005
0.0143102
0.504342
-0.0104492
0.00799432
0.601857
-0.00608228
0.00478999
0.72035
-0.00370072
0.00291118
0.863696
-0.00219918
0.00165435
1.036
-0.0011378
0.000720713
1.24292
-0.000315561
-5.01763e-05
1.49156
0.000404269
-0.000821282
1.49161
0.00123805
-0.00175069
1.2432
0.00229103
-0.00299589
1.03634
0.00377605
-0.00485274
0.863983
0.00613533
-0.00803957
0.720962
0.01049
-0.0143471
0.603072
0.019435
-0.0275705
0.507575
0.0380643
-0.0537268
0.431831
0.071445
-0.0898355
0.365166
0.0899935
0.199017
-0.128193
0.0884204
0.039773
-0.36464
0.353569
-0.0743299
0.0854011
-0.446396
0.454306
-0.0837695
0.0758594
-0.521148
0.529738
-0.0678074
0.0592176
-0.612849
0.621555
-0.0511382
0.0424323
-0.726988
0.734242
-0.0349847
0.0277308
-0.867398
0.872585
-0.0220535
0.0168671
-1.03841
1.04181
-0.0130234
0.00962171
-1.24461
1.24687
-0.00710412
0.00484082
-1.49274
1.4945
-0.00306908
0.00131789
-1.49246
1.49403
0.00023017
-0.00180423
-1.244
1.24575
0.00352709
-0.00527684
-1.03745
1.03993
0.0075093
-0.00999093
-0.865989
0.869804
0.0133538
-0.0171694
-0.724363
0.73002
0.0223295
-0.0279867
-0.6088
0.616225
0.0352167
-0.0426419
-0.514939
0.522995
0.0513202
-0.0593761
-0.439786
0.447822
0.0679425
-0.0759784
-0.375263
0.376872
0.0838735
-0.0854828
-0.257411
0.22282
0.0743858
-0.0397942
-0.068864
0.0591492
0.00971483
-0.0511392
0.0575386
-0.374424
0.368025
-0.056372
0.0523433
-0.453684
0.457713
-0.0469935
0.0428439
-0.527931
0.53208
-0.0388516
0.0351074
-0.621458
0.625202
-0.0310023
0.0270799
-0.735218
0.73914
-0.0228204
0.0189934
-0.874089
0.877916
-0.0150892
0.0117656
-1.04315
1.04647
-0.00844253
0.00555809
-1.24821
1.2511
-0.00248099
-0.000492598
-1.49639
1.49936
0.00342869
-0.00647196
-1.49689
1.49993
0.00931431
-0.0125863
-1.24975
1.25302
0.0158599
-0.0197012
-1.04569
1.04953
0.0234574
-0.0276419
-0.877663
0.881847
0.0315043
-0.0355616
-0.739884
0.743941
0.0392786
-0.0432257
-0.626804
0.630751
0.0473302
-0.0526344
-0.534955
0.540259
0.0566133
-0.0577322
-0.457812
0.458931
0.0512856
-0.0314827
-0.336365
0.316562
0.00973893
-0.0687935
0.0590545
-0.0536283
0.0499921
0.0036362
-0.0307375
0.0404801
-0.358942
0.3492
-0.043908
0.0434082
-0.459612
0.460112
-0.0406835
0.0375811
-0.535976
0.539079
-0.0340075
0.0309946
-0.628573
0.631586
-0.0278771
0.0250418
-0.742226
0.745061
-0.0219656
0.0190827
-0.881208
0.884091
-0.0158383
0.0127598
-1.04979
1.05287
-0.00931504
0.0061417
-1.25422
1.25739
-0.00264935
-0.000630784
-1.50255
1.50583
0.00389941
-0.00736523
-1.50327
1.50673
0.0104894
-0.0138667
-1.25644
1.25981
0.0168689
-0.0200215
-1.05312
1.05627
0.0228333
-0.025835
-0.88517
0.888171
0.0285917
-0.03163
-0.747288
0.750327
0.0345708
-0.0380824
-0.634622
0.638134
0.0411332
-0.0438026
-0.544584
0.547254
0.044249
-0.0407476
-0.45733
0.453829
0.030923
-0.0148372
-0.298023
0.281938
0.00366367
-0.053509
0.0498453
-0.0472674
0.0451224
0.00214507
-0.0198243
0.0289298
-0.339608
0.330503
-0.0338238
0.034464
-0.459931
0.459291
-0.0332103
0.0312509
-0.541346
0.543305
-0.0290939
0.0269362
-0.634149
0.636307
-0.024373
0.0220137
-0.747751
0.75011
-0.0193263
0.0168907
-0.886782
0.889218
-0.0141483
0.0115811
-1.05565
1.05821
-0.00862175
0.00576879
-1.26043
1.26328
-0.00238745
-0.000974044
-1.5092
1.51256
0.00431226
-0.00761974
-1.51018
1.51349
0.0103755
-0.013212
-1.26292
1.26575
0.0156625
-0.0182699
-1.05912
1.06173
0.0205876
-0.0231531
-0.891065
0.89363
0.0254073
-0.0278523
-0.753147
0.755592
0.029895
-0.0319399
-0.640827
0.642872
0.0338243
-0.0349933
-0.54897
0.550139
0.0342685
-0.0292592
-0.449411
0.444401
0.0200383
-0.0086236
-0.268254
0.256839
0.00217887
-0.0470864
0.0449076
-0.043554
0.0425996
0.000954339
-0.00997807
0.016523
-0.322423
0.315878
-0.0216858
0.0236998
-0.457975
0.455961
-0.0238442
0.022955
-0.544902
0.545791
-0.0216413
0.0203361
-0.637919
0.639224
-0.0190565
0.0178576
-0.752008
0.753207
-0.0163239
0.0145913
-0.891376
0.893109
-0.0124141
0.0102001
-1.06063
1.06285
-0.00757039
0.00496132
-1.266
1.26861
-0.00186583
-0.00121526
-1.51577
1.51886
0.00425654
-0.00725566
-1.51662
1.51962
0.00976362
-0.0122627
-1.26844
1.27094
0.0143367
-0.0163515
-1.06413
1.06614
0.0179093
-0.0192363
-0.895689
0.897016
0.0202802
-0.0214462
-0.757345
0.758511
0.0226567
-0.0238624
-0.644491
0.645696
0.0246422
-0.0243666
-0.550637
0.550361
0.0222256
-0.016915
-0.439008
0.433697
0.0102374
-0.00398075
-0.247972
0.241716
0.000997592
-0.0433029
0.0423053
-0.0421351
0.0419271
0.000208016
-0.00398433
0.00780249
-0.310899
0.307081
-0.0118869
0.0143283
-0.453631
0.451189
-0.0155166
0.0158432
-0.54601
0.545683
-0.0158452
0.0157379
-0.639985
0.640093
-0.0151921
0.014365
-0.754102
0.754929
-0.0132268
0.0120155
-0.894381
0.895592
-0.0104162
0.00867917
-1.06471
1.06644
-0.00644569
0.00412316
-1.27105
1.27337
-0.00130012
-0.00149155
-1.5218
1.52459
0.00426138
-0.00698994
-1.52247
1.5252
0.00916981
-0.0112154
-1.27312
1.27516
0.0127696
-0.014164
-1.06763
1.06903
0.0152067
-0.0161854
-0.898007
0.898985
0.0168566
-0.0171916
-0.759381
0.759716
0.0171291
-0.016964
-0.646211
0.646046
0.0164972
-0.0151548
-0.549495
0.548152
0.0125617
-0.00829776
-0.428905
0.424641
0.00431375
-0.00139518
-0.237527
0.234609
0.000261753
-0.0417927
0.0415309
-0.0418227
0.0417801
4.26498e-05
-0.00201749
0.00462356
-0.303992
0.301386
-0.00823397
0.0111775
-0.448552
0.445608
-0.0134408
0.0147428
-0.544859
0.543557
-0.0153995
0.0155902
-0.639947
0.639757
-0.0154438
0.0148788
-0.755574
0.756139
-0.0138648
0.0125936
-0.896897
0.898168
-0.0108234
0.00888688
-1.06828
1.07022
-0.00643903
0.00393465
-1.27573
1.27823
-0.000932388
-0.00201415
-1.52737
1.53031
0.00491396
-0.00778188
-1.52794
1.53081
0.0101101
-0.0123274
-1.27729
1.27951
0.0140355
-0.0155435
-1.07055
1.07206
0.0165719
-0.0173071
-0.899854
0.90059
0.0175853
-0.0174578
-0.75963
0.759502
0.0170708
-0.0162071
-0.645465
0.644601
0.0147048
-0.0122235
-0.54627
0.543789
0.00907018
-0.00522446
-0.420674
0.416829
0.00241237
-0.000693535
-0.232415
0.230697
0.000106118
-0.0413684
0.0412623
-0.0417711
0.0417662
4.8744e-06
-0.00114016
0.00302559
-0.299153
0.297267
-0.00628186
0.00964862
-0.442369
0.439002
-0.0129241
0.0151778
-0.541764
0.539511
-0.0164716
0.0168647
-0.639439
0.639046
-0.0167642
0.0162355
-0.756717
0.757246
-0.0151495
0.0137186
-0.899476
0.900907
-0.0117236
0.00955157
-1.07226
1.07443
-0.00681604
0.00402067
-1.2809
1.2837
-0.000653786
-0.00268506
-1.53347
1.53681
0.0059652
-0.00915544
-1.53385
1.53704
0.0117074
-0.0141201
-1.28183
1.28424
0.0159631
-0.0175768
-1.07359
1.0752
0.0186521
-0.0193671
-0.901339
0.902054
0.0196079
-0.0193823
-0.759364
0.759138
0.0187231
-0.0170901
-0.643402
0.641769
0.0145425
-0.0109593
-0.540699
0.537116
0.00731735
-0.00376882
-0.413074
0.409525
0.00163031
-0.000475765
-0.229306
0.228151
8.42996e-05
-0.0411822
0.0410979
-0.0417639
0.0417778
-1.39197e-05
-0.000507897
0.00164149
-0.295746
0.294613
-0.00395557
0.0067825
-0.435772
0.432945
-0.0100427
0.0126317
-0.536953
0.534364
-0.0147373
0.0157733
-0.638489
0.637453
-0.0159801
0.0155366
-0.757684
0.758127
-0.0144278
0.012999
-0.902398
0.903827
-0.0110081
0.00884446
-1.07667
1.07883
-0.00611095
0.00331182
-1.28655
1.28934
9.33306e-05
-0.00349537
-1.54026
1.54366
0.00682746
-0.0100101
-1.5403
1.54348
0.0125026
-0.0148072
-1.28666
1.28896
0.0165289
-0.018014
-1.07682
1.0783
0.0189655
-0.0195035
-0.902651
0.903189
0.0194752
-0.018895
-0.758899
0.758319
0.0174245
-0.0149304
-0.639611
0.637117
0.0119961
-0.00836837
-0.533329
0.529702
0.0052181
-0.00255766
-0.406354
0.403694
0.0011173
-0.000365186
-0.227202
0.22645
8.46295e-05
-0.0410066
0.040922
-0.0418167
0.0418774
-6.0672e-05
5.77274e-05
0.00041109
-0.293849
0.293381
-0.00159867
0.00325937
-0.430694
0.429034
-0.0053975
0.00724374
-0.53209
0.530243
-0.00888848
0.00993414
-0.636254
0.635208
-0.010495
0.0104773
-0.758378
0.758396
-0.00995087
0.00904162
-0.90501
0.905919
-0.00760199
0.00591412
-1.08079
1.08248
-0.00367886
0.00132157
-1.29197
1.29433
0.00156856
-0.00442393
-1.54684
1.5497
0.00716744
-0.00974199
-1.54641
1.54899
0.0116777
-0.0133714
-1.29102
1.29271
0.0145303
-0.0153523
-1.0795
1.08032
0.0156915
-0.0156119
-0.903521
0.903442
0.0150729
-0.0138679
-0.757243
0.756038
0.0123295
-0.010159
-0.634682
0.632511
0.00786516
-0.00526765
-0.526531
0.523934
0.00320226
-0.00157812
-0.401581
0.399957
0.000723644
-0.000258634
-0.225866
0.225401
6.53229e-05
-0.0408499
0.0407846
-0.0419528
0.0420423
-8.95047e-05
0.000363842
-0.000317235
-0.293154
0.293107
-0.000115458
0.0008567
-0.427884
0.427143
-0.0019158
0.00290986
-0.528839
0.527845
-0.00386355
0.00451793
-0.634345
0.633691
-0.00493976
0.0050309
-0.758313
0.758222
-0.0047847
0.00424125
-0.906612
0.907156
-0.00328968
0.00210891
-1.0839
1.08508
-0.000487036
-0.00125809
-1.29638
1.29812
0.00340655
-0.00550252
-1.55218
1.55427
0.00746585
-0.00921486
-1.55116
1.55291
0.0104646
-0.0114167
-1.29401
1.29497
0.0118983
-0.0120671
-1.08079
1.08096
0.0118819
-0.0113429
-0.903084
0.902545
0.0105593
-0.00941071
-0.754841
0.753692
0.00813559
-0.00654277
-0.630632
0.629039
0.0050025
-0.00337867
-0.521869
0.520245
0.00214028
-0.0011656
-0.398712
0.397737
0.000610551
-0.000252887
-0.225007
0.224649
7.17758e-05
-0.0407182
0.0406464
-0.0421417
0.0422536
-0.000111885
0.000596104
-0.000758874
-0.293165
0.293328
0.000771152
-0.000591288
-0.426724
0.426544
0.000240323
0.000119157
-0.527201
0.526842
-0.000472283
0.00070564
-0.633251
0.633018
-0.000821722
0.000773284
-0.758183
0.758231
-0.000521934
9.29403e-05
-0.907614
0.908043
0.000612909
-0.00147255
-1.08607
1.08693
0.0026427
-0.00388969
-1.29959
1.30084
0.00540244
-0.00683302
-1.55601
1.55744
0.00810214
-0.00913228
-1.55426
1.55529
0.00971858
-0.0100223
-1.29559
1.2959
0.010059
-0.0098042
-1.08089
1.08064
0.00934693
-0.00863757
-0.901899
0.90119
0.0078341
-0.00682693
-0.752612
0.751605
0.00582568
-0.00468241
-0.627697
0.626554
0.00364747
-0.00259593
-0.518957
0.517905
0.00178725
-0.00110362
-0.396943
0.396259
0.000650471
-0.000297626
-0.224303
0.22395
9.04943e-05
-0.0405665
0.040476
-0.0423768
0.0425131
-0.000136319
0.000785815
-0.00111969
-0.293588
0.293922
0.00138869
-0.00153494
-0.426548
0.426694
0.00161314
-0.00166428
-0.526711
0.526762
0.00174065
-0.00185698
-0.632971
0.633087
0.00205715
-0.00232433
-0.758386
0.758653
0.0027287
-0.00321394
-0.908485
0.908971
0.00388433
-0.0046226
-1.08771
1.08844
0.00555991
-0.00650369
-1.30191
1.30286
0.00758491
-0.008538
-1.55861
1.55957
0.00928929
-0.00978034
-1.55605
1.55654
0.00994377
-0.00985057
-1.29596
1.29586
0.0095197
-0.00897233
-1.08022
1.07967
0.00834067
-0.00753999
-0.900431
0.899631
0.00674428
-0.00583313
-0.750657
0.749746
0.00498992
-0.00407997
-0.625553
0.624643
0.00328572
-0.00248322
-0.517009
0.516207
0.00183813
-0.0012358
-0.395635
0.395032
0.000777248
-0.000373312
-0.223577
0.223173
0.000117411
-0.0403729
0.0402555
-0.0426675
0.0428393
-0.00017186
0.00102137
-0.00149772
-0.294326
0.294802
0.00196996
-0.00234186
-0.426958
0.42733
0.00270667
-0.00303963
-0.526962
0.527295
0.00343004
-0.00382531
-0.633349
0.633744
0.0043103
-0.00480934
-0.759036
0.759535
0.00542515
-0.00605505
-0.909521
0.910151
0.00681932
-0.00757629
-1.08918
1.08994
0.00845074
-0.0092551
-1.30371
1.30452
0.0100852
-0.0107152
-1.56034
1.56097
0.0110942
-0.0111712
-1.5568
1.55688
0.0109821
-0.0105615
-1.29562
1.2952
0.0100016
-0.00925728
-1.07903
1.07828
0.00849309
-0.00760543
-0.89879
0.897903
0.00677554
-0.00586983
-0.748849
0.747943
0.00506323
-0.00421676
-0.623783
0.622936
0.00348767
-0.00274331
-0.515452
0.514707
0.00211633
-0.00148441
-0.394426
0.393794
0.000961383
-0.000471468
-0.22273
0.22224
0.000150436
-0.0401224
0.039972
-0.0430352
0.0432522
-0.000217039
0.00130939
-0.00194475
-0.295354
0.295989
0.00261282
-0.00318548
-0.427796
0.428369
0.00379175
-0.00435971
-0.527743
0.528311
0.00501914
-0.00566389
-0.634267
0.634911
0.0064203
-0.00715947
-0.760155
0.760894
0.00802039
-0.00884824
-0.910874
0.911702
0.00978813
-0.0106565
-1.09074
1.09161
0.0115851
-0.012366
-1.3053
1.30608
0.0130773
-0.0135053
-1.56149
1.56192
0.0136184
-0.0133885
-1.5568
1.55657
0.0129243
-0.012209
-1.29462
1.29391
0.011423
-0.0104644
-1.07743
1.07647
0.00954191
-0.00851404
-0.896952
0.895924
0.00758345
-0.00659238
-0.747006
0.746015
0.00572538
-0.00482598
-0.622077
0.621178
0.00405332
-0.00325551
-0.513949
0.513152
0.00256218
-0.00183216
-0.393121
0.392391
0.0012019
-0.000594629
-0.221696
0.221089
0.000190883
-0.0398028
0.0396119
-0.0435021
0.0437796
-0.000277499
0.0016815
-0.00251054
-0.296714
0.297543
0.00340295
-0.00418987
-0.429031
0.429818
0.00504013
-0.00584044
-0.528989
0.52979
0.00676541
-0.00766202
-0.63569
0.636586
0.0087022
-0.00970464
-0.761769
0.762772
0.0108505
-0.0119262
-0.912646
0.913721
0.01311
-0.0141622
-1.09255
1.0936
0.0152328
-0.0160739
-1.30688
1.30772
0.0167572
-0.0170608
-1.56227
1.56258
0.0169667
-0.0164662
-1.5562
1.5557
0.0157374
-0.014732
-1.29305
1.29204
0.0136955
-0.0124845
-1.07539
1.07418
0.0113528
-0.0101182
-0.894798
0.893564
0.0090183
-0.0078601
-0.744948
0.74379
0.00685442
-0.00581513
-0.620222
0.619183
0.00492145
-0.00399149
-0.512303
0.511373
0.00316979
-0.00228588
-0.391593
0.390709
0.00150786
-0.000748739
-0.220412
0.219652
0.000241029
-0.0393987
0.0391577
-0.0441
0.04446
-0.000359981
0.00217334
-0.00324877
-0.29848
0.299555
0.00441536
-0.00544991
-0.430702
0.431736
0.00656749
-0.00761727
-0.530724
0.531774
0.00882706
-0.0100012
-0.637652
0.638826
0.0113647
-0.0126777
-0.763937
0.76525
0.0141711
-0.01556
-0.914931
0.91632
0.0170651
-0.0183735
-1.09475
1.09606
0.0196639
-0.0206319
-1.3086
1.30957
0.0213514
-0.0215747
-1.56283
1.56305
0.0212967
-0.0205237
-1.55506
1.55429
0.0195121
-0.0181797
-1.29088
1.28954
0.0168443
-0.0153177
-1.07281
1.07129
0.0139131
-0.0123984
-0.892188
0.890673
0.0110601
-0.00965807
-0.742514
0.741112
0.00844342
-0.00718771
-0.618054
0.616798
0.00610471
-0.00497131
-0.510367
0.509234
0.00396195
-0.0028666
-0.389734
0.388639
0.00189548
-0.000943007
-0.218806
0.217853
0.000304406
-0.0388918
0.0385873
-0.0448719
0.0453444
-0.000472484
0.00282788
-0.00422021
-0.300765
0.302157
0.00572499
-0.0070473
-0.432901
0.434223
0.00846139
-0.00978881
-0.533034
0.534361
0.0113255
-0.0128381
-0.64024
0.641753
0.0146123
-0.0163272
-0.766757
0.768471
0.0182688
-0.0200521
-0.917847
0.91963
0.0219594
-0.023598
-1.09747
1.09911
0.0251829
-0.0263339
-1.31058
1.31174
0.0271324
-0.0272918
-1.56322
1.56338
0.0268202
-0.0257385
-1.55336
1.55227
0.0243942
-0.02267
-1.28802
1.28629
0.0209684
-0.0190462
-1.06956
1.06764
0.0172942
-0.0154189
-0.888961
0.887086
0.0137708
-0.0120489
-0.73954
0.737819
0.010557
-0.00900976
-0.615421
0.613874
0.00766781
-0.00625371
-0.508013
0.506599
0.00498825
-0.00361121
-0.387435
0.386058
0.00239038
-0.00119135
-0.216797
0.215598
0.000386425
-0.0382594
0.037873
-0.0458799
0.0465021
-0.000622217
0.00369062
-0.00548891
-0.303728
0.305527
0.00741088
-0.00907542
-0.435768
0.437433
0.0108374
-0.0124977
-0.536055
0.537715
0.0144486
-0.0164127
-0.643583
0.645547
0.0187489
-0.0210086
-0.770361
0.772621
0.0235444
-0.0258352
-0.921536
0.923827
0.0282309
-0.0302536
-1.10084
1.10286
0.0321907
-0.0335624
-1.31292
1.31429
0.0344543
-0.0345338
-1.56346
1.56354
0.0338245
-0.0323635
-1.55099
1.54953
0.0306085
-0.0283984
-1.28432
1.28211
0.0262411
-0.0238235
-1.06544
1.06303
0.0216351
-0.0193069
-0.884934
0.882606
0.017271
-0.0151508
-0.735851
0.733731
0.0133132
-0.0113998
-0.612167
0.610253
0.00972582
-0.00794213
-0.505103
0.503319
0.00633367
-0.00457902
-0.384573
0.382818
0.0030305
-0.00151253
-0.214285
0.212767
0.000493783
-0.0374745
0.0369808
-0.0472128
0.0480373
-0.000824463
0.00484333
-0.00717972
-0.307587
0.309924
0.00965181
-0.0117656
-0.439489
0.441603
0.0139796
-0.0160784
-0.539971
0.54207
0.0185773
-0.021116
-0.647893
0.650432
0.0241655
-0.027091
-0.774963
0.777888
0.0303389
-0.0332561
-0.926184
0.929101
0.0362954
-0.0388254
-1.10498
1.10751
0.0411777
-0.0427845
-1.31566
1.31727
0.0437444
-0.0436853
-1.56349
1.56343
0.0426528
-0.0407037
-1.5478
1.54585
0.0384306
-0.0356108
-1.27958
1.27676
0.0328833
-0.0298458
-1.06026
1.05722
0.0271103
-0.0242158
-0.879896
0.877001
0.0216987
-0.019091
-0.731246
0.728638
0.0168361
-0.0144838
-0.608106
0.605754
0.0124069
-0.0101605
-0.501477
0.49923
0.00810614
-0.00584734
-0.381004
0.378745
0.00385927
-0.00192324
-0.211152
0.209216
0.000629856
-0.0365024
0.0358725
-0.0489937
0.0501213
-0.00112766
0.00651614
-0.00961999
-0.31263
0.315734
0.0128536
-0.0155733
-0.444311
0.447031
0.018393
-0.021098
-0.545033
0.547738
0.0243676
-0.0276968
-0.653419
0.656748
0.0316358
-0.0353729
-0.780844
0.784581
0.0394863
-0.0431288
-0.93202
0.935662
0.0468746
-0.0499231
-1.11005
1.1131
0.0526823
-0.0544891
-1.31883
1.32064
0.0554428
-0.0551392
-1.56318
1.56287
0.0536547
-0.0510704
-1.54356
1.54097
0.0481423
-0.0445616
-1.27354
1.26996
0.041126
-0.0373176
-1.05375
1.04994
0.033898
-0.0302915
-0.873603
0.869996
0.0271689
-0.0239534
-0.7255
0.722285
0.0211879
-0.0183121
-0.60303
0.600154
0.0157607
-0.0129677
-0.496932
0.494139
0.0103701
-0.00747384
-0.376537
0.373641
0.00491526
-0.00242557
-0.207243
0.204753
0.000788786
-0.0352951
0.0345063
-0.0514071
0.0530323
-0.00162523
0.00915171
-0.0133607
-0.319286
0.323495
0.0175846
-0.0210585
-0.450645
0.454118
0.0246509
-0.0281552
-0.551632
0.555137
0.0324396
-0.03678
-0.660531
0.664871
0.0418493
-0.0465642
-0.788309
0.793024
0.0516574
-0.0560941
-0.939283
0.94372
0.0605713
-0.0641397
-1.11613
1.1197
0.0672704
-0.0691979
-1.32233
1.32426
0.0700121
-0.0693051
-1.56228
1.56157
0.0671971
-0.0637965
-1.53795
1.53455
0.060055
-0.0555471
-1.2659
1.2614
0.0512533
-0.0465092
-1.04561
1.04087
0.0422527
-0.0377626
-0.865777
0.861287
0.0338767
-0.0298868
-0.71836
0.71437
0.0264718
-0.0229402
-0.596701
0.593169
0.0198088
-0.0163662
-0.491226
0.487783
0.0131203
-0.00945138
-0.370913
0.367244
0.00620835
-0.00306383
-0.202341
0.199196
0.00098839
-0.033793
0.0328046
-0.0547751
0.0572388
-0.00246378
0.0134197
-0.0192194
-0.328237
0.334037
0.0247669
-0.0292669
-0.459033
0.463533
0.0339637
-0.0386192
-0.56025
0.564905
0.0442834
-0.0498928
-0.669713
0.675322
0.0562748
-0.0620662
-0.79775
0.803541
0.0681918
-0.0734169
-0.948138
0.953363
0.0785593
-0.082523
-1.12316
1.12712
0.0858247
-0.087652
-1.32592
1.32775
0.0880578
-0.0866967
-1.56041
1.55905
0.0837319
-0.0792996
-1.53058
1.52614
0.0745772
-0.0689776
-1.25632
1.25072
0.0636867
-0.0578602
-1.03554
1.02971
0.0526319
-0.0471032
-0.856108
0.850579
0.0423048
-0.0373721
-0.709524
0.704592
0.0331518
-0.0288003
-0.588836
0.584485
0.0249523
-0.0207184
-0.484067
0.479833
0.0166838
-0.0120767
-0.363795
0.359188
0.00792617
-0.00387694
-0.196193
0.192144
0.00123633
-0.0319252
0.0306888
-0.0597137
0.0636673
-0.00395363
0.0205293
-0.0286542
-0.34061
0.348735
0.0360408
-0.041947
-0.470311
0.476218
0.0481666
-0.0543952
-0.571577
0.577805
0.0618602
-0.0689953
-0.681476
0.688611
0.0768382
-0.0837374
-0.809371
0.81627
0.0908156
-0.0966488
-0.958499
0.964332
0.102161
-0.106188
-1.13081
1.13484
0.109253
-0.110599
-1.32912
1.33046
0.110183
-0.107809
-1.55703
1.55465
0.10368
-0.0979615
-1.52098
1.51526
0.0920791
-0.0852323
-1.24446
1.23761
0.0788306
-0.0718144
-1.02323
1.01621
0.0655248
-0.0588601
-0.844293
0.837629
0.053057
-0.0470629
-0.698668
0.692673
0.0419141
-0.0366052
-0.579092
0.573783
0.0319091
-0.0266845
-0.475089
0.469864
0.0216088
-0.0156999
-0.354786
0.348877
0.010306
-0.00502142
-0.188391
0.183106
0.00158269
-0.029595
0.0280123
-0.0673944
0.0746262
-0.00723175
0.0342393
-0.0461185
-0.35855
0.37043
0.0560978
-0.0637045
-0.48569
0.493297
0.0717499
-0.0797999
-0.586385
0.594435
0.0891188
-0.0975992
-0.696091
0.704572
0.106508
-0.114024
-0.822971
0.830487
0.121441
-0.127286
-0.969788
0.975633
0.13252
-0.136019
-1.1383
1.1418
0.138251
-0.138574
-1.33107
1.33139
0.136817
-0.132982
-1.55138
1.54754
0.127332
-0.120052
-1.50865
1.50137
0.112822
-0.104597
-1.22999
1.22177
0.0969987
-0.0887349
-1.00847
1.00021
0.081352
-0.0735338
-0.830147
0.822328
0.0667079
-0.0596205
-0.685565
0.678477
0.0535041
-0.0471981
-0.56714
0.560834
0.0416213
-0.0353039
-0.463806
0.457488
0.0288747
-0.021121
-0.343149
0.335395
0.013814
-0.00656512
-0.17828
0.171031
0.00195405
-0.026658
0.0247039
-0.0817108
0.084911
-0.00320018
0.0230176
-0.0331316
-0.385363
0.395477
0.0424016
-0.0501992
-0.506234
0.514032
0.0593345
-0.0691035
-0.604384
0.614153
0.0799189
-0.0895593
-0.712666
0.722307
0.100271
-0.10972
-0.837298
0.846748
0.11953
-0.127933
-0.980615
0.989018
0.136287
-0.142974
-1.14426
1.15094
0.148923
-0.152801
-1.33057
1.33444
0.154839
-0.154158
-1.54251
1.54183
0.150623
-0.144621
-1.49304
1.48704
0.137569
-0.128598
-1.21271
1.20374
0.119798
-0.109213
-0.991211
0.980627
0.0994631
-0.0886944
-0.8137
0.802931
0.0790119
-0.0686764
-0.670268
0.659932
0.0593354
-0.0497893
-0.552917
0.543371
0.0415107
-0.0320354
-0.449791
0.440316
0.0232296
-0.0141008
-0.327729
0.318601
0.00719394
-0.00225566
-0.164431
0.159493
0.000125139
-0.0228459
0.0227207
-0.0924602
0.0886893
0.00377089
5.09186e-05
-0.00562204
-0.408729
0.4143
0.0129779
-0.0198314
-0.526149
0.533002
0.0285728
-0.0370857
-0.624121
0.632634
0.0468018
-0.055667
-0.7319
0.740765
0.0651379
-0.0737198
-0.855797
0.864379
0.0826557
-0.0900475
-0.997222
1.00461
0.0976077
-0.103337
-1.15758
1.16331
0.108416
-0.111476
-1.33816
1.34122
0.112524
-0.111172
-1.54047
1.53912
0.107148
-0.100867
-1.48039
1.47411
0.093545
-0.0845292
-1.19443
1.18542
0.0758445
-0.0659119
-0.969939
0.960006
0.0566034
-0.0462655
-0.7916
0.781262
0.0369846
-0.0274296
-0.648067
0.638512
0.0192271
-0.0107922
-0.5314
0.522965
0.00356351
0.00311599
-0.428526
0.421846
-0.00746717
0.0095186
-0.308068
0.306017
-0.0088735
0.00582631
-0.152742
0.155789
-0.00246294
-0.0210797
0.0235427
-0.0910195
0.0872136
0.00380587
-0.00740812
0.00509481
-0.423912
0.426225
-0.000639442
-0.00491314
-0.542936
0.548488
0.0120698
-0.0193219
-0.641355
0.648607
0.0275459
-0.0350895
-0.749112
0.756656
0.043369
-0.0507545
-0.872293
0.879679
0.0582753
-0.0648767
-1.01187
1.01847
0.0714866
-0.0766516
-1.16876
1.17392
0.0808778
-0.083293
-1.34384
1.34626
0.0841345
-0.082653
-1.53737
1.53589
0.078779
-0.0729663
-1.46761
1.4618
0.0664126
-0.0586597
-1.17675
1.16899
0.0509768
-0.0425679
-0.950304
0.941895
0.0348247
-0.0263955
-0.771666
0.763236
0.0191725
-0.0117955
-0.628846
0.621468
0.00573992
0.000361148
-0.513274
0.507173
-0.00504075
0.00891867
-0.413107
0.409229
-0.0108371
0.0104323
-0.299739
0.300144
-0.00808296
0.00473461
-0.154653
0.158001
-0.00186634
-0.0236905
0.0255568
-0.0881687
0.0845893
0.00357939
-0.00991792
0.00947365
-0.433274
0.433718
-0.00675445
0.00223398
-0.556049
0.56057
0.00395647
-0.0099757
-0.655619
0.661638
0.0169514
-0.0233746
-0.763933
0.770356
0.030392
-0.0366851
-0.886649
0.892942
0.0434709
-0.0490791
-1.02469
1.0303
0.0549428
-0.0591566
-1.1788
1.18301
0.0629703
-0.065182
-1.34867
1.35088
0.0658859
-0.0643782
-1.53432
1.53281
0.0611386
-0.0562899
-1.45594
1.45109
0.0507972
-0.0440763
-1.1616
1.15487
0.0378237
-0.0310998
-0.933901
0.927177
0.0248631
-0.0184419
-0.75556
0.749139
0.0126555
-0.00698406
-0.613999
0.608328
0.00236261
0.00189382
-0.500115
0.495859
-0.0049142
0.00722687
-0.402763
0.400451
-0.00815148
0.00705765
-0.295536
0.29663
-0.00525187
0.00299524
-0.157063
0.15932
-0.00120396
-0.0253378
0.0265418
-0.0854765
0.0825768
0.00289976
-0.00983267
0.0105241
-0.439212
0.438521
-0.00842244
0.00481261
-0.566909
0.570519
0.000206772
-0.00556125
-0.667628
0.672983
0.0113808
-0.016984
-0.776388
0.781992
0.0230191
-0.0284585
-0.898891
0.904331
0.0342826
-0.0393272
-1.03583
1.04087
0.0443902
-0.048397
-1.18718
1.19119
0.0518667
-0.0539307
-1.35292
1.35499
0.0546842
-0.0534641
-1.53142
1.5302
0.0507658
-0.0465325
-1.44601
1.44178
0.0419145
-0.0364109
-1.14859
1.14309
0.0312222
-0.0255484
-0.920681
0.915008
0.0205084
-0.0152556
-0.742961
0.737709
0.0107468
-0.00626891
-0.602713
0.598235
0.00274892
0.000414818
-0.490531
0.487368
-0.0027622
0.00441542
-0.395679
0.394026
-0.00491009
0.00437879
-0.292792
0.293323
-0.00338892
0.0019026
-0.157538
0.159024
-0.000857891
-0.0259107
0.0267686
-0.0834243
0.0810684
0.00235596
-0.00883073
0.00968548
-0.44306
0.442205
-0.00857233
0.00542865
-0.575362
0.578506
-0.000730542
-0.00378775
-0.677805
0.682324
0.00876809
-0.0136282
-0.787081
0.791941
0.0189824
-0.0238449
-0.909541
0.914403
0.0292105
-0.0336898
-1.04572
1.0502
0.0383312
-0.0420547
-1.195
1.19872
0.0452831
-0.0472798
-1.35692
1.35891
0.0481352
-0.0475597
-1.52912
1.52854
0.0452757
-0.041779
-1.43742
1.43392
0.0377584
-0.0329495
-1.13771
1.1329
0.0286355
-0.0236069
-0.909525
0.904496
0.019217
-0.0147977
-0.732655
0.728235
0.0109496
-0.0071214
-0.593834
0.590006
0.00406207
-0.00113998
-0.483182
0.48026
-0.000720432
0.00218414
-0.390066
0.388603
-0.00303067
0.00289623
-0.289677
0.289811
-0.00233593
0.00143082
-0.15667
0.157575
-0.000679723
-0.0258995
0.0265792
-0.0820103
0.0802181
0.00179216
-0.00730444
0.00827444
-0.445831
0.444861
-0.00720994
0.00469355
-0.582836
0.585352
-0.000497381
-0.00351903
-0.686618
0.690635
0.00821592
-0.0123975
-0.79661
0.800792
0.0171065
-0.0214471
-0.919332
0.923673
0.0265813
-0.0306983
-1.05478
1.0589
0.0349199
-0.0385619
-1.20237
1.20601
0.0420754
-0.0440924
-1.36103
1.36305
0.045222
-0.0448475
-1.52772
1.52734
0.0432159
-0.039926
-1.43036
1.42707
0.0364761
-0.0322843
-1.12809
1.1239
0.0282743
-0.0238849
-0.899642
0.895252
0.0198511
-0.0156413
-0.723684
0.719474
0.0123264
-0.00870747
-0.586022
0.582403
0.00573199
-0.00310216
-0.476593
0.473963
0.00113315
0.000555856
-0.385144
0.383455
-0.00146994
0.00166841
-0.286459
0.28626
-0.00148352
0.00100744
-0.155108
0.155584
-0.000535503
-0.0256122
0.0261477
-0.0812625
0.0798715
0.00139101
-0.00579837
0.00674783
-0.447996
0.447047
-0.00565908
0.00326477
-0.589308
0.591703
0.000502301
-0.00406163
-0.694488
0.698047
0.00808513
-0.012118
-0.805084
0.809117
0.0164799
-0.0209723
-0.927909
0.932402
0.025438
-0.0294151
-1.06319
1.06717
0.0338071
-0.0372738
-1.20963
1.2131
0.0404263
-0.0429424
-1.36508
1.36759
0.0443722
-0.0444024
-1.52709
1.52712
0.0430514
-0.0403903
-1.42401
1.42135
0.0372722
-0.0333713
-1.11943
1.11552
0.0296719
-0.0254926
-0.890752
0.886573
0.0216651
-0.0177758
-0.71531
0.711421
0.0142809
-0.0108149
-0.578591
0.575126
0.00797463
-0.00513324
-0.470565
0.467723
0.00297748
-0.0013693
-0.38009
0.378482
0.000209112
0.000431466
-0.282921
0.282281
-0.000703985
0.000629453
-0.153088
0.153163
-0.000424857
-0.0251341
0.0255589
-0.0811248
0.079953
0.00117181
-0.00423925
0.00485875
-0.450029
0.449409
-0.00390527
0.00160156
-0.59519
0.597494
0.00173918
-0.0051387
-0.701762
0.705162
0.00898548
-0.0126352
-0.813085
0.816734
0.0171093
-0.0208464
-0.936404
0.940141
0.0252808
-0.0291085
-1.07135
1.07518
0.0334349
-0.0371401
-1.21664
1.22034
0.0406386
-0.0430291
-1.36999
1.37238
0.0448854
-0.045362
-1.52714
1.52762
0.044654
-0.0422741
-1.41856
1.41618
0.0394784
-0.0357898
-1.11165
1.10797
0.0322563
-0.0281132
-0.882121
0.877978
0.0244215
-0.0204277
-0.707251
0.703257
0.0169249
-0.0133382
-0.571393
0.567807
0.0102847
-0.00749619
-0.464319
0.46153
0.00510821
-0.00321228
-0.374941
0.373045
0.00170904
-0.000755161
-0.278954
0.278
0.000122737
0.000310796
-0.15052
0.150086
-0.000315394
-0.0244547
0.0247701
-0.0812814
0.0804312
0.000850198
-0.00294324
0.0030053
-0.452276
0.452214
-0.00219488
-3.91792e-05
-0.600295
0.602529
0.0029608
-0.00619479
-0.708482
0.711716
0.0098498
-0.0136033
-0.820352
0.824106
0.0174815
-0.0213646
-0.94412
0.948003
0.0257644
-0.0294026
-1.07946
1.0831
0.0338424
-0.0375601
-1.22394
1.22766
0.0411882
-0.0441565
-1.37528
1.37825
0.0465571
-0.0473752
-1.52823
1.52905
0.0469135
-0.04516
-1.41393
1.41217
0.0427723
-0.0392288
-1.10407
1.10053
0.035686
-0.0317374
-0.873653
0.869705
0.0276782
-0.0237428
-0.698923
0.694987
0.0201439
-0.0163405
-0.564121
0.560318
0.0132654
-0.0101405
-0.457864
0.45474
0.00760328
-0.00521869
-0.369677
0.367292
0.00351426
-0.00212528
-0.274557
0.273168
0.000947883
-6.92625e-05
-0.147407
0.146528
-0.000223646
-0.023543
0.0237667
-0.0818295
0.0811254
0.000704177
-0.00192486
0.00195012
-0.45479
0.454765
-0.000579188
-0.001323
-0.605398
0.6073
0.0043098
-0.00737353
-0.714653
0.717717
0.0108456
-0.0141927
-0.827618
0.830965
0.0181636
-0.0217288
-0.951913
0.955478
0.0260722
-0.030131
-1.08721
1.09126
0.034246
-0.0383117
-1.23147
1.23554
0.0424099
-0.0455586
-1.38123
1.38438
0.0484327
-0.0500795
-1.53022
1.53186
0.0500963
-0.0489125
-1.4103
1.40912
0.0466322
-0.043352
-1.09693
1.09365
0.0399808
-0.0359016
-0.865258
0.861179
0.0319018
-0.0277344
-0.690445
0.686278
0.0239624
-0.019869
-0.556229
0.552135
0.0164622
-0.0131614
-0.451024
0.447723
0.0102112
-0.00750253
-0.36377
0.361061
0.00538255
-0.00349614
-0.269513
0.267627
0.00192959
-0.000562605
-0.143717
0.14235
-7.47395e-05
-0.0224597
0.0225345
-0.0826151
0.0820617
0.000553435
-0.000882264
0.000654327
-0.457469
0.457697
0.000558438
-0.00259053
-0.610019
0.612051
0.00542196
-0.00828567
-0.720509
0.723372
0.0117938
-0.0149694
-0.834341
0.837517
0.018763
-0.0224178
-0.959513
0.963168
0.0266519
-0.0306716
-1.0952
1.09922
0.0350081
-0.039125
-1.23957
1.24369
0.0434561
-0.0474049
-1.38789
1.39184
0.0508419
-0.0529103
-1.53361
1.53568
0.0536789
-0.0528402
-1.40793
1.4071
0.0510685
-0.0481916
-1.09027
1.08739
0.0447309
-0.0406429
-0.856725
0.852637
0.0365728
-0.0320822
-0.681611
0.677121
0.0281847
-0.0237784
-0.54797
0.543563
0.0201193
-0.0163431