/*--------------------------------*- C++ -*----------------------------------*\
  =========                 |
  \\      /  F ield         | OpenFOAM: The Open Source CFD Toolbox
   \\    /   O peration     | Website:  https://openfoam.org
    \\  /    A nd           | Version:  6
     \\/     M anipulation  |
\*---------------------------------------------------------------------------*/
FoamFile
{
    version     2.0;
    format      ascii;
    class       volVectorField;
    location    "113.1";
    object      U;
}
// * * * * * * * * * * * * * * * * * * * * * * * * * * * * * * * * * * * * * //

dimensions      [0 1 -1 0 0 0 0];

internalField   nonuniform List<vector> 
8800
(
(0.987183 -0.0766652 0)
(1.00189 -0.0551903 0)
(0.99972 -0.0285484 0)
(1.00003 -0.0151442 0)
(1.0001 -0.00854682 0)
(1.00013 -0.00505016 0)
(1.00008 -0.00300404 0)
(1.00002 -0.00170179 0)
(0.99999 -0.000794045 0)
(1.00006 -7.43933e-05 0)
(0.999967 0.000660296 0)
(1.00003 0.00142437 0)
(1.00007 0.00242417 0)
(1.00007 0.00399672 0)
(1.00006 0.00663182 0)
(1.00006 0.0113717 0)
(0.999966 0.0208157 0)
(0.999178 0.0386703 0)
(1.0071 0.0724575 0)
(0.771215 0.0366618 0)
(0.363083 -0.016016 0)
(1.04332 -0.0768092 0)
(1.08459 -0.0704361 0)
(1.04519 -0.0535293 0)
(1.0233 -0.0388801 0)
(1.01204 -0.0262018 0)
(1.00644 -0.0168371 0)
(1.0036 -0.0102986 0)
(1.00215 -0.00563146 0)
(1.00143 -0.00196626 0)
(1.00128 0.00136039 0)
(1.00169 0.00475052 0)
(1.00271 0.0086599 0)
(1.00468 0.0139807 0)
(1.00861 0.0216897 0)
(1.01658 0.0326556 0)
(1.03252 0.0465663 0)
(1.06269 0.0616821 0)
(1.09186 0.0761076 0)
(0.838662 0.0565654 0)
(0.216884 -0.00242821 0)
(1.07593 -0.050117 0)
(1.09989 -0.0482831 0)
(1.06466 -0.0404308 0)
(1.04006 -0.033568 0)
(1.02394 -0.0260396 0)
(1.01414 -0.0184442 0)
(1.00857 -0.0116095 0)
(1.00558 -0.00572766 0)
(1.0043 -0.000299357 0)
(1.00465 0.00495673 0)
(1.00664 0.0103404 0)
(1.01064 0.0163908 0)
(1.01794 0.0234111 0)
(1.03053 0.0308717 0)
(1.05063 0.0378926 0)
(1.08038 0.0445711 0)
(1.10627 0.0513774 0)
(0.942484 0.0416343 0)
(0.216103 0.00246345 0)
(0.175238 -0.000814519 0)
(1.01778 -0.0354553 0)
(1.10524 -0.0413334 0)
(1.0783 -0.036008 0)
(1.05352 -0.0300648 0)
(1.03625 -0.0244767 0)
(1.02404 -0.0187287 0)
(1.0159 -0.0126265 0)
(1.01102 -0.0064184 0)
(1.00879 -6.75519e-05 0)
(1.00936 0.00620092 0)
(1.01269 0.012188 0)
(1.01889 0.0179693 0)
(1.02875 0.0235358 0)
(1.04317 0.028827 0)
(1.0637 0.0342952 0)
(1.09356 0.0402698 0)
(1.09338 0.0420158 0)
(0.827004 0.0229385 0)
(0.173921 0.000855588 0)
(0.154073 -0.000608104 0)
(0.956371 -0.0254174 0)
(1.10355 -0.0350584 0)
(1.08775 -0.0325656 0)
(1.06181 -0.0278999 0)
(1.04419 -0.0228573 0)
(1.03171 -0.0175827 0)
(1.02284 -0.0120206 0)
(1.01699 -0.00605691 0)
(1.0141 0.000434384 0)
(1.01476 0.00691283 0)
(1.01881 0.0127802 0)
(1.0258 0.0180078 0)
(1.03604 0.0229132 0)
(1.05059 0.0276571 0)
(1.07183 0.032166 0)
(1.10004 0.0360834 0)
(1.06796 0.0341139 0)
(0.739243 0.0143488 0)
(0.152084 0.000654805 0)
(0.139748 -0.000463931 0)
(0.899621 -0.0190215 0)
(1.09595 -0.0299799 0)
(1.09586 -0.0290635 0)
(1.06938 -0.0253131 0)
(1.05094 -0.0211475 0)
(1.03799 -0.0163374 0)
(1.02885 -0.0110102 0)
(1.02268 -0.00522997 0)
(1.01949 0.00112634 0)
(1.02009 0.00745887 0)
(1.02425 0.0130719 0)
(1.03134 0.0179558 0)
(1.04179 0.0224055 0)
(1.05689 0.0263505 0)
(1.07909 0.029783 0)
(1.10218 0.0323842 0)
(1.03571 0.0282356 0)
(0.672466 0.0102584 0)
(0.136932 0.000517835 0)
(0.129267 -0.000358004 0)
(0.85024 -0.0146428 0)
(1.08369 -0.0258127 0)
(1.10161 -0.0260664 0)
(1.0763 -0.0227541 0)
(1.05732 -0.0190755 0)
(1.04391 -0.0147811 0)
(1.0344 -0.00980507 0)
(1.02798 -0.0042249 0)
(1.02458 0.00196107 0)
(1.02501 0.00808638 0)
(1.02912 0.0134175 0)
(1.0363 0.017875 0)
(1.047 0.021716 0)
(1.0625 0.0249894 0)
(1.08514 0.0278936 0)
(1.10118 0.0296126 0)
(1.00055 0.0237607 0)
(0.62035 0.00790868 0)
(0.125443 0.000421438 0)
(0.121298 -0.000276663 0)
(0.808374 -0.0114657 0)
(1.06861 -0.0221615 0)
(1.10525 -0.0233719 0)
(1.08263 -0.0204634 0)
(1.06324 -0.0169892 0)
(1.04954 -0.012989 0)
(1.03974 -0.00833692 0)
(1.03302 -0.00301543 0)
(1.02934 0.00296284 0)
(1.02957 0.0088471 0)
(1.03363 0.0138242 0)
(1.04083 0.0177932 0)
(1.05162 0.0211232 0)
(1.06732 0.0239778 0)
(1.09029 0.0265729 0)
(1.09724 0.0273803 0)
(0.964943 0.0202704 0)
(0.578329 0.00639181 0)
(0.116248 0.000352131 0)
(0.115157 -0.00021264 0)
(0.773256 -0.00908071 0)
(1.0521 -0.0189347 0)
(1.10776 -0.0208617 0)
(1.0886 -0.0183128 0)
(1.06882 -0.0149704 0)
(1.05487 -0.0111168 0)
(1.04486 -0.00665884 0)
(1.03787 -0.00156226 0)
(1.03388 0.00417623 0)
(1.03386 0.00976952 0)
(1.03778 0.014364 0)
(1.04488 0.0178953 0)
(1.05563 0.0208341 0)
(1.07152 0.0233544 0)
(1.09413 0.0255919 0)
(1.0904 0.0255637 0)
(0.930153 0.0176015 0)
(0.54337 0.00536599 0)
(0.108616 0.000302896 0)
(0.110412 -0.000160781 0)
(0.743955 -0.00722015 0)
(1.03526 -0.0160602 0)
(1.10938 -0.0184784 0)
(1.09431 -0.0162217 0)
(1.07424 -0.0129557 0)
(1.06001 -0.00917303 0)
(1.04979 -0.00481669 0)
(1.04255 0.000125707 0)
(1.03824 0.00563902 0)
(1.03788 0.0109295 0)
(1.04155 0.0151567 0)
(1.04846 0.0182973 0)
(1.05914 0.0208878 0)
(1.07521 0.0231069 0)
(1.09664 0.0249505 0)
(1.08102 0.0241221 0)
(0.896718 0.0156057 0)
(0.513401 0.00466246 0)
(0.10206 0.00026906 0)
(0.106783 -0.000117285 0)
(0.719666 -0.00570933 0)
(1.01891 -0.013465 0)
(1.11022 -0.0161571 0)
(1.09994 -0.0141545 0)
(1.07961 -0.0108816 0)
(1.06508 -0.00710669 0)
(1.05462 -0.00278875 0)
(1.04709 0.00206264 0)
(1.0424 0.00739695 0)
(1.04163 0.0124123 0)
(1.04497 0.0162948 0)
(1.05163 0.0190607 0)
(1.06221 0.0213139 0)
(1.07844 0.0232533 0)
(1.09773 0.0246639 0)
(1.06945 0.0230572 0)
(0.864717 0.0141681 0)
(0.486942 0.00419153 0)
(0.0962338 0.000247622 0)
(0.104085 -7.91365e-05 0)
(0.699762 -0.00443126 0)
(1.0037 -0.0110799 0)
(1.11046 -0.0138604 0)
(1.10546 -0.0120251 0)
(1.08502 -0.0086922 0)
(1.07016 -0.00486203 0)
(1.05941 -0.00051784 0)
(1.05154 0.00430419 0)
(1.04638 0.00951382 0)
(1.04511 0.0142913 0)
(1.04804 0.0178463 0)
(1.0544 0.0202433 0)
(1.06485 0.0221658 0)
(1.08118 0.0238266 0)
(1.09772 0.0248914 0)
(1.05592 0.0223891 0)
(0.833938 0.0132077 0)
(0.462869 0.00389947 0)
(0.0908689 0.000236234 0)
(0.102206 -4.35953e-05 0)
(0.68379 -0.00329779 0)
(0.990087 -0.00883234 0)
(1.11034 -0.011499 0)
(1.11086 -0.00974801 0)
(1.09054 -0.006323 0)
(1.07534 -0.00237244 0)
(1.06424 0.00206835 0)
(1.05594 0.0069278 0)
(1.05023 0.0120691 0)
(1.04834 0.016645 0)
(1.05079 0.019886 0)
(1.05678 0.0219133 0)
(1.06706 0.0235027 0)
(1.0834 0.0248652 0)
(1.09679 0.0254539 0)
(1.04052 0.0221274 0)
(0.803988 0.0126484 0)
(0.440283 0.00374777 0)
(0.0857542 0.000232735 0)
(0.101087 -8.3283e-06 0)
(0.671466 -0.00223812 0)
(0.978449 -0.0066458 0)
(1.11018 -0.00901463 0)
(1.11628 -0.00726097 0)
(1.09629 -0.00369531 0)
(1.08069 0.000444943 0)
(1.06918 0.00505639 0)
(1.06037 0.0100252 0)
(1.05397 0.0151575 0)
(1.05135 0.0195671 0)
(1.05322 0.0225042 0)
(1.05878 0.0241645 0)
(1.06885 0.0254126 0)
(1.08516 0.0264761 0)
(1.09449 0.026527 0)
(1.02327 0.0222815 0)
(0.774376 0.0124465 0)
(0.41845 0.00371253 0)
(0.0807215 0.000235863 0)
(0.100723 2.86862e-05 0)
(0.662657 -0.00119534 0)
(0.969115 -0.00444573 0)
(1.11032 -0.00634577 0)
(1.12186 -0.00448941 0)
(1.10233 -0.000719229 0)
(1.08631 0.0036864 0)
(1.07432 0.00854766 0)
(1.06488 0.013704 0)
(1.05767 0.0188918 0)
(1.05415 0.0231717 0)
(1.05532 0.0258175 0)
(1.06038 0.0271117 0)
(1.07018 0.0279961 0)
(1.08634 0.0287192 0)
(1.09071 0.0281325 0)
(1.00403 0.0228982 0)
(0.744539 0.0125784 0)
(0.396733 0.00378053 0)
(0.0756272 0.000244879 0)
(0.101138 6.33927e-05 0)
(0.657362 -0.000112006 0)
(0.962401 -0.00215508 0)
(1.11113 -0.00342438 0)
(1.1278 -0.00134718 0)
(1.1088 0.00270794 0)
(1.0923 0.00746427 0)
(1.07973 0.0126635 0)
(1.06954 0.0180919 0)
(1.06134 0.0234045 0)
(1.05676 0.0275911 0)
(1.0571 0.0299635 0)
(1.06156 0.0308794 0)
(1.07102 0.0313786 0)
(1.08666 0.0317199 0)
(1.08514 0.0303646 0)
(0.98254 0.0240171 0)
(0.713839 0.0130287 0)
(0.374548 0.00394136 0)
(0.0703447 0.00025882 0)
(0.102403 0.000120379 0)
(0.655749 0.00106376 0)
(0.958638 0.000305481 0)
(1.113 -0.000170305 0)
(1.13428 0.00226721 0)
(1.11581 0.0067075 0)
(1.09879 0.0119137 0)
(1.08553 0.0175523 0)
(1.07443 0.0233472 0)
(1.06504 0.0288561 0)
(1.05917 0.0329835 0)
(1.05853 0.0350933 0)
(1.06228 0.0356067 0)
(1.07133 0.0356981 0)
(1.08594 0.0356183 0)
(1.0775 0.0333112 0)
(0.958387 0.0256774 0)
(0.681569 0.0137858 0)
(0.351345 0.00418457 0)
(0.0647647 0.000276581 0)
(0.104656 0.000170729 0)
(0.657873 0.00221693 0)
(0.958199 0.00303111 0)
(1.11639 0.00352724 0)
(1.14154 0.00647297 0)
(1.12353 0.0114248 0)
(1.10591 0.0171983 0)
(1.09183 0.0233926 0)
(1.07962 0.029657 0)
(1.06879 0.0354347 0)
(1.0614 0.0395273 0)
(1.05961 0.0413519 0)
(1.06249 0.0414564 0)
(1.07105 0.0411162 0)
(1.08398 0.0404854 0)
(1.06741 0.0370791 0)
(0.931001 0.0279235 0)
(0.646964 0.0148382 0)
(0.326619 0.00449826 0)
(0.0587998 0.000296814 0)
(0.108053 0.000236046 0)
(0.6645 0.00370474 0)
(0.9614 0.00600824 0)
(1.12177 0.00779729 0)
(1.14985 0.0114033 0)
(1.13215 0.0170442 0)
(1.11383 0.0235246 0)
(1.09874 0.0304087 0)
(1.08518 0.0372524 0)
(1.07263 0.0433652 0)
(1.06343 0.0474303 0)
(1.06032 0.0489751 0)
(1.06217 0.0486215 0)
(1.07012 0.0478122 0)
(1.08076 0.0465386 0)
(1.05435 0.0417913 0)
(0.899628 0.0307866 0)
(0.6092 0.0161599 0)
(0.299911 0.00486384 0)
(0.0523895 0.000317492 0)
(0.112862 0.000324924 0)
(0.676039 0.00547387 0)
(0.968824 0.00953411 0)
(1.12967 0.0128114 0)
(1.15953 0.0172786 0)
(1.14191 0.0238092 0)
(1.12274 0.0311615 0)
(1.10642 0.0388847 0)
(1.0912 0.0464176 0)
(1.07656 0.0529133 0)
(1.06523 0.0569297 0)
(1.06053 0.0581749 0)
(1.06126 0.0573081 0)
(1.06849 0.0559886 0)
(1.07619 0.0539569 0)
(1.03763 0.0475504 0)
(0.863314 0.034262 0)
(0.567414 0.0176963 0)
(0.270854 0.00525071 0)
(0.0455151 0.000335713 0)
(0.119454 0.000443238 0)
(0.69327 0.00768475 0)
(0.981334 0.0138414 0)
(1.14065 0.0188023 0)
(1.171 0.0243737 0)
(1.15311 0.0320468 0)
(1.13287 0.0404661 0)
(1.11499 0.0491865 0)
(1.09772 0.0575018 0)
(1.08057 0.064386 0)
(1.06675 0.0682853 0)
(1.06013 0.0691249 0)
(1.05973 0.0677264 0)
(1.06624 0.0658435 0)
(1.06989 0.0629253 0)
(1.01631 0.0544143 0)
(0.8209 0.038285 0)
(0.52078 0.0193432 0)
(0.239248 0.00561199 0)
(0.0382193 0.000347685 0)
(0.128361 0.000608449 0)
(0.717203 0.0105705 0)
(0.999794 0.0192158 0)
(1.15539 0.0261226 0)
(1.18473 0.0330678 0)
(1.16611 0.0422215 0)
(1.14444 0.051931 0)
(1.12455 0.061799 0)
(1.10474 0.0709374 0)
(1.08458 0.0781366 0)
(1.06788 0.0817704 0)
(1.05914 0.0820824 0)
(1.05752 0.0800702 0)
(1.063 0.0775419 0)
(1.06123 0.0734415 0)
(0.989115 0.0623783 0)
(0.771038 0.0426766 0)
(0.468623 0.0209246 0)
(0.205169 0.00588228 0)
(0.0306265 0.000348976 0)
(0.140408 0.000851105 0)
(0.749233 0.0145252 0)
(1.02529 0.0261159 0)
(1.17467 0.0353224 0)
(1.20139 0.0440048 0)
(1.18131 0.0550254 0)
(1.15768 0.066255 0)
(1.13516 0.0773619 0)
(1.11216 0.087248 0)
(1.08845 0.0945468 0)
(1.0685 0.0976545 0)
(1.05745 0.0972629 0)
(1.05466 0.0945978 0)
(1.05844 0.0913497 0)
(1.04928 0.0856973 0)
(0.954394 0.0712577 0)
(0.712294 0.0470875 0)
(0.410652 0.0221767 0)
(0.169103 0.00598081 0)
(0.0229591 0.000335242 0)
(0.156925 0.00123085 0)
(0.791381 0.0201988 0)
(1.05949 0.0353359 0)
(1.1995 0.0473845 0)
(1.22188 0.0585672 0)
(1.19909 0.0715424 0)
(1.17266 0.0844437 0)
(1.14667 0.0966999 0)
(1.11973 0.107036 0)
(1.0919 0.114004 0)
(1.06839 0.116175 0)
(1.05494 0.114837 0)
(1.05108 0.111414 0)
(1.05251 0.107425 0)
(1.03272 0.0996018 0)
(0.910001 0.080614 0)
(0.643395 0.0509469 0)
(0.347294 0.0227579 0)
(0.132078 0.00582645 0)
(0.0155375 0.000303485 0)
(0.180198 0.00189111 0)
(0.846907 0.028777 0)
(1.1053 0.0484932 0)
(1.23091 0.064142 0)
(1.24664 0.0783713 0)
(1.21957 0.093471 0)
(1.18914 0.107879 0)
(1.15865 0.120805 0)
(1.12701 0.130933 0)
(1.09457 0.136859 0)
(1.06727 0.137507 0)
(1.05141 0.134889 0)
(1.04657 0.130579 0)
(1.04488 0.125585 0)
(1.00956 0.114795 0)
(0.853325 0.0896434 0)
(0.563786 0.0534527 0)
(0.280186 0.0223138 0)
(0.0957292 0.00536386 0)
(0.00875771 0.000252487 0)
(0.213769 0.00335459 0)
(0.921719 0.0430617 0)
(1.16572 0.069538 0)
(1.26926 0.0890985 0)
(1.27556 0.106608 0)
(1.24214 0.123286 0)
(1.20627 0.138241 0)
(1.17027 0.150694 0)
(1.13332 0.159485 0)
(1.09597 0.163362 0)
(1.06485 0.161744 0)
(1.04666 0.15743 0)
(1.04098 0.152094 0)
(1.03459 0.145811 0)
(0.9769 0.130535 0)
(0.781545 0.0970367 0)
(0.474814 0.0537049 0)
(0.212853 0.0206726 0)
(0.0623507 0.00460427 0)
(0.00308773 0.000182587 0)
(0.259593 0.00990118 1.64266e-20)
(1.01954 0.0713544 1.39637e-20)
(1.23819 0.10539 -4.79944e-21)
(1.31182 0.126427 0)
(1.30562 0.147105 -1.14432e-34)
(1.26451 0.16343 1.65299e-21)
(1.22246 0.17709 -2.8623e-21)
(1.18048 0.187609 0)
(1.13792 0.193989 5.65205e-35)
(1.09542 0.195075 -3.3274e-21)
(1.06032 0.190818 0)
(1.04008 0.184926 -3.87249e-21)
(1.03439 0.179309 -1.13773e-20)
(1.01904 0.171655 -5.36869e-21)
(0.928071 0.14848 -1.60595e-21)
(0.686024 0.102571 -9.51083e-22)
(0.372076 0.0513251 0)
(0.145195 0.0181198 6.64261e-22)
(0.0320759 0.0036603 7.86677e-22)
(-0.0015799 6.09801e-05 1.44038e-20)
(0.291909 0.0258425 1.33676e-20)
(1.10114 0.116166 1.21483e-22)
(1.298 0.156435 1.33992e-21)
(1.35085 0.177629 0)
(1.33238 0.198212 -5.96891e-21)
(1.28422 0.212554 -6.64178e-21)
(1.23613 0.224128 -2.92537e-21)
(1.18827 0.232484 -1.00473e-20)
(1.14006 0.236585 0)
(1.09227 0.235217 1.40947e-20)
(1.05297 0.228703 1.38139e-20)
(1.02983 0.221229 4.06109e-21)
(1.02124 0.215053 1.4688e-20)
(0.988397 0.202493 2.05517e-20)
(0.845951 0.166389 0)
(0.55257 0.104774 2.87477e-20)
(0.256138 0.0467257 4.11864e-20)
(0.0791602 0.0143185 4.58177e-20)
(0.00461824 0.00163559 -5.25516e-20)
(-0.00555312 -0.000458974 -1.00322e-21)
(0.294386 0.044215 0)
(1.15439 0.173956 2.62426e-21)
(1.33978 0.218842 0)
(1.3818 0.240012 -8.66175e-21)
(1.354 0.257256 0)
(1.29992 0.267732 -1.33347e-20)
(1.24622 0.275684 6.02098e-21)
(1.19284 0.280685 -2.04584e-20)
(1.13938 0.28159 -3.3621e-22)
(1.08675 0.277107 7.29767e-21)
(1.04372 0.267981 3.00164e-20)
(1.0181 0.258767 -2.18212e-23)
(1.00538 0.250837 -1.05891e-20)
(0.95255 0.232088 -1.90894e-20)
(0.765093 0.180759 2.25393e-20)
(0.44878 0.103658 -3.98188e-20)
(0.184581 0.0418542 -5.22951e-21)
(0.0429216 0.0106615 0)
(-0.00920009 -0.00061223 -3.08822e-24)
(-0.00731986 -0.00103854 0)
(0.288262 0.0595657 4.26361e-20)
(1.18475 0.235667 -1.93904e-20)
(1.36689 0.286138 -1.31712e-20)
(1.40296 0.307518 4.27836e-21)
(1.36888 0.320595 -7.03124e-21)
(1.31043 0.326504 2.7936e-20)
(1.25221 0.33007 1.25554e-20)
(1.19417 0.330967 0)
(1.13617 0.328017 -3.71519e-20)
(1.07932 0.319888 0)
(1.03308 0.307839 -1.56926e-20)
(1.00523 0.296657 -1.91111e-20)
(0.987639 0.286142 -1.14117e-20)
(0.914913 0.259462 -1.37372e-20)
(0.692744 0.192318 0)
(0.373222 0.102482 0)
(0.138392 0.0382384 -3.37291e-20)
(0.0203917 0.00727414 6.64956e-21)
(-0.0176947 -0.00296854 -3.92777e-21)
(-0.00837504 -0.0016415 -4.6521e-21)
(0.280459 0.0729422 -2.26645e-20)
(1.19953 0.297327 0)
(1.38288 0.354438 2.95343e-20)
(1.41542 0.376199 1.25944e-20)
(1.37706 0.385199 1.56683e-20)
(1.3155 0.386503 0)
(1.25387 0.385524 1.25212e-20)
(1.19215 0.382049 2.25787e-20)
(1.13043 0.374911 1.91195e-20)
(1.07004 0.362822 3.36469e-20)
(1.02106 0.347644 0)
(0.991176 0.334309 -4.08176e-20)
(0.968262 0.32049 -2.43785e-20)
(0.876969 0.284833 -1.43684e-20)
(0.63016 0.202113 8.69534e-20)
(0.318087 0.101779 1.02652e-20)
(0.106936 0.0352396 4.83566e-20)
(0.00480696 0.00388094 -2.28523e-19)
(-0.0237582 -0.00545081 1.35352e-19)
(-0.00914993 -0.00225999 -1.65229e-19)
(0.272549 0.0849013 -1.78658e-20)
(1.20405 0.356853 4.2569e-21)
(1.39057 0.421702 -3.85526e-21)
(1.42089 0.444129 -1.49388e-20)
(1.37951 0.44928 -1.4475e-20)
(1.31569 0.446115 3.53175e-22)
(1.25147 0.440679 -1.34481e-20)
(1.18687 0.432837 2.33544e-20)
(1.12215 0.421426 -4.07964e-20)
(1.05885 0.405258 0)
(1.00759 0.386849 -1.85899e-20)
(0.975864 0.371252 -3.04066e-22)
(0.947479 0.35364 -2.64246e-20)
(0.83971 0.308289 0)
(0.576712 0.210528 -1.86803e-20)
(0.276749 0.101475 -4.40539e-20)
(0.08386 0.0324619 1.16928e-19)
(-0.00689718 0.000378263 -1.15137e-19)
(-0.0284001 -0.00802251 1.63663e-19)
(-0.00973652 -0.00288007 -1.72218e-19)
(0.265418 0.0957796 -1.20505e-22)
(1.20179 0.413426 -3.52632e-21)
(1.39213 0.486818 -1.41253e-20)
(1.42081 0.510168 6.97645e-21)
(1.37727 0.511794 -7.41896e-21)
(1.31179 0.504386 0)
(1.24557 0.494674 -1.30163e-20)
(1.17868 0.482578 -2.44719e-20)
(1.11152 0.466936 -2.12609e-20)
(1.04584 0.446672 0)
(0.992712 0.424999 -1.91546e-20)
(0.959382 0.407062 -2.33357e-20)
(0.925645 0.385324 2.83812e-20)
(0.803713 0.329797 -1.70805e-20)
(0.531014 0.217883 -8.03548e-20)
(0.244457 0.101419 4.73556e-20)
(0.0657072 0.0297133 1.39605e-20)
(-0.0163951 -0.00326067 0)
(-0.0321734 -0.0106481 -1.5625e-19)
(-0.0101699 -0.00348499 -5.78714e-21)
(0.259282 0.105924 -1.79282e-21)
(1.19507 0.46681 3.13342e-21)
(1.38905 0.549203 7.22179e-21)
(1.41642 0.573643 2.32543e-20)
(1.37131 0.572098 -2.91484e-20)
(1.30462 0.560747 2.90671e-20)
(1.23683 0.547 2.78058e-20)
(1.16807 0.530818 -3.89891e-20)
(1.09889 0.511042 1.25938e-20)
(1.03122 0.486707 -8.13455e-20)
(0.976609 0.461752 -2.13483e-20)
(0.941921 0.441429 0)
(0.903114 0.415329 3.05131e-20)
(0.769171 0.349413 3.62515e-20)
(0.491541 0.224367 4.30388e-20)
(0.218081 0.101456 -5.08363e-20)
(0.0504299 0.0268788 -1.49858e-20)
(-0.024732 -0.00704814 1.768e-20)
(-0.0355255 -0.0133431 0)
(-0.0105094 -0.00407264 -1.24145e-20)
(0.254076 0.115386 1.39221e-20)
(1.18563 0.517013 -1.07884e-20)
(1.38267 0.608884 -7.28866e-21)
(1.40872 0.63421 1.53613e-20)
(1.36242 0.629813 -1.42311e-20)
(1.29487 0.614835 -8.65881e-22)
(1.22584 0.597348 -3.0073e-20)
(1.15553 0.577302 -1.4007e-20)
(1.08463 0.553515 -3.6559e-20)
(1.01529 0.525143 2.1247e-23)
(0.959512 0.496883 -6.66452e-20)
(0.923728 0.474103 5.51677e-20)
(0.88023 0.443475 -3.30926e-20)
(0.736176 0.367132 3.93494e-20)
(0.456995 0.230051 0)
(0.195702 0.101503 -2.72823e-20)
(0.0367685 0.0238954 2.34302e-23)
(-0.0326676 -0.0110571 -7.59602e-20)
(-0.038897 -0.0161884 -1.12375e-20)
(-0.010825 -0.00465745 0)
(0.249794 0.124442 0)
(1.17456 0.564258 -1.07534e-20)
(1.37377 0.665697 -1.3084e-20)
(1.39852 0.69171 -1.53733e-20)
(1.35131 0.684744 -1.6579e-20)
(1.28312 0.666464 0)
(1.21312 0.645539 -1.44159e-20)
(1.1415 0.62188 -2.53164e-22)
(1.06911 0.594249 7.80405e-20)
(0.998311 0.561875 -1.12022e-20)
(0.941613 0.530241 -4.78885e-20)
(0.904984 0.504899 2.87388e-20)
(0.857231 0.469612 -3.9196e-22)
(0.704866 0.382923 4.17773e-20)
(0.42648 0.234958 2.49932e-20)
(0.176159 0.101428 -5.847e-20)
(0.0241163 0.0206429 6.89105e-20)
(-0.0406912 -0.0154521 2.03621e-20)
(-0.0426827 -0.0193449 8.43963e-20)
(-0.0112417 -0.00529021 -2.28427e-19)
(0.24638 0.133259 1.42701e-21)
(1.16269 0.60872 -3.97883e-21)
(1.36309 0.719399 4.34141e-21)
(1.38651 0.746113 1.46754e-20)
(1.33857 0.736817 0)
(1.26992 0.715542 -1.4928e-20)
(1.19911 0.691489 4.76062e-20)
(1.12635 0.664487 3.09704e-20)
(1.05261 0.633203 0)
(0.980486 0.59687 -1.59647e-19)
(0.92304 0.561742 1.28661e-19)
(0.885813 0.533663 0)
(0.834324 0.493558 3.80945e-20)
(0.675279 0.396767 -2.95084e-22)
(0.399415 0.239029 -7.99799e-20)
(0.158848 0.101047 3.13067e-20)
(0.0122143 0.0169589 0)
(-0.0489252 -0.0203622 1.09115e-19)
(-0.047081 -0.022971 0)
(-0.0118715 -0.00604071 -1.07115e-19)
(0.243763 0.141846 -8.23836e-22)
(1.15055 0.650631 -2.5271e-21)
(1.35111 0.770066 5.03971e-21)
(1.3732 0.797452 0)
(1.32467 0.786047 -1.63205e-20)
(1.25568 0.762068 0)
(1.1842 0.735176 -4.83589e-20)
(1.11043 0.705109 -1.50147e-20)
(1.03542 0.670394 1.40322e-20)
(0.961994 0.630162 -7.89099e-20)
(0.90387 0.591374 1.33835e-20)
(0.86627 0.560287 0)
(0.81164 0.515166 -8.10404e-20)
(0.647458 0.408559 2.13917e-22)
(0.375459 0.242173 0)
(0.143499 0.100125 2.68116e-23)
(0.00111482 0.0126564 9.8901e-20)
(-0.0572036 -0.0258785 -9.34827e-20)
(-0.0520431 -0.0271487 2.76785e-20)
(-0.0127664 -0.00695868 0)
(0.241623 0.150184 0)
(1.13842 0.690202 -1.40142e-21)
(1.33829 0.817824 -3.40813e-21)
(1.35904 0.845813 -5.36453e-22)
(1.31002 0.832491 -7.21985e-21)
(1.24078 0.806079 -3.39262e-20)
(1.16872 0.776629 1.78342e-20)
(1.09402 0.743774 -1.72139e-20)
(1.01777 0.705871 6.19575e-20)
(0.942982 0.661837 -1.26325e-19)
(0.884134 0.619179 -7.56634e-22)
(0.846335 0.584696 -3.59527e-20)
(0.789193 0.534273 1.30745e-19)
(0.621449 0.418252 -3.15606e-22)
(0.354372 0.244284 -6.11526e-20)
(0.129965 0.0984292 -1.07873e-19)
(-0.0088879 0.0077315 0)
(-0.0650924 -0.0319472 0)
(-0.0572622 -0.0318361 2.96418e-20)
(-0.0138929 -0.00806094 -1.75663e-20)
(0.240139 0.158469 7.57092e-22)
(1.12649 0.727533 1.54973e-21)
(1.32501 0.862799 3.63414e-21)
(1.34438 0.891295 0)
(1.29494 0.876232 -3.13522e-22)
(1.22552 0.84764 -3.35501e-20)
(1.15296 0.815901 4.47932e-20)
(1.07739 0.780532 6.96613e-20)
(0.999876 0.739714 8.13133e-20)
(0.923602 0.692021 -1.03931e-19)
(0.863852 0.645274 -1.10549e-19)
(0.82591 0.60687 9.61728e-20)
(0.766949 0.55074 0)
(0.597238 0.425725 -2.79415e-20)
(0.335975 0.245272 -6.55183e-20)
(0.118213 0.0959624 -7.70031e-20)
(-0.0176181 0.00234937 -9.0743e-20)
(-0.0722055 -0.0383493 2.68177e-20)
(-0.0622915 -0.0368456 -1.58751e-20)
(-0.0151296 -0.00930766 1.05594e-23)
(0.238907 0.166536 0)
(1.11524 0.762561 0)
(1.31149 0.90511 5.1266e-22)
(1.32947 0.934013 0)
(1.27968 0.917379 2.19424e-20)
(1.21015 0.88684 2.49422e-20)
(1.13715 0.853061 0)
(1.06073 0.81545 8.6296e-21)
(0.981944 0.772001 1.37155e-19)
(0.904008 0.720861 -2.39361e-19)
(0.843039 0.669853 0)
(0.804845 0.626861 -6.20276e-20)
(0.744721 0.564387 -4.60301e-22)
(0.574768 0.430811 -2.35077e-22)
(0.320235 0.245079 7.00786e-20)
(0.108409 0.0931447 -1.7051e-24)
(-0.0251547 -0.00257126 -1.94383e-19)
(-0.0788583 -0.0442452 5.74273e-20)
(-0.0672319 -0.0418391 1.70183e-20)
(-0.0163808 -0.0106246 0)
(0.237939 0.174344 -7.84735e-21)
(1.10441 0.795814 -1.7361e-21)
(1.29789 0.944854 3.28506e-21)
(1.31453 0.974086 -2.03508e-20)
(1.26448 0.956025 3.61115e-20)
(1.19487 0.923768 0)
(1.12147 0.888191 2.87677e-20)
(1.04425 0.848601 -1.90515e-20)
(0.964151 0.802819 7.98543e-22)
(0.884359 0.748513 1.75556e-20)
(0.821731 0.693163 1.44602e-19)
(0.782947 0.644841 -2.19148e-20)
(0.722218 0.575093 -8.04284e-20)
(0.55394 0.433177 -3.21624e-20)
(0.307515 0.243414 3.75766e-20)
(0.10151 0.0908176 -1.78457e-24)
(-0.0312193 -0.00481152 5.20457e-20)
(-0.086902 -0.0479496 -1.23041e-19)
(-0.0744962 -0.0469138 1.45861e-19)
(-0.0182474 -0.0122921 2.15727e-20)
(0.237017 0.181901 3.63742e-21)
(1.09406 0.827344 -1.39384e-21)
(1.28439 0.982178 1.33786e-21)
(1.29975 1.01165 -8.55495e-21)
(1.24948 0.992296 -6.33736e-21)
(1.17983 0.958516 -4.60969e-20)
(1.10611 0.921368 9.14837e-21)
(1.02811 0.880051 -8.04405e-20)
(0.946667 0.832235 -1.54174e-19)
(0.864809 0.775097 -1.44682e-19)
(0.800003 0.715486 0)
(0.760022 0.661117 -9.61735e-20)
(0.698964 0.58283 1.15789e-19)
(0.534327 0.43215 0)
(0.29853 0.239165 -8.04608e-20)
(0.100458 0.0882794 4.72067e-20)
(-0.0318153 -0.00387537 -5.57231e-20)
(-0.0960519 -0.0499376 -6.59267e-20)
(-0.0879647 -0.0539709 -1.17167e-19)
(-0.0226848 -0.0155026 -9.25087e-20)
(0.236456 0.189287 -4.76021e-21)
(1.08406 0.857183 1.51037e-21)
(1.2711 1.01717 1.57096e-21)
(1.28524 1.04681 -9.63408e-21)
(1.23482 1.0263 1.45269e-20)
(1.16516 0.991188 -2.7741e-20)
(1.09117 0.952664 3.01411e-20)
(1.01243 0.909876 -8.42519e-20)
(0.929626 0.860324 -9.23501e-20)
(0.845517 0.800732 1.53575e-19)
(0.777956 0.737096 3.21917e-19)
(0.735916 0.676138 0)
(0.674313 0.587781 0)
(0.515034 0.427015 -3.70053e-20)
(0.293159 0.230527 0)
(0.107309 0.0816186 1.01241e-19)
(-0.0200593 -0.00806793 1.19309e-19)
(-0.0948209 -0.0578507 0)
(-0.10213 -0.0662742 0)
(-0.0311396 -0.0217064 9.93357e-20)
(0.235784 0.196253 6.13969e-21)
(1.07446 0.885364 4.56771e-21)
(1.25813 1.04996 1.43967e-21)
(1.2711 1.07972 6.0645e-21)
(1.22058 1.05815 1.41458e-20)
(1.15097 1.02187 3.22958e-20)
(1.07676 0.982155 -4.23862e-20)
(0.997332 0.938128 -3.12964e-22)
(0.913161 0.887137 -1.0617e-21)
(0.826637 0.825501 -5.17204e-22)
(0.755744 0.758236 1.66959e-19)
(0.710564 0.690418 0)
(0.647574 0.590476 1.18351e-19)
(0.494243 0.417464 7.98701e-20)
(0.288502 0.21484 1.86854e-19)
(0.120488 0.062182 5.45133e-20)
(0.00653963 -0.0314397 -6.40932e-20)
(-0.063043 -0.0831837 -3.80113e-20)
(-0.0852838 -0.0819087 0)
(-0.035732 -0.027862 1.07161e-19)
(0.235471 0.203238 -1.53526e-20)
(1.06525 0.911996 0)
(1.24549 1.08061 3.38528e-21)
(1.25738 1.11046 3.98599e-21)
(1.20686 1.08796 -1.29732e-20)
(1.13731 1.05066 -4.1005e-20)
(1.06295 1.00991 8.67925e-20)
(0.982888 0.96486 -6.42117e-21)
(0.897371 0.912716 0)
(0.808321 0.849449 -1.73432e-19)
(0.733561 0.779103 -3.68251e-19)
(0.684016 0.704508 1.468e-20)
(0.618213 0.591757 1.65785e-19)
(0.470078 0.404216 0)
(0.280202 0.191084 1.2689e-19)
(0.13078 0.0266809 0)
(0.0355246 -0.084383 0)
(-0.00573368 -0.139518 -4.08999e-20)
(0.00162835 -0.107143 0)
(0.0142068 -0.0095334 2.88916e-20)
(0.234931 0.209692 -1.83437e-20)
(1.0564 0.93742 0)
(1.23319 1.10933 7.14995e-21)
(1.24404 1.13928 0)
(1.19361 1.11599 5.87082e-21)
(1.12414 1.07784 0)
(1.0497 1.03623 4.91854e-21)
(0.969024 0.990405 1.20696e-20)
(0.882155 0.937422 1.18717e-20)
(0.790425 0.872961 -1.92853e-19)
(0.711231 0.800211 1.13074e-20)
(0.655925 0.719343 1.18483e-19)
(0.585405 0.592834 1.63084e-19)
(0.440464 0.388334 2.14232e-20)
(0.263945 0.161389 1.00393e-19)
(0.128103 -0.021356 0)
(0.0480138 -0.158832 1.34641e-19)
(0.0286641 -0.160474 -7.91593e-20)
(0.0171747 0.0207914 9.32737e-20)
(-0.0388365 0.46764 -1.10794e-19)
(0.234452 0.215989 1.59019e-20)
(1.04771 0.961477 2.17047e-20)
(1.22115 1.13646 0)
(1.23095 1.16663 9.76676e-22)
(1.18066 1.14284 -1.33337e-20)
(1.11118 1.10409 6.66201e-20)
(1.03668 1.06191 3.26837e-20)
(0.95532 1.01568 0)
(0.866974 0.962313 8.0996e-20)
(0.772263 0.897282 -1.03393e-20)
(0.687791 0.822948 0)
(0.624766 0.736389 0)
(0.546363 0.594535 1.48351e-19)
(0.401637 0.369893 -6.62646e-20)
(0.235931 0.127521 -1.03316e-19)
(0.110715 -0.0787999 0)
(0.0382972 -0.114528 6.85647e-20)
(-0.000654927 0.440084 -7.96152e-20)
(0.0255891 1.95969 -4.51319e-20)
(0.0509332 2.84124 -5.5267e-20)
(0.233734 0.221802 -1.28195e-20)
(1.03924 0.984348 -2.94303e-20)
(1.2094 1.16201 5.1055e-21)
(1.21812 1.19239 2.4157e-22)
(1.16808 1.1683 0)
(1.09855 1.12916 4.43336e-20)
(1.02413 1.08665 4.81706e-20)
(0.941994 1.04028 -6.14139e-21)
(0.852148 0.986918 1.21419e-20)
(0.754283 0.921909 1.87582e-19)
(0.663961 0.846939 1.92858e-19)
(0.591579 0.756195 1.37783e-19)
(0.501507 0.598464 1.51903e-19)
(0.352902 0.349682 -1.59366e-19)
(0.199747 0.0965688 -1.58781e-19)
(0.0742839 -0.010905 0)
(0.0293093 0.945235 0)
(0.0730335 2.61132 3.88072e-20)
(0.0763488 3.22753 0)
(0.0790733 3.39446 1.02133e-19)
(0.235921 0.227351 0)
(1.03139 1.00645 0)
(1.19764 1.18583 0)
(1.20537 1.21642 7.26606e-22)
(1.15552 1.19213 -1.12389e-20)
(1.08607 1.15289 2.99596e-20)
(1.01199 1.11035 3.24454e-20)
(0.928988 1.06408 -6.16931e-21)
(0.837622 1.01106 1.05304e-19)
(0.736505 0.946695 -1.29707e-21)
(0.6399 0.872088 3.88267e-19)
(0.556827 0.779222 -1.59964e-20)
(0.450907 0.606791 1.89903e-20)
(0.293867 0.328024 2.34162e-20)
(0.14677 0.100228 -1.08368e-21)
(0.0679303 1.06308 3.18925e-22)
(0.103448 2.79762 -2.09693e-19)
(0.107829 3.30632 -7.90988e-20)
(0.102431 3.42307 4.24749e-20)
(0.0950673 3.44179 -4.85995e-20)
(0.157857 0.171961 8.51112e-21)
(1.0189 1.03051 0)
(1.18561 1.20815 -1.33051e-20)
(1.19316 1.23916 -4.38173e-21)
(1.14344 1.21482 -1.58063e-20)
(1.07441 1.17577 -3.02806e-20)
(1.00002 1.13303 -3.56276e-20)
(0.916336 1.08712 7.55222e-20)
(0.823494 1.03485 -8.86842e-20)
(0.719201 0.97178 0)
(0.616025 0.898547 1.95437e-19)
(0.521209 0.805692 -1.15691e-19)
(0.400602 0.636508 0)
(0.224949 0.312612 2.35337e-20)
(0.100847 0.669458 5.39537e-20)
(0.116551 2.61921 -6.01099e-20)
(0.160543 3.32655 6.8155e-20)
(0.147978 3.42758 3.72528e-20)
(0.124709 3.44631 4.20943e-20)
(0.108023 3.45531 6.89948e-20)
(0.270064 0.264049 -1.57777e-20)
(0.999096 1.039 0)
(1.1655 1.23334 1.63604e-20)
(1.17749 1.27036 8.75806e-21)
(1.12489 1.24823 1.12058e-20)
(1.0553 1.20943 2.55781e-20)
(0.979669 1.16813 4.30537e-20)
(0.895182 1.12327 5.87472e-21)
(0.800379 1.07289 8.86258e-20)
(0.691905 1.01338 1.72448e-19)
(0.580008 0.94486 1.13561e-20)
(0.465523 0.84706 1.06554e-19)
(0.304779 0.644616 1.88533e-20)
(0.183818 0.790278 -2.32163e-20)
(0.190614 2.52011 -5.0973e-20)
(0.241749 3.32297 5.1418e-20)
(0.224956 3.44498 -5.70477e-20)
(0.193188 3.46542 -3.26981e-20)
(0.162287 3.49069 -3.18586e-20)
(0.118938 3.48802 -4.50831e-21)
(0.259623 0.26253 0)
(0.994992 1.06115 6.33828e-21)
(1.15578 1.25662 -3.84737e-21)
(1.16555 1.29383 -1.6022e-21)
(1.11299 1.27144 4.94404e-21)
(1.04335 1.23276 -2.3425e-20)
(0.967274 1.19157 -2.61833e-20)
(0.882297 1.14743 5.49503e-21)
(0.786384 1.09839 -9.47946e-20)
(0.67537 1.0416 -2.41533e-21)
(0.557941 0.977451 -3.67199e-19)
(0.43201 0.879948 1.53501e-20)
(0.270771 0.717088 -1.82001e-20)
(0.218986 1.51447 -2.18456e-20)
(0.285945 3.14848 3.54745e-21)
(0.296308 3.44223 -1.09753e-22)
(0.257816 3.48925 9.33136e-20)
(0.225853 3.51621 4.95398e-20)
(0.181489 3.53773 -2.04935e-20)
(0.133529 3.5363 -2.55215e-20)
(0.245122 0.259952 1.75389e-20)
(0.989895 1.0858 4.40461e-20)
(1.14563 1.28199 -1.09517e-20)
(1.1532 1.31892 -5.76178e-21)
(1.10058 1.29613 0)
(1.03098 1.25742 -2.55833e-20)
(0.95474 1.21642 -3.48886e-20)
(0.869528 1.17299 5.08684e-21)
(0.772823 1.12549 -1.05247e-20)
(0.659854 1.07192 -1.64938e-19)
(0.537975 1.01304 -1.74086e-19)
(0.402244 0.914771 -1.28717e-19)
(0.269296 0.886232 -1.39855e-19)
(0.288913 2.35157 1.42159e-19)
(0.370113 3.37098 1.23142e-19)
(0.337907 3.49259 0)
(0.292975 3.53429 0)
(0.257686 3.57006 -1.70949e-20)
(0.217392 3.61456 0)
(0.149369 3.60338 -3.05092e-20)
(0.234842 0.261332 -2.73886e-20)
(0.982818 1.11118 -3.89307e-20)
(1.13404 1.30856 0)
(1.13955 1.34484 1.18059e-21)
(1.08687 1.32149 -5.1991e-22)
(1.01746 1.28267 -3.17592e-20)
(0.9414 1.24191 -2.07106e-20)
(0.856186 1.19918 3.91888e-21)
(0.758955 1.15326 -7.29577e-20)
(0.644524 1.10309 8.66499e-21)
(0.519315 1.04976 0)
(0.373008 0.951592 0)