/*--------------------------------*- C++ -*----------------------------------*\
  =========                 |
  \\      /  F ield         | OpenFOAM: The Open Source CFD Toolbox
   \\    /   O peration     | Website:  https://openfoam.org
    \\  /    A nd           | Version:  6
     \\/     M anipulation  |
\*---------------------------------------------------------------------------*/
FoamFile
{
    version     2.0;
    format      ascii;
    class       volScalarField;
    location    "90.5";
    object      p;
}
// * * * * * * * * * * * * * * * * * * * * * * * * * * * * * * * * * * * * * //

dimensions      [0 2 -2 0 0 0 0];

internalField   nonuniform List<scalar> 
8800
(
0.846421
0.797107
0.759143
0.731076
0.710917
0.696334
0.685741
0.678209
0.673334
0.67128
0.672666
0.677023
0.683827
0.69326
0.706003
0.723328
0.747209
0.780308
0.823247
0.875762
0.680911
0.687256
0.696407
0.699958
0.697352
0.691266
0.684331
0.678096
0.673304
0.670448
0.670233
0.672877
0.677532
0.683671
0.690779
0.697819
0.702703
0.702582
0.69591
0.687014
0.654417
0.660654
0.665156
0.66903
0.671982
0.672936
0.671854
0.669742
0.667774
0.666951
0.668002
0.670473
0.673374
0.675655
0.676185
0.674403
0.671043
0.667034
0.662256
0.65854
0.650103
0.65287
0.655479
0.65764
0.659382
0.660956
0.662067
0.662431
0.662332
0.66245
0.663278
0.664442
0.665201
0.665065
0.664101
0.662756
0.661093
0.658797
0.656389
0.654823
0.645029
0.646455
0.648297
0.650382
0.652101
0.653401
0.654509
0.655502
0.65633
0.657091
0.65783
0.658316
0.658362
0.658017
0.657363
0.65626
0.654614
0.652727
0.651378
0.650575
0.640015
0.640918
0.642168
0.6438
0.645501
0.647043
0.64834
0.649479
0.650567
0.651615
0.652436
0.652858
0.652896
0.652551
0.651767
0.650595
0.649246
0.64799
0.647173
0.646649
0.635076
0.635732
0.636697
0.638021
0.639478
0.641007
0.642507
0.643893
0.645185
0.646429
0.647424
0.64796
0.648014
0.647608
0.646851
0.645929
0.644954
0.644062
0.643487
0.643102
0.630208
0.630713
0.631503
0.632652
0.633964
0.635397
0.636926
0.638494
0.640043
0.641547
0.642759
0.643421
0.643547
0.643264
0.642733
0.642071
0.641356
0.640708
0.640287
0.639987
0.625356
0.625758
0.626423
0.627454
0.628699
0.630083
0.631614
0.633288
0.635064
0.636871
0.638357
0.639232
0.639568
0.639529
0.63925
0.638818
0.638317
0.637867
0.637559
0.637314
0.620436
0.620764
0.621343
0.622299
0.623502
0.624882
0.626458
0.628246
0.630237
0.632365
0.634211
0.635418
0.636063
0.636309
0.636284
0.636095
0.6358
0.635516
0.635293
0.635087
0.615359
0.61563
0.61615
0.617064
0.618258
0.619675
0.621339
0.623287
0.625532
0.628038
0.630334
0.631967
0.632986
0.633555
0.633811
0.633867
0.633782
0.633648
0.633494
0.633315
0.610029
0.610258
0.610741
0.611643
0.612868
0.614364
0.616163
0.618328
0.620903
0.623876
0.62672
0.628863
0.630319
0.631262
0.631833
0.632141
0.632279
0.632286
0.632189
0.632029
0.604351
0.604546
0.605011
0.605931
0.607229
0.608851
0.61084
0.613294
0.616287
0.619841
0.623349
0.626099
0.628069
0.629441
0.630371
0.630977
0.631339
0.631477
0.631427
0.63128
0.598215
0.598382
0.598848
0.599815
0.601226
0.603026
0.605275
0.608102
0.611619
0.615884
0.620196
0.623675
0.626254
0.628125
0.629469
0.63041
0.631013
0.631283
0.631274
0.631133
0.591493
0.591638
0.592118
0.593161
0.594731
0.59677
0.599358
0.602659
0.606826
0.61196
0.617243
0.621593
0.624895
0.627355
0.629172
0.630495
0.631373
0.631779
0.631809
0.63167
0.584037
0.584157
0.584667
0.585817
0.587596
0.589946
0.592966
0.596859
0.601829
0.608022
0.614475
0.619863
0.62402
0.627178
0.629559
0.631323
0.632509
0.633057
0.633121
0.632981
0.575655
0.575759
0.576302
0.577591
0.579642
0.582385
0.585947
0.590579
0.596538
0.604019
0.611875
0.6185
0.623665
0.627643
0.630702
0.632985
0.634516
0.635213
0.635307
0.635161
0.56606
0.566165
0.566777
0.568239
0.57064
0.573881
0.578123
0.583676
0.590853
0.599897
0.609432
0.617519
0.623875
0.628819
0.632674
0.635565
0.637487
0.638339
0.63846
0.638304
0.554959
0.555042
0.555739
0.557455
0.5603
0.564175
0.569277
0.57598
0.58466
0.595602
0.607139
0.616944
0.624694
0.630774
0.635546
0.639153
0.641508
0.642517
0.642657
0.642488
0.54194
0.542011
0.542817
0.544844
0.548254
0.552942
0.559141
0.567296
0.577839
0.591084
0.604997
0.616805
0.626164
0.633561
0.639404
0.643822
0.64664
0.647797
0.647947
0.64776
0.526407
0.526468
0.527426
0.529874
0.534027
0.539778
0.547398
0.557405
0.570274
0.58631
0.603019
0.617137
0.628326
0.637227
0.644283
0.649602
0.652899
0.654179
0.654323
0.654117
0.507529
0.507585
0.508766
0.511808
0.516977
0.524164
0.533671
0.546083
0.561873
0.581281
0.601239
0.617971
0.631219
0.641798
0.650189
0.656486
0.660231
0.661588
0.661707
0.661482
0.484088
0.48415
0.485684
0.489618
0.496248
0.50545
0.517547
0.533136
0.552606
0.576054
0.599728
0.619357
0.634865
0.647274
0.657101
0.664383
0.668489
0.669849
0.66992
0.669677
0.454176
0.454269
0.456414
0.461799
0.470719
0.482895
0.498659
0.518481
0.542554
0.57076
0.598599
0.621366
0.639272
0.653611
0.664945
0.673114
0.677413
0.678673
0.678675
0.678421
0.414556
0.414787
0.418197
0.42626
0.439054
0.455858
0.476864
0.50226
0.53196
0.565625
0.598007
0.624079
0.644457
0.660752
0.673557
0.682393
0.686627
0.687672
0.687592
0.687337
0.359061
0.360226
0.367046
0.380699
0.400274
0.424244
0.452521
0.484956
0.521256
0.560959
0.598129
0.627583
0.650423
0.668604
0.682699
0.691832
0.695666
0.696406
0.696251
0.696005
0.278758
0.286645
0.302356
0.326283
0.356002
0.389567
0.426682
0.467151
0.510707
0.55691
0.59917
0.632233
0.657728
0.677923
0.693007
0.70203
0.705253
0.705682
0.705484
0.70528
0.19321
0.210489
0.236012
0.270973
0.311383
0.354663
0.400598
0.449169
0.500216
0.553384
0.601389
0.638652
0.667318
0.689701
0.705627
0.713854
0.716145
0.716284
0.716117
0.71599
0.119781
0.140924
0.174634
0.219046
0.268923
0.321348
0.375857
0.432364
0.490679
0.550444
0.603707
0.64468
0.676037
0.700134
0.716214
0.723374
0.724969
0.725007
0.724878
0.724785
0.0595075
0.083002
0.122329
0.17352
0.230777
0.290828
0.35288
0.416634
0.481698
0.547596
0.605663
0.649931
0.683514
0.70883
0.724852
0.73131
0.732573
0.732576
0.732468
0.732385
0.00947514
0.0343784
0.0777662
0.134222
0.197374
0.263673
0.332117
0.402232
0.473395
0.544917
0.607401
0.654633
0.690156
0.716452
0.73236
0.738285
0.739367
0.739363
0.73927
0.739189
-0.0329343
-0.00720777
0.0391749
0.0998928
0.167993
0.239613
0.313576
0.389296
0.465963
0.542659
0.60922
0.65915
0.696354
0.723398
0.739102
0.744635
0.745632
0.745651
0.74558
0.745496
-0.0697969
-0.0435392
0.00517442
0.0694235
0.141756
0.218022
0.296893
0.377679
0.459406
0.540941
0.611337
0.663756
0.702436
0.730008
0.745455
0.750699
0.751668
0.751735
0.751701
0.751617
-0.102637
-0.0759736
-0.0253506
0.0419122
0.117926
0.198294
0.281598
0.36706
0.453546
0.539704
0.613802
0.668599
0.708634
0.736642
0.75185
0.756863
0.757824
0.757956
0.757978
0.757902
-0.132519
-0.105496
-0.0532577
0.016641
0.0959091
0.17994
0.267282
0.357092
0.448124
0.538787
0.616565
0.673739
0.715132
0.7436
0.758648
0.763508
0.764481
0.764665
0.764738
0.764676
-0.16029
-0.132895
-0.0792166
-0.00692974
0.0752377
0.162563
0.253601
0.347485
0.442878
0.538012
0.61952
0.679184
0.722025
0.751071
0.766089
0.770868
0.771812
0.772016
0.772126
0.772081
-0.186381
-0.158646
-0.103651
-0.0292292
0.0555448
0.145857
0.240293
0.337997
0.437595
0.5372
0.622585
0.684882
0.72931
0.759052
0.77414
0.778879
0.779767
0.77995
0.780066
0.780034
-0.211305
-0.18315
-0.126938
-0.0505737
0.0365552
0.129583
0.227154
0.328439
0.432094
0.53618
0.625629
0.690741
0.736864
0.767382
0.782601
0.787304
0.78811
0.788237
0.788335
0.788318
-0.235231
-0.206652
-0.149298
-0.0711748
0.0180774
0.113577
0.214032
0.318667
0.426218
0.534795
0.628512
0.696675
0.744591
0.775876
0.791212
0.795816
0.796523
0.79657
0.796631
0.796632
-0.258338
-0.229311
-0.170897
-0.0911712
-2.58761e-06
0.0977331
0.200826
0.308575
0.419837
0.53288
0.631084
0.702599
0.752425
0.784395
0.799694
0.804124
0.804695
0.804656
0.804673
0.804674
-0.280756
-0.251251
-0.191828
-0.110641
-0.0177648
0.0819882
0.187478
0.298098
0.412862
0.530293
0.633191
0.708431
0.760384
0.792887
0.807872
0.811974
0.812378
0.812265
0.812246
0.812242
-0.302581
-0.272546
-0.212134
-0.129625
-0.035229
0.0663159
0.17397
0.287205
0.405232
0.526909
0.634673
0.714076
0.768523
0.801522
0.815811
0.819268
0.819436
0.819274
0.819235
0.819222
-0.323713
-0.293177
-0.231821
-0.14815
-0.0524065
0.050733
0.160304
0.275902
0.396925
0.52265
0.635361
0.719412
0.776924
0.810584
0.823797
0.826095
0.825794
0.825627
0.82564
0.825627
-0.344159
-0.313143
-0.250911
-0.166208
-0.0692781
0.0352596
0.146526
0.264212
0.38795
0.51745
0.635102
0.724262
0.78559
0.820462
0.832482
0.832936
0.83159
0.831352
0.831658
0.831762
-0.36399
-0.332437
-0.269412
-0.183791
-0.0858089
0.0199468
0.132689
0.252191
0.378339
0.511289
0.633741
0.728408
0.794391
0.831424
0.84279
0.841055
0.837662
0.836858
0.837812
0.838634
-0.383088
-0.351048
-0.287289
-0.200856
-0.101964
0.00485529
0.118861
0.239913
0.368159
0.504193
0.631153
0.731583
0.803032
0.84337
0.855402
0.852264
0.846382
0.843418
0.843445
0.843967
-0.401548
-0.369007
-0.304558
-0.217447
-0.117791
-0.010063
0.104983
0.227316
0.357335
0.496086
0.627161
0.733508
0.811262
0.855974
0.870314
0.867718
0.860174
0.852311
0.843736
0.845947
-0.419306
-0.386381
-0.321364
-0.233762
-0.13358
-0.0251269
0.0906585
0.213943
0.345363
0.486404
0.621208
0.733556
0.818875
0.869068
0.886743
0.886605
0.877373
0.862905
0.841587
0.842978
-0.436248
-0.403153
-0.337557
-0.249621
-0.149079
-0.0400496
0.076069
0.200083
0.332485
0.475294
0.613156
0.730742
0.824603
0.881119
0.90062
0.901026
0.890298
0.860008
0.803419
0.77969
-0.452273
-0.420311
-0.352745
-0.264594
-0.163494
-0.054345
0.0614947
0.186009
0.318973
0.462904
0.602982
0.724296
0.826881
0.890445
0.906361
0.901234
0.877441
0.820443
0.757852
0.720029
-0.494167
-0.437206
-0.366628
-0.27963
-0.177589
-0.0690074
0.047083
0.171588
0.304599
0.448832
0.590145
0.713336
0.821722
0.891954
0.8997
0.873714
0.81442
0.742626
0.671592
0.632398
-0.468249
-0.449638
-0.387708
-0.300039
-0.199484
-0.0910695
0.0244319
0.148489
0.28096
0.424477
0.565479
0.68845
0.790134
0.867891
0.840826
0.718749
0.619826
0.551121
0.483839
0.506512
-0.498172
-0.466454
-0.403653
-0.316447
-0.216259
-0.107961
0.00780241
0.131318
0.262962
0.405066
0.543964
0.663847
0.754278
0.797838
0.734079
0.583304
0.466386
0.387523
0.30231
0.343032
-0.52113
-0.487098
-0.42261
-0.335361
-0.23522
-0.126907
-0.011207
0.111598
0.24201
0.381932
0.517193
0.631115
0.709455
0.714802
0.595871
0.431692
0.295902
0.198176
0.100018
0.126975
-0.543343
-0.508332
-0.442542
-0.354671
-0.254464
-0.14626
-0.0310548
0.0908311
0.219717
0.35692
0.487273
0.592055
0.652888
0.624391
0.45476
0.270561
0.105506
-0.0322519
-0.159314
-0.151212
-0.565208
-0.529874
-0.463237
-0.374821
-0.274504
-0.166533
-0.0519942
0.0687789
0.195778
0.329716
0.454066
0.549317
0.588885
0.510996
0.31546
0.112533
-0.078039
-0.234726
-0.440986
-0.520926
-0.587413
-0.552198
-0.485095
-0.396315
-0.295885
-0.188127
-0.0742215
0.0453562
0.170266
0.300525
0.418145
0.503899
0.515367
0.386258
0.187917
-0.0258775
-0.220874
-0.383849
-0.507812
-0.623216
-0.611025
-0.575783
-0.508468
-0.419538
-0.319143
-0.211722
-0.0985747
0.0195843
0.141982
0.267855
0.377998
0.4505
0.43282
0.267651
0.0683107
-0.139185
-0.317494
-0.415959
-0.442041
-0.455313
-0.636176
-0.600923
-0.533485
-0.444579
-0.344424
-0.23754
-0.125435
-0.00906083
0.110292
0.230894
0.333112
0.386394
0.348655
0.153476
-0.0435284
-0.230706
-0.365583
-0.404
-0.412649
-0.412983
-0.663152
-0.627745
-0.560189
-0.471426
-0.37168
-0.265598
-0.154838
-0.0406498
0.0751108
0.18964
0.283011
0.318595
0.246732
0.0487423
-0.141551
-0.304235
-0.380094
-0.39423
-0.395267
-0.39513
-0.691961
-0.656283
-0.588603
-0.500082
-0.400936
-0.295896
-0.186806
-0.0752148
0.0364435
0.144209
0.227354
0.247029
0.135854
-0.0466801
-0.225978
-0.354847
-0.384342
-0.38503
-0.385655
-0.385254
-0.72235
-0.686381
-0.618635
-0.530477
-0.432115
-0.328392
-0.221324
-0.112747
-0.00565926
0.0947205
0.167476
0.167453
0.0378863
-0.133965
-0.292059
-0.366179
-0.381294
-0.379718
-0.379561
-0.379221
-0.753769
-0.717689
-0.650026
-0.562385
-0.465038
-0.362938
-0.258254
-0.153132
-0.0509791
0.0416176
0.103795
0.087311
-0.0517725
-0.210726
-0.336772
-0.375233
-0.374909
-0.375256
-0.375097
-0.374844
-0.785774
-0.749679
-0.68229
-0.59539
-0.499353
-0.399212
-0.297312
-0.196093
-0.0992232
-0.0141227
0.0351228
0.0118073
-0.132152
-0.272126
-0.364362
-0.372208
-0.373012
-0.372814
-0.372537
-0.372306
-0.817396
-0.781479
-0.714704
-0.62886
-0.534509
-0.436732
-0.338029
-0.241137
-0.149961
-0.0716379
-0.0334353
-0.063562
-0.199959
-0.316382
-0.373389
-0.381898
-0.374608
-0.372488
-0.371736
-0.371347
-0.846901
-0.81181
-0.746229
-0.661905
-0.569722
-0.474788
-0.379726
-0.287515
-0.202401
-0.130469
-0.0968405
-0.14095
-0.253728
-0.349098
-0.37396
-0.374781
-0.374105
-0.373049
-0.372446
-0.372085
-0.873123
-0.839162
-0.775465
-0.693321
-0.603925
-0.512428
-0.421512
-0.334292
-0.255293
-0.190065
-0.158585
-0.207377
-0.293037
-0.359981
-0.385165
-0.375451
-0.373143
-0.37258
-0.372382
-0.372283
-0.893396
-0.861434
-0.800651
-0.721579
-0.635795
-0.548456
-0.462273
-0.380387
-0.307327
-0.248665
-0.220056
-0.259268
-0.319344
-0.353909
-0.362918
-0.369233
-0.370673
-0.371338
-0.371729
-0.371829
-0.905673
-0.876514
-0.819714
-0.744931
-0.663798
-0.581478
-0.500681
-0.424538
-0.357381
-0.30373
-0.276239
-0.305056
-0.343057
-0.362754
-0.36481
-0.37112
-0.37361
-0.374139
-0.374309
-0.374307
-0.907258
-0.882021
-0.83055
-0.761524
-0.686291
-0.610021
-0.535301
-0.465243
-0.404254
-0.354524
-0.323414
-0.347859
-0.372882
-0.393882
-0.388594
-0.382877
-0.380682
-0.379578
-0.379069
-0.378882
-0.895815
-0.875361
-0.831025
-0.769611
-0.701793
-0.632706
-0.564792
-0.500983
-0.446137
-0.40198
-0.359129
-0.385418
-0.386012
-0.416249
-0.403311
-0.388904
-0.383256
-0.381294
-0.380475
-0.380169
-0.869057
-0.854093
-0.81927
-0.76796
-0.709255
-0.648522
-0.588129
-0.530685
-0.481071
-0.444278
-0.397244
-0.390548
-0.375292
-0.375663
-0.372403
-0.373896
-0.374784
-0.375446
-0.375757
-0.375808
-0.830431
-0.820887
-0.796453
-0.756834
-0.708694
-0.657215
-0.604773
-0.553745
-0.508662
-0.47731
-0.444908
-0.407105
-0.359257
-0.348179
-0.366279
-0.371677
-0.371727
-0.373617
-0.375567
-0.3761
-0.786981
-0.781546
-0.767507
-0.739322
-0.702193
-0.659687
-0.614813
-0.569917
-0.528747
-0.49785
-0.46906
-0.434528
-0.393163
-0.363313
-0.354588
-0.366569
-0.388087
-0.40151
-0.405847
-0.406397
-0.748607
-0.745294
-0.738626
-0.720753
-0.692656
-0.657758
-0.619337
-0.579182
-0.540101
-0.508199
-0.48117
-0.465306
-0.462272
-0.47289
-0.483417
-0.510768
-0.514592
-0.497696
-0.487174
-0.490108
-0.720968
-0.719002
-0.715599
-0.705068
-0.683782
-0.65451
-0.620268
-0.5824
-0.543447
-0.508082
-0.481167
-0.476759
-0.528708
-0.630829
-0.73029
-0.774131
-0.771556
-0.728005
-0.669885
-0.650422
-0.700698
-0.7
-0.698845
-0.693659
-0.678146
-0.652518
-0.619573
-0.581584
-0.539728
-0.497754
-0.468778
-0.446811
-0.456647
-0.502426
-0.579453
-0.607087
-0.578986
-0.540496
-0.496037
-0.473879
-0.688904
-0.688672
-0.688057
-0.685636
-0.675127
-0.651667
-0.618254
-0.578375
-0.532149
-0.481633
-0.438316
-0.382593
-0.312775
-0.238412
-0.191554
-0.143321
-0.09183
-0.0566775
-0.0306608
-0.0173595
-0.680782
-0.680633
-0.680225
-0.679522
-0.67311
-0.651977
-0.617757
-0.574487
-0.523171
-0.460915
-0.397048
-0.31636
-0.174812
0.0234943
0.21751
0.37801
0.45597
0.490351
0.498316
0.500844
-0.675506
-0.67546
-0.675333
-0.67518
-0.671355
-0.653689
-0.618388
-0.571294
-0.513911
-0.440865
-0.358997
-0.262666
-0.0814499
0.166843
0.412748
0.6178
0.756175
0.830507
0.866171
0.88002
-0.671228
-0.671256
-0.671258
-0.671244
-0.669937
-0.655885
-0.620548
-0.569892
-0.506871
-0.426342
-0.331744
-0.229322
-0.0362074
0.239146
0.535208
0.797795
0.989493
1.10168
1.15862
1.17922
-0.667362
-0.667467
-0.667536
-0.667519
-0.667364
-0.657293
-0.623927
-0.571569
-0.504643
-0.419509
-0.319201
-0.215063
-0.0296853
0.249624
0.559638
0.849377
1.08234
1.22239
1.28231
1.2985
-0.664482
-0.664489
-0.664253
-0.663691
-0.663667
-0.656938
-0.628431
-0.577004
-0.508006
-0.421178
-0.322809
-0.224103
-0.0702069
0.187951
0.467071
0.720776
0.93281
1.06384
1.11564
1.1274
-0.663572
-0.663463
-0.66298
-0.661804
-0.660063
-0.657536
-0.635637
-0.58674
-0.516722
-0.43141
-0.339977
-0.251615
-0.133016
0.0787959
0.309691
0.507624
0.666087
0.761599
0.798063
0.805323
-0.666226
-0.666464
-0.66686
-0.66732
-0.667028
-0.666909
-0.649748
-0.600499
-0.529103
-0.449077
-0.365782
-0.287144
-0.197645
-0.0351575
0.138619
0.278321
0.38572
0.446481
0.468288
0.472301
-0.670545
-0.671724
-0.675272
-0.68351
-0.694414
-0.697003
-0.673172
-0.614166
-0.544377
-0.473249
-0.396719
-0.32813
-0.264021
-0.148078
-0.0205704
0.0760331
0.144243
0.180753
0.193884
0.196457
-0.674974
-0.676441
-0.681443
-0.694421
-0.714077
-0.719793
-0.687752
-0.62171
-0.562884
-0.500473
-0.427553
-0.368724
-0.319367
-0.234237
-0.143904
-0.0787725
-0.036253
-0.0130066
-0.00346157
-0.00115411
-0.68917
-0.69015
-0.6923
-0.690378
-0.68121
-0.679101
-0.652482
-0.617246
-0.583264
-0.524747
-0.45729
-0.408099
-0.371663
-0.304796
-0.232844
-0.182088
-0.148383
-0.129715
-0.122507
-0.120956
-0.71178
-0.71193
-0.710757
-0.684956
-0.622427
-0.571723
-0.58864
-0.613175
-0.601231
-0.54374
-0.484001
-0.443222
-0.413142
-0.359349
-0.299333
-0.254817
-0.222455
-0.203013
-0.196288
-0.195964
-0.737855
-0.736024
-0.731634
-0.706631
-0.648518
-0.599537
-0.613027
-0.650711
-0.627346
-0.562679
-0.507438
-0.472517
-0.446357
-0.397031
-0.343798
-0.304122
-0.273877
-0.256242
-0.250786
-0.250826
-0.795642
-0.794627
-0.811973
-0.839864
-0.851308
-0.827314
-0.799313
-0.75748
-0.677315
-0.586012
-0.528337
-0.493194
-0.467097
-0.424075
-0.376503
-0.340771
-0.314137
-0.29929
-0.294548
-0.294993
-0.9236
-0.93692
-0.982082
-1.03964
-1.06678
-1.05136
-0.99115
-0.879042
-0.730383
-0.609613
-0.544716
-0.498941
-0.472551
-0.434425
-0.393781
-0.364002
-0.342587
-0.331058
-0.327323
-0.327802
-1.04056
-1.05945
-1.10133
-1.14276
-1.16591
-1.15009
-1.0787
-0.923279
-0.742151
-0.618859
-0.541016
-0.489006
-0.464478
-0.429697
-0.394331
-0.370996
-0.355795
-0.347987
-0.345277
-0.34571
-1.04587
-1.06035
-1.08839
-1.11847
-1.13819
-1.12584
-1.05038
-0.872762
-0.707212
-0.59567
-0.508461
-0.466057
-0.442197
-0.409307
-0.381486
-0.364092
-0.352745
-0.346749
-0.344708
-0.34513
-0.92194
-0.933548
-0.956173
-0.982562
-1.0021
-0.992766
-0.920663
-0.76839
-0.639968
-0.533525
-0.460954
-0.429137
-0.404983
-0.377271
-0.355349
-0.341337
-0.332261
-0.327689
-0.32621
-0.3267
-0.692607
-0.705064
-0.729321
-0.759943
-0.784887
-0.782152
-0.720212
-0.62394
-0.532627
-0.449465
-0.407726
-0.375531
-0.358096
-0.33855
-0.320214
-0.307679
-0.299537
-0.295084
-0.293752
-0.294372
-0.405479
-0.416589
-0.439647
-0.472368
-0.503322
-0.513749
-0.489248
-0.44845
-0.400556
-0.366314
-0.338118
-0.315587
-0.309134
-0.29162
-0.275403
-0.265555
-0.258243
-0.254255
-0.253314
-0.254058
-0.140876
-0.148412
-0.166404
-0.196305
-0.233337
-0.265219
-0.283733
-0.290028
-0.284805
-0.275695
-0.261619
-0.257953
-0.255108
-0.240138
-0.22761
-0.219118
-0.212765
-0.209719
-0.209263
-0.209989
0.0282028
0.023353
0.00993165
-0.0160333
-0.054682
-0.101743
-0.145434
-0.174466
-0.188074
-0.192862
-0.195459
-0.195978
-0.196903
-0.185915
-0.176456
-0.169506
-0.164571
-0.162672
-0.162592
-0.163238
0.0921081
0.0886593
0.0783909
0.0569798
0.0230575
-0.01762
-0.0593409
-0.0927884
-0.113991
-0.125324
-0.13131
-0.133774
-0.137547
-0.130007
-0.122673
-0.117195
-0.113738
-0.112842
-0.113102
-0.113694
0.0804134
0.0780371
0.0711645
0.0570971
0.0346981
0.00641432
-0.0205933
-0.0413706
-0.0555281
-0.0629807
-0.0698164
-0.0729865
-0.0752441
-0.0703559
-0.0666106
-0.0637109
-0.0613445
-0.0606994
-0.0612856
-0.0619716
0.0236445
0.023306
0.0227202
0.0196544
0.0140291
0.00700527
0.000174307
-0.00607956
-0.00969399
-0.0115949
-0.0132823
-0.0143864
-0.0130174
-0.0137212
-0.0142337
-0.0151062
-0.0157278
-0.0157681
-0.0142747
-0.0136653
-0.023893
0.161948
0.332073
0.475506
0.589249
0.677911
0.750927
0.810083
0.824519
0.8214
0.259133
0.377924
0.488979
0.584735
0.664769
0.730399
0.78192
0.816727
0.835413
0.852255
0.450447
0.529332
0.607206
0.675341
0.733195
0.781061
0.818795
0.84771
0.869547
0.888817
0.591987
0.648052
0.704422
0.754922
0.798466
0.835525
0.866695
0.892909
0.912901
0.931805
0.706407
0.748618
0.790492
0.829706
0.864772
0.895827
0.923028
0.946137
0.963933
0.982014
0.801796
0.836833
0.871326
0.904416
0.934952
0.962645
0.987146
1.00776
1.0234
1.04088
0.889008
0.920574
0.952393
0.983192
1.01186
1.03794
1.06084
1.07962
1.09343
1.11043
0.975239
1.00758
1.03973
1.07071
1.09929
1.1249
1.14689
1.16431
1.1766
1.19311
1.0692
1.10555
1.14018
1.17249
1.20153
1.22676
1.24777
1.26398
1.27553
1.29165
1.1821
1.22281
1.2597
1.29247
1.32083
1.34473
1.36428
1.3795
1.39135
1.40741
1.32354
1.36445
1.39963
1.4291
1.45422
1.47578
1.49424
1.50969
1.52278
1.53872
1.49489
1.52694
1.55388
1.57622
1.59628
1.61497
1.63269
1.64944
1.66434
1.68006
1.681
1.69821
1.7153
1.73198
1.74807
1.7628
1.77669
1.79116
1.80639
1.82368
1.86438
1.87431
1.88748
1.89846
1.90786
1.91752
1.92812
1.93828
1.94757
1.97323
2.0822
2.0765
2.06355
2.04929
2.04299
2.04869
2.06683
2.09535
2.12911
2.16544
2.38502
2.24908
2.16956
2.12702
2.10968
2.11367
2.1411
2.19896
2.30662
2.48503
0.750113
0.743811
0.736084
0.724973
0.711407
0.698766
0.688382
0.680388
0.674697
0.671403
0.671101
0.673981
0.679253
0.68664
0.69621
0.708055
0.721628
0.734565
0.743559
0.751103
0.659169
0.665089
0.673165
0.679302
0.682377
0.681875
0.678802
0.674827
0.671266
0.669022
0.668941
0.671247
0.675044
0.679522
0.683647
0.68591
0.684848
0.680221
0.673172
0.665341
0.652397
0.65477
0.658041
0.66082
0.663279
0.665479
0.666674
0.66655
0.665645
0.664883
0.665158
0.666633
0.668464
0.66973
0.669683
0.668237
0.666094
0.663743
0.66077
0.657755
0.647578
0.648666
0.650587
0.652933
0.654815
0.656227
0.657464
0.658483
0.65912
0.659552
0.660176
0.66099
0.661514
0.66144
0.660846
0.659949
0.658637
0.656682
0.654584
0.65311
0.642514
0.643148
0.644281
0.646048
0.647904
0.649514
0.650788
0.651883
0.65291
0.653871
0.654741
0.655345
0.655552
0.655398
0.654903
0.65396
0.652557
0.650965
0.649639
0.64884
0.637538
0.637976
0.63877
0.640085
0.641622
0.643206
0.644712
0.646046
0.647254
0.648416
0.649468
0.650172
0.650434
0.650264
0.649651
0.648691
0.647568
0.646446
0.645556
0.645025
0.632638
0.632965
0.633583
0.634665
0.63598
0.637405
0.638917
0.640437
0.641892
0.643284
0.64455
0.645418
0.645746
0.645583
0.645049
0.644315
0.643507
0.642681
0.642035
0.641646
0.627788
0.628042
0.628541
0.629468
0.630663
0.632002
0.633465
0.635047
0.636701
0.63837
0.639909
0.640977
0.641445
0.641446
0.641144
0.64066
0.640075
0.639483
0.63902
0.638723
0.622914
0.623115
0.623532
0.624351
0.625474
0.626772
0.628229
0.629867
0.631678
0.633615
0.635479
0.636843
0.637576
0.637846
0.637804
0.637564
0.637197
0.636806
0.636486
0.636254
0.617927
0.618088
0.618447
0.619196
0.620278
0.621566
0.623063
0.624799
0.626789
0.629011
0.63126
0.633026
0.634123
0.634716
0.634956
0.634967
0.634831
0.634625
0.634424
0.634238
0.612736
0.612865
0.613183
0.613891
0.614962
0.616284
0.617862
0.619745
0.62197
0.624543
0.627261
0.629525
0.631058
0.632026
0.632587
0.632871
0.632965
0.632943
0.632845
0.632695
0.607245
0.607349
0.60764
0.608332
0.609429
0.610829
0.612534
0.614619
0.617152
0.620169
0.623465
0.626325
0.628373
0.629775
0.630702
0.631286
0.631637
0.631795
0.631787
0.631665
0.601352
0.601434
0.60171
0.602411
0.603569
0.60509
0.606979
0.609337
0.612264
0.615834
0.619834
0.623412
0.626072
0.627982
0.629328
0.630272
0.630895
0.631233
0.631307
0.631205
0.59494
0.595003
0.595272
0.596005
0.597262
0.598952
0.601089
0.603803
0.607228
0.611478
0.616336
0.620778
0.624167
0.626677
0.628509
0.629852
0.630787
0.631322
0.631475
0.631389
0.587869
0.587912
0.588185
0.588973
0.590367
0.592282
0.594744
0.597909
0.601955
0.607042
0.612939
0.618417
0.622673
0.625894
0.628301
0.630103
0.631397
0.632145
0.632377
0.632302
0.579984
0.580001
0.580277
0.581142
0.582717
0.584922
0.587796
0.591529
0.596346
0.602458
0.609611
0.616329
0.621613
0.625671
0.628762
0.631118
0.632818
0.633797
0.634106
0.634039
0.571016
0.571027
0.571329
0.572297
0.574106
0.576678
0.580071
0.584514
0.590286
0.597651
0.606319
0.614515
0.621016
0.62606
0.629956
0.632972
0.635141
0.636373
0.636758
0.636695
0.560702
0.560687
0.561032
0.562153
0.564264
0.567305
0.571354
0.576686
0.583642
0.592541
0.603035
0.612982
0.620915
0.627121
0.631965
0.635745
0.638457
0.639964
0.640422
0.640357
0.548692
0.548656
0.549051
0.550359
0.552849
0.556494
0.561379
0.567833
0.576264
0.587043
0.599731
0.611742
0.621344
0.628904
0.634861
0.63952
0.642847
0.644639
0.645162
0.64509
0.534474
0.534416
0.534892
0.536453
0.53943
0.543852
0.549815
0.557703
0.567989
0.581078
0.596391
0.610819
0.622341
0.631451
0.638699
0.64436
0.648358
0.650434
0.651005
0.650918
0.517343
0.517263
0.517867
0.519785
0.523415
0.528875
0.536258
0.54601
0.558653
0.574589
0.593023
0.610241
0.623946
0.634809
0.643493
0.65028
0.654991
0.657321
0.657911
0.657802
0.496294
0.496198
0.497008
0.499444
0.503996
0.510894
0.520214
0.532448
0.548122
0.567563
0.589673
0.610056
0.626195
0.638997
0.649251
0.657262
0.662671
0.665185
0.665755
0.665616
0.469795
0.469699
0.47086
0.474104
0.480056
0.489052
0.50113
0.51675
0.536341
0.560068
0.586438
0.610341
0.629121
0.644011
0.655955
0.665219
0.671223
0.673803
0.674301
0.674128
0.435362
0.43532
0.437112
0.441745
0.450059
0.462373
0.478518
0.4988
0.523416
0.552283
0.583479
0.611202
0.632767
0.649837
0.663514
0.673972
0.680359
0.682834
0.683206
0.682999
0.388589
0.388773
0.391963
0.399534
0.412251
0.430027
0.452231
0.478819
0.509686
0.544523
0.581015
0.612766
0.637188
0.656435
0.671813
0.68326
0.689673
0.691826
0.692033
0.691804
0.321224
0.322677
0.330454
0.344808
0.36566
0.392148
0.422903
0.457512
0.495738
0.537203
0.579292
0.615138
0.642397
0.663727
0.68057
0.692597
0.698598
0.70023
0.700273
0.700052
0.240799
0.243633
0.258783
0.283591
0.315601
0.352368
0.392353
0.435385
0.481346
0.529943
0.578311
0.618995
0.649777
0.673731
0.692132
0.704265
0.709572
0.710757
0.710741
0.710609
0.158418
0.165804
0.188576
0.223822
0.266607
0.313424
0.362629
0.414111
0.467822
0.523517
0.578099
0.623524
0.657691
0.684173
0.704018
0.715769
0.719897
0.720512
0.720447
0.720369
0.0910037
0.10046
0.128069
0.170695
0.221912
0.277222
0.334714
0.394093
0.455156
0.517559
0.577902
0.627583
0.664655
0.693127
0.713701
0.724843
0.728267
0.728712
0.728656
0.728603
0.0357165
0.0459207
0.0772108
0.125299
0.182868
0.244939
0.309365
0.375647
0.44335
0.511923
0.577572
0.631114
0.670747
0.70082
0.721889
0.732571
0.73555
0.735898
0.735854
0.735814
-0.0105824
-3.77018e-05
0.0337721
0.0861075
0.148856
0.216525
0.286786
0.359027
0.432629
0.506816
0.577347
0.634424
0.676333
0.707773
0.729169
0.739416
0.742113
0.742428
0.742404
0.742375
-0.0503519
-0.0396655
-0.00398338
0.0517467
0.118814
0.191284
0.26663
0.344139
0.423051
0.502395
0.577472
0.637819
0.68177
0.714327
0.735863
0.745727
0.748253
0.748579
0.748593
0.748582
-0.0853075
-0.0745824
-0.0374422
0.0210967
0.0918412
0.168485
0.248351
0.330633
0.414451
0.498626
0.57803
0.641469
0.6873
0.720798
0.742366
0.751903
0.75431
0.754666
0.754744
0.754766
-0.116727
-0.105994
-0.0676952
-0.00674033
0.0672051
0.14753
0.23145
0.318113
0.406529
0.495338
0.578946
0.645425
0.693072
0.727465
0.749078
0.758351
0.760661
0.761061
0.761217
0.761283
-0.145636
-0.134876
-0.095557
-0.032459
0.0443383
0.127938
0.21552
0.306229
0.39899
0.492304
0.580092
0.649659
0.699175
0.734522
0.756267
0.765386
0.767658
0.76808
0.768282
0.768386
-0.172621
-0.161819
-0.121586
-0.0565589
0.0227826
0.109324
0.200241
0.2947
0.391584
0.489301
0.581335
0.654109
0.705629
0.742063
0.764083
0.773131
0.775343
0.775753
0.775964
0.776098
-0.19817
-0.187308
-0.146214
-0.0794373
0.00219205
0.0913941
0.185363
0.283299
0.384108
0.486146
0.582527
0.658695
0.712359
0.749968
0.772363
0.781418
0.783579
0.783925
0.784113
0.784252
-0.22267
-0.211657
-0.169757
-0.101368
-0.0176737
0.0739311
0.170697
0.271865
0.376387
0.482677
0.583514
0.663303
0.719269
0.758127
0.780923
0.789976
0.792057
0.792312
0.792448
0.792565
-0.246257
-0.235068
-0.192398
-0.122541
-0.0369823
0.0568014
0.156115
0.26027
0.368296
0.478725
0.584134
0.667824
0.726282
0.766389
0.789539
0.798501
0.800455
0.800602
0.800665
0.800759
-0.269125
-0.257708
-0.214299
-0.143068
-0.055832
0.0399095
0.141534
0.248433
0.359739
0.474167
0.584226
0.67213
0.733362
0.774731
0.798009
0.806724
0.808481
0.808516
0.808509
0.808574
-0.291279
-0.279652
-0.23553
-0.163013
-0.0742749
0.0232137
0.126922
0.236315
0.350658
0.468897
0.583637
0.676088
0.740483
0.783201
0.806352
0.814512
0.815941
0.81587
0.815812
0.815851
-0.312813
-0.300946
-0.25609
-0.1824
-0.0923382
0.00669926
0.112268
0.223913
0.34103
0.462846
0.582222
0.679544
0.747623
0.791989
0.814781
0.821924
0.822768
0.822558
0.822498
0.822529
-0.333612
-0.321569
-0.275994
-0.20125
-0.110016
-0.00960269
0.0975921
0.211241
0.330863
0.455989
0.579858
0.682328
0.754716
0.801293
0.823755
0.829355
0.829036
0.828545
0.828604
0.828723
-0.353811
-0.341521
-0.295248
-0.219572
-0.127306
-0.0256856
0.0829507
0.19834
0.320187
0.448333
0.576451
0.684245
0.761598
0.811238
0.833887
0.837689
0.835405
0.834026
0.83433
0.834915
-0.37328
-0.360757
-0.313862
-0.237341
-0.144151
-0.04149
0.0683983
0.185294
0.309066
0.439883
0.571943
0.685089
0.768023
0.821723
0.845647
0.848263
0.843588
0.840245
0.840351
0.841919
-0.39213
-0.379346
-0.331797
-0.254517
-0.160535
-0.0569682
0.0540011
0.17216
0.297574
0.430725
0.566319
0.684634
0.773664
0.832355
0.858887
0.861952
0.855852
0.84967
0.845303
0.838913
-0.410258
-0.397285
-0.349147
-0.271271
-0.17668
-0.0723931
0.0394407
0.15856
0.285307
0.420429
0.559171
0.682476
0.778359
0.843223
0.873592
0.879077
0.873323
0.86364
0.850975
0.850787
-0.427639
-0.414657
-0.365925
-0.287555
-0.192584
-0.0877372
0.0247346
0.14446
0.272207
0.408826
0.550236
0.677976
0.781139
0.853449
0.887933
0.896249
0.890807
0.879977
0.844055
0.806299
-0.444089
-0.431325
-0.382101
-0.303251
-0.208254
-0.103016
0.009868