/*--------------------------------*- C++ -*----------------------------------*\
  =========                 |
  \\      /  F ield         | OpenFOAM: The Open Source CFD Toolbox
   \\    /   O peration     | Website:  https://openfoam.org
    \\  /    A nd           | Version:  6
     \\/     M anipulation  |
\*---------------------------------------------------------------------------*/
FoamFile
{
    version     2.0;
    format      ascii;
    class       volScalarField;
    location    "73.6";
    object      p;
}
// * * * * * * * * * * * * * * * * * * * * * * * * * * * * * * * * * * * * * //

dimensions      [0 2 -2 0 0 0 0];

internalField   nonuniform List<scalar> 
8800
(
0.805769
0.756453
0.718487
0.690416
0.670253
0.655662
0.645059
0.637511
0.632616
0.630533
0.63189
0.636222
0.643008
0.652425
0.665159
0.682477
0.706353
0.73945
0.782387
0.834901
0.640263
0.646608
0.655757
0.659304
0.656694
0.650602
0.643657
0.637408
0.632597
0.629716
0.62947
0.632086
0.63672
0.642842
0.649938
0.65697
0.661847
0.661722
0.655047
0.646148
0.613781
0.620016
0.624515
0.628384
0.63133
0.632274
0.63118
0.62905
0.627059
0.626206
0.627224
0.629667
0.632546
0.634812
0.63533
0.63354
0.630174
0.62616
0.621379
0.617663
0.609484
0.612249
0.614854
0.617009
0.618744
0.620308
0.621404
0.621748
0.621623
0.621708
0.622498
0.62363
0.624365
0.62421
0.623233
0.621877
0.620207
0.617905
0.615494
0.613928
0.604432
0.605857
0.607695
0.609773
0.611482
0.61277
0.613861
0.614832
0.61563
0.616351
0.617047
0.617497
0.617513
0.617146
0.616476
0.61536
0.613704
0.61181
0.610457
0.609655
0.599447
0.60035
0.601595
0.603219
0.604908
0.606435
0.607712
0.608825
0.609877
0.610878
0.611649
0.612028
0.612031
0.61166
0.610855
0.609667
0.608306
0.607041
0.60622
0.605696
0.594546
0.595201
0.596161
0.597475
0.598918
0.600429
0.601906
0.60326
0.604509
0.605697
0.606632
0.607116
0.607128
0.606689
0.605907
0.604966
0.603975
0.603072
0.602493
0.602109
0.589724
0.590229
0.591013
0.59215
0.593446
0.594857
0.596358
0.597888
0.599386
0.600824
0.601962
0.602561
0.602635
0.602312
0.601749
0.601063
0.600328
0.599667
0.599242
0.598942
0.584929
0.58533
0.585988
0.587005
0.588231
0.58959
0.591087
0.592716
0.594432
0.596158
0.597557
0.598354
0.598625
0.598536
0.598218
0.597756
0.597229
0.596764
0.59645
0.596207
0.580077
0.580404
0.580976
0.581916
0.583096
0.584446
0.585982
0.587716
0.589635
0.591668
0.593407
0.594518
0.595084
0.595267
0.595193
0.594962
0.594636
0.594335
0.594106
0.593902
0.575082
0.575353
0.575865
0.57676
0.577927
0.579308
0.580926
0.58281
0.584969
0.58736
0.589526
0.591043
0.591964
0.592456
0.592649
0.592655
0.592532
0.592375
0.592214
0.592037
0.569851
0.57008
0.570554
0.571435
0.572629
0.574084
0.575826
0.577916
0.580388
0.583224
0.585911
0.587912
0.589248
0.590094
0.590587
0.590836
0.590922
0.590901
0.590797
0.590639
0.564292
0.564487
0.564943
0.565839
0.567101
0.568674
0.570598
0.572963
0.575834
0.579223
0.582542
0.58512
0.586943
0.588195
0.589026
0.589547
0.589853
0.589959
0.589901
0.589756
0.558298
0.558466
0.558921
0.559862
0.561231
0.562975
0.565149
0.567872
0.571245
0.575314
0.579399
0.582668
0.585065
0.586788
0.588008
0.588853
0.589379
0.589608
0.589591
0.589454
0.551747
0.551893
0.552362
0.553377
0.554899
0.556874
0.559375
0.562555
0.566553
0.571455
0.576466
0.580562
0.583642
0.585919
0.587583
0.588779
0.589564
0.589924
0.589944
0.58981
0.544495
0.544618
0.545117
0.546235
0.547961
0.550239
0.553159
0.556913
0.561687
0.567606
0.573734
0.578816
0.582703
0.585633
0.587824
0.58943
0.590502
0.590996
0.59105
0.590915
0.53635
0.536461
0.537001
0.538253
0.540244
0.542908
0.546357
0.550829
0.55656
0.563719
0.571191
0.577447
0.582286
0.585986
0.588808
0.590894
0.592286
0.592922
0.593008
0.592868
0.527069
0.527172
0.527769
0.529198
0.531534
0.534686
0.538802
0.544171
0.551083
0.55975
0.568831
0.576481
0.582444
0.587049
0.590614
0.593261
0.595018
0.595803
0.595916
0.595769
0.516336
0.516424
0.517108
0.518778
0.521552
0.525328
0.530287
0.536779
0.545152
0.555655
0.56666
0.575948
0.583231
0.588902
0.593318
0.596629
0.598794
0.599731
0.599867
0.599707
0.503766
0.50384
0.504628
0.50661
0.509946
0.514525
0.520562
0.528476
0.538666
0.551401
0.564692
0.575892
0.584699
0.591606
0.59702
0.601088
0.603693
0.604779
0.604929
0.604755
0.488785
0.488853
0.489788
0.492184
0.496258
0.50189
0.509329
0.519061
0.531523
0.546969
0.562955
0.576362
0.586905
0.595227
0.601784
0.606693
0.60976
0.61098
0.611133
0.61094
0.470597
0.470656
0.471809
0.474794
0.47988
0.486934
0.496234
0.508328
0.523646
0.542372
0.561497
0.57741
0.589909
0.599817
0.607626
0.613465
0.616984
0.618303
0.618442
0.618229
0.448014
0.448079
0.449579
0.453446
0.459986
0.469039
0.480894
0.496108
0.515027
0.537685
0.560405
0.5791
0.593748
0.605397
0.614564
0.621359
0.625273
0.626633
0.626737
0.626504
0.419217
0.419312
0.421415
0.426709
0.435509
0.447509
0.462974
0.482346
0.505771
0.533061
0.55981
0.581518
0.598455
0.611939
0.622545
0.630246
0.634426
0.635742
0.635788
0.635539
0.381083
0.381309
0.384647
0.392576
0.405189
0.42174
0.442366
0.467215
0.496151
0.528758
0.559891
0.584767
0.604063
0.619403
0.631453
0.639891
0.644128
0.64529
0.645259
0.645002
0.327656
0.328775
0.335421
0.348813
0.368096
0.391692
0.41946
0.451215
0.486611
0.525097
0.560842
0.58894
0.610581
0.627717
0.641059
0.649948
0.653949
0.654856
0.654745
0.654488
0.250325
0.257909
0.273171
0.296594
0.325839
0.358861
0.395316
0.434964
0.477476
0.522312
0.562972
0.594485
0.618651
0.637691
0.652132
0.66115
0.664739
0.665377
0.665212
0.664989
0.168104
0.184665
0.209446
0.24365
0.283382
0.325979
0.371146
0.418816
0.46876
0.520508
0.566827
0.60239
0.629513
0.650671
0.666121
0.674768
0.677619
0.677966
0.677821
0.677676
0.0976371
0.117882
0.150609
0.194086
0.243141
0.294756
0.348404
0.403963
0.461166
0.51952
0.5711
0.610294
0.639934
0.662703
0.678542
0.686447
0.688691
0.688945
0.688851
0.688743
0.0399544
0.0624578
0.100644
0.150768
0.207121
0.266292
0.327436
0.390237
0.454248
0.518842
0.575334
0.61786
0.649681
0.673662
0.689671
0.697141
0.699143
0.699395
0.699354
0.699269
-0.00782314
0.0160188
0.0581566
0.11347
0.17566
0.241056
0.308598
0.377811
0.448043
0.518489
0.579654
0.625349
0.65923
0.684417
0.70072
0.707989
0.709827
0.710092
0.710096
0.710031
-0.0483311
-0.0236992
0.0213504
0.0808845
0.147997
0.218712
0.291806
0.366714
0.442629
0.518561
0.584216
0.632997
0.668959
0.695376
0.712102
0.719331
0.721194
0.721456
0.72149
0.721442
-0.083625
-0.0584743
-0.0111508
0.0518845
0.123216
0.19858
0.276623
0.356705
0.43788
0.518983
0.588994
0.640838
0.678875
0.706583
0.723893
0.731395
0.73329
0.73355
0.733592
0.733557
-0.11522
-0.0896539
-0.0404613
0.0255602
0.100557
0.180024
0.262537
0.34738
0.433496
0.519575
0.593815
0.648699
0.688826
0.717928
0.735982
0.743817
0.745802
0.74605
0.746079
0.746059
-0.144157
-0.118211
-0.0674246
0.00119756
0.079425
0.162544
0.249107
0.338364
0.429185
0.520089
0.598474
0.65637
0.698598
0.729087
0.747931
0.756099
0.758218
0.758451
0.758461
0.758448
-0.17126
-0.144908
-0.0926966
-0.0217298
0.0593612
0.145753
0.236009
0.329372
0.42465
0.520237
0.602774
0.66366
0.707967
0.739814
0.759384
0.767904
0.77015
0.770392
0.770365
0.770349
-0.196939
-0.170198
-0.116675
-0.0436223
0.0400292
0.12937
0.222998
0.320159
0.419669
0.519864
0.606558
0.670458
0.716797
0.749931
0.770144
0.77895
0.781279
0.781499
0.781436
0.78141
-0.221659
-0.194448
-0.139711
-0.0647663
0.0211849
0.113182
0.209886
0.310578
0.414112
0.51882
0.60971
0.676691
0.725047
0.759349
0.780087
0.789031
0.791385
0.791577
0.791477
0.791438
-0.245566
-0.21788
-0.161999
-0.0853465
0.0026646
0.0970609
0.196569
0.300534
0.407864
0.516971
0.61215
0.682327
0.732728
0.768081
0.789132
0.798095
0.800408
0.800558
0.800425
0.800372
-0.268809
-0.240613
-0.183674
-0.10547
-0.0156118
0.0809401
0.18299
0.289948
0.400842
0.514238
0.613792
0.68737
0.739904
0.776216
0.797384
0.806188
0.808383
0.808486
0.808326
0.80826
-0.291491
-0.262774
-0.204798
-0.125187
-0.0336922
0.0647903
0.169126
0.27881
0.393016
0.51055
0.614552
0.691801
0.746697
0.783949
0.805006
0.81342
0.815402
0.815432
0.815255
0.815179
-0.313687
-0.284376
-0.225394
-0.144513
-0.051568
0.0486166
0.154997
0.267138
0.384384
0.505837
0.614347
0.695592
0.753216
0.7915
0.812222
0.819961
0.821567
0.821497
0.821306
0.821227
-0.335268
-0.305393
-0.245452
-0.163448
-0.0692221
0.0324668
0.140643
0.254978
0.374968
0.500092
0.613087
0.698665
0.759523
0.799166
0.819414
0.826073
0.827008
0.826764
0.826583
0.826511
-0.356222
-0.325803
-0.264974
-0.181962
-0.0866121
0.0163858
0.126136
0.242382
0.364823
0.493311
0.61069
0.700896
0.765592
0.807195
0.827137
0.832316
0.832023
0.831356
0.831217
0.831218
-0.376604
-0.345586
-0.283946
-0.200034
-0.103688
0.000443964
0.111551
0.22944
0.354023
0.485522
0.607071
0.70214
0.771269
0.815658
0.83601
0.83975
0.837502
0.835665
0.835421
0.835787
-0.396275
-0.364719
-0.302318
-0.217607
-0.120401
-0.0152825
0.0969767
0.216249
0.342664
0.476798
0.602171
0.702208
0.776297
0.824301
0.846298
0.849703
0.845534
0.841258
0.839184
0.838459
-0.415327
-0.383213
-0.320099
-0.234716
-0.13679
-0.0308339
0.0823611
0.202753
0.330677
0.467076
0.59583
0.700846
0.780437
0.832687
0.857621
0.862777
0.858459
0.850962
0.841741
0.842692
-0.433683
-0.401136
-0.337428
-0.251557
-0.153145
-0.0465342
0.0672977
0.188478
0.317535
0.455754
0.58743
0.697339
0.783329
0.840364
0.868719
0.87736
0.873455
0.861269
0.84209
0.841202
-0.451212
-0.418456
-0.354142
-0.267946
-0.169207
-0.0620867
0.0519844
0.173736
0.303513
0.443039
0.576957
0.69091
0.784008
0.846067
0.875564
0.884844
0.881908
0.85499
0.79762
0.773062
-0.467802
-0.436083
-0.36985
-0.283448
-0.184191
-0.0770096
0.0367024
0.158802
0.288889
0.429095
0.56445
0.680904
0.781267
0.848654
0.873129
0.877241
0.860496
0.807192
0.744951
0.707137
-0.51027
-0.453321
-0.38426
-0.298973
-0.198849
-0.0922731
0.0215953
0.14355
0.273452
0.413552
0.549467
0.666608
0.771114
0.844262
0.858378
0.84122
0.789744
0.72231
0.652588
0.614229
-0.485265
-0.467014
-0.406201
-0.320192
-0.221557
-0.115215
-0.00202558
0.119306
0.248364
0.387214
0.522061
0.637733
0.734358
0.815119
0.795175
0.682001
0.588446
0.523488
0.458269
0.483765
-0.515771
-0.484332
-0.422667
-0.337155
-0.238893
-0.132702
-0.019331
0.101353
0.229417
0.366563
0.498945
0.611288
0.69672
0.742441
0.686911
0.543464
0.43162
0.356236
0.273007
0.316821
-0.539378
-0.505555
-0.442177
-0.356621
-0.258413
-0.152239
-0.0389904
0.0809003
0.20761
0.342386
0.47096
0.57734
0.65124
0.658637
0.548006
0.389621
0.258143
0.163843
0.0673784
0.0973474
-0.562327
-0.52747
-0.462739
-0.376536
-0.27826
-0.172215
-0.0594943
0.0594214
0.184522
0.316471
0.440115
0.537969
0.595143
0.568824
0.406941
0.227326
0.0655498
-0.0697504
-0.195073
-0.183645
-0.584995
-0.549762
-0.484134
-0.397348
-0.298951
-0.193141
-0.0810998
0.0366734
0.159847
0.288499
0.40629
0.495637
0.531792
0.458894
0.268028
0.0687842
-0.119674
-0.274701
-0.48067
-0.55998
-0.608067
-0.572894
-0.506742
-0.419547
-0.32101
-0.215399
-0.103985
0.0125911
0.133681
0.258712
0.370106
0.449964
0.459609
0.33549
0.141231
-0.0697157
-0.263068
-0.42557
-0.549737
-0.667427
-0.632616
-0.597354
-0.530921
-0.443518
-0.344975
-0.239672
-0.128995
-0.0138131
0.104814
0.225611
0.330126
0.396836
0.378604
0.218324
0.022546
-0.18233
-0.358959
-0.456938
-0.483201
-0.496637
-0.658769
-0.623432
-0.5568
-0.469351
-0.370995
-0.266185
-0.156507
-0.0430577
0.0726231
0.188393
0.285562
0.3342
0.296378
0.105554
-0.0881701
-0.272824
-0.406266
-0.444488
-0.453391
-0.453724
-0.686804
-0.651253
-0.584421
-0.497034
-0.399019
-0.294949
-0.186552
-0.0752059
0.0370305
0.147024
0.235773
0.267783
0.197852
0.00249176
-0.185001
-0.345561
-0.420544
-0.434689
-0.43575
-0.43562
-0.716731
-0.680849
-0.613803
-0.526568
-0.429069
-0.32596
-0.219144
-0.110283
-0.00195934
0.101609
0.180628
0.19771
0.0891846
-0.090821
-0.26824
-0.395993
-0.425053
-0.425569
-0.426047
-0.42559
-0.748293
-0.712053
-0.644845
-0.557873
-0.461061
-0.359169
-0.254264
-0.148274
-0.0443026
0.052285
0.121413
0.119293
-0.00699375
-0.17634
-0.333632
-0.407329
-0.422021
-0.420187
-0.419936
-0.419523
-0.780928
-0.744515
-0.677283
-0.590716
-0.494806
-0.39442
-0.291765
-0.189061
-0.0897841
-0.000532373
0.0585583
0.0401475
-0.0956528
-0.25077
-0.375717
-0.414776
-0.414365
-0.415169
-0.415205
-0.414958
-0.814192
-0.777699
-0.710622
-0.624675
-0.529945
-0.431383
-0.331358
-0.232369
-0.138111
-0.0559446
-0.00926617
-0.0345378
-0.176483
-0.309164
-0.398056
-0.408231
-0.410767
-0.411613
-0.41165
-0.411603
-0.847119
-0.810714
-0.744122
-0.6591
-0.565916
-0.469568
-0.372571
-0.277704
-0.18887
-0.113135
-0.0771176
-0.109509
-0.24647
-0.354614
-0.402754
-0.415703
-0.411571
-0.409721
-0.409192
-0.409082
-0.877858
-0.842259
-0.776731
-0.693087
-0.60192
-0.508254
-0.414721
-0.324319
-0.241303
-0.171654
-0.140106
-0.187781
-0.305615
-0.397811
-0.418483
-0.418413
-0.413842
-0.410263
-0.409235
-0.408803
-0.905324
-0.870805
-0.807028
-0.725413
-0.636877
-0.546477
-0.456914
-0.371285
-0.29417
-0.231026
-0.201739
-0.256168
-0.352226
-0.428722
-0.44827
-0.433708
-0.424551
-0.420639
-0.418657
-0.417586
-0.926773
-0.89422
-0.833226
-0.754524
-0.669441
-0.583027
-0.498013
-0.417536
-0.346122
-0.28945
-0.263125
-0.309271
-0.382316
-0.435282
-0.436336
-0.438042
-0.439746
-0.438025
-0.435559
-0.434724
-0.940094
-0.910335
-0.853212
-0.778642
-0.698049
-0.616495
-0.536671
-0.461793
-0.39604
-0.344184
-0.319192
-0.351677
-0.396318
-0.432201
-0.429896
-0.434165
-0.436139
-0.435888
-0.435714
-0.436032
-0.942547
-0.916716
-0.864838
-0.795879
-0.721027
-0.645371
-0.57145
-0.502483
-0.44273
-0.394386
-0.365317
-0.388744
-0.401709
-0.424841
-0.427669
-0.428843
-0.429709
-0.429887
-0.430201
-0.430242
-0.93183
-0.91083
-0.86595
-0.804448
-0.73687
-0.668227
-0.600997
-0.538038
-0.484366
-0.441191
-0.398982
-0.422827
-0.407598
-0.407078
-0.41613
-0.423116
-0.426594
-0.428
-0.428414
-0.428473
-0.905376
-0.889949
-0.854586
-0.803069
-0.744504
-0.68405
-0.624197
-0.567447
-0.518884
-0.483167
-0.437457
-0.438918
-0.437962
-0.441343
-0.445185
-0.437699
-0.430462
-0.43002
-0.43071
-0.430853
-0.866617
-0.856752
-0.831814
-0.791969
-0.74386
-0.692633
-0.640446
-0.590099
-0.545807
-0.515645
-0.486338
-0.467141
-0.45795
-0.484065
-0.489903
-0.463681
-0.447019
-0.442089
-0.441586
-0.441275
-0.822633
-0.817024
-0.802605
-0.774216
-0.737063
-0.694732
-0.650078
-0.605441
-0.564936
-0.53533
-0.507967
-0.482006
-0.450313
-0.426468
-0.400253
-0.410777
-0.441369
-0.454925
-0.455821
-0.455123
-0.783549
-0.780156
-0.773316
-0.755231
-0.727123
-0.692276
-0.654039
-0.613802
-0.57492
-0.542341
-0.515654
-0.492545
-0.461694
-0.425596
-0.414948
-0.457524
-0.486006
-0.492735
-0.489326
-0.493899
-0.75549
-0.753477
-0.749968
-0.739242
-0.717833
-0.68854
-0.654135
-0.616289
-0.576714
-0.540707
-0.513133
-0.501603
-0.535868
-0.628104
-0.742248
-0.841314
-0.872494
-0.835182
-0.769803
-0.74713
-0.73501
-0.734307
-0.733127
-0.727779
-0.711911
-0.686064
-0.653068
-0.614405
-0.572228
-0.529956
-0.499613
-0.490295
-0.539441
-0.662971
-0.813025
-0.849039
-0.832165
-0.786192
-0.730525
-0.697527
-0.723097
-0.722863
-0.722252
-0.719698
-0.708772
-0.684863
-0.651293
-0.610955
-0.564324
-0.511705
-0.469541
-0.418086
-0.397975
-0.397792
-0.454971
-0.484823
-0.421075
-0.329917
-0.254067
-0.219728
-0.714976
-0.714817
-0.714363
-0.713441
-0.706618
-0.684973
-0.650453
-0.60698
-0.552973
-0.489232
-0.422561
-0.333666
-0.195084
-0.0125193
0.178633
0.337645
0.480496
0.581907
0.644573
0.669636
-0.70996
-0.709848
-0.70953
-0.709183
-0.705102
-0.687123
-0.651813
-0.602792
-0.543064
-0.467272
-0.376711
-0.273386
-0.0669853
0.251849
0.605406
0.948537
1.20317
1.32599
1.38006
1.39282
-0.706995
-0.706888
-0.70654
-0.706025
-0.704997
-0.692106
-0.656312
-0.601144
-0.535588
-0.450007
-0.351471
-0.234521
-0.0206594
0.334104
0.720953
1.08081
1.35337
1.48652
1.51878
1.5199
-0.705736
-0.706075
-0.706837
-0.707754
-0.708871
-0.701028
-0.662739
-0.602592
-0.530702
-0.445267
-0.34158
-0.232615
-0.0429193
0.248765
0.553775
0.83903
1.04759
1.13987
1.16828
1.17381
-0.701875
-0.703633
-0.708317
-0.71692
-0.725444
-0.71461
-0.668269
-0.604878
-0.536621
-0.451104
-0.34856
-0.252782
-0.104978
0.134845
0.367118
0.552933
0.674639
0.73842
0.772254
0.785916
-0.697233
-0.699303
-0.704111
-0.713246
-0.722421
-0.706287
-0.659953
-0.611186
-0.551532
-0.463253
-0.365298
-0.284533
-0.167683
0.0184347
0.203934
0.354718
0.464741
0.532185
0.566601
0.577827
-0.718378
-0.719708
-0.716284
-0.690605
-0.6512
-0.637949
-0.636512
-0.624528
-0.570814
-0.479985
-0.391614
-0.320405
-0.240071
-0.0751353
0.091872
0.225287
0.326167
0.391444
0.419223
0.426359
-0.758435
-0.757142
-0.746949
-0.703412
-0.638217
-0.611045
-0.652413
-0.655311
-0.59544
-0.49809
-0.416913
-0.351551
-0.28599
-0.159272
-0.0210216
0.0939207
0.183126
0.24075
0.263676
0.267935
-0.819626
-0.817917
-0.829275
-0.841328
-0.839277
-0.813501
-0.803894
-0.741087
-0.630604
-0.520371
-0.439155
-0.378778
-0.324958
-0.220235
-0.0998379
-0.0118128
0.0564259
0.0981248
0.113335
0.115628
-0.957722
-0.973234
-1.02424
-1.08641
-1.11167
-1.08418
-1.00052
-0.847196
-0.673384
-0.545928
-0.457372
-0.391922
-0.353445
-0.269697
-0.17245
-0.103569
-0.0478207
-0.0172115
-0.00501502
-0.00432982
-1.09039
-1.11437
-1.16354
-1.20895
-1.22961
-1.20119
-1.1006
-0.888168
-0.691761
-0.560861
-0.456287
-0.397569
-0.361292
-0.300205
-0.225092
-0.170368
-0.129446
-0.107553
-0.100044
-0.100298
-1.08716
-1.10492
-1.13833
-1.1715
-1.18811
-1.16283
-1.04372
-0.826854
-0.663993
-0.537604
-0.441096
-0.393323
-0.359962
-0.312753
-0.261474
-0.222634
-0.193287
-0.17706
-0.171833
-0.173027
-0.908278
-0.926295
-0.958885
-0.995166
-1.01728
-0.991501
-0.872078
-0.713425
-0.584939
-0.472367
-0.415683
-0.368618
-0.34596
-0.316927
-0.283667
-0.259971
-0.243529
-0.235602
-0.233602
-0.234911
-0.590498
-0.607049
-0.639683
-0.680802
-0.711638
-0.701257
-0.633094
-0.54915
-0.462877
-0.405572
-0.367819
-0.336638
-0.325473
-0.310359
-0.298104
-0.291387
-0.288307
-0.289474
-0.289852
-0.290688
-0.245164
-0.255827
-0.279293
-0.314731
-0.351185
-0.370081
-0.371815
-0.36358
-0.346796
-0.331808
-0.310935
-0.300411
-0.299489
-0.294529
-0.299055
-0.307328
-0.317519
-0.325161
-0.326996
-0.326983
0.000265482
-0.00534997
-0.0209957
-0.050826
-0.0951691
-0.146198
-0.191337
-0.224764
-0.246349
-0.256799
-0.262458
-0.260478
-0.264462
-0.272394
-0.287178
-0.30268
-0.31709
-0.324815
-0.326796
-0.326891
0.112917
0.109606
0.0984375
0.0734443
0.0318978
-0.0237323
-0.0826568
-0.133316
-0.17153
-0.202218
-0.221091
-0.228479
-0.237444
-0.25124
-0.267465
-0.282438
-0.295557
-0.301418
-0.302445
-0.302498
0.1371
0.134763
0.126439
0.107125
0.0732929
0.0275108
-0.023656
-0.0762477
-0.122366
-0.158751
-0.190665
-0.214725
-0.230515
-0.23592
-0.243172
-0.251483
-0.258471
-0.261234
-0.261495
-0.261761
0.122872
0.121287
0.115388
0.101515
0.0768997
0.0415111
-0.000207853
-0.0443277
-0.0856396
-0.125751
-0.16688
-0.20659
-0.228309
-0.218893
-0.215813
-0.216124
-0.21617
-0.215122
-0.214449
-0.214636
0.0972696
0.0963113
0.0924053
0.0830132
0.0660183
0.0411505
0.00970113
-0.0259233
-0.0621414
-0.0985844
-0.137856
-0.178427
-0.196827
-0.182823
-0.173319
-0.171183
-0.1681
-0.166439
-0.166582
-0.167171
0.0708021
0.0703344
0.0679503
0.0619159
0.0506221
0.0334223
0.0111703
-0.0145468
-0.0420695
-0.0703802
-0.0991501
-0.124591
-0.133085
-0.128083
-0.126128
-0.127191
-0.12762
-0.128276
-0.129095
-0.129616
0.0465675
0.0464172
0.045161
0.0416091
0.0346642
0.0238011
0.00919817
-0.0078198
-0.0262218
-0.0436599
-0.057643
-0.062292
-0.0619865
-0.0678699
-0.0777439
-0.0870809
-0.0933473
-0.0970365
-0.09823
-0.0983517
0.02496
0.0249823
0.0244772
0.0227668
0.0191998
0.0134763
0.00557452
-0.00357034
-0.0134378
-0.0210626
-0.0235907
-0.0131397
-0.00337297
-0.0209915
-0.0366641
-0.0486568
-0.0568694
-0.0613698
-0.0623252
-0.0620202
0.00445967
0.00455158
0.00461665
0.00485735
0.0046356
0.00376983
0.00239221
0.000684935
-0.00123913
-0.00345187
-0.0033362
-0.00102126
0.00487436
0.0016989
-0.00448801
-0.0082459
-0.0111922
-0.0127717
-0.0133757
-0.0130124
-0.0527796
0.135685
0.308738
0.455171
0.572373
0.664815
0.741648
0.804059
0.819865
0.816369
0.236447
0.357459
0.47084
0.569178
0.651851
0.720043
0.773737
0.81005
0.829515
0.846174
0.43243
0.51308
0.592838
0.662801
0.72237
0.771759
0.810654
0.840321
0.862674
0.881926
0.577482
0.634685
0.69233
0.744039
0.78865
0.826582
0.858443
0.88519
0.905383
0.924279
0.69405
0.737047
0.779709
0.819673
0.855417
0.887015
0.914659
0.938102
0.955997
0.974042
0.790682
0.826245
0.861287
0.894855
0.925809
0.953853
0.978615
0.999399
1.01513
1.03261
0.878759
0.910636
0.942806
0.973906
1.00282
1.0291
1.05216
1.07105
1.08493
1.10194
0.96555
0.998057
1.03041
1.06154
1.09027
1.116
1.13809
1.15559
1.16795
1.18447
1.05984
1.09621
1.13093
1.16334
1.19248
1.21781
1.2389
1.25517
1.26677
1.28291
1.17283
1.21341
1.25041
1.28334
1.3118
1.33577
1.35538
1.37064
1.38253
1.3986
1.31422
1.35524
1.39047
1.42005
1.44524
1.46684
1.48533
1.5008
1.51392
1.52986
1.48571
1.51804
1.54493
1.56724
1.58732
1.60604
1.62377
1.64054
1.65545
1.67117
1.67199
1.68925
1.70636
1.72304
1.73913
1.75386
1.76776
1.78224
1.79748
1.81478
1.85537
1.86534
1.87853
1.88951
1.89892
1.90858
1.91918
1.92936
1.93865
1.96431
2.07326
2.06756
2.05461
2.04035
2.03405
2.03976
2.0579
2.08642
2.12018
2.15651
2.37607
2.24012
2.16061
2.11809
2.10076
2.10474
2.13217
2.19004
2.2977
2.47611
0.709462
0.70316
0.69543
0.684316
0.670746
0.658099
0.647706
0.639699
0.633989
0.630671
0.630338
0.633192
0.638442
0.645812
0.655371
0.667208
0.680775
0.693708
0.7027
0.710242
0.618526
0.624446
0.632519
0.638653
0.641723
0.641214
0.638131
0.634141
0.630562
0.628292
0.628179
0.630456
0.634229
0.63869
0.642803
0.645056
0.643988
0.639356
0.632305
0.624473
0.611769
0.614141
0.61741
0.620184
0.622637
0.624829
0.626013
0.625873
0.624946
0.624157
0.624397
0.625839
0.627643
0.628889
0.628828
0.627371
0.62522
0.622864
0.619886
0.61687
0.606969
0.608057
0.609975
0.612315
0.61419
0.615593
0.616816
0.617818
0.618431
0.61883
0.619415
0.620191
0.620684
0.620588
0.619976
0.619066
0.617744
0.615782
0.613679
0.612203
0.601931
0.602565
0.603695
0.605455
0.607303
0.608902
0.61016
0.611234
0.612232
0.613156
0.613979
0.614539
0.61471
0.614529
0.614013
0.613054
0.611638
0.610037
0.608705
0.607905
0.596988
0.597427
0.598217
0.599524
0.601051
0.602622
0.604109
0.605418
0.606591
0.607709
0.608707
0.609357
0.609576
0.609373
0.608734
0.607755
0.606616
0.605483
0.604586
0.604054
0.59213
0.592457
0.593071
0.594145
0.595448
0.596856
0.598346
0.599835
0.60125
0.602589
0.60379
0.604594
0.60487
0.604666
0.6041
0.603341
0.602514
0.601673
0.601019
0.600629
0.587331
0.587585
0.588081
0.588997
0.590178
0.591497
0.592932
0.594479
0.596086
0.59769
0.599152
0.600142
0.600546
0.600497
0.600154
0.599639
0.59903
0.59842
0.597947
0.597649
0.582519
0.58272
0.583133
0.583941
0.585046
0.58632
0.587746
0.589341
0.591096
0.592956
0.594725
0.595995
0.59665
0.596857
0.596765
0.596484
0.596088
0.595674
0.595343
0.595109
0.577607
0.577769
0.578124
0.57886
0.57992
0.58118
0.58264
0.584326
0.586248
0.588379
0.590514
0.592165
0.593165
0.593681
0.593857
0.593818
0.593643
0.593409
0.593195
0.593009
0.572506
0.572637
0.57295
0.573643
0.57469
0.575979
0.577513
0.579336
0.58148
0.583944
0.586525
0.588649
0.590063
0.590935
0.591418
0.591639
0.591685
0.591628
0.591514
0.591363
0.567123
0.567229
0.567515
0.568191
0.569259
0.570621
0.572275
0.57429
0.576727
0.579613
0.582744
0.585435
0.587338
0.588622
0.58945
0.589957
0.590241
0.590359
0.590334
0.59021
0.561361
0.561445
0.561716
0.562398
0.563524
0.565001
0.56683
0.569105
0.57192
0.575334
0.579137
0.582509
0.584992
0.586756
0.58798
0.588822
0.589369
0.589655
0.589709
0.589606
0.555106
0.555171
0.555435
0.556147
0.557367
0.559007
0.561075
0.563693
0.566986
0.571053
0.575675
0.579869
0.583042
0.585371
0.587052
0.588272
0.589107
0.589578
0.589708
0.589622
0.548224
0.548269
0.548535
0.549299
0.550654
0.552512
0.554895
0.55795
0.561843
0.566715
0.572331
0.577511
0.581505
0.584504
0.586722
0.588368
0.589539
0.590211
0.590415
0.590342
0.54056
0.540581
0.540849
0.541692
0.543223
0.545366
0.54815
0.551757
0.556396
0.562256
0.569078
0.57544
0.580407
0.584193
0.58705
0.589209
0.590759
0.591647
0.591926
0.591861
0.531869
0.531885
0.532173
0.533114
0.534877
0.537381
0.540675
0.544974
0.55054
0.557612
0.56589
0.573662
0.579782
0.584496
0.588105
0.590877
0.592862
0.593987
0.594341
0.594281
0.521882
0.521873
0.522206
0.523297
0.525361
0.528328
0.532264
0.537432
0.54415
0.552708
0.562743
0.572192
0.579672
0.58548
0.589973
0.593456
0.595943
0.597329
0.597755
0.597696
0.510278
0.510246
0.510631
0.511912
0.514348
0.517908
0.522667
0.528935
0.537094
0.547478
0.559629
0.571056
0.580121
0.587205
0.592735
0.597038
0.600101
0.60176
0.602254
0.60219
0.496553
0.4965
0.496964
0.498497
0.501419
0.50575
0.511571
0.519249
0.529222
0.541855
0.556545
0.570289
0.58118
0.589728
0.596464
0.601709
0.605403
0.607339
0.607889
0.607814
0.480037
0.479961
0.480552
0.482438
0.48601
0.491368
0.498595
0.508108
0.520391
0.535798
0.553513
0.569939
0.582908
0.593114
0.601208
0.6075
0.611878
0.614078
0.614662
0.61457
0.459751
0.459658
0.460454
0.462854
0.467344
0.474129
0.483272
0.495227
0.51048
0.529308
0.550589
0.570064
0.585357
0.597405
0.606978
0.614433
0.619498
0.621913
0.622499
0.62238
0.434233
0.434141
0.435278
0.438474
0.444349
0.45322
0.465086
0.480371
0.499466
0.522477
0.547892
0.570762
0.588581
0.602618
0.61379
0.622451
0.628144
0.630682
0.631224
0.631073
0.401092
0.401049
0.4028
0.407373
0.415569
0.427706
0.443582
0.463454
0.487478
0.515511
0.545608
0.572155
0.592639
0.608753
0.621577
0.631427
0.637584
0.640103
0.640548
0.640362
0.356072
0.356238
0.359333
0.366775
0.379314
0.396824
0.418657
0.444727
0.474882
0.508747
0.543978
0.574391
0.597602
0.615786
0.630248
0.641133
0.647464
0.649767
0.650068
0.649853
0.291224
0.292596
0.300115
0.314171
0.334678
0.360737
0.390969
0.424911
0.462275
0.502614
0.543267
0.57759
0.603482
0.623654
0.639528
0.651117
0.657259
0.659124
0.659259
0.659038
0.213858
0.216555
0.231165
0.255382
0.286795
0.322975
0.362303
0.404552
0.449552
0.496927
0.543746
0.58275
0.611972
0.634625
0.652088
0.664052
0.669776
0.671301
0.671377
0.671245
0.13471
0.141801
0.163735
0.198115
0.240099
0.286165
0.334588
0.385203
0.437905
0.492349
0.545359
0.589019
0.621478
0.646466
0.665382
0.677359
0.682201
0.683197
0.683209
0.683133
0.0701355
0.0791475
0.105773
0.147341
0.197644
0.252098
0.308721
0.36718
0.427231
0.488426
0.547253
0.595188
0.630477
0.657315
0.677039
0.688681
0.692984
0.693838
0.693896
0.693869
0.0172603
0.0269973
0.0571934
0.104106
0.160669
0.221831
0.285355
0.350716
0.417463
0.48496
0.549275
0.601232
0.639144
0.667643
0.68803
0.69953
0.703576
0.704367
0.70447
0.704486
-0.0269494
-0.0169008
0.0157298
0.0668126
0.128506
0.195243
0.264608
0.335974
0.408726
0.482047
0.551571
0.607378
0.647834
0.677981
0.699161
0.710708
0.714529
0.715357
0.715519
0.715576
-0.0649746
-0.0547956
-0.0203492
0.0340709
0.100062
0.171591
0.246058
0.322758
0.400969
0.4797
0.554176
0.613759
0.656742
0.688567
0.710593
0.722321
0.726234
0.727113
0.727296
0.727389
-0.0985121
-0.0882938
-0.0524261
0.00475672
0.0744112
0.150104
0.229111
0.310653
0.393908
0.477729
0.556967
0.620257
0.665758
0.699297
0.722318
0.734522
0.738638
0.739537
0.739699
0.73979
-0.128836
-0.118595
-0.0815791
-0.0220231
0.0508126
0.130172
0.213242
0.29921
0.387177
0.475888
0.559754
0.626675
0.674697
0.709976
0.734071
0.746846
0.751186
0.752103
0.752229
0.752303
-0.156927
-0.146646
-0.108615
-0.0469523
0.0287042
0.111313
0.198037
0.288074
0.38048
0.473876
0.56229
0.632808
0.683349
0.720355
0.745529
0.758836
0.763413
0.764347
0.764438
0.764491
-0.183361
-0.173026
-0.134064
-0.0705053
0.00764784
0.0931625
0.183202
0.276982
0.373535
0.471442
0.564364
0.63851
0.691523
0.730211
0.756393
0.770183
0.775014
0.775957
0.775988
0.776007
-0.208608
-0.19817
-0.158334
-0.0930545
-0.0126679
0.0754573
0.168502
0.26572
0.366166
0.468436
0.565844
0.643658
0.699171
0.73946
0.766547
0.780705
0.785651
0.786594
0.786582
0.786568
-0.232999
-0.222376
-0.181711
-0.114849
-0.0324557
0.0580089
0.15378
0.254163
0.358262
0.464721
0.566602
0.64818
0.706242
0.748077
0.77591
0.79029
0.795241
0.796148
0.796097
0.796051
-0.256648
-0.245811
-0.204352
-0.136049
-0.0518532
0.0407178
0.138954
0.242232
0.349725
0.460182
0.566532
0.652036
0.712763
0.756111
0.784496
0.798911
0.803775
0.80461
0.804526
0.804456
-0.279717
-0.268613
-0.226391
-0.156735
-0.0709269
0.0235247
0.12398
0.229883
0.340502
0.45477
0.565555
0.655166
0.71878
0.763696
0.792489
0.806711
0.811337
0.812065
0.811938
0.81185
-0.302175
-0.290852
-0.247864
-0.176945
-0.0897017
0.0064191
0.108856
0.217121
0.3306
0.448434
0.563583
0.657508
0.724346
0.771007
0.800073
0.813828
0.818043
0.818596
0.818427
0.818326
-0.324127
-0.312517
-0.268754
-0.196682
-0.108176
-0.0105844
0.0936076
0.203985
0.320043
0.44116
0.560545
0.65898
0.729464
0.778229
0.80756
0.820528
0.824029
0.8243
0.824086
0.823983
-0.345394
-0.333588
-0.289061
-0.215947
-0.126318
-0.0274279
0.0782859
0.190523
0.308873
0.432982
0.556394
0.659477
0.734079
0.785516
0.815356
0.827265
0.82957
0.829284
0.829002
0.828937
-0.36613
-0.354028
-0.308771
-0.234729
-0.144107
-0.0440841
0.0629687
0.176801
0.297162
0.423955
0.551097
0.658879
0.738058
0.792873
0.823861
0.834807
0.835368
0.833881
0.83333
0.833415
-0.386161
-0.373801
-0.327873
-0.252985
-0.161475
-0.0604782
0.04773
0.16293
0.285003
0.414125
0.544652
0.657057
0.741207
0.80012
0.83324
0.844074
0.842891
0.839279
0.837574
0.837712
-0.405597
-0.39294
-0.346317
-0.270666
-0.178391
-0.0765489
0.0326517
0.148984
0.272493
0.403612
0.5371
0.65386
0.743289
0.806876
0.843113
0.855437
0.853959
0.848239
0.842641
0.834657
-0.424326
-0.411443
-0.364193
-0.287936
-0.195078
-0.0925715
0.0174072
0.134571
0.259205
0.391945
0.527974
0.648786
0.744001
0.813016
0.853078
0.868617
0.869165
0.862034
0.850553
0.849745
-0.44231
-0.429387
-0.381503
-0.304743
-0.211524
-0.108511
0.00202227
0.119669
0.245097
0.378987
0.517064
0.641292
0.742522
0.817743
0.861283
0.879822
0.88211
0.876314
0.841808
0.803621
-0.459333
-0.446633
-0.39819
-0.32097
-0.227727
-0.124375