/*--------------------------------*- C++ -*----------------------------------*\
  =========                 |
  \\      /  F ield         | OpenFOAM: The Open Source CFD Toolbox
   \\    /   O peration     | Website:  https://openfoam.org
    \\  /    A nd           | Version:  6
     \\/     M anipulation  |
\*---------------------------------------------------------------------------*/
FoamFile
{
    version     2.0;
    format      ascii;
    class       surfaceScalarField;
    location    "73.6";
    object      phi;
}
// * * * * * * * * * * * * * * * * * * * * * * * * * * * * * * * * * * * * * //

dimensions      [0 3 -1 0 0 0 0];

internalField   nonuniform List<scalar> 
17370
(
-0.0900006
0.0898498
0.289162
-0.0714636
0.0537538
0.364485
-0.0381209
0.0276919
0.426597
-0.0196403
0.0146075
0.504285
-0.0107658
0.00827561
0.601892
-0.00627615
0.00489985
0.720434
-0.00373619
0.00289585
0.863747
-0.00215449
0.00159535
1.03601
-0.00107856
0.000665851
1.24292
-0.000257921
-0.000135823
1.49158
0.000515531
-0.000926027
1.4916
0.00132436
-0.00181442
1.24318
0.002343
-0.00304927
1.03634
0.00386255
-0.00500566
0.86405
0.00637097
-0.00836339
0.72105
0.0108482
-0.0146837
0.60305
0.0197103
-0.0277545
0.507484
0.0381764
-0.0538007
0.431792
0.071502
-0.0898755
0.365149
0.090016
0.198995
-0.128136
0.0882253
0.0399104
-0.364598
0.353377
-0.0746742
0.0858952
-0.446476
0.454319
-0.0843928
0.0765491
-0.52119
0.529901
-0.0684523
0.0597415
-0.612788
0.621567
-0.0515531
0.0427739
-0.726894
0.734163
-0.0353134
0.0280442
-0.867475
0.87259
-0.0224435
0.0173279
-1.03847
1.04192
-0.0135181
0.0100682
-1.2446
1.24703
-0.00745728
0.00502409
-1.49262
1.4946
-0.00307601
0.0010972
-1.4925
1.49423
0.000580331
-0.00230524
-1.24398
1.24586
0.004209
-0.00609421
-1.03751
1.04004
0.00845139
-0.0109807
-0.866101
0.869828
0.0143335
-0.0180603
-0.724391
0.729934
0.0230988
-0.0286418
-0.608698
0.616112
0.0358568
-0.0432709
-0.514897
0.523041
0.0520005
-0.0601442
-0.439856
0.447915
0.0688072
-0.0768657
-0.375296
0.37674
0.0846638
-0.086108
-0.257331
0.222478
0.0748187
-0.0399664
-0.0685179
0.0586918
0.00982608
-0.0518127
0.0583962
-0.374126
0.367543
-0.0574805
0.0537283
-0.453594
0.457346
-0.0486383
0.0446859
-0.527946
0.531899
-0.040846
0.0372071
-0.621563
0.625202
-0.0331051
0.0290291
-0.735348
0.739424
-0.0244583
0.0202984
-0.87434
0.8785
-0.0159518
0.012257
-1.04349
1.04718
-0.00851838
0.00534416
-1.24856
1.25174
-0.00201412
-0.00106019
-1.49666
1.49973
0.00410833
-0.00737518
-1.4972
1.50047
0.0104566
-0.0140644
-1.25007
1.25368
0.0176228
-0.0218109
-1.04593
1.05011
0.025833
-0.0302689
-0.877763
0.882199
0.0342378
-0.0382349
-0.739901
0.743898
0.041785
-0.0455323
-0.626774
0.630521
0.0494051
-0.054419
-0.53481
0.539824
0.0580884
-0.0588999
-0.457474
0.458286
0.0521944
-0.031991
-0.335751
0.315548
0.0098883
-0.0683455
0.0584572
-0.0529411
0.048946
0.00399514
-0.0331594
0.0437034
-0.35811
0.347566
-0.0474005
0.0467721
-0.459285
0.459913
-0.0437153
0.0403615
-0.535802
0.539156
-0.0365878
0.0332828
-0.628528
0.631833
-0.0298439
0.0268112
-0.742648
0.745681
-0.0235515
0.0204441
-0.882019
0.885126
-0.0169128
0.0135324
-1.05077
1.05415
-0.00973756
0.00619722
-1.25517
1.25871
-0.00222601
-0.00157266
-1.50324
1.50704
0.00533874
-0.0092132
-1.50414
1.50801
0.0126225
-0.0162359
-1.25742
1.26103
0.0194263
-0.0227352
-1.05392
1.05723
0.0256469
-0.0287119
-0.885691
0.888756
0.0315874
-0.0348715
-0.747157
0.750441
0.038046
-0.0416861
-0.634306
0.637946
0.0449251
-0.0478512
-0.544134
0.54706
0.0483419
-0.0444515
-0.456571
0.452681
0.033677
-0.0162237
-0.29618
0.278727
0.00407243
-0.052637
0.0485645
-0.0458688
0.0433741
0.00249465
-0.0228011
0.0331769
-0.336878
0.326503
-0.0389957
0.0400106
-0.459599
0.458584
-0.0388188
0.0365306
-0.541875
0.544164
-0.0338616
0.0312641
-0.634884
0.637481
-0.0281993
0.0252987
-0.748726
0.751627
-0.0220328
0.0190381
-0.88808
0.891075
-0.0157318
0.012631
-1.05729
1.06039
-0.00910317
0.00569253
-1.26217
1.26558
-0.00172737
-0.00215841
-1.51092
1.51481
0.00600081
-0.00983709
-1.5119
1.51574
0.0130737
-0.0163624
-1.26446
1.26775
0.0192134
-0.0222277
-1.06033
1.06335
0.0249633
-0.0279691
-0.891809
0.894815
0.0306565
-0.0335092
-0.753645
0.756498
0.0359281
-0.0384168
-0.641011
0.6435
0.0405501
-0.0415385
-0.548862
0.549851
0.0403108
-0.0341815
-0.447397
0.441267
0.0234664
-0.0102413
-0.263503
0.250277
0.00259016
-0.0454004
0.0428103
-0.0413
0.0395342
0.00176579
-0.0167377
0.0259836
-0.316654
0.307408
-0.0325843
0.0347206
-0.456986
0.45485
-0.0342965
0.0326236
-0.546142
0.547815
-0.0304403
0.0283428
-0.639787
0.641884
-0.025909
0.0235094
-0.754272
0.756671
-0.0206488
0.0178577
-0.893972
0.896763
-0.0146195
0.0115483
-1.06343
1.06651
-0.00805577
0.00472772
-1.2689
1.27223
-0.000892491
-0.0028425
-1.5186
1.52234
0.00652236
-0.0101941
-1.51947
1.52314
0.0133016
-0.0164915
-1.27099
1.27418
0.0192453
-0.0221104
-1.06637
1.06924
0.0245682
-0.0270923
-0.89763
0.900154
0.0292151
-0.0313741
-0.758945
0.761104
0.0332427
-0.0351938
-0.645651
0.647602
0.0366419
-0.0367895
-0.550365
0.550512
0.0343268
-0.0272716
-0.434594
0.427539
0.0175683
-0.00741421
-0.238738
0.228583
0.00188247
-0.0406297
0.0387473
-0.0380135
0.0366862
0.00132737
-0.0127725
0.0207094
-0.298822
0.290885
-0.0274506
0.0303663
-0.452295
0.449379
-0.0305649
0.0294405
-0.549247
0.550372
-0.0274427
0.025522
-0.643921
0.645842
-0.0233177
0.0211769
-0.758911
0.761052
-0.0186581
0.0161711
-0.899338
0.901825
-0.0132241
0.0103398
-1.06945
1.07233
-0.00697194
0.00372565
-1.27549
1.27873
2.59405e-05
-0.00365713
-1.52599
1.52962
0.00721926
-0.0107649
-1.52674
1.53028
0.0137342
-0.0167232
-1.2773
1.28029
0.0192105
-0.0216906
-1.07197
1.07445
0.023761
-0.0258583
-0.90244
0.904538
0.0276507
-0.0295068
-0.763084
0.76494
0.0311385
-0.0328551
-0.649418
0.651134
0.033652
-0.0330665
-0.550298
0.549712
0.0296838
-0.02232
-0.420273
0.412909
0.0137953
-0.0057523
-0.219586
0.211543
0.00146931
-0.0370969
0.0356276
-0.0355272
0.0345054
0.00102179
-0.00997035
0.0166721
-0.283591
0.276889
-0.0231408
0.0265029
-0.44622
0.442858
-0.0272747
0.0265673
-0.55128
0.551987
-0.0248014
0.0230106
-0.647739
0.64953
-0.0209333
0.0189103
-0.763127
0.76515
-0.0165312
0.0141967
-0.904167
0.906501
-0.0114497
0.00875673
-1.07505
1.07774
-0.00558993
0.00249683
-1.28187
1.28496
0.00112123
-0.00463859
-1.53318
1.53669
0.00807026
-0.0114324
-1.53373
1.53709
0.014183
-0.0168837
-1.28314
1.28584
0.0190886
-0.0212602
-1.07683
1.079
0.0230797
-0.0249369
-0.906513
0.90837
0.0265272
-0.028171
-0.766683
0.768327
0.0296024
-0.0309789
-0.652706
0.654083
0.03128
-0.0299584
-0.548772
0.547451
0.0259527
-0.0186642
-0.405557
0.398269
0.0112238
-0.00465219
-0.204305
0.197733
0.00119439
-0.0343112
0.0331168
-0.0336091
0.0328147
0.000794432
-0.00789058
0.013515
-0.270756
0.265132
-0.0194919
0.023045
-0.439391
0.435838
-0.0242884
0.0238255
-0.552606
0.553069
-0.022323
0.020639
-0.651316
0.653
-0.0186535
0.0167133
-0.767124
0.769064
-0.0144236
0.0121747
-0.908726
0.910975
-0.00952862
0.00694335
-1.08031
1.08289
-0.00391511
0.000963368
-1.28793
1.29088
0.00248438
-0.0058282
-1.5401
1.54344
0.00906674
-0.0121996
-1.54032
1.54345
0.01473
-0.0171862
-1.28842
1.29088
0.0191724
-0.0211124
-1.08114
1.08308
0.0227294
-0.0243785
-0.910131
0.91178
0.0257875
-0.0272401
-0.769868
0.771321
0.0284759
-0.0294724
-0.655258
0.656254
0.0293981
-0.0274052
-0.545795
0.543802
0.0229929
-0.0159645
-0.391105
0.384076
0.00942259
-0.00389266
-0.191732
0.186202
0.00100415
-0.0320291
0.0310249
-0.0321182
0.0315004
0.000617779
-0.00628304
0.0109864
-0.259997
0.255293
-0.0163661
0.0199129
-0.432288
0.428742
-0.0214737
0.0212336
-0.553457
0.553698
-0.0199604
0.0183331
-0.654701
0.656328
-0.0164011
0.014508
-0.770968
0.772861
-0.0122741
0.0100805
-0.91312
0.915313
-0.00749965
0.00498266
-1.08537
1.08788
-0.00204395
-0.000803419
-1.29372
1.29657
0.00410209
-0.00727186
-1.54667
1.54984
0.0103136
-0.0132298
-1.54645
1.54936
0.0155662
-0.0178114
-1.29323
1.29548
0.0195996
-0.021319
-1.08501
1.08673
0.0227415
-0.0241925
-0.913332
0.914783
0.0254343
-0.0267095
-0.772676
0.773952
0.0277987
-0.0283709
-0.657041
0.657613
0.0279223
-0.0253601
-0.541536
0.538974
0.0206939
-0.0139879
-0.377218
0.370512
0.00815233
-0.0033642
-0.18108
0.176292
0.000872444
-0.0300961
0.0292236
-0.0309629
0.0304886
0.000474321
-0.00498652
0.00889467
-0.251015
0.247106
-0.0136331
0.0170247
-0.425282
0.42189
-0.0187626
0.018709
-0.553888
0.553942
-0.0176244
0.0160294
-0.658004
0.659599
-0.0141154
0.0122331
-0.774732
0.776614
-0.0100137
0.00784092
-0.917408
0.919581
-0.00529432
0.00282017
-1.09029
1.09277
5.59533e-05
-0.00282515
-1.29932
1.30209
0.00600525
-0.00902701
-1.55289
1.55591
0.0118933
-0.0146091
-1.55215
1.55486
0.016759
-0.0187957
-1.29762
1.29966
0.020386
-0.0218859
-1.08846
1.08996
0.0231224
-0.0243934
-0.916142
0.917413
0.0254882
-0.0266062
-0.775138
0.776256
0.0274954
-0.0277051
-0.657999
0.658209
0.0268349
-0.02379
-0.53618
0.533135
0.0189654
-0.0125699
-0.363978
0.357583
0.00726814
-0.00300302
-0.171796
0.167531
0.000783998
-0.028404
0.02762
-0.030083
0.0297303
0.000352697
-0.00389798
0.00710648
-0.243573
0.240365
-0.0111918
0.0143186
-0.418648
0.415521
-0.0161072
0.0162036
-0.553973
0.553876
-0.0151944
0.0136685
-0.661231
0.662757
-0.0117452
0.00984219
-0.778484
0.780387
-0.00759974
0.00541209
-0.921659
0.923847
-0.00286023
0.000395177
-1.09514
1.09761
0.00245132
-0.00517125
-1.30477
1.30749
0.00826673
-0.0111734
-1.55884
1.56174
0.0138913
-0.0164231
-1.55745
1.55998
0.0183927
-0.0202244
-1.30159
1.30342
0.0216201
-0.0229052
-1.0915
1.09279
0.0239598
-0.0250535
-0.918588
0.919682
0.0260022
-0.0269523
-0.777276
0.778227
0.0275793
-0.0274936
-0.658282
0.658196
0.0261764
-0.0226888
-0.529877
0.52639
0.0177442
-0.0116005
-0.351338
0.345194
0.00668043
-0.00276968
-0.163471
0.15956
0.00072897
-0.0268719
0.0261429
-0.0294395
0.0291956
0.000243901
-0.00294137
0.0055172
-0.237496
0.23492
-0.00894955
0.0117284
-0.412592
0.409813
-0.0134528
0.0136244
-0.553803
0.553632
-0.0126536
0.0111646
-0.664345
0.665834
-0.00920787
0.00725261
-0.782284
0.784239
-0.00494836
0.00270952
-0.925945
0.928184
-0.000113033
-0.00237799
-1.09998
1.10247
0.00523252
-0.00793543
-1.31012
1.31283
0.0109766
-0.01379
-1.56456
1.56737
0.0163747
-0.0187323
-1.56238
1.56474
0.0205266
-0.0221546
-1.30514
1.30677
0.0233514
-0.024415
-1.09415
1.09521
0.025285
-0.0262019
-0.920678
0.921595
0.0270051
-0.0277939
-0.779052
0.779841
0.0281338
-0.0277471
-0.657965
0.657579
0.025968
-0.0220509
-0.522711
0.518794
0.0169843
-0.0110056
-0.339165
0.333186
0.0063315
-0.00263843
-0.155785
0.152092
0.000700686
-0.0254364
0.0247358
-0.0290108
0.0288705
0.000140341
-0.00205316
0.00403412
-0.232664
0.230683
-0.00680887
0.0091699
-0.407272
0.404911
-0.010722
0.0108888
-0.553537
0.55337
-0.00991988
0.00842682
-0.66742
0.668913
-0.00640679
0.00436932
-0.786192
0.78823
-0.0019689
-0.000354256
-0.930332
0.932655
0.00303521
-0.0055908
-1.10488
1.10743
0.0084944
-0.0112127
-1.31546
1.31817
0.0142276
-0.0169667
-1.5701
1.57284
0.0194314
-0.0216263
-1.56697
1.56917
0.0232573
-0.0246909
-1.30829
1.30972
0.0256883
-0.0265192
-1.09639
1.09722
0.0271895
-0.0279088
-0.922399
0.923118
0.0285547
-0.0291998
-0.780477
0.781122
0.0292204
-0.0284286
-0.656995
0.656203
0.0261914
-0.0218496
-0.514711
0.510369
0.0166326
-0.0107222
-0.32728
0.321369
0.00617528
-0.00258869
-0.148479
0.144892
0.00069365
-0.0240472
0.0233535
-0.0287899
0.0287543
3.56125e-05
-0.00118675
0.00258691
-0.229013
0.227613
-0.00468946
0.00656809
-0.402824
0.400945
-0.007844
0.00792492
-0.553336
0.553255
-0.00691335
0.00538127
-0.670539
0.672071
-0.00326062
0.00110763
-0.790266
0.792419
0.00143151
-0.00388063
-0.93489
0.937339
0.00669136
-0.00935092
-1.10991
1.11257
0.0123454
-0.0151173
-1.32083
1.3236
0.018146
-0.0208417
-1.5755
1.57819
0.0232052
-0.0252424
-1.57123
1.57326
0.0267032
-0.0279319
-1.31102
1.31225
0.0287211
-0.0293171
-1.0982
1.0988
0.0297854
-0.0302996
-0.923723
0.924238
0.0307739
-0.0311882
-0.781529
0.781943
0.030918
-0.0296505
-0.655219
0.653952
0.0269124
-0.0221081
-0.50586
0.501056
0.016679
-0.0107237
-0.315481
0.309526
0.0061906
-0.002611
-0.141337
0.137757
0.000705507
-0.0226631
0.0219576
-0.0287802
0.0288513
-7.10695e-05
-0.000303076
0.00111309
-0.226525
0.225715
-0.0025106
0.00383827
-0.399373
0.398045
-0.00473335
0.00464123
-0.553372
0.553464
-0.00352637
0.00189464
-0.673786
0.675417
0.000365594
-0.00267801
-0.794575
0.796887
0.00540368
-0.0080209
-0.9397
0.942317
0.0110073
-0.0138135
-1.11516
1.11796
0.0169441
-0.0198057
-1.32632
1.32918
0.022878
-0.0255481
-1.58082
1.58349
0.0278197
-0.0297007
-1.57516
1.57704
0.0309897
-0.0320064
-1.31333
1.31435
0.0325839
-0.0329356
-1.09957
1.09992
0.0331884
-0.0334819
-0.924628
0.924921
0.0337571
-0.0338651
-0.782033
0.782141
0.0332813
-0.031464
-0.652498
0.650681
0.0281717
-0.0228431
-0.496076
0.490747
0.0171166
-0.0109927
-0.303538
0.297414
0.0063631
-0.00269846
-0.134164
0.1305
0.000734255
-0.0212473
0.020513
-0.0289977
0.0291924
-0.000194741
0.000634877
-0.000452663
-0.225226
0.225044
-0.000190553
0.000889388
-0.397046
0.396347
-0.00129617
0.000941791
-0.553832
0.554186
0.000343127
-0.002131
-0.677289
0.679077
0.0045815
-0.00709839
-0.799203
0.80172
0.0100631
-0.0128996
-0.944848
0.947684
0.0161198
-0.0191233
-1.12071
1.12371
0.0224398
-0.0254301
-1.33199
1.33498
0.0285821
-0.0312514
-1.58608
1.58875
0.0334426
-0.0351662
-1.57878
1.5805
0.0362797
-0.037076
-1.31519
1.31599
0.0374309
-0.0375255
-1.10045
1.10055
0.0375474
-0.0376063
-0.92507
0.925129
0.0376862
-0.0373939
-0.781893
0.781601
0.036407
-0.033956
-0.648687
0.646236
0.0300276
-0.0240778
-0.485215
0.479265
0.0179438
-0.0115161
-0.291197
0.284769
0.00668055
-0.00284433
-0.12678
0.122943
0.00077765
-0.019767
0.0189893
-0.0294705
0.0298143
-0.000343779
0.00168947
-0.00214813
-0.225209
0.225667
0.00234936
-0.00237365
-0.395998
0.396022
0.00258928
-0.00331446
-0.554925
0.555651
0.00483354
-0.00683943
-0.681162
0.683168
0.00955253
-0.0123381
-0.804241
0.807027
0.0156104
-0.0187263
-0.95044
0.953556
0.0222418
-0.0254954
-1.12666
1.12992
0.0290522
-0.0322146
-1.33793
1.34109
0.0354815
-0.0381652
-1.59136
1.59404
0.0402752
-0.0418276
-1.58206
1.58361
0.042743
-0.0433055
-1.31655
1.31712
0.0434288
-0.043243
-1.1008
1.10061
0.0430111
-0.0428202
-0.924998
0.924807
0.0426805
-0.0418962
-0.780924
0.78014
0.0404173
-0.0372209
-0.643623
0.640426
0.0325434
-0.0258394
-0.473071
0.466367
0.019163
-0.0122844
-0.278181
0.271302
0.00713272
-0.00304254
-0.119012
0.114922
0.000833627
-0.0181939
0.0173603
-0.0302296
0.0307512
-0.000521509
0.00297985
-0.00420883
-0.226536
0.227765
0.00528457
-0.00611268
-0.396415
0.397243
0.00706117
-0.00826531
-0.556896
0.5581
0.0101329
-0.0124376
-0.685543
0.687848
0.0155003
-0.0186287
-0.809815
0.812944
0.022284
-0.0257458
-0.956596
0.960058
0.0296278
-0.0331918
-1.13313
1.13669
0.0370442
-0.0404151
-1.34422
1.34759
0.0438185
-0.0465179
-1.59665
1.59935
0.048531
-0.0498893
-1.58498
1.58634
0.0505802
-0.0509009
-1.31739
1.31772
0.0507729
-0.0502815
-1.10056
1.10007
0.0497753
-0.0493147
-0.924364
0.923903
0.0488294
-0.0475835
-0.77903
0.777784
0.0454514
-0.0413594
-0.637063
0.632971
0.0357817
-0.0281504
-0.45936
0.451729
0.0207716
-0.0132829
-0.264192
0.256704
0.00770498
-0.0032843
-0.1107
0.106279
0.00089905
-0.0165044
0.0156053
-0.0313491
0.032094
-0.000744902
0.00449218
-0.00660664
-0.229419
0.231534
0.00877335
-0.0105142
-0.398523
0.400264
0.0122982
-0.0140958
-0.559994
0.561792
0.0164444
-0.0191428
-0.690596
0.693294
0.0226587
-0.0262134
-0.816074
0.819629
0.0303447
-0.034236
-0.963458
0.967349
0.0385684
-0.0425076
-1.14023
1.14416
0.0467108
-0.0503255
-1.35092
1.35454
0.0538871
-0.0566045
-1.60196
1.60468
0.058503
-0.0596284
-1.58749
1.58861
0.0600495
-0.0600804
-1.31765
1.31768
0.0596723
-0.0588506
-1.09968
1.09886
0.0580466
-0.0572946
-0.923111
0.922359
0.0563828
-0.0545858
-0.776249
0.774452
0.0516561
-0.046466
-0.628701
0.623511
0.0397881
-0.0310116
-0.44372
0.434944
0.0227456
-0.0144801
-0.248908
0.240643
0.00837094
-0.00355494
-0.101694
0.096878
0.000968951
-0.0146815
0.0137126
-0.0329112
0.033951
-0.00103981
0.00640755
-0.0095919
-0.234102
0.237287
0.0130131
-0.0158232
-0.402587
0.405397
0.0185892
-0.0211145
-0.564491
0.567016
0.0240943
-0.0273175
-0.696523
0.699746
0.0314247
-0.0355168
-0.823194
0.827286
0.0402339
-0.0446422
-0.971192
0.9756
0.0495058
-0.0538775
-1.14808
1.15245
0.058472
-0.0623408
-1.35811
1.36198
0.0660363
-0.0687193
-1.60728
1.60997
0.07044
-0.0712698
-1.5895
1.59033
0.0713608
-0.0710526
-1.31717
1.31686
0.0703493
-0.0691603
-1.09808
1.09689
0.0680258
-0.0669755
-0.921205
0.920154
0.065513
-0.0630607
-0.772394
0.769942
0.059154
-0.0526023
-0.618123
0.611571
0.0445669
-0.0343807
-0.425701
0.415515
0.0250235
-0.0158161
-0.231997
0.22279
0.00908613
-0.00383162
-0.0918756
0.0866211
0.00103609
-0.0127197
0.0116836
-0.0350486
0.036493
-0.0014444
0.00889796
-0.0134507
-0.240912
0.245465
0.0183649
-0.0224091
-0.408982
0.413026
0.0263127
-0.0297179
-0.570729
0.574134
0.0335149
-0.0374309
-0.703611
0.707527
0.0423036
-0.0470738
-0.831392
0.836162
0.0525035
-0.0575225
-0.979975
0.984994
0.0629935
-0.067835
-1.1568
1.16164
0.0728201
-0.0769047
-1.36576
1.36985
0.0806576
-0.0832111
-1.61248
1.61503
0.0846535
-0.0850906
-1.59086
1.5913
0.0847966
-0.0840629
-1.31588
1.31515
0.0830048
-0.0814329
-1.09567
1.0941
0.0799775
-0.0784804
-0.9186
0.917103
0.0765093
-0.0731541
-0.767194
0.763839
0.068021
-0.0597673
-0.604771
0.596517
0.0500518
-0.0381453
-0.404765
0.392859
0.0274832
-0.0171883
-0.21314
0.202845
0.00978028
-0.00408059
-0.081175
0.0754753
0.00109028
-0.0106291
0.00953883
-0.0379565
0.0399821
-0.00202554
0.0123791
-0.0186509
-0.250381
0.256653
0.0253606
-0.0308444
-0.418195
0.423678
0.0360886
-0.0405648
-0.579095
0.583571
0.0453838
-0.0501941
-0.712208
0.717019
0.0560431
-0.0616435
-0.840941
0.846541
0.0679131
-0.0736191
-0.989994
0.9957
0.0797314
-0.0850243
-1.16643
1.17173
0.0903295
-0.0945268
-1.37379
1.37799
0.0981909
-0.10046
-1.61732
1.61959
0.101469
-0.101366
-1.59135
1.59124
0.100591
-0.0993138
-1.31366
1.31238
0.0978485
-0.0958764
-1.09241
1.09044
0.0940618
-0.0920031
-0.914957
0.912898
0.0894699
-0.0849575
-0.760121
0.755609
0.0782485
-0.0678401
-0.587934
0.577526
0.0560471
-0.0420769
-0.380299
0.366329
0.0299124
-0.0184368
-0.192074
0.180599
0.0103516
-0.00425619
-0.0696055
0.06351
0.00111857
-0.00844121
0.00732264
-0.041964
0.0448861
-0.0029222
0.0174306
-0.0259661
-0.263227
0.271763
0.0348892
-0.0421007
-0.430902
0.438113
0.0489574
-0.0547321
-0.590078
0.595853
0.060891
-0.0668889
-0.722741
0.728739
0.0739427
-0.0804979
-0.852121
0.858677
0.0876636
-0.0940353
-1.00137
1.00774
0.100691
-0.106286
-1.17689
1.18248
0.111692
-0.115765
-1.38191
1.38598
0.119052
-0.120769
-1.62146
1.62317
0.121113
-0.120278
-1.59065
1.58981
0.118877
-0.116979
-1.31028
1.30838
0.115059
-0.11266
-1.08819
1.08579
0.110445
-0.107751
-0.91004
0.907346
0.104456
-0.0983849
-0.750586
0.744515
0.089627
-0.0765067
-0.566669
0.553549
0.06218
-0.0458027
-0.351653
0.335276
0.031995
-0.019344
-0.168673
0.156022
0.0106715
-0.00430489
-0.0573039
0.0509373
0.00110678
-0.00621341
0.00510663
-0.0476463
0.0520815
-0.00443526
0.0252359
-0.0368402
-0.280627
0.292232
0.0486356
-0.0581682
-0.448141
0.457674
0.0670745
-0.0744234
-0.604282
0.611631
0.0821858
-0.0896947
-0.735629
0.743138
0.0979966
-0.105434
-0.865139
0.872576
0.113324
-0.120128
-1.01396
1.02077
0.126993
-0.132538
-1.18776
1.19331
0.137624
-0.141179
-1.38956
1.39312
0.143666
-0.144469
-1.62429
1.62509
0.143839
-0.142014
-1.58835
1.58653
0.139805
-0.137165
-1.30556
1.30292
0.134705
-0.13185
-1.0829
1.08004
0.129108
-0.125789
-0.903726
0.900407
0.121338
-0.113127
-0.737706
0.729495
0.101669
-0.0851662
-0.539799
0.523296
0.0678328
-0.0487847
-0.318237
0.299189
0.0333197
-0.0196555
-0.143058
0.129394
0.0106008
-0.0041727
-0.0445692
0.0381411
0.00104049
-0.00402874
0.00298825
-0.056091
0.063643
-0.00755207
0.0388299
-0.0549435
-0.304742
0.320855
0.0708005
-0.083554
-0.471575
0.484328
0.0946372
-0.103404
-0.622177
0.630944
0.112727
-0.121565
-0.751213
0.760052
0.130866
-0.138748
-0.879704
0.887586
0.146746
-0.153357
-1.02715
1.03376
0.159751
-0.164618
-1.19822
1.20309
0.168745
-0.171205
-1.39588
1.39834
0.172335
-0.171747
-1.62503
1.62444
0.169748
-0.166638
-1.58392
1.58081
0.163412
-0.159864
-1.29923
1.29569
0.156773
-0.153407
-1.0764
1.07303
0.150115
-0.145839
-0.895719
0.891444
0.139703
-0.128481
-0.720169
0.708947
0.113407
-0.092747
-0.505834
0.485174
0.0721405
-0.05043
-0.279713
0.258002
0.0335275
-0.0192112
-0.115749
0.101433
0.0100685
-0.00383325
-0.0318833
0.025648
0.000904471
-0.00198996
0.00108549
-0.0706572
0.0748698
-0.00421261
0.0295901
-0.0436822
-0.339547
0.353639
0.0578587
-0.0696328
-0.502623
0.514398
0.0801893
-0.0900813
-0.64345
0.653342
0.101192
-0.111549
-0.768296
0.778653
0.123107
-0.133363
-0.894422
0.904677
0.144304
-0.154068
-1.03945
1.04922
0.164356
-0.173252
-1.2069
1.21579
0.182222
-0.189501
-1.39966
1.40694
0.196186
-0.20079
-1.6227
1.6273
0.203313
-0.204375
-1.57669
1.57776
0.204259
-0.203592
-1.29096
1.29029
0.203093
-0.202036
-1.06835
1.0673
0.200374
-0.195869
-0.885009
0.880504
0.186941
-0.169543
-0.696017
0.678619
0.146082
-0.115413
-0.463438
0.432768
0.0866396
-0.0580512
-0.236326
0.207738
0.03716
-0.0204721
-0.0878184
0.0711306
0.0102874
-0.00369977
-0.0198753
0.0132877
0.000791885
-0.000169082
-0.000622804
-0.0823551
0.0804079
0.00194717
0.00785494
-0.0169684
-0.37045
0.379563
0.0277377
-0.036269
-0.530804
0.539335
0.0448861
-0.0530915
-0.666015
0.67422
0.0632082
-0.0727846
-0.788464
0.798041
0.0830902
-0.0924932
-0.914282
0.923685
0.102507
-0.111097
-1.05868
1.06727
0.120326
-0.127929
-1.22446
1.23207
0.135551
-0.141465
-1.41388
1.41979
0.146435
-0.14957
-1.63116
1.6343
0.150751
-0.150534
-1.57831
1.57809
0.149116
-0.14709
-1.28879
1.28676
0.145318
-0.143364
-1.0637
1.06175
0.140778
-0.135059
-0.871577
0.865858
0.125309
-0.109166
-0.657275
0.641132
0.0900594
-0.0674986
-0.400336
0.377776
0.0483422
-0.0312142
-0.179762
0.162634
0.0195029
-0.0105984
-0.055518
0.0466134
0.00526669
-0.00188036
-0.0068809
0.00349458
0.000385602
0.00165011
-0.00203571
-0.0838072
0.0808757
0.0029315
-0.00118651
-0.0040153
-0.391431
0.396633
0.0111606
-0.0174067
-0.551754
0.558
0.0237669
-0.0308482
-0.68507
0.692151
0.039628
-0.0479229
-0.806646
0.814941
0.0570601
-0.0652335
-0.932233
0.940406
0.0736876
-0.0813133
-1.07567
1.08329
0.0892916
-0.0959458
-1.23921
1.24587
0.102155
-0.106772
-1.42503
1.42965
0.11061
-0.112511
-1.63676
1.63866
0.112499
-0.111143
-1.57731
1.57595
0.108837
-0.106036
-1.28427
1.28147
0.103099
-0.0999984
-1.05712
1.05402
0.0964732
-0.0905489
-0.856181
0.850257
0.0815764
-0.0680466
-0.622145
0.608616
0.0537978
-0.0385912
-0.353788
0.338581
0.0271264
-0.017681
-0.145339
0.135894
0.0113922
-0.00656871
-0.0377283
0.0329048
0.00349497
-0.00137344
0.000159682
-0.00228121
0.000327266
0.00265941
-0.00298668
-0.0825308
0.079672
0.00285881
-0.00511544
0.00254596
-0.405355
0.407925
0.00207354
-0.00677515
-0.567321
0.572022
0.0121057
-0.0180242
-0.70071
0.706628
0.0255357
-0.0326282
-0.822529
0.829622
0.0403996
-0.0473754
-0.947973
0.954949
0.0549727
-0.0614003
-1.09044
1.09687
0.0682908
-0.0735587
-1.25206
1.25733
0.0787471
-0.0824492
-1.43397
1.43768
0.0851063
-0.0857369
-1.64008
1.64071
0.0848925
-0.0827438
-1.57398
1.57183
0.0797463
-0.0757988
-1.27812
1.27417
0.0720737
-0.0679428
-1.04876
1.04463
0.0634476
-0.0577593
-0.840094
0.834405
0.0499062
-0.0396859
-0.592572
0.582352
0.0300381
-0.021043
-0.322453
0.313458
0.0149367
-0.0102303
-0.125791
0.121084
0.00706806
-0.00449782
-0.027533
0.0249628
0.00263243
-0.00115722
0.00485623
-0.00633144
0.000316327
0.00352146
-0.00383779
-0.0809369
0.0783868
0.00255007
-0.00647449
0.00555568
-0.414637
0.415556
-0.00211295
-0.00136601
-0.579737
0.583216
0.00559121
-0.0109162
-0.713809
0.719134
0.0171996
-0.0233973
-0.835955
0.842153
0.0300881
-0.0361091
-0.961414
0.967435
0.0425774
-0.0482224
-1.10311
1.10876
0.0539734
-0.0586566
-1.26239
1.26707
0.0629196
-0.0657941
-1.44092
1.44379
0.0675454
-0.0673478
-1.64106
1.64086
0.0657134
-0.0625799
-1.56885
1.56571
0.0589124
-0.054374
-1.26986
1.26533
0.0499395
-0.044825
-1.03884
1.03372
0.039853
-0.0341069
-0.8244
0.818654
0.0276532
-0.0201127
-0.569872
0.562331
0.0140909
-0.0094412
-0.303193
0.298543
0.00679888
-0.00509947
-0.115435
0.113735
0.00395809
-0.0028763
-0.0217403
0.0206585
0.00189851
-0.000937811
0.00819483
-0.00915553
0.000294117
0.00430544
-0.00459956
-0.0794095
0.0772073
0.00220228
-0.00654061
0.00618136
-0.420927
0.421286
-0.0041553
0.00135488
-0.589262
0.592062
0.00272894
-0.00726215
-0.72484
0.729373
0.0126165
-0.0179492
-0.847507
0.85284
0.023838
-0.0291648
-0.973052
0.978379
0.0350051
-0.039874
-1.11408
1.11895
0.0449211
-0.0489821
-1.2714
1.27546
0.052521
-0.0547404
-1.44629
1.44851
0.0557461
-0.055249
-1.64044
1.63994
0.0529426
-0.0493194
-1.56195
1.55833
0.045074
-0.0399069
-1.26029
1.25513
0.0351256
-0.0292631
-1.02745
1.02159
0.0237988
-0.0181598
-0.809347
0.803708
0.0126429
-0.007039
-0.552848
0.547244
0.00343019
-0.00146942
-0.29206
0.290099
0.00105666
-0.00114992
-0.110718
0.110811
0.00123553
-0.00124401
-0.0190326
0.0190411
0.00102168
-0.000609777
0.0103088
-0.0107207
0.000225258
0.00495679
-0.00518205
-0.0781856
0.0764437
0.00174198
-0.00578796
0.00581782
-0.42549
0.42546
-0.00418597
0.00211483
-0.597503
0.599574
0.00166893
-0.00574937
-0.734323
0.738404
0.0107668
-0.0153101
-0.857752
0.862295
0.0204224
-0.0250827
-0.983624
0.988284
0.0305295
-0.0348527
-1.12379
1.12812
0.0392126
-0.0428889
-1.27926
1.28294
0.0463242
-0.0480967
-1.45064
1.45241
0.0487625
-0.0477377
-1.6389
1.63788
0.0453172
-0.0410261
-1.55431
1.55002
0.0365808
-0.0311651
-1.24952
1.24411
0.0258658
-0.0198078
-1.01499
1.00893
0.0140126
-0.00812202
-0.794881
0.788991
0.00347734
0.000928937
-0.539473
0.535067
-0.00326542
0.00370514
-0.285819
0.285379
-0.00313116
0.00215273
-0.109771
0.11075
-0.00123409
0.000392516
-0.0186519
0.0194935
5.42153e-05
-0.000196492
0.0111814
-0.0110391
0.000117749
0.0053872
-0.00550495
-0.0774441
0.0760642
0.0013799
-0.00478109
0.00499584
-0.428987
0.428773
-0.00355097
0.00161746
-0.60458
0.606514
0.00192777
-0.00556811
-0.742749
0.746389
0.00981159
-0.0141292
-0.866784
0.871102
0.0187844
-0.023511
-0.992695
0.997422
0.0281113
-0.0321327
-1.13249
1.13651
0.0364748
-0.0397488
-1.28642
1.28969
0.0424786
-0.0444186
-1.45399
1.45593
0.0449272
-0.0438119
-1.63679
1.63567
0.0411033
-0.0368843
-1.54576
1.54154
0.0322914
-0.0266684
-1.23814
1.23252
0.0212629
-0.015005
-1.00216
0.995898
0.00912505
-0.0033446
-0.780843
0.775063
-0.00115964
0.00482462
-0.528293
0.524628
-0.00656433
0.00662844
-0.282325
0.282261
-0.00567624
0.00422292
-0.110608
0.112062
-0.00292776
0.00162093
-0.0199415
0.0212483
-0.000752812
0.000190286
0.0108809
-0.0103183
3.21584e-06
0.00554372
-0.00554694
-0.0772345
0.0760706
0.00116394
-0.00352182
0.00352515
-0.432019
0.432015
-0.00232359
0.000448313
-0.610981
0.612856
0.00281989
-0.00630688
-0.7505
0.753987
0.010323
-0.0141814
-0.875217
0.879075
0.0188926
-0.0227415
-1.00151
1.00536
0.0272226
-0.0309746
-1.14065
1.1444
0.0350755
-0.0384055
-1.29288
1.29621
0.0412533
-0.0427733
-1.45754
1.45906
0.0433538
-0.0423228
-1.63437
1.63333
0.0399082
-0.0356002
-1.53706
1.53275
0.0310854
-0.025485
-1.22684
1.22123
0.0201269
-0.0138181
-0.989009
0.9827
0.00805424
-0.00207854
-0.767346
0.761371
-0.00231466
0.00569726
-0.518407
0.515024
-0.00744729
0.00751513
-0.279774
0.279706
-0.00666978
0.00521797
-0.112238
0.11369
-0.00385266
0.00236316
-0.0221213
0.0236108
-0.00127581
0.000456212
0.00976653
-0.00894693
-8.69946e-05
0.00545985
-0.00537285
-0.0773135
0.0764805
0.000832969
-0.00237442
0.00190976
-0.435068
0.435532
-0.000897989
-0.00104109
-0.616583
0.618522
0.00395938
-0.00728492
-0.757647
0.760973
0.0110934
-0.0150436
-0.882805
0.886755
0.0190747
-0.0230357
-1.00938
1.01334
0.0274091
-0.0308732
-1.14854
1.15201
0.034975
-0.038158
-1.29928
1.30246
0.0409205
-0.0428228
-1.46092
1.46283
0.0436845
-0.042703
-1.63225
1.63126
0.0402607
-0.0364047
-1.52852
1.52467
0.0322001
-0.0267212
-1.2154
1.20992
0.0214071
-0.0154609
-0.976045
0.970099
0.00946996
-0.00368321
-0.753965
0.748178
-0.000816769
0.00431324
-0.509175
0.505678
-0.00608717
0.00672221
-0.277209
0.276574
-0.00634018
0.00532861
-0.113883
0.114895
-0.00411627
0.00269807
-0.0245718
0.02599
-0.00157043
0.000639835
0.00819696
-0.00726636
-0.000156247
0.00519728
-0.00504103
-0.0778106
0.0771503
0.00066032
-0.0013928
0.000963542
-0.438298
0.438727
0.000562449
-0.00234591
-0.622222
0.624006
0.00541944
-0.00859576
-0.764229
0.767405
0.0122317
-0.0157478
-0.890375
0.893891
0.0198688
-0.0234709
-1.01727
1.02087
0.0277395
-0.0315958
-1.15589
1.15975
0.0352596
-0.0386958
-1.30564
1.30908
0.041786
-0.0436656
-1.46455
1.46643
0.0447488
-0.0443744
-1.63043
1.63005
0.0422038
-0.0387785
-1.52059
1.51717
0.0346313
-0.0294799
-1.20441
1.19926
0.0245012
-0.0186495
-0.963567
0.957715
0.0130009
-0.00720036
-0.741031
0.73523
0.00250781
0.00136461
-0.4997
0.495828
-0.00355332
0.00462985
-0.27393
0.272853
-0.0048815
0.00438754
-0.114703
0.115197
-0.00357826
0.0024886
-0.0267779
0.0278676
-0.00153249
0.000673933
0.00649052
-0.00563196
-0.000185182
0.00482164
-0.00463645
-0.0786087
0.0781284
0.000480269
-0.000306414
-0.000309131
-0.441675
0.44229
0.00169765
-0.00378534
-0.62744
0.629527
0.00678193
-0.00979126
-0.770525
0.773535
0.013506
-0.0168551
-0.897385
0.900734
0.0207899
-0.0244857
-1.02493
1.02862
0.0286246
-0.0324053
-1.16342
1.1672
0.0362435
-0.0396549
-1.31239
1.3158
0.0428581
-0.0454133
-1.46855
1.4711
0.0468301
-0.0466324
-1.62955
1.62935
0.0450122
-0.0417671
-1.51356
1.51032
0.0380734
-0.0334048
-1.19402
1.18935
0.0284569
-0.0228348
-0.951482
0.945859
0.0173749
-0.0114978
-0.728389
0.722512
0.00671476
-0.00235497
-0.490071
0.485711
-0.00028505
0.00203676
-0.269706
0.267954
-0.00279214
0.00287925
-0.114449
0.114362
-0.00258228
0.00193093
-0.0282927
0.028944
-0.00125981
0.000590178
0.0049924
-0.00432276
-0.000170365
0.00441804
-0.00424767
-0.0796517
0.0792995