/*--------------------------------*- C++ -*----------------------------------*\
  =========                 |
  \\      /  F ield         | OpenFOAM: The Open Source CFD Toolbox
   \\    /   O peration     | Website:  https://openfoam.org
    \\  /    A nd           | Version:  6
     \\/     M anipulation  |
\*---------------------------------------------------------------------------*/
FoamFile
{
    version     2.0;
    format      ascii;
    class       volVectorField;
    location    "111.7";
    object      U;
}
// * * * * * * * * * * * * * * * * * * * * * * * * * * * * * * * * * * * * * //

dimensions      [0 1 -1 0 0 0 0];

internalField   nonuniform List<vector> 
8800
(
(0.987183 -0.0766652 0)
(1.00189 -0.0551902 0)
(0.99972 -0.0285483 0)
(1.00003 -0.015144 0)
(1.0001 -0.00854646 0)
(1.00012 -0.00504964 0)
(1.00008 -0.00300356 0)
(1.00002 -0.00170143 0)
(0.99999 -0.000793823 0)
(1.00006 -7.4536e-05 0)
(0.999966 0.000659958 0)
(1.00003 0.00142453 0)
(1.00007 0.00242462 0)
(1.00007 0.00399687 0)
(1.00006 0.00663188 0)
(1.00006 0.0113717 0)
(0.999965 0.0208157 0)
(0.999178 0.0386703 0)
(1.0071 0.0724575 0)
(0.771215 0.0366618 0)
(0.363083 -0.016016 0)
(1.04332 -0.0768093 0)
(1.08459 -0.0704363 0)
(1.04519 -0.0535294 0)
(1.0233 -0.0388801 0)
(1.01204 -0.0262017 0)
(1.00644 -0.016837 0)
(1.0036 -0.0102988 0)
(1.00215 -0.00563176 0)
(1.00143 -0.00196664 0)
(1.00128 0.00135956 0)
(1.00169 0.00474968 0)
(1.00271 0.00866001 0)
(1.00468 0.0139803 0)
(1.00861 0.0216893 0)
(1.01658 0.0326552 0)
(1.03252 0.0465659 0)
(1.06269 0.0616817 0)
(1.09186 0.0761075 0)
(0.838662 0.0565653 0)
(0.216883 -0.00242823 0)
(1.07593 -0.0501173 0)
(1.09989 -0.0482836 0)
(1.06466 -0.0404312 0)
(1.04006 -0.0335683 0)
(1.02394 -0.0260399 0)
(1.01414 -0.0184448 0)
(1.00857 -0.0116104 0)
(1.00558 -0.00572894 0)
(1.0043 -0.000301025 0)
(1.00465 0.00495461 0)
(1.00664 0.0103396 0)
(1.01064 0.0163901 0)
(1.01794 0.02341 0)
(1.03053 0.0308707 0)
(1.05063 0.0378918 0)
(1.08038 0.0445704 0)
(1.10627 0.0513769 0)
(0.942485 0.041634 0)
(0.216104 0.00246342 0)
(0.175236 -0.000814553 0)
(1.01778 -0.0354558 0)
(1.10524 -0.0413342 0)
(1.0783 -0.0360088 0)
(1.05352 -0.0300656 0)
(1.03625 -0.0244775 0)
(1.02404 -0.0187299 0)
(1.0159 -0.0126281 0)
(1.01102 -0.00642046 0)
(1.00879 -7.00062e-05 0)
(1.00936 0.00619791 0)
(1.01269 0.0121866 0)
(1.01889 0.0179679 0)
(1.02875 0.023534 0)
(1.04317 0.0288253 0)
(1.0637 0.0342938 0)
(1.09356 0.0402685 0)
(1.09338 0.0420149 0)
(0.827006 0.0229381 0)
(0.173922 0.000855542 0)
(0.154071 -0.000608143 0)
(0.956368 -0.0254182 0)
(1.10355 -0.0350596 0)
(1.08775 -0.0325669 0)
(1.06181 -0.0279012 0)
(1.04419 -0.0228588 0)
(1.03171 -0.0175847 0)
(1.02283 -0.0120232 0)
(1.01699 -0.00605998 0)
(1.0141 0.000430876 0)
(1.01476 0.00690862 0)
(1.01881 0.0127777 0)
(1.0258 0.0180053 0)
(1.03604 0.0229103 0)
(1.05059 0.0276545 0)
(1.07183 0.0321638 0)
(1.10004 0.0360816 0)
(1.06796 0.0341125 0)
(0.739248 0.0143482 0)
(0.152086 0.00065475 0)
(0.139745 -0.000463977 0)
(0.899615 -0.0190225 0)
(1.09595 -0.0299816 0)
(1.09586 -0.0290654 0)
(1.06938 -0.025315 0)
(1.05094 -0.0211498 0)
(1.03799 -0.0163403 0)
(1.02884 -0.0110139 0)
(1.02268 -0.00523444 0)
(1.01949 0.00112116 0)
(1.02008 0.00745297 0)
(1.02425 0.0130685 0)
(1.03134 0.0179524 0)
(1.04179 0.0224017 0)
(1.0569 0.0263469 0)
(1.07909 0.0297799 0)
(1.10218 0.0323815 0)
(1.03571 0.0282338 0)
(0.672474 0.0102577 0)
(0.136935 0.00051777 0)
(0.129263 -0.000358057 0)
(0.850231 -0.014644 0)
(1.08369 -0.0258149 0)
(1.10161 -0.026069 0)
(1.07629 -0.0227568 0)
(1.05732 -0.0190787 0)
(1.0439 -0.0147852 0)
(1.0344 -0.00981011 0)
(1.02798 -0.00423078 0)
(1.02458 0.00195442 0)
(1.025 0.00807872 0)
(1.02912 0.0134124 0)
(1.0363 0.0178697 0)
(1.04701 0.0217106 0)
(1.06251 0.0249845 0)
(1.08514 0.0278892 0)
(1.10118 0.029609 0)
(1.00056 0.0237583 0)
(0.620362 0.00790775 0)
(0.125447 0.000421361 0)
(0.121293 -0.000276725 0)
(0.80836 -0.0114673 0)
(1.0686 -0.0221644 0)
(1.10524 -0.0233754 0)
(1.08263 -0.020467 0)
(1.06323 -0.0169935 0)
(1.04953 -0.0129944 0)
(1.03974 -0.00834347 0)
(1.03302 -0.00302304 0)
(1.02934 0.00295424 0)
(1.02957 0.00883751 0)
(1.03362 0.0138179 0)
(1.04084 0.0177866 0)
(1.05162 0.0211162 0)
(1.06733 0.0239714 0)
(1.0903 0.0265671 0)
(1.09725 0.0273756 0)
(0.964956 0.0202674 0)
(0.578346 0.00639066 0)
(0.116254 0.000352042 0)
(0.11515 -0.000212713 0)
(0.773236 -0.00908261 0)
(1.05209 -0.0189384 0)
(1.10775 -0.0208662 0)
(1.08859 -0.0183176 0)
(1.06881 -0.0149761 0)
(1.05487 -0.0111239 0)
(1.04486 -0.00666737 0)
(1.03787 -0.0015721 0)
(1.03388 0.00416503 0)
(1.03385 0.00975693 0)
(1.03777 0.0143551 0)
(1.04488 0.0178862 0)
(1.05563 0.020825 0)
(1.07153 0.0233461 0)
(1.09413 0.0255842 0)
(1.09041 0.0255575 0)
(0.930173 0.0175976 0)
(0.543394 0.00536458 0)
(0.108624 0.000302789 0)
(0.110403 -0.000160871 0)
(0.743928 -0.00722247 0)
(1.03524 -0.0160647 0)
(1.10937 -0.0184842 0)
(1.0943 -0.0162279 0)
(1.07423 -0.0129631 0)
(1.06001 -0.00918209 0)
(1.04979 -0.00482745 0)
(1.04255 0.000113294 0)
(1.03823 0.00562494 0)
(1.03788 0.0109139 0)
(1.04155 0.0151459 0)
(1.04847 0.0182857 0)
(1.05914 0.020876 0)
(1.07522 0.0230961 0)
(1.09665 0.0249404 0)
(1.08104 0.0241142 0)
(0.896746 0.0156008 0)
(0.513433 0.00466072 0)
(0.10207 0.000268931 0)
(0.106772 -0.000117394 0)
(0.71963 -0.00571214 0)
(1.01889 -0.0134706 0)
(1.11021 -0.0161644 0)
(1.09993 -0.0141625 0)
(1.0796 -0.0108911 0)
(1.06507 -0.00711813 0)
(1.05461 -0.00280226 0)
(1.04709 0.00204726 0)
(1.0424 0.00737959 0)
(1.04162 0.0123928 0)
(1.04497 0.0162807 0)
(1.05163 0.0190454 0)
(1.06221 0.0212988 0)
(1.07845 0.0232393 0)
(1.09774 0.0246507 0)
(1.06947 0.0230471 0)
(0.864757 0.014162 0)
(0.486984 0.0041894 0)
(0.0962466 0.00024747 0)
(0.104072 -7.92685e-05 0)
(0.699716 -0.00443462 0)
(1.00367 -0.0110867 0)
(1.11045 -0.0138695 0)
(1.10545 -0.0120351 0)
(1.085 -0.00870403 0)
(1.07015 -0.00487633 0)
(1.0594 -0.000534726 0)
(1.05153 0.00428481 0)
(1.04638 0.00949202 0)
(1.0451 0.0142671 0)
(1.04804 0.0178289 0)
(1.05441 0.0202238 0)
(1.06486 0.0221464 0)
(1.0812 0.0238087 0)
(1.09773 0.0248749 0)
(1.05595 0.0223764 0)
(0.833993 0.0132 0)
(0.462924 0.00389688 0)
(0.090885 0.000236053 0)
(0.10219 -4.37538e-05 0)
(0.683731 -0.0033018 0)
(0.990042 -0.00884059 0)
(1.11032 -0.01151 0)
(1.11084 -0.00976032 0)
(1.09053 -0.00633759 0)
(1.07532 -0.00238994 0)
(1.06423 0.00204787 0)
(1.05593 0.00690429 0)
(1.05022 0.0120423 0)
(1.04833 0.0166146 0)
(1.05079 0.0198633 0)
(1.05679 0.0218882 0)
(1.06707 0.023478 0)
(1.08342 0.0248425 0)
(1.09681 0.0254336 0)
(1.04056 0.0221114 0)
(0.804061 0.012639 0)
(0.440353 0.00374463 0)
(0.0857743 0.000232523 0)
(0.101067 -8.52507e-06 0)
(0.671391 -0.00224297 0)
(0.978391 -0.00665582 0)
(1.11015 -0.00902796 0)
(1.11625 -0.00727602 0)
(1.09627 -0.0037133 0)
(1.08067 0.000423404 0)
(1.06916 0.00503111 0)
(1.06035 0.00999632 0)
(1.05397 0.0151248 0)
(1.05134 0.0195302 0)
(1.05322 0.0224763 0)
(1.05879 0.0241327 0)
(1.06886 0.0253811 0)
(1.08518 0.0264468 0)
(1.09451 0.0265011 0)
(1.02333 0.0222612 0)
(0.774473 0.0124348 0)
(0.418539 0.00370875 0)
(0.0807465 0.000235616 0)
(0.100698 2.84512e-05 0)
(0.662564 -0.00120126 0)
(0.969041 -0.00445779 0)
(1.11028 -0.00636165 0)
(1.12184 -0.0045077 0)
(1.10231 -0.00074109 0)
(1.08628 0.0036604 0)
(1.0743 0.0085172 0)
(1.06486 0.0136687 0)
(1.05766 0.0188518 0)
(1.05414 0.0231266 0)
(1.05532 0.0257813 0)
(1.06039 0.0270716 0)
(1.0702 0.0279565 0)
(1.08637 0.0286821 0)
(1.09075 0.0280999 0)
(1.00411 0.022873 0)
(0.744665 0.0125642 0)
(0.396846 0.00377605 0)
(0.0756578 0.0002446 0)
(0.101108 6.30247e-05 0)
(0.657248 -0.000118865 0)
(0.962307 -0.00216939 0)
(1.11108 -0.00344292 0)
(1.12776 -0.001369 0)
(1.10877 0.00268169 0)
(1.09227 0.00743307 0)
(1.07971 0.012627 0)
(1.06952 0.0180502 0)
(1.06133 0.0233567 0)
(1.05674 0.0275365 0)
(1.05709 0.0299174 0)
(1.06157 0.0308284 0)
(1.07104 0.0313287 0)
(1.08669 0.0316727 0)
(1.08519 0.0303238 0)
(0.982648 0.0239861 0)
(0.714003 0.0130115 0)
(0.374689 0.00393613 0)
(0.0703817 0.000258513 0)
(0.102369 0.000120054 0)
(0.65561 0.00105497 0)
(0.958522 0.000288228 0)
(1.11293 -0.000191765 0)
(1.13424 0.0022415 0)
(1.11577 0.0066762 0)
(1.09875 0.0118763 0)
(1.0855 0.017508 0)
(1.0744 0.0232959 0)
(1.06502 0.0287978 0)
(1.05916 0.0329176 0)
(1.05852 0.0350352 0)
(1.06229 0.035543 0)
(1.07135 0.0356359 0)
(1.08597 0.0355587 0)
(1.07756 0.0332603 0)
(0.958532 0.0256392 0)
(0.681779 0.0137653 0)
(0.351519 0.00417859 0)
(0.0648089 0.000276256 0)
(0.104616 0.000170501 0)
(0.65772 0.00220773 0)
(0.958057 0.00301162 0)
(1.11631 0.00350234 0)
(1.14149 0.00644256 0)
(1.12348 0.0113876 0)
(1.10586 0.017154 0)
(1.09179 0.0233405 0)
(1.07959 0.0295964 0)
(1.06877 0.0353648 0)
(1.06138 0.0394472 0)
(1.0596 0.0412793 0)
(1.06251 0.0413777 0)
(1.07107 0.041039 0)
(1.08402 0.0404139 0)
(1.0675 0.037016 0)
(0.931194 0.0278772 0)
(0.647231 0.0148142 0)
(0.326831 0.00449167 0)
(0.0588518 0.000296494 0)
(0.108005 0.000235678 0)
(0.66432 0.00369495 0)
(0.96123 0.00598688 0)
(1.12167 0.00776887 0)
(1.14978 0.011368 0)
(1.13209 0.0170007 0)
(1.11378 0.0234724 0)
(1.0987 0.030347 0)
(1.08514 0.0371804 0)
(1.0726 0.0432818 0)
(1.06341 0.0473343 0)
(1.0603 0.0488858 0)
(1.06219 0.0485248 0)
(1.07015 0.0477164 0)
(1.08081 0.04645 0)
(1.05447 0.0417138 0)
(0.899884 0.0307312 0)
(0.609536 0.0161328 0)
(0.300166 0.00485694 0)
(0.0524495 0.000317216 0)
(0.112804 0.000324511 0)
(0.675825 0.00546351 0)
(0.968623 0.00951047 0)
(1.12954 0.0127789 0)
(1.15945 0.0172378 0)
(1.14184 0.023758 0)
(1.12268 0.0310999 0)
(1.10636 0.0388114 0)
(1.09115 0.0463317 0)
(1.07652 0.0528135 0)
(1.06521 0.056815 0)
(1.06051 0.0580561 0)
(1.06128 0.0571908 0)
(1.06852 0.0558707 0)
(1.07625 0.0538484 0)
(1.03779 0.0474567 0)
(0.863651 0.0341979 0)
(0.567832 0.017667 0)
(0.271156 0.00524411 0)
(0.0455824 0.000335538 0)
(0.119384 0.000442698 0)
(0.693014 0.00767211 0)
(0.981105 0.0138176 0)
(1.14049 0.018766 0)
(1.17091 0.0243272 0)
(1.15303 0.0319874 0)
(1.13279 0.0403945 0)
(1.11491 0.0491009 0)
(1.09766 0.0574012 0)
(1.08052 0.0642684 0)
(1.06672 0.0681488 0)
(1.06011 0.0689821 0)
(1.05975 0.067585 0)
(1.06627 0.0657018 0)
(1.06996 0.062794 0)
(1.01653 0.0543033 0)
(0.821339 0.0382132 0)
(0.521293 0.0193138 0)
(0.239598 0.0056066 0)
(0.0382921 0.00034768 0)
(0.128276 0.000607774 0)
(0.7169 0.0105562 0)
(0.999521 0.0191885 0)
(1.1552 0.0260812 0)
(1.18461 0.0330136 0)
(1.16601 0.0421528 0)
(1.14434 0.0518471 0)
(1.12446 0.0616981 0)
(1.10466 0.0708183 0)
(1.08453 0.0779983 0)
(1.06784 0.0816089 0)
(1.0591 0.0819088 0)
(1.05753 0.0799009 0)
(1.06303 0.077372 0)
(1.06132 0.0732842 0)
(0.989414 0.0622502 0)
(0.771606 0.0426006 0)
(0.469242 0.0208986 0)
(0.205561 0.00587937 0)
(0.0307015 0.000349215 0)
(0.140305 0.000850201 0)
(0.748876 0.0145083 0)
(1.02497 0.0260861 0)
(1.17446 0.0352744 0)
(1.20125 0.0439395 0)
(1.18118 0.0549452 0)
(1.15755 0.0661563 0)
(1.13505 0.0772425 0)
(1.11206 0.0871071 0)
(1.08838 0.0943834 0)
(1.06845 0.0974661 0)
(1.05741 0.097057 0)
(1.05467 0.0943983 0)
(1.05848 0.0911411 0)
(1.0494 0.0855137 0)
(0.954804 0.0711165 0)
(0.713022 0.047015 0)
(0.411378 0.0221595 0)
(0.169525 0.00598196 0)
(0.0230312 0.000335797 0)
(0.156797 0.00122943 0)
(0.790961 0.0201767 0)
(1.05911 0.035299 0)
(1.19924 0.0473277 0)
(1.2217 0.0584904 0)
(1.19893 0.0714485 0)
(1.17251 0.0843279 0)
(1.14653 0.0965603 0)
(1.11962 0.106872 0)
(1.09182 0.113813 0)
(1.06832 0.115955 0)
(1.05488 0.114593 0)
(1.05108 0.111184 0)
(1.05255 0.107182 0)
(1.03289 0.0993922 0)
(0.910563 0.0804692 0)
(0.64431 0.0508898 0)
(0.348117 0.0227566 0)
(0.132504 0.00583305 0)
(0.0156003 0.000304374 0)
(0.180036 0.00188882 0)
(0.846412 0.0287476 0)
(1.10486 0.0484503 0)
(1.23062 0.064077 0)
(1.24642 0.0782816 0)
(1.21938 0.0933596 0)
(1.18895 0.10774 0)
(1.15848 0.120638 0)
(1.12688 0.130738 0)
(1.09447 0.136636 0)
(1.0672 0.137253 0)
(1.05134 0.134605 0)
(1.04656 0.130312 0)
(1.04493 0.125306 0)
(1.00983 0.114565 0)
(0.854095 0.0895104 0)
(0.564908 0.0534289 0)
(0.281071 0.0223351 0)
(0.0961278 0.00537658 0)
(0.00880383 0.00025366 0)
(0.213562 0.00335006 0)
(0.921137 0.0430183 0)
(1.16521 0.0694819 0)
(1.26892 0.089026 0)
(1.2753 0.106498 0)
(1.2419 0.123149 0)
(1.20605 0.138073 0)
(1.17008 0.150495 0)
(1.13316 0.159254 0)
(1.09584 0.163101 0)
(1.06476 0.161452 0)
(1.04657 0.157103 0)
(1.04095 0.151788 0)
(1.03466 0.145498 0)
(0.977314 0.130299 0)
(0.782578 0.0969433 0)
(0.476134 0.0537344 0)
(0.213741 0.0207206 0)
(0.0626839 0.00462259 0)
(0.0031114 0.000183914 0)
(0.259323 0.00989019 1.56159e-20)
(1.01887 0.0712833 1.32841e-20)
(1.23763 0.105308 -4.57149e-21)
(1.31142 0.126334 0)
(1.30531 0.146964 -1.09576e-34)
(1.26423 0.163262 1.58442e-21)
(1.2222 0.176887 -2.75279e-21)
(1.18025 0.187371 0)
(1.13772 0.193717 5.45733e-35)
(1.09528 0.194771 -3.22019e-21)
(1.06022 0.19048 0)
(1.03995 0.184542 -3.75756e-21)
(1.03433 0.178959 -1.10464e-20)
(1.01918 0.171304 -5.21501e-21)
(0.928731 0.148275 -1.56108e-21)
(0.687421 0.102567 -9.24756e-22)
(0.373557 0.051435 0)
(0.146004 0.0181976 6.45945e-22)
(0.0323069 0.00368414 7.64982e-22)
(-0.00158303 6.21458e-05 1.40053e-20)
(0.291578 0.0258195 1.25832e-20)
(1.10036 0.116049 1.21295e-22)
(1.29739 0.156317 1.27044e-21)
(1.35039 0.177488 0)
(1.33202 0.198034 -5.69561e-21)
(1.2839 0.212345 -6.34918e-21)
(1.23583 0.223881 -2.8084e-21)
(1.188 0.232197 -9.67605e-21)
(1.13984 0.236257 0)
(1.0921 0.234852 1.36363e-20)
(1.05284 0.228305 1.3383e-20)
(1.0297 0.220789 3.93835e-21)
(1.02116 0.214637 1.42635e-20)
(0.988696 0.202126 1.99765e-20)
(0.847083 0.166275 0)
(0.554462 0.104927 2.79606e-20)
(0.257654 0.0469346 4.00608e-20)
(0.079795 0.0144238 4.45659e-20)
(0.00469862 0.00165751 -5.11157e-20)
(-0.00559258 -0.000461334 -9.75777e-22)
(0.294022 0.0441571 0)
(1.15352 0.173782 2.44317e-21)
(1.3391 0.218679 0)
(1.38128 0.239811 -8.18094e-21)
(1.35359 0.257035 0)
(1.29954 0.267477 -1.27104e-20)
(1.24587 0.275389 5.77131e-21)
(1.19253 0.280345 -1.9666e-20)
(1.13911 0.281205 -3.35916e-22)
(1.08655 0.27668 7.05315e-21)
(1.04358 0.267517 2.90955e-20)
(1.01796 0.258256 -2.20406e-23)
(1.00531 0.250315 -1.02866e-20)
(0.953089 0.231733 -1.85631e-20)
(0.766763 0.180804 2.19252e-20)
(0.451052 0.104002 -3.87384e-20)
(0.186057 0.0421453 -5.08834e-21)
(0.0434035 0.0107784 0)
(-0.0092435 -0.000604153 -3.11059e-24)
(-0.00739031 -0.00104757 0)
(0.287873 0.0594789 3.90733e-20)
(1.18379 0.235428 -1.78464e-20)
(1.36614 0.285918 -1.22249e-20)
(1.40239 0.307267 4.02175e-21)
(1.36841 0.320328 -6.6175e-21)
(1.31 0.326204 2.66032e-20)
(1.25181 0.329726 1.20227e-20)
(1.19382 0.330575 0)
(1.13587 0.327575 -3.58175e-20)
(1.07909 0.319396 0)
(1.03292 0.30731 -1.52012e-20)
(1.00507 0.296087 -1.855e-20)
(0.987615 0.285591 -1.10884e-20)
(0.915731 0.259202 -1.33623e-20)
(0.694956 0.192572 0)
(0.375766 0.103028 0)
(0.139797 0.0386083 -3.28248e-20)
(0.0207184 0.00739478 6.47162e-21)
(-0.0178597 -0.00298361 -3.82222e-21)
(-0.00847544 -0.00165997 -4.52712e-21)
(0.28005 0.07283 -2.03885e-20)
(1.19847 0.297016 0)
(1.38206 0.354156 2.71803e-20)
(1.4148 0.375898 1.1774e-20)
(1.37655 0.384887 1.4784e-20)
(1.31503 0.386157 0)
(1.25343 0.385131 1.19535e-20)
(1.19175 0.381604 2.16754e-20)
(1.13009 0.374406 1.84078e-20)
(1.06978 0.362262 3.25317e-20)
(1.02087 0.34704 0)
(0.991012 0.33368 -3.96191e-20)
(0.968299 0.319905 -2.36881e-20)
(0.878133 0.284676 -1.39674e-20)
(0.632895 0.20262 8.46214e-20)
(0.320841 0.102529 9.99236e-21)
(0.108292 0.0356849 4.70703e-20)
(0.00497797 0.00398871 -2.22445e-19)
(-0.0240558 -0.00550476 1.31752e-19)
(-0.00928326 -0.00229162 -1.60834e-19)
(0.272125 0.0847641 -1.57094e-20)
(1.20291 0.356468 3.81802e-21)
(1.38969 0.421358 -3.49678e-21)
(1.42021 0.44378 -1.37731e-20)
(1.37895 0.448925 -1.35325e-20)
(1.31517 0.445725 3.5332e-22)
(1.25098 0.440239 -1.28416e-20)
(1.18642 0.432339 2.23917e-20)
(1.12177 0.420861 -3.92772e-20)
(1.05855 0.404625 0)
(1.00738 0.386164 -1.80276e-20)
(0.975709 0.370547 -3.03944e-22)
(0.947607 0.353037 -2.56863e-20)
(0.841251 0.308273 0)
(0.57994 0.211324 -1.81823e-20)
(0.279672 0.102446 -4.28883e-20)
(0.0851543 0.0329867 1.13842e-19)
(-0.00690073 0.00046195 -1.12097e-19)
(-0.0288382 -0.00812795 1.59342e-19)
(-0.00990093 -0.00292736 -1.67671e-19)
(0.264987 0.0956194 -1.20159e-22)
(1.20058 0.412968 -3.05915e-21)
(1.39119 0.486413 -1.25957e-20)
(1.4201 0.509775 6.35467e-21)
(1.37668 0.511399 -6.91631e-21)
(1.31123 0.503954 0)
(1.24504 0.494189 -1.23699e-20)
(1.17819 0.482029 -2.34448e-20)
(1.1111 0.466313 -2.04503e-20)
(1.0455 0.445966 0)
(0.992472 0.424219 -1.85564e-20)
(0.959224 0.406273 -2.26521e-20)
(0.925888 0.384722 2.75927e-20)
(0.805672 0.329971 -1.66243e-20)
(0.534711 0.219013 -7.82301e-20)
(0.247531 0.102639 4.61131e-20)
(0.0669164 0.0303352 1.35951e-20)
(-0.016629 -0.00321312 0)
(-0.0327939 -0.0108231 -1.52151e-19)
(-0.0103703 -0.00355176 -5.63556e-21)
(0.258848 0.105743 -1.48606e-21)
(1.1938 0.466281 2.63498e-21)
(1.38806 0.548742 6.4049e-21)
(1.41566 0.573208 2.12619e-20)
(1.37067 0.571667 -2.70033e-20)
(1.30402 0.560278 2.7341e-20)
(1.23625 0.546475 2.64264e-20)
(1.16753 0.530224 -3.73446e-20)
(1.09841 0.510363 1.21602e-20)
(1.03084 0.485925 -7.86328e-20)
(0.976337 0.460877 -2.07079e-20)
(0.941776 0.44055 0)
(0.903526 0.414728 2.96698e-20)
(0.77154 0.349813 3.52744e-20)
(0.495691 0.225877 4.19022e-20)
(0.221314 0.102962 -4.95101e-20)
(0.0515248 0.0276106 -1.45956e-20)
(-0.0252771 -0.00706213 1.72184e-20)
(-0.036412 -0.0136236 0)
(-0.0107658 -0.00416842 -1.20908e-20)
(0.253646 0.115188 1.06539e-20)
(1.18432 0.516418 -8.66084e-21)
(1.38163 0.608359 -6.41714e-21)
(1.40793 0.633738 1.39442e-20)
(1.36174 0.629349 -1.30865e-20)
(1.29422 0.614333 -8.64862e-22)
(1.22522 0.596788 -2.86002e-20)
(1.15494 0.576668 -1.34216e-20)
(1.0841 0.552785 -3.51731e-20)
(1.01485 0.524286 2.24666e-23)
(0.959196 0.495902 -6.46014e-20)
(0.923589 0.473101 5.36049e-20)
(0.880812 0.442868 -3.21916e-20)
(0.739057 0.367741 3.83071e-20)
(0.46164 0.231974 0)
(0.199131 0.103321 -2.6574e-20)
(0.0377303 0.0247271 2.3423e-23)
(-0.0336014 -0.0111756 -7.399e-20)
(-0.0401549 -0.0166315 -1.09455e-20)
(-0.011172 -0.00480018 0)
(0.249374 0.124231 0)
(1.17321 0.563604 -8.47997e-21)
(1.37271 0.665126 -1.1223e-20)
(1.3977 0.691206 -1.38601e-20)
(1.3506 0.684253 -1.53545e-20)
(1.28244 0.665935 0)
(1.21245 0.644951 -1.36302e-20)
(1.14086 0.621214 -2.51669e-22)
(1.06851 0.593475 7.50844e-20)
(0.997799 0.560949 -1.08167e-20)
(0.941233 0.529143 -4.64331e-20)
(0.904836 0.503746 2.79065e-20)
(0.858019 0.468963 -3.91776e-22)
(0.708288 0.383776 4.06611e-20)
(0.431677 0.23729 2.43492e-20)
(0.179846 0.103542 -5.69559e-20)
(0.0249799 0.0215311 6.71299e-20)
(-0.0420356 -0.0157355 1.98366e-20)
(-0.0443978 -0.02002 8.2216e-20)
(-0.0117224 -0.0055062 -2.22523e-19)
(0.245974 0.133038 6.82541e-22)
(1.16132 0.608013 -2.76635e-21)
(1.362 0.718788 3.35042e-21)
(1.38566 0.745581 1.30601e-20)
(1.33782 0.736303 0)
(1.26919 0.714992 -1.38789e-20)
(1.1984 0.690879 4.50891e-20)
(1.12566 0.663796 2.96377e-20)
(1.05195 0.632393 0)
(0.979892 0.595884 -1.54301e-19)
(0.922572 0.560529 1.24791e-19)
(0.885626 0.532347 0)
(0.835303 0.492848 3.70681e-20)
(0.679262 0.39784 -2.97012e-22)
(0.40521 0.241736 -7.79081e-20)
(0.162872 0.10339 3.04964e-20)
(0.0130921 0.0178432 0)
(-0.0506006 -0.0208626 1.06311e-19)
(-0.04926 -0.0239318 0)
(-0.0125176 -0.00635624 -1.04361e-19)
(0.243375 0.141619 -2.85624e-23)
(1.14918 0.649881 -1.23317e-21)
(1.34999 0.769419 3.97902e-21)
(1.37232 0.796897 0)
(1.3239 0.785516 -1.49255e-20)
(1.25493 0.761502 0)
(1.18345 0.734549 -4.56699e-20)
(1.10969 0.7044 -1.43034e-20)
(1.03469 0.66956 1.34715e-20)
(0.961308 0.629128 -7.62756e-20)
(0.903285 0.590056 1.29714e-20)
(0.866002 0.558807 0)
(0.812769 0.514361 -7.88621e-20)
(0.651982 0.409811 2.17492e-22)
(0.381871 0.24519 0)
(0.147938 0.102608 2.95502e-23)
(0.00216803 0.0134914 9.63733e-20)
(-0.0590311 -0.0266043 -9.10975e-20)
(-0.0545918 -0.028406 2.69728e-20)
(-0.0135813 -0.00738941 0)
(0.241257 0.149956 0)
(1.13705 0.689416 -1.90338e-23)
(1.33717 0.817148 -2.27667e-21)
(1.35815 0.845239 -5.36223e-22)
(1.30922 0.831946 -6.47489e-21)
(1.24 0.805502 -3.15307e-20)
(1.16794 0.775992 1.68766e-20)
(1.09324 0.743055 -1.64538e-20)
(1.01698 0.705026 5.95619e-20)
(0.942195 0.660773 -1.22119e-19)
(0.883406 0.617777 -7.65305e-22)
(0.845931 0.583062 -3.4951e-20)
(0.790398 0.533352 1.2728e-19)
(0.626445 0.419639 -3.20427e-22)
(0.361369 0.247531 -5.9596e-20)
(0.134885 0.100981 -1.05134e-19)
(-0.00747758 0.00852383 0)
(-0.0668381 -0.0328428 0)
(-0.0600134 -0.0333437 2.88948e-20)
(-0.0148535 -0.00860705 -1.71244e-20)
(0.239797 0.158243 1.66478e-21)
(1.12514 0.726716 -1.4064e-21)
(1.32387 0.862098 2.42407e-21)
(1.34347 0.890706 0)
(1.29412 0.875677 -3.13076e-22)
(1.22471 0.847055 -3.09906e-20)
(1.15214 0.81526 4.22346e-20)
(1.07655 0.779811 6.64123e-20)
(0.999018 0.738868 7.81156e-20)
(0.92271 0.690946 -1.00439e-19)
(0.862957 0.64382 -1.07283e-19)
(0.825314 0.60511 9.35113e-20)
(0.768131 0.549709 0)
(0.602582 0.427219 -2.72396e-20)
(0.343461 0.248669 -6.38717e-20)
(0.123675 0.098551 -7.50756e-20)
(-0.0156757 0.00314878 -8.84782e-20)
(-0.0736302 -0.0393096 2.61523e-20)
(-0.0650552 -0.0385148 -1.54786e-20)
(-0.0161981 -0.00995648 1.39874e-23)
(0.23859 0.166315 0)
(1.11391 0.761725 0)
(1.31036 0.90439 5.12172e-22)
(1.32854 0.933412 0)
(1.27885 0.916817 1.93905e-20)
(1.20932 0.886251 2.28903e-20)
(1.1363 0.852421 0)
(1.05986 0.814735 8.19588e-21)
(0.981024 0.771165 1.31689e-19)
(0.903011 0.719796 -2.31368e-19)
(0.841964 0.668383 0)
(0.804003 0.625028 -6.03399e-20)
(0.745767 0.563295 -4.62148e-22)
(0.580284 0.432405 -2.37602e-22)
(0.328046 0.248549 6.83559e-20)
(0.114411 0.0957074 2.54524e-24)
(-0.0224879 -0.0017924 -1.89606e-19)
(-0.0796598 -0.0452252 5.60229e-20)
(-0.0697546 -0.0435707 1.66043e-20)
(-0.0175004 -0.0113496 0)
(0.237646 0.174131 -1.09588e-20)
(1.10311 0.794965 -3.42677e-21)
(1.29676 0.944119 5.19841e-22)
(1.3136 0.973476 -1.5853e-20)
(1.26363 0.955458 3.15623e-20)
(1.19402 0.923179 0)
(1.1206 0.887556 2.70132e-20)
(1.04334 0.847899 -1.81234e-20)
(0.963175 0.802003 7.98758e-22)
(0.883263 0.747477 1.69872e-20)
(0.820471 0.691721 1.40358e-19)
(0.78182 0.64301 -2.13146e-20)
(0.723014 0.574027 -7.83744e-20)
(0.559359 0.434877 -3.14026e-20)
(0.315421 0.246882 3.66723e-20)
(0.107913 0.0931574 5.31474e-24)
(-0.0276457 -0.00433874 5.07967e-20)
(-0.086546 -0.0490085 -1.20085e-19)
(-0.0762327 -0.0485218 1.42377e-19)
(-0.0192806 -0.0130194 2.10534e-20)
(0.236751 0.181697 4.74616e-21)
(1.09279 0.826487 -2.29821e-21)
(1.28327 0.981431 1.33655e-21)
(1.29881 1.01103 -6.14949e-21)
(1.24862 0.991726 -5.36509e-21)
(1.17897 0.957929 -4.21832e-20)
(1.10522 0.920741 8.52324e-21)
(1.02717 0.879367 -7.64688e-20)
(0.945643 0.831447 -1.47922e-19)
(0.863622 0.774108 -1.39812e-19)
(0.798567 0.714112 0)
(0.758592 0.659377 -9.36287e-20)
(0.699402 0.581917 1.12908e-19)
(0.539415 0.434052 0)
(0.30615 0.242658 -7.8569e-20)
(0.106874 0.0903328 4.61209e-20)
(-0.0276694 -0.00382495 -5.44185e-20)
(-0.0940932 -0.0507768 -6.4384e-20)
(-0.0881243 -0.0549733 -1.14417e-19)
(-0.0233436 -0.0160417 -9.0343e-20)
(0.236215 0.189095 -5.94571e-21)
(1.08282 0.856323 2.47757e-21)
(1.26999 1.01641 3.94065e-21)
(1.28431 1.04619 -6.41938e-21)
(1.23395 1.02573 1.24469e-20)
(1.16429 0.990605 -2.52284e-20)
(1.09026 0.952049 2.81339e-20)
(1.01147 0.909213 -8.00021e-20)
(0.928564 0.859572 -8.85852e-20)
(0.844254 0.799803 1.48361e-19)
(0.776362 0.735825 3.12514e-19)
(0.734196 0.67458 0)
(0.674332 0.587171 0)
(0.519537 0.429247 -3.61507e-20)
(0.300068 0.234141 0)
(0.113168 0.0836286 9.8937e-20)
(-0.0159955 -0.0076402 1.16584e-19)
(-0.0918727 -0.057549 0)
(-0.100701 -0.0661075 0)
(-0.0311802 -0.0218425 9.70568e-20)
(0.235567 0.196073 7.4079e-21)
(1.07326 0.884505 5.60014e-21)
(1.25703 1.0492 3.12955e-21)
(1.27017 1.07909 3.31301e-21)
(1.21972 1.05758 1.19194e-20)
(1.15009 1.02129 2.91604e-20)
(1.07584 0.981553 -3.95218e-20)
(0.996358 0.937489 -3.10722e-22)
(0.91207 0.886426 -1.0619e-21)
(0.825316 0.824643 -5.22461e-22)
(0.754021 0.757096 1.62087e-19)
(0.70859 0.689122 0)
(0.647165 0.590328 1.1552e-19)
(0.498005 0.420205 7.80673e-20)
(0.294464 0.218883 1.82768e-19)
(0.125415 0.0648897 5.33148e-20)
(0.0100374 -0.0295785 -6.26631e-20)
(-0.0605168 -0.0812575 -3.71518e-20)
(-0.0837871 -0.0806894 0)
(-0.0354401 -0.0276695 1.04743e-19)
(0.235277 0.203071 -1.8064e-20)
(1.06409 0.911142 0)
(1.2444 1.07984 5.19338e-21)
(1.25645 1.10983 1.77828e-21)
(1.20599 1.08739 -1.059e-20)
(1.13643 1.05008 -3.66918e-20)
(1.06203 1.00932 8.06605e-20)
(0.981905 0.964244 -6.11947e-21)
(0.896261 0.912048 0)
(0.806958 0.848669 -1.6744e-19)
(0.731744 0.778114 -3.57429e-19)
(0.681845 0.703531 1.42872e-20)
(0.617422 0.592206 1.61882e-19)
(0.473057 0.407661 0)
(0.285112 0.195869 1.24193e-19)
(0.134828 0.0306329 0)
(0.0384849 -0.0805348 0)
(-0.0040664 -0.136575 -4.00008e-20)
(0.00227949 -0.105588 0)
(0.0140107 -0.00956916 2.82467e-20)
(0.234758 0.209539 -2.12399e-20)
(1.05529 0.936574 0)
(1.23212 1.10857 1.001e-20)
(1.24312 1.13865 0)
(1.19275 1.11543 4.62885e-21)
(1.12326 1.07727 0)
(1.04878 1.03565 4.52537e-21)
(0.968036 0.989814 1.14495e-20)
(0.881035 0.936798 1.13878e-20)
(0.789039 0.872263 -1.86113e-19)
(0.709359 0.799386 1.09604e-20)
(0.653625 0.718723 1.15398e-19)
(0.584318 0.593995 1.59258e-19)
(0.442687 0.392666 2.09505e-20)
(0.267802 0.167189 9.8307e-20)
(0.131378 -0.015927 0)
(0.0503882 -0.15373 1.3177e-19)
(0.0297129 -0.157917 -7.74548e-20)
(0.0171603 0.0207837 9.12266e-20)
(-0.0388924 0.467226 -1.0836e-19)
(0.234299 0.215849 1.82243e-20)
(1.04663 0.96064 2.54485e-20)
(1.2201 1.13569 0)
(1.23004 1.166 9.77345e-22)
(1.1798 1.14227 -1.00698e-20)
(1.11031 1.10353 5.88345e-20)
(1.03577 1.06135 3.02247e-20)
(0.954333 1.01512 0)
(0.865852 0.961736 7.75053e-20)
(0.770868 0.89667 -9.95528e-21)
(0.685903 0.822302 0)
(0.622419 0.736173 0)
(0.545093 0.596536 1.44866e-19)
(0.403188 0.37531 -6.48433e-20)
(0.238709 0.134597 -1.01197e-19)
(0.113065 -0.0714556 0)
(0.0393005 -0.11025 6.71376e-20)
(-0.000533583 0.440067 -7.79251e-20)
(0.0256731 1.95898 -4.41161e-20)
(0.0510654 2.8408 -5.40554e-20)
(0.2336 0.221677 -1.44736e-20)
(1.0382 0.983522 -3.40744e-20)
(1.20837 1.16124 6.71327e-21)
(1.21722 1.19176 1.9629e-21)
(1.16722 1.16773 0)
(1.09768 1.12861 3.89068e-20)
(1.02322 1.0861 4.43331e-20)
(0.941013 1.03974 -5.80871e-21)
(0.851032 0.986386 1.16277e-20)
(0.752898 0.921383 1.80895e-19)
(0.662097 0.846474 1.8706e-19)
(0.589287 0.756388 1.34117e-19)
(0.500218 0.601365 1.48316e-19)
(0.354011 0.356342 -1.55931e-19)
(0.201432 0.104899 -1.55534e-19)
(0.0755759 -0.0045043 0)
(0.0295391 0.943341 0)
(0.0733429 2.6104 3.79554e-20)
(0.076671 3.22695 0)
(0.0793688 3.39423 9.97823e-20)
(0.2358 0.227236 0)
(1.03038 1.00564 0)
(1.19663 1.18506 0)
(1.20448 1.21578 1.17967e-21)
(1.15467 1.19157 -8.35909e-21)
(1.0852 1.15234 2.59895e-20)
(1.01109 1.10981 2.97878e-20)
(0.928016 1.06356 -5.82523e-21)
(0.83652 1.01058 1.00546e-19)
(0.735146 0.946253 -1.31173e-21)
(0.638102 0.871795 3.76372e-19)
(0.554677 0.779797 -1.55805e-20)
(0.44978 0.610591 1.8523e-20)
(0.294904 0.335932 2.29127e-20)
(0.147742 0.110031 -1.06873e-21)
(0.068672 1.06083 3.21206e-22)
(0.104091 2.79641 -2.05289e-19)
(0.108446 3.30591 -7.73773e-20)
(0.102924 3.42294 4.14596e-20)
(0.0954649 3.44171 -4.73963e-20)
(0.157827 0.171918 9.44751e-21)
(1.01795 1.0297 0)
(1.18462 1.20739 -1.62943e-20)
(1.19229 1.23853 -8.67984e-21)
(1.1426 1.21426 -1.01392e-20)
(1.07356 1.17523 -2.6135e-20)
(0.999133 1.1325 -3.26116e-20)
(0.915379 1.08662 7.08285e-20)
(0.822413 1.0344 -8.45554e-20)
(0.717883 0.971417 0)
(0.614329 0.89841 1.89287e-19)
(0.519273 0.806591 -1.12513e-19)
(0.399675 0.640445 0)
(0.225983 0.321742 2.29964e-20)
(0.102078 0.671459 5.2797e-20)
(0.117356 2.61722 -5.88062e-20)
(0.161482 3.32634 6.66417e-20)
(0.148721 3.42758 3.63597e-20)
(0.125244 3.44636 4.10558e-20)
(0.108468 3.45539 6.7119e-20)
(0.269943 0.263944 -1.7651e-20)
(0.998202 1.03824 0)
(1.16455 1.23259 1.93602e-20)
(1.17662 1.26972 1.30588e-20)
(1.12407 1.24767 5.54672e-21)
(1.05446 1.2089 2.14328e-20)
(0.978792 1.16763 3.89083e-20)
(0.894241 1.12281 5.51852e-21)
(0.799322 1.0725 8.42585e-20)
(0.690633 1.01312 1.658e-19)
(0.578444 0.944966 1.09729e-20)
(0.464042 0.848727 1.03483e-19)
(0.304618 0.650071 1.8354e-20)
(0.184991 0.795252 -2.26587e-20)
(0.191517 2.51676 -4.97731e-20)
(0.242687 3.32309 5.00575e-20)
(0.225794 3.44528 -5.54594e-20)
(0.193894 3.46569 -3.17735e-20)
(0.162867 3.49097 -3.07673e-20)
(0.119395 3.48823 -4.35856e-21)
(0.259523 0.262439 0)
(0.994131 1.06041 7.04344e-21)
(1.15486 1.25588 -4.41379e-21)
(1.16469 1.29319 -2.05532e-21)
(1.11218 1.27089 1.34e-21)
(1.04252 1.23223 -1.94489e-20)
(0.966412 1.19107 -2.35146e-20)
(0.881375 1.14699 5.14889e-21)
(0.785358 1.09803 -8.99898e-20)
(0.674158 1.0414 -2.42852e-21)
(0.556519 0.977675 -3.54972e-19)
(0.430889 0.881913 1.49098e-20)
(0.271127 0.722945 -1.76987e-20)
(0.220102 1.51502 -2.12898e-20)
(0.286844 3.14803 3.56243e-21)
(0.297269 3.44276 -9.49755e-23)
(0.258586 3.48978 9.00734e-20)
(0.22651 3.51663 4.76391e-20)
(0.182063 3.53812 -1.93826e-20)
(0.133972 3.53664 -2.44579e-20)
(0.245049 0.259886 1.92e-20)
(0.989072 1.08507 4.86962e-20)
(1.14473 1.28125 -1.25614e-20)
(1.15236 1.31829 -7.48576e-21)
(1.09978 1.29558 0)
(1.03016 1.2569 -2.01328e-20)
(0.953895 1.21594 -3.10266e-20)
(0.868629 1.17257 4.75092e-21)
(0.771833 1.12516 -1.00023e-20)
(0.658707 1.07177 -1.58077e-19)
(0.536707 1.01337 -1.68018e-19)
(0.401433 0.916978 -1.24799e-19)
(0.26986 0.890811 -1.35824e-19)
(0.289837 2.34944 1.38211e-19)
(0.370925 3.37152 1.19396e-19)
(0.338784 3.49342 0)
(0.293681 3.53492 0)
(0.258313 3.57064 -1.61383e-20)
(0.217834 3.61519 0)
(0.149693 3.60385 -2.85603e-20)
(0.234795 0.26129 -2.97223e-20)
(0.982035 1.11047 -4.26835e-20)
(1.13317 1.30783 0)
(1.13872 1.3442 1.18199e-21)
(1.08608 1.32093 -3.79611e-21)
(1.01667 1.28216 -2.39278e-20)
(0.940575 1.24144 -1.8229e-20)
(0.855311 1.19877 3.59442e-21)
(0.758005 1.15295 -6.88887e-20)
(0.643446 1.10297 8.27032e-21)
(0.5182 1.05016 0)
(0.372517 0.954225 0)
(0.291876 1.2189 -1.26495e-19)