/*--------------------------------*- C++ -*----------------------------------*\
  =========                 |
  \\      /  F ield         | OpenFOAM: The Open Source CFD Toolbox
   \\    /   O peration     | Website:  https://openfoam.org
    \\  /    A nd           | Version:  6
     \\/     M anipulation  |
\*---------------------------------------------------------------------------*/
FoamFile
{
    version     2.0;
    format      ascii;
    class       volVectorField;
    location    "39.5";
    object      U;
}
// * * * * * * * * * * * * * * * * * * * * * * * * * * * * * * * * * * * * * //

dimensions      [0 1 -1 0 0 0 0];

internalField   nonuniform List<vector> 
8800
(
(0.987188 -0.0766666 0)
(1.0019 -0.0551914 0)
(0.999747 -0.0285503 0)
(1.00004 -0.0151438 0)
(1.00006 -0.00854062 0)
(1.00005 -0.0050409 0)
(1.00004 -0.00300882 0)
(1.00001 -0.00172273 0)
(0.999992 -0.000820576 0)
(1.00005 -0.00010858 0)
(0.999988 0.000610863 0)
(1 0.00137151 0)
(1.00001 0.00240145 0)
(1.00002 0.00398679 0)
(1.00002 0.00662599 0)
(1 0.0113648 0)
(0.999899 0.0208094 0)
(0.99915 0.0386676 0)
(1.00709 0.0724555 0)
(0.771213 0.0366605 0)
(0.363047 -0.0160196 0)
(1.04329 -0.0768284 0)
(1.0846 -0.0704684 0)
(1.04521 -0.0535692 0)
(1.02327 -0.0389216 0)
(1.01195 -0.0262447 0)
(1.00636 -0.0169023 0)
(1.00355 -0.0104032 0)
(1.00213 -0.00576155 0)
(1.00145 -0.0021183 0)
(1.00131 0.00119537 0)
(1.00169 0.00456505 0)
(1.00266 0.00850244 0)
(1.00463 0.0138598 0)
(1.00858 0.021592 0)
(1.01655 0.0325765 0)
(1.03247 0.0464984 0)
(1.06264 0.0616243 0)
(1.09188 0.0760741 0)
(0.838709 0.0565509 0)
(0.216778 -0.00243237 0)
(1.07586 -0.05017 0)
(1.09987 -0.0483625 0)
(1.06461 -0.040525 0)
(1.03994 -0.033676 0)
(1.0238 -0.0261749 0)
(1.01403 -0.0186354 0)
(1.00851 -0.0118423 0)
(1.00556 -0.0059934 0)
(1.00432 -0.000594597 0)
(1.00467 0.00464419 0)
(1.00661 0.0100339 0)
(1.0106 0.0161493 0)
(1.01792 0.0232101 0)
(1.03054 0.0307073 0)
(1.05063 0.0377541 0)
(1.08035 0.0444491 0)
(1.10629 0.0512819 0)
(0.942638 0.0415854 0)
(0.216242 0.00245772 0)
(0.175061 -0.000819624 0)
(1.01756 -0.0355348 0)
(1.10515 -0.0414581 0)
(1.07819 -0.036152 0)
(1.05333 -0.0302198 0)
(1.03605 -0.0246624 0)
(1.02388 -0.0189889 0)
(1.01579 -0.0129667 0)
(1.01098 -0.00682013 0)
(1.00882 -0.000520521 0)
(1.00942 0.00571537 0)
(1.01268 0.0117144 0)
(1.01888 0.0175629 0)
(1.02878 0.0231764 0)
(1.04326 0.0285237 0)
(1.06378 0.0340483 0)
(1.0936 0.040063 0)
(1.09352 0.0418614 0)
(0.827429 0.0228692 0)
(0.174158 0.000847824 0)
(0.153807 -0.000613916 0)
(0.955897 -0.0255216 0)
(1.10333 -0.0352399 0)
(1.08755 -0.0327935 0)
(1.06152 -0.0281675 0)
(1.04388 -0.023186 0)
(1.03146 -0.0179987 0)
(1.02266 -0.0125046 0)
(1.01689 -0.00660816 0)
(1.01409 -0.000188733 0)
(1.01482 0.00623839 0)
(1.01883 0.0121216 0)
(1.02584 0.0174628 0)
(1.03615 0.0224432 0)
(1.05076 0.0272563 0)
(1.07201 0.0318238 0)
(1.10019 0.0357839 0)
(1.06834 0.0338899 0)
(0.740058 0.0142545 0)
(0.152452 0.000645693 0)
(0.139374 -0.000470566 0)
(0.898803 -0.0191535 0)
(1.09553 -0.030218 0)
(1.09553 -0.0293574 0)
(1.06896 -0.0256454 0)
(1.05051 -0.0215475 0)
(1.03764 -0.0168592 0)
(1.02858 -0.0116669 0)
(1.02254 -0.0059998 0)
(1.01949 0.000291217 0)
(1.02018 0.00659985 0)
(1.02431 0.0122281 0)
(1.03146 0.017192 0)
(1.042 0.0216982 0)
(1.05717 0.0257345 0)
(1.07939 0.0292666 0)
(1.1025 0.0319463 0)
(1.03647 0.0279303 0)
(0.67381 0.0101358 0)
(0.137468 0.00050718 0)
(0.128766 -0.000365435 0)
(0.848979 -0.0147988 0)
(1.08298 -0.0261139 0)
(1.10112 -0.0264637 0)
(1.07573 -0.0232257 0)
(1.05673 -0.0196541 0)
(1.04339 -0.0154913 0)
(1.03401 -0.0106414 0)
(1.02774 -0.00518076 0)
(1.02451 0.000880948 0)
(1.0251 0.00691684 0)
(1.02923 0.0122621 0)
(1.03649 0.0168723 0)
(1.04732 0.0208271 0)
(1.06294 0.024204 0)
(1.08564 0.0272108 0)
(1.10176 0.0290247 0)
(1.0019 0.0233534 0)
(0.622393 0.00775025 0)
(0.126191 0.000408559 0)
(0.120652 -0.000285045 0)
(0.80658 -0.0116465 0)
(1.06748 -0.0225176 0)
(1.10445 -0.0238542 0)
(1.08181 -0.0210528 0)
(1.06243 -0.0177171 0)
(1.04885 -0.0138895 0)
(1.03918 -0.00942258 0)
(1.03262 -0.00428121 0)
(1.02918 0.00157501 0)
(1.02963 0.00739977 0)
(1.03376 0.0123913 0)
(1.04114 0.0165018 0)
(1.0521 0.0199357 0)
(1.06792 0.0228864 0)
(1.09093 0.0256142 0)
(1.09816 0.026559 0)
(0.967123 0.0197289 0)
(0.581286 0.00618703 0)
(0.117264 0.000336125 0)
(0.114344 -0.000222219 0)
(0.770837 -0.00928706 0)
(1.05048 -0.0193607 0)
(1.1067 -0.0214496 0)
(1.08755 -0.0189972 0)
(1.06773 -0.0158124 0)
(1.05389 -0.0121887 0)
(1.04404 -0.00796582 0)
(1.0373 -0.00308667 0)
(1.03363 0.00244195 0)
(1.0339 0.00788007 0)
(1.03792 0.0124789 0)
(1.04523 0.0161803 0)
(1.05625 0.019224 0)
(1.07236 0.0218599 0)
(1.0951 0.0242918 0)
(1.09189 0.0244612 0)
(0.933498 0.0168917 0)
(0.547509 0.00510392 0)
(0.109969 0.000283125 0)
(0.10941 -0.000171575 0)
(0.740828 -0.00744664 0)
(1.03298 -0.0165391 0)
(1.10788 -0.0191988 0)
(1.09291 -0.0171392 0)
(1.07283 -0.0140887 0)
(1.05873 -0.010529 0)
(1.0487 -0.0064173 0)
(1.04171 -0.00176788 0)
(1.03777 0.0034646 0)
(1.03783 0.00855637 0)
(1.04172 0.0127402 0)
(1.04896 0.0160949 0)
(1.05997 0.0188587 0)
(1.07627 0.0212155 0)
(1.09797 0.0232463 0)
(1.08327 0.0226724 0)
(0.901611 0.0146808 0)
(0.51906 0.00433105 0)
(0.103834 0.000245365 0)
(0.105572 -0.000129506 0)
(0.715771 -0.00595702 0)
(1.0159 -0.013998 0)
(1.1082 -0.0169485 0)
(1.09811 -0.0151365 0)
(1.0778 -0.0121117 0)
(1.06344 -0.00867842 0)
(1.0532 -0.0047537 0)
(1.04603 -0.000287615 0)
(1.04185 0.00471121 0)
(1.04159 0.00948702 0)
(1.04518 0.0133143 0)
(1.05226 0.016245 0)
(1.06327 0.0185855 0)
(1.07976 0.0206376 0)
(1.09957 0.022366 0)
(1.07281 0.0211332 0)
(0.87171 0.0129741 0)
(0.494556 0.00377229 0)
(0.0985368 0.000218445 0)
(0.102639 -9.30631e-05 0)
(0.695037 -0.00469699 0)
(0.999818 -0.0116635 0)
(1.10786 -0.0147928 0)
(1.10317 -0.0132347 0)
(1.08269 -0.0102164 0)
(1.068 -0.006771 0)
(1.05755 -0.00286186 0)
(1.05011 0.00147934 0)
(1.04557 0.00620355 0)
(1.04496 0.0105963 0)
(1.04828 0.0140381 0)
(1.05514 0.0166492 0)
(1.06612 0.0187121 0)
(1.08281 0.0204974 0)
(1.10031 0.0217908 0)
(1.06085 0.0199066 0)
(0.843684 0.0116769 0)
(0.472969 0.00337695 0)
(0.0938207 0.000201398 0)
(0.100497 -5.89209e-05 0)
(0.678201 -0.0035758 0)
(0.985225 -0.00944251 0)
(1.10687 -0.012501 0)
(1.10785 -0.0111267 0)
(1.0876 -0.00813136 0)
(1.07259 -0.00466059 0)
(1.0618 -0.000768072 0)
(1.054 0.00346906 0)
(1.04905 0.00801485 0)
(1.04798 0.0121338 0)
(1.05092 0.015183 0)
(1.0576 0.0174101 0)
(1.0686 0.0191463 0)
(1.08535 0.0206056 0)
(1.09996 0.0214724 0)
(1.04757 0.0189178 0)
(0.817344 0.0107091 0)
(0.453532 0.00310234 0)
(0.0895029 0.000191458 0)
(0.0990911 -2.53554e-05 0)
(0.665003 -0.00252463 0)
(0.97256 -0.00727731 0)
(1.10577 -0.0100729 0)
(1.11241 -0.00872074 0)
(1.09253 -0.00565316 0)
(1.07714 -0.00215863 0)
(1.06597 0.00170066 0)
(1.05773 0.00587624 0)
(1.05225 0.0102271 0)
(1.05064 0.0139925 0)
(1.05318 0.0166524 0)
(1.05961 0.0184213 0)
(1.07054 0.0196952 0)
(1.08734 0.020848 0)
(1.09857 0.0213557 0)
(1.03328 0.0181625 0)
(0.792448 0.0100044 0)
(0.43566 0.00291924 0)
(0.085441 0.000186792 0)
(0.0984083 9.28227e-06 0)
(0.655314 -0.0014816 0)
(0.962094 -0.00508169 0)
(1.1048 -0.00749241 0)
(1.11701 -0.0061647 0)
(1.09759 -0.00303457 0)
(1.08179 0.000598162 0)
(1.07024 0.00457321 0)
(1.06152 0.00875718 0)
(1.05539 0.0129316 0)
(1.05311 0.0163361 0)
(1.05509 0.0185527 0)
(1.06115 0.0199292 0)
(1.07201 0.0208281 0)
(1.08885 0.0215902 0)
(1.09611 0.0215684 0)
(1.01803 0.0177148 0)
(0.768657 0.00954342 0)
(0.41886 0.00282423 0)
(0.0815044 0.000188987 0)
(0.0984632 4.10503e-05 0)
(0.649153 -0.000394831 0)
(0.954203 -0.00277642 0)
(1.10419 -0.00459299 0)
(1.1216 -0.0032261 0)
(1.10285 -2.86373e-05 0)
(1.08666 0.0037939 0)
(1.0746 0.00794323 0)
(1.06524 0.0121645 0)
(1.05832 0.0162236 0)
(1.05521 0.0193259 0)
(1.05655 0.0210712 0)
(1.06219 0.0219274 0)
(1.07289 0.0223283 0)
(1.08947 0.0226449 0)
(1.09227 0.0220493 0)
(1.00181 0.0174586 0)
(0.745714 0.0092863 0)
(0.40274 0.00279695 0)
(0.07759 0.00019483 0)
(0.0993393 9.70918e-05 0)
(0.646665 0.000758671 0)
(0.949249 -0.000311408 0)
(1.10446 -0.00132947 0)
(1.12643 0.000324329 0)
(1.10833 0.00374732 0)
(1.09167 0.0077503 0)
(1.07895 0.0120018 0)
(1.0688 0.0162872 0)
(1.06093 0.020251 0)
(1.0568 0.0230056 0)
(1.05731 0.0242226 0)
(1.06249 0.0244446 0)
(1.07304 0.0242511 0)
(1.08905 0.0240719 0)
(1.08698 0.022831 0)
(0.984711 0.0175566 0)
(0.723217 0.00926382 0)
(0.38687 0.00285104 0)
(0.0735922 0.000206726 0)
(0.101171 0.000143008 0)
(0.647988 0.00191373 0)
(0.94753 0.002372 0)
(1.10607 0.00228346 0)
(1.13188 0.00430293 0)
(1.1142 0.00800945 0)
(1.09696 0.0123243 0)
(1.08358 0.016903 0)
(1.07251 0.0213792 0)
(1.06341 0.0252108 0)
(1.05808 0.0275097 0)
(1.05763 0.0281501 0)
(1.0621 0.0277435 0)
(1.07239 0.0269405 0)
(1.08765 0.0261061 0)
(1.08025 0.0240942 0)
(0.96649 0.0179814 0)
(0.700769 0.00946493 0)
(0.37086 0.00297945 0)
(0.0694027 0.000223564 0)
(0.104084 0.000205602 0)
(0.653854 0.00336872 0)
(0.949525 0.00536619 0)
(1.10926 0.00642819 0)
(1.1379 0.00884906 0)
(1.12065 0.0129085 0)
(1.10283 0.0177239 0)
(1.08858 0.0227202 0)
(1.07638 0.0274393 0)
(1.06585 0.0312699 0)
(1.05894 0.033195 0)
(1.05725 0.0331546 0)
(1.06089 0.0320177 0)
(1.07077 0.0305485 0)
(1.08487 0.0289054 0)
(1.07167 0.0258616 0)
(0.94694 0.018817 0)
(0.67791 0.00993033 0)
(0.354287 0.00318666 0)
(0.0649247 0.000244234 0)
(0.108381 0.000291929 0)
(0.664612 0.00508959 0)
(0.955509 0.00878302 0)
(1.11462 0.0113097 0)
(1.14475 0.0144337 0)
(1.12778 0.0191019 0)
(1.10922 0.0244829 0)
(1.0938 0.0299612 0)
(1.08005 0.0349632 0)
(1.06765 0.0387036 0)
(1.05894 0.0400758 0)
(1.05592 0.0392532 0)
(1.05862 0.0372563 0)
(1.06797 0.0349734 0)
(1.08048 0.0325369 0)
(1.06099 0.0283126 0)
(0.925776 0.0202451 0)
(0.65399 0.0107276 0)
(0.336638 0.00348976 0)
(0.0600685 0.000268352 0)
(0.114382 0.000403701 0)
(0.680863 0.00716126 0)
(0.966469 0.0128865 0)
(1.12286 0.0169655 0)
(1.15308 0.021019 0)
(1.13598 0.0265615 0)
(1.11649 0.0326798 0)
(1.09972 0.0387844 0)
(1.08422 0.0441752 0)
(1.06963 0.0478014 0)
(1.05867 0.0485132 0)
(1.05387 0.0467687 0)
(1.05534 0.0437913 0)
(1.064 0.0405768 0)
(1.07452 0.0372849 0)
(1.04802 0.031752 0)
(0.902406 0.0224215 0)
(0.628175 0.0119634 0)
(0.317235 0.00391146 0)
(0.0547281 0.000296419 0)
(0.122526 0.000554911 0)
(0.703293 0.00978492 0)
(0.982779 0.0178162 0)
(1.13441 0.0236201 0)
(1.16329 0.0287934 0)
(1.1455 0.0355106 0)
(1.12468 0.0426462 0)
(1.10608 0.0495945 0)
(1.08818 0.0554444 0)
(1.0708 0.0589553 0)
(1.05729 0.058895 0)
(1.05055 0.0560415 0)
(1.0507 0.0519465 0)
(1.05863 0.0477286 0)
(1.06684 0.0434466 0)
(1.03232 0.0363879 0)
(0.876183 0.0255455 0)
(0.59935 0.0137134 0)
(0.295246 0.00446309 0)
(0.0487686 0.000329947 0)
(0.133504 0.000774463 0)
(0.732947 0.0133525 0)
(1.00541 0.0240622 0)
(1.1499 0.0319384 0)
(1.1759 0.0385649 0)
(1.1568 0.0468586 0)
(1.13424 0.055252 0)
(1.11324 0.0631411 0)
(1.09242 0.0693705 0)
(1.07172 0.0725259 0)
(1.05514 0.0713942 0)
(1.04609 0.0671677 0)
(1.04471 0.0618263 0)
(1.05172 0.0564781 0)
(1.05716 0.0510375 0)
(1.01351 0.0423261 0)
(0.846284 0.0296717 0)
(0.566236 0.0159162 0)
(0.269913 0.00510679 0)
(0.0420753 0.000365821 0)
(0.148505 0.00111946 0)
(0.771631 0.0184942 0)
(1.03593 0.0324223 0)
(1.17043 0.0428888 0)
(1.19184 0.0517234 0)
(1.17033 0.0619093 0)
(1.14519 0.071704 0)
(1.12091 0.0804078 0)
(1.09636 0.0866568 0)
(1.07175 0.0889261 0)
(1.05171 0.0861846 0)
(1.04018 0.0802506 0)
(1.03717 0.073431 0)
(1.04313 0.0668064 0)
(1.04506 0.0602324 0)
(0.991138 0.0497343 0)
(0.811535 0.0347409 0)
(0.527634 0.01844 0)
(0.240751 0.00578075 0)
(0.0346124 0.000399158 0)
(0.169633 0.00172366 0)
(0.822431 0.0263927 0)
(1.07715 0.0445728 0)
(1.19721 0.0583454 0)
(1.2119 0.07013 0)
(1.18625 0.0822312 0)
(1.15724 0.0932777 0)
(1.12864 0.102302 0)
(1.09956 0.107917 0)
(1.07046 0.108525 0)
(1.04672 0.103522 0)
(1.03263 0.0954371 0)
(1.02796 0.0869074 0)
(1.03265 0.0790364 0)
(1.0303 0.0711244 0)
(0.964163 0.058536 0)
(0.770576 0.0404871 0)
(0.482797 0.0210894 0)
(0.207812 0.00639404 0)
(0.0265024 0.000420326 0)
(0.200223 0.00306178 0)
(0.891024 0.039778 0)
(1.13173 0.0642778 0)
(1.23052 0.0816852 0)
(1.2359 0.0963795 0)
(1.20398 0.109807 0)
(1.16967 0.121199 0)
(1.13572 0.129514 0)
(1.10144 0.133537 0)
(1.06745 0.131769 0)
(1.03986 0.124066 0)
(1.02318 0.113563 0)
(1.01696 0.103013 0)
(1.0201 0.0935577 0)
(1.01222 0.083854 0)
(0.931106 0.0682919 0)
(0.722363 0.0465932 0)
(0.431998 0.0236803 0)
(0.172224 0.00689593 0)
(0.0181816 0.000419447 0)
(0.242009 0.0092215 9.94356e-21)
(0.981322 0.0665461 8.51349e-21)
(1.19724 0.0981394 -2.9626e-21)
(1.26738 0.116776 0)
(1.2608 0.134142 -7.4386e-35)
(1.22137 0.147052 1.08486e-21)
(1.18097 0.157024 -1.9448e-21)
(1.14116 0.163377 0)
(1.1013 0.164909 3.97015e-35)
(1.06207 0.160164 -2.38666e-21)
(1.0302 0.149384 0)
(1.01051 0.136423 -2.82366e-21)
(1.00229 0.123958 -8.32331e-21)
(1.00347 0.112734 -3.93212e-21)
(0.988371 0.100868 -1.1843e-21)
(0.88823 0.0819538 -7.04119e-22)
(0.661678 0.0546621 0)
(0.372615 0.0271109 4.94867e-22)
(0.134903 0.00813099 5.86372e-22)
(0.010308 0.000583071 1.06755e-20)
(0.270559 0.0243971 7.39229e-21)
(1.0557 0.108911 1.05576e-22)
(1.25044 0.14668 7.96508e-22)
(1.30077 0.165313 0)
(1.28254 0.182501 -3.80368e-21)
(1.23626 0.19333 -4.30456e-21)
(1.18993 0.201221 -1.96942e-21)
(1.14413 0.205414 -6.98405e-21)
(1.09827 0.204399 0)
(1.05297 0.196443 1.01804e-20)
(1.0157 0.182051 1.00814e-20)
(0.991994 0.165982 2.99725e-21)
(0.980592 0.15121 1.09041e-20)
(0.977092 0.138148 1.52976e-20)
(0.952303 0.123865 0)
(0.830689 0.100299 2.16533e-20)
(0.590538 0.0656147 3.11679e-20)
(0.312596 0.0324814 3.47248e-20)
(0.101768 0.00984974 -3.98692e-20)
(0.00379461 0.00040572 -7.57179e-22)
(0.271543 0.040747 0)
(1.10263 0.163901 1.30628e-21)
(1.28651 0.20623 0)
(1.32666 0.225056 -5.03761e-21)
(1.2995 0.239091 0)
(1.24753 0.246296 -8.50447e-21)
(1.19569 0.250777 4.03985e-21)
(1.14409 0.251669 -1.4114e-20)
(1.09233 0.247163 -3.15397e-22)
(1.04103 0.235405 5.2905e-21)
(0.998447 0.217544 2.2246e-20)
(0.970812 0.198967 -6.06573e-23)
(0.956845 0.182774 -7.94596e-21)
(0.950159 0.168692 -1.44994e-20)
(0.916487 0.150995 1.72052e-20)
(0.786934 0.121105 -3.05527e-20)
(0.551723 0.0795486 -4.06114e-21)
(0.290942 0.040331 0)
(0.0957075 0.01283 3.45603e-25)
(0.00312743 0.000409714 0)
(0.265008 0.0546469 1.77577e-20)
(1.12772 0.222572 -8.52087e-21)
(1.3092 0.270668 -6.41273e-21)
(1.34372 0.290019 2.39555e-21)
(1.3104 0.300287 -4.01728e-21)
(1.2542 0.303386 1.78739e-20)
(1.19772 0.303786 8.46181e-21)
(1.14103 0.300607 0)
(1.08394 0.292159 -2.66305e-20)
(1.0273 0.276678 0)
(0.980026 0.256149 -1.17174e-20)
(0.948752 0.236115 -1.44484e-20)
(0.931845 0.218753 -8.68688e-21)
(0.920757 0.202209 -1.05667e-20)
(0.880715 0.179531 0)
(0.753974 0.144346 0)
(0.534621 0.0977036 -2.66457e-20)
(0.292212 0.0527519 5.2821e-21)
(0.102895 0.0182894 -3.09442e-21)
(0.00540765 0.000973341 -3.66443e-21)
(0.257579 0.0669713 -7.37166e-21)
(1.13864 0.2811 0)
(1.32203 0.336183 1.32595e-20)
(1.35319 0.356309 6.78604e-21)
(1.31548 0.362981 9.27623e-21)
(1.25607 0.361954 0)
(1.19582 0.358082 8.30996e-21)
(1.13496 0.350656 1.5694e-20)
(1.07346 0.338229 1.36721e-20)
(1.01236 0.319287 2.50318e-20)
(0.961129 0.296175 0)
(0.926397 0.274293 -3.12369e-20)
(0.90552 0.254805 -1.88209e-20)
(0.888704 0.23497 -1.11268e-20)
(0.845003 0.208626 6.85244e-20)
(0.727948 0.170328 8.2072e-21)
(0.527266 0.119645 3.87706e-20)
(0.300645 0.068188 -1.83985e-19)
(0.115048 0.0261397 1.09165e-19)
(0.00932604 0.0022072 -1.33252e-19)
(0.25062 0.0780864 -3.82082e-21)
(1.14055 0.337606 1.33567e-21)
(1.32766 0.400834 -1.45698e-21)
(1.35667 0.422008 -6.97107e-21)
(1.3157 0.425287 -7.89153e-21)
(1.25368 0.420188 3.54062e-22)
(1.1904 0.412103 -9.0063e-21)
(1.12619 0.400618 1.62558e-20)
(1.06114 0.384409 -2.94455e-20)
(0.996382 0.362017 0)
(0.941642 0.335803 -1.41619e-20)
(0.903475 0.311005 -3.23706e-22)
(0.878297 0.288619 -2.06077e-20)
(0.856286 0.265802 0)
(0.811698 0.23758 -1.48536e-20)
(0.705312 0.197796 -3.54805e-20)
(0.522176 0.143341 9.54307e-20)
(0.309719 0.0854389 -9.41242e-20)
(0.127049 0.0353335 1.34007e-19)
(0.0131983 0.00382087 -1.4103e-19)
(0.244863 0.0884136 -1.04608e-22)
(1.13678 0.391451 -5.25453e-22)
(1.32796 0.463575 -4.10988e-21)
(1.35543 0.486004 2.82198e-21)
(1.312 0.486115 -3.97074e-21)
(1.24783 0.47706 0)
(1.1821 0.465007 -8.40298e-21)
(1.1152 0.449787 -1.70242e-20)
(1.04726 0.430014 -1.53109e-20)
(0.979286 0.404019 0)
(0.921293 0.374093 -1.46961e-20)
(0.879782 0.345795 -1.82007e-20)
(0.850678 0.320283 2.23536e-20)
(0.824935 0.295299 -1.35912e-20)
(0.781062 0.265925 -6.47979e-20)
(0.684527 0.224891 3.8832e-20)
(0.51601 0.16718 1.1696e-20)
(0.316043 0.102824 0)
(0.136251 0.0448104 -1.29554e-19)
(0.0163294 0.00554023 -4.81125e-21)
(0.240392 0.0982658 1.29888e-22)
(1.12954 0.442508 -1.63783e-23)
(1.32425 0.523891 1.91564e-21)
(1.35046 0.547651 9.99019e-21)
(1.30515 0.544828 -1.46505e-20)
(1.23929 0.532066 1.70988e-20)
(1.17163 0.516419 1.8068e-20)
(1.10254 0.497809 -2.71865e-20)
(1.03205 0.474665 9.4342e-21)
(0.961106 0.444899 -6.15675e-20)
(0.899961 0.41092 -1.66174e-20)
(0.855433 0.379027 0)
(0.823191 0.350725 2.42254e-20)
(0.79497 0.324184 2.90259e-20)
(0.752184 0.29416 3.48163e-20)
(0.663046 0.251916 -4.21096e-20)
(0.50718 0.190658 -1.25167e-20)
(0.317259 0.119745 1.47581e-20)
(0.141172 0.0536884 0)
(0.0183949 0.00714318 -1.04276e-20)
(0.237077 0.10775 -6.21899e-21)
(1.12046 0.490857 2.47759e-21)
(1.31772 0.582126 -1.66571e-21)
(1.34257 0.606623 6.018e-21)
(1.29585 0.601087 -6.58362e-21)
(1.2287 0.584961 -8.20315e-22)
(1.15955 0.566162 -1.97062e-20)
(1.08861 0.544521 -9.82799e-21)
(1.0158 0.518153 -2.65793e-20)
(0.941979 0.484555 5.04884e-23)
(0.87781 0.446458 -5.19848e-20)
(0.830592 0.411082 4.38451e-20)
(0.796025 0.380248 -2.65681e-20)
(0.766395 0.352323 3.19355e-20)
(0.724806 0.321392 0)
(0.640982 0.277271 -2.27688e-20)
(0.494972 0.2124 -1.12991e-22)
(0.31343 0.134665 -6.41478e-20)
(0.141189 0.0608932 -9.47284e-21)
(0.0191132 0.00831652 0)
(0.234824 0.117089 0)
(1.11052 0.536755 3.44594e-21)
(1.30891 0.637473 -1.19235e-21)
(1.33243 0.66274 -5.44469e-21)
(1.28466 0.654755 -8.32987e-21)
(1.21662 0.63567 0)
(1.14631 0.61415 -8.9488e-21)
(1.07376 0.5898 -2.35719e-22)
(0.998755 0.560376 5.68999e-20)
(0.922111 0.523 -8.44608e-21)
(0.85503 0.480875 -3.75244e-20)
(0.805441 0.442125 2.28013e-20)
(0.769132 0.408862 -4.19234e-22)
(0.738639 0.379323 3.39245e-20)
(0.697964 0.346941 2.09754e-20)
(0.618187 0.300247 -4.91481e-20)
(0.479822 0.231147 5.84982e-20)
(0.304763 0.146655 1.73619e-20)
(0.137478 0.0658364 7.19159e-20)
(0.018704 0.00895167 -1.94603e-19)
(0.233567 0.12641 -3.11901e-21)
(1.10043 0.580421 3.53624e-21)
(1.29853 0.690017 -1.89755e-21)
(1.32063 0.715956 4.10656e-21)
(1.2721 0.705795 0)
(1.2035 0.68417 -7.7832e-21)
(1.13229 0.660328 2.99696e-20)
(1.05829 0.633553 2.14757e-20)
(0.981168 0.601263 0)
(0.901745 0.560271 -1.21513e-19)
(0.831827 0.514267 1.01364e-19)
(0.780088 0.472212 0)
(0.74239 0.436442 3.09604e-20)
(0.711318 0.405029 -4.12565e-22)
(0.671213 0.370782 -6.68671e-20)
(0.594197 0.321021 2.62446e-20)
(0.461422 0.247017 0)
(0.291849 0.155517 9.35589e-20)
(0.130125 0.0683905 0)
(0.0172615 0.0090186 -9.19416e-20)
(0.23312 0.135761 4.04692e-21)
(1.09062 0.62202 5.45852e-21)
(1.28709 0.739773 -1.68219e-21)
(1.30765 0.766297 0)
(1.25859 0.754234 -6.91995e-21)
(1.1897 0.730476 0)
(1.11778 0.704645 -2.95217e-20)
(1.04244 0.675699 -9.95933e-21)
(0.963286 0.640764 1.00098e-20)
(0.881118 0.596399 -6.00844e-20)
(0.808385 0.546695 1.04619e-20)
(0.754571 0.501335 0)
(0.715669 0.462879 -6.60734e-20)
(0.684145 0.429289 4.17043e-22)
(0.644374 0.39268 0)
(0.569117 0.339207 4.09766e-22)
(0.440065 0.259379 8.50215e-20)
(0.275033 0.160752 -8.07995e-20)
(0.119841 0.0687538 2.39244e-20)
(0.0151682 0.00858905 0)
(0.233131 0.145017 0)
(1.08133 0.661607 7.15778e-21)
(1.27503 0.786832 3.74314e-21)
(1.29393 0.813821 -4.87164e-22)
(1.2445 0.800125 -2.25007e-21)
(1.17553 0.774597 -1.72765e-20)
(1.10303 0.747064 1.10341e-20)
(1.02645 0.716177 -1.17374e-20)
(0.945336 0.678842 4.46405e-20)
(0.860443 0.631402 -9.58722e-20)
(0.784838 0.578199 -7.18803e-22)
(0.728915 0.529497 -2.89641e-20)
(0.688856 0.488132 1.07119e-19)
(0.656922 0.452013 -4.87991e-22)
(0.617232 0.412503 -5.17837e-20)
(0.54279 0.354593 -9.27892e-20)
(0.416097 0.268219 0)
(0.25501 0.16243 0)
(0.107307 0.0668021 2.58132e-20)
(0.0126425 0.00770341 -1.53166e-20)
(0.233763 0.1543 6.37589e-21)
(1.0727 0.699172 -1.69384e-20)
(1.26269 0.831285 -4.09148e-21)
(1.27981 0.8586 0)
(1.23013 0.843521 -3.26758e-22)
(1.16123 0.816544 -1.56536e-20)
(1.08826 0.787556 2.65445e-20)
(1.01053 0.754945 4.61209e-20)
(0.927521 0.715479 5.79252e-20)
(0.839919 0.665302 -7.82238e-20)
(0.76134 0.608836 -8.68838e-20)
(0.703154 0.556763 7.74401e-20)
(0.661862 0.512219 0)
(0.629478 0.47317 -2.34815e-20)
(0.589633 0.430207 -5.60455e-20)
(0.515257 0.36708 -6.66206e-20)
(0.389802 0.273316 -7.93185e-20)
(0.23253 0.160586 2.35259e-20)
(0.0931486 0.0625889 -1.38883e-20)
(0.00977488 0.00639889 5.78832e-23)
(0.234675 0.163406 0)
(1.0648 0.735148 0)
(1.2503 0.873233 5.40885e-22)
(1.26557 0.900732 0)
(1.21573 0.884498 4.54184e-21)
(1.14699 0.856341 1.04576e-20)
(1.07363 0.826101 0)
(0.994838 0.79198 5.45138e-21)
(0.91003 0.750664 9.64668e-20)
(0.819735 0.698115 -1.79741e-19)
(0.738048 0.638676 0)
(0.677353 0.583246 -4.97725e-20)
(0.634618 0.535226 -5.90997e-22)
(0.601658 0.492772 -4.76527e-22)
(0.561469 0.445695 5.98518e-20)
(0.486557 0.376488 -7.2553e-23)
(0.361249 0.274565 -1.70743e-19)
(0.207989 0.155181 5.06194e-20)
(0.0784257 0.0566519 1.5016e-20)
(0.00690648 0.00485482 0)
(0.235613 0.172407 -2.73967e-20)
(1.05735 0.769522 -1.24444e-20)
(1.23798 0.91274 -1.46688e-20)
(1.25143 0.940322 9.731e-21)
(1.20149 0.923115 4.68717e-21)
(1.13297 0.89401 0)
(1.0593 0.8627 1.58554e-20)
(0.979537 0.827274 -1.21266e-20)
(0.893022 0.784399 7.86209e-22)
(0.800075 0.729867 1.32307e-20)
(0.715122 0.667794 1.12296e-19)
(0.651597 0.609096 -1.74551e-20)
(0.607051 0.557332 -6.59461e-20)
(0.57326 0.510848 -2.7351e-20)
(0.532563 0.458773 3.25841e-20)
(0.456788 0.382486 -3.60672e-23)
(0.331443 0.271831 4.60455e-20)
(0.182804 0.146707 -1.0891e-19)
(0.0638577 0.0494698 1.29252e-19)
(0.00419199 0.00320099 1.90815e-20)
(0.236338 0.181187 1.06768e-20)
(1.05037 0.802368 -7.21444e-21)
(1.22592 0.949934 1.28547e-21)
(1.23758 0.977497 7.76066e-21)
(1.18755 0.959462 4.08068e-22)
(1.11929 0.929583 -1.78949e-20)
(1.04538 0.897366 4.54572e-21)
(0.964747 0.860828 -5.04468e-20)
(0.876638 0.816673 -1.05965e-19)
(0.781088 0.760555 -1.06929e-19)
(0.692726 0.696253 0)
(0.62598 0.634471 -7.65151e-20)
(0.579118 0.578777 9.49545e-20)
(0.544026 0.527498 0)
(0.502613 0.46917 -6.97487e-20)
(0.425998 0.384518 4.18149e-20)
(0.301074 0.264814 -4.94816e-20)
(0.158208 0.135542 -5.86518e-20)
(0.0503608 0.0416148 -1.04151e-19)
(0.00180303 0.00157742 -8.22305e-20)
(0.237398 0.189823 -1.23676e-20)
(1.04367 0.833654 7.73409e-21)
(1.21418 0.984884 1.72486e-20)
(1.2241 1.01235 1.22633e-20)
(1.17403 0.993617 -1.49729e-22)
(1.10604 0.963116 -9.26965e-21)
(1.03196 0.930118 1.51599e-20)
(0.950563 0.892664 -5.16587e-20)
(0.860976 0.8475 -6.26223e-20)
(0.762909 0.790189 1.11664e-19)
(0.671009 0.724103 2.46238e-19)
(0.600632 0.659526 0)
(0.550838 0.599849 0)
(0.513645 0.542992 -3.15068e-20)
(0.471042 0.476631 0)
(0.39396 0.381631 9.00501e-20)
(0.271138 0.25273 1.06569e-19)
(0.136083 0.121817 0)
(0.0392033 0.0336795 0)
(-0.000106282 0.000131738 8.8422e-20)
(0.238082 0.19798 1.43778e-20)
(1.03727 0.863355 1.13334e-20)
(1.20284 1.0177 1.27126e-20)
(1.21108 1.04501 -1.30026e-20)
(1.16099 1.02567 -1.74508e-21)
(1.0933 0.994657 9.00902e-21)
(1.01912 0.960998 -2.06501e-20)
(0.937057 0.922799 2.29624e-23)
(0.846123 0.876878 -1.02372e-21)
(0.745642 0.818758 -1.10788e-21)
(0.650135 0.751381 1.26751e-19)
(0.575726 0.684384 0)
(0.522311 0.620855 9.59296e-20)
(0.481855 0.557799 6.71604e-20)
(0.436941 0.481245 1.63011e-19)
(0.359722 0.372623 4.84833e-20)
(0.242485 0.233358 -5.75045e-20)
(0.120157 0.103531 -3.38451e-20)
(0.0349544 0.0248633 0)
(-0.000519887 -0.00092352 9.50628e-20)
(0.239081 0.206141 -3.31824e-20)
(1.03111 0.891645 0)
(1.19186 1.04845 1.56356e-20)
(1.19856 1.07557 -1.15343e-20)
(1.14851 1.0557 4.32546e-21)
(1.08111 1.02427 -8.67471e-21)
(1.00689 0.990044 3.94942e-20)
(0.924277 0.951262 -4.32067e-21)
(0.83213 0.904813 0)
(0.729374 0.846225 -1.22887e-19)
(0.630262 0.778094 -2.7507e-19)
(0.551455 0.709149 1.12536e-20)
(0.493736 0.642052 1.3196e-19)
(0.448567 0.572532 0)
(0.399247 0.483837 1.09974e-19)
(0.32088 0.356936 0)
(0.213066 0.202327 0)
(0.114542 0.0684961 -3.67102e-20)
(0.0605581 0.0014599 0)
(0.0255736 0.00615769 2.54926e-20)
(0.239612 0.213699 -3.7636e-20)
(1.02514 0.918652 0)
(1.18126 1.07732 2.66056e-20)
(1.18649 1.10425 0)
(1.13653 1.08397 -3.27272e-21)
(1.06941 1.05224 0)
(0.995239 1.01756 1.87082e-21)
(0.912143 0.978392 7.04405e-21)
(0.818893 0.931676 7.82666e-21)
(0.71396 0.872981 -1.34707e-19)
(0.611252 0.804695 8.24793e-21)
(0.527618 0.734419 9.05416e-20)
(0.464802 0.664083 1.28709e-19)
(0.413127 0.588061 1.73742e-20)
(0.35635 0.486348 8.61611e-20)
(0.272983 0.336292 0)
(0.172348 0.15836 1.21684e-19)
(0.0910351 0.014302 -7.16396e-20)
(0.0327814 0.0571899 8.35323e-20)
(-0.0382525 0.450012 -9.91923e-20)
(0.240063 0.221074 3.15162e-20)
(1.01916 0.944298 4.69896e-20)
(1.17094 1.10465 0)
(1.17474 1.1315 1.09846e-21)
(1.12489 1.11105 1.082e-20)
(1.05796 1.07924 7.02339e-21)
(0.983857 1.04436 1.33112e-20)
(0.900266 1.00515 0)
(0.805901 0.958585 5.16323e-20)
(0.698737 0.900342 -7.00191e-21)
(0.592205 0.832672 0)
(0.503047 0.761963 0)
(0.433931 0.688695 1.14845e-19)
(0.373672 0.605634 -5.36039e-20)
(0.305574 0.49147 -8.69692e-20)
(0.212032 0.315585 0)
(0.0969528 0.15278 6.1885e-20)
(0.00897577 0.463716 -7.21933e-20)
(0.033385 1.9142 -4.06238e-20)
(0.0604818 2.81796 -4.96423e-20)
(0.240101 0.227848 -2.41369e-20)
(1.01319 0.968753 -6.11571e-20)
(1.1609 1.13042 1.62984e-20)
(1.16331 1.15718 1.26425e-20)
(1.11364 1.13673 0)
(1.04685 1.105 2.40004e-21)
(0.972952 1.07013 1.7563e-20)
(0.888833 1.03109 -3.36645e-21)
(0.793428 0.985012 7.68642e-21)
(0.684088 0.927689 1.2781e-19)
(0.573741 0.861335 1.38282e-19)
(0.478739 0.791469 1.00641e-19)
(0.402145 0.715663 1.15094e-19)
(0.332086 0.623954 -1.25156e-19)
(0.253898 0.501958 -1.30828e-19)
(0.136366 0.351054 0)
(0.0464328 0.868518 0)
(0.0937021 2.57243 3.43543e-20)
(0.0958705 3.20541 0)
(0.0965334 3.38698 9.00011e-20)
(0.242906 0.234108 0)
(1.00746 0.992357 0)
(1.15087 1.1545 0)
(1.15195 1.18112 3.99388e-21)
(1.10251 1.1608 1.05641e-20)
(1.03586 1.12936 -1.25372e-21)
(0.962454 1.09475 1.10071e-20)
(0.877781 1.0561 -3.26025e-21)
(0.781413 1.01079 6.39168e-20)
(0.670006 0.954859 -2.01098e-21)
(0.555955 0.890474 2.72224e-19)
(0.45513 0.82298 -1.15712e-20)
(0.369638 0.745506 1.39037e-20)
(0.290828 0.640741 1.80628e-20)
(0.192894 0.522193 -2.19836e-22)
(0.103038 1.00946 3.34161e-22)
(0.133667 2.74586 -1.78228e-19)
(0.139089 3.29847 -6.79825e-20)
(0.12785 3.42465 3.6369e-20)
(0.115588 3.44486 -4.10839e-20)
(0.165155 0.179 1.506e-20)
(0.997744 1.01779 0)
(1.14074 1.17715 -3.46184e-20)
(1.14101 1.20359 -3.57774e-20)
(1.09194 1.18372 2.75048e-20)
(1.02566 1.15277 2.45385e-21)
(0.952164 1.11824 -1.09736e-20)
(0.86717 1.08016 3.55432e-20)
(0.769993 1.0359 -5.22615e-20)
(0.656768 0.98187 0)
(0.539178 0.92008 1.33631e-19)
(0.432797 0.856295 -8.17395e-20)
(0.33693 0.78102 0)
(0.244081 0.66144 1.72629e-20)
(0.146591 0.834855 4.17466e-20)
(0.148087 2.54072 -4.81899e-20)
(0.198731 3.33093 5.52443e-20)
(0.179285 3.43869 3.00286e-20)
(0.148034 3.45712 3.47002e-20)
(0.127609 3.46546 5.55688e-20)
(0.278649 0.273584 -2.89249e-20)
(0.981862 1.0293 0)
(1.12303 1.2032 3.81052e-20)
(1.12631 1.23669 4.09393e-20)
(1.07539 1.21786 -3.26613e-20)
(1.00876 1.18767 -7.81362e-21)
(0.934267 1.1546 8.56083e-21)
(0.848611 1.11769 2.77218e-21)
(0.749984 1.07545 4.90939e-20)
(0.633839 1.02512 1.09148e-19)
(0.510946 0.96898 7.48473e-21)
(0.395876 0.912737 7.20251e-20)
(0.280644 0.841828 1.29678e-20)
(0.211468 1.01011 -1.64667e-20)
(0.217592 2.40894 -3.79221e-20)
(0.26853 3.33896 3.80823e-20)
(0.251964 3.4687 -4.21443e-20)
(0.216921 3.48613 -2.45969e-20)
(0.182261 3.50958 -2.25457e-20)
(0.136728 3.50307 -3.32167e-21)
(0.269238 0.272723 0)
(0.979676 1.05271 1.13889e-20)
(1.11489 1.22691 -7.95637e-21)
(1.11589 1.2602 -4.98529e-21)
(1.06479 1.24138 -2.33214e-20)
(0.998371 1.21159 8.73849e-21)
(0.923613 1.17881 -3.70027e-21)
(0.837773 1.14269 2.44473e-21)
(0.738647 1.10185 -5.07249e-20)
(0.621262 1.05423 -2.96285e-21)
(0.495787 1.00253 -2.39084e-19)
(0.376318 0.95134 1.02369e-20)
(0.270154 0.917767 -1.22304e-20)
(0.24666 1.57276 -1.51251e-20)
(0.306408 3.14191 3.61042e-21)
(0.321598 3.47303 4.20964e-22)
(0.279674 3.5199 6.26517e-20)
(0.245059 3.54053 3.20753e-20)
(0.198902 3.5595 -1.07832e-20)
(0.14847 3.55467 -1.66058e-20)
(0.2552 0.270902 2.95338e-20)
(0.976628 1.07877 7.77279e-20)
(1.10638 1.25273 -2.28777e-20)
(1.1051 1.28527 -1.88694e-20)
(1.05383 1.26638 0)
(0.987639 1.2368 1.9072e-20)
(0.912854 1.20432 -2.10504e-21)
(0.827086 1.16893 2.09505e-21)
(0.727769 1.12957 -5.63642e-21)
(0.609663 1.08488 -9.72872e-20)
(0.482459 1.0381 -1.09609e-19)
(0.359559 0.992988 -8.39467e-20)
(0.27383 1.06075 -9.12028e-20)
(0.30889 2.3006 9.43335e-20)
(0.384749 3.39976 8.12368e-20)
(0.359614 3.532 0)
(0.31066 3.56601 0)
(0.273713 3.59825 -8.33969e-21)
(0.228245 3.64317 0)
(0.158721 3.62545 -1.3728e-20)
(0.245241 0.272972 -4.45622e-20)
(0.971628 1.10578 -6.64322e-20)
(1.09656 1.27986 0)
(1.09316 1.31126 1.32811e-21)
(1.04173 1.29209 -2.65207e-20)
(0.975872 1.26259 3.2882e-20)
(0.901369 1.23042 6.05264e-22)
(0.815894 1.19568 1.05848e-21)
(0.716639 1.15774 -3.48889e-20)
(0.598221 1.11595 4.81097e-21)
(0.470075 1.07426 0)
(0.348793 1.03977 0)
(0.301023 1.33988 -8.2479e-20)
(0.384061 2.96532 3.38e-20)
(0.449149 3.50261 4.34906e-20)
(0.397409 3.5672 0)
(0.35514 3.62111 -4.40129e-21)
(0.313293 3.66556 -4.17257e-21)
(0.263492 3.62976 -1.64473e-20)
(0.170603 3.60759 9.63928e-22)