/*--------------------------------*- C++ -*----------------------------------*\
  =========                 |
  \\      /  F ield         | OpenFOAM: The Open Source CFD Toolbox
   \\    /   O peration     | Website:  https://openfoam.org
    \\  /    A nd           | Version:  6
     \\/     M anipulation  |
\*---------------------------------------------------------------------------*/
FoamFile
{
    version     2.0;
    format      ascii;
    class       volScalarField;
    location    "119.7";
    object      p;
}
// * * * * * * * * * * * * * * * * * * * * * * * * * * * * * * * * * * * * * //

dimensions      [0 2 -2 0 0 0 0];

internalField   nonuniform List<scalar> 
8800
(
1.30922
1.2599
1.22194
1.19388
1.17372
1.15915
1.14857
1.14105
1.13619
1.13416
1.13558
1.13995
1.14678
1.15622
1.16898
1.18631
1.21019
1.24329
1.28624
1.33875
1.1437
1.15005
1.1592
1.16275
1.16015
1.15407
1.14715
1.14092
1.13615
1.13332
1.13313
1.1358
1.14048
1.14663
1.15375
1.1608
1.16569
1.16557
1.1589
1.15001
1.1172
1.12344
1.12794
1.13182
1.13478
1.13574
1.13467
1.13257
1.13063
1.12983
1.13091
1.13341
1.13633
1.13863
1.13917
1.13739
1.13404
1.13004
1.12526
1.12154
1.11287
1.11564
1.11825
1.12041
1.12216
1.12375
1.12487
1.12525
1.12518
1.12533
1.12619
1.12739
1.12817
1.12805
1.1271
1.12576
1.12411
1.12182
1.11941
1.11785
1.10777
1.1092
1.11105
1.11314
1.11486
1.11618
1.1173
1.11831
1.11917
1.11997
1.12075
1.12127
1.12134
1.12102
1.12038
1.11929
1.11765
1.11577
1.11442
1.11362
1.10273
1.10363
1.10489
1.10653
1.10824
1.1098
1.11111
1.11228
1.1134
1.11449
1.11536
1.11582
1.11589
1.11557
1.11481
1.11365
1.11231
1.11106
1.11025
1.10973
1.09776
1.09841
1.09938
1.10072
1.10219
1.10373
1.10526
1.10667
1.108
1.1093
1.11035
1.11093
1.11103
1.11065
1.10992
1.10902
1.10806
1.10717
1.1066
1.10622
1.09285
1.09335
1.09415
1.09531
1.09664
1.09809
1.09965
1.10125
1.10284
1.10441
1.10569
1.10641
1.10658
1.10634
1.10584
1.1052
1.1045
1.10387
1.10345
1.10315
1.08794
1.08834
1.08902
1.09006
1.09132
1.09273
1.0943
1.09601
1.09784
1.09972
1.10129
1.10224
1.10263
1.10264
1.1024
1.102
1.10152
1.10109
1.10078
1.10054
1.08296
1.08329
1.08387
1.08485
1.08607
1.08748
1.08909
1.09093
1.09299
1.09521
1.09715
1.09844
1.09916
1.09947
1.09949
1.09934
1.09907
1.09881
1.09859
1.09838
1.07781
1.07808
1.07861
1.07954
1.08076
1.08221
1.08392
1.08592
1.08825
1.09086
1.09328
1.09502
1.09612
1.09677
1.09708
1.09718
1.09713
1.09702
1.09687
1.09669
1.07239
1.07262
1.07311
1.07403
1.07529
1.07682
1.07867
1.08091
1.08358
1.08668
1.08966
1.09193
1.0935
1.09453
1.09518
1.09555
1.09573
1.09576
1.09567
1.09551
1.0666
1.0668
1.06727
1.06821
1.06955
1.07121
1.07326
1.0758
1.0789
1.08261
1.08629
1.08919
1.0913
1.09278
1.0938
1.09449
1.0949
1.09507
1.09503
1.09488
1.06034
1.0605
1.06098
1.06197
1.06342
1.06527
1.06759
1.07052
1.07416
1.07861
1.08312
1.08679
1.08954
1.09155
1.093
1.09404
1.09471
1.09502
1.09502
1.09487
1.05346
1.0536
1.05409
1.05517
1.05678
1.05888
1.06155
1.06496
1.06928
1.07462
1.08015
1.08473
1.08823
1.09086
1.09282
1.09426
1.09523
1.09568
1.09571
1.09557
1.04582
1.04594
1.04646
1.04764
1.04947
1.05189
1.055
1.05902
1.06417
1.07061
1.07735
1.08301
1.08741
1.09078
1.09333
1.09524
1.09654
1.09713
1.0972
1.09706
1.03721
1.03731
1.03787
1.03919
1.0413
1.04412
1.04778
1.05256
1.05873
1.0665
1.07469
1.08165
1.0871
1.09133
1.09461
1.09707
1.09873
1.09948
1.09958
1.09943
1.02734
1.02744
1.02806
1.02957
1.03203
1.03536
1.03972
1.04544
1.05286
1.06224
1.07217
1.08065
1.08735
1.0926
1.09672
1.09983
1.1019
1.10281
1.10294
1.10277
1.01592
1.016
1.01671
1.01847
1.02138
1.02534
1.03058
1.03747
1.04643
1.05776
1.06976
1.08002
1.08819
1.09463
1.09972
1.10359
1.10611
1.10718
1.10732
1.10714
1.0025
1.00256
1.00339
1.00546
1.00894
1.01373
1.02008
1.02845
1.03931
1.05301
1.06746
1.0798
1.08964
1.09746
1.10368
1.10841
1.11141
1.11262
1.11277
1.11257
0.986459
0.986516
0.987497
0.989996
0.994224
1.00009
1.00788
1.01814
1.03138
1.04793
1.06527
1.07999
1.09174
1.10113
1.10863
1.11429
1.11778
1.1191
1.11923
1.11901
0.966947
0.967
0.968208
0.971308
0.97656
0.983874
0.993579
1.00629
1.02251
1.04253
1.06321
1.08063
1.09451
1.10565
1.11453
1.12121
1.12512
1.12649
1.12659
1.12635
0.942692
0.942751
0.944319
0.948324
0.955052
0.964404
0.976742
0.992693
1.01268
1.03684
1.06134
1.08175
1.09795
1.11099
1.12136
1.12902
1.13324
1.13457
1.13461
1.13436
0.911709
0.9118
0.913993
0.919476
0.928524
0.940892
0.956964
0.977236
1.00194
1.03098
1.05976
1.0834
1.10208
1.11709
1.12899
1.1375
1.14182
1.143
1.14296
1.1427
0.870632
0.870865
0.874357
0.882577
0.895568
0.91265
0.934069
0.960039
0.990506
1.02516
1.05863
1.08567
1.10689
1.12392
1.13727
1.14632
1.15045
1.15136
1.15124
1.15099
0.813027
0.814237
0.821254
0.835218
0.855124
0.879526
0.908379
0.941557
0.978803
1.01969
1.05811
1.08864
1.11239
1.13133
1.14592
1.15508
1.15865
1.15922
1.15904
1.15881
0.729561
0.737784
0.754017
0.778538
0.808813
0.843029
0.880926
0.922338
0.967042
1.01464
1.05836
1.09263
1.11911
1.14004
1.15547
1.16424
1.16704
1.16729
1.16708
1.16689
0.640268
0.658433
0.684836
0.720721
0.761946
0.806078
0.852975
0.902658
0.955017
1.00976
1.05941
1.09807
1.12781
1.15087
1.16677
1.17433
1.17608
1.17607
1.1759
1.1758
0.563443
0.585687
0.620581
0.666178
0.717084
0.770567
0.826221
0.884003
0.943783
1.00529
1.06039
1.10295
1.1355
1.1602
1.17582
1.18193
1.18294
1.18287
1.18274
1.18267
0.500016
0.524765
0.565502
0.618063
0.676524
0.73778
0.801116
0.866277
0.932931
1.00072
1.06081
1.1069
1.14186
1.16768
1.1828
1.18788
1.18854
1.18845
1.18835
1.1883
0.447059
0.473363
0.518342
0.576296
0.640761
0.708358
0.778172
0.849767
0.922587
0.996096
1.0608
1.11012
1.14726
1.17399
1.18854
1.19281
1.19327
1.19317
1.19309
1.19304
0.401999
0.429231
0.477353
0.539658
0.609134
0.682096
0.757461
0.834671
0.912984
0.991678
1.06059
1.1129
1.15201
1.17943
1.19336
1.19701
1.19733
1.19723
1.19716
1.19711
0.36275
0.390591
0.44116
0.507064
0.580806
0.658424
0.738686
0.820912
0.904192
0.987613
1.06036
1.11536
1.15623
1.18416
1.19747
1.20064
1.20087
1.20076
1.20069
1.20065
0.327802
0.3561
0.408673
0.477637
0.555075
0.636784
0.721438
0.808242
0.896103
0.983901
1.06016
1.11759
1.15998
1.18827
1.201
1.20379
1.20394
1.20382
1.20375
1.20371
0.2961
0.324789
0.379046
0.450686
0.53138
0.616727
0.705356
0.796379
0.888542
0.980465
1.05998
1.11959
1.16331
1.19182
1.20399
1.20649
1.20656
1.20642
1.20635
1.2063
0.26679
0.295869
0.351632
0.425683
0.509274
0.597892
0.690145
0.785092
0.881338
0.977225
1.05983
1.1214
1.16623
1.19481
1.20646
1.20871
1.20871
1.20854
1.20845
1.20841
0.239439
0.268852
0.325981
0.402199
0.488407
0.579993
0.675577
0.774195
0.874359
0.97414
1.05975
1.12308
1.16877
1.19725
1.20836
1.2104
1.21035
1.21015
1.21005
1.20999
0.213513
0.243335
0.301718
0.379919
0.468504
0.562798
0.661467
0.763539
0.867487
0.971171
1.05981
1.12475
1.171
1.19913
1.20967
1.21155
1.21146
1.21125
1.21114
1.21108
0.18883
0.219053
0.278606
0.358617
0.449362
0.54614
0.64767
0.753004
0.860623
0.968277
1.06011
1.1266
1.17306
1.20052
1.21044
1.21218
1.21209
1.2119
1.21178
1.21171
0.165186
0.195814
0.256459
0.338137
0.430849
0.529898
0.634076
0.742483
0.85367
0.965385
1.06073
1.12887
1.1752
1.20155
1.21072
1.21239
1.21236
1.21218
1.21205
1.21197
0.14243
0.173511
0.235169
0.318376
0.412858
0.513984
0.620609
0.731904
0.846538
0.962398
1.06167
1.13183
1.1778
1.20243
1.21053
1.21219
1.21235
1.21217
1.21199
1.21187
0.120435
0.152004
0.214675
0.299268
0.395343
0.498342
0.607216
0.721205
0.839148
0.959194
1.06288
1.13574
1.18142
1.20363
1.20989
1.21127
1.2118
1.21185
1.2117
1.21148
0.0992842
0.13131
0.19494
0.280762
0.378265
0.482958
0.593866
0.710353
0.831441
0.955672
1.06423
1.14075
1.18674
1.20605
1.20925
1.20945
1.21023
1.2113
1.21173
1.21145
0.0789468
0.111395
0.175918
0.262837
0.361616
0.467819
0.580563
0.699321
0.823373
0.951714
1.06553
1.14682
1.19437
1.21105
1.21038
1.20789
1.20825
1.21096
1.21332
1.21357
0.0593218
0.092254
0.157583
0.24548
0.345403
0.452945
0.567321
0.688119
0.814913
0.947222
1.06656
1.15377
1.20466
1.22014
1.21587
1.21005
1.20918
1.21362
1.21901
1.22119
0.0405142
0.0738757
0.139949
0.228713
0.329638
0.438368
0.554176
0.676772
0.806059
0.942126
1.06704
1.16118
1.21745
1.23393
1.22761
1.21895
1.21587
1.21926
1.22547
1.22848
0.0224129
0.0562139
0.122984
0.212477
0.314258
0.42402
0.541044
0.665189
0.796691
0.93628
1.06673
1.16864
1.23239
1.25228
1.24585
1.23536
1.22848
1.22337
1.21782
1.22347
0.0050572
0.0391953
0.106533
0.196567
0.29896
0.409576
0.527527
0.652914
0.786321
0.929142
1.06509
1.17564
1.24951
1.27552
1.27038
1.25888
1.24589
1.23131
1.20909
1.21585
-0.0114546
0.0228072
0.0907336
0.181156
0.283979
0.395306
0.513778
0.6402
0.775123
0.920735
1.06173
1.18074
1.26687
1.30165
1.29728
1.28257
1.26372
1.23153
1.17876
1.15852
-0.0270407
0.00597957
0.076005
0.166682
0.270117
0.381698
0.500068
0.627305
0.763341
0.911143
1.05641
1.18277
1.28178
1.32748
1.31883
1.29738
1.26417
1.20522
1.14517
1.10943
-0.0690312
-0.0106726
0.0626165
0.152169
0.25658
0.367722
0.486541
0.614074
0.750703
0.899871
1.04834
1.18024
1.29074
1.34561
1.33489
1.28794
1.21816
1.14203
1.07132
1.03238
-0.0410751
-0.0216967
0.0422565
0.132417
0.235561
0.346693
0.465156
0.592677
0.729533
0.879459
1.0302
1.16609
1.27516
1.33804
1.29117
1.15061
1.04334
0.969178
0.899538
0.916958
-0.0707601
-0.0380991
0.0267771
0.11656
0.219421
0.330526
0.449442
0.576705
0.713215
0.862618
1.01268
1.14697
1.24536
1.27996
1.19395
1.02694
0.900796
0.816014
0.728028
0.762859
-0.093239
-0.0582824
0.00834023
0.0982143
0.201079
0.312308
0.431337
0.558143
0.693833
0.84175
0.989158
1.11833
1.2044
1.2015
1.06114
0.884288
0.740263
0.636188
0.535547
0.556221
-0.114826
-0.0789207
-0.0109932
0.0795247
0.182516
0.293735
0.412415
0.53852
0.673027
0.818733
0.961765
1.08135
1.14813
1.11122
0.922724
0.728965
0.557869
0.416245
0.286499
0.286325
-0.135928
-0.0997477
-0.0309966
0.0600798
0.16323
0.274296
0.392423
0.517594
0.650479
0.793248
0.930266
1.03872
1.08311
0.991133
0.78495
0.574742
0.380923
0.222551
0.0177218
-0.0638275
-0.157236
-0.121247
-0.0520742
0.0393585
0.142652
0.25356
0.371139
0.495245
0.626215
0.765436
0.895298
0.993411
1.00726
0.865043
0.657506
0.438689
0.241606
0.0794122
-0.0414071
-0.150228
-0.1798
-0.143889
-0.0745769
0.0169748
0.120242
0.23085
0.34773
0.470501
0.599054
0.733825
0.855753
0.938692
0.922974
0.744457
0.537246
0.325222
0.145141
0.0473051
0.0220189
0.00934826
-0.203784
-0.16797
-0.0986285
-0.00715497
0.0958576
0.205939
0.321803
0.44282
0.56833
0.697597
0.810034
0.873207
0.833548
0.628181
0.423821
0.232649
0.096301
0.0581488
0.0502829
0.0498794
-0.229489
-0.193623
-0.124272
-0.0330171
0.0695453
0.178805
0.293309
0.412109
0.533916
0.656721
0.758802
0.803574
0.723954
0.52076
0.323751
0.157569
0.0816112
0.0676636
0.0668196
0.0669703
-0.256912
-0.220888
-0.151536
-0.0606199
0.0412743
0.149437
0.26221
0.378315
0.495796
0.611243
0.702285
0.727574
0.609906
0.422759
0.23734
0.105924
0.077438
0.0767508
0.0762108
0.0766216
-0.285813
-0.249611
-0.180336
-0.0899
0.0111102
0.117862
0.228503
0.34143
0.454014
0.561302
0.641175
0.644502
0.509317
0.3337
0.170146
0.0945233
0.0800467
0.0819466
0.0821935
0.0825748
-0.315641
-0.279448
-0.21042
-0.120641
-0.0207777
0.0842165
0.192314
0.301553
0.408805
0.507533
0.575406
0.561488
0.41759
0.255647
0.125295
0.0860657
0.0868899
0.0864239
0.0866209
0.0869034
-0.345953
-0.309874
-0.241308
-0.152438
-0.0540522
0.0488095
0.153915
0.258959
0.360472
0.450971
0.504348
0.483782
0.336387
0.194844
0.0996921
0.0914048
0.0898206
0.0895095
0.0895632
0.0897195
-0.375744
-0.340033
-0.272291
-0.184674
-0.0881728
0.012112
0.11377
0.214154
0.309468
0.392482
0.43419
0.404914
0.267847
0.152697
0.0954135
0.0851384
0.0903831
0.091455
0.0918183
0.091986
-0.403501
-0.368672
-0.302346
-0.216476
-0.122369
-0.0251717
0.0725594
0.167901
0.256633
0.332537
0.369241
0.325187
0.212404
0.120889
0.097256
0.0938783
0.0929975
0.0933843
0.0935868
0.0937203
-0.427862
-0.394307
-0.3301
-0.246654
-0.155589
-0.062098
0.0311727
0.121151
0.203277
0.27176
0.305732
0.257351
0.170387
0.102625
0.0820783
0.0905533
0.0934683
0.0944731
0.0947927
0.0949323
-0.446295
-0.414863
-0.353821
-0.273716
-0.18653
-0.0974817
-0.00926536
0.0750021
0.150729
0.212077
0.24282
0.204107
0.142017
0.0970447
0.0922635
0.0929107
0.0946231
0.0952491
0.0954552
0.0956042
-0.456861
-0.428321
-0.371484
-0.295949
-0.213684
-0.129943
-0.0474232
0.0307368
0.100122
0.156132
0.185592
0.159315
0.124235
0.0968148
0.0977569
0.0955627
0.0947937
0.094863
0.0949276
0.095045
-0.456922
-0.432365
-0.381061
-0.311549
-0.235443
-0.158028
-0.0818741
-0.0101328
0.0527263
0.104525
0.137801
0.119345
0.110328
0.0942734
0.0927923
0.0931827
0.0928605
0.0927386
0.092726
0.0927973
-0.444041
-0.424261
-0.380423
-0.318818
-0.250378
-0.180377
-0.111295
-0.0460873
0.0103829
0.0560765
0.101635
0.0833857
0.096685
0.0888048
0.0869082
0.0886259
0.0890195
0.0887189
0.0884827
0.0884723
-0.41649
-0.402143
-0.367887
-0.316607
-0.257478
-0.196025
-0.134666
-0.0760406
-0.0251348
0.0128313
0.06059
0.0666261
0.076804
0.0741502
0.077728
0.0793593
0.0808128
0.0805875
0.0800702
0.0799858
-0.377803
-0.368707
-0.344866
-0.305323
-0.256849
-0.204754
-0.15143
-0.0994018
-0.0533337
-0.0208534
0.0105862
0.0373137
0.0640832
0.0622937
0.0577172
0.0629344
0.0638359
0.0632409
0.0627719
0.0627899
-0.335037
-0.329849
-0.316262
-0.288113
-0.250629
-0.207455
-0.161718
-0.115808
-0.0736159
-0.0424317
-0.0148953
0.00977051
0.0393291
0.0608309
0.0807695
0.0712395
0.0491574
0.037133
0.0336952
0.033175
-0.297764
-0.29457
-0.288068
-0.270217
-0.241643
-0.20593
-0.166553
-0.125251
-0.0850454
-0.0523686
-0.0272142
-0.0127072
-0.00921763
-0.0295558
-0.0617134
-0.0971272
-0.101071
-0.0633264
-0.037833
-0.0387244
-0.270896
-0.268999
-0.265755
-0.255252
-0.233449
-0.203265
-0.167842
-0.128727
-0.0882294
-0.0515555
-0.0246908
-0.0182684
-0.0548519
-0.121402
-0.189223
-0.227222
-0.234111
-0.202478
-0.157821
-0.14106
-0.251225
-0.250562
-0.249492
-0.244341
-0.228461
-0.201884
-0.167589
-0.128061
-0.0846076
-0.0409266
-0.0101847
0.0161305
0.0284086
0.0097757
-0.0398731
-0.0519453
-0.0385572
-0.0130681
0.0174597
0.0334524
-0.239634
-0.239415
-0.238826
-0.236552
-0.225873
-0.201476
-0.166789
-0.125001
-0.0767367
-0.0231321
0.0229019
0.08601
0.165369
0.237702
0.276096
0.30385
0.340463
0.378249
0.40946
0.424725
-0.231546
-0.231401
-0.231007
-0.230428
-0.224006
-0.202162
-0.166393
-0.121052
-0.066879
-0.00120125
0.0672057
0.15514
0.297458
0.474572
0.642472
0.776468
0.869844
0.929302
0.963135
0.977151
-0.226162
-0.22612
-0.226009
-0.225876
-0.222221
-0.20396
-0.167244
-0.11757
-0.0572906
0.018861
0.10514
0.202648
0.388458
0.649844
0.923744
1.16429
1.33563
1.43003
1.47097
1.48404
-0.221699
-0.221691
-0.221621
-0.221543
-0.220265
-0.206121
-0.169436
-0.116046
-0.0504593
0.0329795
0.130225
0.233613
0.430307
0.722199
1.04231
1.33482
1.55764
1.67947
1.72599
1.73885
-0.217853
-0.217835
-0.217705
-0.217454
-0.217394
-0.207618
-0.172865
-0.117794
-0.0481899
0.038794
0.140347
0.245103
0.423258
0.701577
1.00801
1.29154
1.5149
1.64218
1.69095
1.70301
-0.214892
-0.214876
-0.214811
-0.214761
-0.215166
-0.20847
-0.177412
-0.122125
-0.0509395
0.0361597
0.135062
0.232568
0.378502
0.622796
0.88294
1.11623
1.30437
1.41549
1.45911
1.46958
-0.211921
-0.211962
-0.21211
-0.212416
-0.212668
-0.209245
-0.182152
-0.128621
-0.0584148
0.025715
0.117089
0.20307
0.314541
0.513211
0.724225
0.901423
1.04198
1.12676
1.16018
1.16797
-0.208784
-0.208854
-0.208948
-0.209037
-0.209181
-0.208071
-0.185936
-0.136022
-0.0693327
0.0093048
0.0911444
0.164762
0.246579
0.398232
0.561861
0.692895
0.793342
0.853517
0.876584
0.881424
-0.205773
-0.205862
-0.205983
-0.206129
-0.206438
-0.206047
-0.188594
-0.143466
-0.0821848
-0.0109115
0.0611716
0.12308
0.182124
0.293691
0.416601
0.511931
0.582722
0.624316
0.639837
0.642378
-0.202702
-0.202828
-0.20304
-0.203403
-0.204005
-0.204238
-0.190365
-0.150255
-0.0955605
-0.0323094
0.0303099
0.082024
0.125029
0.206527
0.297324
0.365384
0.41461
0.443078
0.453069
0.454587
-0.199533
-0.19967
-0.19984
-0.200094
-0.200602
-0.201236
-0.190311
-0.155948
-0.10844
-0.053015
0.00081623
0.0436389
0.0751859
0.13564
0.202671
0.251142
0.285444
0.304858
0.311394
0.312124
-0.196955
-0.196988
-0.196767
-0.19596
-0.194783
-0.194874
-0.187972
-0.160721
-0.120438
-0.0716319
-0.0258158
0.00880412
0.0331018
0.0781936
0.128022
0.163063
0.187671
0.201375
0.205721
0.205974
-0.196174
-0.196065
-0.195478
-0.19371
-0.190757
-0.189439
-0.186309
-0.165876
-0.13086
-0.0874426
-0.0498091
-0.0214608
-0.00248163
0.0326342
0.0703646
0.0960455
0.113967
0.12366
0.126676
0.126512
-0.197411
-0.197366
-0.197284
-0.197069
-0.196545
-0.195877
-0.19258
-0.17343
-0.139283
-0.10126
-0.0708393
-0.0465699
-0.0308525
-0.00414266
0.0250018
0.0447782
0.0586258
0.0659079
0.0680125
0.0676363
-0.198072
-0.198476
-0.200153
-0.205172
-0.212838
-0.215082
-0.208164
-0.182203
-0.146573
-0.1143
-0.0886938
-0.0661237
-0.0530747
-0.031805
-0.008794
0.00669216
0.0174928
0.0230026
0.0245143
0.024075
-0.194189
-0.19497
-0.19798
-0.207331
-0.22189
-0.22665
-0.213897
-0.1841
-0.152279
-0.126441
-0.101861
-0.0802724
-0.0702849
-0.0525552
-0.0330893
-0.0203059
-0.011618
-0.007369
-0.00619109
-0.00664283
-0.188111
-0.1887
-0.190347
-0.193342
-0.196549
-0.200611
-0.191895
-0.174033
-0.155203
-0.134453
-0.108975
-0.0906758
-0.0821407
-0.0666179
-0.0496709
-0.0384822
-0.0307828
-0.0270196
-0.0259262
-0.0263773
-0.186896
-0.186828
-0.184695
-0.169813
-0.140609
-0.12567
-0.141076
-0.154982
-0.154429
-0.135975
-0.112472
-0.0974515
-0.0896964
-0.0741935
-0.058721
-0.0483933
-0.0411929
-0.0374775
-0.0364144
-0.036887
-0.196121
-0.194689
-0.188621
-0.166714
-0.129886
-0.108911
-0.130371
-0.158906
-0.159638
-0.136651
-0.113896
-0.101154
-0.0928364
-0.0780703
-0.0631192
-0.0524436
-0.0447587
-0.0407071
-0.0395887
-0.0401141
-0.228974
-0.227229
-0.231915
-0.238031
-0.235302
-0.218244
-0.213231
-0.206971
-0.178526
-0.139741
-0.114737
-0.101878
-0.0923253
-0.0774547
-0.0629262
-0.0518335
-0.0435026
-0.0390017
-0.0378574
-0.0384643
-0.301612
-0.308236
-0.333558
-0.36626
-0.377057
-0.361264
-0.32671
-0.266651
-0.195613
-0.140026
-0.113604
-0.0989041
-0.0881388
-0.0737782
-0.0591474
-0.0475949
-0.0391419
-0.0348273
-0.0338401
-0.0344815
-0.36335
-0.375886
-0.404004
-0.429498
-0.438773
-0.422775
-0.377582
-0.288182
-0.194262
-0.133268
-0.105407
-0.0895981
-0.0797351
-0.0666737
-0.0523845
-0.0408126
-0.0327626
-0.0289532
-0.0282399
-0.0288986
-0.344789
-0.354698
-0.37553
-0.395377
-0.404533
-0.391451
-0.341713
-0.245277
-0.162383
-0.111516
-0.084656
-0.0711728
-0.0661367
-0.0545111
-0.040729
-0.0303608
-0.0237758
-0.0209782
-0.0207265
-0.0213994
-0.219112
-0.231032
-0.251088
-0.271311
-0.280605
-0.27003
-0.22757
-0.152775
-0.102932
-0.0706535
-0.0509495
-0.0446677
-0.0452344
-0.0348093
-0.0241379
-0.0173644
-0.0125193
-0.0105281
-0.0108284
-0.0116343
-0.00887156
-0.012402
-0.02605
-0.0509692
-0.0669956
-0.0681167
-0.0604285
-0.0391269
-0.0288568
-0.0191571
-0.0128756
-0.0102302
-0.0101913
-0.00946688
-0.00516285
-0.00602526
-0.00600853
-0.00590689
-0.00476381
-0.00401714
0.406061
0.584846
0.74704
0.882978
0.989081
1.07028
1.13678
1.19117
1.20451
1.20244
0.674143
0.787468
0.893194
0.983536
1.05842
1.11948
1.16745
1.20004
1.2178
1.23519
0.855548
0.930585
1.00472
1.06931
1.12395
1.16919
1.20504
1.23279
1.25377
1.27318
0.990826
1.04442
1.09818
1.14637
1.18794
1.22344
1.25347
1.27883
1.29839
1.3173
1.10129
1.14197
1.18209
1.21981
1.25365
1.28371
1.31012
1.33266
1.35023
1.36832
1.19414
1.22819
1.26162
1.29375
1.3235
1.35056
1.37456
1.39484
1.41027
1.42775
1.27974
1.31069
1.34186
1.37207
1.40025
1.42593
1.44851
1.46706
1.48072
1.4977
1.36496
1.39694
1.4287
1.45933
1.48761
1.51297
1.53474
1.552
1.56418
1.58067
1.45832
1.49449
1.5289
1.56099
1.58983
1.61488
1.63575
1.65184
1.66331
1.67941
1.57088
1.61157
1.6483
1.68088
1.70909
1.73288
1.75233
1.76747
1.77926
1.7953
1.71221
1.75296
1.78805
1.81741
1.84244
1.86393
1.88233
1.89774
1.91079
1.92671
1.88336
1.91522
1.94214
1.96445
1.98447
2.00312
2.02081
2.03754
2.05241
2.06811
2.06932
2.08648
2.10353
2.12018
2.13625
2.15096
2.16484
2.17929
2.1945
2.2118
2.25267
2.26255
2.27569
2.28666
2.29606
2.30571
2.31629
2.32644
2.33571
2.36138
2.47041
2.4647
2.45175
2.4375
2.43118
2.43687
2.455
2.48352
2.51728
2.5536
2.77325
2.6373
2.55776
2.51518
2.49784
2.50184
2.52926
2.58711
2.69476
2.87318
1.21291
1.20661
1.19888
1.18777
1.17421
1.16158
1.1512
1.14322
1.13754
1.13427
1.134
1.1369
1.1422
1.1496
1.15918
1.17103
1.18461
1.19755
1.20655
1.21409
1.12196
1.12788
1.13595
1.14209
1.14517
1.14468
1.14161
1.13765
1.13411
1.13189
1.13184
1.13417
1.13799
1.14248
1.14662
1.14889
1.14784
1.14321
1.13617
1.12834
1.11517
1.11754
1.12082
1.1236
1.12606
1.12827
1.12948
1.12937
1.12848
1.12775
1.12805
1.12956
1.13142
1.1327
1.13267
1.13123
1.1291
1.12675
1.12378
1.12077
1.11033
1.11142
1.11335
1.1157
1.11758
1.11901
1.12025
1.12129
1.12195
1.12241
1.12307
1.12392
1.12447
1.12442
1.12384
1.12296
1.12166
1.11971
1.11762
1.11614
1.10524
1.10588
1.10701
1.10879
1.11065
1.11227
1.11356
1.11468
1.11573
1.11673
1.11764
1.11828
1.11852
1.1184
1.11792
1.11699
1.1156
1.11402
1.1127
1.1119
1.10024
1.10068
1.10147
1.10279
1.10434
1.10594
1.10746
1.10882
1.11006
1.11126
1.11237
1.11312
1.11342
1.11328
1.11269
1.11175
1.11064
1.10953
1.10865
1.10812
1.0953
1.09563
1.09625
1.09734
1.09867
1.10011
1.10164
1.10319
1.10468
1.10612
1.10745
1.10837
1.10875
1.10863
1.10812
1.10741
1.10662
1.10581
1.10517
1.10478
1.0904
1.09066
1.09116
1.09209
1.09331
1.09466
1.09615
1.09777
1.09947
1.10119
1.1028
1.10394
1.10447
1.10452
1.10425
1.1038
1.10324
1.10266
1.10221
1.10192
1.08547
1.08567
1.08609
1.08692
1.08806
1.08938
1.09087
1.09255
1.09441
1.09642
1.09837
1.09982
1.10063
1.10096
1.10096
1.10076
1.10042
1.10005
1.09974
1.09951
1.08042
1.08058
1.08094
1.0817
1.0828
1.08412
1.08565
1.08743
1.08949
1.09179
1.09415
1.09602
1.0972
1.09787
1.09817
1.09822
1.09813
1.09795
1.09776
1.09757
1.07514
1.07527
1.07559
1.07631
1.07741
1.07876
1.08038
1.08232
1.08462
1.08729
1.09014
1.09253
1.09417
1.09523
1.09586
1.0962
1.09635
1.09636
1.09627
1.09612
1.06955
1.06966
1.06995
1.07066
1.07178
1.07322
1.07497
1.07712
1.07974
1.08288
1.08633
1.08934
1.09152
1.09303
1.09405
1.09471
1.09512
1.09532
1.09533
1.0952
1.06354
1.06362
1.0639
1.06462
1.06581
1.06737
1.06932
1.07175
1.07478
1.07849
1.08267
1.08644
1.08926
1.0913
1.09276
1.0938
1.0945
1.09488
1.09498
1.09487
1.05699
1.05705
1.05732
1.05808
1.05937
1.0611
1.06331
1.06611
1.06965
1.07407
1.07914
1.08381
1.08739
1.09007
1.09204
1.0935
1.09453
1.09512
1.09529
1.09521
1.04975
1.04979
1.05007
1.05088
1.05231
1.05428
1.05681
1.06008
1.06426
1.06955
1.07569
1.08144
1.08593
1.08936
1.09194
1.09388
1.09529
1.09611
1.09637
1.09629
1.04165
1.04167
1.04196
1.04285
1.04446
1.04672
1.04968
1.05353
1.05851
1.06485
1.0723
1.07934
1.0849
1.0892
1.09251
1.09505
1.09688
1.09795
1.09828
1.09821
1.03244
1.03245
1.03276
1.03375
1.03561
1.03825
1.04173
1.04631
1.05227
1.05989
1.06891
1.07748
1.08432
1.08966
1.09382
1.09706
1.09939
1.10072
1.10113
1.10107
1.02185
1.02183
1.02218
1.02332
1.02547
1.02859
1.03274
1.03822
1.04539
1.0546
1.0655
1.07589
1.08422
1.09078
1.09594
1.09998
1.1029
1.10451
1.10499
1.10492
1.00948
1.00943
1.00983
1.01117
1.01371
1.01743
1.02243
1.02905
1.03773
1.04886
1.06202
1.07455
1.08461
1.09259
1.09893
1.1039
1.10746
1.10937
1.10991
1.10983
0.994808
0.994744
0.995228
0.996818
0.999844
1.00435
1.01045
1.01853
1.0291
1.0426
1.05845
1.07348
1.08554
1.09514
1.10283
1.10886
1.11312
1.1153
1.11588
1.11578
0.977115
0.977028
0.977641
0.979589
0.983276
0.988834
0.996366
1.00634
1.01932
1.03573
1.05479
1.07269
1.08702
1.09844
1.10763
1.11483
1.11982
1.12224
1.12283
1.1227
0.955348
0.955245
0.95607
0.958541
0.963158
0.970169
0.979664
0.992167
1.00824
1.02824
1.05108
1.07223
1.08907
1.1025
1.11333
1.12179
1.12746
1.13003
1.13057
1.13041
0.927915
0.927813
0.928998
0.932285
0.938324
0.94746
0.959754
0.975706
0.995779
1.02017
1.04738
1.07216
1.09172
1.10731
1.11987
1.1296
1.13582
1.13838
1.13883
1.13864
0.89223
0.892188
0.894028
0.898733
0.907168
0.919673
0.936107
0.956816
0.982028
1.01169
1.04387
1.07258
1.09501
1.11283
1.12717
1.13806
1.14455
1.14692
1.14721
1.14699
0.843699
0.843903
0.847202
0.854912
0.867836
0.885915
0.908533
0.935687
0.967301
1.0031
1.04074
1.07361
1.09898
1.11903
1.13508
1.14686
1.15321
1.15517
1.15529
1.15505
0.773704
0.775251
0.783329
0.798012
0.81927
0.846266
0.877629
0.912998
0.952167
0.9948
1.03824
1.07536
1.10367
1.12582
1.14333
1.15551
1.16123
1.1626
1.16257
1.16236
0.689984
0.692949
0.70874
0.734235
0.766967
0.804444
0.845232
0.889207
0.936291
0.986243
1.03616
1.07831
1.11027
1.13508
1.15397
1.16589
1.17067
1.17155
1.17147
1.17134
0.60392
0.611644
0.635443
0.671728
0.715506
0.763268
0.813475
0.866078
0.921073
0.978287
1.0346
1.08168
1.11717
1.14456
1.16467
1.17573
1.17906
1.1794
1.17931
1.17923
0.533117
0.543128
0.571974
0.615895
0.668308
0.724737
0.783403
0.844061
0.906554
0.970619
1.03287
1.08441
1.123
1.15245
1.17299
1.18299
1.18546
1.18563
1.18555
1.18551
0.474818
0.485615
0.518323
0.567886
0.626803
0.69012
0.755836
0.823506
0.892739
0.96308
1.0308
1.08643
1.12782
1.15898
1.17972
1.18881
1.19072
1.1908
1.19073
1.1907
0.425721
0.436921
0.47231
0.526256
0.590444
0.659432
0.731046
0.804726
0.879891
0.955881
1.02858
1.08799
1.13196
1.16462
1.1854
1.19366
1.19517
1.1952
1.19515
1.19513
0.383424
0.394809
0.432193
0.489643
0.55821
0.632032
0.70875
0.787692
0.868131
0.949218
1.02647
1.08932
1.13564
1.16959
1.19025
1.19779
1.19902
1.19901
1.19896
1.19895
0.346207
0.357663
0.396605
0.456948
0.52923
0.607235
0.68846
0.772126
0.857364
0.943121
1.02453
1.0905
1.13892
1.17396
1.19441
1.20134
1.20236
1.20232
1.20227
1.20226
0.312817
0.324296
0.364463
0.427295
0.502802
0.58448
0.669726
0.757693
0.847367
0.937492
1.02277
1.09158
1.14187
1.1778
1.19799
1.2044
1.20525
1.20518
1.20512
1.2051
0.282221
0.293737
0.334984
0.400016
0.47838
0.563321
0.652185
0.744097
0.837923
0.932197
1.02115
1.09256
1.1445
1.18114
1.20101
1.20697
1.20768
1.20756
1.20748
1.20746
0.253831
0.265387
0.30759
0.374598
0.455519
0.543395
0.635551
0.731105
0.828847
0.927126
1.01964
1.09349
1.14683
1.18399
1.20347
1.20902
1.20962
1.20946
1.20935
1.20932
0.227145
0.238755
0.281841
0.350647
0.43388
0.524419
0.619593
0.718531
0.819995
0.922192
1.01826
1.09445
1.14896
1.18637
1.20533
1.2105
1.21102
1.21082
1.2107
1.21066
0.201764
0.213509
0.257415
0.327879
0.413216
0.506174
0.604129
0.706232
0.811241
0.917316
1.01705
1.09558
1.15101
1.18832
1.20662
1.21144
1.21189
1.21169
1.21157
1.21151
0.177529
0.189424
0.234107
0.306087
0.393342
0.488513
0.589026
0.694085
0.802483
0.912403
1.01599
1.09703
1.1532
1.19001
1.20739
1.21186
1.21231
1.21214
1.21202
1.21196
0.154221
0.166316
0.211737
0.285142
0.374137
0.471318
0.574184
0.681998
0.793629
0.907364
1.01505
1.09899
1.15586
1.19165
1.20774
1.21186
1.2124
1.21229
1.21214
1.21205
0.131817
0.144092
0.190218
0.264958
0.355523
0.454521
0.559542
0.669911
0.784606
0.902093
1.01414
1.10155
1.15938
1.19371
1.20783
1.21129
1.21207
1.21214
1.21196
1.21181
0.110178
0.122686
0.169526
0.245487
0.337448
0.438079
0.545056
0.657783
0.775358
0.896502
1.01312
1.10474
1.16422
1.19689
1.2081
1.21002
1.21078
1.21141
1.21164
1.21154
0.0894325
0.102074
0.149616
0.226679
0.319889
0.421992
0.530713
0.645588
0.765847
0.890521
1.01186
1.10847
1.17071
1.20215
1.20968
1.20872
1.20858
1.20999
1.21178
1.21235
0.0693894
0.0822439
0.130465
0.208505
0.302823
0.406238
0.516532
0.633319
0.75605
0.884095
1.01017
1.11252
1.17898
1.2105
1.21462
1.20996
1.20762
1.20957
1.21384
1.21631
0.0501588
0.0632268
0.112043
0.190967
0.286284
0.390849
0.502535
0.621024
0.745971
0.877152
1.00793
1.11658
1.18887
1.22253
1.22475
1.21676
1.21178
1.21347
1.22006
1.22574
0.031639
0.0449176
0.0943694
0.174088
0.270268
0.375847
0.488759
0.608718
0.735631
0.869694
1.00497
1.12025
1.19988
1.23799
1.24045
1.23059
1.22296
1.22131
1.22187
1.21876
0.0139011
0.0273251
0.077343
0.157685
0.254545
0.360951
0.474879
0.596022
0.724631
0.861301
1.00093
1.12323
1.21196
1.2572
1.26214
1.25183
1.24158
1.23144
1.22031
1.22317
-0.00306152
0.0103455
0.0609303
0.141798
0.239104
0.346172
0.460898
0.582878
0.712879
0.85175
0.995416
1.12464
1.22387
1.27921
1.28815
1.27804
1.26331
1.24919
1.21332
1.17835
-0.0190832
-0.0058941
0.0451225
0.126551
0.223921
0.331478
0.446779
0.569378
0.700373
0.840956
0.988085
1.12363
1.23347
1.30171
1.31603
1.302
1.2805
1.24674
1.19428
1.14454
-0.0368765
-0.0203179
0.0300977
0.112418
0.209262
0.317105
0.432124
0.555534
0.687157
0.828943
0.978686
1.11939
1.23797
1.32242
1.34366
1.32145
1.2758
1.21369
1.14404
1.08594
-0.0247085
0.00076056
0.0559829
0.142211
0.24624
0.357443
0.478606
0.606176
0.742936
0.892487
1.04204
1.17568
1.28699
1.36006
1.34721
1.2545
1.1857
1.11148
1.04137
0.99716
-0.0377361
-0.029631
0.012829
0.0894456
0.186514
0.293671
0.409322
0.532944
0.664953
0.807518
0.959151
1.10437
1.22887
1.32069
1.35375
1.29871
1.16961
1.07912
1.01252
0.93709
-0.0578731
-0.0469834
-0.000922899
0.0771491
0.174891
0.281639
0.396405
0.519362
0.651029
0.793316
0.945241
1.09171
1.21541
1.2946
1.29455
1.17296
1.02619
0.930567
0.857973
0.779825
-0.0799555
-0.0679037
-0.0186704
0.060392
0.158125
0.265184
0.380227
0.503281
0.63459
0.776314
0.926883
1.07077
1.1852
1.24829
1.20461
1.03931
0.88475
0.774752
0.688252
0.578138
-0.101389
-0.0893466
-0.0384917
0.0417148
0.139489
0.246727
0.361814
0.484566
0.615176
0.755655
0.903628
1.04228
1.14583
1.18275
1.09026
0.897613
0.723593
0.587242
0.476658
0.333246
-0.122491
-0.110543
-0.0587079
0.0224993
0.120602
0.227877
0.342672
0.46475
0.594275
0.732874
0.877205
1.00889
1.10193
1.09659
0.955114
0.751707
0.55408
0.381874
0.236177
-0.00627435
-0.143718
-0.131971
-0.0795962
0.00224126
0.100629
0.207937
0.322366
0.443661
0.571837
0.708033
0.847832
0.969705
1.0472
1.01051
0.821869
0.611432
0.401739
0.220853
0.0529617
-0.193273
-0.165636
-0.154083
-0.101539
-0.0193656
0.079183
0.186474
0.300519
0.420972
0.547593
0.680914
0.815455
0.92544
0.98451
0.915017
0.699904
0.484532
0.279343
0.107529
0.0219755
-0.0247698
-0.188943
-0.17752
-0.124886
-0.0426172
0.0558547
0.16291