/*--------------------------------*- C++ -*----------------------------------*\
  =========                 |
  \\      /  F ield         | OpenFOAM: The Open Source CFD Toolbox
   \\    /   O peration     | Website:  https://openfoam.org
    \\  /    A nd           | Version:  6
     \\/     M anipulation  |
\*---------------------------------------------------------------------------*/
FoamFile
{
    version     2.0;
    format      ascii;
    class       surfaceScalarField;
    location    "38.8";
    object      phi;
}
// * * * * * * * * * * * * * * * * * * * * * * * * * * * * * * * * * * * * * //

dimensions      [0 3 -1 0 0 0 0];

internalField   nonuniform List<scalar> 
17370
(
-0.0900015
0.0898506
0.289162
-0.0714644
0.0537545
0.364485
-0.0381214
0.0276923
0.426597
-0.0196395
0.0146046
0.504287
-0.0107597
0.00826664
0.601895
-0.00626559
0.00489156
0.720432
-0.0037354
0.00290459
0.863737
-0.00217353
0.0016212
1.036
-0.00110855
0.000697851
1.24291
-0.000291916
-9.63062e-05
1.49158
0.000471464
-0.000875828
1.4916
0.00127081
-0.00176184
1.24318
0.00229637
-0.0030127
1.03635
0.00383536
-0.00498658
0.864058
0.00635626
-0.00835075
0.721052
0.0108365
-0.0146731
0.603051
0.0197013
-0.0277475
0.507485
0.038171
-0.0537964
0.431793
0.0714982
-0.0898729
0.36515
0.0900142
0.198997
-0.12813
0.0882156
0.039914
-0.364592
0.353365
-0.074685
0.0859118
-0.446473
0.454311
-0.0844131
0.0765748
-0.521186
0.529894
-0.0684802
0.0597718
-0.612782
0.621561
-0.0515846
0.0428055
-0.726888
0.734152
-0.0353461
0.0280818
-0.86747
0.872566
-0.0224921
0.0173965
-1.03847
1.0419
-0.0136061
0.0101739
-1.24459
1.24702
-0.00757277
0.00514694
-1.49263
1.4946
-0.00320655
0.00124016
-1.4925
1.49422
0.000435648
-0.00215003
-1.24398
1.24586
0.00404796
-0.00593015
-1.03751
1.04005
0.00829299
-0.0108364
-0.8661
0.869846
0.0142107
-0.0179567
-0.724395
0.729948
0.0230109
-0.0285638
-0.608705
0.616124
0.035786
-0.0432047
-0.514904
0.523053
0.0519389
-0.0600876
-0.439861
0.447925
0.0687563
-0.0768203
-0.375301
0.376752
0.0846265
-0.086078
-0.257339
0.222499
0.0747985
-0.0399587
-0.0684994
0.0586683
0.00983107
-0.0518453
0.0584406
-0.374107
0.367512
-0.0575332
0.0537875
-0.453581
0.457326
-0.0487012
0.0447525
-0.527928
0.531876
-0.0409156
0.03728
-0.62154
0.625176
-0.0331852
0.0291241
-0.735326
0.739387
-0.0245792
0.0204459
-0.874318
0.878451
-0.016129
0.0124567
-1.04347
1.04714
-0.00874159
0.00558277
-1.24854
1.2517
-0.00226368
-0.000813917
-1.49665
1.49973
0.00386663
-0.00712447
-1.49721
1.50047
0.0101999
-0.0138053
-1.25009
1.2537
0.0173732
-0.0215807
-1.04595
1.05015
0.025625
-0.0300856
-0.877783
0.882244
0.0340756
-0.0380922
-0.739923
0.743939
0.0416549
-0.0454126
-0.626799
0.630556
0.0492945
-0.0543175
-0.534831
0.539854
0.057999
-0.0588256
-0.457496
0.458322
0.0521396
-0.0319624
-0.335787
0.31561
0.00987989
-0.0683714
0.0584915
-0.0529107
0.0489089
0.00400178
-0.033207
0.0437722
-0.358061
0.347496
-0.0474859
0.0468684
-0.459252
0.45987
-0.0438193
0.0404699
-0.535765
0.539115
-0.0367009
0.0334038
-0.628486
0.631784
-0.0299814
0.0269727
-0.742605
0.745613
-0.0237462
0.020668
-0.881962
0.885041
-0.0171645
0.0138064
-1.05071
1.05407
-0.0100384
0.00652352
-1.25512
1.25863
-0.002586
-0.00118286
-1.50322
1.50699
0.00492591
-0.00878859
-1.50414
1.508
0.0121978
-0.015822
-1.25745
1.26107
0.0190359
-0.0223814
-1.05396
1.05731
0.0253279
-0.0284266
-0.885745
0.888843
0.0313284
-0.0346377
-0.747216
0.750526
0.0378316
-0.0414896
-0.634363
0.638021
0.0447444
-0.0476887
-0.544182
0.547126
0.0481991
-0.0443364
-0.456631
0.452769
0.0335965
-0.0161846
-0.29628
0.278868
0.00406074
-0.0526828
0.048622
-0.0458229
0.0433203
0.00250256
-0.0228583
0.0332636
-0.336778
0.326373
-0.0391087
0.0401424
-0.459532
0.458499
-0.0389684
0.0366949
-0.54181
0.544083
-0.0340425
0.031463
-0.634805
0.637384
-0.0284236
0.0255533
-0.748641
0.751512
-0.0223273
0.0193691
-0.887991
0.890949
-0.0161016
0.0130339
-1.05719
1.06026
-0.00954254
0.00616357
-1.26207
1.26545
-0.00222894
-0.00163282
-1.51085
1.51471
0.00546033
-0.00928971
-1.51189
1.51572
0.0125257
-0.0158249
-1.26453
1.26783
0.0186982
-0.0217515
-1.06043
1.06348
0.024527
-0.0275732
-0.891913
0.89496
0.030295
-0.0331809
-0.753743
0.756629
0.0356221
-0.0381276
-0.641106
0.643611
0.0402753
-0.0412885
-0.548952
0.549965
0.0400918
-0.034012
-0.447523
0.441444
0.0233538
-0.0101884
-0.263695
0.25053
0.00257464
-0.0454727
0.0428981
-0.0412365
0.0394608
0.00177575
-0.0168086
0.0260951
-0.316487
0.3072
-0.0327358
0.0348985
-0.456873
0.454711
-0.0344926
0.0328306
-0.546038
0.5477
-0.030656
0.0285722
-0.639663
0.641747
-0.0261664
0.0238079
-0.754135
0.756493
-0.0210065
0.0182721
-0.893812
0.896546
-0.0150948
0.0120761
-1.06326
1.06628
-0.00863566
0.00535174
-1.26874
1.27203
-0.00155349
-0.00215448
-1.51849
1.5222
0.00581711
-0.00947795
-1.51947
1.52314
0.0125787
-0.0157726
-1.27109
1.27428
0.0185422
-0.0214387
-1.06651
1.0694
0.0239288
-0.0264891
-0.89779
0.90035
0.0286511
-0.030859
-0.759104
0.761312
0.0327697
-0.0347602
-0.645798
0.647788
0.0362444
-0.0364348
-0.55052
0.55071
0.0340249
-0.0270456
-0.434836
0.427857
0.0174222
-0.00734691
-0.239061
0.228985
0.0018633
-0.0407367
0.0388734
-0.0379292
0.0365908
0.00133838
-0.0128513
0.0208353
-0.298568
0.290584
-0.0276288
0.0305882
-0.452112
0.449153
-0.030829
0.0297441
-0.549098
0.550183
-0.0277869
0.0259092
-0.643746
0.645624
-0.023758
0.0216679
-0.758701
0.760791
-0.0192024
0.0167583
-0.899089
0.901533
-0.0138555
0.0110171
-1.06917
1.07201
-0.00770594
0.00451686
-1.27524
1.27843
-0.000823507
-0.00276346
-1.52582
1.5294
0.00629188
-0.00981331
-1.52673
1.53025
0.0127717
-0.0157722
-1.27744
1.28044
0.0182998
-0.0208536
-1.07216
1.07472
0.0229932
-0.0251552
-0.902665
0.904827
0.0269964
-0.0288958
-0.763318
0.765217
0.0305544
-0.0322884
-0.649641
0.651375
0.033118
-0.0325808
-0.550545
0.550008
0.0292714
-0.0220178
-0.420684
0.413431
0.0136037
-0.00566522
-0.220083
0.212144
0.00144478
-0.0372475
0.0358027
-0.0354201
0.034386
0.00103404
-0.0100566
0.0168111
-0.283239
0.276485
-0.0233404
0.0267503
-0.445943
0.442534
-0.0275615
0.0268847
-0.551042
0.551719
-0.0251496
0.0233943
-0.647472
0.649227
-0.0213738
0.0194207
-0.762825
0.764778
-0.0171335
0.0148886
-0.90382
0.906065
-0.0122397
0.00963217
-1.07466
1.07727
-0.00655278
0.00352826
-1.2815
1.28452
3.06058e-05
-0.00351089
-1.53293
1.53641
0.00691879
-0.0102615
-1.53371
1.53705
0.0129949
-0.0156912
-1.28331
1.28601
0.0179142
-0.0201264
-1.0771
1.07931
0.0219838
-0.0238774
-0.906836
0.908729
0.0255078
-0.0272133
-0.766993
0.768699
0.028707
-0.0301526
-0.652982
0.654427
0.0305172
-0.0292887
-0.549142
0.547914
0.0253987
-0.018267
-0.40622
0.399089
0.0109748
-0.00453995
-0.205031
0.198596
0.00116296
-0.0345176
0.0333547
-0.033477
0.032669
0.000807948
-0.00798109
0.0136625
-0.270294
0.264613
-0.0197133
0.0233368
-0.439005
0.435381
-0.0246512
0.0242461
-0.552295
0.552701
-0.0228023
0.0211762
-0.650972
0.652598
-0.0192661
0.0174015
-0.766692
0.768557
-0.0151962
0.0130213
-0.908204
0.910379
-0.0104592
0.00795536
-1.07975
1.08225
-0.00502606
0.00217407
-1.28741
1.29026
0.00115576
-0.00439298
-1.53975
1.54298
0.00754603
-0.0106203
-1.54027
1.54334
0.0131266
-0.0155927
-1.28861
1.29108
0.0176304
-0.0196643
-1.08144
1.08348
0.0213649
-0.0230782
-0.910529
0.912242
0.0245339
-0.0260445
-0.770292
0.771803
0.0273333
-0.0283899
-0.655669
0.656726
0.0283799
-0.026507
-0.546378
0.544505
0.0222557
-0.0154423
-0.392115
0.385302
0.009098
-0.00374741
-0.192756
0.187405
0.000963716
-0.0323058
0.0313421
-0.0319594
0.0313279
0.000631473
-0.0063701
0.0111277
-0.259422
0.254664
-0.0165799
0.0201989
-0.431756
0.428137
-0.0218408
0.0216758
-0.553008
0.553173
-0.0204896
0.0189454
-0.654216
0.65576
-0.0171141
0.015319
-0.770397
0.772192
-0.0131973
0.0111074
-0.912452
0.914542
-0.00864901
0.00625364
-1.08462
1.08702
-0.00345703
0.000737276
-1.29299
1.29571
0.0024298
-0.00549514
-1.54611
1.54917
0.00845168
-0.0112934
-1.5463
1.54914
0.0135807
-0.0158034
-1.29346
1.29568
0.0176195
-0.0194145
-1.08543
1.08723
0.0209083
-0.0224193
-0.913869
0.91538
0.0237123
-0.025052
-0.773201
0.774541
0.0262041
-0.0268791
-0.657571
0.658246
0.0265183
-0.0241363
-0.542389
0.540007
0.0197051
-0.013299
-0.378701
0.372295
0.00772919
-0.0031771
-0.182494
0.177942
0.000821158
-0.0304619
0.0296407
-0.0307777
0.0302885
0.000489179
-0.00507103
0.0090317
-0.250334
0.246373
-0.0138477
0.0173234
-0.424607
0.421132
-0.0191541
0.0191759
-0.5533
0.553278
-0.0181695
0.0166477
-0.657362
0.658884
-0.0148419
0.0130844
-0.773955
0.775712
-0.0110249
0.00901015
-0.916488
0.918503
-0.00664382
0.00433605
-1.08927
1.09158
-0.00164276
-0.000960124
-1.29831
1.30092
0.00396235
-0.00683083
-1.55211
1.55497
0.00957095
-0.0121877
-1.55188
1.5545
0.0142732
-0.0162762
-1.29783
1.29983
0.01789
-0.0194589
-1.08892
1.09049
0.0207461
-0.0220436
-0.916779
0.918076
0.0231662
-0.0243542
-0.775798
0.776986
0.025351
-0.0257033
-0.658739
0.659091
0.0249934
-0.0222014
-0.537452
0.53466
0.0176925
-0.0116903
-0.366115
0.360113
0.00673238
-0.00276915
-0.173722
0.169758
0.000720986
-0.0288845
0.0281635
-0.0298693
0.0295018
0.000367521
-0.00396999
0.00721955
-0.242797
0.239547
-0.0113731
0.0145909
-0.417807
0.41459
-0.0165098
0.016741
-0.553212
0.55298
-0.015885
0.0144989
-0.660413
0.661799
-0.0127276
0.010962
-0.777455
0.77922
-0.00887178
0.00683125
-0.920419
0.922459
-0.00446166
0.00218645
-1.09377
1.09604
0.000428866
-0.00292247
-1.30339
1.30588
0.00576922
-0.0084617
-1.5577
1.5604
0.0109955
-0.0133652
-1.55699
1.55936
0.0152177
-0.0169806
-1.30177
1.30353
0.0183962
-0.0197756
-1.09201
1.09339
0.0209151
-0.0220654
-0.919331
0.920481
0.0230535
-0.0240681
-0.778067
0.779082
0.024789
-0.0248384
-0.65928
0.65933
0.0237419
-0.0205976
-0.531713
0.528568
0.016083
-0.0104656
-0.354332
0.348715
0.00599592
-0.00247384
-0.16605
0.162528
0.000650085
-0.0274919
0.0268418
-0.0291975
0.0289399
0.000257567
-0.00299328
0.00559453
-0.236649
0.234048
-0.0090786
0.0119355
-0.41159
0.408733
-0.0137797
0.0140825
-0.552785
0.552482
-0.0132723
0.0119442
-0.663225
0.664553
-0.0101822
0.00842143
-0.780947
0.782708
-0.0063486
0.00433868
-0.924363
0.926373
-0.0020161
-0.000206337
-1.09818
1.1004
0.00275553
-0.00517915
-1.30827
1.31069
0.0079243
-0.0104835
-1.56298
1.56554
0.0128526
-0.0150215
-1.56162
1.56379
0.0166745
-0.0181988
-1.30522
1.30674
0.0193935
-0.0205373
-1.0947
1.09585
0.021462
-0.022384
-0.921551
0.922473
0.0231663
-0.0239587
-0.77997
0.780763
0.0244301
-0.0242182
-0.65922
0.659008
0.0227537
-0.019335
-0.52532
0.521901
0.0148545
-0.00956769
-0.343302
0.338015
0.00547301
-0.00227198
-0.159202
0.156001
0.000604501
-0.0262308
0.0256263
-0.0287408
0.0285892
0.000151552
-0.00207312
0.00405561
-0.231781
0.229799
-0.00685806
0.00929102
-0.40613
0.403697
-0.0109785
0.0113007
-0.552271
0.551949
-0.0105181
0.0092046
-0.665973
0.667287
-0.00740541
0.0056024
-0.784434
0.786237
-0.00349865
0.00147322
-0.928238
0.930263
0.000857668
-0.00308044
-1.1025
1.10472
0.00560413
-0.00796598
-1.313
1.31536
0.0105739
-0.0129362
-1.56795
1.57031
0.0150643
-0.0169753
-1.56583
1.56774
0.0183906
-0.0196505
-1.30819
1.30945
0.0206039
-0.0214818
-1.09689
1.09776
0.0221806
-0.0228847
-0.923306
0.92401
0.0235099
-0.0241574
-0.781502
0.78215
0.0243426
-0.0238631
-0.658592
0.658113
0.0220685
-0.0183972
-0.518413
0.514742
0.0139451
-0.00892386
-0.332916
0.327895
0.00511191
-0.00214024
-0.152956
0.149984
0.000577572
-0.025055
0.0244774
-0.0284943
0.0284494
4.49189e-05
-0.00116008
0.0025261
-0.228146
0.22678
-0.00461797
0.00655234
-0.401559
0.399624
-0.00798689
0.00828069
-0.551762
0.551468
-0.00754245
0.00627582
-0.668688
0.669954
-0.0044601
0.00260158
-0.787997
0.789855
-0.000405139
-0.00170931
-0.932168
0.934283
0.00412219
-0.00638441
-1.10683
1.10909
0.00890852
-0.0112263
-1.3176
1.31992
0.0137481
-0.0159833
-1.57254
1.57478
0.0179374
-0.0195954
-1.5695
1.57116
0.0207666
-0.0217701
-1.31064
1.31164
0.0224991
-0.0231437
-1.09859
1.09923
0.0236216
-0.0240705
-0.924645
0.925094
0.0244503
-0.0248262
-0.782644
0.78302
0.0246786
-0.0238361
-0.657333
0.65649
0.021655
-0.0177261
-0.511011
0.507082
0.0132957
-0.00848573
-0.323044
0.318234
0.00488264
-0.0020676
-0.147135
0.14432
0.000567732
-0.0239254
0.0233577
-0.028462
0.0285277
-6.5772e-05
-0.000203461
0.000940316
-0.225744
0.225008
-0.00228673
0.00364253
-0.398038
0.396682
-0.00468714
0.00482457
-0.551403
0.551265
-0.00403104
0.00272771
-0.671347
0.67265
-0.000852164
-0.0010878
-0.791657
0.793597
0.00337614
-0.00556078
-0.93626
0.938445
0.00802919
-0.0103246
-1.11123
1.11353
0.0128621
-0.0151602
-1.32212
1.32442
0.017608
-0.0197131
-1.57688
1.57899
0.0214585
-0.0228571
-1.57268
1.57408
0.0237466
-0.0244151
-1.31253
1.3132
0.0248316
-0.0251327
-1.09977
1.10007
0.0253133
-0.025474
-0.925475
0.925636
0.0256448
-0.0257443
-0.783138
0.783238
0.0253397
-0.0240373
-0.655287
0.653985
0.0214936
-0.0173473
-0.503163
0.499017
0.0129245
-0.00825454
-0.313588
0.308918
0.004781
-0.00204936
-0.141603
0.138872
0.000571668
-0.0228133
0.0222416
-0.0286586
0.0288615
-0.000202984
0.000781565
-0.00073965
-0.224605
0.224563
0.000198243
0.000510399
-0.395709
0.395
-0.001069
0.000951658
-0.551462
0.551579
-1.65229e-06
-0.001434
-0.674172
0.675608
0.00343645
-0.00548397
-0.795478
0.797525
0.00786958
-0.0101332
-0.940451
0.942714
0.0126886
-0.0150582
-1.11568
1.11805
0.0176535
-0.0199623
-1.32661
1.32892
0.0223413
-0.0242907
-1.58094
1.58289
0.0258087
-0.0269128
-1.57531
1.57641
0.027512
-0.0278204
-1.31374
1.31405
0.0278958
-0.0278266
-1.10025
1.10018
0.0276783
-0.0275077
-0.925691
0.925521
0.0273941
-0.0271557
-0.782997
0.782758
0.0264533
-0.0246745
-0.652417
0.650638
0.0217512
-0.0173341
-0.494899
0.490482
0.0128516
-0.00823539
-0.304381
0.299765
0.00481207
-0.00209162
-0.136208
0.133487
0.000593639
-0.0216867
0.0210931
-0.029129
0.0294659
-0.000336927
0.00188506
-0.00250832
-0.224816
0.225439
0.00286141
-0.00290506
-0.39471
0.394754
0.00294017
-0.0033658
-0.552119
0.552545
0.00443655
-0.00597509
-0.677279
0.678817
0.00812024
-0.010341
-0.799518
0.801739
0.0129579
-0.0154442
-0.944848
0.947334
0.0182279
-0.0207666
-1.12031
1.12285
0.0234805
-0.0258236
-1.33111
1.33345
0.0281439
-0.0299252
-1.58466
1.58644
0.0311897
-0.0319412
-1.5773
1.57805
0.032207
-0.0321397
-1.31422
1.31416
0.0318702
-0.0314435
-1.09996
1.09954
0.0309767
-0.0304425
-0.925186
0.924652
0.0299736
-0.029266
-0.782097
0.781389
0.0281299
-0.0257714
-0.648662
0.646303
0.02239
-0.0176565
-0.486103
0.48137
0.013064
-0.00841764
-0.295267
0.290621
0.00496458
-0.00218571
-0.130813
0.128034
0.000629601
-0.0205133
0.0198837
-0.0298852
0.0303997
-0.000514473
0.00314409
-0.00455567
-0.226473
0.227885
0.00584247
-0.00674056
-0.395223
0.396121
0.0075392
-0.00841017
-0.553502
0.554373
0.00973802
-0.0114613
-0.680633
0.682356
0.0138256
-0.0162793
-0.803908
0.806362
0.0191683
-0.0218893
-0.949684
0.952405
0.0248995
-0.0276088
-1.12526
1.12797
0.0304682
-0.0328854
-1.33568
1.33809
0.0352059
-0.03688
-1.58807
1.58975
0.0379033
-0.0382811
-1.57857
1.57895
0.0381499
-0.0376273
-1.31389
1.31337
0.0369394
-0.0360605
-1.09888
1.098
0.0351981
-0.0342389
-0.923862
0.922903
0.0333812
-0.0321103
-0.780195
0.778924
0.0304074
-0.0274198
-0.643798
0.640811
0.0235603
-0.0184547
-0.476711
0.471606
0.0136521
-0.00884725
-0.28606
0.281255
0.00525933
-0.00233653
-0.125275
0.122352
0.000678955
-0.0192664
0.0185875
-0.0310104
0.0317529
-0.000742509
0.00467319
-0.00697113
-0.22975
0.232048
0.00930413
-0.0111084
-0.397449
0.399253
0.0127726
-0.0142444
-0.555947
0.557419
0.0160427
-0.0181197
-0.684475
0.686552
0.0208539
-0.02363
-0.808763
0.811539
0.0268523
-0.0298615
-0.954972
0.957981
0.0331661
-0.0361089
-1.13056
1.1335
0.0391533
-0.0416461
-1.34037
1.34286
0.0438967
-0.0453432
-1.59121
1.59265
0.0460081
-0.0459401
-1.57905
1.57898
0.0453566
-0.044339
-1.31258
1.31156
0.0431607
-0.0417446
-1.0968
1.09539
0.0404144
-0.0389744
-0.921606
0.920166
0.0376915
-0.0358784
-0.777157
0.775344
0.03361
-0.029956
-0.63774
0.634086
0.0255198
-0.0198943
-0.466569
0.460943
0.0147327
-0.00960205
-0.276491
0.27136
0.00574028
-0.00255952
-0.119412
0.116231
0.000744288
-0.0179187
0.0171744
-0.0325858
0.0336165
-0.00103077
0.00652005
-0.009854
-0.234819
0.238153
0.0133932
-0.016217
-0.401629
0.404453
0.0188206
-0.0209569
-0.559739
0.561876
0.023313
-0.0258361
-0.689114
0.691637
0.0290552
-0.0322705
-0.814274
0.81749
0.0359664
-0.0393872
-0.960861
0.964282
0.0431078
-0.0463733
-1.13634
1.1396
0.0496778
-0.0522887
-1.34521
1.34782
0.054508
-0.0557495
-1.59385
1.59509
0.0560505
-0.0554796
-1.57859
1.57801
0.0543742
-0.052736
-1.31017
1.30853
0.0510175
-0.0490312
-1.09358
1.09159
0.0471895
-0.045213
-0.918297
0.91632
0.0434088
-0.040986
-0.773013
0.77059
0.038047
-0.0335983
-0.630362
0.625913
0.0284603
-0.0221602
-0.45539
0.44909
0.0164611
-0.0107813
-0.266212
0.260532
0.00645997
-0.00287405
-0.112982
0.109396
0.000829774
-0.0164376
0.0156078
-0.0347211
0.0361341
-0.00141298
0.00886807
-0.0134506
-0.241934
0.246516
0.0183863
-0.0223671
-0.408016
0.411996
0.0260199
-0.0289284
-0.565093
0.568001
0.0319771
-0.0350872
-0.694745
0.697855
0.0389689
-0.0427862
-0.820683
0.8245
0.0471337
-0.0511123
-0.967613
0.971591
0.0553728
-0.0590307
-1.14278
1.14644
0.0626249
-0.0653472
-1.35027
1.35299
0.0674979
-0.0684617
-1.59605
1.59701
0.068314
-0.0671178
-1.57705
1.57585
0.0653879
-0.0630695
-1.30646
1.30414
0.060753
-0.058134
-1.08908
1.08646
0.0557445
-0.0531759
-0.913802
0.911234
0.0507372
-0.0476223
-0.767673
0.764558
0.0439103
-0.0385587
-0.621405
0.616053
0.0325956
-0.0254165
-0.442862
0.435683
0.0189293
-0.0124163
-0.254751
0.248238
0.00742648
-0.00328356
-0.105686
0.101543
0.000938143
-0.0147798
0.0138417
-0.0375922
0.0395539
-0.00196168
0.0120961
-0.0182631
-0.251489
0.257656
0.0248508
-0.0301701
-0.417033
0.422353
0.0350673
-0.0389911
-0.572355
0.576279
0.042998
-0.0469523
-0.7017
0.705654
0.0517624
-0.0563744
-0.828308
0.83292
0.0615159
-0.0661262
-0.975491
0.980101
0.070945
-0.0749636
-1.14997
1.15399
0.0787601
-0.0814624
-1.35548
1.35818
0.0833433
-0.0838245
-1.59758
1.59806
0.0830102
-0.0810146
-1.57415
1.57216
0.0785462
-0.0754179
-1.30129
1.29817
0.0723888
-0.0690517
-1.08322
1.07988
0.0660738
-0.0629109
-0.907968
0.904805
0.0597931
-0.0559179
-0.760911
0.757035
0.051373
-0.0449899
-0.61066
0.604277
0.0380069
-0.0296469
-0.428558
0.420198
0.0220644
-0.0144237
-0.241555
0.233915
0.00857714
-0.00375733
-0.0972422
0.0924224
0.00106028
-0.0129054
0.0118451
-0.0415059
0.0443166
-0.00281072
0.0168166
-0.025063
-0.264149
0.272395
0.0336568
-0.0405686
-0.429296
0.436208
0.0469942
-0.0522117
-0.582096
0.587313
0.0575784
-0.0627832
-0.710525
0.71573
0.0687974
-0.0743513
-0.837514
0.843068
0.0803487
-0.0855664
-0.984606
0.989824
0.0908469
-0.0950742
-1.1578
1.16202
0.0988381
-0.10126
-1.3605
1.36292
0.102536
-0.102196
-1.59796
1.59762
0.100413
-0.0973579
-1.56952
1.56646
0.0939557
-0.0898828
-1.29442
1.29035
0.0860686
-0.0819561
-1.07581
1.0717
0.0783557
-0.0745791
-0.90082
0.897044
0.0708643
-0.0661661
-0.7525
0.747802
0.0606277
-0.0529439
-0.597809
0.590125
0.0446151
-0.0346905
-0.411836
0.401912
0.0256887
-0.0166521
-0.226078
0.217042
0.0098057
-0.0042434
-0.0874493
0.081887
0.00118054
-0.0107937
0.00961314
-0.0470102
0.0512732
-0.00426296
0.0242632
-0.0353853
-0.28102
0.292142
0.0466212
-0.0556769
-0.445814
0.454869
0.06393
-0.0706634
-0.594932
0.601666
0.0776906
-0.0843495
-0.721833
0.728492
0.0916453
-0.0981009
-0.84855
0.855006
0.10482
-0.110447
-0.994844
1.00047
0.1159
-0.120029
-1.16587
1.16999
0.123401
-0.125211
-1.36475
1.36656
0.125539
-0.124084
-1.5965
1.59504
0.121087
-0.116733
-1.56262
1.55827
0.112206
-0.106978
-1.28554
1.28032
0.102219
-0.0972203
-1.06677
1.06177
0.0929394
-0.0884497
-0.892167
0.887677
0.0840552
-0.0783441
-0.74225
0.736539
0.0715649
-0.0621886
-0.582208
0.572832
0.0521441
-0.0402903
-0.391941
0.380087
0.0295733
-0.0189218
-0.207877
0.197226
0.010985
-0.00467479
-0.076242
0.0699318
0.00127504
-0.00846144
0.0071864
-0.0551733
0.0624663
-0.00729295
0.0375335
-0.0530067
-0.304239
0.319712
0.0680183
-0.0798951
-0.468062
0.479939
0.0900287
-0.0981329
-0.611268
0.619372
0.106709
-0.114618
-0.735728
0.743637
0.122829
-0.129713
-0.86115
0.868034
0.136564
-0.142045
-1.00565
1.01113
0.147088
-0.150592
-1.17347
1.17697
0.153055
-0.153805
-1.36754
1.36829
0.152791
-0.149931
-1.59265
1.58979
0.145491
-0.139673
-1.55305
1.54723
0.133897
-0.127411
-1.27432
1.26784
0.121562
-0.11545
-1.05578
1.04967
0.11025
-0.1048
-0.881728
0.876278
0.0994629
-0.0922569
-0.729552
0.722346
0.0838205
-0.0723796
-0.562945
0.551504
0.0602675
-0.0461319
-0.368116
0.35398
0.0334885
-0.0211196
-0.186659
0.17429
0.0120533
-0.00501752
-0.0637342
0.0566984
0.0013233
-0.00597253
0.00464923
-0.0693139
0.0733179
-0.00400401
0.0283417
-0.0418129
-0.337795
0.351267
0.0552396
-0.0660352
-0.497213
0.508009
0.0756985
-0.084807
-0.63077
0.639878
0.0951903
-0.104526
-0.750971
0.760307
0.114866
-0.123997
-0.873956
0.883087
0.133632
-0.142082
-1.01569
1.02414
0.150733
-0.157897
-1.17941
1.18658
0.164632
-0.169474
-1.36786
1.37271
0.172918
-0.173873
-1.58568
1.58663
0.172224
-0.168478
-1.54029
1.53655
0.163685
-0.157473
-1.2605
1.25429
0.151492
-0.144279
-1.04254
1.03533
0.137801
-0.130538
-0.868944
0.861681
0.123382
-0.11378
-0.713461
0.703859
0.101807
-0.085907
-0.53923
0.523329
0.069524
-0.05089
-0.339495
0.320861
0.0352382
-0.0209832
-0.162316
0.148061
0.0112375
-0.00433281
-0.0502908
0.043386
0.000992455
-0.00342966
0.0024372
-0.0806331
0.0785591
0.00207405
0.00690916
-0.0154287
-0.367508
0.376027
0.0255552
-0.0333804
-0.523344
0.531169
0.0412078
-0.0489626
-0.651549
0.659304
0.0584422
-0.0671907
-0.769223
0.777971
0.0764993
-0.0849697
-0.891684
0.900155
0.0939156
-0.10143
-1.03234
1.03985
0.109286
-0.115399
-1.19353
1.19965
0.12103
-0.124673
-1.37713
1.38078
0.126475
-0.125874
-1.58646
1.58586
0.122657
-0.117276
-1.53158
1.5262
0.110839
-0.102952
-1.24713
1.23924
0.0955291
-0.087327
-1.0272
1.019
0.0799153
-0.071852
-0.852031
0.843968
0.0644158
-0.0558723
-0.690165
0.681621
0.046419
-0.0349563
-0.505149
0.493686
0.0245469
-0.0150344
-0.301749
0.292236
0.00866815
-0.00414406
-0.134314
0.129789
0.00164231
-0.000353583
-0.0368055
0.0355168
-5.99794e-05
-0.00115841
0.00121839
-0.0817831
0.0788899
0.00289322
-0.00175821
-0.00297124
-0.387505
0.392234
0.00956711
-0.0154362
-0.542798
0.548667
0.0215095
-0.0282721
-0.669329
0.676091
0.0365746
-0.0442289
-0.785827
0.793481
0.052595
-0.0600623
-0.907912
0.915379
0.0677019
-0.0744658
-1.04721
1.05398
0.0813132
-0.0867119
-1.20532
1.21072
0.0912118
-0.0938697
-1.3837
1.38636
0.0949921
-0.0937378
-1.58448
1.58323
0.0900676
-0.0844395
-1.52017
1.51454
0.0779948
-0.0703681
-1.23119
1.22357
0.0627766
-0.0545041
-1.01024
1.00197
0.0467414
-0.0379085
-0.834638
0.825806
0.029746
-0.0208575
-0.668678
0.65979
0.0127254
-0.00440443
-0.479949
0.471628
-0.00096836
0.00392543
-0.281617
0.278659
-0.00469607
0.00413298
-0.124014
0.124577
-0.0029997
0.00157604
-0.0336014
0.035025
-0.000569559
-0.000752895
0.00132245
-0.0804756
0.0776854
0.00279025
-0.00534947
0.00309078
-0.400649
0.402908
0.00110321
-0.00559942
-0.557593
0.562089
0.0109205
-0.0167116
-0.684138
0.68993
0.0239495
-0.0306568
-0.800593
0.807301
0.0379484
-0.0444502
-0.922379
0.928881
0.0514446
-0.05722
-1.06031
1.06609
0.0632475
-0.0675766
-1.21571
1.22004
0.0715059
-0.0738249
-1.38884
1.39116
0.0746627
-0.0732927
-1.58177
1.5804
0.0702028
-0.0654187
-1.5088
1.50401
0.0597754
-0.05258
-1.21609
1.2089
0.0454603
-0.0371728
-0.993187
0.9849
0.0286915
-0.019006
-0.81534
0.805654
0.0097407
-0.000613741
-0.646981
0.637854
-0.00625827
0.0113146
-0.461335
0.456278
-0.013149
0.0124552
-0.272871
0.273565
-0.0106039
0.0077077
-0.123802
0.126698
-0.00509693
0.00244472
-0.0356171
0.0382693
-0.000784182
-0.00134148
0.00212566
-0.0789537
0.0765171
0.00243659
-0.00645597
0.00573387
-0.409411
0.410133
-0.0026095
-0.000796658
-0.569607
0.573013
0.00518623
-0.0105234
-0.696813
0.70215
0.0167268
-0.0227402
-0.813398
0.819412
0.0291662
-0.0348889
-0.934986
0.940709
0.0409531
-0.0461581
-1.07174
1.07695
0.0513524
-0.0554559
-1.22427
1.22837
0.0590216
-0.0612021
-1.39326
1.39544
0.0621247
-0.0610737
-1.57916
1.5781
0.058463
-0.0540523
-1.49891
1.4945
0.0488759
-0.0421939
-1.20182
1.19514
0.0352459
-0.0267658
-0.976018
0.967538
0.0182943
-0.00860866
-0.794707
0.785022
1.37307e-06
0.00810653
-0.626425
0.618317
-0.0135402
0.0167956
-0.448513
0.445258
-0.0173321
0.01528
-0.270454
0.272506
-0.0123487
0.00880443
-0.127953
0.131497
-0.00568653
0.0026476
-0.0400362
0.0430752
-0.000823226
-0.00250071
0.00332394
-0.0775853
0.0755167
0.00206862
-0.00633573
0.00609553
-0.41536
0.415601
-0.00429772
0.00149683
-0.578978
0.581779
0.00279845
-0.00743024
-0.70775
0.712382
0.0128474
-0.0181396
-0.824697
0.829989
0.0239066
-0.0290668
-0.946113
0.951273
0.0346788
-0.0393296
-1.0819
1.08655
0.044138
-0.0480088
-1.23227
1.23614
0.0514027
-0.0535493
-1.39749
1.39964
0.0545435
-0.0540213
-1.57714
1.57662
0.051566
-0.047476
-1.48975
1.48566
0.0424148
-0.0358356
-1.18822
1.18165
0.0292441
-0.020927
-0.958745
0.950428
0.0129166
-0.00423161
-0.77487
0.766185
-0.0032687
0.0100364
-0.608925
0.602158
-0.0142513
0.0167269
-0.439269
0.436794
-0.0167663
0.0147222
-0.270669
0.272713
-0.0119431
0.00847464
-0.133301
0.136769
-0.0053872
0.00251699
-0.0450009
0.0478711
-0.000776905
-0.00373419
0.0045111
-0.0765778
0.0749788
0.00159891
-0.00542185
0.00550196
-0.419712
0.419631
-0.00403163
0.00194611
-0.587181
0.589267
0.00202994
-0.00622751
-0.717329
0.721527
0.0113665
-0.0159518
-0.834921
0.839506
0.0210445
-0.0256586
-0.956421
0.961035
0.0310497
-0.0353756
-1.09127
1.0956
0.0398138
-0.0436519
-1.23991
1.24375
0.0473887
-0.0495679
-1.4019
1.40408
0.0507858
-0.0502731
-1.57576
1.57525
0.0481906
-0.0439459
-1.4813
1.47705
0.0391637
-0.0329644
-1.17482
1.16862
0.0266085
-0.0191374
-0.942131
0.93466
0.0119457
-0.00421991
-0.757143
0.749417
-0.00193557
0.00775664
-0.594203
0.588382
-0.0114859
0.0133586
-0.431991
0.430118
-0.0135356
0.0121182
-0.271488
0.272905
-0.0098394
0.00695032
-0.138325
0.141214
-0.00440268
0.00207963
-0.0494446
0.0517677
-0.000660464
-0.00483596
0.00549642
-0.076091
0.0748561
0.00123486
-0.00427583
0.00447401
-0.423117
0.422919
-0.00312487
0.00118829
-0.594248
0.596185
0.00247477
-0.00621007
-0.725905
0.729641
0.0105957
-0.0149862
-0.844057
0.848448
0.0196952
-0.0244715
-0.965474
0.970251
0.0292019
-0.0334308
-1.10007
1.1043
0.0381187
-0.0418513
-1.24753
1.25127
0.0452481
-0.0479158
-1.40623
1.4089
0.0493342
-0.0490619
-1.57478
1.57451
0.0470266
-0.043213
-1.47291
1.46909
0.0386897
-0.032877
-1.16208
1.15627
0.0271312
-0.0204439
-0.927159
0.920471
0.014207
-0.0077951
-0.741806
0.735394
0.0023575
0.00249327
-0.581751
0.5769
-0.00566866
0.00767632
-0.425668
0.423661
-0.00825087
0.00744222
-0.271552
0.272361
-0.00608242
0.00425961
-0.141857
0.143679
-0.00271597
0.00130193
-0.0526807
0.0540948
-0.000435496
-0.00568138
0.00611688
-0.0761622
0.0751429
0.0010193
-0.00289814
0.00282148
-0.426158
0.426235
-0.00164805
-0.000266602
-0.600641
0.602556
0.00352232
-0.00705353
-0.733782
0.737314
0.0111924
-0.0151414
-0.852644
0.856593
0.019956
-0.0239721
-0.974472
0.978488
0.0287363
-0.0328762
-1.10873
1.11287
0.0375483
-0.0415506
-1.25503
1.25904
0.0453038
-0.0477848
-1.41136
1.41384
0.049505
-0.0495319
-1.57412
1.57415
0.0480163
-0.0444175
-1.46509
1.46149
0.0403026
-0.0349718
-1.15055
1.14522
0.0298131
-0.0238091
-0.913681
0.907677
0.0184285
-0.0127186
-0.728793
0.723083
0.00793888
-0.0034853
-0.571235
0.566782
0.000317598
0.00169259
-0.419442
0.417432
-0.00266356
0.00269549
-0.270356
0.270324
-0.00239771
0.00169281
-0.143348
0.144053
-0.00109653
0.000576302
-0.0541524
0.0546726
-0.000215352
-0.00610963
0.00632499
-0.0765465
0.0758498
0.000696668
-0.00165415
0.0010752
-0.429349
0.429928
-0.000101795
-0.00190809
-0.606195
0.608205
0.00479426
-0.00814333
-0.740981
0.74433
0.0120433
-0.0160793
-0.860414
0.86445
0.0202785
-0.0244856
-0.982737
0.986944
0.0292701
-0.0332658
-1.11747
1.12147
0.0381012
-0.0421135
-1.26288
1.2669
0.0459475
-0.0489418
-1.41674
1.41973
0.0510946
-0.0513281
-1.57417
1.57441
0.0499683
-0.0470247
-1.45802
1.45507
0.0434592
-0.0385787
-1.13977
1.13489
0.0338274
-0.0286052
-0.901665
0.896443
0.0234419
-0.0184357
-0.717123
0.712116
0.0140679
-0.0097764
-0.56179
0.557498
0.00669037
-0.00416714
-0.413128
0.410604
0.00268419
-0.00171068
-0.26786
0.266887
0.00110634
-0.000610165
-0.142734
0.142238
0.000186736
8.22702e-05
-0.0539987
0.0537297
-0.000112731
-0.0061009
0.00621363
-0.0773674
0.076838
0.000529384
-0.000593658
3.00402e-05
-0.43285
0.433413
0.00151756
-0.00336471
-0.611782
0.613629
0.0063918
-0.0095691
-0.747561
0.750739
0.0132659
-0.0168811
-0.868173
0.871788
0.0212109
-0.0251367
-0.991177
0.995103
0.0299165
-0.0343912
-1.12595
1.13042
0.0389126
-0.0432701
-1.27098
1.27534
0.0475227
-0.0505859
-1.42262
1.42568
0.0530593
-0.0539994
-1.57482
1.57576
0.0530429
-0.0506934
-1.45197
1.44962
0.0473554
-0.0429988
-1.13004
1.12568
0.0387603
-0.0338637
-0.890854
0.885957
0.0292433
-0.0245372
-0.706607
0.701901
0.0204208
-0.0161754
-0.552625
0.54838
0.0128743
-0.00999571
-0.406397
0.403518
0.00772708
-0.00582255
-0.263674
0.261769
0.0042001
-0.00259393
-0.139999
0.138393
0.00135072
-0.000411143
-0.0523175
0.0513779
1.29274e-05
-0.00576339
0.00575047
-0.0784861
0.0781408
0.000345257
0.00054089
-0.00134205
-0.436578
0.437379
0.00279582
-0.00493997
-0.616963
0.619107
0.00789057
-0.0108903
-0.753814
0.756813
0.0146399
-0.0180972
-0.875396
0.878854
0.022281
-0.0263503
-0.999524
1.00359
0.0310714
-0.0355356
-1.13478
1.13924
0.0402913
-0.0446774
-1.27964
1.28402
0.0490942
-0.0528667
-1.42903
1.4328
0.0557326
-0.0569318
-1.57662
1.57782
0.0566248
-0.0545892
-1.44714
1.4451
0.0518161
-0.0480216
-1.12125
1.11746
0.0439113
-0.0393317
-0.880792
0.876213
0.0349857
-0.0303519
-0.696793
0.692159
0.0264138
-0.0220888
-0.543827
0.539502
0.0186048
-0.0151036
-0.399062
0.39556
0.0122654
-0.00944125
-0.257755
0.254931
0.00683034
-0.00429949
-0.135219
0.132688
0.00236023
-0.000865607
-0.0493905
0.0478959
0.000145861
-0.00520582
0.00505996
-0.0798473
0.0796274
0.000219987