/*--------------------------------*- C++ -*----------------------------------*\
| =========                 |                                                 |
| \\      /  F ield         | OpenFOAM: The Open Source CFD Toolbox           |
|  \\    /   O peration     | Version:  2106                                  |
|   \\  /    A nd           | Website:  www.openfoam.com                      |
|    \\/     M anipulation  |                                                 |
\*---------------------------------------------------------------------------*/
FoamFile
{
    version     2.0;
    format      ascii;
    arch        "LSB;label=32;scalar=64";
    class       volScalarField;
    location    "5";
    object      T;
}
// * * * * * * * * * * * * * * * * * * * * * * * * * * * * * * * * * * * * * //

dimensions      [0 0 0 1 0 0 0];

internalField   nonuniform List<scalar> 
1000
(
0
0
0
0
0
0
0
0
0
0
0
0
0
0
0
0
0
0
0
0
0
0
0
0
0
0
0
0
0
0
0
0
0
0
0
0
0
0
0
0
0
0
0
0
0
0
0
0
0
0
0
0
0
0
0
0
0
0
0
0
0
0
0
0
0
0
0
0
0
0
0
0
0
0
0
0
0
0
0
0
0
0
0
0
0
0
0
0
0
0
0
0
0
0
0
0
0
0
0
0
0
0
0
0
0
0
0
0
0
0
0
0
0
0
0
0
0
0
0
0
0
0
0
0
0
0
0
0
0
0
0
0
0
0
0
0
0
0
0
0
0
0
0
0
0
0
0
0
0
0
0
0
0
0
0
0
0
0
0
0
0
0
0
0
0
0
0
0
0
0
0
0
0
0
0
0
0
0
0
0
0
0
0
0
0
0
0
0
0
0
0
0
0
0
0
0
0
0
0
0
0
0
0
0
0
0
0
0
0
0
0
0
0
0
0
0
0
0
0
0
0
0
0
0
0
0
0
0
0
0
0
0
0
0
0
0
0
0
0
0
0
0
0
0
0
0
0
0
0
0
0
0
0
0
0
0
0
0
0
0
0
0
0
0
0
0
0
0
0
0
0
0
0
0
0
0
0
0
0
0
0
0
0
0
0
0
0
0
0
0
0
0
0
0
0
0
0
0
0
0
0
0
0
0
0
0
0
0
0
0
0
0
0
0
0
0
0
0
0
0
0
0
0
0
0
0
0
0
0
0
0
0
0
0
0
0
0
0
0
0
0
0
0
0
0
0
0
0
0
0
0
0
0
0
0
0
0
0
0
0
0
0
0
0
0
0
0
0
0
0
0
0
0
0
0
0
0
0
0
0
0
0
0
0
0
0
0
0
0
0
0
0
0
0
0
0
0
0
0
0
0
0
0
0
0
0
0
0
0
0
0
0
0
0
0
0
0
0
0
0
0
0
0
0
0
0
0
0
0
0
0
0
0
0
0
0
0
0
0
0
0
0
0
0
0
0
0
0
0
0
9.00265e-89
1.50944e-86
1.26796e-84
7.11502e-83
3.00038e-81
1.01423e-79
2.86271e-78
6.93966e-77
1.47493e-75
2.79197e-74
4.76599e-73
7.41074e-72
1.05837e-70
1.398e-69
1.71808e-68
1.97456e-67
2.13165e-66
2.17012e-65
2.09061e-64
1.91174e-63
1.66399e-62
1.38206e-61
1.09784e-60
8.35766e-60
6.10922e-59
4.29531e-58
2.90941e-57
1.90133e-56
1.20046e-55
7.3321e-55
4.33725e-54
2.48764e-53
1.38484e-52
7.48979e-52
3.93912e-51
2.01633e-50
1.00533e-49
4.88624e-49
2.31674e-48
1.07229e-47
4.84807e-47
2.14247e-46
9.25988e-46
3.91641e-45
1.62179e-44
6.57883e-44
2.61556e-43
1.01963e-42
3.89928e-42
1.46343e-41
5.39243e-41
1.95163e-40
6.94026e-40
2.42593e-39
8.33791e-39
2.81878e-38
9.37635e-38
3.0698e-37
9.89519e-37
3.14125e-36
9.82358e-36
3.02722e-35
9.1948e-35
2.75344e-34
8.13113e-34
2.36851e-33
6.80688e-33
1.9305e-32
5.40424e-32
1.4936e-31
4.07627e-31
1.09876e-30
2.92579e-30
7.69776e-30
2.00146e-29
5.14362e-29
1.30679e-28
3.28273e-28
8.15501e-28
2.00376e-27
4.87044e-27
1.17127e-26
2.78727e-26
6.56443e-26
1.53029e-25
3.53156e-25
8.06932e-25
1.82576e-24
4.0911e-24
9.07994e-24
1.9963e-23
4.34832e-23
9.3847e-23
2.00712e-22
4.25432e-22
8.93796e-22
1.86142e-21
3.84323e-21
7.86751e-21
1.59703e-20
3.21488e-20
6.41854e-20
1.27107e-19
2.49692e-19
4.86612e-19
9.40896e-19
1.80518e-18
3.43681e-18
6.49361e-18
1.21772e-17
2.2666e-17
4.18797e-17
7.6819e-17
1.39895e-16
2.52953e-16
4.54162e-16
8.09749e-16
1.4338e-15
2.52147e-15
4.40435e-15
7.64184e-15
1.31714e-14
2.25536e-14
3.83686e-14
6.48544e-14
1.08927e-13
1.81798e-13
3.01528e-13
4.97025e-13
8.14266e-13
1.32592e-12
2.14613e-12
3.45307e-12
5.52322e-12
8.78293e-12
1.38858e-11
2.18277e-11
3.41175e-11
5.3027e-11
8.19582e-11
1.25975e-10
1.92572e-10
2.92781e-10
4.42744e-10
6.65952e-10
9.96404e-10
1.48303e-09
2.19586e-09
3.2346e-09
4.74043e-09
6.91217e-09
1.00284e-08
1.44771e-08
2.07965e-08
2.97284e-08
4.22907e-08
5.98726e-08
8.43604e-08
1.18302e-07
1.65123e-07
2.29405e-07
3.17243e-07
4.36711e-07
5.98444e-07
8.16389e-07
1.10874e-06
1.49914e-06
2.0181e-06
2.70491e-06
3.60981e-06
4.79683e-06
6.34713e-06
8.36312e-06
1.09734e-05
1.43388e-05
1.86593e-05
2.41827e-05
3.12144e-05
4.0129e-05
5.13844e-05
6.5537e-05
8.32603e-05
0.000105366
0.000132827
0.000166804
0.000208679
0.000260085
0.000322945
0.000399514
0.000492423
0.000604729
0.000739966
0.000902203
0.0010961
0.00132699
0.00160089
0.00192463
0.00230589
0.00275326
0.00327632
0.00388568
0.00459307
0.00541135
0.00635459
0.00743808
0.00867837
0.0100933
0.0117018
0.0135243
0.0155823
0.0178983
0.0204961
0.0234002
0.026636
0.0302297
0.0342079
0.0385974
0.0434251
0.048718
0.0545022
0.0608035
0.0676465
0.0750547
0.0830498
0.0916516
0.100878
0.110744
0.121261
0.13244
0.144287
0.156802
0.169986
0.183833
0.198334
0.213475
0.229238
0.245603
0.262544
0.28003
0.298028
0.316501
0.335409
0.354707
0.374349
0.394287
0.414468
0.434841
0.455352
0.475945
0.496566
0.517159
0.53767
0.558046
0.578233
0.598183
0.617845
0.637175
0.656128
0.674665
0.692749
0.710346
0.727426
0.743963
0.759934
0.77532
0.790106
0.80428
0.817835
0.830766
0.843071
0.854754
0.865818
0.876271
0.886124
0.895389
0.90408
0.912213
0.919805
0.926877
0.933447
0.939536
0.945166
0.950357
0.955132
0.959511
0.963515
0.967166
0.970483
0.973485
0.976191
0.978616
0.980777
0.982688
0.984363
0.985811
0.987045
0.98807
0.988894
0.989521
0.989954
0.990193
0.990238
0.990084
0.989728
0.989161
0.988374
0.987357
0.986097
0.984578
0.982785
0.9807
0.978302
0.975572
0.972486
0.969022
0.965155
0.960861
0.956116
0.950894
0.94517
0.93892
0.93212
0.924749
0.916786
0.908211
0.899007
0.88916
0.878658
0.867493
0.855658
0.843152
0.829976
0.816136
0.80164
0.786504
0.770744
0.754382
0.737444
0.719961
0.701964
0.683492
0.664586
0.645289
0.625647
0.605711
0.58553
0.565157
0.544647
0.524054
0.503433
0.48284
0.462329
0.441954
0.421766
0.401817
0.382155
0.362825
0.343872
0.325335
0.307251
0.289654
0.272574
0.256037
0.240066
0.22468
0.209893
0.195719
0.182163
0.169232
0.156925
0.145241
0.134176
0.12372
0.113865
0.104597
0.0959016
0.0877631
0.0801633
0.0730829
0.0665015
0.0603981
0.0547509
0.0495375
0.0447355
0.0403225
0.0362758
0.0325735
0.0291937
0.0261151
0.023317
0.0207795
0.0184832
0.0164097
0.0145414
0.0128616
0.0113546
0.0100054
0.00880006
0.0077255
0.00676953
0.00592085
0.00516897
0.00450423
0.00391773
0.00340133
0.00294758
0.00254968
0.00220147
0.00189734
0.00163226
0.00140167
0.00120147
0.00102802
0.000878017
0.000748561
0.000637049
0.000541183
0.000458925
0.00038848
0.000328267
0.000276898
0.000233156
0.000195981
0.000164445
0.000137743
0.000115176
9.61404e-05
8.0112e-05
6.66411e-05
5.53402e-05
4.58771e-05
3.79674e-05
3.13681e-05
2.58719e-05
2.13027e-05
1.7511e-05
1.43701e-05
1.17728e-05
9.62888e-06
7.86232e-06
6.40923e-06
5.21609e-06
4.23808e-06
3.4378e-06
2.78409e-06
2.25101e-06
1.81705e-06
1.46438e-06
1.17826e-06
9.46521e-07
7.59143e-07
6.07888e-07
4.85996e-07
3.8793e-07
3.09163e-07
2.46002e-07
1.95437e-07
1.55023e-07
1.22775e-07
9.70839e-08
7.66501e-08
6.04239e-08
4.75594e-08
3.73766e-08
2.93291e-08
2.29793e-08
1.7977e-08
1.40424e-08
1.09524e-08
8.52956e-09
6.63275e-09
5.15008e-09
3.9929e-09
3.09115e-09
2.38952e-09
1.84443e-09
1.4216e-09
1.09411e-09
8.40831e-10
6.4525e-10
4.94446e-10
3.78342e-10
2.89085e-10
2.2057e-10
1.68053e-10
1.27859e-10
9.71402e-11
7.36978e-11
5.5834e-11
4.2241e-11
3.19126e-11
2.40761e-11
1.81387e-11
1.36467e-11
1.02529e-11
7.6926e-12
5.76373e-12
4.31261e-12
3.22246e-12
2.40461e-12
1.79191e-12
1.33353e-12
9.91074e-13
7.35578e-13
5.45221e-13
4.03589e-13
2.98353e-13
2.20267e-13
1.62404e-13
1.19584e-13
8.79397e-14
6.45847e-14
4.73708e-14
3.47001e-14
2.53857e-14
1.85477e-14
1.35343e-14
9.86338e-15
7.17899e-15
5.21856e-15
3.78868e-15
2.74713e-15
1.98941e-15
1.43888e-15
1.03941e-15
7.49902e-16
5.40363e-16
3.88893e-16
2.79537e-16
2.00685e-16
1.439e-16
1.03057e-16
7.37163e-17
5.26653e-17
3.75803e-17
2.67839e-17
1.90663e-17
1.35562e-17
9.62706e-18
6.82861e-18
4.83789e-18
3.42348e-18
2.41973e-18
1.70827e-18
1.20459e-18
8.48426e-19
5.96877e-19
4.19423e-19
2.94386e-19
2.06387e-19
)
;

boundaryField
{
    sides
    {
        type            zeroGradient;
    }
    empty
    {
        type            empty;
    }
}


// ************************************************************************* //
