/*--------------------------------*- C++ -*----------------------------------*\
  =========                 |
  \\      /  F ield         | OpenFOAM: The Open Source CFD Toolbox
   \\    /   O peration     | Website:  https://openfoam.org
    \\  /    A nd           | Version:  6
     \\/     M anipulation  |
\*---------------------------------------------------------------------------*/
FoamFile
{
    version     2.0;
    format      ascii;
    class       volScalarField;
    location    "46";
    object      p;
}
// * * * * * * * * * * * * * * * * * * * * * * * * * * * * * * * * * * * * * //

dimensions      [0 2 -2 0 0 0 0];

internalField   nonuniform List<scalar> 
8800
(
0.93555
0.886232
0.84826
0.820181
0.800003
0.785391
0.774758
0.767172
0.762223
0.760068
0.761343
0.765605
0.772339
0.781719
0.794424
0.811722
0.835585
0.868673
0.911605
0.964117
0.770058
0.7764
0.785543
0.789082
0.78646
0.780352
0.773384
0.7671
0.76224
0.759293
0.758965
0.7615
0.76607
0.772144
0.779205
0.786213
0.791074
0.790937
0.784253
0.775349
0.743604
0.749835
0.754326
0.758183
0.761112
0.762035
0.760909
0.758734
0.75668
0.755746
0.756674
0.759037
0.761856
0.764076
0.764562
0.762747
0.759362
0.755336
0.750546
0.746829
0.73935
0.742112
0.744707
0.746848
0.748563
0.750101
0.751161
0.751454
0.751258
0.751249
0.751938
0.752983
0.753649
0.753442
0.752425
0.751039
0.749347
0.747028
0.744608
0.743041
0.734356
0.735779
0.737606
0.739667
0.741354
0.742612
0.74366
0.744571
0.745286
0.745899
0.746479
0.746828
0.746765
0.746333
0.745615
0.744462
0.742777
0.740862
0.739498
0.738695
0.729448
0.730349
0.731581
0.733185
0.734848
0.736338
0.737565
0.738607
0.739562
0.740435
0.741068
0.741328
0.741235
0.740786
0.739923
0.738688
0.73729
0.735999
0.735167
0.734643
0.724643
0.725297
0.726243
0.727535
0.728946
0.730415
0.731833
0.733105
0.734242
0.735279
0.736048
0.736385
0.736278
0.735743
0.734887
0.733887
0.732849
0.731912
0.73132
0.730937
0.719941
0.720445
0.721215
0.722326
0.723586
0.724948
0.726381
0.727816
0.729185
0.730448
0.731385
0.731799
0.731723
0.731279
0.73062
0.729858
0.729061
0.72836
0.72792
0.727623
0.715293
0.715693
0.716336
0.717325
0.718509
0.719812
0.721231
0.722752
0.724317
0.725833
0.726988
0.727559
0.727642
0.727399
0.726958
0.726398
0.725793
0.725277
0.724946
0.724706
0.710622
0.710949
0.711505
0.712413
0.713548
0.714834
0.71628
0.717888
0.71963
0.721415
0.722857
0.723688
0.724019
0.724008
0.723778
0.723423
0.722996
0.722631
0.722383
0.722183
0.705847
0.706118
0.706613
0.707473
0.708586
0.709892
0.711402
0.713133
0.715074
0.717158
0.71897
0.720156
0.720793
0.721046
0.721043
0.720889
0.72064
0.720407
0.720225
0.720055
0.700884
0.701112
0.701568
0.70241
0.703544
0.704911
0.706526
0.708432
0.710643
0.713117
0.715374
0.716971
0.717963
0.718516
0.718765
0.718817
0.718739
0.718623
0.718496
0.718347
0.695651
0.695845
0.696282
0.697136
0.69833
0.699804
0.70158
0.703731
0.706294
0.709248
0.712054
0.714144
0.715544
0.716432
0.716958
0.717224
0.717326
0.717321
0.717239
0.717105
0.690054
0.69022
0.690655
0.691552
0.692847
0.69448
0.696493
0.698977
0.702
0.705562
0.70903
0.7117
0.713569
0.714831
0.715662
0.71618
0.716456
0.716552
0.716509
0.716386
0.683988
0.684132
0.684579
0.685547
0.686991
0.688841
0.691156
0.694058
0.697652
0.701961
0.70624
0.709613
0.712047
0.713757
0.714941
0.71573
0.716202
0.716404
0.716398
0.716282
0.677328
0.677447
0.677921
0.678987
0.680624
0.682758
0.68546
0.688888
0.69318
0.698403
0.70367
0.7079
0.71102
0.713268
0.714864
0.715961
0.716655
0.716968
0.716996
0.716884
0.669899
0.669994
0.670511
0.671711
0.673601
0.676104
0.679308
0.683407
0.688585
0.694932
0.701402
0.706652
0.710573
0.713443
0.71553
0.716992
0.717928
0.718359
0.718421
0.71831
0.661492
0.66159
0.662152
0.663518
0.665742
0.668716
0.672558
0.677514
0.683805
0.691546
0.699465
0.705933
0.710793
0.714391
0.717057
0.718941
0.720156
0.720713
0.720809
0.720695
0.651809
0.65189
0.652538
0.654135
0.656784
0.660356
0.664998
0.671017
0.678697
0.688164
0.697828
0.705736
0.711729
0.716206
0.719556
0.721939
0.723473
0.72417
0.724299
0.724181
0.640489
0.640551
0.641302
0.643205
0.646392
0.650731
0.65641
0.663783
0.673161
0.684708
0.696507
0.706167
0.713491
0.719006
0.723159
0.726139
0.728037
0.728886
0.729048
0.728921
0.62702
0.627072
0.627966
0.630268
0.634169
0.639527
0.646564
0.655705
0.667302
0.681458
0.695764
0.707402
0.716251
0.722958
0.728038
0.731701
0.734005
0.735011
0.735201
0.735061
0.610637
0.610683
0.611787
0.614653
0.619526
0.626258
0.635097
0.646516
0.660853
0.678153
0.695453
0.709442
0.720067
0.728152
0.734305
0.73875
0.741503
0.74267
0.74288
0.742723
0.590196
0.590246
0.591678
0.595388
0.601657
0.610316
0.62163
0.636085
0.653932
0.675049
0.695821
0.712436
0.725043
0.73469
0.742057
0.747395
0.750628
0.751945
0.752161
0.751981
0.563919
0.563997
0.566014
0.571107
0.579558
0.591102
0.605948
0.62448
0.646755
0.672411
0.697087
0.71659
0.731348
0.742691
0.751377
0.757672
0.761378
0.762808
0.763004
0.762796
0.528774
0.528978
0.532192
0.539841
0.551988
0.567955
0.587825
0.611698
0.639355
0.670244
0.699263
0.721896
0.738954
0.752095
0.762216
0.769479
0.773588
0.775059
0.775204
0.774964
0.478981
0.480047
0.486478
0.499437
0.518064
0.540892
0.567741
0.598395
0.632434
0.669159
0.702763
0.728591
0.747963
0.762906
0.774436
0.782571
0.786925
0.78833
0.788394
0.788122
0.406088
0.413396
0.428218
0.450935
0.47926
0.51128
0.546629
0.58505
0.62616
0.669272
0.707915
0.73728
0.759257
0.77625
0.789323
0.798258
0.802821
0.80419
0.804217
0.803974
0.328273
0.344253
0.368379
0.401617
0.440192
0.481601
0.525562
0.57201
0.620673
0.670961
0.715673
0.74956
0.774958
0.794586
0.809547
0.819411
0.824076
0.82533
0.825388
0.825264
0.261666
0.281241
0.313163
0.355445
0.403135
0.453385
0.50573
0.560068
0.616123
0.673341
0.723821
0.761931
0.79044
0.812478
0.829047
0.839566
0.844214
0.845446
0.845562
0.84551
0.20718
0.22898
0.266269
0.315058
0.369869
0.427536
0.487306
0.548902
0.611917
0.675714
0.731632
0.773688
0.805066
0.829179
0.847201
0.858589
0.863783
0.865078
0.865202
0.865193
0.161904
0.185042
0.226211
0.280107
0.340632
0.404417
0.470523
0.538546
0.6079
0.677828
0.738821
0.784551
0.818569
0.844615
0.864077
0.8765
0.882227
0.88365
0.883851
0.883873
0.123213
0.147186
0.191237
0.24927
0.314606
0.383611
0.455201
0.528911
0.604013
0.679594
0.745361
0.794454
0.830889
0.85872
0.879439
0.892688
0.898889
0.900566
0.900847
0.900889
0.0891001
0.11366
0.159986
0.221453
0.290896
0.364449
0.44091
0.519746
0.600128
0.680957
0.751159
0.803389
0.841973
0.871363
0.893105
0.906926
0.913514
0.915533
0.915895
0.915937
0.0581178
0.0831744
0.131397
0.195799
0.268803
0.346347
0.427181
0.510706
0.595989
0.681762
0.756125
0.811282
0.85182
0.882523
0.905019
0.919255
0.926191
0.928415
0.92881
0.928834
0.0293089
0.0548335
0.104675
0.171664
0.247796
0.328875
0.413653
0.501488
0.591358
0.681845
0.760211
0.818158
0.860522
0.892306
0.915298
0.929771
0.936898
0.93928
0.939714
0.939721
0.0019256
0.0279761
0.0793072
0.14859
0.227483
0.311718
0.400068
0.491876
0.586057
0.681065
0.763384
0.824102
0.868238
0.900959
0.924319
0.938945
0.946208
0.948689
0.949107
0.949079
-0.0243466
0.00218586
0.054888
0.126233
0.207594
0.294662
0.386255
0.481723
0.579967
0.679353
0.765639
0.829192
0.875101
0.908718
0.93243
0.947197
0.954504
0.956986
0.957414
0.957362
-0.0499082
-0.0227978
0.0311674
0.104374
0.187947
0.277564
0.372112
0.470952
0.57301
0.676666
0.766979
0.833494
0.881233
0.915768
0.939829
0.954699
0.961996
0.964425
0.964814
0.964742
-0.074857
-0.0471564
0.00799628
0.0828936
0.168445
0.260356
0.357586
0.459527
0.565158
0.672972
0.767405
0.837055
0.886758
0.922287
0.946736
0.961673
0.968906
0.971246
0.971557
0.971435
-0.0992931
-0.0709876
-0.0147129
0.061727
0.149052
0.243021
0.342671
0.447445
0.556413
0.668249
0.766878
0.839887
0.891764
0.928428
0.953303
0.968251
0.975291
0.977458
0.977669
0.977505
-0.12329
-0.0943484
-0.0369764
0.0408648
0.129763
0.225578
0.327404
0.434744
0.546794
0.662485
0.765342
0.841949
0.896311
0.934322
0.959641
0.974478
0.981198
0.9831
0.983206
0.983015
-0.14688
-0.117225
-0.0587872
0.0203231
0.110627
0.208073
0.311842
0.421479
0.536342
0.655662
0.762726
0.843161
0.900411
0.940112
0.965933
0.980457
0.986635
0.988187
0.988185
0.987976
-0.169893
-0.139568
-0.0801134
0.000132022
0.0916887
0.190583
0.296056
0.407735
0.525122
0.647799
0.758957
0.843415
0.904001
0.945919
0.972459
0.986438
0.991711
0.99274
0.992617
0.992409
-0.192287
-0.161327
-0.100922
-0.0196502
0.0730168
0.173178
0.280144
0.393595
0.513219
0.638921
0.753981
0.842581
0.90694
0.951766
0.979587
0.992945
0.996743
0.996831
0.996516
0.996351
-0.214113
-0.18246
-0.121177
-0.0389779
0.0546826
0.155948
0.264201
0.379169
0.500726
0.629089
0.747748
0.84053
0.909001
0.957459
0.987587
1.00088
1.00272
1.00091
0.999944
0.999992
-0.235201
-0.202932
-0.140816
-0.0577768
0.0367513
0.138981
0.248328
0.364567
0.48776
0.618403
0.740242
0.837116
0.909914
0.962539
0.996251
1.01117
1.01185
1.00723
1.0036
1.00187
-0.255641
-0.222742
-0.159838
-0.0760745
0.0191893
0.122234
0.232469
0.349728
0.474243
0.606788
0.731305
0.832072
0.909389
0.966395
1.00466
1.02367
1.02619
1.02018
1.00945
1.00866
-0.275341
-0.241959
-0.17838
-0.0940674
0.00169403
0.105357
0.216195
0.334144
0.459603
0.59358
0.720237
0.824576
0.906831
0.968151
1.0107
1.03523
1.04087
1.03145
1.01338
1.00938
-0.294155
-0.260546
-0.196264
-0.111543
-0.0154767
0.0886606
0.199725
0.318148
0.444148
0.579042
0.707148
0.8141
0.901594
0.966649
1.00988
1.03421
1.04358
1.02123
0.962635
0.936802
-0.311963
-0.27932
-0.213077
-0.127968
-0.0316262
0.0726364
0.183334
0.302014
0.42816
0.563354
0.692125
0.800155
0.892828
0.961246
0.997636
1.01605
1.00993
0.962243
0.901047
0.863379
-0.356541
-0.297442
-0.2287
-0.14394
-0.0475475
0.0563635
0.167152
0.285625
0.411442
0.546189
0.674802
0.782294
0.877024
0.950353
0.973153
0.968103
0.928543
0.868189
0.8012
0.764353
-0.331493
-0.312956
-0.252342
-0.167645
-0.0717201
0.0319808
0.142026
0.259813
0.384608
0.517687
0.644336
0.749222
0.834919
0.914187
0.904044
0.804773
0.720409
0.661622
0.600102
0.62923
-0.363602
-0.33142
-0.269904
-0.185748
-0.089891
0.0134952
0.123686
0.240799
0.364532
0.495746
0.61959
0.720748
0.796592
0.840505
0.795816
0.664406
0.561275
0.491685
0.412033
0.45982
-0.388667
-0.35399
-0.290578
-0.206212
-0.110398
-0.00705977
0.103039
0.219358
0.341714
0.470475
0.59044
0.685606
0.750477
0.757722
0.658861
0.510391
0.386616
0.298085
0.205013
0.238336
-0.413141
-0.377325
-0.312436
-0.22734
-0.131348
-0.0280933
0.0815427
0.196913
0.317675
0.443605
0.558781
0.646886
0.695189
0.670991
0.520498
0.349528
0.194382
0.0644053
-0.0572604
-0.0431177
-0.437363
-0.40109
-0.335215
-0.249463
-0.153214
-0.0501055
0.0589292
0.173216
0.292113
0.414837
0.524527
0.605309
0.633794
0.567175
0.384766
0.19327
0.010718
-0.139327
-0.342083
-0.420685
-0.462012
-0.425753
-0.359259
-0.272996
-0.176472
-0.0734595
0.0350437
0.148227
0.265144
0.384433
0.488318
0.559921
0.56498
0.447415
0.26125
0.057436
-0.130001
-0.288397
-0.410064
-0.528104
-0.488169
-0.451799
-0.384937
-0.298345
-0.20168
-0.0988536
0.00902741
0.120938
0.235534
0.350851
0.448474
0.508123
0.487303
0.333538
0.145776
-0.0521278
-0.22303
-0.317254
-0.34289
-0.356469
-0.515976
-0.479515
-0.412378
-0.325616
-0.228991
-0.126516
-0.0194969
0.0908326
0.202655
0.313265
0.404129
0.447236
0.408371
0.224283
0.0382492
-0.139365
-0.268023
-0.304661
-0.313375
-0.313745
-0.545716
-0.509024
-0.441617
-0.354787
-0.258347
-0.156449
-0.0505524
0.0578525
0.166431
0.271603
0.354719
0.382353
0.313491
0.124346
-0.0556871
-0.20994
-0.281314
-0.295242
-0.296093
-0.295873
-0.577394
-0.540355
-0.47266
-0.385846
-0.289755
-0.18864
-0.0841471
0.0219755
0.126864
0.22592
0.299999
0.313303
0.207366
0.0335976
-0.136326
-0.257807
-0.285038
-0.286145
-0.286816
-0.2863
-0.610742
-0.573324
-0.50539
-0.418698
-0.323117
-0.223026
-0.12025
-0.0167795
0.0839986
0.176317
0.240985
0.235566
0.111792
-0.0511511
-0.199857
-0.267008
-0.282219
-0.281547
-0.281755
-0.281453
-0.645171
-0.607564
-0.539525
-0.453096
-0.358228
-0.25943
-0.158696
-0.0582931
0.0380367
0.12318
0.177662
0.156035
0.0220107
-0.127617
-0.243153
-0.277698
-0.277431
-0.277878
-0.27784
-0.277746
-0.680224
-0.642521
-0.574557
-0.488594
-0.394701
-0.297497
-0.19917
-0.102285
-0.0107412
0.0673469
0.108631
0.0792546
-0.0617619
-0.188137
-0.270645
-0.27766
-0.278207
-0.276817
-0.276168
-0.275912
-0.714929
-0.67728
-0.609706
-0.524513
-0.431945
-0.336702
-0.24116
-0.148236
-0.0619293
0.00962104
0.0394865
-0.00319131
-0.13881
-0.237017
-0.278492
-0.290148
-0.285659
-0.28373
-0.282106
-0.281042
-0.747347
-0.710509
-0.643901
-0.559915
-0.46913
-0.376275
-0.283926
-0.195331
-0.11477
-0.0495965
-0.0262591
-0.0931908
-0.215329
-0.289305
-0.300889
-0.301508
-0.298637
-0.295035
-0.293449
-0.292602
-0.776427
-0.740664
-0.675686
-0.593537
-0.50513
-0.415197
-0.326476
-0.242509
-0.167974
-0.109472
-0.0914685
-0.176566
-0.298176
-0.354242
-0.353412
-0.338391
-0.322397
-0.313323
-0.310543
-0.309378
-0.799409
-0.765602
-0.703261
-0.62379
-0.538532
-0.452209
-0.367557
-0.288468
-0.220033
-0.167961
-0.155791
-0.245078
-0.386711
-0.458045
-0.425546
-0.39376
-0.367001
-0.355324
-0.351581
-0.349415
-0.814116
-0.783112
-0.724494
-0.648867
-0.567695
-0.485812
-0.405748
-0.331619
-0.269286
-0.221951
-0.211434
-0.287114
-0.449301
-0.592178
-0.545362
-0.480415
-0.458728
-0.441606
-0.428765
-0.422225
-0.817827
-0.790766
-0.737213
-0.666848
-0.590896
-0.514347
-0.43956
-0.370287
-0.313391
-0.269754
-0.250671
-0.293628
-0.384657
-0.585865
-0.547153
-0.496982
-0.485804
-0.477646
-0.468191
-0.465916
-0.808549
-0.786277
-0.739328
-0.675894
-0.606626
-0.536261
-0.467493
-0.402976
-0.349738
-0.310598
-0.268799
-0.261683
-0.147791
-0.155901
-0.246735
-0.354263
-0.401752
-0.414821
-0.423295
-0.425546
-0.78312
-0.766482
-0.728844
-0.674737
-0.613715
-0.550605
-0.488126
-0.428733
-0.37791
-0.344019
-0.292726
-0.248002
0.000775566
0.264021
0.0336462
-0.271228
-0.405307
-0.429817
-0.439274
-0.440414
-0.744868
-0.734023
-0.706575
-0.663595
-0.612018
-0.557129
-0.500905
-0.446859
-0.398437
-0.364543
-0.351796
-0.378885
-0.426241
-0.39659
-0.633098
-0.761438
-0.724307
-0.631481
-0.585944
-0.595222
-0.700516
-0.694316
-0.677475
-0.645402
-0.603776
-0.55638
-0.506187
-0.456231
-0.410212
-0.379953
-0.382058
-0.603475
-1.14423
-1.68316
-1.88495
-1.91341
-1.74218
-1.49805
-1.28787
-1.21726
-0.660071
-0.656465
-0.647971
-0.625854
-0.592093
-0.550573
-0.504803
-0.456027
-0.411595
-0.379363
-0.376856
-0.609222
-1.10897
-1.73979
-1.95657
-1.8388
-1.63386
-1.4255
-1.26149
-1.17776
-0.630663
-0.628538
-0.624287
-0.609687
-0.581409
-0.542972
-0.497953
-0.448772
-0.395282
-0.34681
-0.327438
-0.333748
-0.32799
-0.250357
-0.123548
0.0802735
0.190879
0.319644
0.370661
0.401441
-0.608907
-0.608092
-0.606842
-0.59892
-0.575281
-0.537122
-0.48927
-0.432614
-0.368552
-0.299106
-0.217945
-0.126661
0.105699
0.450674
0.814861
1.12812
1.36387
1.44775
1.46981
1.47802
-0.596784
-0.596364
-0.595916
-0.592119
-0.573124
-0.534244
-0.479424
-0.415476
-0.337061
-0.2418
-0.14494
-0.00055476
0.229669
0.633614
1.10703
1.53844
1.79754
1.90537
1.96414
1.98346
-0.589532
-0.589293
-0.588764
-0.587531
-0.573478
-0.53522
-0.475256
-0.399091
-0.310781
-0.202408
-0.0987436
0.0260233
0.302638
0.722209
1.17799
1.56979
1.84356
2.00716
2.08296
2.10613
-0.587479
-0.586155
-0.583091
-0.58177
-0.575831
-0.543122
-0.479083
-0.3907
-0.292756
-0.183718
-0.0690558
0.0195962
0.264183
0.637381
1.01507
1.36626
1.6395
1.79914
1.87085
1.89162
-0.605071
-0.601455
-0.595059
-0.593508
-0.595177
-0.565208
-0.488014
-0.388599
-0.277325
-0.173287
-0.0595593
0.0276548
0.175784
0.497436
0.820956
1.09505
1.29967
1.42405
1.48198
1.49805
-0.654797
-0.653226
-0.657323
-0.663621
-0.660786
-0.605055
-0.497454
-0.381691
-0.266504
-0.154863
-0.05208
0.0444964
0.156848
0.410597
0.64785
0.844284
0.986979
1.07385
1.1116
1.12156
-0.708283
-0.717747
-0.73726
-0.746472
-0.723071
-0.629906
-0.491169
-0.362629
-0.250587
-0.139335
-0.0455774
0.0409912
0.122834
0.260639
0.454913
0.610385
0.720552
0.785019
0.813147
0.819862
-0.674073
-0.687264
-0.708183
-0.716112
-0.682533
-0.575093
-0.44153
-0.32513
-0.220642
-0.125571
-0.0397617
0.035531
0.0912793
0.20504
0.340514
0.444983
0.523317
0.571131
0.590657
0.593888
-0.490398
-0.502537
-0.519535
-0.526534
-0.498514
-0.42422
-0.340482
-0.257611
-0.17819
-0.106093
-0.037951
0.026374
0.0703971
0.131416
0.238751
0.319379
0.376689
0.408313
0.420119
0.42063
-0.233769
-0.240221
-0.251024
-0.261119
-0.257509
-0.238652
-0.209739
-0.170913
-0.128714
-0.0772449
-0.0342791
0.0162919
0.0554202
0.0919035
0.153705
0.207392
0.252003
0.278127
0.288411
0.288729
-0.0246048
-0.0276123
-0.0359278
-0.0515107
-0.071548
-0.0879798
-0.0949145
-0.0919121
-0.0783645
-0.0514216
-0.0265863
0.00309143
0.0344894
0.0562632
0.0993736
0.136779
0.161374
0.174766
0.179198
0.178088
0.08948
0.0876597
0.0803554
0.06265
0.0352642
0.00556284
-0.0183955
-0.0336146
-0.0381377
-0.0332662
-0.0230985
-0.0144452
-0.00268211
-0.00135607
0.025811
0.0540409
0.0766289
0.0888988
0.0925616
0.0912434
0.130602
0.129195
0.123158
0.107926
0.0830752
0.0544088
0.0273002
0.00595546
-0.00884013
-0.0173347
-0.0261999
-0.0403762
-0.0560427
-0.0478848
-0.0200309
0.000260958
0.0144748
0.0190561
0.0201123
0.0190958
0.135054
0.133994
0.12957
0.118335
0.0995448
0.0764135
0.0526774
0.0306815
0.0124757
-0.00415699
-0.0263502
-0.0580374
-0.088345
-0.0799056
-0.053465
-0.0364347
-0.0285955
-0.0278468
-0.0285303
-0.0290088
0.125602
0.124894
0.121906
0.114221
0.101003
0.0837925
0.0649008
0.0463147
0.0284945
0.0101879
-0.0153976
-0.0524304
-0.0828083
-0.0684537
-0.0498741
-0.0415127
-0.0415659
-0.0442826
-0.0457193
-0.0458177
0.11233
0.111916
0.11005
0.105099
0.0962671
0.0843869
0.0706323
0.0564647
0.0425407
0.0276016
0.00855576
-0.0191342
-0.0354603
-0.0197146
-0.0128687
-0.0151385
-0.0225307
-0.028475
-0.0305335
-0.0305788
0.0988594
0.0986575
0.0976104
0.0946526
0.0891867
0.0815104
0.072503
0.0633045
0.0547335
0.0469562
0.0410429
0.0320627
0.0320811
0.0430333
0.0391708
0.028473
0.0177825
0.0118344
0.0105236
0.010564
0.0862416
0.086171
0.0856942
0.0842107
0.081211
0.0769141
0.0717826
0.0672292
0.0641695
0.065677
0.0755301
0.0886466
0.107984
0.113886
0.101468
0.0850409
0.0747029
0.0704386
0.0694953
0.0692294
0.0746082
0.0746105
0.0744981
0.0740066
0.0727815
0.0709507
0.0688728
0.0679969
0.0699294
0.0795031
0.103258
0.138694
0.175802
0.176156
0.156083
0.139365
0.132329
0.130968
0.130419
0.129636
0.0637109
0.0637578
0.0638579
0.0639733
0.0639106
0.0637765
0.0638855
0.0655416
0.0704603
0.084689
0.114928
0.159003
0.199581
0.196896
0.17941
0.170724
0.169882
0.172548
0.172658
0.171067
0.0533635
0.0534211
0.053624
0.0540427
0.0546062
0.0553782
0.056736
0.0595607
0.065619
0.0799642
0.108654
0.147741
0.179424
0.175295
0.166965
0.168476
0.174224
0.179128
0.179317
0.177855
0.0432611
0.0433203
0.0435266
0.0440214
0.0448423
0.0459037
0.0477337
0.0506328
0.0562299
0.0670954
0.0867972
0.113004
0.131767
0.129913
0.131282
0.141456
0.151982
0.157644
0.157808
0.156517
0.0331571
0.0331935
0.0333582
0.0337925
0.0345814
0.0356264
0.0372187
0.0395711
0.0435512
0.0489216
0.0559328
0.0631123
0.0638767
0.0654573
0.0769934
0.0954473
0.109462
0.115478
0.116143
0.115158
0.0229764
0.0229918
0.0230979
0.0234029
0.0239825
0.0248556
0.025907
0.0272876
0.0293188
0.0300592
0.0253897
0.0105775
-0.0138181
-0.0107997
0.0172139
0.0434494
0.0590363
0.0640118
0.0644878
0.0639676
0.0126982
0.0126799
0.0127177
0.0129028
0.0132166
0.0136932
0.0143007
0.015189
0.0156279
0.014069
0.00423103
-0.0236368
-0.0535269
-0.0462204
-0.0169095
0.0072084
0.0160913
0.01826
0.0192193
0.019389
0.00265319
0.00263268
0.0026444
0.00262543
0.00258751
0.00269139
0.00292686
0.00301811
0.0029496
0.00284572
0.00149961
-0.00315209
-0.0162291
-0.018975
-0.0111863
-0.00817741
-0.009505
-0.00747419
-0.00286811
-0.000716348
0.0913754
0.281047
0.455637
0.604288
0.724658
0.82103
0.901892
0.967577
0.984421
0.980519
0.38526
0.50773
0.622762
0.723239
0.8084
0.879144
0.935022
0.972768
0.992885
1.00937
0.585052
0.666949
0.748126
0.819687
0.880985
0.931911
0.97198
1.00241
1.02519
1.04442
0.732778
0.790544
0.849486
0.902505
0.948275
0.98715
1.01968
1.0469
1.06735
1.08626
0.850247
0.894209
0.938294
0.979223
1.01564
1.04777
1.07583
1.09956
1.11761
1.13566
0.949886
0.985747
1.02097
1.05499
1.08634
1.11468
1.13968
1.16064
1.17648
1.19397
1.03834
1.07067
1.10307
1.13435
1.16347
1.18994
1.21314
1.23213
1.24609
1.26312
1.12564
1.15833
1.19086
1.22213
1.25097
1.27681
1.299
1.31657
1.32899
1.34552
1.2202
1.25664
1.29146
1.32397
1.35319
1.3786
1.39976
1.41608
1.42772
1.44387
1.33333
1.37388
1.41095
1.44398
1.47252
1.49656
1.51621
1.53151
1.54342
1.5595
1.47468
1.51583
1.55112
1.58076
1.60599
1.62763
1.64615
1.66164
1.67477
1.69072
1.64632
1.67884
1.7057
1.72801
1.7481
1.76684
1.78459
1.80136
1.81628
1.83201
1.83272
1.85001
1.86714
1.88383
1.89992
1.91466
1.92857
1.94305
1.9583
1.97559
2.0161
2.0261
2.03931
2.0503
2.0597
2.06936
2.07998
2.09016
2.09945
2.12512
2.23404
2.22833
2.21539
2.20113
2.19484
2.20055
2.2187
2.24722
2.28098
2.31731
2.53685
2.40089
2.32139
2.27889
2.26157
2.26554
2.29297
2.35084
2.4585
2.63691
0.839248
0.832944
0.82521
0.814088
0.800507
0.787844
0.777426
0.769384
0.763627
0.760245
0.759832
0.762608
0.767795
0.775119
0.784644
0.796458
0.81001
0.822932
0.831916
0.839455
0.748333
0.754251
0.762318
0.768443
0.771501
0.770974
0.767867
0.763841
0.760209
0.757871
0.757673
0.759867
0.763573
0.767984
0.772061
0.774289
0.773203
0.768558
0.761498
0.753661
0.741611
0.743983
0.747245
0.750009
0.752446
0.754618
0.755772
0.755592
0.754609
0.753744
0.753891
0.75524
0.756971
0.758162
0.758059
0.756571
0.754397
0.752024
0.749033
0.746011
0.736862
0.737951
0.739862
0.742189
0.744045
0.745423
0.746614
0.747569
0.748117
0.748428
0.748905
0.749578
0.749989
0.749827
0.749164
0.748216
0.746866
0.744882
0.742764
0.741283
0.731892
0.732526
0.733649
0.735394
0.73722
0.738789
0.740008
0.741027
0.741948
0.742767
0.743465
0.743906
0.743979
0.74372
0.743143
0.742137
0.740686
0.739058
0.737708
0.736903
0.727034
0.727474
0.728257
0.729547
0.731049
0.732585
0.734026
0.735271
0.736355
0.737352
0.738201
0.738706
0.738805
0.738507
0.737792
0.736753
0.735568
0.7344
0.733482
0.732945
0.722284
0.722612
0.723219
0.724274
0.725548
0.726916
0.728351
0.729765
0.731077
0.732273
0.733295
0.733923
0.734051
0.733727
0.733068
0.732233
0.731347
0.730462
0.729782
0.729388
0.717618
0.717873
0.718361
0.719257
0.720405
0.721679
0.723052
0.724513
0.726002
0.727446
0.728696
0.729464
0.729679
0.729478
0.729015
0.728402
0.727716
0.727049
0.726546
0.726244
0.712969
0.713172
0.713577
0.714363
0.715431
0.716654
0.718008
0.719504
0.721121
0.722788
0.724302
0.725304
0.725726
0.725743
0.725498
0.725092
0.724596
0.72411
0.723742
0.723504
0.708256
0.70842
0.708767
0.709479
0.710499
0.711698
0.713075
0.714645
0.716402
0.718299
0.720126
0.721455
0.722173
0.722452
0.722436
0.722237
0.721936
0.721612
0.721355
0.721164
0.703396
0.703529
0.703834
0.704501
0.705502
0.706723
0.708159
0.709841
0.711784
0.713967
0.716178
0.717912
0.718985
0.719571
0.719814
0.719836
0.719721
0.719549
0.719385
0.719232
0.698311
0.698418
0.698696
0.699343
0.700359
0.701644
0.703182
0.70503
0.707227
0.709774
0.712459
0.714682
0.716173
0.717107
0.717641
0.717898
0.717976
0.717953
0.717869
0.717744
0.692909
0.692995
0.693256
0.693908
0.694977
0.696366
0.698067
0.700156
0.702699
0.705723
0.708999
0.7118
0.713771
0.715095
0.715945
0.716468
0.716752
0.716868
0.716854
0.716752
0.687092
0.687158
0.687412
0.688092
0.689251
0.690795
0.692722
0.695129
0.698111
0.70172
0.705716
0.709229
0.711777
0.713561
0.714774
0.715589
0.716097
0.716358
0.716411
0.716328
0.680743
0.68079
0.681045
0.681776
0.683064
0.684816
0.687035
0.689844
0.693373
0.697717
0.702601
0.706961
0.710202
0.712541
0.714183
0.715329
0.716095
0.716513
0.716632
0.716564
0.673721
0.673748
0.674011
0.674813
0.676269
0.678291
0.680887
0.684205
0.688415
0.693643
0.699605
0.705018
0.709103
0.712098
0.71425
0.715784
0.716844
0.717432
0.717618
0.717564
0.665838
0.665854
0.666116
0.667016
0.668695
0.671066
0.67415
0.678132
0.683219
0.689579
0.696864
0.703518
0.70858
0.712336
0.715076
0.717082
0.71847
0.719244
0.719498
0.719456
0.656811
0.6568
0.657116
0.658155
0.660126
0.662943
0.666642
0.671447
0.677628
0.685384
0.694282
0.702431
0.708666
0.71333
0.716776
0.71933
0.721103
0.722085
0.722412
0.722379
0.646354
0.646321
0.646683
0.647906
0.650236
0.65362
0.658106
0.663962
0.671502
0.680974
0.691842
0.701781
0.709419
0.71517
0.719459
0.722657
0.724882
0.7261
0.726506
0.726479
0.634008
0.633952
0.634386
0.635847
0.63865
0.642778
0.648287
0.655499
0.664776
0.67638
0.689636
0.701731
0.710992
0.717997
0.723282
0.727234
0.729973
0.731451
0.731935
0.731911
0.619155
0.619076
0.619628
0.621426
0.624857
0.629981
0.636855
0.645851
0.657381
0.671689
0.687823
0.702381
0.713515
0.721959
0.72838
0.7332
0.73652
0.738277
0.738836
0.738809
0.600843
0.600745
0.60149
0.603781
0.608089
0.614584
0.623304
0.634653
0.649035
0.666612
0.686185
0.703686
0.717
0.727114
0.734841
0.740657
0.744638
0.74669
0.747315
0.747278
0.57765
0.577549
0.578623
0.581678
0.587319
0.59584
0.607214
0.621825
0.639993
0.661693
0.685282
0.706006
0.72167
0.733613
0.742784
0.74971
0.754398
0.756734
0.757402
0.757341
0.547255
0.547198
0.54887
0.553257
0.561151
0.572844
0.58813
0.607214
0.630186
0.656793
0.684978
0.709321
0.727574
0.741481
0.752219
0.760351
0.765734
0.768303
0.768971
0.768873
0.505521
0.505665
0.508647
0.515824
0.527925
0.544841
0.565925
0.591066
0.620059
0.652419
0.685696
0.713864
0.734799
0.750735
0.763094
0.772449
0.778425
0.781098
0.781708
0.781565
0.444758
0.446057
0.453337
0.466936
0.486771
0.512004
0.54128
0.574124
0.610205
0.648983
0.687673
0.719774
0.74341
0.761337
0.775229
0.785656
0.792049
0.794618
0.795068
0.794887
0.371706
0.374286
0.388471
0.411981
0.442439
0.477564
0.515764
0.556825
0.600551
0.646479
0.691578
0.728678
0.755968
0.776699
0.792642
0.804312
0.811157
0.813794
0.81429
0.814226
0.296776
0.303632
0.324944
0.358364
0.399177
0.443969
0.491118
0.540493
0.591984
0.645181
0.696854
0.739129
0.770165
0.793818
0.812014
0.824971
0.832102
0.834546
0.834919
0.834943
0.23577
0.244453
0.270428
0.310907
0.359808
0.4128
0.468026
0.525204
0.584112
0.644296
0.702229
0.74938
0.78389
0.810121
0.830235
0.844278
0.851613
0.854077
0.854736
0.854848
0.185758
0.195145
0.224635
0.270374
0.325403
0.384964
0.446999
0.511052
0.576732
0.643441
0.707266
0.758966
0.796708
0.825301
0.847117
0.862339
0.870365
0.873376
0.874161
0.874302
0.14372
0.153423
0.185329
0.235177
0.295233
0.360256
0.428044
0.498069
0.5698
0.642488
0.711805
0.767747
0.808458
0.839223
0.862674
0.879057
0.887935
0.891317
0.892217
0.892352
0.107203
0.117062
0.150802
0.203947
0.268192
0.337898
0.410703
0.48601
0.5632
0.64138
0.715816
0.775709
0.81912
0.851842
0.87672
0.894022
0.903528
0.907263
0.908289
0.908431
0.0745647
0.0845028
0.119705
0.175594
0.243407
0.317167
0.394415
0.474486
0.556683
0.63997
0.719182
0.782768
0.828649
0.863095
0.889148
0.907151
0.917183
0.921257
0.922316
0.922445
0.0446142
0.0546157
0.0909973
0.149285
0.220201
0.297512
0.378712
0.463118
0.549946
0.638037
0.721798
0.788861
0.837072
0.873024
0.899969
0.918408
0.928788
0.933092
0.934214
0.93433
0.0164653
0.0265415
0.0640194
0.124427
0.198075
0.278525
0.363263
0.451624
0.542758
0.635402
0.723557
0.79402
0.844472
0.881803
0.909418
0.928131
0.938674
0.94313
0.944322
0.94443
-0.0104088
-0.000209561
0.0382764
0.100586
0.17666
0.259906
0.347836
0.439809
0.53495
0.631931
0.724385
0.798278
0.85098
0.889624
0.917823
0.936791
0.947443
0.951951
0.953127
0.953202
-0.0363892
-0.0260128
0.0134189
0.0774634
0.155705
0.241457
0.332276
0.427551
0.526423
0.62754
0.724261
0.801672
0.856688
0.896651
0.925422
0.944611
0.955345
0.959826
0.960964
0.96099
-0.0617329
-0.0510977
-0.0107599
0.0548756
0.135065
0.223058
0.316492
0.414791
0.517119
0.622191
0.723167
0.804229
0.861692
0.903035
0.932419
0.951815
0.962567
0.966987
0.968061
0.968069
-0.0865002
-0.0755936
-0.0343851
0.0327118
0.114656
0.204663
0.300452
0.401502
0.507028
0.615854
0.721073
0.805956
0.86606
0.908922
0.938997
0.958603
0.969312
0.973583
0.974546
0.9745
-0.110793
-0.099596
-0.0575394
0.0109391
0.094453
0.186258
0.284163
0.387705
0.496166
0.608539
0.717942
0.806811
0.86982
0.914426
0.945293
0.96506
0.975607
0.979642
0.980439
0.980334
-0.134611
-0.123119
-0.0802024
-0.010448
0.0744706
0.167876
0.267676
0.373449
0.484575
0.600252
0.713734
0.806717
0.872952
0.919642
0.951456
0.971299
0.981487
0.985141
0.985748
0.985597
-0.157997
-0.146142
-0.102352
-0.0314278
0.0547433
0.149568
0.251047
0.358807
0.472321
0.591023
0.708408
0.805581
0.875381
0.924628
0.957688
0.97753
0.987066
0.990129
0.990498
0.99031
-0.180706
-0.168604
-0.123957
-0.051965
0.0353301
0.131416
0.234354
0.343858
0.459487
0.580914
0.701939
0.80331
0.876985
0.929356
0.964211
0.984139
0.992626
0.994697
0.994703
0.994491
-0.202892
-0.19044
-0.144974
-0.0720207
0.0162754
0.113473
0.217697
0.328695
0.446166
0.570009
0.694329
0.799805
0.877597
0.933655
0.971142
0.991706
0.998871
0.999215
0.998425
0.998181
-0.224363
-0.211603
-0.165379
-0.0915355
-0.00233034
0.0958292
0.201167
0.313442
0.432468
0.558378
0.685612
0.794977
0.877028
0.937211
0.978281
1.00076
1.00721
1.00511
1.00228
1.00153
-0.245208
-0.232111
-0.185106
-0.110445
-0.0204431
0.078559
0.184853
0.298187
0.418508
0.54616
0.675861
0.788732
0.875087
0.93961
0.984938
1.01109
1.01906
1.01576
1.00922
0.999658
-0.265308
-0.251955
-0.204245
-0.128914
-0.0382902
0.0613648
0.168403
0.282504
0.403808
0.53282
0.664523
0.780441
0.871258
0.940414
0.990191
1.02146
1.03414
1.0318
1.0212
1.01841
-0.284612
-0.27121
-0.222788
-0.146874
-0.0558423
0.0442739
0.151853
0.266377
0.388341
0.51824
0.651432
0.769673
0.864881
0.938826
0.99187
1.02678
1.04252
1.04464
1.0111
0.97173
-0.302883
-0.289732
-0.240685
-0.16419
-0.0730721
0.0272681
0.135219
0.249942
0.372184
0.502471
0.636536
0.756154
0.854967
0.934164
0.988006
1.01745
1.03334
1.01842
0.967224
0.911747
-0.322857
-0.306244
-0.257614
-0.180364
-0.0897866
0.0106071
0.118156
0.23325
0.355433
0.485626
0.619779
0.739698
0.839875