/*--------------------------------*- C++ -*----------------------------------*\
  =========                 |
  \\      /  F ield         | OpenFOAM: The Open Source CFD Toolbox
   \\    /   O peration     | Website:  https://openfoam.org
    \\  /    A nd           | Version:  6
     \\/     M anipulation  |
\*---------------------------------------------------------------------------*/
FoamFile
{
    version     2.0;
    format      ascii;
    class       volScalarField;
    location    "37.9";
    object      p;
}
// * * * * * * * * * * * * * * * * * * * * * * * * * * * * * * * * * * * * * //

dimensions      [0 2 -2 0 0 0 0];

internalField   nonuniform List<scalar> 
8800
(
0.918667
0.869347
0.831374
0.803292
0.78311
0.76849
0.757845
0.750245
0.745278
0.743095
0.744333
0.748564
0.755273
0.764632
0.777323
0.794612
0.818468
0.851553
0.894482
0.946992
0.753178
0.75952
0.76866
0.772196
0.76957
0.763457
0.756481
0.750185
0.745307
0.742334
0.741974
0.744472
0.749009
0.755062
0.762108
0.769103
0.773955
0.773812
0.767125
0.758218
0.726733
0.732964
0.737452
0.741306
0.744231
0.745147
0.744011
0.741821
0.739744
0.738776
0.739664
0.741991
0.744782
0.74698
0.747448
0.74562
0.742225
0.738191
0.733397
0.729679
0.722493
0.725254
0.727848
0.729986
0.731696
0.733225
0.734275
0.73455
0.734327
0.734278
0.734927
0.735934
0.736567
0.736333
0.735293
0.733891
0.732186
0.729857
0.727432
0.725864
0.717519
0.718941
0.720766
0.722824
0.724505
0.725753
0.726788
0.727678
0.728358
0.728926
0.729455
0.729763
0.729664
0.729201
0.728457
0.727285
0.725584
0.723656
0.722287
0.721484
0.712635
0.713535
0.714767
0.716369
0.718027
0.719508
0.720722
0.721741
0.722661
0.723484
0.724057
0.72426
0.72412
0.723632
0.722736
0.721475
0.720055
0.718747
0.717906
0.717384
0.707864
0.708518
0.709463
0.710754
0.712161
0.71362
0.71502
0.716267
0.717363
0.718341
0.719037
0.719308
0.719141
0.718559
0.717664
0.716628
0.71556
0.714603
0.714002
0.713621
0.703205
0.703708
0.704479
0.705591
0.706849
0.708206
0.709627
0.711039
0.712374
0.713578
0.714424
0.714742
0.714583
0.714072
0.713356
0.712545
0.71171
0.710981
0.71053
0.710235
0.698613
0.699012
0.699658
0.700652
0.701839
0.703141
0.704552
0.706052
0.707572
0.709006
0.710059
0.710523
0.710503
0.710169
0.70965
0.709026
0.708368
0.707815
0.707473
0.707235
0.694017
0.694341
0.694901
0.695818
0.696957
0.69824
0.699676
0.701257
0.70294
0.704633
0.705949
0.70665
0.70686
0.706738
0.706415
0.705979
0.705485
0.705075
0.704815
0.704619
0.689334
0.689601
0.690101
0.690973
0.692096
0.6934
0.694888
0.696576
0.698447
0.700419
0.70208
0.70311
0.703607
0.703737
0.703622
0.703364
0.703026
0.702739
0.702545
0.702381
0.6845
0.684722
0.685182
0.686037
0.687182
0.688548
0.69014
0.691992
0.694116
0.69645
0.69853
0.699947
0.700773
0.701174
0.701283
0.701206
0.701023
0.700844
0.700703
0.700562
0.679436
0.679623
0.680066
0.680938
0.682148
0.683626
0.685394
0.687505
0.689982
0.692782
0.695377
0.69724
0.69842
0.6991
0.699439
0.699549
0.699511
0.699427
0.699331
0.699208
0.674063
0.674219
0.674658
0.675574
0.67689
0.678525
0.680512
0.682942
0.685855
0.689238
0.692458
0.694867
0.696481
0.697505
0.698117
0.698432
0.698543
0.698551
0.698496
0.698387
0.668285
0.668413
0.668859
0.669843
0.671302
0.673143
0.675406
0.678213
0.681671
0.685768
0.689764
0.69283
0.69499
0.696443
0.697381
0.697937
0.698215
0.698319
0.698304
0.698206
0.662001
0.662102
0.662571
0.663646
0.665283
0.667393
0.670042
0.673361
0.677465
0.682415
0.687375
0.691301
0.694108
0.69604
0.697337
0.698166
0.698646
0.698857
0.698879
0.698788
0.655056
0.655139
0.655628
0.656825
0.658708
0.661173
0.664302
0.668296
0.673324
0.679415
0.685511
0.690352
0.693879
0.696389
0.698134
0.699276
0.699964
0.700283
0.700344
0.700259
0.647187
0.647263
0.647808
0.649156
0.651338
0.654219
0.657924
0.662684
0.668711
0.676129
0.683663
0.689752
0.69425
0.697492
0.699804
0.701367
0.702324
0.702778
0.702881
0.702798
0.638192
0.638243
0.638863
0.640407
0.642962
0.646396
0.650874
0.656686
0.664093
0.673197
0.682448
0.68994
0.695513
0.699598
0.702579
0.704634
0.70592
0.70653
0.706674
0.706589
0.627656
0.627694
0.628404
0.63021
0.633236
0.637379
0.642836
0.64996
0.659062
0.670255
0.681596
0.690786
0.69768
0.702788
0.706567
0.709219
0.710907
0.711697
0.71188
0.711786
0.614962
0.614996
0.615833
0.617985
0.621647
0.62673
0.633471
0.642292
0.653525
0.66726
0.681149
0.692368
0.700802
0.707117
0.711864
0.715239
0.71739
0.718377
0.718593
0.71848
0.599256
0.599295
0.600344
0.603037
0.607631
0.614051
0.622573
0.633676
0.647682
0.664589
0.681431
0.69495
0.705127
0.71279
0.718584
0.722767
0.725418
0.726602
0.726842
0.726705
0.579343
0.579399
0.580798
0.584342
0.590311
0.598636
0.609612
0.623729
0.641223
0.661951
0.682285
0.698462
0.710615
0.719812
0.726793
0.731861
0.735031
0.7364
0.736655
0.736488
0.553407
0.553509
0.555526
0.560495
0.568665
0.579861
0.594364
0.612568
0.634509
0.659811
0.684098
0.703171
0.71747
0.728323
0.736583
0.742591
0.746268
0.747794
0.74805
0.747852
0.518444
0.5187
0.521966
0.529556
0.541478
0.557135
0.576704
0.600286
0.627673
0.658266
0.686931
0.709153
0.725747
0.738372
0.748033
0.75501
0.759148
0.760779
0.761009
0.760778
0.468741
0.469898
0.476461
0.489435
0.507883
0.530443
0.557017
0.5874
0.621199
0.657694
0.691042
0.716541
0.735515
0.749972
0.761064
0.769028
0.773576
0.775226
0.775395
0.775124
0.395917
0.403426
0.418528
0.44133
0.46946
0.501205
0.536297
0.574506
0.615449
0.65843
0.696933
0.726083
0.747773
0.764396
0.77724
0.786299
0.791321
0.793082
0.793256
0.793025
0.318336
0.334523
0.359035
0.39238
0.430728
0.471825
0.515525
0.561805
0.610393
0.660713
0.705518
0.739443
0.76476
0.784301
0.799465
0.810005
0.815627
0.817499
0.817721
0.817632
0.25198
0.271812
0.304174
0.346496
0.393824
0.443706
0.495778
0.549986
0.606062
0.66348
0.714246
0.752634
0.781335
0.803549
0.820673
0.832253
0.838276
0.840383
0.840644
0.840621
0.197772
0.219784
0.257434
0.306209
0.360593
0.417816
0.477286
0.538758
0.601854
0.665948
0.722308
0.764781
0.79651
0.820873
0.839419
0.852115
0.859025
0.861252
0.861561
0.861596
0.15266
0.175921
0.217365
0.27117
0.331235
0.394532
0.460304
0.528195
0.597668
0.66795
0.729475
0.775654
0.809949
0.836089
0.855785
0.869387
0.876979
0.879534
0.879989
0.880061
0.114017
0.138017
0.182249
0.240147
0.305009
0.3735
0.444727
0.518303
0.593535
0.669489
0.735761
0.785276
0.821768
0.849316
0.869899
0.884135
0.89221
0.895203
0.895843
0.895939
0.0799238
0.104415
0.150827
0.212105
0.281062
0.354077
0.430165
0.508864
0.589366
0.670584
0.741239
0.793754
0.832145
0.860811
0.882124
0.896871
0.905342
0.908666
0.909413
0.9095
0.0489913
0.073883
0.122082
0.18624
0.25872
0.335709
0.416167
0.499566
0.584984
0.671142
0.745939
0.801202
0.841258
0.870863
0.892716
0.907807
0.91652
0.920053
0.920866
0.920939
0.0202975
0.0455936
0.0952814
0.161916
0.237471
0.31798
0.402392
0.490125
0.580165
0.671052
0.749836
0.807742
0.849352
0.879819
0.902123
0.917457
0.926312
0.929967
0.930801
0.930829
-0.00689967
0.0188552
0.0699121
0.138705
0.216931
0.300575
0.38858
0.480319
0.574724
0.670184
0.752901
0.81344
0.856608
0.887952
0.910708
0.92626
0.935193
0.938884
0.93975
0.939749
-0.0329486
-0.00675387
0.0455403
0.11625
0.196839
0.283288
0.374557
0.470003
0.568524
0.668431
0.755095
0.818349
0.863183
0.895471
0.918716
0.934472
0.943422
0.947046
0.947892
0.947888
-0.0582601
-0.0315112
0.0219209
0.0943281
0.177004
0.26597
0.360215
0.459081
0.561477
0.665707
0.756386
0.822537
0.869197
0.902555
0.92635
0.942316
0.951278
0.954835
0.955573
0.955511
-0.0829548
-0.0556257
-0.0011182
0.0728076
0.157329
0.24855
0.345495
0.447509
0.553539
0.661966
0.75675
0.826022
0.874739
0.909313
0.933741
0.949925
0.958836
0.962254
0.962883
0.962751
-0.107152
-0.0792241
-0.023686
0.0516201
0.13778
0.231012
0.33039
0.435274
0.544691
0.657166
0.756123
0.828782
0.879837
0.915827
0.94096
0.957333
0.966102
0.969298
0.969783
0.969598
-0.130931
-0.102366
-0.0458071
0.0307446
0.118347
0.213374
0.314931
0.422411
0.534944
0.651271
0.754424
0.830732
0.884491
0.922169
0.948087
0.964581
0.973086
0.97596
0.976293
0.976067
-0.154332
-0.125044
-0.0674878
0.0101882
0.0990744
0.195682
0.299175
0.40897
0.52433
0.644255
0.75157
0.831763
0.888658
0.928417
0.95526
0.971731
0.979747
0.982187
0.982352
0.982098
-0.177181
-0.147216
-0.0887065
-0.0100202
0.0800097
0.178013
0.283193
0.395034
0.512912
0.636142
0.747489
0.831756
0.892212
0.934611
0.962698
0.97899
0.986138
0.987928
0.987898
0.987634
-0.199438
-0.168828
-0.109423
-0.0298197
0.0612193
0.160435
0.267084
0.38069
0.500779
0.626965
0.742139
0.830559
0.894956
0.94068
0.970684
0.986847
0.99255
0.993198
0.992873
0.992642
-0.221154
-0.189837
-0.129599
-0.0491644
0.0427731
0.143038
0.250945
0.366049
0.488032
0.616797
0.735475
0.828033
0.896631
0.946339
0.979361
0.996151
1.00001
0.998464
0.997282
0.99724
-0.242152
-0.210209
-0.149172
-0.0679821
0.0247366
0.125913
0.234879
0.351229
0.474796
0.605748
0.72749
0.824044
0.896954
0.951057
0.988358
1.00765
1.01076
1.00621
1.00202
1.00006
-0.262523
-0.229935
-0.168143
-0.0863012
0.00707673
0.109014
0.218831
0.336166
0.460994
0.593746
0.718036
0.818325
0.895623
0.954175
0.996585
1.02093
1.02667
1.02134
1.00976
1.00801
-0.282171
-0.249086
-0.186646
-0.104318
-0.0105102
0.0919886
0.202367
0.320349
0.44605
0.58012
0.706404
0.810037
0.891998
0.954715
1.00166
1.03223
1.04197
1.03355
1.01576
1.0101
-0.300948
-0.267617
-0.2045
-0.121825
-0.0277712
0.0751481
0.18571
0.304117
0.430281
0.565152
0.692726
0.79871
0.885486
0.95158
0.998816
1.02904
1.04296
1.02191
0.962542
0.935875
-0.318725
-0.286288
-0.221302
-0.138298
-0.0440251
0.0589819
0.169131
0.287745
0.413974
0.54903
0.677103
0.783915
0.875321
0.944252
0.983852
1.00708
1.00513
0.958792
0.896956
0.858728
-0.363165
-0.304255
-0.236992
-0.154306
-0.0600506
0.0425757
0.152763
0.271117
0.396935
0.531436
0.659197
0.76526
0.858241
0.931692
0.956849
0.954966
0.919006
0.860476
0.793465
0.75649
-0.33834
-0.320099
-0.260587
-0.178081
-0.0843537
0.0179906
0.127417
0.244974
0.369635
0.502321
0.627945
0.731115
0.815614
0.893108
0.886419
0.790205
0.707096
0.649219
0.58784
0.618215
-0.370411
-0.338542
-0.278231
-0.196237
-0.102596
-0.000621872
0.108886
0.225724
0.349248
0.479977
0.602743
0.702179
0.777255
0.819465
0.777576
0.647801
0.545313
0.476223
0.396569
0.445845
-0.395477
-0.361083
-0.298905
-0.216722
-0.123149
-0.0212853
0.088067
0.204048
0.326121
0.454324
0.573228
0.66694
0.730392
0.737453
0.640341
0.491725
0.367777
0.279337
0.185698
0.220756
-0.419973
-0.384413
-0.320756
-0.237882
-0.144173
-0.0424392
0.0664012
0.181373
0.301788
0.427108
0.541295
0.628398
0.675464
0.650907
0.500927
0.32893
0.172708
0.041356
-0.0814251
-0.0645016
-0.444235
-0.408197
-0.343561
-0.260065
-0.166136
-0.0645845
0.0436138
0.157449
0.275948
0.398026
0.506831
0.586769
0.614326
0.549253
0.36434
0.170689
-0.0142743
-0.166576
-0.372741
-0.452563
-0.468942
-0.432902
-0.367655
-0.283674
-0.1895
-0.0880725
0.0195562
0.132238
0.248724
0.367345
0.470447
0.541454
0.546474
0.429148
0.239897
0.0327875
-0.158071
-0.319174
-0.44319
-0.566839
-0.495172
-0.459011
-0.393397
-0.309105
-0.214812
-0.113597
-0.00662975
0.104732
0.218879
0.333523
0.430465
0.490077
0.468992
0.314062
0.123198
-0.07788
-0.251921
-0.348573
-0.374666
-0.388546
-0.523071
-0.48681
-0.42092
-0.336466
-0.242227
-0.141383
-0.0353177
0.0744162
0.185793
0.295746
0.386033
0.429764
0.389133
0.203715
0.0143739
-0.166616
-0.297643
-0.335186
-0.34445
-0.344653
-0.552925
-0.516425
-0.450263
-0.36574
-0.271691
-0.171435
-0.0665251
0.0412366
0.1494
0.253956
0.336582
0.364647
0.295309
0.102193
-0.0807215
-0.237859
-0.311255
-0.325167
-0.326589
-0.326511
-0.584742
-0.547898
-0.481438
-0.396916
-0.303211
-0.203736
-0.100252
0.0051756
0.1097
0.20826
0.28181
0.296274
0.187987
0.00883829
-0.163426
-0.287802
-0.315968
-0.31661
-0.31719
-0.316858
-0.618262
-0.581044
-0.514326
-0.429902
-0.336689
-0.238221
-0.136456
-0.0337334
0.0667175
0.158802
0.222661
0.217826
0.0898761
-0.0794014
-0.230046
-0.299475
-0.314599
-0.312606
-0.312024
-0.311509
-0.652901
-0.615509
-0.548653
-0.46445
-0.371915
-0.274711
-0.174965
-0.0753363
0.0206319
0.105978
0.159768
0.137745
-0.00290173
-0.159706
-0.27651
-0.308859
-0.3093
-0.311449
-0.311439
-0.31076
-0.688227
-0.650752
-0.583928
-0.500123
-0.408506
-0.312853
-0.215467
-0.119302
-0.0282869
0.0506569
0.0916849
0.0590494
-0.0900701
-0.228582
-0.311838
-0.315775
-0.313632
-0.310244
-0.308555
-0.30821
-0.723195
-0.685861
-0.619383
-0.536248
-0.445869
-0.352122
-0.257461
-0.165085
-0.0795541
-0.00643162
0.0223981
-0.0215485
-0.169985
-0.289614
-0.338675
-0.342142
-0.321198
-0.305495
-0.300573
-0.299744
-0.756104
-0.719568
-0.653975
-0.571905
-0.483165
-0.391744
-0.300207
-0.211941
-0.13216
-0.0651789
-0.0417864
-0.108759
-0.244137
-0.351989
-0.366643
-0.351394
-0.339547
-0.32862
-0.318731
-0.314175
-0.785784
-0.750377
-0.686301
-0.605869
-0.519271
-0.430669
-0.342714
-0.258948
-0.18455
-0.125267
-0.101818
-0.185892
-0.313476
-0.415048
-0.43923
-0.404704
-0.390311
-0.386346
-0.37971
-0.375652
-0.80962
-0.776205
-0.714607
-0.636582
-0.552823
-0.467548
-0.383725
-0.304799
-0.235575
-0.184164
-0.161777
-0.237872
-0.363542
-0.444645
-0.466005
-0.469195
-0.464554
-0.466651
-0.464615
-0.460984
-0.825593
-0.794963
-0.73683
-0.662256
-0.582233
-0.500862
-0.421626
-0.347764
-0.284842
-0.237583
-0.219588
-0.2746
-0.359891
-0.453894
-0.504968
-0.550631
-0.588162
-0.594139
-0.587539
-0.585765
-0.831038
-0.804292
-0.750905
-0.68099
-0.605669
-0.529153
-0.454495
-0.386191
-0.329601
-0.286335
-0.266253
-0.334319
-0.335239
-0.314681
-0.402597
-0.581352
-0.664478
-0.663326
-0.662257
-0.662726
-0.824012
-0.801944
-0.754765
-0.69095
-0.621388
-0.550734
-0.48105
-0.417804
-0.365712
-0.335476
-0.310032
-0.437767
-0.434283
-0.280688
-0.384602
-0.619636
-0.728854
-0.726421
-0.726606
-0.726583
-0.801626
-0.785014
-0.7465
-0.690881
-0.628283
-0.563796
-0.500241
-0.440329
-0.393337
-0.369924
-0.382943
-0.574754
-0.817669
-0.985504
-1.13462
-1.21895
-1.08402
-0.900829
-0.826643
-0.833264
-0.766784
-0.755808
-0.726772
-0.680936
-0.626071
-0.567884
-0.509443
-0.453985
-0.408848
-0.386552
-0.421747
-0.687878
-1.18028
-1.71339
-1.94711
-2.02813
-1.87688
-1.61217
-1.37326
-1.29202
-0.725136
-0.718862
-0.699865
-0.663527
-0.616421
-0.563447
-0.508322
-0.455128
-0.410745
-0.385007
-0.421123
-0.615994
-0.990408
-1.45348
-1.62617
-1.60508
-1.50378
-1.3701
-1.22471
-1.14012
-0.68522
-0.681731
-0.671247
-0.643757
-0.602224
-0.552394
-0.498576
-0.442166
-0.387962
-0.35584
-0.338396
-0.370803
-0.357724
-0.336929
-0.31427
-0.31947
-0.24708
-0.165276
-0.0970578
-0.0524967
-0.653477
-0.651477
-0.646215
-0.626166
-0.588612
-0.538349
-0.48058
-0.418412
-0.348341
-0.272116
-0.20203
-0.0759973
0.152736
0.449518
0.751365
1.05228
1.32329
1.47149
1.54993
1.58225
-0.627195
-0.626419
-0.62503
-0.612815
-0.578699
-0.526214
-0.461289
-0.385771
-0.303885
-0.19719
-0.0898233
0.0933533
0.442177
0.870594
1.36428
1.79287
2.07142
2.25065
2.35941
2.39757
-0.609313
-0.608851
-0.608816
-0.602416
-0.572629
-0.516971
-0.445067
-0.357917
-0.262955
-0.155513
-0.0213606
0.0959378
0.436793
0.85251
1.31991
1.75644
2.10803
2.34555
2.46254
2.49614
-0.596405
-0.595444
-0.595193
-0.593773
-0.569552
-0.511325
-0.43075
-0.340586
-0.235934
-0.128632
-0.00469887
0.110767
0.277975
0.694239
1.12718
1.53009
1.83699
2.03026
2.11992
2.14528
-0.593155
-0.59159
-0.592107
-0.593089
-0.570444
-0.505839
-0.416363
-0.32147
-0.220972
-0.109348
0.000471102
0.128898
0.249099
0.512508
0.886351
1.20453
1.44143
1.58206
1.64076
1.65638
-0.597029
-0.598181
-0.60319
-0.60366
-0.571867
-0.492504
-0.395059
-0.29822
-0.201723
-0.0987616
0.00416689
0.107029
0.209842
0.361196
0.612133
0.849984
1.02806
1.13149
1.17614
1.18577
-0.574063
-0.58063
-0.589195
-0.5852
-0.541627
-0.453805
-0.357408
-0.266824
-0.178203
-0.0887308
-0.00339571
0.0717604
0.143015
0.253697
0.429601
0.583412
0.693839
0.758946
0.785352
0.790557
-0.472754
-0.479978
-0.488156
-0.482462
-0.442395
-0.370856
-0.296576
-0.222555
-0.152034
-0.0806357
-0.0173199
0.0393728
0.0747107
0.137323
0.262468
0.368467
0.441787
0.482025
0.497792
0.499712
-0.299129
-0.304493
-0.311016
-0.309961
-0.289888
-0.254571
-0.213617
-0.16738
-0.119066
-0.0677712
-0.0267332
0.00614093
0.0261797
0.0569655
0.13849
0.209873
0.258348
0.283503
0.293017
0.29324
-0.123504
-0.126126
-0.131438
-0.138156
-0.14124
-0.139209
-0.128754
-0.110722
-0.084928
-0.0521581
-0.0287573
-0.0135992
-0.00334577
0.0226705
0.0757427
0.116046
0.142471
0.155319
0.159857
0.159251
-0.00538203
-0.00675431
-0.0118901
-0.0238243
-0.0405557
-0.0550854
-0.0627764
-0.0626393
-0.053051
-0.0356207
-0.0219686
-0.0182062
-0.0149982
0.00837843
0.0482207
0.0701766
0.0800793
0.0834055
0.083672
0.0828021
0.0512885
0.0503756
0.0458991
0.0341235
0.0158622
-0.00315552
-0.0178956
-0.0265386
-0.0263655
-0.019472
-0.0111342
-0.0111625
-0.0121522
0.00460025
0.0316323
0.0428816
0.0483102
0.0497689
0.0496937
0.0489387
0.0692441
0.0685667
0.0651967
0.0560414
0.0410836
0.0242655
0.00937161
-0.00112132
-0.00627569
-0.00381492
0.00159317
0.00485156
0.00928362
0.0227498
0.035804
0.0394625
0.0413477
0.0417784
0.0416963
0.0408712
0.0688181
0.0683232
0.0660265
0.0598097
0.0492859
0.0364718
0.0242394
0.0145422
0.00839647
0.00856317
0.0162639
0.0239257
0.0367079
0.04451
0.0491723
0.0486671
0.0483884
0.0479132
0.0475411
0.0466668
0.0616006
0.0612428
0.0597743
0.0559031
0.049032
0.0402829
0.0309867
0.0231829
0.0178514
0.0181441
0.0274995
0.0404926
0.0597901
0.0651063
0.0613835
0.0588995
0.0589568
0.0600916
0.0602255
0.0590095
0.0530864
0.0528088
0.051879
0.049593
0.045386
0.0398151
0.0331987
0.0276704
0.0229104
0.0229064
0.0298379
0.0444219
0.0652954
0.0656681
0.0608751
0.060924
0.0636812
0.0660134
0.0671674
0.0659162
0.0456844
0.0454439
0.0448137
0.0434619
0.0409984
0.0374157
0.0332097
0.0286863
0.0244258
0.0224791
0.0236494
0.0315468
0.0458279
0.0439728
0.0425182
0.0468293
0.0539996
0.0592034
0.0605136
0.0591165
0.0402272
0.0400254
0.0395719
0.0387186
0.0372255
0.0348881
0.0319186
0.0282487
0.0240312
0.0186857
0.0103565
0.00482327
0.00168114
-0.000308488
0.00857629
0.0200495
0.0305591
0.0361944
0.0371045
0.0358463
0.0364826
0.036318
0.0359721
0.035343
0.0343903
0.0328557
0.0307883
0.0277477
0.0237889
0.0143934
-0.000325041
-0.0252308
-0.0497348
-0.0505329
-0.0297399
-0.0108644
0.000176837
0.00415059
0.00484046
0.00440091
0.0338532
0.0337259
0.0334616
0.0329154
0.0321673
0.031236
0.0298424
0.0274648
0.0240117
0.0151976
-0.000867121
-0.0329596
-0.0671801
-0.0626125
-0.038136
-0.0214308
-0.014788
-0.0135882
-0.0131458
-0.0129098
0.0317249
0.031631
0.0314788
0.03109
0.0306526
0.0300572
0.0293603
0.0284991
0.0262688
0.0213586
0.012287
-0.00703312
-0.0284835
-0.0205771
-0.00734136
-0.00143166
-0.00107094
-0.00230949
-0.00227481
-0.00238176
0.0296273
0.0295883
0.0295818
0.0294037
0.0291664
0.0288657
0.0292372
0.0297694
0.0305716
0.0318873
0.0342733
0.0377709
0.0357115
0.0415577
0.0404575
0.0351131
0.0294581
0.0271061
0.0265128
0.0264867
0.0266633
0.0266546
0.0267621
0.0268758
0.0269274
0.0274567
0.0284416
0.0308753
0.0346387
0.0422805
0.0563943
0.0842296
0.102248
0.104712
0.0912155
0.0766496
0.0694173
0.0667535
0.065424
0.064808
0.0222343
0.0222408
0.0224859
0.0229577
0.0234892
0.024376
0.0261411
0.0290489
0.0351633
0.0470692
0.0712922
0.117856
0.160342
0.154114
0.125205
0.106005
0.0993804
0.0969657
0.0950035
0.0943079
0.0163449
0.0163477
0.0166421
0.0171963
0.0182676
0.0196315
0.0214361
0.0245663
0.0297466
0.0421672
0.0690324
0.115223
0.156022
0.146515
0.123991
0.115073
0.111643
0.110908
0.108082
0.106692
0.00937003
0.00928467
0.00942961
0.0100136
0.0107063
0.0115304
0.0133306
0.0163383
0.0197194
0.0269115
0.0492276
0.0807863
0.106939
0.100217
0.0867661
0.0860771
0.0895413
0.0909127
0.0876707
0.0853718
0.00223401
0.00208733
0.00186085
0.00160326
0.00135287
0.00145611
0.00219942
0.00322039
0.00401784
0.00367896
0.00686364
0.0127324
0.018312
0.0229313
0.0264812
0.0305572
0.0218722
0.0146071
0.0155645
0.0160456
0.0720271
0.264732
0.442607
0.593835
0.7167
0.815477
0.898558
0.965855
0.983171
0.979178
0.371317
0.495982
0.613079
0.715482
0.80242
0.874755
0.931905
0.970518
0.991102
1.0075
0.575027
0.658223
0.740687
0.813546
0.876028
0.927952
0.968796
0.999769
1.02287
1.0421
0.725019
0.783552
0.843393
0.897284
0.943847
0.983369
1.0164
1.04396
1.06466
1.08359
0.843412
0.88809
0.933061
0.974618
1.01153
1.04407
1.07245
1.09643
1.11464
1.13271
0.944607
0.980768
1.01635
1.05076
1.08242
1.11102
1.13624
1.15735
1.17331
1.19081
1.03359
1.06621
1.09883
1.13033
1.15965
1.18628
1.20962
1.22873
1.24277
1.25981
1.12128
1.15412
1.18681
1.21822
1.24718
1.27314
1.29542
1.31307
1.32555
1.3421
1.21609
1.2526
1.28751
1.32012
1.34943
1.37491
1.39614
1.41251
1.4242
1.44036
1.32934
1.3699
1.40705
1.44017
1.46877
1.49286
1.51256
1.5279
1.53984
1.55593
1.47074
1.51196
1.5473
1.57698
1.60226
1.62393
1.64248
1.658
1.67115
1.6871
1.64247
1.67508
1.70194
1.72427
1.74439
1.76314
1.7809
1.79769
1.81262
1.82836
1.82895
1.84626
1.86341
1.8801
1.89621
1.91096
1.92488
1.93937
1.95462
1.97192
2.01234
2.02236
2.03558
2.04658
2.05598
2.06565
2.07627
2.08646
2.09576
2.12143
2.23031
2.22461
2.21167
2.19741
2.19112
2.19684
2.21499
2.24352
2.27728
2.31361
2.53312
2.39716
2.31767
2.27518
2.25787
2.26184
2.28927
2.34714
2.45481
2.63321
0.822364
0.816059
0.808323
0.797199
0.783615
0.770947
0.760521
0.752467
0.746692
0.743287
0.742841
0.74558
0.750737
0.758039
0.767549
0.779352
0.792896
0.805812
0.814792
0.822328
0.731453
0.73737
0.745438
0.75156
0.754615
0.754084
0.75097
0.746933
0.743283
0.740918
0.740686
0.742841
0.746515
0.750902
0.754961
0.757175
0.756079
0.751426
0.74436
0.73652
0.724746
0.727117
0.730377
0.733138
0.735571
0.737738
0.738885
0.738691
0.737688
0.736789
0.736895
0.738206
0.739906
0.741069
0.740943
0.739438
0.737253
0.734871
0.731874
0.72885
0.720013
0.721101
0.72301
0.725335
0.727189
0.728562
0.729743
0.730683
0.731206
0.731483
0.731916
0.732543
0.732917
0.732723
0.732033
0.731064
0.729698
0.727701
0.725574
0.72409
0.715064
0.715698
0.71682
0.718563
0.720385
0.721948
0.723156
0.724158
0.725052
0.725827
0.72647
0.726862
0.726891
0.726593
0.725984
0.724953
0.723481
0.721836
0.720476
0.719668
0.710237
0.710676
0.711458
0.712748
0.714247
0.715776
0.717203
0.718428
0.71948
0.720433
0.721222
0.721659
0.721702
0.721355
0.720603
0.719532
0.718319
0.71713
0.716198
0.715658
0.705525
0.705853
0.70646
0.707516
0.708788
0.710153
0.711577
0.71297
0.714253
0.715404
0.716356
0.716898
0.716948
0.71656
0.715849
0.714969
0.714046
0.713132
0.712435
0.712038
0.700908
0.701162
0.701651
0.702549
0.703698
0.70497
0.706337
0.707783
0.709241
0.710627
0.71179
0.71246
0.712581
0.712295
0.711758
0.711084
0.71035
0.709644
0.70912
0.708815
0.696324
0.696526
0.696933
0.697724
0.698799
0.700024
0.701375
0.702859
0.704443
0.70605
0.707463
0.708339
0.70864
0.708547
0.708208
0.707721
0.707158
0.706619
0.706225
0.705985
0.691696
0.691857
0.692206
0.692925
0.693952
0.695154
0.696521
0.698066
0.699773
0.701581
0.703284
0.704474
0.70506
0.705216
0.705092
0.704797
0.704413
0.704026
0.703738
0.703546
0.686946
0.687075
0.68738
0.688056
0.689069
0.690292
0.691715
0.693358
0.695241
0.697329
0.699396
0.700952
0.701862
0.702306
0.702421
0.702319
0.702101
0.70185
0.701652
0.701499
0.682007
0.682111
0.682388
0.683046
0.684078
0.685369
0.686902
0.688721
0.690849
0.693275
0.695784
0.697811
0.699108
0.699856
0.70022
0.700324
0.700272
0.700147
0.700023
0.6999
0.676796
0.676876
0.677135
0.677802
0.678893
0.680294
0.681992
0.684059
0.686536
0.689437
0.692512
0.695063
0.696787
0.697872
0.698511
0.69884
0.698955
0.698955
0.698897
0.6988
0.671232
0.67129
0.67154
0.672236
0.67342
0.674973
0.676877
0.679225
0.682114
0.685568
0.689332
0.69256
0.69483
0.696357
0.697337
0.697925
0.698221
0.698344
0.698351
0.698278
0.665216
0.665253
0.665501
0.666239
0.667537
0.669279
0.671463
0.674192
0.677583
0.681723
0.68633
0.690387
0.693335
0.695396
0.696756
0.697635
0.69818
0.698447
0.69852
0.698465
0.658628
0.658636
0.65888
0.659686
0.661151
0.663157
0.66571
0.668953
0.673033
0.678046
0.683699
0.688761
0.692488
0.695126
0.696947
0.698156
0.698952
0.699369
0.699509
0.699473
0.651247
0.651248
0.651511
0.652401
0.654062
0.656389
0.65939
0.663244
0.668166
0.674304
0.68125
0.687479
0.692144
0.695532
0.697921
0.699572
0.70067
0.701261
0.701476
0.701457
0.642843
0.642814
0.643105
0.644114
0.646037
0.648757
0.652318
0.656943
0.662868
0.67029
0.678811
0.686588
0.692441
0.696728
0.699821
0.702029
0.703501
0.704311
0.704609
0.704605
0.63313
0.63308
0.633415
0.634585
0.636817
0.640055
0.644367
0.650025
0.657338
0.666524
0.676986
0.686455
0.693634
0.698954
0.702849
0.705693
0.707622
0.708694
0.709085
0.70909
0.621573
0.621503
0.621906
0.623284
0.625924
0.629825
0.635082
0.642016
0.650982
0.662228
0.675068
0.686713
0.695559
0.702155
0.707052
0.710676
0.713169
0.714548
0.715037
0.715042
0.60745
0.607363
0.607888
0.609581
0.612794
0.617627
0.624196
0.632878
0.644075
0.658
0.673708
0.687824
0.698518
0.706552
0.712604
0.717099
0.720217
0.72193
0.722513
0.722512
0.58975
0.589652
0.590385
0.592573
0.596644
0.602815
0.611207
0.622232
0.636292
0.653524
0.672669
0.689695
0.702538
0.712202
0.719534
0.725021
0.728826
0.730879
0.731547
0.731532
0.567
0.566908
0.567988
0.570961
0.576379
0.584552
0.595584
0.609853
0.627669
0.649002
0.672197
0.692503
0.707736
0.719202
0.727937
0.734503
0.739034
0.741415
0.742154
0.74212
0.536865
0.536826
0.538526
0.54288
0.550596
0.561985
0.576936
0.595711
0.61838
0.644687
0.672525
0.696454
0.714261
0.727671
0.737917
0.745644
0.750895
0.753564
0.754346
0.754284
0.495256
0.495426
0.498493
0.505713
0.517693
0.534353
0.555147
0.580004
0.608728
0.64083
0.673826
0.701651
0.722191
0.737645
0.749514
0.758462
0.76439
0.76726
0.76803
0.767931
0.434602
0.435941
0.443395
0.457128
0.476863
0.501881
0.530886
0.563467
0.599327
0.637908
0.676406
0.70826
0.73158
0.749108
0.762555
0.772689
0.779265
0.782194
0.782855
0.782718
0.361615
0.364332
0.378789
0.402536
0.432954
0.467802
0.505728
0.546561
0.590133
0.635976
0.681041
0.718089
0.745238
0.765775
0.781581
0.793346
0.80075
0.803985
0.804789
0.804786
0.286902
0.293956
0.315613
0.349275
0.389963
0.434422
0.481267
0.530435
0.581832
0.635081
0.686929
0.729404
0.760544
0.784234
0.802662
0.816237
0.824506
0.827685
0.828384
0.828502
0.226263
0.235052
0.261377
0.30208
0.350753
0.403309
0.458177
0.515156
0.574022
0.634366
0.692626
0.740154
0.775009
0.801499
0.821975
0.836841
0.845609
0.849241
0.850445
0.850656
0.176453
0.185933
0.215695
0.261573
0.316331
0.375396
0.437026
0.500854
0.566519
0.633438
0.697707
0.749893
0.788035
0.816906
0.83898
0.855019
0.864691
0.869056
0.870476
0.870711
0.134513
0.144258
0.176341
0.226259
0.286002
0.350499
0.417851
0.487625
0.559357
0.632292
0.702077
0.758549
0.799571
0.830384
0.85374
0.870655
0.881163
0.886031
0.887655
0.887929
0.0980097
0.107864
0.141684
0.194836
0.258745
0.327909
0.400251
0.475301
0.552485
0.630919
0.705812
0.766162
0.809757
0.842166
0.866529
0.884116
0.895277
0.90058
0.902371
0.902661
0.0653999
0.0752808
0.110455
0.166279
0.233724
0.30692
0.38369
0.463504
0.545697
0.629245
0.708909
0.772844
0.818699
0.852461
0.877622
0.895778
0.907328
0.913014
0.914892
0.91518
0.0355241
0.0454325
0.0816784
0.139807
0.210289
0.287011
0.367726
0.451884
0.538734
0.627102
0.711313
0.778653
0.826585
0.861552
0.887358
0.905882
0.917693
0.923571
0.925529
0.925827
0.00751826
0.0174827
0.0547328
0.114849
0.187953
0.267771
0.352031
0.440166
0.531355
0.624325
0.712944
0.783611
0.833578
0.869708
0.89614
0.915008
0.926971
0.932968
0.934903
0.935167
-0.0191375
-0.00908789
0.029078
0.0909598
0.166365
0.248916
0.336372
0.428151
0.523396
0.62076
0.713722
0.787734
0.83978
0.877124
0.904217
0.923423
0.935534
0.94152
0.943447
0.943616
-0.0448766
-0.0346589
0.00437132
0.0678346
0.145262
0.230248
0.320592
0.415713
0.514741
0.616307
0.713567
0.791031
0.845305
0.88398
0.911812
0.93136
0.943582
0.949525
0.951383
0.951547
-0.069963
-0.0594903
-0.0196152
0.0452831
0.124494
0.211639
0.304598
0.402779
0.505319
0.6109
0.712436
0.793512
0.850224
0.890402
0.919075
0.939014
0.95134
0.957213
0.95895
0.959061
-0.09447
-0.0837384
-0.0430386
0.0231767
0.103978
0.193047
0.288353
0.389317
0.495108
0.604493
0.710277
0.795156
0.854572
0.896468
0.926104
0.946467
0.95884
0.964554
0.966135
0.966172
-0.118528
-0.107502
-0.0659982
0.00147268
0.0836825
0.174458
0.271866
0.375343
0.484113
0.597078
0.707029
0.795888
0.858322
0.902228
0.932979
0.953767
0.966111
0.971583
0.972943
0.972893
-0.142147
-0.13081
-0.0884699
-0.0198483
0.0636142
0.155901
0.255182
0.360903
0.472368
0.588645
0.702636
0.795604
0.861408
0.907715
0.9398
0.961001
0.973142
0.978208
0.979309
0.979188
-0.165354
-0.15365
-0.110455
-0.0407752
0.0438059
0.137428
0.23836
0.34607
0.459936
0.579222
0.697056
0.794202
0.863718
0.912914
0.946706
0.968329
0.980004
0.984425
0.985193
0.985003
-0.187915
-0.175952
-0.131919
-0.0612698
0.0243174
0.119121
0.221477
0.330924
0.446899
0.568874
0.690271
0.791589
0.865089
0.917718
0.953834
0.976089
0.986939
0.990262
0.990531
0.990281
-0.209978
-0.197654
-0.152815
-0.081289
0.00519271
0.10103
0.204634
0.315557
0.433355
0.557693
0.682297
0.787661
0.865325
0.921888
0.96119
0.984782
0.994644
0.99608
0.995336
0.994994
-0.231351
-0.21871
-0.173117
-0.100774
-0.0134796
0.083247
0.187923
0.3001
0.419423
0.545761
0.673177
0.782332
0.864231
0.92506
0.968454
0.9948
1.0045
1.00342
1.00026
0.999254
-0.252119
-0.23913
-0.192757
-0.119662
-0.0316553
0.0658466
0.171435
0.284641
0.405219
0.533223
0.662995
0.775525
0.861624
0.9268
0.974829
1.0057
1.01776
1.0158
1.00882
0.998699
-0.272159
-0.258903
-0.211829
-0.13812
-0.0495627
0.048529
0.154812
0.26875
0.390262
0.519538
0.651187
0.766599
0.856948
0.926609
0.979259
1.01595
1.0337
1.03367
1.02315
1.01915
-0.291422
-0.278104
-0.230316
-0.156075
-0.067174
0.0313191
0.138093
0.252414
0.374528
0.504597
0.6376
0.755147
0.849566
0.923704
0.979437
1.01995
1.04109
1.04609
1.01288
0.972926
-0.30966
-0.296588
-0.248157
-0.173401
-0.0844601
0.0141983
0.121295
0.235772
0.358099
0.488457
0.622197
0.740927
0.838562
0.917464
0.973522
1.00757
1.02917
1.01704
0.965606
0.909212
-0.329601
-0.313079
-0.265011
-0.189627
-0.101231