/*--------------------------------*- C++ -*----------------------------------*\
  =========                 |
  \\      /  F ield         | OpenFOAM: The Open Source CFD Toolbox
   \\    /   O peration     | Website:  https://openfoam.org
    \\  /    A nd           | Version:  6
     \\/     M anipulation  |
\*---------------------------------------------------------------------------*/
FoamFile
{
    version     2.0;
    format      ascii;
    class       volVectorField;
    location    "18.8";
    object      U;
}
// * * * * * * * * * * * * * * * * * * * * * * * * * * * * * * * * * * * * * //

dimensions      [0 1 -1 0 0 0 0];

internalField   nonuniform List<vector> 
8800
(
(0.987183 -0.0766631 0)
(1.00189 -0.0551862 0)
(0.999769 -0.0285453 0)
(1.00007 -0.0151279 0)
(1.00002 -0.00850564 0)
(1 -0.00501914 0)
(1.00001 -0.0030209 0)
(1.00002 -0.00173798 0)
(1.00004 -0.000834705 0)
(1.00004 -0.000123352 0)
(1.00005 0.000566791 0)
(1.00003 0.00134887 0)
(1.00002 0.00240204 0)
(1.00001 0.00396597 0)
(0.999993 0.00656564 0)
(1.00006 0.0113223 0)
(1 0.0207854 0)
(0.99917 0.038647 0)
(1.00707 0.0724458 0)
(0.771214 0.0366574 0)
(0.363112 -0.0160119 0)
(1.04334 -0.0767918 0)
(1.08462 -0.0704195 0)
(1.04517 -0.0535165 0)
(1.02325 -0.0389064 0)
(1.01201 -0.0262653 0)
(1.00632 -0.0168676 0)
(1.00353 -0.0102565 0)
(1.00217 -0.00561992 0)
(1.0015 -0.00211717 0)
(1.00136 0.00101662 0)
(1.00175 0.00423219 0)
(1.0027 0.00814194 0)
(1.00463 0.0136252 0)
(1.00866 0.0214747 0)
(1.01666 0.032452 0)
(1.03254 0.0463711 0)
(1.06275 0.0615002 0)
(1.09193 0.0759667 0)
(0.838875 0.0565091 0)
(0.216973 -0.00241612 0)
(1.07602 -0.0500211 0)
(1.09999 -0.0481509 0)
(1.0647 -0.0402114 0)
(1.03984 -0.0332946 0)
(1.02357 -0.0258026 0)
(1.01385 -0.0183895 0)
(1.00826 -0.0118106 0)
(1.00533 -0.00611795 0)
(1.00418 -0.00078276 0)
(1.0045 0.00439111 0)
(1.00642 0.0097456 0)
(1.01046 0.0157061 0)
(1.01782 0.0226268 0)
(1.03047 0.0300811 0)
(1.05079 0.0371922 0)
(1.08067 0.044037 0)
(1.10662 0.050975 0)
(0.943186 0.0414274 0)
(0.216612 0.00243205 0)
(0.175456 -0.00079844 0)
(1.01798 -0.0352796 0)
(1.10522 -0.0411483 0)
(1.07822 -0.0359632 0)
(1.05324 -0.0301179 0)
(1.03578 -0.0244838 0)
(1.02345 -0.0187408 0)
(1.01543 -0.0128076 0)
(1.01079 -0.00677572 0)
(1.00877 -0.000772021 0)
(1.00937 0.00511985 0)
(1.01247 0.0110084 0)
(1.01861 0.0168665 0)
(1.02861 0.0225389 0)
(1.0433 0.0280424 0)
(1.06402 0.0336224 0)
(1.09394 0.0395312 0)
(1.09409 0.0413599 0)
(0.828749 0.0226192 0)
(0.174852 0.000816781 0)
(0.154549 -0.000582842 0)
(0.957264 -0.0250599 0)
(1.10364 -0.0344581 0)
(1.08742 -0.0317756 0)
(1.0614 -0.0270964 0)
(1.04382 -0.0222872 0)
(1.03142 -0.0173805 0)
(1.02258 -0.0122555 0)
(1.01679 -0.00678135 0)
(1.01407 -0.000586082 0)
(1.01483 0.005706 0)
(1.01892 0.0113196 0)
(1.02603 0.0163668 0)
(1.03642 0.0211316 0)
(1.05103 0.0257565 0)
(1.07226 0.0302879 0)
(1.10078 0.0345145 0)
(1.06982 0.033002 0)
(0.742966 0.0138548 0)
(0.153649 0.000603451 0)
(0.140617 -0.000432224 0)
(0.901673 -0.0183807 0)
(1.09642 -0.0290485 0)
(1.09575 -0.0281546 0)
(1.06868 -0.0245004 0)
(1.04989 -0.0205482 0)
(1.03701 -0.0162098 0)
(1.02803 -0.0113298 0)
(1.02206 -0.00599956 0)
(1.01911 -0.000185216 0)
(1.01987 0.0056501 0)
(1.02407 0.0110107 0)
(1.03124 0.0158357 0)
(1.04181 0.0201187 0)
(1.05719 0.0239544 0)
(1.07995 0.0274952 0)
(1.10373 0.0302254 0)
(1.0394 0.0265427 0)
(0.67911 0.00952514 0)
(0.139357 0.000455761 0)
(0.130694 -0.000314647 0)
(0.854446 -0.0136019 0)
(1.08443 -0.0241844 0)
(1.10079 -0.0244374 0)
(1.0751 -0.0215406 0)
(1.05572 -0.0182799 0)
(1.04215 -0.0143579 0)
(1.03273 -0.0099555 0)
(1.02651 -0.00509128 0)
(1.02338 0.000279187 0)
(1.02406 0.00565753 0)
(1.02828 0.0104746 0)
(1.0357 0.0147268 0)
(1.0468 0.0185273 0)
(1.06286 0.0217599 0)
(1.08587 0.0244771 0)
(1.10312 0.0262614 0)
(1.00722 0.0212562 0)
(0.631281 0.00686464 0)
(0.129 0.00034287 0)
(0.123692 -0.000214154 0)
(0.816483 -0.00969525 0)
(1.07046 -0.0192221 0)
(1.10378 -0.0201776 0)
(1.08018 -0.0176276 0)
(1.06055 -0.0147787 0)
(1.04664 -0.0117884 0)
(1.03674 -0.00834535 0)
(1.0302 -0.00417507 0)
(1.02701 0.000835219 0)
(1.02749 0.00590857 0)
(1.03172 0.0101148 0)
(1.03942 0.0134396 0)
(1.05087 0.0161095 0)
(1.06712 0.0185334 0)
(1.09049 0.0209302 0)
(1.10026 0.0220294 0)
(0.976585 0.0163929 0)
(0.595758 0.00485683 0)
(0.121468 0.000248113 0)
(0.118837 -0.000147216 0)
(0.787555 -0.00659348 0)
(1.05629 -0.0146641 0)
(1.10583 -0.0163172 0)
(1.08524 -0.014458 0)
(1.06517 -0.0121731 0)
(1.05136 -0.00952179 0)
(1.0417 -0.00634514 0)
(1.03516 -0.002672 0)
(1.0317 0.0015634 0)
(1.03215 0.00573753 0)
(1.03626 0.00924834 0)
(1.04363 0.0120546 0)
(1.0547 0.0142994 0)
(1.0711 0.0161558 0)
(1.09438 0.0178852 0)
(1.09557 0.0181042 0)
(0.949581 0.0122746 0)
(0.569934 0.00335897 0)
(0.115965 0.000188967 0)
(0.115948 -5.80981e-05 0)
(0.767283 -0.00354013 0)
(1.04268 -0.00976456 0)
(1.10577 -0.0121106 0)
(1.08815 -0.0113698 0)
(1.06788 -0.00983075 0)
(1.0538 -0.00769926 0)
(1.04405 -0.00498082 0)
(1.03755 -0.00159096 0)
(1.0341 0.00237447 0)
(1.03428 0.0062422 0)
(1.03803 0.0093595 0)
(1.04519 0.0116432 0)
(1.05639 0.0133392 0)
(1.07287 0.0143491 0)
(1.09555 0.0148522 0)
(1.08863 0.0138198 0)
(0.926906 0.00807202 0)
(0.552749 0.00192293 0)
(0.112284 0.000109271 0)
(0.11506 1.61297e-05 0)
(0.755327 -0.00133872 0)
(1.03066 -0.00544305 0)
(1.10383 -0.00799107 0)
(1.08992 -0.00785468 0)
(1.07055 -0.00680178 0)
(1.0571 -0.00527253 0)
(1.04754 -0.00302442 0)
(1.04096 -0.00016913 0)
(1.03729 0.00333445 0)
(1.0372 0.00675253 0)
(1.04076 0.00918717 0)
(1.04755 0.0107117 0)
(1.05798 0.0114364 0)
(1.07367 0.011814 0)
(1.09447 0.0116868 0)
(1.08006 0.00990502 0)
(0.90948 0.00486687 0)
(0.542851 0.00101427 0)
(0.11041 4.69982e-05 0)
(0.115297 4.50105e-05 0)
(0.749121 -0.000448109 0)
(1.02196 -0.00291127 0)
(1.10164 -0.00477494 0)
(1.09104 -0.00477809 0)
(1.07208 -0.00397686 0)
(1.05894 -0.00288816 0)
(1.04986 -0.00105346 0)
(1.04361 0.00145671 0)
(1.04002 0.00451624 0)
(1.03946 0.00741805 0)
(1.04226 0.0093148 0)
(1.04827 0.0102348 0)
(1.05806 0.0103775 0)
(1.07357 0.0100978 0)
(1.09242 0.00953987 0)
(1.07175 0.00756008 0)
(0.896938 0.00360629 0)
(0.536545 0.000796219 0)
(0.109421 3.37563e-05 0)
(0.115867 4.7648e-05 0)
(0.745221 -0.000213767 0)
(1.01614 -0.00209044 0)
(1.10026 -0.00338993 0)
(1.092 -0.00318787 0)
(1.0736 -0.00220337 0)
(1.06066 -0.000928323 0)
(1.05181 0.000805508 0)
(1.04559 0.00316106 0)
(1.04181 0.0059421 0)
(1.04082 0.00836432 0)
(1.04316 0.00980486 0)
(1.04859 0.0104774 0)
(1.05773 0.0104966 0)
(1.07241 0.00998495 0)
(1.08991 0.00909889 0)
(1.06465 0.00725658 0)
(0.886641 0.00363349 0)
(0.530795 0.000886337 0)
(0.108457 4.89443e-05 0)
(0.116502 4.97777e-05 0)
(0.742094 7.54695e-05 0)
(1.01074 -0.00181882 0)
(1.09918 -0.00364265 0)
(1.09355 -0.00353203 0)
(1.07563 -0.00256419 0)
(1.06295 -0.000944428 0)
(1.05439 0.00136722 0)
(1.04831 0.00433087 0)
(1.0442 0.00758349 0)
(1.04269 0.0103403 0)
(1.04423 0.0120342 0)
(1.04884 0.0126758 0)
(1.05734 0.0124585 0)
(1.07126 0.0120361 0)
(1.08732 0.0110181 0)
(1.0569 0.0083273 0)
(0.875766 0.00392256 0)
(0.524638 0.00101041 0)
(0.10721 7.1455e-05 0)
(0.11733 6.70657e-05 0)
(0.739935 0.000561845 0)
(1.00418 -0.00105488 0)
(1.09605 -0.00394714 0)
(1.09395 -0.00477316 0)
(1.07808 -0.00404523 0)
(1.06587 -0.00195861 0)
(1.05754 0.00128086 0)
(1.05135 0.00525459 0)
(1.04677 0.009591 0)
(1.04464 0.013309 0)
(1.0455 0.0156512 0)
(1.04921 0.0168744 0)
(1.05668 0.0171399 0)
(1.06951 0.0162249 0)
(1.08224 0.0139778 0)
(1.04547 0.00914193 0)
(0.863857 0.00391293 0)
(0.518318 0.00108791 0)
(0.105676 9.05475e-05 0)
(0.118532 8.68096e-05 0)
(0.740117 0.00124936 0)
(0.997959 0.00054812 0)
(1.09006 -0.00253684 0)
(1.0937 -0.00452606 0)
(1.08035 -0.00402304 0)
(1.0698 -0.00175634 0)
(1.06201 0.00229922 0)
(1.05563 0.0071387 0)
(1.05044 0.012265 0)
(1.04747 0.0165864 0)
(1.04742 0.0192591 0)
(1.05014 0.0205922 0)
(1.05568 0.0204313 0)
(1.06624 0.0191014 0)
(1.07304 0.0150654 0)
(1.03116 0.00886235 0)
(0.852449 0.00373696 0)
(0.512172 0.00115699 0)
(0.103951 0.000104398 0)
(0.120297 0.000117929 0)
(0.742698 0.00195026 0)
(0.994639 0.00260614 0)
(1.08377 0.000649691 0)
(1.09191 -0.00143613 0)
(1.08266 -0.00121616 0)
(1.07426 0.00150015 0)
(1.06691 0.00568675 0)
(1.06021 0.0106365 0)
(1.05423 0.015745 0)
(1.05019 0.0197476 0)
(1.04902 0.0218516 0)
(1.0503 0.0223295 0)
(1.05415 0.0216514 0)
(1.06042 0.0190412 0)
(1.06163 0.0141112 0)
(1.01731 0.00817175 0)
(0.842522 0.00376603 0)
(0.506006 0.00129176 0)
(0.102029 0.000119541 0)
(0.122795 0.000160631 0)
(0.748374 0.00277574 0)
(0.995556 0.00454349 0)
(1.08067 0.00448159 0)
(1.09062 0.00385742 0)
(1.08513 0.00457334 0)
(1.07846 0.00723034 0)
(1.0716 0.0111382 0)
(1.06454 0.015688 0)
(1.05757 0.0201576 0)
(1.05222 0.0231882 0)
(1.04961 0.0240916 0)
(1.04938 0.0233086 0)
(1.05088 0.0213581 0)
(1.05334 0.0178178 0)
(1.05075 0.013059 0)
(1.00571 0.00800634 0)
(0.833554 0.00417424 0)
(0.499227 0.00153654 0)
(0.099795 0.000142715 0)
(0.126135 0.000212761 0)
(0.757099 0.00364973 0)
(0.999941 0.00648185 0)
(1.08165 0.00795205 0)
(1.09187 0.00900322 0)
(1.08817 0.0109042 0)
(1.08257 0.0139755 0)
(1.07588 0.0178325 0)
(1.06827 0.0219986 0)
(1.06007 0.0256466 0)
(1.05312 0.0274109 0)
(1.04875 0.0268992 0)
(1.0467 0.0248256 0)
(1.04608 0.0215413 0)
(1.04611 0.0176018 0)
(1.04129 0.0131861 0)
(0.995816 0.00876104 0)
(0.824376 0.00497414 0)
(0.491201 0.00188593 0)
(0.097109 0.000175011 0)
(0.130441 0.000279423 0)
(0.768666 0.00476447 0)
(1.00792 0.00871066 0)
(1.08619 0.0115766 0)
(1.09587 0.0139543 0)
(1.09265 0.0172183 0)
(1.08722 0.0211438 0)
(1.08019 0.0254181 0)
(1.0716 0.0294988 0)
(1.06176 0.0324409 0)
(1.0528 0.0329411 0)
(1.04653 0.0309736 0)
(1.04263 0.0276044 0)
(1.04028 0.0234331 0)
(1.03868 0.0190613 0)
(1.03258 0.0146805 0)
(0.986329 0.0103203 0)
(0.81394 0.00610185 0)
(0.48135 0.00234344 0)
(0.0938019 0.000216835 0)
(0.136093 0.000373561 0)
(0.783646 0.00626875 0)
(1.01914 0.0114393 0)
(1.09381 0.0155134 0)
(1.10251 0.019327 0)
(1.09893 0.0239628 0)
(1.09298 0.0290626 0)
(1.08496 0.034119 0)
(1.07479 0.0384048 0)
(1.06276 0.040846 0)
(1.05138 0.0401929 0)
(1.04301 0.0368726 0)
(1.03731 0.032183 0)
(1.03346 0.0270661 0)
(1.03067 0.0220796 0)
(1.02363 0.0173497 0)
(0.97602 0.0125752 0)
(0.801369 0.00757158 0)
(0.469164 0.00290849 0)
(0.089734 0.000267379 0)
(0.143591 0.000516531 0)
(0.803078 0.008421 0)
(1.03393 0.0151665 0)
(1.10456 0.0205608 0)
(1.11183 0.0258477 0)
(1.10729 0.0320256 0)
(1.10008 0.0385139 0)
(1.09033 0.0445373 0)
(1.07789 0.0492126 0)
(1.06308 0.0512449 0)
(1.04887 0.049422 0)
(1.03815 0.0446688 0)
(1.03061 0.0386172 0)
(1.02538 0.0323619 0)
(1.02155 0.0264952 0)
(1.01361 0.0210613 0)
(0.964014 0.0155118 0)
(0.785908 0.00942086 0)
(0.454086 0.00360138 0)
(0.084761 0.000329244 0)
(0.153703 0.000730075 0)
(0.828257 0.0115563 0)
(1.05321 0.0202876 0)
(1.11898 0.0271671 0)
(1.12422 0.0341914 0)
(1.11797 0.0422001 0)
(1.10869 0.0503015 0)
(1.09638 0.0574859 0)
(1.0809 0.062586 0)
(1.06262 0.0640914 0)
(1.04512 0.0609151 0)
(1.03181 0.0545388 0)
(1.02234 0.0469419 0)
(1.01568 0.0393132 0)
(1.01081 0.0322867 0)
(1.00182 0.0258527 0)
(0.949532 0.0192295 0)
(0.767113 0.0117203 0)
(0.435713 0.00441316 0)
(0.0787694 0.000391748 0)
(0.167716 0.00107302 0)
(0.861094 0.0162703 0)
(1.07832 0.0275135 0)
(1.13777 0.0362106 0)
(1.14033 0.0456352 0)
(1.13146 0.0558239 0)
(1.11909 0.0656672 0)
(1.10318 0.0739344 0)
(1.08373 0.0792165 0)
(1.06125 0.0798574 0)
(1.03998 0.0749794 0)
(1.0238 0.0666957 0)
(1.01222 0.0573057 0)
(1.004 0.0480556 0)
(0.997952 0.0395985 0)
(0.987645 0.0318952 0)
(0.931816 0.0238791 0)
(0.744158 0.0145662 0)
(0.413459 0.00541393 0)
(0.0716147 0.00046833 0)
(0.187855 0.00170018 0)
(0.904958 0.0238457 0)
(1.11146 0.0385309 0)
(1.16234 0.0496179 0)
(1.16073 0.0621229 0)
(1.14786 0.0746697 0)
(1.13103 0.0860547 0)
(1.11032 0.0949152 0)
(1.08599 0.0997907 0)
(1.05865 0.0989618 0)
(1.03321 0.091879 0)
(1.01392 0.0813476 0)
(1.00003 0.0699199 0)
(0.990036 0.0588311 0)
(0.982564 0.0487173 0)
(0.970499 0.0394848 0)
(0.909989 0.0297485 0)
(0.715928 0.0181802 0)
(0.386529 0.00667544 0)
(0.0631609 0.000554624 0)
(0.217438 0.00310054 0)
(0.965815 0.0372654 0)
(1.15483 0.057123 0)
(1.19391 0.0713667 0)
(1.18535 0.0869356 0)
(1.16644 0.101278 0)
(1.14357 0.113229 0)
(1.11695 0.121586 0)
(1.08696 0.124974 0)
(1.05432 0.121745 0)
(1.02448 0.111807 0)
(1.00193 0.0986651 0)
(0.985576 0.0850022 0)
(0.973605 0.0719508 0)
(0.964393 0.0600763 0)
(0.94989 0.0492061 0)
(0.883026 0.037327 0)
(0.681247 0.0228438 0)
(0.354828 0.00835495 0)
(0.0536707 0.000641375 0)
(0.258605 0.00967955 -2.4376e-21)
(1.04738 0.064657 -1.8265e-21)
(1.2065 0.0896208 4.93958e-22)
(1.22999 0.107077 0)
(1.21172 0.123855 -6.94324e-37)
(1.18526 0.137984 4.26724e-23)
(1.1553 0.148788 -2.73803e-22)
(1.12204 0.155257 0)
(1.08586 0.156103 9.97744e-36)
(1.0474 0.14978 -7.51721e-22)
(1.01266 0.136634 0)
(0.986369 0.120777 -1.07407e-21)
(0.967026 0.104894 -3.28498e-21)
(0.952502 0.0900184 -1.58979e-21)
(0.940803 0.0766705 -5.0057e-22)
(0.922957 0.0644974 -3.03347e-22)
(0.848285 0.0503713 0)
(0.636872 0.0315314 2.18439e-22)
(0.317235 0.0130345 2.59677e-22)
(0.0448159 0.00163263 4.65728e-21)
(0.284842 0.0258672 -4.66983e-21)
(1.11359 0.108965 1.03429e-22)
(1.25059 0.137513 -2.5673e-22)
(1.26236 0.1562 0)
(1.23539 0.171348 3.5497e-22)
(1.20156 0.183728 1.53759e-22)
(1.16459 0.192656 -1.83849e-22)
(1.12457 0.196994 -1.30773e-21)
(1.08178 0.195377 0)
(1.0367 0.186206 3.18653e-21)
(0.995872 0.170242 3.51603e-21)
(0.964507 0.152095 1.12946e-21)
(0.940876 0.134459 4.45387e-21)
(0.92254 0.118064 6.55603e-21)
(0.907089 0.103489 0)
(0.883802 0.0900217 9.7566e-21)
(0.803818 0.0735594 1.4292e-20)
(0.591179 0.0498613 1.60351e-20)
(0.290022 0.0242991 -1.85699e-20)
(0.040262 0.00343036 -3.46694e-22)
(0.282211 0.0425236 0)
(1.15257 0.166184 -1.45526e-21)
(1.28313 0.197488 0)
(1.28755 0.21525 2.24556e-21)
(1.25388 0.226853 0)
(1.21371 0.235774 1.0234e-21)
(1.17038 0.241465 2.20003e-22)
(1.12412 0.242669 -1.97686e-21)
(1.07519 0.237899 -3.12869e-22)
(1.024 0.225524 1.54931e-21)
(0.977605 0.206734 8.20099e-21)
(0.94167 0.186649 -5.87027e-23)
(0.914209 0.167825 -3.34781e-21)
(0.892552 0.15086 -6.49641e-21)
(0.874096 0.13586 7.88367e-21)
(0.848742 0.122123 -1.41896e-20)
(0.773873 0.103673 -1.94945e-21)
(0.577621 0.0755275 0)
(0.298267 0.0399281 2.18535e-23)
(0.0461248 0.0065169 0)
(0.273229 0.056481 -3.69719e-20)
(1.1711 0.226718 1.50639e-20)
(1.30417 0.263055 7.93997e-21)
(1.30412 0.278998 -1.49196e-21)
(1.2658 0.286731 2.26754e-21)
(1.22084 0.291641 -2.52137e-21)
(1.17246 0.293463 2.86949e-22)
(1.12089 0.290943 0)
(1.06653 0.282622 -6.13832e-21)
(1.00991 0.266762 0)
(0.958718 0.245094 -4.19148e-21)
(0.918987 0.22316 -5.88291e-21)
(0.88853 0.203382 -3.75681e-21)
(0.864466 0.186091 -4.84562e-21)
(0.8442 0.171176 0)
(0.818663 0.157299 0)
(0.750479 0.138383 -1.31126e-20)
(0.575632 0.105234 2.62909e-21)
(0.31187 0.0585311 -1.53477e-21)
(0.0527431 0.0103789 -1.81602e-21)
(0.264328 0.0690077 2.7508e-20)
(1.17685 0.286825 0)
(1.31568 0.329479 -2.23552e-20)
(1.31295 0.343892 -5.65942e-21)
(1.27137 0.347956 -4.21698e-21)
(1.22288 0.348962 0)
(1.17062 0.346875 -4.22394e-22)
(1.11485 0.340504 1.79285e-21)
(1.05597 0.328427 2.70632e-21)
(0.994717 0.308942 7.8399e-21)
(0.939549 0.284295 0)
(0.896847 0.260437 -1.28286e-20)
(0.864274 0.23964 -8.20425e-21)
(0.838686 0.221954 -4.94724e-21)
(0.817447 0.207092 3.24351e-20)
(0.79254 0.193415 3.98657e-21)
(0.731016 0.174183 1.90915e-20)
(0.572406 0.136051 -9.2436e-20)
(0.318876 0.0777265 5.51524e-20)
(0.0570089 0.0142325 -6.73848e-20)
(0.256532 0.0802133 2.91768e-20)
(1.17478 0.344669 -5.33428e-21)
(1.32013 0.39487 3.95609e-21)
(1.31573 0.408172 1.06535e-20)
(1.2718 0.408785 6.45159e-21)
(1.22066 0.406103 3.34958e-22)
(1.16533 0.400302 3.44855e-22)
(1.10612 0.39023 1.37451e-21)
(1.04359 0.374402 -5.94147e-21)
(0.978425 0.35123 0)
(0.919964 0.323444 -5.51322e-21)
(0.875057 0.297469 -3.03588e-22)
(0.841012 0.275376 -9.1823e-21)
(0.814511 0.257011 0)
(0.792923 0.241913 -7.07901e-21)
(0.769101 0.228181 -1.72441e-20)
(0.713017 0.207974 4.77616e-20)
(0.564966 0.164525 -4.77106e-20)
(0.318995 0.0944602 6.80928e-20)
(0.0582545 0.0174858 -7.17493e-20)
(0.250309 0.0906571 -1.09759e-22)
(1.16803 0.399631 6.5596e-21)
(1.31942 0.458234 1.89865e-20)
(1.31389 0.470703 -6.56237e-21)
(1.26822 0.46823 3.70013e-21)
(1.21499 0.462154 0)
(1.15719 0.452894 1.57003e-21)
(1.09514 0.439304 -1.09483e-21)
(1.02949 0.419872 -2.72964e-21)
(0.961059 0.392996 0)
(0.899691 0.361924 -5.39296e-21)
(0.852898 0.333553 -7.55965e-21)
(0.817772 0.309808 1.00492e-20)
(0.790828 0.290347 -6.43221e-21)
(0.769379 0.274536 -3.11927e-20)
(0.746746 0.260218 1.91986e-20)
(0.694606 0.238385 6.06687e-21)
(0.553413 0.189327 0)
(0.314006 0.108391 -6.61572e-20)
(0.0575647 0.0200303 -2.45985e-21)
(0.245531 0.100613 4.81119e-21)
(1.1586 0.451567 -7.56585e-21)
(1.31487 0.518877 -1.03991e-20)
(1.30858 0.530834 -2.01963e-20)
(1.26155 0.52569 1.80718e-20)
(1.20671 0.516556 -9.44577e-21)
(1.14688 0.504128 -3.30715e-21)
(1.08242 0.487239 -1.59204e-21)
(1.01397 0.464394 2.66266e-21)
(0.942566 0.433858 -1.91827e-20)
(0.878666 0.399404 -6.62453e-21)
(0.830354 0.368297 0)
(0.794537 0.342565 1.09943e-20)
(0.76746 0.321619 1.35966e-20)
(0.746286 0.304672 1.67507e-20)
(0.724663 0.289362 -2.09482e-20)
(0.675212 0.265483 -6.31733e-21)
(0.538545 0.210716 7.51695e-21)
(0.305141 0.119598 0)
(0.0557114 0.0219506 -5.36129e-21)
(0.241952 0.110182 -5.60164e-20)
(1.14786 0.500605 3.47416e-20)
(1.30766 0.576602 1.14679e-20)
(1.30069 0.588307 -1.54708e-20)
(1.25263 0.580784 1.08663e-20)
(1.19646 0.568941 -7.87587e-22)
(1.13493 0.553672 3.21016e-21)
(1.06841 0.533763 -6.82869e-22)
(0.997499 0.50771 -4.90363e-21)
(0.923374 0.473672 3.40517e-23)
(0.85723 0.435717 -1.97885e-20)
(0.807477 0.401657 1.92508e-20)
(0.771051 0.373573 -1.23212e-20)
(0.743893 0.350804 1.53281e-20)
(0.723019 0.332335 0)
(0.702176 0.315667 -1.13787e-20)
(0.654423 0.289316 -2.46117e-22)
(0.521015 0.228809 -3.28778e-20)
(0.293478 0.128354 -4.88013e-21)
(0.0529145 0.0231562 0)
(0.239386 0.11955 0)
(1.13657 0.546966 3.77675e-20)
(1.29851 0.631356 2.68293e-20)
(1.29093 0.64294 1.75052e-20)
(1.24202 0.633328 1.04394e-20)
(1.18481 0.619104 0)
(1.12187 0.601294 3.26131e-21)
(1.05355 0.57867 -2.48217e-22)
(0.980453 0.549672 1.0397e-20)
(0.903768 0.512312 -2.35791e-21)
(0.835194 0.470886 -1.45082e-20)
(0.78394 0.433711 9.65076e-21)
(0.746913 0.402929 -3.94959e-22)
(0.719712 0.377962 1.61589e-20)
(0.699153 0.35769 1.05571e-20)
(0.678905 0.339269 -2.47846e-20)
(0.632178 0.31001 3.00326e-20)
(0.501182 0.243566 9.00288e-21)
(0.279551 0.134722 3.74214e-20)
(0.0493456 0.0237273 -1.01267e-19)
(0.237699 0.128804 -1.44362e-20)
(1.12525 0.590829 2.18534e-20)
(1.28807 0.683165 -1.68031e-20)
(1.27988 0.694699 -2.03935e-20)
(1.23032 0.683237 0)
(1.17222 0.666928 8.41359e-21)
(1.10808 0.64687 -9.36015e-21)
(1.03818 0.621832 4.69103e-22)
(0.963024 0.590185 0)
(0.883779 0.549705 -3.64784e-20)
(0.812748 0.504832 3.95674e-20)
(0.75982 0.464423 0)
(0.721982 0.430697 1.46016e-20)
(0.694743 0.403179 -3.98125e-22)
(0.674475 0.380773 -3.34495e-20)
(0.654713 0.360299 1.31691e-20)
(0.608476 0.327701 0)
(0.479371 0.255153 4.87982e-20)
(0.263728 0.138789 0)
(0.0452542 0.0236769 -4.82683e-20)
(0.236702 0.137957 1.61167e-20)
(1.11423 0.632348 2.5026e-20)
(1.27677 0.732081 -1.76257e-20)
(1.26799 0.743607 0)
(1.21788 0.730503 1.45081e-20)
(1.15903 0.712364 0)
(1.09387 0.690323 1.25036e-20)
(1.02253 0.66317 1.24045e-21)
(0.945434 0.629191 1.11408e-21)
(0.863701 0.585903 -1.80216e-20)
(0.790142 0.537785 3.84705e-21)
(0.735313 0.493939 0)
(0.69636 0.456947 -3.10941e-20)
(0.668912 0.426597 4.11965e-22)
(0.6489 0.401814 0)
(0.629462 0.378992 4.90001e-22)
(0.583199 0.342589 4.42716e-20)
(0.455487 0.263531 -4.27234e-20)
(0.24611 0.140464 1.26845e-20)
(0.0406407 0.0229691 0)
(0.236036 0.146901 0)
(1.10358 0.671687 2.80416e-20)
(1.26496 0.778201 2.07413e-20)
(1.25558 0.789718 -4.44325e-22)
(1.20503 0.775163 9.12975e-21)
(1.14556 0.755423 1.99391e-20)
(1.07952 0.731654 -4.00953e-21)
(1.00688 0.702675 3.14891e-22)
(0.928 0.666688 6.43816e-21)
(0.84377 0.620935 -2.80911e-20)
(0.767427 0.569763 -6.35574e-22)
(0.710434 0.522587 -1.27405e-20)
(0.670164 0.482205 5.09984e-20)
(0.64216 0.448705 -4.93209e-22)
(0.622286 0.421159 -2.6418e-20)
(0.602978 0.395552 -4.83123e-20)
(0.556237 0.354829 0)
(0.429522 0.26884 0)
(0.226784 0.139631 1.38957e-20)
(0.0356777 0.0216328 -8.24086e-21)
(0.235844 0.155791 2.01154e-20)
(1.09347 0.708714 -6.14846e-20)
(1.25293 0.821626 -2.22512e-20)
(1.24295 0.833116 0)
(1.19203 0.817272 -3.13532e-22)
(1.13206 0.796133 2.40731e-20)
(1.06528 0.770877 -1.36317e-20)
(0.991501 0.740351 -5.39485e-21)
(0.910906 0.702673 6.74126e-21)
(0.824155 0.654827 -2.16626e-20)
(0.744825 0.600944 -3.35153e-20)
(0.685253 0.550422 3.39937e-20)
(0.643335 0.506512 0)
(0.614533 0.469657 -1.18953e-20)
(0.594589 0.438995 -2.90242e-20)
(0.575185 0.410172 -3.50439e-20)
(0.527472 0.364343 -4.25912e-20)
(0.401355 0.270885 1.27694e-20)
(0.205643 0.135954 -7.51952e-21)
(0.0303013 0.0196377 8.74024e-23)
(0.235707 0.164412 0)
(1.08401 0.743815 0)
(1.24085 0.862466 5.21512e-22)
(1.23026 0.87389 0)
(1.17907 0.856909 -3.44925e-20)
(1.1187 0.834547 -2.136e-20)
(1.0513 0.808013 0)
(0.976511 0.776193 -1.42441e-21)
(0.894304 0.737135 8.6429e-21)
(0.805058 0.687619 -4.97467e-20)
(0.722545 0.631375 0)
(0.659937 0.577798 -2.17941e-20)
(0.615778 0.530222 -6.05011e-22)
(0.585852 0.489585 -4.98513e-22)
(0.565674 0.455441 3.10286e-20)
(0.545976 0.422802 -8.09543e-23)
(0.49683 0.371102 -9.26034e-20)
(0.370805 0.269415 2.78353e-20)
(0.182858 0.12948 8.29187e-21)
(0.0245744 0.0169742 0)
(0.235619 0.172715 -7.43657e-20)
(1.07492 0.777108 -3.78418e-20)
(1.22884 0.900813 -5.60488e-20)
(1.21769 0.912141 7.75794e-20)
(1.16629 0.894139 -6.4858e-20)
(1.10562 0.870721 0)
(1.03772 0.843102 -1.17572e-20)
(0.962046 0.810222 2.64786e-21)
(0.878356 0.770101 7.54252e-22)
(0.78666 0.719317 3.92049e-21)
(0.700772 0.661193 4.2053e-20)
(0.634765 0.604815 -7.46001e-21)
(0.587736 0.553632 -3.15526e-20)
(0.556056 0.508968 -1.41603e-20)
(0.535333 0.470714 1.7286e-20)
(0.515136 0.433522 -6.47618e-23)
(0.464111 0.374833 2.54213e-20)
(0.337616 0.264131 -6.04358e-20)
(0.158391 0.120032 7.22125e-20)
(0.018782 0.0138233 1.06056e-20)
(0.235404 0.180672 2.73718e-20)
(1.06621 0.808657 -2.075e-20)
(1.21702 0.936781 1.22999e-21)
(1.20535 0.947984 4.39599e-20)
(1.15381 0.929069 1.52066e-20)
(1.09293 0.904728 4.28324e-20)
(1.02465 0.876194 -5.24762e-21)
(0.948218 0.842465 1.28338e-20)
(0.863178 0.801565 -5.0095e-21)
(0.769098 0.749931 -2.71916e-20)
(0.679713 0.690397 0)
(0.609874 0.631713 -3.35714e-20)
(0.559383 0.577152 4.58406e-20)
(0.525135 0.528132 0)
(0.503346 0.485019 -3.70396e-20)
(0.482391 0.442022 2.29682e-20)
(0.429319 0.375119 -2.75006e-20)
(0.302618 0.2548 -3.31161e-20)
(0.133365 0.10809 -5.88135e-20)
(0.0131237 0.0103196 -4.64805e-20)
(0.23536 0.188376 -3.01697e-20)
(1.05772 0.838452 2.22127e-20)
(1.20546 0.970453 5.25612e-20)
(1.19331 0.981508 6.05618e-20)
(1.14171 0.961787 -3.18885e-20)
(1.0807 0.936651 2.96621e-20)
(1.01214 0.907339 -1.63461e-20)
(0.935094 0.872959 1.6081e-20)
(0.848835 0.831541 -1.69106e-21)
(0.752494 0.779446 2.59977e-20)
(0.659562 0.719068 8.94444e-20)
(0.585556 0.658583 0)
(0.530897 0.600966 0)
(0.49305 0.547656 -1.64044e-20)
(0.469232 0.498726 0)
(0.447063 0.448016 5.00563e-20)
(0.392147 0.370733 6.01426e-20)
(0.266569 0.240566 0)
(0.10908 0.0938606 0)
(0.00808293 0.00679424 5.06218e-20)
(0.235038 0.195548 3.33587e-20)
(1.04948 0.866506 2.67126e-20)
(1.19421 1.00195 3.78578e-20)
(1.18164 1.01284 -5.42257e-20)
(1.13004 0.992397 -3.5649e-20)
(1.06898 0.966562 -3.94561e-20)
(1.00026 0.936599 2.43173e-20)
(0.922715 0.901732 1.05844e-22)
(0.835394 0.860035 -9.72623e-22)
(0.736943 0.807842 -1.23621e-21)
(0.640491 0.747163 4.53482e-20)
(0.562068 0.685441 0)
(0.502638 0.625435 4.63563e-20)
(0.459977 0.568154 3.46311e-20)
(0.432478 0.512715 8.84283e-20)
(0.407787 0.45115 2.70467e-20)
(0.351596 0.359516 -3.32146e-20)
(0.231244 0.219045 -1.95556e-20)
(0.0894813 0.0772568 0)
(0.00472366 0.00363632 5.50539e-20)
(0.234922 0.202633 -7.36179e-20)
(1.04147 0.892925 0)
(1.18329 1.03134 4.24301e-20)
(1.17037 1.04208 -4.45437e-20)
(1.11884 1.02099 4.04859e-20)
(1.0578 0.994548 5.78007e-20)
(0.989016 0.96403 -5.66009e-20)
(0.911107 0.928823 5.02086e-22)
(0.82288 0.887052 0)
(0.722499 0.835076 -2.42901e-20)
(0.622655 0.774643 -9.40787e-20)
(0.539645 0.712358 4.58897e-21)
(0.47504 0.650571 6.30667e-20)
(0.426318 0.590278 0)
(0.392685 0.528225 5.97499e-20)
(0.362469 0.452557 0)
(0.303695 0.339003 0)
(0.19658 0.181784 -2.17926e-20)
(0.0912403 0.0472322 0)
(0.0234513 0.00650706 1.48723e-20)
(0.23445 0.209082 -8.06323e-20)
(1.03368 0.918038 0)
(1.17268 1.05884 6.89127e-20)
(1.15947 1.06944 0)
(1.10808 1.04782 -2.20537e-20)
(1.04709 1.02088 0)
(0.978356 0.989936 -4.25467e-21)
(0.900178 0.954561 -2.85599e-21)
(0.811181 0.912948 -2.97413e-23)
(0.709025 0.861522 -2.38591e-20)
(0.605929 0.801945 2.47049e-21)
(0.518204 0.73982 3.79727e-20)
(0.447974 0.676907 6.1144e-20)
(0.391969 0.614974 8.7326e-21)
(0.348992 0.547502 4.68222e-20)
(0.308084 0.455657 0)
(0.237515 0.312084 7.25853e-20)
(0.137229 0.11845 -4.3204e-20)
(0.0456661 0.0685849 4.99743e-20)
(-0.0339337 0.418462 -5.92808e-20)
(0.233927 0.215273 6.5877e-20)
(1.02589 0.941691 1.0223e-19)
(1.16231 1.08475 0)
(1.14882 1.09536 1.02714e-21)
(1.09759 1.07345 6.00169e-20)
(1.03664 1.04622 -1.12443e-19)
(0.967998 1.01508 -2.51013e-20)
(0.889571 0.979858 0)
(0.799837 0.938791 -4.81141e-21)
(0.695935 0.888466 -7.18541e-22)
(0.589524 0.830526 0)
(0.496735 0.769623 0)
(0.420254 0.706285 5.36028e-20)
(0.356051 0.644313 -2.72523e-20)
(0.299368 0.574397 -4.66963e-20)
(0.241453 0.468091 0)
(0.131687 0.295441 3.73046e-20)
(0.0254484 0.453475 -4.40242e-20)
(0.0448983 1.82519 -2.40535e-20)
(0.0746688 2.77237 -2.94892e-20)
(0.233072 0.220883 -4.84473e-20)
(1.01821 0.964069 -1.29403e-19)
(1.15219 1.10908 3.99366e-20)
(1.13844 1.11969 3.81395e-20)
(1.08744 1.09768 0)
(1.02649 1.07031 -8.06935e-20)
(0.958121 1.03917 -4.21851e-20)
(0.879442 1.00429 1.92557e-21)
(0.789083 0.964065 -6.39359e-22)
(0.683567 0.915288 1.80355e-20)
(0.573996 0.859615 4.17834e-20)
(0.47618 0.801264 3.89503e-20)
(0.393074 0.738088 5.25986e-20)
(0.321155 0.676445 -6.20783e-20)
(0.249741 0.611275 -6.90594e-20)
(0.163161 0.503254 0)
(0.0685857 0.83916 0)
(0.117449 2.50828 1.95129e-20)
(0.122613 3.17413 0)
(0.122529 3.37518 4.89828e-20)
(0.234987 0.226157 0)
(1.01088 0.985462 0)
(1.14203 1.13169 0)
(1.12813 1.14225 1.06585e-20)
(1.07738 1.12031 5.38719e-20)
(1.01646 1.09301 -6.1793e-20)
(0.948647 1.06211 -3.02891e-20)
(0.869722 1.02775 2.20007e-21)
(0.778852 0.988597 -1.27016e-20)
(0.671909 0.94181 -2.11595e-21)
(0.559415 0.889 7.52313e-20)
(0.456915 0.834504 -4.57577e-21)
(0.36688 0.772842 5.92515e-21)
(0.288973 0.708094 8.8507e-21)
(0.204304 0.656329 5.20397e-22)
(0.130386 0.956254 3.2884e-22)
(0.164387 2.65008 -9.69232e-20)
(0.179168 3.27865 -3.67795e-20)
(0.163212 3.42363 1.79387e-20)
(0.146414 3.44746 -1.89763e-20)
(0.157452 0.171353 2.86874e-20)
(0.99846 1.00875 0)
(1.13179 1.15282 -7.8547e-20)
(1.11835 1.16342 -9.91771e-20)
(1.0678 1.14183 1.1219e-19)
(1.00714 1.11474 6.5568e-20)
(0.939376 1.08391 3.57236e-20)
(0.860429 1.05027 -3.83018e-20)
(0.769258 1.01238 1.40039e-20)
(0.661259 0.967942 0)
(0.546235 0.918451 3.23995e-20)
(0.439607 0.868704 -2.90069e-20)
(0.342187 0.8127 0)
(0.261002 0.744818 7.96188e-21)
(0.183289 0.868257 1.95486e-20)
(0.178528 2.37264 -2.34604e-20)
(0.245714 3.31658 2.67915e-20)
(0.222632 3.44383 1.31994e-20)
(0.184876 3.46609 1.53444e-20)
(0.160021 3.47587 2.02601e-20)
(0.268028 0.261574 -5.6145e-20)
(0.979173 1.01603 0)
(1.11302 1.17634 8.15059e-20)
(1.10489 1.19511 1.03819e-19)
(1.05257 1.17367 -1.16707e-19)
(0.991846 1.1471 -7.04307e-20)
(0.923476 1.1176 -5.5153e-20)
(0.844324 1.08524 -2.83725e-21)
(0.752398 1.04964 -2.06218e-20)
(0.64252 1.00953 1.12573e-21)
(0.523681 0.96682 1.22128e-21)
(0.410603 0.926041 2.19777e-20)
(0.301626 0.886341 4.78794e-21)
(0.233885 1.00645 -6.95589e-21)
(0.253671 2.24326 -1.63998e-20)
(0.316085 3.32273 1.26862e-20)
(0.302789 3.48139 -1.18498e-20)
(0.26335 3.50259 -6.90941e-21)
(0.223778 3.52872 -9.73028e-22)
(0.169965 3.52068 -4.15208e-22)
(0.257057 0.259517 0)
(0.975439 1.03697 2.15246e-20)
(1.10458 1.1983 -1.61137e-20)
(1.09489 1.21694 -1.1559e-20)
(1.04287 1.19554 -7.65625e-20)
(0.982452 1.16919 6.86797e-20)
(0.91402 1.13991 3.71379e-20)
(0.835057 1.10842 -2.98593e-21)
(0.743194 1.07438 2.57197e-20)
(0.632942 1.03734 -2.96398e-21)
(0.512701 0.999685 -3.98956e-20)
(0.397069 0.965488 3.11401e-21)
(0.291226 0.95297 -4.11287e-21)
(0.275828 1.44687 -5.6644e-21)
(0.354703 3.05324 3.87501e-21)
(0.383763 3.4795 5.16509e-22)
(0.334683 3.54471 -1.04646e-21)
(0.295626 3.56467 -6.07625e-21)
(0.243007 3.58631 1.27288e-20)
(0.182732 3.58012 5.08332e-21)
(0.242137 0.25628 5.32781e-20)
(0.970539 1.06013 1.44173e-19)
(1.09557 1.22205 -4.58918e-20)
(1.08456 1.24023 -4.3806e-20)
(1.03285 1.2187 0)
(0.972717 1.19235 1.00525e-19)
(0.904492 1.16332 5.66783e-20)
(0.82599 1.13261 -3.15107e-21)
(0.734509 1.10016 2.67409e-21)
(0.624393 1.06631 1.313e-20)
(0.503562 1.0341 -1.13723e-20)
(0.387453 1.00769 -2.07823e-20)
(0.29986 1.07222 -2.64061e-20)
(0.349344 2.07872 2.8645e-20)
(0.446205 3.37775 1.42396e-20)
(0.431826 3.55277 0)
(0.373979 3.59392 0)
(0.331114 3.63381 1.1956e-20)
(0.268221 3.69002 0)
(0.193287 3.66227 2.84662e-20)
(0.231263 0.256777 -7.7535e-20)
(0.963508 1.08381 -1.19646e-19)
(1.08518 1.24685 0)
(1.07312 1.26432 1.18654e-21)
(1.02173 1.2424 -7.43754e-20)
(0.962003 1.21593 1.49302e-19)
(0.894314 1.18712 3.81494e-20)
(0.816522 1.1571 -3.93449e-21)
(0.725691 1.12615 2.91849e-20)
(0.616145 1.09541 -1.49306e-21)
(0.495499 1.06877 0)
(0.381473 1.05258 0)
(0.331872 1.28082 -1.83031e-20)
(0.440718 2.75077 5.47006e-21)
(0.527626 3.50701 -2.34266e-21)
(0.476429 3.59796 0)
(0.430824 3.65303 3.25554e-20)
(0.372401 3.718 -4.96318e-20)