/*--------------------------------*- C++ -*----------------------------------*\
  =========                 |
  \\      /  F ield         | OpenFOAM: The Open Source CFD Toolbox
   \\    /   O peration     | Website:  https://openfoam.org
    \\  /    A nd           | Version:  6
     \\/     M anipulation  |
\*---------------------------------------------------------------------------*/
FoamFile
{
    version     2.0;
    format      ascii;
    class       surfaceScalarField;
    location    "56";
    object      phi;
}
// * * * * * * * * * * * * * * * * * * * * * * * * * * * * * * * * * * * * * //

dimensions      [0 3 -1 0 0 0 0];

internalField   nonuniform List<scalar> 
17370
(
-0.0900015
0.0898515
0.289161
-0.0714662
0.0537572
0.364484
-0.0381253
0.0276973
0.426596
-0.0196471
0.0146155
0.504283
-0.0107747
0.00828493
0.601892
-0.00628559
0.00490936
0.720434
-0.0037458
0.00290547
0.863747
-0.00216407
0.001605
1.03601
-0.0010885
0.000676107
1.24292
-0.000268206
-0.000123518
1.49158
0.0005021
-0.000909979
1.4916
0.00130614
-0.00179624
1.24318
0.00232792
-0.00303938
1.03635
0.00385642
-0.00500151
0.864052
0.00636737
-0.00835985
0.72105
0.0108446
-0.0146802
0.60305
0.0197073
-0.0277524
0.507484
0.0381752
-0.0538
0.431793
0.0715014
-0.089875
0.365149
0.0900154
0.198995
-0.128133
0.0882197
0.0399131
-0.364595
0.353371
-0.0746812
0.0859055
-0.446474
0.454315
-0.0844062
0.0765649
-0.521188
0.529896
-0.0684707
0.0597633
-0.612786
0.621562
-0.051578
0.0428023
-0.726892
0.734158
-0.0353445
0.0280782
-0.867472
0.872585
-0.02248
0.0173672
-1.03847
1.04192
-0.0135597
0.0101126
-1.2446
1.24703
-0.00750447
0.00507464
-1.49262
1.4946
-0.00312986
0.00115471
-1.4925
1.49422
0.000525101
-0.00224967
-1.24398
1.24586
0.00415162
-0.00603437
-1.03751
1.04005
0.00839217
-0.0109274
-0.866102
0.869836
0.0142901
-0.0180242
-0.724394
0.729939
0.0230668
-0.0286122
-0.6087
0.616117
0.0358299
-0.0432464
-0.5149
0.523046
0.0519781
-0.0601238
-0.439858
0.447919
0.0687893
-0.0768499
-0.375298
0.376744
0.0846522
-0.0860986
-0.257334
0.222485
0.0748127
-0.0399644
-0.0685098
0.0586807
0.00982914
-0.0518314
0.0584211
-0.374118
0.367528
-0.057511
0.0537634
-0.453588
0.457335
-0.048678
0.0447301
-0.527939
0.531887
-0.0408954
0.0372612
-0.621555
0.625189
-0.0331648
0.0290941
-0.73534
0.73941
-0.024529
0.0203738
-0.87433
0.878485
-0.0160321
0.0123414
-1.04348
1.04717
-0.00860755
0.0054374
-1.24855
1.25172
-0.00211171
-0.000960694
-1.49666
1.49973
0.00400797
-0.00727258
-1.49721
1.50047
0.0103531
-0.0139638
-1.25008
1.25369
0.0175308
-0.0217317
-1.04593
1.05013
0.0257631
-0.0302049
-0.877774
0.882216
0.0341775
-0.038179
-0.739912
0.743913
0.0417334
-0.0454856
-0.626784
0.630536
0.0493628
-0.0543809
-0.534818
0.539836
0.0580556
-0.058873
-0.457482
0.4583
0.0521751
-0.031981
-0.335765
0.31557
0.0098853
-0.0683555
0.0584702
-0.0529268
0.0489279
0.00399886
-0.0331848
0.0437402
-0.358087
0.347532
-0.0474473
0.0468263
-0.45927
0.459891
-0.0437763
0.0404288
-0.535786
0.539134
-0.0366627
0.0333653
-0.62851
0.631807
-0.0299354
0.0269108
-0.742627
0.745652
-0.0236596
0.0205591
-0.881996
0.885097
-0.0170354
0.0136619
-1.05075
1.05413
-0.00987481
0.00634053
-1.25515
1.25869
-0.00237489
-0.00142101
-1.50324
1.50703
0.00518606
-0.00905925
-1.50414
1.50802
0.0124682
-0.016086
-1.25744
1.26105
0.0192883
-0.0226162
-1.05394
1.05727
0.0255424
-0.0286163
-0.885715
0.888789
0.0314965
-0.0347858
-0.747181
0.75047
0.037966
-0.0416122
-0.634327
0.637973
0.0448569
-0.0477899
-0.544151
0.547084
0.0482884
-0.0444088
-0.456593
0.452713
0.0336474
-0.0162095
-0.296217
0.278779
0.00406823
-0.0526539
0.0485857
-0.0458466
0.0433474
0.00249915
-0.0228335
0.0332259
-0.336831
0.326438
-0.0390599
0.0400851
-0.459569
0.458544
-0.0389025
0.0366216
-0.541848
0.544129
-0.0339621
0.0313749
-0.634852
0.637439
-0.0283227
0.0254341
-0.74869
0.751579
-0.0221812
0.0191978
-0.888041
0.891024
-0.0159029
0.0128114
-1.05725
1.06034
-0.00929275
0.00589021
-1.26214
1.26554
-0.00193349
-0.0019457
-1.51091
1.51479
0.00578436
-0.00961969
-1.51191
1.51575
0.0128587
-0.0161565
-1.26449
1.26779
0.0190235
-0.0220598
-1.06037
1.0634
0.0248106
-0.027825
-0.891856
0.89487
0.0305182
-0.0333793
-0.753688
0.75655
0.035808
-0.0383069
-0.641048
0.643546
0.0404487
-0.0414488
-0.548896
0.549896
0.0402335
-0.0341222
-0.447444
0.441333
0.0234272
-0.010223
-0.263573
0.250369
0.00258485
-0.0454269
0.0428421
-0.0412683
0.039497
0.0017713
-0.0167777
0.0260458
-0.31657
0.307302
-0.0326684
0.0348203
-0.456933
0.454781
-0.0344101
0.0327489
-0.546098
0.547759
-0.0305803
0.0284982
-0.639737
0.641819
-0.026083
0.0237
-0.754213
0.756596
-0.0208561
0.0180785
-0.893906
0.896684
-0.0148538
0.0117945
-1.06337
1.06643
-0.0083145
0.00499665
-1.26885
1.27217
-0.00116893
-0.0025629
-1.51857
1.5223
0.00624317
-0.00991611
-1.51949
1.52316
0.0130248
-0.0162221
-1.27105
1.27424
0.0189935
-0.0218861
-1.06643
1.06933
0.0243642
-0.0269004
-0.8977
0.900236
0.0290307
-0.0311992
-0.759012
0.761181
0.0330787
-0.0350415
-0.645709
0.647672
0.0365011
-0.0366641
-0.550423
0.550586
0.0342204
-0.0271925
-0.434682
0.427654
0.0175176
-0.0073909
-0.238853
0.228727
0.00187579
-0.0406683
0.0387925
-0.0379704
0.0366362
0.00133411
-0.0128218
0.0207871
-0.298691
0.290726
-0.027558
0.0304957
-0.452207
0.449269
-0.0307128
0.0296044
-0.54918
0.550288
-0.0276228
0.0257191
-0.643845
0.645749
-0.0235343
0.0214111
-0.758824
0.760947
-0.0189118
0.0164433
-0.899242
0.901711
-0.0135176
0.0106527
-1.06935
1.07221
-0.00730454
0.00407352
-1.27541
1.27864
-0.000333914
-0.00329086
-1.52595
1.52957
0.00685123
-0.0103981
-1.52676
1.53031
0.0133699
-0.0163686
-1.27737
1.28037
0.0188767
-0.0213885
-1.07206
1.07457
0.0234811
-0.0255915
-0.902545
0.904655
0.0273934
-0.029263
-0.763181
0.765051
0.0309108
-0.0326449
-0.6495
0.651234
0.0334593
-0.0328969
-0.550389
0.549827
0.0295427
-0.022218
-0.420421
0.413097
0.013731
-0.00572305
-0.219761
0.211753
0.00146101
-0.0371506
0.0356896
-0.0354703
0.0344405
0.00102979
-0.0100294
0.0167663
-0.283401
0.276664
-0.0232742
0.0266673
-0.446085
0.442692
-0.0274668
0.0267814
-0.551181
0.551866
-0.0250384
0.0232701
-0.647635
0.649403
-0.0212192
0.0192205
-0.763004
0.765003
-0.0168669
0.0145539
-0.904028
0.906341
-0.0118285
0.00915466
-1.07491
1.07758
-0.00600898
0.00293497
-1.28175
1.28482
0.00066543
-0.00417168
-1.53312
1.53662
0.00759864
-0.0109612
-1.53376
1.53712
0.013715
-0.016428
-1.28324
1.28596
0.0186597
-0.020872
-1.07695
1.07917
0.0227185
-0.024591
-0.906657
0.908529
0.0261927
-0.0278536
-0.76682
0.768481
0.0293048
-0.0307053
-0.652822
0.654222
0.0310261
-0.0297363
-0.548913
0.547624
0.0257704
-0.0185346
-0.405791
0.398555
0.0111431
-0.00461582
-0.204556
0.198029
0.00118419
-0.0343837
0.0331995
-0.0335359
0.0327321
0.000803767
-0.00796027
0.0136271
-0.270492
0.264826
-0.0196528
0.0232461
-0.439191
0.435597
-0.0245262
0.0240917
-0.552464
0.552899
-0.0226182
0.0209608
-0.65117
0.652828
-0.0190041
0.0170898
-0.766953
0.768867
-0.0148288
0.0126079
-0.908538
0.910759
-0.0099953
0.00744221
-1.08012
1.08267
-0.00444772
0.00152216
-1.28777
1.29069
0.00190489
-0.00523808
-1.54002
1.54335
0.00847362
-0.0116077
-1.54036
1.54349
0.0141412
-0.0166081
-1.28855
1.29102
0.0186218
-0.020606
-1.0813
1.08329
0.0222524
-0.0239182
-0.910323
0.911989
0.0253409
-0.0268144
-0.770045
0.771519
0.0280765
-0.0291086
-0.655413
0.656446
0.0290615
-0.0271142
-0.546007
0.54406
0.0227575
-0.0157996
-0.391455
0.384497
0.00932074
-0.00384702
-0.19208
0.186606
0.000991379
-0.032125
0.0311336
-0.0320258
0.031397
0.000628764
-0.00636499
0.011119
-0.259644
0.25489
-0.0165591
0.0201576
-0.432005
0.428406
-0.021766
0.0215602
-0.553263
0.553469
-0.0203211
0.018721
-0.65451
0.65611
-0.0168225
0.0149626
-0.770744
0.772604
-0.0127674
0.0106099
-0.912866
0.915023
-0.00806808
0.00558573
-1.0851
1.08759
-0.00268451
-0.000128741
-1.2935
1.29631
0.00339075
-0.0065316
-1.54655
1.54969
0.00955414
-0.0124623
-1.54649
1.5494
0.0148014
-0.0170643
-1.2934
1.29566
0.0188936
-0.0206721
-1.08522
1.08699
0.0221286
-0.0235956
-0.913585
0.915053
0.024852
-0.0261538
-0.772915
0.774216
0.0272745
-0.0278969
-0.657259
0.657881
0.0274851
-0.0249861
-0.541851
0.539352
0.0203942
-0.0137799
-0.377723
0.371109
0.00802461
-0.00330735
-0.18155
0.176833
0.000856651
-0.0302209
0.0293643
-0.030848
0.0303609
0.0004871
-0.00508189
0.00904953
-0.250557
0.24659
-0.0138601
0.0173157
-0.424891
0.421435
-0.0191158
0.0191101
-0.553624
0.55363
-0.018075
0.01652
-0.657757
0.659312
-0.0146519
0.0128113
-0.774436
0.776277
-0.0106367
0.00850483
-0.917076
0.919207
-0.00600531
0.00357653
-1.08995
1.09238
-0.000750802
-0.00197622
-1.29902
1.30175
0.00511869
-0.00811672
-1.55271
1.55571
0.0109693
-0.0136773
-1.55219
1.5549
0.0158248
-0.0178715
-1.29783
1.29988
0.0195023
-0.021068
-1.08873
1.0903
0.0223434
-0.0236343
-0.916459
0.91775
0.024746
-0.0258913
-0.775436
0.776581
0.0268192
-0.0270779
-0.658302
0.658561
0.0262711
-0.0233073
-0.536634
0.53367
0.0185822
-0.0123069
-0.364685
0.35841
0.00710789
-0.00293221
-0.172421
0.168245
0.000764478
-0.0285645
0.0278
-0.0299419
0.0295744
0.000367453
-0.00400852
0.00728653
-0.242993
0.239715
-0.0114572
0.0146604
-0.418127
0.414923
-0.0165222
0.016673
-0.553616
0.553466
-0.0157137
0.0142283
-0.660907
0.662393
-0.0123511
0.0104947
-0.778104
0.77996
-0.00830982
0.00618029
-0.921231
0.923361
-0.00369643
0.00129444
-1.09469
1.0971
0.00148468
-0.00414617
-1.30437
1.30703
0.00718275
-0.0100432
-1.5586
1.56146
0.0127287
-0.0152419
-1.55748
1.56
0.017206
-0.0190487
-1.30183
1.30367
0.0204921
-0.0218506
-1.09183
1.09319
0.0229396
-0.0240468
-0.918988
0.920096
0.0250127
-0.0259977
-0.777649
0.778634
0.0266841
-0.0266499
-0.658691
0.658657
0.0254379
-0.0220696
-0.530523
0.527154
0.0172589
-0.0112707
-0.352308
0.346319
0.00648096
-0.00268221
-0.16429
0.160491
0.000705017
-0.0270763
0.0263713
-0.0292678
0.0290068
0.000261006
-0.00306908
0.00572523
-0.236773
0.234117
-0.00925708
0.0121283
-0.411912
0.409041
-0.0139467
0.0141924
-0.553337
0.553091
-0.0132908
0.0118585
-0.663938
0.66537
-0.00996468
0.00807084
-0.781803
0.783697
-0.00583642
0.00366221
-0.925391
0.927565
-0.00113816
-0.00128325
-1.0994
1.10182
0.00405762
-0.00668554
-1.30959
1.31222
0.00964876
-0.0124002
-1.56421
1.56696
0.0149392
-0.0172683
-1.56239
1.56472
0.0190515
-0.0206914
-1.30542
1.30706
0.0219513
-0.023112
-1.09454
1.0957
0.0240266
-0.0249579
-0.921164
0.922095
0.0257743
-0.0265805
-0.779524
0.78033
0.0269765
-0.0266805
-0.658487
0.658191
0.0250238
-0.0212676
-0.523612
0.519856
0.0163754
-0.0105955
-0.340472
0.334692
0.0060854
-0.00253164
-0.156846
0.153292
0.000671884
-0.0256945
0.0250226
-0.0288036
0.0286439
0.000159746
-0.00219888
0.00427137
-0.231777
0.229704
-0.007159
0.00962539
-0.406404
0.403938
-0.0112861
0.0115404
-0.55292
0.552666
-0.0106544
0.00923173
-0.66689
0.668313
-0.00728675
0.00532336
-0.78558
0.787544
-0.0030109
0.000775171
-0.929637
0.931873
0.00180248
-0.00425973
-1.10414
1.10659
0.00705731
-0.00968557
-1.31476
1.31739
0.0126138
-0.0152868
-1.56962
1.57229
0.0177022
-0.0198606
-1.56693
1.56909
0.0214645
-0.0228906
-1.3086
1.31003
0.0239448
-0.0248659
-1.09687
1.09779
0.0255658
-0.0262971
-0.922981
0.923713
0.0269639
-0.0276319
-0.781032
0.781701
0.0277283
-0.0270688
-0.657668
0.657009
0.0249896
-0.0208618
-0.515958
0.511831
0.0158718
-0.0102141
-0.329021
0.323364
0.00587276
-0.00245852
-0.149842
0.146428
0.000658824
-0.0243703
0.0237115
-0.0285416
0.028484
5.76242e-05
-0.00135147
0.00285562
-0.227939
0.226434
-0.00508693
0.00708936
-0.401739
0.399737
-0.008496
0.00868017
-0.552548
0.552364
-0.00776065
0.00630438
-0.669866
0.671322
-0.00426562
0.00219979
-0.789499
0.791565
0.000230684
-0.00257104
-0.934004
0.936344
0.00525589
-0.00779655
-1.10896
1.1115
0.0106576
-0.0133062
-1.31993
1.32258
0.0162018
-0.018785
-1.57485
1.57744
0.0210577
-0.023027
-1.57111
1.57308
0.0244441
-0.02566
-1.31135
1.31257
0.0265183
-0.0272177
-1.09874
1.09944
0.0277118
-0.0282284
-0.924411
0.924927
0.0287296
-0.0291935
-0.782195
0.782659
0.029015
-0.0279393
-0.656104
0.655029
0.0254008
-0.0208714
-0.507572
0.503042
0.015733
-0.0100979
-0.317775
0.31214
0.0058215
-0.00245408
-0.143074
0.139706
0.000664143
-0.0230643
0.0224001
-0.0284841
0.0285355
-5.1463e-05
-0.00047548
0.00140454
-0.22524
0.224311
-0.00295048
0.00442213
-0.398037
0.396566
-0.00547355
0.00551158
-0.552373
0.552335
-0.00452122
0.00299662
-0.672941
0.674466
-0.000849434
-0.00135179
-0.79362
0.795821
0.00394811
-0.00644049
-0.938589
0.941081
0.00928047
-0.0119429
-1.11395
1.11661
0.0149067
-0.0176138
-1.32514
1.32785
0.0205243
-0.0230609
-1.57992
1.58246
0.0252215
-0.0270108
-1.57492
1.57671
0.0282347
-0.0292192
-1.31367
1.31465
0.0298545
-0.0303
-1.10018
1.10063
0.0305673
-0.0308567
-0.925417
0.925706
0.0311653
-0.031354
-0.782827
0.783016
0.0308973
-0.0293048
-0.653697
0.652104
0.0262674
-0.0212974
-0.498396
0.493426
0.0159456
-0.010227
-0.306534
0.300815
0.00591667
-0.00251129
-0.136361
0.132956
0.000685729
-0.021741
0.0210552
-0.0286437
0.0288124
-0.000168607
0.000451615
-0.000134692
-0.223706
0.223389
-0.000678226
0.00154218
-0.395432
0.394568
-0.00212418
0.00191035
-0.552572
0.552786
-0.000758174
-0.000914255
-0.676214
0.677886
0.00323204
-0.00561453
-0.798012
0.800394
0.00841423
-0.0110845
-0.943467
0.946137
0.0141082
-0.0169233
-1.11919
1.122
0.020029
-0.0228259
-1.33049
1.33328
0.0257682
-0.0282534
-1.5849
1.58738
0.0302887
-0.031884
-1.57836
1.57995
0.0328993
-0.0336258
-1.31548
1.31621
0.0340189
-0.034201
-1.1011
1.10128
0.0342224
-0.0342571
-0.92596
0.925995
0.0343676
-0.0342235
-0.782824
0.78268
0.0334197
-0.0312367
-0.650299
0.648116
0.027644
-0.0221629
-0.488339
0.482858
0.0165088
-0.0105906
-0.295078
0.28916
0.00614845
-0.00262514
-0.129536
0.126013
0.000722052
-0.0203686
0.0196466
-0.0290608
0.0293704
-0.000309555
0.0014521
-0.00178039
-0.22343
0.223758
0.00180403
-0.00164781
-0.394063
0.393907
0.00165509
-0.00221652
-0.553367
0.553929
0.00358788
-0.00545763
-0.679835
0.681705
0.00801134
-0.0106341
-0.802766
0.805389
0.0137065
-0.0166235
-0.948708
0.951625
0.0199064
-0.0229353
-1.12474
1.12777
0.0262323
-0.0291466
-1.336
1.33892
0.0321367
-0.0345708
-1.58976
1.59219
0.0364652
-0.0378357
-1.58138
1.58275
0.0386185
-0.0390581
-1.31677
1.31721
0.0391884
-0.0390845
-1.10146
1.10136
0.0388391
-0.038598
-0.925966
0.925725
0.0384953
-0.0379039
-0.782074
0.781482
0.0366573
-0.0338118
-0.645775
0.64293
0.029579
-0.0234872
-0.477246
0.471154
0.017424
-0.0111821
-0.283174
0.276932
0.00651017
-0.00279183
-0.122441
0.118723
0.00077185
-0.0189185
0.0181466
-0.0297513
0.0302325
-0.00048123
0.0027114
-0.00377723
-0.22447
0.225535
0.00467102
-0.00531583
-0.394124
0.394769
0.00604373
-0.00705364
-0.554985
0.555995
0.00872685
-0.0108544
-0.683906
0.686034
0.0137107
-0.0166361
-0.807996
0.810921
0.0200528
-0.0232805
-0.954455
0.957682
0.0268851
-0.0301751
-1.13074
1.13403
0.0337085
-0.0367789
-1.34176
1.34483
0.0398533
-0.0422594
-1.59451
1.59692
0.0440087
-0.0451257
-1.58392
1.58504
0.0456138
-0.0457339
-1.31744
1.31756
0.0455604
-0.0451261
-1.10119
1.10075
0.0445843
-0.0440414
-0.925372
0.924829
0.0436143
-0.042572
-0.780417
0.779375
0.0407553
-0.0371233
-0.639949
0.636318
0.0321376
-0.0253046
-0.464909
0.458075
0.018703
-0.0120003
-0.270569
0.263867
0.0069972
-0.00300767
-0.114924
0.110935
0.000833556
-0.0173645
0.0165309
-0.030791
0.0314894
-0.000698437
0.0041912
-0.00613627
-0.227037
0.228982
0.00809114
-0.00962863
-0.395845
0.397382
0.0111895
-0.0127906
-0.557679
0.55928
0.0149348
-0.0174334
-0.688571
0.691069
0.0207054
-0.0240155
-0.813829
0.817139
0.0278492
-0.0314427
-0.960822
0.964415
0.0354234
-0.0390221
-1.13725
1.14085
0.042833
-0.0460742
-1.34782
1.35106
0.0492112
-0.0515344
-1.59918
1.60151
0.0530737
-0.0538752
-1.58594
1.58674
0.0540259
-0.0538038
-1.31742
1.31719
0.0532996
-0.0524953
-1.10018
1.09938
0.051615
-0.050722
-0.924102
0.923209
0.0498921
-0.0483457
-0.777846
0.7763
0.0458315
-0.041269
-0.632576
0.628014
0.0353812
-0.0276382
-0.451054
0.443311
0.0203471
-0.0130361
-0.256987
0.249676
0.00759938
-0.00326623
-0.106834
0.102501
0.000904865
-0.0156837
0.0147788
-0.0322629
0.0332471
-0.0009843
0.00606315
-0.00906893
-0.231382
0.234387
0.0122571
-0.0148477
-0.399494
0.402085
0.0173778
-0.0196904
-0.561742
0.564055
0.0224407
-0.0254297
-0.69406
0.697049
0.0292467
-0.0330429
-0.820448
0.824244
0.0374043
-0.0414609
-0.967937
0.971994
0.0459111
-0.0498778
-1.14439
1.14836
0.0539961
-0.0574015
-1.35421
1.35762
0.0605669
-0.0627537
-1.60365
1.60584
0.0640128
-0.0644106
-1.58728
1.58768
0.0641497
-0.0634862
-1.31658
1.31592
0.0625936
-0.0613686
-1.09835
1.09713
0.0601112
-0.0588657
-0.922057
0.920812
0.0575001
-0.0553463
-0.774253
0.772099
0.051996
-0.0463124
-0.623347
0.617664
0.0393372
-0.0304843
-0.435341
0.426488
0.0223349
-0.0142622
-0.242133
0.23406
0.0082934
-0.0035539
-0.0980309
0.0932914
0.00098085
-0.0138594
0.0128785
-0.0342938
0.0356747
-0.0013809
0.00851879
-0.0128661
-0.237841
0.242189
0.0175379
-0.0213569
-0.405436
0.409255
0.0250132
-0.0281779
-0.567487
0.570652
0.0316935
-0.035318
-0.700621
0.704245
0.0398222
-0.0442328
-0.828044
0.832455
0.0492483
-0.0538627
-0.975999
0.980613
0.0588529
-0.0632174
-1.15227
1.15663
0.0676413
-0.0711831
-1.36089
1.36444
0.0743128
-0.0762745
-1.60779
1.60976
0.0771502
-0.0770376
-1.58775
1.58764
0.0762879
-0.0750383
-1.31474
1.31349
0.0736854
-0.0719861
-1.09556
1.09386
0.0703233
-0.0686398
-0.919191
0.917507
0.0666809
-0.063776
-0.769414
0.766509
0.0593903
-0.0523336
-0.611874
0.604817
0.0440326
-0.0338245
-0.417367
0.407159
0.0246264
-0.0156354
-0.225706
0.216715
0.00904537
-0.00385238
-0.0883989
0.0832059
0.00105542
-0.0118854
0.01083
-0.0370822
0.0390293
-0.00194713
0.0119465
-0.017997
-0.246926
0.252976
0.0244576
-0.0297136
-0.414168
0.419424
0.0347065
-0.038932
-0.575304
0.57953
0.0434552
-0.047936
-0.708574
0.713055
0.0533499
-0.0585242
-0.836873
0.842048
0.0642976
-0.0695145
-0.985175
0.990392
0.0750468
-0.0797714
-1.1609
1.16562
0.0844109
-0.0879589
-1.36777
1.37132
0.0908629
-0.0923976
-1.61137
1.6129
0.0927015
-0.0919125
-1.5871
1.58632
0.0905476
-0.088638
-1.31167
1.30976
0.0867365
-0.084522
-1.09169
1.08947
0.0824206
-0.0801277
-0.915305
0.913012
0.0776147
-0.0737201
-0.762962
0.759067
0.0680551
-0.0593187
-0.597636
0.588899
0.0494075
-0.0375672
-0.396653
0.384812
0.0271225
-0.0170696
-0.20741
0.197357
0.00979385
-0.00413078
-0.0778601
0.0721971
0.00111876
-0.00976893
0.00865017
-0.0409479
0.043776
-0.00282804
0.0169154
-0.0252163
-0.259357
0.267658
0.0338886
-0.0408629
-0.426362
0.433336
0.0474768
-0.0529966
-0.585707
0.591226
0.0587905
-0.0643818
-0.718387
0.723978
0.0709482
-0.0770159
-0.847209
0.853277
0.0836047
-0.0894108
-0.995532
1.00134
0.0954029
-0.100347
-1.17017
1.17511
0.104983
-0.108293
-1.37453
1.37784
0.110677
-0.111506
-1.61394
1.61477
0.110976
-0.109271
-1.58498
1.58328
0.10711
-0.104408
-1.3072
1.3045
0.101858
-0.0990644
-1.08658
1.08378
0.096492
-0.0935047
-0.910023
0.907035
0.0903332
-0.0851955
-0.754402
0.749265
0.0779443
-0.0671542
-0.579983
0.569193
0.0553072
-0.0415368
-0.37267
0.3589
0.0296541
-0.0184304
-0.187
0.175776
0.0104485
-0.00434628
-0.0664095
0.0603074
0.00115796
-0.00753746
0.0063795
-0.0464589
0.0507683
-0.0043094
0.024617
-0.0359706
-0.276304
0.287658
0.0474984
-0.0567741
-0.443028
0.452303
0.0653972
-0.0724473
-0.599281
0.606331
0.0797752
-0.0868122
-0.730465
0.737501
0.094551
-0.101439
-0.859241
0.866129
0.10869
-0.114868
-1.00697
1.01315
0.120993
-0.125806
-1.1797
1.18451
0.130025
-0.132726
-1.3806
1.38331
0.1342
-0.13399
-1.61492
1.61471
0.132329
-0.129442
-1.58089
1.578
0.126282
-0.122596
-1.30103
1.29734
0.119277
-0.115799
-1.0801
1.07663
0.112678
-0.108942
-0.903155
0.899419
0.104837
-0.0980762
-0.743185
0.736424
0.0888432
-0.0755607
-0.558115
0.544833
0.0614267
-0.0454432
-0.344875
0.328892
0.0319682
-0.0195301
-0.164343
0.151904
0.0108871
-0.00444276
-0.0541567
0.0477124
0.00115584
-0.00524415
0.00408831
-0.0546776
0.0620314
-0.00735381
0.0380098
-0.0538469
-0.299903
0.31574
0.0694223
-0.081906
-0.465846
0.47833
0.0926976
-0.10112
-0.616452
0.624875
0.109977
-0.118293
-0.745111
0.753427
0.12696
-0.134235
-0.872707
0.879982
0.141532
-0.147458
-1.01888
1.0248
0.15304
-0.157103
-1.18866
1.19272
0.160268
-0.161763
-1.38515
1.38665
0.161724
-0.15995
-1.61353
1.61176
0.156743
-0.152372
-1.57427
1.5699
0.148003
-0.143169
-1.29282
1.28798
0.138971
-0.134739
-1.07203
1.0678
0.130941
-0.126364
-0.894532
0.889955
0.12094
-0.112049
-0.72844
0.719549
0.100263
-0.083921
-0.530993
0.514651
0.067179
-0.0488503
-0.312771
0.294443
0.0337579
-0.0201927
-0.139523
0.125958
0.0110051
-0.00437069
-0.0413831
0.0347487
0.00108662
-0.00297166
0.00188504
-0.0688781
0.0729807
-0.00410264
0.0289707
-0.042815
-0.334097
0.347941
0.0567115
-0.0682495
-0.496251
0.507789
0.0784887
-0.0880281
-0.636887
0.646426
0.0986202
-0.108432
-0.761197
0.771009
0.119303
-0.128861
-0.886226
0.895784
0.138951
-0.147841
-1.02979
1.03868
0.157045
-0.164811
-1.19568
1.20345
0.17235
-0.178108
-1.38692
1.39268
0.182836
-0.185332
-1.60872
1.61121
0.18557
-0.184116
-1.56443
1.56297
0.181616
-0.178165
-1.28218
1.27873
0.175044
-0.171364
-1.06213
1.05845
0.168112
-0.163469
-0.883508
0.878866
0.156064
-0.14307
-0.708941
0.695947
0.125598
-0.102374
-0.497576
0.474351
0.0796989
-0.0558529
-0.27603
0.252184
0.0372668
-0.0214468
-0.113003
0.0971831
0.0112226
-0.00424447
-0.0286097
0.0216316
0.000974134
-0.000806376
-0.000167759
-0.080302
0.078386
0.00191602
0.00761857
-0.0165177
-0.364458
0.373357
0.0270304
-0.0353356
-0.52389
0.532195
0.0436286
-0.051476
-0.658626
0.666473
0.0611197
-0.0701798
-0.780288
0.789348
0.0798415
-0.0885879
-0.904692
0.913438
0.0978011
-0.105569
-1.04725
1.05502
0.113771
-0.120293
-1.21095
1.21747
0.126532
-0.130953
-1.39803
1.40245
0.133953
-0.134894
-1.61278
1.61373
0.133613
-0.130618
-1.56073
1.55773
0.126565
-0.121494
-1.27462
1.26955
0.1168
-0.111618
-1.05292
1.04774
0.106706
-0.100655
-0.869395
0.863344
0.0929534
-0.0815659
-0.679208
0.66782
0.0683651
-0.0526269
-0.449686
0.433948
0.0387207
-0.0257377
-0.228642
0.215659
0.0164968
-0.0092027
-0.0822082
0.0749141
0.00469384
-0.00173639
-0.0149198
0.0119624
0.000375717
0.00137143
-0.00174714
-0.0817168
0.0788689
0.00284795
-0.00118672
-0.00386602
-0.38501
0.390063
0.0108048
-0.0168287
-0.544321
0.550345
0.0229265
-0.0296907
-0.676877
0.683641
0.0380315
-0.0458696
-0.797476
0.805314
0.0544474
-0.0620535
-0.921358
0.928964
0.0698101
-0.0767046
-1.0626
1.06949
0.083754
-0.0894159
-1.22352
1.22918
0.0943387
-0.0975439
-1.40614
1.40935
0.0994938
-0.0992575
-1.61386
1.61363
0.0968151
-0.0926713
-1.55399
1.54984
0.0877041
-0.0818434
-1.2641
1.25824
0.0760081
-0.0697425
-1.04104
1.03477
0.0638155
-0.0570042
-0.853658
0.846846
0.0500414
-0.040686
-0.653226
0.643871
0.0312441
-0.0213222
-0.416555
0.406633
0.0140528
-0.00846198
-0.202048
0.196457
0.00509661
-0.00282555
-0.0674676
0.0651965
0.00146389
-0.000572743
-0.00877488
0.00788374
0.000123858
0.00237894
-0.0025028
-0.0805213
0.0777641
0.00275722
-0.00491064
0.00240065
-0.398628
0.401138
0.00207294
-0.00658542
-0.559448
0.563961
0.0117056
-0.0173629
-0.691847
0.697505
0.0245097
-0.0312222
-0.812482
0.819195
0.0385285
-0.045031
-0.93599
0.942492
0.0520393
-0.057851
-1.07593
1.08174
0.0639517
-0.0683745
-1.2344
1.23882
0.0724513
-0.0749221
-1.41226
1.41473
0.0759316
-0.0747007
-1.61289
1.61166
0.07173
-0.0671017
-1.54509
1.54046
0.0616873
-0.054954
-1.25196
1.24523
0.0486108
-0.0416967
-1.02729
1.02038
0.0350626
-0.0280747
-0.837082
0.830094
0.0213846
-0.0140436
-0.631578
0.624237
0.00774805
-0.00270333
-0.395567
0.390522
0.000128824
0.0009788
-0.18933
0.188222
-0.00119299
0.000805929
-0.0619469
0.062334
-0.00049493
0.00018713
-0.00645429
0.00676209
-6.08978e-05
0.00291924
-0.00285834
-0.0790589
0.076633
0.0024259
-0.00608963
0.00514375
-0.407767
0.408713
-0.00178515
-0.00156407
-0.571532
0.574882
0.00564673
-0.0107705
-0.704408
0.709531
0.0167787
-0.0226792
-0.825185
0.831086
0.029005
-0.0346535
-0.948517
0.954166
0.0406591
-0.0458165
-1.0874
1.09256
0.0509444
-0.0549537
-1.24308
1.24709
0.0583317
-0.0602257
-1.41679
1.41868
0.0606611
-0.0589497
-1.6102
1.60849
0.0555413
-0.050311
-1.53506
1.52983
0.0445965
-0.0377281
-1.23831
1.23144
0.0311735
-0.0238698
-1.0126
1.00529
0.0171627
-0.0100829
-0.820742
0.813662
0.00412468
0.0017365
-0.614292
0.60843
-0.00581456
0.00793604
-0.383108
0.380986
-0.00802992
0.00685977
-0.184924
0.186094
-0.0052869
0.00344666
-0.0619332
0.0637734
-0.00202152
0.000821526
-0.00666032
0.00786032
-0.000218623
0.00303128
-0.00281266
-0.0777168
0.0756523
0.00206453
-0.00600484
0.00554199
-0.414076
0.414539
-0.00352266
0.000790104
-0.580869
0.583601
0.00321221
-0.00761231
-0.715048
0.719448
0.012784
-0.017904
-0.836177
0.841297
0.023522
-0.0285717
-0.959445
0.964495
0.0340674
-0.0385791
-1.09743
1.10194
0.04317
-0.0467406
-1.25079
1.25436
0.0496418
-0.0511532
-1.42027
1.42179
0.0511884
-0.0495366
-1.60662
1.60497
0.0458671
-0.0406501
-1.52409
1.51888
0.0348974
-0.0280567
-1.22436
1.21752
0.0217533
-0.0143305
-0.997494
0.990071
0.00760802
-0.000748631
-0.804876
0.798016
-0.00482343
0.00957762
-0.600127
0.595372
-0.0124972
0.0134597
-0.375802
0.37484
-0.0122605
0.0100208
-0.185177
0.187417
-0.00773352
0.00512859
-0.0649314
0.0675363
-0.00303576
0.00128448
-0.00877115
0.0105224
-0.000348849
0.0027072
-0.00235836
-0.0767194
0.0751192
0.0016002
-0.00513522
0.00498968
-0.418811
0.418956
-0.00330536
0.00124002
-0.589052
0.591118
0.0025169
-0.00652688
-0.724286
0.728296
0.0114432
-0.0158525
-0.846019
0.850428
0.0207839
-0.02526
-0.969494
0.97397
0.030477
-0.0345717
-1.10647
1.11056
0.0386453
-0.0420134
-1.25773
1.2611
0.0450447
-0.0463711
-1.42329
1.42461
0.046408
-0.0446385
-1.6029
1.60113
0.0413573
-0.0361109
-1.51348
1.50824
0.0307591
-0.0243223
-1.21056
1.20412
0.0181042
-0.0111053
-0.982456
0.975457
0.0045531
0.0022594
-0.789774
0.782961
-0.00735198
0.0116142
-0.587865
0.583603
-0.0141366
0.0147337
-0.370847
0.37025
-0.0135709
0.0112136
-0.187471
0.189828
-0.00874916
0.00587356
-0.0694364
0.072312
-0.00353368
0.00154008
-0.0119208
0.0139144
-0.000431349
0.00210179
-0.00167045
-0.0762315
0.0749907
0.0012408
-0.00404554
0.0040192
-0.422617
0.422643
-0.00245082
0.000486345
-0.596192
0.598157
0.00307386
-0.00669245
-0.732596
0.736215
0.0109096
-0.0151577
-0.854795
0.859043
0.0197153
-0.0243384
-0.978235
0.982858
0.0288281
-0.0327415
-1.11475
1.11867
0.0369494
-0.0400876
-1.26434
1.26748
0.0426391
-0.0443636
-1.42583
1.42756
0.0445761
-0.0431328
-1.59944
1.59799
0.0400644
-0.0354182
-1.50325
1.4986
0.0303801
-0.024231
-1.19739
1.19125
0.0183748
-0.0117355
-0.968191
0.961552
0.0056145
0.000618015
-0.775452
0.76922
-0.00575058
0.00978108
-0.576544
0.572514
-0.012059
0.0130205
-0.366893
0.365931
-0.0123786
0.0103794
-0.18988
0.191879
-0.00822781
0.00561008
-0.074142
0.0767597
-0.0034409
0.00154053
-0.0153951
0.0172955
-0.0004488
0.00135461
-0.000905806
-0.0762897
0.0752576
0.00103209
-0.00274464
0.00246681
-0.426067
0.426345
-0.00108712
-0.000887875
-0.602765
0.60474
0.00417803
-0.00768647
-0.740334
0.743842
0.0117411
-0.0155928
-0.8631
0.866952
0.0202751
-0.0241086
-0.986886
0.99072
0.0285777
-0.0323303
-1.12273
1.12649
0.036435
-0.0397716
-1.27059
1.27392
0.042627
-0.0441526
-1.42904
1.43056
0.0447368
-0.0437224
-1.5965
1.59548
0.0412982
-0.0369045
-1.49384
1.48945
0.0322409
-0.0264891
-1.18522
1.17947
0.0210997
-0.0149439
-0.954672
0.948517
0.00942613
-0.00349466
-0.762229
0.756298
-0.00143954
0.00560891
-0.566038
0.561868
-0.00803414
0.00912995
-0.362568
0.361472
-0.00915618
0.00796873
-0.191542
0.19273
-0.00648529
0.00451874
-0.0781623
0.0801288
-0.00282612
0.00130944
-0.0185309
0.0200476
-0.000397583
0.00060841
-0.000210828
-0.0766474
0.0759294
0.000717986
-0.00158565
0.000827373
-0.429622
0.43038
0.000370113
-0.00248075
-0.608609
0.61072
0.00546656
-0.00885786
-0.747556
0.750948
0.0127538
-0.016741
-0.87068
0.874668
0.0208131
-0.0248217
-0.994757
0.998765
0.0292678
-0.0328254
-1.13066
1.13422
0.0370428
-0.0403554
-1.27706
1.28037
0.0432873
-0.0453709
-1.4325
1.43458
0.0464767
-0.0457543
-1.59451
1.59379
0.0435312
-0.0398241
-1.48522
1.48152
0.0357433
-0.0304994
-1.17368
1.16844
0.0255525
-0.0201587
-0.942343
0.93695
0.0147145
-0.00925564
-0.749719
0.74426
0.00444955
2.67362e-06
-0.555972
0.55152
-0.00266859
0.00433172
-0.35763
0.355967
-0.00492894
0.00470335
-0.191942
0.192168
-0.00396884
0.00287016
-0.0807943
0.081893
-0.00187848
0.000912754
-0.0208399
0.0218056
-0.000293377
-5.46865e-06
0.000298846
-0.07742
0.0768656
0.000554389
-0.000606126
-0.000109543
-0.433426
0.434142
0.00186408
-0.00383908
-0.61456
0.616535
0.00701413
-0.0102935
-0.75429
0.75757
0.0140552
-0.0176522
-0.878336
0.881933
0.0218633
-0.0255724
-1.00277
1.00648
0.0299837
-0.0339977
-1.13823
1.14225
0.0378748
-0.0415332
-1.28373
1.28739
0.0449151
-0.0471209
-1.43657
1.43877
0.048626
-0.0486727
-1.59328
1.59332
0.0469037
-0.0438899
-1.47771
1.4747
0.0401681
-0.0355897
-1.16337
1.15879
0.0312317
-0.0261214
-0.931185
0.926075
0.0211152
-0.0157937
-0.737971
0.732649
0.0110604
-0.00633961
-0.545684
0.540964
0.00305479
-0.000707776
-0.351797
0.34945
-0.000688629
0.00127707
-0.190638
0.19005
-0.00135898
0.00112359
-0.081732
0.0819674
-0.00081209
0.000443313
-0.0220556
0.0224243
-0.000162266
-0.00040837
0.000570635
-0.0784773
0.0781024
0.000374893
0.000461273
-0.0013735
-0.437395
0.438307
0.00300966
-0.00529643
-0.620138
0.622425
0.00842205
-0.011564
-0.7608
0.763942
0.0154274
-0.0188887
-0.885514
0.888975
0.0229563
-0.0268002
-1.01066
1.01451
0.0311362
-0.0351296
-1.14611
1.1501
0.0392452
-0.0429522
-1.29096
1.29467
0.0465445
-0.0495224
-1.44126
1.44424
0.0514888
-0.0518564
-1.5933
1.59367
0.0508277
-0.0482731
-1.47165
1.46909
0.0452517
-0.0413344
-1.15427
1.15036
0.0370879
-0.0322119
-0.920672
0.915796
0.0273955
-0.0220606
-0.726654
0.721319
0.0173934
-0.0123493
-0.535315
0.530271
0.00856645
-0.00539431
-0.344866
0.341694
0.00335061
-0.00189957
-0.187651
0.1862
0.000934647
-0.000321932
-0.0809831
0.0803704
4.02877e-06
0.000119805
-0.0221449
0.022021
-8.61531e-05
-0.000556371
0.000642524
-0.0797684
0.0795198
0.00024865