/*--------------------------------*- C++ -*----------------------------------*\
  =========                 |
  \\      /  F ield         | OpenFOAM: The Open Source CFD Toolbox
   \\    /   O peration     | Website:  https://openfoam.org
    \\  /    A nd           | Version:  6
     \\/     M anipulation  |
\*---------------------------------------------------------------------------*/
FoamFile
{
    version     2.0;
    format      ascii;
    class       volVectorField;
    location    "56";
    object      U;
}
// * * * * * * * * * * * * * * * * * * * * * * * * * * * * * * * * * * * * * //

dimensions      [0 1 -1 0 0 0 0];

internalField   nonuniform List<vector> 
8800
(
(0.987184 -0.0766672 0)
(1.00189 -0.0551941 0)
(0.999719 -0.0285539 0)
(1.00001 -0.0151516 0)
(1.00006 -0.00855448 0)
(1.00008 -0.00505679 0)
(1.00005 -0.00301173 0)
(1.00002 -0.00171116 0)
(0.999998 -0.000805163 0)
(1.00006 -8.93572e-05 0)
(0.999987 0.000639213 0)
(0.999994 0.00140296 0)
(1.00002 0.00242596 0)
(1.00004 0.00399977 0)
(1.00004 0.00663175 0)
(1.00001 0.0113702 0)
(0.99989 0.0208138 0)
(0.999146 0.038671 0)
(1.00709 0.072457 0)
(0.771213 0.036661 0)
(0.363053 -0.0160187 0)
(1.0433 -0.0768247 0)
(1.08458 -0.0704615 0)
(1.04518 -0.0535631 0)
(1.02325 -0.0389217 0)
(1.01197 -0.0262505 0)
(1.00639 -0.0168941 0)
(1.00357 -0.0103656 0)
(1.00214 -0.00570993 0)
(1.00145 -0.00205537 0)
(1.00131 0.00126713 0)
(1.00168 0.00464894 0)
(1.00265 0.00858358 0)
(1.00464 0.0139279 0)
(1.00859 0.02164 0)
(1.01655 0.0326136 0)
(1.03246 0.0465306 0)
(1.06262 0.0616497 0)
(1.09187 0.0760934 0)
(0.838681 0.0565585 0)
(0.216811 -0.0024315 0)
(1.07586 -0.0501565 0)
(1.09985 -0.0483413 0)
(1.0646 -0.0405027 0)
(1.03997 -0.0336537 0)
(1.02385 -0.026142 0)
(1.01407 -0.0185671 0)
(1.00853 -0.0117519 0)
(1.00558 -0.00588759 0)
(1.00433 -0.000473167 0)
(1.00468 0.00477345 0)
(1.0066 0.0101654 0)
(1.0106 0.0162678 0)
(1.01793 0.0233018 0)
(1.03053 0.0307718 0)
(1.05061 0.0378097 0)
(1.08032 0.0445 0)
(1.10625 0.051323 0)
(0.942557 0.0416059 0)
(0.216182 0.00246043 0)
(0.175115 -0.000818356 0)
(1.01761 -0.0355127 0)
(1.10515 -0.0414258 0)
(1.0782 -0.0361216 0)
(1.05338 -0.0301986 0)
(1.03612 -0.0246367 0)
(1.02394 -0.0189203 0)
(1.01585 -0.0128492 0)
(1.011 -0.00666794 0)
(1.00881 -0.000336183 0)
(1.0094 0.00592206 0)
(1.01266 0.0119219 0)
(1.01887 0.0177698 0)
(1.02877 0.0233607 0)
(1.04322 0.0286679 0)
(1.06373 0.0341611 0)
(1.09354 0.0401547 0)
(1.09343 0.0419292 0)
(0.827228 0.0228995 0)
(0.174053 0.000851399 0)
(0.153887 -0.000612375 0)
(0.956028 -0.0254935 0)
(1.10337 -0.0351889 0)
(1.08759 -0.0327268 0)
(1.06161 -0.0280874 0)
(1.044 -0.0230814 0)
(1.03156 -0.0178528 0)
(1.02274 -0.0123347 0)
(1.01694 -0.00640599 0)
(1.01412 5.65543e-05 0)
(1.01482 0.00651717 0)
(1.0188 0.0124061 0)
(1.02581 0.0177179 0)
(1.03612 0.0226508 0)
(1.05069 0.0274175 0)
(1.07193 0.0319651 0)
(1.10008 0.0359145 0)
(1.06814 0.0339906 0)
(0.739684 0.0142973 0)
(0.152289 0.000649905 0)
(0.139484 -0.000468817 0)
(0.899031 -0.0191183 0)
(1.09564 -0.0301543 0)
(1.09562 -0.0292837 0)
(1.06911 -0.0255728 0)
(1.05068 -0.0214591 0)
(1.03778 -0.016708 0)
(1.0287 -0.0114367 0)
(1.02261 -0.00570367 0)
(1.01951 0.000618804 0)
(1.02015 0.00693573 0)
(1.02426 0.0125766 0)
(1.03139 0.0175604 0)
(1.04193 0.022047 0)
(1.05707 0.0260227 0)
(1.07927 0.0295028 0)
(1.10231 0.032145 0)
(1.0361 0.0280682 0)
(0.673197 0.0101918 0)
(0.137229 0.000512074 0)
(0.128909 -0.000363717 0)
(0.849324 -0.0147636 0)
(1.08318 -0.0260384 0)
(1.10126 -0.0263562 0)
(1.07593 -0.0230931 0)
(1.05697 -0.019474 0)
(1.04361 -0.0152533 0)
(1.03418 -0.010356 0)
(1.02786 -0.00484311 0)
(1.02458 0.00129589 0)
(1.02509 0.00739695 0)
(1.02915 0.0127639 0)
(1.0364 0.0173392 0)
(1.04723 0.021222 0)
(1.06277 0.0245371 0)
(1.08541 0.0275057 0)
(1.10145 0.0292853 0)
(1.00126 0.0235413 0)
(0.621456 0.00782441 0)
(0.125854 0.000414564 0)
(0.120828 -0.000283329 0)
(0.807044 -0.0116132 0)
(1.06781 -0.0224463 0)
(1.10474 -0.0237485 0)
(1.08215 -0.0209065 0)
(1.06277 -0.0175108 0)
(1.04914 -0.0136041 0)
(1.03943 -0.00904338 0)
(1.03283 -0.00380378 0)
(1.02931 0.0021115 0)
(1.02966 0.00796283 0)
(1.03369 0.0129834 0)
(1.041 0.0170963 0)
(1.05194 0.0204779 0)
(1.06771 0.0233845 0)
(1.09068 0.0260576 0)
(1.09771 0.026946 0)
(0.966097 0.0199878 0)
(0.579913 0.00628618 0)
(0.116802 0.000343876 0)
(0.114552 -0.000220399 0)
(0.771414 -0.0092584 0)
(1.05093 -0.0192858 0)
(1.10705 -0.0213367 0)
(1.08796 -0.0188712 0)
(1.06821 -0.0156206 0)
(1.05434 -0.0118791 0)
(1.04444 -0.00754567 0)
(1.0376 -0.00256313 0)
(1.03381 0.00309832 0)
(1.03396 0.00865447 0)
(1.03787 0.0132958 0)
(1.04514 0.0169863 0)
(1.05607 0.0199796 0)
(1.07203 0.0225664 0)
(1.09467 0.0249044 0)
(1.09117 0.024994 0)
(0.931914 0.0172392 0)
(0.545561 0.00523376 0)
(0.109346 0.000292848 0)
(0.109646 -0.000169888 0)
(0.741491 -0.00743245 0)
(1.03359 -0.0164886 0)
(1.10842 -0.0190696 0)
(1.0935 -0.0169124 0)
(1.07346 -0.0137586 0)
(1.05932 -0.0101191 0)
(1.04923 -0.00591081 0)
(1.04218 -0.00110585 0)
(1.03812 0.00429079 0)
(1.03799 0.00950853 0)
(1.04167 0.0137906 0)
(1.0488 0.0171327 0)
(1.05974 0.0197858 0)
(1.0759 0.0220814 0)
(1.09741 0.0240528 0)
(1.08222 0.0233848 0)
(0.899286 0.0151451 0)
(0.516357 0.00449795 0)
(0.103008 0.000256888 0)
(0.105827 -0.000127966 0)
(0.716455 -0.00596095 0)
(1.01662 -0.0139795 0)
(1.10893 -0.0168829 0)
(1.09892 -0.0150188 0)
(1.07861 -0.0118907 0)
(1.06418 -0.00828569 0)
(1.05388 -0.00414861 0)
(1.04658 0.000526239 0)
(1.0422 0.00572034 0)
(1.04173 0.0106506 0)
(1.04513 0.0145867 0)
(1.05208 0.0175724 0)
(1.06297 0.0198942 0)
(1.0793 0.0219315 0)
(1.0988 0.0235116 0)
(1.07123 0.022108 0)
(0.868336 0.013587 0)
(0.490855 0.003988 0)
(0.0974471 0.000232936 0)
(0.102906 -9.1684e-05 0)
(0.695663 -0.00472832 0)
(1.00063 -0.0116937 0)
(1.10875 -0.0147316 0)
(1.10416 -0.0130541 0)
(1.08376 -0.00988698 0)
(1.06901 -0.00627158 0)
(1.05845 -0.00216423 0)
(1.05087 0.00243062 0)
(1.04612 0.00744527 0)
(1.04521 0.0120896 0)
(1.04824 0.0157001 0)
(1.05497 0.0183494 0)
(1.06582 0.0203278 0)
(1.08229 0.0221047 0)
(1.09925 0.0232913 0)
(1.05852 0.0211699 0)
(0.838919 0.0124748 0)
(0.467981 0.00364856 0)
(0.0924085 0.00021854 0)
(0.100763 -5.84064e-05 0)
(0.678645 -0.0036472 0)
(0.986076 -0.0095588 0)
(1.10808 -0.0125482 0)
(1.10922 -0.0110074 0)
(1.08897 -0.00780059 0)
(1.07388 -0.00410899 0)
(1.06301 5.90703e-05 0)
(1.05505 0.00463846 0)
(1.04983 0.00952641 0)
(1.04842 0.013922 0)
(1.05103 0.0172095 0)
(1.05749 0.0195297 0)
(1.06826 0.0211873 0)
(1.08478 0.0226869 0)
(1.09871 0.0234568 0)
(1.04425 0.0205929 0)
(0.810714 0.0117365 0)
(0.446889 0.00344195 0)
(0.0876898 0.000211932 0)
(0.0993354 -2.57518e-05 0)
(0.665099 -0.00264698 0)
(0.973309 -0.00749738 0)
(1.10722 -0.0102464 0)
(1.11418 -0.0087479 0)
(1.09431 -0.00545064 0)
(1.07886 -0.00163338 0)
(1.06761 0.00261895 0)
(1.05921 0.0072289 0)
(1.05341 0.0120527 0)
(1.05138 0.0162412 0)
(1.05347 0.0192088 0)
(1.05962 0.0211618 0)
(1.07029 0.0224315 0)
(1.0868 0.0236706 0)
(1.09694 0.0240005 0)
(1.02851 0.0203441 0)
(0.783337 0.0113143 0)
(0.426908 0.00334107 0)
(0.0831345 0.000211308 0)
(0.0986083 8.18395e-06 0)
(0.654871 -0.00167485 0)
(0.962645 -0.00544374 0)
(1.10653 -0.00779346 0)
(1.11924 -0.0062384 0)
(1.09988 -0.00279131 0)
(1.08399 0.00122099 0)
(1.0723 0.00564579 0)
(1.06335 0.0103514 0)
(1.05686 0.0151129 0)
(1.05407 0.0190608 0)
(1.05556 0.0216954 0)
(1.06132 0.0232984 0)
(1.07186 0.024197 0)
(1.08832 0.025133 0)
(1.09392 0.0249735 0)
(1.01128 0.0204675 0)
(0.756341 0.0111806 0)
(0.407472 0.003333 0)
(0.07861 0.000216426 0)
(0.0986016 4.14499e-05 0)
(0.647938 -0.000680712 0)
(0.954374 -0.00331335 0)
(1.10631 -0.00509981 0)
(1.1245 -0.00341307 0)
(1.10576 0.000223431 0)
(1.08943 0.00450837 0)
(1.0772 0.00918491 0)
(1.06757 0.0140503 0)
(1.06021 0.0188266 0)
(1.05652 0.0225859 0)
(1.05728 0.0248793 0)
(1.0626 0.0260804 0)
(1.07297 0.026571 0)
(1.08907 0.0271351 0)
(1.08942 0.0263909 0)
(0.992453 0.0209734 0)
(0.729235 0.0113161 0)
(0.388074 0.00340874 0)
(0.0739974 0.000226549 0)
(0.0993543 8.03661e-05 0)
(0.644382 0.000350059 0)
(0.948832 -0.00103791 0)
(1.10694 -0.00207778 0)
(1.13016 -9.94641e-05 0)
(1.11206 0.00383629 0)
(1.09522 0.00845499 0)
(1.08235 0.0134275 0)
(1.07191 0.0185171 0)
(1.06353 0.0233372 0)
(1.05874 0.0268875 0)
(1.05859 0.0288129 0)
(1.06336 0.0295813 0)
(1.07355 0.0296286 0)
(1.08893 0.0297729 0)
(1.08327 0.0283106 0)
(0.971805 0.0219009 0)
(0.701484 0.0117109 0)
(0.36824 0.00356211 0)
(0.0691898 0.000241171 0)
(0.101074 0.000141042 0)
(0.644598 0.00150708 0)
(0.946374 0.00146432 0)
(1.10885 0.00135008 0)
(1.13647 0.00373998 0)
(1.11891 0.00808017 0)
(1.10147 0.0131441 0)
(1.08783 0.018535 0)
(1.07639 0.023928 0)
(1.06674 0.0288174 0)
(1.06065 0.0321505 0)
(1.05946 0.0336469 0)
(1.06355 0.0339445 0)
(1.07351 0.0335162 0)
(1.0877 0.0331664 0)
(1.07522 0.0308258 0)
(0.949007 0.0232717 0)
(0.672518 0.0123625 0)
(0.34752 0.00378854 0)
(0.0640901 0.000259795 0)
(0.103807 0.000201078 0)
(0.6489 0.00290559 0)
(0.947438 0.0043477 0)
(1.11249 0.00535127 0)
(1.14358 0.00828646 0)
(1.12648 0.0131466 0)
(1.10836 0.0187741 0)
(1.09375 0.0246841 0)
(1.08107 0.03045 0)
(1.06988 0.0354698 0)
(1.06221 0.0385912 0)
(1.05982 0.0395772 0)
(1.06312 0.0393295 0)
(1.07278 0.0383571 0)
(1.08518 0.0374443 0)
(1.06494 0.0340152 0)
(0.923627 0.0251394 0)
(0.641723 0.0132726 0)
(0.325478 0.00408416 0)
(0.058611 0.000281716 0)
(0.107841 0.000282679 0)
(0.657892 0.00457948 0)
(0.952491 0.00772387 0)
(1.1184 0.0100922 0)
(1.15182 0.0137936 0)
(1.13495 0.0193702 0)
(1.116 0.0256777 0)
(1.10021 0.0321985 0)
(1.08599 0.0384046 0)
(1.07292 0.0435183 0)
(1.06337 0.0463035 0)
(1.05959 0.0467185 0)
(1.06197 0.0458846 0)
(1.07126 0.0442853 0)
(1.08137 0.0427505 0)
(1.05201 0.0380026 0)
(0.895087 0.027535 0)
(0.608422 0.014435 0)
(0.301684 0.00444079 0)
(0.0526769 0.00030587 0)
(0.113514 0.000392443 0)
(0.672271 0.00666668 0)
(0.9623 0.0118451 0)
(1.12718 0.0157775 0)
(1.16156 0.0204607 0)
(1.14459 0.0269737 0)
(1.12456 0.0341398 0)
(1.1073 0.0414179 0)
(1.09119 0.0481174 0)
(1.07585 0.0532789 0)
(1.0641 0.0556068 0)
(1.05865 0.055298 0)
(1.05996 0.0537704 0)
(1.06884 0.0514711 0)
(1.07608 0.049193 0)
(1.03591 0.0428462 0)
(0.8627 0.0304693 0)
(0.571916 0.0158272 0)
(0.275755 0.00484175 0)
(0.0462391 0.00033018 0)
(0.121337 0.000547422 0)
(0.693033 0.00940058 0)
(0.977679 0.0170062 0)
(1.13941 0.0227714 0)
(1.17321 0.0286739 0)
(1.1557 0.0363941 0)
(1.13429 0.0446156 0)
(1.1151 0.0527628 0)
(1.09658 0.0599633 0)
(1.07849 0.0650955 0)
(1.06417 0.0667954 0)
(1.05682 0.0655761 0)
(1.05697 0.0631923 0)
(1.06539 0.0600965 0)
(1.06898 0.0569115 0)
(1.01596 0.0486423 0)
(0.825654 0.0339509 0)
(0.531491 0.0174097 0)
(0.24738 0.00526351 0)
(0.0392868 0.000352182 0)
(0.132049 0.000770336 0)
(0.721483 0.0131655 0)
(0.999792 0.0236671 0)
(1.15593 0.0316262 0)
(1.18737 0.0391157 0)
(1.16862 0.0484332 0)
(1.14529 0.0578684 0)
(1.12357 0.066903 0)
(1.10205 0.0744813 0)
(1.08067 0.0792882 0)
(1.06342 0.0800386 0)
(1.05399 0.0776806 0)
(1.05292 0.0742929 0)
(1.06066 0.0702431 0)
(1.05951 0.0659343 0)
(0.991308 0.055433 0)
(0.783032 0.0379109 0)
(0.486496 0.0190972 0)
(0.216394 0.00566522 0)
(0.0318641 0.000368103 0)
(0.14691 0.00112374 0)
(0.759598 0.018571 0)
(1.03029 0.0325926 0)
(1.17772 0.043236 0)
(1.20487 0.0527577 0)
(1.18367 0.0640333 0)
(1.1576 0.0747886 0)
(1.13257 0.0846177 0)
(1.10733 0.0922532 0)
(1.08209 0.0962525 0)
(1.06163 0.0955677 0)
(1.04997 0.0917497 0)
(1.0476 0.0871663 0)
(1.05427 0.0821428 0)
(1.04699 0.0764304 0)
(0.960869 0.0631242 0)
(0.733909 0.0422098 0)
(0.436478 0.0207512 0)
(0.182888 0.00598894 0)
(0.0240959 0.000373258 0)
(0.168061 0.00173255 0)
(0.810564 0.0267594 0)
(1.07166 0.0453144 0)
(1.20583 0.0594176 0)
(1.22635 0.0716982 0)
(1.20093 0.0847567 0)
(1.17101 0.096686 0)
(1.14168 0.10682 0)
(1.11199 0.113843 0)
(1.08244 0.116381 0)
(1.05848 0.113694 0)
(1.04453 0.108012 0)
(1.04087 0.101997 0)
(1.04613 0.0959171 0)
(1.03063 0.088243 0)
(0.92335 0.0715323 0)
(0.677507 0.0465894 0)
(0.381472 0.0221717 0)
(0.147409 0.00615807 0)
(0.0162219 0.000361658 0)
(0.198814 0.00306833 0)
(0.880053 0.0403008 0)
(1.12758 0.0655979 0)
(1.24068 0.0838094 0)
(1.25146 0.0987734 0)
(1.21981 0.113085 0)
(1.18465 0.125244 0)
(1.15 0.134556 0)
(1.1152 0.139844 0)
(1.08099 0.139842 0)
(1.05353 0.134372 0)
(1.0374 0.126407 0)
(1.03254 0.118746 0)
(1.03594 0.111463 0)
(1.00922 0.101302 0)
(0.877174 0.0802021 0)
(0.613584 0.0505936 0)
(0.322685 0.0231482 0)
(0.111427 0.00610819 0)
(0.00870527 0.000324035 0)
(0.240815 0.00917338 9.02396e-21)
(0.972026 0.067043 7.73846e-21)
(1.19575 0.0998976 -2.70197e-21)
(1.27916 0.120153 0)
(1.27741 0.137583 -6.90081e-35)
(1.23809 0.151366 1.00973e-21)
(1.19694 0.161959 -1.82819e-21)
(1.15654 0.169027 0)
(1.11633 0.171506 3.77384e-35)
(1.07718 0.168165 -2.28023e-21)
(1.04589 0.159407 0)
(1.0273 0.1489 -2.71619e-21)
(1.02124 0.139579 -8.01981e-21)
(1.02229 0.131492 -3.79533e-21)
(0.979557 0.118343 -1.14393e-21)
(0.817259 0.0909754 -6.80062e-22)
(0.536705 0.0548859 0)
(0.258364 0.0240531 4.76949e-22)
(0.0753119 0.00617144 5.64944e-22)
(0.00167304 0.000283337 1.03031e-20)
(0.269964 0.0241145 6.46022e-21)
(1.04814 0.109251 1.07615e-22)
(1.25201 0.14875 7.13951e-22)
(1.31359 0.16895 0)
(1.30013 0.18667 -3.48443e-21)
(1.25365 0.198299 -3.96756e-21)
(1.20654 0.206583 -1.83941e-21)
(1.16024 0.211163 -6.57883e-21)
(1.11426 0.210863 0)
(1.06959 0.204328 9.69883e-21)
(1.03388 0.192331 9.63399e-21)
(1.01238 0.179276 2.86725e-21)
(1.00408 0.167914 1.04687e-20)
(0.998297 0.157109 1.47289e-20)
(0.934036 0.139146 0)
(0.73778 0.103835 2.08121e-20)
(0.447302 0.0603182 2.99027e-20)
(0.191119 0.0249688 3.32919e-20)
(0.0401183 0.00535035 -3.82009e-20)
(-0.00510669 -0.000333566 -7.27292e-22)
(0.271448 0.0406729 0)
(1.09654 0.163904 1.07902e-21)
(1.28995 0.20851 0)
(1.3403 0.228445 -4.43911e-21)
(1.31781 0.243496 0)
(1.26531 0.251277 -7.75977e-21)
(1.21259 0.255875 3.75301e-21)
(1.16067 0.256892 -1.32151e-20)
(1.10925 0.252993 -3.1682e-22)
(1.05934 0.24262 5.01799e-21)
(1.01934 0.227036 2.12304e-20)
(0.994983 0.211308 -5.19798e-23)
(0.984251 0.197858 -7.61759e-21)
(0.971882 0.184255 -1.39052e-20)
(0.892989 0.161204 1.64847e-20)
(0.68214 0.117383 -2.92411e-20)
(0.39735 0.0660439 -3.87253e-21)
(0.159516 0.026107 0)
(0.0248447 0.00425445 -2.14593e-24)
(-0.00815246 -0.00110152 0)
(0.265195 0.0546408 1.31981e-20)
(1.12277 0.222258 -6.53637e-21)
(1.31335 0.272842 -5.18685e-21)
(1.35784 0.293296 2.06773e-21)
(1.32909 0.30472 -3.4885e-21)
(1.27213 0.308024 1.62589e-20)
(1.21478 0.308248 7.83263e-21)
(1.15798 0.305059 0)
(1.1016 0.297018 -2.50943e-20)
(1.04686 0.282454 0)
(1.00284 0.263128 -1.11505e-20)
(0.975648 0.2446 -1.38013e-20)
(0.962412 0.22893 -8.31193e-21)
(0.945046 0.212372 -1.01158e-20)
(0.858649 0.184189 0)
(0.646415 0.13306 0)
(0.373037 0.074689 -2.52941e-20)
(0.148232 0.029278 5.01043e-21)
(0.0197616 0.0037683 -2.93701e-21)
(-0.00964323 -0.00187096 -3.47895e-21)
(0.257805 0.0669755 -4.37742e-21)
(1.13446 0.2806 0)
(1.32621 0.338236 1.01281e-20)
(1.36725 0.359662 5.71635e-21)
(1.33409 0.367453 8.1584e-21)
(1.27385 0.366302 0)
(1.21285 0.362051 7.62766e-21)
(1.15201 0.354484 1.46325e-20)
(1.09137 0.342085 1.2841e-20)
(1.03234 0.323156 2.373e-20)
(0.984586 0.299844 0)
(0.954615 0.278265 -2.98157e-20)
(0.939024 0.260404 -1.79925e-20)
(0.917907 0.241197 -1.06516e-20)
(0.829219 0.2084 6.54935e-20)
(0.623309 0.150948 7.82088e-21)
(0.363717 0.0863369 3.68148e-20)
(0.149555 0.0345416 -1.74414e-19)
(0.0218139 0.00454056 1.03371e-19)
(-0.00961662 -0.00239133 -1.26186e-19)
(0.250796 0.0781023 -9.42169e-22)
(1.13697 0.337061 7.49004e-22)
(1.33151 0.40285 -9.73732e-22)
(1.37019 0.425614 -5.41688e-21)
(1.33377 0.429964 -6.67241e-21)
(1.27105 0.424534 3.62836e-22)
(1.20719 0.415953 -8.28098e-21)
(1.14306 0.404096 1.51242e-20)
(1.07881 0.387384 -2.76757e-20)
(1.0159 0.364022 0)
(0.964653 0.336683 -1.34929e-20)
(0.932069 0.312209 -3.25623e-22)
(0.914203 0.292209 -1.97246e-20)
(0.890207 0.270331 0)
(0.802704 0.233348 -1.42191e-20)
(0.606611 0.17078 -3.39028e-20)
(0.362259 0.100247 9.06526e-20)
(0.156598 0.0420634 -8.93377e-20)
(0.0285513 0.00700167 1.27112e-19)
(-0.00814674 -0.00246121 -1.33764e-19)
(0.244965 0.0884251 -1.04438e-22)
(1.13383 0.390983 1.02418e-22)
(1.33141 0.465657 -2.0461e-21)
(1.36811 0.489975 1.98633e-21)
(1.32922 0.491195 -3.32865e-21)
(1.26461 0.481747 0)
(1.19844 0.469088 -7.62545e-21)
(1.13154 0.453161 -1.58302e-20)
(1.06413 0.432298 -1.43747e-20)
(0.99774 0.404603 0)
(0.943328 0.373505 -1.40057e-20)
(0.90833 0.346369 -1.74087e-20)
(0.8882 0.324069 2.14358e-20)
(0.862034 0.299768 -1.30408e-20)
(0.777055 0.258949 -6.22736e-20)
(0.59199 0.191943 3.71589e-20)
(0.363103 0.115431 1.1094e-20)
(0.165692 0.0512178 0)
(0.0372673 0.0109416 -1.23294e-19)
(-0.00590947 -0.00210723 -4.58353e-21)
(0.240429 0.0982732 5.40457e-22)
(1.1273 0.442208 -6.8197e-22)
(1.32736 0.526098 8.17955e-22)
(1.36222 0.552037 7.37738e-21)
(1.32138 0.55048 -1.19195e-20)
(1.25531 0.537356 1.49817e-20)
(1.18726 0.520942 1.64506e-20)
(1.118 0.501219 -2.53065e-20)
(1.0478 0.476428 8.94586e-21)
(0.97828 0.444645 -5.85068e-20)
(0.921009 0.409986 -1.58854e-20)
(0.883665 0.379985 0)
(0.86145 0.35543 2.32884e-20)
(0.833618 0.328916 2.79747e-20)
(0.750879 0.284831 3.35623e-20)
(0.5771 0.213591 -4.04541e-20)
(0.362369 0.131507 -1.2008e-20)
(0.173543 0.0616947 1.41021e-20)
(0.0458636 0.015849 0)
(-0.00340311 -0.00141184 -9.97417e-21)
(0.237061 0.107745 -1.05456e-20)
(1.119 0.490795 5.29495e-21)
(1.32066 0.584239 -5.19958e-22)
(1.35349 0.61145 4.18878e-21)
(1.31106 0.60742 -5.13607e-21)
(1.24386 0.590979 -8.23719e-22)
(1.17427 0.571181 -1.80241e-20)
(1.10296 0.547981 -9.17158e-21)
(1.03025 0.519508 -2.50308e-20)
(0.957881 0.483908 6.12439e-23)
(0.897899 0.445611 -4.97448e-20)
(0.858387 0.412617 4.2151e-20)
(0.834409 0.38603 -2.56428e-20)
(0.805178 0.357487 3.09053e-20)
(0.724266 0.310116 0)
(0.560689 0.234881 -2.20029e-20)
(0.358627 0.147601 3.37869e-24)
(0.17849 0.0723303 -6.16625e-20)
(0.0527399 0.0210507 -9.08491e-21)
(-0.00109409 -0.000554846 0)
(0.234759 0.117059 0)
(1.10986 0.536957 6.41912e-21)
(1.31199 0.639886 1.23133e-21)
(1.34271 0.668036 -3.51432e-21)
(1.29893 0.661803 -6.82513e-21)
(1.23086 0.642405 0)
(1.15999 0.619584 -8.05044e-21)
(1.08688 0.593236 -2.18527e-22)
(1.01188 0.561375 5.36833e-20)
(0.936832 0.522145 -8.03004e-21)
(0.874216 0.480169 -3.5955e-20)
(0.832733 0.444387 2.19059e-20)
(0.807261 0.416007 -4.45548e-22)
(0.776598 0.385223 3.28768e-20)
(0.697132 0.334265 2.03433e-20)
(0.542371 0.254772 -4.75377e-20)
(0.351454 0.162681 5.64295e-20)
(0.17939 0.0821386 1.67386e-20)
(0.0568361 0.0257402 6.92499e-20)
(0.000636112 0.000249897 -1.87309e-19)
(0.23343 0.126348 -4.07652e-21)
(1.10053 0.580875 5.09774e-21)
(1.30199 0.692759 -3.16102e-21)
(1.33051 0.721746 2.09183e-21)
(1.28556 0.713527 0)
(1.2168 0.691511 -6.56005e-21)
(1.14484 0.666012 2.71986e-20)
(1.07013 0.636839 2.00586e-20)
(0.993032 0.601908 0)
(0.915379 0.559214 -1.159e-19)
(0.850182 0.513736 9.73545e-20)
(0.806901 0.475484 0)
(0.779999 0.445114 3.0016e-20)
(0.747853 0.411619 -4.47676e-22)
(0.669345 0.356795 -6.50734e-20)
(0.52178 0.272499 2.55117e-20)
(0.34101 0.175825 0)
(0.176425 0.0901646 9.03821e-20)
(0.0577777 0.0292652 0)
(0.00162329 0.000824899 -8.8715e-20)
(0.232894 0.135641 5.05515e-21)
(1.0914 0.622711 7.10122e-21)
(1.29108 0.742883 -3.02656e-21)
(1.31737 0.772594 0)
(1.27137 0.762581 -5.28927e-21)
(1.20208 0.738253 0)
(1.12919 0.710388 -2.65916e-20)
(1.05305 0.678699 -9.20756e-21)
(0.973978 0.641028 9.42915e-21)
(0.893764 0.595105 -5.73603e-20)
(0.826022 0.546444 1.00419e-20)
(0.780978 0.505761 0)
(0.752595 0.472846 -6.41189e-20)
(0.718996 0.436202 4.4319e-22)
(0.640982 0.377132 0)
(0.499313 0.28764 3.02031e-22)
(0.327387 0.186333 8.24567e-20)
(0.170046 0.0958342 -7.81199e-20)
(0.056148 0.0312208 2.31267e-20)
(0.00190396 0.00107336 0)
(0.232807 0.144836 0)
(1.08266 0.662511 8.88855e-21)
(1.27966 0.790349 5.15088e-21)
(1.30368 0.820646 -5.02968e-22)
(1.25675 0.80899 -1.36968e-21)
(1.18703 0.782623 -1.46695e-20)
(1.11334 0.752681 1.00309e-20)
(1.03589 0.71878 -1.09631e-20)
(0.954959 0.678686 4.22159e-20)
(0.872209 0.629863 -9.16988e-20)
(0.801912 0.578314 -7.79155e-22)
(0.754996 0.534897 -2.80152e-20)
(0.725067 0.498918 1.04122e-19)
(0.69004 0.458951 -5.20979e-22)
(0.611926 0.395071 -5.05455e-20)
(0.47495 0.300086 -9.02553e-20)
(0.311086 0.193999 0)
(0.160609 0.0989583 0)
(0.0524539 0.0316751 2.49552e-20)
(0.00165064 0.00101944 -1.48225e-20)
(0.23327 0.154034 7.49743e-21)
(1.07446 0.700253 -2.05867e-20)
(1.26801 0.835247 -5.57495e-21)
(1.28975 0.865983 0)
(1.24196 0.852805 -3.17525e-22)
(1.17191 0.824642 -1.29196e-20)
(1.09754 0.79289 2.39015e-20)
(1.0189 0.757074 4.28597e-20)
(0.936185 0.714885 5.47755e-20)
(0.850919 0.663534 -7.48613e-20)
(0.777965 0.609278 -8.37754e-20)
(0.728967 0.562724 7.49604e-20)
(0.697466 0.523456 0)
(0.660937 0.479963 -2.29453e-20)
(0.582185 0.410459 -5.4695e-20)
(0.449029 0.3096 -6.48652e-20)
(0.292374 0.198621 -7.69042e-20)
(0.148529 0.0994864 2.27813e-20)
(0.0469484 0.0307376 -1.3441e-20)
(0.00106392 0.00073096 5.81042e-23)
(0.234043 0.163037 0)
(1.06685 0.736374 0)
(1.2563 0.877664 5.29456e-22)
(1.27576 0.908681 0)
(1.22724 0.894107 1.69641e-21)
(1.15692 0.864365 8.3154e-21)
(1.08197 0.831039 0)
(1.00225 0.793592 5.02687e-21)
(0.917837 0.749631 9.12581e-20)
(0.830065 0.696147 -1.72212e-19)
(0.754273 0.639282 0)
(0.702934 0.589356 -4.82687e-20)
(0.669795 0.546791 -6.15433e-22)
(0.631514 0.499142 -4.86805e-22)
(0.551777 0.422952 5.84933e-20)
(0.422048 0.315969 -3.97636e-23)
(0.271619 0.200059 -1.65615e-19)
(0.134474 0.0974233 4.90023e-20)
(0.0402902 0.0284614 1.45348e-20)
(0.000251581 0.000253348 0)
(0.234857 0.171915 -3.11597e-20)
(1.0596 0.770842 -1.44868e-20)
(1.24462 0.917652 -1.79501e-20)
(1.26192 0.948824 1.48861e-20)
(1.21274 0.932964 -2.4786e-22)
(1.14223 0.901847 0)
(1.06678 0.867173 1.41594e-20)
(0.986093 0.828362 -1.12478e-20)
(0.90006 0.782944 7.89231e-22)
(0.8098 0.727717 1.27139e-20)
(0.730944 0.66835 1.08528e-19)
(0.676964 0.615133 -1.69312e-20)
(0.641943 0.569213 -6.42583e-20)
(0.60148 0.51618 -2.67598e-20)
(0.520772 0.432199 3.1796e-20)
(0.39451 0.319041 -1.65794e-24)
(0.249614 0.198195 4.4618e-20)
(0.119402 0.0929533 -1.0544e-19)
(0.0332659 0.02521 1.25081e-19)
(-0.00063523 -0.000346607 1.84697e-20)
(0.235458 0.180566 1.20049e-20)
(1.05271 0.803745 -8.28943e-21)
(1.23312 0.955325 1.29191e-21)
(1.24836 0.986531 1.04524e-20)
(1.1986 0.969485 1.45318e-21)
(1.12796 0.93716 -1.3974e-20)
(1.05211 0.901343 3.94282e-21)
(0.970545 0.861407 -4.67659e-20)
(0.882984 0.814826 -1.00348e-19)
(0.790244 0.758224 -1.02602e-19)
(0.708108 0.696584 0)
(0.651139 0.640438 -7.44489e-20)
(0.613743 0.59087 9.2692e-20)
(0.570505 0.530754 0)
(0.489167 0.437962 -6.81161e-20)
(0.366769 0.318438 4.06402e-20)
(0.227485 0.192823 -4.79713e-20)
(0.104648 0.0864873 -5.67401e-20)
(0.0266162 0.0214272 -1.00755e-19)
(-0.00146166 -0.000970703 -7.95506e-20)
(0.236402 0.189071 -1.37729e-20)
(1.04604 0.835059 8.88283e-21)
(1.22185 0.990742 1.99905e-20)
(1.23516 1.02188 1.58362e-20)
(1.18491 1.00376 -2.31668e-21)
(1.11419 0.970388 -6.84668e-21)
(1.03802 0.933602 1.32719e-20)
(0.955692 0.892769 -4.78253e-20)
(0.866693 0.845299 -5.93691e-20)
(0.771513 0.787666 1.07286e-19)
(0.685903 0.724127 2.38552e-19)
(0.625549 0.665565 0)
(0.585047 0.611805 0)
(0.538257 0.542813 -3.08451e-20)
(0.456671 0.44009 0)
(0.338876 0.313242 8.74097e-20)
(0.206489 0.183219 1.03182e-19)
(0.092183 0.0781038 0)
(0.0215615 0.0175594 0)
(-0.00210503 -0.00152778 8.54959e-20)
(0.236981 0.197101 1.58664e-20)
(1.0396 0.864769 1.25388e-20)
(1.21088 1.02401 1.46502e-20)
(1.22239 1.05502 -1.59833e-20)
(1.17173 1.0359 -4.0181e-21)
(1.10099 1.00161 6.04106e-21)
(1.02459 0.964011 -1.80344e-20)
(0.941593 0.922475 -3.5488e-23)
(0.851266 0.874363 -1.02973e-21)
(0.7537 0.816031 -1.02065e-21)
(0.664491 0.751116 1.22928e-19)
(0.600302 0.690655 0)
(0.555806 0.632052 9.39897e-20)
(0.504472 0.552701 6.58482e-20)
(0.42254 0.438655 1.59112e-19)
(0.31017 0.302103 4.70949e-20)
(0.187911 0.166997 -5.55629e-20)
(0.0861168 0.0652226 -3.27104e-20)
(0.0232431 0.0124848 0)
(-0.00128792 -0.00173337 9.18726e-20)
(0.237892 0.205143 -3.63284e-20)
(1.03337 0.893028 0)
(1.2002 1.05518 1.76755e-20)
(1.21005 1.08601 -1.38762e-20)
(1.15911 1.06599 6.69088e-21)
(1.08838 1.03091 -4.65708e-21)
(1.01186 0.992625 3.40578e-20)
(0.928288 0.950556 -4.00887e-21)
(0.836746 0.902025 0)
(0.736887 0.84329 -1.18253e-19)
(0.644029 0.777638 -2.67188e-19)
(0.575534 0.715738 1.09891e-20)
(0.526122 0.651696 1.2974e-19)
(0.46905 0.561137 0)
(0.385647 0.434347 1.07449e-19)
(0.278315 0.284065 0)
(0.169995 0.138795 0)
(0.09155 0.0336031 -3.53906e-20)
(0.0559108 -0.00793206 0)
(0.0271617 0.00691287 2.46238e-20)
(0.238349 0.212596 -4.09668e-20)
(1.02731 0.920021 0)
(1.18982 1.08446 2.98221e-20)
(1.19812 1.1151 0)
(1.14701 1.09431 -4.47674e-21)
(1.07632 1.05857 0)
(0.999758 1.01976 1.52572e-21)
(0.915681 0.977354 6.53552e-21)
(0.823012 0.92865 7.44751e-21)
(0.720907 0.869836 -1.29714e-19)
(0.62435 0.804184 8.00504e-21)
(0.550979 0.741322 8.86877e-20)
(0.495619 0.671365 1.26733e-19)
(0.431227 0.569095 1.71222e-20)
(0.344178 0.428864 8.42787e-20)
(0.238583 0.260271 0)
(0.141863 0.0950859 1.17195e-19)
(0.0788018 -0.011277 -6.89196e-20)
(0.0327518 0.058481 8.04605e-20)
(-0.038206 0.454174 -9.55901e-20)
(0.23874 0.219877 3.41698e-20)
(1.02121 0.945643 5.12579e-20)
(1.17964 1.11216 0)
(1.18644 1.14274 1.07813e-21)
(1.13524 1.12143 1.39657e-20)
(1.06454 1.08529 3.67432e-23)
(0.987976 1.04622 1.12137e-20)
(0.903364 1.00381 0)
(0.809534 0.955344 4.89349e-20)
(0.705085 0.897001 -6.72186e-21)
(0.604541 0.832278 0)
(0.525358 0.769018 0)
(0.462445 0.692523 1.13421e-19)
(0.388748 0.577442 -5.29122e-20)
(0.295085 0.4243 -8.53145e-20)
(0.186918 0.234283 0)
(0.0804103 0.103277 5.95581e-20)
(0.00720967 0.465738 -6.93685e-20)
(0.032013 1.92189 -3.90369e-20)
(0.0587492 2.82226 -4.7769e-20)
(0.238737 0.226574 -2.60043e-20)
(1.01512 0.970065 -6.6404e-20)
(1.1697 1.13828 1.80637e-20)
(1.17502 1.16879 1.4416e-20)
(1.12386 1.14716 0)
(1.05313 1.1108 -2.39059e-21)
(0.976722 1.07169 1.43625e-20)
(0.891527 1.0295 -3.10804e-21)
(0.79659 0.981586 7.31082e-21)
(0.689813 0.92419 1.23212e-19)
(0.585219 0.861219 1.3484e-19)
(0.499632 0.798357 9.91431e-20)
(0.427545 0.715169 1.14063e-19)
(0.343263 0.585446 -1.24162e-19)
(0.244835 0.424028 -1.28758e-19)
(0.121907 0.279715 0)
(0.0419173 0.872951 0)
(0.089827 2.57681 3.30775e-20)
(0.0923109 3.20947 0)
(0.0933366 3.38858 8.6454e-20)
(0.241518 0.232783 0)
(1.0093 0.993652 0)
(1.1597 1.16267 0)
(1.16364 1.1931 4.46466e-21)
(1.11256 1.17126 1.32282e-20)
(1.04188 1.13495 -4.65261e-21)
(0.965921 1.09607 8.83612e-21)
(0.880102 1.05429 -2.99997e-21)
(0.784117 1.0072 6.04843e-20)
(0.67509 0.95126 -1.91935e-21)
(0.566468 0.89074 2.65891e-19)
(0.474184 0.82922 -1.14537e-20)
(0.390962 0.740123 1.3817e-20)
(0.297041 0.591287 1.79735e-20)
(0.18418 0.442223 -3.95398e-22)
(0.0959021 1.01028 3.43632e-22)
(0.128283 2.75706 -1.73567e-19)
(0.133084 3.30069 -6.58719e-20)
(0.122775 3.42436 3.50507e-20)
(0.11161 3.44435 -3.95775e-20)
(0.16397 0.177811 1.60994e-20)
(0.999461 1.01912 0)
(1.14951 1.1856 -3.77966e-20)
(1.15268 1.21601 -4.017e-20)
(1.1018 1.19422 3.26747e-20)
(1.03148 1.15822 5.97717e-21)
(0.955429 1.11932 -8.57425e-21)
(0.869149 1.07819 3.20626e-20)
(0.772196 1.03225 -4.93701e-20)
(0.661128 0.978335 0)
(0.548552 0.920831 1.30659e-19)
(0.449583 0.861244 -8.07677e-20)
(0.353588 0.770603 0)
(0.24385 0.599419 1.72767e-20)
(0.137409 0.79273 4.1494e-20)
(0.142683 2.55705 -4.74767e-20)
(0.191704 3.33029 5.41839e-20)
(0.17335 3.43664 2.93149e-20)
(0.143539 3.45519 3.3623e-20)
(0.123814 3.46366 5.36764e-20)
(0.277097 0.271973 -3.09943e-20)
(0.983259 1.03047 0)
(1.132 1.21207 4.1276e-20)
(1.13861 1.24847 4.5165e-20)
(1.08486 1.22812 -3.77171e-20)
(1.01402 1.19255 -1.1219e-20)
(0.936833 1.15522 5.3652e-21)
(0.850008 1.11543 2.51902e-21)
(0.751677 1.07175 4.62148e-20)
(0.637767 1.02202 1.05267e-19)
(0.520029 0.971214 7.30424e-21)
(0.409968 0.915127 7.14173e-20)
(0.286726 0.813218 1.29383e-20)
(0.207498 0.967077 -1.65385e-20)
(0.213354 2.42927 -3.77561e-20)
(0.264085 3.33668 3.75427e-20)
(0.247062 3.46448 -4.13606e-20)
(0.212476 3.48245 -2.40055e-20)
(0.178393 3.50637 -2.1802e-20)
(0.133265 3.50045 -3.19928e-21)
(0.267651 0.271101 0)
(0.980979 1.05394 1.21576e-20)
(1.1238 1.23606 -8.55873e-21)
(1.12806 1.27228 -5.43784e-21)
(1.07415 1.25164 -2.64954e-20)
(1.00336 1.21628 1.19815e-20)
(0.925881 1.17923 -1.6924e-21)
(0.838832 1.1403 2.20496e-21)
(0.739934 1.09814 -4.76583e-20)
(0.624682 1.05143 -2.89573e-21)
(0.504082 1.00543 -2.34235e-19)
(0.388386 0.951208 1.01914e-20)
(0.275379 0.887706 -1.22163e-20)
(0.242181 1.56159 -1.51904e-20)
(0.303541 3.14491 3.65746e-21)
(0.31747 3.46796 3.41974e-22)
(0.275532 3.51454 6.11273e-20)
(0.241344 3.53648 3.10684e-20)
(0.195503 3.55572 -1.00942e-20)
(0.145538 3.55153 -1.58465e-20)
(0.253665 0.269311 3.13362e-20)
(0.977825 1.08006 8.27524e-20)
(1.11524 1.26217 -2.4544e-20)
(1.11712 1.29769 -2.05368e-20)
(1.06302 1.27664 0)
(0.992354 1.24133 2.34308e-20)
(0.914838 1.20459 7.6038e-22)
(0.827818 1.16646 1.86789e-21)
(0.728661 1.1259 -5.31945e-21)
(0.612599 1.08249 -9.36996e-20)
(0.489978 1.04147 -1.07378e-19)
(0.369873 0.989153 -8.32646e-20)
(0.275231 1.0306 -9.14194e-20)
(0.305828 2.30956 9.47448e-20)
(0.382601 3.39609 8.08739e-20)
(0.355645 3.52587 0)
(0.307243 3.56089 0)
(0.270437 3.59341 -7.8375e-21)
(0.225981 3.6382 0)
(0.156738 3.62175 -1.24686e-20)
(0.243791 0.271426 -4.70591e-20)
(0.972732 1.10713 -7.04557e-20)
(1.10534 1.28958 0)
(1.10499 1.324 1.31084e-21)
(1.0507 1.30233 -2.93764e-20)
(0.980299 1.26697 3.90702e-20)
(0.903065 1.23057 2.40546e-21)
(0.816299 1.19315 8.35084e-22)
(0.717131 1.15415 -3.24304e-20)
(0.600683 1.11403 4.59889e-21)
(0.476898 1.07779 0)
(0.353242 1.03221 0)
(0.299727 1.31726 -8.25957e-20)
(0.38249 2.97418 3.38064e-20)
(0.446804 3.49691 4.32187e-20)
(0.394176 3.56078 0)
(0.352168 3.616 -3.8281e-21)