/*--------------------------------*- C++ -*----------------------------------*\
  =========                 |
  \\      /  F ield         | OpenFOAM: The Open Source CFD Toolbox
   \\    /   O peration     | Website:  https://openfoam.org
    \\  /    A nd           | Version:  6
     \\/     M anipulation  |
\*---------------------------------------------------------------------------*/
FoamFile
{
    version     2.0;
    format      ascii;
    class       volVectorField;
    location    "37";
    object      U;
}
// * * * * * * * * * * * * * * * * * * * * * * * * * * * * * * * * * * * * * //

dimensions      [0 1 -1 0 0 0 0];

internalField   nonuniform List<vector> 
918
(
(0.985047 -0.000707413 0)
(0.00533537 2.96625 0)
(-0.0165674 0.807885 0)
(0.979573 0.00195833 0)
(-0.0766817 1.88228 -1.32168e-20)
(-0.00708768 2.94855 -2.75552e-18)
(0.818083 1.13988 3.91306e-19)
(0.320385 0.11829 -1.65295e-20)
(0.999919 -0.000246098 0)
(0.0773646 0.755994 0)
(-0.00530789 0.535036 0)
(0.736294 -0.0150533 0)
(0.0102218 2.93153 0)
(0.00325774 2.79462 0)
(-0.000738671 3.19205 7.87498e-19)
(-0.00832741 1.84159 -3.80696e-20)
(0.377955 0.0297019 1.08826e-18)
(0.238178 1.15058 3.02144e-19)
(0.964502 0.0066698 0)
(0.00109935 0.61017 0)
(0.0927172 0.186945 -7.8018e-19)
(1.00184 -0.00456576 0)
(0.999853 -0.0089356 0)
(0.97515 -0.00606479 0)
(0.599799 -0.0356173 0)
(0.022976 2.6436 0)
(-0.0124244 2.91205 1.02133e-18)
(-0.00813468 0.86167 0)
(-0.019631 1.03323 0)
(-0.00608546 0.835397 0)
(-0.0857716 2.57155 0)
(-0.0596233 1.99395 1.05171e-20)
(-0.0286563 1.77049 0)
(-0.0221519 2.98761 -9.9856e-23)
(-0.0164999 3.00549 2.14117e-18)
(0.00230445 3.00059 0)
(0.871036 -0.00938472 0)
(0.374686 0.917501 1.92327e-19)
(0.820057 1.15047 -4.49206e-19)
(0.955477 1.00406 4.81781e-19)
(0.685215 1.23472 -8.94493e-20)
(0.6965 1.20717 5.20363e-19)
(0.352001 0.214688 1.61259e-20)
(0.333989 0.100249 0)
(1.13358 0.513173 0)
(0.317625 0.21704 7.35341e-20)
(0.291428 0.137788 -7.63081e-20)
(0.920363 -0.0069774 0)
(1.00025 7.87155e-05 0)
(0.999909 0.000313788 0)
(1.00369 -0.00729875 0)
(1.00091 -0.000952695 0)
(1.0001 -2.01479e-05 0)
(0.0988917 1.82612 -8.55887e-19)
(0.0373076 0.920965 0)
(0.12169 0.829901 0)
(0.0110506 0.879392 0)
(0.0490695 0.690628 0)
(0.0163526 2.01037 0)
(0.00674526 0.746096 0)
(0.0137794 0.561828 0)
(-0.00102689 0.739676 0)
(-0.0153852 0.537183 0)
(0.839152 -0.0149219 0)
(0.845137 0.0315737 0)
(0.767816 -0.00432532 0)
(0.817918 0.0424141 0)
(0.699564 -0.0190552 0)
(0.0139532 3.0002 1.02509e-18)
(0.0111801 3.00598 0)
(0.00626393 3.00388 0)
(0.0119073 2.99711 1.16784e-23)
(0.00828337 2.95872 -1.52353e-18)
(0.0122212 2.9829 0)
(0.00900146 2.90471 0)
(0.0208187 2.93164 2.42105e-24)
(0.00414247 2.82416 0)
(0.0255201 2.9189 0)
(-0.000511668 2.74403 0)
(0.310141 3.59227 0)
(-0.122759 3.67564 0)
(0.152646 3.28316 -7.32935e-19)
(0.00622037 3.01579 0)
(-0.0409531 2.19017 0)
(-0.0145195 2.1208 3.75459e-20)
(-0.00167038 1.86209 -4.24864e-20)
(0.456312 0.134748 -3.76573e-19)
(0.378844 0.000343241 -3.63476e-19)
(0.4368 0.162178 -1.13078e-18)
(0.365268 0.0510097 -7.45348e-19)
(0.254463 0.98902 0)
(0.339216 1.27832 -3.22496e-19)
(0.414437 1.18024 5.33246e-19)
(0.987969 0.00807094 0)
(0.943449 0.00578919 0)
(1.00029 0.000674732 0)
(1.00254 0.00907173 0)
(1.00315 0.00891559 -2.87021e-18)
(0.992126 0.00951029 2.16891e-18)
(-0.0124287 0.783215 0)
(-0.0233704 0.602136 0)
(0.0145458 0.88641 0)
(-0.0230339 0.798809 0)
(-0.0137524 0.618806 0)
(0.123471 0.198447 2.41508e-19)
(0.174145 0.171885 0)
(0.993605 -0.00769735 0)
(0.953975 -0.00647043 0)
(0.768471 0.0502996 0)
(0.702977 0.0549917 0)
(0.659177 -0.0247732 0)
(0.966277 -0.0063794 0)
(0.631832 0.0598377 0)
(0.459053 -0.0367832 1.58994e-18)
(-0.040991 2.86092 8.34501e-19)
(0.0337901 2.91378 0)
(0.0424829 2.89197 0)
(0.00353885 2.7014 0)
(-0.00856081 2.98671 9.80719e-19)
(-0.0141294 2.89481 0)
(-0.0109128 2.99174 -3.01242e-18)
(-0.0117051 2.92971 1.0241e-18)
(0.0551628 1.26928 0)
(0.0293165 1.34758 0)
(-0.0283129 2.06094 -1.06572e-21)
(-0.035923 2.00261 0)
(-0.00560455 1.82482 0)
(0.93809 -0.00561642 0)
(0.855882 -0.0104041 0)
(0.863799 0.00618507 0)
(0.949122 -0.00639365 0)
(0.883053 -0.00792026 0)
(0.49933 1.11889 -2.42539e-19)
(0.547226 1.1905 0)
(0.335438 0.849757 3.58434e-20)
(0.279433 0.71472 0)
(0.91591 1.04063 -1.32385e-19)
(1.02923 0.840607 2.56142e-19)
(0.401556 1.34046 0)
(0.547494 1.29477 0)
(0.598044 1.22798 0)
(0.0935692 0.171906 -3.12479e-19)
(0.369495 0.208242 0)
(0.331464 0.0948344 2.11334e-19)
(0.991765 0.896599 0)
(1.05563 0.739068 0)
(1.08522 0.672632 -1.8291e-19)
(1.11385 0.581301 0)
(1.16838 0.370247 4.45926e-20)
(0.957164 -0.00723785 0)
(0.962554 -0.00821031 0)
(0.900536 -0.00726318 0)
(0.983879 -0.0081487 0)
(0.974334 -0.00809381 0)
(0.936421 -0.00651983 0)
(1.0002 0.00250401 0)
(1.00076 0.00125001 0)
(0.999999 0.000777144 0)
(0.039516 2.07525 4.72101e-19)
(0.147221 1.7705 0)
(0.0103322 2.19291 7.3831e-19)
(0.0606562 1.87796 -6.30375e-19)
(0.173018 1.13248 -2.46693e-19)
(0.0561859 0.997008 0)
(0.122384 0.99654 0)
(0.0126062 0.831497 0)
(0.0308962 0.6445 0)
(-0.00835594 2.23397 -1.44405e-21)
(0.0246447 2.00404 0)
(-0.00762864 2.21955 -7.37561e-20)
(0.0182317 2.00668 1.3471e-19)
(0.00694508 0.799007 0)
(0.0162513 0.770686 0)
(0.02228 0.606325 0)
(-0.0108135 0.747255 0)
(-0.00897394 0.547238 0)
(0.936179 0.0131897 0)
(0.850187 -0.011356 0)
(0.926288 0.00433208 0)
(0.843184 -0.0120935 0)
(0.812719 0.000737956 0)
(0.901144 0.0208966 0)
(0.877115 0.0255915 0)
(0.789228 -0.00166634 0)
(0.010463 3.06734 -9.64362e-21)
(0.0148372 3.0594 0)
(0.0124136 2.97035 0)
(0.00757589 2.87662 0)
(0.901006 3.99078 0)
(1.19656 3.38416 9.37707e-19)
(0.0832204 3.09699 0)
(-0.0155054 2.92171 0)
(0.0864582 1.4696 0)
(0.0309695 1.85314 0)
(0.0241831 1.71597 0)
(-0.0541067 2.52622 1.9172e-20)
(-0.0460884 2.35447 0)
(-0.0895757 2.46166 0)
(0.0175539 1.95851 4.82592e-21)
(-0.0182591 2.17991 3.90717e-20)
(-0.0137055 2.15798 4.31217e-20)
(0.0110082 1.9045 0)
(0.472293 0.110646 5.69122e-19)
(0.385744 -0.011688 -5.59171e-19)
(0.233075 1.57707 0)
(0.281472 0.72515 -3.39548e-19)
(0.177651 1.67634 -1.1274e-18)
(0.242293 1.19128 1.1282e-18)
(0.901977 0.00626082 0)
(0.967239 0.0104374 0)
(0.975137 0.0097308 0)
(0.923175 0.0060839 0)
(-0.0309057 0.76391 0)
(-0.0262533 0.776141 0)
(-0.0197577 0.570789 0)
(0.273966 0.213924 6.76345e-19)
(0.230136 0.199915 -8.02243e-19)
(0.241848 0.149982 0)
(1.08757 0.0849478 2.992e-20)
(1.07117 0.0384612 0)
(1.00729 0.0412768 0)
(0.905299 -0.00398896 0)
(0.49789 0.0864799 0)
(0.550125 0.0616473 -2.54897e-18)
(0.405466 -0.0195093 9.60462e-19)
(0.0110437 2.97712 8.70279e-19)
(-0.033096 2.8619 4.59735e-20)
(0.00832218 3.05296 -2.02911e-20)
(0.0158022 3.04341 7.58584e-19)
(-0.0118501 2.99997 3.3617e-20)
(-0.0122813 2.95234 -1.3556e-22)
(-0.0150627 3.01327 -6.2515e-19)
(0.0143657 3.02657 4.39874e-19)
(0.00757288 3.03481 -7.157e-19)
(0.933094 0.00163373 0)
(0.938521 -0.00180185 0)
(0.846069 -0.0104131 0)
(0.956685 0.0113555 0)
(0.943058 0.0125983 0)
(0.88205 0.00602645 0)
(0.917549 0.016884 0)
(0.926305 0.0143755 0)
(0.83849 0.00353212 0)
(0.673909 1.42107 -1.58373e-20)
(0.692791 1.53275 0)
(0.123949 0.309671 7.4209e-20)
(0.196923 0.631475 5.88915e-19)
(0.233229 0.6845 -3.4347e-19)
(0.218143 0.515624 6.8179e-19)
(0.323539 0.797357 1.64786e-18)
(0.120907 0.222426 3.91856e-19)
(0.414208 0.181518 7.92945e-19)
(0.397317 0.202804 2.04745e-19)
(0.352516 0.0700246 3.93741e-19)
(1.15926 0.433818 2.52602e-20)
(1.18393 0.23712 2.18729e-20)
(0.000614504 2.23668 2.96278e-19)
(0.0477841 1.93825 0)
(0.965404 0.0312438 0)
(0.941791 0.0181961 0)
(0.86408 -0.0164164 0)
(0.0121841 3.07437 0)
(0.0167809 2.94394 1.35454e-18)
(0.0139759 2.95677 0)
(0.00584947 2.85011 -1.34409e-18)
(0.00965337 3.08983 3.3181e-19)
(0.0116054 3.08387 0)
(0.713984 1.83126 -1.64491e-19)
(1.24104 2.63983 5.57491e-19)
(0.699067 2.01032 -1.3839e-18)
(0.0227315 2.97635 -7.68744e-19)
(0.0416994 3.0004 0)
(-0.0379585 2.88021 0)
(-0.0112046 2.20419 -1.00112e-20)
(-0.0176198 2.18799 -9.24568e-20)
(0.0156077 1.98945 -3.14701e-21)
(0.266894 1.37596 1.07469e-18)
(0.263984 0.518593 -7.35031e-19)
(0.069268 1.9918 8.10634e-19)
(0.122215 1.86102 -9.68449e-19)
(0.208319 1.51652 1.02789e-19)
(0.00460001 3.12006 -2.08818e-18)
(0.0181524 3.11947 2.25161e-18)
(-0.0048983 2.98083 9.23229e-19)
(-0.000368982 2.97513 -8.9274e-19)
(-0.0178301 2.87826 -9.40332e-19)
(0.0124101 3.10016 -2.47296e-18)
(0.00535957 3.10663 2.42938e-18)
(0.245015 0.669048 0)
(0.199356 0.636719 -1.2443e-18)
(0.0643959 0.209323 5.46804e-19)
(0.336201 0.912762 1.16266e-18)
(0.186935 0.263791 -1.79128e-18)
(1.1714 0.169867 7.40984e-20)
(1.18345 0.295494 0)
(1.16608 0.117125 -2.16676e-20)
(-0.00873486 2.2468 -2.13731e-21)
(-0.00404043 2.23983 0)
(0.0364516 1.9748 0)
(0.310379 1.3016 -3.86786e-19)
(0.348408 1.13913 -8.3183e-19)
(0.215099 0.370585 1.48545e-18)
(1.00642 -0.00975038 0)
(1.00773 -0.00781475 5.28164e-19)
(0.0399932 1.25045 0)
(0.000649685 1.16297 0)
(1.00245 0.00331807 1.39939e-21)
(1.00327 0.00796976 1.08309e-18)
(-0.0567575 2.53251 -2.39681e-20)
(-0.0442699 2.55873 0)
(0.0431855 3.17422 5.63274e-19)
(0.379672 3.55459 0)
(1.12052 0.68408 -8.22311e-20)
(1.01208 0.0108525 -2.74839e-21)
(1.02075 -0.00912227 0)
(1.00161 0.000205637 1.34967e-22)
(0.106091 1.36094 0)
(0.145351 2.59681 0)
(0.0299436 1.32061 0)
(-0.00462489 2.64029 6.84656e-20)
(-0.0242816 2.58954 5.04811e-20)
(0.999973 0.0260805 2.57362e-21)
(1.06147 0.00470596 0)
(1.09796 0.0259918 0)
(0.00985896 1.87596 0)
(-0.0337714 2.582 0)
(0.0219213 1.26822 0)
(0.283566 1.48178 -1.26943e-19)
(1.01145 -0.00910191 0)
(1.0097 -0.0130403 0)
(1.00228 0.00091027 6.76962e-19)
(1.00549 -0.00496894 -7.96978e-19)
(1.00114 -0.00089006 0)
(0.0484293 1.56519 0)
(0.0576001 1.35505 0)
(0.0500403 1.49499 0)
(0.0305723 1.25284 0)
(0.00826 1.17858 0)
(-0.0109851 1.13136 0)
(1.03498 -0.00477696 0)
(1.01966 0.0149716 -9.51525e-22)
(0.782775 1.30398 2.28046e-19)
(1.00234 0.000353168 -6.75499e-19)
(1.00344 0.00455807 8.06042e-19)
(1.00131 0.00212702 0)
(1.01138 0.00973185 6.73299e-19)
(1.00706 0.00752341 -8.18622e-19)
(1.00744 0.0113442 0)
(-0.0385894 2.6002 0)
(-0.0400973 2.57355 4.24917e-20)
(-0.0388663 2.58795 -2.82029e-20)
(1.22493 0.260569 6.529e-19)
(1.15685 0.0839952 0)
(0.0470807 3.09034 -1.08583e-18)
(0.0513737 2.87053 -7.66371e-20)
(0.106113 3.20159 1.45431e-18)
(0.124415 3.21435 -3.27135e-19)
(0.14691 3.26244 0)
(0.0236403 3.13786 3.0026e-19)
(0.0630826 3.16212 1.08183e-18)
(0.0635906 3.17942 -5.60968e-19)
(0.0275566 3.12919 0)
(0.651084 0.30567 0)
(0.597671 0.351527 0)
(1.10077 0.714881 2.12104e-19)
(1.06756 0.85069 -2.2665e-19)
(1.16268 0.604151 0)
(1.19461 0.532595 0)
(1.01589 0.0120034 -1.25175e-18)
(1.01479 0.012777 1.57413e-18)
(1.02549 -0.00889179 0)
(1.02384 -0.0104191 0)
(1.00659 0.00281306 0)
(1.01079 0.00409334 0)
(1.00445 0.00212261 0)
(1.00957 0.00654656 0)
(1.00704 0.00515374 0)
(1.00453 0.00533223 0)
(0.0939709 1.3575 0)
(0.0754364 1.34226 0)
(0.132024 1.40422 0)
(0.128064 1.4111 0)
(0.152997 2.61981 0)
(0.194502 2.6842 -4.58515e-19)
(0.109505 2.68127 0)
(0.0851433 2.68284 2.12828e-19)
(0.0290885 2.68926 -2.29202e-19)
(0.0232354 1.32321 0)
(0.0192977 1.25707 0)
(0.0319473 1.33478 0)
(0.0340827 1.27602 0)
(-0.00433396 1.99478 -3.15952e-20)
(-0.0256597 2.61687 3.64446e-20)
(-0.0133699 2.6834 6.21449e-20)
(-0.0232591 2.69248 0)
(-0.0294653 2.62282 -1.16178e-19)
(-0.0275537 2.61655 -6.2238e-20)
(0.00564563 1.9941 2.51016e-20)
(-0.0136169 2.418 -4.88913e-20)
(-0.0180516 2.43636 -7.04441e-20)
(1.01043 0.0370389 1.26739e-18)
(1.00715 0.0169017 -1.58068e-18)
(1.00401 0.0423515 -1.29515e-18)
(0.979307 0.0291315 1.62946e-18)
(1.06295 0.00778839 0)
(1.04845 -0.00726123 0)
(1.08995 0.0345976 0)
(1.07373 0.0133155 0)
(1.07233 -0.000548594 0)
(1.13632 0.0734452 0)
(1.11099 0.0427519 0)
(1.11277 0.0350596 0)
(-0.0663159 2.45561 -7.99064e-21)
(0.00751914 2.10737 0)
(-0.0365957 2.285 0)
(-0.0363531 2.60186 1.7757e-20)
(-0.0314427 2.61365 -8.58875e-22)
(0.0138399 1.64545 5.42952e-20)
(0.0306339 1.58915 -5.48471e-20)
(0.0310214 1.4068 0)
(0.0382052 1.41859 0)
(0.0256369 1.42626 0)
(0.0152678 1.2857 0)
(-0.00400356 1.19914 0)
(0.375611 1.50138 1.96416e-19)
(0.418746 1.51023 1.24047e-19)
(0.589601 2.47243 -2.47575e-19)
(0.38445 2.56659 7.63862e-19)
(0.354723 2.07182 8.53622e-20)
(1.02056 -0.00811251 0)
(1.01569 -0.00942116 0)
(1.0148 -0.013259 0)
(1.00762 -0.000716447 0)
(1.00494 -0.000630869 0)
(1.00796 -0.00461782 0)
(1.00949 -0.00362632 0)
(1.0145 -0.00446687 0)
(1.02044 0.0157548 1.2288e-18)
(1.01774 0.0148363 -1.55877e-18)
(1.021 0.0178418 -1.23869e-18)
(1.01886 0.0163357 1.54988e-18)
(0.74483 1.34625 0)
(0.678085 1.3871 1.82851e-19)
(0.850251 1.22339 4.74875e-20)
(0.881179 1.19646 -6.30078e-20)
(1.16419 2.62282 3.71865e-19)
(0.795713 0.113089 6.27987e-19)
(1.16272 0.0978139 0)
(1.19872 0.186613 -5.27955e-19)
(1.17962 0.148136 -2.19845e-20)
(1.0126 0.149817 0)
(0.0880937 3.02543 4.09868e-19)
(0.089383 2.90544 -1.29749e-18)
(0.0378569 2.36437 8.24801e-19)
(0.134796 -0.0630542 -3.98271e-19)
(0.347112 3.45669 -2.19637e-19)
(0.196939 3.34684 0)
(0.227619 3.40714 2.86102e-19)
(0.230208 3.0836 -1.37068e-18)
(0.264508 3.20409 0)
(0.0063901 3.12268 5.56897e-20)
(0.0165232 3.13148 -6.39813e-19)
(0.0155396 3.12721 9.41684e-19)
(0.0338174 3.14027 0)
(0.0321189 3.14981 0)
(1.26193 2.58998 0)
(0.514521 0.832182 -5.57503e-19)
(0.991421 1.03096 3.44715e-20)
(0.961851 1.0705 0)
(0.825493 0.958068 -1.35887e-19)
(1.04748 0.894601 2.83454e-20)
(0.406854 0.390915 -9.83712e-19)
(0.710319 0.31913 -2.46791e-20)
(0.665485 0.247903 4.43359e-19)
(0.61512 0.373064 3.27675e-20)
(0.527852 0.353247 -1.32201e-18)
(0.670215 0.336136 0)
(0.697902 0.421641 7.66065e-19)
(0.702784 0.425819 0)
(0.646179 0.363552 0)
(0.608446 0.30688 0)
(0.759849 0.643655 4.43995e-19)
(1.22935 0.290006 -5.38813e-19)
(1.2125 0.4329 0)
(1.22549 0.378647 0)
(0.758029 0.180992 6.62051e-19)
(0.823469 0.541793 -4.17951e-19)
(0.743567 0.498374 7.41475e-19)
(0.946674 0.427475 -7.97079e-19)
(1.019 0.0144504 8.35638e-19)
(1.01743 0.0135179 -8.4304e-19)
(1.01617 0.0142362 0)
(1.03635 -0.00503418 0)
(1.03002 -0.00798258 -7.92212e-19)
(1.02821 -0.0107736 7.84093e-19)
(1.02491 0.0101775 0)
(1.02312 0.0142028 0)
(1.01244 0.00448774 0)
(1.01453 0.00904832 0)
(1.01592 0.00383849 0)
(1.0152 0.00267745 0)
(0.0610376 1.35052 0)
(0.0608714 1.31418 0)
(0.143138 1.39629 9.79867e-21)
(0.263326 1.47446 5.28251e-20)
(0.156164 1.44573 1.13308e-19)
(0.178826 1.45212 -1.85162e-19)
(0.147286 1.40509 0)
(0.12629 1.57408 -1.56954e-19)
(0.124784 1.5671 0)
(0.352028 2.03234 -1.24227e-19)
(0.336631 2.34726 6.79734e-19)
(0.181147 1.44773 1.36836e-19)
(0.264331 1.37446 3.51274e-22)
(0.193754 1.37463 -2.86207e-22)
(0.28023 1.31014 -1.5024e-19)
(0.25383 1.57609 0)
(0.252615 1.62585 1.45124e-19)
(0.0280362 2.28085 -3.81263e-20)
(0.0374842 2.68365 0)
(0.066637 2.42055 1.5422e-19)
(0.0594883 2.44059 0)
(0.0707139 2.69902 -2.3586e-19)
(0.0438219 2.71614 0)
(0.0252888 1.41835 -1.60752e-20)
(0.0344811 1.47302 0)
(0.0328847 1.3839 0)
(0.0250905 1.38668 1.83384e-20)
(-0.00391076 2.66896 -7.71724e-21)
(0.0233259 2.70831 2.67213e-19)
(0.00615627 2.73799 1.70356e-21)
(-0.00420483 1.84168 3.66947e-20)
(-0.00980481 1.68676 1.36838e-20)
(0.0121087 1.30575 0)
(-0.00686789 1.23468 0)
(0.0379202 1.5676 5.66955e-20)
(0.0311266 1.44733 4.08402e-20)
(0.0313409 1.51653 -5.47786e-20)
(0.0407587 1.59681 0)
(-0.0465384 2.28886 -1.7338e-20)
(-0.0504892 2.55845 5.09975e-21)
(-0.0284503 2.46306 -1.06382e-20)
(-0.0207134 1.85928 -4.44409e-20)
(-0.0362004 2.51384 -1.41292e-20)
(-0.0308266 2.45405 8.02212e-20)
(1.01899 0.0206731 -8.39695e-19)
(1.01525 0.0262113 8.43662e-19)
(1.01432 0.0161167 0)
(1.01244 0.0659048 1.1563e-18)
(0.992874 0.0532399 -1.32633e-18)
(0.955712 0.0484746 1.48224e-18)
(1.01268 0.107429 -1.57821e-19)
(1.04301 -0.00523964 0)
(1.05089 -0.00124534 7.62078e-19)
(1.0394 -0.00855896 -7.60805e-19)
(1.071 0.0395113 -4.53903e-20)
(1.06331 0.0264205 3.90891e-19)
(1.06468 0.0612955 0)
(1.05237 0.0513308 -1.40461e-19)
(1.03251 0.0415302 0)
(1.02546 0.0374024 0)
(1.0278 0.0127339 0)
(1.0243 0.0154213 0)
(1.04061 0.0312539 2.88544e-19)
(1.03932 0.0268549 -6.37254e-19)
(1.05189 0.0356276 -3.06075e-19)
(1.04762 0.0357336 -3.37218e-19)
(1.07426 0.0642376 6.51807e-19)
(1.09755 0.0514236 0)
(1.10321 0.08888 0)
(-0.0533675 2.2819 -3.32259e-20)
(-0.0176326 2.07876 -9.40728e-21)
(-0.0197117 2.05967 0)
(-0.0504723 2.45771 3.34612e-20)
(-0.0258685 2.41721 1.70531e-20)
(-0.0654024 2.455 -1.30229e-20)
(-0.0307304 2.62886 5.59741e-20)
(-0.0416442 2.572 -3.98102e-21)
(-0.034134 2.52902 1.50646e-20)
(-0.0289346 2.62067 -2.3639e-20)
(-0.0317008 2.6223 2.96084e-20)
(0.0174898 1.52631 -1.61073e-22)
(0.00276988 1.67191 5.13241e-20)
(0.367752 1.42647 -7.34987e-20)
(0.363566 1.35841 7.6572e-20)
(0.630277 1.43106 -1.76882e-19)
(0.508552 1.50034 -1.19607e-19)
(0.553718 1.46585 0)
(0.603768 2.43075 2.33371e-19)
(0.666821 2.4301 3.5292e-19)
(0.422682 2.52485 9.83784e-20)
(0.398033 2.54995 -6.93308e-19)
(0.502934 2.49379 6.05428e-19)
(0.558467 2.47937 0)
(0.496058 2.52928 -5.80146e-19)
(0.262812 2.60104 1.23903e-18)
(0.365179 2.57243 -6.30614e-20)
(0.289226 2.66312 -1.71367e-18)
(0.963092 2.39345 7.64436e-19)
(0.845523 2.39294 0)
(1.01132 0.0011678 2.74953e-20)
(1.01519 -0.00538151 -2.24395e-20)
(1.01764 -0.00416096 -4.10435e-19)
(1.01543 -0.00124681 4.09066e-19)
(1.01291 0.00162029 0)
(0.620382 1.29227 0)
(0.654983 1.17866 0)
(0.762954 1.09917 0)
(0.641551 1.1398 0)
(1.19547 2.63921 5.0613e-20)
(1.08648 2.3858 0)
(0.823863 2.20295 4.08585e-21)
(0.824935 2.45561 0)
(0.917137 2.54344 -4.83414e-19)
(0.948894 2.49385 3.23092e-19)
(0.810811 0.137687 0)
(0.77493 0.13267 1.72127e-19)
(0.919791 0.14531 9.98218e-19)
(0.842038 0.122268 -3.75962e-19)
(0.809215 0.0811578 -1.14188e-18)
(1.08132 0.223546 -9.59513e-19)
(0.988414 0.283288 -7.26715e-21)
(0.926646 0.323484 9.09852e-19)
(1.02033 0.233769 7.66738e-19)
(0.936737 0.183224 -1.32804e-18)
(0.899392 0.196571 1.65432e-19)
(0.939411 0.290863 -3.51015e-19)
(0.913424 0.19974 0)
(1.00183 0.186867 6.5204e-19)
(1.05351 0.201296 0)
(1.05074 0.204195 0)
(1.11925 0.112114 3.01604e-19)
(1.06524 0.173122 -1.02249e-20)
(1.07395 0.227789 -1.71201e-19)
(1.10964 0.194226 0)
(1.02361 0.0456697 6.50497e-19)
(1.03861 0.0594624 8.12084e-19)
(1.03295 0.0434597 -6.45227e-19)
(1.04076 0.0644661 -5.44711e-19)
(1.01502 0.0699071 -8.18643e-19)
(0.990678 0.155653 0)
(0.994108 0.100109 0)
(0.965249 0.0624945 -5.25763e-19)
(0.914703 0.0917592 2.08046e-19)
(1.03597 0.106464 7.55032e-19)
(1.07336 0.122553 -8.81035e-19)
(1.06557 0.161535 7.89975e-19)
(1.03583 0.141518 0)
(1.08247 0.110855 0)
(1.05744 0.101598 -3.58247e-19)
(1.04401 0.100304 -6.15394e-19)
(0.585231 1.10933 1.38154e-19)
(0.623713 1.44215 -4.46466e-20)
(1.14606 2.73663 -2.76109e-19)
(1.19906 3.11721 8.6453e-21)
(1.25453 2.74145 -2.03113e-19)
(1.29653 2.71324 5.1941e-20)
(1.27193 2.33394 -3.68407e-20)
(1.18672 3.02284 -9.91304e-20)
(1.20526 2.97945 2.63711e-19)
(1.18147 3.27112 -1.125e-19)
(1.40149 2.9867 1.3918e-19)
(1.41364 2.92536 0)
(0.546337 0.854863 -5.10537e-20)
(0.237624 1.22983 5.11944e-19)
(0.494073 0.467417 6.2711e-19)
(0.366925 0.22978 7.19364e-19)
(0.546744 0.383796 7.44964e-19)
(0.555173 0.478922 -1.19711e-18)
(0.556167 0.477483 9.79779e-19)
(0.511133 0.413497 -3.78805e-19)
(0.445785 0.346636 8.57682e-19)
(0.770095 0.241517 -3.78606e-19)
(0.731511 0.280514 0)
(0.705146 0.210372 1.08505e-20)
(0.729507 0.516905 4.03089e-19)
(0.689058 0.490291 -1.46642e-18)
(0.651266 0.470641 2.35945e-20)
(0.651069 0.445865 0)
(0.683185 0.738923 4.06774e-19)
(0.794965 0.787601 4.69184e-19)
(0.725517 0.83703 -5.43815e-19)
(0.862777 0.805245 -1.76545e-19)
(0.903266 0.851931 -4.62427e-20)
(0.910787 0.858708 4.74237e-20)
(0.854792 0.667982 -7.3843e-19)
(0.922167 0.718744 1.64216e-19)
(0.974924 0.723959 0)
(0.972891 0.701165 -2.1701e-19)
(1.02838 0.311764 2.43858e-19)
(1.14273 0.314243 3.15525e-19)
(1.0646 0.263918 3.92876e-19)
(0.986959 0.358122 -4.78468e-19)
(1.02326 0.466245 0)
(1.11024 0.413681 0)
(0.882413 0.395513 8.65069e-21)
(0.845651 0.28831 0)
(0.870205 0.270922 4.31114e-19)
(0.908061 0.319576 1.00101e-20)
(0.945534 0.452885 2.25013e-18)
(0.870683 0.521599 5.71532e-19)
(0.89582 0.470039 -6.16456e-19)
(0.814822 0.448709 6.54089e-19)
(0.802794 0.431762 3.94039e-19)
(0.791622 0.403215 -3.86338e-19)
(1.02792 -0.00077164 6.79186e-19)
(1.02023 0.000173305 0)
(1.01891 0.00103886 4.43058e-19)
(1.02256 -0.00113587 -1.00316e-18)
(1.02242 0.00415229 4.88246e-19)
(1.02018 0.0110816 -1.02173e-18)
(1.02107 0.0108236 0)
(1.01999 0.01166 -2.12736e-19)
(1.01635 0.00749605 5.33073e-19)
(1.01674 0.0106381 -2.68205e-19)
(1.01745 0.010207 1.96513e-19)
(0.0325879 1.32161 0)
(0.038478 1.34859 0)
(0.0432411 1.32781 0)
(0.0443677 1.29027 0)
(0.0758978 1.35524 9.38434e-20)
(0.090884 1.33084 -4.98915e-20)
(0.0546838 1.52866 -3.29968e-20)
(0.110707 1.35956 -2.49543e-20)
(0.0364086 1.4546 -4.9752e-20)
(0.0401789 1.45031 3.84358e-20)
(0.0669136 1.35617 -3.51707e-20)
(0.0554337 1.36031 -1.17141e-20)
(0.0468464 1.34029 -1.5782e-21)
(0.0390359 1.3608 -5.40564e-21)
(0.107367 2.3903 -1.70046e-19)
(0.0968623 2.43413 0)
(0.153472 2.0397 1.25706e-19)
(0.114904 1.71122 6.43423e-20)
(0.225045 2.02726 -1.04488e-19)
(0.20409 2.44273 0)
(0.246509 2.39127 -6.92581e-19)
(0.306312 2.3872 4.89751e-19)
(0.256688 2.00144 -2.79769e-19)
(0.14155 2.16633 1.85405e-19)
(0.114872 2.27752 0)
(0.014711 1.86701 -8.88708e-20)
(-0.0134112 2.40806 -1.36039e-19)
(-0.00403704 2.15331 0)
(0.00186682 2.46775 -1.45188e-20)
(0.0204166 2.31231 5.35363e-20)
(0.0190464 1.40361 2.80568e-21)
(0.00584645 1.38891 -5.00513e-20)
(0.0021906 1.39225 9.52622e-21)
(0.0183037 1.39262 2.16969e-20)
(0.0229331 1.42265 0)
(-0.000187646 1.3711 0)
(-0.00249537 1.28857 2.80092e-20)
(-0.00396455 1.35899 -1.03687e-20)
(-0.0026794 1.35799 0)
(0.00442638 1.28844 1.43e-20)
(-0.00790446 1.20547 -3.31903e-20)
(1.0415 0.0136635 0)
(1.0482 0.00920662 -7.12648e-20)
(1.03883 0.0222854 -5.13948e-19)
(1.04874 0.0212227 0)
(1.05345 0.0207265 0)
(1.03623 0.0116931 -6.62137e-21)
(1.03044 0.011918 8.23389e-19)
(1.03201 0.0161003 1.00188e-18)
(1.02587 0.0198763 0)
(1.02249 0.0204969 0)
(1.03548 0.0242578 5.12383e-19)
(1.02556 0.0261819 0)
(1.02406 0.0263418 0)
(-0.0477881 2.03711 0)
(-0.0052514 1.67059 -6.08991e-21)
(-0.0299409 1.78072 -1.17868e-20)
(0.00126184 1.35924 0)
(-0.0202379 1.55875 2.69067e-20)
(-0.000777124 1.46119 -1.8035e-20)
(0.026817 1.38616 0)
(0.406566 1.6672 0)
(0.355767 1.29882 -1.19332e-19)
(0.283052 1.34466 0)
(0.424868 1.30667 7.04283e-20)
(0.464181 1.4583 0)
(0.446744 1.40281 -7.16338e-21)
(1.03842 2.68638 -1.643e-20)
(0.978804 2.4144 -9.6045e-19)
(0.937014 2.20322 1.09909e-18)
(0.860545 2.38592 2.51467e-19)
(0.852318 2.50348 0)
(0.919981 2.50126 0)
(0.946934 2.38685 0)
(0.923523 2.37426 -9.78881e-19)
(0.695231 2.47556 -4.20144e-19)
(0.80256 2.4592 -1.07337e-19)
(0.81064 2.4376 8.11397e-20)
(0.702386 2.40411 0)
(0.806669 2.39797 0)
(0.769003 2.413 -3.80681e-19)
(0.768146 2.48273 0)
(0.600147 1.0735 0)
(0.513283 0.896309 -5.89354e-19)
(0.516079 0.961585 -3.44111e-20)
(0.499325 1.09502 0)
(0.486444 1.00849 9.02776e-19)
(0.759551 0.875542 -1.55841e-19)
(0.774139 1.01161 0)
(0.750434 0.988986 2.25411e-19)
(0.637664 1.02102 0)
(0.632082 0.937477 0)
(1.16347 2.76965 -2.51736e-19)
(1.13842 2.82888 -1.12592e-19)
(0.925947 2.35924 1.13147e-19)
(0.902148 2.33772 -8.79465e-20)
(1.13233 2.74654 0)
(1.08411 2.71506 1.05739e-19)
(1.09961 2.50512 -3.25537e-19)
(0.998713 2.25651 -2.82954e-20)
(0.499716 1.35793 0)
(0.515851 1.09218 -1.21751e-19)
(0.576187 1.17456 0)
(0.855002 0.20547 0)
(0.794482 0.154867 0)
(0.739299 0.138343 0)
(0.859514 0.205214 -6.61302e-19)
(0.7855 0.202603 3.9401e-19)
(0.928959 0.0773659 -4.30694e-19)
(0.945057 0.124875 0)
(0.920818 0.134932 1.85058e-19)
(0.866075 0.0964126 7.41228e-19)
(0.831817 0.0685943 -4.64231e-19)
(1.10277 3.36472 -6.607e-19)
(1.16754 3.28731 0)
(1.12271 3.45002 -1.54855e-18)
(0.66197 3.59549 1.28792e-18)
(1.03368 3.09075 1.00501e-19)
(0.519359 0.834691 5.97725e-19)
(0.507542 0.802558 0)
(0.383558 0.49677 -1.56791e-19)
(0.465101 0.679443 9.07173e-19)
(0.520765 0.473765 -2.18415e-19)
(0.510801 0.516743 2.47365e-19)
(0.686291 0.54952 5.20349e-19)
(0.712293 0.576963 0)
(0.642859 0.615665 0)
(0.611919 0.564112 0)
(0.985535 0.615479 1.21164e-19)
(0.92793 0.566289 -5.53107e-19)
(0.951074 0.600216 4.1404e-19)
(1.00652 0.52039 -4.21601e-19)
(1.0491 0.495718 0)
(1.05752 0.596142 -1.09871e-19)
(0.84556 0.390788 -8.89009e-19)
(0.841573 0.385169 -1.12979e-18)
(0.807597 0.379303 6.98082e-19)
(0.807367 0.343241 -7.14508e-19)
(0.841588 0.299692 -5.58188e-19)
(0.806005 0.301623 6.85997e-19)
(1.02654 0.00602758 -5.11601e-19)
(1.0262 0.00614673 1.03142e-18)
(1.02966 0.000294868 6.5913e-19)
(1.0336 0.000861958 -7.91471e-19)
(1.03354 0.0105658 0)
(1.02983 0.0107444 -1.28766e-18)
(0.0852058 1.66262 2.50419e-20)
(0.0464421 1.58729 0)
(0.100577 1.70988 1.7831e-19)
(0.106072 1.68388 -1.63494e-19)
(0.0389075 1.53235 6.19406e-20)
(0.0315289 1.51506 0)
(-0.000901469 1.69214 0)
(-0.00750163 1.49642 -1.14783e-20)
(-0.0107868 1.42776 1.03249e-20)
(-0.0124155 1.55368 -2.77454e-21)
(-0.0134725 1.90259 -2.11313e-20)
(-0.0339803 1.95121 1.14377e-20)
(0.490519 1.3798 -3.3662e-19)
(0.493617 1.37731 3.66402e-19)
(0.437828 1.29535 -6.86913e-20)
(0.424857 1.30139 1.19747e-20)
(0.612609 1.30086 0)
(0.544776 1.39177 6.11397e-20)
(0.545754 1.3949 -5.94792e-20)
(0.470562 1.2751 6.54883e-20)
(0.508602 1.2386 0)
(0.575 1.20678 0)
(0.669567 2.43821 6.1914e-19)
(0.663024 2.46165 1.38534e-18)
(0.719917 2.47628 -9.5097e-19)
(0.618994 2.44957 -2.13463e-19)
(0.556072 2.54752 2.95072e-19)
(0.496063 2.50987 -7.59262e-19)
(0.988048 2.39187 -6.19567e-19)
(1.02238 2.41142 0)
(0.943503 2.18846 -6.82658e-19)
(1.05433 2.69557 0)
(1.05339 2.6775 0)
(0.618361 2.31755 7.30186e-21)
(1.12344 3.08353 6.70137e-20)
(1.00682 2.98631 -1.23736e-19)
(0.337741 0.875466 0)
(0.358879 0.785624 -3.16326e-19)
(0.545182 0.710519 -3.26185e-19)
(0.386472 2.16536 0)
(0.412868 2.75282 -7.06855e-20)
(0.424204 2.49312 0)
(0.689477 0.702705 -8.68802e-19)
(0.750859 0.69504 1.22238e-18)
(0.761859 0.658377 -1.22143e-18)
(0.681072 0.66198 -1.10989e-19)
(0.735026 0.618382 -4.62856e-19)
(0.979038 2.77163 -5.07611e-20)
(1.01595 2.77415 -2.42843e-19)
(0.572699 2.24717 4.3808e-19)
(0.617457 1.76207 -3.49387e-19)
(0.714306 1.87967 -5.34037e-19)
(0.982345 2.41348 -1.41392e-19)
(0.980201 2.37048 3.99435e-19)
(0.662685 1.80453 3.54706e-20)
(0.467765 1.3266 1.93158e-19)
)
;

boundaryField
{
    wall-4
    {
        type            noSlip;
    }
    velocity-inlet-5
    {
        type            fixedValue;
        value           uniform (1 0 0);
    }
    velocity-inlet-6
    {
        type            fixedValue;
        value           uniform (0 3 0);
    }
    pressure-outlet-7
    {
        type            zeroGradient;
    }
    wall-8
    {
        type            noSlip;
    }
    frontAndBackPlanes
    {
        type            empty;
    }
}


// ************************************************************************* //
