/*--------------------------------*- C++ -*----------------------------------*\
  =========                 |
  \\      /  F ield         | OpenFOAM: The Open Source CFD Toolbox
   \\    /   O peration     | Website:  https://openfoam.org
    \\  /    A nd           | Version:  6
     \\/     M anipulation  |
\*---------------------------------------------------------------------------*/
FoamFile
{
    version     2.0;
    format      ascii;
    class       volVectorField;
    location    "14";
    object      U;
}
// * * * * * * * * * * * * * * * * * * * * * * * * * * * * * * * * * * * * * //

dimensions      [0 1 -1 0 0 0 0];

internalField   nonuniform List<vector> 
8800
(
(0.987162 -0.0766574 0)
(1.00183 -0.0551812 0)
(0.999806 -0.0285595 0)
(1.00011 -0.0151788 0)
(1.00002 -0.0085602 0)
(1.00006 -0.00501275 0)
(1.00009 -0.00293581 0)
(1.00008 -0.00166523 0)
(1.00004 -0.000804086 0)
(1.00004 -0.000132741 0)
(1.00003 0.000538226 0)
(1.00007 0.0012999 0)
(1.0001 0.00231687 0)
(1.00007 0.0039041 0)
(1.00003 0.00658958 0)
(1.00006 0.0113782 0)
(1.00006 0.0208143 0)
(0.999138 0.0386425 0)
(1.00702 0.072437 0)
(0.771205 0.0366527 0)
(0.363283 -0.0159976 0)
(1.04348 -0.0767047 0)
(1.08466 -0.070281 0)
(1.04511 -0.0531665 0)
(1.02322 -0.0384224 0)
(1.012 -0.0258567 0)
(1.00638 -0.0165812 0)
(1.00341 -0.0101327 0)
(1.00191 -0.00563469 0)
(1.00122 -0.00216014 0)
(1.00114 0.00100152 0)
(1.00147 0.00420485 0)
(1.0025 0.00808165 0)
(1.00462 0.0133501 0)
(1.00872 0.0210956 0)
(1.01663 0.031961 0)
(1.03248 0.0458934 0)
(1.06276 0.0612662 0)
(1.09203 0.075848 0)
(0.839114 0.0564677 0)
(0.217386 -0.00237991 0)
(1.07629 -0.0496766 0)
(1.10023 -0.0478662 0)
(1.0649 -0.0401777 0)
(1.0397 -0.0331961 0)
(1.02302 -0.0254922 0)
(1.01315 -0.0182017 0)
(1.0078 -0.0116786 0)
(1.00521 -0.00595869 0)
(1.00426 -0.000772946 0)
(1.00451 0.00418949 0)
(1.00611 0.00950051 0)
(1.00986 0.0154947 0)
(1.01714 0.0222565 0)
(1.03016 0.0297772 0)
(1.05082 0.0371302 0)
(1.081 0.0438477 0)
(1.10682 0.0505624 0)
(0.943718 0.0411571 0)
(0.217073 0.00239307 0)
(0.176359 -0.0007468 0)
(1.01906 -0.0348091 0)
(1.10514 -0.0402927 0)
(1.07795 -0.0349105 0)
(1.05321 -0.0291192 0)
(1.03578 -0.0237259 0)
(1.02355 -0.0181193 0)
(1.01561 -0.0123117 0)
(1.01087 -0.00664204 0)
(1.00886 -0.000820325 0)
(1.00943 0.00498335 0)
(1.01265 0.0105497 0)
(1.0188 0.0161227 0)
(1.02869 0.0217536 0)
(1.0433 0.0270067 0)
(1.06396 0.0324699 0)
(1.09367 0.0384698 0)
(1.09458 0.0406537 0)
(0.830608 0.0222818 0)
(0.175838 0.000762694 0)
(0.156189 -0.000517965 0)
(0.960137 -0.0239084 0)
(1.10462 -0.0328717 0)
(1.08775 -0.0301222 0)
(1.06134 -0.0255615 0)
(1.04375 -0.0209579 0)
(1.03127 -0.0164358 0)
(1.02238 -0.011694 0)
(1.01662 -0.00649858 0)
(1.01395 -0.000620769 0)
(1.01468 0.00537819 0)
(1.01873 0.0106897 0)
(1.0259 0.015443 0)
(1.03639 0.0198492 0)
(1.05102 0.0241938 0)
(1.07241 0.0285658 0)
(1.10153 0.0327827 0)
(1.07163 0.0314772 0)
(0.747365 0.0131168 0)
(0.155418 0.000535278 0)
(0.143282 -0.000345274 0)
(0.907825 -0.0168265 0)
(1.09729 -0.0265952 0)
(1.09507 -0.0257867 0)
(1.06793 -0.0227497 0)
(1.04878 -0.0192576 0)
(1.03582 -0.015029 0)
(1.02696 -0.0103751 0)
(1.02122 -0.00542567 0)
(1.01843 -0.000164381 0)
(1.01913 0.00501875 0)
(1.02311 0.00995084 0)
(1.03012 0.014462 0)
(1.04065 0.0186101 0)
(1.0564 0.0222376 0)
(1.07936 0.0252139 0)
(1.10366 0.0275262 0)
(1.04287 0.024304 0)
(0.687573 0.00851479 0)
(0.142206 0.000365574 0)
(0.134903 -0.000218214 0)
(0.866501 -0.0106041 0)
(1.087 -0.0195896 0)
(1.09924 -0.0199078 0)
(1.07288 -0.0178544 0)
(1.05363 -0.0155509 0)
(1.03997 -0.0127727 0)
(1.03041 -0.009271 0)
(1.02429 -0.00495373 0)
(1.02139 0.00016182 0)
(1.022 0.00540051 0)
(1.02606 0.00980507 0)
(1.03354 0.0134029 0)
(1.04485 0.0161584 0)
(1.06082 0.0183337 0)
(1.08388 0.0201814 0)
(1.10317 0.021315 0)
(1.01482 0.0171432 0)
(0.646559 0.00502152 0)
(0.133454 0.000243281 0)
(0.130672 -5.96853e-05 0)
(0.838353 -0.00510956 0)
(1.07446 -0.0122702 0)
(1.10049 -0.0139686 0)
(1.07645 -0.0129674 0)
(1.0576 -0.0115115 0)
(1.04481 -0.00960417 0)
(1.03588 -0.00698196 0)
(1.02991 -0.00358046 0)
(1.02696 0.000753956 0)
(1.02742 0.00521016 0)
(1.0313 0.00874621 0)
(1.03821 0.0112737 0)
(1.04849 0.0129931 0)
(1.06381 0.0141362 0)
(1.08653 0.0150643 0)
(1.09928 0.0148832 0)
(0.990035 0.00993116 0)
(0.622829 0.00226079 0)
(0.128777 8.82521e-05 0)
(0.129572 2.38626e-05 0)
(0.822219 -0.00221013 0)
(1.06269 -0.00707006 0)
(1.09908 -0.00913075 0)
(1.07759 -0.00923457 0)
(1.05856 -0.00865655 0)
(1.04588 -0.00751695 0)
(1.03734 -0.00547922 0)
(1.03175 -0.00247983 0)
(1.02899 0.00135444 0)
(1.02917 0.00524825 0)
(1.03255 0.00828621 0)
(1.03894 0.0102282 0)
(1.04889 0.0111988 0)
(1.06418 0.0115674 0)
(1.08645 0.0112161 0)
(1.09312 0.0100254 0)
(0.97161 0.00561653 0)
(0.610857 0.0010008 0)
(0.127124 1.27104e-05 0)
(0.12958 2.92225e-05 0)
(0.812059 -0.00137509 0)
(1.05273 -0.00545854 0)
(1.09657 -0.00811286 0)
(1.07765 -0.00871885 0)
(1.06017 -0.00826725 0)
(1.04852 -0.00698247 0)
(1.04068 -0.00488927 0)
(1.03544 -0.00183628 0)
(1.03262 0.00200832 0)
(1.03261 0.00576914 0)
(1.03549 0.00874826 0)
(1.04109 0.0106305 0)
(1.05003 0.0115197 0)
(1.06385 0.0116331 0)
(1.08457 0.0109428 0)
(1.08623 0.00896181 0)
(0.957391 0.00439956 0)
(0.603415 0.000754338 0)
(0.126446 1.43551e-05 0)
(0.129669 2.11029e-05 0)
(0.803817 -0.00094348 0)
(1.04139 -0.00491898 0)
(1.09196 -0.00902804 0)
(1.07719 -0.0105139 0)
(1.06148 -0.0102781 0)
(1.05067 -0.00862892 0)
(1.04346 -0.0058193 0)
(1.03857 -0.00196718 0)
(1.03565 0.00267714 0)
(1.03538 0.00724667 0)
(1.03778 0.0108535 0)
(1.04262 0.013297 0)
(1.05063 0.0146431 0)
(1.063 0.0145212 0)
(1.08138 0.013252 0)
(1.07623 0.00954034 0)
(0.943447 0.00396338 0)
(0.597155 0.000719675 0)
(0.125684 3.40395e-05 0)
(0.129859 2.34477e-05 0)
(0.797787 -0.000310075 0)
(1.02889 -0.00343527 0)
(1.0837 -0.00833301 0)
(1.0759 -0.0112122 0)
(1.06289 -0.0111259 0)
(1.05386 -0.00934565 0)
(1.04744 -0.00603612 0)
(1.04269 -0.00163945 0)
(1.03962 0.00362273 0)
(1.03903 0.00880939 0)
(1.04092 0.0127752 0)
(1.04497 0.0154325 0)
(1.05157 0.0166129 0)
(1.06165 0.0164582 0)
(1.07457 0.013937 0)
(1.06232 0.00865348 0)
(0.930313 0.00312264 0)
(0.592055 0.00061496 0)
(0.124818 4.10776e-05 0)
(0.13034 4.61244e-05 0)
(0.794785 0.000308855 0)
(1.01888 -0.00138242 0)
(1.07422 -0.00518666 0)
(1.07258 -0.0081916 0)
(1.064 -0.00884545 0)
(1.05721 -0.00728243 0)
(1.05158 -0.00420734 0)
(1.04703 -1.47679e-05 0)
(1.04383 0.00503932 0)
(1.04277 0.00988376 0)
(1.04399 0.0134334 0)
(1.04706 0.01552 0)
(1.05176 0.0163322 0)
(1.05912 0.0153055 0)
(1.0653 0.0117678 0)
(1.04849 0.006589 0)
(0.920165 0.00230628 0)
(0.588203 0.000546727 0)
(0.123971 4.44591e-05 0)
(0.13118 6.05489e-05 0)
(0.794698 0.000802832 0)
(1.01344 0.000435123 0)
(1.0675 -0.00154578 0)
(1.06925 -0.00342488 0)
(1.06459 -0.00398977 0)
(1.0597 -0.003012 0)
(1.05503 -0.000679215 0)
(1.05077 0.00274513 0)
(1.04737 0.00689523 0)
(1.04572 0.0106273 0)
(1.04614 0.0130064 0)
(1.04801 0.0140087 0)
(1.05098 0.0136184 0)
(1.05463 0.0117839 0)
(1.05694 0.00862557 0)
(1.03803 0.00477336 0)
(0.913214 0.00188189 0)
(0.585063 0.000561338 0)
(0.123114 5.03495e-05 0)
(0.132332 7.69527e-05 0)
(0.796429 0.0012076 0)
(1.01201 0.0017307 0)
(1.06437 0.00119766 0)
(1.06762 0.000531716 0)
(1.06497 0.000528392 0)
(1.06154 0.00144814 0)
(1.05771 0.00332934 0)
(1.05374 0.00601908 0)
(1.05005 0.00914021 0)
(1.04768 0.0116689 0)
(1.04709 0.0128942 0)
(1.04769 0.012658 0)
(1.04895 0.0114604 0)
(1.05044 0.00940412 0)
(1.05051 0.00674518 0)
(1.03089 0.00397158 0)
(0.908157 0.00189687 0)
(0.581945 0.000669825 0)
(0.122123 6.33401e-05 0)
(0.133803 9.68174e-05 0)
(0.799695 0.00158244 0)
(1.01301 0.00266677 0)
(1.06411 0.00319151 0)
(1.06776 0.00350023 0)
(1.06598 0.00417019 0)
(1.06328 0.0054072 0)
(1.05988 0.0072355 0)
(1.05597 0.0095118 0)
(1.05186 0.0118438 0)
(1.04865 0.0133325 0)
(1.04693 0.0134294 0)
(1.04628 0.0125115 0)
(1.04629 0.0107317 0)
(1.0465 0.00856287 0)
(1.04546 0.00622502 0)
(1.02559 0.00399375 0)
(0.90365 0.00219553 0)
(0.578329 0.000841297 0)
(0.120881 8.16678e-05 0)
(0.135666 0.000121733 0)
(0.804257 0.00201662 0)
(1.01582 0.00358957 0)
(1.06577 0.00477664 0)
(1.0695 0.00585693 0)
(1.06794 0.00724127 0)
(1.0654 0.00903676 0)
(1.06199 0.0111179 0)
(1.05781 0.0133044 0)
(1.05303 0.0151549 0)
(1.04876 0.015839 0)
(1.04592 0.0150829 0)
(1.0442 0.0134548 0)
(1.04322 0.0113066 0)
(1.04262 0.00898649 0)
(1.041 0.00669829 0)
(1.02086 0.00456842 0)
(0.89882 0.00269205 0)
(0.573866 0.00106754 0)
(0.119301 0.000105231 0)
(0.138035 0.00015451 0)
(0.81028 0.00256463 0)
(1.02022 0.00462481 0)
(1.0691 0.00633191 0)
(1.07267 0.00808097 0)
(1.07097 0.0102439 0)
(1.06818 0.0127348 0)
(1.06443 0.0153115 0)
(1.05959 0.017663 0)
(1.0538 0.0192785 0)
(1.04827 0.0193453 0)
(1.04421 0.017895 0)
(1.04147 0.0155989 0)
(1.03968 0.0129855 0)
(1.03848 0.0103751 0)
(1.03645 0.00789884 0)
(1.01589 0.00557096 0)
(0.893113 0.00337593 0)
(0.568257 0.00135455 0)
(0.117303 0.000134779 0)
(0.141078 0.000198119 0)
(0.818096 0.00327014 0)
(1.02638 0.00591842 0)
(1.07411 0.00821248 0)
(1.07725 0.0106458 0)
(1.07513 0.0136306 0)
(1.07184 0.0168941 0)
(1.06739 0.0201446 0)
(1.06155 0.0229093 0)
(1.05436 0.0244535 0)
(1.04727 0.0239894 0)
(1.04186 0.0218185 0)
(1.03806 0.0188158 0)
(1.03548 0.0156105 0)
(1.03373 0.0125465 0)
(1.03132 0.00970275 0)
(1.01016 0.0069857 0)
(0.886192 0.00427319 0)
(0.561221 0.00170164 0)
(0.114803 0.000168982 0)
(0.145061 0.000260743 0)
(0.828261 0.00422629 0)
(1.03434 0.00767048 0)
(1.0807 0.0106613 0)
(1.08326 0.0138656 0)
(1.08057 0.0177853 0)
(1.07658 0.0220524 0)
(1.07107 0.0261333 0)
(1.06379 0.0293785 0)
(1.05476 0.0309326 0)
(1.04575 0.0299388 0)
(1.03877 0.0269593 0)
(1.03381 0.0231051 0)
(1.0304 0.0191244 0)
(1.02807 0.0154151 0)
(1.02522 0.0120324 0)
(1.00331 0.00876297 0)
(0.877806 0.00537358 0)
(0.552488 0.00213866 0)
(0.111689 0.000208872 0)
(0.150344 0.000355426 0)
(0.841519 0.00561342 0)
(1.04458 0.0101155 0)
(1.08916 0.0139352 0)
(1.09105 0.018137 0)
(1.08758 0.0232128 0)
(1.08247 0.0285916 0)
(1.07545 0.0335757 0)
(1.06624 0.037419 0)
(1.05488 0.0390184 0)
(1.04357 0.0374153 0)
(1.03477 0.0334702 0)
(1.0285 0.0285701 0)
(1.02416 0.0235946 0)
(1.02118 0.0190149 0)
(1.01785 0.0148999 0)
(0.99501 0.0109141 0)
(0.867303 0.00671722 0)
(0.541717 0.00267134 0)
(0.107844 0.000259189 0)
(0.157451 0.00049631 0)
(0.858873 0.00765589 0)
(1.05785 0.0135713 0)
(1.10014 0.0184619 0)
(1.10103 0.0239746 0)
(1.09634 0.0304346 0)
(1.0896 0.0370713 0)
(1.0805 0.0431176 0)
(1.0688 0.0475978 0)
(1.05456 0.0491411 0)
(1.04051 0.0467362 0)
(1.02959 0.0416033 0)
(1.02181 0.0354318 0)
(1.01642 0.0292308 0)
(1.01271 0.0235473 0)
(1.00881 0.0184938 0)
(0.984817 0.0136262 0)
(0.854286 0.00842235 0)
(0.528263 0.0033293 0)
(0.103114 0.000322667 0)
(0.167141 0.000706661 0)
(0.881483 0.0106449 0)
(1.07496 0.0183463 0)
(1.11441 0.0246223 0)
(1.11385 0.0318627 0)
(1.10744 0.0400765 0)
(1.09844 0.0482854 0)
(1.08654 0.0555195 0)
(1.07155 0.0605339 0)
(1.05372 0.0617744 0)
(1.0364 0.0582512 0)
(1.02303 0.0516359 0)
(1.01348 0.0439352 0)
(1.00683 0.0362725 0)
(1.00224 0.0292583 0)
(0.99765 0.0230461 0)
(0.972197 0.0170871 0)
(0.838233 0.0106192 0)
(0.511658 0.00416327 0)
(0.0973341 0.00039796 0)
(0.180717 0.00105638 0)
(0.911431 0.0151954 0)
(1.09731 0.0251719 0)
(1.13305 0.033342 0)
(1.13027 0.0428699 0)
(1.12135 0.0532316 0)
(1.10919 0.0631955 0)
(1.09352 0.0715336 0)
(1.07437 0.0768238 0)
(1.05221 0.0773637 0)
(1.03109 0.0722945 0)
(1.01489 0.0638452 0)
(1.00328 0.0543316 0)
(0.995093 0.044956 0)
(0.989372 0.0363818 0)
(0.983847 0.0287776 0)
(0.956542 0.0215034 0)
(0.818411 0.0134379 0)
(0.491365 0.00522929 0)
(0.0903409 0.000486674 0)
(0.200456 0.0017082 0)
(0.952181 0.0227306 0)
(1.12697 0.0359065 0)
(1.15739 0.0467432 0)
(1.15084 0.0590631 0)
(1.13802 0.0717825 0)
(1.12137 0.0832788 0)
(1.10084 0.0922285 0)
(1.07669 0.0971618 0)
(1.04957 0.0963397 0)
(1.02424 0.0891833 0)
(1.00491 0.0785401 0)
(0.990958 0.0669623 0)
(0.980946 0.0556563 0)
(0.973782 0.0453063 0)
(0.966948 0.0360777 0)
(0.937179 0.027244 0)
(0.79382 0.0171418 0)
(0.466487 0.00663697 0)
(0.081877 0.000601482 0)
(0.22978 0.0031642 0)
(1.00943 0.036217 0)
(1.16661 0.0541811 0)
(1.1885 0.0683644 0)
(1.17564 0.0834978 0)
(1.15682 0.0980599 0)
(1.13414 0.110213 0)
(1.10767 0.118732 0)
(1.07778 0.122211 0)
(1.04524 0.11906 0)
(1.01542 0.109155 0)
(0.992773 0.0959671 0)
(0.976268 0.082157 0)
(0.964173 0.0688397 0)
(0.955219 0.0566174 0)
(0.946565 0.0456432 0)
(0.91314 0.035057 0)
(0.763157 0.0223142 0)
(0.436376 0.00861901 0)
(0.0721541 0.000726563 0)
(0.270804 0.0100349 -2.38998e-21)
(1.08573 0.063823 -1.7643e-21)
(1.21432 0.086233 4.67535e-22)
(1.22378 0.10395 0)
(1.20237 0.120248 -1.32138e-36)
(1.17601 0.134544 5.11913e-23)
(1.1462 0.145588 -2.84948e-22)
(1.11306 0.152273 0)
(1.07691 0.153286 1.01316e-35)
(1.03844 0.147102 -7.57896e-22)
(1.00362 0.134095 0)
(0.97712 0.11829 -1.07912e-21)
(0.957479 0.102331 -3.29918e-21)
(0.942632 0.0872021 -1.5966e-21)
(0.931092 0.0735164 -5.02754e-22)
(0.919508 0.0612158 -3.04872e-22)
(0.882296 0.0492982 0)
(0.723422 0.0328777 2.20452e-22)
(0.399408 0.0151231 2.62501e-22)
(0.0628619 0.0022159 4.70741e-21)
(0.295958 0.0268063 -4.66339e-21)
(1.14657 0.109314 1.03859e-22)
(1.25683 0.134739 -2.48807e-22)
(1.25568 0.153031 0)
(1.22631 0.167685 3.23857e-22)
(1.19259 0.180163 1.21709e-22)
(1.15577 0.189267 -1.95041e-22)
(1.11587 0.193833 -1.33503e-21)
(1.07316 0.192498 0)
(1.02805 0.183628 3.20655e-21)
(0.987079 0.167997 3.5311e-21)
(0.955366 0.150136 1.13243e-21)
(0.931231 0.132664 4.46546e-21)
(0.912332 0.116379 6.57983e-21)
(0.896931 0.10174 0)
(0.881091 0.089021 9.8103e-21)
(0.838336 0.0759667 1.44188e-20)
(0.681072 0.0555831 1.62101e-20)
(0.374625 0.0310944 -1.88444e-20)
(0.0597247 0.00515944 -3.49913e-22)
(0.291219 0.0439414 0)
(1.18158 0.167772 -1.44249e-21)
(1.28913 0.196084 0)
(1.28073 0.212109 2.18649e-21)
(1.24505 0.223128 0)
(1.20494 0.232132 9.58887e-22)
(1.16181 0.237974 2.41315e-22)
(1.11575 0.239369 -2.03048e-21)
(1.06694 0.234938 -3.09846e-22)
(1.01573 0.223021 1.55622e-21)
(0.969199 0.204797 8.21068e-21)
(0.932946 0.185274 -5.48109e-23)
(0.904988 0.166978 -3.35086e-21)
(0.882707 0.150497 -6.50028e-21)
(0.864263 0.136127 7.89958e-21)
(0.845904 0.123768 -1.42186e-20)
(0.804651 0.111034 -1.95675e-21)
(0.664607 0.0872025 0)
(0.38251 0.0522175 4.14679e-23)
(0.0672253 0.00967182 0)
(0.280787 0.0581549 -3.68945e-20)
(1.19749 0.22956 1.49639e-20)
(1.3094 0.26231 7.83026e-21)
(1.29709 0.275823 -1.4592e-21)
(1.25708 0.282896 2.21651e-21)
(1.21225 0.287878 -2.39628e-21)
(1.16411 0.289793 3.23496e-22)
(1.11284 0.287495 0)
(1.05875 0.2795 -6.17167e-21)
(1.00222 0.264228 0)
(0.950946 0.243358 -4.18421e-21)
(0.911019 0.222259 -5.87011e-21)
(0.880283 0.203309 -3.74778e-21)
(0.855876 0.186856 -4.83476e-21)
(0.835891 0.172948 0)
(0.816921 0.161261 0)
(0.779177 0.148795 -1.31071e-20)
(0.654864 0.12224 2.63008e-21)
(0.389391 0.0751699 -1.54385e-21)
(0.0726949 0.0144691 -1.82888e-21)
(0.270803 0.070834 2.73935e-20)
(1.20122 0.290721 0)
(1.32032 0.329247 -2.20232e-20)
(1.30574 0.340575 -5.54871e-21)
(1.26269 0.343918 -4.11596e-21)
(1.21441 0.34493 0)
(1.16246 0.342965 -3.84856e-22)
(1.10704 0.33684 1.83019e-21)
(1.04862 0.325127 2.71701e-21)
(0.987645 0.306291 7.80831e-21)
(0.93258 0.282553 0)
(0.889996 0.259639 -1.27534e-20)
(0.857498 0.239798 -8.14827e-21)
(0.831992 0.223068 -4.90954e-21)
(0.811393 0.209288 3.21797e-20)
(0.792584 0.197975 3.95229e-21)
(0.758253 0.18541 1.89547e-20)
(0.643932 0.15564 -9.20602e-20)
(0.389236 0.0961619 5.50689e-20)
(0.0745065 0.0187599 -6.73071e-20)
(0.262217 0.0821341 2.9016e-20)
(1.19743 0.349387 -5.28145e-21)
(1.32424 0.394975 3.89586e-21)
(1.30832 0.404549 1.04689e-20)
(1.26309 0.404429 6.3253e-21)
(1.21231 0.401687 3.29016e-22)
(1.15737 0.39606 3.1166e-22)
(1.09863 0.386241 1.39879e-21)
(1.0366 0.37085 -5.93404e-21)
(0.971969 0.348341 0)
(0.913682 0.321489 -5.47773e-21)
(0.868923 0.296493 -2.97389e-22)
(0.83516 0.27536 -9.1034e-21)
(0.809014 0.257915 0)
(0.788262 0.243749 -7.01097e-21)
(0.769988 0.232165 -1.70647e-20)
(0.738393 0.218842 4.73157e-20)
(0.630542 0.185117 -4.74087e-20)
(0.383813 0.11418 6.77947e-20)
(0.0739791 0.0222943 -7.14432e-20)
(0.255352 0.0926125 -1.14778e-22)
(1.18913 0.40497 6.48761e-21)
(1.32305 0.458333 1.87144e-20)
(1.30636 0.466624 -6.45266e-21)
(1.25953 0.463393 3.63137e-21)
(1.20674 0.457286 0)
(1.1494 0.44824 1.5252e-21)
(1.08791 0.434916 -1.1136e-21)
(1.02279 0.41598 -2.7224e-21)
(0.954879 0.389809 0)
(0.89387 0.359665 -5.3453e-21)
(0.847452 0.332232 -7.48593e-21)
(0.812854 0.309358 9.94581e-21)
(0.786467 0.290675 -6.36421e-21)
(0.765877 0.275621 -3.08287e-20)
(0.748197 0.263342 1.89711e-20)
(0.718454 0.248825 6.01534e-21)
(0.614809 0.21098 0)
(0.374821 0.129445 -6.57296e-20)
(0.0721859 0.0251976 -2.44329e-21)
(0.250048 0.102586 4.77373e-21)
(1.17818 0.457382 -7.4779e-21)
(1.318 0.518884 -1.02391e-20)
(1.30091 0.526318 -1.9847e-20)
(1.25289 0.52032 1.77499e-20)
(1.19856 0.511189 -9.26175e-21)
(1.13928 0.498964 -3.22785e-21)
(1.07544 0.482412 -1.60727e-21)
(1.00761 0.460118 2.63686e-21)
(0.936863 0.43037 -1.89889e-20)
(0.873569 0.396831 -6.55647e-21)
(0.825671 0.366635 0)
(0.790381 0.341587 1.08682e-20)
(0.763843 0.321245 1.34342e-20)
(0.743484 0.304932 1.65464e-20)
(0.726382 0.291592 -2.06868e-20)
(0.697878 0.275522 -6.24215e-21)
(0.597187 0.233458 7.44519e-21)
(0.363399 0.142216 0)
(0.0695729 0.0274722 -5.32625e-21)
(0.246005 0.112139 -5.55005e-20)
(1.16601 0.506758 3.43528e-20)
(1.31014 0.576454 1.12748e-20)
(1.2929 0.583289 -1.52035e-20)
(1.24401 0.574852 1.06769e-20)
(1.18845 0.563036 -7.76138e-22)
(1.12761 0.547953 3.14646e-21)
(1.0618 0.528451 -6.79629e-22)
(0.991648 0.502996 -4.85441e-21)
(0.918182 0.469838 2.94177e-23)
(0.852602 0.432849 -1.95485e-20)
(0.803284 0.399617 1.90232e-20)
(0.767335 0.372078 -1.2172e-20)
(0.740689 0.349718 1.51386e-20)
(0.720628 0.331815 0)
(0.704061 0.317111 -1.1235e-20)
(0.676437 0.299241 -2.63861e-22)
(0.578023 0.252927 -3.25384e-20)
(0.350189 0.15278 -4.84113e-21)
(0.0663037 0.0290515 0)
(0.243018 0.121466 0)
(1.15344 0.553306 3.72472e-20)
(1.30031 0.630889 2.63813e-20)
(1.28299 0.637318 1.72022e-20)
(1.23343 0.626759 1.02595e-20)
(1.1769 0.612581 0)
(1.1148 0.594966 3.20686e-21)
(1.04733 0.572805 -2.50258e-22)
(0.975027 0.544502 1.02506e-20)
(0.899011 0.508069 -2.3256e-21)
(0.831076 0.467646 -1.43259e-20)
(0.780304 0.431249 9.53265e-21)
(0.743618 0.400949 -3.90326e-22)
(0.716821 0.376267 1.5962e-20)
(0.697052 0.356463 1.04245e-20)
(0.680998 0.340119 -2.44776e-20)
(0.654043 0.320145 2.96965e-20)
(0.557493 0.269373 8.91855e-21)
(0.335328 0.161021 3.71436e-20)
(0.062413 0.0300092 -1.00526e-19)
(0.240889 0.130636 -1.42688e-20)
(1.14089 0.597173 2.15521e-20)
(1.28923 0.682239 -1.65266e-20)
(1.2718 0.688412 -2.00345e-20)
(1.22173 0.675967 0)
(1.16444 0.659716 8.27275e-21)
(1.10125 0.639894 -9.22593e-21)
(1.03228 0.61538 4.46869e-22)
(0.958023 0.584547 0)
(0.879617 0.545139 -3.592e-20)
(0.809156 0.501359 3.90292e-20)
(0.756716 0.461656 0)
(0.719125 0.428376 1.44276e-20)
(0.692091 0.401068 -3.9591e-22)
(0.672591 0.378984 -3.30543e-20)
(0.657121 0.360761 1.30098e-20)
(0.63064 0.338437 0)
(0.535404 0.282927 4.83386e-20)
(0.318799 0.166956 0)
(0.0579605 0.030303 -4.79427e-20)
(0.239447 0.139647 1.59096e-20)
(1.12866 0.638601 2.46782e-20)
(1.27729 0.730594 -1.73209e-20)
(1.25976 0.7366 0)
(1.2093 0.722472 1.42588e-20)
(1.15138 0.704416 0)
(1.08731 0.682678 1.23276e-20)
(1.01705 0.656144 1.2327e-21)
(0.940977 0.623085 1.08549e-21)
(0.860102 0.581033 -1.77276e-20)
(0.787035 0.534069 3.79042e-21)
(0.732582 0.490992 0)
(0.693928 0.454476 -3.07347e-20)
(0.666538 0.42427 4.11838e-22)
(0.647223 0.399597 0)
(0.632207 0.379175 4.8878e-22)
(0.605921 0.354128 4.38089e-20)
(0.511638 0.293488 -4.24019e-20)
(0.300552 0.17046 1.2602e-20)
(0.0529416 0.0298751 0)
(0.238343 0.148419 0)
(1.11688 0.677759 2.76243e-20)
(1.26485 0.776101 2.03772e-20)
(1.24718 0.781919 -4.35642e-22)
(1.19645 0.766307 8.96742e-21)
(1.13808 0.746687 1.96243e-20)
(1.07328 0.7233 -3.96456e-21)
(1.0019 0.695043 3.32654e-22)
(0.924119 0.660116 6.26909e-21)
(0.840772 0.615756 -2.75637e-20)
(0.764888 0.565857 -6.18633e-22)
(0.708104 0.519472 -1.25791e-20)
(0.668134 0.4795 5.04325e-20)
(0.640107 0.446111 -4.96689e-22)
(0.620693 0.418679 -2.61594e-20)
(0.605833 0.395584 -4.78338e-20)
(0.579586 0.36735 0)
(0.486077 0.301119 0)
(0.280566 0.171422 1.38568e-20)
(0.0474375 0.0287086 -8.20551e-21)
(0.237716 0.157097 1.98135e-20)
(1.10567 0.714521 -6.04676e-20)
(1.25218 0.818831 -2.18362e-20)
(1.23437 0.82443 0)
(1.18346 0.807534 -3.0589e-22)
(1.12477 0.786567 2.36848e-20)
(1.05937 0.761769 -1.34683e-20)
(0.986986 0.732069 -5.42288e-21)
(0.907636 0.695633 6.5081e-21)
(0.821795 0.649428 -2.11988e-20)
(0.742811 0.597044 -3.29795e-20)
(0.683257 0.547511 3.35527e-20)
(0.641375 0.504005 0)
(0.612427 0.467002 -1.179e-20)
(0.592812 0.436243 -2.87698e-20)
(0.578086 0.410155 -3.47493e-20)
(0.551643 0.378068 -4.23044e-20)
(0.458402 0.30564 1.27146e-20)
(0.258655 0.169424 -7.49212e-21)
(0.0414202 0.0267642 9.70204e-23)
(0.237131 0.165464 0)
(1.09515 0.749186 0)
(1.23949 0.858859 5.01351e-22)
(1.22154 0.864243 0)
(1.17053 0.846244 -3.38551e-20)
(1.1116 0.824108 -2.10057e-20)
(1.04574 0.798107 0)
(0.9725 0.767238 -1.41905e-21)
(0.891683 0.729613 8.21494e-21)
(0.803386 0.681966 -4.86177e-20)
(0.721066 0.627529 0)
(0.658194 0.575133 -2.14929e-20)
(0.613558 0.528007 -6.09991e-22)
(0.583261 0.487046 -5.04336e-22)
(0.563356 0.452598 3.07969e-20)
(0.548686 0.423077 -7.62786e-23)
(0.521841 0.386681 -9.21333e-20)
(0.428052 0.306987 2.78019e-20)
(0.234688 0.16448 8.29339e-21)
(0.0349124 0.0240295 0)
(0.236581 0.173461 -7.31059e-20)
(1.08502 0.781928 -3.71498e-20)
(1.22689 0.896307 -5.49036e-20)
(1.20884 0.901488 7.60113e-20)
(1.1578 0.882518 -6.36243e-20)
(1.09874 0.859378 0)
(1.03253 0.832371 -1.16202e-20)
(0.958585 0.800578 2.65285e-21)
(0.876411 0.762097 7.41686e-22)
(0.785744 0.713471 3.82998e-21)
(0.699958 0.657402 4.12684e-20)
(0.633424 0.602449 -7.3487e-21)
(0.585379 0.551685 -3.12051e-20)
(0.552858 0.506585 -1.40573e-20)
(0.532242 0.468042 1.71854e-20)
(0.517473 0.434222 -6.4331e-23)
(0.489869 0.392531 2.53763e-20)
(0.395081 0.3048 -6.04393e-20)
(0.208205 0.156003 7.24158e-20)
(0.02799 0.020497 1.06249e-20)
(0.235874 0.181075 2.68791e-20)
(1.07527 0.812819 -2.0335e-20)
(1.21451 0.931318 1.19841e-21)
(1.19638 0.936299 4.30287e-20)
(1.14538 0.91647 1.49032e-20)
(1.08628 0.892449 4.21145e-20)
(1.01985 0.864609 -5.17479e-21)
(0.945326 0.832109 1.28535e-20)
(0.861951 0.793065 -4.46355e-21)
(0.768948 0.743881 -2.64342e-20)
(0.679621 0.686824 0)
(0.608995 0.629842 -3.30537e-20)
(0.557104 0.57598 4.53276e-20)
(0.521415 0.526621 0)
(0.49924 0.482928 -3.68369e-20)
(0.483975 0.444097 2.29165e-20)
(0.455437 0.395822 -2.74881e-20)
(0.359366 0.298602 -3.32758e-20)
(0.179823 0.144137 -5.91447e-20)
(0.0208531 0.0162725 -4.67692e-20)
(0.235335 0.188382 -2.95906e-20)
(1.06577 0.841865 2.17699e-20)
(1.2024 0.963993 5.13969e-20)
(1.18424 0.968774 5.92511e-20)
(1.13335 0.948189 -3.12517e-20)
(1.07428 0.923405 2.91474e-20)
(1.00776 0.894877 -1.61323e-20)
(0.932788 0.861872 1.60859e-20)
(0.848362 0.822541 -1.33615e-21)
(0.753164 0.773197 2.51256e-20)
(0.660265 0.715646 8.74836e-20)
(0.585276 0.657245 0)
(0.528933 0.60064 0)
(0.48898 0.547328 -1.62828e-20)
(0.464018 0.498204 0)
(0.447576 0.452132 5.00285e-20)
(0.417971 0.395251 6.03037e-20)
(0.321167 0.287449 0)
(0.150654 0.128885 0)
(0.0140912 0.0117122 5.11354e-20)
(0.234513 0.195124 3.26822e-20)
(1.05654 0.869094 2.61349e-20)
(1.19063 0.994459 3.69958e-20)
(1.17247 0.999044 -5.2995e-20)
(1.12176 0.977779 -3.49137e-20)
(1.06281 0.952328 -3.87439e-20)
(0.996302 0.923243 2.40002e-20)
(0.921024 0.889904 1.20723e-22)
(0.8357 0.850524 -9.5341e-22)
(0.738484 0.801403 -1.25548e-21)
(0.642033 0.74395 4.42799e-20)
(0.562461 0.684749 0)
(0.500952 0.626261 4.5737e-20)
(0.455702 0.569388 3.43e-20)
(0.426275 0.514354 8.79227e-20)
(0.406902 0.459289 2.70045e-20)
(0.375841 0.389398 -3.35065e-20)
(0.281026 0.268536 -1.98086e-20)
(0.124001 0.109713 0)
(0.00892293 0.00729226 5.58261e-20)
(0.233893 0.201734 -7.20323e-20)
(1.04756 0.89469 0)
(1.17921 1.02281 4.14075e-20)
(1.16111 1.0272 -4.34988e-20)
(1.11064 1.00534 3.96087e-20)
(1.05188 0.979311 5.67116e-20)
(0.985503 0.949772 -5.58269e-20)
(0.910041 0.916247 5.07284e-22)
(0.823991 0.87702 0)
(0.724953 0.828446 -2.32099e-20)
(0.625139 0.77165 -9.15275e-20)
(0.540884 0.712331 4.48798e-21)
(0.47396 0.652514 6.20189e-20)
(0.422108 0.593383 0)
(0.385895 0.533535 5.92431e-20)
(0.360294 0.466784 0)
(0.324735 0.376681 0)
(0.237169 0.23374 -2.21994e-20)
(0.113629 0.0766169 0)
(0.0241672 0.00815833 1.51157e-20)
(0.232918 0.207685 -7.88046e-20)
(1.03882 0.918837 0)
(1.16814 1.04924 6.72204e-20)
(1.15013 1.05348 0)
(1.09996 1.03112 -2.15558e-20)
(1.04144 1.00462 0)
(0.975289 0.974758 -4.18742e-21)
(0.89975 0.941223 -2.8597e-21)
(0.813112 0.902367 -8.45908e-23)
(0.71244 0.854699 -2.26105e-20)
(0.609436 0.799123 2.38926e-21)
(0.520454 0.740469 3.71079e-20)
(0.44772 0.680246 6.00328e-20)
(0.388321 0.620189 8.59225e-21)
(0.342543 0.557319 4.62387e-20)
(0.305486 0.479035 0)
(0.254164 0.361166 7.33681e-20)
(0.168346 0.172062 -4.40101e-20)
(0.0568588 0.0832497 5.1176e-20)
(-0.032128 0.404782 -6.0753e-20)
(0.231897 0.213352 6.43353e-20)
(1.03012 0.941472 9.97191e-20)
(1.15735 1.07408 0)
(1.13942 1.07828 9.7215e-22)
(1.08956 1.05566 5.86208e-20)
(1.03126 1.02891 -1.10196e-19)
(0.965396 0.998946 -2.47332e-20)
(0.88982 0.96572 0)
(0.80265 0.927625 -5.13315e-21)
(0.700408 0.881447 -6.55236e-22)
(0.594172 0.827872 0)
(0.500195 0.771029 0)
(0.421184 0.710988 5.2441e-20)
(0.353588 0.651884 -2.67312e-20)
(0.294658 0.590376 -4.58363e-20)
(0.240216 0.504573 0)
(0.14159 0.353243 3.75904e-20)
(0.0355471 0.467815 -4.49732e-20)
(0.048309 1.77214 -2.4657e-20)
(0.0806207 2.74698 -3.00731e-20)
(0.230568 0.218415 -4.72482e-20)
(1.02156 0.962779 -1.26086e-19)
(1.14684 1.09731 3.88854e-20)
(1.12899 1.10149 3.7156e-20)
(1.0795 1.07877 0)
(1.02141 1.05193 -7.90385e-20)
(0.955993 1.02205 -4.15226e-20)
(0.880394 0.989329 1.92159e-21)
(0.792817 0.952277 -6.94417e-22)
(0.68918 0.908051 1.67447e-20)
(0.579885 0.857125 4.02207e-20)
(0.481037 0.803276 3.76996e-20)
(0.395524 0.744293 5.12318e-20)
(0.320728 0.686416 -6.05816e-20)
(0.248503 0.633693 -6.73641e-20)
(0.169397 0.551085 0)
(0.0780771 0.838593 0)
(0.127219 2.46848 1.96476e-20)
(0.134797 3.16178 0)
(0.134035 3.36991 4.93204e-20)
(0.232042 0.223211 0)
(1.01335 0.983013 0)
(1.13632 1.11882 0)
(1.11866 1.12291 1.03708e-20)
(1.06956 1.10029 5.25771e-20)
(1.01167 1.07353 -6.04677e-20)
(0.947005 1.04397 -2.97992e-20)
(0.871406 1.01193 2.19207e-21)
(0.783548 0.976171 -1.30745e-20)
(0.678738 0.934325 -2.11704e-21)
(0.56668 0.886701 7.18598e-20)
(0.463301 0.837035 -4.41704e-21)
(0.371197 0.780477 5.72749e-21)
(0.290865 0.720933 8.59498e-21)
(0.211749 0.684305 5.39246e-22)
(0.139135 0.944257 3.10596e-22)
(0.176691 2.60514 -9.49443e-20)
(0.19607 3.27005 -3.6219e-20)
(0.178245 3.42343 1.76815e-20)
(0.16001 3.44886 -1.85251e-20)
(0.153944 0.168118 2.79181e-20)
(0.999529 1.00508 0)
(1.12581 1.13882 -7.64031e-20)
(1.10889 1.14296 -9.65731e-20)
(1.06011 1.12068 1.09351e-19)
(1.00265 1.09415 6.41388e-20)
(0.938232 1.06473 3.51188e-20)
(0.862863 1.03355 -3.79574e-20)
(0.774941 0.999325 1.42758e-20)
(0.669383 0.960098 0)
(0.555065 0.916256 3.05862e-20)
(0.447768 0.871432 -2.78522e-20)
(0.348912 0.821273 0)
(0.265081 0.760915 7.67556e-21)
(0.196225 0.878098 1.88348e-20)
(0.184537 2.27347 -2.26229e-20)
(0.263461 3.30838 2.58866e-20)
(0.240963 3.44569 1.26111e-20)
(0.201007 3.47011 1.47287e-20)
(0.174345 3.48064 1.88124e-20)
(0.264126 0.256985 -5.45386e-20)
(0.978501 1.01006 0)
(1.10645 1.16048 7.9061e-20)
(1.09541 1.17308 1.00829e-19)
(1.04517 1.15067 -1.13606e-19)
(0.987996 1.12473 -6.87733e-20)
(0.923458 1.09675 -5.41032e-20)
(0.848294 1.06707 -2.81556e-21)
(0.759973 1.03559 -2.08158e-20)
(0.652837 1.00114 -7.48638e-23)
(0.534705 0.964938 1.11545e-21)
(0.421414 0.929303 2.07873e-20)
(0.312087 0.895813 4.55472e-21)
(0.242022 1.00592 -6.61263e-21)
(0.269608 2.17487 -1.55421e-20)
(0.337788 3.31087 1.13911e-20)
(0.325193 3.48566 -1.01372e-20)
(0.28368 3.50932 -5.93711e-21)
(0.242143 3.53723 6.25405e-22)
(0.184701 3.52852 -2.24892e-22)
(0.252415 0.254237 0)
(0.973977 1.02953 2.08732e-20)
(1.09763 1.1811 -1.56203e-20)
(1.08532 1.19351 -1.12114e-20)
(1.03562 1.1712 -7.44455e-20)
(0.978983 1.14552 6.70358e-20)
(0.914656 1.11784 3.63949e-20)
(0.839989 1.08919 -2.95854e-21)
(0.752047 1.05961 2.58833e-20)
(0.644735 1.0284 -2.90647e-21)
(0.525274 0.9979 -3.61007e-20)
(0.409564 0.96888 2.92956e-21)
(0.30352 0.96095 -3.87712e-21)
(0.28755 1.40991 -5.29841e-21)
(0.375698 3.00488 3.99341e-21)
(0.412601 3.47965 5.07265e-22)
(0.360557 3.55367 -6.03066e-21)
(0.319114 3.57599 -9.43303e-21)
(0.261384 3.5989 1.53259e-20)
(0.198079 3.59128 6.99745e-21)
(0.236862 0.250172 5.16515e-20)
(0.968124 1.05103 1.39637e-19)
(1.08817 1.20329 -4.44149e-20)
(1.0749 1.21528 -4.24576e-20)
(1.02577 1.19287 0)
(0.969655 1.16722 9.79388e-20)
(0.905836 1.13986 5.54704e-20)
(0.831981 1.1122 -3.11647e-21)
(0.744728 1.08452 2.69823e-21)
(0.637705 1.05669 1.41131e-20)
(0.517708 1.03215 -9.53082e-21)
(0.401594 1.01113 -1.92291e-20)
(0.314377 1.0675 -2.4399e-20)
(0.367317 1.99746 2.61701e-20)
(0.473124 3.36052 1.06471e-20)
(0.465727 3.55869 0)
(0.405037 3.60524 0)
(0.358914 3.65008 1.43862e-20)
(0.284524 3.71297 0)
(0.208684 3.67916 3.32472e-20)
(0.22534 0.249743 -7.50302e-20)
(0.960019 1.07282 -1.1574e-19)
(1.0773 1.22636 0)
(1.06337 1.23766 1.09475e-21)
(1.01483 1.2149 -7.21619e-20)
(0.959401 1.18916 1.45301e-19)
(0.896444 1.16213 3.72854e-20)
(0.823683 1.13538 -3.8667e-21)
(0.737401 1.10944 2.91115e-20)
(0.631225 1.08518 -1.53082e-21)
(0.511569 1.0668 0)
(0.397482 1.05604 0)
(0.346992 1.24642 -1.64527e-20)
(0.465824 2.65441 4.26108e-21)
(0.562574 3.50403 -5.28313e-21)
(0.514064 3.60864 0)
(0.468555 3.66606 3.7349e-20)
(0.399697 3.7433 -5.65987e-20)