/*--------------------------------*- C++ -*----------------------------------*\
  =========                 |
  \\      /  F ield         | OpenFOAM: The Open Source CFD Toolbox
   \\    /   O peration     | Website:  https://openfoam.org
    \\  /    A nd           | Version:  6
     \\/     M anipulation  |
\*---------------------------------------------------------------------------*/
FoamFile
{
    version     2.0;
    format      ascii;
    class       volVectorField;
    location    "47.9";
    object      U;
}
// * * * * * * * * * * * * * * * * * * * * * * * * * * * * * * * * * * * * * //

dimensions      [0 1 -1 0 0 0 0];

internalField   nonuniform List<vector> 
8800
(
(0.987185 -0.0766673 0)
(1.0019 -0.055194 0)
(0.999732 -0.0285539 0)
(1.00003 -0.0151487 0)
(1.00007 -0.00854825 0)
(1.00007 -0.00505085 0)
(1.00004 -0.00301205 0)
(1.00002 -0.00171459 0)
(0.999998 -0.00080901 0)
(1.00006 -9.58477e-05 0)
(0.999987 0.000629388 0)
(0.999995 0.00139032 0)
(1.00001 0.00241305 0)
(1.00002 0.00399288 0)
(1.00003 0.00663097 0)
(1.00001 0.0113701 0)
(0.999886 0.0208133 0)
(0.999143 0.0386705 0)
(1.00709 0.0724566 0)
(0.771212 0.0366608 0)
(0.363048 -0.0160194 0)
(1.04329 -0.0768277 0)
(1.08459 -0.0704673 0)
(1.04518 -0.0535693 0)
(1.02326 -0.0389264 0)
(1.01197 -0.0262549 0)
(1.00637 -0.016905 0)
(1.00356 -0.0103843 0)
(1.00214 -0.00573223 0)
(1.00145 -0.00208188 0)
(1.00131 0.00123723 0)
(1.00168 0.00461395 0)
(1.00265 0.00854795 0)
(1.00463 0.0138982 0)
(1.00858 0.0216194 0)
(1.01655 0.0325997 0)
(1.03246 0.046519 0)
(1.06262 0.0616403 0)
(1.09187 0.0760875 0)
(0.83869 0.0565561 0)
(0.216793 -0.00243244 0)
(1.07585 -0.0501674 0)
(1.09984 -0.0483558 0)
(1.0646 -0.0405193 0)
(1.03996 -0.0336729 0)
(1.02383 -0.0261687 0)
(1.01405 -0.0186065 0)
(1.00852 -0.0117951 0)
(1.00557 -0.00593261 0)
(1.00433 -0.000524869 0)
(1.00468 0.00471509 0)
(1.00661 0.0101058 0)
(1.0106 0.0162139 0)
(1.01793 0.0232607 0)
(1.03054 0.0307428 0)
(1.05062 0.0377855 0)
(1.08032 0.0444782 0)
(1.10626 0.0513059 0)
(0.942586 0.0415972 0)
(0.216206 0.00245936 0)
(0.175084 -0.000819396 0)
(1.01756 -0.0355277 0)
(1.10512 -0.0414501 0)
(1.07818 -0.0361522 0)
(1.05335 -0.0302348 0)
(1.03608 -0.0246779 0)
(1.02391 -0.0189704 0)
(1.01582 -0.0129115 0)
(1.01099 -0.0067402 0)
(1.00881 -0.000415859 0)
(1.0094 0.00583805 0)
(1.01267 0.0118336 0)
(1.01887 0.0176825 0)
(1.02877 0.0232874 0)
(1.04323 0.0286145 0)
(1.06375 0.0341201 0)
(1.09356 0.0401192 0)
(1.09345 0.0419021 0)
(0.827303 0.0228875 0)
(0.174095 0.000850085 0)
(0.153841 -0.000613623 0)
(0.955934 -0.0255139 0)
(1.10332 -0.0352265 0)
(1.08755 -0.0327765 0)
(1.06156 -0.0281454 0)
(1.04394 -0.0231479 0)
(1.03151 -0.0179306 0)
(1.0227 -0.0124197 0)
(1.01692 -0.00650104 0)
(1.01411 -5.33407e-05 0)
(1.01482 0.00639528 0)
(1.01881 0.0122826 0)
(1.02582 0.0176091 0)
(1.03613 0.0225599 0)
(1.05072 0.0273423 0)
(1.07197 0.031906 0)
(1.10012 0.0358654 0)
(1.06821 0.0339532 0)
(0.739827 0.0142814 0)
(0.152354 0.000648387 0)
(0.13942 -0.000470041 0)
(0.898877 -0.0191418 0)
(1.09555 -0.0301996 0)
(1.09555 -0.0293471 0)
(1.06902 -0.0256481 0)
(1.05059 -0.0215421 0)
(1.03771 -0.0168013 0)
(1.02865 -0.0115496 0)
(1.02258 -0.0058395 0)
(1.0195 0.000470931 0)
(1.02017 0.0067854 0)
(1.02429 0.0124227 0)
(1.03143 0.0174123 0)
(1.04196 0.021922 0)
(1.05711 0.0259194 0)
(1.07933 0.0294157 0)
(1.10238 0.0320703 0)
(1.03624 0.028014 0)
(0.673435 0.01017 0)
(0.137324 0.00051013 0)
(0.128824 -0.00036502 0)
(0.849097 -0.0147907 0)
(1.08305 -0.0260938 0)
(1.10116 -0.0264309 0)
(1.0758 -0.0231756 0)
(1.05684 -0.0195666 0)
(1.04351 -0.0153688 0)
(1.0341 -0.0104982 0)
(1.02781 -0.00500971 0)
(1.02456 0.00110596 0)
(1.0251 0.00719041 0)
(1.02919 0.0125526 0)
(1.03644 0.0171438 0)
(1.04727 0.0210493 0)
(1.06285 0.0243839 0)
(1.08551 0.027381 0)
(1.10158 0.0291865 0)
(1.0015 0.0234696 0)
(0.621819 0.00779635 0)
(0.125987 0.000412275 0)
(0.120719 -0.000284688 0)
(0.806733 -0.0116431 0)
(1.06761 -0.022509 0)
(1.10458 -0.0238414 0)
(1.08197 -0.021024 0)
(1.06259 -0.0176497 0)
(1.049 -0.0137615 0)
(1.03933 -0.00922796 0)
(1.03276 -0.00402458 0)
(1.02928 0.00186636 0)
(1.02968 0.00771017 0)
(1.03374 0.0127241 0)
(1.04107 0.016858 0)
(1.05201 0.0202807 0)
(1.06781 0.0232027 0)
(1.09081 0.0258928 0)
(1.09789 0.0268 0)
(0.966486 0.0198898 0)
(0.58044 0.00624909 0)
(0.116983 0.000340949 0)
(0.114417 -0.000221914 0)
(0.771012 -0.00929181 0)
(1.05065 -0.0193573 0)
(1.10684 -0.0214357 0)
(1.08772 -0.0189839 0)
(1.06798 -0.0157519 0)
(1.05415 -0.0120486 0)
(1.04428 -0.0077667 0)
(1.03748 -0.00282745 0)
(1.03375 0.00279576 0)
(1.03396 0.00832771 0)
(1.03792 0.0129558 0)
(1.0452 0.0166529 0)
(1.05617 0.0196754 0)
(1.07217 0.0222832 0)
(1.09486 0.0246585 0)
(1.09144 0.0247906 0)
(0.93251 0.0171102 0)
(0.546298 0.00518619 0)
(0.109587 0.000289195 0)
(0.109484 -0.000171405 0)
(0.740991 -0.00746725 0)
(1.03322 -0.0165666 0)
(1.10815 -0.0191911 0)
(1.0932 -0.0170692 0)
(1.07316 -0.0139546 0)
(1.05906 -0.0103508 0)
(1.04902 -0.00617801 0)
(1.04202 -0.00142509 0)
(1.03803 0.00391387 0)
(1.03798 0.00909048 0)
(1.04175 0.0133551 0)
(1.04889 0.0167282 0)
(1.05986 0.0194464 0)
(1.07609 0.0217511 0)
(1.09768 0.0237383 0)
(1.08263 0.0231252 0)
(0.900156 0.0149783 0)
(0.517363 0.00443802 0)
(0.103323 0.000252592 0)
(0.105635 -0.000129423 0)
(0.715857 -0.0059943 0)
(1.01614 -0.0140525 0)
(1.10855 -0.0169967 0)
(1.09852 -0.0151772 0)
(1.07824 -0.0120953 0)
(1.06388 -0.00854592 0)
(1.05362 -0.00447784 0)
(1.04638 0.000125061 0)
(1.0421 0.00525613 0)
(1.04173 0.0101454 0)
(1.04522 0.0140517 0)
(1.0522 0.0170324 0)
(1.06314 0.0193987 0)
(1.07953 0.0214537 0)
(1.09916 0.023062 0)
(1.07184 0.0217552 0)
(0.869579 0.0133687 0)
(0.492212 0.00391131 0)
(0.097858 0.000227548 0)
(0.102682 -9.35795e-05 0)
(0.694959 -0.00476242 0)
(1.00004 -0.0117701 0)
(1.10828 -0.0148607 0)
(1.10369 -0.0132322 0)
(1.0833 -0.0101211 0)
(1.0686 -0.00658283 0)
(1.0581 -0.00255607 0)
(1.0506 0.00195264 0)
(1.04596 0.0068732 0)
(1.0452 0.0114488 0)
(1.04835 0.0150248 0)
(1.0551 0.0176886 0)
(1.06601 0.0197273 0)
(1.08259 0.0215023 0)
(1.09973 0.0226997 0)
(1.05942 0.0207211 0)
(0.840657 0.0121962 0)
(0.469787 0.00355312 0)
(0.0929375 0.000212194 0)
(0.100503 -6.05757e-05 0)
(0.677825 -0.00367856 0)
(0.985321 -0.00963078 0)
(1.10746 -0.0126883 0)
(1.10863 -0.0112343 0)
(1.08841 -0.0081134 0)
(1.07338 -0.00449396 0)
(1.06257 -0.0004155 0)
(1.0547 0.00405129 0)
(1.04961 0.00882681 0)
(1.04837 0.0131373 0)
(1.05114 0.016361 0)
(1.05766 0.0186729 0)
(1.06851 0.0204083 0)
(1.08514 0.0219122 0)
(1.09931 0.0227456 0)
(1.04552 0.0200069 0)
(0.813105 0.0113819 0)
(0.449269 0.00332366 0)
(0.088364 0.000204409 0)
(0.0990365 -2.80325e-05 0)
(0.664165 -0.00267407 0)
(0.972407 -0.00756496 0)
(1.10644 -0.010382 0)
(1.11345 -0.00895909 0)
(1.09362 -0.00575644 0)
(1.07821 -0.0020589 0)
(1.06702 0.00205784 0)
(1.05871 0.00652161 0)
(1.05307 0.0111999 0)
(1.05124 0.0152746 0)
(1.05354 0.0181725 0)
(1.05978 0.0201022 0)
(1.07055 0.0214238 0)
(1.08719 0.0226329 0)
(1.09772 0.0230609 0)
(1.0303 0.0195911 0)
(0.786581 0.0108672 0)
(0.430011 0.00319555 0)
(0.0839865 0.000202439 0)
(0.098268 5.87902e-06 0)
(0.653847 -0.00169719 0)
(0.961598 -0.00550109 0)
(1.10559 -0.00793493 0)
(1.11837 -0.00648438 0)
(1.09902 -0.00315323 0)
(1.08317 0.000728813 0)
(1.07154 0.00499998 0)
(1.06272 0.00952363 0)
(1.0564 0.0140844 0)
(1.05387 0.0178627 0)
(1.05558 0.0203806 0)
(1.06145 0.021941 0)
(1.07213 0.0229023 0)
(1.08876 0.0238092 0)
(1.09495 0.0237603 0)
(1.0138 0.0195105 0)
(0.760692 0.0106178 0)
(0.411483 0.00315525 0)
(0.0796757 0.000206113 0)
(0.098223 3.9005e-05 0)
(0.646866 -0.000693084 0)
(0.9532 -0.00334646 0)
(1.10516 -0.00521885 0)
(1.12341 -0.00366404 0)
(1.1047 -0.000184138 0)
(1.0884 0.00394251 0)
(1.07625 0.00843278 0)
(1.06674 0.0130715 0)
(1.05959 0.0175998 0)
(1.0562 0.0211483 0)
(1.05725 0.023285 0)
(1.0627 0.0244077 0)
(1.07324 0.0249283 0)
(1.08955 0.0254442 0)
(1.09074 0.0248316 0)
(0.995927 0.0197515 0)
(0.735022 0.0106154 0)
(0.393217 0.00319411 0)
(0.0753187 0.000214707 0)
(0.09894 7.78077e-05 0)
(0.643295 0.000345702 0)
(0.947553 -0.0010506 0)
(1.10556 -0.00217516 0)
(1.12882 -0.000336306 0)
(1.11073 0.00341406 0)
(1.09394 0.00782508 0)
(1.08115 0.0125493 0)
(1.07087 0.0173571 0)
(1.06274 0.021872 0)
(1.05828 0.0251482 0)
(1.05846 0.0268681 0)
(1.06339 0.0275023 0)
(1.07377 0.0275341 0)
(1.08945 0.0276203 0)
(1.08498 0.026343 0)
(0.97658 0.020374 0)
(0.7091 0.010856 0)
(0.374766 0.00331005 0)
(0.0708086 0.000228253 0)
(0.100622 0.000138742 0)
(0.643556 0.00151356 0)
(0.945025 0.00149182 0)
(1.10724 0.00127394 0)
(1.13483 0.00349868 0)
(1.11725 0.00762025 0)
(1.09985 0.0124269 0)
(1.0863 0.0175213 0)
(1.07501 0.0225719 0)
(1.06563 0.0270831 0)
(1.05992 0.030063 0)
(1.05913 0.0312849 0)
(1.06341 0.0313796 0)
(1.07362 0.0308941 0)
(1.08829 0.0304632 0)
(1.07751 0.0283632 0)
(0.955478 0.0213865 0)
(0.682435 0.0113363 0)
(0.355705 0.00349901 0)
(0.0660441 0.000246273 0)
(0.103325 0.000198397 0)
(0.647947 0.00293037 0)
(0.946034 0.00442694 0)
(1.11059 0.00531312 0)
(1.14155 0.00803159 0)
(1.12442 0.0126182 0)
(1.10635 0.0179594 0)
(1.09186 0.0235327 0)
(1.07935 0.0288814 0)
(1.06847 0.0334281 0)
(1.06121 0.0361016 0)
(1.05923 0.0367217 0)
(1.06274 0.0361935 0)
(1.07269 0.0351428 0)
(1.08584 0.0340777 0)
(1.06802 0.0309513 0)
(0.932326 0.0228317 0)
(0.654504 0.0120615 0)
(0.335618 0.00375992 0)
(0.0609333 0.000268302 0)
(0.107338 0.00027901 0)
(0.657077 0.00461308 0)
(0.951003 0.00778781 0)
(1.1162 0.01009 0)
(1.1493 0.0135689 0)
(1.13244 0.0188379 0)
(1.11356 0.0247913 0)
(1.09788 0.0308996 0)
(1.08387 0.0366192 0)
(1.07115 0.0411696 0)
(1.06206 0.0433975 0)
(1.0587 0.0433597 0)
(1.06128 0.0420906 0)
(1.07087 0.040345 0)
(1.08201 0.0385881 0)
(1.05619 0.0342379 0)
(0.906693 0.0247739 0)
(0.624708 0.0130497 0)
(0.314068 0.00409416 0)
(0.0553842 0.000294059 0)
(0.112982 0.000388413 0)
(0.671621 0.00671423 0)
(0.96084 0.0119338 0)
(1.12468 0.015798 0)
(1.15854 0.0202368 0)
(1.14154 0.0263983 0)
(1.12158 0.0331363 0)
(1.10444 0.0399176 0)
(1.08856 0.0460599 0)
(1.07358 0.050583 0)
(1.0623 0.0522623 0)
(1.05732 0.0514017 0)
(1.05884 0.0492563 0)
(1.06801 0.0466903 0)
(1.0767 0.0441228 0)
(1.04159 0.0383219 0)
(0.878002 0.0272481 0)
(0.592397 0.0143019 0)
(0.290617 0.00449337 0)
(0.0493185 0.000321954 0)
(0.120788 0.000542558 0)
(0.6926 0.00946119 0)
(0.97624 0.0171061 0)
(1.13651 0.0227941 0)
(1.16957 0.0283904 0)
(1.15199 0.0356863 0)
(1.13066 0.0434547 0)
(1.11161 0.05108 0)
(1.0933 0.0576553 0)
(1.07554 0.0620163 0)
(1.06174 0.0629162 0)
(1.05489 0.0610106 0)
(1.05524 0.0578936 0)
(1.06394 0.0544053 0)
(1.06956 0.0508815 0)
(1.02368 0.04329 0)
(0.845627 0.03031 0)
(0.55686 0.0158092 0)
(0.264855 0.0049415 0)
(0.0426884 0.000349566 0)
(0.131522 0.000767624 0)
(0.72135 0.0132079 0)
(0.998378 0.0237402 0)
(1.15253 0.0316234 0)
(1.18302 0.038789 0)
(1.16423 0.0476177 0)
(1.14105 0.0565544 0)
(1.11951 0.0650004 0)
(1.09827 0.0718832 0)
(1.07726 0.0758367 0)
(1.06045 0.0756475 0)
(1.0514 0.0724352 0)
(1.05034 0.0681724 0)
(1.0584 0.0636192 0)
(1.06014 0.0588692 0)
(1.00183 0.0493064 0)
(0.808765 0.0339943 0)
(0.517345 0.0175443 0)
(0.236452 0.00540878 0)
(0.0354979 0.00037274 0)
(0.146411 0.00111967 0)
(0.759765 0.0185876 0)
(1.02885 0.0325908 0)
(1.17378 0.0431524 0)
(1.19976 0.052355 0)
(1.17851 0.063112 0)
(1.15262 0.0733147 0)
(1.12775 0.0824995 0)
(1.10273 0.0893825 0)
(1.07782 0.0924706 0)
(1.05777 0.0907538 0)
(1.04648 0.0859139 0)
(1.04399 0.0802307 0)
(1.051 0.0744533 0)
(1.0479 0.0683545 0)
(0.975169 0.0564466 0)
(0.766504 0.0382988 0)
(0.473115 0.0194457 0)
(0.205229 0.00584719 0)
(0.0278344 0.000385805 0)
(0.167586 0.00172817 0)
(0.810955 0.0267272 0)
(1.07016 0.0452045 0)
(1.20128 0.0591863 0)
(1.22047 0.0711355 0)
(1.19497 0.0836602 0)
(1.16523 0.0950096 0)
(1.1361 0.104493 0)
(1.10664 0.110732 0)
(1.07738 0.112272 0)
(1.05374 0.108457 0)
(1.03998 0.101631 0)
(1.03607 0.0943352 0)
(1.04169 0.0873004 0)
(1.03226 0.0794389 0)
(0.942667 0.0646787 0)
(0.717927 0.0431624 0)
(0.423642 0.0214031 0)
(0.171352 0.00619243 0)
(0.019905 0.000382675 0)
(0.198338 0.0030643 0)
(0.880514 0.0402176 0)
(1.12571 0.0653097 0)
(1.23535 0.0833062 0)
(1.24479 0.0979011 0)
(1.21307 0.111676 0)
(1.17814 0.12329 0)
(1.14372 0.131977 0)
(1.10914 0.136485 0)
(1.07511 0.135477 0)
(1.04781 0.128786 0)
(1.03169 0.119514 0)
(1.02638 0.110441 0)
(1.03025 0.10214 0)
(1.01246 0.0922034 0)
(0.903112 0.0739029 0)
(0.662233 0.0483275 0)
(0.369239 0.0232551 0)
(0.1359 0.00639487 0)
(0.012144 0.000356499 0)
(0.240333 0.00916778 8.48194e-21)
(0.972287 0.0669177 7.28428e-21)
(1.19317 0.0994199 -2.54922e-21)
(1.27292 0.119196 0)
(1.26995 0.136413 -6.56387e-35)
(1.23065 0.149697 9.61777e-22)
(1.18973 0.159812 -1.75018e-21)
(1.14949 0.166292 0)
(1.1094 0.168003 3.62925e-35)
(1.0703 0.163601 -2.19962e-21)
(1.03901 0.153529 0)
(1.02023 0.141604 -2.62597e-21)
(1.01334 0.130721 -7.75679e-21)
(1.01512 0.121351 -3.67126e-21)
(0.986069 0.109523 -1.10791e-21)
(0.852026 0.0864408 -6.59109e-22)
(0.593497 0.0548281 0)
(0.307468 0.0254747 4.62863e-22)
(0.0994336 0.0069819 5.48321e-22)
(0.00487535 0.000393878 9.98818e-21)
(0.269416 0.0241044 5.9604e-21)
(1.04818 0.109118 1.06208e-22)
(1.24863 0.148081 6.69202e-22)
(1.30681 0.167817 0)
(1.29205 0.185316 -3.30489e-21)
(1.24565 0.196504 -3.77292e-21)
(1.19871 0.204347 -1.75912e-21)
(1.1525 0.208358 -6.32022e-21)
(1.10651 0.207311 0)
(1.06166 0.19972 9.36834e-21)
(1.02559 0.186484 9.31985e-21)
(1.00348 0.172049 2.77887e-21)
(0.994244 0.159085 1.01548e-20)
(0.990571 0.147194 1.42917e-20)
(0.946039 0.131622 0)
(0.784585 0.102233 2.02401e-20)
(0.513382 0.0632387 2.91102e-20)
(0.242753 0.0283364 3.24208e-20)
(0.0645374 0.00718141 -3.72114e-20)
(-0.00192358 -6.38289e-05 -7.07551e-22)
(0.270902 0.040624 0)
(1.09642 0.163805 9.70196e-22)
(1.28615 0.207621 0)
(1.33322 0.227198 -4.14331e-21)
(1.30929 0.241974 0)
(1.25686 0.249338 -7.35969e-21)
(1.20425 0.253531 3.58731e-21)
(1.15233 0.254058 -1.26832e-20)
(1.10075 0.249535 -3.15378e-22)
(1.05048 0.238342 4.8506e-21)
(1.00979 0.221558 2.05897e-20)
(0.984305 0.204314 -5.68961e-23)
(0.972329 0.189322 -7.40278e-21)
(0.963663 0.175244 -1.35408e-20)
(0.909445 0.155602 1.60689e-20)
(0.737154 0.119289 -2.85318e-20)
(0.469511 0.0726583 -3.7879e-21)
(0.215394 0.0320401 0)
(0.0524965 0.00760766 -1.06489e-24)
(-0.00423084 -0.000573851 0)
(0.264752 0.0545944 1.11058e-20)
(1.12261 0.22225 -5.63316e-21)
(1.30945 0.271865 -4.6344e-21)
(1.35058 0.291916 1.91459e-21)
(1.32026 0.302967 -3.24257e-21)
(1.26329 0.305897 1.54244e-20)
(1.20601 0.305814 7.49101e-21)
(1.14917 0.30228 0)
(1.09256 0.293769 -2.42157e-20)
(1.0372 0.278407 0)
(0.992033 0.257723 -1.08242e-20)
(0.96334 0.237648 -1.34255e-20)
(0.948988 0.220862 -8.09531e-21)
(0.93647 0.204824 -9.87118e-21)
(0.877287 0.181075 0)
(0.705158 0.138841 0)
(0.449341 0.0852444 -2.48204e-20)
(0.210729 0.0390427 4.92135e-21)
(0.0532234 0.00945295 -2.88061e-21)
(-0.00429729 -0.00087918 -3.41224e-21)
(0.257566 0.0669668 -3.07854e-21)
(1.13438 0.280738 0)
(1.32237 0.337256 8.79641e-21)
(1.35989 0.358175 5.24171e-21)
(1.32505 0.365471 7.63093e-21)
(1.26477 0.364029 0)
(1.20385 0.359633 7.27368e-21)
(1.14295 0.351909 1.40542e-20)
(1.08194 0.33918 1.23829e-20)
(1.02193 0.319509 2.30104e-20)
(0.972719 0.295259 0)
(0.941018 0.272783 -2.90431e-20)
(0.924159 0.254082 -1.75523e-20)
(0.908205 0.235583 -1.03936e-20)
(0.847896 0.20799 6.41487e-20)
(0.682464 0.160903 7.6799e-21)
(0.442323 0.101577 3.62052e-20)
(0.217082 0.0487822 -1.71642e-19)
(0.0613097 0.0133869 1.01778e-19)
(-0.00224956 -0.00063044 -1.2423e-19)
(0.250825 0.0781683 2.68938e-22)
(1.13712 0.337406 5.03282e-22)
(1.32781 0.401955 -7.7537e-22)
(1.36278 0.424053 -4.76286e-21)
(1.32464 0.427827 -6.12736e-21)
(1.26189 0.422242 3.60028e-22)
(1.19811 0.413713 -7.90388e-21)
(1.13383 0.401882 1.45172e-20)
(1.06906 0.384971 -2.67063e-20)
(1.00504 0.361186 0)
(0.952243 0.333499 -1.31334e-20)
(0.917653 0.308361 -3.2514e-22)
(0.897984 0.287324 -1.92581e-20)
(0.879243 0.266652 0)
(0.819021 0.236556 -1.3933e-20)
(0.663506 0.185116 -3.32883e-20)
(0.440368 0.119996 8.93373e-20)
(0.226953 0.0610786 -8.80409e-20)
(0.0722542 0.0192606 1.25292e-19)
(0.000893659 0.000169432 -1.31854e-19)
(0.245303 0.0886032 -1.04714e-22)
(1.13436 0.391593 3.60901e-22)
(1.32793 0.464906 -1.20448e-21)
(1.36074 0.488386 1.64252e-21)
(1.32011 0.489022 -3.03681e-21)
(1.25551 0.479577 0)
(1.18941 0.467145 -7.2285e-21)
(1.12228 0.45137 -1.51799e-20)
(1.05425 0.430449 -1.38567e-20)
(0.98677 0.402704 0)
(0.930654 0.371246 -1.36192e-20)
(0.893301 0.342948 -1.69672e-20)
(0.871187 0.319691 2.09319e-20)
(0.850694 0.297796 -1.27649e-20)
(0.791033 0.265362 -6.10034e-20)
(0.645175 0.210029 3.65231e-20)
(0.438407 0.139643 1.09579e-20)
(0.236505 0.0746194 0)
(0.082895 0.0262104 -1.21518e-19)
(0.00413171 0.0013088 -4.51647e-21)
(0.24109 0.0985945 7.12094e-22)
(1.12831 0.443129 -9.58933e-22)
(1.32421 0.525534 3.68695e-22)
(1.35499 0.550482 6.2536e-21)
(1.3124 0.548356 -1.06738e-20)
(1.24638 0.535383 1.39435e-20)
(1.17837 0.519308 1.55869e-20)
(1.1088 0.499815 -2.42513e-20)
(1.03795 0.47513 8.66189e-21)
(0.967311 0.443458 -5.6726e-20)
(0.908057 0.40806 -1.54674e-20)
(0.868189 0.376732 0)
(0.844357 0.352026 2.27295e-20)
(0.822514 0.329137 2.73216e-20)
(0.763051 0.293728 3.28381e-20)
(0.626192 0.234263 -3.97252e-20)
(0.433929 0.159612 -1.18046e-20)
(0.242348 0.088658 1.38855e-20)
(0.0911946 0.0335007 0)
(0.0069867 0.00262349 -9.81792e-21)
(0.23803 0.108233 -1.24019e-20)
(1.12054 0.492042 6.49108e-21)
(1.31798 0.58412 -3.18678e-23)
(1.34653 0.609972 3.3786e-21)
(1.30232 0.605378 -4.46775e-21)
(1.23518 0.5892 -8.21249e-22)
(1.16558 0.569793 -1.70791e-20)
(1.09393 0.546891 -8.78885e-21)
(1.02058 0.518722 -2.41196e-20)
(0.946927 0.483205 5.54426e-23)
(0.884693 0.444109 -4.83531e-20)
(0.842708 0.410475 4.10838e-20)
(0.817547 0.384745 -2.50126e-20)
(0.793982 0.360163 3.01781e-20)
(0.734032 0.320789 0)
(0.605813 0.257491 -2.15565e-20)
(0.426151 0.178998 -5.05802e-23)
(0.243497 0.10201 -6.05784e-20)
(0.0957754 0.0401777 -8.93564e-21)
(0.00897135 0.00383301 0)
(0.236017 0.11772 0)
(1.11194 0.538543 7.7112e-21)
(1.30977 0.639934 2.28516e-21)
(1.33612 0.666649 -2.6387e-21)
(1.29052 0.65983 -6.08975e-21)
(1.22248 0.640765 0)
(1.15155 0.618363 -7.54575e-21)
(1.07811 0.592412 -2.27757e-22)
(1.00247 0.561066 5.16815e-20)
(0.925934 0.521929 -7.76489e-21)
(0.860949 0.479633 -3.49438e-20)
(0.817134 0.444204 2.13267e-20)
(0.790575 0.416996 -4.34145e-22)
(0.764758 0.389399 3.20537e-20)
(0.704373 0.345616 1.99025e-20)
(0.583543 0.278739 -4.65573e-20)
(0.414836 0.196291 5.53434e-20)
(0.239974 0.113212 1.64185e-20)
(0.0961853 0.0453149 6.79505e-20)
(0.0098635 0.00468947 -1.83874e-19)
(0.234936 0.127193 -4.52182e-21)
(1.10313 0.582804 5.80637e-21)
(1.30026 0.69299 -3.74133e-21)
(1.32437 0.720454 1.132e-21)
(1.27753 0.711595 0)
(1.20876 0.689941 -5.89469e-21)
(1.1367 0.664904 2.55162e-20)
(1.06169 0.636283 1.91353e-20)
(0.983927 0.602066 0)
(0.90466 0.559649 -1.1208e-19)
(0.837138 0.514614 9.45173e-20)
(0.791564 0.477273 0)
(0.763221 0.447519 2.92306e-20)
(0.734818 0.415778 -4.33646e-22)
(0.67433 0.367628 -6.34762e-20)
(0.55983 0.297448 2.49101e-20)
(0.40037 0.210748 0)
(0.232366 0.121737 8.85641e-20)
(0.0934167 0.048494 0)
(0.00982738 0.0050957 -8.69737e-20)
(0.234606 0.13666 5.54391e-21)
(1.09446 0.624973 7.88202e-21)
(1.28982 0.743297 -3.65166e-21)
(1.31173 0.771385 0)
(1.26379 0.760655 -4.40202e-21)
(1.19442 0.736701 0)
(1.12142 0.709377 -2.47716e-20)
(1.04501 0.678447 -8.71101e-21)
(0.965234 0.64167 9.0272e-21)
(0.883377 0.59635 -5.54377e-20)
(0.813428 0.548806 9.73234e-21)
(0.765965 0.508962 0)
(0.735442 0.475591 -6.2374e-20)
(0.704448 0.439286 4.30837e-22)
(0.644238 0.387345 0)
(0.534855 0.313903 3.54731e-22)
(0.382669 0.222296 8.06169e-20)
(0.220903 0.127279 -7.64923e-20)
(0.0877488 0.0496964 2.2641e-20)
(0.00899168 0.00506395 0)
(0.234675 0.146007 0)
(1.08612 0.665066 9.74823e-21)
(1.27884 0.790939 5.84274e-21)
(1.29854 0.8195 -4.94063e-22)
(1.24964 0.807046 -8.99185e-22)
(1.17977 0.781066 -1.30353e-20)
(1.10598 0.751788 9.35513e-21)
(1.0283 0.71887 -1.04095e-20)
(0.946629 0.679832 4.04469e-20)
(0.862287 0.631989 -8.84545e-20)
(0.789887 0.581927 -7.29261e-22)
(0.740274 0.538843 -2.72086e-20)
(0.707336 0.501148 1.01227e-19)
(0.674071 0.460412 -5.02137e-22)
(0.614347 0.405061 -4.91947e-20)
(0.508756 0.327745 -8.80723e-20)
(0.362162 0.230558 0)
(0.206047 0.129669 0)
(0.079707 0.0490777 2.44271e-20)
(0.00770387 0.0046719 -1.44999e-20)
(0.235299 0.155342 8.08954e-21)
(1.07825 0.703108 -2.24723e-20)
(1.26758 0.836 -6.33014e-21)
(1.28509 0.864863 0)
(1.23532 0.850832 -3.2366e-22)
(1.16508 0.823086 -1.11362e-20)
(1.09062 0.792158 2.20677e-20)
(1.01178 0.757529 4.04584e-20)
(0.928309 0.716526 5.234e-20)
(0.841561 0.666506 -7.20725e-20)
(0.766554 0.6138 -8.10804e-20)
(0.714469 0.566877 7.27512e-20)
(0.679037 0.524527 0)
(0.643901 0.479578 -2.22939e-20)
(0.584597 0.420697 -5.32341e-20)
(0.48154 0.338642 -6.32335e-20)
(0.339271 0.235264 -7.51436e-20)
(0.188517 0.128889 2.22703e-20)
(0.0698003 0.0464911 -1.3146e-20)
(0.00601482 0.00392549 5.23581e-23)
(0.236159 0.164484 0)
(1.07091 0.739496 0)
(1.2562 0.878559 5.40529e-22)
(1.27157 0.90757 0)
(1.22106 0.892109 -2.77268e-23)
(1.15053 0.862836 6.85064e-21)
(1.07553 0.830513 0)
(0.995612 0.794413 4.69821e-21)
(0.910446 0.751735 8.69476e-20)
(0.821329 0.69985 -1.65664e-19)
(0.743485 0.644398 0)
(0.688584 0.593299 -4.67828e-20)
(0.650618 0.546178 -6.03891e-22)
(0.613915 0.497042 -4.79463e-22)
(0.554837 0.434097 5.68366e-20)
(0.453396 0.346463 -6.17532e-23)
(0.314113 0.23635 -1.61717e-19)
(0.168917 0.124908 4.78919e-20)
(0.0590658 0.0423434 1.42042e-20)
(0.0041997 0.00295209 0)
(0.237034 0.17349 -3.33044e-20)
(1.06386 0.774214 -1.56201e-20)
(1.2448 0.918673 -1.97874e-20)
(1.25816 0.947718 1.79033e-20)
(1.20701 0.930957 -3.41676e-21)
(1.13629 0.900383 0)
(1.06083 0.86689 1.28187e-20)
(0.979936 0.829528 -1.05207e-20)
(0.893176 0.78546 7.84142e-22)
(0.801706 0.731998 1.22295e-20)
(0.720767 0.673801 1.04782e-19)
(0.662699 0.618472 -1.63919e-20)
(0.622081 0.566559 -6.23462e-20)
(0.583905 0.512927 -2.59588e-20)
(0.524848 0.44504 3.09227e-20)
(0.424488 0.350931 -2.40148e-23)
(0.287765 0.23369 4.35672e-20)
(0.148534 0.11816 -1.03005e-19)
(0.0482231 0.03709 1.22199e-19)
(0.00240908 0.00185546 1.80451e-20)
(0.237674 0.182251 1.27887e-20)
(1.05714 0.807347 -8.9129e-21)
(1.23353 0.956455 1.29668e-21)
(1.24499 0.985433 1.21206e-20)
(1.19329 0.967489 2.14126e-21)
(1.12246 0.935798 -1.10689e-20)
(1.04663 0.901321 3.46401e-21)
(0.964856 0.86288 -4.35974e-20)
(0.876615 0.817692 -9.51446e-20)
(0.782796 0.762932 -9.84005e-20)
(0.698524 0.702148 0)
(0.636915 0.642771 -7.20283e-20)
(0.593382 0.586088 8.98466e-20)
(0.553536 0.527292 0)
(0.494323 0.453165 -6.61879e-20)
(0.39501 0.351452 3.95986e-20)
(0.261141 0.227026 -4.6808e-20)
(0.1287 0.109076 -5.54193e-20)
(0.0381298 0.0312534 -9.84133e-20)
(0.000794837 0.000751381 -7.76973e-20)
(0.238642 0.190853 -1.46303e-20)
(1.0506 0.83887 9.55018e-21)
(1.22247 0.991969 2.16529e-20)
(1.23214 1.0208 1.8093e-20)
(1.18 1.0018 -3.82809e-21)
(1.10913 0.969163 -4.9185e-21)
(1.03301 0.933843 1.17024e-20)
(0.950452 0.894502 -4.43605e-20)
(0.860838 0.848447 -5.61402e-20)
(0.764699 0.792663 1.02615e-19)
(0.676886 0.729589 2.29807e-19)
(0.611358 0.666521 0)
(0.564483 0.605143 0)
(0.522383 0.540296 -2.9909e-20)
(0.462678 0.458062 0)
(0.364894 0.347031 8.52042e-20)
(0.235459 0.215654 1.00705e-19)
(0.111397 0.0978356 0)
(0.0300307 0.0253737 0)
(-0.000510866 -0.000245136 8.34885e-20)
(0.239231 0.198963 1.68068e-20)
(1.04427 0.868767 1.32999e-20)
(1.21167 1.02532 1.58505e-20)
(1.21967 1.05395 -1.79777e-20)
(1.16719 1.03399 -5.66968e-21)
(1.09634 1.00054 3.59612e-21)
(1.02002 0.964502 -1.57407e-20)
(0.936782 0.924417 9.0498e-24)
(0.845914 0.877729 -1.02187e-21)
(0.747497 0.8212 -1.07706e-21)
(0.656008 0.756259 1.18307e-19)
(0.586179 0.689969 0)
(0.535406 0.624064 9.08953e-20)
(0.49004 0.552285 6.37614e-20)
(0.42897 0.459634 1.54569e-19)
(0.333379 0.336385 4.58757e-20)
(0.211887 0.197352 -5.42583e-20)
(0.100594 0.0822331 -3.19386e-20)
(0.0287562 0.018442 0)
(-0.00038757 -0.000906661 8.97005e-20)
(0.240141 0.207073 -3.83861e-20)
(1.03812 0.897182 0)
(1.20116 1.05657 1.89996e-20)
(1.20763 1.08497 -1.55122e-20)
(1.15492 1.06415 8.50837e-21)
(1.08413 1.03002 -1.24706e-21)
(1.00769 0.993345 2.90414e-20)
(0.92388 0.952661 -3.78783e-21)
(0.831877 0.905552 0)
(0.731264 0.848531 -1.12667e-19)
(0.636046 0.782249 -2.56637e-19)
(0.561563 0.713301 1.05867e-20)
(0.506274 0.643127 1.25188e-19)
(0.456259 0.563798 0)
(0.392028 0.458536 1.0433e-19)
(0.298125 0.31874 0)
(0.188643 0.167238 0)
(0.101086 0.0488405 -3.4587e-20)
(0.0580776 -0.00354494 0)
(0.0268416 0.00692571 2.40416e-20)
(0.240585 0.214579 -4.32068e-20)
(1.03213 0.924324 0)
(1.19092 1.08592 3.19417e-20)
(1.19597 1.11409 0)
(1.14314 1.09255 -5.44368e-21)
(1.07245 1.05786 0)
(0.995974 1.02068 1.20199e-21)
(0.911657 0.97958 5.99542e-21)
(0.81861 0.93229 7.00728e-21)
(0.715842 0.875068 -1.23331e-19)
(0.616858 0.808065 7.66471e-21)
(0.537291 0.737158 8.5398e-20)
(0.476695 0.66298 1.22174e-19)
(0.420219 0.575622 1.65244e-20)
(0.350108 0.456548 8.18009e-20)
(0.254521 0.295486 0)
(0.155055 0.122602 1.14625e-19)
(0.0841948 -0.000668266 -6.7441e-20)
(0.0327922 0.0583865 7.8656e-20)
(-0.0382338 0.453269 -9.34311e-20)
(0.240951 0.221898 3.59914e-20)
(1.02608 0.950079 5.41427e-20)
(1.18089 1.11369 0)
(1.18457 1.14176 1.09753e-21)
(1.13169 1.11976 1.65296e-20)
(1.06103 1.08477 -6.29513e-21)
(0.984551 1.04731 9.15069e-21)
(0.899715 1.00613 0)
(0.805594 0.959057 4.57543e-20)
(0.700569 0.902134 -6.35849e-21)
(0.597541 0.835195 0)
(0.512147 0.763249 0)
(0.444927 0.6852 1.09128e-19)
(0.379793 0.588704 -5.10524e-20)
(0.300307 0.455972 -8.26969e-20)
(0.198521 0.270771 0)
(0.0872942 0.124139 5.82934e-20)
(0.00800876 0.466127 -6.79199e-20)
(0.0324703 1.92051 -3.81507e-20)
(0.0592243 2.82152 -4.67009e-20)
(0.240921 0.228618 -2.73304e-20)
(1.02003 0.974624 -7.00397e-20)
(1.17108 1.13987 1.92905e-20)
(1.17342 1.16783 1.57471e-20)
(1.12062 1.14558 0)
(1.04995 1.11046 -6.85722e-21)
(0.97363 1.07292 1.10985e-20)
(0.88824 1.03188 -2.81036e-21)
(0.793096 0.985334 6.83011e-21)
(0.685823 0.929132 1.16736e-19)
(0.578715 0.863002 1.28908e-19)
(0.487122 0.791343 9.50012e-20)
(0.411914 0.709668 1.09506e-19)
(0.336649 0.601942 -1.19469e-19)
(0.249324 0.459878 -1.24605e-19)
(0.128355 0.311044 0)
(0.0435975 0.870336 0)
(0.0911521 2.57599 3.22906e-20)
(0.0933704 3.20841 0)
(0.0941981 3.38829 8.43069e-20)
(0.243672 0.234836 0)
(1.01423 0.998307 0)
(1.16121 1.16434 0)
(1.16231 1.19212 4.81747e-21)
(1.10964 1.16979 1.55587e-20)
(1.03902 1.13478 -7.98667e-21)
(0.96314 1.09741 6.54899e-21)
(0.877164 1.0567 -2.68846e-21)
(0.781049 1.01095 5.6038e-20)
(0.671595 0.955912 -1.96515e-21)
(0.560469 0.891293 2.53532e-19)
(0.462644 0.821519 -1.09582e-20)
(0.377746 0.736964 1.3224e-20)
(0.293095 0.613169 1.72716e-20)
(0.18797 0.478282 -3.15908e-22)
(0.0987526 1.01151 3.40708e-22)
(0.130068 2.75502 -1.68677e-19)
(0.13486 3.30063 -6.40894e-20)
(0.12421 3.42476 3.40643e-20)
(0.112639 3.4447 -3.83945e-20)
(0.165473 0.179347 1.68732e-20)
(1.00439 1.02383 0)
(1.15118 1.18736 -4.01904e-20)
(1.15159 1.21491 -4.34838e-20)
(1.09924 1.19289 3.73407e-20)
(1.0289 1.15819 9.47454e-21)
(0.952952 1.12072 -5.94529e-21)
(0.866569 1.08059 2.7799e-20)
(0.76956 1.03594 -4.54779e-20)
(0.658092 0.982589 0)
(0.543085 0.920141 1.24229e-19)
(0.439296 0.853563 -7.71206e-20)
(0.3429 0.770085 0)
(0.24306 0.627073 1.65283e-20)
(0.140947 0.812985 3.98942e-20)
(0.144289 2.5546 -4.58104e-20)
(0.193611 3.33145 5.23479e-20)
(0.174866 3.4378 2.82871e-20)
(0.144555 3.45611 3.25273e-20)
(0.124627 3.46443 5.17475e-20)
(0.279395 0.274265 -3.25306e-20)
(0.988203 1.03522 0)
(1.13353 1.21376 4.37022e-20)
(1.13706 1.24853 4.86642e-20)
(1.08258 1.22702 -4.24526e-20)
(1.01183 1.1928 -1.47891e-20)
(0.934762 1.15671 1.6863e-21)
(0.847871 1.1178 2.189e-21)
(0.749574 1.07532 4.20315e-20)
(0.635093 1.02537 9.86293e-20)
(0.514387 0.968075 6.90423e-21)
(0.40049 0.907831 6.78526e-20)
(0.281023 0.823175 1.22989e-20)
(0.2077 0.987673 -1.57608e-20)
(0.214134 2.42663 -3.61145e-20)
(0.264486 3.33875 3.58327e-20)
(0.24755 3.46649 -3.94391e-20)
(0.212954 3.48402 -2.29385e-20)
(0.178788 3.50763 -2.0611e-20)
(0.133818 3.5014 -3.04348e-21)
(0.269883 0.273376 0)
(0.985916 1.05872 1.27426e-20)
(1.12543 1.23777 -9.02215e-21)
(1.12677 1.27235 -5.80818e-21)
(1.07204 1.25066 -2.95391e-20)
(1.00145 1.21667 1.54209e-20)
(0.924077 1.18074 7.02447e-22)
(0.837009 1.14265 1.88152e-21)
(0.738189 1.1016 -4.30218e-20)
(0.622288 1.05414 -2.9206e-21)
(0.49867 1.00105 -2.2121e-19)
(0.37986 0.945044 9.66154e-21)
(0.271712 0.89926 -1.15833e-20)
(0.24231 1.5723 -1.44249e-20)
(0.302902 3.14684 3.62457e-21)
(0.317232 3.47056 3.79247e-22)
(0.275393 3.51665 5.73768e-20)
(0.241217 3.53806 2.89441e-20)
(0.195464 3.55695 -8.94037e-21)
(0.145729 3.55248 -1.47373e-20)
(0.255746 0.271465 3.2749e-20)
(0.982745 1.08487 8.66551e-20)
(1.11698 1.26394 -2.58811e-20)
(1.11607 1.29776 -2.19697e-20)
(1.06112 1.2758 0)
(0.990717 1.24183 2.82094e-20)
(0.913294 1.2061 4.24849e-21)
(0.826305 1.16877 1.55172e-21)
(0.72725 1.12922 -4.80934e-21)
(0.610428 1.08447 -8.67736e-20)
(0.484781 1.03611 -1.00905e-19)
(0.361224 0.984653 -7.87404e-20)
(0.273492 1.04393 -8.62904e-20)
(0.305184 2.31349 8.94741e-20)
(0.380954 3.3991 7.60663e-20)
(0.354853 3.52847 0)
(0.306547 3.56286 0)
(0.269755 3.59488 -6.822e-21)
(0.225389 3.63934 0)
(0.156524 3.62271 -1.04991e-20)
(0.245698 0.273465 -4.90874e-20)
(0.977608 1.11195 -7.36544e-20)
(1.1072 1.29144 0)
(1.10419 1.32411 1.33013e-21)
(1.04905 1.30166 -3.21827e-20)
(0.97894 1.26758 4.59871e-20)
(0.901784 1.23205 4.66892e-21)
(0.815096 1.19541 5.32632e-22)
(0.716041 1.15729 -2.84663e-20)
(0.598703 1.11524 4.20389e-21)
(0.471842 1.07176 0)
(0.348299 1.03029 0)
(0.299549 1.33071 -7.75797e-20)
(0.380747 2.97704 3.16674e-20)
(0.444574 3.49997 4.00953e-20)
(0.392605 3.56327 0)
(0.350846 3.61778 -2.0377e-21)