/*--------------------------------*- C++ -*----------------------------------*\
  =========                 |
  \\      /  F ield         | OpenFOAM: The Open Source CFD Toolbox
   \\    /   O peration     | Website:  https://openfoam.org
    \\  /    A nd           | Version:  6
     \\/     M anipulation  |
\*---------------------------------------------------------------------------*/
FoamFile
{
    version     2.0;
    format      ascii;
    class       surfaceScalarField;
    location    "80.3";
    object      phi;
}
// * * * * * * * * * * * * * * * * * * * * * * * * * * * * * * * * * * * * * //

dimensions      [0 3 -1 0 0 0 0];

internalField   nonuniform List<scalar> 
17370
(
-0.0900003
0.0898493
0.289162
-0.0714628
0.0537529
0.364485
-0.0381197
0.0276905
0.426597
-0.0196386
0.0146054
0.504285
-0.0107633
0.00827269
0.601893
-0.00627279
0.00489617
0.720434
-0.00373226
0.00289183
0.863747
-0.00215057
0.00159165
1.03601
-0.00107523
0.000662946
1.24292
-0.000255826
-0.000139042
1.49159
0.000518388
-0.000929111
1.4916
0.00132767
-0.00181717
1.24318
0.00234432
-0.00304915
1.03634
0.00386212
-0.00500558
0.86405
0.00637122
-0.00836381
0.72105
0.0108487
-0.0146843
0.60305
0.0197108
-0.0277548
0.507483
0.0381764
-0.0538007
0.431792
0.071502
-0.0898756
0.365149
0.0900162
0.198995
-0.128136
0.0882269
0.0399096
-0.364599
0.353379
-0.074672
0.085892
-0.446476
0.454321
-0.0843887
0.0765444
-0.521191
0.529902
-0.0684469
0.0597352
-0.612789
0.621569
-0.0515458
0.0427656
-0.726895
0.734165
-0.035304
0.0280337
-0.867475
0.872592
-0.0224319
0.0173155
-1.03847
1.04192
-0.013505
0.0100547
-1.2446
1.24703
-0.00744342
0.00500984
-1.49262
1.4946
-0.00306108
0.00108088
-1.4925
1.49423
0.000594026
-0.00231884
-1.24398
1.24586
0.00422339
-0.0061093
-1.03751
1.04004
0.00846626
-0.0109936
-0.866101
0.869826
0.0143438
-0.0180696
-0.72439
0.729933
0.0231079
-0.0286503
-0.608697
0.616111
0.0358643
-0.0432776
-0.514897
0.52304
0.0520067
-0.0601499
-0.439856
0.447914
0.068812
-0.07687
-0.375295
0.376739
0.0846667
-0.0861103
-0.25733
0.222476
0.0748202
-0.0399668
-0.0685202
0.0586951
0.00982516
-0.0518071
0.0583889
-0.374129
0.367547
-0.0574716
0.0537181
-0.453596
0.457349
-0.0486268
0.044673
-0.527949
0.531902
-0.0408313
0.0371907
-0.621566
0.625206
-0.0330869
0.0290092
-0.735351
0.739429
-0.0244367
0.0202754
-0.874343
0.878504
-0.0159275
0.0122316
-1.04349
1.04719
-0.00849183
0.00531687
-1.24856
1.25174
-0.00198654
-0.00108784
-1.49666
1.49973
0.00413594
-0.00740297
-1.4972
1.50047
0.010484
-0.0140895
-1.25007
1.25367
0.0176437
-0.0218275
-1.04592
1.05011
0.0258485
-0.0302848
-0.877759
0.882195
0.0342535
-0.0382494
-0.739898
0.743894
0.0417983
-0.0455445
-0.626771
0.630518
0.0494164
-0.0544294
-0.534808
0.539821
0.0580973
-0.0589073
-0.457472
0.458282
0.0521995
-0.0319936
-0.335747
0.315541
0.00988907
-0.0683426
0.0584535
-0.0529454
0.0489513
0.00399402
-0.0331519
0.0436924
-0.358117
0.347576
-0.0473867
0.0467563
-0.45929
0.45992
-0.0436975
0.0403418
-0.535806
0.539162
-0.0365659
0.0332588
-0.628533
0.63184
-0.0298175
0.0267826
-0.742654
0.745689
-0.0235206
0.0204111
-0.882025
0.885135
-0.0168777
0.0134954
-1.05078
1.05416
-0.00969862
0.00615679
-1.25517
1.25872
-0.00218427
-0.00161513
-1.50324
1.50704
0.00538163
-0.00925615
-1.50413
1.50801
0.0126647
-0.0162757
-1.25741
1.26102
0.0194615
-0.0227655
-1.05391
1.05722
0.0256755
-0.02874
-0.885683
0.888748
0.0316141
-0.0348956
-0.747151
0.750432
0.0380677
-0.0417058
-0.6343
0.637938
0.0449433
-0.0478676
-0.544129
0.547053
0.0483563
-0.0444629
-0.456565
0.452671
0.033685
-0.0162275
-0.29617
0.278713
0.00407352
-0.0526322
0.0485587
-0.0458754
0.0433821
0.00249327
-0.0227914
0.0331622
-0.336893
0.326522
-0.0389764
0.0399882
-0.459608
0.458596
-0.0387933
0.0365027
-0.541883
0.544174
-0.0338308
0.0312306
-0.634894
0.637494
-0.0281627
0.0252592
-0.748737
0.751641
-0.02199
0.0189922
-0.888092
0.89109
-0.0156827
0.0125793
-1.0573
1.0604
-0.00904887
0.00563627
-1.26218
1.26559
-0.00166965
-0.00221674
-1.51093
1.51481
0.00605921
-0.00989516
-1.5119
1.51573
0.013131
-0.016417
-1.26445
1.26774
0.0192622
-0.0222704
-1.06032
1.06333
0.0250042
-0.0280094
-0.891796
0.894801
0.0306948
-0.0335439
-0.753634
0.756483
0.0359595
-0.0384456
-0.641
0.643486
0.040577
-0.0415625
-0.548853
0.549838
0.0403316
-0.0341975
-0.447383
0.441249
0.023477
-0.0102462
-0.263483
0.250252
0.00259157
-0.045393
0.0428015
-0.0413095
0.0395453
0.00176413
-0.0167255
0.0259648
-0.316679
0.307439
-0.0325587
0.0346902
-0.457002
0.45487
-0.034262
0.0325858
-0.546155
0.547831
-0.030399
0.0282983
-0.639802
0.641903
-0.0258607
0.0234576
-0.754289
0.756692
-0.020593
0.0177981
-0.89399
0.896785
-0.0145555
0.0114804
-1.06345
1.06653
-0.00798378
0.00465281
-1.26891
1.27224
-0.000815624
-0.00291996
-1.51861
1.52234
0.00659959
-0.0102705
-1.51946
1.52313
0.0133767
-0.0165628
-1.27098
1.27416
0.0193089
-0.0221663
-1.06636
1.06921
0.0246221
-0.0271458
-0.897608
0.900132
0.0292666
-0.0314214
-0.758927
0.761082
0.0332859
-0.0352337
-0.645634
0.647582
0.0366791
-0.0368228
-0.550348
0.550492
0.0343551
-0.0272927
-0.43457
0.427507
0.0175819
-0.0074204
-0.238705
0.228544
0.00188422
-0.040619
0.0387348
-0.0380265
0.0367011
0.00132538
-0.0127576
0.0206859
-0.298861
0.290932
-0.027418
0.0303269
-0.45232
0.449411
-0.03052
0.029391
-0.549267
0.550396
-0.0273894
0.0254648
-0.643944
0.645868
-0.0232558
0.0211103
-0.758937
0.761083
-0.0185859
0.0160934
-0.899365
0.901858
-0.0131405
0.0102511
-1.06947
1.07236
-0.00687824
0.00362795
-1.27551
1.27876
0.000127015
-0.00376027
-1.526
1.52963
0.00732334
-0.0108686
-1.52673
1.53027
0.013836
-0.0168195
-1.27728
1.28026
0.0192971
-0.0217681
-1.07195
1.07442
0.023836
-0.0259321
-0.90241
0.904506
0.0277212
-0.0295717
-0.763058
0.764908
0.0311977
-0.0329094
-0.649394
0.651106
0.0337025
-0.0331112
-0.550271
0.54968
0.0297211
-0.022347
-0.420231
0.412857
0.0138124
-0.00576001
-0.219537
0.211485
0.00147147
-0.037082
0.0356105
-0.0355443
0.0345249
0.00101942
-0.00995238
0.0166434
-0.283648
0.276957
-0.0231002
0.0264531
-0.44626
0.442908
-0.0272171
0.0265042
-0.55131
0.552023
-0.0247331
0.0229376
-0.64777
0.649566
-0.0208547
0.0188259
-0.763163
0.765192
-0.01644
0.0140989
-0.904205
0.906546
-0.0113443
0.00864427
-1.07509
1.07779
-0.00547022
0.00237144
-1.2819
1.28499
0.0012512
-0.00477134
-1.53319
1.53671
0.00820442
-0.0115664
-1.53371
1.53707
0.0143146
-0.017007
-1.28311
1.28581
0.0191977
-0.0213571
-1.0768
1.07895
0.0231738
-0.0250296
-0.906471
0.908327
0.0266164
-0.0282545
-0.766645
0.768284
0.0296796
-0.0310494
-0.652673
0.654043
0.0313461
-0.0300168
-0.548732
0.547403
0.0260009
-0.0186986
-0.405492
0.39819
0.0112452
-0.00466179
-0.204235
0.197652
0.00119706
-0.0342911
0.033094
-0.0336313
0.0328397
0.000791615
-0.00786895
0.0134801
-0.270836
0.265225
-0.0194419
0.0229828
-0.439451
0.43591
-0.0242161
0.0237463
-0.552648
0.553118
-0.0222375
0.0205481
-0.651358
0.653048
-0.018556
0.0166089
-0.767173
0.76912
-0.0143106
0.012053
-0.908779
0.911036
-0.00939729
0.00680381
-1.08036
1.08295
-0.00376769
0.000809751
-1.28797
1.29093
0.00264353
-0.00599115
-1.54012
1.54347
0.00923213
-0.0123662
-1.5403
1.54343
0.0148962
-0.0173446
-1.28838
1.29083
0.0193147
-0.0212406
-1.08109
1.08301
0.0228548
-0.024502
-0.910074
0.911721
0.0259063
-0.0273516
-0.769817
0.771262
0.0285786
-0.0295643
-0.655213
0.656199
0.0294844
-0.0274807
-0.545735
0.543731
0.0230543
-0.0160077
-0.391008
0.383961
0.0094493
-0.0039046
-0.191636
0.186091
0.00100746
-0.0320027
0.0309952
-0.0321464
0.0315319
0.000614458
-0.00625723
0.0109445
-0.260104
0.255417
-0.0163055
0.0198368
-0.432374
0.428843
-0.0213844
0.0211353
-0.553515
0.553764
-0.0198533
0.0182193
-0.654757
0.656391
-0.0162785
0.0143763
-0.771033
0.772935
-0.0121314
0.00992723
-0.91319
0.915394
-0.00733478
0.00480729
-1.08544
1.08796
-0.00185761
-0.000998422
-1.29378
1.29664
0.00430393
-0.00747708
-1.54669
1.54987
0.0105201
-0.0134364
-1.54642
1.54934
0.0157715
-0.0180067
-1.29318
1.29542
0.0197749
-0.0214781
-1.08494
1.08665
0.0228978
-0.0243469
-0.913258
0.914707
0.0255837
-0.0268516
-0.772609
0.773877
0.0279333
-0.0284945
-0.656978
0.657539
0.0280335
-0.0254574
-0.541447
0.538871
0.0207724
-0.0140426
-0.377079
0.370349
0.00818589
-0.00337915
-0.180951
0.176145
0.000876601
-0.0300618
0.0291852
-0.0309983
0.0305279
0.000470415
-0.00495589
0.00884481
-0.251156
0.247267
-0.0135606
0.0169333
-0.425401
0.422029
-0.0186546
0.0185895
-0.553967
0.554032
-0.0174939
0.0158907
-0.658076
0.659679
-0.0139666
0.0120737
-0.774816
0.776709
-0.00984147
0.00765585
-0.917499
0.919685
-0.00509429
0.00260626
-1.09038
1.09287
0.000284584
-0.00306627
-1.2994
1.30218
0.00625862
-0.00928974
-1.55293
1.55596
0.0121624
-0.0148806
-1.55212
1.55484
0.0170291
-0.0190523
-1.29756
1.29958
0.0206172
-0.0220983
-1.08838
1.08986
0.0233315
-0.0245975
-0.916048
0.917314
0.0256838
-0.0267921
-0.775052
0.776161
0.0276708
-0.0278699
-0.657911
0.65811
0.0269817
-0.0239167
-0.536052
0.532987
0.019066
-0.012639
-0.363785
0.357358
0.00731018
-0.00302162
-0.171627
0.167338
0.000789146
-0.0283603
0.0275712
-0.0301269
0.0297789
0.000348039
-0.00386163
0.00704736
-0.243755
0.240569
-0.0111058
0.0142094
-0.418809
0.415706
-0.0159768
0.0160582
-0.554078
0.553997
-0.015036
0.0134995
-0.661323
0.662859
-0.0115635
0.00964659
-0.77859
0.780507
-0.00738689
0.00518263
-0.921777
0.923981
-0.00261275
0.000131896
-1.09526
1.09774
0.00273114
-0.00546532
-1.30487
1.30761
0.00857476
-0.011492
-1.55889
1.56181
0.0142171
-0.0167522
-1.55742
1.55996
0.0187211
-0.0205367
-1.30151
1.30333
0.0219017
-0.0231659
-1.0914
1.09266
0.0242195
-0.0253098
-0.918469
0.919559
0.0262508
-0.0271949
-0.777166
0.77811
0.0278121
-0.0277127
-0.658164
0.658065
0.0263689
-0.0228491
-0.5297
0.52618
0.0178696
-0.0116857
-0.351075
0.344891
0.006732
-0.00279238
-0.163251
0.159311
0.000735231
-0.0268165
0.0260813
-0.0294934
0.0292551
0.000238305
-0.00289846
0.00544773
-0.237726
0.235177
-0.00884857
0.0115993
-0.412804
0.410053
-0.0132971
0.013449
-0.553943
0.553792
-0.0124613
0.0109583
-0.664462
0.665965
-0.0089854
0.00701372
-0.782419
0.784391
-0.0046897
0.00243157
-0.926095
0.928353
0.000187266
-0.00269935
-1.10013
1.10264
0.00557624
-0.00829722
-1.31026
1.31298
0.0113542
-0.0141786
-1.56464
1.56746
0.0167715
-0.0191358
-1.56236
1.56472
0.0209353
-0.0225506
-1.30505
1.30666
0.0237158
-0.0247573
-1.09402
1.09506
0.0256248
-0.0265324
-0.920534
0.921442
0.0273213
-0.0281027
-0.778914
0.779696
0.0284354
-0.028019
-0.657822
0.657406
0.0262121
-0.0222537
-0.522464
0.518505
0.0171416
-0.0111116
-0.338813
0.332783
0.00639525
-0.00266627
-0.155502
0.151773
0.000708294
-0.025367
0.0246587
-0.0290766
0.028943
0.000133576
-0.00200283
0.0039529
-0.232951
0.231
-0.00669015
0.00901686
-0.407546
0.405219
-0.010536
0.0106794
-0.553721
0.553577
-0.00969175
0.00818322
-0.667571
0.669079
-0.00614527
0.00408813
-0.786361
0.788418
-0.00166271
-0.000685349
-0.930521
0.932869
0.00339459
-0.00597614
-1.10507
1.10765
0.008908
-0.0116518
-1.31563
1.31837
0.0146932
-0.0174535
-1.5702
1.57296
0.0199336
-0.0221374
-1.56695
1.56915
0.0237702
-0.0251837
-1.30818
1.30959
0.0261425
-0.0269544
-1.09623
1.09704
0.0276254
-0.028335
-0.922223
0.922933
0.028967
-0.0296053
-0.780309
0.780948
0.0296003
-0.0287751
-0.6568
0.655975
0.0265
-0.0221039
-0.51437
0.509974
0.0168285
-0.0108529
-0.326816
0.32084
0.00625319
-0.00262237
-0.148118
0.144487
0.000702758
-0.0239608
0.023258
-0.0288697
0.028842
2.7694e-05
-0.00112733
0.002491
-0.229366
0.228002
-0.00454844
0.00638548
-0.40317
0.401333
-0.0076216
0.00767422
-0.553574
0.553522
-0.00663912
0.00508598
-0.670729
0.672282
-0.00294091
0.000761854
-0.790476
0.792655
0.00180865
-0.00428742
-0.935129
0.937607
0.00713118
-0.00982162
-1.11016
1.11285
0.0128503
-0.0156524
-1.32106
1.32386
0.018711
-0.02143
-1.57564
1.57836
0.0238123
-0.0258632
-1.57122
1.57327
0.0273316
-0.0285401
-1.3109
1.31211
0.0292924
-0.029871
-1.09802
1.0986
0.0303394
-0.0308411
-0.923515
0.924017
0.0312959
-0.031688
-0.781333
0.781725
0.0313932
-0.0300879
-0.654956
0.653651
0.0273009
-0.0224256
-0.505396
0.500521
0.0169212
-0.0108837
-0.314874
0.308837
0.00628514
-0.00265151
-0.14088
0.137246
0.000716379
-0.0225564
0.02184
-0.0288754
0.0289567
-8.12369e-05
-0.000225792
0.000993352
-0.226955
0.226187
-0.00234019
0.0036212
-0.399806
0.398525
-0.00447303
0.00435042
-0.553679
0.553802
-0.00320934
0.00155214
-0.674027
0.675684
0.00073777
-0.00308077
-0.794838
0.797181
0.0058432
-0.00849652
-0.939998
0.942651
0.0115249
-0.0143705
-1.11547
1.11832
0.0175442
-0.0204436
-1.32661
1.32951
0.023555
-0.0262585
-1.58101
1.58371
0.0285584
-0.030462
-1.57517
1.57707
0.0317641
-0.032765
-1.3132
1.3142
0.0333066
-0.0336453
-1.09936
1.09969
0.0339004
-0.0341817
-0.924382
0.924663
0.0344343
-0.0345082
-0.781797
0.781871
0.0338857
-0.0320166
-0.65215
0.650281
0.0286584
-0.0232366
-0.49545
0.490029
0.0174139
-0.0111868
-0.302752
0.296525
0.00647653
-0.00274635
-0.133591
0.129861
0.000746859
-0.0211167
0.0203698
-0.0291109
0.0293215
-0.000210624
0.000727765
-0.000604021
-0.225744
0.225621
1.71907e-05
0.000632834
-0.397584
0.396934
-0.000994615
0.000605827
-0.554219
0.554608
0.00071075
-0.00252932
-0.677588
0.679407
0.00501758
-0.00757293
-0.799526
0.802081
0.010584
-0.0134652
-0.945219
0.9481
0.016736
-0.0197872
-1.1211
1.12415
0.023158
-0.0261987
-1.33236
1.3354
0.0294042
-0.0321178
-1.58635
1.58906
0.0343466
-0.036102
-1.57881
1.58057
0.0372333
-0.0380163
-1.31505
1.31583
0.0383366
-0.0384177
-1.10021
1.10029
0.038443
-0.0384917
-0.924786
0.924835
0.0385534
-0.0382121
-0.7816
0.781259
0.0371734
-0.0346516
-0.648227
0.645705
0.030635
-0.0245633
-0.484379
0.478308
0.0183063
-0.0117494
-0.290186
0.283629
0.00681505
-0.00290017
-0.126066
0.122151
0.000792071
-0.0196088
0.0188167
-0.0296083
0.0299649
-0.000356603
0.00178683
-0.00229559
-0.225832
0.22634
0.00256477
-0.00265684
-0.396648
0.39674
0.00293161
-0.00369916
-0.555411
0.556178
0.0052578
-0.00730587
-0.681532
0.68358
0.0100695
-0.0129039
-0.80464
0.807474
0.0162319
-0.0194011
-0.950901
0.95407
0.022978
-0.0262906
-1.12716
1.13047
0.0299136
-0.0331362
-1.33841
1.34163
0.0364662
-0.0392031
-1.59171
1.59445
0.0413591
-0.0429545
-1.58214
1.58373
0.0438993
-0.0444613
-1.31642
1.31698
0.0445539
-0.0443552
-1.10053
1.10033
0.044128
-0.0439269
-0.924677
0.924476
0.0437626
-0.0429193
-0.780557
0.779714
0.0413773
-0.0380882
-0.643009
0.63972
0.0332937
-0.0264309
-0.471961
0.465098
0.0195984
-0.0125597
-0.27689
0.269851
0.00728851
-0.00310575
-0.11813
0.113947
0.000849488
-0.0180045
0.017155
-0.0303947
0.0309298
-0.000535157
0.00307862
-0.00436912
-0.227269
0.22856
0.00552884
-0.00642281
-0.3972
0.398094
0.00743606
-0.00869082
-0.557497
0.558751
0.0106078
-0.0129626
-0.686003
0.688358
0.0160841
-0.0192695
-0.810307
0.813493
0.0229921
-0.0265203
-0.957166
0.960694
0.0304797
-0.0341175
-1.13375
1.13739
0.0380531
-0.0415018
-1.34482
1.34827
0.0449913
-0.0477678
-1.59712
1.59989
0.049848
-0.0512647
-1.58512
1.58654
0.0519984
-0.0523235
-1.31728
1.3176
0.0521665
-0.0516647
-1.10027
1.09977
0.0511697
-0.0507024
-0.924009
0.923542
0.0501818
-0.0488713
-0.778592
0.777281
0.0466504
-0.0424324
-0.636245
0.632027
0.0366983
-0.0288606
-0.457893
0.450056
0.0212847
-0.0135999
-0.262555
0.25487
0.00788
-0.00335315
-0.109621
0.105094
0.00091564
-0.0162808
0.0153652
-0.031544
0.032306
-0.000761989
0.00461124
-0.00679425
-0.230285
0.232468
0.00904291
-0.0108595
-0.399458
0.401274
0.0127212
-0.0145813
-0.56072
0.56258
0.0169933
-0.0197505
-0.69116
0.693917
0.0233407
-0.0269652
-0.816678
0.820303
0.0311779
-0.0351483
-0.964163
0.968134
0.0395726
-0.0436007
-1.141
1.14503
0.0479063
-0.0516169
-1.35169
1.35541
0.0552826
-0.0580917
-1.60259
1.6054
0.060072
-0.0612745
-1.58772
1.58892
0.0617611
-0.0618227
-1.31755
1.31761
0.0613936
-0.0605568
-1.09939
1.09855
0.0597681
-0.059019
-0.922727
0.921978
0.0580462
-0.0561694
-0.775727
0.77385
0.0531337
-0.0477745
-0.627605
0.622246
0.0408877
-0.0318449
-0.441791
0.432748
0.0233335
-0.0148318
-0.246849
0.238347
0.00855858
-0.00362549
-0.100392
0.0954591
0.000984911
-0.0144229
0.0134379
-0.0331437
0.0342017
-0.00105803
0.00653641
-0.0098065
-0.235111
0.238381
0.0133149
-0.0162041
-0.403692
0.406581
0.0190546
-0.0216515
-0.565365
0.567962
0.0247098
-0.0280102
-0.697212
0.700512
0.0322089
-0.0363871
-0.823936
0.828114
0.0412028
-0.0457071
-0.972059
0.976564
0.0506836
-0.055164
-1.14904
1.15352
0.0598817
-0.0638649
-1.35908
1.36306
0.0676868
-0.0704852
-1.6081
1.6109
0.0723125
-0.0732455
-1.58986
1.59079
0.0734258
-0.073175
-1.31712
1.31687
0.0724591
-0.0712521
-1.0978
1.0966
0.0701498
-0.0691071
-0.920819
0.919777
0.067572
-0.0650136
-0.77177
0.769212
0.0609617
-0.0541777
-0.616642
0.609858
0.0458626
-0.0353329
-0.423178
0.412648
0.0256726
-0.016187
-0.229432
0.219946
0.00927409
-0.0038974
-0.0903304
0.0849537
0.00104935
-0.012428
0.0113786
-0.035323
0.0367922
-0.00146916
0.00905572
-0.0136916
-0.242093
0.246729
0.0186992
-0.0228286
-0.410271
0.4144
0.0268253
-0.0303101
-0.571763
0.575248
0.0341956
-0.0381986
-0.704455
0.708458
0.0431763
-0.0480475
-0.832303
0.837174
0.0535965
-0.0587331
-0.981042
0.986179
0.0643422
-0.069317
-1.15799
1.16296
0.0744557
-0.0786867
-1.36698
1.37121
0.0826046
-0.0853093
-1.61353
1.61624
0.086889
-0.0874552
-1.5914
1.59197
0.0872687
-0.0866357
-1.31591
1.31527
0.0855798
-0.0839916
-1.09544
1.09386
0.0825688
-0.0810672
-0.918215
0.916713
0.0790308
-0.075525
-0.766415
0.762909
0.0701865
-0.0616068
-0.602766
0.594186
0.0515181
-0.0391774
-0.401481
0.38914
0.0281527
-0.0175444
-0.209984
0.199376
0.00994549
-0.00413076
-0.0793803
0.0735656
0.0010977
-0.0103107
0.00921302
-0.0382846
0.0403373
-0.00205268
0.0125671
-0.0189283
-0.251745
0.258106
0.025733
-0.0313055
-0.419687
0.425259
0.0366535
-0.0412249
-0.580301
0.584873
0.0461476
-0.0510635
-0.71323
0.718146
0.0570456
-0.0627715
-0.842053
0.847779
0.0691846
-0.0750298
-0.991303
0.997148
0.0813051
-0.0867565
-1.1679
1.17335
0.0922439
-0.0966123
-1.37531
1.37968
0.100465
-0.102908
-1.61869
1.62114
0.104082
-0.104143
-1.59212
1.59218
0.10351
-0.102378
-1.31381
1.31268
0.100948
-0.098979
-1.09227
1.0903
0.0972114
-0.0951373
-0.914553
0.912479
0.092528
-0.087795
-0.759102
0.754369
0.0807864
-0.0699184
-0.585199
0.574331
0.0576306
-0.0431201
-0.376057
0.361546
0.030536
-0.0187279
-0.188261
0.176453
0.0104628
-0.00427737
-0.0675825
0.061397
0.00111667
-0.00810938
0.00699271
-0.0423554
0.0453165
-0.00296109
0.0176478
-0.026282
-0.264795
0.273429
0.0353058
-0.0426138
-0.432614
0.439922
0.0495778
-0.0554613
-0.59148
0.597364
0.0617509
-0.0678964
-0.723981
0.730126
0.0751011
-0.0818001
-0.853482
0.860181
0.089135
-0.0956728
-1.00296
1.0095
0.102523
-0.108306
-1.17868
1.18446
0.113926
-0.118202
-1.38379
1.38806
0.121718
-0.123648
-1.62319
1.62512
0.124193
-0.123554
-1.59171
1.59107
0.122324
-0.120595
-1.31063
1.3089
0.118763
-0.11638
-1.0882
1.08582
0.114195
-0.111537
-0.909604
0.906946
0.108102
-0.101702
-0.749197
0.742796
0.0924942
-0.0787248
-0.562919
0.54915
0.0637504
-0.046724
-0.346228
0.329202
0.032462
-0.0194965
-0.164173
0.151208
0.0106872
-0.0042811
-0.0551126
0.0487064
0.00109183
-0.00588831
0.00479647
-0.0481192
0.0526082
-0.00448902
0.0255079
-0.0372177
-0.282421
0.294131
0.0491146
-0.0587503
-0.450106
0.459742
0.0677616
-0.0752302
-0.605889
0.613357
0.0831539
-0.0908134
-0.737139
0.744798
0.0992931
-0.106903
-0.866797
0.874406
0.114995
-0.121996
-1.01591
1.02291
0.129089
-0.134853
-1.18995
1.19571
0.140193
-0.143993
-1.39187
1.39567
0.146759
-0.147822
-1.62647
1.62753
0.147437
-0.145851
-1.58978
1.58819
0.14385
-0.141424
-1.30614
1.30372
0.139106
-0.136275
-1.0831
1.08027
0.133582
-0.130289
-0.903284
0.899991
0.125602
-0.116868
-0.735719
0.726985
0.104738
-0.0873308
-0.534639
0.517231
0.0691707
-0.0493852
-0.311408
0.291623
0.0334814
-0.0195831
-0.137925
0.124027
0.0104786
-0.00408996
-0.042321
0.0359324
0.00100969
-0.00373741
0.00272771
-0.0566705
0.0643161
-0.00764561
0.0392192
-0.0554526
-0.306794
0.323027
0.0714068
-0.0842455
-0.473801
0.48664
0.0954235
-0.10435
-0.624008
0.632934
0.113868
-0.12288
-0.753009
0.762021
0.132383
-0.14046
-0.881712
0.88979
0.148687
-0.15552
-1.02949
1.03632
0.162174
-0.167292
-1.20086
1.20598
0.17171
-0.174444
-1.3987
1.40143
0.175891
-0.175606
-1.62775
1.62747
0.173904
-0.171089
-1.58581
1.58299
0.168119
-0.164848
-1.30013
1.29686
0.161946
-0.158619
-1.07684
1.07351
0.155365
-0.151058
-0.8952
0.890892
0.14453
-0.13248
-0.717182
0.705131
0.11641
-0.0945413
-0.498751
0.476882
0.0729281
-0.0504588
-0.271328
0.248859
0.0332181
-0.0188313
-0.110168
0.0957816
0.00977414
-0.00368296
-0.029741
0.0236498
0.000858179
-0.00176313
0.000904948
-0.0714158
0.0756909
-0.0042751
0.0299272
-0.0441329
-0.341904
0.35611
0.0584158
-0.0702609
-0.505108
0.516953
0.0809402
-0.0909959
-0.645573
0.655629
0.10235
-0.112908
-0.770421
0.780979
0.124701
-0.135196
-0.896829
0.907323
0.146429
-0.156492
-1.04225
1.05231
0.167146
-0.176416
-1.21005
1.21932
0.185849
-0.193608
-1.40305
1.4108
0.200889
-0.206104
-1.62607
1.63128
0.209255
-0.210978
-1.57916
1.58088
0.211472
-0.211483
-1.29226
1.29227
0.211533
-0.210823
-1.06904
1.06833
0.209291
-0.204674
-0.884205
0.879588
0.194916
-0.175851
-0.691397
0.672333
0.150468
-0.117669
-0.453821
0.421021
0.0873283
-0.0577009
-0.226417
0.196789
0.03647
-0.0198238
-0.0821402
0.0654941
0.00983687
-0.0034862
-0.0180292
0.0116785
0.000731407
-3.33365e-05
-0.00069807
-0.0832584
0.0813168
0.00194163
0.00804566
-0.0172786
-0.373085
0.382318
0.0281603
-0.0367702
-0.533503
0.542113
0.0454978
-0.0538765
-0.668466
0.676844
0.0642227
-0.0740081
-0.790981
0.800766
0.0845547
-0.0941997
-0.917183
0.926828
0.104509
-0.1134
-1.06209
1.07098
0.123005
-0.130999
-1.22839
1.23638
0.139116
-0.145553
-1.41827
1.42471
0.151185
-0.155027
-1.63583
1.63968
0.156973
-0.157586
-1.58216
1.58277
0.156932
-0.155769
-1.29131
1.29014
0.154741
-0.153396
-1.06517
1.06382
0.151006
-0.144862
-0.870217
0.864073
0.134025
-0.115899
-0.649237
0.63111
0.0946555
-0.069922
-0.386294
0.36156
0.0493363
-0.0312629
-0.167948
0.149875
0.0191611
-0.0101721
-0.0499832
0.0409942
0.00492878
-0.00170461
-0.00554655
0.00232238
0.000330366
0.00164634
-0.0019767
-0.0847672
0.0818139
0.00295326
-0.00107972
-0.0042292
-0.394314
0.399623
0.0114758
-0.0178228
-0.55467
0.561017
0.024299
-0.0315193
-0.687861
0.695082
0.0405115
-0.0489992
-0.809544
0.818032
0.0583592
-0.0667594
-0.935623
0.944024
0.0754954
-0.0834167
-1.0797
1.08762
0.0917689
-0.0988181
-1.24394
1.25099
0.105532
-0.110694
-1.43051
1.43567
0.115247
-0.117928
-1.64293
1.64561
0.118772
-0.118363
-1.5829
1.58249
0.116939
-0.115129
-1.28839
1.28657
0.113097
-0.110899
-1.05956
1.05736
0.107796
-0.101274
-0.854016
0.847493
0.0910743
-0.0754974
-0.610101
0.594525
0.0591208
-0.0418195
-0.335315
0.318013
0.0289369
-0.018413
-0.131743
0.121219
0.011528
-0.00638505
-0.0320784
0.0269355
0.00324652
-0.00119796
0.00113669
-0.00318525
0.000258721
0.00252361
-0.00278233
-0.0834912
0.0806124
0.00287881
-0.00507473
0.00242571
-0.408465
0.411114
0.00228297
-0.00708405
-0.570466
0.575267
0.0125183
-0.018557
-0.703795
0.709834
0.0262648
-0.0335328
-0.825779
0.833047
0.0415059
-0.0486871
-0.95182
0.959001
0.0565434
-0.0632449
-1.09507
1.10177
0.0704868
-0.0761292
-1.25759
1.26324
0.0818054
-0.0860444
-1.44057
1.44481
0.0894182
-0.0908581
-1.64787
1.64931
0.0909309
-0.0898329
-1.58155
1.58046
0.0878396
-0.0850239
-1.28421
1.2814
0.0823195
-0.079239
-1.05259
1.04951
0.075416
-0.0693759
-0.836922
0.830882
0.0604101
-0.0483367
-0.576541
0.564467
0.0368188
-0.0259375
-0.299827
0.288945
0.0183891
-0.0123925
-0.110065
0.104069
0.0083279
-0.00506556
-0.0212049
0.0179425
0.00282224
-0.00116354
0.00570591
-0.00736462
0.000294101
0.00323557
-0.00352967
-0.0818871
0.0793062
0.00258084
-0.00650216
0.00553068
-0.417923
0.418894
-0.00201198
-0.00155601
-0.58309
0.586658
0.00586636
-0.0112984
-0.717147
0.722579
0.0177538
-0.0241037
-0.839522
0.845872
0.0309681
-0.0371663
-0.96567
0.971869
0.0438587
-0.0497426
-1.10829
1.11417
0.0558013
-0.0608198
-1.26868
1.27369
0.0655268
-0.068896
-1.44859
1.45196
0.0713168
-0.071896
-1.65051
1.65109
0.0711689
-0.0690927
-1.57857
1.5765
0.0664487
-0.0630856
-1.27821
1.27484
0.059727
-0.05571
-1.04439
1.04038
0.0515266
-0.0458553
-0.820692
0.81502
0.0387089
-0.0298263
-0.55029
0.541407
0.0222797
-0.0158825
-0.276813
0.270416
0.011731
-0.00857863
-0.0972195
0.0940672
0.006291
-0.00420176
-0.0140233
0.011934
0.00256218
-0.00115508
0.00942791
-0.010835
0.000329197
0.0039668
-0.004296
-0.0803277
0.0780864
0.00224131
-0.00663243
0.00624452
-0.424336
0.424723
-0.00416939
0.00129709
-0.592787
0.595659
0.00285328
-0.00747493
-0.728393
0.733015
0.0129736
-0.018431
-0.851345
0.856802
0.0244609
-0.0299319
-0.977657
0.983128
0.0359559
-0.0410205
-1.11972
1.12478
0.0463225
-0.0506644
-1.27834
1.28268
0.05458
-0.0572264
-1.45495
1.4576
0.0588215
-0.0590161
-1.65144
1.65163
0.0575264
-0.054887
-1.57381
1.57117
0.0516124
-0.0475634
-1.27097
1.26692
0.0438094
-0.0389921
-1.03496
1.03014
0.0343193
-0.0290895
-0.805601
0.800371
0.0232096
-0.0167367
-0.530539
0.524066
0.0120015
-0.00860262
-0.262683
0.259284
0.0068412
-0.00555458
-0.0898977
0.0886111
0.00447897
-0.00333094
-0.00922456
0.00807653
0.00222127
-0.00110373
0.0125438
-0.0136613
0.00034809
0.00471473
-0.00506282
-0.0790515
0.0772656
0.00178594
-0.00593604
0.00596677
-0.428968
0.428937
-0.00430768
0.00218757
-0.601158
0.603278
0.00163965
-0.00578777
-0.738049
0.742197
0.0109205
-0.0155589
-0.861809
0.866447
0.0207786
-0.0255488
-0.988509
0.993279
0.0311376
-0.0356113
-1.12981
1.13429
0.0401686
-0.044065
-1.28676
1.29065
0.0477985
-0.0499125
-1.46013
1.46225
0.0510596
-0.0506022
-1.65127
1.65081
0.0488554
-0.0453803
-1.5681
1.56463
0.0417601
-0.0373045
-1.26237
1.25791
0.0328781
-0.0277047
-1.02437
1.01919
0.0226117
-0.0172665
-0.791555
0.78621
0.0124727
-0.00753199
-0.515582
0.510641
0.0045764
-0.00321477
-0.254231
0.252869
0.00280774
-0.00268726
-0.0862202
0.0860998
0.00251217
-0.00214692
-0.00645459
0.00608934
0.00159087
-0.000882318
0.0148985
-0.015607
0.00031624
0.00541052
-0.00572676
-0.0782419
0.0768162
0.00142567
-0.00497484
0.00521919
-0.432475
0.43223
-0.00376787
0.00180713
-0.608317
0.610278
0.00175889
-0.00544447
-0.746601
0.750286
0.0097712
-0.0141569
-0.871006
0.875391
0.0188879
-0.0236945
-0.997791
1.0026
0.0283937
-0.0325221
-1.1388
1.14293
0.0370068
-0.0404377
-1.29433
1.29776
0.0433785
-0.0455642
-1.46414
1.46633
0.046418
-0.0457214
-1.65025
1.64955
0.0435205
-0.0399171
-1.56113
1.55752
0.0359403
-0.0310303
-1.2528
1.24789
0.026259
-0.0206197
-1.01308
1.00744
0.0152386
-0.00996889
-0.777922
0.772652
0.00542016
-0.00154694
-0.503671
0.499798
-0.000374381
0.000877784
-0.249407
0.248903
-0.00059486
-8.58274e-07
-0.085034
0.0856297
0.000447005
-0.000770055
-0.00538683
0.00570988
0.000772423
-0.000527312
0.0162838
-0.0165289
0.00022658
0.0059634
-0.00618998
-0.0779544
0.0767423
0.00121219
-0.0037495
0.00380368
-0.435461
0.435407
-0.00261627
0.000731529
-0.614754
0.616639
0.00253438
-0.00604563
-0.754435
0.757946
0.0101172
-0.0140178
-0.879552
0.883452
0.0187781
-0.0226743
-1.00675
1.01065
0.0272169
-0.0310338
-1.14716
1.15098
0.0352202
-0.0386441
-1.30108
1.30451
0.0416183
-0.0432831
-1.46815
1.46981
0.0440715
-0.0433023
-1.64861
1.64784
0.0412193
-0.0373097
-1.55358
1.54967
0.0331857
-0.028025
-1.24279
1.23763
0.0230509
-0.0171025
-1.00097
0.995022
0.0116345
-0.00608712
-0.764715
0.759167
0.00182849
0.00161098
-0.493684
0.490244
-0.0033023
0.00341582
-0.246273
0.24616
-0.00288181
0.00196767
-0.0852188
0.0861329
-0.00116713
0.00039367
-0.00570983
0.00648329
2.23363e-05
-0.000185672
0.0166613
-0.016498
0.000120222
0.00627446
-0.00639468
-0.0779456
0.077068
0.000877642
-0.00262208
0.00222341
-0.43842
0.438819
-0.00123997
-0.000681841
-0.620351
0.622273
0.0035815
-0.00691383
-0.761622
0.764955
0.0107533
-0.0147253
-0.887205
0.891177
0.0187774
-0.0227599
-1.01471
1.01869
0.027159
-0.030647
-1.15517
1.15866
0.0347818
-0.0379981
-1.30765
1.31086
0.0408064
-0.0427664
-1.47179
1.47375
0.0437155
-0.0428471
-1.64696
1.64609
0.0405539
-0.036887
-1.54576
1.54209
0.0328735
-0.027603
-1.23212
1.22685
0.022452
-0.0166282
-0.988562
0.982738
0.0107041
-0.00510472
-0.751488
0.745889
0.000880481
0.00244756
-0.484586
0.481258
-0.00407941
0.00447273
-0.243815
0.243422
-0.00402008
0.00315069
-0.086062
0.0869313
-0.00224015
0.00126482
-0.00689738
0.00787271
-0.000586784
0.000129517
0.0162388
-0.0157815
1.84445e-05
0.00635606
-0.0063745
-0.0783501
0.0776487
0.000701306
-0.00165333
0.0013008
-0.441524
0.441876
0.000180474
-0.00193168
-0.62595
0.627701
0.00497537
-0.00814359
-0.768209
0.771377
0.0117893
-0.0153068
-0.894802
0.898319
0.0194276
-0.0230254
-1.02263
1.02623
0.0272876
-0.0311355
-1.16256
1.1664
0.0347842
-0.0382056
-1.31405
1.31748
0.0412752
-0.0431325
-1.4755
1.47736
0.0441955
-0.0438089
-1.64531
1.64493
0.0416305
-0.0382164
-1.53812
1.53471
0.0340901
-0.028954
-1.22145
1.21631
0.0239545
-0.0180217
-0.976176
0.970244
0.0122659
-0.00645037
-0.73848
0.732665
0.00201005
0.00153767
-0.475484
0.471936
-0.00340883
0.00417297
-0.241143
0.240379
-0.00417555
0.0035691
-0.0868364
0.0874429
-0.00276364
0.00177787
-0.00845559
0.00944135
-0.000997281
0.00036764
0.0152672
-0.0146375
-6.99014e-05
0.00624391
-0.006174
-0.0790584
0.0785368
0.000521638
-0.000571596
4.20303e-05
-0.44475
0.44528
0.0012881
-0.00333374
-0.631098
0.633143
0.00629214
-0.00928178
-0.774482
0.777471
0.0129897
-0.0163247
-0.901802
0.905137
0.0202401
-0.0239125
-1.03027
1.03395
0.0280185
-0.0317615
-1.17005
1.17379
0.0355474
-0.038902
-1.32075
1.3241
0.0420286
-0.044501
-1.47942
1.48189
0.045807
-0.045486
-1.64435
1.64403
0.0437344
-0.0403589
-1.53104
1.52767
0.0365542
-0.0317498
-1.21099
1.20619
0.0266367
-0.0207863
-0.963815
0.957965
0.0151027
-0.00909975
-0.725537
0.719534
0.0044689
-0.000513873
-0.466327
0.462372
-0.00171027
0.00300339
-0.237796
0.236503
-0.00338256
0.00315496
-0.08703
0.0872576
-0.00263658
0.00183885
-0.00996979
0.0107675
-0.00112136
0.000471043
0.0140217
-0.0133713
-0.000110322
0.00598205
-0.00587173
-0.0800129
0.0796192
0.00039369
0.000305749
-0.00095485