/*--------------------------------*- C++ -*----------------------------------*\
  =========                 |
  \\      /  F ield         | OpenFOAM: The Open Source CFD Toolbox
   \\    /   O peration     | Website:  https://openfoam.org
    \\  /    A nd           | Version:  6
     \\/     M anipulation  |
\*---------------------------------------------------------------------------*/
FoamFile
{
    version     2.0;
    format      ascii;
    class       volScalarField;
    location    "7";
    object      p;
}
// * * * * * * * * * * * * * * * * * * * * * * * * * * * * * * * * * * * * * //

dimensions      [0 2 -2 0 0 0 0];

internalField   nonuniform List<scalar> 
8800
(
0.43552
0.386381
0.34866
0.320885
0.30102
0.286805
0.276689
0.269617
0.26511
0.263197
0.264076
0.267643
0.273648
0.282297
0.294394
0.311272
0.334748
0.367531
0.410205
0.462626
0.269379
0.275916
0.285455
0.289665
0.287737
0.282405
0.276059
0.27027
0.265729
0.262786
0.262271
0.264554
0.268629
0.274052
0.28039
0.286567
0.290603
0.289707
0.282436
0.273213
0.242015
0.248684
0.254085
0.258809
0.262647
0.264501
0.264102
0.262276
0.260253
0.259135
0.259855
0.261929
0.264282
0.265742
0.265184
0.262329
0.257992
0.252969
0.247374
0.24354
0.237926
0.240832
0.244547
0.247615
0.249821
0.251383
0.252432
0.253063
0.253333
0.253553
0.253774
0.253985
0.253904
0.253328
0.252224
0.250451
0.247914
0.244413
0.241067
0.239683
0.23796
0.239094
0.241536
0.244165
0.246325
0.24802
0.249366
0.250175
0.250592
0.250864
0.251199
0.2514
0.251163
0.25031
0.248939
0.247177
0.244851
0.242234
0.240409
0.240013
0.237619
0.237945
0.238679
0.239632
0.240742
0.242072
0.243364
0.244472
0.245313
0.245899
0.246182
0.246079
0.245564
0.244695
0.243587
0.242498
0.241562
0.240732
0.240244
0.240111
0.235481
0.235681
0.236246
0.237007
0.237811
0.238766
0.239562
0.240354
0.241099
0.241726
0.242119
0.242182
0.241962
0.241576
0.240947
0.240219
0.239587
0.238949
0.238596
0.238531
0.232747
0.232831
0.233088
0.233507
0.234042
0.234702
0.235463
0.236276
0.237082
0.237826
0.238328
0.23849
0.238372
0.238071
0.237696
0.237314
0.236977
0.236705
0.236575
0.236547
0.229371
0.229424
0.22959
0.229868
0.230239
0.230712
0.231298
0.231996
0.232786
0.233612
0.234281
0.234655
0.234786
0.234763
0.234656
0.234508
0.234355
0.234226
0.234163
0.234146
0.225642
0.225675
0.22579
0.225993
0.226292
0.226709
0.227266
0.227976
0.228833
0.229806
0.230677
0.231259
0.231583
0.231729
0.231772
0.231759
0.231723
0.231685
0.231666
0.231655
0.221572
0.221598
0.22169
0.221862
0.222128
0.222522
0.223078
0.223832
0.2248
0.225969
0.227096
0.227927
0.228463
0.228796
0.228988
0.229091
0.22914
0.22916
0.229166
0.22916
0.217174
0.217198
0.217291
0.217462
0.217738
0.218158
0.218773
0.219633
0.220779
0.222216
0.22366
0.22477
0.225545
0.226055
0.226379
0.226577
0.226692
0.226754
0.226778
0.226774
0.212433
0.212456
0.212559
0.212751
0.213064
0.213549
0.214271
0.215299
0.216697
0.218488
0.220327
0.221787
0.222826
0.223528
0.223989
0.22428
0.224455
0.224553
0.224594
0.224591
0.207297
0.207324
0.207445
0.207673
0.208049
0.208636
0.209517
0.210783
0.212523
0.214774
0.217115
0.218994
0.220341
0.221268
0.221881
0.222273
0.222512
0.222647
0.222704
0.222702
0.201674
0.201707
0.201857
0.202139
0.202607
0.203339
0.204438
0.206026
0.208214
0.211058
0.21403
0.216425
0.218152
0.219344
0.220136
0.220645
0.220957
0.221134
0.221209
0.221206
0.195446
0.195487
0.195676
0.196034
0.196626
0.197553
0.198945
0.200956
0.203728
0.207332
0.211099
0.214136
0.216329
0.217844
0.218853
0.219501
0.2199
0.220127
0.220222
0.22022
0.188444
0.188497
0.188741
0.1892
0.189958
0.191144
0.192923
0.195486
0.199013
0.203587
0.208357
0.212195
0.214964
0.216877
0.218151
0.21897
0.219474
0.219761
0.219881
0.219878
0.180447
0.180517
0.180833
0.181428
0.182409
0.183939
0.186227
0.189512
0.194013
0.199823
0.205854
0.210691
0.214173
0.216577
0.218177
0.219206
0.219839
0.2202
0.22035
0.220346
0.171154
0.171247
0.171662
0.172442
0.173722
0.175712
0.178674
0.182904
0.188662
0.196044
0.203657
0.209734
0.214098
0.217107
0.219111
0.220398
0.221191
0.221642
0.22183
0.221824
0.160157
0.160284
0.160834
0.161867
0.163557
0.166171
0.170035
0.175508
0.182891
0.192268
0.201854
0.209461
0.214911
0.218667
0.221168
0.222776
0.223766
0.224328
0.224562
0.224554
0.146892
0.147068
0.147807
0.149199
0.151466
0.154943
0.16003
0.167152
0.176641
0.188533
0.200556
0.210035
0.216812
0.221485
0.224603
0.226611
0.227846
0.228546
0.228837
0.228828
0.130541
0.130789
0.131805
0.133732
0.136847
0.141551
0.148328
0.157662
0.169875
0.184913
0.199905
0.211643
0.220031
0.225832
0.229718
0.23223
0.233775
0.234646
0.235006
0.234994
0.109864
0.110213
0.111673
0.114457
0.11887
0.125377
0.134544
0.146874
0.162601
0.181518
0.200059
0.214475
0.224795
0.231982
0.236841
0.240008
0.241965
0.243061
0.243509
0.243493
0.0829102
0.0834306
0.0856788
0.0899305
0.0964218
0.10568
0.118308
0.134699
0.154898
0.178494
0.201174
0.218693
0.231296
0.240181
0.246291
0.250355
0.252913
0.254357
0.254937
0.254907
0.046328
0.0472577
0.0511744
0.0582047
0.0682514
0.0818735
0.0995127
0.121289
0.147002
0.176059
0.203404
0.224403
0.239628
0.250563
0.258297
0.263631
0.267146
0.269209
0.270055
0.270009
-0.00653612
-0.00386013
0.00442483
0.0172039
0.033627
0.0540732
0.0786432
0.107204
0.139392
0.174531
0.206905
0.231638
0.249744
0.263047
0.272812
0.279914
0.284971
0.288224
0.289725
0.289697
-0.0862039
-0.073795
-0.0548412
-0.0317956
-0.00573849
0.0237246
0.0566887
0.0930189
0.132368
0.17413
0.21199
0.240904
0.262383
0.27863
0.291123
0.300884
0.308584
0.314399
0.318035
0.318848
-0.169599
-0.145024
-0.114412
-0.0808855
-0.0451539
-0.0066956
0.0346086
0.0787734
0.125602
0.174658
0.218999
0.253139
0.278946
0.298995
0.314964
0.328006
0.338829
0.348447
0.355348
0.356635
-0.234858
-0.20617
-0.167665
-0.125948
-0.0817534
-0.0351566
0.0139097
0.0654419
0.119337
0.175264
0.225542
0.264132
0.293275
0.315907
0.333886
0.348438
0.360353
0.370091
0.376477
0.37783
-0.285017
-0.254226
-0.211265
-0.164088
-0.113893
-0.0609644
-0.00539651
0.0526207
0.112873
0.174975
0.230423
0.272664
0.304234
0.328386
0.347212
0.362134
0.374146
0.383886
0.390312
0.391752
-0.324555
-0.292961
-0.246992
-0.195906
-0.141381
-0.0836313
-0.0229358
0.0404917
0.106335
0.174082
0.2343
0.279767
0.313321
0.33863
0.35807
0.373249
0.385276
0.394814
0.401132
0.402603
-0.357078
-0.325266
-0.277356
-0.223403
-0.165484
-0.103891
-0.0389022
0.0291778
0.0999722
0.17285
0.237487
0.285963
0.321373
0.347741
0.367717
0.383097
0.395131
0.404567
0.410777
0.41225
-0.384969
-0.353064
-0.303839
-0.247745
-0.187175
-0.122459
-0.0539355
0.0181026
0.093305
0.171005
0.240015
0.291571
0.328912
0.356407
0.376977
0.392623
0.404718
0.414085
0.420199
0.421671
-0.409776
-0.37773
-0.327509
-0.269808
-0.207195
-0.139995
-0.0685219
0.00696214
0.0861805
0.168544
0.242021
0.296891
0.336373
0.365158
0.386447
0.402433
0.414649
0.423991
0.430031
0.431494
-0.432481
-0.400231
-0.349212
-0.290203
-0.22594
-0.156734
-0.0828399
-0.00442475
0.0784278
0.165329
0.24351
0.302055
0.344019
0.374347
0.39652
0.412964
0.425365
0.434719
0.440678
0.442156
-0.453782
-0.421195
-0.369481
-0.309408
-0.243827
-0.173008
-0.0971535
-0.016274
0.0698524
0.161201
0.244407
0.307117
0.352006
0.384208
0.40749
0.424527
0.437186
0.446606
0.452503
0.45401
-0.473783
-0.440904
-0.388598
-0.327668
-0.261037
-0.188964
-0.111579
-0.0287054
0.0602925
0.155997
0.244578
0.312047
0.360405
0.394897
0.419562
0.437367
0.450391
0.459927
0.465772
0.467292
-0.492874
-0.459621
-0.406738
-0.345103
-0.277661
-0.204662
-0.126168
-0.0417837
0.0496267
0.149525
0.243848
0.316732
0.369206
0.406484
0.432886
0.451671
0.465179
0.474883
0.480704
0.482187
-0.511023
-0.477435
-0.423989
-0.361774
-0.293727
-0.220114
-0.140925
-0.0555313
0.0377834
0.141607
0.242005
0.321007
0.378321
0.41898
0.447526
0.46756
0.481701
0.491648
0.497463
0.49886
-0.528229
-0.494296
-0.440355
-0.377678
-0.309215
-0.235264
-0.155789
-0.0699214
0.0247158
0.132098
0.238824
0.324661
0.387587
0.432296
0.463477
0.485084
0.500068
0.510364
0.516179
0.517426
-0.544531
-0.51025
-0.455822
-0.392781
-0.324083
-0.250051
-0.170671
-0.0848811
0.0104273
0.120874
0.234083
0.327445
0.396763
0.446215
0.480631
0.504215
0.520313
0.53112
0.536975
0.537981
-0.559976
-0.52524
-0.470381
-0.407063
-0.338259
-0.264391
-0.185473
-0.100302
-0.00504319
0.107851
0.227607
0.329117
0.405528
0.46044
0.498752
0.524813
0.54227
0.553672
0.559617
0.560391
-0.574413
-0.539308
-0.484005
-0.420483
-0.351694
-0.278185
-0.200075
-0.116051
-0.0215944
0.0929791
0.219257
0.329449
0.413534
0.474528
0.51739
0.546586
0.565781
0.577922
0.583839
0.584291
-0.587856
-0.552377
-0.496685
-0.433004
-0.364333
-0.291359
-0.214344
-0.131988
-0.0391125
0.0762425
0.208897
0.328241
0.420479
0.487812
0.535805
0.569107
0.590807
0.603729
0.609307
0.609197
-0.600399
-0.564474
-0.50842
-0.444625
-0.376137
-0.303832
-0.228167
-0.147947
-0.0574513
0.0576785
0.196397
0.325475
0.426052
0.499781
0.553137
0.591502
0.617397
0.63133
0.635136
0.633987
-0.611954
-0.575632
-0.519217
-0.455325
-0.387083
-0.315544
-0.241428
-0.16377
-0.0764303
0.0373495
0.181681
0.321132
0.430382
0.509706
0.56826
0.61262
0.645168
0.663305
0.663196
0.656795
-0.622693
-0.585898
-0.529109
-0.465146
-0.397221
-0.326527
-0.254153
-0.179481
-0.0961657
0.014984
0.164204
0.315119
0.433293
0.51749
0.579866
0.629856
0.670275
0.699719
0.703044
0.692678
-0.632621
-0.595357
-0.538151
-0.474246
-0.406744
-0.337002
-0.266627
-0.19552
-0.117411
-0.0107294
0.142546
0.306652
0.435016
0.522489
0.584514
0.636235
0.680563
0.710044
0.7124
0.690754
-0.641687
-0.603903
-0.546211
-0.482587
-0.415513
-0.346767
-0.278625
-0.211519
-0.13976
-0.0396047
0.11648
0.295586
0.436989
0.524526
0.575782
0.620583
0.654678
0.658674
0.599576
0.558383
-0.649814
-0.611008
-0.55313
-0.489776
-0.42314
-0.35555
-0.289955
-0.227288
-0.163018
-0.0721555
0.0854368
0.281423
0.438865
0.523432
0.556832
0.575841
0.587899
0.545286
0.469741
0.42051
-0.688451
-0.615369
-0.559767
-0.496178
-0.430245
-0.363899
-0.300578
-0.242861
-0.187196
-0.108713
0.0485221
0.263882
0.438695
0.52331
0.526813
0.507843
0.470407
0.400702
0.311608
0.263241
-0.637749
-0.620439
-0.567794
-0.505259
-0.439846
-0.374893
-0.315371
-0.264932
-0.224805
-0.170001
-0.0192243
0.230449
0.438255
0.509926
0.465184
0.324045
0.188262
0.0971561
0.00917502
0.0604594
-0.661572
-0.628247
-0.57474
-0.512146
-0.446905
-0.382878
-0.32538
-0.280744
-0.253109
-0.223683
-0.0922734
0.187415
0.426633
0.469833
0.357538
0.137477
-0.0429839
-0.165948
-0.28811
-0.193291
-0.676062
-0.638926
-0.582889
-0.519661
-0.45437
-0.390847
-0.335229
-0.296044
-0.282091
-0.280385
-0.166201
0.137761
0.388981
0.41812
0.20999
-0.0867505
-0.312767
-0.476406
-0.651768
-0.531151
-0.688428
-0.648836
-0.590786
-0.526572
-0.460892
-0.397767
-0.344061
-0.310494
-0.310984
-0.344108
-0.266795
0.0607642
0.314256
0.305564
0.0057892
-0.348076
-0.640657
-0.878336
-1.11476
-1.02797
-0.69871
-0.657714
-0.598258
-0.533006
-0.466741
-0.403831
-0.35186
-0.323942
-0.340374
-0.421274
-0.418467
-0.0947626
0.182502
0.122364
-0.239566
-0.633967
-1.00262
-1.33238
-1.71692
-1.80947
-0.70744
-0.665859
-0.605348
-0.5391
-0.472088
-0.409031
-0.358346
-0.335361
-0.368286
-0.505436
-0.624383
-0.346872
-0.0500273
-0.130525
-0.508647
-0.895569
-1.3235
-1.69509
-2.00962
-2.43411
-0.715588
-0.673482
-0.612099
-0.544837
-0.476902
-0.413334
-0.363361
-0.344582
-0.394117
-0.597538
-0.901863
-0.741494
-0.386711
-0.471036
-0.799737
-1.11694
-1.49844
-1.81572
-1.90553
-1.93774
-0.723368
-0.680702
-0.618451
-0.550114
-0.48102
-0.416525
-0.366466
-0.350823
-0.415559
-0.696093
-1.2613
-1.27751
-0.811048
-0.881171
-1.11756
-1.28947
-1.50277
-1.78458
-1.8173
-1.78447
-0.731071
-0.687661
-0.624398
-0.554819
-0.484261
-0.418277
-0.367131
-0.352659
-0.42925
-0.787662
-1.64997
-1.84298
-1.27056
-1.29534
-1.46792
-1.49224
-1.42251
-1.4969
-1.62722
-1.65882
-0.739079
-0.69454
-0.630036
-0.558939
-0.486554
-0.418367
-0.364896
-0.348715
-0.430916
-0.84725
-1.95949
-2.25704
-1.65054
-1.64748
-1.87662
-1.85306
-1.49046
-1.53552
-1.73939
-1.82566
-0.747499
-0.701532
-0.635502
-0.562582
-0.487894
-0.416799
-0.359411
-0.338112
-0.41548
-0.84219
-2.05517
-2.37233
-1.83774
-1.91699
-2.42991
-2.83264
-2.72605
-2.61139
-2.47897
-2.45873
-0.756413
-0.708851
-0.640996
-0.565902
-0.488463
-0.413645
-0.350808
-0.320384
-0.379377
-0.754316
-1.83694
-2.09972
-1.69059
-2.00051
-2.95438
-4.10271
-4.27821
-3.96993
-3.54555
-3.34188
-0.766147
-0.716792
-0.64677
-0.569173
-0.488529
-0.409282
-0.339486
-0.296263
-0.324702
-0.589697
-1.33107
-1.45074
-1.17859
-1.64851
-2.74831
-4.32685
-4.63361
-4.06674
-3.47938
-3.22774
-0.776948
-0.725603
-0.653137
-0.572725
-0.488477
-0.404208
-0.326424
-0.267914
-0.257735
-0.383888
-0.715312
-0.627789
-0.427224
-0.656922
-1.26141
-2.00992
-2.26128
-1.9702
-1.67941
-1.56279
-0.789065
-0.735579
-0.660424
-0.576876
-0.488762
-0.399142
-0.312721
-0.237642
-0.188127
-0.18766
-0.184217
0.0283312
0.228645
0.237892
0.126483
0.0106306
0.031007
0.096371
0.132577
0.144206
-0.802349
-0.746841
-0.66879
-0.581886
-0.489688
-0.394488
-0.29949
-0.208506
-0.12424
-0.0348136
0.128898
0.393945
0.578469
0.701114
0.776245
0.848873
0.917924
0.961426
0.974672
0.974323
-0.816677
-0.759115
-0.678004
-0.587589
-0.491293
-0.390731
-0.287591
-0.182376
-0.0711876
0.0698488
0.285731
0.543115
0.736788
0.889129
1.0047
1.09581
1.16646
1.20992
1.22898
1.23182
-0.830993
-0.771473
-0.687362
-0.593529
-0.493217
-0.387616
-0.277248
-0.16067
-0.0306821
0.136524
0.360596
0.594045
0.779046
0.923376
1.03412
1.11862
1.18199
1.22529
1.24891
1.25411
-0.842258
-0.781857
-0.695433
-0.59832
-0.494412
-0.384494
-0.268288
-0.143419
-0.00190446
0.176211
0.392455
0.600675
0.768474
0.898094
0.996661
1.07142
1.12791
1.16915
1.19357
1.19964
-0.848116
-0.787962
-0.699767
-0.600011
-0.493275
-0.380112
-0.259895
-0.129865
0.0172501
0.197263
0.40019
0.58547
0.734795
0.850535
0.939002
1.00662
1.05848
1.09736
1.12062
1.12703
-0.845023
-0.785766
-0.696995
-0.595738
-0.487442
-0.372699
-0.250711
-0.118716
0.0294251
0.204756
0.393078
0.5587
0.69149
0.795257
0.875672
0.938008
0.986601
1.02366
1.04603
1.05252
-0.826393
-0.769448
-0.682997
-0.581876
-0.474023
-0.360035
-0.238974
-0.108421
0.0363968
0.203865
0.37624
0.523961
0.642079
0.735349
0.808758
0.8665
0.912083
0.946896
0.968787
0.97572
-0.785823
-0.734388
-0.652481
-0.554224
-0.449769
-0.339709
-0.222964
-0.0975957
0.0400865
0.195568
0.351165
0.482164
0.586454
0.669589
0.736073
0.789304
0.831858
0.86492
0.886342
0.893552
-0.718034
-0.675291
-0.599419
-0.50814
-0.411547
-0.309569
-0.201144
-0.0849697
0.0416209
0.182096
0.319498
0.433319
0.523349
0.595303
0.653451
0.700909
0.739272
0.769424
0.789772
0.796897
-0.61529
-0.584454
-0.518807
-0.440489
-0.357129
-0.267799
-0.172164
-0.0691726
0.0427703
0.165407
0.282962
0.378234
0.452408
0.5108
0.557306
0.595012
0.626196
0.651161
0.667403
0.672289
-0.462498
-0.446989
-0.403847
-0.347728
-0.28472
-0.214205
-0.136393
-0.0500503
0.0454349
0.150909
0.251864
0.332822
0.394703
0.442213
0.478828
0.506908
0.527853
0.544045
0.5561
0.560023
-0.301883
-0.295966
-0.274092
-0.242296
-0.201846
-0.153029
-0.0948868
-0.0270243
0.0510051
0.139098
0.224037
0.291886
0.343041
0.38112
0.408829
0.428667
0.442906
0.452453
0.457944
0.459095
-0.17143
-0.169281
-0.159913
-0.144407
-0.122208
-0.0919913
-0.0520395
-0.00173709
0.0594402
0.131036
0.201149
0.256879
0.298037
0.327703
0.348777
0.363194
0.372362
0.37764
0.380261
0.380661
-0.0783952
-0.078757
-0.0767737
-0.0704546
-0.0587583
-0.0403082
-0.0137909
0.022377
0.0688933
0.12553
0.182177
0.227313
0.260313
0.283599
0.299225
0.309181
0.31527
0.318651
0.32001
0.320068
-0.020089
-0.0210169
-0.0219831
-0.0204103
-0.0146205
-0.00315827
0.015134
0.0414492
0.0767261
0.121003
0.166014
0.201894
0.227782
0.245676
0.25761
0.265184
0.269487
0.271524
0.272159
0.272152
0.0137452
0.0131455
0.0123546
0.0129874
0.0162523
0.0234005
0.0359161
0.0550917
0.081822
0.116222
0.151697
0.180087
0.200552
0.214625
0.22376
0.229284
0.232348
0.233796
0.234257
0.23426
0.0347081
0.0344239
0.0340733
0.0346622
0.03708
0.0422249
0.0511975
0.0652281
0.0853712
0.111949
0.139737
0.162022
0.177953
0.188739
0.195686
0.199908
0.202244
0.20332
0.203663
0.203669
0.0483938
0.0482585
0.0481169
0.0486294
0.0504148
0.0542005
0.0608853
0.0714467
0.0867633
0.10723
0.12884
0.146225
0.158653
0.167073
0.172477
0.175721
0.177496
0.178314
0.178579
0.178585
0.0570375
0.0569876
0.0569983
0.0575069
0.0589443
0.0618344
0.066864
0.074845
0.0865415
0.102333
0.119127
0.13267
0.142336
0.148852
0.153011
0.155508
0.156875
0.157504
0.157709
0.157712
0.0621491
0.0621353
0.0622096
0.0626695
0.0638282
0.0660808
0.0699465
0.0760503
0.0850136
0.0971873
0.1102
0.120713
0.128213
0.133265
0.136488
0.138418
0.13947
0.139951
0.140106
0.140105
0.0646552
0.0646566
0.0647521
0.0651508
0.0660816
0.0678399
0.0708233
0.0755176
0.082415
0.0918118
0.10189
0.110043
0.115859
0.119772
0.122263
0.123751
0.124559
0.124927
0.125043
0.125041
0.0652011
0.0652075
0.0652998
0.0656311
0.0663728
0.0677492
0.0700619
0.0736844
0.0790022
0.0862587
0.0940584
0.100374
0.104877
0.107904
0.109829
0.110975
0.111595
0.111874
0.11196
0.111956
0.0642361
0.0642435
0.0643232
0.0645908
0.0651759
0.0662499
0.0680435
0.0708434
0.0749499
0.0805569
0.0865895
0.0914767
0.0949603
0.0972991
0.0987837
0.099666
0.100141
0.100352
0.100415
0.100412
0.0621001
0.0621068
0.062172
0.062384
0.0628421
0.0636775
0.0650678
0.0672337
0.0704061
0.0747377
0.079402
0.0831804
0.0858725
0.0876791
0.0888242
0.0895027
0.0898656
0.0900246
0.0900708
0.0900669
0.0590541
0.0590595
0.0591114
0.0592776
0.0596346
0.0602834
0.0613601
0.063034
0.0654841
0.06883
0.0724329
0.0753521
0.0774315
0.0788239
0.0797042
0.0802246
0.0805018
0.0806219
0.0806561
0.0806526
0.0553027
0.0553069
0.0553474
0.0554764
0.0557528
0.0562545
0.0570865
0.0583795
0.0602711
0.0628537
0.0656345
0.0678859
0.069488
0.0705606
0.0712381
0.0716369
0.0718482
0.0719385
0.0719632
0.0719599
0.0510045
0.0510076
0.0510387
0.051138
0.0513511
0.051738
0.0523793
0.0533757
0.0548331
0.0568225
0.058965
0.0606993
0.0619319
0.0627558
0.0632756
0.0635813
0.0637422
0.06381
0.0638281
0.0638252
0.0462845
0.0462867
0.0463099
0.0463855
0.0465487
0.0468457
0.0473387
0.0481048
0.049225
0.0507535
0.0524001
0.0537318
0.0546777
0.0553097
0.0557068
0.0559389
0.0560602
0.0561105
0.0561232
0.0561206
0.0412382
0.0412396
0.0412566
0.0413136
0.0414379
0.0416649
0.0420415
0.0426266
0.0434835
0.0446538
0.0459133
0.0469316
0.0476545
0.0481361
0.0484375
0.0486134
0.0487049
0.0487423
0.0487514
0.048749
0.0359407
0.0359412
0.0359534
0.035996
0.0360894
0.0362608
0.0365465
0.0369911
0.0376418
0.0385306
0.0394868
0.0402591
0.0408059
0.0411691
0.041397
0.0415295
0.0415976
0.0416246
0.0416307
0.0416289
0.0304524
0.0304524
0.0304608
0.0304918
0.0305611
0.0306885
0.0309012
0.0312336
0.0317212
0.0323876
0.0331046
0.0336833
0.034093
0.0343653
0.0345351
0.0346326
0.034682
0.0347008
0.0347044
0.0347029
0.024821
0.0248206
0.0248257
0.0248471
0.0248966
0.0249886
0.0251433
0.0253862
0.0257429
0.0262315
0.0267579
0.027183
0.027484
0.0276834
0.0278067
0.0278766
0.0279113
0.0279235
0.027925
0.0279236
0.0190821
0.0190814
0.0190839
0.0190976
0.0191307
0.0191946
0.0193036
0.019475
0.0197266
0.020072
0.0204439
0.0207425
0.0209517
0.0210887
0.0211732
0.0212216
0.0212451
0.0212528
0.0212535
0.0212524
0.013264
0.013263
0.013263
0.0132708
0.0132919
0.0133333
0.0134033
0.0135135
0.0136766
0.0139003
0.0141442
0.0143357
0.0144708
0.0145602
0.0146147
0.014644
0.0146572
0.0146604
0.0146595
0.0146586
0.00739211
0.00739142
0.00739064
0.00739355
0.00740367
0.00742443
0.00746077
0.00751891
0.00760478
0.00772346
0.00785245
0.00795628
0.00802923
0.00807613
0.008104
0.00811878
0.00812411
0.00812337
0.00812171
0.00812109
0.00148219
0.00148183
0.00147813
0.00147626
0.00147704
0.00148002
0.00148602
0.00149583
0.00151069
0.00153199
0.0015579
0.00158305
0.00160101
0.00161256
0.0016199
0.00162405
0.00162578
0.00162551
0.00162289
0.00162054
-0.789522
-0.476132
-0.196733
0.0276053
0.209197
0.358155
0.488601
0.600585
0.64512
0.631109
-0.307681
-0.114178
0.057991
0.206225
0.333338
0.441789
0.530576
0.592952
0.623894
0.633783
0.00436278
0.121644
0.235983
0.338471
0.42853
0.504062
0.562746
0.60492
0.632208
0.648081
0.207953
0.287111
0.368686
0.442321
0.505962
0.558655
0.600851
0.634266
0.657849
0.675108
0.354889
0.413176
0.473569
0.527908
0.574796
0.615494
0.650362
0.678465
0.696407
0.713596
0.474681
0.518956
0.564631
0.607324
0.645737
0.679581
0.708666
0.731861
0.748
0.764779
0.577131
0.614303
0.652073
0.688863
0.722511
0.752355
0.778078
0.798195
0.812568
0.829299
0.670685
0.707262
0.744045
0.778322
0.809902
0.837785
0.861258
0.879455
0.892179
0.9086
0.770892
0.809592
0.846232
0.880768
0.911595
0.938171
0.960047
0.976999
0.988927
1.00522
0.886835
0.928996
0.967215
1.00114
1.03056
1.05526
1.07544
1.09107
1.10337
1.11967
1.02987
1.07182
1.10793
1.13814
1.16391
1.18605
1.20482
1.22061
1.23395
1.25017
1.20285
1.2355
1.2631
1.28573
1.306
1.32503
1.3431
1.35991
1.37507
1.39126
1.39036
1.40767
1.42482
1.44175
1.45798
1.47278
1.48681
1.50153
1.51698
1.53413
1.57333
1.58368
1.5968
1.6078
1.61745
1.62721
1.63789
1.64819
1.65756
1.68275
1.78968
1.78453
1.77207
1.75816
1.75201
1.75776
1.77602
1.80459
1.83831
1.87453
2.09592
1.95892
1.87927
1.8365
1.81902
1.82319
1.85052
1.90852
2.01643
2.19475
0.33891
0.332708
0.325216
0.31444
0.30128
0.289116
0.279302
0.271863
0.266573
0.26347
0.262969
0.265226
0.269739
0.276295
0.285036
0.296166
0.309211
0.321664
0.330333
0.337675
0.247246
0.25339
0.262288
0.269436
0.273481
0.273927
0.271459
0.267718
0.264118
0.261537
0.261082
0.263217
0.266681
0.270699
0.274138
0.275428
0.273209
0.267516
0.259422
0.251026
0.239624
0.24192
0.245884
0.249413
0.252492
0.25513
0.256818
0.25731
0.25693
0.256443
0.256488
0.257173
0.258071
0.258346
0.257454
0.255355
0.252527
0.249354
0.245461
0.242091
0.237467
0.238247
0.241055
0.2446
0.247266
0.249039
0.250241
0.251054
0.251526
0.251784
0.252053
0.252326
0.252382
0.252035
0.251239
0.249898
0.247839
0.244708
0.241307
0.23956
0.238202
0.238412
0.239347
0.240857
0.242548
0.244348
0.246032
0.247343
0.248219
0.248763
0.249134
0.2493
0.249071
0.248326
0.247048
0.245463
0.243786
0.242274
0.241016
0.240504
0.236593
0.236684
0.237126
0.237905
0.238753
0.239593
0.240461
0.241416
0.242263
0.242958
0.243437
0.243617
0.243434
0.242947
0.242308
0.241702
0.240952
0.240203
0.239598
0.239376
0.234227
0.23427
0.234524
0.235043
0.235702
0.236504
0.237357
0.238198
0.239009
0.239761
0.240351
0.240614
0.240554
0.240251
0.23976
0.239174
0.23861
0.238098
0.237747
0.237635
0.231105
0.231126
0.231247
0.231513
0.231882
0.232353
0.232934
0.233626
0.234398
0.235189
0.23589
0.236323
0.236454
0.23638
0.2362
0.23598
0.235758
0.235551
0.235414
0.235372
0.227551
0.227564
0.22765
0.227839
0.228124
0.228513
0.229021
0.229657
0.230419
0.231285
0.232144
0.232771
0.233109
0.233242
0.233246
0.233181
0.23309
0.232999
0.232937
0.232914
0.223645
0.223652
0.223716
0.223856
0.224081
0.224414
0.224884
0.225519
0.226335
0.227326
0.228388
0.229251
0.22981
0.230134
0.230308
0.230388
0.230416
0.230416
0.23041
0.230405
0.219415
0.21942
0.219477
0.219604
0.219818
0.220147
0.220633
0.221317
0.222239
0.223416
0.224743
0.225893
0.226687
0.227217
0.227548
0.227747
0.22786
0.22792
0.227947
0.227952
0.214848
0.21485
0.21491
0.215046
0.215277
0.21564
0.216188
0.21698
0.218074
0.219509
0.221179
0.222671
0.223747
0.22449
0.224979
0.22529
0.225479
0.225589
0.225644
0.225656
0.20992
0.209921
0.209989
0.210145
0.210413
0.210842
0.211495
0.21245
0.21379
0.215574
0.217683
0.219601
0.221014
0.221996
0.222657
0.223085
0.223352
0.223509
0.223589
0.223609
0.204553
0.204554
0.204636
0.204826
0.205154
0.20568
0.206485
0.20767
0.209342
0.211583
0.214251
0.216697
0.218509
0.219783
0.220645
0.221207
0.22156
0.221769
0.221877
0.221904
0.198645
0.198646
0.198749
0.198987
0.199399
0.200059
0.201072
0.202565
0.204675
0.207508
0.210889
0.213995
0.216301
0.217927
0.21903
0.219751
0.220204
0.220475
0.220614
0.220649
0.192055
0.192055
0.192187
0.192491
0.193016
0.193857
0.195147
0.197046
0.199726
0.20332
0.207606
0.211539
0.214458
0.216517
0.217913
0.218827
0.219403
0.219747
0.219924
0.219968
0.184589
0.184589
0.184761
0.185153
0.18583
0.186912
0.188567
0.190998
0.194419
0.198991
0.204422
0.209392
0.213073
0.215666
0.217424
0.218574
0.219299
0.219733
0.219956
0.220012
0.17599
0.175991
0.176216
0.176729
0.17761
0.179014
0.181153
0.184283
0.188666
0.194491
0.201371
0.207636
0.21226
0.215513
0.217717
0.219159
0.220069
0.220612
0.220892
0.220961
0.165905
0.165909
0.166209
0.166889
0.168048
0.169885
0.172672
0.176725
0.182361
0.189792
0.198497
0.206372
0.212163
0.21623
0.218983
0.220786
0.221922
0.222602
0.222952
0.223038
0.153846
0.153852
0.154263
0.155179
0.156726
0.159158
0.162822
0.168108
0.175385
0.184872
0.195864
0.205726
0.212948
0.218014
0.221446
0.223696
0.225117
0.225969
0.226409
0.226514
0.139118
0.139134
0.139713
0.140977
0.143074
0.146338
0.151216
0.158173
0.167612
0.179726
0.193558
0.205845
0.214808
0.221098
0.225368
0.228175
0.229957
0.231033
0.231591
0.231723
0.120723
0.120765
0.121621
0.123408
0.126307
0.130783
0.137393
0.146649
0.158944
0.174387
0.191695
0.206894
0.217951
0.225732
0.231044
0.234557
0.236804
0.23818
0.238904
0.239074
0.0971259
0.0972375
0.0985759
0.101193
0.105353
0.111706
0.120873
0.133331
0.149381
0.168975
0.19044
0.209057
0.222581
0.232164
0.238778
0.243206
0.246073
0.247857
0.248819
0.249052
0.0657291
0.0660179
0.0682692
0.0723771
0.0787754
0.0882346
0.101263
0.118175
0.13908
0.163718
0.190007
0.212509
0.228865
0.240587
0.248832
0.254481
0.258223
0.260597
0.261909
0.262243
0.0218171
0.0225748
0.026868
0.0342128
0.044934
0.0596167
0.078404
0.10136
0.128344
0.158898
0.190585
0.217346
0.236839
0.251023
0.261277
0.268578
0.273651
0.277042
0.278998
0.279472
-0.0429676
-0.0404045
-0.0304087
-0.0157563
0.00307709
0.0260116
0.0528566
0.0835028
0.117661
0.154813
0.192277
0.223507
0.246316
0.26319
0.275772
0.285184
0.29218
0.297333
0.300586
0.301159
-0.122063
-0.116377
-0.0971302
-0.070887
-0.0414634
-0.009059
0.0265087
0.0652377
0.10699
0.151378
0.195563
0.232405
0.259707
0.280462
0.296574
0.309296
0.319502
0.327756
0.332537
0.33464
-0.200857
-0.188453
-0.159621
-0.123367
-0.0843819
-0.0428544
0.00115972
0.0478014
0.0970207
0.148584
0.199522
0.241987
0.273618
0.29791
0.317062
0.332479
0.345056
0.355283
0.362592
0.366068
-0.258338
-0.244889
-0.211157
-0.168577
-0.122511
-0.0737568
-0.0224763
0.031262
0.0873603
0.145582
0.202657
0.249912
0.284891
0.311548
0.332306
0.348708
0.361773
0.372172
0.379446
0.382813
-0.303431
-0.289544
-0.252575
-0.20568
-0.15473
-0.100699
-0.0437675
0.0158151
0.0778411
0.141978
0.204573
0.25606
0.293777
0.322113
0.343831
0.360733
0.374017
0.384463
0.391802
0.395107
-0.339443
-0.325703
-0.286833
-0.236878
-0.182362
-0.124261
-0.0628611
0.0015941
0.0687834
0.138283
0.205979
0.261328
0.301469
0.331249
0.353764
0.371043
0.384446
0.394863
0.40217
0.405451
-0.369771
-0.356203
-0.316158
-0.263966
-0.206686
-0.145338
-0.0802433
-0.011702
0.0599594
0.13427
0.20674
0.26584
0.308379
0.339595
0.362898
0.380564
0.394111
0.404548
0.411886
0.415145
-0.396218
-0.382773
-0.341867
-0.28805
-0.228692
-0.164797
-0.0966924
-0.0246979
0.050911
0.129703
0.206883
0.269858
0.31495
0.347737
0.371938
0.390061
0.403814
0.414301
0.421672
0.424903
-0.42004
-0.40663
-0.365065
-0.309977
-0.248975
-0.183048
-0.112498
-0.0375864
0.0415069
0.1245
0.206409
0.273511
0.321459
0.356062
0.381331
0.400037
0.414064
0.424651
0.432063
0.435271
-0.442126
-0.42874
-0.386475
-0.330364
-0.268031
-0.200463
-0.127926
-0.0505967
0.0315267
0.118461
0.205199
0.276829
0.32806
0.364821
0.3914
0.410841
0.425236
0.435971
0.443423
0.44659
-0.462872
-0.449378
-0.406554
-0.349565
-0.286181
-0.217316
-0.143206
-0.0639122
0.0208071
0.111421
0.203121
0.279768
0.334811
0.37417
0.402366
0.422739
0.437618
0.448562
0.456096
0.459237
-0.482509
-0.468877
-0.425553
-0.367802
-0.303561
-0.233699
-0.158407
-0.0776178
0.00923594
0.103211
0.199984
0.282203
0.341696
0.384179
0.414381
0.435926
0.451438
0.462671
0.470288
0.473391
-0.501247
-0.487439
-0.443574
-0.385177
-0.320264
-0.249665
-0.173554
-0.0917342
-0.00326219
0.0936944
0.195599
0.283962
0.348619
0.394848
0.427508
0.450531
0.466855
0.478481
0.486216
0.4893
-0.519036
-0.505049
-0.460709
-0.40172
-0.33629
-0.265207
-0.188621
-0.106238
-0.0167091
0.0827476
0.18976
0.284835
0.355415
0.406091
0.44175
0.466628
0.483988
0.496129
0.504028
0.507106
-0.535927
-0.521758
-0.476875
-0.417424
-0.351617
-0.280269
-0.20355
-0.121062
-0.0310732
0.0702978
0.182292
0.284587
0.361855
0.417738
0.457034
0.484221
0.502885
0.515679
0.523801
0.526866
-0.551839
-0.537502
-0.492102
-0.43226
-0.366209
-0.294785
-0.218236
-0.136116
-0.046279
0.0563042
0.17302
0.282993
0.36768
0.429526
0.473144
0.503163
0.523502
0.53714
0.545561
0.54856
-0.566868
-0.552314
-0.506394
-0.44621
-0.380007
-0.308687
-0.232584
-0.151267
-0.0622457
0.0407974
0.161804
0.279835
0.372614
0.441056
0.489672
0.523177
0.545688
0.560455
0.569285
0.572089
-0.580824
-0.566159
-0.519721
-0.459247
-0.39297
-0.321889
-0.246492
-0.166382
-0.0788273
0.0238125
0.14855
0.274953
0.376419
0.451884
0.505985
0.543745
0.569021
0.585156
0.594293
0.59685
-0.593881
-0.579044
-0.532069
-0.471355
-0.405079
-0.33435
-0.259846
-0.181329
-0.0958693
0.00544602
0.133201
0.268296
0.378828
0.46154
0.521286
0.564064
0.593422
0.611601
0.62048
0.622125
-0.605938
-0.590925
-0.543473
-0.482534
-0.41629
-0.346011
-0.272563
-0.195947
-0.113205
-0.0141879
0.115691
0.259712
0.379844
0.469632
0.53492
0.583174
0.618316
0.640672
0.6487
0.646904
-0.617151
-0.601941
-0.553943
-0.492777
-0.426611
-0.356844
-0.28456
-0.210123
-0.130661
-0.0349096
0.0959984
0.249086
0.379566
0.476171
0.546307
0.59967
0.641497
0.672018
0.684051
0.672542
-0.627484
-0.612092
-0.563566
-0.502187
-0.436203
-0.367042
-0.296082
-0.224201
-0.148789
-0.057674
0.0728362
0.2355
0.377842
0.481257
0.55443
0.61051
0.657847
0.697694
0.717546
0.719821
-0.637007
-0.621544
-0.572254
-0.510772
-0.445091
-0.37659
-0.307073
-0.2381
-0.167478
-0.0825599
0.0456764
0.218313
0.37462
0.485047
0.55547
0.607681