/*--------------------------------*- C++ -*----------------------------------*\
  =========                 |
  \\      /  F ield         | OpenFOAM: The Open Source CFD Toolbox
   \\    /   O peration     | Website:  https://openfoam.org
    \\  /    A nd           | Version:  6
     \\/     M anipulation  |
\*---------------------------------------------------------------------------*/
FoamFile
{
    version     2.0;
    format      ascii;
    class       volScalarField;
    location    "117.6";
    object      p;
}
// * * * * * * * * * * * * * * * * * * * * * * * * * * * * * * * * * * * * * //

dimensions      [0 2 -2 0 0 0 0];

internalField   nonuniform List<scalar> 
8800
(
1.24329
1.19397
1.15601
1.12795
1.10779
1.09322
1.08263
1.07512
1.07026
1.06823
1.06964
1.07402
1.08084
1.09029
1.10304
1.12037
1.14425
1.17736
1.2203
1.27281
1.07777
1.08412
1.09327
1.09682
1.09422
1.08814
1.08122
1.07499
1.07022
1.06738
1.06719
1.06986
1.07454
1.08069
1.08781
1.09486
1.09975
1.09963
1.09296
1.08407
1.05127
1.05751
1.06201
1.06589
1.06885
1.06981
1.06874
1.06664
1.06469
1.0639
1.06498
1.06748
1.0704
1.07269
1.07323
1.07146
1.0681
1.0641
1.05932
1.05561
1.04694
1.04971
1.05232
1.05448
1.05623
1.05782
1.05894
1.05932
1.05925
1.0594
1.06026
1.06145
1.06223
1.06211
1.06116
1.05982
1.05817
1.05588
1.05347
1.05191
1.04184
1.04327
1.04512
1.04721
1.04894
1.05025
1.05137
1.05238
1.05324
1.05404
1.05481
1.05533
1.0554
1.05508
1.05444
1.05335
1.05171
1.04983
1.04848
1.04768
1.0368
1.03771
1.03896
1.0406
1.04231
1.04387
1.04518
1.04635
1.04747
1.04856
1.04942
1.04988
1.04995
1.04963
1.04887
1.04771
1.04637
1.04512
1.04431
1.04378
1.03183
1.03249
1.03346
1.03479
1.03626
1.03781
1.03933
1.04074
1.04207
1.04337
1.04441
1.045
1.04509
1.04471
1.04398
1.04307
1.04211
1.04123
1.04066
1.04028
1.02692
1.02743
1.02822
1.02938
1.03071
1.03216
1.03372
1.03532
1.03691
1.03848
1.03975
1.04047
1.04065
1.0404
1.0399
1.03926
1.03856
1.03792
1.03751
1.03721
1.02202
1.02242
1.02309
1.02414
1.0254
1.02681
1.02837
1.03008
1.03192
1.03379
1.03536
1.0363
1.03669
1.0367
1.03646
1.03605
1.03557
1.03514
1.03484
1.03459
1.01704
1.01737
1.01795
1.01893
1.02015
1.02156
1.02317
1.02501
1.02706
1.02927
1.03122
1.03251
1.03322
1.03352
1.03354
1.03339
1.03312
1.03286
1.03264
1.03243
1.01189
1.01216
1.01269
1.01362
1.01484
1.01629
1.018
1.02
1.02232
1.02493
1.02734
1.02908
1.03018
1.03082
1.03113
1.03123
1.03118
1.03107
1.03092
1.03074
1.00648
1.0067
1.00719
1.00812
1.00937
1.0109
1.01275
1.01499
1.01765
1.02075
1.02373
1.026
1.02756
1.02859
1.02923
1.02959
1.02977
1.02981
1.02972
1.02955
1.00069
1.00089
1.00136
1.0023
1.00363
1.0053
1.00735
1.00988
1.01298
1.01668
1.02035
1.02326
1.02536
1.02683
1.02785
1.02853
1.02895
1.02911
1.02907
1.02892
0.994433
0.994599
0.995074
0.996065
0.997515
0.999365
1.00168
1.0046
1.00824
1.01268
1.01719
1.02085
1.02359
1.02559
1.02705
1.02808
1.02875
1.02905
1.02905
1.02891
0.987563
0.987705
0.988196
0.989265
0.990879
0.992976
0.995642
0.999049
1.00336
1.0087
1.01422
1.01879
1.02229
1.02491
1.02686
1.0283
1.02926
1.02971
1.02974
1.0296
0.97993
0.980049
0.980567
0.981745
0.983574
0.985989
0.989097
0.993114
0.998255
1.00469
1.01142
1.01707
1.02146
1.02482
1.02737
1.02927
1.03056
1.03116
1.03123
1.03108
0.971325
0.971428
0.971981
0.973303
0.975411
0.978228
0.981891
0.986665
0.992823
1.00058
1.00877
1.01571
1.02116
1.02537
1.02864
1.0311
1.03275
1.0335
1.0336
1.03345
0.961465
0.961565
0.962187
0.96369
0.966157
0.96948
0.973836
0.979551
0.986958
0.996326
1.00625
1.01471
1.0214
1.02664
1.03075
1.03385
1.03591
1.03682
1.03695
1.03678
0.950055
0.950133
0.950848
0.952602
0.955511
0.959474
0.964704
0.971593
0.980539
0.991858
1.00385
1.01409
1.02224
1.02867
1.03375
1.03761
1.04012
1.04119
1.04133
1.04115
0.936646
0.936712
0.937537
0.939609
0.943087
0.947873
0.954216
0.962582
0.973433
0.987115
1.00155
1.01387
1.0237
1.0315
1.03771
1.04242
1.04542
1.04663
1.04677
1.04658
0.920625
0.920682
0.921663
0.92416
0.928387
0.934247
0.942032
0.952285
0.965512
0.982055
0.99937
1.01407
1.0258
1.03518
1.04266
1.04831
1.05179
1.05311
1.05324
1.05302
0.901134
0.901188
0.902395
0.905494
0.910743
0.918054
0.927754
0.940456
0.956667
0.976666
0.997323
1.01472
1.02858
1.03971
1.04857
1.05523
1.05914
1.06051
1.06061
1.06037
0.876907
0.876966
0.878533
0.882536
0.889261
0.89861
0.910941
0.926882
0.946854
0.970992
0.995469
1.01585
1.03204
1.04506
1.05541
1.06305
1.06728
1.06861
1.06865
1.0684
0.845961
0.846051
0.848243
0.853723
0.862768
0.87513
0.891194
0.911453
0.936135
0.965153
0.993911
1.01752
1.03619
1.05118
1.06306
1.07155
1.07588
1.07707
1.07703
1.07677
0.804933
0.805166
0.808656
0.81687
0.829856
0.846929
0.868336
0.894289
0.924735
0.959365
0.992798
1.01982
1.04102
1.05802
1.07136
1.08041
1.08455
1.08547
1.08535
1.0851
0.747403
0.748612
0.755622
0.769573
0.789468
0.813857
0.842691
0.875846
0.913066
0.953921
0.992309
1.02282
1.04654
1.06546
1.08004
1.08921
1.0928
1.09338
1.09319
1.09296
0.664054
0.672263
0.688474
0.712973
0.743228
0.77742
0.815291
0.856674
0.901345
0.948909
0.992589
1.02684
1.05329
1.07421
1.08964
1.09843
1.10125
1.10151
1.1013
1.10111
0.574903
0.59303
0.619396
0.655243
0.696436
0.740537
0.787401
0.837048
0.889368
0.944075
0.993684
1.03232
1.06204
1.0851
1.10101
1.10861
1.11038
1.11039
1.11022
1.11011
0.498203
0.520401
0.555243
0.60079
0.651656
0.705099
0.76071
0.818449
0.878185
0.939649
0.994703
1.03725
1.06978
1.09448
1.11015
1.1163
1.11734
1.11727
1.11715
1.11708
0.434894
0.459588
0.500264
0.552766
0.611177
0.672384
0.735671
0.800781
0.867385
0.93512
0.995176
1.04123
1.07618
1.10202
1.11721
1.12235
1.12304
1.12295
1.12285
1.1228
0.382046
0.408288
0.453196
0.511084
0.575494
0.643035
0.712794
0.784332
0.857095
0.930545
0.995199
1.0445
1.08163
1.10839
1.12304
1.12739
1.12786
1.12777
1.12768
1.12763
0.337087
0.36425
0.412294
0.474528
0.543943
0.616846
0.69215
0.769298
0.847547
0.926177
0.995029
1.0473
1.08642
1.1139
1.12796
1.13169
1.13203
1.13193
1.13185
1.13181
0.297931
0.325698
0.376182
0.44201
0.515687
0.593243
0.673439
0.7556
0.838812
0.922161
0.994839
1.0498
1.09066
1.11869
1.13216
1.13542
1.13566
1.13555
1.13548
1.13544
0.263069
0.291289
0.34377
0.412655
0.490025
0.571668
0.656255
0.742991
0.830781
0.918502
0.994676
1.05204
1.09444
1.12284
1.13576
1.13866
1.13882
1.13869
1.13862
1.13858
0.231443
0.260051
0.314212
0.385769
0.466393
0.551674
0.640235
0.731188
0.82328
0.915121
0.99454
1.05406
1.09776
1.1264
1.1388
1.14141
1.1415
1.14135
1.14127
1.14122
0.202202
0.231198
0.28686
0.360825
0.444346
0.532897
0.625081
0.719959
0.816138
0.911942
0.994441
1.05588
1.10066
1.12938
1.14126
1.14364
1.14367
1.14349
1.14339
1.14334
0.174912
0.20424
0.261264
0.337393
0.423531
0.51505
0.610566
0.709118
0.809217
0.908927
0.994426
1.0576
1.10319
1.13178
1.14313
1.14531
1.1453
1.1451
1.145
1.14493
0.14904
0.178774
0.237049
0.31516
0.403674
0.497901
0.596504
0.698514
0.802405
0.906031
0.994578
1.05935
1.10543
1.13363
1.14441
1.14643
1.1464
1.14621
1.14611
1.14603
0.124401
0.154535
0.213978
0.293898
0.38457
0.481283
0.582748
0.688025
0.795598
0.903212
0.994991
1.06132
1.10759
1.13506
1.14517
1.14706
1.14706
1.14691
1.14682
1.14674
0.100795
0.131334
0.191866
0.27345
0.366088
0.465072
0.569188
0.677543
0.788695
0.900396
0.995726
1.06377
1.10991
1.13624
1.14555
1.14735
1.14743
1.14733
1.14724
1.14716
0.0780687
0.109061
0.170604
0.253715
0.348122
0.449181
0.555746
0.666994
0.781605
0.897477
0.996793
1.06696
1.11283
1.13744
1.14561
1.14735
1.14763
1.14757
1.14746
1.14735
0.056098
0.087578
0.150132
0.234627
0.330625
0.433556
0.54237
0.656316
0.774245
0.894331
0.998124
1.07112
1.11688
1.13916
1.14546
1.14685
1.14747
1.14766
1.14758
1.14738
0.0349654
0.0669024
0.130413
0.216134
0.313559
0.418182
0.529028
0.645473
0.766555
0.890848
0.999573
1.07637
1.12269
1.14229
1.14557
1.14571
1.14653
1.14766
1.14814
1.14789
0.0146406
0.0470008
0.111403
0.198219
0.296916
0.403046
0.515726
0.634441
0.758491
0.886908
1.00094
1.08264
1.13081
1.1481
1.14761
1.14504
1.14536
1.148
1.15033
1.1506
-0.00497621
0.0278689
0.0930747
0.180866
0.280705
0.38817
0.502479
0.623229
0.750018
0.88241
1.00198
1.0897
1.14149
1.15794
1.15402
1.14809
1.14703
1.15127
1.15656
1.15874
-0.0237798
0.00949571
0.0754441
0.1641
0.264937
0.373587
0.489322
0.611864
0.741139
0.877282
1.00244
1.09713
1.15452
1.17233
1.16656
1.15775
1.15433
1.15746
1.16351
1.16653
-0.0418803
-0.00816429
0.0584797
0.147861
0.24955
0.359228
0.476174
0.600256
0.731735
0.871382
1.00204
1.10451
1.16951
1.19102
1.1854
1.17482
1.16758
1.16222
1.15639
1.16183
-0.0592381
-0.0251836
0.0420258
0.131945
0.234243
0.34477
0.462636
0.587951
0.721316
0.864165
1.00028
1.1113
1.18643
1.21429
1.21027
1.1989
1.18558
1.17073
1.14814
1.15457
-0.0757542
-0.0415742
0.0262212
0.116525
0.219251
0.330484
0.448862
0.5752
0.71006
0.855658
0.996726
1.11608
1.20336
1.24008
1.23707
1.22278
1.20368
1.17116
1.11802
1.09743
-0.0913461
-0.058404
0.0114824
0.102034
0.205377
0.316857
0.435124
0.562263
0.698213
0.845949
0.99118
1.11768
1.21764
1.26523
1.25825
1.23729
1.20394
1.14457
1.08412
1.0481
-0.133292
-0.0750594
-0.00191668
0.0874899
0.191832
0.30286
0.421568
0.548988
0.685503
0.834547
0.982869
1.11465
1.22567
1.28237
1.27314
1.22708
1.15715
1.08077
1.00976
0.970621
-0.105464
-0.0861305
-0.0222833
0.0677545
0.170787
0.281796
0.400137
0.527523
0.664222
0.813935
0.964339
1.09978
1.20889
1.27339
1.22787
1.08823
0.981003
0.906826
0.837093
0.854665
-0.135133
-0.10254
-0.0377775
0.05188
0.154621
0.265605
0.384389
0.5115
0.647823
0.796954
0.946563
1.08023
1.17844
1.21424
1.12967
0.963464
0.837619
0.75296
0.66495
0.699982
-0.157614
-0.122728
-0.0562277
0.0335152
0.136259
0.247361
0.366249
0.492887
0.628361
0.77595
0.922808
1.05122
1.13709
1.13515
0.996189
0.819996
0.676287
0.572426
0.47179
0.492732
-0.17921
-0.143377
-0.0755736
0.0148107
0.117676
0.228761
0.347288
0.473211
0.607476
0.752804
0.895223
1.01399
1.08071
1.04464
0.857352
0.664092
0.493223
0.351676
0.221967
0.222266
-0.200329
-0.16422
-0.0955939
-0.00465308
0.0983648
0.209292
0.327257
0.452231
0.584852
0.727202
0.863574
0.971275
1.01566
0.924794
0.719293
0.509451
0.315709
0.157295
-0.0477639
-0.129246
-0.221661
-0.185741
-0.116693
-0.025398
0.0777591
0.188522
0.305934
0.42983
0.560517
0.699292
0.828491
0.92592
0.939868
0.798635
0.591702
0.373106
0.176037
0.0136781
-0.107444
-0.216736
-0.244258
-0.208411
-0.139222
-0.0478086
0.0553198
0.165779
0.282483
0.405035
0.53329
0.667601
0.788847
0.871253
0.855602
0.678077
0.471372
0.259549
0.0794716
-0.0185071
-0.0438712
-0.0565792
-0.268282
-0.232526
-0.163305
-0.0719684
0.030903
0.140832
0.256516
0.377307
0.502506
0.631309
0.743123
0.805818
0.766476
0.561866
0.357965
0.166951
0.0306131
-0.00758714
-0.0155178
-0.0159137
-0.294032
-0.258219
-0.188984
-0.0978644
0.0045565
0.113662
0.227982
0.346552
0.468044
0.590387
0.691925
0.736227
0.657369
0.454579
0.257982
0.091933
0.0158907
0.00194104
0.0010872
0.00123585
-0.321507
-0.28553
-0.216289
-0.125505
-0.0237509
0.0842574
0.196847
0.312721
0.429888
0.544892
0.635415
0.660476
0.543452
0.356713
0.171688
0.0403078
0.0116752
0.0110349
0.0105156
0.0109306
-0.350466
-0.314304
-0.245134
-0.154826
-0.0539534
0.0526464
0.163107
0.275807
0.388084
0.494968
0.574337
0.577574
0.442986
0.267793
0.104659
0.0289125
0.0143638
0.0162914
0.0165482
0.0169345
-0.380359
-0.3442
-0.275269
-0.185612
-0.085881
0.0189664
0.126888
0.23591
0.342868
0.441235
0.508681
0.494711
0.351359
0.18992
0.0600196
0.0206839
0.0213505
0.0208134
0.0209897
0.0212691
-0.410745
-0.374693
-0.306213
-0.217457
-0.119196
-0.0164736
0.0884661
0.193307
0.29455
0.384718
0.437788
0.417133
0.270126
0.129022
0.0345144
0.0260346
0.0242589
0.0238608
0.0238827
0.0240293
-0.440623
-0.404925
-0.337258
-0.249745
-0.153358
-0.0532018
0.0483047
0.148503
0.243579
0.326298
0.367704
0.338565
0.201527
0.0862139
0.0296295
0.019381
0.0245873
0.0256585
0.0260243
0.0261891
-0.468465
-0.433645
-0.367381
-0.281601
-0.187596
-0.0905133
0.00708212
0.102262
0.190792
0.266449
0.302887
0.259119
0.146173
0.0533163
0.0299801
0.0273314
0.026869
0.0274483
0.0277219
0.0278773
-0.492926
-0.459368
-0.395207
-0.311837
-0.220858
-0.127465
-0.0343101
0.0555334
0.137497
0.205794
0.239643
0.191549
0.104922
0.0348827
0.0140093
0.0239577
0.0274764
0.0287053
0.0291142
0.029288
-0.511466
-0.480019
-0.419006
-0.338959
-0.251841
-0.162872
-0.0747488
0.00941121
0.085018
0.146255
0.176996
0.138936
0.0782831
0.0337211
0.0278155
0.028105
0.029631
0.0301529
0.0303242
0.0304686
-0.52214
-0.493575
-0.43675
-0.361253
-0.279035
-0.195354
-0.112905
-0.0348245
0.0344861
0.0904629
0.119953
0.0947739
0.0624508
0.0381806
0.036738
0.032446
0.030647
0.0302853
0.0301729
0.0302325
-0.522309
-0.497717
-0.446407
-0.376913
-0.300834
-0.223456
-0.147351
-0.0756676
-0.0128367
0.0389515
0.0721565
0.0539495
0.0463831
0.0343682
0.0305133
0.029026
0.0279562
0.0275264
0.0273771
0.0273922
-0.509549
-0.489729
-0.445853
-0.384237
-0.315802
-0.245817
-0.176765
-0.111596
-0.0551469
-0.00950627
0.0360325
0.0150293
0.0251856
0.0154892
0.016542
0.0202486
0.0216843
0.021873
0.0218338
0.0218699
-0.482082
-0.467692
-0.433386
-0.382071
-0.322925
-0.261468
-0.200121
-0.141523
-0.0906629
-0.05272
-0.00509336
-0.00171165
0.00490326
-0.00499038
0.00359586
0.00991005
0.0135714
0.0142766
0.0141325
0.0141626
-0.443428
-0.434297
-0.410396
-0.370807
-0.3223
-0.270187
-0.216857
-0.164847
-0.118816
-0.0864436
-0.055178
-0.0267706
0.00267789
0.00202189
-0.00347417
0.00109719
0.00195445
0.00134661
0.000789263
0.000807553
-0.40063
-0.395422
-0.381779
-0.35358
-0.316057
-0.272856
-0.227104
-0.181188
-0.139048
-0.107876
-0.0802422
-0.0519887
-0.0148255
0.0148991
0.0315539
0.0170971
-0.00879377
-0.0225866
-0.0267042
-0.0273763
-0.363272
-0.360069
-0.353536
-0.335634
-0.307024
-0.271284
-0.231881
-0.19056
-0.150347
-0.117608
-0.0921163
-0.0760513
-0.0725787
-0.0911145
-0.123372
-0.16117
-0.165978
-0.127781
-0.104229
-0.105496
-0.336325
-0.334423
-0.331155
-0.320606
-0.298767
-0.268556
-0.233108
-0.19395
-0.153419
-0.116668
-0.0893265
-0.0840295
-0.129556
-0.207328
-0.28312
-0.317273
-0.318059
-0.280768
-0.233432
-0.215642
-0.316569
-0.315902
-0.314822
-0.309637
-0.29371
-0.267114
-0.232802
-0.19327
-0.149726
-0.106008
-0.075316
-0.0500918
-0.0386258
-0.0569139
-0.103323
-0.113837
-0.098273
-0.0729067
-0.0427403
-0.0279188
-0.304918
-0.304699
-0.304107
-0.301801
-0.291063
-0.266643
-0.231939
-0.19014
-0.141846
-0.0882816
-0.0420742
0.0210095
0.102191
0.178611
0.224209
0.257229
0.290944
0.323954
0.351795
0.365628
-0.296779
-0.296634
-0.296238
-0.295638
-0.28916
-0.267263
-0.231506
-0.186191
-0.132025
-0.0664141
0.00177215
0.0893268
0.231639
0.409781
0.57629
0.707208
0.797277
0.854207
0.888174
0.90249
-0.291358
-0.291316
-0.291205
-0.291068
-0.287347
-0.269007
-0.232269
-0.182621
-0.122385
-0.0462487
0.0398403
0.137295
0.32277
0.582231
0.852955
1.08979
1.25848
1.35324
1.39511
1.40897
-0.286866
-0.286859
-0.286788
-0.286705
-0.285399
-0.27115
-0.234354
-0.181044
-0.115488
-0.0320414
0.0650213
0.168069
0.364591
0.656913
0.977195
1.27012
1.4926
1.61554
1.66286
1.6754
-0.282995
-0.282981
-0.282855
-0.282608
-0.282523
-0.272658
-0.237737
-0.182614
-0.112962
-0.0260036
0.0754118
0.179967
0.358506
0.637075
0.944018
1.22878
1.45339
1.58
1.62812
1.63984
-0.280014
-0.280003
-0.279937
-0.279884
-0.280286
-0.273474
-0.242282
-0.186787
-0.115552
-0.0285008
0.0704678
0.167975
0.314539
0.558976
0.819202
1.05254
1.24027
1.35016
1.39275
1.40307
-0.277021
-0.277075
-0.277235
-0.277553
-0.277797
-0.274266
-0.247076
-0.193287
-0.122935
-0.0385326
0.0529254
0.139146
0.251306
0.450545
0.661287
0.837603
0.977259
1.06163
1.09481
1.10267
-0.273892
-0.273978
-0.274099
-0.274227
-0.274397
-0.273244
-0.250964
-0.200725
-0.133683
-0.0548013
0.0274145
0.101292
0.183346
0.335761
0.500063
0.631568
0.732208
0.79266
0.816164
0.821136
-0.270876
-0.27099
-0.271156
-0.271376
-0.271781
-0.271394
-0.253689
-0.208043
-0.146349
-0.0747155
-0.00206404
0.0602218
0.119714
0.232616
0.356491
0.45299
0.525154
0.56795
0.583942
0.586964
-0.267782
-0.267931
-0.268165
-0.26855
-0.269213
-0.269516
-0.255181
-0.214566
-0.159663
-0.0958169
-0.0324025
0.0195634
0.0627849
0.145863
0.238356
0.308207
0.359314
0.388778
0.399104
0.400613
-0.264776
-0.264895
-0.264959
-0.264932
-0.265053
-0.265543
-0.254303
-0.220168
-0.172633
-0.115953
-0.0610901
-0.0183014
0.0144307
0.0756181
0.143996
0.194058
0.229691
0.250088
0.256982
0.257707
-0.263002
-0.262969
-0.262526
-0.261121
-0.258832
-0.257981
-0.251888
-0.225489
-0.184498
-0.133885
-0.0874639
-0.0519512
-0.0268645
0.0197059
0.0703951
0.1059
0.130647
0.144224
0.148478
0.148664
-0.263752
-0.263618
-0.263008
-0.26125
-0.258276
-0.256492
-0.252798
-0.232096
-0.194645
-0.149395
-0.110766
-0.0808537
-0.0603431
-0.0250971
0.0130737
0.0387796
0.0562939
0.0655848
0.0684779
0.0683574
-0.266313
-0.266405
-0.266851
-0.268191
-0.270093
-0.270221
-0.265209
-0.241877
-0.203411
-0.163257
-0.131386
-0.10427
-0.0869681
-0.0592655
-0.0301954
-0.0108065
0.00254251
0.00958311
0.0116906
0.0114041
-0.266824
-0.267454
-0.269959
-0.277571
-0.289187
-0.292524
-0.282653
-0.250825
-0.210744
-0.176942
-0.148092
-0.122192
-0.108309
-0.0857807
-0.0614142
-0.0453897
-0.0344799
-0.0289558
-0.027276
-0.027631
-0.262397
-0.263178
-0.266156
-0.275384
-0.291112
-0.298696
-0.282191
-0.24898
-0.216392
-0.188559
-0.158772
-0.135752
-0.12431
-0.105009
-0.0839059
-0.0693465
-0.0589037
-0.0533872
-0.0517708
-0.0522154
-0.258256
-0.258691
-0.25922
-0.256092
-0.248532
-0.246239
-0.244254
-0.234269
-0.217795
-0.19307
-0.164387
-0.145094
-0.135676
-0.117069
-0.0970035
-0.0831724
-0.0732438
-0.0680412
-0.0665529
-0.0670699
-0.260605
-0.260257
-0.25663
-0.236561
-0.197657
-0.174933
-0.194771
-0.215847
-0.215875
-0.19231
-0.16574
-0.150641
-0.141358
-0.123691
-0.104768
-0.0910231
-0.0811221
-0.0759234
-0.0744291
-0.0749883
-0.27486
-0.272775
-0.267979
-0.251837
-0.222628
-0.203079
-0.217306
-0.236343
-0.224873
-0.191984
-0.165496
-0.151591
-0.141851
-0.123911
-0.105695
-0.0925527
-0.0831183
-0.0783173
-0.0769504
-0.0775053
-0.321774
-0.32209
-0.334775
-0.3556
-0.360414
-0.344011
-0.323537
-0.292697
-0.243315
-0.191966
-0.162861
-0.147663
-0.136572
-0.118637
-0.101072
-0.0882267
-0.0792916
-0.0748711
-0.0736645
-0.0741781
-0.401782
-0.411152
-0.44002
-0.471241
-0.481077
-0.463236
-0.421101
-0.342349
-0.252989
-0.187172
-0.155199
-0.137247
-0.124238
-0.107054
-0.0905553
-0.0777986
-0.0689642
-0.0645746
-0.0634568
-0.063999
-0.444755
-0.456874
-0.481427
-0.503798
-0.511785
-0.493891
-0.441557
-0.339516
-0.238211
-0.170716
-0.137031
-0.116648
-0.105265
-0.0897344
-0.0737601
-0.0613882
-0.0527638
-0.0484751
-0.0475847
-0.0482304
-0.3953
-0.405566
-0.425044
-0.442262
-0.449346
-0.434001
-0.379204
-0.275732
-0.191196
-0.136894
-0.104011
-0.0871481
-0.0804383
-0.066934
-0.0523951
-0.0412686
-0.0335332
-0.0296846
-0.0292746
-0.0300919
-0.247158
-0.258847
-0.278727
-0.298942
-0.307976
-0.295062
-0.245015
-0.169579
-0.118584
-0.0826604
-0.0594385
-0.0514726
-0.049313
-0.0384538
-0.0284871
-0.0215335
-0.0154405
-0.0124413
-0.0127356
-0.0137481
-0.00360059
-0.00925234
-0.0297964
-0.0595647
-0.0727813
-0.0719123
-0.0624203
-0.043283
-0.0326548
-0.0216649
-0.0150081
-0.011886
-0.00989985
-0.00911877
-0.00550798
-0.0061837
-0.00621062
-0.00627935
-0.00525047
-0.0044905
0.342325
0.521544
0.684237
0.820605
0.927083
1.00857
1.07521
1.1296
1.14282
1.14067
0.611169
0.724799
0.830817
0.92141
0.996496
1.05768
1.1057
1.13829
1.15601
1.17337
0.793016
0.868236
0.942544
1.00727
1.06202
1.10731
1.14319
1.17095
1.19193
1.21133
0.928524
0.982225
1.0361
1.08436
1.12599
1.16153
1.19157
1.21695
1.23651
1.25542
1.03914
1.07987
1.12005
1.15781
1.19168
1.22177
1.2482
1.27075
1.28833
1.30642
1.13205
1.16614
1.1996
1.23177
1.26154
1.28861
1.31263
1.33291
1.34835
1.36584
1.2177
1.24867
1.27986
1.3101
1.33828
1.36398
1.38657
1.40513
1.41879
1.43578
1.30295
1.33495
1.36672
1.39736
1.42565
1.45101
1.47279
1.49006
1.50225
1.51873
1.39633
1.43251
1.46692
1.49902
1.52787
1.55292
1.5738
1.58989
1.60136
1.61746
1.50891
1.54959
1.58633
1.61892
1.64714
1.67092
1.69038
1.70552
1.71732
1.73335
1.65024
1.69099
1.72608
1.75545
1.78049
1.80197
1.82038
1.83578
1.84884
1.86475
1.82139
1.85326
1.88018
1.90249
1.92251
1.94117
1.95885
1.97558
1.99046
2.00616
2.00735
2.02452
2.04157
2.05822
2.07429
2.089
2.10288
2.11733
2.13254
2.14984
2.19071
2.20059
2.21373
2.2247
2.2341
2.24375
2.25433
2.26448
2.27376
2.29942
2.40845
2.40274
2.38979
2.37554
2.36922
2.37491
2.39304
2.42156
2.45532
2.49164
2.71129
2.57534
2.4958
2.45322
2.43589
2.43989
2.4673
2.52516
2.63281
2.81122
1.14698
1.14068
1.13295
1.12184
1.10828
1.09564
1.08527
1.07729
1.07161
1.06834
1.06806
1.07097
1.07626
1.08366
1.09324
1.10509
1.11867
1.13161
1.14061
1.14815
1.05603
1.06195
1.07002
1.07616
1.07924
1.07875
1.07568
1.07172
1.06818
1.06596
1.0659
1.06824
1.07205
1.07655
1.08068
1.08295
1.0819
1.07728
1.07023
1.0624
1.04924
1.05161
1.05489
1.05767
1.06013
1.06234
1.06355
1.06344
1.06255
1.06182
1.06212
1.06363
1.06548
1.06676
1.06673
1.06529
1.06316
1.06081
1.05784
1.05483
1.0444
1.04549
1.04742
1.04977
1.05166
1.05308
1.05432
1.05536
1.05602
1.05648
1.05714
1.05799
1.05854
1.05848
1.05791
1.05702
1.05572
1.05377
1.05168
1.0502
1.03932
1.03995
1.04109
1.04286
1.04472
1.04634
1.04763
1.04875
1.0498
1.05079
1.0517
1.05235
1.05259
1.05246
1.05198
1.05105
1.04966
1.04808
1.04676
1.04596
1.03431
1.03475
1.03555
1.03687
1.03842
1.04001
1.04153
1.04289
1.04413
1.04533
1.04643
1.04718
1.04748
1.04734
1.04675
1.04581
1.0447
1.04359
1.04271
1.04218
1.02938
1.0297
1.03032
1.03141
1.03274
1.03418
1.03571
1.03726
1.03875
1.04019
1.04151
1.04244
1.04281
1.04269
1.04218
1.04147
1.04068
1.03987
1.03923
1.03884
1.02448
1.02473
1.02524
1.02617
1.02738
1.02874
1.03022
1.03184
1.03354
1.03526
1.03687
1.03801
1.03853
1.03858
1.03831
1.03786
1.03729
1.03672
1.03627
1.03597
1.01955
1.01975
1.02017
1.021
1.02214
1.02346
1.02495
1.02662
1.02849
1.03049
1.03244
1.03388
1.03469
1.03501
1.03502
1.03481
1.03447
1.0341
1.03379
1.03356
1.0145
1.01466
1.01502
1.01578
1.01688
1.0182
1.01973
1.02151
1.02356
1.02586
1.02821
1.03008
1.03126
1.03193
1.03222
1.03228
1.03218
1.032
1.03181
1.03162
1.00923
1.00936
1.00968
1.0104
1.01149
1.01284
1.01446
1.0164
1.0187
1.02137
1.0242
1.02659
1.02823
1.02928
1.02991
1.03025
1.03039
1.0304
1.03032
1.03017
1.00364
1.00374
1.00404
1.00475
1.00587
1.0073
1.00906
1.0112
1.01382
1.01695
1.02039
1.0234
1.02558
1.02709
1.0281
1.02876
1.02916
1.02936
1.02937
1.02925
0.997636
0.997716
0.997996
0.998714
0.999902
1.00146
1.00341
1.00584
1.00886
1.01257
1.01674
1.0205
1.02331
1.02535
1.02681
1.02784
1.02854
1.02892
1.02901
1.02891
0.991088
0.991148
0.991422
0.992175
0.993464
0.995199
0.997399
1.0002
1.00374
1.00815
1.01321
1.01787
1.02145
1.02412
1.02608
1.02754
1.02856
1.02915
1.02933
1.02924
0.983858
0.983894
0.984173
0.984982
0.986411
0.988377
0.99091
0.994173
0.998355
1.00363
1.00977
1.01551
1.01999
1.0234
1.02598
1.02792
1.02932
1.03014
1.03039
1.03032
0.975766
0.975784
0.976069
0.976957
0.97857
0.980832
0.983787
0.987632
0.992606
0.998936
1.00638
1.0134
1.01896
1.02325
1.02655
1.02908
1.03091
1.03197
1.0323
1.03223
0.966564
0.966569
0.966878
0.967872
0.969725
0.972362
0.975847
0.980417
0.98637
0.993989
1.00299
1.01155
1.01838
1.02371
1.02785
1.03108
1.03341
1.03474
1.03515
1.03508
0.955976
0.955956
0.956306
0.95745
0.959603
0.962715
0.966866
0.972342
0.979506
0.988699
0.999586
1.00996
1.01828
1.02482
1.02997
1.03401
1.03691
1.03852
1.03901
1.03893
0.943618
0.943577
0.943977
0.945312
0.947847
0.951566
0.956564
0.963183
0.971853
0.982973
0.996117
1.00863
1.01868
1.02664
1.03296
1.03793
1.04148
1.04338
1.04392
1.04384
0.928965
0.928901
0.929385
0.930974
0.933999
0.938507
0.944596
0.952672
0.963234
0.976719
0.99256
1.00756
1.01961
1.02919
1.03687
1.04288
1.04713
1.04931
1.04989
1.04979
0.911291
0.911204
0.911817
0.913764
0.917449
0.923005
0.930532
0.940503
0.953469
0.969867
0.988913
1.00679
1.0211
1.0325
1.04167
1.04886
1.05384
1.05626
1.05684
1.05672
0.889548
0.889445
0.89027
0.89274
0.897355
0.904363
0.913854
0.926349
0.942407
0.962391
0.98521
1.00635
1.02316
1.03657
1.04738
1.05583
1.06149
1.06406
1.0646
1.06444
0.862146
0.862045
0.863228
0.866514
0.872551
0.881683
0.893972
0.909915
0.929974
0.954345
0.981535
1.00629
1.02583
1.04139
1.05393
1.06365
1.06986
1.07243
1.07288
1.07269
0.826504
0.826462
0.8283
0.833003
0.841435
0.853934
0.87036
0.891057
0.916251
0.945894
0.978042
1.00673
1.02914
1.04694
1.06125
1.07213
1.07862
1.081
1.0813
1.08108
0.778035
0.778238
0.781532
0.789238
0.802155
0.820224
0.842829
0.869966
0.901559
0.937334
0.974944
1.00778
1.03313
1.05316
1.0692
1.08097
1.08732
1.08929
1.08942
1.08918
0.708135
0.709679
0.717743
0.732414
0.753657
0.780635
0.811979
0.847323
0.886464
0.929064
0.972471
1.00956
1.03784
1.05998
1.07747
1.08966
1.09539
1.09678
1.09676
1.09654
0.624537
0.627497
0.643261
0.668727
0.701431
0.738882
0.779642
0.823587
0.870636
0.920551
0.970433
1.01255
1.04448
1.06928
1.08817
1.10011
1.10491
1.10581
1.10574
1.10561
0.538612
0.546321
0.570076
0.606317
0.650055
0.69778
0.747951
0.800515
0.85547
0.912641
0.968917
1.01596
1.05142
1.07881
1.09893
1.11004
1.11341
1.11376
1.11366
1.11359
0.467935
0.477922
0.506714
0.55058
0.602943
0.659327
0.717948
0.778559
0.841005
0.905021
0.967232
1.01873
1.0573
1.08675
1.10732
1.11739
1.11991
1.12009
1.12001
1.11996
0.409748
0.420519
0.453164
0.502662
0.561522
0.624787
0.690451
0.758067
0.827246
0.897533
0.965198
1.0208
1.06217
1.09333
1.11413
1.12331
1.12526
1.12535
1.12528
1.12525
0.360756
0.371927
0.407245
0.461119
0.525244
0.594174
0.66573
0.739352
0.814455
0.890386
0.963029
1.0224
1.06635
1.09903
1.11989
1.12826
1.12981
1.12985
1.12979
1.12977
0.318556
0.32991
0.367215
0.424587
0.493086
0.566847
0.643503
0.722381
0.802756
0.883776
0.960956
1.02375
1.07005
1.10404
1.12482
1.13249
1.13376
1.13376
1.13371
1.13369
0.281429
0.292851
0.331708
0.391967
0.464178
0.542119
0.623279
0.706878
0.792048
0.877733
0.95907
1.02497
1.07336
1.10844
1.12905
1.13613
1.1372
1.13716
1.13711
1.13709
0.24812
0.259565
0.299641
0.362385
0.437817
0.519429
0.604608
0.692507
0.782111
0.872161
0.957361
1.02608
1.07632
1.1123
1.13268
1.13926
1.14016
1.14009
1.14002
1.14
0.217598
0.229077
0.27023
0.335168
0.413457
0.498331
0.587127
0.678969
0.772727
0.866927
0.955791
1.02709
1.07894
1.11562
1.13571
1.14186
1.14263
1.14251
1.14242
1.1424
0.189272
0.200791
0.242897
0.309808
0.390651
0.47846
0.570548
0.666034
0.763709
0.86192
0.954345
1.02806
1.08127
1.11846
1.13814
1.14389
1.14456
1.14441
1.1443
1.14426
0.162645
0.174216
0.217201
0.285907
0.369061
0.459533
0.55464
0.653512
0.754913
0.85705
0.953044
1.0291
1.08343
1.1208
1.13996
1.14534
1.14594
1.14577
1.14566
1.14561
0.137313
0.149018
0.192821
0.263183
0.34844
0.441331
0.53922
0.641259
0.746213
0.852238
0.951914
1.03032
1.08556
1.12278
1.14123
1.14625
1.1468
1.14666
1.14656
1.1465
0.113119
0.124975
0.169552
0.241428
0.328601
0.423704
0.524153
0.629152
0.737502
0.847388
0.95095
1.03192
1.0879
1.12457
1.14207
1.14671
1.14727
1.14718
1.14711
1.14706
0.0898443
0.101901
0.147215
0.220512
0.309425
0.406537
0.509339
0.617097
0.728687
0.842406
0.950103
1.03404
1.09079
1.12647
1.14262
1.14684
1.1475
1.1475
1.14743
1.14737
0.0674681
0.0797041
0.125722
0.200353
0.290833
0.389761
0.494717
0.605033
0.719694
0.837183
0.949279
1.03678
1.09463
1.12894
1.14311
1.1466
1.14745
1.14766
1.14759
1.14748
0.0458507
0.0583192
0.10505
0.180899
0.272773
0.373333
0.480244
0.592918
0.710465
0.831625
0.948338
1.04014
1.09982
1.13267
1.14401
1.14591
1.1467
1.14741
1.14775
1.14769
0.0251201
0.0377235
0.0851547
0.162105
0.255225
0.357254
0.465906
0.580726
0.70096
0.825661
0.94712
1.044
1.10666
1.13859
1.14643
1.14545
1.14527
1.14669
1.14847
1.14907
0.00508761
0.017905
0.0660144
0.143938
0.238164
0.341502
0.451724
0.568454
0.691157
0.819234
0.945459
1.04814
1.11522
1.14759
1.15227
1.14762
1.14518
1.14701
1.15115
1.1536
-0.0141371
-0.00110526
0.0475989
0.126404
0.221626
0.32611
0.43772
0.556147
0.681061
0.812271
0.943195
1.05222
1.12528
1.16013
1.16321
1.15529
1.15009
1.1515
1.15787
1.16353
-0.0326544
-0.0194113
0.029928
0.109525
0.205607
0.311101
0.423933
0.543824
0.670696
0.804776
0.940189
1.05584
1.13632
1.17588
1.17952
1.16984
1.16193
1.15994
1.16022
1.15702
-0.0503931
-0.0370034
0.0129015
0.0931196
0.189878
0.296195
0.410039
0.531105
0.659661
0.79633
0.936064
1.05868
1.14827
1.19514
1.20156
1.19168
1.18117
1.17073
1.15932
1.16182
-0.067359
-0.053985
-0.00351371
0.0772267
0.174428
0.281404
0.396038
0.517933
0.647867
0.786711
0.930431
1.05989
1.15987
1.2169
1.22757
1.21816
1.2033
1.18892
1.15273
1.11741
-0.0833854
-0.0702288
-0.0193243
0.0619704
0.159232
0.266697
0.381898
0.504401
0.635313
0.775836
0.922955
1.05859
1.169
1.23883
1.255
1.24208
1.22054
1.1865
1.13362
1.08351
-0.101183
-0.0846603
-0.0343494
0.0478208
0.144561
0.25231
0.36722
0.490523
0.622043
0.763734
0.913389
1.05401
1.17291
1.2587
1.28181
1.26107
1.21536
1.15294
1.08293
1.02451
-0.0890708
-0.0636709
-0.00854044
0.0775299
0.181491
0.292574
0.413618
0.541069
0.677701
0.8271
0.976447
1.10986
1.22157
1.29632
1.28517
1.19325
1.12423
1.04991
0.97958
0.935207
-0.10211
-0.0940215
-0.0516453
0.0248516
0.121813
0.228848
0.344381
0.46788
0.599755
0.742164
0.893579
1.03846
1.16275
1.25546
1.29033
1.23667
1.10772
1.01716
0.950485
0.874851
-0.122255
-0.111383
-0.0654126
0.0125408
0.110169
0.21679
0.331435
0.454258
0.58577
0.727858
0.879477
1.02544
1.14869
1.22863
1.23006
1.10969
0.963372
0.867847
0.795259
0.716982
-0.144332
-0.132303
-0.0831693
-0.00423911
0.0933801
0.200312
0.315227
0.438134
0.569267
0.710751
0.860933
1.00418
1.11805
1.18163
1.13915
0.975085
0.821027
0.711274
0.624883
0.514631
-0.165772
-0.153753
-0.103
-0.0229291
0.074725
0.181832
0.296783
0.419375
0.549789
0.689989
0.83751
0.975425
1.0784
1.11572
1.02465
0.832762
0.65914
0.523018
0.412551
0.269125
-0.186887
-0.174962
-0.12323
-0.0421589
0.0558171
0.162958
0.277607
0.399514
0.528824
0.667111
0.810937
0.941847
1.03434
1.02953
0.889237
0.686437
0.489078
0.316948
0.171274
-0.0715655
-0.208135
-0.19641
-0.144137
-0.0624367
0.0358198
0.142989
0.257266
0.37838
0.506324
0.642181
0.781436