/*--------------------------------*- C++ -*----------------------------------*\
  =========                 |
  \\      /  F ield         | OpenFOAM: The Open Source CFD Toolbox
   \\    /   O peration     | Website:  https://openfoam.org
    \\  /    A nd           | Version:  6
     \\/     M anipulation  |
\*---------------------------------------------------------------------------*/
FoamFile
{
    version     2.0;
    format      ascii;
    class       volScalarField;
    location    "82";
    object      p;
}
// * * * * * * * * * * * * * * * * * * * * * * * * * * * * * * * * * * * * * //

dimensions      [0 2 -2 0 0 0 0];

internalField   nonuniform List<scalar> 
8800
(
0.862962
0.813647
0.775682
0.747614
0.727453
0.712866
0.702268
0.694729
0.689845
0.687777
0.68915
0.693496
0.700291
0.709717
0.722456
0.739778
0.763657
0.796755
0.839693
0.892208
0.697454
0.703799
0.712949
0.716498
0.71389
0.707802
0.700862
0.694621
0.68982
0.686952
0.686723
0.689355
0.694
0.700132
0.707234
0.71427
0.719151
0.719028
0.712355
0.703457
0.670966
0.677202
0.681702
0.685574
0.688523
0.689473
0.688385
0.686265
0.684286
0.68345
0.684486
0.686944
0.689835
0.692109
0.692634
0.690848
0.687485
0.683474
0.678695
0.674979
0.666659
0.669425
0.672032
0.674191
0.675929
0.677499
0.678603
0.678958
0.678847
0.67895
0.679761
0.68091
0.681658
0.681513
0.680543
0.679193
0.677527
0.675228
0.67282
0.671253
0.661595
0.663021
0.664861
0.666943
0.668657
0.669952
0.671052
0.672035
0.672849
0.673592
0.674312
0.674781
0.674813
0.674458
0.673797
0.672688
0.671037
0.669147
0.667796
0.666994
0.656594
0.657498
0.658745
0.660374
0.662069
0.663604
0.664892
0.666019
0.66709
0.668118
0.668915
0.669318
0.66934
0.668983
0.66819
0.66701
0.665656
0.664396
0.663577
0.663053
0.651672
0.652328
0.653291
0.65461
0.656061
0.657581
0.659072
0.660443
0.661715
0.662934
0.663902
0.664414
0.664448
0.664027
0.66326
0.662329
0.661347
0.660449
0.659873
0.659488
0.646826
0.647331
0.648118
0.649262
0.650566
0.651989
0.653505
0.655056
0.656581
0.658056
0.659234
0.659868
0.659969
0.659669
0.659123
0.65845
0.657726
0.657072
0.656649
0.656349
0.641999
0.642401
0.643063
0.644088
0.645324
0.646696
0.648212
0.649865
0.651614
0.653384
0.654831
0.65567
0.655976
0.655915
0.655619
0.655173
0.65466
0.654203
0.653892
0.653648
0.637111
0.637438
0.638013
0.638962
0.640155
0.641522
0.643079
0.644842
0.6468
0.648885
0.650682
0.651846
0.652455
0.652673
0.652626
0.652417
0.652109
0.651817
0.651591
0.651386
0.63207
0.632342
0.632858
0.633763
0.634945
0.636345
0.637988
0.639907
0.642113
0.644566
0.646803
0.648383
0.649358
0.649893
0.65012
0.650153
0.650051
0.649907
0.64975
0.649572
0.626786
0.627014
0.627493
0.628386
0.629597
0.631074
0.632847
0.634978
0.637505
0.640416
0.643189
0.645267
0.646669
0.647568
0.648104
0.648386
0.6485
0.648494
0.648394
0.648235
0.621162
0.621357
0.621818
0.622727
0.624008
0.625607
0.627567
0.62998
0.632918
0.636396
0.639818
0.642491
0.644394
0.645711
0.646597
0.647165
0.647501
0.647625
0.647571
0.647425
0.615091
0.615258
0.615719
0.616674
0.618066
0.61984
0.622054
0.624833
0.628285
0.63246
0.636669
0.640053
0.642549
0.644353
0.645642
0.646538
0.647107
0.647359
0.647347
0.647208
0.608447
0.608592
0.609067
0.610097
0.611645
0.613654
0.616203
0.619447
0.623537
0.628565
0.633725
0.63796
0.641161
0.643538
0.645287
0.646552
0.647388
0.647774
0.647799
0.647663
0.601084
0.601205
0.60171
0.602844
0.6046
0.606916
0.60989
0.613719
0.618599
0.624667
0.630972
0.636222
0.640256
0.643312
0.645607
0.6473
0.648434
0.648958
0.649018
0.64888
0.592811
0.592916
0.593458
0.59473
0.596753
0.599459
0.602969
0.607528
0.613382
0.620715
0.628396
0.634855
0.639872
0.643725
0.646677
0.648871
0.65034
0.65101
0.651101
0.650957
0.583357
0.583462
0.584069
0.585514
0.587884
0.591084
0.595267
0.600735
0.60779
0.616662
0.62599
0.633879
0.640057
0.644848
0.64857
0.651356
0.653203
0.654025
0.654143
0.653991
0.572426
0.57251
0.573201
0.574896
0.577708
0.581537
0.586572
0.593177
0.601715
0.612456
0.623751
0.633322
0.64086
0.646756
0.651368
0.654843
0.657113
0.65809
0.658229
0.658063
0.559614
0.559687
0.560483
0.562489
0.565863
0.5705
0.576623
0.584665
0.595044
0.608055
0.621684
0.633218
0.642327
0.649503
0.655155
0.659416
0.662139
0.663265
0.663415
0.663234
0.544334
0.544397
0.545345
0.547768
0.551883
0.557578
0.565112
0.57499
0.587669
0.603432
0.61981
0.633607
0.644505
0.653147
0.659976
0.665115
0.668311
0.669566
0.669714
0.669514
0.525779
0.525836
0.527001
0.530014
0.535143
0.542266
0.551675
0.563936
0.579505
0.598595
0.618171
0.634531
0.647444
0.65772
0.665853
0.671949
0.675595
0.676937
0.677065
0.676845
0.502729
0.502792
0.504311
0.508214
0.514801
0.52393
0.535911
0.551321
0.57053
0.593607
0.616842
0.636047
0.651168
0.663234
0.672774
0.679842
0.683867
0.685229
0.685315
0.685076
0.473342
0.473436
0.475559
0.480899
0.48976
0.501851
0.517469
0.537074
0.560836
0.58861
0.615943
0.638228
0.655699
0.66966
0.680674
0.68864
0.692894
0.694181
0.694202
0.69395
0.434421
0.43465
0.438026
0.446022
0.458727
0.475406
0.496225
0.521353
0.550681
0.583841
0.615638
0.641164
0.661058
0.676934
0.689407
0.698079
0.702324
0.703423
0.703364
0.703107
0.379908
0.381052
0.387787
0.401312
0.420744
0.444528
0.472552
0.504651
0.540507
0.579619
0.616115
0.644946
0.667248
0.684974
0.698746
0.707788
0.711705
0.71252
0.712383
0.712131
0.301032
0.308773
0.324266
0.347946
0.377431
0.410726
0.447511
0.487569
0.530605
0.576132
0.617617
0.649963
0.674858
0.69455
0.709373
0.718419
0.721814
0.722334
0.722148
0.721936
0.217104
0.234028
0.259189
0.293777
0.333854
0.376792
0.422338
0.470449
0.520931
0.573374
0.620535
0.65698
0.68494
0.706799
0.722559
0.731008
0.733553
0.733777
0.733615
0.73348
0.145128
0.165827
0.199056
0.243005
0.292476
0.344492
0.398562
0.454574
0.512301
0.571318
0.623699
0.663766
0.694299
0.717818
0.733848
0.741407
0.743296
0.743416
0.743291
0.743189
0.0861474
0.10915
0.147916
0.198574
0.255381
0.314987
0.376573
0.439824
0.504311
0.56948
0.626661
0.669978
0.702632
0.727288
0.74335
0.750312
0.751907
0.752006
0.751914
0.751822
0.0372596
0.0616311
0.104402
0.160289
0.222958
0.288802
0.35678
0.426412
0.497047
0.56792
0.62958
0.67586
0.710396
0.736012
0.752052
0.758578
0.760025
0.760147
0.760095
0.760011
-0.00416765
0.0210048
0.0667277
0.126858
0.194466
0.265633
0.339146
0.414426
0.490652
0.566831
0.63274
0.681835
0.718148
0.744591
0.760594
0.766832
0.768183
0.768347
0.768342
0.768267
-0.0402026
-0.0145107
0.0335113
0.0971642
0.169002
0.244821
0.323269
0.403673
0.485069
0.566277
0.636269
0.68811
0.726112
0.753396
0.769445
0.775494
0.776858
0.777066
0.777106
0.777045
-0.0723688
-0.0462706
0.00363584
0.0702961
0.145814
0.22574
0.308652
0.393796
0.480061
0.5661
0.640096
0.694679
0.734435
0.762621
0.778879
0.784977
0.786322
0.786538
0.786614
0.786571
-0.101722
-0.075257
-0.0237491
0.0455321
0.1243
0.207894
0.294864
0.384409
0.475324
0.566066
0.644065
0.701435
0.743031
0.772282
0.788954
0.795176
0.796518
0.796712
0.796774
0.796742
-0.129099
-0.102249
-0.0493109
0.0223367
0.103994
0.190882
0.281558
0.37521
0.470573
0.565952
0.647984
0.708223
0.751747
0.782157
0.79932
0.805717
0.807062
0.807208
0.807249
0.807233
-0.154926
-0.127714
-0.0734641
0.00029336
0.0845409
0.174405
0.268478
0.36596
0.46558
0.565559
0.65169
0.714883
0.760365
0.79195
0.809653
0.816202
0.817552
0.817637
0.817643
0.817633
-0.179693
-0.15204
-0.0965763
-0.0209005
0.0656791
0.158237
0.255428
0.356483
0.460168
0.564692
0.655031
0.721279
0.768754
0.801478
0.819616
0.826276
0.827619
0.827636
0.827594
0.827579
-0.203558
-0.175459
-0.118854
-0.0414452
0.0472299
0.142229
0.242272
0.34665
0.454197
0.563203
0.657884
0.727335
0.776819
0.810547
0.828996
0.835679
0.836953
0.836906
0.836822
0.836798
-0.226687
-0.19811
-0.140449
-0.0614648
0.0290937
0.126292
0.22893
0.33637
0.44757
0.560978
0.66012
0.732998
0.784573
0.819176
0.837707
0.844244
0.845417
0.845309
0.845188
0.845155
-0.249197
-0.22012
-0.16144
-0.0810245
0.0112064
0.110381
0.215364
0.325609
0.440224
0.557903
0.661628
0.738227
0.79208
0.82745
0.845768
0.851972
0.852972
0.852807
0.852662
0.852622
-0.27117
-0.241537
-0.181859
-0.10015
-0.00643538
0.0944867
0.201576
0.314358
0.432125
0.553883
0.662294
0.742968
0.799448
0.835601
0.853412
0.858946
0.859654
0.859429
0.859278
0.859233
-0.292495
-0.262333
-0.201706
-0.118855
-0.0238276
0.0786427
0.187587
0.302646
0.423278
0.548887
0.661993
0.747137
0.806766
0.843943
0.860986
0.865408
0.865557
0.865247
0.865126
0.865087
-0.31317
-0.282494
-0.220991
-0.137121
-0.0409402
0.0628816
0.173458
0.290512
0.413722
0.542884
0.66062
0.750595
0.814033
0.852802
0.869109
0.87189
0.870911
0.870346
0.870365
0.870414
-0.333254
-0.302012
-0.239708
-0.154934
-0.0577303
0.0472649
0.159254
0.278033
0.40351
0.535882
0.658064
0.753171
0.821115
0.862352
0.878549
0.879542
0.876588
0.875098
0.875323
0.875867
-0.352621
-0.320867
-0.257818
-0.172241
-0.0741555
0.0318624
0.145056
0.265297
0.392727
0.527935
0.65424
0.75465
0.82775
0.872421
0.889774
0.889921
0.884769
0.880979
0.879726
0.879545
-0.371364
-0.339079
-0.275331
-0.189082
-0.0902569
0.0166308
0.130808
0.252243
0.381302
0.518979
0.648985
0.754773
0.833703
0.882634
0.902597
0.903923
0.897919
0.890149
0.881221
0.88278
-0.389411
-0.356717
-0.292389
-0.205653
-0.106326
0.00124924
0.116111
0.238408
0.368723
0.50843
0.641712
0.75287
0.838689
0.892677
0.916002
0.920353
0.913831
0.900561
0.880432
0.880609
-0.406638
-0.373755
-0.308837
-0.221773
-0.122105
-0.01399
0.101153
0.224095
0.355248
0.496468
0.632353
0.748072
0.841615
0.901184
0.925986
0.931066
0.924338
0.895841
0.838849
0.814674
-0.422939
-0.391143
-0.324282
-0.23701
-0.136804
-0.0286025
0.0862175
0.209576
0.341155
0.483253
0.62092
0.73968
0.841121
0.906773
0.927252
0.927056
0.906975
0.851914
0.789501
0.751668
-0.465084
-0.408206
-0.338426
-0.252291
-0.151182
-0.0435704
0.0714491
0.194725
0.326223
0.468401
0.606928
0.726909
0.833234
0.905014
0.916126
0.894944
0.839813
0.770326
0.699975
0.661213
-0.439688
-0.421276
-0.359936
-0.273094
-0.173489
-0.0660816
0.0482984
0.17103
0.301822
0.442995
0.580796
0.69987
0.798786
0.878161
0.854919
0.737645
0.641603
0.574905
0.508715
0.532875
-0.469884
-0.43834
-0.376138
-0.289785
-0.19055
-0.0832789
0.0313188
0.15345
0.283324
0.422925
0.558434
0.674283
0.761949
0.806655
0.747352
0.600564
0.486375
0.409384
0.325243
0.367544
-0.493161
-0.45927
-0.395374
-0.308982
-0.209797
-0.10253
0.0119708
0.133345
0.26192
0.399238
0.531029
0.64091
0.716809
0.723222
0.608806
0.447804
0.314351
0.218461
0.121244
0.149741
-0.515738
-0.480843
-0.415624
-0.3286
-0.22935
-0.122206
-0.00821956
0.112204
0.239207
0.37375
0.500636
0.601679
0.660532
0.633219
0.46779
0.286125
0.12288
-0.0135348
-0.139655
-0.129812
-0.538005
-0.502763
-0.436673
-0.349088
-0.249726
-0.142817
-0.0295076
0.0897846
0.214879
0.346144
0.467113
0.55922
0.596946
0.521739
0.328787
0.127928
-0.0614217
-0.217171
-0.423259
-0.502968
-0.560651
-0.525498
-0.458913
-0.370944
-0.271457
-0.164758
-0.0520804
0.0660129
0.18902
0.316644
0.431063
0.513792
0.52423
0.397791
0.201729
-0.0104144
-0.204408
-0.367058
-0.491192
-0.607873
-0.584744
-0.549531
-0.4827
-0.394553
-0.295083
-0.188708
-0.07678
0.039905
0.160425
0.28375
0.391031
0.460563
0.442615
0.280021
0.082674
-0.12327
-0.300508
-0.398647
-0.424906
-0.43829
-0.610413
-0.575155
-0.508163
-0.420005
-0.32075
-0.214893
-0.103987
0.0109398
0.128465
0.246652
0.346348
0.397335
0.359542
0.166634
-0.0285325
-0.214208
-0.348138
-0.38641
-0.395262
-0.395621
-0.63794
-0.602497
-0.535344
-0.447289
-0.34841
-0.243325
-0.133733
-0.0209498
0.0930592
0.205332
0.296446
0.33029
0.259377
0.0627456
-0.125934
-0.287369
-0.362642
-0.37678
-0.377858
-0.377732
-0.667335
-0.631589
-0.564266
-0.476408
-0.378086
-0.274003
-0.166036
-0.0557933
0.0542121
0.159898
0.241073
0.259499
0.149551
-0.0317159
-0.209802
-0.337861
-0.367088
-0.367776
-0.368396
-0.367982
-0.698343
-0.662271
-0.594832
-0.507286
-0.409699
-0.306883
-0.200881
-0.0935784
0.0119708
0.110477
0.181531
0.180489
0.0522885
-0.118378
-0.275771
-0.34911
-0.364177
-0.362682
-0.362566
-0.362225
-0.730409
-0.694193
-0.626781
-0.539694
-0.443065
-0.341811
-0.238124
-0.13419
-0.0334475
0.0574971
0.118236
0.100704
-0.0371779
-0.194486
-0.319788
-0.358049
-0.357671
-0.358346
-0.358294
-0.358069
-0.76309
-0.726823
-0.659624
-0.573216
-0.477829
-0.378464
-0.277479
-0.17735
-0.0817504
0.0018918
0.0499276
0.0253877
-0.118193
-0.255158
-0.345961
-0.354406
-0.35564
-0.355658
-0.355482
-0.355341
-0.79542
-0.759283
-0.692631
-0.60721
-0.513435
-0.416356
-0.318478
-0.222561
-0.132518
-0.0554644
-0.0182518
-0.0497576
-0.18755
-0.300575
-0.353864
-0.363742
-0.357203
-0.354705
-0.353924
-0.353622
-0.825606
-0.790284
-0.724756
-0.64078
-0.549095
-0.454772
-0.36044
-0.269082
-0.184969
-0.114111
-0.0815961
-0.127275
-0.244064
-0.338503
-0.361043
-0.361544
-0.358759
-0.3566
-0.35573
-0.355201
-0.852525
-0.818305
-0.754592
-0.672717
-0.583734
-0.492758
-0.402472
-0.315989
-0.237837
-0.173567
-0.143245
-0.194005
-0.286271
-0.360062
-0.380512
-0.368653
-0.364527
-0.362719
-0.361666
-0.361108
-0.873476
-0.841234
-0.780365
-0.70148
-0.616023
-0.529114
-0.443458
-0.3622
-0.289823
-0.232025
-0.204376
-0.24551
-0.312356
-0.361864
-0.365403
-0.365702
-0.365354
-0.364775
-0.364301
-0.364234
-0.886378
-0.85693
-0.799985
-0.725307
-0.644418
-0.562438
-0.482076
-0.406441
-0.339858
-0.286808
-0.259869
-0.287533
-0.324666
-0.358092
-0.356971
-0.35996
-0.361178
-0.361329
-0.361559
-0.361652
-0.888515
-0.862988
-0.811327
-0.74233
-0.667264
-0.591253
-0.51688
-0.447246
-0.386702
-0.337149
-0.305685
-0.325158
-0.32987
-0.346393
-0.352778
-0.356729
-0.359535
-0.360692
-0.361195
-0.361271
-0.877569
-0.856847
-0.812247
-0.750783
-0.683062
-0.614167
-0.546523
-0.483111
-0.428549
-0.384354
-0.34061
-0.35868
-0.340986
-0.332487
-0.348422
-0.358245
-0.363013
-0.365308
-0.366184
-0.366403
-0.851105
-0.835912
-0.800824
-0.749408
-0.690748
-0.63015
-0.569993
-0.512892
-0.463662
-0.42711
-0.380332
-0.386449
-0.390019
-0.391841
-0.385852
-0.383218
-0.380197
-0.37934
-0.379011
-0.378943
-0.812551
-0.802849
-0.778163
-0.738428
-0.690297
-0.638938
-0.58668
-0.535994
-0.491532
-0.460845
-0.43157
-0.421497
-0.424534
-0.466664
-0.457112
-0.42059
-0.396458
-0.388517
-0.38657
-0.386061
-0.76895
-0.763431
-0.749201
-0.720908
-0.683778
-0.641376
-0.596662
-0.552046
-0.511455
-0.481892
-0.454362
-0.43055
-0.400588
-0.384404
-0.36204
-0.355744
-0.366932
-0.374503
-0.376099
-0.375837
-0.730285
-0.726938
-0.720182
-0.702201
-0.674113
-0.639301
-0.600992
-0.560958
-0.522042
-0.489895
-0.463751
-0.428411
-0.373319
-0.312117
-0.302868
-0.349096
-0.385115
-0.394992
-0.396729
-0.401595
-0.702421
-0.700438
-0.696975
-0.686347
-0.665043
-0.635841
-0.601644
-0.563827
-0.524467
-0.48898
-0.459834
-0.43822
-0.454627
-0.525526
-0.62011
-0.693991
-0.712972
-0.682243
-0.627713
-0.612261
-0.681934
-0.681229
-0.680047
-0.674785
-0.659203
-0.633667
-0.600788
-0.562806
-0.521265
-0.479048
-0.44774
-0.429049
-0.463671
-0.556138
-0.686551
-0.719181
-0.687868
-0.64018
-0.588147
-0.562814
-0.669986
-0.66975
-0.669127
-0.666647
-0.656036
-0.632659
-0.599509
-0.559647
-0.513583
-0.462264
-0.419657
-0.365906
-0.325172
-0.299897
-0.323278
-0.330166
-0.273178
-0.210771
-0.159028
-0.134166
-0.661808
-0.661654
-0.661235
-0.660474
-0.653989
-0.632869
-0.598864
-0.555875
-0.504315
-0.441913
-0.378306
-0.296636
-0.168425
0.00616869
0.185103
0.344885
0.452712
0.513571
0.542573
0.553895
-0.656514
-0.656493
-0.656406
-0.656298
-0.652284
-0.63427
-0.599457
-0.552761
-0.495134
-0.422161
-0.339035
-0.242632
-0.0567741
0.222702
0.51634
0.782037
0.965087
1.04905
1.07242
1.07666
-0.652064
-0.652114
-0.652112
-0.652056
-0.650548
-0.635984
-0.601768
-0.551496
-0.488605
-0.407321
-0.312467
-0.208104
-0.0108638
0.28399
0.601225
0.889615
1.0985
1.20519
1.24575
1.25659
-0.648671
-0.648588
-0.6481
-0.64707
-0.646121
-0.637019
-0.606287
-0.554733
-0.486324
-0.400202
-0.301452
-0.195764
-0.0129815
0.265984
0.564828
0.838915
1.0477
1.16561
1.21418
1.22805
-0.648786
-0.648625
-0.647914
-0.646284
-0.645023
-0.641369
-0.616298
-0.561988
-0.488456
-0.402985
-0.305236
-0.206146
-0.0521812
0.196128
0.45734
0.694812
0.887193
1.00135
1.04708
1.05867
-0.650905
-0.651712
-0.654427
-0.659627
-0.664183
-0.663017
-0.633921
-0.570928
-0.497444
-0.415403
-0.320991
-0.233459
-0.11436
0.0930751
0.311913
0.499532
0.650578
0.74462
0.781852
0.790022
-0.649859
-0.652203
-0.659359
-0.674511
-0.693685
-0.693943
-0.648734
-0.578993
-0.513134
-0.434913
-0.345008
-0.267345
-0.179858
-0.0157107
0.157526
0.296957
0.404252
0.470391
0.496263
0.50177
-0.660769
-0.662812
-0.667327
-0.669869
-0.669767
-0.66768
-0.632259
-0.582964
-0.53328
-0.456946
-0.37341
-0.305081
-0.239905
-0.120628
0.0139636
0.119264
0.196315
0.24138
0.258266
0.261865
-0.686606
-0.687454
-0.686318
-0.659225
-0.603734
-0.571493
-0.580381
-0.586637
-0.55161
-0.478994
-0.402005
-0.343346
-0.290538
-0.19865
-0.0958774
-0.0190427
0.0353855
0.068328
0.0813027
0.0833604
-0.714467
-0.71296
-0.706988
-0.671193
-0.601947
-0.553598
-0.584203
-0.616622
-0.578237
-0.500569
-0.429821
-0.380425
-0.336701
-0.264975
-0.182722
-0.121349
-0.0773669
-0.050686
-0.0416844
-0.0405449
-0.769727
-0.767972
-0.783096
-0.80488
-0.809102
-0.779364
-0.757361
-0.714663
-0.628086
-0.52423
-0.459388
-0.408913
-0.374162
-0.314217
-0.244517
-0.19339
-0.156293
-0.134732
-0.127037
-0.126346
-0.905005
-0.919525
-0.968708
-1.0305
-1.05776
-1.03752
-0.966315
-0.839194
-0.679571
-0.553654
-0.480047
-0.427231
-0.397935
-0.348743
-0.289047
-0.244658
-0.21149
-0.19275
-0.18635
-0.186489
-1.03636
-1.05796
-1.10448
-1.1496
-1.17376
-1.15349
-1.07016
-0.891492
-0.696189
-0.572388
-0.48222
-0.432401
-0.411616
-0.36243
-0.309465
-0.273386
-0.246878
-0.23223
-0.227386
-0.22792
-1.04479
-1.06123
-1.0925
-1.12485
-1.14415
-1.12658
-1.03877
-0.835679
-0.667259
-0.549247
-0.45836
-0.42098
-0.400775
-0.36009
-0.31882
-0.289168
-0.267481
-0.255743
-0.252225
-0.253009
-0.900375
-0.915383
-0.944201
-0.977308
-0.999836
-0.987393
-0.892872
-0.727735
-0.597196
-0.483071
-0.421236
-0.388527
-0.368384
-0.336808
-0.306742
-0.287564
-0.273903
-0.266669
-0.264434
-0.265392
-0.624288
-0.640169
-0.671634
-0.712463
-0.745528
-0.740126
-0.671219
-0.57424
-0.477955
-0.405666
-0.369087
-0.336641
-0.325035
-0.303581
-0.286889
-0.278056
-0.272362
-0.270086
-0.269443
-0.270255
-0.293898
-0.305451
-0.330359
-0.367635
-0.403841
-0.419928
-0.407731
-0.381705
-0.348455
-0.324356
-0.29774
-0.281228
-0.273361
-0.260817
-0.256804
-0.257338
-0.260007
-0.262666
-0.263499
-0.263892
-0.0273276
-0.0338432
-0.0505591
-0.0804775
-0.123254
-0.167794
-0.201621
-0.224229
-0.23509
-0.235279
-0.228338
-0.221281
-0.216132
-0.213478
-0.218397
-0.224665
-0.231058
-0.235657
-0.236904
-0.237099
0.117021
0.113131
0.101216
0.075882
0.0354017
-0.0179746
-0.0742301
-0.118555
-0.146612
-0.16289
-0.167414
-0.159477
-0.15829
-0.162967
-0.171422
-0.179281
-0.185574
-0.189221
-0.190287
-0.190689
0.16
0.157384
0.148514
0.128431
0.0936786
0.0477919
-0.00226145
-0.0499826
-0.0873161
-0.108786
-0.11343
-0.107849
-0.107411
-0.115966
-0.125476
-0.131112
-0.134128
-0.135036
-0.135632
-0.136289
0.146756
0.145032
0.138778
0.124271
0.0988076
0.0630101
0.0228669
-0.0157954
-0.0462837
-0.0667749
-0.0765789
-0.0751975
-0.0762717
-0.0826233
-0.0867314
-0.0875921
-0.0862165
-0.0848083
-0.0850938
-0.0859123
0.109367
0.108392
0.104513
0.0951986
0.0786184
0.0555959
0.0279461
-0.000490524
-0.0240992
-0.0408715
-0.0520043
-0.0586012
-0.0634885
-0.0612461
-0.0580639
-0.0534309
-0.0481448
-0.0455104
-0.0458565
-0.0467806
0.0631197
0.0627434
0.0607777
0.0558312
0.046839
0.033977
0.0188624
0.00323605
-0.0103929
-0.0212399
-0.0314417
-0.0439034
-0.0521424
-0.0425658
-0.0339991
-0.0264177
-0.0216315
-0.0199882
-0.0205102
-0.0214185
0.0131875
0.0132696
0.0135333
0.0133451
0.0119549
0.00940133
0.00597665
0.0023495
-0.000402034
-0.00296568
-0.00518981
-0.00995925
-0.0133573
-0.0125063
-0.0100332
-0.00839354
-0.00787851
-0.00866195
-0.0073311
-0.00637154
-0.000756448
0.186374
0.358028
0.503107
0.618706
0.709423
0.784495
0.845415
0.8606
0.857278
0.285229
0.405297
0.517686
0.614897
0.696379
0.763383
0.816095
0.851717
0.870824
0.887572
0.479172
0.559113
0.638051
0.707128
0.765971
0.814635
0.852995
0.882323
0.904442
0.923701
0.622907
0.679478
0.736581
0.787656
0.831738
0.869314
0.900839
0.927346
0.947444
0.966342
0.738411
0.780889
0.823202
0.862939
0.898318
0.929662
0.957119
0.980401
0.998247
1.01631
0.834389
0.86975
0.904481
0.937827
0.968629
0.996495
1.02114
1.04185
1.05754
1.07502
0.922068
0.953812
0.985824
1.01677
1.04557
1.07178
1.09476
1.1136
1.12745
1.14446
1.00859
1.04105
1.07329
1.10437
1.13303
1.15871
1.18075
1.19821
1.21054
1.22706
1.10273
1.13913
1.1738
1.20617
1.23526
1.26054
1.2816
1.29783
1.30941
1.32554
1.21569
1.25638
1.29333
1.32616
1.35457
1.37851
1.39809
1.41333
1.4252
1.44127
1.35707
1.39808
1.43331
1.46283
1.48798
1.50956
1.52804
1.54351
1.55661
1.57255
1.52855
1.56073
1.58765
1.60999
1.63006
1.64876
1.66649
1.68325
1.69815
1.71387
1.71475
1.73199
1.74908
1.76577
1.78186
1.79659
1.81048
1.82496
1.84019
1.85749
1.89815
1.90808
1.92126
1.93224
1.94165
1.9513
1.96191
1.97208
1.98137
2.00703
2.11598
2.11028
2.09733
2.08308
2.07678
2.08248
2.10062
2.12914
2.16291
2.19923
2.4188
2.28286
2.20334
2.16081
2.14348
2.14746
2.17489
2.23276
2.34042
2.51882
0.766655
0.760353
0.752624
0.741512
0.727944
0.715301
0.704912
0.696912
0.691212
0.687907
0.687591
0.69046
0.695721
0.703101
0.712666
0.724507
0.738077
0.751012
0.760005
0.767548
0.675714
0.681634
0.689709
0.695844
0.698917
0.698412
0.695334
0.691353
0.687783
0.685527
0.685432
0.687724
0.69151
0.695981
0.7001
0.702359
0.701295
0.696665
0.689615
0.681783
0.668949
0.671322
0.674592
0.677368
0.679824
0.682021
0.683211
0.68308
0.682164
0.68139
0.681649
0.683109
0.684927
0.686185
0.686131
0.68468
0.682534
0.680181
0.677205
0.67419
0.664138
0.665227
0.667147
0.669489
0.671368
0.672776
0.674007
0.675018
0.675644
0.676061
0.676667
0.677464
0.677974
0.67789
0.677287
0.676384
0.675068
0.67311
0.67101
0.669535
0.659086
0.65972
0.660852
0.662616
0.664468
0.666073
0.66734
0.668426
0.669439
0.670384
0.671232
0.671816
0.672006
0.67184
0.671335
0.670386
0.668976
0.66738
0.666052
0.665252
0.654125
0.654564
0.655356
0.656668
0.6582
0.659778
0.661275
0.662598
0.66379
0.664932
0.66596
0.666639
0.666881
0.666696
0.666071
0.665102
0.663972
0.662845
0.661953
0.661421
0.649245
0.649572
0.650188
0.651266
0.652576
0.653993
0.655495
0.657001
0.658437
0.659805
0.661042
0.66188
0.662185
0.662003
0.661455
0.660709
0.659893
0.65906
0.658411
0.658021
0.644418
0.644672
0.645169
0.646091
0.64728
0.64861
0.65006
0.651626
0.653259
0.654898
0.656402
0.657435
0.657873
0.657852
0.657531
0.657033
0.656437
0.655837
0.65537
0.655073
0.639572
0.639773
0.640188
0.641002
0.642117
0.643404
0.644846
0.646465
0.648251
0.650153
0.651973
0.653294
0.653992
0.654234
0.654169
0.65391
0.653531
0.653129
0.652804
0.652571
0.634619
0.634781
0.635138
0.635881
0.636953
0.638228
0.639708
0.641421
0.64338
0.645561
0.647757
0.649472
0.650525
0.651083
0.651294
0.651282
0.651128
0.65091
0.650703
0.650517
0.629469
0.629599
0.629915
0.630616
0.631676
0.632983
0.634541
0.636396
0.638584
0.641107
0.643763
0.645963
0.647443
0.648367
0.648892
0.649149
0.649221
0.649183
0.649078
0.648928
0.624027
0.624132
0.624421
0.625105
0.626189
0.627572
0.629253
0.631306
0.633795
0.636753
0.639973
0.642756
0.644739
0.646088
0.64697
0.647519
0.64784
0.64798
0.647964
0.647841
0.618194
0.618277
0.61855
0.619242
0.620386
0.621887
0.623748
0.626068
0.628944
0.632443
0.636353
0.639838
0.642417
0.644261
0.645552
0.64645
0.647038
0.647353
0.647418
0.647316
0.611854
0.611917
0.612184
0.612907
0.614147
0.615814
0.61792
0.620589
0.623954
0.628121
0.632871
0.6372
0.640491
0.64292
0.644683
0.645969
0.646861
0.647367
0.64751
0.647423
0.604868
0.604912
0.605182
0.605959
0.607335
0.609224
0.611649
0.614764
0.618739
0.623728
0.629497
0.63484
0.638977
0.642097
0.644419
0.646152
0.64739
0.648103
0.648323
0.648249
0.597084
0.597103
0.597376
0.59823
0.599785
0.601961
0.604794
0.608468
0.613204
0.6192
0.626202
0.632759
0.637899
0.641835
0.64482
0.647087
0.648719
0.649658
0.649953
0.649887
0.588242
0.588256
0.588553
0.589508
0.591294
0.593835
0.597182
0.601558
0.607235
0.614466
0.622956
0.63096
0.637288
0.642183
0.64595
0.648855
0.650942
0.652127
0.652498
0.652436
0.578078
0.578066
0.578405
0.579512
0.581601
0.584608
0.588605
0.59386
0.600706
0.609449
0.619734
0.629453
0.637182
0.643207
0.647894
0.651539
0.654152
0.655605
0.656049
0.655987
0.566254
0.56622
0.56661
0.567905
0.57037
0.573975
0.578801
0.585168
0.593473
0.60407
0.616513
0.628258
0.637618
0.644963
0.650728
0.655229
0.658437
0.66017
0.66068
0.660611
0.552263
0.552207
0.552677
0.554226
0.557176
0.561555
0.567451
0.57524
0.58538
0.598258
0.613285
0.627402
0.63864
0.647497
0.654514
0.659988
0.663852
0.665867
0.666429
0.666348
0.535415
0.535337
0.535935
0.537837
0.54144
0.546851
0.554159
0.563798
0.576272
0.591961
0.610065
0.62692
0.640295
0.650864
0.659281
0.665851
0.670415
0.672688
0.673276
0.673174
0.514719
0.514625
0.51543
0.517848
0.522369
0.529213
0.538447
0.550549
0.566023
0.585176
0.606902
0.62687
0.642627
0.655091
0.66504
0.672809
0.678066
0.680539
0.681117
0.680987
0.488676
0.488582
0.489731
0.492952
0.498867
0.507802
0.519777
0.535236
0.55459
0.577978
0.603903
0.627332
0.645677
0.660187
0.671788
0.680789
0.686659
0.689225
0.689744
0.68958
0.454851
0.454809
0.456581
0.461185
0.46944
0.481667
0.49768
0.517762
0.542091
0.570558
0.601236
0.628418
0.649495
0.666142
0.679441
0.689635
0.69593
0.69843
0.698834
0.698636
0.408907
0.409083
0.412226
0.419734
0.432364
0.450009
0.472028
0.498361
0.528879
0.563243
0.599135
0.630265
0.654136
0.672921
0.687893
0.699104
0.705493
0.707717
0.707966
0.707742
0.342745
0.344158
0.351809
0.36602
0.386703
0.412978
0.443473
0.477749
0.515548
0.556458
0.597851
0.632984
0.659618
0.680444
0.696864
0.708719
0.714798
0.716535
0.716617
0.716395
0.263793
0.266564
0.281449
0.30597
0.337685
0.374162
0.413817
0.456454
0.50193
0.549911
0.597507
0.637381
0.667451
0.690814
0.708825
0.720931
0.72644
0.727774
0.727794
0.72766
0.182993
0.190237
0.212595
0.247417
0.289807
0.33625
0.38506
0.436097
0.489284
0.544328
0.598099
0.642634
0.675967
0.70179
0.721272
0.733172
0.737646
0.738423
0.738383
0.738303
0.116987
0.126223
0.153344
0.19545
0.246212
0.301093
0.358144
0.417047
0.477571
0.539322
0.598839
0.647587
0.683753
0.711435
0.731639
0.743093
0.746942
0.74756
0.747538
0.747485
0.0629116
0.072884
0.10363
0.151139
0.2082
0.269817
0.333784
0.399586
0.466768
0.534729
0.599596
0.652207
0.690857
0.720046
0.740778
0.751868
0.755336
0.755883
0.755897
0.755872
0.0176816
0.0279774
0.0611971
0.112916
0.175133
0.242337
0.312142
0.383922
0.457054
0.530713
0.600585
0.656811
0.697775
0.728342
0.749448
0.760229
0.763469
0.764008
0.764069
0.764074
-0.0211784
-0.0107493
0.0243105
0.0793966
0.145926
0.217931
0.292834
0.369915
0.448431
0.52738
0.601987
0.661705
0.704858
0.736714
0.758183
0.768772
0.771823
0.772388
0.772522
0.772574
-0.0553774
-0.0449118
-0.00841777
0.0494559
0.119663
0.195842
0.27528
0.357181
0.440685
0.52462
0.603799
0.666914
0.712261
0.745411
0.767337
0.777824
0.780865
0.781486
0.781659
0.781747
-0.0861942
-0.0757162
-0.038072
0.0221943
0.0956021
0.175461
0.258968
0.345291
0.433474
0.52219
0.605838
0.672358
0.719945
0.754479
0.777007
0.78767
0.790753
0.791358
0.791536
0.791652
-0.114637
-0.104127
-0.0654675
-0.00307865
0.0731725
0.156302
0.243479
0.333874
0.426472
0.519823
0.607905
0.67788
0.727779
0.763828
0.787125
0.798071
0.80122
0.801785
0.801928
0.802039
-0.141288
-0.13073
-0.0911512
-0.0268525
0.0519232
0.137985
0.228497
0.322652
0.419414
0.517278
0.609804
0.68331
0.7356
0.773204
0.797305
0.808607
0.811836
0.812344
0.812432
0.81252
-0.166628
-0.155992
-0.115549
-0.0495153
0.0315245
0.120228
0.213779
0.311408
0.412104
0.514351
0.61136
0.688498
0.743239
0.782406
0.807354
0.818897
0.822197
0.822649
0.822667
0.822726
-0.19102
-0.180218
-0.138961
-0.0713305
0.0117483
0.102828
0.199149
0.29999
0.404384
0.510878
0.612411
0.693327
0.7506
0.791276
0.816927
0.828664
0.831974
0.832357
0.832304
0.832327
-0.214589
-0.203593
-0.161557
-0.0924743
-0.0075599
0.0856656
0.184499
0.288288
0.396143
0.506728
0.612823
0.697704
0.75763
0.799766
0.825945
0.837726
0.840932
0.841236
0.841128
0.841121
-0.237515
-0.226271
-0.183485
-0.113042
-0.0264845
0.0686622
0.169763
0.276242
0.387311
0.501816
0.61247
0.70154
0.764343
0.80794
0.834411
0.845979
0.849006
0.849216
0.849061
0.84903
-0.25979
-0.248323
-0.204802
-0.133086
-0.0450628
0.051793
0.15493
0.26384
0.377862
0.496056
0.611235
0.704743
0.770754
0.815926
0.842482
0.85355
0.856208
0.856294
0.856106
0.856058
-0.281493
-0.269776
-0.225499
-0.15262
-0.0633055
0.0350598
0.140004
0.251096
0.367793
0.489414
0.609021
0.707204
0.776877
0.823941
0.850462
0.860626
0.862639
0.862526
0.862324
0.862275
-0.302496
-0.290593
-0.245579
-0.171656
-0.0811929
0.0185071
0.125023
0.238045
0.357136
0.4819
0.605748
0.708798
0.782662
0.832171
0.858791
0.867667
0.868525
0.867988
0.867805
0.867811
-0.322943
-0.310763
-0.265038
-0.190189
-0.0987158
0.00215199
0.110056
0.224742
0.345946
0.47355
0.60136
0.709377
0.787972
0.840691
0.867987
0.875501
0.874531
0.872946
0.872705
0.872981
-0.342669
-0.330251
-0.283878
-0.208187
-0.11581
-0.0139375
0.095167
0.211286
0.334302
0.46439
0.595833
0.708786
0.792601
0.849365
0.878363
0.885247
0.882227
0.87859
0.877596
0.878303
-0.361795
-0.349097
-0.302054
-0.225603
-0.132451
-0.0297057
0.0804323
0.197745
0.322291
0.454529
0.589187
0.706845
0.796277
0.857821
0.889659
0.897523
0.893674
0.887567
0.882447
0.875212
-0.380214
-0.367304
-0.319655
-0.242606
-0.148861
-0.045426
0.0655298
0.183733
0.309499
0.443517
0.580984
0.703101
0.79877
0.866037
0.901664
0.91236
0.909774
0.901342
0.889298
0.888805
-0.397887
-0.384954
-0.336691
-0.259145
-0.165031
-0.0610667
0.0504817
0.169224
0.295878
0.431204
0.570993
0.69697
0.799196
0.873191
0.912561
0.926193
0.924744
0.916521
0.881392
0.843424
-0.414616
-0.401903
-0.353116
-0.275103
-0.180966
-0.0766389
0.0352792
0.15434
0.28148
0.417594
0.559076
0.687985
0.796179
0.878121