/*--------------------------------*- C++ -*----------------------------------*\
  =========                 |
  \\      /  F ield         | OpenFOAM: The Open Source CFD Toolbox
   \\    /   O peration     | Website:  https://openfoam.org
    \\  /    A nd           | Version:  6
     \\/     M anipulation  |
\*---------------------------------------------------------------------------*/
FoamFile
{
    version     2.0;
    format      ascii;
    class       volVectorField;
    location    "96";
    object      U;
}
// * * * * * * * * * * * * * * * * * * * * * * * * * * * * * * * * * * * * * //

dimensions      [0 1 -1 0 0 0 0];

internalField   nonuniform List<vector> 
8800
(
(0.987184 -0.0766652 0)
(1.00189 -0.05519 0)
(0.999722 -0.0285477 0)
(1.00003 -0.0151424 0)
(1.0001 -0.00854336 0)
(1.00012 -0.00504511 0)
(1.00008 -0.00299924 0)
(1.00002 -0.0016984 0)
(0.999991 -0.000791958 0)
(1.00006 -7.59882e-05 0)
(0.999958 0.000656747 0)
(1 0.0014248 0)
(1.00006 0.0024307 0)
(1.00007 0.00399929 0)
(1.00006 0.00663303 0)
(1.00005 0.0113724 0)
(0.999953 0.0208159 0)
(0.999173 0.0386706 0)
(1.0071 0.0724575 0)
(0.771215 0.0366617 0)
(0.36308 -0.0160164 0)
(1.04332 -0.0768113 0)
(1.0846 -0.0704395 0)
(1.04519 -0.0535328 0)
(1.02329 -0.0388828 0)
(1.01203 -0.0262033 0)
(1.00643 -0.0168393 0)
(1.00359 -0.0103038 0)
(1.00215 -0.00563967 0)
(1.00144 -0.00197703 0)
(1.00128 0.00134484 0)
(1.00166 0.00473371 0)
(1.00269 0.00865761 0)
(1.00468 0.0139751 0)
(1.00861 0.0216829 0)
(1.01657 0.0326494 0)
(1.03251 0.0465609 0)
(1.06268 0.061677 0)
(1.09187 0.0761052 0)
(0.838665 0.0565642 0)
(0.216872 -0.00242866 0)
(1.07592 -0.0501227 0)
(1.09989 -0.0482913 0)
(1.06465 -0.0404395 0)
(1.04005 -0.0335762 0)
(1.02393 -0.0260484 0)
(1.01413 -0.0184571 0)
(1.00856 -0.0116275 0)
(1.00558 -0.00574987 0)
(1.0043 -0.000325025 0)
(1.00463 0.00492477 0)
(1.0066 0.010317 0)
(1.01063 0.0163778 0)
(1.01794 0.0233941 0)
(1.03053 0.0308562 0)
(1.05062 0.0378796 0)
(1.08037 0.0445597 0)
(1.10627 0.0513684 0)
(0.942497 0.0416295 0)
(0.216116 0.00246292 0)
(0.175217 -0.000815107 0)
(1.01775 -0.0354644 0)
(1.10523 -0.0413472 0)
(1.07829 -0.0360234 0)
(1.0535 -0.0300805 0)
(1.03624 -0.0244943 0)
(1.02402 -0.0187524 0)
(1.01589 -0.0126573 0)
(1.01102 -0.00645523 0)
(1.00879 -0.000109133 0)
(1.00934 0.00615233 0)
(1.01265 0.0121506 0)
(1.01889 0.0179447 0)
(1.02875 0.0235073 0)
(1.04318 0.0288012 0)
(1.0637 0.0342734 0)
(1.09356 0.0402509 0)
(1.09339 0.0420014 0)
(0.827042 0.022932 0)
(0.173943 0.000854881 0)
(0.154042 -0.000608777 0)
(0.956317 -0.0254298 0)
(1.10352 -0.0350789 0)
(1.08773 -0.0325893 0)
(1.06178 -0.0279245 0)
(1.04416 -0.0228855 0)
(1.03168 -0.0176194 0)
(1.02282 -0.0120663 0)
(1.01698 -0.0061106 0)
(1.0141 0.000373825 0)
(1.01475 0.00684368 0)
(1.01877 0.0127252 0)
(1.0258 0.017968 0)
(1.03606 0.0228696 0)
(1.05061 0.0276183 0)
(1.07184 0.0321332 0)
(1.10005 0.0360554 0)
(1.06799 0.0340931 0)
(0.739318 0.0143401 0)
(0.152118 0.000653967 0)
(0.139703 -0.000464703 0)
(0.899523 -0.0190376 0)
(1.09591 -0.0300081 0)
(1.09583 -0.029097 0)
(1.06934 -0.0253484 0)
(1.0509 -0.0211884 0)
(1.03795 -0.0163893 0)
(1.02882 -0.0110738 0)
(1.02267 -0.00530345 0)
(1.01949 0.00104423 0)
(1.02007 0.00736667 0)
(1.02421 0.0129977 0)
(1.03135 0.0178986 0)
(1.04181 0.0223445 0)
(1.05692 0.026296 0)
(1.07912 0.0297362 0)
(1.1022 0.032344 0)
(1.03578 0.0282073 0)
(0.672591 0.0102471 0)
(0.136982 0.000516839 0)
(0.129205 -0.0003589 0)
(0.850085 -0.014663 0)
(1.08361 -0.0258498 0)
(1.10156 -0.0261115 0)
(1.07624 -0.0228025 0)
(1.05727 -0.0191317 0)
(1.04386 -0.0148514 0)
(1.03436 -0.00989011 0)
(1.02796 -0.00432241 0)
(1.02457 0.00185289 0)
(1.02499 0.00796641 0)
(1.02908 0.013319 0)
(1.03632 0.017795 0)
(1.04704 0.0216324 0)
(1.06255 0.0249147 0)
(1.08518 0.0278287 0)
(1.10123 0.0295573 0)
(1.00068 0.0237234 0)
(0.620539 0.00789432 0)
(0.125512 0.000420245 0)
(0.121216 -0.000277721 0)
(0.808145 -0.0114908 0)
(1.06848 -0.022209 0)
(1.10517 -0.0234311 0)
(1.08255 -0.0205276 0)
(1.06316 -0.0170639 0)
(1.04947 -0.0130813 0)
(1.03969 -0.00844751 0)
(1.03298 -0.00314188 0)
(1.02933 0.00282251 0)
(1.02955 0.00869287 0)
(1.03359 0.0136974 0)
(1.04087 0.0176864 0)
(1.05167 0.0210127 0)
(1.06739 0.0238785 0)
(1.09035 0.0264857 0)
(1.09733 0.0273065 0)
(0.965147 0.0202224 0)
(0.5786 0.00637388 0)
(0.116341 0.000350707 0)
(0.115051 -0.000213892 0)
(0.772935 -0.00911134 0)
(1.05191 -0.0189944 0)
(1.10765 -0.020938 0)
(1.08849 -0.0183962 0)
(1.06872 -0.0150677 0)
(1.05478 -0.0112359 0)
(1.04479 -0.00680035 0)
(1.03782 -0.00172333 0)
(1.03386 0.00399777 0)
(1.03383 0.00957376 0)
(1.03774 0.0142007 0)
(1.04493 0.017753 0)
(1.0557 0.0206892 0)
(1.07161 0.0232236 0)
(1.09422 0.0254767 0)
(1.09054 0.0254678 0)
(0.930461 0.0175407 0)
(0.543742 0.00534387 0)
(0.108739 0.000301201 0)
(0.110277 -0.000162269 0)
(0.743521 -0.0072573 0)
(1.03497 -0.016134 0)
(1.10922 -0.0185751 0)
(1.09417 -0.0163281 0)
(1.07411 -0.0130802 0)
(1.0599 -0.00932413 0)
(1.0497 -0.00499505 0)
(1.04249 -7.73656e-05 0)
(1.03821 0.00541404 0)
(1.03785 0.010684 0)
(1.04151 0.0149511 0)
(1.04853 0.0181132 0)
(1.05924 0.0207015 0)
(1.07533 0.0229372 0)
(1.09677 0.0248001 0)
(1.08124 0.0239988 0)
(0.897162 0.0155292 0)
(0.5139 0.00463524 0)
(0.102219 0.000267025 0)
(0.106613 -0.00011906 0)
(0.719094 -0.0057541 0)
(1.01852 -0.0135552 0)
(1.11001 -0.0162776 0)
(1.09977 -0.0142888 0)
(1.07944 -0.0110388 0)
(1.06493 -0.00729606 0)
(1.05449 -0.00301114 0)
(1.04701 0.00180981 0)
(1.04236 0.00711609 0)
(1.0416 0.012105 0)
(1.04493 0.0160356 0)
(1.05172 0.0188219 0)
(1.06234 0.0210742 0)
(1.07859 0.0230345 0)
(1.09792 0.0244687 0)
(1.06977 0.0228997 0)
(0.865338 0.0140721 0)
(0.4876 0.00415807 0)
(0.0964357 0.000245189 0)
(0.103874 -8.12674e-05 0)
(0.699023 -0.00448502 0)
(1.00317 -0.0111894 0)
(1.11017 -0.0140085 0)
(1.10524 -0.0121917 0)
(1.0848 -0.00888815 0)
(1.06997 -0.00509707 0)
(1.05925 -0.00079304 0)
(1.05142 0.00399113 0)
(1.04633 0.00916583 0)
(1.04507 0.0139106 0)
(1.04801 0.0175246 0)
(1.05452 0.0199391 0)
(1.06502 0.0218608 0)
(1.08138 0.0235468 0)
(1.09797 0.0246293 0)
(1.05638 0.0221898 0)
(0.834786 0.013088 0)
(0.463724 0.0038587 0)
(0.0911238 0.000233347 0)
(0.101945 -4.61659e-05 0)
(0.682852 -0.00336215 0)
(0.989378 -0.00896429 0)
(1.10995 -0.0116789 0)
(1.11058 -0.00995242 0)
(1.09028 -0.0065648 0)
(1.07509 -0.00266117 0)
(1.06403 0.00173108 0)
(1.05579 0.00654356 0)
(1.05016 0.0116404 0)
(1.04829 0.0161738 0)
(1.05077 0.0194855 0)
(1.05693 0.0215258 0)
(1.06727 0.0231151 0)
(1.08364 0.0245083 0)
(1.09711 0.0251354 0)
(1.04118 0.0218768 0)
(0.805125 0.0125007 0)
(0.441381 0.0036984 0)
(0.0860731 0.000229341 0)
(0.100768 -1.14581e-05 0)
(0.67029 -0.00231514 0)
(0.977528 -0.00680428 0)
(1.10967 -0.00923092 0)
(1.11593 -0.00750908 0)
(1.09595 -0.00399082 0)
(1.08038 9.26494e-05 0)
(1.06892 0.00464497 0)
(1.06018 0.00955577 0)
(1.05388 0.0146324 0)
(1.05129 0.0189883 0)
(1.05319 0.0220106 0)
(1.05895 0.0236709 0)
(1.0691 0.0249196 0)
(1.08545 0.0260167 0)
(1.09491 0.0261225 0)
(1.02418 0.0219673 0)
(0.775879 0.0122645 0)
(0.419846 0.00365313 0)
(0.0811165 0.000231906 0)
(0.100337 2.55064e-05 0)
(0.661199 -0.00128733 0)
(0.967941 -0.00463567 0)
(1.10965 -0.00660293 0)
(1.12142 -0.00478785 0)
(1.10192 -0.00107769 0)
(1.08592 0.00325991 0)
(1.07399 0.0080495 0)
(1.06464 0.0131335 0)
(1.05754 0.0182513 0)
(1.05408 0.0224621 0)
(1.05529 0.0252031 0)
(1.06058 0.0264859 0)
(1.07048 0.0273721 0)
(1.08669 0.0281347 0)
(1.09128 0.0276229 0)
(1.00527 0.0225063 0)
(0.746502 0.0123556 0)
(0.398492 0.0037097 0)
(0.076112 0.00024035 0)
(0.100662 5.84418e-05 0)
(0.655572 -0.000219899 0)
(0.960928 -0.00238189 0)
(1.11028 -0.00372579 0)
(1.12725 -0.0017026 0)
(1.10829 0.00227742 0)
(1.09183 0.00695225 0)
(1.07932 0.0120644 0)
(1.06923 0.0174039 0)
(1.06117 0.0226281 0)
(1.05666 0.0267268 0)
(1.05705 0.0291883 0)
(1.06178 0.0300916 0)
(1.07137 0.0305917 0)
(1.08708 0.0309746 0)
(1.08591 0.0297252 0)
(0.984226 0.0235308 0)
(0.71638 0.0127585 0)
(0.376746 0.00385816 0)
(0.0709337 0.00025377 0)
(0.101836 0.000114155 0)
(0.653564 0.000930597 0)
(0.956813 3.39856e-05 0)
(1.11191 -0.000520767 0)
(1.1336 0.00184667 0)
(1.11519 0.00619329 0)
(1.0982 0.0113013 0)
(1.08502 0.0168336 0)
(1.07403 0.0225181 0)
(1.06481 0.0279173 0)
(1.05904 0.031936 0)
(1.05845 0.034114 0)
(1.06253 0.0346244 0)
(1.07173 0.0347164 0)
(1.08648 0.0346767 0)
(1.07853 0.0325127 0)
(0.960649 0.0250791 0)
(0.684829 0.0134627 0)
(0.354066 0.00408901 0)
(0.0654716 0.000271171 0)
(0.104004 0.000166359 0)
(0.655361 0.00205546 0)
(0.955963 0.0027059 0)
(1.11502 0.00311902 0)
(1.1407 0.0059728 0)
(1.12276 0.0108152 0)
(1.10518 0.0164718 0)
(1.09119 0.0225377 0)
(1.07911 0.0286665 0)
(1.06848 0.0343055 0)
(1.06122 0.0382602 0)
(1.05949 0.0401261 0)
(1.06277 0.0402387 0)
(1.07149 0.0398945 0)
(1.08464 0.0393381 0)
(1.06879 0.036088 0)
(0.934014 0.0271954 0)
(0.651112 0.0144589 0)
(0.329951 0.00439179 0)
(0.0596354 0.000291361 0)
(0.107271 0.000230738 0)
(0.661608 0.00354672 0)
(0.95873 0.00565557 0)
(1.12008 0.0073328 0)
(1.14881 0.0108227 0)
(1.13121 0.0163274 0)
(1.11294 0.0226665 0)
(1.09795 0.0293939 0)
(1.08455 0.0360716 0)
(1.07222 0.0420129 0)
(1.06319 0.0459054 0)
(1.06014 0.0474401 0)
(1.06246 0.0471215 0)
(1.07062 0.0462975 0)
(1.08156 0.0451294 0)
(1.05621 0.0405709 0)
(0.903614 0.0299143 0)
(0.61443 0.015727 0)
(0.30394 0.00475068 0)
(0.0533586 0.000312543 0)
(0.111921 0.000317497 0)
(0.672616 0.00529824 0)
(0.965711 0.00917197 0)
(1.1276 0.0122837 0)
(1.15825 0.0166094 0)
(1.14077 0.0229695 0)
(1.12165 0.0301516 0)
(1.10543 0.037684 0)
(1.0904 0.0450136 0)
(1.07604 0.0512996 0)
(1.06491 0.0551015 0)
(1.06028 0.056269 0)
(1.06155 0.0554756 0)
(1.06902 0.054123 0)
(1.07715 0.0522235 0)
(1.04015 0.0460688 0)
(0.868554 0.0332422 0)
(0.57394 0.0172222 0)
(0.275645 0.00513916 0)
(0.0466114 0.000332085 0)
(0.118315 0.000434175 0)
(0.689197 0.00748244 0)
(0.977696 0.0134535 0)
(1.13815 0.0182053 0)
(1.16941 0.0236005 0)
(1.15172 0.0310712 0)
(1.13152 0.0392848 0)
(1.11377 0.0477732 0)
(1.09672 0.0558406 0)
(1.0799 0.0624696 0)
(1.06633 0.0661067 0)
(1.0598 0.0668113 0)
(1.05999 0.0655028 0)
(1.06678 0.0635708 0)
(1.07106 0.0608178 0)
(1.01973 0.0526486 0)
(0.827745 0.0371309 0)
(0.528819 0.0188562 0)
(0.244823 0.00551542 0)
(0.0394196 0.000346446 0)
(0.126981 0.000596655 0)
(0.712379 0.0103344 0)
(0.995458 0.0187711 0)
(1.1524 0.0254402 0)
(1.18276 0.0321767 0)
(1.1644 0.0410873 0)
(1.14279 0.0505458 0)
(1.12305 0.0601318 0)
(1.1035 0.0689709 0)
(1.08373 0.0758664 0)
(1.06735 0.0791914 0)
(1.05869 0.079298 0)
(1.05771 0.0774042 0)
(1.06359 0.0747923 0)
(1.06272 0.0709249 0)
(0.993793 0.0603247 0)
(0.779913 0.0414369 0)
(0.478358 0.0204762 0)
(0.211471 0.00582008 0)
(0.0318846 0.00035135 0)
(0.138723 0.00083516 0)
(0.743544 0.014237 0)
(1.02016 0.0256034 0)
(1.17114 0.0345391 0)
(1.19897 0.0429447 0)
(1.1792 0.0537016 0)
(1.15565 0.0646269 0)
(1.13332 0.0753946 0)
(1.11063 0.0849252 0)
(1.08737 0.0918634 0)
(1.06781 0.0946117 0)
(1.05686 0.093941 0)
(1.05476 0.0914313 0)
(1.05914 0.088015 0)
(1.05128 0.0827376 0)
(0.960813 0.0689637 0)
(0.723685 0.0458669 0)
(0.422163 0.0218477 0)
(0.175955 0.005977 0)
(0.0242013 0.000342341 0)
(0.154845 0.00120786 0)
(0.784689 0.019842 0)
(1.05348 0.0347419 0)
(1.19534 0.0464585 0)
(1.21893 0.0573115 0)
(1.19651 0.0699938 0)
(1.17018 0.082524 0)
(1.14442 0.0943747 0)
(1.11787 0.104293 0)
(1.09057 0.110844 0)
(1.06752 0.112605 0)
(1.05418 0.110908 0)
(1.05102 0.107691 0)
(1.05323 0.103526 0)
(1.03556 0.0961999 0)
(0.918818 0.0782022 0)
(0.657791 0.0499262 0)
(0.360458 0.0226555 0)
(0.139143 0.00590442 0)
(0.0166648 0.000315835 0)
(0.177589 0.00185383 0)
(0.839041 0.0282987 0)
(1.09832 0.0477804 0)
(1.2261 0.0630726 0)
(1.24308 0.0768972 0)
(1.21641 0.0916298 0)
(1.18612 0.10559 0)
(1.15593 0.11804 0)
(1.12476 0.127689 0)
(1.09294 0.13315 0)
(1.06621 0.133346 0)
(1.05044 0.130291 0)
(1.04629 0.126219 0)
(1.04575 0.121041 0)
(1.01381 0.111031 0)
(0.865385 0.0873529 0)
(0.581554 0.0529001 0)
(0.294554 0.0225506 0)
(0.102514 0.00553718 0)
(0.00965809 0.000269543 0)
(0.210441 0.00328258 0)
(0.91247 0.0423682 0)
(1.1577 0.0686136 0)
(1.26375 0.0879002 0)
(1.27127 0.104812 0)
(1.23829 0.12105 0)
(1.20263 0.135487 0)
(1.16701 0.147397 0)
(1.13062 0.155644 0)
(1.09401 0.159007 0)
(1.06357 0.156916 0)
(1.04547 0.152093 0)
(1.04042 0.147038 0)
(1.03582 0.140608 0)
(0.983447 0.126591 0)
(0.797793 0.0952652 0)
(0.495923 0.0539419 0)
(0.22757 0.0213289 0)
(0.0682786 0.00487044 0)
(0.0036649 0.000202467 0)
(0.255267 0.00972604 9.27277e-21)
(1.00877 0.0702323 7.96386e-21)
(1.22919 0.104056 -2.78608e-21)
(1.30542 0.124908 0)
(1.30051 0.14482 -7.14522e-35)
(1.25988 0.160671 1.0458e-21)
(1.21811 0.173753 -1.89155e-21)
(1.17661 0.183665 0)
(1.1347 0.189437 3.92095e-35)
(1.09307 0.189956 -2.3724e-21)
(1.05877 0.185185 0)
(1.03845 0.178624 -2.84489e-21)
(1.03324 0.173343 -8.41585e-21)
(1.02128 0.165741 -3.99221e-21)
(0.938471 0.14481 -1.2038e-21)
(0.70806 0.102104 -7.15185e-22)
(0.39614 0.0527871 0)
(0.159083 0.0192678 5.00239e-22)
(0.0365884 0.00403757 5.92403e-22)
(-0.00139888 8.49376e-05 1.08338e-20)
(0.286618 0.0254711 6.47606e-21)
(1.08886 0.114331 1.18327e-22)
(1.28814 0.154536 7.2776e-22)
(1.34339 0.175385 0)
(1.32643 0.195353 -3.55817e-21)
(1.27876 0.209162 -4.059e-21)
(1.23103 0.220089 -1.89063e-21)
(1.1837 0.227746 -6.75934e-21)
(1.13623 0.231127 0)
(1.08941 0.229069 1.00189e-20)
(1.05105 0.221977 9.97579e-21)
(1.02807 0.21383 2.9667e-21)
(1.01992 0.207409 1.08938e-20)
(0.99317 0.196086 1.54012e-20)
(0.863711 0.16399 0)
(0.582743 0.106643 2.17035e-20)
(0.28145 0.0498372 3.11176e-20)
(0.0907544 0.016021 3.46209e-20)
(0.00695426 0.00205819 -3.97092e-20)
(-0.00590939 -0.000473134 -7.57721e-22)
(0.288612 0.0433012 0)
(1.14063 0.171258 1.03979e-21)
(1.32889 0.21624 0)
(1.37335 0.236862 -4.43929e-21)
(1.34719 0.25374 0)
(1.29362 0.263656 -7.83958e-21)
(1.24032 0.270907 3.81833e-21)
(1.18754 0.275125 -1.34593e-20)
(1.13489 0.275192 -3.30709e-22)
(1.08333 0.269879 5.13009e-21)
(1.04139 0.260069 2.18205e-20)
(1.01611 0.250177 -2.5172e-23)
(1.00424 0.242001 -7.88546e-21)
(0.960956 0.225708 -1.4382e-20)
(0.791293 0.180553 1.70489e-20)
(0.485722 0.108496 -3.01644e-20)
(0.210041 0.0463884 -3.9697e-21)
(0.0526901 0.0126888 0)
(-0.00852736 -0.000319303 -3.38969e-24)
(-0.00811479 -0.00113726 0)
(0.282143 0.0582121 1.15919e-20)
(1.16955 0.231978 -5.92341e-21)
(1.35489 0.28267 -4.90411e-21)
(1.39363 0.303626 2.03053e-21)
(1.36123 0.316404 -3.41001e-21)
(1.3033 0.321736 1.6235e-20)
(1.24551 0.324552 7.86985e-21)
(1.1881 0.324587 0)
(1.13096 0.320672 -2.53757e-20)
(1.07527 0.311542 0)
(1.03025 0.298647 -1.13345e-20)
(1.00301 0.286801 -1.41141e-20)
(0.987086 0.27626 -8.52606e-21)
(0.927702 0.253881 -1.03877e-20)
(0.727744 0.195068 0)
(0.415568 0.110547 0)
(0.163992 0.0443275 -2.56714e-20)
(0.0283251 0.00961365 5.06494e-21)
(-0.0187466 -0.00292286 -2.98683e-21)
(-0.00961232 -0.00186636 -3.53806e-21)
(0.274104 0.0712174 -2.90822e-21)
(1.183 0.292574 0)
(1.36982 0.350061 9.03401e-21)
(1.40528 0.371577 5.43517e-21)
(1.36862 0.380353 7.93819e-21)
(1.30757 0.381069 0)
(1.24637 0.379291 7.54835e-21)
(1.18527 0.37487 1.4641e-20)
(1.12443 0.366628 1.28596e-20)
(1.06526 0.353327 2.38133e-20)
(1.01765 0.33707 0)
(0.988691 0.323034 -3.01706e-20)
(0.968653 0.309738 -1.82299e-20)
(0.895046 0.280402 -1.07916e-20)
(0.674012 0.208521 6.61641e-20)
(0.365191 0.113352 7.83777e-21)
(0.133001 0.0430404 3.69156e-20)
(0.0108402 0.00641568 -1.74478e-19)
(-0.0268703 -0.00586519 1.03336e-19)
(-0.0109262 -0.00267401 -1.26141e-19)
(0.266068 0.0828221 7.88481e-22)
(1.18635 0.351026 4.50842e-22)
(1.37656 0.416428 -7.44907e-22)
(1.41 0.438825 -4.80335e-21)
(1.37032 0.443831 -6.267e-21)
(1.30698 0.44007 3.56625e-22)
(1.24315 0.433789 -8.14556e-21)
(1.17914 0.424912 1.49334e-20)
(1.11528 0.412245 -2.74786e-20)
(1.05322 0.394607 0)
(1.00345 0.374794 -1.36047e-20)
(0.973044 0.358356 -3.01826e-22)
(0.949139 0.342026 -1.98551e-20)
(0.863692 0.305301 0)
(0.629345 0.22121 -1.42455e-20)
(0.328528 0.116897 -3.36935e-20)
(0.110569 0.0421955 8.95402e-20)
(-0.0031284 0.00298346 -8.81604e-20)
(-0.0341471 -0.00918547 1.25316e-19)
(-0.012216 -0.00357458 -1.31862e-19)
(0.258926 0.0933929 -1.15365e-22)
(1.18314 0.406567 5.07364e-22)
(1.3773 0.480697 -8.88978e-22)
(1.40924 0.504245 1.58415e-21)
(1.36739 0.505812 -3.05465e-21)
(1.30234 0.497802 0)
(1.23646 0.487206 -7.3854e-21)
(1.17008 0.473997 -1.55144e-20)
(1.1037 0.456938 -1.41771e-20)
(1.03921 0.4349 0)
(0.987655 0.411382 -1.3899e-20)
(0.956089 0.392347 -1.73058e-20)
(0.928801 0.372734 2.13799e-20)
(0.834021 0.328524 -1.30151e-20)
(0.592494 0.233246 -6.14784e-20)
(0.301344 0.120977 3.63444e-20)
(0.0934555 0.0414837 1.07321e-20)
(-0.0152218 -0.000853274 0)
(-0.0413601 -0.0130051 -1.19978e-19)
(-0.0136705 -0.00461952 -4.44682e-21)
(0.252883 0.103278 8.47614e-22)
(1.17571 0.45899 -1.15949e-21)
(1.37352 0.542306 1.62758e-22)
(1.40424 0.567171 6.00702e-21)
(1.36078 0.565658 -1.05665e-20)
(1.29447 0.553711 1.40843e-20)
(1.22694 0.539053 1.58249e-20)
(1.15859 0.521697 -2.4682e-20)
(1.09005 0.50035 8.81154e-21)
(1.02343 0.473893 -5.76635e-20)
(0.970381 0.446551 -1.57248e-20)
(0.937892 0.424685 0)
(0.907769 0.401538 2.30567e-20)
(0.806049 0.349917 2.75996e-20)
(0.562035 0.244559 3.29592e-20)
(0.28082 0.125187 -3.91241e-20)
(0.0800232 0.0405388 -1.1548e-20)
(-0.0259358 -0.00522869 1.36063e-20)
(-0.0486898 -0.0174249 0)
(-0.0153981 -0.0058679 -9.56623e-21)
(0.247873 0.11255 -1.41258e-20)
(1.1658 0.508342 7.49648e-21)
(1.36655 0.601198 2.25337e-22)
(1.396 0.627266 3.12104e-21)
(1.35131 0.622996 -4.33623e-21)
(1.28406 0.607439 -8.50886e-22)
(1.2152 0.589033 -1.73057e-20)
(1.14517 0.567769 -8.92449e-21)
(1.07471 0.542281 -2.45069e-20)
(1.00618 0.51144 4.44412e-23)
(0.95179 0.480147 -4.8863e-20)
(0.918543 0.455214 4.14807e-20)
(0.886103 0.428262 -2.51777e-20)
(0.779563 0.369343 3.01755e-20)
(0.536545 0.254939 0)
(0.265073 0.129098 -2.10791e-20)
(0.069569 0.0391238 2.93543e-23)
(-0.0350237 -0.0101183 -5.87293e-20)
(-0.0557266 -0.0223766 -8.67751e-21)
(-0.0173251 -0.00732837 0)
(0.24387 0.121483 0)
(1.1545 0.554859 8.7697e-21)
(1.35725 0.657436 2.93328e-21)
(1.38536 0.684375 -2.32089e-21)
(1.33968 0.677632 -5.99755e-21)
(1.27173 0.658802 0)
(1.20178 0.63697 -7.61908e-21)
(1.13027 0.612077 -2.29498e-22)
(1.05807 0.582649 5.24182e-20)
(0.987724 0.547502 -7.86222e-21)
(0.932048 0.512144 -3.52639e-20)
(0.898098 0.483902 2.14985e-20)
(0.863745 0.452876 -4.05409e-22)
(0.754147 0.386783 3.20544e-20)
(0.514634 0.264237 1.9385e-20)
(0.252625 0.132393 -4.52792e-20)
(0.0617287 0.0372489 5.3462e-20)
(-0.0420128 -0.0152404 1.58257e-20)
(-0.0617669 -0.0275548 6.55307e-20)
(-0.0192499 -0.00893274 -1.77306e-19)
(0.240795 0.130238 -4.94026e-21)
(1.14261 0.59872 6.41288e-21)
(1.34628 0.710651 -4.16142e-21)
(1.37297 0.738463 7.67846e-22)
(1.32649 0.729485 0)
(1.258 0.707702 -5.87452e-21)
(1.18713 0.682775 2.58598e-20)
(1.11431 0.654558 1.94515e-20)
(1.04047 0.621431 0)
(0.968318 0.582099 -1.13495e-19)
(0.9113 0.542595 9.53396e-20)
(0.876608 0.510815 0)
(0.840604 0.475459 2.92613e-20)
(0.729354 0.402314 -3.52584e-22)
(0.494968 0.272455 -6.22488e-20)
(0.242268 0.135053 2.4335e-20)
(0.0560188 0.035184 0)
(-0.0465731 -0.0201421 8.51828e-20)
(-0.0661688 -0.0325216 0)
(-0.0209197 -0.0105592 -8.35974e-20)
(0.238571 0.138832 5.97273e-21)
(1.13065 0.640167 8.54467e-21)
(1.33414 0.76092 -4.06449e-21)
(1.35938 0.789558 0)
(1.31222 0.778562 -4.30334e-21)
(1.24331 0.754132 0)
(1.17166 0.72642 -2.51456e-20)
(1.09764 0.69519 -8.8726e-21)
(1.0222 0.658654 9.19198e-21)
(0.948193 0.615295 -5.6202e-20)
(0.889693 0.57161 9.84262e-21)
(0.854144 0.536059 0)
(0.816668 0.496167 -6.25441e-20)
(0.704553 0.41608 3.01129e-22)
(0.476604 0.279501 0)
(0.233148 0.137193 5.68901e-23)
(0.0519501 0.0331283 7.76444e-20)
(-0.0488756 -0.0244394 -7.3443e-20)
(-0.068656 -0.0368308 2.17474e-20)
(-0.0221394 -0.0120501 0)
(0.236861 0.147238 0)
(1.11886 0.679403 1.04183e-20)
(1.32129 0.808366 6.28808e-21)
(1.34502 0.837736 -5.32465e-22)
(1.29727 0.824911 -8.08535e-22)
(1.22805 0.798114 -1.32784e-20)
(1.1557 0.767922 9.57207e-21)
(1.08056 0.733988 -1.06551e-20)
(1.00356 0.694353 4.12963e-20)
(0.927576 0.647198 -9.01611e-20)
(0.867367 0.59932 -8.76712e-22)
(0.830791 0.559782 -2.74414e-20)
(0.791931 0.515131 1.01596e-19)
(0.679517 0.428276 -4.19975e-22)
(0.458775 0.285497 -4.83208e-20)
(0.224609 0.138849 -8.52098e-20)
(0.0490956 0.0313518 0)
(-0.0492785 -0.0278855 0)
(-0.0693111 -0.0402813 2.34606e-20)
(-0.0228023 -0.0132986 -1.39265e-20)
(0.235824 0.155643 8.50638e-21)
(1.10745 0.71644 -2.37289e-20)
(1.30806 0.853104 -6.73819e-21)
(1.33023 0.883086 0)
(1.28197 0.868603 -3.08577e-22)
(1.2125 0.839703 -1.14951e-20)
(1.13955 0.80732 2.27216e-20)
(1.06335 0.77099 4.16264e-20)
(0.984776 0.728581 5.37417e-20)
(0.906691 0.677917 -7.39072e-20)
(0.844491 0.625896 -8.26549e-20)
(0.806641 0.582137 7.36144e-20)
(0.766452 0.532444 0)
(0.654219 0.438861 -2.22048e-20)
(0.440998 0.290375 -5.21275e-20)
(0.2162 0.140022 -6.13379e-20)
(0.0469186 0.0299087 -7.22834e-20)
(-0.0483639 -0.0304101 2.1415e-20)
(-0.0684183 -0.0427775 -1.26311e-20)
(-0.0229412 -0.0142513 6.18211e-23)
(0.235046 0.163868 0)
(1.09677 0.75139 0)
(1.29469 0.895246 5.07956e-22)
(1.31527 0.925715 0)
(1.26657 0.90974 -1.28373e-23)
(1.19691 0.878975 7.25858e-21)
(1.12344 0.844664 0)
(1.04624 0.80624 4.88569e-21)
(0.966095 0.761394 9.00004e-20)
(0.88576 0.707558 -1.70606e-19)
(0.821227 0.651525 0)
(0.781756 0.60329 -4.77282e-20)
(0.740212 0.548126 -5.24501e-22)
(0.628623 0.447723 -3.1487e-22)
(0.423152 0.293967 5.62102e-20)
(0.207797 0.14061 5.18657e-23)
(0.0451402 0.0288203 -1.55905e-19)
(-0.0467094 -0.032016 4.61065e-20)
(-0.0664943 -0.0443119 1.36861e-20)
(-0.0226222 -0.014881 0)
(0.234517 0.171869 -3.44079e-20)
(1.08659 0.784635 -1.61885e-20)
(1.2813 0.93488 -2.04105e-20)
(1.30035 0.965733 1.82825e-20)
(1.25128 0.948402 -3.0398e-21)
(1.18149 0.916007 0)
(1.10755 0.880019 1.36156e-20)
(1.02941 0.839787 -1.10339e-20)
(0.947708 0.792846 8.02214e-22)
(0.864989 0.736223 1.26643e-20)
(0.797739 0.676389 1.08219e-19)
(0.756205 0.623449 -1.68131e-20)
(0.713165 0.562191 -6.32784e-20)
(0.602673 0.454615 -2.60129e-20)
(0.405431 0.295895 3.03738e-20)
(0.199713 0.140418 6.80441e-23)
(0.043864 0.0281457 4.20528e-20)
(-0.0447319 -0.0326325 -9.93581e-20)
(-0.0642703 -0.0450709 1.17974e-19)
(-0.0220913 -0.0152835 1.7412e-20)
(0.23404 0.179635 1.3105e-20)
(1.07691 0.816234 -9.13048e-21)
(1.26807 0.97214 1.32001e-21)
(1.28563 1.00327 1.21154e-20)
(1.23625 0.98471 2.0301e-21)
(1.16638 0.950882 -1.2337e-20)
(1.09206 0.913449 3.74921e-21)
(1.01304 0.871672 -4.6098e-20)
(0.929791 0.822968 -1.00093e-19)
(0.844566 0.763977 -1.0265e-19)
(0.774212 0.700664 0)
(0.730035 0.642854 -7.44706e-20)
(0.685173 0.5747 9.1695e-20)
(0.576165 0.459082 0)
(0.387793 0.295345 -6.53778e-20)
(0.192855 0.138704 3.85668e-20)
(0.0442632 0.027823 -4.53649e-20)
(-0.0421451 -0.0319225 -5.36097e-20)
(-0.0629373 -0.0453012 -9.51743e-20)
(-0.0219237 -0.015747 -7.51822e-20)
(0.233893 0.187256 -1.48882e-20)
(1.06761 0.846204 9.78391e-21)
(1.25509 1.0071 2.18851e-20)
(1.27124 1.03843 1.79939e-20)
(1.22161 1.01876 -3.39038e-21)
(1.15171 0.983692 -6.04109e-21)
(1.07707 0.945013 1.279e-20)
(0.997235 0.90195 -4.74574e-20)
(0.912474 0.851802 -5.97068e-20)
(0.824668 0.790878 1.08384e-19)
(0.750818 0.724502 2.40744e-19)
(0.703313 0.661781 0)
(0.656016 0.585838 0)
(0.548565 0.460772 -3.00596e-20)
(0.370197 0.291096 0)
(0.188515 0.133681 8.29413e-20)
(0.0492121 0.0261176 9.76474e-20)
(-0.0359626 -0.0312664 0)
(-0.0619742 -0.0460026 0)
(-0.0231479 -0.0170117 8.10292e-20)
(0.233606 0.194452 1.69797e-20)
(1.05872 0.874562 1.34005e-20)
(1.24246 1.0399 1.59333e-20)
(1.25725 1.07134 -1.76035e-20)
(1.20745 1.05068 -5.04443e-21)
(1.13756 1.01452 5.19762e-21)
(1.06267 0.974775 -1.75931e-20)
(0.982101 0.930656 -2.60539e-22)
(0.895882 0.879369 -1.06168e-21)
(0.805447 0.816954 -6.41692e-22)
(0.727756 0.748028 1.24745e-19)
(0.676136 0.680508 0)
(0.625482 0.59595 9.42579e-20)
(0.51909 0.4596 6.49081e-20)
(0.351517 0.281871 1.5374e-19)
(0.186242 0.121928 4.49301e-20)
(0.0621351 0.0153598 -5.265e-20)
(-0.0155253 -0.0402311 -3.10843e-20)
(-0.0477734 -0.0501713 0)
(-0.0231848 -0.018677 8.75482e-20)
(0.233685 0.201686 -3.8538e-20)
(1.05021 0.901416 0)
(1.23017 1.07057 1.89054e-20)
(1.2437 1.1021 -1.50214e-20)
(1.19382 1.08055 7.59046e-21)
(1.12398 1.04345 -3.70027e-21)
(1.04893 1.00279 3.36413e-20)
(0.967705 0.957829 -3.83382e-21)
(0.880096 0.905684 0)
(0.787038 0.842195 -1.21151e-19)
(0.705226 0.771322 -2.73821e-19)
(0.648659 0.699317 1.12543e-20)
(0.59346 0.605511 1.31933e-19)
(0.486895 0.456064 0)
(0.329419 0.267464 1.04627e-19)
(0.181503 0.099053 0)
(0.0784221 -0.0172201 0)
(0.0263327 -0.0817213 -3.36387e-20)
(0.0190713 -0.0702793 0)
(0.0168688 -0.00457 2.35839e-20)
(0.233456 0.208382 -4.31364e-20)
(1.04206 0.927086 0)
(1.21824 1.09935 3.17035e-20)
(1.23057 1.13095 0)
(1.18071 1.10865 -4.85666e-21)
(1.11093 1.07077 0)
(1.0358 1.02937 1.50881e-21)
(0.953958 0.983798 6.67132e-21)
(0.865003 0.931099 7.64818e-21)
(0.769281 0.866964 -1.33855e-19)
(0.683044 0.794832 8.2655e-21)
(0.620566 0.718935 9.1421e-20)
(0.559329 0.615431 1.29641e-19)
(0.45061 0.450961 1.73241e-20)
(0.30082 0.249153 8.28094e-20)
(0.16615 0.0660289 0)
(0.0793581 -0.0732335 1.11319e-19)
(0.0463334 -0.109159 -6.53686e-20)
(0.0222656 0.0319386 7.65673e-20)
(-0.0390276 0.46234 -9.09499e-20)
(0.233273 0.214922 3.57922e-20)
(1.03403 0.9514 5.37955e-20)
(1.20657 1.12654 0)
(1.2177 1.15834 9.92255e-22)
(1.16792 1.13555 1.48688e-20)
(1.09813 1.09717 -8.33152e-22)
(1.02295 1.0553 1.13267e-20)
(0.940436 1.00949 0)
(0.850054 0.956683 5.04948e-20)
(0.751469 0.892525 -6.97242e-21)
(0.660238 0.819986 0)
(0.590397 0.740925 0)
(0.520605 0.626723 1.17459e-19)
(0.407004 0.444475 -5.37892e-20)
(0.26197 0.22873 -8.49958e-20)
(0.134322 0.0261073 0)
(0.0493067 -0.0389943 5.68752e-20)
(0.00229868 0.449599 -6.57932e-20)
(0.0276017 1.94664 -3.68967e-20)
(0.0535918 2.83433 -4.53751e-20)
(0.232824 0.220964 -2.70019e-20)
(1.0262 0.97454 -6.92704e-20)
(1.1952 1.15216 1.89309e-20)
(1.20511 1.18414 1.50852e-20)
(1.15551 1.16108 0)
(1.08568 1.12237 -2.72208e-21)
(1.01061 1.08028 1.48003e-20)
(0.927353 1.03448 -3.23547e-21)
(0.835559 0.98194 7.63151e-21)
(0.734042 0.918318 1.28729e-19)
(0.637508 0.846241 1.41506e-19)
(0.559221 0.765405 1.04946e-19)
(0.478009 0.640189 1.19699e-19)
(0.356634 0.436495 -1.28564e-19)
(0.217481 0.211156 -1.3008e-19)
(0.0896262 0.0882488 0)
(0.0334535 0.918998 0)
(0.0787081 2.59793 3.17107e-20)
(0.0819888 3.22006 0)
(0.0841607 3.39191 8.2599e-20)
(0.235218 0.226688 0)
(1.01891 0.996914 0)
(1.18381 1.17606 0)
(1.19262 1.20822 4.6338e-21)
(1.14315 1.18497 1.36894e-20)
(1.0734 1.14622 -4.51868e-21)
(0.998698 1.10419 9.30844e-21)
(0.914643 1.05863 -3.15874e-21)
(0.821459 1.00669 6.35462e-20)
(0.717003 0.944178 -1.51272e-21)
(0.614982 0.873415 2.82287e-19)
(0.527454 0.792561 -1.22392e-20)
(0.431504 0.657242 1.47483e-20)
(0.300679 0.425911 1.88314e-20)
(0.16037 0.227004 -8.46022e-22)
(0.0778756 1.03669 3.43912e-22)
(0.112674 2.78148 -1.71638e-19)
(0.117102 3.30316 -6.4424e-20)
(0.109867 3.42274 3.39043e-20)
(0.101145 3.44206 -3.83858e-20)
(0.158129 0.172062 1.65523e-20)
(1.00723 1.02125 0)
(1.17218 1.19848 -3.90376e-20)
(1.18065 1.23102 -4.14992e-20)
(1.13128 1.20771 3.32835e-20)
(1.06198 1.16921 5.7364e-21)
(0.987008 1.12708 -9.33497e-21)
(0.90234 1.082 3.44159e-20)
(0.80784 1.03102 -5.23727e-20)
(0.700599 0.970226 0)
(0.593017 0.901599 1.40369e-19)
(0.495688 0.822274 -8.69665e-20)
(0.385514 0.687365 0)
(0.236713 0.418973 1.85843e-20)
(0.1132 0.703854 4.3384e-20)
(0.127355 2.5941 -4.84757e-20)
(0.172839 3.32638 5.47861e-20)
(0.157868 3.42975 2.9432e-20)
(0.132053 3.44869 3.31571e-20)
(0.11418 3.4577 5.2886e-20)
(0.269501 0.263745 -3.18733e-20)
(0.988438 1.03046 0)
(1.15285 1.22395 4.22311e-20)
(1.16521 1.26216 4.59509e-20)
(1.11306 1.24124 -3.78759e-20)
(1.04317 1.20305 -1.05062e-20)
(0.966968 1.16245 6.84483e-21)
(0.881585 1.11858 2.74643e-21)
(0.785315 1.06973 5.00766e-20)
(0.674369 1.01295 1.13371e-19)
(0.559381 0.950347 7.9218e-21)
(0.446257 0.871039 7.85886e-20)
(0.298287 0.7091 1.42685e-20)
(0.194533 0.851842 -1.80633e-20)
(0.200937 2.48058 -4.0013e-20)
(0.251907 3.32714 3.91985e-20)
(0.234669 3.45116 -4.28716e-20)
(0.201552 3.47086 -2.45312e-20)
(0.169239 3.4959 -2.22711e-20)
(0.124806 3.4921 -3.2076e-21)
(0.259374 0.262429 0)
(0.984877 1.05294 1.24092e-20)
(1.1435 1.24738 -8.73162e-21)
(1.15356 1.28569 -5.52013e-21)
(1.1014 1.26452 -2.63495e-20)
(1.03148 1.22649 1.12007e-20)
(0.954878 1.18606 -2.84103e-21)
(0.869096 1.14301 2.45057e-21)
(0.771914 1.09564 -5.23054e-20)
(0.658886 1.04182 -2.59624e-21)
(0.539464 0.984055 -2.57003e-19)
(0.417478 0.90656 1.13246e-20)
(0.274564 0.782819 -1.3599e-20)
(0.230812 1.52523 -1.6688e-20)
(0.295302 3.14513 3.65257e-21)
(0.306516 3.45097 7.18484e-23)
(0.266173 3.498 6.44172e-20)
(0.233118 3.52321 3.26694e-20)
(0.187965 3.54406 -1.07152e-20)
(0.138789 3.54172 -1.62091e-20)
(0.245205 0.260194 3.18425e-20)
(0.980363 1.07791 8.41204e-20)
(1.13377 1.2729 -2.48583e-20)
(1.14152 1.31086 -2.06912e-20)
(1.08926 1.28927 0)
(1.01939 1.25126 2.19409e-20)
(0.942674 1.21107 -1.08156e-21)
(0.856753 1.16882 2.12821e-21)
(0.758984 1.12307 -5.89259e-21)
(0.644456 1.0726 -1.03627e-19)
(0.521631 1.02041 -1.19288e-19)
(0.391999 0.943565 -9.29854e-20)
(0.275381 0.938381 -1.02905e-19)
(0.298436 2.32904 1.05704e-19)
(0.377795 3.3794 8.89224e-20)
(0.347082 3.50466 0)
(0.300327 3.54384 0)
(0.264235 3.57864 -8.61617e-21)
(0.221932 3.62359 0)
(0.1529 3.61026 -1.33865e-20)
(0.235231 0.261886 -4.75126e-20)
(0.973905 1.10369 -7.1298e-20)
(1.12262 1.29964 0)
(1.1282 1.33685 1.20558e-21)
(1.07584 1.31469 -2.89976e-20)
(1.00619 1.27661 3.65747e-20)
(0.929695 1.23672 1.04122e-21)
(0.843866 1.19521 1.06522e-21)
(0.745781 1.1511 -3.68758e-20)
(0.630231 1.10407 5.143e-21)
(0.505046 1.05762 0)
(0.36813 0.983781 0)
(0.297114 1.2483 -9.3849e-20)
(0.380413 2.98322 3.81212e-20)
(0.443414 3.47494 4.86154e-20)