/*--------------------------------*- C++ -*----------------------------------*\
  =========                 |
  \\      /  F ield         | OpenFOAM: The Open Source CFD Toolbox
   \\    /   O peration     | Website:  https://openfoam.org
    \\  /    A nd           | Version:  6
     \\/     M anipulation  |
\*---------------------------------------------------------------------------*/
FoamFile
{
    version     2.0;
    format      ascii;
    class       volScalarField;
    location    "14";
    object      p;
}
// * * * * * * * * * * * * * * * * * * * * * * * * * * * * * * * * * * * * * //

dimensions      [0 2 -2 0 0 0 0];

internalField   nonuniform List<scalar> 
918
(
0.185108
0.952003
0.00644294
0.184519
0.000682594
0.920428
-0.851261
0.374108
0.165556
-0.172578
0.0179573
0.159043
0.777116
0.543899
-1.53383
0.0141108
0.326948
-0.697891
0.163135
0.0050816
0.440631
0.172904
0.175368
0.166114
0.220854
0.512064
0.65538
0.000942834
-0.00322723
-0.00258728
0.00265041
-0.000899511
0.00384884
0.803572
0.85552
0.878582
0.137158
-0.0373706
-0.721361
-0.789589
-0.76668
-0.890501
0.361945
0.364324
-0.529956
0.374978
0.38766
0.153049
0.164727
0.165526
0.167551
0.166019
0.167363
0.277682
-0.221785
-0.305152
-0.103046
-0.0767495
0.0706277
0.0169065
0.00381005
0.0230462
0.023955
0.0953308
0.154554
0.151145
0.165441
0.174638
0.892183
0.865865
0.891787
0.803016
0.820438
0.75406
0.727123
0.565787
0.589949
0.528409
0.515414
-2.00678
-2.9687
-0.942461
-0.653494
0.00199424
0.0202085
0.0242493
0.313103
0.315252
0.322003
0.334899
0.778728
-0.696548
-0.817501
0.162999
0.161537
0.17161
0.172831
0.1677
0.167941
0.0132107
0.0220817
-0.000716348
0.00448602
0.00455409
0.422926
0.421174
0.165886
0.163137
0.182913
0.205939
0.196804
-0.0683457
0.234813
0.252837
0.352323
0.509385
0.502227
0.512489
0.631124
0.598608
0.686175
0.707573
0.00690258
0.00179004
0.00978317
0.00746464
0.00927391
0.131632
0.125936
0.144966
0.138392
0.139416
-0.125685
-0.272699
0.0350967
0.0531893
-0.644788
-0.695034
-0.769242
-0.810777
-0.878788
0.14709
0.350802
0.355279
-0.538433
-0.463684
-0.600429
-0.401962
-0.468369
0.142492
0.150625
0.146785
0.160462
0.155097
0.156639
0.168761
0.165842
0.167551
0.300966
0.369703
0.226031
0.207561
-0.541339
-0.375045
-0.485323
-0.0429876
-0.034455
0.082982
0.0939292
0.0614646
0.059592
-0.00221401
0.00690929
0.0037534
0.0235491
0.0249736
0.0895954
0.0784021
0.102914
0.109671
0.14659
0.14608
0.148713
0.149347
0.677821
0.700447
0.707151
0.683647
-3.96078
-6.61752
-0.292124
-0.124891
0.00195831
0.00312395
0.00123468
0.0023026
0.00390465
0.00117215
0.0367234
0.0369742
0.0286778
0.0341118
0.299841
0.303197
0.756599
0.77715
0.707326
0.670963
0.151953
0.15402
0.15957
0.155713
0.0251139
0.0242907
0.0274343
0.3868
0.404475
0.401977
-0.103985
-0.192793
-0.0199345
0.00778183
0.291048
0.268862
0.293156
0.415742
0.456157
0.72354
0.748264
0.732404
0.745689
0.79681
0.819717
0.784546
0.114921
0.123826
0.119023
0.15119
0.148259
0.148902
0.146371
0.145768
0.144027
-0.386209
-0.759008
0.107055
0.10517
0.0827444
0.0852939
0.231323
0.318088
0.328996
0.340457
0.338899
-0.352932
-0.404265
0.174473
0.15987
0.0326852
0.0643619
0.0484238
0.65466
0.614699
0.662692
0.638063
0.602884
0.627296
-0.69442
-2.48285
-1.46073
0.290904
0.0855032
0.181668
0.0539375
0.0390595
0.0463567
0.743034
0.737494
0.433253
0.57388
0.541494
0.482501
0.508835
0.573327
0.502493
0.5382
0.5726
0.546352
0.105611
0.112331
0.0959199
0.393296
0.456499
-0.22751
-0.291603
-0.328718
0.102998
0.136764
0.12567
0.674828
0.531758
0.630991
0.164591
0.164606
0.0115233
0.0197693
0.167128
0.166938
0.00634156
0.00867247
0.193728
-1.32427
-0.209058
0.157922
0.148198
0.163338
-0.195821
0.295339
0.0153219
0.0816238
0.0577974
0.155712
0.104621
0.0676338
0.00729933
0.0196445
0.0159879
-0.488745
0.161927
0.159584
0.16284
0.164116
0.164942
0.00882853
0.0104377
0.00682471
0.0129688
0.010476
0.00919725
0.132741
0.144277
-0.504148
0.163008
0.164973
0.164725
0.159469
0.163535
0.161769
0.0151808
0.0107204
0.00974657
-0.123092
0.00426897
0.39891
0.490867
0.333464
0.156622
-0.145592
0.323026
0.3828
0.296732
0.443035
0.331928
0.350949
-0.156955
-0.29995
-0.148504
-0.211727
0.155048
0.153527
0.14526
0.142249
0.158083
0.155943
0.160921
0.158705
0.161503
0.162533
-0.117238
-0.0830997
-0.254182
-0.334846
0.29912
0.396093
0.199766
0.220794
0.129105
0.0201844
0.0212522
0.0152025
0.0126367
0.049217
0.0610668
0.07657
0.0611972
0.0490805
0.0428409
0.0505874
0.0568559
0.0602924
0.150782
0.149153
0.15385
0.161828
0.112674
0.114963
0.086309
0.102994
0.0941194
0.0400624
0.0681717
0.0459413
0.0078713
0.00830618
0.0065377
0.0235146
0.0271719
0.0142823
0.0119082
0.0135833
0.0104506
0.0106131
0.0190534
0.0223715
-0.510382
-0.575625
0.632623
0.595183
-0.601208
0.151618
0.155452
0.153317
0.1579
0.160706
0.161
0.159057
0.1567
0.145577
0.148117
0.142507
0.144077
-0.452711
-0.582218
-0.40587
-0.4809
-0.201831
0.27453
0.012483
-0.0418389
-0.0510019
0.161859
0.337584
0.307113
0.418787
0.420282
-0.760691
-0.325068
-0.674923
-0.130915
-0.150325
0.419724
0.464637
0.482803
0.438796
0.39055
-0.379306
0.158153
-0.382576
-0.357313
-0.183365
-0.262063
0.378893
0.313539
0.322393
0.338926
0.365624
0.324145
0.310669
0.306408
0.333529
0.340187
0.143126
-0.0806575
-0.123453
-0.164182
0.297557
0.18195
0.234763
0.146537
0.1495
0.152361
0.151964
0.138018
0.140354
0.137435
0.14297
0.145932
0.153259
0.153841
0.149702
0.151408
-0.0525076
-0.0322409
-0.224356
-0.467264
-0.36222
-0.451684
-0.336146
-0.140181
-0.0454116
-0.374618
0.0419126
-0.332763
-0.559267
-0.428807
-0.626277
-0.303226
-0.454969
0.086757
0.14378
0.15099
0.146876
0.187563
0.174132
0.0337163
0.0405349
0.0223558
0.0242326
0.0810005
0.0988406
0.100858
0.0429901
0.0465134
0.0230264
0.0240904
0.0511217
0.0306507
0.0410286
0.0496953
0.0197711
0.0231504
0.0275095
0.0324158
0.0370592
0.0381008
0.143846
0.146713
0.144132
0.158146
0.166684
0.180369
0.154605
0.130954
0.120914
0.12511
0.10439
0.109453
0.109952
0.118718
0.135754
0.142258
0.14079
0.142027
0.12944
0.130804
0.116166
0.120979
0.103696
0.0868799
0.0759837
0.0170472
0.0110145
0.0143965
0.0148352
0.0105915
0.012531
0.0401025
0.0314023
0.0351931
0.0315299
0.0369993
0.01702
0.0176941
-0.568051
-0.621215
-0.55155
-0.569399
-0.62479
0.550295
0.624413
0.474716
0.275415
0.251813
0.467898
0.587794
0.360424
0.440512
0.483502
0.0878006
0.393645
0.155965
0.15565
0.153051
0.152421
0.153601
-0.371643
-0.277418
-0.253547
-0.210681
-0.0870715
0.0119427
-0.00678099
-0.156626
-0.0140668
0.0429044
0.273551
0.286234
0.228503
0.251083
0.249374
0.0814649
0.159449
0.200595
0.157072
0.208642
0.236707
0.191216
0.224859
0.164592
0.125584
0.121875
0.066518
0.0969932
0.078238
0.0554133
0.145355
0.126827
0.135659
0.127432
0.145934
0.17794
0.172233
0.191506
0.208995
0.134928
0.0910404
0.10544
0.132433
0.0901106
0.103432
0.120312
-0.18412
-0.278087
-0.154959
-0.484947
-0.353397
-0.319901
-0.356139
-0.438617
-0.135089
-0.764715
-0.682257
-1.3666
0.0959572
0.506915
0.340761
0.355876
0.362692
0.338049
0.342968
0.368629
0.379562
0.288297
0.305832
0.3083
0.263772
0.297355
0.309115
0.312621
0.124117
0.0561087
0.037054
-0.00274933
-0.137978
-0.106777
0.0733107
0.0136492
-0.055491
-0.053817
0.117027
0.00686477
0.0699941
0.109146
0.0587273
-0.00281921
0.202672
0.260178
0.24899
0.219344
0.135164
0.153726
0.171557
0.207757
0.23708
0.271671
0.142961
0.146775
0.148562
0.146688
0.142258
0.145856
0.146895
0.147603
0.14826
0.150609
0.149464
0.0103711
0.00904774
-0.0106637
0.00484765
-0.0704217
-0.0978827
-0.0627726
-0.11323
0.01863
0.00760337
-0.0455851
-0.0324736
-0.0138245
-0.000924082
0.0830248
0.0990611
0.0490675
0.00833611
-0.0847671
0.194256
0.182261
0.0492441
-0.0585256
0.0326625
0.145741
0.06293
0.0752678
0.0673386
0.0771519
0.073022
0.0310184
0.0263623
0.0288424
0.0386564
0.0342608
0.0248341
0.023191
0.0246459
0.0256226
0.0255052
0.0253536
0.130335
0.124162
0.127392
0.121145
0.120193
0.133075
0.136334
0.137378
0.141553
0.143429
0.135911
0.139819
0.143015
0.026725
0.0210312
0.0228547
0.0229406
0.0218678
0.0191145
0.0196243
-0.246889
-0.599571
-0.596933
-0.482166
-0.527213
-0.49757
0.148685
0.0401223
0.101293
0.260932
0.156058
0.0428543
0.0817026
0.198863
-0.0761004
0.0981581
-0.0635966
0.471957
0.350966
0.485529
0.156174
-0.129481
0.000305143
0.0231139
-0.124871
-0.0362073
-0.0282224
-0.150798
-0.116305
-0.0906949
-0.0156194
-0.120171
-0.148013
-0.367111
-0.179077
-0.0913453
-0.1064
0.0199255
0.0712429
-0.0749297
-0.188969
-0.243845
0.255987
0.277404
0.292025
0.263799
0.284784
0.214216
0.203609
0.221735
0.231754
0.22636
-1.01305
-0.603762
-1.81735
-1.24813
-0.78352
0.123802
0.101597
0.349834
0.265696
0.343649
0.330688
0.277765
0.243325
0.256871
0.292411
-0.000505095
0.103888
0.0652791
0.0885991
0.0202562
-0.0538494
0.220709
0.225708
0.250009
0.277033
0.25183
0.28052
0.139319
0.139615
0.141443
0.139406
0.135455
0.137231
0.0499391
0.0400125
0.0119385
-0.00687172
-0.00710989
0.00407035
0.0299146
0.0270206
0.0249641
0.0248393
0.0281879
0.0320061
-0.17757
-0.259827
-0.415511
-0.311961
-0.374079
-0.467057
-0.47091
-0.387723
-0.257873
-0.277531
-0.0619625
0.249155
0.068926
0.237455
-0.152772
0.0767902
0.109799
0.0776394
0.10557
0.0120312
0.114489
-0.376115
-0.54202
-0.60527
0.416726
0.368129
0.16488
-0.0954782
-0.193185
0.111517
0.15729
0.124482
0.160049
0.209542
0.204147
-0.385341
-0.313928
-0.221406
0.0706405
-0.155603
-0.148104
-0.145088
-0.00579083
-0.0428744
)
;

boundaryField
{
    wall-4
    {
        type            zeroGradient;
    }
    velocity-inlet-5
    {
        type            zeroGradient;
    }
    velocity-inlet-6
    {
        type            zeroGradient;
    }
    pressure-outlet-7
    {
        type            fixedValue;
        value           uniform 0;
    }
    wall-8
    {
        type            zeroGradient;
    }
    frontAndBackPlanes
    {
        type            empty;
    }
}


// ************************************************************************* //
