/*--------------------------------*- C++ -*----------------------------------*\
  =========                 |
  \\      /  F ield         | OpenFOAM: The Open Source CFD Toolbox
   \\    /   O peration     | Website:  https://openfoam.org
    \\  /    A nd           | Version:  6
     \\/     M anipulation  |
\*---------------------------------------------------------------------------*/
FoamFile
{
    version     2.0;
    format      ascii;
    class       volScalarField;
    location    "95.2";
    object      p;
}
// * * * * * * * * * * * * * * * * * * * * * * * * * * * * * * * * * * * * * //

dimensions      [0 2 -2 0 0 0 0];

internalField   nonuniform List<scalar> 
8800
(
0.86981
0.820496
0.782532
0.754466
0.734308
0.719727
0.709137
0.701608
0.696738
0.694689
0.696081
0.700443
0.707251
0.716687
0.729432
0.746759
0.770641
0.803741
0.84668
0.899195
0.704298
0.710644
0.719796
0.723347
0.720742
0.714658
0.707724
0.701492
0.696704
0.693853
0.693645
0.696295
0.700956
0.707098
0.714208
0.72125
0.726135
0.726015
0.719344
0.710448
0.677803
0.68404
0.688543
0.692418
0.695371
0.696327
0.695247
0.693139
0.691176
0.69036
0.691418
0.693895
0.6968
0.699085
0.699617
0.697837
0.694478
0.69047
0.685693
0.681977
0.673486
0.676252
0.678862
0.681024
0.682768
0.684345
0.685459
0.685826
0.685733
0.685859
0.686695
0.687865
0.688629
0.688497
0.687536
0.686193
0.684532
0.682237
0.67983
0.678264
0.668407
0.669833
0.671676
0.673763
0.675483
0.676786
0.677898
0.678896
0.67973
0.6805
0.681248
0.681742
0.681794
0.681453
0.680803
0.679702
0.678058
0.676173
0.674824
0.674022
0.663386
0.66429
0.665541
0.667175
0.668878
0.670423
0.671724
0.67287
0.673965
0.675023
0.675855
0.676287
0.676332
0.675993
0.675213
0.674043
0.672698
0.671443
0.670627
0.670103
0.65844
0.659097
0.660063
0.661389
0.662849
0.664381
0.665887
0.66728
0.668581
0.669836
0.670845
0.671392
0.671455
0.671055
0.670304
0.669386
0.668415
0.667525
0.666951
0.666566
0.653563
0.654068
0.65486
0.656011
0.657327
0.658764
0.660299
0.661876
0.663435
0.664954
0.666181
0.666857
0.666993
0.66672
0.666195
0.665538
0.664827
0.664182
0.663762
0.663462
0.6487
0.649101
0.649768
0.650802
0.652051
0.653441
0.654979
0.656663
0.658452
0.660275
0.661781
0.662672
0.663021
0.662994
0.662723
0.662298
0.661802
0.661356
0.661048
0.660804
0.643766
0.644093
0.644674
0.645633
0.646842
0.648228
0.649813
0.651612
0.653618
0.655767
0.657636
0.658863
0.659525
0.659784
0.65977
0.659589
0.659301
0.659021
0.658799
0.658593
0.638671
0.638942
0.639464
0.640381
0.641582
0.643006
0.644681
0.646642
0.648906
0.651437
0.65376
0.655418
0.656457
0.657043
0.657312
0.657379
0.657302
0.657173
0.65702
0.656841
0.63332
0.633549
0.634034
0.63494
0.636173
0.637678
0.639489
0.64167
0.644267
0.64727
0.650147
0.65232
0.653802
0.654765
0.655352
0.655674
0.655822
0.655835
0.655739
0.655579
0.627617
0.627811
0.628279
0.629204
0.63051
0.632142
0.634146
0.636619
0.639638
0.643227
0.646775
0.649563
0.651564
0.652961
0.653912
0.654536
0.65491
0.655055
0.655007
0.654858
0.621451
0.621618
0.622085
0.623058
0.624478
0.626291
0.628556
0.631406
0.634954
0.639261
0.643621
0.647145
0.649762
0.651664
0.653035
0.653997
0.654616
0.654894
0.654887
0.654745
0.614693
0.614837
0.615319
0.616369
0.617949
0.620002
0.62261
0.625936
0.630139
0.635324
0.640665
0.645069
0.648418
0.650917
0.652766
0.654115
0.655013
0.655429
0.65546
0.655321
0.607193
0.607312
0.607825
0.608981
0.610773
0.613138
0.61618
0.620103
0.625116
0.631368
0.63789
0.643343
0.647557
0.650762
0.653184
0.654982
0.656191
0.656751
0.656816
0.656675
0.598756
0.59886
0.599406
0.600703
0.602767
0.605528
0.609115
0.613782
0.619791
0.62734
0.635279
0.641982
0.647215
0.651252
0.654361
0.656685
0.658245
0.658954
0.659051
0.658903
0.589096
0.589201
0.589816
0.591286
0.593702
0.596963
0.601234
0.606827
0.614062
0.623187
0.632819
0.640999
0.647437
0.652452
0.656369
0.65931
0.661266
0.662132
0.662255
0.662097
0.577918
0.578
0.5787
0.580425
0.583286
0.587183
0.592317
0.599067
0.607814
0.618851
0.630502
0.640417
0.648265
0.65443
0.659277
0.662945
0.665339
0.666362
0.666503
0.666331
0.564799
0.564868
0.565679
0.567718
0.571146
0.575859
0.582094
0.590302
0.600924
0.61428
0.628326
0.640262
0.649737
0.657235
0.663167
0.667657
0.670519
0.671689
0.671839
0.67165
0.549145
0.549205
0.550168
0.552629
0.556801
0.56258
0.570242
0.580312
0.593271
0.609437
0.6263
0.640567
0.651893
0.660912
0.668072
0.673474
0.676816
0.678107
0.67825
0.678041
0.530117
0.530173
0.53136
0.534416
0.539605
0.546824
0.556379
0.568865
0.584762
0.604321
0.624458
0.641361
0.654767
0.665482
0.673991
0.68038
0.684169
0.685531
0.685646
0.685418
0.506485
0.506546
0.508087
0.512038
0.518691
0.52793
0.540085
0.555763
0.57536
0.598984
0.622866
0.642692
0.658375
0.670942
0.6809
0.688276
0.692418
0.693774
0.693838
0.693593
0.47632
0.476413
0.478569
0.483975
0.492926
0.505148
0.520985
0.540916
0.565142
0.593557
0.621635
0.644623
0.66273
0.67724
0.688716
0.696975
0.70129
0.702536
0.702529
0.702273
0.436359
0.436591
0.44002
0.448118
0.460958
0.477826
0.498929
0.524461
0.554347
0.58826
0.620917
0.647241
0.667838
0.684323
0.697272
0.706178
0.7104
0.711419
0.711329
0.711075
0.380381
0.381557
0.38842
0.40214
0.421789
0.445857
0.474265
0.506873
0.5434
0.583395
0.620887
0.650629
0.673707
0.692091
0.706325
0.71549
0.719277
0.719982
0.719819
0.719577
0.299367
0.307327
0.323149
0.347204
0.377044
0.410752
0.448042
0.488726
0.532552
0.579098
0.621733
0.655126
0.680889
0.701297
0.716492
0.725485
0.728624
0.729013
0.72881
0.72861
0.212995
0.230459
0.256167
0.291322
0.331907
0.375369
0.421513
0.470332
0.521679
0.575229
0.623657
0.661303
0.690279
0.712884
0.728848
0.736953
0.739127
0.739233
0.739063
0.73894
0.138819
0.160192
0.194151
0.238805
0.288897
0.341544
0.396295
0.453077
0.511717
0.571891
0.625618
0.667038
0.698758
0.72307
0.739126
0.746077
0.747538
0.747545
0.747416
0.747329
0.077865
0.101617
0.141236
0.19271
0.25021
0.310505
0.372817
0.436861
0.502265
0.568585
0.627154
0.671919
0.705945
0.731506
0.747432
0.753607
0.754723
0.754696
0.754588
0.754512
0.0272145
0.0524004
0.0961116
0.152871
0.216285
0.282838
0.35155
0.421954
0.493446
0.565387
0.628382
0.676167
0.712207
0.738794
0.754552
0.760147
0.761065
0.761021
0.760923
0.760848
-0.0157403
0.0102848
0.0570164
0.118048
0.186418
0.258294
0.332518
0.408512
0.485478
0.562552
0.629605
0.680108
0.717896
0.745268
0.760785
0.765951
0.766765
0.766724
0.766635
0.766555
-0.0530783
-0.0265126
0.0225681
0.0871405
0.159743
0.23626
0.315379
0.396411
0.478392
0.560224
0.631034
0.683984
0.723237
0.75114
0.766359
0.771212
0.771986
0.771971
0.771901
0.771815
-0.0863218
-0.0593466
-0.00834299
0.0592492
0.135531
0.216143
0.29968
0.385351
0.472026
0.558382
0.632748
0.687959
0.728466
0.756698
0.771573
0.776179
0.77695
0.776992
0.776961
0.776874
-0.116536
-0.0892009
-0.0365726
0.0336604
0.113197
0.197464
0.285021
0.375006
0.466153
0.556897
0.634755
0.692145
0.733805
0.762269
0.776798
0.781195
0.781978
0.782092
0.782116
0.782037
-0.144569
-0.116866
-0.0627887
0.00983427
0.0922715
0.179832
0.271068
0.365095
0.460542
0.55562
0.637018
0.696627
0.739453
0.768152
0.782381
0.786597
0.787383
0.787566
0.78765
0.787585
-0.170857
-0.142821
-0.0874223
-0.0126577
0.0723921
0.16294
0.257566
0.355385
0.45499
0.554421
0.639489
0.701453
0.74553
0.774529
0.788549
0.792608
0.793373
0.793589
0.793719
0.79367
-0.19592
-0.167473
-0.110853
-0.0341338
0.0532797
0.146545
0.244307
0.345695
0.449317
0.553149
0.642094
0.706622
0.752069
0.781479
0.795316
0.799237
0.799938
0.800152
0.800302
0.80027
-0.219932
-0.191072
-0.133307
-0.0548146
0.0347341
0.13048
0.231133
0.335876
0.443375
0.55165
0.644739
0.712093
0.759038
0.788872
0.802571
0.806328
0.806934
0.807108
0.807254
0.807235
-0.243078
-0.213785
-0.154956
-0.0748454
0.016634
0.114632
0.217936
0.325808
0.437033
0.549761
0.647274
0.717809
0.766413
0.796638
0.810115
0.813637
0.814113
0.814223
0.814346
0.814349
-0.265496
-0.235732
-0.175899
-0.0943118
-0.00110801
0.0989279
0.204653
0.315421
0.430181
0.54733
0.649536
0.723703
0.774212
0.804728
0.817748
0.820901
0.82122
0.821257
0.821344
0.821354
-0.287286
-0.257006
-0.196182
-0.11326
-0.0185189
0.0833325
0.191251
0.304671
0.422744
0.544209
0.651347
0.729666
0.782501
0.813232
0.82539
0.827904
0.828013
0.828013
0.828073
0.828073
-0.308357
-0.277588
-0.215821
-0.131724
-0.0356167
0.0678547
0.177723
0.293552
0.414686
0.5403
0.652512
0.735553
0.791341
0.822453
0.833313
0.834602
0.834306
0.834346
0.834481
0.834469
-0.328718
-0.297485
-0.234843
-0.1497
-0.0523888
0.0525069
0.164106
0.282073
0.406
0.535515
0.652847
0.741156
0.800743
0.832795
0.842132
0.841438
0.840109
0.840226
0.840788
0.840924
-0.34845
-0.316692
-0.25326
-0.167189
-0.0688059
0.0373336
0.150444
0.270281
0.396703
0.529812
0.652164
0.746223
0.81056
0.844575
0.85291
0.849741
0.846331
0.84614
0.847704
0.848745
-0.367436
-0.335205
-0.271041
-0.184149
-0.0848387
0.0223897
0.1368
0.258241
0.386849
0.523196
0.650304
0.750437
0.820464
0.857727
0.86643
0.861521
0.855451
0.853209
0.854234
0.855279
-0.38577
-0.353058
-0.288204
-0.200629
-0.100537
0.00762392
0.123109
0.245886
0.376355
0.51558
0.64708
0.7535
0.830179
0.871925
0.88276
0.877987
0.869798
0.861983
0.85366
0.856293
-0.403399
-0.370314
-0.304897
-0.216826
-0.116192
-0.00728242
0.108978
0.23276
0.364725
0.506411
0.641943
0.754804
0.839531
0.887076
0.90123
0.898459
0.887805
0.87273
0.85068
0.852822
-0.420211
-0.386965
-0.320973
-0.232562
-0.131557
-0.0220459
0.0945811
0.219148
0.352188
0.495812
0.634713
0.75328
0.847127
0.901516
0.917678
0.915272
0.902198
0.870877
0.814587
0.791165
-0.43611
-0.404021
-0.336041
-0.24741
-0.145831
-0.0361798
0.0801985
0.20532
0.339013
0.483923
0.625337
0.748107
0.851254
0.913352
0.926324
0.91815
0.892128
0.834001
0.771343
0.733558
-0.477914
-0.420844
-0.349802
-0.262326
-0.159786
-0.0506853
0.0659773
0.191139
0.324965
0.47033
0.61324
0.738332
0.847907
0.917054
0.92265
0.893549
0.831733
0.758573
0.687156
0.647709
-0.451684
-0.432949
-0.370674
-0.282548
-0.181474
-0.0725159
0.0435929
0.168374
0.301773
0.446622
0.58952
0.714853
0.818235
0.89483
0.865287
0.740243
0.639559
0.569628
0.501679
0.523399
-0.481491
-0.449651
-0.386499
-0.298817
-0.198106
-0.089248
0.0271525
0.151433
0.284071
0.427616
0.568564
0.690892
0.783051
0.82579
0.759167
0.605918
0.487341
0.407329
0.32146
0.361148
-0.504302
-0.470162
-0.405323
-0.317592
-0.216924
-0.108036
0.0083262
0.13193
0.263387
0.404823
0.542219
0.658568
0.73847
0.743068
0.621284
0.45516
0.317948
0.219088
0.120373
0.1463
-0.526343
-0.491236
-0.425102
-0.336752
-0.236012
-0.127222
-0.0113367
0.111374
0.241343
0.380105
0.512613
0.619606
0.681861
0.652454
0.480219
0.294505
0.128376
-0.0101689
-0.137797
-0.130866
-0.548012
-0.512595
-0.445626
-0.356734
-0.255884
-0.147318
-0.0320882
0.0895282
0.217633
0.35315
0.479582
0.576783
0.61756
0.537923
0.340841
0.13672
-0.054532
-0.211697
-0.418
-0.498199
-0.570001
-0.534718
-0.467295
-0.378049
-0.277087
-0.168733
-0.0541299
0.0663008
0.192324
0.324155
0.443731
0.531388
0.543498
0.412752
0.213083
-0.00159958
-0.197123
-0.360218
-0.483941
-0.598561
-0.593372
-0.558081
-0.490465
-0.401081
-0.300159
-0.192143
-0.0782981
0.0407154
0.164221
0.291632
0.403612
0.477765
0.460502
0.293672
0.0931898
-0.115086
-0.293867
-0.392466
-0.418491
-0.43168
-0.618262
-0.58298
-0.515261
-0.425917
-0.325246
-0.217773
-0.104976
0.0122462
0.132687
0.254765
0.358562
0.413346
0.375643
0.179047
-0.0190329
-0.206911
-0.342161
-0.380637
-0.389211
-0.389547
-0.64496
-0.609543
-0.541728
-0.452546
-0.352299
-0.245639
-0.134199
-0.0191802
0.097631
0.213546
0.308309
0.345166
0.272654
0.073804
-0.11746
-0.280697
-0.356726
-0.370864
-0.371906
-0.371777
-0.673472
-0.637803
-0.56989
-0.480973
-0.381345
-0.275744
-0.165993
-0.0535984
0.0590594
0.168101
0.252496
0.273004
0.161204
-0.0221836
-0.20243
-0.331613
-0.361007
-0.361706
-0.362321
-0.36193
-0.703548
-0.667608
-0.599657
-0.511129
-0.412309
-0.308049
-0.200347
-0.091001
0.0170238
0.118553
0.192395
0.192985
0.0628756
-0.109774
-0.268951
-0.343326
-0.358218
-0.356462
-0.356224
-0.355863
-0.734641
-0.698609
-0.630772
-0.54279
-0.445014
-0.342407
-0.237122
-0.131276
-0.0282565
0.0653607
0.128446
0.112494
-0.0269164
-0.186405
-0.313965
-0.352615
-0.351914
-0.352011
-0.351748
-0.351451
-0.766306
-0.73028
-0.662752
-0.575545
-0.479113
-0.378499
-0.276038
-0.174149
-0.0764844
0.0095214
0.0595016
0.0367627
-0.10731
-0.246913
-0.340892
-0.34892
-0.349624
-0.349524
-0.34926
-0.349
-0.797572
-0.761754
-0.694878
-0.608763
-0.514056
-0.415848
-0.316627
-0.219124
-0.127223
-0.0481056
-0.00932772
-0.0388461
-0.175164
-0.289636
-0.346653
-0.356434
-0.350254
-0.348854
-0.348288
-0.347972
-0.826744
-0.791759
-0.726115
-0.641562
-0.549063
-0.453742
-0.358212
-0.265451
-0.179676
-0.107066
-0.0729282
-0.116353
-0.229384
-0.322193
-0.345017
-0.348034
-0.34874
-0.348163
-0.34781
-0.3476
-0.852627
-0.818791
-0.75507
-0.67274
-0.583074
-0.491235
-0.399906
-0.312186
-0.232607
-0.166805
-0.134656
-0.1833
-0.269675
-0.340052
-0.36172
-0.350984
-0.347683
-0.346752
-0.346527
-0.346439
-0.872581
-0.840759
-0.779991
-0.700778
-0.61477
-0.527137
-0.440592
-0.358256
-0.284706
-0.225471
-0.195991
-0.235556
-0.296221
-0.338908
-0.345305
-0.346468
-0.345551
-0.345414
-0.345477
-0.345416
-0.884579
-0.855567
-0.798817
-0.723939
-0.642624
-0.560061
-0.478941
-0.402415
-0.334809
-0.280498
-0.252335
-0.279098
-0.313838
-0.334837
-0.337554
-0.343742
-0.346369
-0.346885
-0.346983
-0.346926
-0.885941
-0.860851
-0.809458
-0.740379
-0.665007
-0.588536
-0.51354
-0.443153
-0.38168
-0.331321
-0.299759
-0.319196
-0.335581
-0.34753
-0.350913
-0.350766
-0.350853
-0.350616
-0.350409
-0.350321
-0.874319
-0.854003
-0.809788
-0.748366
-0.680449
-0.611188
-0.543056
-0.478935
-0.423626
-0.379106
-0.33494
-0.359085
-0.356684
-0.381219
-0.370499
-0.358842
-0.354403
-0.352901
-0.352354
-0.352179
-0.847516
-0.832671
-0.79797
-0.746683
-0.687905
-0.627037
-0.566434
-0.508733
-0.458807
-0.421534
-0.373734
-0.367812
-0.354658
-0.36144
-0.35119
-0.349322
-0.349072
-0.349722
-0.350252
-0.350357
-0.808993
-0.799531
-0.775211
-0.735614
-0.687412
-0.635819
-0.583173
-0.53193
-0.486604
-0.454712
-0.422383
-0.385274
-0.33407
-0.317413
-0.338308
-0.348337
-0.351966
-0.355006
-0.357323
-0.357928
-0.765788
-0.760395
-0.746435
-0.718256
-0.681063
-0.638426
-0.593388
-0.548226
-0.506794
-0.475871
-0.447675
-0.414348
-0.378517
-0.348614
-0.34476
-0.359329
-0.381454
-0.394697
-0.398861
-0.399411
-0.727734
-0.724442
-0.717798
-0.699924
-0.671739
-0.636688
-0.598094
-0.557696
-0.518459
-0.486783
-0.459848
-0.452321
-0.464343
-0.507978
-0.527699
-0.539826
-0.52826
-0.498158
-0.480832
-0.482045
-0.700359
-0.698407
-0.695024
-0.684482
-0.663101
-0.63368
-0.599232
-0.561229
-0.522151
-0.486214
-0.459315
-0.453412
-0.501391
-0.582931
-0.659498
-0.688467
-0.683714
-0.641766
-0.588895
-0.571323
-0.680318
-0.679628
-0.678483
-0.673283
-0.657686
-0.63192
-0.598758
-0.560595
-0.518338
-0.475747
-0.446092
-0.416977
-0.394942
-0.40051
-0.425914
-0.443251
-0.429342
-0.411063
-0.38302
-0.368259
-0.668677
-0.668447
-0.667828
-0.66541
-0.654843
-0.631252
-0.597767
-0.557614
-0.511003
-0.460065
-0.416193
-0.360673
-0.27927
-0.187417
-0.118798
-0.0642823
-0.0413636
-0.0252652
-0.011214
-0.00318782
-0.660707
-0.660556
-0.660138
-0.659428
-0.652992
-0.631808
-0.597439
-0.553759
-0.501861
-0.439401
-0.375604
-0.294086
-0.153568
0.019543
0.174369
0.28508
0.350259
0.391488
0.413035
0.422539
-0.655612
-0.655565
-0.655432
-0.655264
-0.651432
-0.633615
-0.598274
-0.550497
-0.492791
-0.41967
-0.337894
-0.242074
-0.0681051
0.16298
0.392702
0.579851
0.710425
0.793376
0.839169
0.857402
-0.651569
-0.651569
-0.651508
-0.651401
-0.650048
-0.636089
-0.600594
-0.549067
-0.486016
-0.405108
-0.310529
-0.207998
-0.0151554
0.258244
0.557873
0.828681
1.03487
1.156
1.21215
1.23088
-0.648157
-0.648223
-0.648228
-0.648129
-0.647968
-0.638165
-0.604
-0.551065
-0.483657
-0.398207
-0.297455
-0.192382
-0.0057837
0.273524
0.588188
0.883298
1.12219
1.26446
1.32234
1.33679
-0.645504
-0.645581
-0.64562
-0.645637
-0.646142
-0.639155
-0.608751
-0.556066
-0.486811
-0.400157
-0.300765
-0.201699
-0.0495255
0.20692
0.486729
0.741848
0.952271
1.07879
1.12802
1.13913
-0.643428
-0.643467
-0.643356
-0.64302
-0.64244
-0.638801
-0.614319
-0.564292
-0.495627
-0.410503
-0.31759
-0.229795
-0.111819
0.0993433
0.327102
0.521385
0.676226
0.768736
0.803931
0.81117
-0.643999
-0.643974
-0.643433
-0.641904
-0.639634
-0.638372
-0.621728
-0.576253
-0.508521
-0.426762
-0.343547
-0.266666
-0.179153
-0.0175788
0.15541
0.293352
0.397648
0.457462
0.479405
0.483804
-0.648451
-0.648726
-0.64922
-0.649929
-0.650382
-0.65058
-0.637507
-0.591397
-0.523018
-0.448268
-0.375005
-0.308243
-0.244298
-0.128723
-0.00150682
0.0956658
0.164716
0.202411
0.216343
0.219286
-0.652496
-0.653564
-0.657232
-0.666705
-0.680104
-0.685082
-0.662636
-0.606193
-0.538468
-0.473762
-0.406914
-0.348603
-0.29953
-0.214331
-0.12205
-0.0545263
-0.00856844
0.0174831
0.0278887
0.0298562
-0.655236
-0.656522
-0.661362
-0.674701
-0.695489
-0.704124
-0.674421
-0.61173
-0.555614
-0.49986
-0.437059
-0.386493
-0.351458
-0.284757
-0.211453
-0.158914
-0.122914
-0.102254
-0.094821
-0.0934239
-0.666594
-0.667412
-0.669362
-0.668019
-0.658768
-0.653893
-0.634727
-0.602787
-0.571582
-0.52176
-0.461917
-0.420861
-0.392176
-0.339937
-0.280009
-0.235409
-0.202577
-0.18342
-0.176605
-0.17623
-0.686522
-0.686601
-0.685579
-0.662304
-0.603128
-0.552152
-0.563983
-0.591111
-0.583448
-0.537202
-0.483619
-0.449809
-0.425995
-0.378385
-0.326895
-0.289245
-0.260618
-0.243921
-0.238755
-0.238853
-0.710867
-0.709212
-0.704808
-0.679879
-0.621032
-0.569592
-0.580481
-0.620886
-0.609906
-0.551979
-0.502503
-0.471875
-0.45001
-0.408963
-0.363604
-0.330077
-0.305317
-0.291498
-0.287134
-0.287615
-0.764154
-0.762395
-0.776079
-0.798048
-0.807397
-0.781642
-0.755948
-0.723434
-0.655771
-0.571921
-0.518657
-0.485438
-0.460058
-0.422043
-0.385166
-0.358212
-0.338218
-0.327592
-0.324197
-0.32463
-0.885781
-0.897156
-0.938607
-0.993548
-1.01944
-1.00413
-0.94911
-0.84841
-0.709266
-0.594075
-0.530595
-0.486487
-0.458055
-0.423981
-0.391513
-0.369431
-0.355227
-0.348497
-0.345948
-0.346274
-1.00547
-1.02292
-1.06363
-1.10433
-1.12667
-1.112
-1.04427
-0.900778
-0.725157
-0.602221
-0.526011
-0.473071
-0.444772
-0.414309
-0.385047
-0.365875
-0.354626
-0.348823
-0.346605
-0.346845
-1.02472
-1.03972
-1.06668
-1.0957
-1.11442
-1.1024
-1.03071
-0.860955
-0.6931
-0.579316
-0.494243
-0.446494
-0.421375
-0.389725
-0.362325
-0.345143
-0.334068
-0.328058
-0.325894
-0.326245
-0.92214
-0.93315
-0.95449
-0.979421
-0.997756
-0.988431
-0.920284
-0.765097
-0.630422
-0.521732
-0.443335
-0.408312
-0.383614
-0.353627
-0.32835
-0.310779
-0.298524
-0.29144
-0.28925
-0.289853
-0.717685
-0.729052
-0.750989
-0.778534
-0.801423
-0.797631
-0.733702
-0.628542
-0.529157
-0.438674
-0.387092
-0.356462
-0.335437
-0.310816
-0.287373
-0.269086
-0.255254
-0.24739
-0.245342
-0.246191
-0.45168
-0.46239
-0.484278
-0.514674
-0.543325
-0.548689
-0.514215
-0.458654
-0.398896
-0.348887
-0.31955
-0.294467
-0.285614
-0.263678
-0.24031
-0.222837
-0.210062
-0.203313
-0.20193
-0.20289
-0.189823
-0.197567
-0.215828
-0.245275
-0.279168
-0.304208
-0.309255
-0.298927
-0.276908
-0.258398
-0.238475
-0.233353
-0.231323
-0.21056
-0.191527
-0.177546
-0.167252
-0.1627
-0.16202
-0.162836
-0.0123781
-0.0181613
-0.0332044
-0.0598234
-0.095905
-0.133782
-0.162927
-0.175688
-0.174033
-0.167297
-0.163499
-0.167002
-0.166927
-0.151839
-0.13838
-0.128866
-0.123484
-0.121817
-0.12153
-0.12204
0.0536577
0.0491693
0.0378493
0.0171969
-0.01084
-0.0411236
-0.0669472
-0.0818839
-0.0874443
-0.0897329
-0.0917294
-0.0934174
-0.09515
-0.0864205
-0.0792053
-0.0750489
-0.0731695
-0.0729808
-0.0730913
-0.0735012
0.0286137
0.0271609
0.0240361
0.0172968
0.00804469
-0.00144346
-0.00861995
-0.0139169
-0.0170785
-0.0180057
-0.018069
-0.0183612
-0.0188026
-0.0186129
-0.0180105
-0.019363
-0.0204223
-0.0203374
-0.0181406
-0.0171484
-0.00479013
0.180117
0.349212
0.491607
0.60417
0.691552
0.763297
0.821369
0.835335
0.832342
0.276045
0.394081
0.504362
0.599241
0.678382
0.743151
0.793942
0.82824
0.846653
0.863556
0.465852
0.544113
0.621338
0.688849
0.746113
0.793468
0.83081
0.859465
0.881116
0.900394
0.606187
0.661863
0.717782
0.767869
0.811048
0.847806
0.878741
0.904765
0.924696
0.943606
0.719869
0.761807
0.803401
0.842357
0.877198
0.908062
0.935107
0.958103
0.975875
0.993967
0.814812
0.849674
0.883986
0.916907
0.9473
0.974875
0.999284
1.01984
1.03545
1.05294
0.901742
0.9332
0.9649
0.995595
1.02417
1.05019
1.07303
1.09177
1.10555
1.12256
0.987784
1.02006
1.05215
1.08307
1.1116
1.13717
1.15911
1.1765
1.18878
1.20529
1.08164
1.11796
1.15256
1.18484
1.21384
1.23904
1.26002
1.27621
1.28774
1.30386
1.19448
1.23521
1.27207
1.3048
1.33313
1.35701
1.37654
1.39175
1.40359
1.41964
1.33593
1.37681
1.41196
1.44141
1.46651
1.48806
1.50651
1.52195
1.53503
1.55096
1.50724
1.53922
1.56616
1.5885
1.60856
1.62725
1.64496
1.66171
1.6766
1.69231
1.6933
1.7105
1.72758
1.74426
1.76035
1.77507
1.78896
1.80343
1.81865
1.83595
1.87668
1.88659
1.89976
1.91073
1.92014
1.92979
1.94039
1.95056
1.95984
1.98551
2.09448
2.08878
2.07583
2.06157
2.05527
2.06096
2.0791
2.10763
2.14139
2.17771
2.3973
2.26136
2.18184
2.13929
2.12196
2.12595
2.15337
2.21123
2.31889
2.4973
0.773501
0.7672
0.759472
0.748362
0.734797
0.722158
0.711775
0.703785
0.698097
0.694808
0.694513
0.697399
0.702676
0.710066
0.719639
0.731486
0.745059
0.757997
0.766992
0.774536
0.682556
0.688476
0.696552
0.70269
0.705766
0.705265
0.702195
0.698223
0.694666
0.692428
0.692353
0.694666
0.698468
0.702949
0.707077
0.709341
0.708281
0.703655
0.696606
0.688776
0.675781
0.678154
0.681426
0.684206
0.686666
0.688868
0.690066
0.689945
0.689044
0.688288
0.68857
0.690052
0.691889
0.693159
0.693115
0.691671
0.68953
0.687181
0.684208
0.681194
0.670958
0.672047
0.673968
0.676315
0.678198
0.679613
0.680852
0.681875
0.682518
0.682956
0.683589
0.684411
0.684942
0.684872
0.684282
0.683387
0.682078
0.680124
0.678027
0.676553
0.665889
0.666522
0.667656
0.669425
0.671283
0.672896
0.674173
0.675273
0.676305
0.677275
0.678154
0.678768
0.678982
0.678834
0.678343
0.677404
0.676003
0.674413
0.673089
0.67229
0.660906
0.661345
0.662139
0.663455
0.664995
0.666582
0.668092
0.669431
0.670646
0.671818
0.672882
0.673597
0.673868
0.673705
0.673097
0.672142
0.671022
0.669903
0.669014
0.668484
0.655998
0.656325
0.656943
0.658028
0.659346
0.660774
0.662291
0.663817
0.665281
0.666684
0.667964
0.668846
0.669185
0.66903
0.668503
0.667775
0.666971
0.666148
0.665504
0.665115
0.651138
0.651391
0.651891
0.65282
0.654019
0.655362
0.65683
0.65842
0.660085
0.661767
0.663324
0.664408
0.664889
0.664902
0.664608
0.664131
0.663551
0.662962
0.662502
0.662205
0.646251
0.646452
0.646869
0.647691
0.648817
0.650121
0.651585
0.653232
0.655056
0.657009
0.658893
0.660277
0.661027
0.66131
0.661279
0.661047
0.660687
0.6603
0.659983
0.659751
0.641248
0.641409
0.641769
0.642521
0.643607
0.644901
0.646406
0.648154
0.650158
0.6524
0.654673
0.656464
0.657581
0.658191
0.658444
0.658465
0.658337
0.658138
0.657939
0.657754
0.636038
0.636167
0.636486
0.637197
0.638273
0.639603
0.64119
0.643086
0.645328
0.647925
0.650673
0.652966
0.654524
0.655512
0.65609
0.656387
0.656492
0.656477
0.656382
0.656233
0.630524
0.630628
0.63092
0.631615
0.632718
0.634127
0.635843
0.637944
0.640497
0.643542
0.646873
0.649769
0.651847
0.653275
0.654222
0.654823
0.655188
0.655355
0.655351
0.655228
0.624604
0.624685
0.624962
0.625667
0.626832
0.628363
0.630265
0.632641
0.635593
0.639195
0.643238
0.646859
0.649556
0.651497
0.65287
0.653835
0.654474
0.654823
0.654902
0.6548
0.618159
0.61822
0.618491
0.619229
0.620493
0.622194
0.624347
0.627081
0.630535
0.634824
0.639733
0.644227
0.647662
0.65021
0.652074
0.653444
0.654399
0.654948
0.655106
0.65502
0.611047
0.61109
0.611364
0.612157
0.613559
0.615487
0.617966
0.621155
0.625235
0.630368
0.636325
0.641867
0.646178
0.649446
0.651893
0.653728
0.655047
0.655812
0.656049
0.655974
0.603114
0.603131
0.603408
0.604279
0.605863
0.608082
0.610975
0.614736
0.619592
0.625758
0.632982
0.639776
0.645126
0.649242
0.652382
0.654779
0.656511
0.65751
0.657824
0.657757
0.594085
0.594096
0.5944
0.595374
0.597194
0.599782
0.603198
0.607672
0.613489
0.620917
0.62967
0.637955
0.644537
0.64965
0.653606
0.656674
0.658881
0.660136
0.660527
0.660463
0.583704
0.583687
0.584034
0.585161
0.587282
0.590341
0.594415
0.599783
0.606791
0.615764
0.626357
0.63641
0.644439
0.650728
0.655645
0.659488
0.662246
0.663778
0.664242
0.664176
0.571606
0.571569
0.571966
0.573281
0.575782
0.579445
0.584359
0.590854
0.599346
0.610212
0.623015
0.63515
0.644865
0.652524
0.65857
0.663303
0.666685
0.668504
0.669032
0.668958
0.557278
0.557219
0.557697
0.559265
0.562255
0.5667
0.572694
0.58063
0.590986
0.604176
0.619624
0.634197
0.645851
0.655078
0.662432
0.668179
0.67224
0.674342
0.674916
0.674827
0.540014
0.539933
0.54054
0.542464
0.546109
0.551593
0.559012
0.56882
0.581545
0.597599
0.61619
0.633576
0.647434
0.658433
0.667239
0.674126
0.678904
0.681257
0.681848
0.681736
0.518795
0.518697
0.519512
0.521957
0.526524
0.53345
0.542812
0.555112
0.570883
0.590463
0.612754
0.633332
0.649646
0.662602
0.672997
0.681119
0.686593
0.689125
0.68969
0.689548
0.492076
0.491979
0.493146
0.496399
0.502373
0.511401
0.523532
0.539232
0.558941
0.582832
0.609414
0.633537
0.652517
0.667582
0.67968
0.689062
0.695124
0.697708
0.698196
0.698019
0.457349
0.457308
0.459109
0.46376
0.472102
0.484461
0.500674
0.521058
0.545817
0.574881
0.606324
0.634299
0.656088
0.673352
0.687198
0.697769
0.704195
0.706654
0.70701
0.7068
0.410171
0.410359
0.413573
0.421174
0.433938
0.451783
0.474082
0.500803
0.531847
0.566919
0.603702
0.635743
0.660414
0.67987
0.695428
0.706975
0.713389
0.715506
0.715695
0.715464
0.342209
0.343682
0.351523
0.36595
0.38689
0.41349
0.444382
0.479164
0.517611
0.559357
0.601787
0.637968
0.665512
0.68706
0.70409
0.716183
0.722136
0.723718
0.723745
0.723523
0.261046
0.263911
0.279195
0.304151
0.336314
0.373235
0.413395
0.456637
0.502855
0.551774
0.60053
0.641602
0.672709
0.696923
0.715477
0.727599
0.732809
0.733923
0.733891
0.733759
0.177856
0.185315
0.208301
0.243765
0.286757
0.333774
0.383192
0.434917
0.488914
0.54496
0.599971
0.645835
0.680377
0.707142
0.727114
0.738759
0.742716
0.743267
0.743194
0.743118
0.109707
0.119278
0.147142
0.190039
0.241497
0.297039
0.354774
0.41442
0.475789
0.538563
0.599364
0.649533
0.687057
0.715854
0.736527
0.747471
0.750685
0.751059
0.750994
0.750943
0.0537752
0.0641008
0.0956773
0.144071
0.201912
0.264232
0.328914
0.395473
0.463487
0.532435
0.598552
0.652627
0.692768
0.723244
0.744402
0.754806
0.757541
0.757812
0.757757
0.757719
0.00689177
0.0175689
0.0516938
0.104354
0.167389
0.235316
0.305836
0.378352
0.452249
0.526786
0.597772
0.6554
0.697886
0.729798
0.751272
0.761195
0.76362
0.763842
0.763794
0.763761
-0.0333902
-0.0225652
0.0134514
0.0695235
0.136882
0.20961
0.285211
0.362977
0.442159
0.5218
0.597274
0.658142
0.702682
0.735752
0.757364
0.766866
0.769101
0.769311
0.76928
0.769253
-0.0687883
-0.0579214
-0.0204325
0.0384606
0.109501
0.186398
0.266509
0.349026
0.433067
0.517473
0.597159
0.661025
0.707379
0.741347
0.762935
0.772058
0.774174
0.774408
0.774417
0.774405
-0.100576
-0.0897019
-0.0510462
0.0102727
0.0845165
0.16509
0.249243
0.336117
0.424702
0.513655
0.597408
0.664136
0.712159
0.746854
0.768319
0.77709
0.779124
0.779406
0.77948
0.779498
-0.129785
-0.118885
-0.0792018
-0.0157322
0.0613634
0.145212
0.233016
0.323909
0.416796
0.510151
0.597932
0.667516
0.717174
0.75255
0.773877
0.782337
0.784294
0.784625
0.784778
0.784839
-0.157002
-0.146062
-0.105462
-0.0400571
0.0395853
0.126379
0.217513
0.312133
0.409104
0.506778
0.598634
0.671185
0.722546
0.758649
0.779888
0.788102
0.789976
0.790342
0.790556
0.790658
-0.182719
-0.171725
-0.130266
-0.0631009
0.018838
0.108296
0.20248
0.30057
0.40143
0.503367
0.599413
0.675123
0.728321
0.765249
0.786498
0.794491
0.796279
0.796639
0.796881
0.797019
-0.207331
-0.196193
-0.153931
-0.085143
-0.00112649
0.0907415
0.187727
0.289052
0.393611
0.499751
0.600155
0.679278
0.734506
0.772334
0.793641
0.80145
0.803126
0.803437
0.803671
0.803825
-0.23098
-0.219675
-0.176647
-0.106381
-0.0204843
0.073575
0.17312
0.277441
0.385511
0.495776
0.600699
0.68357
0.74105
0.779832
0.801182
0.808778
0.810306
0.810533
0.810731
0.810873
-0.253868
-0.242343
-0.198581
-0.126931
-0.039341
0.056693
0.158568
0.265651
0.377025
0.49131
0.600876
0.687885
0.747946
0.787724
0.808983
0.816229
0.817549
0.817673
0.817817
0.817938
-0.276003
-0.264276
-0.219807
-0.146863
-0.0577557
0.0400456
0.144029
0.253636
0.368081
0.486225
0.60052
0.692077
0.755177
0.796062
0.816974
0.823586
0.8246
0.824622
0.824714
0.824811
-0.297491
-0.285528
-0.240333
-0.166208
-0.0757618
0.0236102
0.129481
0.241376
0.358644
0.480437
0.599465
0.695971
0.762708
0.805003
0.825299
0.830809
0.831247
0.831178
0.831271
0.831361
-0.318216
-0.306086
-0.260181
-0.184993
-0.0933596
0.00741091
0.114938
0.228877
0.348708
0.473901
0.59756
0.699365
0.770451
0.814773
0.834425
0.838184
0.837454
0.837193
0.837484
0.837691
-0.338322
-0.325954
-0.279359
-0.203233
-0.110553
-0.00855248
0.100446
0.216168
0.33829
0.466607
0.594684
0.702031
0.778225
0.825502
0.845012
0.84667
0.843865
0.842812
0.843597
0.844445
-0.357691
-0.34509
-0.297883
-0.220908
-0.12729
-0.0242263
0.0860545
0.203327
0.327441
0.458542
0.590753
0.703723
0.785745
0.837101
0.857628
0.857756
0.852331
0.849398
0.850395
0.852645
-0.376422
-0.363573
-0.315719
-0.23798
-0.143559
-0.0395679
0.0718233
0.190401
0.316226
0.449778
0.585727
0.704179
0.792631
0.849148
0.872161
0.872409
0.865206
0.859223
0.855454
0.84962
-0.394417
-0.381395
-0.332957
-0.254623
-0.159582
-0.0548504
0.0574346
0.177017
0.304245
0.439889
0.579212
0.703014
0.798753
0.861781
0.888693
0.891077
0.88364
0.873375
0.860426
0.860399
-0.411667
-0.398641
-0.34962
-0.27079
-0.175359
-0.0700493
0.0429029
0.163134
0.291434
0.4287
0.570922
0.699551
0.80308
0.87407
0.905349
0.910478
0.902688
0.890408
0.854041
0.816445
-0.427991
-0.415179
-0.365683
-0.286365
-0.190902
-0.0851821
0.0282098
0.148865
0.277827
0.416187
0.560655
0.6932
0.803997
0.884493