/*--------------------------------*- C++ -*----------------------------------*\
  =========                 |
  \\      /  F ield         | OpenFOAM: The Open Source CFD Toolbox
   \\    /   O peration     | Website:  https://openfoam.org
    \\  /    A nd           | Version:  6
     \\/     M anipulation  |
\*---------------------------------------------------------------------------*/
FoamFile
{
    version     2.0;
    format      ascii;
    class       surfaceScalarField;
    location    "60";
    object      phi;
}
// * * * * * * * * * * * * * * * * * * * * * * * * * * * * * * * * * * * * * //

dimensions      [0 3 -1 0 0 0 0];

internalField   nonuniform List<scalar> 
1300
(
3.75095
5.62643
-3.3465
3.75095
-7.75225
5.62643
-4.25476
4.25476
-0.507529
0.507529
1.87648
1.87447
-2.46069
2.46069
-1.89324
1.89324
-2.53099
2.53099
-5.24798
5.24798
-5.07
5.07
4.70427
-4.70427
-6.31646
6.31646
-0.979452
0.979452
-3.55578
3.55578
3.17259
-3.17259
-1.9617
1.9617
-0.0294607
0.0294607
-0.554087
4.30504
3.19687
3.19687
-1.98055
1.98055
-4.8745
4.8745
6.22245
-6.22245
5.27122
-5.27122
-1.92472
-2.48584
1.80722
-11.512
-5.94503
-5.94503
-8.44099
8.44099
-2.81456
2.81187
2.9469
-2.9469
-1.72876
1.72876
-4.26868
0.0139118
-4.26868
4.22633
0.0284371
4.22633
-0.582986
0.0754571
-0.582986
3.92201
-3.92201
0.414804
0.0927247
0.414804
3.0672
-3.0672
-1.87686
3.75334
1.87409
-1.87209
6.17713
-1.87887
3.75334
-6.07061
6.07061
-2.67906
0.218376
-2.67906
2.26558
0.195106
2.26558
-6.87834
6.87834
-1.95311
0.0598742
-1.95311
1.90361
-0.0103714
1.90361
2.88659
-2.88659
-2.63437
0.103382
-2.63437
2.38676
0.144237
2.38676
0.353399
5.27303
-5.97983
8.7917
-5.27303
0.0250475
5.21017
0.0378161
5.21017
-5.10532
0.035326
-5.10532
5.01261
0.057386
5.01261
4.79466
-0.0903903
4.79466
-4.82261
0.118333
-4.82261
-3.35985
-4.07544
-6.47721
0.160741
-6.47721
-1.04057
0.0611216
-1.04057
0.87512
0.104332
0.87512
-3.71933
3.71933
-3.91388
0.358102
-3.91388
3.12758
0.0450133
3.12758
1.86812
1.88283
5.61908
-5.61908
2.44648
-1.91746
-0.0442458
-1.91746
-2.01791
-3.25331
2.01791
-0.0562102
-0.252063
0.222602
-0.252063
3.15709
0.0397743
3.15709
2.23568
0.151077
-2.23568
0.255132
3.29435
-3.29435
1.30654
0.674005
1.30654
-5.55844
5.55844
4.96163
0.0509841
-4.96163
0.0871298
6.15741
0.0650457
6.15741
-6.2076
-0.014853
-6.2076
2.48692
-4.97275
-2.64069
6.13011
0.18635
-6.13011
0.185083
2.9183
0.0285975
2.9183
-2.91989
2.91989
-2.98398
0.0370803
-2.98398
-2.15192
0.423166
-2.15192
1.41382
0.314937
1.41382
-4.1808
-0.0878719
-4.1808
-4.07209
0.158202
4.07209
0.154242
1.11274
-1.11274
-0.663596
0.0806103
-0.663596
-4.02692
-0.153888
4.02692
-0.104909
-3.8663
-0.0557121
-3.8663
-3.02173
0.0377548
3.02173
0.0454628
3.11206
0.0450354
-3.11206
0.0448596
-1.87099
3.75382
-1.87996
3.75406
-5.69062
-0.379995
-5.69062
6.35679
-0.286176
6.35679
3.08747
0.468316
-3.08747
0.408404
2.12467
0.140913
2.12467
-6.85305
-0.0252881
-6.85305
6.88211
-0.00377356
6.88211
2.02599
0.098677
-2.02599
0.0728775
1.90314
0.000466505
1.90314
2.9137
-0.0271068
2.9137
-2.88084
-0.00574802
-2.88084
2.79335
-2.79335
2.72064
0.0727135
-2.72064
0.0862608
-11.1241
11.1093
-0.0361941
-11.088
5.17397
5.17397
4.24915
0.545512
4.24915
-5.01674
0.194132
-5.01674
2.66127
-5.30197
3.09874
-6.45859
4.67744
-16.1895
4.29887
-8.37431
6.72957
-6.72957
6.61018
0.119386
-6.61018
0.132975
-1.13725
0.0966743
-1.13725
-3.10736
-0.611969
-3.10736
4.35857
-0.639238
4.35857
-3.02784
3.02784
-3.07655
0.0487055
3.07655
0.0510333
1.89619
0.00695713
-1.89619
-0.021271
0.321611
0.0931935
-0.321611
0.0695476
3.51318
-0.218827
3.51318
-3.09235
-0.202005
-3.09235
-1.22164
0.0843889
1.22164
0.0849051
-5.80728
0.248841
-5.80728
-11.1817
0.0937773
-11.1439
-6.11382
-6.11382
2.32717
11.1189
-2.89646
0.0156219
2.89646
0.0218365
2.97542
0.0524245
-2.97542
0.0555211
-2.85993
0.0665786
2.85993
0.0599669
-2.52051
0.36859
-2.52051
-1.02759
1.02759
-1.17659
0.149
1.17659
0.23723
1.40959
-0.296853
1.40959
0.771741
0.103379
-0.771741
0.108145
-3.81637
-0.0499214
-3.81637
6.59402
-0.237236
6.59402
-2.96425
-0.128094
2.96425
-0.0505566
-0.0347539
11.144
-5.13922
0.0338978
5.13922
-11.2091
11.243
-3.22689
0.706383
3.22689
1.02226
5.2846
0.273842
-5.2846
0.267858
6.82152
0.0605953
-6.82152
0.0919528
-2.62528
-0.482085
-2.62528
-5.09803
-0.592591
5.09803
-0.739455
-11.4819
-0.203888
11.6858
-11.4246
6.01117
0.146241
-6.01117
11.3892
-0.994429
-0.118312
0.994429
0.0331605
1.74713
-0.337533
1.74713
3.72588
-0.212702
-3.72588
-0.0904907
-6.74775
-0.105299
6.74775
-0.153732
-2.17523
-0.450046
2.17523
-0.428104
-4.26735
4.30713
1.90977
-2.34
-2.63276
-5.59331
1.85519
1.89863
4.30167
-10.1724
-6.01706
-9.98733
7.21394
-6.94608
-9.33599
9.2456
7.89553
-7.95125
-5.77766
5.82869
6.48447
-6.439
1.87935
1.87398
8.02413
-7.80575
-15.7057
15.3257
7.59151
-7.53164
15.8542
-15.8795
-17.9013
17.9619
-5.69363
5.79701
-6.74109
6.73534
-6.97646
6.9259
-2.79555
-3.66304
13.151
-12.9903
8.56177
-8.60601
-8.64293
9.00104
3.38458
0.922545
3.42962
-1.88184
3.7612
-1.8715
3.78128
2.74078
-5.53632
2.56119
-5.19395
4.34907
4.2127
-4.29286
-1.30044
-5.9281
5.9567
-5.80975
5.86971
9.15128
-9.13736
-1.88498
3.75896
-1.86908
3.76771
-3.42322
-2.35444
3.3782
0.923472
8.08702
5.06398
-8.27337
-1.71396
-8.00886
7.79616
-8.21008
8.00808
-0.437425
5.83797
-5.40054
4.43707
-1.65303
7.491
5.56091
5.75505
5.86031
-5.58647
1.08577
-6.48631
-6.39918
-2.37131
2.45192
2.26037
-2.16764
6.11384
1.78169
6.00893
-5.78639
-2.16486
-5.83631
3.82
2.00869
3.8687
4.08183
2.40264
4.11958
3.02982
-3.03654
0.00672281
-3.05916
6.08898
0.722418
-5.4136
-4.49013
4.99397
3.03016
5.18908
-5.56406
-2.24169
-5.15566
-9.61354
-6.09213
-10.2061
10.1061
5.21957
9.81993
-11.9835
11.8298
4.88284
2.70867
4.87247
-4.95576
-2.57588
-4.88288
11.6762
-2.63276
-9.04343
-10.3493
-7.55194
10.3531
5.50111
10.9956
6.96622
11.0876
4.43294
7.24326
-9.93405
2.38212
-3.86239
-1.83124
-3.77613
3.65356
2.14345
3.79779
-4.21837
-2.52272
-4.20275
-4.29406
-2.6824
4.32116
2.41418
-4.41446
-3.79563
4.54255
2.38335
4.05935
-10.0764
4.31496
-7.97801
-9.22329
-3.76698
-9.09031
3.53199
2.59591
-6.1279
-2.00433
8.49872
-4.28603
7.19828
-5.19183
-3.41419
-5.2131
-6.94071
-1.70222
-6.78251
-8.93207
8.44999
-9.22049
8.58126
12.5652
-5.66598
-6.89925
-3.96695
-2.47205
3.92209
-0.492476
-3.71007
3.71679
0.0511285
3.8324
4.75495
4.26247
-3.88221
-1.92754
-3.82668
3.82154
2.04817
3.88812
6.83108
2.32019
6.85952
-6.58724
-2.55012
-6.67511
9.11184
-8.68868
2.80723
-2.72284
5.36596
2.64212
-5.14713
-2.86173
6.23925
-3.20628
-3.03297
-12.3475
10.8104
1.5371
-4.8565
-0.419432
-0.389971
-5.57443
-3.76156
5.45609
0.298951
11.1093
7.34779
-5.51478
5.76362
6.17105
6.22204
-0.177144
5.8984
-5.19202
5.27779
-2.67227
-2.60553
5.45295
-5.60683
-1.22216
-5.52198
4.29981
0.402098
1.56816
-1.34556
-1.83426
-0.537057
-1.72611
1.28093
0.979431
1.37413
0.926755
1.52517
-2.92291
0.567016
2.3559
-1.99616
-1.60062
-3.76738
-1.14394
4.91132
5.70907
2.08709
-5.61858
-0.217732
2.60636
-2.50202
-0.802716
-2.96466
2.21175
-3.01447
-3.4852
-1.90939
5.39458
-3.36882
-0.457861
3.3164
0.552303
-3.82792
-2.10018
3.79084
0.328745
-3.1284
6.19011
-3.0617
-5.05594
2.52892
3.56006
4.53761
-4.79019
2.44903
2.34117
-1.23013
4.26745
0.921622
4.40837
-7.00319
4.7615
5.71276
3.28827
-6.18108
1.02542
-5.97777
8.59053
-7.43166
-1.15887
4.15359
4.43694
7.07513
5.4901
-5.70597
12.7811
-1.18339
-6.24827
7.16116
-3.87289
4.87262
-8.74551
-10.3627
4.11445
-9.22061
11.0701
-1.84947
-3.61272
-8.37078
12.8333
-1.21191
-11.6214
8.60802
-4.2846
-4.33524
8.61985
-6.91737
6.91112
-1.99031
-4.92081
-10.1637
-5.71585
10.2689
1.56082
-9.90476
12.2869
-2.6615
4.16021
0.712251
4.16068
3.32771
-5.4561
2.12839
3.58965
-5.57996
2.06775
-7.52386
-6.7696
12.1085
-5.33888
-10.5366
-9.56642
-0.970162
2.55315
9.73373
-9.51937
7.44975
2.06962
3.29868
0.58944
-3.37139
-0.404739
0.244446
4.51145
-4.75589
4.04224
4.19332
3.22351
1.28794
3.8489
2.1078
-3.87074
-0.332012
-4.16734
1.48493
-1.75316
-3.69237
5.17731
-4.06172
0.369349
-2.74822
-3.49459
6.24281
-4.57946
3.03632
3.15378
5.08449
-4.91453
1.41995
-2.39102
-2.52351
2.64178
-4.39494
1.99764
3.17967
4.38099
0.585363
5.91241
6.19607
-8.50832
0.530312
11.2601
-9.54609
2.48482
8.60277
-9.93457
0.368158
-8.72215
0.975778
-5.26181
-5.15212
5.21538
-6.9176
-3.53012
6.23359
0.625924
-6.38784
-0.394677
-6.07056
-2.86151
-6.52061
-3.06026
-6.16024
-8.76623
-1.67778
-7.08844
6.77221
-6.70749
-3.49864
7.44694
1.13431
-7.48275
7.36444
-7.54398
7.20645
0.0947255
3.62206
4.3572
1.88515
-2.39193
4.27708
-5.06817
7.38836
-8.72729
3.65913
4.21484
-6.76496
-4.51245
5.06373
4.04811
5.37867
8.93613
-10.3978
1.46169
-10.6702
12.0105
-1.3403
-16.4557
5.78553
-7.51956
2.44283
0.364402
2.5395
0.558559
2.50175
-3.06031
-2.16428
-2.07938
-2.43271
-3.49665
5.92937
1.07945
-3.45781
2.37836
-3.58338
4.66283
-0.048413
-3.40939
5.20234
-2.70059
5.56675
-3.63179
1.93495
3.53866
5.84211
-2.30345
4.4228
-1.78068
1.93559
-4.23904
-1.56107
-2.9577
5.10115
-3.28511
3.65446
-0.345259
3.99972
-4.05404
0.847763
-0.830531
3.36279
3.61792
4.33236
-3.04443
2.93965
-4.72032
-1.29939
-4.13496
-0.95529
-0.19263
-3.79282
3.98545
6.01907
-6.2117
-5.2885
9.5349
-4.24639
7.71019
-5.44493
-2.26526
-4.29727
-4.39141
3.92868
1.96972
9.67991
0.179517
-5.62445
-5.0125
-3.99024
3.11078
2.16702
-1.78107
3.31817
2.17104
-0.602873
0.417079
0.957048
1.7719
-1.35482
0.318966
1.45294
-1.0266
1.76328
0.843073
-1.86666
0.14055
-1.27433
3.48608
1.08157
-2.061
0.706176
0.907561
-3.57983
5.04056
-2.69776
-2.3428
5.94812
1.14898
-3.84674
4.373
-3.9709
2.42818
-3.57212
-1.41857
-5.38946
-3.60777
-2.50087
4.87923
-3.4285
5.51559
1.39403
-5.29786
6.69189
-3.6256
1.71621
-3.07079
3.91386
-1.03724
-2.03355
2.8894
2.50518
-3.11234
0.147679
-0.22294
2.41128
-2.63422
-0.60319
-2.59935
-4.57566
4.90441
-2.10405
4.55308
2.17303
-1.91727
6.47035
1.80802
-3.7253
-3.24792
-3.70578
-1.38413
3.15348
-0.600721
-4.28216
-5.52153
4.18348
0.224889
-7.03691
7.88723
-0.850319
-4.00676
-0.754744
4.90833
-6.06382
0.483855
-3.99607
3.89117
4.81279
5.03768
-11.3881
-0.233297
-6.16855
1.11167
-7.28022
5.54861
-3.58708
7.70153
-10.3283
6.82968
-9.19401
6.54267
-0.737556
6.25065
-4.12226
2.79278
-8.50863
-6.94781
5.5032
-2.79452
6.21545
-3.16382
9.37926
-5.82532
5.29213
4.08714
-1.03108
-4.18202
-5.27775
4.24667
0.0143778
4.17506
4.98655
-2.87876
4.65454
2.26311
-4.65413
-2.13182
-6.48791
1.83377
-3.33412
-1.9219
3.75567
3.1626
3.75204
1.23216
-3.3473
7.23238
-8.20254
-1.8935
-3.25862
5.25959
-1.01292
3.41641
-6.67503
-1.8454
4.76757
-0.728137
-4.03944
0.898407
-4.42853
1.66542
-6.09394
5.25219
-5.64686
2.25348
-9.77304
-5.22927
-5.19611
-2.27974
-5.26424
-7.58887
5.30913
-1.80335
5.56109
-8.53382
7.80569
-3.47665
8.78578
-5.46661
-1.054
5.89471
1.31174
10.0975
0.150227
-4.66268
-1.93107
3.75228
-1.82121
1.17971
-3.6426
0.109681
2.486
3.46212
-6.78582
0.0208545
-4.64182
-3.91235
7.96046
5.62255
11.6416
1.2438
9.14907
-1.18861
10.3929
4.19006
4.42729
-3.01904
4.48073
0.966413
4.62554
-0.88068
2.81563
1.65882
1.71994
0.78208
2.30264
1.31527
3.15041
0.0900978
-1.98928
4.63857
-8.62881
-0.985881
-8.0833
1.16229
5.42883
-4.26654
2.90491
-0.737895
1.0837
-0.126883
-1.2986
1.42549
-2.73241
-1.90148
-0.448537
-1.62255
2.32872
1.86353
-1.88019
-0.852224
0.329025
-3.9368
3.24309
-3.09541
-0.590232
6.10165
-2.88251
0.248295
-1.1663
-2.35105
-2.88811
2.74756
6.17448
0.295875
3.11278
5.20028
3.1001
0.221345
3.82896
-5.67842
-3.6949
-5.91172
-0.363111
4.54522
1.73731
7.99642
5.82445
4.81153
-1.8635
-10.066
6.52943
-2.0487
5.18913
-1.14969
-4.94425
5.06681
2.32155
-5.69274
0.0458717
-4.89838
-6.94709
-0.481962
8.28765
-9.61556
8.56155
5.70004
1.3884
-4.44056
-0.755551
4.29156
0.135728
10.5286
-0.90965
-7.08701
7.99666
-4.51918
3.5333
0.690176
2.62799
2.11566
1.37777
-5.70924
-9.97578
-2.03657
-1.54326
-4.37937
0.531949
-2.39548
6.07998
-2.54668
3.81472
5.44998
6.53369
-2.05334
-4.15836
6.29973
-2.485
4.04868
)
;

boundaryField
{
    wall-4
    {
        type            calculated;
        value           uniform 0;
    }
    velocity-inlet-5
    {
        type            calculated;
        value           uniform -3.75095;
    }
    velocity-inlet-6
    {
        type            calculated;
        value           uniform -5.62643;
    }
    pressure-outlet-7
    {
        type            calculated;
        value           nonuniform List<scalar> 8(3.3465 7.75225 4.41055 9.70482 7.43529 5.12761 5.76001 8.97631);
    }
    wall-8
    {
        type            calculated;
        value           uniform 0;
    }
    frontAndBackPlanes
    {
        type            empty;
        value           nonuniform 0();
    }
}


// ************************************************************************* //
