/*--------------------------------*- C++ -*----------------------------------*\
  =========                 |
  \\      /  F ield         | OpenFOAM: The Open Source CFD Toolbox
   \\    /   O peration     | Website:  https://openfoam.org
    \\  /    A nd           | Version:  6
     \\/     M anipulation  |
\*---------------------------------------------------------------------------*/
FoamFile
{
    version     2.0;
    format      ascii;
    class       surfaceScalarField;
    location    "39";
    object      phi;
}
// * * * * * * * * * * * * * * * * * * * * * * * * * * * * * * * * * * * * * //

dimensions      [0 3 -1 0 0 0 0];

internalField   nonuniform List<scalar> 
1300
(
3.75095
5.62643
-3.09607
3.75095
-7.47291
5.62643
-4.30502
4.30502
-0.881776
0.881776
1.87645
1.8745
-2.67226
2.67226
-2.05942
2.05942
-2.55302
2.55302
-5.24795
5.24795
-5.06984
5.06984
4.71826
-4.71826
-6.15811
6.15811
-1.20679
1.20679
-3.69942
3.69942
3.17307
-3.17307
-2.2376
2.2376
-0.245402
0.245402
-0.554103
4.30506
3.19685
3.19685
-2.0067
2.0067
-4.87316
4.87316
6.2226
-6.2226
4.96598
-4.96598
-1.86991
-2.18245
1.74188
-11.4632
-5.73104
-5.73104
-8.44101
8.44101
-2.81458
2.81185
2.94508
-2.94508
-1.73038
1.73038
-4.29228
-0.0127391
-4.29228
4.28627
0.0187453
4.28627
-0.967789
0.0860126
-0.967789
3.83145
-3.83145
0.753789
0.127987
0.753789
3.06681
-3.06681
-1.87687
3.75332
1.87408
-1.87203
6.17708
-1.87893
3.75343
-6.03861
6.03861
-2.88097
0.208717
-2.88097
2.4839
0.188354
2.4839
-6.82599
6.82599
-2.15567
0.0962504
-2.15567
2.03822
0.021199
2.03822
2.87762
-2.87762
-2.64814
0.0951122
-2.64814
2.42445
0.128577
2.42445
0.35346
5.27297
-5.97989
8.79174
-5.27297
0.02502
5.21021
0.037739
5.21021
-5.10523
0.0353863
-5.10523
5.012
0.057844
5.012
4.8129
-0.0946387
4.8129
-4.83238
0.114122
-4.83238
-3.63513
-4.15877
-6.35003
0.191922
-6.35003
-1.2039
-0.00288806
-1.2039
1.16478
0.042015
1.16478
-3.66152
3.66152
-4.02123
0.321811
-4.02123
3.128
0.0450624
3.128
1.86812
1.88284
5.61907
-5.61907
2.446
-2.16793
-0.069669
-2.16793
-2.26619
-2.69978
2.26619
-0.0285971
-0.483932
0.23853
-0.483932
3.15696
0.0398935
3.15696
2.26753
0.156912
-2.26753
0.260835
3.26299
-3.26299
1.33342
0.673276
1.33342
-5.55929
5.55929
4.96079
0.0512061
-4.96079
0.0876312
6.15759
0.0650063
6.15759
-6.20769
-0.014907
-6.20769
2.68294
-4.86539
-2.46392
5.93684
0.221266
-5.93684
0.205804
2.91534
0.0297366
2.91534
-2.92086
2.92086
-2.98285
0.0377699
-2.98285
-2.15852
0.428146
-2.15852
1.40976
0.320618
1.40976
-4.16274
-0.129545
-4.16274
-4.16536
0.144123
4.16536
0.120918
1.06556
-1.06556
-1.04263
0.0748397
-1.04263
-3.96723
-0.19551
3.96723
-0.135775
-3.76645
-0.0649974
-3.76645
-3.02098
0.0381281
3.02098
0.0458318
3.11183
0.0451294
-3.11183
0.0450183
-1.87097
3.75381
-1.87998
3.75407
-5.65664
-0.381971
-5.65664
6.336
-0.297384
6.336
3.26502
0.4344
-3.26502
0.384048
2.3412
0.142701
2.3412
-6.81278
-0.0132129
-6.81278
6.8174
0.00859319
6.8174
2.24785
0.093348
-2.24785
0.0921799
2.04696
-0.00873853
2.04696
2.90063
-0.0230128
2.90063
-2.87454
-0.00308568
-2.87454
2.79768
-2.79768
2.72745
0.0702371
-2.72745
0.0793112
-11.124
11.1091
-0.0361928
-11.0878
5.17402
5.17402
4.26766
0.545234
4.26766
-5.02127
0.188891
-5.02127
3.03201
-5.49593
3.15166
-6.78679
4.73276
-16.196
4.31349
-8.47226
6.64369
-6.64369
6.50824
0.13545
-6.50824
0.15821
-1.24152
0.0376177
-1.24152
-3.06059
-0.600933
-3.06059
4.30709
-0.645575
4.30709
-3.02837
3.02837
-3.07693
0.0485613
3.07693
0.0510744
2.09616
-0.0491974
-2.09616
-0.0717657
0.613004
0.140785
-0.613004
0.129072
3.46746
-0.204474
3.46746
-3.07101
-0.191979
-3.07101
-1.2852
0.043675
1.2852
0.0482262
-5.80791
0.248625
-5.80791
-11.1816
0.0938151
-11.1439
-6.11387
-6.11387
2.32714
11.1189
-2.89217
0.0176294
2.89217
0.0231772
2.9761
0.0522714
-2.9761
0.055238
-2.86141
0.0637248
2.86141
0.0594516
-2.53132
0.372792
-2.53132
-1.01136
1.01136
-1.16944
0.158079
1.16944
0.240317
1.35323
-0.287669
1.35323
1.11447
0.0503101
-1.11447
0.0718373
-3.72723
-0.0392244
-3.72723
6.57105
-0.235052
6.57105
-2.94841
-0.122598
2.94841
-0.047776
-0.0348444
11.144
-5.13917
0.0339444
5.13917
-11.209
11.2429
-3.24213
0.710814
3.24213
1.02553
5.28637
0.272919
-5.28637
0.265095
6.74101
0.0763866
-6.74101
0.0973216
-2.56017
-0.500412
-2.56017
-5.0546
-0.602046
5.0546
-0.747504
-11.4821
-0.20368
11.6858
-11.4243
6.01159
0.145998
-6.01159
11.3889
-0.963571
-0.101992
0.963571
0.0477926
1.68863
-0.335395
1.68863
3.66283
-0.195366
-3.66283
-0.0644006
-6.71185
-0.10093
6.71185
-0.140798
-2.11726
-0.442917
2.11726
-0.42863
-4.26718
4.30707
1.90991
-2.46925
-2.39614
-5.16903
1.85479
1.89901
4.30079
-10.1814
-6.01457
-9.97559
7.21358
-6.94848
-9.36651
9.27187
7.7079
-7.7729
-5.77823
5.8293
6.48395
-6.43811
1.87908
1.87424
7.97887
-7.77015
-15.7252
15.3432
7.57131
-7.47506
15.8935
-15.9067
-17.9277
18.004
-5.70678
5.80189
-6.73033
6.72724
-6.95961
6.91184
-3.10758
-3.67921
13.1736
-12.9816
8.37212
-8.44179
-8.62214
8.94395
3.38451
0.922565
3.42963
-1.88203
3.76111
-1.8714
3.7813
2.70172
-5.8093
2.79421
-5.19035
4.09293
4.27919
-4.06433
-1.1047
-5.92447
5.95421
-5.81425
5.8737
9.01313
-9.02587
-1.88503
3.75926
-1.86904
3.76806
-3.42357
-2.35466
3.37851
0.922285
8.0675
5.10607
-8.28877
-1.68682
-7.90948
7.71411
-8.17481
7.98283
-0.439254
5.83696
-5.39771
4.43391
-1.65173
7.4887
5.56185
5.75074
5.8601
-5.58718
1.08838
-6.48609
-6.39846
-2.53494
2.60977
2.50766
-2.37967
6.00033
1.70757
5.86455
-5.68253
-2.09037
-5.72176
3.82057
2.00873
3.86913
4.08085
2.4031
4.11897
3.02999
-3.03612
0.00613046
-3.05883
6.08882
0.723139
-5.41348
-4.4912
5.00655
2.97231
5.19491
-5.56667
-2.20348
-5.18262
-9.58883
-6.13635
-10.1909
10.1304
5.21278
9.83304
-12.0164
11.8756
4.85196
2.71935
4.87316
-4.955
-2.52006
-4.86282
11.673
-2.60893
-9.06411
-10.3691
-7.55858
10.3605
5.53303
11.0095
6.99456
11.1068
4.43391
7.23913
-9.96694
2.40836
-3.86519
-1.84159
-3.78588
3.66756
2.13434
3.79613
-4.21483
-2.5155
-4.1972
-4.2905
-2.66911
4.31352
2.41372
-4.40304
-3.77177
4.52564
2.3862
4.11648
-10.1311
4.35578
-8.03499
-9.24526
-3.73639
-9.08705
3.57956
2.54478
-6.12433
-2.22975
8.52479
-4.2456
7.4201
-5.10045
-3.34134
-5.17222
-6.91081
-1.71133
-6.76669
-8.94602
8.44561
-9.22767
8.58209
12.6495
-5.6874
-6.96215
-3.96679
-2.47132
3.92177
-0.492138
-3.71052
3.71665
0.0505954
3.8319
4.75447
4.26233
-3.88393
-1.93032
-3.82869
3.82679
2.04691
3.89051
6.77125
2.24188
6.79
-6.46243
-2.56344
-6.59197
9.13836
-8.71022
2.8753
-2.83163
5.31641
2.66642
-5.11194
-2.79754
6.2263
-3.16149
-3.06482
-12.3596
10.8583
1.50129
-4.87087
-0.436958
-0.191556
-5.58878
-3.77773
5.47466
0.276074
11.1343
7.35662
-5.51485
5.76347
6.17096
6.22217
-0.176291
5.92037
-5.20956
5.348
-2.53644
-2.81156
5.33048
-5.52599
-1.26149
-5.41055
4.14906
0.338563
1.74267
-1.50414
-1.97107
-0.563865
-1.89923
1.47683
1.03083
1.61762
0.916169
1.69361
-2.97231
0.600053
2.37225
-2.05614
-1.77962
-3.65043
-1.09524
4.74567
5.59206
2.12205
-5.52766
-0.194092
2.67804
-2.63603
-0.753126
-2.89731
2.14209
-2.89522
-3.5597
-1.85441
5.41411
-3.36964
-0.459057
3.31736
0.551764
-3.82685
-2.09762
3.78908
0.329896
-3.12696
6.19045
-3.0635
-5.05727
2.52901
3.55981
4.53774
-4.7909
2.44832
2.34258
-1.2311
4.27625
0.918654
4.41895
-6.98062
4.77714
5.71035
3.2336
-6.14475
0.962132
-6.01849
8.37813
-7.24809
-1.13004
3.86684
4.51128
7.09218
5.55737
-5.71334
12.8055
-1.04914
-6.19895
7.06763
-3.83403
4.78387
-8.6179
-10.3412
4.14229
-9.24303
11.0495
-1.80645
-3.62602
-8.39039
12.869
-1.2076
-11.6614
8.62544
-4.21484
-4.27523
8.49007
-6.82377
6.79529
-1.96452
-4.83077
-10.1772
-5.72949
10.2782
1.59745
-9.87584
12.2842
-2.63672
4.16019
0.712976
4.15145
3.27216
-5.41884
2.14667
3.55161
-5.51613
2.05855
-7.47739
-6.83
12.202
-5.37202
-10.5664
-9.60989
-0.956498
2.54028
9.74393
-9.53484
7.45469
2.08015
3.30436
0.586156
-3.37459
-0.411288
0.25079
4.51869
-4.76948
4.04692
4.20383
3.27231
1.24638
3.84562
2.10859
-3.86879
-0.328404
-4.15904
1.48993
-1.74531
-3.68269
5.17262
-4.06249
0.379799
-2.73953
-3.50051
6.24004
-4.58112
3.03875
3.15171
5.08566
-4.91296
1.41245
-2.39524
-2.51772
2.65004
-4.39535
1.98133
3.19129
4.36753
0.595759
6.0022
6.19981
-8.54698
0.51199
11.3059
-9.61906
2.49924
8.60756
-9.95393
0.344045
-8.74301
0.968274
-5.21388
-5.15606
5.13512
-6.84644
-3.48278
6.21665
0.573353
-6.33756
-0.429126
-6.07005
-2.87598
-6.51297
-3.06196
-6.16571
-8.7753
-1.67897
-7.09633
6.76664
-6.69999
-3.49089
7.44749
1.1346
-7.47522
7.37323
-7.53814
7.20275
0.0943732
3.62228
4.3567
1.88538
-2.39118
4.27656
-5.06045
7.30233
-8.62609
3.56564
4.09035
-6.65379
-4.53575
5.0699
4.06846
5.39052
8.98066
-10.492
1.51132
-10.7571
12.0844
-1.32727
-16.559
5.80186
-7.5783
2.57644
0.298858
2.61406
0.621078
2.46537
-3.08645
-2.21055
-2.16232
-2.37367
-3.49089
5.86456
1.14331
-3.40877
2.26546
-3.55649
4.6998
0.0200618
-3.42883
5.22048
-2.7551
5.51933
-3.53643
1.9829
3.4712
5.8025
-2.3313
4.41838
-1.75197
1.87005
-4.20135
-1.62084
-2.96259
5.09693
-3.27745
3.65725
-0.327444
3.98469
-4.07532
0.91383
-0.803001
3.40083
3.66167
4.30766
-3.06128
2.9585
-4.71047
-1.24285
-4.11471
-0.923413
-0.230658
-3.82937
4.06002
6.06695
-6.29761
-5.3149
9.57339
-4.25848
7.73196
-5.46519
-2.26677
-4.31248
-4.39774
3.93969
1.98068
9.71264
0.176833
-5.64202
-5.03272
-4.00719
3.21147
2.13653
-1.91166
3.41296
2.10322
-0.360552
0.506108
1.11151
1.86444
-1.35833
0.263555
1.60088
-1.24058
1.92221
0.755827
-1.97253
0.0732919
-1.29033
3.43243
1.08192
-2.11275
0.754419
0.98618
-3.52262
4.84717
-2.58239
-2.26478
5.83335
1.16072
-3.74312
4.24983
-3.91127
2.39554
-3.49077
-1.34758
-5.25885
-3.55128
-2.56208
4.82753
-3.30248
5.42453
1.26784
-5.23044
6.49828
-3.58917
1.73475
-3.06869
3.82451
-1.11064
-1.95805
2.9402
2.47391
-3.05754
0.160235
-0.117339
2.37106
-2.4884
-0.524155
-2.58029
-4.57461
4.90451
-2.10504
4.55336
2.17151
-1.91576
6.46913
1.80955
-3.72531
-3.24773
-3.70678
-1.38273
3.15502
-0.574347
-4.28847
-5.40511
4.19512
0.223831
-6.8095
7.72021
-0.910705
-3.83719
-0.939953
4.8068
-5.98668
0.470544
-3.92812
3.79208
4.71074
4.93457
-11.4355
-0.225918
-6.22275
1.10238
-7.32513
5.61367
-3.57156
7.71385
-10.3686
6.87767
-9.23396
6.58381
-0.741326
6.2427
-4.09602
2.82141
-8.5509
-6.95345
5.45997
-2.74062
6.17294
-3.11273
9.28568
-5.74945
5.22193
4.06374
-1.04839
-4.12383
-5.20035
4.15197
0.0215793
4.17303
4.98185
-2.87326
4.65344
2.25741
-4.65265
-2.13794
-6.49097
1.83832
-3.33926
-1.91865
3.75697
3.167
3.75316
1.23925
-3.34187
7.27658
-8.23307
-1.90456
-3.2515
5.16503
-1.01306
3.39019
-6.64169
-1.82369
4.82068
-0.760352
-4.06033
0.866713
-4.3495
1.6644
-6.01389
5.18205
-5.61117
2.24465
-9.82296
-5.23057
-5.18278
-2.27469
-5.26345
-7.62397
5.34927
-1.82211
5.55112
-8.60011
7.83976
-3.48427
8.83354
-5.45942
-1.05355
5.88805
1.3147
10.1482
0.0947844
-4.63053
-1.90956
3.83752
-1.92796
1.30191
-3.73458
0.102937
2.46501
3.36834
-6.61407
-0.0397201
-4.67025
-3.91584
7.9843
5.65754
11.7245
1.23251
9.18548
-1.20118
10.418
4.18934
4.42966
-3.03279
4.54411
1.02723
4.59287
-0.836688
2.81959
1.77737
1.77449
0.861541
2.29943
1.36224
3.21326
0.126807
-2.03552
4.6559
-8.66308
-0.986126
-8.11785
1.15402
5.43328
-4.27926
3.02221
-0.885678
1.09424
0.0163105
-1.5902
1.57389
-2.79525
-1.95075
-0.349873
-1.6114
2.36582
1.82102
-2.01595
-0.779296
0.289215
-3.84049
3.20156
-3.04132
-0.567417
5.93086
-2.7913
0.302903
-1.05655
-2.27739
-2.84125
2.76796
6.1751
0.294027
3.1116
5.19854
3.10092
0.22766
3.91025
-5.7167
-3.56714
-5.94261
-0.328949
4.47785
1.73111
8.01281
5.79486
4.7818
-1.85989
-10.093
6.53312
-1.98901
5.20586
-1.14552
-4.86837
5.05102
2.25131
-5.62438
0.0132045
-4.85517
-6.84418
-0.493683
8.33344
-9.65456
8.60101
5.72504
1.37129
-4.44028
-0.742493
4.28221
0.147456
10.5654
-0.906996
-7.17852
8.08552
-4.52629
3.54016
0.74375
2.6692
2.31764
1.43196
-5.74656
-10.0258
-1.91151
-1.61111
-4.17629
0.56938
-2.3904
6.10781
-2.56765
3.84104
5.51787
6.61211
-2.07677
-4.22083
6.33526
-2.49422
4.11789
)
;

boundaryField
{
    wall-4
    {
        type            calculated;
        value           uniform 0;
    }
    velocity-inlet-5
    {
        type            calculated;
        value           uniform -3.75095;
    }
    velocity-inlet-6
    {
        type            calculated;
        value           uniform -5.62643;
    }
    pressure-outlet-7
    {
        type            calculated;
        value           nonuniform List<scalar> 8(3.09607 7.47291 4.05236 9.72132 7.7939 5.14686 6.18367 9.04625);
    }
    wall-8
    {
        type            calculated;
        value           uniform 0;
    }
    frontAndBackPlanes
    {
        type            empty;
        value           nonuniform 0();
    }
}


// ************************************************************************* //
