/*--------------------------------*- C++ -*----------------------------------*\
  =========                 |
  \\      /  F ield         | OpenFOAM: The Open Source CFD Toolbox
   \\    /   O peration     | Website:  https://openfoam.org
    \\  /    A nd           | Version:  6
     \\/     M anipulation  |
\*---------------------------------------------------------------------------*/
FoamFile
{
    version     2.0;
    format      ascii;
    class       volScalarField;
    location    "86.8";
    object      p;
}
// * * * * * * * * * * * * * * * * * * * * * * * * * * * * * * * * * * * * * //

dimensions      [0 2 -2 0 0 0 0];

internalField   nonuniform List<scalar> 
8800
(
0.854561
0.805247
0.767282
0.739215
0.719055
0.70447
0.693876
0.68634
0.681462
0.679402
0.680782
0.685135
0.691935
0.701365
0.714106
0.73143
0.75531
0.788409
0.831348
0.883862
0.689052
0.695397
0.704548
0.708098
0.705491
0.699404
0.692467
0.686229
0.681434
0.678573
0.678352
0.680991
0.685642
0.691778
0.698883
0.705922
0.710804
0.710682
0.70401
0.695113
0.662561
0.668797
0.673298
0.677171
0.680122
0.681074
0.67999
0.677874
0.675902
0.675074
0.676119
0.678584
0.681481
0.683759
0.684287
0.682503
0.679142
0.675132
0.670354
0.666638
0.65825
0.661016
0.663624
0.665784
0.667525
0.669097
0.670205
0.670565
0.670462
0.670574
0.671394
0.672552
0.673306
0.673167
0.6722
0.670853
0.669189
0.666891
0.664484
0.662917
0.65318
0.654606
0.656447
0.658531
0.660247
0.661545
0.66265
0.663639
0.664461
0.665215
0.665946
0.666425
0.666465
0.666116
0.665459
0.664354
0.662705
0.660817
0.659467
0.658665
0.648171
0.649075
0.650324
0.651954
0.653653
0.655192
0.656485
0.657619
0.6587
0.65974
0.660551
0.660965
0.660997
0.660647
0.659859
0.658683
0.657332
0.656075
0.655257
0.654733
0.643239
0.643896
0.644859
0.646182
0.647636
0.649161
0.650658
0.652038
0.653321
0.654555
0.655539
0.656065
0.656111
0.655698
0.654937
0.654012
0.653034
0.65214
0.651564
0.651179
0.638381
0.638886
0.639675
0.640821
0.64213
0.643559
0.645083
0.646644
0.648183
0.649675
0.650873
0.651523
0.651639
0.651349
0.650812
0.650145
0.649427
0.648776
0.648355
0.648055
0.633539
0.633941
0.634605
0.635634
0.636875
0.638254
0.639778
0.641444
0.643209
0.645001
0.646471
0.647331
0.647655
0.647607
0.647321
0.646883
0.646377
0.645924
0.645615
0.645371
0.628633
0.62896
0.629538
0.630491
0.63169
0.633064
0.634632
0.63641
0.638388
0.640498
0.642324
0.643513
0.644143
0.644378
0.644344
0.644147
0.643846
0.643559
0.643335
0.643129
0.623571
0.623842
0.624361
0.625271
0.62646
0.62787
0.629525
0.631461
0.633691
0.636175
0.638447
0.640058
0.641058
0.641614
0.641858
0.641904
0.641812
0.641674
0.641519
0.64134
0.61826
0.618488
0.61897
0.619868
0.621088
0.622576
0.624364
0.626515
0.62907
0.632018
0.634833
0.636949
0.638383
0.639308
0.639864
0.640162
0.64029
0.640292
0.640193
0.640034
0.612605
0.612799
0.613263
0.614179
0.615469
0.617082
0.619059
0.621496
0.624466
0.627989
0.631462
0.63418
0.636123
0.637472
0.638384
0.638975
0.639326
0.639458
0.639407
0.63926
0.606495
0.606663
0.607126
0.608088
0.609491
0.611281
0.613516
0.616323
0.619813
0.624041
0.628311
0.631751
0.634296
0.636139
0.637461
0.638383
0.638973
0.639235
0.639225
0.639085
0.599806
0.599951
0.600429
0.601466
0.603027
0.605054
0.607626
0.610903
0.615039
0.620129
0.625362
0.629665
0.632925
0.635352
0.63714
0.638439
0.6393
0.639698
0.639726
0.639588
0.592389
0.592509
0.593017
0.59416
0.59593
0.598266
0.601266
0.605133
0.610066
0.616208
0.6226
0.627932
0.632038
0.635154
0.637499
0.639236
0.6404
0.640938
0.641
0.640861
0.584052
0.584156
0.584699
0.585981
0.58802
0.590748
0.594288
0.59889
0.604806
0.612226
0.62001
0.626567
0.631671
0.635598
0.638614
0.640861
0.642366
0.643051
0.643145
0.642999
0.574515
0.574621
0.575231
0.576685
0.579073
0.582297
0.586515
0.592032
0.599159
0.608133
0.617583
0.625589
0.631872
0.636753
0.640554
0.6434
0.645293
0.646133
0.646253
0.646098
0.563485
0.563568
0.564263
0.56597
0.568801
0.572657
0.577731
0.584393
0.593015
0.603874
0.615312
0.625021
0.632684
0.638689
0.643395
0.64695
0.649269
0.650265
0.650405
0.650237
0.550552
0.550624
0.551425
0.553443
0.556838
0.561505
0.567673
0.57578
0.586256
0.599404
0.613201
0.624897
0.634153
0.641461
0.647225
0.651579
0.654359
0.655503
0.655653
0.655468
0.535122
0.535183
0.536138
0.538576
0.542713
0.548441
0.556025
0.565979
0.578768
0.594692
0.611265
0.625251
0.636323
0.645116
0.652081
0.657327
0.660583
0.661853
0.661999
0.661795
0.51638
0.516437
0.51761
0.52064
0.525792
0.532952
0.542418
0.554767
0.570465
0.589742
0.609542
0.626123
0.639233
0.64969
0.657975
0.664191
0.667896
0.669247
0.669371
0.669147
0.493101
0.493164
0.494692
0.498612
0.505224
0.514395
0.526443
0.541957
0.561318
0.584612
0.608105
0.627561
0.642911
0.65518
0.66489
0.672087
0.676161
0.677522
0.6776
0.677358
0.463407
0.463501
0.465636
0.471002
0.479897
0.492038
0.50774
0.52747
0.551413
0.579438
0.60707
0.629639
0.647368
0.661552
0.672759
0.680846
0.685128
0.6864
0.68641
0.686156
0.424079
0.424309
0.427705
0.43574
0.448496
0.465246
0.486173
0.511455
0.540999
0.574452
0.606592
0.632442
0.652623
0.668747
0.68142
0.690191
0.694432
0.695499
0.695428
0.695172
0.368997
0.370153
0.376937
0.390536
0.41005
0.43394
0.462109
0.4944
0.530511
0.569965
0.606855
0.636055
0.658677
0.676675
0.690642
0.699742
0.703611
0.704382
0.704234
0.703986
0.289296
0.297122
0.31274
0.336562
0.36618
0.399629
0.436602
0.476895
0.520229
0.566143
0.608081
0.640847
0.666102
0.686096
0.701078
0.710117
0.713411
0.713877
0.713684
0.713476
0.204436
0.221563
0.246932
0.281733
0.322001
0.365133
0.410899
0.459271
0.510073
0.56293
0.610576
0.647501
0.675884
0.69806
0.713926
0.722252
0.724648
0.724819
0.724653
0.724523
0.131625
0.152579
0.186084
0.230298
0.28
0.332249
0.386566
0.442856
0.500911
0.56035
0.613226
0.653819
0.684831
0.708721
0.724792
0.732125
0.733839
0.733908
0.733779
0.733682
0.0719089
0.0951924
0.13428
0.185242
0.242304
0.302162
0.364009
0.427539
0.492346
0.557912
0.615588
0.659437
0.692634
0.717686
0.73375
0.740431
0.741829
0.741866
0.741761
0.741673
0.0223739
0.0470479
0.0901714
0.146382
0.209325
0.275425
0.343664
0.413561
0.484483
0.5557
0.617797
0.664597
0.699676
0.725686
0.74167
0.747856
0.749087
0.74913
0.749049
0.748964
-0.0196048
0.00588183
0.0519811
0.112446
0.180333
0.251755
0.325518
0.401039
0.477495
0.553941
0.620169
0.669688
0.706456
0.733215
0.749029
0.754854
0.756012
0.756092
0.756045
0.755961
-0.0561001
-0.0300881
0.0183285
0.0823191
0.154438
0.230511
0.309192
0.389805
0.471371
0.552725
0.622893
0.674983
0.713299
0.740659
0.756313
0.761875
0.76299
0.763128
0.763132
0.763056
-0.0886371
-0.0622208
-0.0119054
0.0550971
0.130898
0.211076
0.294208
0.379522
0.4659
0.551971
0.625973
0.680584
0.720394
0.748368
0.763935
0.769329
0.770463
0.770649
0.770705
0.770641
-0.118277
-0.0914999
-0.039577
0.0300613
0.109116
0.192957
0.280139
0.369831
0.4608
0.551482
0.629295
0.686486
0.727858
0.75655
0.772186
0.777549
0.778656
0.778862
0.778955
0.778909
-0.145863
-0.118709
-0.0653511
0.006666
0.0886169
0.175756
0.266641
0.360429
0.455802
0.551034
0.632744
0.692607
0.735675
0.765231
0.781083
0.786475
0.787549
0.787731
0.787825
0.787792
-0.171825
-0.144321
-0.0896496
-0.0155103
0.0690421
0.159168
0.253452
0.351068
0.450684
0.550453
0.636169
0.698835
0.743704
0.774219
0.790375
0.795826
0.796856
0.796987
0.797057
0.797038
-0.196666
-0.168734
-0.112848
-0.0367756
0.0501231
0.142956
0.240372
0.341569
0.445256
0.549553
0.639417
0.705048
0.751782
0.783284
0.799764
0.805244
0.806214
0.806272
0.806305
0.806302
-0.220553
-0.192187
-0.135159
-0.0573397
0.0316715
0.126964
0.227255
0.331795
0.439368
0.54817
0.642353
0.711138
0.759803
0.792242
0.808961
0.814395
0.815284
0.815255
0.815242
0.815235
-0.243656
-0.214831
-0.156745
-0.077335
0.0135791
0.111093
0.214005
0.32164
0.432905
0.546154
0.644834
0.71703
0.76772
0.800944
0.817698
0.823009
0.82377
0.823663
0.823608
0.823596
-0.266103
-0.23679
-0.17769
-0.0968339
-0.00422713
0.0952881
0.200575
0.311056
0.425788
0.543379
0.64672
0.722654
0.775558
0.809453
0.825958
0.830926
0.831528
0.831354
0.831266
0.831247
-0.287981
-0.258128
-0.198037
-0.11587
-0.0217591
0.0795294
0.186956
0.300018
0.417969
0.539739
0.647867
0.727937
0.783411
0.817934
0.833824
0.838156
0.838497
0.838274
0.838174
0.838148
-0.309189
-0.278823
-0.217786
-0.134465
-0.0390216
0.0638409
0.173158
0.288546
0.409436
0.535169
0.648133
0.732773
0.791352
0.826708
0.841671
0.84486
0.844698
0.844436
0.84438
0.844356
-0.329726
-0.298866
-0.236954
-0.152607
-0.0559914
0.0482486
0.159234
0.276669
0.400213
0.52962
0.647387
0.737007
0.7994
0.836141
0.850118
0.851567
0.850325
0.849906
0.850064
0.850142
-0.349659
-0.318251
-0.255542
-0.170284
-0.0726299
0.0328086
0.145241
0.264453
0.390342
0.52309
0.645494
0.740447
0.807423
0.846457
0.860024
0.859467
0.856216
0.855059
0.855649
0.856335
-0.368868
-0.336961
-0.273514
-0.18745
-0.0888986
0.0175855
0.131255
0.251977
0.379899
0.515618
0.642349
0.742849
0.815141
0.857532
0.871979
0.870265
0.864656
0.861272
0.860671
0.860853
-0.387445
-0.355025
-0.290886
-0.204145
-0.104841
0.00253355
0.117218
0.239181
0.36881
0.507131
0.637786
0.743948
0.82232
0.869021
0.885904
0.88502
0.878106
0.870244
0.861509
0.86345
-0.405325
-0.372509
-0.307797
-0.220568
-0.120749
-0.0126666
0.102732
0.225607
0.35657
0.497059
0.631231
0.743099
0.828717
0.880697
0.900922
0.90276
0.894694
0.880758
0.859977
0.860826
-0.422386
-0.389393
-0.324097
-0.236538
-0.136368
-0.0277257
0.0879826
0.211548
0.343427
0.485566
0.622581
0.739369
0.833148
0.891107
0.913014
0.915493
0.906498
0.877025
0.820268
0.79634
-0.438529
-0.406647
-0.339395
-0.251624
-0.150905
-0.0421581
0.0732503
0.197278
0.329657
0.472804
0.61183
0.732024
0.834145
0.898712
0.916713
0.913803
0.891647
0.83551
0.77301
0.735185
-0.480522
-0.423613
-0.353389
-0.266765
-0.165122
-0.0569531
0.0586824
0.182667
0.315034
0.458378
0.598463
0.720226
0.827726
0.898722
0.908019
0.884225
0.826787
0.756009
0.685276
0.646284
-0.454843
-0.436321
-0.374653
-0.28734
-0.187196
-0.0792107
0.0358131
0.159305
0.291055
0.433548
0.573122
0.694339
0.79481
0.873404
0.848105
0.72817
0.630532
0.562722
0.495932
0.519287
-0.484878
-0.453243
-0.390707
-0.303871
-0.204095
-0.0962357
0.0190296
0.141953
0.272834
0.41384
0.551216
0.669273
0.758482
0.802662
0.740947
0.591951
0.476251
0.398227
0.313493
0.354957
-0.507971
-0.474008
-0.409785
-0.322909
-0.22318
-0.115316
-0.000129129
0.122062
0.25168
0.390457
0.524153
0.636233
0.713489
0.719399
0.602529
0.439767
0.305021
0.208126
0.110379
0.138065
-0.53034
-0.495388
-0.429854
-0.342353
-0.242559
-0.13481
-0.0201281
0.101129
0.2292
0.365232
0.494016
0.597071
0.657012
0.629113
0.461407
0.278332
0.114073
-0.023091
-0.14973
-0.14081
-0.552379
-0.517093
-0.450702
-0.36265
-0.262746
-0.155232
-0.0412216
0.0789138
0.205088
0.337849
0.46067
0.554438
0.59316
0.516548
0.322196
0.120171
-0.0698918
-0.226186
-0.432381
-0.512157
-0.574776
-0.539596
-0.472726
-0.384302
-0.28428
-0.176979
-0.0636017
0.0553362
0.179421
0.308523
0.424701
0.509021
0.519984
0.392156
0.194849
-0.0182553
-0.212867
-0.375731
-0.499772
-0.615729
-0.598598
-0.563376
-0.49628
-0.407694
-0.3077
-0.20073
-0.0881083
0.0294152
0.150999
0.275758
0.384612
0.455706
0.437861
0.273941
0.075509
-0.131382
-0.309332
-0.407684
-0.433801
-0.447116
-0.623977
-0.588729
-0.521493
-0.432915
-0.333151
-0.226711
-0.115122
0.000627926
0.119191
0.238742
0.339832
0.392037
0.354229
0.160156
-0.0359616
-0.222619
-0.357271
-0.395632
-0.404312
-0.404634
-0.651197
-0.615781
-0.548407
-0.459955
-0.360586
-0.254934
-0.144677
-0.031095
0.0839106
0.197464
0.289853
0.324645
0.253151
0.0558428
-0.133529
-0.295813
-0.371717
-0.385818
-0.386808
-0.386653
-0.680265
-0.644564
-0.577046
-0.488817
-0.390028
-0.285401
-0.176794
-0.0657842
0.0451636
0.152036
0.234359
0.253473
0.142781
-0.0391587
-0.217409
-0.345885
-0.375652
-0.376401
-0.377048
-0.376643
-0.71093
-0.674922
-0.607316
-0.519427
-0.421401
-0.318069
-0.211459
-0.103429
0.00299794
0.102584
0.174667
0.174216
0.0450518
-0.12628
-0.283192
-0.356497
-0.372148
-0.370927
-0.370917
-0.370614
-0.74264
-0.706505
-0.638958
-0.551559
-0.454522
-0.352786
-0.248529
-0.143916
-0.0423666
0.0495371
0.111177
0.0942362
-0.0446959
-0.203289
-0.32806
-0.365751
-0.365935
-0.36667
-0.366658
-0.366454
-0.77495
-0.738784
-0.671483
-0.584798
-0.489041
-0.389232
-0.287721
-0.186968
-0.0906365
-0.00615432
0.0426692
0.0187401
-0.125586
-0.265456
-0.357177
-0.364298
-0.364891
-0.364614
-0.36432
-0.364119
-0.806894
-0.770884
-0.704166
-0.618507
-0.524403
-0.426923
-0.328568
-0.232086
-0.141387
-0.0636048
-0.0258251
-0.0564838
-0.194155
-0.310957
-0.368054
-0.37533
-0.367124
-0.364346
-0.363422
-0.363009
-0.836712
-0.801523
-0.735968
-0.651795
-0.559823
-0.465145
-0.370389
-0.278526
-0.193831
-0.122356
-0.0892928
-0.133537
-0.248292
-0.344327
-0.369216
-0.369183
-0.367196
-0.365542
-0.364671
-0.364167
-0.863258
-0.829186
-0.765484
-0.683455
-0.594233
-0.50295
-0.412295
-0.325361
-0.246702
-0.181878
-0.150948
-0.199464
-0.286958
-0.356489
-0.380813
-0.370469
-0.367707
-0.36663
-0.366066
-0.365792
-0.883852
-0.851769
-0.79095
-0.711957
-0.626308
-0.539143
-0.453168
-0.371518
-0.298697
-0.240343
-0.212018
-0.250561
-0.31135
-0.352158
-0.359603
-0.363639
-0.364384
-0.364659
-0.364839
-0.364917
-0.896432
-0.867147
-0.810285
-0.735547
-0.654512
-0.572326
-0.491692
-0.415733
-0.34872
-0.295151
-0.267675
-0.29415
-0.328291
-0.353311
-0.354952
-0.360809
-0.363434
-0.364163
-0.364513
-0.364573
-0.898295
-0.87293
-0.821378
-0.752365
-0.6772
-0.601026
-0.526441
-0.456514
-0.395588
-0.345706
-0.314132
-0.334531
-0.346418
-0.360748
-0.364044
-0.36561
-0.367127
-0.367736
-0.367969
-0.367987
-0.887112
-0.86654
-0.822091
-0.760658
-0.692883
-0.623865
-0.556064
-0.492365
-0.437553
-0.393213
-0.349181
-0.373173
-0.364284
-0.371812
-0.374664
-0.373607
-0.373743
-0.37418
-0.374309
-0.374312
-0.860529
-0.845466
-0.810532
-0.759182
-0.700502
-0.639828
-0.579525
-0.522229
-0.472741
-0.435884
-0.388821
-0.39118
-0.390911
-0.395427
-0.386842
-0.384902
-0.383179
-0.382423
-0.382052
-0.381992
-0.821986
-0.812376
-0.787837
-0.748177
-0.700057
-0.648638
-0.596279
-0.545451
-0.500622
-0.469537
-0.43925
-0.418279
-0.403343
-0.423547
-0.424595
-0.404239
-0.389635
-0.385197
-0.384667
-0.384571
-0.778524
-0.773054
-0.75894
-0.730721
-0.693611
-0.651167
-0.606381
-0.561629
-0.520884
-0.490838
-0.462775
-0.435218
-0.402568
-0.381727
-0.363587
-0.363167
-0.37626
-0.385251
-0.387886
-0.387853
-0.740075
-0.73675
-0.730051
-0.712148
-0.684079
-0.649226
-0.610861
-0.570804
-0.531975
-0.499884
-0.473306
-0.445481
-0.412634
-0.382472
-0.379522
-0.411829
-0.432869
-0.431647
-0.4288
-0.433005
-0.71239
-0.710419
-0.706995
-0.696434
-0.675171
-0.645939
-0.611707
-0.573929
-0.534813
-0.499648
-0.472137
-0.454101
-0.474308
-0.53757
-0.621001
-0.69345
-0.717877
-0.691338
-0.641047
-0.626769
-0.692069
-0.691369
-0.690206
-0.684993
-0.669489
-0.643963
-0.611108
-0.573328
-0.531774
-0.489915
-0.459523
-0.441631
-0.468077
-0.553019
-0.679
-0.715539
-0.693029
-0.649849
-0.598851
-0.573382
-0.680242
-0.68001
-0.679393
-0.676947
-0.666399
-0.643078
-0.609917
-0.570327
-0.5242
-0.473238
-0.431083
-0.377256
-0.335582
-0.305071
-0.326133
-0.338424
-0.282449
-0.213159
-0.156731
-0.129304
-0.672107
-0.671955
-0.671541
-0.670811
-0.664403
-0.643351
-0.609516
-0.566512
-0.514925
-0.452958
-0.388703
-0.306495
-0.173102
0.00570845
0.189717
0.36056
0.480773
0.543358
0.574615
0.585455
-0.666841
-0.666802
-0.666691
-0.666561
-0.662696
-0.644993
-0.610138
-0.563007
-0.505903
-0.432884
-0.350261
-0.253573
-0.0660862
0.219656
0.525362
0.802178
0.986048
1.06632
1.0822
1.08232
-0.662475
-0.662531
-0.662576
-0.662611
-0.661222
-0.64702
-0.611784
-0.561433
-0.499216
-0.418626
-0.324024
-0.220472
-0.0236826
0.266317
0.574492
0.853211
1.05129
1.14854
1.18427
1.19465
-0.658549
-0.658627
-0.658568
-0.658315
-0.65792
-0.648055
-0.615156
-0.563793
-0.497238
-0.412411
-0.313172
-0.209265
-0.0299559
0.24227
0.531943
0.792904
0.986252
1.09562
1.14515
1.16199
-0.656429
-0.65631
-0.655696
-0.654378
-0.65363
-0.647563
-0.620913
-0.570978
-0.500949
-0.414335
-0.317427
-0.219837
-0.0655225
0.1807
0.440313
0.675893
0.866953
0.985298
1.03602
1.04948
-0.657492
-0.657433
-0.657248
-0.656565
-0.654974
-0.653229
-0.633323
-0.582124
-0.509222
-0.424943
-0.334959
-0.248201
-0.131616
0.0783779
0.304487
0.498486
0.657157
0.758251
0.799701
0.809249
-0.660565
-0.661543
-0.664427
-0.670365
-0.676543
-0.677145
-0.654543
-0.594056
-0.521495
-0.444397
-0.359635
-0.282477
-0.193872
-0.0277779
0.152842
0.30085
0.418972
0.492259
0.52013
0.525562
-0.664239
-0.666119
-0.671809
-0.685048
-0.704357
-0.709361
-0.671825
-0.603287
-0.539076
-0.469025
-0.387741
-0.320007
-0.254746
-0.129899
0.00852808
0.116745
0.198963
0.247633
0.265585
0.267968
-0.677084
-0.678483
-0.681983
-0.684699
-0.685735
-0.686319
-0.651758
-0.604598
-0.560121
-0.493132
-0.417424
-0.358264
-0.308509
-0.217762
-0.11659
-0.0400373
0.015871
0.046745
0.0573596
0.0586992
-0.700249
-0.700794
-0.700213
-0.676796
-0.622519
-0.58523
-0.595173
-0.603229
-0.57919
-0.514459
-0.445775
-0.394775
-0.354989
-0.285589
-0.211313
-0.159015
-0.123552
-0.105085
-0.0987294
-0.0978636
-0.725774
-0.72454
-0.719746
-0.687873
-0.619244
-0.567348
-0.590948
-0.630227
-0.603757
-0.535074
-0.471432
-0.428691
-0.393379
-0.340268
-0.284738
-0.245825
-0.220994
-0.207896
-0.203082
-0.202536
-0.77413
-0.771654
-0.782679
-0.798338
-0.802417
-0.772724
-0.754557
-0.725211
-0.651539
-0.55887
-0.496555
-0.454712
-0.422914
-0.377242
-0.331174
-0.299744
-0.279248
-0.268204
-0.264283
-0.264085
-0.896332
-0.908057
-0.952618
-1.01126
-1.03829
-1.02058
-0.959489
-0.849398
-0.706887
-0.584844
-0.518594
-0.469478
-0.44168
-0.403471
-0.360824
-0.330504
-0.310202
-0.298965
-0.295379
-0.295556
-1.02745
-1.04714
-1.09291
-1.13825
-1.16219
-1.1442
-1.0693
-0.911915
-0.727045
-0.601656
-0.522277
-0.470602
-0.447824
-0.410449
-0.370258
-0.342485
-0.323064
-0.312208
-0.308869
-0.309279
-1.0524
-1.06955
-1.09992
-1.13187
-1.15196
-1.13718
-1.05631
-0.871111
-0.699304
-0.58725
-0.49739
-0.457715
-0.437973
-0.39954
-0.362596
-0.338553
-0.321682
-0.312967
-0.310249
-0.310756
-0.940633
-0.953411
-0.977953
-1.00583
-1.02498
-1.01348
-0.934491
-0.771172
-0.637596
-0.527445
-0.456046
-0.425292
-0.404024
-0.372347
-0.342939
-0.322944
-0.308828
-0.301518
-0.299307
-0.299835
-0.708783
-0.722697
-0.749802
-0.783751
-0.810332
-0.805406
-0.736375
-0.631032
-0.533159
-0.44771
-0.405519
-0.372338
-0.355952
-0.331871
-0.308995
-0.293582
-0.282807
-0.277106
-0.275424
-0.276065
-0.406593
-0.418815
-0.444286
-0.480446
-0.513427
-0.524029
-0.495929
-0.452063
-0.401237
-0.367044
-0.337356
-0.312663
-0.302462
-0.283966
-0.267598
-0.256543
-0.247517
-0.242571
-0.241507
-0.242339
-0.126997
-0.134803
-0.15346
-0.184633
-0.224238
-0.256278
-0.277314
-0.285278
-0.285506
-0.277912
-0.26347
-0.255449
-0.248298
-0.236209
-0.225498
-0.216723
-0.208872
-0.204874
-0.20428
-0.205169
0.0506369
0.0459887
0.0327917
0.00645597
-0.0336213
-0.0847296
-0.133933
-0.169075
-0.188803
-0.197959
-0.202414
-0.198993
-0.198751
-0.191589
-0.184302
-0.177411
-0.171212
-0.16839
-0.168214
-0.169119
0.120141
0.116972
0.107032
0.0853268
0.049499
0.00380153
-0.044832
-0.0889749
-0.119922
-0.1375
-0.145983
-0.14862
-0.153424
-0.149285
-0.144601
-0.140776
-0.137906
-0.136896
-0.137109
-0.137884
0.118087
0.115938
0.108772
0.0929593
0.0659893
0.0297817
-0.0085274
-0.0426836
-0.0678619
-0.0850043
-0.0967069
-0.103799
-0.109112
-0.106366
-0.105359
-0.10558
-0.107019
-0.108394
-0.1087
-0.109106
0.0781182
0.0768726
0.072716
0.0634303
0.047836
0.0273192
0.00424097
-0.0172592
-0.0330866
-0.0444397
-0.0534171
-0.0581979
-0.0624314
-0.060533
-0.0617884
-0.0652943
-0.0698487
-0.0727017
-0.0728813
-0.0728032
0.0187387
0.0187231
0.0189143
0.01764
0.01438
0.0095138
0.00431522
-0.000712405
-0.0051043
-0.00805913
-0.00937099
-0.0116479
-0.0116663
-0.0116502
-0.0142975
-0.0164949
-0.0196421
-0.0209314
-0.019027
-0.0177295
-0.0126223
0.173866
0.344702
0.488861
0.603438
0.693016
0.766951
0.826897
0.841682
0.838475
0.27193
0.391248
0.502856
0.599237
0.679911
0.74616
0.798213
0.833387
0.85227
0.86907
0.464327
0.543646
0.621984
0.69057
0.748847
0.79708
0.835096
0.8642
0.886166
0.905433
0.606725
0.663077
0.719768
0.770559
0.814364
0.85164
0.882977
0.909326
0.929361
0.948261
0.721698
0.764097
0.806164
0.845557
0.880788
0.911976
0.939288
0.962475
0.980288
0.998358
0.817394
0.852556
0.887178
0.920387
0.95102
0.978797
1.00336
1.02402
1.03967
1.05715
0.904809
0.936447
0.968351
0.999221
1.02795
1.05408
1.07701
1.09582
1.10964
1.12665
0.991171
1.02355
1.05575
1.08676
1.11537
1.14102
1.16303
1.18047
1.19279
1.2093
1.0852
1.12155
1.1562
1.18855
1.21761
1.24287
1.2639
1.28012
1.29168
1.30781
1.19813
1.23881
1.27572
1.30853
1.33692
1.36084
1.3804
1.39563
1.40749
1.42355
1.33957
1.38051
1.41569
1.44518
1.47032
1.49189
1.51036
1.52582
1.53891
1.55485
1.51095
1.54306
1.56999
1.59232
1.61238
1.63109
1.64881
1.66556
1.68046
1.69618
1.6971
1.71432
1.73142
1.7481
1.76418
1.77891
1.7928
1.80728
1.82251
1.8398
1.88048
1.89041
1.90359
1.91457
1.92397
1.93363
1.94423
1.9544
1.96369
1.98935
2.09831
2.09261
2.07966
2.06541
2.0591
2.0648
2.08295
2.11147
2.14523
2.18155
2.40113
2.26519
2.18567
2.14313
2.1258
2.12979
2.15721
2.21508
2.32274
2.50114
0.758254
0.751952
0.744224
0.733112
0.719545
0.706904
0.696517
0.688521
0.682826
0.679528
0.67922
0.682095
0.687363
0.694747
0.704315
0.716158
0.72973
0.742666
0.75166
0.759203
0.667311
0.673231
0.681306
0.687443
0.690517
0.690013
0.686939
0.682961
0.679397
0.677148
0.67706
0.679361
0.683153
0.687628
0.691751
0.694011
0.692949
0.688321
0.681271
0.67344
0.660542
0.662915
0.666185
0.668963
0.671421
0.67362
0.674813
0.674686
0.673776
0.673009
0.673277
0.674746
0.676572
0.677834
0.677784
0.676336
0.674192
0.671841
0.668866
0.665851
0.655726
0.656815
0.658735
0.661079
0.66296
0.664371
0.665605
0.666621
0.667254
0.667679
0.668296
0.669103
0.669621
0.669543
0.668945
0.668045
0.666732
0.664775
0.662676
0.661202
0.650667
0.651301
0.652434
0.654199
0.656054
0.657662
0.658933
0.660025
0.661046
0.662
0.662861
0.663457
0.663656
0.663498
0.662998
0.662053
0.660647
0.659053
0.657726
0.656927
0.645698
0.646136
0.646929
0.648243
0.649778
0.65136
0.652862
0.654191
0.655393
0.656547
0.657589
0.658282
0.658536
0.65836
0.657742
0.656778
0.655652
0.654528
0.653637
0.653106
0.640806
0.641133
0.64175
0.642831
0.644144
0.645565
0.647073
0.648587
0.650035
0.651417
0.652671
0.653527
0.653846
0.653674
0.653134
0.652396
0.651584
0.650755
0.650108
0.649719
0.635966
0.636219
0.636718
0.637643
0.638836
0.640171
0.641628
0.643204
0.644849
0.646506
0.648031
0.649084
0.64954
0.649532
0.649222
0.648733
0.648143
0.647547
0.647083
0.646786
0.631104
0.631305
0.631721
0.632538
0.633657
0.634951
0.636402
0.638032
0.639833
0.641755
0.643601
0.644947
0.645666
0.645925
0.645874
0.645625
0.645254
0.644858
0.644536
0.644303
0.626131
0.626292
0.62665
0.627397
0.628475
0.629757
0.631247
0.632974
0.634951
0.637157
0.639384
0.641129
0.642208
0.642787
0.643014
0.643016
0.642872
0.642662
0.642458
0.642273
0.620957
0.621087
0.621404
0.622108
0.623175
0.624491
0.626061
0.627932
0.630142
0.632695
0.635388
0.637625
0.639136
0.640086
0.640632
0.640905
0.64099
0.640961
0.640861
0.640711
0.615486
0.615591
0.615881
0.616569
0.617661
0.619054
0.62075
0.622821
0.625337
0.628329
0.631594
0.634422
0.636443
0.637824
0.638732
0.639302
0.63964
0.639791
0.63978
0.639657
0.609619
0.609701
0.609975
0.610673
0.611825
0.613338
0.615215
0.617558
0.620464
0.624004
0.627968
0.631508
0.634134
0.636017
0.637341
0.638266
0.638874
0.639203
0.639273
0.639171
0.603236
0.603299
0.603568
0.604297
0.605546
0.607227
0.609351
0.612047
0.615447
0.619663
0.624477
0.628872
0.632221
0.634698
0.636501
0.637822
0.638738
0.639261
0.63941
0.639324
0.596201
0.596244
0.596516
0.597299
0.598686
0.60059
0.603037
0.606181
0.610198
0.615245
0.621089
0.626512
0.630719
0.633898
0.636271
0.638044
0.639315
0.64005
0.640276
0.640202
0.588358
0.588375
0.58865
0.589511
0.591077
0.59327
0.596127
0.599836
0.60462
0.610684
0.617775
0.624427
0.629652
0.633659
0.636707
0.639028
0.640699
0.641662
0.641965
0.641899
0.579442
0.579454
0.579754
0.580717
0.582516
0.585075
0.588449
0.592864
0.598597
0.605907
0.614502
0.622619
0.62905
0.634033
0.637875
0.640846
0.642981
0.644195
0.644574
0.644511
0.56919
0.569176
0.569519
0.570634
0.572736
0.575763
0.57979
0.58509
0.592
0.600835
0.611244
0.621097
0.628946
0.635079
0.639858
0.643583
0.646255
0.647739
0.648192
0.648128
0.557256
0.557222
0.557614
0.558917
0.561397
0.565025
0.569885
0.576304
0.584682
0.595387
0.607974
0.619876
0.629379
0.63685
0.642729
0.647324
0.650602
0.65237
0.652888
0.652817
0.543133
0.543075
0.543549
0.545105
0.548071
0.552475
0.558409
0.566257
0.576482
0.589484
0.60468
0.61898
0.630386
0.639392
0.646547
0.652132
0.656075
0.658126
0.658693
0.658609
0.526118
0.526039
0.526641
0.528552
0.532171
0.53761
0.544962
0.554667
0.56724
0.583074
0.601372
0.618442
0.632011
0.642754
0.65133
0.658028
0.66268
0.664987
0.665577
0.665471
0.505218
0.505123
0.505931
0.508359
0.512897
0.519772
0.529056
0.541235
0.556825
0.576146
0.598098
0.61831
0.634294
0.646958
0.657088
0.665001
0.670349
0.672847
0.67342
0.673285
0.478907
0.478812
0.479969
0.483203
0.48914
0.49811
0.510144
0.525696
0.545188
0.568773
0.594959
0.618667
0.63727
0.652004
0.663809
0.672969
0.678919
0.681494
0.682001
0.681832
0.444728
0.444686
0.446469
0.451091
0.459379
0.471656
0.487745
0.507942
0.532437
0.561137
0.592117
0.619619
0.640984
0.657882
0.671407
0.68176
0.688111
0.690597
0.690982
0.690779
0.398303
0.398483
0.401653
0.409197
0.421877
0.439598
0.461722
0.488202
0.51892
0.553558
0.5898
0.621295
0.645494
0.664552
0.679768
0.691122
0.697528
0.699711
0.699935
0.699708
0.331444
0.33288
0.340604
0.354897
0.375676
0.402074
0.432717
0.467183
0.505227
0.546456
0.588253
0.623803
0.650808
0.671939
0.688611
0.700572
0.706609
0.708284
0.708343
0.708121
0.251641
0.254449
0.269486
0.294173
0.326056
0.362699
0.402541
0.445403
0.491154
0.539488
0.587526
0.627875
0.658366
0.68208
0.700333
0.712466
0.717857
0.719101
0.719099
0.718966
0.169932
0.177259
0.199854
0.234919
0.277535
0.324191
0.373224
0.424513
0.477995
0.533407
0.587638
0.632686
0.666506
0.692732
0.712443
0.724263
0.728536
0.729214
0.729158
0.729079
0.103122
0.112484
0.139884
0.182288
0.233309
0.288434
0.345734
0.404903
0.465728
0.527838
0.58782
0.637092
0.673785
0.701936
0.722376
0.73367
0.737274
0.737786
0.73774
0.737685
0.0483588
0.0584637
0.0895205
0.13736
0.194709
0.256583
0.320808
0.386877
0.454346
0.52264
0.587929
0.641052
0.680253
0.709956
0.730901
0.741775
0.744962
0.745387
0.745362
0.745324
0.00252646
0.0129639
0.0465188
0.0985898
0.161109
0.228575
0.298636
0.370672
0.444055
0.517997
0.588206
0.644879
0.68634
0.717379
0.738661
0.749141
0.752062
0.75247
0.752478
0.75246
-0.0368422
-0.0262672
0.0091461
0.0645997
0.131434
0.203702
0.278853
0.35617
0.434899
0.514043
0.588879
0.648882
0.692435
0.72462
0.746077
0.756228
0.758993
0.759413
0.759475
0.759487
-0.07146
-0.060848
-0.0239871
0.0342662
0.104776
0.181221
0.260901
0.34301
0.426682
0.510727
0.589985
0.653216
0.698745
0.731995
0.753628
0.763528
0.766154
0.766618
0.766757
0.766813
-0.102606
-0.0919853
-0.0539716
0.00669033
0.0804038
0.160529
0.24427
0.330783
0.419086
0.507843
0.591421
0.657854
0.705367
0.739709
0.761599
0.771368
0.773976
0.774485
0.774663
0.774757
-0.1313
-0.12065
-0.0816198
-0.0188237
0.0577427
0.141141
0.228549
0.319125
0.411811
0.505128
0.593022
0.662707
0.71232
0.747875
0.770186
0.779978
0.782563
0.783049
0.783244
0.783368
-0.158126
-0.147432
-0.107484
-0.0427699
0.036332
0.122672
0.213419
0.30775
0.404588
0.502363
0.59461
0.667676
0.71949
0.756377
0.779241
0.789176
0.791754
0.792184
0.792353
0.792481
-0.183569
-0.172808
-0.131999
-0.0655414
0.0158387
0.104833
0.198629
0.29644
0.397212
0.499354
0.596021
0.672624
0.726757
0.76505
0.788521
0.798611
0.801191
0.801541
0.801653
0.80176
-0.208008
-0.19709
-0.155472
-0.0874091
-0.00397387
0.0874122
0.183996
0.285035
0.389519
0.495924
0.597096
0.67742
0.733994
0.773696
0.797786
0.807963
0.8105
0.810764
0.810802
0.810881
-0.231574
-0.220472
-0.178081
-0.108558
-0.02327
0.0702818
0.1694
0.273413
0.381386
0.491918
0.597675
0.681952
0.741131
0.782221
0.806768
0.816937
0.819371
0.819534
0.819497
0.819544
-0.254455
-0.243117
-0.199982
-0.129091
-0.0421418
0.0533535
0.154765
0.261501
0.372731
0.48723
0.597611
0.686112
0.748131
0.790591
0.81537
0.825335
0.827572
0.827632
0.827536
0.827554
-0.276651
-0.265097
-0.22124
-0.149068
-0.0606343
0.0365927
0.140068
0.249272
0.363504
0.481766
0.596767
0.689775
0.754996
0.79893
0.823683
0.83311
0.835021
0.834967
0.834829
0.834826
-0.298248
-0.286451
-0.241852
-0.168512
-0.0787659
0.0199919
0.125305
0.236731
0.353695
0.475473
0.595019
0.692815
0.761718
0.807413
0.831961
0.840436
0.841728
0.841515
0.841372
0.841365
-0.319131
-0.307149
-0.261825
-0.187436
-0.0965272
0.00358812
0.110504
0.223902
0.343322
0.468336
0.592263
0.695082
0.768238
0.816257
0.840672
0.847719
0.847864
0.847306
0.847232
0.847296
-0.339427
-0.327189
-0.281161
-0.205843
-0.113912
-0.0126075
0.0957258
0.21083
0.332427
0.460378
0.588425
0.696404
0.774417
0.825563
0.850383
0.855835
0.854084
0.852563
0.852589
0.853018
-0.359
-0.346528
-0.299867
-0.223706
-0.130861
-0.0285314
0.0810312
0.197609
0.32108
0.451618
0.583465
0.6966
0.780025
0.835217
0.861498
0.866012
0.862024
0.858499
0.858059
0.859206
-0.377964
-0.365222
-0.317901
-0.240982
-0.147353
-0.0441323
0.0664901
0.184299
0.309361
0.44215
0.577382
0.69547
0.784763
0.844842
0.873826
0.879024
0.873874
0.867658
0.862927
0.856178
-0.396215
-0.383273
-0.335355
-0.257839
-0.16361
-0.0596831
0.0517826
0.170521
0.296864
0.431536
0.569758
0.692587
0.788443
0.854479
0.887269
0.895071
0.890684
0.881526
0.869121
0.868804
-0.413718
-0.400762
-0.352242
-0.274231
-0.179627
-0.0751542
0.0369288
0.156243
0.283536
0.419616
0.560345
0.687338
0.790135
0.86328
0.900014
0.910691
0.906993
0.897316
0.861763
0.823915
-0.430285
-0.417548
-0.368523
-0.290039
-0.19541
-0.090559
0.0219165
0.141584
0.26942
0.406387
0.548984
0.679218