/*--------------------------------*- C++ -*----------------------------------*\
  =========                 |
  \\      /  F ield         | OpenFOAM: The Open Source CFD Toolbox
   \\    /   O peration     | Website:  https://openfoam.org
    \\  /    A nd           | Version:  6
     \\/     M anipulation  |
\*---------------------------------------------------------------------------*/
FoamFile
{
    version     2.0;
    format      ascii;
    class       volScalarField;
    location    "0.004";
    object      p;
}
// * * * * * * * * * * * * * * * * * * * * * * * * * * * * * * * * * * * * * //

dimensions      [1 -1 -2 0 0 0 0];

internalField   nonuniform List<scalar> 
100
(
100000
100000
100000
100000
100000
100000
100000
100000
100000
100000
100000
100000
100000
100000
100000
100000
100000
100000
100000
100000
100000
100000
100000
100000
99999.9
99999.4
99996
99975
99861.6
99362.7
97809.1
94718.6
90353.7
86034
82613.7
79769.2
77021.3
74179.5
71258.9
68347.7
65478.9
62627.7
59835.4
57065.8
54453.9
51939
49556.9
47335.6
45258.2
43450.7
41814.6
40273.7
39042.8
38096.4
37468.4
36945.2
36083.3
36014.9
35299.4
33825.9
35809.3
40188.5
48601.3
30464.4
43289.3
10482.2
11215.4
13100.5
11680.8
10119.1
10012.3
10001.3
10000.1
10000
10000
10000
10000
10000
10000
10000
10000
10000
10000
10000
10000
10000
10000
10000
10000
10000
10000
10000
10000
10000
10000
10000
10000
10000
10000
10000
)
;

boundaryField
{
    sides
    {
        type            zeroGradient;
    }
    empty
    {
        type            empty;
    }
}


// ************************************************************************* //
