/*--------------------------------*- C++ -*----------------------------------*\
  =========                 |
  \\      /  F ield         | OpenFOAM: The Open Source CFD Toolbox
   \\    /   O peration     | Website:  https://openfoam.org
    \\  /    A nd           | Version:  6
     \\/     M anipulation  |
\*---------------------------------------------------------------------------*/
FoamFile
{
    version     2.0;
    format      ascii;
    class       volVectorField;
    location    "0.004";
    object      U;
}
// * * * * * * * * * * * * * * * * * * * * * * * * * * * * * * * * * * * * * //

dimensions      [0 1 -1 0 0 0 0];

internalField   nonuniform List<vector> 
100
(
(-1.1524e-13 0 0)
(8.21265e-13 0 0)
(1.93282e-12 0 0)
(8.8399e-13 0 0)
(-3.50095e-13 0 0)
(-2.69865e-13 0 0)
(-3.3259e-13 0 0)
(5.58694e-13 0 0)
(8.69403e-13 0 0)
(4.23032e-13 0 0)
(6.73933e-13 0 0)
(3.64683e-14 0 0)
(-3.35508e-14 0 0)
(9.71514e-13 0 0)
(1.29827e-13 0 0)
(3.35508e-13 0 0)
(2.61404e-12 0 0)
(2.40107e-11 0 0)
(3.1288e-10 0 0)
(3.75886e-09 0 0)
(4.20428e-08 0 0)
(4.37931e-07 0 0)
(4.23165e-06 0 0)
(3.77475e-05 0 0)
(0.000309084 0 0)
(0.00230739 0 0)
(0.0155648 0 0)
(0.0934765 0 0)
(0.483406 0 0)
(2.00139 0 0)
(6.12926 0 0)
(14.0339 0 0)
(25.0296 0 0)
(36.4573 0 0)
(46.3818 0 0)
(55.2121 0 0)
(64.0506 0 0)
(73.4535 0 0)
(83.4452 0 0)
(93.8432 0 0)
(104.589 0 0)
(115.636 0 0)
(127.114 0 0)
(138.647 0 0)
(150.368 0 0)
(162.097 0 0)
(173.505 0 0)
(184.871 0 0)
(195.808 0 0)
(205.854 0 0)
(215.391 0 0)
(224.272 0 0)
(231.782 0 0)
(237.39 0 0)
(241.565 0 0)
(244.577 0 0)
(245.447 0 0)
(247.017 0 0)
(253.985 0 0)
(269.973 0 0)
(300.136 0 0)
(352.732 0 0)
(459.936 0 0)
(671.434 0 0)
(680.046 0 0)
(49.2263 0 0)
(14.7375 0 0)
(36.8683 0 0)
(30.6193 0 0)
(6.05722 0 0)
(0.491359 0 0)
(0.0523716 0 0)
(0.00560375 0 0)
(0.000594284 0 0)
(6.05122e-05 0 0)
(5.8072e-06 0 0)
(5.21401e-07 0 0)
(4.37294e-08 0 0)
(3.43053e-09 0 0)
(2.53897e-10 0 0)
(1.82837e-11 0 0)
(-1.42956e-13 0 0)
(-7.90633e-13 0 0)
(-5.80575e-13 0 0)
(6.08291e-13 0 0)
(1.06925e-12 0 0)
(-2.64031e-13 0 0)
(-1.13635e-12 0 0)
(-1.40184e-12 0 0)
(-1.39455e-12 0 0)
(-1.1947e-12 0 0)
(-3.93858e-13 0 0)
(-3.66142e-13 0 0)
(-1.0357e-12 0 0)
(-6.40383e-13 0 0)
(0 0 0)
(0 0 0)
(-5.77432e-30 0 0)
(-5.83493e-13 0 0)
(-3.15086e-13 0 0)
)
;

boundaryField
{
    sides
    {
        type            zeroGradient;
    }
    empty
    {
        type            empty;
    }
}


// ************************************************************************* //
