/*--------------------------------*- C++ -*----------------------------------*\
  =========                 |
  \\      /  F ield         | OpenFOAM: The Open Source CFD Toolbox
   \\    /   O peration     | Website:  https://openfoam.org
    \\  /    A nd           | Version:  6
     \\/     M anipulation  |
\*---------------------------------------------------------------------------*/
FoamFile
{
    version     2.0;
    format      ascii;
    class       volVectorField;
    location    "59.9";
    object      U;
}
// * * * * * * * * * * * * * * * * * * * * * * * * * * * * * * * * * * * * * //

dimensions      [0 1 -1 0 0 0 0];

internalField   nonuniform List<vector> 
8800
(
(0.987184 -0.0766667 0)
(1.00189 -0.0551929 0)
(0.999723 -0.0285523 0)
(1.00002 -0.0151492 0)
(1.00007 -0.00855164 0)
(1.00008 -0.00505486 0)
(1.00006 -0.00301025 0)
(1.00002 -0.0017095 0)
(0.999999 -0.000802884 0)
(1.00006 -8.6612e-05 0)
(0.999987 0.000643085 0)
(0.999994 0.00140798 0)
(1.00002 0.00243019 0)
(1.00004 0.00400186 0)
(1.00004 0.00663201 0)
(1.00001 0.01137 0)
(0.999895 0.0208138 0)
(0.999149 0.0386709 0)
(1.0071 0.072457 0)
(0.771213 0.0366611 0)
(0.363058 -0.0160184 0)
(1.0433 -0.0768227 0)
(1.08459 -0.0704584 0)
(1.04518 -0.053558 0)
(1.02326 -0.0389139 0)
(1.01198 -0.0262424 0)
(1.0064 -0.0168875 0)
(1.00358 -0.0103594 0)
(1.00214 -0.00570061 0)
(1.00145 -0.00204312 0)
(1.00131 0.00128036 0)
(1.00168 0.00466364 0)
(1.00266 0.00859875 0)
(1.00465 0.01394 0)
(1.00859 0.0216485 0)
(1.01655 0.0326182 0)
(1.03246 0.0465339 0)
(1.06263 0.0616533 0)
(1.09187 0.0760954 0)
(0.838678 0.0565595 0)
(0.216819 -0.00243101 0)
(1.07587 -0.050151 0)
(1.09986 -0.048333 0)
(1.06461 -0.0404911 0)
(1.03999 -0.0336409 0)
(1.02387 -0.0261298 0)
(1.01409 -0.0185545 0)
(1.00854 -0.0117374 0)
(1.00558 -0.00586901 0)
(1.00433 -0.000450908 0)
(1.00467 0.00479747 0)
(1.0066 0.0101914 0)
(1.0106 0.0162901 0)
(1.01793 0.0233183 0)
(1.03053 0.0307845 0)
(1.05061 0.0378197 0)
(1.08032 0.0445085 0)
(1.10625 0.0513296 0)
(0.942547 0.0416095 0)
(0.216172 0.00246083 0)
(0.175129 -0.000817949 0)
(1.01763 -0.0355061 0)
(1.10516 -0.0414143 0)
(1.07822 -0.0361064 0)
(1.05341 -0.0301821 0)
(1.03615 -0.0246191 0)
(1.02396 -0.0188999 0)
(1.01586 -0.0128244 0)
(1.011 -0.00663911 0)
(1.00881 -0.000303309 0)
(1.00939 0.00595629 0)
(1.01265 0.0119579 0)
(1.01887 0.0178015 0)
(1.02877 0.0233843 0)
(1.04321 0.0286879 0)
(1.06372 0.0341781 0)
(1.09354 0.0401691 0)
(1.09341 0.0419402 0)
(0.827199 0.0229044 0)
(0.174037 0.000851957 0)
(0.153908 -0.00061197 0)
(0.956065 -0.0254853 0)
(1.10339 -0.0351745 0)
(1.08761 -0.0327094 0)
(1.06165 -0.0280679 0)
(1.04404 -0.0230573 0)
(1.03159 -0.0178217 0)
(1.02275 -0.0122981 0)
(1.01695 -0.00636563 0)
(1.01412 0.000102002 0)
(1.01481 0.00656572 0)
(1.01878 0.0124553 0)
(1.0258 0.01776 0)
(1.03611 0.0226847 0)
(1.05068 0.0274497 0)
(1.07191 0.0319925 0)
(1.10007 0.0359362 0)
(1.06811 0.0340064 0)
(0.739627 0.0143039 0)
(0.152263 0.000650551 0)
(0.139514 -0.000468308 0)
(0.899094 -0.019108 0)
(1.09568 -0.0301356 0)
(1.09566 -0.0292603 0)
(1.06916 -0.0255438 0)
(1.05073 -0.021421 0)
(1.03781 -0.0166617 0)
(1.02872 -0.0113839 0)
(1.02262 -0.00564628 0)
(1.0195 0.000679859 0)
(1.02014 0.00699727 0)
(1.02424 0.012638 0)
(1.03138 0.0176149 0)
(1.04191 0.0220901 0)
(1.05704 0.0260636 0)
(1.07924 0.0295404 0)
(1.10229 0.032176 0)
(1.03605 0.02809 0)
(0.673103 0.0102004 0)
(0.137192 0.000512834 0)
(0.128948 -0.000363076 0)
(0.849422 -0.0147504 0)
(1.08324 -0.026014 0)
(1.10131 -0.0263253 0)
(1.07599 -0.0230553 0)
(1.05703 -0.0194271 0)
(1.04366 -0.0151966 0)
(1.03421 -0.0102894 0)
(1.02787 -0.00476765 0)
(1.02458 0.00137672 0)
(1.02507 0.00747866 0)
(1.02913 0.0128456 0)
(1.03639 0.0174161 0)
(1.04721 0.0212869 0)
(1.06273 0.0245972 0)
(1.08537 0.027559 0)
(1.10141 0.0293285 0)
(1.00117 0.0235701 0)
(0.621315 0.00783542 0)
(0.125802 0.000415476 0)
(0.120879 -0.000282598 0)
(0.807185 -0.0115975 0)
(1.0679 -0.0224159 0)
(1.10481 -0.0237069 0)
(1.08222 -0.0208536 0)
(1.06284 -0.0174449 0)
(1.0492 -0.0135278 0)
(1.03947 -0.00895851 0)
(1.03286 -0.00370957 0)
(1.02932 0.00221432 0)
(1.02965 0.00806857 0)
(1.03365 0.0130882 0)
(1.04098 0.0171916 0)
(1.05191 0.0205568 0)
(1.06766 0.0234601 0)
(1.09063 0.026128 0)
(1.09765 0.0270041 0)
(0.96595 0.0200251 0)
(0.579712 0.00630005 0)
(0.116732 0.000344953 0)
(0.114617 -0.000219576 0)
(0.771608 -0.00924003 0)
(1.05106 -0.0192492 0)
(1.10715 -0.0212855 0)
(1.08806 -0.0188071 0)
(1.0683 -0.0155444 0)
(1.05441 -0.0117902 0)
(1.0445 -0.00743952 0)
(1.03764 -0.00244119 0)
(1.03383 0.00322839 0)
(1.03394 0.00878486 0)
(1.03782 0.0134278 0)
(1.04509 0.0171127 0)
(1.05602 0.0200898 0)
(1.07196 0.0226719 0)
(1.0946 0.0250034 0)
(1.09107 0.0250708 0)
(0.931692 0.0172873 0)
(0.545283 0.00525128 0)
(0.109254 0.000294182 0)
(0.109727 -0.000168935 0)
(0.741748 -0.00741143 0)
(1.03377 -0.0164451 0)
(1.10854 -0.0190062 0)
(1.09361 -0.0168342 0)
(1.07356 -0.0136644 0)
(1.05941 -0.0100085 0)
(1.04931 -0.00578373 0)
(1.04223 -0.000960456 0)
(1.03814 0.0044539 0)
(1.03797 0.0096814 0)
(1.04162 0.0139645 0)
(1.04875 0.0172916 0)
(1.05967 0.0199211 0)
(1.07581 0.0222133 0)
(1.09731 0.0241803 0)
(1.08206 0.0234811 0)
(0.898963 0.0152059 0)
(0.51598 0.00451966 0)
(0.102888 0.000258462 0)
(0.105927 -0.000126874 0)
(0.716785 -0.00593706 0)
(1.01687 -0.0139291 0)
(1.10909 -0.0168068 0)
(1.09905 -0.0149199 0)
(1.07874 -0.0117694 0)
(1.0643 -0.00814633 0)
(1.05398 -0.00398833 0)
(1.04666 0.000708509 0)
(1.04224 0.00592335 0)
(1.04172 0.0108658 0)
(1.04508 0.0148044 0)
(1.05202 0.0177773 0)
(1.06289 0.0200733 0)
(1.0792 0.0221026 0)
(1.09868 0.0236683 0)
(1.07101 0.0222312 0)
(0.867876 0.0136637 0)
(0.490353 0.00401498 0)
(0.097292 0.000234844 0)
(0.103027 -9.04618e-05 0)
(0.696076 -0.00470143 0)
(1.00096 -0.0116358 0)
(1.10895 -0.0146445 0)
(1.10432 -0.0129451 0)
(1.08392 -0.00975567 0)
(1.06916 -0.00611371 0)
(1.05857 -0.00197702 0)
(1.05095 0.00264917 0)
(1.04615 0.00769369 0)
(1.04519 0.0123573 0)
(1.04818 0.0159715 0)
(1.0549 0.0186083 0)
(1.06572 0.0205586 0)
(1.08215 0.0223372 0)
(1.09907 0.0235004 0)
(1.05819 0.0213335 0)
(0.838276 0.0125735 0)
(0.467316 0.00368261 0)
(0.0922098 0.000220908 0)
(0.100908 -5.70054e-05 0)
(0.67915 -0.00361694 0)
(0.986491 -0.00949361 0)
(1.10834 -0.0124451 0)
(1.10942 -0.0108707 0)
(1.08917 -0.00763335 0)
(1.07407 -0.00391322 0)
(1.06317 0.000285007 0)
(1.05518 0.00490069 0)
(1.04989 0.00982709 0)
(1.04841 0.0142508 0)
(1.05097 0.0175488 0)
(1.05742 0.0198596 0)
(1.06814 0.0214837 0)
(1.08462 0.0229763 0)
(1.09846 0.0237206 0)
(1.04378 0.0208003 0)
(0.809843 0.0118616 0)
(0.446024 0.00348361 0)
(0.087439 0.000214656 0)
(0.0995089 -2.41579e-05 0)
(0.665706 -0.00261344 0)
(0.973826 -0.00742497 0)
(1.10755 -0.0101325 0)
(1.11444 -0.00859806 0)
(1.09456 -0.00526634 0)
(1.07909 -0.00140688 0)
(1.06782 0.0028945 0)
(1.05937 0.00755395 0)
(1.0535 0.0124181 0)
(1.05137 0.016631 0)
(1.0534 0.0196149 0)
(1.05954 0.0215642 0)
(1.07013 0.0228146 0)
(1.08661 0.0240498 0)
(1.09662 0.0243458 0)
(1.02784 0.0206113 0)
(0.782164 0.0114715 0)
(0.425787 0.00339268 0)
(0.0828189 0.000214633 0)
(0.0988131 1.00729e-05 0)
(0.655589 -0.00163774 0)
(0.963276 -0.00536319 0)
(1.10695 -0.00766241 0)
(1.11956 -0.00606575 0)
(1.1002 -0.00257803 0)
(1.0843 0.00148236 0)
(1.07258 0.00596381 0)
(1.06358 0.0107327 0)
(1.057 0.0155573 0)
(1.0541 0.0195536 0)
(1.05549 0.02222 0)
(1.06123 0.0238193 0)
(1.07169 0.0246882 0)
(1.08809 0.02562 0)
(1.09349 0.0254196 0)
(1.01035 0.0208045 0)
(0.754778 0.0113765 0)
(0.406034 0.00339555 0)
(0.0782166 0.000220275 0)
(0.0988415 4.339e-05 0)
(0.648776 -0.000640755 0)
(0.955135 -0.00322883 0)
(1.10683 -0.0049571 0)
(1.1249 -0.00321402 0)
(1.10615 0.000476238 0)
(1.0898 0.00481858 0)
(1.07754 0.00956129 0)
(1.06785 0.0145079 0)
(1.0604 0.019367 0)
(1.05658 0.0231897 0)
(1.05723 0.0255246 0)
(1.0625 0.0267246 0)
(1.07279 0.0271947 0)
(1.0888 0.027758 0)
(1.08889 0.0269429 0)
(0.991173 0.0213979 0)
(0.727174 0.011557 0)
(0.386245 0.00348346 0)
(0.0735118 0.000230865 0)
(0.0996325 8.30345e-05 0)
(0.645344 0.000392772 0)
(0.949732 -0.000949412 0)
(1.10758 -0.00192328 0)
(1.13067 0.00011571 0)
(1.11254 0.00411436 0)
(1.09569 0.00880745 0)
(1.08278 0.013868 0)
(1.07227 0.0190564 0)
(1.06376 0.0239809 0)
(1.05883 0.0276177 0)
(1.05858 0.029595 0)
(1.06328 0.0303856 0)
(1.07335 0.0304216 0)
(1.08861 0.030566 0)
(1.08258 0.0290065 0)
(0.970061 0.0224288 0)
(0.698791 0.0120056 0)
(0.365933 0.00365007 0)
(0.0685974 0.00024593 0)
(0.101396 0.000143425 0)
(0.645688 0.00154885 0)
(0.947422 0.00155485 0)
(1.10963 0.0015205 0)
(1.13709 0.00398046 0)
(1.11951 0.00839428 0)
(1.10206 0.0135495 0)
(1.08837 0.0190477 0)
(1.07686 0.0245579 0)
(1.06707 0.0295766 0)
(1.0608 0.0330169 0)
(1.05947 0.0345863 0)
(1.06352 0.0349433 0)
(1.07332 0.0345128 0)
(1.08732 0.0341625 0)
(1.07428 0.0316976 0)
(0.946649 0.0239321 0)
(0.669029 0.012719 0)
(0.344637 0.00389068 0)
(0.0633759 0.000264868 0)
(0.104179 0.000204226 0)
(0.650158 0.00295995 0)
(0.948645 0.00443729 0)
(1.11344 0.00553677 0)
(1.14435 0.00855263 0)
(1.12722 0.0135053 0)
(1.10908 0.0192373 0)
(1.09444 0.0252731 0)
(1.08166 0.0311897 0)
(1.07033 0.0363727 0)
(1.06245 0.0396341 0)
(1.05989 0.040721 0)
(1.06313 0.0405619 0)
(1.07261 0.0395953 0)
(1.0847 0.0387069 0)
(1.06367 0.03511 0)
(0.920459 0.0259462 0)
(0.637237 0.013694 0)
(0.321914 0.00419838 0)
(0.057763 0.000286751 0)
(0.108266 0.000286089 0)
(0.659283 0.00463101 0)
(0.953909 0.00784024 0)
(1.11954 0.0102847 0)
(1.15277 0.014073 0)
(1.13585 0.0197608 0)
(1.11688 0.026203 0)
(1.10105 0.0328793 0)
(1.08674 0.0392681 0)
(1.07352 0.0445828 0)
(1.06375 0.047557 0)
(1.05976 0.0481132 0)
(1.06204 0.04739 0)
(1.07112 0.0458279 0)
(1.08084 0.0443089 0)
(1.05029 0.039347 0)
(0.890858 0.0285067 0)
(0.602709 0.0149192 0)
(0.297337 0.00456271 0)
(0.0516896 0.000310247 0)
(0.113999 0.000397258 0)
(0.673834 0.00672534 0)
(0.963887 0.0119704 0)
(1.1285 0.0159816 0)
(1.16271 0.0207496 0)
(1.1457 0.0273963 0)
(1.12566 0.0347239 0)
(1.10834 0.0421901 0)
(1.09211 0.0491065 0)
(1.07658 0.0545149 0)
(1.0646 0.0570797 0)
(1.05894 0.056949 0)
(1.06018 0.0556042 0)
(1.06876 0.0533776 0)
(1.07549 0.0511156 0)
(1.03356 0.0444921 0)
(0.857103 0.0316148 0)
(0.56472 0.0163626 0)
(0.270543 0.004963 0)
(0.0451191 0.000333024 0)
(0.121893 0.000552306 0)
(0.694751 0.00946698 0)
(0.979436 0.01714 0)
(1.14095 0.0229865 0)
(1.17459 0.0289925 0)
(1.15704 0.0368813 0)
(1.13561 0.0452803 0)
(1.11637 0.0536391 0)
(1.09775 0.0610929 0)
(1.07947 0.0665145 0)
(1.06488 0.0685044 0)
(1.05728 0.0675075 0)
(1.05738 0.0653752 0)
(1.06549 0.0623817 0)
(1.06832 0.0592465 0)
(1.01275 0.050614 0)
(0.818305 0.0352553 0)
(0.522549 0.0179686 0)
(0.24126 0.00537021 0)
(0.038057 0.00035233 0)
(0.132679 0.000776819 0)
(0.723333 0.0132341 0)
(1.00172 0.0238044 0)
(1.15772 0.0318443 0)
(1.18904 0.0394449 0)
(1.17024 0.0489607 0)
(1.14688 0.0586033 0)
(1.12511 0.0678865 0)
(1.10348 0.075762 0)
(1.0819 0.0809202 0)
(1.06439 0.0820225 0)
(1.05468 0.0799624 0)
(1.05357 0.0768785 0)
(1.06097 0.0729733 0)
(1.05867 0.0687673 0)
(0.986895 0.0577315 0)
(0.773469 0.0393368 0)
(0.475564 0.0196303 0)
(0.209399 0.0057382 0)
(0.0305709 0.00036424 0)
(0.14761 0.00113024 0)
(0.761573 0.0186578 0)
(1.0324 0.0327482 0)
(1.17977 0.043467 0)
(1.20687 0.0531311 0)
(1.18559 0.0646085 0)
(1.1595 0.0756115 0)
(1.13441 0.0857214 0)
(1.10906 0.0936799 0)
(1.08363 0.098094 0)
(1.06289 0.0978475 0)
(1.05097 0.0944031 0)
(1.04857 0.0902209 0)
(1.05484 0.0854242 0)
(1.04589 0.0796857 0)
(0.954791 0.0657326 0)
(0.721609 0.0436597 0)
(0.423395 0.0211819 0)
(0.175166 0.0060037 0)
(0.0228153 0.000363982 0)
(0.16885 0.00174156 0)
(0.812672 0.0268633 0)
(1.07398 0.0454986 0)
(1.20817 0.0596916 0)
(1.22869 0.0721413 0)
(1.20322 0.0854186 0)
(1.17325 0.097611 0)
(1.14384 0.108058 0)
(1.11402 0.115447 0)
(1.08428 0.118414 0)
(1.06008 0.116213 0)
(1.04592 0.111006 0)
(1.04228 0.105509 0)
(1.04708 0.0997518 0)
(1.02901 0.0919994 0)
(0.914984 0.0743429 0)
(0.661938 0.0479148 0)
(0.366234 0.022402 0)
(0.139237 0.00609376 0)
(0.0150537 0.000346511 0)
(0.199716 0.0030812 0)
(0.882327 0.0404249 0)
(1.13017 0.065825 0)
(1.24336 0.084151 0)
(1.25417 0.0992952 0)
(1.22246 0.113851 0)
(1.18726 0.126279 0)
(1.15256 0.135908 0)
(1.11767 0.141588 0)
(1.08331 0.142072 0)
(1.05561 0.137169 0)
(1.03929 0.12977 0)
(1.03452 0.1227 0)
(1.03734 0.115778 0)
(1.00671 0.105478 0)
(0.865739 0.0830193 0)
(0.594376 0.051588 0)
(0.305548 0.0230788 0)
(0.10317 0.00595727 0)
(0.00774501 0.000304559 0)
(0.241855 0.00920776 7.35277e-21)
(0.974524 0.0672174 6.33941e-21)
(1.19864 0.100201 -2.23378e-21)
(1.28223 0.120567 0)
(1.28052 0.138169 -5.91204e-35)
(1.24114 0.152204 8.70287e-22)
(1.19993 0.163085 -1.60632e-21)
(1.15945 0.170494 0)
(1.11911 0.173391 3.38352e-35)
(1.07982 0.170593 -2.06642e-21)
(1.04842 0.162453 0)
(1.02979 0.152612 -2.48981e-21)
(1.02397 0.144028 -7.37042e-21)
(1.02426 0.136542 -3.4951e-21)
(0.975408 0.122712 -1.05633e-21)
(0.801647 0.093337 -6.28619e-22)
(0.513626 0.0551575 0)
(0.239715 0.0235773 4.40944e-22)
(0.0671365 0.00589112 5.22272e-22)
(0.000902799 0.000250344 9.52541e-21)
(0.271076 0.0242147 4.81489e-21)
(1.05082 0.109519 1.08526e-22)
(1.25516 0.149173 5.69717e-22)
(1.31698 0.169489 0)
(1.30357 0.18736 -2.91997e-21)
(1.25703 0.199249 -3.36495e-21)
(1.20988 0.207825 -1.60042e-21)
(1.16356 0.212733 -5.82192e-21)
(1.11758 0.212844 0)
(1.07291 0.206858 8.77377e-21)
(1.03718 0.195535 8.76791e-21)
(1.0158 0.183216 2.62001e-21)
(1.00781 0.172663 9.62048e-21)
(1.00054 0.162415 1.35884e-20)
(0.926977 0.143051 0)
(0.716114 0.104937 1.92388e-20)
(0.419474 0.059233 2.76414e-20)
(0.171231 0.0237051 3.07728e-20)
(0.0316509 0.0047323 -3.5308e-20)
(-0.00588435 -0.000398323 -6.72443e-22)
(0.272518 0.0408246 0)
(1.09932 0.164282 6.94163e-22)
(1.29331 0.209086 0)
(1.34395 0.229117 -3.42942e-21)
(1.32156 0.244312 0)
(1.26905 0.252326 -6.45957e-21)
(1.21631 0.25718 3.23732e-21)
(1.16437 0.258505 -1.15826e-20)
(1.11294 0.255009 -3.17591e-22)
(1.0631 0.245196 4.51795e-21)
(1.02329 0.230317 1.93588e-20)
(0.999256 0.215345 -4.899e-23)
(0.988868 0.20261 -7.00699e-21)
(0.974286 0.189253 -1.28369e-20)
(0.883378 0.164014 1.52338e-20)
(0.655811 0.116771 -2.70278e-20)
(0.366091 0.0632852 -3.57916e-21)
(0.137496 0.02374 0)
(0.0150214 0.00308448 -2.30233e-24)
(-0.00927749 -0.00125081 0)
(0.266153 0.0548216 5.5309e-21)
(1.12557 0.222719 -3.22262e-21)
(1.31682 0.273537 -3.1657e-21)
(1.3617 0.294092 1.5244e-21)
(1.33308 0.305655 -2.6109e-21)
(1.2761 0.309169 1.34635e-20)
(1.21871 0.309615 6.7217e-21)
(1.16194 0.306699 0)
(1.10566 0.299018 -2.23323e-20)
(1.05113 0.284958 0)
(1.00745 0.266239 -1.01385e-20)
(0.980764 0.248393 -1.26515e-20)
(0.967938 0.233389 -7.65031e-21)
(0.947487 0.216636 -9.34459e-21)
(0.847347 0.185616 0)
(0.617335 0.130412 0)
(0.339474 0.0700844 -2.33793e-20)
(0.123319 0.0254329 4.63093e-21)
(0.00772169 0.00175236 -2.71403e-21)
(-0.0112626 -0.0021677 -3.21496e-21)
(0.25861 0.0671638 5.69824e-22)
(1.13717 0.281112 0)
(1.32972 0.33902 5.05586e-21)
(1.37127 0.360567 3.96182e-21)
(1.33827 0.36849 6.27899e-21)
(1.27802 0.367505 0)
(1.21703 0.363423 6.43069e-21)
(1.15627 0.356077 1.27435e-20)
(1.09578 0.343993 1.13541e-20)
(1.037 0.32548 2.14063e-20)
(0.989688 0.302692 0)
(0.960431 0.281842 -2.73316e-20)
(0.945243 0.264479 -1.65601e-20)
(0.9205 0.244519 -9.82067e-21)
(0.817016 0.208474 6.05765e-20)
(0.592947 0.146211 7.23462e-21)
(0.328296 0.0795769 3.40424e-20)
(0.121772 0.0288861 -1.61236e-19)
(0.00711778 0.00132906 9.55523e-20)
(-0.0119696 -0.00294813 -1.16629e-19)
(0.251421 0.0782732 3.78097e-21)
(1.1395 0.337576 -2.06853e-22)
(1.33501 0.403683 -1.94512e-22)
(1.37433 0.426592 -2.89854e-21)
(1.33811 0.431053 -4.64949e-21)
(1.27538 0.425748 3.63666e-22)
(1.21153 0.417301 -6.99826e-21)
(1.14748 0.405623 1.3094e-20)
(1.0834 0.389154 -2.44846e-20)
(1.02084 0.366136 0)
(0.970205 0.339374 -1.23252e-20)
(0.938437 0.315562 -3.23924e-22)
(0.920893 0.295775 -1.8184e-20)
(0.893153 0.272919 0)
(0.790394 0.232164 -1.31583e-20)
(0.576413 0.164058 -3.13829e-20)
(0.326089 0.0914054 8.38699e-20)
(0.126737 0.0343445 -8.26399e-20)
(0.0114149 0.00234404 1.17568e-19)
(-0.0113094 -0.0033701 -1.23719e-19)
(0.245395 0.0885559 -1.04755e-22)
(1.13609 0.391458 1.12875e-21)
(1.33481 0.466504 1.29712e-21)
(1.37229 0.490998 6.34777e-22)
(1.33365 0.492317 -2.24523e-21)
(1.26902 0.482961 0)
(1.20288 0.470404 -6.2489e-21)
(1.13609 0.454604 -1.36549e-20)
(1.0689 0.43391 -1.26643e-20)
(1.00295 0.406532 0)
(0.949254 0.375931 -1.27495e-20)
(0.915035 0.349085 -1.59757e-20)
(0.895276 0.326926 1.97808e-20)
(0.865285 0.301285 -1.20713e-20)
(0.765412 0.256295 -5.77059e-20)
(0.562892 0.183274 3.44275e-20)
(0.326997 0.104631 1.02643e-20)
(0.134591 0.041503 0)
(0.0183822 0.00480493 -1.14154e-19)
(-0.00972605 -0.00338983 -4.24514e-21)
(0.240659 0.0983435 1.21823e-21)
(1.12924 0.442603 -1.78092e-21)
(1.33061 0.526935 -9.7059e-22)
(1.36638 0.553094 3.04702e-21)
(1.32586 0.551631 -7.27865e-21)
(1.25978 0.538571 1.12754e-20)
(1.19178 0.522213 1.35064e-20)
(1.12263 0.502559 -2.18157e-20)
(1.05267 0.477867 8.03128e-21)
(0.983645 0.446341 -5.27874e-20)
(0.927076 0.411874 -1.45402e-20)
(0.890615 0.382067 0)
(0.868861 0.357656 2.15193e-20)
(0.837158 0.32949 2.59164e-20)
(0.740637 0.28047 3.11313e-20)
(0.549514 0.203136 -3.75339e-20)
(0.327581 0.118658 -1.11403e-20)
(0.142332 0.0500267 1.30707e-20)
(0.0261457 0.0083848 0)
(-0.00765235 -0.00304414 -9.25066e-21)
(0.237098 0.107738 -1.77882e-20)
(1.12058 0.491081 9.99831e-21)
(1.32369 0.584944 1.38978e-21)
(1.35759 0.612527 1.1026e-21)
(1.31554 0.608602 -2.65289e-21)
(1.24835 0.592194 -8.24812e-22)
(1.1788 0.572397 -1.48813e-20)
(1.10761 0.549196 -7.92837e-21)
(1.03517 0.520767 -2.20964e-20)
(0.963315 0.485275 6.31366e-23)
(0.904029 0.447016 -4.54387e-20)
(0.86549 0.414435 3.88739e-20)
(0.84193 0.387928 -2.37558e-20)
(0.808686 0.357203 2.87033e-20)
(0.714991 0.304519 0)
(0.534802 0.222955 -2.04558e-20)
(0.325539 0.133011 2.44206e-23)
(0.148211 0.0591199 -5.72743e-20)
(0.0331937 0.0125798 -8.43254e-21)
(-0.00547666 -0.00244626 0)
(0.234605 0.116964 0)
(1.11107 0.537102 1.14396e-20)
(1.31482 0.640559 5.31747e-21)
(1.3467 0.669124 -2.16361e-22)
(1.30337 0.663016 -4.17664e-21)
(1.23532 0.643618 0)
(1.16449 0.620735 -6.36882e-21)
(1.09151 0.594309 -2.15229e-22)
(1.01682 0.562437 4.7419e-20)
(0.942265 0.52317 -7.21468e-21)
(0.880394 0.481342 -3.28881e-20)
(0.839937 0.446145 2.0157e-20)
(0.814675 0.417426 -4.47812e-22)
(0.780022 0.384067 3.05409e-20)
(0.688472 0.327655 1.89406e-20)
(0.518243 0.241659 -4.42212e-20)
(0.320225 0.146799 5.24904e-20)
(0.15082 0.0678406 1.55744e-20)
(0.0382615 0.0167049 6.44007e-20)
(-0.00359919 -0.00177221 -1.74176e-19)
(0.233102 0.12615 -5.72522e-21)
(1.10138 0.580854 7.77656e-21)
(1.30461 0.693381 -5.34142e-21)
(1.33436 0.722835 -1.42715e-21)
(1.28991 0.71477 0)
(1.2212 0.692711 -4.30076e-21)
(1.14928 0.667084 2.18259e-20)
(1.07472 0.63777 1.72304e-20)
(0.997931 0.602759 0)
(0.920782 0.559962 -1.046e-19)
(0.856433 0.514818 8.91932e-20)
(0.814109 0.476922 0)
(0.787228 0.445753 2.78751e-20)
(0.751287 0.409686 -4.48723e-22)
(0.661334 0.349231 -6.06591e-20)
(0.499415 0.258625 2.37728e-20)
(0.311759 0.159066 0)
(0.149694 0.0753673 8.41837e-20)
(0.0407355 0.0200914 0)
(-0.00226364 -0.00120136 -8.26075e-20)
(0.232404 0.135337 6.81228e-21)
(1.09189 0.622506 9.95785e-21)
(1.29348 0.743443 -5.35585e-21)
(1.32108 0.773669 0)
(1.27563 0.763845 -2.27839e-21)
(1.20639 0.739428 0)
(1.13354 0.71137 -2.08534e-20)
(1.05755 0.679497 -7.69667e-21)
(0.978804 0.641679 8.24255e-21)
(0.899137 0.595652 -5.17933e-20)
(0.832312 0.547341 9.1716e-21)
(0.788115 0.506512 0)
(0.759745 0.472797 -5.9563e-20)
(0.722452 0.43386 4.41086e-22)
(0.633449 0.368971 0)
(0.478573 0.273345 2.72171e-22)
(0.300123 0.169064 7.69131e-20)
(0.14538 0.0808923 -7.28298e-20)
(0.0406514 0.022242 2.15592e-20)
(-0.00155106 -0.000861244 0)
(0.232173 0.144425 0)
(1.08279 0.662143 1.19324e-20)
(1.28185 0.79084 7.63203e-21)
(1.30724 0.821692 -5.07491e-22)
(1.26088 0.810263 2.42144e-22)
(1.19122 0.78376 -9.55071e-21)
(1.11758 0.753571 7.99707e-21)
(1.0403 0.719454 -9.35564e-21)
(0.959694 0.679162 3.71571e-20)
(0.877536 0.630248 -8.28274e-20)
(0.808151 0.578805 -7.97054e-22)
(0.762045 0.53492 -2.59041e-20)
(0.732275 0.498649 9.68385e-20)
(0.693508 0.456414 -5.20744e-22)
(0.60495 0.386531 -4.72129e-20)
(0.455863 0.285413 -8.42756e-20)
(0.285728 0.176447 0)
(0.138163 0.0841884 0)
(0.0385925 0.0230329 2.32867e-20)
(-0.00137668 -0.000798215 -1.38334e-20)
(0.232508 0.153523 9.4892e-21)
(1.07426 0.699671 -2.70708e-20)
(1.26999 0.835659 -8.21889e-21)
(1.29316 0.866983 0)
(1.24596 0.854074 -3.14153e-22)
(1.17596 0.825732 -7.46509e-21)
(1.10165 0.793695 1.84763e-20)
(1.02319 0.757636 3.60003e-20)
(0.940807 0.715203 4.80418e-20)
(0.85617 0.663747 -6.75167e-20)
(0.78408 0.609228 -7.68815e-20)
(0.735957 0.562349 6.9334e-20)
(0.704759 0.523346 0)
(0.664327 0.47707 -2.14383e-20)
(0.575785 0.401506 -5.11185e-20)
(0.431241 0.29451 -6.06176e-20)
(0.269008 0.180917 -7.18259e-20)
(0.128446 0.0851287 2.1276e-20)
(0.0348926 0.0226234 -1.25465e-20)
(-0.00155395 -0.000940453 5.88562e-23)
(0.233143 0.162437 0)
(1.06636 0.735591 0)
(1.25809 0.877992 5.22648e-22)
(1.27903 0.909643 0)
(1.23108 0.895363 -3.77624e-21)
(1.16082 0.865402 3.95974e-21)
(1.08594 0.831769 0)
(1.00641 0.794055 4.11463e-21)
(0.922332 0.749805 7.98e-20)
(0.835204 0.696147 -1.55436e-19)
(0.760227 0.638731 0)
(0.709899 0.589018 -4.4684e-20)
(0.677051 0.54678 -6.13733e-22)
(0.63479 0.495583 -4.79029e-22)
(0.546036 0.413634 5.47012e-20)
(0.405496 0.300474 -3.04101e-23)
(0.250405 0.182404 -1.54773e-19)
(0.116868 0.0837661 4.57821e-20)
(0.0299896 0.0210473 1.3581e-20)
(-0.00196 -0.00124483 0)
(0.233868 0.171213 -3.7924e-20)
(1.05884 0.769861 -1.81661e-20)
(1.24623 0.9179 -2.39369e-20)
(1.26503 0.949769 2.45617e-20)
(1.21644 0.934198 -9.95111e-21)
(1.14598 0.90283 0)
(1.07062 0.867837 1.04805e-20)
(0.990122 0.828734 -9.30631e-21)
(0.904423 0.782984 7.89841e-22)
(0.814791 0.727462 1.15242e-20)
(0.736735 0.667479 9.96056e-20)
(0.683899 0.615055 -1.56579e-20)
(0.64903 0.568871 -5.98462e-20)
(0.604757 0.511835 -2.50384e-20)
(0.515702 0.422689 2.975e-20)
(0.379075 0.303139 6.9779e-24)
(0.230545 0.180823 4.17128e-20)
(0.104266 0.0802501 -9.85557e-20)
(0.0246463 0.0185972 1.16919e-19)
(-0.0024682 -0.00165502 1.7262e-20)
(0.234396 0.179765 1.44038e-20)
(1.05171 0.802569 -1.02443e-20)
(1.23455 0.955493 1.28931e-21)
(1.2513 0.987454 1.55929e-20)
(1.20214 0.970689 3.5205e-21)
(1.13156 0.938092 -5.73121e-21)
(1.0558 0.901949 2.63372e-21)
(0.974431 0.861691 -3.84902e-20)
(0.887207 0.814734 -8.73654e-20)
(0.795066 0.757701 -9.24604e-20)
(0.713764 0.695614 0)
(0.658002 0.640507 -6.90411e-20)
(0.620606 0.589696 8.64294e-20)
(0.57399 0.525818 0)
(0.484713 0.428298 -6.37589e-20)
(0.352462 0.30206 3.80333e-20)
(0.210681 0.176004 -4.48713e-20)
(0.0919402 0.0749413 -5.3055e-20)
(0.0195479 0.015669 -9.42078e-20)
(-0.00296383 -0.00209413 -7.43839e-20)
(0.235274 0.188179 -1.63222e-20)
(1.04482 0.833697 1.09736e-20)
(1.2231 0.990832 2.50674e-20)
(1.23794 1.02279 2.26903e-20)
(1.1883 1.00493 -6.71274e-21)
(1.11764 0.971274 -1.59859e-21)
(1.04158 0.934157 9.08838e-21)
(0.959432 0.892966 -3.90173e-20)
(0.870771 0.845074 -5.16046e-20)
(0.77616 0.786896 9.6525e-20)
(0.691446 0.72321 2.18972e-19)
(0.632281 0.665422 0)
(0.591735 0.609535 0)
(0.542128 0.537641 -2.88779e-20)
(0.452695 0.43001 0)
(0.325836 0.296377 8.18114e-20)
(0.192126 0.167195 9.65306e-20)
(0.0818807 0.0678544 0)
(0.0159214 0.0126649 0)
(-0.00333553 -0.00248609 7.99688e-20)
(0.2358 0.196126 1.85773e-20)
(1.03819 0.86323 1.47422e-20)
(1.21197 1.02403 1.82579e-20)
(1.225 1.05589 -2.18026e-20)
(1.17497 1.03704 -8.6986e-21)
(1.10429 1.00245 -4.76403e-22)
(1.02801 0.964518 -1.21014e-20)
(0.945188 0.922586 -5.94589e-23)
(0.855195 0.874008 -1.03075e-21)
(0.758175 0.815059 -9.91161e-22)
(0.669924 0.750289 1.1284e-19)
(0.606847 0.68988 0)
(0.562429 0.628788 8.77905e-20)
(0.508757 0.54754 6.1679e-20)
(0.418902 0.427665 1.49149e-19)
(0.298665 0.284794 4.41135e-20)
(0.176226 0.151862 -5.19878e-20)
(0.0783447 0.0561537 -3.0601e-20)
(0.0191698 0.00840547 0)
(-0.00222971 -0.00251845 8.59599e-20)
(0.236668 0.20409 -4.20798e-20)
(1.03179 0.891321 0)
(1.20114 1.05512 2.15039e-20)
(1.2125 1.08686 -1.85147e-20)
(1.1622 1.0671 1.16605e-20)
(1.09155 1.03171 4.26714e-21)
(1.01514 0.993088 2.14446e-20)
(0.931739 0.950584 -3.36236e-21)
(0.840524 0.901542 0)
(0.741198 0.842174 -1.06064e-19)
(0.649336 0.776831 -2.45051e-19)
(0.581852 0.714027 1.01778e-20)
(0.53277 0.647839 1.2132e-19)
(0.473592 0.555937 0)
(0.382265 0.421894 1.00825e-19)
(0.268615 0.266313 0)
(0.161174 0.124307 0)
(0.0866997 0.0251092 -3.31183e-20)
(0.0538101 -0.0110701 0)
(0.0269942 0.0065609 2.30433e-20)
(0.237089 0.211473 -4.70745e-20)
(1.02559 0.918155 0)
(1.1906 1.08432 3.586e-20)
(1.20041 1.11593 0)
(1.14996 1.09538 -7.04849e-21)
(1.07935 1.05935 0)
(1.00291 1.02018 7.20203e-22)
(0.918991 0.977297 5.27522e-21)
(0.826637 0.928045 6.46753e-21)
(0.725059 0.868628 -1.16112e-19)
(0.629496 0.803253 7.30339e-21)
(0.557035 0.738565 8.23638e-20)
(0.502311 0.667457 1.18563e-19)
(0.435745 0.563479 1.60657e-20)
(0.341046 0.414461 7.91734e-20)
(0.230858 0.242013 0)
(0.135695 0.0807912 1.09753e-19)
(0.0750838 -0.0169681 -6.44872e-20)
(0.0325617 0.057694 7.52808e-20)
(-0.0381723 0.454777 -8.94467e-20)
(0.237451 0.21869 3.9046e-20)
(1.01936 0.943626 5.91254e-20)
(1.18028 1.11195 0)
(1.18857 1.14354 1.06078e-21)
(1.13805 1.12247 2.07011e-20)
(1.06744 1.08604 -1.59081e-20)
(0.990991 1.04659 6.20385e-21)
(0.906531 1.00367 0)
(0.813001 0.954624 4.18972e-20)
(0.709078 0.89574 -5.95145e-21)
(0.609485 0.831054 0)
(0.531123 0.765294 0)
(0.469084 0.689078 1.06183e-19)
(0.392842 0.570658 -4.97396e-20)
(0.292231 0.407503 -8.02433e-20)
(0.181378 0.215214 0)
(0.0773432 0.09215 5.58244e-20)
(0.00683838 0.465465 -6.49448e-20)
(0.0317497 1.92339 -3.64357e-20)
(0.0584505 2.82303 -4.46658e-20)
(0.23743 0.225333 -2.94484e-20)
(1.01316 0.967904 -7.61042e-20)
(1.1702 1.13801 2.14202e-20)
(1.177 1.16957 1.79813e-20)
(1.12653 1.14817 0)
(1.05589 1.11152 -1.3452e-20)
(0.979605 1.07201 6.59303e-21)
(0.894553 1.02928 -2.44038e-21)
(0.799897 0.980762 6.28449e-21)
(0.693641 0.922899 1.09903e-19)
(0.58992 0.859551 1.23393e-19)
(0.505079 0.794047 9.20226e-20)
(0.433903 0.712522 1.06871e-19)
(0.346469 0.576553 -1.16887e-19)
(0.242296 0.404763 -1.21214e-19)
(0.118931 0.263506 0)
(0.0412547 0.876661 0)
(0.0890249 2.57828 3.08835e-20)
(0.0916054 3.2103 0)
(0.0927277 3.38889 8.04218e-20)
(0.240193 0.231505 0)
(1.00726 0.99136 0)
(1.16006 1.16233 0)
(1.16547 1.19387 5.39978e-21)
(1.11508 1.17225 1.9108e-20)
(1.04452 1.13564 -1.26724e-20)
(0.968674 1.09635 3.48543e-21)
(0.882988 1.05399 -2.31384e-21)
(0.787264 1.00629 5.1032e-20)
(0.678738 0.949939 -1.88784e-21)
(0.570887 0.888542 2.42838e-19)
(0.479274 0.824914 -1.06633e-20)
(0.396695 0.738203 1.29257e-20)
(0.298966 0.579482 1.69407e-20)
(0.181963 0.422973 -4.31177e-22)
(0.094441 1.01182 3.48944e-22)
(0.127057 2.75907 -1.62771e-19)
(0.13183 3.30102 -6.15892e-20)
(0.121777 3.42426 3.25137e-20)
(0.110851 3.44419 -3.65918e-20)
(0.162981 0.176795 1.80242e-20)
(0.997334 1.01671 0)
(1.14973 1.18517 -4.39461e-20)
(1.15438 1.21682 -4.9013e-20)
(1.10415 1.19517 4.41638e-20)
(1.034 1.15888 1.43307e-20)
(0.958054 1.11954 -2.54392e-21)
(0.871896 1.07783 2.27711e-20)
(0.775179 1.03128 -4.12277e-20)
(0.664578 0.976965 0)
(0.552661 0.918119 1.18961e-19)
(0.45425 0.857642 -7.48177e-20)
(0.358522 0.768774 0)
(0.243995 0.584083 1.62775e-20)
(0.135126 0.783675 3.90656e-20)
(0.141485 2.56032 -4.4531e-20)
(0.19011 3.33 5.06917e-20)
(0.172086 3.43611 2.72367e-20)
(0.142653 3.45467 3.11312e-20)
(0.123108 3.46317 4.92407e-20)
(0.27559 0.27042 -3.48289e-20)
(0.980992 1.02791 0)
(1.13218 1.2116 4.73883e-20)
(1.14029 1.24876 5.3876e-20)
(1.08708 1.22903 -4.90928e-20)
(1.01638 1.19315 -1.94744e-20)
(0.939253 1.15535 -2.83521e-21)
(0.852545 1.11496 1.81964e-21)
(0.754436 1.07069 3.77097e-20)
(0.640969 1.02058 9.24487e-20)
(0.52368 0.967935 6.58092e-21)
(0.414199 0.913546 6.59098e-20)
(0.289998 0.808538 1.20674e-20)
(0.206872 0.957093 -1.55469e-20)
(0.212334 2.4338 -3.53453e-20)
(0.263044 3.33594 3.46567e-20)
(0.246007 3.46337 -3.79224e-20)
(0.211557 3.48148 -2.19529e-20)
(0.177643 3.50548 -1.93815e-20)
(0.132617 3.49971 -2.86065e-21)
(0.266114 0.269519 0)
(0.978648 1.05129 1.35906e-20)
(1.12388 1.23554 -9.70842e-21)
(1.1296 1.27256 -6.35309e-21)
(1.07627 1.25251 -3.36892e-20)
(1.0056 1.21684 1.98783e-20)
(0.928161 1.17929 3.5479e-21)
(0.841222 1.13976 1.52982e-21)
(0.742522 1.09703 -3.83679e-20)
(0.627652 1.04989 -2.87115e-21)
(0.507411 1.00211 -2.11595e-19)
(0.392049 0.951037 9.42285e-21)
(0.276957 0.882138 -1.13557e-20)
(0.241456 1.55816 -1.41913e-20)
(0.302948 3.14505 3.66643e-21)
(0.316533 3.46654 3.22921e-22)
(0.274731 3.51317 5.42429e-20)
(0.240633 3.53536 2.69891e-20)
(0.194846 3.55472 -7.68344e-21)
(0.14495 3.55064 -1.34928e-20)
(0.252177 0.267737 3.46868e-20)
(0.975428 1.07731 9.2134e-20)
(1.11523 1.26159 -2.7777e-20)
(1.11854 1.29796 -2.39893e-20)
(1.06503 1.27747 0)
(0.994451 1.24185 3.41528e-20)
(0.916978 1.20458 8.30101e-21)
(0.830061 1.16586 1.21694e-21)
(0.731077 1.12476 -4.31742e-21)
(0.615321 1.08081 -8.0736e-20)
(0.493011 1.03854 -9.62617e-20)
(0.373278 0.990313 -7.63893e-20)
(0.275935 1.025 -8.4548e-20)
(0.305349 2.31137 8.77956e-20)
(0.382297 3.39474 7.37407e-20)
(0.35494 3.52414 0)
(0.306647 3.55951 0)
(0.269865 3.59222 -5.7959e-21)
(0.22551 3.63703 0)
(0.156232 3.62071 -8.21761e-21)
(0.242362 0.269858 -5.17088e-20)
(0.970281 1.10428 -7.79639e-20)
(1.10523 1.28893 0)
(1.10626 1.32424 1.28734e-21)
(1.05258 1.30312 -3.58482e-20)
(0.982255 1.26745 5.43877e-20)
(0.905063 1.23049 7.21255e-21)
(0.818393 1.1925 2.08228e-22)
(0.719378 1.153 -2.46629e-20)
(0.603156 1.11223 3.85283e-21)
(0.479617 1.07564 0)
(0.35577 1.03354 0)
(0.299932 1.31261 -7.57142e-20)
(0.382399 2.97508 3.07974e-20)
(0.44662 3.49516 3.8441e-20)
(0.393848 3.55894 0)
(0.35176 3.61463 -4.01586e-22)