/*--------------------------------*- C++ -*----------------------------------*\
  =========                 |
  \\      /  F ield         | OpenFOAM: The Open Source CFD Toolbox
   \\    /   O peration     | Website:  https://openfoam.org
    \\  /    A nd           | Version:  6
     \\/     M anipulation  |
\*---------------------------------------------------------------------------*/
FoamFile
{
    version     2.0;
    format      ascii;
    class       volVectorField;
    location    "50";
    object      U;
}
// * * * * * * * * * * * * * * * * * * * * * * * * * * * * * * * * * * * * * //

dimensions      [0 1 -1 0 0 0 0];

internalField   nonuniform List<vector> 
8800
(
(0.987195 -0.0767064 0)
(1.0019 -0.0551792 0)
(0.999724 -0.028553 0)
(1.00002 -0.0151569 0)
(1.00007 -0.0085586 0)
(1.00007 -0.00505905 0)
(1.00005 -0.00301549 0)
(1.00002 -0.00171543 0)
(0.999999 -0.000809048 0)
(1.00006 -9.36803e-05 0)
(0.999988 0.000632672 0)
(0.999995 0.00139383 0)
(1.00001 0.00241726 0)
(1.00003 0.00399672 0)
(1.00003 0.00663542 0)
(1.00001 0.0113763 0)
(0.999887 0.0208165 0)
(0.999145 0.0386579 0)
(1.0071 0.0724574 0)
(0.771225 0.0366895 0)
(0.363028 -0.0160167 0)
(1.0433 -0.0768339 0)
(1.08461 -0.0704564 0)
(1.04521 -0.0535643 0)
(1.02328 -0.0389202 0)
(1.01199 -0.0262525 0)
(1.00639 -0.0169039 0)
(1.00357 -0.0103801 0)
(1.00215 -0.00572467 0)
(1.00145 -0.00207357 0)
(1.00132 0.00124684 0)
(1.00169 0.00462427 0)
(1.00266 0.0085577 0)
(1.00465 0.0139034 0)
(1.0086 0.0216202 0)
(1.01658 0.0325949 0)
(1.03249 0.0465133 0)
(1.06265 0.061638 0)
(1.09189 0.0760773 0)
(0.838683 0.0565742 0)
(0.216792 -0.00242339 0)
(1.07584 -0.0501721 0)
(1.09984 -0.0483632 0)
(1.06459 -0.0405206 0)
(1.03996 -0.0336693 0)
(1.02383 -0.0261587 0)
(1.01406 -0.0185885 0)
(1.00852 -0.0117789 0)
(1.00557 -0.00592073 0)
(1.00433 -0.00051219 0)
(1.00468 0.00473055 0)
(1.00661 0.0101178 0)
(1.0106 0.0162204 0)
(1.01793 0.0232632 0)
(1.03054 0.0307451 0)
(1.05062 0.0377924 0)
(1.08032 0.0444914 0)
(1.10625 0.0513195 0)
(0.942569 0.0415997 0)
(0.216194 0.00245083 0)
(0.175093 -0.000816559 0)
(1.01757 -0.035524 0)
(1.10513 -0.0414463 0)
(1.07819 -0.0361483 0)
(1.05336 -0.0302305 0)
(1.03609 -0.0246711 0)
(1.02391 -0.0189594 0)
(1.01582 -0.0128924 0)
(1.01099 -0.0067164 0)
(1.00881 -0.000393719 0)
(1.0094 0.00585676 0)
(1.01266 0.0118559 0)
(1.01887 0.0177113 0)
(1.02877 0.0233106 0)
(1.04322 0.02863 0)
(1.06375 0.0341332 0)
(1.09356 0.0401321 0)
(1.09345 0.0419108 0)
(0.827282 0.0228892 0)
(0.174086 0.000847955 0)
(0.153853 -0.000611925 0)
(0.955957 -0.0255078 0)
(1.10333 -0.0352153 0)
(1.08756 -0.0327635 0)
(1.06157 -0.0281316 0)
(1.04395 -0.0231304 0)
(1.03152 -0.0179064 0)
(1.02271 -0.0123976 0)
(1.01692 -0.00648106 0)
(1.01411 -2.48992e-05 0)
(1.01482 0.00643481 0)
(1.01881 0.0123218 0)
(1.02581 0.0176388 0)
(1.03613 0.0225871 0)
(1.05072 0.0273661 0)
(1.07196 0.0319222 0)
(1.10011 0.0358777 0)
(1.06819 0.0339619 0)
(0.739789 0.0142848 0)
(0.152336 0.000647469 0)
(0.139436 -0.00046894 0)
(0.898917 -0.019136 0)
(1.09558 -0.0301888 0)
(1.09558 -0.0293305 0)
(1.06904 -0.0256238 0)
(1.05061 -0.021512 0)
(1.03772 -0.0167701 0)
(1.02865 -0.0115156 0)
(1.02258 -0.00579826 0)
(1.0195 0.000509677 0)
(1.02016 0.00681529 0)
(1.02427 0.0124555 0)
(1.03141 0.0174512 0)
(1.04195 0.0219527 0)
(1.05711 0.0259414 0)
(1.07932 0.0294386 0)
(1.10237 0.032093 0)
(1.0362 0.0280294 0)
(0.67337 0.010176 0)
(0.137298 0.000509935 0)
(0.128845 -0.000364099 0)
(0.849156 -0.0147838 0)
(1.08309 -0.0260802 0)
(1.10119 -0.0264163 0)
(1.07583 -0.0231645 0)
(1.05687 -0.0195557 0)
(1.04354 -0.0153478 0)
(1.03412 -0.0104646 0)
(1.02782 -0.00496971 0)
(1.02456 0.00115656 0)
(1.0251 0.00725459 0)
(1.02918 0.0126173 0)
(1.03643 0.017205 0)
(1.04726 0.0211112 0)
(1.06283 0.0244382 0)
(1.08549 0.0274197 0)
(1.10155 0.0292136 0)
(1.00144 0.0234886 0)
(0.62172 0.00780383 0)
(0.125951 0.000412323 0)
(0.120746 -0.000283895 0)
(0.806815 -0.0116361 0)
(1.06767 -0.0224944 0)
(1.10463 -0.0238146 0)
(1.08201 -0.0209825 0)
(1.06264 -0.0175954 0)
(1.04903 -0.013706 0)
(1.03935 -0.00917499 0)
(1.03277 -0.00396243 0)
(1.02929 0.00193377 0)
(1.02968 0.00777549 0)
(1.03372 0.0127908 0)
(1.04104 0.0169121 0)
(1.05199 0.0203171 0)
(1.06779 0.0232356 0)
(1.09078 0.0259274 0)
(1.09784 0.0268374 0)
(0.966383 0.0199163 0)
(0.580295 0.00625912 0)
(0.116933 0.000341317 0)
(0.114451 -0.000221108 0)
(0.771117 -0.00928346 0)
(1.05073 -0.01934 0)
(1.10691 -0.0214143 0)
(1.08779 -0.0189663 0)
(1.06804 -0.0157397 0)
(1.0542 -0.0120255 0)
(1.04433 -0.00771214 0)
(1.03752 -0.0027529 0)
(1.03377 0.00287595 0)
(1.03397 0.00840969 0)
(1.03791 0.0130464 0)
(1.04518 0.0167621 0)
(1.05615 0.0197914 0)
(1.07215 0.0223842 0)
(1.09482 0.0247361 0)
(1.09137 0.0248528 0)
(0.932346 0.0171477 0)
(0.546092 0.00520016 0)
(0.109519 0.000289995 0)
(0.109523 -0.000170724 0)
(0.741119 -0.00745896 0)
(1.03332 -0.0165443 0)
(1.10821 -0.0191518 0)
(1.09326 -0.0170234 0)
(1.07324 -0.0139015 0)
(1.05914 -0.0102914 0)
(1.04908 -0.00612187 0)
(1.04207 -0.00135676 0)
(1.03806 0.00401386 0)
(1.03799 0.0092211 0)
(1.04173 0.0134903 0)
(1.04887 0.0168313 0)
(1.05983 0.0195168 0)
(1.07603 0.0218254 0)
(1.0976 0.0238144 0)
(1.08252 0.0231921 0)
(0.899916 0.0150245 0)
(0.517081 0.00445476 0)
(0.103235 0.00025347 0)
(0.105681 -0.000129121 0)
(0.715996 -0.00598964 0)
(1.01626 -0.0140407 0)
(1.10867 -0.0169761 0)
(1.09864 -0.0151377 0)
(1.07835 -0.0120377 0)
(1.06395 -0.00847521 0)
(1.05368 -0.00438455 0)
(1.04643 0.000242538 0)
(1.04213 0.00537936 0)
(1.04173 0.0102651 0)
(1.04519 0.0141875 0)
(1.05216 0.0171934 0)
(1.0631 0.0195557 0)
(1.0795 0.0215951 0)
(1.09907 0.0231869 0)
(1.07168 0.0218609 0)
(0.86923 0.0134333 0)
(0.491828 0.00393429 0)
(0.0977422 0.000228999 0)
(0.102733 -9.30858e-05 0)
(0.695107 -0.00475737 0)
(1.00016 -0.0117569 0)
(1.10839 -0.0148423 0)
(1.10382 -0.0132197 0)
(1.08343 -0.010106 0)
(1.06873 -0.0065349 0)
(1.05821 -0.00247227 0)
(1.05067 0.00206184 0)
(1.04601 0.00702213 0)
(1.04521 0.0116321 0)
(1.04833 0.0152138 0)
(1.05509 0.0178671 0)
(1.06597 0.0199023 0)
(1.08251 0.0216858 0)
(1.0996 0.0228672 0)
(1.05916 0.0208502 0)
(0.840159 0.0122775 0)
(0.46927 0.00358128 0)
(0.0927867 0.000213913 0)
(0.10056 -5.99852e-05 0)
(0.677984 -0.00367579 0)
(0.985491 -0.00962483 0)
(1.10763 -0.0126605 0)
(1.1088 -0.0111632 0)
(1.08857 -0.00800521 0)
(1.07351 -0.0043801 0)
(1.06269 -0.00029903 0)
(1.0548 0.00419762 0)
(1.04968 0.00901197 0)
(1.04839 0.0133549 0)
(1.05111 0.0166103 0)
(1.05762 0.0189224 0)
(1.06844 0.0206097 0)
(1.08504 0.0221082 0)
(1.09915 0.0229442 0)
(1.04517 0.0201783 0)
(0.812422 0.0114871 0)
(0.448585 0.00335863 0)
(0.0881727 0.000206408 0)
(0.0990988 -2.7511e-05 0)
(0.664335 -0.00267574 0)
(0.9726 -0.00756642 0)
(1.10667 -0.0103786 0)
(1.1137 -0.00894313 0)
(1.09382 -0.00571505 0)
(1.07839 -0.00196793 0)
(1.06719 0.0022084 0)
(1.05886 0.00671858 0)
(1.05318 0.0114226 0)
(1.0513 0.0155133 0)
(1.05354 0.0184263 0)
(1.05974 0.0203841 0)
(1.0705 0.021725 0)
(1.08712 0.0229444 0)
(1.09753 0.0233367 0)
(1.0298 0.0198153 0)
(0.785646 0.0109991 0)
(0.429112 0.00323847 0)
(0.0837419 0.000204878 0)
(0.098336 6.34646e-06 0)
(0.654018 -0.00170105 0)
(0.961809 -0.00550345 0)
(1.10583 -0.00791689 0)
(1.11861 -0.00644925 0)
(1.09927 -0.00309973 0)
(1.08342 0.000821201 0)
(1.07177 0.0051389 0)
(1.06289 0.00971652 0)
(1.05653 0.014355 0)
(1.05393 0.0182083 0)
(1.05559 0.0207772 0)
(1.06144 0.0223452 0)
(1.07208 0.0232752 0)
(1.08865 0.0241929 0)
(1.09467 0.024103 0)
(1.01308 0.0197855 0)
(0.759436 0.0107831 0)
(0.410318 0.00320729 0)
(0.0793698 0.00020888 0)
(0.0982954 3.92288e-05 0)
(0.647009 -0.000703607 0)
(0.953422 -0.00336734 0)
(1.10546 -0.00521992 0)
(1.12373 -0.00360805 0)
(1.105 -6.5534e-05 0)
(1.08869 0.00409567 0)
(1.07652 0.0086202 0)
(1.06699 0.0133221 0)
(1.0598 0.0179184 0)
(1.05632 0.021521 0)
(1.05727 0.023711 0)
(1.06267 0.0248639 0)
(1.07319 0.0253702 0)
(1.08944 0.0259172 0)
(1.09038 0.0252873 0)
(0.994943 0.0201161 0)
(0.733339 0.0108243 0)
(0.391716 0.00325817 0)
(0.0749382 0.000218108 0)
(0.0990125 7.80961e-05 0)
(0.643399 0.000332919 0)
(0.947765 -0.00107688 0)
(1.10592 -0.00219841 0)
(1.12924 -0.000338634 0)
(1.11112 0.00346338 0)
(1.0943 0.00794774 0)
(1.08149 0.0127663 0)
(1.07117 0.017663 0)
(1.06296 0.0222589 0)
(1.05843 0.0256086 0)
(1.05852 0.0273898 0)
(1.06339 0.0280805 0)
(1.07375 0.0281349 0)
(1.08936 0.0282431 0)
(1.08453 0.026923 0)
(0.975208 0.0208222 0)
(0.706877 0.0111093 0)
(0.372854 0.00338456 0)
(0.070341 0.000231884 0)
(0.100696 0.000138787 0)
(0.643594 0.00149544 0)
(0.945208 0.00144986 0)
(1.10762 0.00125133 0)
(1.1353 0.0035102 0)
(1.11774 0.00768277 0)
(1.10034 0.0125682 0)
(1.08675 0.0177496 0)
(1.07543 0.0228963 0)
(1.06599 0.027538 0)
(1.06017 0.0306456 0)
(1.05927 0.0319471 0)
(1.06349 0.0321051 0)
(1.07365 0.0316483 0)
(1.08818 0.0312469 0)
(1.0769 0.0290787 0)
(0.953629 0.0219429 0)
(0.679536 0.0116407 0)
(0.353303 0.00358476 0)
(0.0654798 0.000250056 0)
(0.103393 0.000198506 0)
(0.647887 0.0028998 0)
(0.946196 0.00436038 0)
(1.11107 0.0052676 0)
(1.14215 0.00808018 0)
(1.12502 0.0127651 0)
(1.10693 0.0181685 0)
(1.09239 0.0238151 0)
(1.07984 0.0292864 0)
(1.06888 0.0339628 0)
(1.06153 0.036758 0)
(1.05945 0.0375045 0)
(1.06291 0.0370599 0)
(1.0728 0.036023 0)
(1.08574 0.035028 0)
(1.0672 0.0318487 0)
(0.929835 0.0235133 0)
(0.650758 0.0124214 0)
(0.332635 0.00385648 0)
(0.0602603 0.000272176 0)
(0.107397 0.000279933 0)
(0.656919 0.00458548 0)
(0.951115 0.00772171 0)
(1.11675 0.0100137 0)
(1.15007 0.0135422 0)
(1.13317 0.0188941 0)
(1.11425 0.0249566 0)
(1.09855 0.0312006 0)
(1.08449 0.037063 0)
(1.07167 0.0417753 0)
(1.06247 0.0441788 0)
(1.05902 0.0442704 0)
(1.06155 0.0431334 0)
(1.0711 0.0414236 0)
(1.08197 0.0397579 0)
(1.05507 0.0353226 0)
(0.903361 0.0255795 0)
(0.619934 0.0134582 0)
(0.31042 0.00419697 0)
(0.0545975 0.000297436 0)
(0.113034 0.000388271 0)
(0.671338 0.00667221 0)
(0.960875 0.0118544 0)
(1.12523 0.0157194 0)
(1.15939 0.020202 0)
(1.14243 0.0264462 0)
(1.12246 0.0333282 0)
(1.10528 0.0402646 0)
(1.08933 0.0465607 0)
(1.07427 0.0512708 0)
(1.06287 0.053139 0)
(1.05777 0.0524461 0)
(1.05923 0.0504949 0)
(1.06839 0.0480207 0)
(1.07668 0.045555 0)
(1.04008 0.0396199 0)
(0.873631 0.0281907 0)
(0.586397 0.0147533 0)
(0.286235 0.00459848 0)
(0.0484219 0.000324512 0)
(0.120815 0.000542368 0)
(0.692154 0.00941334 0)
(0.976224 0.0170178 0)
(1.13719 0.0227241 0)
(1.1706 0.0284503 0)
(1.15308 0.0358832 0)
(1.13172 0.0437516 0)
(1.11262 0.0514867 0)
(1.09426 0.0582234 0)
(1.07643 0.0627942 0)
(1.0625 0.0639154 0)
(1.05552 0.062207 0)
(1.0558 0.0593041 0)
(1.06451 0.055952 0)
(1.06957 0.0525312 0)
(1.02164 0.0448288 0)
(0.839937 0.0313685 0)
(0.549441 0.0162851 0)
(0.259692 0.00504215 0)
(0.0416909 0.000350971 0)
(0.131516 0.000767167 0)
(0.720732 0.0131716 0)
(0.998291 0.0236638 0)
(1.15338 0.0315484 0)
(1.18431 0.0388313 0)
(1.16549 0.0477996 0)
(1.14222 0.0568605 0)
(1.12063 0.0654729 0)
(1.09931 0.0725483 0)
(1.07821 0.0767186 0)
(1.06133 0.0767815 0)
(1.05222 0.073821 0)
(1.05117 0.0697767 0)
(1.05922 0.0653636 0)
(1.0602 0.0607714 0)
(0.99906 0.0510205 0)
(0.801494 0.0351135 0)
(0.508361 0.0180042 0)
(0.23051 0.00549357 0)
(0.034416 0.000372737 0)
(0.146374 0.00111946 0)
(0.759 0.0185606 0)
(1.0287 0.0325501 0)
(1.17472 0.0431048 0)
(1.20123 0.0523655 0)
(1.18 0.0632417 0)
(1.15406 0.0736187 0)
(1.12914 0.0829863 0)
(1.10408 0.0900714 0)
(1.0791 0.0934295 0)
(1.05894 0.0920084 0)
(1.04757 0.087458 0)
(1.04516 0.0820725 0)
(1.0522 0.0764398 0)
(1.04793 0.0705143 0)
(0.971438 0.0582597 0)
(0.757399 0.0393874 0)
(0.462517 0.0198252 0)
(0.1986 0.00590049 0)
(0.0266931 0.000384304 0)
(0.167517 0.0017281 0)
(0.810087 0.0267185 0)
(1.06999 0.0452117 0)
(1.20233 0.0592231 0)
(1.22209 0.07126 0)
(1.19668 0.0839154 0)
(1.16687 0.0954197 0)
(1.13764 0.105067 0)
(1.10809 0.111497 0)
(1.07875 0.113261 0)
(1.05507 0.109713 0)
(1.04133 0.103184 0)
(1.03752 0.0962618 0)
(1.04317 0.0895243 0)
(1.03213 0.0817592 0)
(0.937656 0.0664898 0)
(0.706754 0.0440699 0)
(0.41156 0.0216108 0)
(0.164259 0.00619118 0)
(0.0187459 0.000378752 0)
(0.198249 0.00306544 0)
(0.8796 0.0402318 0)
(1.12565 0.0653813 0)
(1.23667 0.0834767 0)
(1.24663 0.0981888 0)
(1.21496 0.1121 0)
(1.17995 0.123812 0)
(1.14547 0.132627 0)
(1.11084 0.137312 0)
(1.0768 0.136534 0)
(1.04949 0.130156 0)
(1.03337 0.121217 0)
(1.0282 0.112483 0)
(1.03203 0.104487 0)
(1.01193 0.0944969 0)
(0.896399 0.0754708 0)
(0.648927 0.0488652 0)
(0.356069 0.0231959 0)
(0.1287 0.00630832 0)
(0.0110399 0.000347113 0)
(0.240214 0.00917022 3.71762e-20)
(0.971416 0.0669354 3.2624e-20)
(1.19334 0.099536 -1.14998e-20)
(1.27454 0.119459 0)
(1.27202 0.136715 -3.03245e-34)
(1.23268 0.150111 4.45979e-21)
(1.19167 0.160313 -8.19639e-21)
(1.15138 0.166924 0)
(1.11124 0.168825 1.71672e-34)
(1.07213 0.164731 -1.04568e-20)
(1.04091 0.155022 0)
(1.02222 0.143474 -1.25412e-20)
(1.01557 0.132954 -3.70698e-20)
(1.01733 0.123822 -1.75479e-20)
(0.98473 0.111679 -5.29316e-21)
(0.843075 0.0875362 -3.14821e-21)
(0.578145 0.0547787 0)
(0.293791 0.0250499 2.20561e-21)
(0.0924314 0.00673442 2.60448e-21)
(0.00386165 0.00035785 4.68507e-20)
(0.269321 0.024079 2.50923e-20)
(1.04736 0.109129 5.2436e-22)
(1.24902 0.14824 2.96561e-21)
(1.3085 0.168089 0)
(1.29422 0.1856 -1.51067e-20)
(1.24776 0.196886 -1.73669e-20)
(1.20078 0.204833 -8.20487e-21)
(1.15456 0.208984 -2.97426e-20)
(1.10862 0.208125 0)
(1.06385 0.200775 4.45828e-20)
(1.02788 0.18777 4.44766e-20)
(1.00595 0.173614 1.32845e-20)
(0.99696 0.16109 4.86558e-20)
(0.992889 0.149603 6.8561e-20)
(0.943363 0.13363 0)
(0.772647 0.102674 9.69073e-20)
(0.495656 0.0625316 1.39147e-19)
(0.228287 0.027433 1.54596e-19)
(0.057437 0.00665911 -1.76805e-19)
(-0.00291559 -0.00014747 -3.31978e-21)
(0.270838 0.0406128 0)
(1.09567 0.163785 3.86329e-21)
(1.28662 0.207843 0)
(1.33488 0.227497 -1.81715e-20)
(1.31152 0.242321 0)
(1.25909 0.249792 -3.35796e-20)
(1.20646 0.254092 1.66643e-20)
(1.15455 0.254731 -5.94114e-20)
(1.103 0.250317 -1.57685e-21)
(1.0528 0.239221 2.3033e-20)
(1.01231 0.222734 9.83638e-20)
(0.987227 0.20597 -2.78877e-22)
(0.975722 0.191437 -3.5491e-20)
(0.966285 0.177462 -6.49989e-20)
(0.905805 0.157064 7.70422e-20)
(0.723357 0.118802 -1.36562e-19)
(0.45033 0.0709269 -1.80944e-20)
(0.199766 0.0304222 0)
(0.0443575 0.00663769 -6.51676e-24)
(-0.00545372 -0.000737758 0)
(0.264699 0.0545856 3.61644e-20)
(1.12194 0.222184 -1.98916e-20)
(1.30994 0.272105 -1.81517e-20)
(1.35224 0.292263 8.21629e-21)
(1.32252 0.303451 -1.40499e-20)
(1.26559 0.306498 7.02087e-20)
(1.20829 0.306483 3.47169e-20)
(1.15143 0.302988 0)
(1.09486 0.294513 -1.14331e-19)
(1.03971 0.279359 0)
(0.994968 0.259163 -5.16476e-20)
(0.96672 0.239529 -6.42936e-20)
(0.952617 0.222914 -3.88283e-20)
(0.938975 0.206597 -4.74032e-20)
(0.873364 0.182009 0)
(0.690716 0.137403 0)
(0.42918 0.0824621 -1.18221e-19)
(0.193377 0.0363082 2.34214e-20)
(0.0434589 0.00778126 -1.36817e-20)
(-0.00596722 -0.00119057 -1.60081e-20)
(0.257489 0.0669436 -3.56569e-21)
(1.13377 0.280607 0)
(1.32288 0.337484 3.15565e-20)
(1.36158 0.358553 2.18688e-20)
(1.32735 0.366077 3.35081e-20)
(1.26711 0.364715 0)
(1.20615 0.360298 3.34289e-20)
(1.14523 0.352516 6.56398e-20)
(1.08433 0.339807 5.82868e-20)
(1.02469 0.320356 1.09389e-19)
(0.97593 0.29622 0)
(0.944669 0.273679 -1.39105e-19)
(0.928136 0.255051 -8.42042e-20)
(0.911345 0.236675 -4.98771e-20)
(0.844377 0.208069 3.07921e-19)
(0.668114 0.158395 3.67232e-20)
(0.421818 0.0975516 1.72466e-19)
(0.198593 0.0447871 -8.16896e-19)
(0.050015 0.0108091 4.83847e-19)
(-0.00449393 -0.00116806 -5.83076e-19)
(0.250698 0.0781232 1.21011e-20)
(1.13651 0.337198 2.44583e-22)
(1.32836 0.402126 -2.00157e-21)
(1.36454 0.424434 -1.76864e-20)
(1.32697 0.428462 -2.56847e-20)
(1.26422 0.422882 1.79802e-21)
(1.20037 0.414233 -3.63653e-20)
(1.13611 0.402287 6.76153e-20)
(1.07151 0.385393 -1.25744e-19)
(1.00784 0.361621 0)
(0.955425 0.333701 -6.28044e-20)
(0.921383 0.308576 -1.62605e-21)
(0.902515 0.288086 -9.24738e-20)
(0.882928 0.26752 0)
(0.816342 0.235529 -6.69496e-20)
(0.650011 0.181357 -1.59331e-19)
(0.42031 0.114753 4.26425e-19)
(0.207953 0.0558137 -4.19097e-19)
(0.0601152 0.0157922 5.96082e-19)
(-0.00172416 -0.000598313 -6.19339e-19)
(0.245106 0.0885286 -5.05734e-22)
(1.13369 0.391294 4.14768e-21)
(1.32846 0.465004 1.90067e-21)
(1.36253 0.488746 4.9581e-21)
(1.32243 0.489591 -1.25399e-20)
(1.25776 0.480071 0)
(1.19159 0.467462 -3.27725e-20)
(1.12453 0.451582 -7.05785e-20)
(1.05672 0.43066 -6.51126e-20)
(0.989482 0.402765 0)
(0.93379 0.371322 -6.50382e-20)
(0.897212 0.343685 -8.13306e-20)
(0.875966 0.321126 1.00578e-19)
(0.85415 0.298412 -6.14015e-20)
(0.788582 0.263748 -2.93435e-19)
(0.632874 0.205561 1.75066e-19)
(0.419224 0.133294 5.23833e-20)
(0.217736 0.0682575 0)
(0.0705374 0.0220239 -5.78657e-19)
(0.0013502 0.000356896 -2.12404e-20)
(0.240819 0.0984843 4.98577e-21)
(1.12753 0.44274 -7.24166e-21)
(1.32466 0.525554 -2.38326e-21)
(1.35675 0.550798 2.08066e-20)
(1.31467 0.548823 -4.21038e-20)
(1.24854 0.535714 6.06597e-20)
(1.18049 0.519471 7.07294e-20)
(1.11103 0.499922 -1.12715e-19)
(1.04036 0.475187 4.10709e-20)
(0.96996 0.443396 -2.69702e-19)
(0.911323 0.408479 -7.40555e-20)
(0.872345 0.378004 0)
(0.848952 0.353224 1.09293e-19)
(0.825517 0.328819 1.31487e-19)
(0.761079 0.29158 1.58024e-19)
(0.61483 0.229586 -1.90683e-19)
(0.415655 0.152324 -5.65487e-20)
(0.224287 0.0814466 6.64179e-20)
(0.0791227 0.0287637 0)
(0.0041664 0.0015257 -4.62153e-20)
(0.237694 0.108085 -7.63893e-20)
(1.11964 0.491576 4.26609e-20)
(1.31827 0.584021 4.33296e-21)
(1.34818 0.610239 9.48329e-21)
(1.30448 0.605755 -1.63459e-20)
(1.23725 0.589422 -4.09066e-21)
(1.16764 0.569902 -7.76925e-20)
(1.0961 0.546978 -4.08967e-20)
(1.02288 0.518679 -1.13425e-19)
(0.94959 0.483162 2.84944e-22)
(0.888178 0.444658 -2.31265e-19)
(0.846959 0.411141 1.97398e-19)
(0.821842 0.38441 -1.20422e-19)
(0.797143 0.358589 1.45417e-19)
(0.73331 0.318305 0)
(0.595563 0.252128 -1.03683e-19)
(0.40893 0.170697 -1.76097e-22)
(0.226611 0.0941125 -2.90063e-19)
(0.0845682 0.0351152 -4.2617e-20)
(0.00629888 0.00266127 0)
(0.23563 0.117535 0)
(1.11093 0.538012 4.93608e-20)
(1.30989 0.639786 2.08936e-20)
(1.3376 0.666881 -5.31709e-21)
(1.29254 0.660164 -2.4019e-20)
(1.22445 0.640965 0)
(1.15354 0.61851 -3.36248e-20)
(1.08018 0.592508 -1.12162e-21)
(1.00466 0.56094 2.43073e-19)
(0.928624 0.521851 -3.6833e-20)
(0.864489 0.479699 -1.67214e-19)
(0.821238 0.443378 1.02338e-19)
(0.794788 0.415076 -2.18162e-21)
(0.76869 0.387566 1.54446e-19)
(0.70471 0.34344 9.60055e-20)
(0.574327 0.27301 -2.24106e-19)
(0.398767 0.187585 2.65726e-19)
(0.224348 0.105106 7.86441e-20)
(0.0861223 0.0402705 3.24305e-19)
(0.0074954 0.00354672 -8.66872e-19)
(0.234515 0.126977 -2.55747e-20)
(1.10203 0.582221 3.4603e-20)
(1.3002 0.6928 -2.35949e-20)
(1.32565 0.720667 -2.66457e-21)
(1.27939 0.711935 0)
(1.21062 0.690196 -2.4001e-20)
(1.13862 0.665133 1.14426e-19)
(1.06364 0.636365 8.87243e-20)
(0.985996 0.601835 0)
(0.907296 0.55937 -5.327e-19)
(0.840486 0.513739 4.52597e-19)
(0.795388 0.475023 0)
(0.767734 0.445156 1.40862e-19)
(0.739887 0.415007 -2.19174e-21)
(0.675392 0.366284 -3.06283e-19)
(0.551264 0.291592 1.20031e-19)
(0.385305 0.201801 0)
(0.218033 0.113575 4.24359e-19)
(0.0843969 0.0436121 0)
(0.00778416 0.0040297 -4.10199e-19)
(0.234166 0.136419 3.07356e-20)
(1.09331 0.624349 4.51661e-20)
(1.28961 0.74307 -2.34853e-20)
(1.31279 0.7716 0)
(1.26548 0.761046 -1.47739e-20)
(1.19617 0.737055 0)
(1.12322 0.709679 -1.0981e-19)
(1.0468 0.678465 -3.98479e-20)
(0.96717 0.6413 4.22198e-20)
(0.885852 0.595719 -2.63476e-19)
(0.816397 0.546957 4.65218e-20)
(0.76953 0.50608 0)
(0.740498 0.474078 -3.00558e-19)
(0.710474 0.440083 2.18207e-21)
(0.645431 0.386335 0)
(0.526486 0.307517 1.69749e-21)
(0.368647 0.213033 3.87705e-19)
(0.20796 0.11918 -3.66722e-19)
(0.0798754 0.0450239 1.08009e-19)
(0.00725416 0.00407907 0)
(0.234227 0.145745 0)
(1.08497 0.664408 5.47419e-20)
(1.27852 0.790684 3.46242e-20)
(1.29942 0.819729 -2.45641e-21)
(1.25115 0.807511 -6.69304e-22)
(1.1814 0.781526 -5.27404e-20)
(1.10765 0.75212 4.17671e-20)
(1.02992 0.718776 -4.80677e-20)
(0.948418 0.679302 1.89715e-19)
(0.864506 0.630937 -4.20354e-19)
(0.792414 0.579429 -3.70622e-21)
(0.743688 0.536284 -1.30796e-19)
(0.712921 0.501232 4.87975e-19)
(0.680498 0.462475 -2.54503e-21)
(0.615151 0.403793 -2.37563e-19)
(0.50052 0.320817 -4.24745e-19)
(0.349235 0.221192 0)
(0.194566 0.121821 0)
(0.0730537 0.0447667 1.16667e-19)
(0.00628062 0.00380644 -6.84477e-20)
(0.234848 0.155064 4.34933e-20)
(1.07712 0.702427 -1.25017e-19)
(1.2672 0.835727 -3.73782e-20)
(1.28581 0.865121 0)
(1.23668 0.851376 -1.5981e-21)
(1.16658 0.823631 -4.24718e-20)
(1.09213 0.792461 9.69823e-20)
(1.01323 0.757291 1.85278e-19)
(0.92994 0.715838 2.44957e-19)
(0.843465 0.665067 -3.42113e-19)
(0.768688 0.611134 -3.88219e-19)
(0.717843 0.565334 3.49652e-19)
(0.684958 0.526277 0)
(0.650166 0.482291 -1.07713e-19)
(0.584771 0.418912 -2.57099e-19)
(0.47347 0.331366 -3.05017e-19)
(0.327372 0.225942 -3.61653e-19)
(0.178434 0.121423 1.06899e-19)
(0.0643056 0.0426579 -6.2858e-20)
(0.00490759 0.00320374 2.61623e-22)
(0.2357 0.164196 0)
(1.0698 0.738794 0)
(1.25579 0.878278 2.65104e-21)
(1.27217 0.907858 0)
(1.22228 0.892723 -1.30145e-20)
(1.1519 0.863426 2.37405e-20)
(1.07686 0.830733 0)
(0.996898 0.794026 2.12277e-20)
(0.91191 0.750905 4.06075e-19)
(0.822912 0.698136 -7.86265e-19)
(0.745325 0.642009 0)
(0.691993 0.593058 -2.24845e-19)
(0.656633 0.549219 -3.03591e-21)
(0.619653 0.499815 -2.40618e-21)
(0.554387 0.431714 2.74483e-19)
(0.445545 0.338849 -2.79813e-22)
(0.303271 0.227118 -7.78374e-19)
(0.160232 0.117946 2.29871e-19)
(0.0546295 0.0390209 6.79294e-20)
(0.00336367 0.00237412 0)
(0.236573 0.173186 -1.74935e-19)
(1.06279 0.77349 -8.49041e-20)
(1.2444 0.918391 -1.11302e-19)
(1.25868 0.948038 1.11166e-19)
(1.20812 0.931621 -3.97649e-20)
(1.13752 0.900973 0)
(1.06198 0.866987 5.49919e-20)
(0.98107 0.829007 -4.77392e-20)
(0.894468 0.784518 3.90907e-21)
(0.802998 0.730156 5.81272e-20)
(0.722422 0.671995 5.01177e-19)
(0.666164 0.619478 -7.87027e-20)
(0.627988 0.570349 -3.00439e-19)
(0.588971 0.51532 -1.25438e-19)
(0.523882 0.441977 1.49323e-19)
(0.416929 0.342942 -9.19906e-23)
(0.277976 0.224626 2.09655e-19)
(0.141189 0.111777 -4.94333e-19)
(0.0447704 0.0342989 5.84301e-19)
(0.00181295 0.00141636 8.51896e-20)
(0.237219 0.181931 6.67405e-20)
(1.0561 0.8066 -4.80894e-20)
(1.23315 0.956179 6.36394e-21)
(1.24546 0.985782 7.18989e-20)
(1.19431 0.968181 1.54618e-20)
(1.12356 0.936345 -3.54086e-20)
(1.04762 0.901274 1.40995e-20)
(0.965853 0.862251 -1.97102e-19)
(0.877739 0.816673 -4.42698e-19)
(0.783845 0.761105 -4.66021e-19)
(0.700084 0.701071 0)
(0.640426 0.64477 -3.46115e-19)
(0.599046 0.590107 4.33044e-19)
(0.557921 0.529027 0)
(0.492958 0.449379 -3.1952e-19)
(0.387832 0.343165 1.9092e-19)
(0.252441 0.218272 -2.25211e-19)
(0.122626 0.103361 -2.65896e-19)
(0.0355538 0.029005 -4.70435e-19)
(0.000405097 0.000445159 -3.66756e-19)
(0.238184 0.190521 -7.56542e-20)
(1.04958 0.8381 5.1453e-20)
(1.22212 0.991701 1.18065e-19)
(1.23258 1.02117 1.05271e-19)
(1.18094 1.0025 -2.92717e-20)
(1.11009 0.969632 -1.19456e-20)
(1.03385 0.933649 4.81347e-20)
(0.951328 0.893799 -1.99424e-19)
(0.8618 0.847387 -2.60741e-19)
(0.765558 0.790973 4.85144e-19)
(0.678412 0.729251 1.09764e-18)
(0.614886 0.669188 0)
(0.569833 0.60899 0)
(0.526153 0.541213 -1.44405e-19)
(0.461056 0.453557 0)
(0.358218 0.338554 4.10589e-19)
(0.227887 0.207332 4.84308e-19)
(0.106519 0.0928518 0)
(0.0282095 0.0236496 0)
(-0.000733751 -0.000433704 3.93953e-19)
(0.238779 0.198619 8.63837e-20)
(1.04327 0.867974 6.9992e-20)
(1.21136 1.02507 8.6028e-20)
(1.2201 1.05434 -1.02166e-19)
(1.16806 1.03467 -3.90065e-20)
(1.09718 1.00091 2.36566e-21)
(1.02073 0.964173 -6.39176e-20)
(0.937551 0.923673 -3.96123e-24)
(0.846727 0.876662 -5.08173e-21)
(0.748218 0.81973 -5.2938e-21)
(0.657536 0.756582 5.64574e-19)
(0.589688 0.692993 0)
(0.540414 0.62747 4.37937e-19)
(0.493283 0.552291 3.07674e-19)
(0.427246 0.454405 7.45706e-19)
(0.32736 0.327776 2.21001e-19)
(0.205528 0.189542 -2.60788e-19)
(0.09687 0.0779561 -1.53106e-19)
(0.0276331 0.0171945 0)
(-0.00044479 -0.00098007 4.23085e-19)
(0.239687 0.20672 -1.95443e-19)
(1.03712 0.896368 0)
(1.20088 1.05632 1.01802e-19)
(1.20805 1.08537 -8.71335e-20)
(1.15573 1.0648 5.3646e-20)
(1.08486 1.03027 1.49595e-20)
(1.00829 0.992899 1.13748e-19)
(0.924557 0.951904 -1.72446e-20)
(0.832557 0.904504 0)
(0.731887 0.847329 -5.30683e-19)
(0.637587 0.78311 -1.2229e-18)
(0.565015 0.716429 5.07157e-20)
(0.51093 0.645935 6.02999e-19)
(0.459054 0.562834 0)
(0.390342 0.452527 5.03139e-19)
(0.292939 0.309993 0)
(0.183621 0.159916 0)
(0.0985664 0.0450542 -1.65725e-19)
(0.0576903 -0.00441363 0)
(0.0270392 0.00703152 1.13301e-19)
(0.240137 0.214216 -2.19216e-19)
(1.03113 0.923488 0)
(1.19066 1.08568 1.69788e-19)
(1.19638 1.1145 0)
(1.1439 1.09316 -3.28223e-20)
(1.07308 1.058 0)
(0.996474 1.02014 4.02222e-21)
(0.912251 0.978833 2.66493e-20)
(0.819171 0.931282 3.2373e-20)
(0.716396 0.874152 -5.79115e-19)
(0.618408 0.809335 3.63616e-20)
(0.540648 0.740205 4.09048e-19)
(0.480996 0.665109 5.87789e-19)
(0.422609 0.573624 7.96258e-20)
(0.348571 0.449648 3.94304e-19)
(0.250324 0.28652 0)
(0.151481 0.115493 5.50653e-19)
(0.0827974 -0.00328693 -3.22396e-19)
(0.0329122 0.0585455 3.72899e-19)
(-0.0382207 0.453366 -4.44505e-19)
(0.240515 0.22153 1.82047e-19)
(1.02507 0.949219 2.80887e-19)
(1.18064 1.11345 0)
(1.18496 1.14217 5.35753e-21)
(1.1324 1.12032 9.70511e-20)
(1.06157 1.08479 -6.87367e-20)
(0.98497 1.0467 3.32492e-20)
(0.900231 1.00541 0)
(0.806047 0.95811 2.09875e-19)
(0.701074 0.901518 -2.97013e-20)
(0.599089 0.836759 0)
(0.515364 0.766066 0)
(0.448836 0.686564 5.25398e-19)
(0.381751 0.585534 -2.46313e-19)
(0.298981 0.447981 -3.9896e-19)
(0.19546 0.261358 0)
(0.0853883 0.11865 2.77522e-19)
(0.00787418 0.465557 -3.21191e-19)
(0.0324718 1.92013 -1.79325e-19)
(0.0590701 2.82153 -2.26312e-19)
(0.240502 0.228252 -1.37138e-19)
(1.019 0.973734 -3.61322e-19)
(1.17084 1.13963 1.01465e-19)
(1.1738 1.16824 8.52989e-20)
(1.12127 1.14608 0)
(1.05041 1.11036 -5.99019e-20)
(0.973982 1.07227 3.62242e-20)
(0.888683 1.0312 -1.22925e-20)
(0.793454 0.984462 3.13645e-20)
(0.686291 0.9288 5.47014e-19)
(0.580236 0.864733 6.12472e-19)
(0.490149 0.793826 4.55009e-19)
(0.415391 0.710249 5.27294e-19)
(0.338097 0.597506 -5.76648e-19)
(0.248191 0.450666 -6.01336e-19)
(0.126724 0.302741 0)
(0.0431364 0.869136 0)
(0.090943 2.5755 1.53413e-19)
(0.0931774 3.20851 0)
(0.0941652 3.38842 3.71556e-19)
(0.243207 0.234465 0)
(1.01316 0.997378 0)
(1.16098 1.16409 0)
(1.16266 1.19253 2.56743e-20)
(1.11024 1.17023 8.99796e-20)
(1.03942 1.13458 -5.82294e-20)
(0.963434 1.09674 1.94966e-20)
(0.877535 1.05607 -1.16305e-20)
(0.781324 1.01016 2.5465e-19)
(0.67203 0.955832 -9.67016e-21)
(0.561934 0.893069 1.20299e-18)
(0.465423 0.8236 -5.25585e-20)
(0.38073 0.73678 6.36071e-20)
(0.293878 0.607417 8.34044e-20)
(0.187066 0.468821 -1.62478e-21)
(0.0981536 1.01 1.67038e-21)
(0.129714 2.75511 -8.03639e-19)
(0.134522 3.30059 -3.01856e-19)
(0.1241 3.42474 1.56185e-19)
(0.112577 3.44469 -1.73453e-19)
(0.165292 0.179045 8.11287e-20)
(1.0035 1.02302 0)
(1.15093 1.18709 -2.0572e-19)
(1.15189 1.21534 -2.29462e-19)
(1.09976 1.19324 2.10132e-19)
(1.02923 1.1579 6.64084e-20)
(0.953189 1.12006 -1.48044e-20)
(0.866861 1.08002 1.14381e-19)
(0.769757 1.03525 -2.04597e-19)
(0.658491 0.982718 0)
(0.544456 0.921851 5.87227e-19)
(0.441773 0.855203 -3.68701e-19)
(0.345278 0.769173 0)
(0.243069 0.61983 7.75093e-20)
(0.140144 0.807003 1.88959e-19)
(0.14383 2.5545 -2.18176e-19)
(0.193317 3.33107 2.45773e-19)
(0.174795 3.43751 1.33115e-19)
(0.144335 3.45593 1.5049e-19)
(0.124486 3.46434 2.41047e-19)
(0.279016 0.273875 -1.54816e-19)
(0.987149 1.03428 0)
(1.13325 1.21351 2.23403e-19)
(1.13751 1.24864 2.55266e-19)
(1.08305 1.22723 -2.32802e-19)
(1.01208 1.19238 -9.17089e-20)
(0.934953 1.15609 -1.12699e-20)
(0.848086 1.11733 9.09958e-21)
(0.749686 1.07477 1.87144e-19)
(0.635574 1.02583 4.57489e-19)
(0.515841 0.969706 3.25033e-20)
(0.402639 0.908742 3.23792e-19)
(0.282157 0.819869 5.86455e-20)
(0.207824 0.981795 -7.55441e-20)
(0.213886 2.42663 -1.7113e-19)
(0.264516 3.33817 1.65519e-19)
(0.24764 3.466 -1.85027e-19)
(0.212918 3.48374 -1.07829e-19)
(0.178862 3.50738 -9.26005e-20)
(0.133938 3.50089 -1.09796e-20)
(0.269471 0.273008 0)
(0.984873 1.05781 6.42667e-20)
(1.12516 1.23753 -4.6026e-20)
(1.12721 1.27249 -3.02753e-20)
(1.0725 1.25081 -1.60763e-19)
(1.00166 1.21621 9.41421e-20)
(0.924258 1.18019 1.60008e-20)
(0.837187 1.14226 7.64781e-21)
(0.738275 1.10117 -1.90238e-19)
(0.622798 1.05476 -1.43997e-20)
(0.500086 1.00255 -1.04316e-18)
(0.381754 0.945468 4.61589e-20)
(0.272558 0.895575 -5.5027e-20)
(0.242198 1.56884 -6.9256e-20)
(0.303073 3.14609 1.75055e-20)
(0.317513 3.46993 1.79652e-21)
(0.275633 3.51625 2.67085e-19)
(0.241474 3.53771 1.3285e-19)
(0.195799 3.5567 -3.70415e-20)
(0.146022 3.55199 -5.23758e-20)
(0.25539 0.271141 1.63107e-19)
(0.981718 1.08398 4.38208e-19)
(1.11668 1.26368 -1.32345e-19)
(1.11646 1.29788 -1.14832e-19)
(1.06155 1.27589 0)
(0.990886 1.24134 1.6378e-19)
(0.913457 1.20563 3.90091e-20)
(0.826433 1.16846 6.08461e-21)
(0.727305 1.1289 -2.13682e-20)
(0.610953 1.0852 -3.98824e-19)
(0.486149 1.03743 -4.74214e-19)
(0.363089 0.984542 -3.73345e-19)
(0.273921 1.03971 -4.12472e-19)
(0.305137 2.31167 4.24375e-19)
(0.381528 3.39826 3.53243e-19)
(0.355249 3.52788 0)
(0.306941 3.56239 0)
(0.270124 3.59459 -2.88044e-20)
(0.225494 3.63914 0)
(0.156572 3.62212 -3.95245e-20)
(0.245384 0.273169 -2.44579e-19)
(0.976588 1.11107 -3.72681e-19)
(1.10684 1.29113 0)
(1.10451 1.32418 6.45448e-21)
(1.04942 1.30166 -1.72723e-19)
(0.979068 1.26707 2.62357e-19)
(0.90192 1.23166 3.45835e-20)
(0.815166 1.19516 1.11463e-21)
(0.716063 1.15706 -1.22129e-19)
(0.599232 1.11602 1.90461e-20)
(0.473165 1.07288 0)
(0.349199 1.02963 0)
(0.299634 1.32639 -3.6957e-19)
(0.381049 2.97587 1.47941e-19)
(0.445376 3.49916 1.85765e-19)
(0.393162 3.56268 0)
(0.351384 3.61724 -2.80341e-21)