/*--------------------------------*- C++ -*----------------------------------*\
  =========                 |
  \\      /  F ield         | OpenFOAM: The Open Source CFD Toolbox
   \\    /   O peration     | Website:  https://openfoam.org
    \\  /    A nd           | Version:  6
     \\/     M anipulation  |
\*---------------------------------------------------------------------------*/
FoamFile
{
    version     2.0;
    format      ascii;
    class       volVectorField;
    location    "56.5";
    object      U;
}
// * * * * * * * * * * * * * * * * * * * * * * * * * * * * * * * * * * * * * //

dimensions      [0 1 -1 0 0 0 0];

internalField   nonuniform List<vector> 
8800
(
(0.987184 -0.0766671 0)
(1.00189 -0.0551938 0)
(0.999719 -0.0285536 0)
(1.00001 -0.0151511 0)
(1.00006 -0.00855401 0)
(1.00008 -0.0050563 0)
(1.00005 -0.00301117 0)
(1.00002 -0.00171081 0)
(0.999998 -0.000805063 0)
(1.00006 -8.90864e-05 0)
(0.999987 0.000639512 0)
(0.999994 0.0014032 0)
(1.00002 0.00242607 0)
(1.00004 0.00399986 0)
(1.00004 0.00663186 0)
(1.00001 0.0113703 0)
(0.999891 0.0208138 0)
(0.999147 0.038671 0)
(1.0071 0.072457 0)
(0.771213 0.036661 0)
(0.363054 -0.0160187 0)
(1.0433 -0.0768245 0)
(1.08458 -0.0704612 0)
(1.04518 -0.0535627 0)
(1.02325 -0.0389211 0)
(1.01197 -0.0262498 0)
(1.00639 -0.0168935 0)
(1.00357 -0.0103647 0)
(1.00214 -0.00570837 0)
(1.00145 -0.00205349 0)
(1.00131 0.00126931 0)
(1.00168 0.00465137 0)
(1.00265 0.00858664 0)
(1.00464 0.0139305 0)
(1.00859 0.021641 0)
(1.01655 0.032614 0)
(1.03246 0.046531 0)
(1.06263 0.0616503 0)
(1.09187 0.0760937 0)
(0.83868 0.0565587 0)
(0.216812 -0.00243144 0)
(1.07586 -0.0501559 0)
(1.09985 -0.0483405 0)
(1.06461 -0.0405015 0)
(1.03997 -0.0336521 0)
(1.02385 -0.02614 0)
(1.01408 -0.0185645 0)
(1.00853 -0.0117494 0)
(1.00558 -0.00588514 0)
(1.00433 -0.000470512 0)
(1.00468 0.00477637 0)
(1.0066 0.010168 0)
(1.0106 0.0162691 0)
(1.01793 0.0233037 0)
(1.03053 0.0307737 0)
(1.05061 0.037811 0)
(1.08032 0.0445009 0)
(1.10625 0.0513238 0)
(0.942556 0.0416064 0)
(0.21618 0.00246047 0)
(0.175117 -0.000818283 0)
(1.01761 -0.0355116 0)
(1.10515 -0.041424 0)
(1.07821 -0.0361191 0)
(1.05338 -0.0301958 0)
(1.03612 -0.0246348 0)
(1.02394 -0.0189193 0)
(1.01585 -0.012847 0)
(1.011 -0.00666349 0)
(1.00881 -0.000331075 0)
(1.0094 0.00592683 0)
(1.01266 0.0119275 0)
(1.01887 0.0177759 0)
(1.02877 0.023365 0)
(1.04322 0.0286706 0)
(1.06373 0.0341634 0)
(1.09354 0.0401567 0)
(1.09342 0.0419306 0)
(0.827225 0.0229002 0)
(0.174051 0.000851475 0)
(0.15389 -0.000612312 0)
(0.956034 -0.0254923 0)
(1.10338 -0.0351864 0)
(1.08759 -0.0327236 0)
(1.06161 -0.0280842 0)
(1.04401 -0.0230777 0)
(1.03157 -0.0178474 0)
(1.02274 -0.0123295 0)
(1.01694 -0.00640177 0)
(1.01412 6.23124e-05 0)
(1.01482 0.00652496 0)
(1.01879 0.0124132 0)
(1.02581 0.0177222 0)
(1.03612 0.0226542 0)
(1.05069 0.0274215 0)
(1.07192 0.0319682 0)
(1.10008 0.035917 0)
(1.06813 0.0339927 0)
(0.739676 0.0142982 0)
(0.152285 0.000649995 0)
(0.139488 -0.000468776 0)
(0.89904 -0.0191172 0)
(1.09565 -0.0301521 0)
(1.09563 -0.0292806 0)
(1.06911 -0.0255684 0)
(1.05069 -0.0214537 0)
(1.03778 -0.016703 0)
(1.0287 -0.0114303 0)
(1.02261 -0.00569478 0)
(1.01951 0.000626964 0)
(1.02015 0.00694109 0)
(1.02426 0.0125834 0)
(1.03139 0.0175689 0)
(1.04192 0.0220535 0)
(1.05706 0.0260274 0)
(1.07926 0.0295074 0)
(1.10231 0.0321492 0)
(1.03609 0.0280712 0)
(0.673184 0.010193 0)
(0.137224 0.000512176 0)
(0.128914 -0.000363642 0)
(0.849337 -0.014762 0)
(1.08319 -0.0260353 0)
(1.10127 -0.0263531 0)
(1.07593 -0.0230906 0)
(1.05698 -0.0194711 0)
(1.04362 -0.0152476 0)
(1.03418 -0.0103483 0)
(1.02786 -0.00483569 0)
(1.02458 0.00130649 0)
(1.02509 0.00741214 0)
(1.02915 0.0127784 0)
(1.0364 0.017351 0)
(1.04722 0.0212333 0)
(1.06277 0.0245484 0)
(1.0854 0.0275146 0)
(1.10144 0.0292912 0)
(1.00125 0.0235451 0)
(0.621437 0.00782591 0)
(0.125847 0.000414692 0)
(0.120835 -0.000283229 0)
(0.807062 -0.0116112 0)
(1.06782 -0.0224423 0)
(1.10475 -0.0237423 0)
(1.08216 -0.0208969 0)
(1.06278 -0.0174973 0)
(1.04915 -0.0135899 0)
(1.03944 -0.00902985 0)
(1.03283 -0.00378852 0)
(1.02931 0.00212545 0)
(1.02966 0.00797328 0)
(1.03368 0.0129935 0)
(1.041 0.0171041 0)
(1.05193 0.020481 0)
(1.0677 0.0233888 0)
(1.09067 0.0260647 0)
(1.0977 0.0269535 0)
(0.966077 0.019993 0)
(0.579886 0.00628809 0)
(0.116792 0.000344022 0)
(0.11456 -0.000220296 0)
(0.771439 -0.00925605 0)
(1.05094 -0.0192813 0)
(1.10707 -0.0213317 0)
(1.08798 -0.0188665 0)
(1.06822 -0.0156168 0)
(1.05435 -0.0118735 0)
(1.04445 -0.0075341 0)
(1.03761 -0.00254836 0)
(1.03381 0.00311531 0)
(1.03396 0.00867379 0)
(1.03786 0.0133168 0)
(1.04513 0.0170125 0)
(1.05607 0.0200071 0)
(1.07202 0.0225883 0)
(1.09466 0.0249196 0)
(1.09115 0.0250051 0)
(0.931884 0.0172457 0)
(0.545523 0.00523612 0)
(0.109334 0.000293027 0)
(0.109657 -0.000169764 0)
(0.741524 -0.0074298 0)
(1.03361 -0.0164828 0)
(1.10843 -0.0190597 0)
(1.09351 -0.0168993 0)
(1.07347 -0.0137412 0)
(1.05933 -0.0100984 0)
(1.04924 -0.00589245 0)
(1.04218 -0.00108784 0)
(1.03812 0.00431247 0)
(1.03798 0.00953256 0)
(1.04166 0.0138119 0)
(1.04879 0.0171424 0)
(1.05973 0.0197895 0)
(1.07589 0.0220916 0)
(1.09739 0.0240683 0)
(1.08219 0.0233968 0)
(0.899243 0.0151533 0)
(0.516305 0.00450086 0)
(0.102992 0.000257092 0)
(0.10584 -0.000127838 0)
(0.716496 -0.00595813 0)
(1.01665 -0.0139739 0)
(1.10896 -0.0168749 0)
(1.09894 -0.0150066 0)
(1.07863 -0.0118756 0)
(1.0642 -0.00826998 0)
(1.05389 -0.00412624 0)
(1.04659 0.00055451 0)
(1.04221 0.00574661 0)
(1.04173 0.0106729 0)
(1.04512 0.0146139 0)
(1.05207 0.0176099 0)
(1.06296 0.0199293 0)
(1.07929 0.0219605 0)
(1.09879 0.0235394 0)
(1.0712 0.0221276 0)
(0.868273 0.0135983 0)
(0.490786 0.003992 0)
(0.0974259 0.000233241 0)
(0.102922 -9.15168e-05 0)
(0.695716 -0.00472492 0)
(1.00068 -0.011686 0)
(1.10877 -0.0147205 0)
(1.10418 -0.0130446 0)
(1.08378 -0.00987772 0)
(1.06904 -0.00625662 0)
(1.05847 -0.00214529 0)
(1.05088 0.00245272 0)
(1.04613 0.00747857 0)
(1.04521 0.012134 0)
(1.04823 0.0157412 0)
(1.05496 0.018381 0)
(1.06581 0.0203581 0)
(1.08226 0.0221362 0)
(1.09923 0.0233178 0)
(1.05848 0.0211891 0)
(0.838831 0.0124874 0)
(0.46789 0.00365289 0)
(0.0923814 0.00021881 0)
(0.100781 -5.82275e-05 0)
(0.678708 -0.0036436 0)
(0.986132 -0.0095512 0)
(1.10812 -0.0125337 0)
(1.10925 -0.0109815 0)
(1.089 -0.00776432 0)
(1.0739 -0.00407211 0)
(1.06303 9.48831e-05 0)
(1.05507 0.00467931 0)
(1.04984 0.00956813 0)
(1.04842 0.0139616 0)
(1.05102 0.017254 0)
(1.05747 0.0195729 0)
(1.06824 0.0212198 0)
(1.08476 0.0227213 0)
(1.09868 0.0234936 0)
(1.04419 0.0206241 0)
(0.810595 0.0117548 0)
(0.44677 0.00344809 0)
(0.0876556 0.000212362 0)
(0.0993573 -2.55826e-05 0)
(0.665174 -0.00264322 0)
(0.973373 -0.00748919 0)
(1.10726 -0.0102364 0)
(1.11422 -0.00873896 0)
(1.09435 -0.00544175 0)
(1.07889 -0.00161502 0)
(1.06764 0.00265252 0)
(1.05923 0.00727084 0)
(1.05342 0.0121009 0)
(1.05138 0.0162939 0)
(1.05347 0.0192601 0)
(1.05962 0.0212198 0)
(1.07027 0.0224927 0)
(1.08678 0.0237283 0)
(1.0969 0.024048 0)
(1.02841 0.02038 0)
(0.783176 0.0113355 0)
(0.426753 0.00334797 0)
(0.083091 0.000211734 0)
(0.0986342 8.44352e-06 0)
(0.65496 -0.00167038 0)
(0.962725 -0.00543373 0)
(1.10658 -0.00777423 0)
(1.11927 -0.00621199 0)
(1.09992 -0.00275936 0)
(1.08404 0.00125694 0)
(1.07234 0.00568269 0)
(1.06338 0.010396 0)
(1.05688 0.0151719 0)
(1.05408 0.0191335 0)
(1.05555 0.0217762 0)
(1.06131 0.0233693 0)
(1.07184 0.0242596 0)
(1.08829 0.0251978 0)
(1.09386 0.0250335 0)
(1.01116 0.0205137 0)
(0.756127 0.0112077 0)
(0.407274 0.00334164 0)
(0.0785561 0.00021695 0)
(0.0986317 4.16782e-05 0)
(0.64804 -0.000676329 0)
(0.95447 -0.0033043 0)
(1.10638 -0.00508447 0)
(1.12456 -0.00338627 0)
(1.10582 0.000263205 0)
(1.08947 0.00455576 0)
(1.07724 0.00924199 0)
(1.06761 0.0141174 0)
(1.06024 0.0188955 0)
(1.05653 0.0226526 0)
(1.05728 0.0249512 0)
(1.06259 0.0261644 0)
(1.07295 0.0266535 0)
(1.08904 0.0272182 0)
(1.08934 0.0264681 0)
(0.992278 0.0210329 0)
(0.728951 0.0113497 0)
(0.387822 0.00341919 0)
(0.0739308 0.000227157 0)
(0.0993888 8.0657e-05 0)
(0.644497 0.000354495 0)
(0.948941 -0.00102846 0)
(1.10702 -0.00206181 0)
(1.13023 -8.30399e-05 0)
(1.11213 0.00385411 0)
(1.09528 0.00848743 0)
(1.08241 0.0134788 0)
(1.07195 0.018584 0)
(1.06356 0.0234251 0)
(1.05875 0.0269954 0)
(1.05859 0.0289274 0)
(1.06334 0.029695 0)
(1.07353 0.0297421 0)
(1.08889 0.0298868 0)
(1.08318 0.0284072 0)
(0.971565 0.0219739 0)
(0.701112 0.0117519 0)
(0.367921 0.00357434 0)
(0.0691084 0.000241826 0)
(0.101114 0.000141375 0)
(0.644727 0.00151196 0)
(0.946503 0.00147466 0)
(1.10895 0.00137332 0)
(1.13655 0.00377799 0)
(1.11899 0.00813159 0)
(1.10155 0.0132025 0)
(1.08791 0.0185993 0)
(1.07646 0.0240082 0)
(1.06679 0.0289196 0)
(1.06067 0.0322716 0)
(1.05947 0.0337807 0)
(1.06355 0.0340825 0)
(1.07349 0.0336533 0)
(1.08765 0.0333035 0)
(1.07509 0.0309467 0)
(0.948684 0.0233638 0)
(0.672036 0.0124122 0)
(0.347121 0.00380275 0)
(0.0639918 0.0002605 0)
(0.103853 0.000201409 0)
(0.649046 0.00291063 0)
(0.947584 0.00435528 0)
(1.11262 0.00536832 0)
(1.1437 0.00831778 0)
(1.12658 0.0131956 0)
(1.10845 0.0188388 0)
(1.09384 0.0247683 0)
(1.08115 0.0305546 0)
(1.06994 0.0355872 0)
(1.06224 0.0387182 0)
(1.05984 0.0397186 0)
(1.06313 0.0394919 0)
(1.07276 0.0385202 0)
(1.08512 0.0376132 0)
(1.06477 0.0341665 0)
(0.92319 0.0252511 0)
(0.641102 0.013331 0)
(0.324985 0.00409995 0)
(0.058494 0.000282407 0)
(0.107893 0.000283093 0)
(0.658049 0.00458485 0)
(0.952657 0.00773597 0)
(1.11855 0.0101115 0)
(1.15195 0.0138163 0)
(1.13508 0.0194003 0)
(1.11612 0.0257306 0)
(1.10033 0.0322793 0)
(1.08609 0.0385099 0)
(1.073 0.0436568 0)
(1.06343 0.0464728 0)
(1.05961 0.0469016 0)
(1.06198 0.0460892 0)
(1.07126 0.0444932 0)
(1.08131 0.0429629 0)
(1.05178 0.0381867 0)
(0.894507 0.0276693 0)
(0.607631 0.0145021 0)
(0.301082 0.0044576 0)
(0.052541 0.000306448 0)
(0.113573 0.000393042 0)
(0.672447 0.0066726 0)
(0.962488 0.0118584 0)
(1.12734 0.015804 0)
(1.16171 0.0205024 0)
(1.14474 0.0270355 0)
(1.12472 0.03422 0)
(1.10745 0.0415164 0)
(1.09132 0.048247 0)
(1.07596 0.0534443 0)
(1.06418 0.0558076 0)
(1.05869 0.0555284 0)
(1.05998 0.054022 0)
(1.06884 0.0517368 0)
(1.07601 0.04946 0)
(1.03559 0.0430753 0)
(0.86193 0.0306289 0)
(0.570919 0.0159022 0)
(0.275032 0.00485888 0)
(0.0460846 0.000330616 0)
(0.121404 0.000548042 0)
(0.693223 0.00940639 0)
(0.977886 0.0170183 0)
(1.13962 0.0227927 0)
(1.17341 0.0287166 0)
(1.15589 0.0364662 0)
(1.13446 0.0447068 0)
(1.11527 0.0528809 0)
(1.09674 0.0601145 0)
(1.07862 0.0652832 0)
(1.06427 0.0670235 0)
(1.0569 0.0658371 0)
(1.05704 0.0634871 0)
(1.06541 0.060405 0)
(1.0689 0.057232 0)
(1.01553 0.0489142 0)
(0.824643 0.034132 0)
(0.530251 0.0174877 0)
(0.246531 0.00527859 0)
(0.0391167 0.000352231 0)
(0.132123 0.000770986 0)
(0.721682 0.0131726 0)
(1.00001 0.0236805 0)
(1.15616 0.0316436 0)
(1.1876 0.0391363 0)
(1.16884 0.048475 0)
(1.14551 0.0579484 0)
(1.12378 0.0670252 0)
(1.10224 0.0746417 0)
(1.08084 0.0794974 0)
(1.06355 0.0802929 0)
(1.05409 0.0779707 0)
(1.05302 0.0746321 0)
(1.06072 0.0706069 0)
(1.05942 0.0663155 0)
(0.990716 0.0557479 0)
(0.781719 0.038108 0)
(0.48498 0.0191719 0)
(0.215422 0.00567572 0)
(0.0316848 0.000367587 0)
(0.146991 0.00112459 0)
(0.759807 0.0185807 0)
(1.03052 0.0326118 0)
(1.17797 0.0432672 0)
(1.20513 0.0528054 0)
(1.18393 0.0641076 0)
(1.15788 0.0748954 0)
(1.13283 0.084758 0)
(1.10757 0.0924392 0)
(1.08231 0.0964932 0)
(1.06181 0.0958666 0)
(1.05011 0.0921056 0)
(1.04774 0.0875758 0)
(1.05437 0.082591 0)
(1.04686 0.076875 0)
(0.960058 0.0634841 0)
(0.732223 0.0424125 0)
(0.434664 0.0208133 0)
(0.181812 0.00599218 0)
(0.0239174 0.000372073 0)
(0.168153 0.00173351 0)
(0.810784 0.0267692 0)
(1.07192 0.0453327 0)
(1.20614 0.0594538 0)
(1.22667 0.0717717 0)
(1.20124 0.0848627 0)
(1.17131 0.0968148 0)
(1.14197 0.106985 0)
(1.11227 0.114054 0)
(1.0827 0.116644 0)
(1.05871 0.114025 0)
(1.04473 0.108407 0)
(1.04108 0.10246 0)
(1.04629 0.0964333 0)
(1.03043 0.0887546 0)
(0.922233 0.071917 0)
(0.675378 0.0467754 0)
(0.379358 0.022208 0)
(0.146263 0.00615135 0)
(0.0160566 0.000359754 0)
(0.198914 0.00306957 0)
(0.880283 0.0403125 0)
(1.12788 0.0656198 0)
(1.24104 0.0838393 0)
(1.25183 0.0988208 0)
(1.22016 0.113165 0)
(1.185 0.125364 0)
(1.15035 0.134723 0)
(1.11553 0.140062 0)
(1.0813 0.140133 0)
(1.05381 0.134736 0)
(1.03766 0.126849 0)
(1.03283 0.119263 0)
(1.03616 0.112029 0)
(1.00892 0.101858 0)
(0.875658 0.0805842 0)
(0.610969 0.050735 0)
(0.320307 0.0231451 0)
(0.110257 0.00609083 0)
(0.00856373 0.000321727 0)
(0.240928 0.00917704 1.01273e-20)
(0.972275 0.0670618 8.66303e-21)
(1.19607 0.0999328 -3.0119e-21)
(1.27955 0.120195 0)
(1.27782 0.137635 -7.56043e-35)
(1.23851 0.151455 1.10287e-21)
(1.19735 0.162096 -1.97689e-21)
(1.15693 0.16921 0)
(1.11671 0.171744 4.03796e-35)
(1.07754 0.168471 -2.42551e-21)
(1.04623 0.159788 0)
(1.02765 0.149364 -2.87181e-21)
(1.02162 0.140149 -8.46791e-21)
(1.02258 0.132151 -4.00347e-21)
(0.979056 0.118911 -1.20469e-21)
(0.815202 0.0912846 -7.15721e-22)
(0.53358 0.0549218 0)
(0.255781 0.0239904 5.01758e-22)
(0.074139 0.00613436 5.94329e-22)
(0.00154807 0.000278731 1.08432e-20)
(0.270087 0.0241247 7.53153e-21)
(1.04842 0.10928 1.07735e-22)
(1.25237 0.148807 8.08539e-22)
(1.31401 0.16903 0)
(1.30058 0.186772 -3.85615e-21)
(1.25412 0.198435 -4.36541e-21)
(1.207 0.20675 -1.99828e-21)
(1.16069 0.211366 -7.08269e-21)
(1.11471 0.211113 0)
(1.07004 0.204645 1.03197e-20)
(1.03433 0.192746 1.02172e-20)
(1.01285 0.179789 3.03325e-21)
(1.0046 0.168519 1.10427e-20)
(0.998649 0.157771 1.55071e-20)
(0.93317 0.13963 0)
(0.734952 0.103962 2.18768e-20)
(0.44357 0.060162 3.14249e-20)
(0.188382 0.0247922 3.49847e-20)
(0.0389065 0.00526098 -4.01422e-20)
(-0.00523897 -0.000344541 -7.64442e-22)
(0.271568 0.0406894 0)
(1.09683 0.163943 1.32657e-21)
(1.29035 0.208585 0)
(1.34077 0.228548 -5.09452e-21)
(1.3183 0.243626 0)
(1.26581 0.251432 -8.60971e-21)
(1.21308 0.256052 4.09245e-21)
(1.16116 0.257104 -1.42919e-20)
(1.10973 0.253253 -3.16963e-22)
(1.05984 0.242956 5.34952e-21)
(1.01987 0.227445 2.24764e-20)
(0.995555 0.211796 -5.163e-23)
(0.984872 0.198446 -8.02641e-21)
(0.972221 0.18489 -1.46162e-20)
(0.891813 0.161548 1.73142e-20)
(0.678734 0.117288 -3.07005e-20)
(0.393199 0.0656654 -4.06308e-21)
(0.156518 0.0257781 0)
(0.0234622 0.00408669 -2.17436e-24)
(-0.00832941 -0.00112533 0)
(0.265301 0.0546599 1.80862e-20)
(1.12306 0.2223 -8.6518e-21)
(1.31378 0.272925 -6.48106e-21)
(1.35835 0.293404 2.418e-21)
(1.32962 0.304848 -4.05351e-21)
(1.27264 0.308172 1.80757e-20)
(1.21529 0.30842 8.558e-21)
(1.15851 0.305263 0)
(1.10215 0.297268 -2.69067e-20)
(1.04742 0.282751 0)
(1.00344 0.263482 -1.18158e-20)
(0.976331 0.245052 -1.45594e-20)
(0.963169 0.229471 -8.7484e-21)
(0.945422 0.212867 -1.0622e-20)
(0.857258 0.184372 0)
(0.642681 0.132705 0)
(0.368603 0.0740762 -2.6513e-20)
(0.144851 0.0287536 5.25026e-21)
(0.0180793 0.00348426 -3.07936e-21)
(-0.00988684 -0.00191582 -3.64753e-21)
(0.257892 0.0669949 -7.50844e-21)
(1.13473 0.280645 0)
(1.32663 0.338323 1.3354e-20)
(1.36779 0.359768 6.83873e-21)
(1.33465 0.367571 9.367e-21)
(1.2744 0.366438 0)
(1.2134 0.362216 8.4025e-21)
(1.15257 0.354681 1.58625e-20)
(1.09194 0.342319 1.38095e-20)
(1.03293 0.323431 2.52443e-20)
(0.985254 0.300228 0)
(0.955381 0.278766 -3.14358e-20)
(0.939821 0.260931 -1.89248e-20)
(0.918282 0.24163 -1.11926e-20)
(0.827751 0.208422 6.8643e-20)
(0.619449 0.15034 8.18923e-21)
(0.359062 0.0854467 3.85483e-20)
(0.145817 0.0337771 -1.82605e-19)
(0.0197772 0.0040942 1.08223e-19)
(-0.00996169 -0.00247326 -1.32105e-19)
(0.250861 0.0781195 -3.91691e-21)
(1.13721 0.337103 1.35275e-21)
(1.33192 0.40294 -1.46631e-21)
(1.37073 0.425723 -7.01584e-21)
(1.33435 0.430082 -7.96377e-21)
(1.27162 0.424675 3.62976e-22)
(1.20776 0.416122 -9.10984e-21)
(1.14364 0.404293 1.64391e-20)
(1.0794 0.387605 -2.97469e-20)
(1.01655 0.364307 0)
(0.965396 0.337049 -1.42536e-20)
(0.93289 0.312586 -3.25587e-22)
(0.91507 0.292602 -2.07213e-20)
(0.890656 0.270632 0)
(0.801222 0.233164 -1.48923e-20)
(0.602796 0.169911 -3.54784e-20)
(0.357509 0.0990939 9.4807e-20)
(0.152612 0.0410243 -9.34372e-20)
(0.0262032 0.0063605 1.3294e-19)
(-0.00860117 -0.00259199 -1.39897e-19)
(0.245009 0.088438 -1.04471e-22)
(1.13403 0.39102 -5.42786e-22)
(1.33179 0.465752 -4.15283e-21)
(1.36863 0.490095 2.84097e-21)
(1.32981 0.491332 -4.01915e-21)
(1.2652 0.481907 0)
(1.19903 0.469265 -8.51136e-21)
(1.13214 0.453352 -1.72363e-20)
(1.06475 0.432506 -1.54822e-20)
(0.998423 0.404861 0)
(0.944083 0.373742 -1.4819e-20)
(0.909189 0.346604 -1.83352e-20)
(0.889155 0.324387 2.2502e-20)
(0.86254 0.299937 -1.36584e-20)
(0.775686 0.258609 -6.51545e-20)
(0.588343 0.190828 3.88418e-20)
(0.358446 0.114011 1.15865e-20)
(0.161572 0.0499141 0)
(0.0347137 0.0101049 -1.28833e-19)
(-0.00644549 -0.00228806 -4.78856e-21)
(0.240453 0.09828 1.15135e-22)
(1.12747 0.442236 8.23395e-24)
(1.32772 0.526196 1.94448e-21)
(1.36273 0.552174 1.01207e-20)
(1.32197 0.550641 -1.48724e-20)
(1.25591 0.537535 1.73545e-20)
(1.18785 0.521121 1.83462e-20)
(1.11859 0.501393 -2.75631e-20)
(1.04843 0.476611 9.53889e-21)
(0.978963 0.444829 -6.22141e-20)
(0.921761 0.410142 -1.67559e-20)
(0.884562 0.380255 0)
(0.862432 0.355762 2.44301e-20)
(0.834099 0.328998 2.92993e-20)
(0.7497 0.284274 3.51068e-20)
(0.573655 0.212251 -4.22567e-20)
(0.357893 0.129829 -1.25381e-20)
(0.169446 0.0601455 1.47278e-20)
(0.0432304 0.0148458 0)
(-0.00399038 -0.00163779 -1.04131e-20)
(0.237066 0.107744 -5.99841e-21)
(1.11913 0.49081 2.34113e-21)
(1.32099 0.584322 -1.72481e-21)
(1.35399 0.611598 6.14449e-21)
(1.31164 0.607602 -6.71503e-21)
(1.24446 0.591167 -8.24133e-22)
(1.17486 0.571352 -2.00529e-20)
(1.10356 0.548133 -9.97662e-21)
(1.03089 0.519661 -2.69332e-20)
(0.958557 0.48403 6.1586e-23)
(0.898673 0.445803 -5.25412e-20)
(0.85931 0.412954 4.42747e-20)
(0.835358 0.386297 -2.68658e-20)
(0.805646 0.357419 3.23236e-20)
(0.723186 0.309421 0)
(0.557455 0.233368 -2.29698e-20)
(0.354382 0.145704 6.26572e-24)
(0.17454 0.0705888 -6.43462e-20)
(0.0501592 0.0199255 -9.48189e-21)
(-0.00169157 -0.000813086 0)
(0.234744 0.117049 0)
(1.10995 0.536954 3.26015e-21)
(1.31231 0.639968 -1.34674e-21)
(1.3432 0.668193 -5.60602e-21)
(1.29951 0.661996 -8.51555e-21)
(1.23144 0.642592 0)
(1.16056 0.619738 -9.13508e-21)
(1.08747 0.593366 -2.18247e-22)
(1.01251 0.561496 5.77556e-20)
(0.937508 0.522251 -8.56095e-21)
(0.875022 0.480401 -3.79508e-20)
(0.833654 0.444634 2.30426e-20)
(0.808168 0.416072 -4.4612e-22)
(0.777085 0.385018 3.43972e-20)
(0.696154 0.333411 2.12267e-20)
(0.539386 0.253112 -4.96084e-20)
(0.347459 0.160626 5.88645e-20)
(0.175683 0.0802686 1.74582e-20)
(0.0544075 0.0245522 7.22303e-20)
(6.68687e-05 -2.23139e-05 -1.95376e-19)
(0.233396 0.126326 -3.03547e-21)
(1.10059 0.580849 3.40814e-21)
(1.3023 0.692836 -1.78258e-21)
(1.33099 0.721906 4.3299e-21)
(1.28612 0.713723 0)
(1.21736 0.691686 -8.01259e-21)
(1.1454 0.66615 3.06825e-20)
(1.07071 0.636955 2.19032e-20)
(0.993644 0.602007 0)
(0.916062 0.559329 -1.23292e-19)
(0.850998 0.513917 1.027e-19)
(0.807799 0.475523 0)
(0.780916 0.44505 3.14196e-20)
(0.748369 0.411379 -4.48336e-22)
(0.66842 0.355856 -6.79233e-20)
(0.519029 0.270781 2.66247e-20)
(0.337269 0.173674 0)
(0.172958 0.0882421 9.42381e-20)
(0.0555555 0.028071 0)
(0.00110279 0.000554245 -9.24995e-20)
(0.232843 0.135608 3.94135e-21)
(1.09141 0.622662 5.29325e-21)
(1.29137 0.742953 -1.55163e-21)
(1.31785 0.772752 0)
(1.27193 0.762773 -7.22457e-21)
(1.20262 0.738414 0)
(1.12974 0.710514 -3.03193e-20)
(1.05361 0.678809 -1.0194e-20)
(0.974577 0.641115 1.02069e-20)
(0.894448 0.595217 -6.10124e-20)
(0.826816 0.546495 1.06141e-20)
(0.781856 0.505662 0)
(0.753548 0.47283 -6.71276e-20)
(0.719512 0.435994 4.43334e-22)
(0.640116 0.376167 0)
(0.496734 0.285885 2.98381e-22)
(0.32388 0.184117 8.59576e-20)
(0.166848 0.0938986 -8.14231e-20)
(0.0541293 0.0300548 2.41044e-20)
(0.00144086 0.000814641 0)
(0.232742 0.144793 0)
(1.08263 0.66244 6.95364e-21)
(1.27993 0.790412 3.57331e-21)
(1.30416 0.820799 -5.03482e-22)
(1.25729 0.809176 -2.40425e-21)
(1.18755 0.782772 -1.79989e-20)
(1.11387 0.752801 1.13614e-20)
(1.03644 0.718887 -1.20198e-20)
(0.955543 0.678764 4.5547e-20)
(0.87288 0.629943 -9.75684e-20)
(0.802665 0.57824 -7.82552e-22)
(0.755867 0.534822 -2.94134e-20)
(0.726037 0.499032 1.08956e-19)
(0.690518 0.458699 -5.21409e-22)
(0.611137 0.394039 -5.27266e-20)
(0.472574 0.298248 -9.40812e-20)
(0.307815 0.191734 0)
(0.157702 0.0970437 0)
(0.0506505 0.0305493 2.60021e-20)
(0.00123752 0.00077219 -1.54435e-20)
(0.23319 0.153981 6.2224e-21)
(1.07438 0.700156 -1.64459e-20)
(1.26825 0.835301 -3.88738e-21)
(1.2902 0.866127 0)
(1.24249 0.852985 -3.17428e-22)
(1.17242 0.824785 -1.64816e-20)
(1.09805 0.793011 2.7461e-20)
(1.01943 0.757177 4.73822e-20)
(0.936753 0.714951 5.92336e-20)
(0.851565 0.663557 -7.97517e-20)
(0.778683 0.60915 -8.83741e-20)
(0.729841 0.562784 7.87043e-20)
(0.698405 0.523618 0)
(0.661361 0.479572 -2.39469e-20)
(0.58148 0.40937 -5.70281e-20)
(0.446811 0.307704 -6.75978e-20)
(0.289363 0.196332 -8.01135e-20)
(0.145935 0.0976257 2.3729e-20)
(0.0453856 0.0296839 -1.40016e-20)
(0.000703529 0.000501383 5.8402e-23)
(0.233953 0.162976 0)
(1.06674 0.736255 0)
(1.25652 0.877709 5.29303e-22)
(1.2762 0.908824 0)
(1.22774 0.894283 5.25065e-21)
(1.15741 0.864507 1.1174e-20)
(1.08247 0.831164 0)
(1.00276 0.79369 5.63158e-21)
(0.918387 0.74968 9.88961e-20)
(0.830681 0.696109 -1.83435e-19)
(0.754974 0.639182 0)
(0.703809 0.589537 -5.06773e-20)
(0.670671 0.546843 -6.15548e-22)
(0.631923 0.498606 -4.86091e-22)
(0.55117 0.421868 6.09957e-20)
(0.419958 0.314021 -3.8391e-23)
(0.268879 0.197775 -1.72491e-19)
(0.132205 0.0956593 5.1031e-20)
(0.0389572 0.0275018 1.51358e-20)
(-5.65249e-05 4.55171e-05 0)
(0.234761 0.171845 -2.67837e-20)
(1.05945 0.770701 -1.21153e-20)
(1.24481 0.917689 -1.40852e-20)
(1.26234 0.948966 8.61259e-21)
(1.21323 0.933139 6.09385e-21)
(1.14271 0.901993 0)
(1.06726 0.867303 1.66063e-20)
(0.986587 0.82845 -1.25435e-20)
(0.90059 0.78297 7.8985e-22)
(0.810386 0.72763 1.35154e-20)
(0.731641 0.668321 1.1456e-19)
(0.67783 0.615322 -1.77907e-20)
(0.642765 0.569047 -6.72287e-20)
(0.601935 0.515589 -2.79088e-20)
(0.520244 0.431145 3.31333e-20)
(0.392528 0.317014 -2.77635e-25)
(0.247144 0.195946 4.64574e-20)
(0.117454 0.0913154 -1.09786e-19)
(0.0321531 0.0243559 1.30229e-19)
(-0.000895204 -0.000531239 1.92314e-20)
(0.235359 0.180489 1.04439e-20)
(1.05254 0.803585 -7.02078e-21)
(1.23328 0.955354 1.29219e-21)
(1.24875 0.986672 7.09482e-21)
(1.19907 0.969662 9.69996e-23)
(1.12842 0.937314 -1.94314e-20)
(1.05257 0.901476 4.81477e-21)
(0.971017 0.86148 -5.23132e-20)
(0.883492 0.814828 -1.09105e-19)
(0.790807 0.75811 -1.09464e-19)
(0.708809 0.696619 0)
(0.651986 0.640504 -7.81359e-20)
(0.614549 0.590488 9.69339e-20)
(0.571048 0.530217 0)
(0.488679 0.436886 -7.09812e-20)
(0.364902 0.316319 4.23155e-20)
(0.225303 0.190644 -4.99418e-20)
(0.103015 0.0849993 -5.90654e-20)
(0.025706 0.020684 -1.04886e-19)
(-0.0016785 -0.00113219 -8.28117e-20)
(0.2363 0.188988 -1.2104e-20)
(1.04584 0.834882 7.52594e-21)
(1.22198 0.990764 1.66734e-20)
(1.23552 1.02203 1.13477e-20)
(1.18535 1.00394 5.84946e-22)
(1.11463 0.970551 -1.03513e-20)
(1.03847 0.933735 1.60721e-20)
(0.956141 0.892826 -5.37625e-20)
(0.867177 0.845275 -6.46451e-20)
(0.772057 0.787545 1.14637e-19)
(0.686602 0.724179 2.5196e-19)
(0.626371 0.665421 0)
(0.585879 0.611302 0)
(0.538889 0.542385 -3.21616e-20)
(0.456187 0.4389 0)
(0.337155 0.311048 9.09938e-20)
(0.204617 0.18114 1.07397e-19)
(0.090859 0.0767818 0)
(0.0208394 0.0169283 0)
(-0.00228432 -0.00166738 8.89861e-20)
(0.236878 0.197014 1.40797e-20)
(1.03939 0.864576 1.10863e-20)
(1.21099 1.02403 1.22851e-20)
(1.22272 1.05516 -1.21408e-20)
(1.17215 1.03609 -9.11887e-22)
(1.10141 1.00178 1.0414e-20)
(1.02502 0.964141 -2.20307e-20)
(0.94202 0.922515 -3.80991e-23)
(0.851726 0.874317 -1.03072e-21)
(0.754227 0.815917 -1.0168e-21)
(0.665178 0.751125 1.29876e-19)
(0.601097 0.690288 0)
(0.556691 0.631559 9.82531e-20)
(0.505156 0.552353 6.86722e-20)
(0.422048 0.437275 1.65684e-19)
(0.308639 0.299852 4.90156e-20)
(0.186375 0.165031 -5.7817e-20)
(0.0851134 0.0640522 -3.40423e-20)
(0.022724 0.0119598 0)
(-0.00142452 -0.00184784 9.56094e-20)
(0.237789 0.205053 -3.25104e-20)
(1.03314 0.892822 0)
(1.20029 1.05519 1.51443e-20)
(1.21036 1.08616 -1.07937e-20)
(1.15951 1.06619 3.3664e-21)
(1.08879 1.03109 -1.06715e-20)
(1.01226 0.99275 4.26095e-20)
(0.928692 0.950581 -4.43211e-21)
(0.83718 0.901961 0)
(0.737397 0.843189 -1.26683e-19)
(0.64469 0.777552 -2.82584e-19)
(0.576303 0.715197 1.15561e-20)
(0.527057 0.651322 1.35625e-19)
(0.469729 0.560778 0)
(0.385151 0.432728 1.11851e-19)
(0.27701 0.281761 0)
(0.168817 0.136917 0)
(0.0909046 0.0325119 -3.68141e-20)
(0.0556338 -0.00833916 0)
(0.0271309 0.0068594 2.56235e-20)
(0.238247 0.212503 -3.68868e-20)
(1.02707 0.919803 0)
(1.18989 1.08446 2.58169e-20)
(1.1984 1.11525 0)
(1.14739 1.09451 -2.74486e-21)
(1.07671 1.05876 0)
(1.00014 1.01988 2.07375e-21)
(0.916063 0.977365 7.40088e-21)
(0.823422 0.928572 8.12461e-21)
(0.721397 0.869745 -1.39177e-19)
(0.624971 0.803968 8.49574e-21)
(0.551719 0.740693 9.31468e-20)
(0.496583 0.671175 1.32487e-19)
(0.431845 0.568612 1.78614e-20)
(0.343695 0.426978 8.76978e-20)
(0.237524 0.257905 0)
(0.141023 0.0932367 1.21842e-19)
(0.0783025 -0.01205 -7.16506e-20)
(0.0326943 0.0583838 8.36966e-20)
(-0.0382337 0.454275 -9.94333e-20)
(0.238639 0.219782 3.08971e-20)
(1.02097 0.945413 4.59939e-20)
(1.1797 1.11216 0)
(1.1867 1.1429 1.07787e-21)
(1.1356 1.12164 9.4152e-21)
(1.06491 1.08549 1.08848e-20)
(0.988336 1.04633 1.46398e-20)
(0.903723 1.00381 0)
(0.809919 0.955258 5.38099e-20)
(0.705552 0.896912 -7.25926e-21)
(0.60511 0.83192 0)
(0.526067 0.768402 0)
(0.463397 0.692529 1.18602e-19)
(0.389247 0.576706 -5.51509e-20)
(0.294624 0.422118 -8.87634e-20)
(0.186129 0.231813 0)
(0.0799598 0.101835 6.18803e-20)
(0.00711604 0.465758 -7.20981e-20)
(0.0319371 1.92216 -4.06523e-20)
(0.0586687 2.82238 -4.97002e-20)
(0.238638 0.226479 -2.36727e-20)
(1.01487 0.969826 -5.98762e-20)
(1.16974 1.13828 1.58143e-20)
(1.17526 1.16895 1.20136e-20)
(1.12421 1.14737 0)
(1.05348 1.111 5.16736e-21)
(0.977059 1.07179 1.97044e-20)
(0.891862 1.02949 -3.57114e-21)
(0.79695 0.981495 8.02762e-21)
(0.690252 0.924092 1.3256e-19)
(0.585734 0.860741 1.42984e-19)
(0.500302 0.797856 1.04313e-19)
(0.428424 0.71532 1.19312e-19)
(0.343592 0.584357 -1.2945e-19)
(0.244394 0.421556 -1.33971e-19)
(0.121419 0.277621 0)
(0.0417564 0.873575 0)
(0.0896496 2.57708 3.44514e-20)
(0.0921493 3.20959 0)
(0.0931957 3.3886 9.02332e-20)
(0.24142 0.232689 0)
(1.00905 0.993406 0)
(1.15973 1.16267 0)
(1.16386 1.19326 3.83233e-21)
(1.11288 1.17148 9.21666e-21)
(1.04221 1.13515 8.70493e-22)
(0.966236 1.09616 1.25321e-20)
(0.880414 1.05428 -3.47825e-21)
(0.784449 1.00711 6.71022e-20)
(0.675493 0.951139 -1.91539e-21)
(0.566929 0.89019 2.82458e-19)
(0.474801 0.828908 -1.2037e-20)
(0.3917 0.740327 1.44807e-20)
(0.29716 0.589803 1.87362e-20)
(0.183747 0.439786 -4.02127e-22)
(0.0955798 1.01063 3.43865e-22)
(0.128025 2.75738 -1.80646e-19)
(0.132828 3.30071 -6.86344e-20)
(0.122567 3.42431 3.66709e-20)
(0.111441 3.44429 -4.14919e-20)
(0.163916 0.17775 1.47806e-20)
(0.999211 1.01887 0)
(1.14953 1.18559 -3.36121e-20)
(1.15288 1.21619 -3.41872e-20)
(1.10209 1.19444 2.47844e-20)
(1.03179 1.15841 2.12135e-22)
(0.955722 1.1194 -1.27624e-20)
(0.869435 1.07818 3.85711e-20)
(0.772496 1.03216 -5.50981e-20)
(0.661488 0.978177 0)
(0.548958 0.92028 1.39145e-19)
(0.450131 0.861147 -8.51588e-20)
(0.354174 0.770739 0)
(0.243707 0.597546 1.80434e-20)
(0.136943 0.791631 4.32575e-20)
(0.142404 2.55749 -4.95181e-20)
(0.191397 3.3302 5.65601e-20)
(0.173097 3.43651 3.07118e-20)
(0.143349 3.45507 3.52576e-20)
(0.123652 3.46355 5.65925e-20)
(0.276982 0.27186 -2.83681e-20)
(0.983002 1.03021 0)
(1.13202 1.21208 3.70851e-20)
(1.13882 1.24859 3.91732e-20)
(1.08514 1.22836 -2.98458e-20)
(1.0143 1.19273 -5.46441e-21)
(0.937094 1.15529 1.11126e-20)
(0.850268 1.11541 3.01214e-21)
(0.751949 1.07167 5.225e-20)
(0.638079 1.0218 1.1444e-19)
(0.520365 0.970762 7.82993e-21)
(0.410487 0.915486 7.55577e-20)
(0.287031 0.812805 1.36115e-20)
(0.207251 0.965939 -1.73134e-20)
(0.21311 2.42969 -3.95301e-20)
(0.26388 3.33649 3.95864e-20)
(0.246867 3.46424 -4.37595e-20)
(0.2123 3.48225 -2.54123e-20)
(0.178239 3.50619 -2.34488e-20)
(0.133115 3.50032 -3.42606e-21)
(0.267539 0.270991 0)
(0.98072 1.05368 1.11683e-20)
(1.12381 1.23607 -7.7669e-21)
(1.12825 1.27241 -4.80641e-21)
(1.07442 1.25188 -2.14884e-20)
(1.00363 1.21646 6.46413e-21)
(0.926119 1.17929 -5.38715e-21)
(0.839069 1.14029 2.68328e-21)
(0.74018 1.09806 -5.42816e-20)
(0.624953 1.05118 -2.89377e-21)
(0.50438 1.00512 -2.50864e-19)
(0.388818 0.951725 1.07791e-20)
(0.275462 0.887183 -1.28846e-20)
(0.241967 1.56105 -1.59621e-20)
(0.303408 3.14475 3.6571e-21)
(0.31731 3.46765 3.37803e-22)
(0.275401 3.51427 6.59339e-20)
(0.241228 3.53626 3.38909e-20)
(0.195388 3.55554 -1.174e-20)
(0.145415 3.55138 -1.74392e-20)
(0.253563 0.26921 2.90027e-20)
(0.977564 1.0798 7.62361e-20)
(1.11525 1.26218 -2.22983e-20)
(1.1173 1.29783 -1.81378e-20)
(1.06327 1.27688 0)
(0.992595 1.2415 1.58789e-20)
(0.915055 1.20465 -4.58001e-21)
(0.828031 1.16646 2.33121e-21)
(0.728877 1.12582 -6.03741e-21)
(0.612829 1.08221 -1.03079e-19)
(0.490249 1.04136 -1.1557e-19)
(0.370269 0.98978 -8.84763e-20)
(0.275162 1.03 -9.67438e-20)
(0.305702 2.3094 1.00106e-19)
(0.382547 3.39575 8.61617e-20)
(0.355538 3.52553 0)
(0.307164 3.5606 0)
(0.270374 3.59317 -9.24442e-21)
(0.225945 3.63798 0)
(0.156681 3.6216 -1.53571e-20)
(0.243701 0.271335 -4.37836e-20)
(0.972471 1.10686 -6.51995e-20)
(1.10535 1.2896 0)
(1.10516 1.32415 1.31092e-21)
(1.05094 1.30257 -2.48308e-20)
(0.980516 1.26714 2.82293e-20)
(0.90326 1.23062 -1.02034e-21)
(0.816487 1.19315 1.28237e-21)
(0.717319 1.15407 -3.80117e-20)
(0.600877 1.11374 5.13814e-21)
(0.477137 1.0779 0)
(0.353519 1.03271 0)
(0.299584 1.31659 -8.7872e-20)
(0.382467 2.97389 3.60818e-20)
(0.446794 3.49654 4.67388e-20)
(0.394138 3.56042 0)
(0.352136 3.61569 -6.23494e-21)