/*--------------------------------*- C++ -*----------------------------------*\
  =========                 |
  \\      /  F ield         | OpenFOAM: The Open Source CFD Toolbox
   \\    /   O peration     | Website:  https://openfoam.org
    \\  /    A nd           | Version:  6
     \\/     M anipulation  |
\*---------------------------------------------------------------------------*/
FoamFile
{
    version     2.0;
    format      ascii;
    class       surfaceScalarField;
    location    "1";
    object      phi;
}
// * * * * * * * * * * * * * * * * * * * * * * * * * * * * * * * * * * * * * //

dimensions      [0 3 -1 0 0 0 0];

internalField   nonuniform List<scalar> 
17370
(
-0.0714376
0.071615
0.288833
-0.0596562
0.0499659
0.356466
-0.0399239
0.0330758
0.423016
-0.0266821
0.0225456
0.503388
-0.0185091
0.0156122
0.602299
-0.0125561
0.0104689
0.721145
-0.00825024
0.00686576
0.864291
-0.00517626
0.0041695
1.03646
-0.00293536
0.00195697
1.24348
-0.000816673
-0.000153286
1.49216
0.00111972
-0.0022464
1.49232
0.00320665
-0.00441208
1.2439
0.00539917
-0.00702803
1.03727
0.0084745
-0.0106271
0.865059
0.0126476
-0.0157507
0.722161
0.0186519
-0.0227028
0.603266
0.0268024
-0.0331674
0.505804
0.0399947
-0.0500182
0.426192
0.0596917
-0.0716337
0.358718
0.0714436
0.217567
-0.178308
0.160426
0.0178826
-0.358825
0.358196
-0.022038
0.0226669
-0.429819
0.429355
-0.0225282
0.0229923
-0.510369
0.51073
-0.0229481
0.0225868
-0.607319
0.608808
-0.02145
0.0199615
-0.72514
0.727039
-0.01815
0.0162513
-0.867506
0.869491
-0.0142738
0.0122887
-1.03924
1.04116
-0.010354
0.00843772
-1.24568
1.24752
-0.00661374
0.00476737
-1.49402
1.49586
-0.00303406
0.00119532
-1.49381
1.4956
0.000611285
-0.00240079
-1.24505
1.24672
0.00419541
-0.00586748
-1.03826
1.04005
0.00761959
-0.00941626
-0.866474
0.868297
0.011234
-0.0130572
-0.723731
0.725642
0.0149659
-0.0168766
-0.605689
0.607419
0.0186708
-0.0204002
-0.507717
0.508814
0.0217999
-0.0228967
-0.427329
0.427336
0.0231896
-0.0231963
-0.359605
0.359711
0.0226738
-0.02278
-0.27994
0.275748
0.0221049
-0.0179133
-0.152825
0.151652
0.00117337
-0.00700005
0.00946355
-0.357862
0.355399
-0.0114094
0.0126584
-0.427057
0.425808
-0.0133946
0.0136937
-0.509317
0.509018
-0.0135353
0.0131257
-0.608505
0.608915
-0.0123186
0.0114153
-0.727136
0.72804
-0.0101768
0.00894646
-0.870029
0.871259
-0.00745101
0.00601143
-1.04183
1.04327
-0.00434099
0.00276972
-1.24854
1.25011
-0.000943171
-0.000816712
-1.49749
1.49925
0.0025563
-0.00432587
-1.49767
1.49944
0.0058177
-0.00739793
-1.24914
1.25072
0.00871169
-0.0100966
-1.04268
1.04406
0.0112214
-0.0123382
-0.870887
0.872003
0.0131386
-0.0138347
-0.728152
0.728848
0.0141503
-0.0142126
-0.609439
0.609502
0.0138323
-0.0130203
-0.51069
0.509878
0.0116983
-0.00968304
-0.428201
0.426186
0.00715351
-0.00406493
-0.35511
0.352022
0.00122142
-0.152748
0.151526
-0.15164
0.151295
0.000344493
-0.00171341
0.00253563
-0.353827
0.353004
-0.00347875
0.00433338
-0.424521
0.423667
-0.00523625
0.00597256
-0.508352
0.507616
-0.00662004
0.00698187
-0.608836
0.608474
-0.00710562
0.00697188
-0.728458
0.728591
-0.00657972
0.00600896
-0.872088
0.872659
-0.00518228
0.00426274
-1.0444
1.04532
-0.00310127
0.00191574
-1.25146
1.25265
-0.000495318
-0.000907649
-1.50081
1.50222
0.00228969
-0.00364229
-1.50096
1.50232
0.00473945
-0.00578231
-1.25198
1.25302
0.00658501
-0.00727575
-1.04502
1.04571
0.00771958
-0.00797061
-0.872575
0.872826
0.00796525
-0.00768688
-0.728936
0.728657
0.0072055
-0.00645843
-0.608996
0.608249
0.00565358
-0.00468266
-0.508677
0.507706
0.00376786
-0.00275349
-0.424453
0.423439
0.00186662
-0.000985326
-0.350321
0.34944
0.000372502
-0.1515
0.151128
-0.15097
0.150785
0.000185344
-0.000898538
0.00129033
-0.352431
0.352039
-0.00173372
0.00214163
-0.42309
0.422682
-0.00257471
0.00293391
-0.507158
0.506799
-0.00326415
0.00349358
-0.608203
0.607974
-0.00364546
0.00367558
-0.728601
0.728571
-0.00356892
0.00333471
-0.873009
0.873243
-0.00291901
0.00239765
-1.046
1.04652
-0.00167485
0.000890157
-1.2536
1.25439
9.28799e-05
-0.00107766
-1.50339
1.50437
0.00203359
-0.00293448
-1.50342
1.50432
0.00361463
-0.00419867
-1.2538
1.25438
0.00458074
-0.0048377
-1.04614
1.04639
0.00492664
-0.00487805
-0.872878
0.872829
0.00471242
-0.00441844
-0.728383
0.728089
0.00406307
-0.00360121
-0.60773
0.607268
0.00312931
-0.00258377
-0.507012
0.506466
0.00208154
-0.00154329
-0.422703
0.422165
0.00107267
-0.000594149
-0.348782
0.348303
0.000221867
-0.150768
0.150546
-0.150654
0.150562
9.22238e-05
-0.000412693
0.000593103
-0.351772
0.351591
-0.000801021
0.0009956
-0.422397
0.422202
-0.0012075
0.00139141
-0.506536
0.506352
-0.00157124
0.00170374
-0.607791
0.607658
-0.00179946
0.00182784
-0.728532
0.728504
-0.0017784
0.00164754
-0.87341
0.873541
-0.00139826
0.00106885
-1.04693
1.04726
-0.000594009
6.32814e-05
-1.25503
1.25556
0.000612025
-0.00128992
-1.50519
1.50587
0.00193647
-0.00251672
-1.50505
1.50563
0.00292102
-0.00322913
-1.25481
1.25512
0.00339164
-0.00345039
-1.04653
1.04659
0.00340608
-0.00326678
-0.872722
0.872582
0.00307186
-0.00280175
-0.7278
0.72753
0.00251867
-0.00218451
-0.606873
0.606539
0.00186975
-0.00152534
-0.506037
0.505693
0.00121922
-0.000899066
-0.421757
0.421437
0.000624781
-0.000349648
-0.347949
0.347674
0.000137004
-0.150376
0.150239
-0.150501
0.150463
3.75835e-05
-0.000162924
0.000234359
-0.351473
0.351401
-0.000316371
0.000392402
-0.422075
0.421999
-0.000473907
0.000542829
-0.506232
0.506163
-0.000606805
0.000648217
-0.607574
0.607533
-0.000666448
0.000649739
-0.728496
0.728512
-0.00058438
0.000472803
-0.873656
0.873767
-0.000284113
4.61135e-05
-1.04753
1.04777
0.00028979
-0.000660351
-1.256
1.25637
0.0011253
-0.00158063
-1.50643
1.50688
0.00199687
-0.00234524
-1.50608
1.50643
0.00256177
-0.00269315
-1.25533
1.25546
0.0027269
-0.00268205
-1.04659
1.04655
0.00257866
-0.0024125
-0.872426
0.87226
0.00222486
-0.00199329
-0.727281
0.727049
0.00176803
-0.00151567
-0.606252
0.605999
0.00128679
-0.00104293
-0.505407
0.505164
0.000830354
-0.000611003
-0.421176
0.420957
0.000424569
-0.000237883
-0.347451
0.347264
9.29199e-05
-0.150128
0.150035
-0.150444
0.150441
3.00383e-06
-1.04056e-05
1.41772e-05
-0.351367
0.351363
-1.68003e-05
1.68029e-05
-0.421964
0.421964
-1.24782e-05
2.48596e-06
-0.506136
0.506146
1.81027e-05
-4.913e-05
-0.607529
0.60756
0.000101183
-0.000170046
-0.728555
0.728624
0.000274796
-0.000402359
-0.873884
0.874012
0.000582382
-0.000786089
-1.04799
1.04819
0.00105283
-0.00133082
-1.25669
1.25697
0.00166138
-0.00196551
-1.50725
1.50756
0.00222078
-0.00240616
-1.50669
1.50688
0.00249327
-0.00250817
-1.25553
1.25554
0.00245695
-0.00234545
-1.04647
1.04636
0.00220545
-0.0020219
-0.872086
0.871902
0.00183675
-0.00162344
-0.72683
0.726616
0.00142592
-0.00121213
-0.605771
0.605557
0.00102312
-0.000825579
-0.504948
0.504751
0.000655595
-0.000481739
-0.420765
0.420591
0.000334723
-0.000187602
-0.347102
0.346955
7.28863e-05
-0.149955
0.149882
-0.150451
0.150472
-2.1356e-05
0.000101829
-0.000146929
-0.351386
0.351431
0.00020168
-0.000257508
-0.421994
0.42205
0.000326161
-0.000396968
-0.506188
0.506259
0.000485195
-0.000577366
-0.607623
0.607715
0.000693296
-0.00081519
-0.728719
0.728841
0.000968892
-0.00112963
-0.874154
0.874315
0.00132951
-0.00153309
-1.04839
1.04859
0.00177606
-0.00200844
-1.25722
1.25745
0.00226076
-0.00246747
-1.50781
1.50801
0.00261281
-0.00268242
-1.507
1.50707
0.00267276
-0.00259909
-1.25551
1.25544
0.00248397
-0.0023195
-1.04622
1.04605
0.00214469
-0.00193699
-0.871708
0.8715
0.00174005
-0.00152313
-0.726404
0.726187
0.00132845
-0.00112258
-0.605351
0.605145
0.000943618
-0.000758863
-0.504563
0.504378
0.00060137
-0.000441236
-0.420427
0.420267
0.000306337
-0.000171462
-0.346816
0.346681
6.6071e-05
-0.149814
0.149747
-0.150504
0.150546
-4.23802e-05
0.000197809
-0.000284772
-0.351497
0.351584
0.000389088
-0.00049345
-0.42213
0.422235
0.000618761
-0.000743996
-0.506357
0.506483
0.000894155
-0.00104407
-0.607836
0.607986
0.00122326
-0.00140114
-0.72899
0.729168
0.00161198
-0.00181841
-0.874497
0.874704
0.00205804
-0.00228514
-1.04881
1.04903
0.00253613
-0.00275634
-1.25767
1.25789
0.00297055
-0.00311813
-1.50819
1.50834
0.00318839
-0.00317255
-1.50709
1.50708
0.00308905
-0.00293846
-1.25533
1.25518
0.00276215
-0.00254055
-1.04586
1.04564
0.00232292
-0.00207688
-0.871275
0.871029
0.00185191
-0.00161045
-0.72596
0.725719
0.00139795
-0.00117662
-0.604934
0.604712
0.000986371
-0.000791645
-0.504191
0.503996
0.000626577
-0.00045949
-0.420106
0.419939
0.000319045
-0.000178506
-0.346546
0.346405
6.83737e-05
-0.149681
0.149613
-0.150599
0.150662
-6.28147e-05
0.000292255
-0.000420911
-0.351692
0.351821
0.000574855
-0.000728053
-0.422363
0.422516
0.000910659
-0.00109161
-0.506635
0.506816
0.00130627
-0.00151761
-0.608166
0.608377
0.00176581
-0.00200712
-0.729377
0.729618
0.00228599
-0.00255114
-0.874938
0.875203
0.00284825
-0.00311853
-1.04928
1.04955
0.00340236
-0.00363551
-1.25812
1.25835
0.00384044
-0.0039545
-1.50846
1.50858
0.00397048
-0.00388359
-1.50702
1.50694
0.00373105
-0.00350611
-1.25499
1.25476
0.00326509
-0.00297762
-1.04539
1.0451
0.002705
-0.00240455
-0.870758
0.870458
0.00213502
-0.00184977
-0.725458
0.725173
0.00160151
-0.00134492
-0.604476
0.604219
0.00112573
-0.000902308
-0.503789
0.503566
0.000713582
-0.000522985
-0.419762
0.419571
0.000363075
-0.000203078
-0.346256
0.346096
7.74961e-05
-0.14954
0.149463
-0.150736
0.150821
-8.58085e-05
0.000397894
-0.000572726
-0.351971
0.352146
0.000781648
-0.000989304
-0.422696
0.422903
0.00123632
-0.00148026
-0.507027
0.507271
0.00176825
-0.00205023
-0.608622
0.608904
0.00237908
-0.00269591
-0.729895
0.730212
0.00305804
-0.0033975
-0.875503
0.875842
0.00377145
-0.00410409
-1.04985
1.05018
0.00444332
-0.00471036
-1.2586
1.25887
0.00492816
-0.00502624
-1.50868
1.50878
0.00499966
-0.0048466
-1.50682
1.50666
0.00462347
-0.00431617
-1.2545
1.25419
0.00399907
-0.00363005
-1.04477
1.0444
0.00328606
-0.0029119
-0.870123
0.869749
0.00257941
-0.00223024
-0.724858
0.724509
0.00192798
-0.00161713
-0.603938
0.603627
0.00135244
-0.00108341
-0.503322
0.503052
0.000856486
-0.000627662
-0.419363
0.419134
0.000435829
-0.00024379
-0.345922
0.34573
9.28542e-05
-0.149379
0.149286
-0.15092
0.151033
-0.000113021
0.000523491
-0.000753546
-0.352347
0.352577
0.00102836
-0.0013012
-0.423142
0.423415
0.00162534
-0.00194498
-0.507551
0.507871
0.00232173
-0.00268958
-0.609227
0.609595
0.00311707
-0.00352723
-0.730573
0.730983
0.00399343
-0.00442754
-0.876226
0.87666
0.00490131
-0.00531794
-1.05055
1.05097
0.00573583
-0.00605664
-1.25916
1.25948
0.00630577
-0.00639966
-1.50887
1.50897
0.00633487
-0.00611202
-1.50648
1.50625
0.00580906
-0.00540404
-1.25384
1.25343
0.00499377
-0.00452181
-1.04399
1.04351
0.00408585
-0.00361461
-0.869329
0.868858
0.00319801
-0.00276214
-0.724119
0.723684
0.00238601
-0.00199997
-0.603281
0.602895
0.00167191
-0.00133875
-0.502754
0.502421
0.0010581
-0.000775247
-0.418881
0.418598
0.000538227
-0.000300981
-0.345517
0.34528
0.000114464
-0.149183
0.149068
-0.151162
0.151309
-0.000146964
0.000679547
-0.000977867
-0.35284
0.353138
0.00133411
-0.00168771
-0.423726
0.424079
0.00210758
-0.00252129
-0.508235
0.508648
0.00300829
-0.00348319
-0.610013
0.610488
0.00403415
-0.0045615
-0.731448
0.731976
0.00515917
-0.0057135
-0.877151
0.877705
0.00631557
-0.00684144
-1.05144
1.05196
0.00736395
-0.00775907
-1.25983
1.26023
0.00805653
-0.00815415
-1.50906
1.50916
0.00804991
-0.00774645
-1.50599
1.50569
0.00734725
-0.00682183
-1.25297
1.25245
0.00629444
-0.00569188
-1.04298
1.04238
0.00513783
-0.00454118
-0.868328
0.867731
0.00401519
-0.00346596
-0.723195
0.722645
0.00299281
-0.00250776
-0.602463
0.601978
0.00209584
-0.00167786
-0.502048
0.50163
0.00132589
-0.000971359
-0.418282
0.417927
0.000674388
-0.000377128
-0.345014
0.344717
0.00014339
-0.14894
0.148797
-0.151476
0.151666
-0.000189896
0.00087685
-0.0012616
-0.353477
0.353862
0.00172093
-0.00217665
-0.424481
0.424937
0.00271754
-0.00325025
-0.509118
0.509651
0.00387696
-0.00448754
-0.611027
0.611637
0.00519506
-0.00587128
-0.732573
0.733249
0.00663615
-0.00734382
-0.878332
0.879039
0.00810982
-0.00877593
-1.05256
1.05322
0.0094335
-0.00992574
-1.26067
1.26116
0.0102884
-0.0103949
-1.50926
1.50937
0.0102443
-0.00984188
-1.50534
1.50494
0.00932264
-0.00864552
-1.25185
1.25117
0.0079699
-0.00720088
-1.0417
1.04093
0.00649592
-0.00573832
-0.867059
0.866302
0.00507151
-0.00437623
-0.722028
0.721333
0.00377784
-0.00316492
-0.601433
0.60082
0.00264477
-0.00211722
-0.501161
0.500633
0.00167316
-0.00122589
-0.417529
0.417082
0.000851119
-0.00047593
-0.344383
0.344008
0.000180841
-0.148636
0.148455
-0.151882
0.152127
-0.000245028
0.00112964
-0.00162491
-0.354298
0.354793
0.0022161
-0.00280253
-0.425453
0.42604
0.00349829
-0.0041832
-0.510255
0.51094
0.00498847
-0.00577242
-0.612329
0.613113
0.0066799
-0.0075461
-0.734014
0.734881
0.00852424
-0.00942727
-0.879839
0.880742
0.0104021
-0.0112466
-1.05397
1.05482
0.0120759
-0.0126915
-1.26171
1.26233
0.0131367
-0.0132542
-1.50948
1.5096
0.0130446
-0.0125162
-1.50448
1.50395
0.0118444
-0.0109743
-1.2504
1.24953
0.0101098
-0.00912894
-1.04006
1.03908
0.0082315
-0.0072687
-0.865448
0.864485
0.00642221
-0.00554039
-0.72055
0.719668
0.00478189
-0.00400535
-0.60013
0.599354
0.00334652
-0.00267859
-0.50004
0.499372
0.00211649
-0.00155043
-0.416579
0.416013
0.00107625
-0.000601637
-0.343586
0.343112
0.000228522
-0.148252
0.148024
-0.152405
0.152722
-0.000316527
0.0014563
-0.00209413
-0.355355
0.355993
0.00285531
-0.00361019
-0.426705
0.42746
0.00450556
-0.00538649
-0.511716
0.512597
0.00642149
-0.00742817
-0.614001
0.615008
0.00859222
-0.00970174
-0.735861
0.736971
0.0109524
-0.0121045
-0.881762
0.882914
0.0133445
-0.0144146
-1.05577
1.05684
0.0154597
-0.0162285
-1.26302
1.26378
0.016774
-0.0169008
-1.50972
1.50985
0.0166121
-0.0159203
-1.50334
1.50265
0.0150522
-0.0139353
-1.24855
1.24743
0.0128301
-0.0115791
-1.03797
1.03672
0.0104368
-0.00921289
-0.863399
0.862175
0.00813801
-0.00701905
-0.718675
0.717556
0.00605722
-0.00507293
-0.59848
0.597495
0.00423819
-0.00339206
-0.49862
0.497774
0.00268008
-0.00196313
-0.415376
0.414659
0.00136257
-0.000761524
-0.342578
0.341977
0.000289126
-0.147767
0.147478
-0.153082
0.153492
-0.000409864
0.0018814
-0.00270448
-0.356718
0.357541
0.00368645
-0.00465987
-0.428317
0.42929
0.00581379
-0.00694842
-0.513597
0.514731
0.00828047
-0.0095747
-0.616149
0.617443
0.0110691
-0.0124911
-0.738227
0.739648
0.0140904
-0.0155594
-0.884215
0.885684
0.0171349
-0.0184881
-1.05804
1.05939
0.0198009
-0.0207567
-1.26464
1.2656
0.0214191
-0.0215475
-1.50998
1.51011
0.021149
-0.0202423
-1.50186
1.50095
0.0191206
-0.0176874
-1.24617
1.24473
0.016275
-0.0146808
-1.03531
1.03371
0.0132279
-0.0116731
-0.860796
0.859241
0.0103089
-0.0088898
-0.716295
0.714876
0.00767056
-0.00642331
-0.596387
0.59514
0.00536584
-0.00429416
-0.496822
0.49575
0.00339257
-0.00248476
-0.413852
0.412944
0.00172444
-0.000963578
-0.3413
0.34054
0.000365734
-0.147152
0.146786
-0.153959
0.154492
-0.000533184
0.00243954
-0.00350495
-0.358477
0.359542
0.0047755
-0.0060345
-0.430397
0.431656
0.00752602
-0.00899124
-0.51602
0.517485
0.0107093
-0.012376
-0.618911
0.620578
0.014297
-0.0161205
-0.741258
0.743082
0.0181653
-0.0200366
-0.887342
0.889214
0.0220339
-0.023739
-1.06091
1.06262
0.0253789
-0.0265567
-1.26666
1.26784
0.0273481
-0.0274599
-1.51023
1.51034
0.0269065
-0.0257153
-1.49991
1.49872
0.0242654
-0.0224272
-1.24311
1.24127
0.020624
-0.0185945
-1.03191
1.02989
0.0167485
-0.0147757
-0.857489
0.855517
0.0130464
-0.0112486
-0.713279
0.711481
0.00970464
-0.00812574
-0.593736
0.592158
0.00678742
-0.00543133
-0.494544
0.493188
0.00429057
-0.00314211
-0.411923
0.410775
0.00218029
-0.00121795
-0.339684
0.338722
0.000462015
-0.146375
0.145913
-0.155101
0.155799
-0.000697884
0.00318019
-0.00456614
-0.360756
0.362142
0.00621799
-0.00785352
-0.43309
0.434725
0.00978916
-0.0116883
-0.519153
0.521052
0.0139115
-0.0160638
-0.622472
0.624624
0.0185376
-0.020878
-0.745148
0.747488
0.0234914
-0.0258707
-0.891324
0.893704
0.0283937
-0.0305296
-1.06453
1.06667
0.0325599
-0.0339915
-1.26914
1.27057
0.0349121
-0.0349718
-1.51043
1.51049
0.0341968
-0.0326273
-1.49736
1.49579
0.0307524
-0.0283972
-1.23919
1.23684
0.0260987
-0.02352
-1.0276
1.02502
0.0211789
-0.0186802
-0.853296
0.850797
0.0164916
-0.0142175
-0.709458
0.707184
0.0122651
-0.010269
-0.590382
0.588386
0.00857726
-0.0068632
-0.491663
0.489949
0.00542136
-0.00396982
-0.409483
0.408032
0.00275424
-0.00153806
-0.337639
0.336423
0.000583106
-0.145394
0.144811
-0.156601
0.157523
-0.000922514
0.00417943
-0.00599499
-0.363727
0.365542
0.00815696
-0.0102953
-0.436594
0.438732
0.0128224
-0.0152969
-0.523218
0.525692
0.0181863
-0.0209747
-0.627072
0.629861
0.024167
-0.0271723
-0.75014
0.753145
0.0305079
-0.0335223
-0.896383
0.899398
0.0366891
-0.0393389
-1.06905
1.0717
0.0418173
-0.0435198
-1.27214
1.27384
0.0445452
-0.0444881
-1.5105
1.51045
0.0433943
-0.0413217
-1.49398
1.49191
0.0388994
-0.0358883
-1.23417
1.23116
0.032967
-0.0297004
-1.02211
1.01885
0.0267405
-0.0235845
-0.847988
0.844832
0.0208216
-0.0179511
-0.704629
0.701758
0.0154868
-0.0129669
-0.586143
0.583623
0.010831
-0.0086666
-0.488023
0.485859
0.00684581
-0.00501257
-0.4064
0.404567
0.0034772
-0.00194114
-0.335056
0.33352
0.000735499
-0.144156
0.143421
-0.158589
0.159826
-0.001237
0.00555836
-0.00796179
-0.367628
0.370031
0.0108196
-0.0136413
-0.441185
0.444007
0.016968
-0.0202156
-0.528524
0.531772
0.023993
-0.0276203
-0.633039
0.636667
0.0317478
-0.0356047
-0.75655
0.760407
0.0398467
-0.0436388
-0.902783
0.906575
0.0475698
-0.0508047
-1.07463
1.07787
0.0537611
-0.0557164
-1.27567
1.27763
0.0567747
-0.0564896
-1.51029
1.51001
0.0549365
-0.0521977
-1.48953
1.48679
0.0490765
-0.0452443
-1.22776
1.22393
0.0415502
-0.0374337
-1.01518
1.01106
0.0337092
-0.02974
-0.84129
0.837321
0.0262641
-0.0226512
-0.698537
0.694924
0.0195473
-0.0163714
-0.580793
0.577618
0.0136776
-0.0109463
-0.483427
0.480696
0.00864748
-0.00633211
-0.402507
0.400192
0.00439241
-0.00245164
-0.331794
0.329853
0.000928566
-0.142594
0.141666
-0.16127
0.162967
-0.0016969
0.00753186
-0.0107648
-0.372812
0.376045
0.0145994
-0.0183742
-0.447264
0.451038
0.0228066
-0.0271115
-0.535506
0.539811
0.0320861
-0.0368246
-0.640811
0.645549
0.0421636
-0.0470945
-0.764772
0.769703
0.052443
-0.0571474
-0.910809
0.915513
0.0619299
-0.0657719
-1.08141
1.08525
0.0691665
-0.0712838
-1.27968
1.2818
0.0722214
-0.0715258
-1.50955
1.50885
0.0693152
-0.0657028
-1.48364
1.48003
0.0617036
-0.0568632
-1.21962
1.21478
0.0522311
-0.0470869
-1.00645
1.00131
0.042437
-0.0374786
-0.83288
0.827921
0.0331301
-0.0286013
-0.690876
0.686347
0.0247025
-0.0207051
-0.574054
0.570056
0.0173086
-0.0138596
-0.477627
0.474178
0.0109531
-0.00802305
-0.397588
0.394658
0.00556662
-0.00310761
-0.32767
0.325211
0.00117721
-0.140621
0.139444
-0.164982
0.167404
-0.00242192
0.0105423
-0.0150058
-0.379826
0.38429
0.0202725
-0.0254269
-0.455437
0.460591
0.0314332
-0.0372109
-0.544791
0.550569
0.0438081
-0.0500037
-0.65097
0.657166
0.0568693
-0.0630918
-0.775256
0.781479
0.0696981
-0.075371
-0.920704
0.926377
0.0809766
-0.0853255
-1.08937
1.09372
0.0889757
-0.0910362
-1.28393
1.28599
0.0915696
-0.0901805
-1.50785
1.50646
0.0870416
-0.0823012
-1.47589
1.47115
0.0772242
-0.0711818
-1.20936
1.20332
0.0654497
-0.0591083
-0.995586
0.989245
0.0533786
-0.0472581
-0.822402
0.816281
0.0418722
-0.0362389
-0.681289
0.675656
0.0313658
-0.0263454
-0.565575
0.560554
0.0220603
-0.0176919
-0.470299
0.46593
0.0139987
-0.0102658
-0.391355
0.387623
0.00712973
-0.00398518
-0.322436
0.319292
0.00151193
-0.138113
0.136601
-0.170365
0.17417
-0.00380527
0.0158676
-0.0222997
-0.389612
0.396044
0.0297834
-0.0369976
-0.466699
0.473914
0.0452592
-0.0530504
-0.557304
0.565095
0.0617472
-0.0697144
-0.664228
0.672195
0.0783061
-0.0858728
-0.78839
0.795956
0.0936577
-0.10012
-0.93249
0.938952
0.106251
-0.110767
-1.09821
1.10273
0.114246
-0.115834
-1.28788
1.28947
0.115501
-0.113008
-1.50458
1.50209
0.108587
-0.102421
-1.46573
1.45957
0.096059
-0.0886392
-1.19661
1.18919
0.0816801
-0.0740239
-0.982255
0.974599
0.0671158
-0.0597223
-0.80953
0.802136
0.0531862
-0.0463033
-0.669406
0.662524
0.0402991
-0.0340538
-0.554937
0.548692
0.0286689
-0.0231227
-0.461
0.455454
0.0183872
-0.013557
-0.383384
0.378554
0.00946614
-0.00533149
-0.315717
0.311582
0.00203402
-0.13487
0.132836
-0.178858
0.187163
-0.008305
0.0292919
-0.0387185
-0.404154
0.41358
0.0492444
-0.059084
-0.482747
0.492587
0.0700122
-0.0800068
-0.574185
0.58418
0.0907876
-0.100318
-0.681081
0.690612
0.110237
-0.118654
-0.804061
0.812478
0.126966
-0.133552
-0.945591
0.952177
0.139449
-0.143421
-1.10708
1.11105
0.145977
-0.146426
-1.29058
1.29103
0.144563
-0.140421
-1.49884
1.4947
0.134282
-0.126367
-1.45257
1.44466
0.118517
-0.109592
-1.18102
1.1721
0.101349
-0.0923663
-0.966273
0.95729
0.0843058
-0.0756972
-0.794108
0.785499
0.0680794
-0.0600213
-0.655001
0.646943
0.0529409
-0.045511
-0.541765
0.534335
0.0390287
-0.0322409
-0.449163
0.442375
0.0263275
-0.02014
-0.372945
0.366757
0.0146896
-0.00874495
-0.306771
0.300826
0.00333685
-0.130492
0.127155
-0.196725
0.19969
-0.0029656
0.0198813
-0.0290997
-0.427066
0.436284
0.0398711
-0.0503387
-0.505049
0.515516
0.0621169
-0.0735162
-0.595374
0.606773
0.0856738
-0.0964768
-0.700518
0.711321
0.108426
-0.119021
-0.820761
0.831356
0.130016
-0.13943
-0.958319
0.967733
0.14876
-0.156194
-1.11433
1.12176
0.162751
-0.166966
-1.29057
1.29479
0.169075
-0.168165
-1.48947
1.48856
0.164157
-0.157475
-1.43571
1.42903
0.149734
-0.139991
-1.16237
1.15263
0.130492
-0.119173
-0.947673
0.936354
0.108727
-0.0971475
-0.776342
0.764762
0.0866516
-0.0753206
-0.638344
0.627013
0.0649936
-0.0542802
-0.526236
0.515522
0.0452167
-0.0355804
-0.434648
0.425012
0.0274895
-0.0193849
-0.3593
0.351195
0.0124862
-0.00571921
-0.293901
0.287134
0.0011209
-0.123067
0.121946
-0.210959
0.206527
0.00443217
0.001943
-0.00924713
-0.449032
0.456337
0.0188168
-0.0278524
-0.527205
0.536241
0.0385544
-0.0483381
-0.617882
0.627666
0.059247
-0.0691724
-0.722266
0.732191
0.0798046
-0.0894454
-0.841705
0.851346
0.0995058
-0.107892
-0.977136
0.985523
0.11646
-0.123003
-1.12936
1.1359
0.128781
-0.132248
-1.29907
1.30254
0.133451
-0.131901
-1.48724
1.48569
0.127392
-0.120411
-1.42192
1.41494
0.112422
-0.102706
-1.14274
1.13303
0.093484
-0.0830971
-0.925192
0.914805
0.073521
-0.0629967
-0.753284
0.74276
0.053657
-0.0440182
-0.615504
0.605865
0.0357966
-0.0273072
-0.504418
0.495928
0.0202409
-0.0134629
-0.413876
0.407098
0.00831525
-0.00362167
-0.339925
0.335231
0.000346012
0.00188756
-0.276331
0.274097
-0.00228312
-0.115099
0.117382
-0.215636
0.212344
0.00329247
0.000769605
-0.00589001
-0.465757
0.470877
0.0127706
-0.0199192
-0.545391
0.552539
0.0283276
-0.0364058
-0.637098
0.645176
0.0455449
-0.0540404
-0.741665
0.75016
0.063468
-0.071962
-0.860484
0.868978
0.0807134
-0.0884212
-0.993954
1.00166
0.096172
-0.102262
-1.14233
1.14842
0.107312
-0.110221
-1.30573
1.30864
0.111219
-0.109466
-1.48385
1.4821
0.104956
-0.0982071
-1.40775
1.401
0.0907267
-0.0819607
-1.12361
1.11484
0.0734665
-0.0642653
-0.90461
0.895409
0.0559466
-0.0469896
-0.733102
0.724146
0.0393656
-0.0315215
-0.596768
0.588924
0.0249986
-0.0182163
-0.487502
0.48072
0.0128465
-0.00780055
-0.399247
0.394201
0.00404028
-0.000870816
-0.327487
0.324317
-0.00117676
0.00244896
-0.26615
0.264878
-0.00233786
-0.111512
0.113849
-0.220354
0.217234
0.00312061
-0.000177018
-0.00405929
-0.478558
0.482794
0.00978043
-0.0160011
-0.5598
0.56602
0.0234261
-0.0303752
-0.652959
0.659909
0.0384539
-0.0460148
-0.758553
0.766114
0.0544046
-0.0620318
-0.877232
0.884859
0.0703304
-0.0773267
-1.00922
1.01621
0.0846237
-0.0900209
-1.15445
1.15984
0.0948776
-0.0977245
-1.31168
1.31452
0.0986428
-0.096782
-1.48027
1.4784
0.0926565
-0.086466
-1.39404
1.38785
0.0795797
-0.0712695
-1.10615
1.09784
0.0635802
-0.0553448
-0.886265
0.878029
0.0478465
-0.040152
-0.715629
0.707935
0.0333
-0.0264617
-0.581153
0.574314
0.0207245
-0.0150402
-0.474009
0.468325
0.0105125
-0.00612975
-0.387861
0.383478
0.00281036
-0.000282596
-0.31798
0.315452
-0.00157455
0.00257886
-0.258436
0.257431
-0.00214268
-0.108699
0.110842
-0.224832
0.222156
0.00267603
-0.000174891
-0.00352898
-0.489657
0.493361
0.00915708
-0.0147504
-0.572606
0.5782
0.0213021
-0.0278924
-0.666955
0.673545
0.0351451
-0.0422197
-0.77351
0.780584
0.0499965
-0.0571333
-0.892377
0.899514
0.0648755
-0.071663
-1.02337
1.03016
0.0785428
-0.0840652
-1.16542
1.17094
0.0889019
-0.0918278
-1.31735
1.32028
0.0929334
-0.0913422
-1.47665
1.47505
0.0875516
-0.0815669
-1.38121
1.37522
0.0750623
-0.0673415
-1.08959
1.08187
0.0601041
-0.0522275
-0.869628
0.861751
0.0452613
-0.0379906
-0.700103
0.692833
0.0317229
-0.0253416
-0.567439
0.561058
0.0200536
-0.0147994
-0.462296
0.457042
0.0104265
-0.00628379
-0.378049
0.373906
0.00332919
-0.00068847
-0.309988
0.307347
-0.00122856
0.00210915
-0.251775
0.250895
-0.00191189
-0.106249
0.10816
-0.229127
0.226744
0.00238236
0.00021506
-0.00409092
-0.499671
0.503546
0.00909476
-0.014499
-0.583904
0.589309
0.0210631
-0.0271989
-0.679854
0.68599
0.0340792
-0.0408109
-0.787403
0.794134
0.0483373
-0.0553061
-0.906649
0.913618
0.0630421
-0.0696725
-1.03699
1.04362
0.0766015
-0.0822519
-1.17652
1.18217
0.0872677
-0.090436
-1.32326
1.32643
0.0918574
-0.0909181
-1.47356
1.47262
0.0873915
-0.0817983
-1.36887
1.36328
0.0754696
-0.0678915
-1.07389
1.06631
0.0609525
-0.0530721
-0.853639
0.845758
0.0461495
-0.0390539
-0.685347
0.678251
0.0328903
-0.0266065
-0.554592
0.548308
0.021345
-0.0159716
-0.45138
0.446006
0.0117921
-0.00765424
-0.368851
0.364713
0.00436618
-0.00160223
-0.302286
0.299522
-0.000347673
0.00159555
-0.245645
0.244397
-0.00157027
-0.103873
0.105443
-0.233233
0.23138
0.0018529
0.00104704
-0.00486921
-0.509227
0.513049
0.0100223
-0.0150629
-0.595026
0.600067
0.0215113
-0.0275242
-0.692191
0.698204
0.0345496
-0.0410241
-0.80096
0.807435
0.0484054
-0.0552844
-0.920888
0.927767
0.0632301
-0.0699639
-1.05062
1.05735
0.0769891
-0.0830092
-1.18797
1.19399
0.0887767
-0.0923692
-1.32991
1.3335
0.0944152
-0.0938641
-1.47147
1.47092
0.0909547
-0.0853575
-1.35739
1.3518
0.0792269
-0.0717412
-1.05835
1.05086
0.06459
-0.0567265
-0.837606
0.829743
0.0496061
-0.0421542
-0.670629
0.663177
0.0359991
-0.029443
-0.541657
0.535101
0.0238997
-0.0184639
-0.440284
0.434849
0.0139557
-0.00944926
-0.359771
0.355264
0.00601471
-0.00296421
-0.294779
0.291728
0.000771328
0.000865693
-0.239522
0.237885
-0.00125487
-0.101431
0.102686
-0.237493
0.236033
0.00146026
0.00187564
-0.0056454
-0.518425
0.522195
0.0109845
-0.0161317
-0.605871
0.611018
0.022466
-0.028378
-0.704354
0.710266
0.0351556
-0.0418702
-0.814268
0.820982
0.0493214
-0.056738
-0.934792
0.942209
0.0645217
-0.0715789
-1.0645
1.07156
0.0793016
-0.0856708
-1.20025
1.20662
0.0916709
-0.0962611
-1.33732
1.34191
0.0991102
-0.0992828
-1.47056
1.47073
0.0967706
-0.0916593
-1.34619
1.34108
0.0855535
-0.0778822
-1.04271
1.03504
0.0705101
-0.0622612
-0.821313
0.813065
0.0547927
-0.0470504
-0.655316
0.647573
0.040242
-0.0333359
-0.528067
0.521161
0.0275277
-0.0215717
-0.428884
0.422928
0.0166378
-0.0119716
-0.350054
0.345388
0.00814056
-0.00458833
-0.286867
0.283314
0.00196552
7.55453e-05
-0.233143
0.231102
-0.000920869
-0.0990121
0.0999329
-0.242069
0.240761
0.00130762
0.00288269
-0.00682464
-0.52756
0.531502
0.0120607
-0.0173129
-0.616699
0.621951
0.0235182
-0.0295932
-0.71659
0.722665
0.0365424
-0.0431972
-0.827851
0.834506
0.0511524
-0.0582323
-0.94942
0.9565
0.0664544
-0.0738245
-1.0791
1.08647
0.0820213
-0.0891607
-1.21332
1.22046
0.0961272
-0.101207
-1.34663
1.35171
0.105126
-0.106245
-1.47101
1.47213
0.10463
-0.0998003
-1.33567
1.33084
0.0937935
-0.085894
-1.02698
1.01908
0.0781721
-0.0693406
-0.804055
0.795224
0.0614133
-0.0529348
-0.639087
0.630609
0.0455844
-0.0380395
-0.513649
0.506104
0.0316167
-0.0253086
-0.41645
0.410142
0.0198715
-0.0146815
-0.339658
0.334468
0.0103271
-0.00633861
-0.278276
0.274287
0.00333774
-0.00067376
-0.226168
0.223504
-0.000492742
-0.0964213
0.0969141
-0.246502
0.245624
0.000878652
0.00361909
-0.00800295
-0.536813
0.541197
0.0130683
-0.0184157
-0.627194
0.632542
0.0244753
-0.0306328
-0.728864
0.735022
0.0376765
-0.0447432
-0.841373
0.84844
0.0524564
-0.06002
-0.964069
0.971633
0.0686434
-0.0762584
-1.09456
1.10217
0.0850952
-0.0927864
-1.2278
1.23549
0.100576
-0.106901
-1.35755
1.36387
0.112123
-0.114269
-1.47358
1.47573
0.11343
-0.109376
-1.32602
1.32197
0.103641
-0.0954964
-1.01053
1.00239
0.0872584
-0.077913
-0.78563
0.776285
0.0689799
-0.0598576
-0.621286
0.612163
0.0517816
-0.0434178
-0.498013
0.48965
0.0364641
-0.0294004
-0.402915
0.395851
0.0234774
-0.0175558
-0.328454
0.322533
0.0128051
-0.00825158
-0.268931
0.264377
0.00462054
-0.00143206
-0.218547
0.215359
-0.0001756
-0.0935265
0.0937021
-0.251158
0.250446
0.00071212
0.00424768
-0.00844643
-0.546155
0.550354
0.0140628
-0.0191541
-0.638067
0.643158
0.0254564
-0.0316433
-0.741077
0.747264
0.0387606
-0.0456673
-0.855476
0.862383
0.0537677
-0.0613237
-0.979481
0.987037
0.0702661
-0.0786825
-1.11054
1.11895
0.0877056
-0.0962827
-1.24359
1.25217
0.105202
-0.112439
-1.37055
1.37779
0.119064
-0.122908
-1.47844
1.48228
0.123237
-0.12025
-1.31779
1.31481
0.114629
-0.10643
-0.993733
0.985534
0.0977865
-0.0875458
-0.765822
0.755581
0.0778828
-0.0676644
-0.601833
0.591615
0.0586867
-0.0493392
-0.480513
0.471165
0.041514
-0.033728
-0.388009
0.380223
0.027051
-0.0205306
-0.31593
0.30941
0.0151869
-0.0100298
-0.258574
0.253417
0.00596217
-0.002256
-0.210199
0.206492
0.000200133
-0.0905564
0.0903563
-0.255848
0.255384
0.000464409
0.00501119
-0.0092462
-0.555465
0.5597
0.014586
-0.0198715
-0.648687
0.653973
0.0261571
-0.0322915
-0.753349
0.759484
0.0396246
-0.0465397
-0.869525
0.87644
0.0547044
-0.0625986
-0.995294
1.00319
0.0717151
-0.0804393
-1.12753
1.13625
0.0901321
-0.0992623
-1.26106
1.27019
0.109102
-0.117917
-1.38579
1.39461
0.126109
-0.131413
-1.48662
1.49192
0.133537
-0.131608
-1.31182
1.30989
0.126808
-0.118804
-0.976784
0.96878
0.109531
-0.0983421
-0.744239
0.73305
0.0876354
-0.0760137
-0.580174
0.568552
0.0659357
-0.055374
-0.461098