/*--------------------------------*- C++ -*----------------------------------*\
  =========                 |
  \\      /  F ield         | OpenFOAM: The Open Source CFD Toolbox
   \\    /   O peration     | Website:  https://openfoam.org
    \\  /    A nd           | Version:  6
     \\/     M anipulation  |
\*---------------------------------------------------------------------------*/
FoamFile
{
    version     2.0;
    format      ascii;
    class       surfaceScalarField;
    location    "0.003";
    object      phi;
}
// * * * * * * * * * * * * * * * * * * * * * * * * * * * * * * * * * * * * * //

dimensions      [1 0 -1 0 0 0 0];

internalField   nonuniform List<scalar> 
999
(
-1.59162e-12
-2.44427e-12
-2.6148e-12
-2.27374e-12
-2.38742e-12
-1.93268e-12
-1.76215e-12
-1.81899e-12
-7.95808e-13
-5.68434e-13
4.54747e-13
1.08002e-12
3.97904e-13
7.95808e-13
1.13687e-12
9.09495e-13
-5.68434e-13
-1.13687e-12
-2.10321e-12
-1.93268e-12
-2.38742e-12
-1.59162e-12
-1.42109e-12
-1.47793e-12
-1.59162e-12
-2.33058e-12
-1.64846e-12
-2.21689e-12
-2.84217e-12
-2.72848e-12
-2.16005e-12
-1.42109e-12
-1.59162e-12
-1.64846e-12
-1.3074e-12
-1.02318e-12
-1.87583e-12
-2.44427e-12
-2.6148e-12
-1.81899e-12
-1.87583e-12
-1.93268e-12
-7.95808e-13
-4.54747e-13
4.54747e-13
3.41061e-13
7.38964e-13
5.11591e-13
4.54747e-13
1.7053e-13
7.95808e-13
1.13687e-13
-1.13687e-13
1.13687e-13
-2.84217e-13
-6.25278e-13
-1.3074e-12
-1.25056e-12
-1.64846e-12
-1.19371e-12
-1.81899e-12
-2.21689e-12
-1.47793e-12
-3.97904e-13
-4.54747e-13
2.27374e-13
7.95808e-13
5.11591e-13
6.25278e-13
2.27374e-13
1.13687e-12
1.87583e-12
2.38742e-12
1.93268e-12
2.04636e-12
2.21689e-12
2.21689e-12
1.76215e-12
1.3074e-12
6.82121e-13
9.09495e-13
1.7053e-13
-3.41061e-13
-8.52651e-13
-1.08002e-12
-1.25056e-12
-1.53477e-12
-1.59162e-12
-2.33058e-12
-2.89901e-12
-2.38742e-12
-3.18323e-12
-3.52429e-12
-3.69482e-12
-3.58114e-12
-3.29692e-12
-2.84217e-12
-2.78533e-12
-2.78533e-12
-1.7053e-12
-1.87583e-12
-1.02318e-12
-6.25278e-13
-1.53477e-12
-1.02318e-12
-1.42109e-12
-1.98952e-12
-1.3074e-12
-1.59162e-12
-1.59162e-12
-2.04636e-12
-2.10321e-12
-2.16005e-12
-2.50111e-12
-3.24007e-12
-3.46745e-12
-4.20641e-12
-4.94538e-12
-4.88853e-12
-5.45697e-12
-4.77485e-12
-3.80851e-12
-3.58114e-12
-2.67164e-12
-2.89901e-12
-2.67164e-12
-3.46745e-12
-3.24007e-12
-3.12639e-12
-2.84217e-12
-1.64846e-12
-1.19371e-12
-5.11591e-13
3.41061e-13
-6.82121e-13
-5.68434e-13
1.7053e-13
5.68434e-13
7.38964e-13
5.68434e-14
-4.54747e-13
-1.19371e-12
-5.68434e-13
-1.08002e-12
-6.25278e-13
-5.68434e-13
-9.09495e-13
-4.54747e-13
-2.27374e-13
-5.68434e-14
-5.11591e-13
5.68434e-13
5.68434e-13
1.13687e-13
5.68434e-14
1.19371e-12
-1.13687e-13
-2.27374e-13
-5.68434e-13
-9.66338e-13
-1.08002e-12
-1.42109e-12
-1.08002e-12
-7.95808e-13
-5.68434e-13
-5.11591e-13
-1.7053e-13
-5.68434e-13
-5.68434e-14
2.27374e-13
1.13687e-13
2.27374e-13
2.84217e-13
-7.95808e-13
-1.25056e-12
-5.11591e-13
-1.13687e-13
-3.97904e-13
1.7053e-13
5.11591e-13
-1.13687e-13
1.13687e-13
5.68434e-14
3.41061e-13
-2.27374e-13
-1.7053e-13
3.41061e-13
2.84217e-13
6.25278e-13
1.42109e-12
1.76215e-12
3.0127e-12
2.44427e-12
2.78533e-12
2.27374e-12
3.18323e-12
3.63798e-12
3.63798e-12
3.69482e-12
3.46745e-12
3.29692e-12
2.84217e-12
2.16005e-12
1.64846e-12
8.52651e-13
1.13687e-13
-1.08002e-12
-1.13687e-12
-2.16005e-12
-1.64846e-12
-1.81899e-12
-2.72848e-12
-2.67164e-12
-2.21689e-12
-1.76215e-12
-1.08002e-12
-1.13687e-12
-7.95808e-13
-1.13687e-13
7.95808e-13
1.25056e-12
1.08002e-12
1.36424e-12
1.76215e-12
1.25056e-12
9.66338e-13
3.41061e-13
-2.84217e-13
-7.95808e-13
-1.25056e-12
-1.81899e-12
-3.06954e-12
-3.35376e-12
-4.3201e-12
-4.54747e-12
-4.94538e-12
-5.17275e-12
-5.11591e-12
-4.49063e-12
-4.49063e-12
-4.26326e-12
-3.9222e-12
-2.50111e-12
-1.36424e-12
-4.54747e-13
-3.41061e-13
-1.13687e-12
-1.59162e-12
-1.42109e-12
-2.33058e-12
-3.0127e-12
-3.12639e-12
-3.0127e-12
-3.18323e-12
-3.12639e-12
-1.53477e-12
-1.47793e-12
-1.02318e-12
-1.59162e-12
-1.64846e-12
-2.27374e-12
-1.81899e-12
-1.7053e-12
-1.64846e-12
-1.08002e-12
-6.25278e-13
-6.25278e-13
-9.66338e-13
-1.08002e-12
-1.47793e-12
-2.10321e-12
-2.50111e-12
-3.12639e-12
-4.09273e-12
-4.3201e-12
-4.66116e-12
-4.37694e-12
-4.20641e-12
-4.09273e-12
-4.26326e-12
-3.69482e-12
-3.58114e-12
-4.09273e-12
-3.46745e-12
-3.9222e-12
-3.35376e-12
-4.20641e-12
-4.94538e-12
-5.74119e-12
-5.40012e-12
-6.19593e-12
-6.70752e-12
-6.30962e-12
-5.74119e-12
-5.79803e-12
-5.68434e-12
-5.96856e-12
-6.76437e-12
-6.99174e-12
-5.91172e-12
-6.36646e-12
-5.34328e-12
-5.17275e-12
-5.34328e-12
-5.91172e-12
-5.68434e-12
-5.40012e-12
-4.77485e-12
-3.9222e-12
-4.3201e-12
-4.43379e-12
-4.03588e-12
-4.83169e-12
-5.22959e-12
-4.718e-12
-4.718e-12
-4.09273e-12
-3.29692e-12
-3.41061e-12
-4.3201e-12
-4.83169e-12
-4.26326e-12
-4.20641e-12
-4.49063e-12
-3.69482e-12
-2.10321e-12
2.27374e-12
1.20508e-11
3.14913e-11
7.44649e-11
1.67688e-10
3.66015e-10
7.82791e-10
1.65403e-09
3.45858e-09
7.16261e-09
1.47027e-08
2.99188e-08
6.0344e-08
1.20622e-07
2.38938e-07
4.68986e-07
9.12005e-07
1.75687e-06
3.35222e-06
6.33456e-06
1.18531e-05
2.1959e-05
4.02717e-05
7.31017e-05
0.000131319
0.000233416
0.000410456
0.00071394
0.00122812
0.00208895
0.00351271
0.0058385
0.00959004
0.0155637
0.0249512
0.039506
0.0617639
0.0953258
0.145209
0.218269
0.323673
0.473418
0.682841
0.971071
1.36134
1.88109
2.56176
3.43822
4.54781
5.92893
7.61939
9.6545
12.0652
14.8765
18.1057
21.7621
25.8464
30.3509
35.2605
40.5537
46.2038
52.1806
58.4514
64.9827
71.741
78.6935
85.8091
93.0588
100.415
107.855
115.354
122.894
130.457
138.028
145.593
153.139
160.657
168.137
175.572
182.955
190.279
197.54
204.732
211.852
218.896
225.861
232.745
239.544
246.256
252.88
259.413
265.854
272.203
278.457
284.615
290.678
296.643
302.511
308.281
313.953
319.526
325.001
330.377
335.655
340.834
345.914
350.897
355.783
360.571
365.262
369.858
374.358
378.762
383.072
387.289
391.411
395.444
399.379
403.236
406.978
410.672
414.216
417.751
421.114
424.457
427.699
430.795
433.944
436.838
439.789
442.611
445.302
448.004
450.574
453.046
455.497
457.845
460.092
462.299
464.432
466.465
468.437
470.351
472.185
473.936
475.63
477.263
478.815
480.3
481.722
483.084
484.375
485.598
486.763
487.866
488.908
489.884
490.801
491.661
492.464
493.209
493.893
494.526
495.103
495.631
496.104
496.528
496.903
497.233
497.521
497.765
497.971
498.139
498.276
498.382
498.463
498.519
498.556
498.577
498.584
498.583
498.573
498.56
498.542
498.523
498.504
498.485
498.468
498.45
498.433
498.416
498.401
498.386
498.371
498.356
498.34
498.324
498.307
498.289
498.272
498.253
498.233
498.212
498.191
498.168
498.146
498.122
498.097
498.071
498.045
498.017
497.988
497.958
497.927
497.895
497.861
497.826
497.789
497.75
497.71
497.668
497.624
497.578
497.53
497.478
497.425
497.367
497.307
497.242
497.175
497.101
497.025
496.942
496.855
496.758
496.657
496.544
496.425
496.29
496.149
495.986
495.818
495.625
495.423
495.207
494.995
494.768
494.529
494.28
493.858
492.916
490.524
486.083
479.566
470.927
460.307
448.023
434.533
420.37
406.085
392.186
379.096
367.131
356.491
347.267
339.459
332.999
327.771
323.626
320.407
317.96
316.138
314.809
313.863
313.203
312.754
312.457
312.264
312.144
312.07
312.026
312
311.985
311.976
311.97
311.964
311.959
311.954
311.947
311.941
311.935
311.928
311.922
311.916
311.91
311.905
311.9
311.895
311.89
311.886
311.882
311.878
311.874
311.871
311.867
311.863
311.859
311.855
311.851
311.847
311.843
311.839
311.835
311.831
311.827
311.822
311.818
311.813
311.808
311.803
311.798
311.793
311.785
311.777
311.765
311.747
311.721
311.685
311.616
311.531
311.343
311.088
310.612
309.568
307.497
302.19
289.916
261.075
201.892
125.263
58.3112
19.8796
5.15022
1.13509
0.236182
0.0484914
0.00993634
0.00203596
0.00041721
8.54993e-05
1.75218e-05
3.59089e-06
7.35912e-07
1.50818e-07
3.0909e-08
6.33487e-09
1.29858e-09
2.66496e-10
5.51026e-11
1.18305e-11
2.93454e-12
1.01608e-12
6.60805e-13
6.25278e-13
5.40012e-13
6.46594e-13
6.11067e-13
5.47118e-13
4.54747e-13
4.83169e-13
5.25802e-13
4.40536e-13
4.40536e-13
4.76064e-13
4.47642e-13
3.97904e-13
4.1922e-13
4.33431e-13
4.83169e-13
4.83169e-13
4.9738e-13
4.1922e-13
3.62377e-13
4.1922e-13
4.68958e-13
4.12115e-13
4.54747e-13
3.97904e-13
4.83169e-13
4.9738e-13
4.76064e-13
3.76588e-13
3.05533e-13
2.77112e-13
1.35003e-13
2.13163e-13
2.70006e-13
2.70006e-13
3.48166e-13
3.2685e-13
2.4869e-13
3.2685e-13
3.62377e-13
4.40536e-13
4.26326e-13
4.76064e-13
4.47642e-13
4.47642e-13
4.1922e-13
3.55271e-13
2.98428e-13
1.27898e-13
5.68434e-14
0
1.20792e-13
5.68434e-14
1.63425e-13
1.7053e-13
1.77636e-13
2.55795e-13
3.62377e-13
4.76064e-13
5.25802e-13
5.18696e-13
4.9738e-13
4.68958e-13
4.9738e-13
5.11591e-13
4.90274e-13
4.68958e-13
4.90274e-13
4.40536e-13
4.68958e-13
5.04485e-13
4.1922e-13
3.62377e-13
2.34479e-13
2.06057e-13
1.84741e-13
2.62901e-13
2.41585e-13
1.27898e-13
2.62901e-13
2.34479e-13
2.98428e-13
1.77636e-13
7.81597e-14
2.13163e-14
-4.26326e-14
-1.20792e-13
-7.10543e-15
3.55271e-14
4.9738e-14
1.20792e-13
5.68434e-14
7.10543e-15
2.84217e-14
1.27898e-13
2.20268e-13
3.05533e-13
2.84217e-13
9.9476e-14
7.10543e-15
-2.84217e-14
4.26326e-14
5.68434e-14
1.06581e-13
1.49214e-13
4.9738e-14
9.23706e-14
2.13163e-14
-4.9738e-14
-1.13687e-13
-1.42109e-13
-1.91847e-13
-1.7053e-13
-1.63425e-13
-1.13687e-13
-2.84217e-14
-6.39488e-14
-1.20792e-13
-1.98952e-13
-1.27898e-13
-1.63425e-13
-1.63425e-13
-9.23706e-14
-8.52651e-14
-5.68434e-14
-4.26326e-14
1.42109e-14
-2.84217e-14
2.13163e-14
6.39488e-14
2.84217e-14
4.26326e-14
9.9476e-14
1.13687e-13
1.20792e-13
1.49214e-13
1.27898e-13
1.20792e-13
1.13687e-13
7.10543e-15
5.68434e-14
6.39488e-14
-7.10543e-15
8.52651e-14
1.35003e-13
5.68434e-14
5.68434e-14
-1.42109e-14
-4.9738e-14
-3.55271e-14
-9.23706e-14
-1.27898e-13
-1.42109e-13
-6.39488e-14
-5.68434e-14
-7.81597e-14
-8.52651e-14
-3.55271e-14
-2.13163e-14
-4.26326e-14
-1.42109e-14
5.68434e-14
7.10543e-15
-2.13163e-14
-7.10543e-15
0
-7.10543e-14
-1.35003e-13
-1.35003e-13
-1.35003e-13
-1.7053e-13
-1.84741e-13
-1.91847e-13
-1.7053e-13
-1.06581e-13
-2.13163e-14
4.26326e-14
-2.13163e-14
-2.84217e-14
-1.42109e-13
-7.10543e-15
3.55271e-14
2.13163e-14
9.9476e-14
1.63425e-13
1.7053e-13
1.06581e-13
1.49214e-13
2.55795e-13
2.41585e-13
1.42109e-13
1.13687e-13
1.42109e-14
1.20792e-13
1.7053e-13
1.13687e-13
1.49214e-13
1.84741e-13
1.35003e-13
5.68434e-14
0
-3.55271e-14
1.42109e-14
4.9738e-14
-1.42109e-14
-7.10543e-15
-5.68434e-14
-5.68434e-14
-7.81597e-14
-4.9738e-14
-5.68434e-14
-2.13163e-14
2.84217e-14
7.10543e-14
6.39488e-14
-2.13163e-14
-2.84217e-14
-1.13687e-13
-1.20792e-13
-1.20792e-13
-4.26326e-14
-1.63425e-13
-1.63425e-13
-1.06581e-13
-1.06581e-13
-8.52651e-14
-4.9738e-14
4.26326e-14
9.9476e-14
1.56319e-13
1.35003e-13
2.84217e-14
8.52651e-14
1.35003e-13
2.13163e-13
2.77112e-13
1.7053e-13
1.13687e-13
2.84217e-14
3.55271e-14
1.06581e-13
1.91847e-13
1.49214e-13
1.35003e-13
1.27898e-13
1.06581e-13
1.84741e-13
1.84741e-13
1.77636e-13
1.63425e-13
5.68434e-14
1.27898e-13
9.23706e-14
9.23706e-14
1.20792e-13
1.77636e-13
1.35003e-13
1.91847e-13
1.91847e-13
1.7053e-13
9.23706e-14
7.81597e-14
9.9476e-14
9.9476e-14
4.26326e-14
8.52651e-14
2.34479e-13
1.20792e-13
1.63425e-13
2.06057e-13
2.20268e-13
1.7053e-13
1.20792e-13
6.39488e-14
2.13163e-14
7.81597e-14
7.81597e-14
-7.10543e-14
-1.42109e-14
3.55271e-14
1.13687e-13
3.55271e-14
2.84217e-14
4.26326e-14
4.26326e-14
8.52651e-14
1.56319e-13
1.98952e-13
2.70006e-13
2.41585e-13
2.91323e-13
2.62901e-13
2.84217e-13
1.84741e-13
1.49214e-13
1.13687e-13
4.26326e-14
0
3.55271e-14
2.13163e-14
4.26326e-14
-1.42109e-14
0
-9.9476e-14
-4.9738e-14
-2.13163e-14
0
-2.13163e-14
4.26326e-14
3.55271e-14
)
;

boundaryField
{
    sides
    {
        type            calculated;
        value           nonuniform List<scalar> 2(6.19418e-27 5.23869e-13);
    }
    empty
    {
        type            empty;
        value           nonuniform 0();
    }
}


// ************************************************************************* //
