/*--------------------------------*- C++ -*----------------------------------*\
  =========                 |
  \\      /  F ield         | OpenFOAM: The Open Source CFD Toolbox
   \\    /   O peration     | Website:  https://openfoam.org
    \\  /    A nd           | Version:  6
     \\/     M anipulation  |
\*---------------------------------------------------------------------------*/
FoamFile
{
    version     2.0;
    format      ascii;
    class       volVectorField;
    location    "0.003";
    object      U;
}
// * * * * * * * * * * * * * * * * * * * * * * * * * * * * * * * * * * * * * //

dimensions      [0 1 -1 0 0 0 0];

internalField   nonuniform List<vector> 
1000
(
(-1.31286e-13 0 0)
(-2.91746e-14 0 0)
(-4.95968e-13 0 0)
(-7.87714e-13 0 0)
(-4.95968e-13 0 0)
(-1.75048e-13 0 0)
(-5.3973e-13 0 0)
(-5.68905e-13 0 0)
(4.37619e-14 0 0)
(-5.25143e-13 0 0)
(-1.75048e-13 0 0)
(2.04222e-13 0 0)
(3.20921e-13 0 0)
(1.89635e-13 0 0)
(2.1881e-13 0 0)
(2.62571e-13 0 0)
(1.02111e-13 0 0)
(-1.16698e-13 0 0)
(-5.54317e-13 0 0)
(-3.7927e-13 0 0)
(-3.93857e-13 0 0)
(-5.54317e-13 0 0)
(-2.62571e-13 0 0)
(-3.50095e-13 0 0)
(-3.7927e-13 0 0)
(-4.52206e-13 0 0)
(-4.37619e-13 0 0)
(-1.45873e-13 0 0)
(-6.71016e-13 0 0)
(-1.05029e-12 0 0)
(-5.10556e-13 0 0)
(-2.47984e-13 0 0)
(-4.37619e-13 0 0)
(-1.16698e-13 0 0)
(-7.14778e-13 0 0)
(-7.29365e-13 0 0)
(-7.29365e-13 0 0)
(-4.08444e-13 0 0)
(-9.33587e-13 0 0)
(-1.07946e-12 0 0)
(-4.37619e-13 0 0)
(-5.3973e-13 0 0)
(-4.66794e-13 0 0)
(-1.89635e-13 0 0)
(-8.75238e-14 0 0)
(-1.45873e-14 0 0)
(1.31286e-13 0 0)
(2.91746e-13 0 0)
(-7.29365e-14 0 0)
(8.20415e-27 0 0)
(3.64683e-13 0 0)
(8.75238e-14 0 0)
(3.06333e-13 0 0)
(7.29365e-14 0 0)
(-4.37619e-14 0 0)
(-1.89635e-13 0 0)
(1.45873e-14 0 0)
(-2.33397e-13 0 0)
(-3.32394e-26 0 0)
(-5.3973e-13 0 0)
(-2.77159e-13 0 0)
(-4.95968e-13 0 0)
(-1.45873e-14 0 0)
(-4.23032e-13 0 0)
(7.29365e-14 0 0)
(2.91746e-14 0 0)
(2.04222e-13 0 0)
(2.47984e-13 0 0)
(5.83492e-14 0 0)
(-1.02111e-13 0 0)
(7.29365e-14 0 0)
(7.87714e-13 0 0)
(6.27254e-13 0 0)
(4.37619e-14 0 0)
(4.66794e-13 0 0)
(1.02111e-12 0 0)
(6.27254e-13 0 0)
(1.12322e-12 0 0)
(5.25143e-13 0 0)
(1.89635e-13 0 0)
(1.6046e-13 0 0)
(1.89635e-13 0 0)
(-2.77159e-13 0 0)
(2.1881e-13 0 0)
(-2.77159e-13 0 0)
(-7.14778e-13 0 0)
(-5.68905e-13 0 0)
(-1.89635e-13 0 0)
(-2.77159e-13 0 0)
(-8.75238e-13 0 0)
(-6.12667e-13 0 0)
(-6.85603e-13 0 0)
(-7.87714e-13 0 0)
(-8.60651e-13 0 0)
(-1.0357e-12 0 0)
(-5.25143e-13 0 0)
(-6.85603e-13 0 0)
(-6.85603e-13 0 0)
(-5.3973e-13 0 0)
(-4.37619e-14 0 0)
(-1.31286e-13 0 0)
(3.26904e-27 0 0)
(1.45873e-13 0 0)
(-1.16698e-13 0 0)
(-1.6046e-13 0 0)
(-2.62571e-13 0 0)
(-1.75048e-13 0 0)
(-5.54317e-13 0 0)
(1.31286e-13 0 0)
(-8.75238e-14 0 0)
(-3.50095e-13 0 0)
(-6.41841e-13 0 0)
(-2.77159e-13 0 0)
(-3.20921e-13 0 0)
(-3.64683e-13 0 0)
(-6.41841e-13 0 0)
(-9.62762e-13 0 0)
(-1.44414e-12 0 0)
(-1.86717e-12 0 0)
(-1.07946e-12 0 0)
(-1.16698e-12 0 0)
(-9.33587e-13 0 0)
(-8.02302e-13 0 0)
(-8.16889e-13 0 0)
(-8.31476e-13 0 0)
(-5.54317e-13 0 0)
(-9.33587e-13 0 0)
(-7.87714e-13 0 0)
(-6.71016e-13 0 0)
(-4.95968e-13 0 0)
(-5.54317e-13 0 0)
(-2.33397e-13 0 0)
(-7.29365e-14 0 0)
(-2.47984e-13 0 0)
(3.50095e-13 0 0)
(-2.91746e-14 0 0)
(1.45873e-14 0 0)
(-1.45873e-13 0 0)
(4.37619e-14 0 0)
(-2.91746e-14 0 0)
(-1.6046e-13 0 0)
(-1.16698e-13 0 0)
(-3.50095e-13 0 0)
(-4.23032e-13 0 0)
(-2.91746e-13 0 0)
(-2.04222e-13 0 0)
(-2.1881e-13 0 0)
(-1.75048e-13 0 0)
(8.75238e-14 0 0)
(-2.1881e-13 0 0)
(-1.89635e-13 0 0)
(-7.29365e-14 0 0)
(-1.31286e-13 0 0)
(-3.06333e-13 0 0)
(-8.75238e-14 0 0)
(1.31286e-13 0 0)
(2.91746e-14 0 0)
(-7.04295e-27 0 0)
(-2.33397e-13 0 0)
(8.75238e-14 0 0)
(-5.10556e-13 0 0)
(-7.29365e-14 0 0)
(-1.75048e-13 0 0)
(-2.04222e-13 0 0)
(-3.7927e-13 0 0)
(-2.1881e-13 0 0)
(1.6046e-13 0 0)
(3.50095e-13 0 0)
(-1.89635e-13 0 0)
(1.45873e-14 0 0)
(1.75048e-13 0 0)
(-4.23032e-13 0 0)
(2.62571e-13 0 0)
(-1.6046e-13 0 0)
(-1.31286e-13 0 0)
(-2.33397e-13 0 0)
(2.77159e-13 0 0)
(-1.89635e-13 0 0)
(-7.73084e-27 0 0)
(1.45873e-14 0 0)
(-3.64454e-27 0 0)
(-5.83492e-14 0 0)
(1.75048e-13 0 0)
(4.66794e-13 0 0)
(4.37619e-14 0 0)
(-2.91746e-14 0 0)
(-1.89635e-13 0 0)
(-3.60352e-27 0 0)
(2.47984e-13 0 0)
(2.33397e-13 0 0)
(5.54317e-13 0 0)
(4.66794e-13 0 0)
(7.14778e-13 0 0)
(8.02302e-13 0 0)
(1.07946e-12 0 0)
(5.3973e-13 0 0)
(8.46063e-13 0 0)
(7.5854e-13 0 0)
(8.16889e-13 0 0)
(4.95968e-13 0 0)
(1.12322e-12 0 0)
(7.14778e-13 0 0)
(8.89825e-13 0 0)
(3.7927e-13 0 0)
(3.64683e-13 0 0)
(2.47984e-13 0 0)
(-3.20921e-13 0 0)
(-3.93857e-13 0 0)
(-2.91746e-14 0 0)
(-1.31286e-13 0 0)
(-4.37619e-13 0 0)
(-7.0019e-13 0 0)
(-9.48175e-13 0 0)
(-6.71016e-13 0 0)
(-4.52206e-13 0 0)
(-9.33587e-13 0 0)
(-2.33397e-13 0 0)
(-4.37619e-13 0 0)
(-3.64683e-13 0 0)
(8.75238e-14 0 0)
(3.20921e-13 0 0)
(8.75238e-14 0 0)
(3.06333e-13 0 0)
(5.98079e-13 0 0)
(1.89635e-13 0 0)
(2.04222e-13 0 0)
(3.93857e-13 0 0)
(-4.37619e-14 0 0)
(8.75238e-14 0 0)
(-3.20921e-13 0 0)
(-2.77159e-13 0 0)
(-6.71016e-13 0 0)
(-1.05029e-12 0 0)
(-1.41497e-12 0 0)
(-1.29827e-12 0 0)
(-1.22533e-12 0 0)
(-1.02111e-12 0 0)
(-1.2691e-12 0 0)
(-1.42956e-12 0 0)
(-9.91936e-13 0 0)
(-1.34203e-12 0 0)
(-1.32744e-12 0 0)
(-1.00652e-12 0 0)
(-9.19e-13 0 0)
(-4.66794e-13 0 0)
(-1.31286e-13 0 0)
(-8.16889e-13 0 0)
(-4.66794e-13 0 0)
(-3.06333e-13 0 0)
(-8.16889e-13 0 0)
(-4.23032e-13 0 0)
(-9.33587e-13 0 0)
(-7.0019e-13 0 0)
(-6.56429e-13 0 0)
(-1.29827e-12 0 0)
(-8.89825e-13 0 0)
(-1.75048e-13 0 0)
(-4.08444e-13 0 0)
(-5.3973e-13 0 0)
(-4.81381e-13 0 0)
(-4.37619e-13 0 0)
(-7.14778e-13 0 0)
(-5.83492e-13 0 0)
(-3.20921e-13 0 0)
(-3.06333e-13 0 0)
(-1.45873e-13 0 0)
(-2.77159e-13 0 0)
(-3.35508e-13 0 0)
(-1.6046e-13 0 0)
(-3.64683e-13 0 0)
(-2.04222e-13 0 0)
(-8.02302e-13 0 0)
(-3.06333e-13 0 0)
(-8.02302e-13 0 0)
(-1.42956e-12 0 0)
(-1.02111e-12 0 0)
(-1.7213e-12 0 0)
(-1.06487e-12 0 0)
(-1.06487e-12 0 0)
(-1.34203e-12 0 0)
(-1.23992e-12 0 0)
(-9.62762e-13 0 0)
(-7.87714e-13 0 0)
(-8.89825e-13 0 0)
(-1.18157e-12 0 0)
(-1.13781e-12 0 0)
(-1.31286e-12 0 0)
(-1.00652e-12 0 0)
(-1.25451e-12 0 0)
(-1.28368e-12 0 0)
(-1.63378e-12 0 0)
(-1.76506e-12 0 0)
(-1.86717e-12 0 0)
(-1.19616e-12 0 0)
(-1.13781e-12 0 0)
(-1.1524e-12 0 0)
(-1.31286e-12 0 0)
(-1.29827e-12 0 0)
(-1.75048e-12 0 0)
(-1.7213e-12 0 0)
(-1.89635e-12 0 0)
(-1.42956e-12 0 0)
(-1.37121e-12 0 0)
(-1.80883e-12 0 0)
(-1.70671e-12 0 0)
(-1.38579e-12 0 0)
(-1.89635e-12 0 0)
(-1.16698e-12 0 0)
(-1.13781e-12 0 0)
(-1.1524e-12 0 0)
(-9.77349e-13 0 0)
(-1.2691e-12 0 0)
(-9.77349e-13 0 0)
(-1.2691e-12 0 0)
(-1.32744e-12 0 0)
(-8.31476e-13 0 0)
(-1.28368e-12 0 0)
(-6.56429e-13 0 0)
(-4.81381e-13 0 0)
(-8.02302e-13 0 0)
(-1.00652e-12 0 0)
(-1.28368e-12 0 0)
(-1.13781e-12 0 0)
(-9.33587e-13 0 0)
(-9.48175e-13 0 0)
(-6.85603e-13 0 0)
(7.29365e-14 0 0)
(1.9547e-12 0 0)
(5.17849e-12 0 0)
(1.35808e-11 0 0)
(3.03562e-11 0 0)
(6.66785e-11 0 0)
(1.44312e-10 0 0)
(3.05619e-10 0 0)
(6.40397e-10 0 0)
(1.33112e-09 0 0)
(2.7398e-09 0 0)
(5.59147e-09 0 0)
(1.13104e-08 0 0)
(2.2676e-08 0 0)
(4.50545e-08 0 0)
(8.87059e-08 0 0)
(1.73044e-07 0 0)
(3.34421e-07 0 0)
(6.4019e-07 0 0)
(1.21379e-06 0 0)
(2.27898e-06 0 0)
(4.23679e-06 0 0)
(7.79776e-06 0 0)
(1.42061e-05 0 0)
(2.56147e-05 0 0)
(4.57027e-05 0 0)
(8.06797e-05 0 0)
(0.000140891 0 0)
(0.000243348 0 0)
(0.000415643 0 0)
(0.000701911 0 0)
(0.00117175 0 0)
(0.00193327 0 0)
(0.00315189 0 0)
(0.00507675 0 0)
(0.00807691 0 0)
(0.0126899 0 0)
(0.0196849 0 0)
(0.0301422 0 0)
(0.0455503 0 0)
(0.0679185 0 0)
(0.0999027 0 0)
(0.144935 0 0)
(0.207346 0 0)
(0.292467 0 0)
(0.40669 0 0)
(0.55746 0 0)
(0.7532 0 0)
(1.00313 0 0)
(1.31701 0 0)
(1.70476 0 0)
(2.17607 0 0)
(2.73997 0 0)
(3.40437 0 0)
(4.17572 0 0)
(5.05872 0 0)
(6.05619 0 0)
(7.16904 0 0)
(8.39633 0 0)
(9.73547 0 0)
(11.1825 0 0)
(12.7324 0 0)
(14.3791 0 0)
(16.1165 0 0)
(17.9378 0 0)
(19.8363 0 0)
(21.8056 0 0)
(23.8393 0 0)
(25.9315 0 0)
(28.0769 0 0)
(30.2703 0 0)
(32.5072 0 0)
(34.7834 0 0)
(37.0952 0 0)
(39.4394 0 0)
(41.813 0 0)
(44.2133 0 0)
(46.6382 0 0)
(49.0855 0 0)
(51.5533 0 0)
(54.0401 0 0)
(56.5445 0 0)
(59.0649 0 0)
(61.6004 0 0)
(64.1497 0 0)
(66.712 0 0)
(69.2861 0 0)
(71.8714 0 0)
(74.467 0 0)
(77.0721 0 0)
(79.6861 0 0)
(82.3083 0 0)
(84.938 0 0)
(87.5747 0 0)
(90.2179 0 0)
(92.867 0 0)
(95.5216 0 0)
(98.1811 0 0)
(100.845 0 0)
(103.513 0 0)
(106.185 0 0)
(108.861 0 0)
(111.539 0 0)
(114.221 0 0)
(116.904 0 0)
(119.59 0 0)
(122.278 0 0)
(124.967 0 0)
(127.658 0 0)
(130.351 0 0)
(133.044 0 0)
(135.738 0 0)
(138.432 0 0)
(141.127 0 0)
(143.823 0 0)
(146.518 0 0)
(149.213 0 0)
(151.908 0 0)
(154.603 0 0)
(157.296 0 0)
(159.99 0 0)
(162.682 0 0)
(165.373 0 0)
(168.062 0 0)
(170.752 0 0)
(173.437 0 0)
(176.123 0 0)
(178.805 0 0)
(181.486 0 0)
(184.164 0 0)
(186.839 0 0)
(189.512 0 0)
(192.181 0 0)
(194.846 0 0)
(197.509 0 0)
(200.166 0 0)
(202.819 0 0)
(205.468 0 0)
(208.111 0 0)
(210.748 0 0)
(213.379 0 0)
(216.003 0 0)
(218.619 0 0)
(221.227 0 0)
(223.826 0 0)
(226.416 0 0)
(228.995 0 0)
(231.562 0 0)
(234.116 0 0)
(236.656 0 0)
(239.181 0 0)
(241.689 0 0)
(244.178 0 0)
(246.646 0 0)
(249.092 0 0)
(251.513 0 0)
(253.905 0 0)
(256.268 0 0)
(258.597 0 0)
(260.888 0 0)
(263.139 0 0)
(265.344 0 0)
(267.499 0 0)
(269.599 0 0)
(271.639 0 0)
(273.613 0 0)
(275.515 0 0)
(277.339 0 0)
(279.079 0 0)
(280.727 0 0)
(282.279 0 0)
(283.727 0 0)
(285.068 0 0)
(286.296 0 0)
(287.409 0 0)
(288.405 0 0)
(289.284 0 0)
(290.048 0 0)
(290.702 0 0)
(291.25 0 0)
(291.701 0 0)
(292.064 0 0)
(292.349 0 0)
(292.567 0 0)
(292.729 0 0)
(292.845 0 0)
(292.926 0 0)
(292.98 0 0)
(293.015 0 0)
(293.037 0 0)
(293.05 0 0)
(293.057 0 0)
(293.062 0 0)
(293.066 0 0)
(293.071 0 0)
(293.076 0 0)
(293.082 0 0)
(293.088 0 0)
(293.096 0 0)
(293.103 0 0)
(293.111 0 0)
(293.118 0 0)
(293.124 0 0)
(293.13 0 0)
(293.134 0 0)
(293.138 0 0)
(293.141 0 0)
(293.143 0 0)
(293.145 0 0)
(293.146 0 0)
(293.146 0 0)
(293.147 0 0)
(293.147 0 0)
(293.147 0 0)
(293.146 0 0)
(293.146 0 0)
(293.146 0 0)
(293.146 0 0)
(293.146 0 0)
(293.146 0 0)
(293.146 0 0)
(293.146 0 0)
(293.146 0 0)
(293.146 0 0)
(293.146 0 0)
(293.146 0 0)
(293.146 0 0)
(293.146 0 0)
(293.146 0 0)
(293.146 0 0)
(293.146 0 0)
(293.146 0 0)
(293.146 0 0)
(293.146 0 0)
(293.146 0 0)
(293.146 0 0)
(293.146 0 0)
(293.146 0 0)
(293.147 0 0)
(293.147 0 0)
(293.147 0 0)
(293.147 0 0)
(293.148 0 0)
(293.148 0 0)
(293.148 0 0)
(293.149 0 0)
(293.15 0 0)
(293.148 0 0)
(293.148 0 0)
(293.153 0 0)
(293.168 0 0)
(293.173 0 0)
(293.158 0 0)
(293.142 0 0)
(293.126 0 0)
(293.115 0 0)
(293.103 0 0)
(293.092 0 0)
(293.082 0 0)
(293.076 0 0)
(293.074 0 0)
(293.077 0 0)
(293.083 0 0)
(293.092 0 0)
(293.101 0 0)
(293.11 0 0)
(293.118 0 0)
(293.124 0 0)
(293.128 0 0)
(293.132 0 0)
(293.134 0 0)
(293.134 0 0)
(293.134 0 0)
(293.133 0 0)
(293.133 0 0)
(293.132 0 0)
(293.131 0 0)
(293.13 0 0)
(293.129 0 0)
(293.128 0 0)
(293.128 0 0)
(293.128 0 0)
(293.129 0 0)
(293.129 0 0)
(293.129 0 0)
(293.129 0 0)
(293.129 0 0)
(293.128 0 0)
(293.128 0 0)
(293.127 0 0)
(293.125 0 0)
(293.124 0 0)
(293.122 0 0)
(293.121 0 0)
(293.119 0 0)
(293.118 0 0)
(293.117 0 0)
(293.116 0 0)
(293.116 0 0)
(293.115 0 0)
(293.115 0 0)
(293.115 0 0)
(293.114 0 0)
(293.114 0 0)
(293.114 0 0)
(293.114 0 0)
(293.113 0 0)
(293.112 0 0)
(293.11 0 0)
(293.107 0 0)
(293.104 0 0)
(293.101 0 0)
(293.098 0 0)
(293.095 0 0)
(293.093 0 0)
(293.092 0 0)
(293.091 0 0)
(293.089 0 0)
(293.087 0 0)
(293.084 0 0)
(293.081 0 0)
(293.079 0 0)
(293.077 0 0)
(293.074 0 0)
(293.072 0 0)
(293.064 0 0)
(293.054 0 0)
(293.033 0 0)
(293.004 0 0)
(292.95 0 0)
(292.883 0 0)
(292.72 0 0)
(292.567 0 0)
(292.059 0 0)
(291.444 0 0)
(289.646 0 0)
(285.489 0 0)
(275.884 0 0)
(252.823 0 0)
(205.11 0 0)
(132.037 0 0)
(61.7263 0 0)
(21.0136 0 0)
(5.69552 0 0)
(1.3231 0 0)
(0.282334 0 0)
(0.0584238 0 0)
(0.011995 0 0)
(0.00245886 0 0)
(0.000503921 0 0)
(0.000103271 0 0)
(2.11641e-05 0 0)
(4.33732e-06 0 0)
(8.88887e-07 0 0)
(1.82169e-07 0 0)
(3.73349e-08 0 0)
(7.65194e-09 0 0)
(1.56879e-09 0 0)
(3.22103e-10 0 0)
(6.68245e-11 0 0)
(1.51271e-11 0 0)
(3.71977e-12 0 0)
(1.91094e-12 0 0)
(1.48791e-12 0 0)
(1.29827e-12 0 0)
(1.12322e-12 0 0)
(1.18157e-12 0 0)
(1.13781e-12 0 0)
(7.43953e-13 0 0)
(9.19001e-13 0 0)
(1.32745e-12 0 0)
(8.75239e-13 0 0)
(7.29366e-13 0 0)
(6.71017e-13 0 0)
(7.29366e-13 0 0)
(9.91938e-13 0 0)
(8.31477e-13 0 0)
(8.75239e-13 0 0)
(1.05029e-12 0 0)
(8.60652e-13 0 0)
(4.3762e-14 0 0)
(1.48791e-12 0 0)
(6.85604e-13 0 0)
(-2.91746e-14 0 0)
(6.41842e-13 0 0)
(1.28368e-12 0 0)
(4.81382e-13 0 0)
(1.28368e-12 0 0)
(5.54318e-13 0 0)
(1.12322e-12 0 0)
(9.48176e-13 0 0)
(1.12322e-12 0 0)
(8.31477e-13 0 0)
(7.58541e-13 0 0)
(4.52207e-13 0 0)
(3.64683e-13 0 0)
(6.85604e-13 0 0)
(5.68906e-13 0 0)
(7.14779e-13 0 0)
(6.71017e-13 0 0)
(6.12667e-13 0 0)
(3.7927e-13 0 0)
(7.29366e-13 0 0)
(9.19001e-13 0 0)
(9.04414e-13 0 0)
(7.43953e-13 0 0)
(8.46065e-13 0 0)
(8.46065e-13 0 0)
(3.35508e-13 0 0)
(5.9808e-13 0 0)
(6.56429e-13 0 0)
(6.12667e-13 0 0)
(4.95969e-13 0 0)
(1.75048e-13 0 0)
(3.93858e-13 0 0)
(8.75239e-14 0 0)
(2.77159e-13 0 0)
(1.31286e-13 0 0)
(1.45873e-13 0 0)
(4.66794e-13 0 0)
(4.23032e-13 0 0)
(7.73128e-13 0 0)
(1.07946e-12 0 0)
(8.1689e-13 0 0)
(1.2691e-12 0 0)
(1.06487e-12 0 0)
(9.91938e-13 0 0)
(9.04414e-13 0 0)
(1.05029e-12 0 0)
(8.60652e-13 0 0)
(7.87715e-13 0 0)
(9.62763e-13 0 0)
(1.21075e-12 0 0)
(1.89635e-13 0 0)
(7.87715e-13 0 0)
(-4.3762e-14 0 0)
(5.9808e-13 0 0)
(5.68906e-13 0 0)
(5.10556e-13 0 0)
(1.31286e-13 0 0)
(3.20921e-13 0 0)
(7.00191e-13 0 0)
(2.04222e-13 0 0)
(3.64683e-13 0 0)
(3.50096e-13 0 0)
(5.68906e-13 0 0)
(3.06334e-13 0 0)
(-1.89635e-13 0 0)
(-2.91746e-14 0 0)
(1.89635e-13 0 0)
(-5.83493e-14 0 0)
(-2.91746e-14 0 0)
(-1.45873e-13 0 0)
(3.93858e-13 0 0)
(1.45873e-13 0 0)
(2.33397e-13 0 0)
(-2.04222e-13 0 0)
(-6.12667e-13 0 0)
(3.64683e-13 0 0)
(4.3762e-13 0 0)
(8.02303e-13 0 0)
(3.35508e-13 0 0)
(5.83493e-14 0 0)
(-8.75239e-14 0 0)
(1.31286e-13 0 0)
(-7.29366e-14 0 0)
(2.62572e-13 0 0)
(1.75048e-13 0 0)
(2.77159e-13 0 0)
(4.81382e-13 0 0)
(1.45873e-13 0 0)
(2.47984e-13 0 0)
(-2.04222e-13 0 0)
(-6.62959e-27 0 0)
(-4.66794e-13 0 0)
(-5.83493e-14 0 0)
(-3.06334e-13 0 0)
(-5.83493e-14 0 0)
(1.16699e-13 0 0)
(-6.71017e-13 0 0)
(-1.89635e-13 0 0)
(-3.20921e-13 0 0)
(-7.14779e-13 0 0)
(-8.1689e-13 0 0)
(-4.3762e-13 0 0)
(7.29366e-14 0 0)
(-6.56429e-13 0 0)
(7.29366e-14 0 0)
(-3.20921e-13 0 0)
(-3.06334e-13 0 0)
(1.16699e-13 0 0)
(2.33397e-13 0 0)
(-1.31286e-13 0 0)
(-2.1881e-13 0 0)
(-2.91746e-14 0 0)
(1.89635e-13 0 0)
(8.75239e-14 0 0)
(5.68906e-13 0 0)
(1.03079e-26 0 0)
(5.83493e-13 0 0)
(2.1881e-13 0 0)
(2.47984e-13 0 0)
(2.33397e-13 0 0)
(3.93858e-13 0 0)
(2.91746e-13 0 0)
(-5.25144e-13 0 0)
(4.3762e-14 0 0)
(3.7927e-13 0 0)
(6.85604e-13 0 0)
(1.75048e-13 0 0)
(-2.91746e-14 0 0)
(-3.35508e-13 0 0)
(-1.45873e-13 0 0)
(-4.3762e-13 0 0)
(8.75239e-14 0 0)
(-6.41842e-13 0 0)
(-3.7927e-13 0 0)
(-8.75239e-14 0 0)
(-7.29366e-14 0 0)
(-3.06334e-13 0 0)
(-7.8255e-28 0 0)
(-2.1881e-13 0 0)
(-2.62572e-13 0 0)
(-5.83493e-14 0 0)
(-1.45873e-13 0 0)
(4.3762e-14 0 0)
(1.02111e-13 0 0)
(-1.45873e-13 0 0)
(-2.33397e-13 0 0)
(-8.75239e-14 0 0)
(-2.1881e-13 0 0)
(-5.25144e-13 0 0)
(-3.64683e-13 0 0)
(-2.91746e-13 0 0)
(1.45873e-14 0 0)
(-7.29366e-14 0 0)
(-4.95969e-13 0 0)
(-3.50096e-13 0 0)
(-7.87715e-13 0 0)
(2.33397e-13 0 0)
(1.45873e-14 0 0)
(5.83493e-14 0 0)
(-3.7927e-13 0 0)
(-4.08445e-13 0 0)
(4.3762e-14 0 0)
(3.64683e-13 0 0)
(3.7927e-13 0 0)
(4.08445e-13 0 0)
(1.16699e-13 0 0)
(3.06334e-13 0 0)
(2.33397e-13 0 0)
(4.08445e-13 0 0)
(3.06334e-13 0 0)
(2.33397e-13 0 0)
(2.33397e-13 0 0)
(-1.16699e-13 0 0)
(3.35508e-13 0 0)
(8.1689e-13 0 0)
(4.3762e-13 0 0)
(5.10556e-13 0 0)
(1.75048e-13 0 0)
(3.64683e-13 0 0)
(4.81382e-13 0 0)
(1.45873e-13 0 0)
(-1.75048e-13 0 0)
(-4.3762e-13 0 0)
(4.3762e-14 0 0)
(-1.45873e-13 0 0)
(-1.02111e-13 0 0)
(-1.16699e-13 0 0)
(-2.33397e-13 0 0)
(-1.60461e-13 0 0)
(-2.47984e-13 0 0)
(-7.71822e-27 0 0)
(-4.81382e-13 0 0)
(-1.45873e-14 0 0)
(1.60461e-13 0 0)
(5.54318e-13 0 0)
(2.62572e-13 0 0)
(-3.64683e-13 0 0)
(-7.87715e-13 0 0)
(-1.45873e-14 0 0)
(-4.3762e-14 0 0)
(-8.75239e-14 0 0)
(1.02111e-13 0 0)
(-1.16699e-13 0 0)
(-2.33397e-13 0 0)
(-4.3762e-14 0 0)
(-4.3762e-14 0 0)
(-7.29366e-14 0 0)
(1.45873e-13 0 0)
(1.45873e-14 0 0)
(4.66794e-13 0 0)
(4.52207e-13 0 0)
(2.47984e-13 0 0)
(4.95969e-13 0 0)
(4.66794e-13 0 0)
(4.08445e-13 0 0)
(6.41842e-13 0 0)
(5.54318e-13 0 0)
(3.20921e-13 0 0)
(1.75048e-13 0 0)
(-2.20881e-28 0 0)
(3.7927e-13 0 0)
(2.1881e-13 0 0)
(9.48176e-13 0 0)
(3.06334e-13 0 0)
(-1.45873e-14 0 0)
(5.9808e-13 0 0)
(4.81382e-13 0 0)
(4.66794e-13 0 0)
(2.77159e-13 0 0)
(1.31286e-13 0 0)
(3.7927e-13 0 0)
(1.75048e-13 0 0)
(5.54318e-13 0 0)
(2.77159e-13 0 0)
(1.31286e-13 0 0)
(5.68906e-13 0 0)
(3.7927e-13 0 0)
(2.47984e-13 0 0)
(4.3762e-13 0 0)
(2.62572e-13 0 0)
(2.33397e-13 0 0)
(4.08445e-13 0 0)
(1.02111e-13 0 0)
(5.25144e-13 0 0)
(3.93858e-13 0 0)
(2.33397e-13 0 0)
(2.1881e-13 0 0)
(5.10556e-13 0 0)
(2.91746e-13 0 0)
(4.52207e-13 0 0)
(3.7927e-13 0 0)
(5.25144e-13 0 0)
(3.20921e-13 0 0)
(1.60461e-13 0 0)
(1.31286e-13 0 0)
(2.47984e-13 0 0)
(7.29366e-14 0 0)
(1.45873e-14 0 0)
(-3.35508e-13 0 0)
(3.06334e-13 0 0)
(-2.62572e-13 0 0)
(2.33397e-13 0 0)
(2.62572e-13 0 0)
(5.39731e-13 0 0)
(-1.60461e-13 0 0)
(-7.29366e-14 0 0)
(2.62572e-13 0 0)
(1.45873e-13 0 0)
(5.39731e-13 0 0)
(3.35508e-13 0 0)
(6.56429e-13 0 0)
(2.91746e-13 0 0)
(1.19616e-12 0 0)
(4.3762e-13 0 0)
(6.27255e-13 0 0)
(2.91746e-13 0 0)
(4.66794e-13 0 0)
(-7.29366e-14 0 0)
(7.29366e-14 0 0)
(2.1881e-13 0 0)
(5.25144e-13 0 0)
(-1.45873e-14 0 0)
(-7.00191e-13 0 0)
(-3.06334e-13 0 0)
(2.04222e-13 0 0)
(-1.75048e-13 0 0)
(-1.60461e-13 0 0)
(-1.838e-12 0 0)
(2.12975e-12 0 0)
(2.08599e-12 0 0)
(1.24185e-26 0 0)
)
;

boundaryField
{
    sides
    {
        type            zeroGradient;
    }
    empty
    {
        type            empty;
    }
}


// ************************************************************************* //
