/*--------------------------------*- C++ -*----------------------------------*\
  =========                 |
  \\      /  F ield         | OpenFOAM: The Open Source CFD Toolbox
   \\    /   O peration     | Website:  https://openfoam.org
    \\  /    A nd           | Version:  6
     \\/     M anipulation  |
\*---------------------------------------------------------------------------*/
FoamFile
{
    version     2.0;
    format      ascii;
    class       volScalarField;
    location    "65";
    object      p;
}
// * * * * * * * * * * * * * * * * * * * * * * * * * * * * * * * * * * * * * //

dimensions      [0 2 -2 0 0 0 0];

internalField   nonuniform List<scalar> 
8800
(
0.866313
0.816997
0.779029
0.750956
0.730789
0.716194
0.705583
0.698026
0.693117
0.691016
0.692352
0.696668
0.703441
0.712849
0.725575
0.742889
0.766762
0.799857
0.842793
0.895306
0.700812
0.707156
0.716304
0.719849
0.717235
0.711139
0.704187
0.69793
0.693106
0.690208
0.689942
0.692539
0.697157
0.703268
0.710356
0.717382
0.722255
0.722127
0.71545
0.70655
0.674337
0.680571
0.685068
0.688934
0.691875
0.692814
0.691711
0.68957
0.687563
0.68669
0.687685
0.690109
0.692974
0.695228
0.695739
0.693943
0.690572
0.686556
0.681773
0.678057
0.670051
0.672815
0.675417
0.677569
0.679298
0.680855
0.681942
0.682273
0.682131
0.682192
0.682958
0.684068
0.684786
0.684618
0.683632
0.682269
0.680594
0.678288
0.675875
0.674308
0.665014
0.666439
0.668273
0.670347
0.67205
0.67333
0.67441
0.675365
0.676142
0.676837
0.677504
0.677929
0.677926
0.677543
0.676862
0.675738
0.674075
0.672176
0.670821
0.670018
0.660049
0.660952
0.662193
0.663811
0.665493
0.66701
0.668274
0.669369
0.670396
0.671366
0.672102
0.672452
0.672432
0.672042
0.671224
0.670025
0.668656
0.667385
0.666562
0.666038
0.655172
0.655828
0.656783
0.658091
0.659525
0.661024
0.662486
0.663819
0.665039
0.666189
0.667084
0.667532
0.667515
0.667053
0.666255
0.6653
0.664298
0.663388
0.662806
0.662422
0.650382
0.650886
0.651666
0.652795
0.65408
0.655478
0.65696
0.658465
0.659929
0.661322
0.662411
0.662967
0.663005
0.662654
0.662069
0.661366
0.660618
0.659948
0.659519
0.65922
0.645624
0.646025
0.646678
0.647687
0.6489
0.650242
0.651717
0.653316
0.654992
0.656665
0.658004
0.658747
0.658975
0.658851
0.658505
0.658022
0.657477
0.657001
0.656684
0.656441
0.640818
0.641145
0.641711
0.642641
0.643807
0.645138
0.646647
0.648346
0.650217
0.652187
0.653853
0.654898
0.655409
0.655549
0.65544
0.655183
0.654835
0.65452
0.654287
0.654083
0.635877
0.636149
0.636655
0.637539
0.638689
0.640047
0.641633
0.643475
0.645578
0.647892
0.649971
0.651407
0.652261
0.652698
0.652848
0.652818
0.652667
0.652495
0.65233
0.652154
0.630713
0.630942
0.63141
0.632278
0.633453
0.63488
0.636587
0.638627
0.641031
0.643774
0.646356
0.648259
0.649514
0.650293
0.65073
0.650939
0.650988
0.650946
0.650836
0.65068
0.625234
0.625429
0.625879
0.62676
0.627999
0.629541
0.631423
0.633729
0.636519
0.639797
0.642988
0.645449
0.647172
0.64834
0.649103
0.649568
0.64983
0.649913
0.64985
0.649707
0.619336
0.619505
0.619952
0.620877
0.62222
0.623929
0.626053
0.628708
0.631986
0.635923
0.639855
0.642981
0.645255
0.646873
0.648007
0.648778
0.649254
0.649456
0.649433
0.649298
0.6129
0.613047
0.613508
0.614504
0.615998
0.617933
0.620378
0.623479
0.627368
0.632116
0.636944
0.640864
0.643792
0.64594
0.647497
0.648605
0.649323
0.649649
0.649663
0.649533
0.605786
0.605909
0.6064
0.607498
0.609193
0.611426
0.614283
0.617948
0.622594
0.628332
0.634242
0.639113
0.642815
0.645586
0.647642
0.649135
0.650127
0.650582
0.65063
0.650499
0.597803
0.59791
0.598445
0.59968
0.601637
0.604251
0.607631
0.612001
0.617584
0.624531
0.631745
0.63775
0.642364
0.645868
0.648522
0.65047
0.651764
0.652354
0.652434
0.6523
0.588726
0.58883
0.589417
0.590825
0.593122
0.596221
0.600257
0.605508
0.612249
0.620669
0.629449
0.636802
0.642496
0.646864
0.650222
0.652697
0.654335
0.655071
0.655179
0.655038
0.578237
0.578327
0.579004
0.580648
0.58338
0.587096
0.591967
0.598329
0.606508
0.616726
0.627377
0.636315
0.643275
0.648658
0.652824
0.655925
0.65795
0.658834
0.658967
0.658815
0.56596
0.566036
0.566816
0.568773
0.572066
0.57658
0.58252
0.590287
0.600259
0.612668
0.625549
0.636337
0.644764
0.651327
0.656436
0.660252
0.662699
0.663732
0.663883
0.663717
0.551337
0.551407
0.552332
0.554702
0.558732
0.564295
0.571628
0.581196
0.593411
0.608487
0.624002
0.636931
0.647031
0.654945
0.661138
0.665755
0.668649
0.669821
0.66998
0.669797
0.533589
0.533651
0.53479
0.537747
0.542786
0.549764
0.558946
0.570854
0.58589
0.604197
0.622791
0.638158
0.650147
0.659578
0.666968
0.672475
0.675819
0.677104
0.677257
0.677054
0.511555
0.511621
0.513104
0.516936
0.523426
0.532396
0.544115
0.559118
0.577717
0.599902
0.622028
0.640111
0.654174
0.665274
0.673969
0.680403
0.684157
0.685509
0.685636
0.685412
0.483447
0.483543
0.485624
0.490873
0.499606
0.511509
0.526813
0.545943
0.569011
0.595778
0.62186
0.642882
0.659162
0.672034
0.682113
0.689446
0.693511
0.694856
0.694936
0.694693
0.446208
0.446429
0.449727
0.457587
0.470103
0.486522
0.506949
0.53151
0.560039
0.592066
0.622469
0.646589
0.665166
0.679839
0.69131
0.699413
0.703615
0.704853
0.704862
0.704605
0.393981
0.395072
0.401625
0.414881
0.434005
0.457404
0.484912
0.516321
0.551253
0.589108
0.624071
0.65135
0.672208
0.688608
0.701356
0.709997
0.714074
0.715103
0.715032
0.714768
0.318304
0.325726
0.340753
0.363906
0.392897
0.425643
0.461768
0.501019
0.543032
0.587207
0.627063
0.657705
0.681023
0.699283
0.713168
0.72207
0.725867
0.726667
0.726542
0.726309
0.23784
0.25405
0.27845
0.312258
0.351631
0.393885
0.438679
0.485942
0.535412
0.586547
0.632134
0.666895
0.693171
0.713579
0.728627
0.737398
0.74061
0.741144
0.741045
0.740898
0.168906
0.188714
0.220945
0.26394
0.312566
0.363773
0.41701
0.472146
0.528902
0.586743
0.637738
0.676304
0.705266
0.727458
0.743159
0.751517
0.754204
0.754635
0.754598
0.754503
0.112496
0.134528
0.172148
0.22173
0.277607
0.336329
0.397041
0.459438
0.523077
0.587309
0.643412
0.685529
0.716929
0.740656
0.756986
0.765313
0.767844
0.768234
0.768229
0.768163
0.0657626
0.0891158
0.130641
0.185372
0.247057
0.311988
0.379104
0.447944
0.517864
0.588065
0.649072
0.694608
0.728366
0.753696
0.77081
0.77929
0.781864
0.782251
0.782267
0.782223
0.0260795
0.0502254
0.094634
0.153559
0.220144
0.290376
0.363033
0.437578
0.513236
0.58905
0.654742
0.703622
0.739692
0.766596
0.784621
0.793565
0.796267
0.796663
0.796691
0.796665
-0.00858958
0.0160875
0.0627557
0.125156
0.19593
0.270789
0.348386
0.428124
0.509106
0.590182
0.660343
0.71245
0.750817
0.779294
0.798315
0.807751
0.810667
0.811097
0.811128
0.811115
-0.0397446
-0.0146301
0.0339015
0.0992644
0.173677
0.25262
0.334678
0.41917
0.505097
0.591197
0.665661
0.720892
0.761472
0.791487
0.811432
0.821399
0.824575
0.825068
0.825103
0.825095
-0.0684026
-0.0428837
0.00724321
0.0751905
0.152805
0.235369
0.321446
0.410325
0.500936
0.59188
0.670532
0.728791
0.771482
0.802951
0.823786
0.834243
0.837658
0.838241
0.838256
0.838245
-0.0953684
-0.0694112
-0.0178518
0.0524178
0.132859
0.218657
0.308392
0.401347
0.496392
0.591991
0.674782
0.736007
0.780746
0.813568
0.835192
0.84606
0.849663
0.850294
0.850286
0.850263
-0.121035
-0.0946524
-0.0417697
0.0305641
0.113531
0.20224
0.295305
0.392019
0.491245
0.591392
0.6783
0.742511
0.789233
0.823314
0.845582
0.856705
0.860435
0.861085
0.861051
0.861008
-0.145836
-0.118946
-0.0648396
0.00936436
0.0945958
0.185923
0.282016
0.382203
0.485387
0.589976
0.681023
0.748275
0.796982
0.832207
0.854973
0.866254
0.869982
0.870619
0.870551
0.870489
-0.169908
-0.142504
-0.08724
-0.0113485
0.0759074
0.169591
0.268438
0.371832
0.47874
0.587644
0.6829
0.753318
0.80407
0.840383
0.863487
0.874731
0.878405
0.879009
0.878916
0.878835
-0.19338
-0.165431
-0.10909
-0.0316655
0.0574028
0.153199
0.254537
0.36086
0.471246
0.584332
0.68387
0.75766
0.810603
0.84798
0.871268
0.88233
0.88585
0.88638
0.886265
0.886168
-0.216349
-0.187841
-0.130439
-0.0516227
0.0390502
0.136736
0.240309
0.349291
0.462896
0.579992
0.683871
0.7613
0.816697
0.855195
0.878522
0.889196
0.892437
0.892858
0.892707
0.892596
-0.238873
-0.209727
-0.1513
-0.0712244
0.020872
0.120221
0.225787
0.337157
0.453704
0.574588
0.682833
0.764202
0.822444
0.862245
0.885461
0.895484
0.898257
0.898508
0.898329
0.898213
-0.26081
-0.23106
-0.171656
-0.0904581
0.00289564
0.103712
0.211025
0.32452
0.443713
0.568125
0.680682
0.766288
0.827864
0.869363
0.892441
0.901457
0.903455
0.903434
0.903229
0.903121
-0.282135
-0.251806
-0.191495
-0.109287
-0.0148291
0.0872636
0.196105
0.311446
0.432991
0.560612
0.677355
0.767436
0.832892
0.876722
0.899953
0.90768
0.908361
0.90775
0.907501
0.907454
-0.302902
-0.271935
-0.210792
-0.127682
-0.0322448
0.0709544
0.181112
0.298032
0.421621
0.552094
0.672783
0.76751
0.837354
0.884294
0.908476
0.915129
0.913869
0.91186
0.911281
0.911511
-0.322958
-0.291422
-0.229494
-0.14558
-0.0492961
0.0548669
0.166139
0.284384
0.40971
0.542659
0.666926
0.766344
0.84099
0.891745
0.918089
0.924935
0.922029
0.917493
0.914747
0.913613
-0.342397
-0.310271
-0.247608
-0.163013
-0.0660175
0.0389618
0.151135
0.270445
0.397188
0.532242
0.659628
0.763681
0.843553
0.898574
0.928223
0.937428
0.93504
0.927904
0.918364
0.918749
-0.361134
-0.328548
-0.265268
-0.180177
-0.0827023
0.0229097
0.135688
0.255731
0.383514
0.52022
0.650239
0.75877
0.844607
0.90419
0.937358
0.950562
0.949452
0.938296
0.919813
0.917914
-0.379034
-0.346216
-0.282307
-0.196884
-0.0990866
0.00701166
0.120002
0.240563
0.368976
0.506826
0.638789
0.750914
0.843296
0.907395
0.941401
0.955046
0.955937
0.930602
0.872849
0.847896
-0.395975
-0.364142
-0.298324
-0.212687
-0.114399
-0.00825231
0.104358
0.225216
0.353853
0.492228
0.625339
0.739504
0.838536
0.90724
0.935509
0.943974
0.930545
0.879031
0.817055
0.77929
-0.438976
-0.381597
-0.313057
-0.228468
-0.129388
-0.0238391
0.0888957
0.209566
0.337941
0.476072
0.609481
0.72389
0.826423
0.900467
0.917387
0.904125
0.856345
0.791042
0.722055
0.684142
-0.414158
-0.395972
-0.33551
-0.250249
-0.152554
-0.0472524
0.0647766
0.184768
0.312202
0.448908
0.580942
0.693411
0.787627
0.868889
0.852131
0.743231
0.652369
0.589244
0.525084
0.551825
-0.445106
-0.413606
-0.352307
-0.267535
-0.170197
-0.0650612
0.0471242
0.166439
0.292827
0.427743
0.557194
0.666177
0.74976
0.795199
0.743401
0.603609
0.494332
0.420666
0.338442
0.383653
-0.469146
-0.435209
-0.372153
-0.28731
-0.190033
-0.084922
0.0271287
0.14563
0.27063
0.403131
0.528763
0.631819
0.703723
0.711303
0.604592
0.449172
0.319922
0.22732
0.131756
0.162968
-0.492569
-0.457553
-0.393097
-0.307581
-0.210226
-0.10524
0.0062828
0.1238
0.247173
0.376835
0.497611
0.592581
0.647415
0.622349
0.464006
0.286813
0.126838
-0.00707736
-0.131452
-0.118819
-0.515734
-0.480304
-0.414915
-0.328789
-0.231291
-0.126526
-0.0156731
0.100704
0.22215
0.348537
0.463587
0.550446
0.584613
0.514256
0.325725
0.128509
-0.0585579
-0.21244
-0.417878
-0.497006
-0.539328
-0.503926
-0.437974
-0.351406
-0.253739
-0.149152
-0.0389089
0.0762844
0.195666
0.318483
0.427333
0.504899
0.513549
0.391644
0.199619
-0.00959054
-0.201695
-0.363456
-0.487255
-0.605597
-0.56443
-0.528906
-0.462632
-0.375817
-0.278113
-0.173806
-0.0642738
0.0495478
0.166503
0.28516
0.387381
0.452238
0.433543
0.275206
0.0816179
-0.12157
-0.296956
-0.39427
-0.420457
-0.433951
-0.591168
-0.555538
-0.489025
-0.402118
-0.304562
-0.200713
-0.0921467
0.0199773
0.134037
0.247768
0.342875
0.390202
0.352219
0.163302
-0.0283863
-0.21132
-0.343742
-0.381681
-0.390608
-0.390936
-0.619821
-0.583948
-0.517191
-0.430298
-0.333037
-0.229884
-0.122554
-0.0124869
0.0981929
0.206268
0.293203
0.324318
0.254991
0.0610259
-0.12454
-0.283414
-0.357724
-0.371837
-0.372949
-0.37284
-0.650402
-0.614168
-0.547147
-0.460354
-0.363557
-0.261313
-0.15551
-0.0478681
0.0589731
0.160762
0.238192
0.254737
0.147099
-0.0316409
-0.207356
-0.333394
-0.362112
-0.362753
-0.363227
-0.3628
-0.682653
-0.646028
-0.578794
-0.492205
-0.396036
-0.294948
-0.190992
-0.0861468
0.0164261
0.111375
0.179066
0.176681
0.0513583
-0.117002
-0.272831
-0.344743
-0.359555
-0.357583
-0.357274
-0.35683
-0.716011
-0.67918
-0.611862
-0.525617
-0.430283
-0.330628
-0.22885
-0.127201
-0.0292326
0.0584977
0.116274
0.0976403
-0.0369301
-0.191737
-0.315687
-0.353035
-0.352516
-0.353344
-0.353296
-0.352979
-0.750028
-0.713084
-0.645859
-0.560162
-0.465934
-0.368021
-0.268789
-0.170756
-0.0777103
0.00304072
0.0484277
0.0230758
-0.117363
-0.249974
-0.338868
-0.347726
-0.34968
-0.350377
-0.350231
-0.35011
-0.783747
-0.746845
-0.680031
-0.595185
-0.502422
-0.406635
-0.310332
-0.216317
-0.12858
-0.054169
-0.0195504
-0.0519078
-0.18675
-0.294293
-0.342947
-0.35412
-0.349607
-0.347646
-0.346995
-0.34689
-0.815251
-0.779146
-0.713326
-0.629775
-0.538942
-0.445745
-0.352794
-0.263138
-0.181062
-0.112753
-0.0826884
-0.13062
-0.245211
-0.33512
-0.357031
-0.355886
-0.349879
-0.344796
-0.343318
-0.342895
-0.843495
-0.808452
-0.74431
-0.662702
-0.574407
-0.484381
-0.395275
-0.310294
-0.233886
-0.172203
-0.144228
-0.199578
-0.292561
-0.36274
-0.386049
-0.370965
-0.356182
-0.348852
-0.346343
-0.345183
-0.865702
-0.832617
-0.771187
-0.692407
-0.607462
-0.521327
-0.436644
-0.356696
-0.285777
-0.230566
-0.205579
-0.2537
-0.326717
-0.371609
-0.374796
-0.381097
-0.383476
-0.379932
-0.375459
-0.37315
-0.879717
-0.849437
-0.79183
-0.717098
-0.636544
-0.555145
-0.475577
-0.400993
-0.335763
-0.284742
-0.261603
-0.29783
-0.351848
-0.381471
-0.379128
-0.394485
-0.404172
-0.402135
-0.398471
-0.397818
-0.882801
-0.856466
-0.804069
-0.73487
-0.659986
-0.584324
-0.510618
-0.441643
-0.382544
-0.333852
-0.308017
-0.334485
-0.371935
-0.408082
-0.398215
-0.388461
-0.383168
-0.381865
-0.382352
-0.382751
-0.872661
-0.851206
-0.805753
-0.743923
-0.676256
-0.607519
-0.540272
-0.477331
-0.423707
-0.379879
-0.338463
-0.363753
-0.362742
-0.410655
-0.397537
-0.374876
-0.367575
-0.368279
-0.368836
-0.368379
-0.846563
-0.830762
-0.794879
-0.743007
-0.684254
-0.623768
-0.563498
-0.506961
-0.457356
-0.421382
-0.370992
-0.354563
-0.302734
-0.292011
-0.326198
-0.346783
-0.360118
-0.368818
-0.372293
-0.372998
-0.807972
-0.797855
-0.772474
-0.732328
-0.684008
-0.632633
-0.580268
-0.529267
-0.484597
-0.452158
-0.417012
-0.367539
-0.269868
-0.193659
-0.236313
-0.330393
-0.388634
-0.412593
-0.421543
-0.424439
-0.764061
-0.758318
-0.743612
-0.714953
-0.677652
-0.63502
-0.590404
-0.545027
-0.504118
-0.472218
-0.450449
-0.433841
-0.431546
-0.382664
-0.43953
-0.512086
-0.565507
-0.574476
-0.57484
-0.576495
-0.725198
-0.721751
-0.714807
-0.696501
-0.668129
-0.633176
-0.594381
-0.554537
-0.515035
-0.485912
-0.462297
-0.550092
-0.798724
-1.14781
-1.24706
-1.17167
-1.04613
-0.884205
-0.789475
-0.778263
-0.697752
-0.695751
-0.692237
-0.681242
-0.659472
-0.629657
-0.595183
-0.556512
-0.518371
-0.483537
-0.464258
-0.508261
-0.638911
-0.779732
-0.917286
-0.90816
-0.869723
-0.787848
-0.70198
-0.661527
-0.677859
-0.67718
-0.676035
-0.6705
-0.654137
-0.627688
-0.593663
-0.55544
-0.512694
-0.467788
-0.446786
-0.420343
-0.347002
-0.244271
-0.135013
-0.0617241
-0.0154102
0.00757174
0.0330013
0.0514347
-0.666319
-0.666084
-0.66546
-0.662738
-0.651361
-0.626904
-0.592019
-0.551346
-0.501531
-0.451641
-0.405312
-0.333834
-0.148057
0.117966
0.356349
0.540772
0.635814
0.671729
0.684962
0.68847
-0.658611
-0.658411
-0.657871
-0.656926
-0.650075
-0.627854
-0.591614
-0.543956
-0.490867
-0.424602
-0.346074
-0.260296
-0.0115253
0.314446
0.658301
0.936915
1.04087
1.05973
1.04106
1.02815
-0.654758
-0.654552
-0.654056
-0.653812
-0.650487
-0.631748
-0.591967
-0.538666
-0.477317
-0.395828
-0.309171
-0.189485
0.0311739
0.325576
0.578809
0.766224
0.856357
0.899279
0.932978
0.947238
-0.652923
-0.653405
-0.654647
-0.656097
-0.655583
-0.638103
-0.593153
-0.535972
-0.464728
-0.379788
-0.279095
-0.166423
0.0581441
0.299065
0.510706
0.672644
0.768607
0.863323
0.942706
0.976815
-0.647278
-0.648976
-0.652973
-0.658843
-0.66123
-0.63994
-0.594155
-0.538693
-0.466365
-0.369737
-0.263778
-0.165467
0.038039
0.267822
0.524665
0.75795
0.936374
1.06828
1.14234
1.16609
-0.650122
-0.651209
-0.649125
-0.639627
-0.630603
-0.618416
-0.594646
-0.552513
-0.475446
-0.368251
-0.26098
-0.164957
-0.0013978
0.24707
0.502922
0.73781
0.931292
1.06169
1.11879
1.1338
-0.684387
-0.682793
-0.668055
-0.629329
-0.59074
-0.596749
-0.612584
-0.576767
-0.488286
-0.375147
-0.271021
-0.177288
-0.0614886
0.153882
0.394685
0.60297
0.765809
0.864821
0.904698
0.913869
-0.746103
-0.74331
-0.740804
-0.729372
-0.717001
-0.709965
-0.701729
-0.621027
-0.502493
-0.388014
-0.282095
-0.189496
-0.0988593
0.05571
0.260455
0.423144
0.551704
0.622638
0.650627
0.654575
-0.867903
-0.879576
-0.91904
-0.964978
-0.974406
-0.94019
-0.848036
-0.685022
-0.524607
-0.401446
-0.291188
-0.212952
-0.142259
-0.0254162
0.131757
0.254511
0.349485
0.398517
0.416885
0.417458
-0.992497
-1.01521
-1.06131
-1.09927
-1.10652
-1.06629
-0.931215
-0.712775
-0.540014
-0.405903
-0.301061
-0.230125
-0.188533
-0.0996012
0.0152896
0.106802
0.174274
0.207921
0.219124
0.219823
-0.987079
-1.00557
-1.03856
-1.0677
-1.07388
-1.02872
-0.870267
-0.668107
-0.515995
-0.388331
-0.296054
-0.241026
-0.205793
-0.15206
-0.0761091
-0.0156811
0.0243835
0.0443417
0.0511888
0.0501615
-0.794273
-0.81416
-0.848949
-0.885023
-0.89792
-0.84705
-0.705918
-0.563694
-0.440265
-0.341416
-0.285135
-0.237318
-0.217131
-0.177711
-0.140566
-0.116406
-0.101839
-0.0969891
-0.0951104
-0.0954676
-0.457323
-0.473863
-0.50553
-0.543348
-0.566192
-0.545365
-0.481565
-0.408787
-0.332708
-0.287378
-0.250789
-0.224324
-0.214311
-0.195154
-0.182141
-0.181437
-0.187333
-0.194126
-0.195112
-0.194916
-0.119265
-0.128477
-0.14947
-0.182537
-0.215845
-0.235642
-0.247334
-0.245977
-0.237248
-0.223029
-0.212388
-0.206998
-0.201032
-0.194431
-0.202468
-0.214361
-0.232027
-0.240131
-0.241514
-0.241182
0.0948217
0.0900619
0.0757367
0.0470123
0.00235903
-0.0498851
-0.0942232
-0.128658
-0.151398
-0.162998
-0.178529
-0.189182
-0.197193
-0.189309
-0.195003
-0.212692
-0.232947
-0.238508
-0.237226
-0.235602
0.178589
0.175735
0.16533
0.141283
0.101323
0.0496999
-0.00415827
-0.0513418
-0.0872535
-0.11557
-0.143334
-0.176653
-0.195649
-0.178837
-0.170266
-0.171658
-0.17324
-0.171916
-0.170556
-0.17056
0.187891
0.186029
0.178739
0.161154
0.13047
0.0896351
0.0439367
-0.000599756
-0.0394287
-0.0694872
-0.102209
-0.137638
-0.154562
-0.129551
-0.111343
-0.105935
-0.100455
-0.0988818
-0.0984166
-0.0991217
0.16823
0.167106
0.162359
0.15055
0.129373
0.0995989
0.0643385
0.0289145
-0.00311997
-0.0296537
-0.0510239
-0.0663708
-0.0697587
-0.057717
-0.0486061
-0.0447568
-0.0398787
-0.0376335
-0.0383222
-0.039352
0.140975
0.140393
0.137525
0.130099
0.116331
0.0962986
0.0714258
0.0454565
0.0216649
0.00626798
0.00104798
0.00938064
0.022106
0.0155786
0.0070447
0.00166658
0.000358939
-0.00056658
-0.00157217
-0.00242111
0.113624
0.113392
0.11182
0.107436
0.0989483
0.0861528
0.0698714
0.0530866
0.038755
0.0337655
0.0430753
0.0668378
0.0856934
0.0716258
0.0516297
0.0380219
0.0300851
0.0261
0.0239439
0.0232237
0.0885331
0.0884656
0.0876742
0.0852432
0.0802958
0.07263
0.0627679
0.0529783
0.0464184
0.050014
0.0697403
0.0999529
0.118549
0.101068
0.0781171
0.0624062
0.052886
0.0468613
0.0443457
0.0438696
0.0652857
0.0653554
0.065064
0.0639123
0.0613128
0.0571109
0.0517444
0.0469304
0.0457752
0.054687
0.0791457
0.110823
0.129135
0.110757
0.0889364
0.075732
0.0688288
0.0647567
0.0623425
0.061678
0.0437048
0.0438176
0.0437884
0.0434276
0.0422641
0.0402704
0.0377595
0.0360259
0.0375679
0.0479276
0.0719413
0.100711
0.112897
0.0966502
0.0815032
0.0744038
0.0717191
0.0697024
0.0679908
0.06714
0.0234485
0.023563
0.0236353
0.0236064
0.0232871
0.0225467
0.0215876
0.02122
0.0231283
0.0309669
0.0492267
0.070119
0.0771533
0.0654497
0.055298
0.0532779
0.0537851
0.0550702
0.0535714
0.0524804
0.00425601
0.00430627
0.00428228
0.00442198
0.00461247
0.00468747
0.0045358
0.00434016
0.00441047
0.00490345
0.0071462
0.0120422
0.0142846
0.0252809
0.0184011
0.0176011
0.015993
0.0115635
0.0114522
0.0113055
0.0134362
0.202764
0.376826
0.524379
0.642955
0.736951
0.81534
0.879055
0.895363
0.89171
0.304916
0.42676
0.541051
0.640413
0.724133
0.793332
0.847883
0.884772
0.904511
0.921086
0.502794
0.584182
0.664675
0.735303
0.79551
0.845463
0.884794
0.91475
0.937274
0.956507
0.649476
0.707067
0.765044
0.817134
0.862118
0.900383
0.932497
0.959433
0.979719
0.998609
0.766543
0.809812
0.852743
0.893004
0.929015
0.960826
0.98864
1.0122
1.03016
1.04819
0.86347
0.899241
0.934568
0.968341
0.999469
1.02765
1.05252
1.07338
1.08916
1.10663
0.951946
0.983938
1.01626
1.0475
1.07651
1.10289
1.12601
1.14494
1.15886
1.17588
1.03897
1.07155
1.10398
1.13519
1.16397
1.18977
1.2119
1.22943
1.24182
1.25835
1.13338
1.16979
1.20456
1.23702
1.2662
1.29156
1.31268
1.32898
1.3406
1.35674
1.24644
1.28702
1.32406
1.35703
1.38552
1.40952
1.42915
1.44442
1.45633
1.4724
1.38784
1.42891
1.46416
1.49376
1.51897
1.54058
1.55909
1.57457
1.58769
1.60364
1.55938
1.59178
1.61866
1.64097
1.66106
1.67979
1.69753
1.7143
1.72921
1.74494
1.74571
1.76298
1.7801
1.79678
1.81287
1.82761
1.84152
1.856
1.87124
1.88853
1.92909
1.93907
1.95227
1.96326
1.97266
1.98232
1.99293
2.00311
2.0124
2.03806
2.14699
2.14129
2.12835
2.11409
2.10779
2.11351
2.13165
2.16017
2.19393
2.23026
2.44981
2.31385
2.23435
2.19184
2.17451
2.17849
2.20592
2.26379
2.37145
2.54986
0.770009
0.763706
0.755975
0.744859
0.731286
0.718635
0.708235
0.700219
0.694497
0.691163
0.69081
0.693645
0.69888
0.706239
0.71579
0.727621
0.741185
0.754115
0.763105
0.770646
0.679078
0.684997
0.693069
0.6992
0.702267
0.701753
0.698664
0.694665
0.691072
0.688785
0.688651
0.690907
0.694664
0.699114
0.703218
0.705465
0.704393
0.699758
0.692705
0.684872
0.67233
0.674702
0.677969
0.68074
0.683189
0.685376
0.686552
0.686402
0.685461
0.684652
0.684869
0.686288
0.688074
0.689308
0.689236
0.687772
0.685616
0.683256
0.680275
0.677257
0.667543
0.668631
0.670547
0.672884
0.674754
0.67615
0.677365
0.678354
0.678951
0.679328
0.679886
0.680637
0.68111
0.680998
0.680374
0.679455
0.678127
0.676159
0.674053
0.672576
0.662522
0.663156
0.664284
0.666041
0.667882
0.669473
0.670721
0.671781
0.67276
0.673658
0.67445
0.67498
0.675127
0.674927
0.674397
0.673427
0.672003
0.670396
0.66906
0.668258
0.657602
0.658041
0.658829
0.660131
0.661651
0.663212
0.664687
0.665979
0.66713
0.668217
0.669178
0.669793
0.669983
0.669757
0.6691
0.668107
0.666958
0.665817
0.664915
0.664382
0.652771
0.653099
0.653711
0.654779
0.656073
0.65747
0.658945
0.660415
0.661802
0.663105
0.664262
0.665023
0.665264
0.665031
0.664443
0.663667
0.662827
0.661976
0.661317
0.660925
0.648006
0.648261
0.648754
0.649664
0.650835
0.65214
0.653559
0.655082
0.656657
0.658219
0.659627
0.660565
0.660924
0.660841
0.66047
0.659933
0.659307
0.658685
0.658206
0.657907
0.643236
0.643438
0.643848
0.644649
0.645742
0.647001
0.648405
0.649973
0.651689
0.6535
0.655205
0.65641
0.65701
0.657175
0.657048
0.656739
0.656322
0.655893
0.655554
0.655319
0.638374
0.638537
0.638889
0.639617
0.640664
0.641905
0.64334
0.644994
0.646871
0.648942
0.650999
0.652572
0.653505
0.653967
0.6541
0.654026
0.653824
0.653571
0.653347
0.65316
0.633333
0.633465
0.633776
0.634459
0.635491
0.636758
0.638264
0.640048
0.642138
0.64453
0.647019
0.649047
0.65038
0.651186
0.651613
0.651791
0.651803
0.65172
0.651596
0.651444
0.628024
0.62813
0.628414
0.629079
0.63013
0.631467
0.633087
0.635056
0.637429
0.640228
0.643247
0.645823
0.647627
0.64883
0.649592
0.650044
0.650282
0.650371
0.650333
0.650208
0.622349
0.622434
0.622701
0.623373
0.624478
0.625927
0.627717
0.629939
0.632679
0.63599
0.63966
0.642894
0.645254
0.646918
0.648057
0.64883
0.649318
0.649569
0.649608
0.649506
0.616198
0.616264
0.616525
0.617225
0.618423
0.620031
0.622055
0.62461
0.627816
0.631763
0.636226
0.640252
0.643276
0.645481
0.647056
0.648188
0.648954
0.649381
0.649493
0.649407
0.60944
0.609487
0.609752
0.610503
0.611832
0.613655
0.615988
0.618973
0.622767
0.627498
0.632926
0.637904
0.641716
0.644561
0.646647
0.648183
0.649266
0.649884
0.65007
0.649997
0.601921
0.601948
0.602219
0.603044
0.604548
0.606652
0.609381
0.612908
0.617433
0.623129
0.62973
0.63585
0.640597
0.644196
0.646888
0.648909
0.650353
0.651176
0.651434
0.65137
0.593422
0.593439
0.593718
0.594645
0.596381
0.598844
0.602076
0.606284
0.611718
0.618598
0.626616
0.634106
0.639964
0.644449
0.647856
0.650455
0.652308
0.653357
0.653688
0.653631
0.583657
0.58365
0.583979
0.585051
0.587084
0.590004
0.593872
0.598938
0.605505
0.613843
0.623576
0.63269
0.639859
0.64539
0.649638
0.652908
0.655237
0.656534
0.656938
0.656883
0.572319
0.57229
0.572669
0.573932
0.576338
0.579847
0.58453
0.590685
0.598675
0.608806
0.620608
0.631645
0.640341
0.647095
0.652324
0.656371
0.659245
0.660805
0.661279
0.661221
0.558918
0.558867
0.559325
0.560839
0.56373
0.568009
0.573748
0.5813
0.591084
0.603433
0.617722
0.63101
0.64147
0.649627
0.656003
0.660939
0.664414
0.666248
0.666782
0.666716
0.542798
0.542724
0.543306
0.545173
0.548713
0.554016
0.561153
0.570525
0.582591
0.597675
0.614935
0.630841
0.643315
0.653062
0.660732
0.66667
0.670801
0.672901
0.673479
0.673398
0.523003
0.522912
0.523696
0.526074
0.530529
0.537254
0.546297
0.558093
0.573101
0.591563
0.612331
0.63122
0.645945
0.657466
0.66655
0.673603
0.678408
0.680739
0.681333
0.681229
0.498099
0.498007
0.499129
0.502297
0.508131
0.516935
0.528684
0.543786
0.562603
0.585203
0.610044
0.632258
0.649437
0.662877
0.673498
0.681712
0.687153
0.689646
0.690216
0.690083
0.465745
0.4657
0.467428
0.471962
0.480098
0.492142
0.507875
0.527531
0.551239
0.578816
0.608276
0.634092
0.653867
0.669315
0.681528
0.690906
0.696857
0.699388
0.699885
0.699717
0.421758
0.421915
0.424959
0.432328
0.44477
0.462141
0.483781
0.509583
0.539365
0.572718
0.607259
0.636879
0.659315
0.676778
0.690564
0.70099
0.707209
0.709599
0.709974
0.709772
0.35834
0.359671
0.367055
0.380944
0.401265
0.427099
0.457065
0.490672
0.527608
0.567382
0.607302
0.640777
0.665828
0.685216
0.700371
0.711555
0.717719
0.719745
0.719957
0.719743
0.282649
0.285264
0.299604
0.323506
0.354597
0.390475
0.429475
0.471348
0.515909
0.562731
0.608836
0.647013
0.675382
0.697205
0.713959
0.72569
0.731608
0.733372
0.733538
0.733421
0.205189
0.212124
0.233647
0.267576
0.309141
0.354822
0.402861
0.453075
0.505342
0.559277
0.611661
0.654621
0.686317
0.710562
0.728942
0.740911
0.746171
0.747446
0.747549
0.747503
0.142034
0.150831
0.176984
0.218016
0.267842
0.321855
0.378048
0.436084
0.495718
0.556496
0.614862
0.662286
0.697041
0.723369
0.742817
0.75485
0.759778
0.760947
0.761088
0.761096
0.0903168
0.0998298
0.129509
0.175829
0.231872
0.292558
0.355636
0.42059
0.486976
0.554158
0.618189
0.66986
0.707481
0.735788
0.75639
0.768785
0.773584
0.774696
0.7749
0.774948
0.0470465
0.0568663
0.0889526
0.139407
0.200554
0.266795
0.335708
0.406673
0.479094
0.552174
0.621585
0.677379
0.717802
0.748077
0.769893
0.782732
0.787674
0.788972
0.789201
0.789276
0.00975065
0.019705
0.053596
0.107362
0.172781
0.243789
0.317785
0.39408
0.472001
0.550587
0.625086
0.684829
0.72801
0.760205
0.783302
0.796848
0.802155
0.803532
0.80376
0.803837
-0.02325
-0.0132464
0.0220645
0.0785739
0.147627
0.222775
0.301298
0.382438
0.465423
0.549153
0.628484
0.692042
0.737896
0.771995
0.796348
0.810656
0.816361
0.817851
0.81808
0.818141
-0.0532151
-0.0431743
-0.00670646
0.052165
0.124374
0.203163
0.285727
0.371273
0.458949
0.54757
0.631592
0.698837
0.747259
0.783184
0.80876
0.82376
0.829873
0.831487
0.831705
0.831749
-0.0810928
-0.0709963
-0.0335021
0.027469
0.102469
0.184473
0.270654
0.360236
0.452326
0.545621
0.634202
0.705043
0.755965
0.793601
0.820292
0.835951
0.842463
0.844162
0.844353
0.844368
-0.107445
-0.0972837
-0.0588349
0.00402417
0.0814888
0.16636
0.255818
0.34911
0.445314
0.543077
0.63612
0.710569
0.763932
0.803218
0.830932
0.84708
0.85383
0.855607
0.855782
0.855764
-0.132732
-0.122438
-0.0830942
-0.0185211
0.0611446
0.148591
0.241014
0.337695
0.437739
0.539798
0.637269
0.715349
0.771165
0.812011
0.840594
0.857116
0.863983
0.865774
0.865931
0.865882
-0.157248
-0.146745
-0.106547
-0.0403977
0.0412436
0.130991
0.226096
0.325886
0.429515
0.535693
0.637558
0.71935
0.777691
0.820074
0.849397
0.866141
0.87298
0.874724
0.874857
0.874786
-0.181097
-0.170357
-0.129338
-0.0617499
0.0216642
0.113479
0.211003
0.31363
0.420581
0.530671
0.636908
0.722563
0.783569
0.827523
0.857467
0.874235
0.880956
0.882617
0.882704
0.882609
-0.204407
-0.193398
-0.151586
-0.0826414
0.00235604
0.0960142
0.19571
0.300905
0.410908
0.524699
0.635257
0.72495
0.788868
0.834505
0.86499
0.881616
0.888066
0.889573
0.889608
0.889492
-0.227172
-0.215917
-0.173309
-0.103101
-0.0166918
0.0786011
0.180233
0.287732
0.400513
0.517758
0.632545
0.726459
0.79363
0.841191
0.872182
0.888434
0.89443
0.895702
0.895658
0.89552
-0.249474
-0.237903
-0.194486
-0.123121
-0.0354657
0.0612665
0.16461
0.274162
0.389439
0.509854
0.628722
0.727012
0.797842
0.847731
0.879314
0.89494
0.900162
0.901051
0.900919
0.900777
-0.271106
-0.25932
-0.215107
-0.142693
-0.0539234
0.0440774
0.148901
0.260257
0.377747
0.50103
0.623753
0.72652
0.801425
0.854211
0.886733
0.901579
0.905593
0.905785
0.905494
0.90537
-0.292223
-0.280117
-0.235145
-0.161793
-0.0720404
0.0270692
0.133196
0.246096
0.365515
0.491359
0.617622
0.724875
0.804241
0.860582
0.894733
0.909041
0.911411
0.910245
0.909496
0.909444
-0.312642
-0.300259
-0.254583
-0.180374
-0.0897394
0.0103241
0.117576
0.231794
0.352848
0.480898
0.610347
0.721967
0.806101
0.866612
0.90334
0.918076
0.919008
0.915656
0.913438
0.913153
-0.332467
-0.319769
-0.273366
-0.19838
-0.106984
-0.00609038
0.102125
0.217431
0.33985
0.469777
0.601982
0.717668
0.806791
0.871907
0.912055
0.92883
0.930005
0.924893
0.918907
0.910312
-0.351582
-0.338641
-0.291584
-0.215977
-0.123998
-0.022454
0.0865118
0.202607
0.326079
0.457505
0.59203
0.711431
0.805944
0.876242
0.920296
0.940713
0.944676
0.938976
0.927945
0.926733
-0.369946
-0.356952
-0.30923
-0.233108
-0.140765
-0.0387303
0.0707646
0.187302
0.311498
0.443954
0.580304
0.702747
0.802791
0.878824
0.92614
0.949633
0.955854
0.952589
0.918554
0.880074
-0.387329
-0.374562
-0.326237
-0.249655
-0.157276
-0.0549253
0.054885
0.171649
0.296176
0.429154
0.566718
0.691241
0.796161
0.878751
0.927619
0.946969
0.952972