/*--------------------------------*- C++ -*----------------------------------*\
  =========                 |
  \\      /  F ield         | OpenFOAM: The Open Source CFD Toolbox
   \\    /   O peration     | Website:  https://openfoam.org
    \\  /    A nd           | Version:  6
     \\/     M anipulation  |
\*---------------------------------------------------------------------------*/
FoamFile
{
    version     2.0;
    format      ascii;
    class       surfaceScalarField;
    location    "44.6";
    object      phi;
}
// * * * * * * * * * * * * * * * * * * * * * * * * * * * * * * * * * * * * * //

dimensions      [0 3 -1 0 0 0 0];

internalField   nonuniform List<scalar> 
17370
(
-0.0900013
0.0898505
0.289162
-0.0714643
0.0537544
0.364485
-0.0381211
0.0276915
0.426598
-0.0196381
0.014603
0.504287
-0.0107585
0.00826611
0.601894
-0.00626583
0.00489137
0.720432
-0.00373266
0.00289793
0.863741
-0.00216232
0.00160753
1.03601
-0.00109496
0.000685872
1.24291
-0.000280931
-0.000106705
1.49158
0.000482597
-0.000888001
1.4916
0.00128228
-0.00177055
1.24318
0.00230176
-0.00301525
1.03635
0.00383655
-0.00498768
0.864058
0.0063585
-0.00835447
0.721053
0.0108406
-0.0146768
0.603051
0.0197043
-0.02775
0.507485
0.0381734
-0.0537985
0.431793
0.0715
-0.0898741
0.36515
0.0900148
0.198996
-0.128131
0.0882165
0.0399144
-0.364593
0.353367
-0.0746849
0.0859114
-0.446474
0.454313
-0.0844134
0.0765744
-0.521186
0.529894
-0.0684799
0.0597717
-0.612782
0.621561
-0.0515847
0.0428061
-0.726888
0.734154
-0.0353465
0.0280804
-0.867471
0.872574
-0.0224867
0.0173834
-1.03847
1.04191
-0.013585
0.010146
-1.2446
1.24702
-0.00754267
0.00511675
-1.49263
1.4946
-0.00317514
0.00120407
-1.4925
1.49422
0.000476562
-0.00219909
-1.24398
1.24586
0.00410155
-0.0059835
-1.03751
1.04005
0.0083393
-0.010873
-0.866103
0.869842
0.0142371
-0.0179768
-0.724394
0.729947
0.0230286
-0.0285822
-0.608702
0.616121
0.0358057
-0.0432243
-0.514902
0.523049
0.0519569
-0.0601037
-0.439859
0.447922
0.068771
-0.0768336
-0.3753
0.376749
0.084639
-0.0860879
-0.257337
0.222493
0.0748055
-0.0399617
-0.0685031
0.0586716
0.00983152
-0.0518453
0.0584397
-0.374111
0.367517
-0.0575328
0.0537874
-0.453584
0.45733
-0.0487019
0.0447535
-0.527933
0.531881
-0.0409179
0.0372843
-0.621548
0.625182
-0.0331916
0.0291283
-0.735332
0.739396
-0.0245746
0.0204289
-0.874319
0.878465
-0.0160949
0.0124084
-1.04347
1.04715
-0.00868022
0.00551591
-1.24855
1.25171
-0.00219913
-0.000866581
-1.49666
1.49972
0.00390764
-0.00716482
-1.49721
1.50047
0.0102434
-0.0138549
-1.25008
1.25369
0.017427
-0.0216374
-1.04594
1.05015
0.0256805
-0.0301367
-0.877779
0.882236
0.0341209
-0.0381317
-0.73992
0.74393
0.0416911
-0.0454466
-0.626794
0.630549
0.0493264
-0.0543468
-0.534827
0.539847
0.0580251
-0.0588472
-0.45749
0.458313
0.0521561
-0.0319712
-0.335778
0.315593
0.00988252
-0.0683651
0.0584825
-0.0529156
0.048914
0.00400153
-0.0332034
0.0437669
-0.358069
0.347506
-0.0474801
0.0468631
-0.459258
0.459875
-0.0438168
0.0404723
-0.535772
0.539117
-0.0367096
0.0334161
-0.628493
0.631787
-0.0299924
0.0269762
-0.74261
0.745626
-0.0237361
0.020645
-0.881976
0.885067
-0.0171312
0.0137666
-1.05073
1.0541
-0.00999035
0.00646424
-1.25514
1.25866
-0.0025064
-0.00128455
-1.50322
1.50701
0.00504551
-0.0089144
-1.50414
1.50801
0.0123209
-0.0159386
-1.25745
1.26107
0.0191458
-0.0224841
-1.05396
1.0573
0.0254233
-0.0285127
-0.885734
0.888824
0.0314065
-0.0347087
-0.747199
0.750501
0.0378968
-0.0415485
-0.634346
0.637998
0.0447966
-0.047734
-0.544169
0.547106
0.0482384
-0.044368
-0.456615
0.452745
0.0336187
-0.0161955
-0.296253
0.27883
0.00406405
-0.0526707
0.0486066
-0.0458299
0.0433273
0.00250261
-0.0228565
0.0332606
-0.336794
0.32639
-0.0391051
0.0401372
-0.459546
0.458514
-0.0389605
0.036683
-0.541824
0.544102
-0.0340262
0.0314423
-0.634824
0.637408
-0.0283973
0.0255193
-0.748661
0.751539
-0.0222819
0.0193126
-0.888004
0.890973
-0.0160324
0.0129525
-1.0572
1.06028
-0.00944613
0.00605549
-1.2621
1.26549
-0.00211293
-0.0017525
-1.51089
1.51475
0.0055804
-0.00940895
-1.51192
1.51574
0.0126465
-0.0159487
-1.26451
1.26782
0.0188226
-0.0218697
-1.0604
1.06345
0.0246331
-0.027663
-0.891893
0.894923
0.0303712
-0.0332485
-0.753725
0.756602
0.0356888
-0.0381979
-0.641082
0.643591
0.0403486
-0.0413592
-0.54893
0.54994
0.0401557
-0.0340618
-0.447491
0.441397
0.0233868
-0.0102039
-0.263643
0.25046
0.0025792
-0.0454533
0.0428741
-0.0412451
0.0394695
0.00177564
-0.0168064
0.0260903
-0.316509
0.307225
-0.0327296
0.0348951
-0.456893
0.454727
-0.0344979
0.0328478
-0.546063
0.547713
-0.0306901
0.0286182
-0.639692
0.641764
-0.0262153
0.023845
-0.754162
0.756532
-0.0210159
0.0182501
-0.893847
0.896613
-0.0150385
0.0119931
-1.06331
1.06635
-0.00852973
0.00522808
-1.26879
1.27209
-0.00141426
-0.00230825
-1.51853
1.52225
0.00598143
-0.00964768
-1.51949
1.52315
0.0127527
-0.0159529
-1.27108
1.27428
0.0187334
-0.021644
-1.06649
1.0694
0.0241438
-0.0267043
-0.897755
0.900316
0.0288544
-0.0310397
-0.759069
0.761254
0.0329284
-0.0348971
-0.645766
0.647735
0.0363643
-0.0365378
-0.55048
0.550653
0.0341113
-0.0271106
-0.434769
0.427769
0.0174647
-0.00736658
-0.238971
0.228873
0.00186889
-0.0407072
0.0388383
-0.0379395
0.0366008
0.00133874
-0.012854
0.0208386
-0.298598
0.290614
-0.027631
0.0305854
-0.452141
0.449187
-0.0308161
0.0297176
-0.549123
0.550221
-0.027742
0.0258441
-0.643776
0.645674
-0.0236694
0.0215608
-0.758746
0.760854
-0.0190834
0.0166386
-0.899151
0.901596
-0.013741
0.0109024
-1.06925
1.07209
-0.00758048
0.00437023
-1.27532
1.27853
-0.000647669
-0.00296687
-1.52589
1.52951
0.00652025
-0.0100601
-1.52676
1.5303
0.0130249
-0.0160206
-1.27743
1.28042
0.0185305
-0.0210505
-1.07214
1.07466
0.0231548
-0.0252818
-0.902629
0.904756
0.0271035
-0.0290008
-0.763262
0.765159
0.0306729
-0.0324286
-0.649574
0.65133
0.0332651
-0.0327215
-0.550479
0.549936
0.0293952
-0.02211
-0.420573
0.413287
0.0136625
-0.00569189
-0.219942
0.211972
0.00145221
-0.0372057
0.0357534
-0.0354307
0.0343958
0.00103488
-0.0100643
0.0168229
-0.28327
0.276512
-0.0233583
0.0267768
-0.445987
0.442568
-0.0276016
0.0269359
-0.551102
0.551768
-0.0252115
0.0234598
-0.647545
0.649296
-0.0214292
0.0194497
-0.762891
0.76487
-0.0171158
0.0148186
-0.903888
0.906186
-0.0121111
0.00945698
-1.07476
1.07741
-0.00633838
0.00329292
-1.28161
1.28466
0.000274559
-0.00375197
-1.53303
1.53651
0.00715563
-0.0105025
-1.53375
1.5371
0.0132504
-0.01597
-1.2833
1.28602
0.0182214
-0.0204665
-1.07704
1.07929
0.0223439
-0.0242417
-0.906769
0.908666
0.0258608
-0.0275417
-0.766938
0.768619
0.029007
-0.0304183
-0.652936
0.654348
0.0307528
-0.0294978
-0.549049
0.547794
0.0255702
-0.0183901
-0.406033
0.398853
0.0110524
-0.00457487
-0.20482
0.198342
0.00117268
-0.0344588
0.0332861
-0.0334868
0.032678
0.000808781
-0.00799579
0.0136854
-0.270321
0.264631
-0.0197401
0.0233592
-0.439047
0.435427
-0.0246647
0.0242502
-0.552344
0.552758
-0.0227975
0.0211589
-0.651035
0.652674
-0.0192252
0.0173362
-0.766795
0.768684
-0.0151084
0.0129214
-0.90836
0.910547
-0.0103501
0.0078363
-1.07992
1.08243
-0.00488388
0.00199217
-1.28758
1.29047
0.00140428
-0.00471478
-1.53988
1.54319
0.0079351
-0.0110572
-1.54034
1.54346
0.0135807
-0.0160424
-1.28864
1.2911
0.0180606
-0.0200614
-1.08144
1.08344
0.0217305
-0.0234193
-0.910477
0.912165
0.024861
-0.0263591
-0.770194
0.771692
0.0276449
-0.0287038
-0.655556
0.656615
0.0286848
-0.0267822
-0.546218
0.544315
0.0224869
-0.0156093
-0.391821
0.384944
0.0092028
-0.00379424
-0.192451
0.187042
0.000976658
-0.0322254
0.0312488
-0.0319667
0.0313327
0.000633956
-0.00640006
0.011177
-0.259429
0.254653
-0.0166488
0.0202787
-0.431812
0.428182
-0.0219191
0.0217372
-0.553106
0.553288
-0.0205207
0.0189392
-0.654336
0.655918
-0.0170668
0.015236
-0.770528
0.772359
-0.0130786
0.0109596
-0.912608
0.914727
-0.00846478
0.00602746
-1.08482
1.08726
-0.00317822
0.00041494
-1.29324
1.296
0.00278848
-0.00587642
-1.54636
1.54945
0.00885603
-0.0117323
-1.54645
1.54933
0.014054
-0.0163116
-1.29348
1.29574
0.0181538
-0.0199634
-1.08536
1.08717
0.0214528
-0.0229468
-0.913769
0.915263
0.0242208
-0.025548
-0.773115
0.774442
0.0266979
-0.0273618
-0.657463
0.658127
0.0269864
-0.0245516
-0.54217
0.539735
0.0200423
-0.013534
-0.378263
0.371755
0.00787346
-0.00324057
-0.182063
0.17743
0.000838382
-0.0303542
0.0295159
-0.0307785
0.0302862
0.000492341
-0.00511465
0.00910333
-0.2503
0.246311
-0.013944
0.017433
-0.424637
0.421148
-0.0192748
0.0193095
-0.55341
0.553375
-0.018319
0.0168033
-0.657529
0.659044
-0.014976
0.0131709
-0.774155
0.77596
-0.0110362
0.00894414
-0.916744
0.918836
-0.00649671
0.00412455
-1.08958
1.09196
-0.00136953
-0.00129022
-1.29865
1.30131
0.00436328
-0.00730667
-1.55241
1.55536
0.0101134
-0.01278
-1.55209
1.55475
0.0148962
-0.0169263
-1.29792
1.29995
0.018566
-0.0201679
-1.08892
1.09052
0.0214871
-0.0228094
-0.916698
0.918021
0.023935
-0.0250931
-0.775684
0.776842
0.0260398
-0.026344
-0.658577
0.658881
0.0255942
-0.0227232
-0.537096
0.534225
0.0181146
-0.0119843
-0.365456
0.359326
0.00691119
-0.00284588
-0.173116
0.169051
0.000740937
-0.0287384
0.0279974
-0.0298618
0.0294897
0.000372058
-0.00403534
0.00733059
-0.242698
0.239403
-0.0115281
0.0147627
-0.417813
0.414579
-0.0166626
0.0168477
-0.55333
0.553145
-0.0159255
0.0144753
-0.660596
0.662046
-0.0126461
0.010845
-0.777733
0.779534
-0.00873403
0.00667997
-0.920796
0.92285
-0.00428329
0.00196222
-1.0942
1.09652
0.000728968
-0.00331174
-1.30386
1.30645
0.00626521
-0.00905435
-1.55819
1.56098
0.0116813
-0.0141465
-1.55731
1.55978
0.0160738
-0.0178925
-1.30189
1.30371
0.0193322
-0.0207113
-1.09203
1.09341
0.02183
-0.0229538
-0.91927
0.920394
0.0239224
-0.0249199
-0.777951
0.778949
0.0256367
-0.0256714
-0.659054
0.659088
0.0245407
-0.0213083
-0.531188
0.527956
0.016657
-0.0108595
-0.353392
0.347595
0.00623237
-0.00257436
-0.165222
0.161564
0.000676082
-0.0273018
0.0266257
-0.0291768
0.0289116
0.000265131
-0.00308613
0.00575144
-0.236446
0.233781
-0.00930244
0.0122053
-0.411537
0.408634
-0.0140751
0.0143771
-0.55298
0.552678
-0.0135413
0.012169
-0.66355
0.664922
-0.0103421
0.00851084
-0.781315
0.783146
-0.00634991
0.0042493
-0.924799
0.9269
-0.00181482
-0.000515677
-1.09873
1.10106
0.00318001
-0.00569958
-1.30892
1.31144
0.00853961
-0.0111808
-1.56363
1.56628
0.0136248
-0.0158707
-1.56212
1.56437
0.0175923
-0.0191878
-1.30546
1.30706
0.0204369
-0.0216238
-1.09474
1.09593
0.0225799
-0.0235435
-0.921468
0.922432
0.0243732
-0.0251971
-0.779877
0.780701
0.0256468
-0.0254149
-0.658969
0.658737
0.0238783
-0.0202942
-0.524575
0.520991
0.0156086
-0.0100761
-0.34197
0.336438
0.00577474
-0.00239878
-0.158081
0.154705
0.000636934
-0.0259837
0.0253468
-0.0287023
0.0285386
0.000163609
-0.00220301
0.004274
-0.231431
0.22936
-0.00716923
0.00965906
-0.405969
0.403479
-0.011369
0.0116869
-0.552455
0.552137
-0.0108851
0.00954676
-0.666374
0.667713
-0.00769847
0.00582399
-0.784956
0.786831
-0.00361173
0.00147143
-0.928889
0.931029
0.000993223
-0.00333742
-1.10328
1.10562
0.00599813
-0.00849282
-1.31386
1.31635
0.0112706
-0.0138095
-1.56881
1.57135
0.0161079
-0.0181645
-1.56649
1.56855
0.0196947
-0.0210662
-1.30857
1.30994
0.0221056
-0.0230608
-1.09707
1.09803
0.0238029
-0.024535
-0.923339
0.924071
0.02517
-0.0258161
-0.781428
0.782074
0.0259656
-0.0254042
-0.658277
0.657715
0.0234755
-0.0195935
-0.517303
0.513421
0.0148862
-0.00955513
-0.331058
0.325727
0.00548236
-0.00229312
-0.15146
0.148271
0.000615667
-0.0247365
0.0241208
-0.0284315
0.0283701
6.13712e-05
-0.00134031
0.00282935
-0.227595
0.226106
-0.00505474
0.00707305
-0.401261
0.399243
-0.00852722
0.00877562
-0.551972
0.551724
-0.00794257
0.00657469
-0.669191
0.670559
-0.00464465
0.00269029
-0.788685
0.790639
-0.000398445
-0.00180307
-0.933035
0.935236
0.00432425
-0.00670948
-1.10784
1.11022
0.00939526
-0.0118805
-1.31874
1.32123
0.0145905
-0.0169996
-1.57377
1.57618
0.0191174
-0.0209521
-1.57048
1.57231
0.0222646
-0.0233805
-1.31122
1.31233
0.0241774
-0.0248655
-1.0989
1.09959
0.0253754
-0.0258819
-0.92476
0.925266
0.0263562
-0.0268357
-0.782608
0.783088
0.0267136
-0.0257925
-0.656891
0.65597
0.0234728
-0.0192742
-0.509455
0.505257
0.0145024
-0.00928372
-0.320518
0.3153
0.00534522
-0.00225586
-0.145175
0.142086
0.000613767
-0.0235253
0.0229115
-0.0283672
0.0284151
-4.79081e-05
-0.000452357
0.00134919
-0.224924
0.224027
-0.0028691
0.00434748
-0.397532
0.396053
-0.00545453
0.00557746
-0.551679
0.551556
-0.00470314
0.00329477
-0.672094
0.673503
-0.00128384
-0.000784167
-0.792576
0.794644
0.00322359
-0.00556209
-0.937322
0.939661
0.00822071
-0.0107029
-1.1125
1.11499
0.013453
-0.0159474
-1.3236
1.32609
0.0186127
-0.0209204
-1.57845
1.58076
0.0228692
-0.0244668
-1.57399
1.57558
0.0255403
-0.026396
-1.31336
1.31421
0.02696
-0.0273943
-1.10024
1.10067
0.0276629
-0.0279153
-0.925741
0.925993
0.028172
-0.0283547
-0.783294
0.783476
0.027974
-0.0265916
-0.654748
0.653365
0.0238299
-0.019287
-0.500999
0.496456
0.0144102
-0.00922398
-0.310181
0.304995
0.00533722
-0.00227378
-0.139061
0.135998
0.000626491
-0.0223135
0.021687
-0.0285216
0.0286895
-0.00016792
0.000501392
-0.00023937
-0.22345
0.223188
-0.000524171
0.00137881
-0.394922
0.394067
-0.00201329
0.00189905
-0.551724
0.551838
-0.000897406
-0.000617353
-0.675121
0.676636
0.00274634
-0.00495777
-0.796684
0.798895
0.00757047
-0.0100621
-0.941877
0.944369
0.0128693
-0.0154618
-1.11735
1.11995
0.0182988
-0.0208376
-1.32848
1.33102
0.0234906
-0.0257125
-1.58295
1.58517
0.0274976
-0.0288527
-1.57702
1.57838
0.0296636
-0.0301975
-1.31494
1.31547
0.0304649
-0.0305852
-1.10104
1.10116
0.0305834
-0.0305578
-0.926206
0.92618
0.0305799
-0.030425
-0.783294
0.783139
0.0297114
-0.0277847
-0.651711
0.649785
0.024568
-0.0196619
-0.491889
0.486983
0.014624
-0.00937759
-0.299881
0.294635
0.00545799
-0.00234717
-0.13297
0.129859
0.000654205
-0.0210717
0.0204175
-0.028937
0.0292497
-0.000312758
0.00153714
-0.00192392
-0.223274
0.223661
0.00201476
-0.0018854
-0.393587
0.393457
0.00185868
-0.00233379
-0.552358
0.552833
0.00356399
-0.0052766
-0.678433
0.680146
0.00762897
-0.0100436
-0.801083
0.803498
0.0128656
-0.0155314
-0.946714
0.94938
0.0185178
-0.0212625
-1.12242
1.12517
0.0242341
-0.026839
-1.33345
1.33606
0.0294718
-0.0315586
-1.58723
1.58931
0.0331239
-0.0341808
-1.57953
1.58059
0.034711
-0.0348954
-1.31586
1.31605
0.0348328
-0.0345949
-1.10117
1.10093
0.0342683
-0.0339152
-0.926065
0.925712
0.0336917
-0.0331309
-0.782549
0.781988
0.0320259
-0.0295178
-0.647664
0.645156
0.0257879
-0.0204394
-0.48206
0.476712
0.0151543
-0.00974493
-0.289428
0.284019
0.00570616
-0.00247532
-0.126755
0.123524
0.000696932
-0.01977
0.0190731
-0.0296317
0.030113
-0.000481309
0.00280045
-0.00395341
-0.224445
0.225598
0.0049566
-0.0056449
-0.393718
0.394406
0.00632527
-0.00721674
-0.553833
0.554725
0.0087053
-0.0106349
-0.682195
0.684125
0.0132504
-0.0159291
-0.805882
0.80856
0.019062
-0.0220169
-0.951919
0.954874
0.0253025
-0.0282793
-1.12781
1.13079
0.0314393
-0.0341341
-1.33855
1.34125
0.0367575
-0.0387227
-1.59123
1.5932
0.0400448
-0.0407569
-1.58142
1.58213
0.0409287
-0.0407193
-1.31604
1.31583
0.0402958
-0.0396743
-1.10053
1.09991
0.039001
-0.0382759
-0.925204
0.924479
0.0377109
-0.0366427
-0.780925
0.779857
0.0350197
-0.0318266
-0.642506
0.639313
0.0274979
-0.0216265
-0.47135
0.465479
0.0160082
-0.0103286
-0.278619
0.27294
0.00608132
-0.00265654
-0.120275
0.11685
0.000753466
-0.0183791
0.0176256
-0.0306773
0.031379
-0.000701664
0.00431296
-0.00637748
-0.227201
0.229266
0.0084433
-0.0100365
-0.395524
0.397117
0.0115636
-0.013022
-0.556312
0.55777
0.0149142
-0.0171477
-0.686435
0.688669
0.0201162
-0.0231424
-0.811204
0.81423
0.0266668
-0.0299615
-0.957715
0.961009
0.0335815
-0.0368123
-1.13367
1.1369
0.0401827
-0.0429919
-1.34382
1.34663
0.045627
-0.0474631
-1.59498
1.59682
0.0485219
-0.0488397
-1.58258
1.58289
0.0485769
-0.0479142
-1.31537
1.31471
0.0470616
-0.0459897
-1.09903
1.09796
0.0449241
-0.0437709
-0.923513
0.92236
0.0427207
-0.0411127
-0.778254
0.776646
0.0388254
-0.0348496
-0.636023
0.632047
0.0298372
-0.0233277
-0.459602
0.453093
0.0172492
-0.0111607
-0.26723
0.261141
0.00659829
-0.00289558
-0.113376
0.109673
0.0008247
-0.0168718
0.0160471
-0.0321668
0.0331566
-0.000989795
0.00620651
-0.00933799
-0.231783
0.234915
0.0126421
-0.015292
-0.399305
0.401955
0.0178008
-0.0199853
-0.560127
0.562311
0.0224958
-0.0252206
-0.691397
0.694122
0.0287118
-0.0321859
-0.817215
0.820689
0.0361635
-0.0398401
-0.964171
0.967847
0.0438429
-0.047375
-1.14002
1.14356
0.0509869
-0.0539007
-1.34931
1.35222
0.0564824
-0.0580857
-1.59843
1.60003
0.0587593
-0.0585726
-1.5829
1.58272
0.0578161
-0.0565869
-1.31369
1.31246
0.0552264
-0.0536081
-1.09651
1.09489
0.052079
-0.0504348
-0.920866
0.919222
0.0488604
-0.0466447
-0.774474
0.772258
0.0436321
-0.0387504
-0.62801
0.623128
0.0329062
-0.0255854
-0.446565
0.439244
0.0188921
-0.012239
-0.254981
0.248328
0.00724789
-0.00318407
-0.105894
0.10183
0.000907045
-0.0152201
0.0143131
-0.0342233
0.0356083
-0.001385
0.00868318
-0.0131362
-0.238505
0.242958
0.017906
-0.0217678
-0.405386
0.409248
0.0253935
-0.028419
-0.565627
0.568652
0.0316856
-0.0350313
-0.697438
0.700783
0.0391874
-0.0432409
-0.824126
0.828179
0.0478215
-0.0520086
-0.971425
0.975612
0.0565059
-0.0603964
-1.14699
1.15088
0.0642618
-0.0672448
-1.35496
1.35794
0.0697007
-0.070979
-1.60133
1.60261
0.0711651
-0.0703458
-1.58215
1.58133
0.0689779
-0.0670541
-1.31077
1.30884
0.065098
-0.0628756
-1.09277
1.09055
0.0608174
-0.0586348
-0.917128
0.914945
0.0564319
-0.053506
-0.769439
0.766513
0.0496164
-0.0436422
-0.618193
0.612219
0.0367921
-0.0284643
-0.431904
0.423577
0.0209722
-0.0135697
-0.241561
0.234158
0.00802092
-0.00350958
-0.0976646
0.0931533
0.000993763
-0.0134055
0.0124118
-0.037043
0.0389986
-0.0019556
0.012077
-0.0182151
-0.247844
0.253982
0.0247477
-0.0300179
-0.414213
0.419484
0.0349397
-0.0389701
-0.573111
0.577141
0.0431721
-0.0473115
-0.704813
0.708953
0.0523254
-0.0571203
-0.832204
0.836999
0.0624609
-0.0672589
-0.979729
0.984527
0.0722997
-0.0765328
-1.15465
1.15888
0.0805836
-0.0835425
-1.36068
1.36364
0.0857415
-0.0865611
-1.60351
1.60433
0.0861084
-0.0845119
-1.58003
1.57844
0.082414
-0.0797056
-1.30638
1.30368
0.0770745
-0.0741615
-1.08769
1.08478
0.0715278
-0.0686953
-0.912149
0.909317
0.065772
-0.0619533
-0.762933
0.759114
0.0570038
-0.0497423
-0.606188
0.598927
0.0416832
-0.0320916
-0.415227
0.405636
0.0235583
-0.0151727
-0.226594
0.218208
0.00891339
-0.00386254
-0.0885171
0.0834662
0.00107959
-0.0114228
0.0103432
-0.0409452
0.0437764
-0.00283121
0.0169925
-0.0253402
-0.260496
0.268844
0.0340333
-0.0409917
-0.426438
0.433396
0.0474767
-0.052786
-0.58305
0.588359
0.0582558
-0.0635109
-0.713929
0.719184
0.0696478
-0.0753265
-0.841761
0.847439
0.0814823
-0.0868645
-0.989234
0.994617
0.092342
-0.0967666
-1.1629
1.16733
0.100776
-0.103459
-1.36622
1.3689
0.105073
-0.105104
-1.60457
1.6046
0.103733
-0.101132
-1.57621
1.57361
0.0981442
-0.0945195
-1.30034
1.29672
0.0911306
-0.0874812
-1.08112
1.07747
0.0842298
-0.0806886
-0.905679
0.902138
0.0770547
-0.07221
-0.754512
0.749668
0.0660462
-0.0572455
-0.59158
0.582779
0.0477034
-0.0365212
-0.396013
0.384831
0.0266495
-0.017011
-0.209628
0.19999
0.00988522
-0.00422015
-0.0782835
0.0726184
0.00115732
-0.00927674
0.00811942
-0.0464846
0.0507862
-0.00430162
0.0245897
-0.0359141
-0.277582
0.288906
0.04737
-0.0565695
-0.443081
0.452281
0.0650253
-0.0718699
-0.596105
0.602949
0.0789327
-0.0856615
-0.725318
0.732047
0.0930064
-0.099513
-0.853019
0.859526
0.106312
-0.112039
-0.999792
1.00552
0.11763
-0.121914
-1.17137
1.17565
0.125489
-0.12752
-1.371
1.37303
0.128144
-0.127035
-1.60386
1.60276
0.12444
-0.120559
-1.57025
1.56637
0.116478
-0.111748
-1.29237
1.28764
0.107458
-0.102985
-1.07291
1.06844
0.0991316
-0.0948592
-0.897586
0.893314
0.0905003
-0.084441
-0.743843
0.737784
0.0768161
-0.0661331
-0.573804
0.563121
0.0547716
-0.0416269
-0.37361
0.360465
0.0300911
-0.0189391
-0.19019
0.179038
0.0108304
-0.00453142
-0.0668661
0.0605672
0.00121133
-0.00699008
0.00577875
-0.0547112
0.0620494
-0.00733818
0.0378951
-0.0536199
-0.301182
0.316907
0.0689809
-0.0812235
-0.465713
0.477956
0.0917152
-0.0999513
-0.612741
0.620977
0.108591
-0.116623
-0.739334
0.747367
0.124912
-0.131817
-0.865727
0.872632
0.138684
-0.144191
-1.01079
1.01629
0.149279
-0.152841
-1.17925
1.18282
0.155386
-0.156227
-1.37419
1.37503
0.155356
-0.152684
-1.60065
1.59798
0.148498
-0.143037
-1.56157
1.55611
0.137654
-0.131668
-1.28212
1.27613
0.126359
-0.120917
-1.06288
1.05743
0.116312
-0.111298
-0.8877
0.882686
0.106024
-0.0984042
-0.730524
0.722904
0.0889657
-0.0759782
-0.552049
0.539062
0.0624007
-0.0469502
-0.347247
0.331797
0.0335228
-0.0207407
-0.167917
0.155135
0.0116222
-0.00473912
-0.0543475
0.0474644
0.00121569
-0.00461663
0.00340094
-0.0689074
0.072978
-0.00407064
0.0287614
-0.0424619
-0.335214
0.348915
0.0561611
-0.0673612
-0.495623
0.506823
0.077341
-0.0866608
-0.63262
0.64194
0.0971057
-0.106605
-0.75479
0.764289
0.117071
-0.126263
-0.878556
0.887748
0.135931
-0.144391
-1.02087
1.02933
0.153049
-0.160233
-1.18528
1.19246
0.167021
-0.171965
-1.37466
1.3796
0.175614
-0.176873
-1.59404
1.5953
0.175663
-0.172506
-1.54952
1.54637
0.168339
-0.162918
-1.26922
1.2638
0.157794
-0.151726
-1.05081
1.04474
0.146467
-0.140475
-0.87573
0.869738
0.133846
-0.123381
-0.713657
0.703192
0.109872
-0.0918085
-0.525407
0.507343
0.0735294
-0.0532197
-0.316078
0.295769
0.0364596
-0.0214636
-0.142781
0.127785
0.0113978
-0.00436179
-0.0411396
0.0341036
0.000997712
-0.00224178
0.00124407
-0.0802975
0.0783365
0.00196091
0.00740654
-0.0161738
-0.365356
0.374124
0.0265274
-0.0345944
-0.522598
0.530665
0.0426192
-0.0504062
-0.653794
0.661581
0.05994
-0.0687808
-0.773294
0.782135
0.0781646
-0.0866503
-0.896372
0.904858
0.0955571
-0.103008
-1.03751
1.04496
0.110796
-0.116862
-1.19942
1.20548
0.122479
-0.126175
-1.38413
1.38783
0.128145
-0.127856
-1.5955
1.59522
0.125124
-0.120417
-1.54218
1.53747
0.114716
-0.107766
-1.25766
1.25071
0.101298
-0.094176
-1.03764
1.03051
0.0876481
-0.0802822
-0.860298
0.852932
0.0730808
-0.0639152
-0.688711
0.679546
0.0537165
-0.0414047
-0.487541
0.475229
0.0302098
-0.0195708
-0.275324
0.264685
0.0120431
-0.00636219
-0.113406
0.107725
0.00302934
-0.00101224
-0.0273407
0.0253236
0.000157856
3.57101e-05
-0.000193566
-0.0816403
0.0787952
0.00284516
-0.0013036
-0.0036618
-0.385736
0.390702
0.0104732
-0.0164311
-0.542558
0.548516
0.0224783
-0.0292043
-0.671756
0.678482
0.0375131
-0.0452093
-0.790039
0.797735
0.0535851
-0.0610044
-0.912578
0.919997
0.0685477
-0.075216
-1.05225
1.05892
0.0819651
-0.0872808
-1.2111
1.21641
0.0917218
-0.0943645
-1.3908
1.39344
0.095526
-0.0943877
-1.59413
1.593
0.0909212
-0.0855791
-1.53207
1.52673
0.0794245
-0.0721397
-1.24349
1.23621
0.064863
-0.0568892
-1.0224
1.01443
0.0493784
-0.0410018
-0.843342
0.834966
0.0336284
-0.0256614
-0.666561
0.658594
0.0179143
-0.00987988
-0.461098
0.453064
0.0042862
-0.000576836
-0.25324
0.249531
-0.0010601
0.00149273
-0.101342
0.100909
-0.00124157
0.000683266
-0.0228012
0.0233595
-0.000263994
0.00076495
-0.000500955
-0.0804448
0.0777133
0.00273156
-0.0049137
0.00244681
-0.399259
0.401726
0.00194634
-0.00646544
-0.557567
0.562086
0.0116526
-0.0173527
-0.686596
0.692296
0.0245493
-0.0312115
-0.80478
0.811442
0.0384172
-0.0448162
-0.926896
0.933294
0.0516938
-0.0573656
-1.06516
1.07083
0.0632718
-0.0674793
-1.22131
1.22552
0.0712701
-0.073433
-1.39587
1.39803
0.0740313
-0.0723162
-1.59149
1.58977
0.068731
-0.0633052
-1.52089
1.51547
0.057049
-0.0492431
-1.22862
1.22082
0.041739
-0.0333927
-1.0056
0.997256
0.0254297
-0.0171238
-0.824912
0.816606
0.00976618
-0.002762
-0.647124
0.64012
-0.00301366
0.00754964
-0.443341
0.438805
-0.00937291
0.00912816
-0.243301
0.243546
-0.00783529
0.00560576
-0.0994299
0.101659
-0.0036415
0.001708
-0.0232602
0.0251937
-0.000534559
0.000684153
-0.000149594
-0.0790316
0.0766467
0.00238487
-0.00600992
0.00506177
-0.408378
0.409326
-0.00175383
-0.00165487
-0.569682
0.573091
0.00588982
-0.0111026
-0.699167
0.704379
0.0171987
-0.0231064
-0.817404
0.823311
0.0294059
-0.0350181
-0.939267
0.944879
0.0409717
-0.0460713
-1.07638
1.08148
0.0511258
-0.0550685
-1.22961
1.23355
0.0583819
-0.0602046
-1.39987
1.4017
0.0605173
-0.0585841
-1.58791
1.58598
0.0547834
-0.0489476
-1.50926
1.50343
0.0425494
-0.0348231
-1.21282
1.20509
0.0274228
-0.0192461
-0.988402
0.980226
0.011919
-0.00428597
-0.807248
0.799615
-0.00219022
0.00821622
-0.630192
0.624166
-0.0125505
0.0153453
-0.431506
0.428711
-0.0156134
0.0135722
-0.240546
0.242587
-0.0109491
0.00771456
-0.102709
0.105944
-0.00487431
0.00222367
-0.0265621
0.0292127
-0.000670179
-7.67472e-05
0.000746926
-0.0777693
0.0757534
0.00201591
-0.00585876
0.00536072
-0.414732
0.41523
-0.00336717
0.000555167
-0.579137
0.581949
0.00361445
-0.00812039
-0.709921
0.714427
0.0134072
-0.0185767
-0.828428
0.833598
0.0242235
-0.029295
-0.950163
0.955234
0.0348194
-0.0393742
-1.08633
1.09089
0.0440392
-0.0477111
-1.23726
1.24093
0.0507517
-0.0523877
-1.40329
1.40493
0.0525279
-0.0508644
-1.58393
1.58227
0.0470456
-0.0415388
-1.49712
1.49162
0.0354563
-0.028271
-1.19727
1.19009
0.0217779
-0.0143374
-0.97209
0.964649
0.00768452
-0.000697809
-0.791364
0.784377
-0.00550798
0.0112927
-0.615563
0.609779
-0.0150661
0.0173504
-0.422937
0.420653
-0.0169874
0.0145205
-0.241197
0.243664
-0.0116323
0.00812438
-0.107997
0.111505
-0.00508219
0.00233697
-0.0311117
0.033857
-0.000705177
-0.00115073
0.00185591
-0.0768719
0.0753245
0.00154738
-0.00493134
0.00472814
-0.419557
0.419761
-0.00304435
0.000898578
-0.587469
0.589614
0.00301093
-0.0071278
-0.719316
0.723432
0.01217
-0.0166605
-0.838379
0.84287
0.0216724
-0.0262337
-0.960295
0.964856
0.0315692
-0.0358164
-1.09551
1.09976
0.0401128
-0.0437315
-1.24449
1.24811
0.04707
-0.0486958
-1.40663
1.40825
0.0490504
-0.0475358
-1.58027
1.57875
0.0444761
-0.0394788
-1.48611
1.48111
0.0344195
-0.0284152
-1.18311
1.1771
0.0226802
-0.0162256
-0.957455
0.951001
0.00995839
-0.00289705
-0.776507
0.769445
-0.00313465
0.00913926
-0.601616
0.595611
-0.0130012
0.0149257
-0.41571
0.413786
-0.014835
0.0129536
-0.242913
0.244795
-0.0104162
0.00727099
-0.113535
0.116681
-0.00456692
0.00213322
-0.0356767
0.0381104
-0.000664135
-0.00226467
0.0029288
-0.0764972
0.0753092
0.00118803
-0.00379995
0.00369094
-0.423488
0.423597
-0.00208246
4.60463e-05
-0.594763
0.596799
0.00364262
-0.00736401
-0.727794
0.731516
0.0117142
-0.0160642
-0.847322
0.851672
0.0207474
-0.0255129
-0.96925
0.974016
0.0302165
-0.0343838
-1.10416
1.10832
0.0389341
-0.0424387
-1.25166
1.25516
0.0454384
-0.0476056
-1.40985
1.41202
0.0483467
-0.0474636
-1.57744
1.57655
0.0450654
-0.0412852
-1.47664
1.47286
0.0371546
-0.0320358
-1.17114
1.16602
0.026989
-0.020891
-0.944432
0.938334
0.0147618
-0.00787546
-0.761818
0.754932
0.00159739
0.00418032
-0.587846
0.582069
-0.00782528
0.00990146
-0.409182
0.407106
-0.0102655
0.00905827
-0.243967
0.245174
-0.00737216
0.00519555
-0.11795
0.120127
-0.00330359
0.00156035
-0.0394154
0.0411587
-0.000499652
-0.00322751
0.00372716
-0.0766769
0.0756889
0.000988056
-0.00248531
0.0021044
-0.427095
0.427476
-0.000646631
-0.001443
-0.601502
0.603592
0.00482002
-0.00842611
-0.735708
0.739314
0.0126138
-0.0165891
-0.85584
0.859815
0.021435
-0.0254718
-0.978232
0.982269
0.0302299
-0.0343142
-1.11269
1.11678
0.0388453
-0.0426204
-1.25869
1.26247
0.0460122
-0.048095
-1.41401
1.41609
0.0493964
-0.0492342
-1.57577
1.5756
0.0478781
-0.0448147
-1.46923
1.46617
0.0413738
-0.0367666
-1.16114
1.15653
0.0320189
-0.0259584
-0.931854
0.925793
0.0199528
-0.0130311
-0.747308
0.740387
0.00695444
-0.00130747
-0.574935
0.569288
-0.00240787
0.00442142
-0.402569
0.400555
-0.00519781
0.00483738
-0.243715
0.244076
-0.00407457
0.00287235
-0.120508
0.12171
-0.0018387
0.000914463
-0.0417357
0.0426599
-0.000310358
-0.00386198
0.00417234
-0.077156
0.0764733
0.000682686
-0.00133192
0.000471424
-0.430842
0.431702
0.000812462
-0.00305602
-0.607522
0.609765
0.00615187
-0.00965843
-0.743116
0.746623
0.0136912
-0.017819
-0.863681
0.867809
0.0220951
-0.0263472
-0.986545
0.990797
0.0311327
-0.0350669
-1.12132
1.12525
0.0397509
-0.0435395
-1.26608
1.26987
0.0470591
-0.0497698
-1.41863
1.42134
0.0517389
-0.0520868
-1.57562
1.57597
0.0511671
-0.0489094
-1.46339
1.46113
0.0459622
-0.0415327
-1.15176
1.14733
0.0367904
-0.0310171
-0.919456
0.913683
0.0248387
-0.018394
-0.73291
0.726465
0.012723
-0.00735357
-0.562865
0.557495
0.00380063
-0.00128221
-0.395893
0.393375
2.593e-05
0.000559948
-0.242145
0.241559
-0.000683186
0.000591427
-0.121118
0.12121
-0.000502356
0.000333248
-0.042549
0.0427181
-0.000154305
-0.00414968
0.00430399
-0.0780351
0.0775135
0.000521531
-0.000375821
-0.000433419
-0.434862
0.435671
0.00229806
-0.00441431
-0.613664
0.61578
0.00772455
-0.0111319
-0.750066
0.753473
0.0150344
-0.0187933
-0.871641
0.8754
0.0232357
-0.027218
-0.995075
0.999057
0.0319936
-0.0363935
-1.12966
1.13406
0.0407473
-0.0448857
-1.27372
1.27786
0.0488728
-0.0517507
-1.42399
1.42687
0.0542059
-0.0554106
-1.5766
1.57781
0.0549487
-0.0531887
-1.45873
1.45697
0.0502426
-0.0459984
-1.14281
1.13857
0.0414643
-0.0357728
-0.907376
0.901684
0.0300758
-0.0240368
-0.719413
0.713374
0.0188158
-0.0137
-0.551438
0.546322
0.0100065
-0.00709723
-0.388848
0.385938
0.00501618
-0.00347977
-0.238845
0.237309
0.00233268
-0.00132244
-0.119662
0.118652
0.000589549
-8.80123e-05
-0.0419033
0.0414017
-6.37081e-05
-0.00405975
0.00412345
-0.0791857
0.0788375
0.000348196
0.000654688
-0.00165876
-0.439038
0.440042
0.00340854
-0.00583935
-0.61946
0.621891
0.00912264
-0.0124051
-0.756823
0.760105
0.0164175
-0.0200582
-0.879167
0.882807
0.0243771
-0.0285053
-1.00353
1.00766
0.0332081
-0.037579
-1.13832
1.14269
0.0421519
-0.0463259
-1.28192
1.2861
0.0505217
-0.054181
-1.43006
1.43372
0.0571181
-0.0586054
-1.57898
1.58046
0.0587063
-0.0570474
-1.45502
1.45336
0.0544191
-0.0504751
-1.13413
1.13019
0.0458972
-0.040477
-0.895656
0.890236
0.035166
-0.029433
-0.706932
0.701199
0.0246192
-0.0195923
-0.540827
0.535801
0.0157528
-0.0121815
-0.381208
0.377637
0.0095049
-0.00704668
-0.233737
0.231279
0.00491245
-0.00296275
-0.116197
0.114248
0.00154882
-0.000521158
-0.0399793
0.0389516
5.9755e-05
-0.00374548
0.00368572