/*--------------------------------*- C++ -*----------------------------------*\
  =========                 |
  \\      /  F ield         | OpenFOAM: The Open Source CFD Toolbox
   \\    /   O peration     | Website:  https://openfoam.org
    \\  /    A nd           | Version:  6
     \\/     M anipulation  |
\*---------------------------------------------------------------------------*/
FoamFile
{
    version     2.0;
    format      ascii;
    class       volScalarField;
    location    "4";
    object      p;
}
// * * * * * * * * * * * * * * * * * * * * * * * * * * * * * * * * * * * * * //

dimensions      [0 2 -2 0 0 0 0];

internalField   nonuniform List<scalar> 
2200
(
0.770173
0.755149
0.738695
0.724779
0.713113
0.703362
0.695218
0.688762
0.684105
0.681496
0.681652
0.684535
0.689396
0.696002
0.704256
0.714077
0.725783
0.739719
0.756181
0.771207
0.711966
0.708568
0.706298
0.704388
0.701591
0.698104
0.693972
0.690013
0.686733
0.684755
0.684911
0.687167
0.690655
0.694763
0.699005
0.70257
0.705399
0.707329
0.709616
0.713023
0.664581
0.665577
0.669056
0.671358
0.671923
0.671016
0.669362
0.667276
0.665244
0.663933
0.664104
0.665712
0.66797
0.67021
0.671967
0.672944
0.672446
0.670189
0.666735
0.665748
0.639909
0.640597
0.641501
0.641606
0.641377
0.640967
0.640402
0.639471
0.638436
0.637741
0.637939
0.638977
0.640266
0.641371
0.642053
0.642546
0.642841
0.642775
0.641892
0.641213
0.633723
0.634268
0.635506
0.636442
0.636721
0.636455
0.635991
0.63528
0.634613
0.634234
0.634459
0.635251
0.63621
0.637141
0.637737
0.638077
0.637857
0.636974
0.635776
0.635244
0.635853
0.636288
0.637469
0.638713
0.639649
0.640268
0.640755
0.64129
0.641323
0.641356
0.641636
0.642127
0.642545
0.642274
0.641963
0.641409
0.640512
0.639342
0.638184
0.637746
0.634876
0.635219
0.635858
0.636474
0.6371
0.637757
0.638268
0.638595
0.639056
0.63944
0.63978
0.640051
0.640082
0.64016
0.639981
0.639473
0.638853
0.638245
0.637626
0.637288
0.628282
0.62828
0.628285
0.628423
0.628817
0.629282
0.629758
0.630168
0.63063
0.631104
0.631581
0.631965
0.632112
0.632086
0.63184
0.631708
0.631578
0.631469
0.631458
0.631459
0.62209
0.622064
0.62207
0.622164
0.622305
0.622446
0.622655
0.622949
0.623364
0.623899
0.624506
0.625067
0.625488
0.625824
0.625995
0.626049
0.626081
0.626128
0.626183
0.62622
0.616699
0.616719
0.616767
0.616839
0.616969
0.617166
0.617439
0.617807
0.618311
0.619042
0.619917
0.620602
0.621104
0.621459
0.621716
0.621861
0.621934
0.621963
0.621961
0.621957
0.610996
0.611025
0.611086
0.61117
0.611303
0.611538
0.611889
0.612385
0.613065
0.613969
0.615044
0.615971
0.616643
0.617095
0.617388
0.617564
0.61766
0.617703
0.617712
0.617702
0.604826
0.604849
0.604916
0.605039
0.605221
0.605497
0.605923
0.606547
0.607416
0.608567
0.609884
0.61104
0.611879
0.612456
0.612837
0.613077
0.613221
0.613302
0.61334
0.613347
0.598415
0.598433
0.5985
0.598638
0.598871
0.599231
0.599773
0.600562
0.601665
0.603128
0.604787
0.606234
0.607297
0.608038
0.608534
0.608853
0.609048
0.60916
0.609212
0.609224
0.591721
0.591745
0.591827
0.591992
0.592275
0.592725
0.59341
0.594412
0.595815
0.597679
0.599785
0.601618
0.60297
0.603915
0.60455
0.604958
0.605209
0.605351
0.605418
0.605433
0.584587
0.584616
0.58472
0.584928
0.585285
0.585856
0.586729
0.588008
0.5898
0.592179
0.594859
0.597186
0.598901
0.600101
0.600905
0.601423
0.601742
0.601924
0.602009
0.602029
0.57688
0.576918
0.577051
0.577318
0.577777
0.578511
0.579631
0.581272
0.583568
0.58661
0.590026
0.592981
0.595154
0.596672
0.597689
0.598344
0.598747
0.598977
0.599085
0.59911
0.568439
0.568489
0.568661
0.569009
0.569604
0.570553
0.571999
0.574112
0.577063
0.580961
0.585317
0.589068
0.591817
0.593733
0.595014
0.595839
0.596346
0.596636
0.596772
0.596803
0.559043
0.55911
0.559337
0.559792
0.56057
0.561805
0.563682
0.566417
0.570222
0.575222
0.580776
0.58553
0.588999
0.591408
0.593018
0.594052
0.594687
0.59505
0.59522
0.595258
0.548381
0.548469
0.54877
0.549371
0.550397
0.552019
0.554475
0.558036
0.56296
0.569383
0.576453
0.582462
0.586824
0.589847
0.591863
0.593158
0.593952
0.594405
0.594616
0.594663
0.536012
0.536141
0.536556
0.537368
0.538742
0.540898
0.544143
0.548813
0.555211
0.563459
0.572432
0.579989
0.585451
0.58923
0.591748
0.593365
0.594357
0.594923
0.595188
0.595247
0.521377
0.521541
0.522096
0.523202
0.525067
0.527987
0.532344
0.53854
0.54689
0.557469
0.568791
0.578231
0.585034
0.589747
0.592898
0.594925
0.59617
0.596878
0.597205
0.597274
0.503343
0.503644
0.504517
0.506118
0.508758
0.51282
0.518783
0.527085
0.538002
0.551502
0.565662
0.577343
0.585755
0.591613
0.595557
0.598112
0.599692
0.6006
0.60103
0.601132
0.481055
0.481409
0.482604
0.484977
0.488846
0.494709
0.503089
0.514335
0.52859
0.545666
0.563153
0.577425
0.58773
0.594992
0.599969
0.603253
0.605311
0.606491
0.607033
0.60714
0.451255
0.452164
0.454471
0.45837
0.464375
0.47319
0.485141
0.500365
0.51881
0.540107
0.561354
0.578526
0.590994
0.59993
0.606213
0.6105
0.61328
0.61496
0.6158
0.616015
0.412272
0.413769
0.417576
0.424184
0.434358
0.448096
0.465181
0.485581
0.50906
0.535115
0.560433
0.580712
0.595552
0.606424
0.614338
0.620027
0.62396
0.626406
0.627629
0.627906
0.359905
0.362039
0.369219
0.381871
0.3993
0.419989
0.443733
0.470403
0.49959
0.530743
0.560213
0.583638
0.600962
0.613962
0.623766
0.631177
0.636793
0.640698
0.642668
0.642908
0.286087
0.294002
0.311359
0.335466
0.36225
0.390908
0.422012
0.455356
0.490494
0.526955
0.560798
0.587723
0.608043
0.623814
0.636298
0.646345
0.654693
0.661737
0.66598
0.66731
0.203547
0.223196
0.254313
0.290252
0.326089
0.362996
0.401587
0.441511
0.482409
0.523959
0.562118
0.592599
0.615953
0.634517
0.64967
0.662247
0.672806
0.682026
0.689691
0.693776
0.142502
0.166953
0.205517
0.248838
0.292567
0.337487
0.383227
0.429286
0.475325
0.521114
0.562561
0.595483
0.620706
0.640772
0.657112
0.670588
0.681722
0.690941
0.699053
0.703468
0.103836
0.127186
0.168486
0.215831
0.264894
0.315696
0.367105
0.418286
0.468588
0.517642
0.561238
0.595445
0.621441
0.641951
0.658479
0.671962
0.683039
0.692121
0.699217
0.702895
0.0747023
0.0993388
0.142575
0.192068
0.244194
0.298627
0.353977
0.408992
0.462507
0.513788
0.558451
0.592998
0.61903
0.639428
0.655758
0.668997
0.679821
0.688701
0.695516
0.699123
0.0516455
0.0774496
0.122702
0.174171
0.228681
0.28577
0.344003
0.40181
0.457547
0.510011
0.554697
0.588806
0.614397
0.634427
0.650453
0.663434
0.674035
0.682731
0.689391
0.693061
0.0320309
0.0592087
0.106127
0.159458
0.216258
0.2758
0.33649
0.396499
0.453735
0.506472
0.550194
0.583161
0.607947
0.627453
0.643123
0.655844
0.66624
0.674774
0.681312
0.684776
0.0145229
0.0436053
0.0917989
0.146849
0.205847
0.267728
0.330685
0.392612
0.450902
0.503201
0.545022
0.576155
0.599827
0.618729
0.63406
0.646561
0.656795
0.665198
0.671639
0.674833
-0.00109984
0.0297764
0.0791753
0.135909
0.196991
0.26106
0.326166
0.38987
0.448954
0.50026
0.539248
0.567793
0.590075
0.608392
0.623508
0.635917
0.64608
0.654407
0.660777
0.663946
-0.0152402
0.0172164
0.0678466
0.126264
0.189342
0.255502
0.322705
0.388124
0.447865
0.497746
0.532934
0.557993
0.578607
0.59648
0.61166
0.62424
0.634521
0.642891
0.649268
0.652451
-0.028398
0.00550687
0.0573871
0.117498
0.182534
0.250783
0.320108
0.387257
0.447625
0.495775
0.526142
0.546564
0.565171
0.582898
0.598643
0.61185
0.622593
0.631224
0.637719
0.640959
-0.0409722
-0.00571842
0.047418
0.109238
0.176237
0.246647
0.318179
0.387145
0.448222
0.494477
0.51896
0.533236
0.549328
0.567383
0.584528
0.59911
0.610815
0.620006
0.626794
0.630174
-0.0532497
-0.0167464
0.0376449
0.101187
0.170187
0.242866
0.316729
0.387657
0.449629
0.493989
0.511501
0.517606
0.530319
0.549398
0.569222
0.586336
0.599929
0.610305
0.617699
0.621321
-0.0654407
-0.0277916
0.0278626
0.0931456
0.164207
0.239276
0.315607
0.388678
0.451836
0.494506
0.504033
0.49935
0.507204
0.527997
0.552593
0.574161
0.590814
0.603073
0.611498
0.615603
-0.0776809
-0.0389994
0.017929
0.0849763
0.158169
0.235741
0.31466
0.390068
0.454798
0.496188
0.496823
0.47789
0.478327
0.50156
0.53383
0.562731
0.584619
0.60004
0.610378
0.615154
-0.0900653
-0.0504683
0.00774315
0.0765769
0.151977
0.232147
0.313728
0.391684
0.458462
0.499252
0.490497
0.453256
0.442526
0.46756
0.511676
0.552504
0.582889
0.603295
0.6158
0.622029
-0.102648
-0.0622676
-0.00276655
0.0679
0.145603
0.22843
0.312674
0.393401
0.462753
0.503845
0.485643
0.424889
0.39701
0.423703
0.484501
0.544463
0.588358
0.616134
0.6321
0.638978
-0.115468
-0.0744482
-0.0136282
0.058966
0.139078
0.224524
0.31134
0.39506
0.467498
0.509966
0.483009
0.393148
0.339673
0.368444
0.449948
0.537284
0.603932
0.643621
0.664114
0.672371
-0.128518
-0.087038
-0.0248152
0.049853
0.132454
0.220323
0.309575
0.396525
0.472544
0.517669
0.483837
0.359198
0.268017
0.294857
0.40621
0.534213
0.633645
0.692007
0.713015
0.714286
-0.141823
-0.100033
-0.0362427
0.0406895
0.125775
0.215718
0.30732
0.397726
0.477711
0.526663
0.488204
0.321912
0.175227
0.198349
0.350878
0.533461
0.679097
0.76676
0.785699
0.760816
-0.155397
-0.11337
-0.0478039
0.0315748
0.118972
0.210551
0.304536
0.398569
0.482855
0.536867
0.497318
0.284672
0.0610914
0.0570729
0.26355
0.5144
0.718732
0.85563
0.90848
0.919262
-0.16932
-0.127001
-0.0593773
0.0225426
0.111758
0.204512
0.300982
0.398703
0.487659
0.548236
0.512981
0.249771
-0.0949384
-0.194076
0.0781944
0.420017
0.671768
0.805968
0.821343
0.792865
-0.183664
-0.140743
-0.0706196
0.01371
0.103914
0.197548
0.29665
0.397958
0.491746
0.559726
0.534126
0.218426
-0.31009
-0.569333
-0.24381
0.177706
0.437421
0.528453
0.509507
0.504974
-0.198445
-0.154184
-0.0812269
0.00490985
0.0951679
0.189743
0.291581
0.396175
0.494738
0.570473
0.554089
0.209722
-0.497289
-0.94819
-0.671224
-0.188018
0.059539
0.130737
0.148531
0.197418
-0.213445
-0.166879
-0.0911726
-0.00428417
0.0854244
0.181293
0.285736
0.393127
0.496224
0.580146
0.570073
0.245282
-0.551191
-1.11315
-0.907051
-0.508007
-0.284953
-0.191839
-0.144292
-0.0647058
-0.228492
-0.179227
-0.101396
-0.0146791
0.0745794
0.172144
0.278855
0.388582
0.495826
0.587667
0.590885
0.303606
-0.455689
-1.00431
-0.847184
-0.57404
-0.468649
-0.421243
-0.397459
-0.315476
-0.243711
-0.192544
-0.113516
-0.0271568
0.0624464
0.162039
0.270668
0.382403
0.493348
0.592483
0.616171
0.375581
-0.256826
-0.752413
-0.700294
-0.582688
-0.586895
-0.606556
-0.643706
-0.580826
-0.25952
-0.207582
-0.128284
-0.0418713
0.0490867
0.150878
0.261078
0.374556
0.488669
0.593703
0.63556
0.456029
-0.0240467
-0.471405
-0.572457
-0.61713
-0.722364
-0.812169
-0.915879
-0.895329
-0.276761
-0.224402
-0.145325
-0.0583398
0.0346046
0.13853
0.249974
0.364926
0.481449
0.590266
0.646034
0.527962
0.182993
-0.212866
-0.476886
-0.668616
-0.869651
-1.05116
-1.229
-1.25448
-0.296157
-0.243154
-0.164138
-0.0761812
0.0188796
0.124728
0.237148
0.353268
0.47134
0.581971
0.647241
0.581062
0.336062
-0.0208871
-0.414594
-0.715617
-0.998657
-1.31313
-1.76466
-2.11463
-0.318018
-0.264005
-0.184507
-0.0953146
0.00174745
0.109277
0.222485
0.339531
0.458526
0.569969
0.64081
0.61109
0.422921
0.0829889
-0.356013
-0.742562
-1.11053
-1.50121
-2.16874
-3.38045
-0.342373
-0.287082
-0.206657
-0.116057
-0.0171176
0.0918699
0.205821
0.323706
0.443214
0.555117
0.628363
0.621512
0.471628
0.131602
-0.322263
-0.78847
-1.22235
-1.55419
-1.86808
-2.25244
-0.369251
-0.312676
-0.231189
-0.13909
-0.038324
0.0719663
0.186695
0.305274
0.42476
0.536681
0.610803
0.616161
0.503384
0.191575
-0.259947
-0.790014
-1.27154
-1.5607
-1.67387
-1.71169
-0.398763
-0.341091
-0.258538
-0.164825
-0.0621233
0.0494476
0.164958
0.284036
0.403001
0.51481
0.590077
0.599772
0.519121
0.269018
-0.147166
-0.690169
-1.21054
-1.52235
-1.60328
-1.58409
-0.431075
-0.372524
-0.288865
-0.193402
-0.0885516
0.0242652
0.140578
0.260165
0.378578
0.490125
0.567948
0.579191
0.517711
0.327458
-0.0465801
-0.521347
-0.997994
-1.31404
-1.38309
-1.32937
-0.466182
-0.407045
-0.322225
-0.224763
-0.117479
-0.0034708
0.113922
0.234326
0.352566
0.463905
0.545893
0.564163
0.513502
0.381283
0.0976667
-0.240119
-0.562773
-0.78144
-0.827414
-0.78736
-0.504033
-0.444687
-0.358508
-0.258533
-0.14862
-0.0333642
0.0855661
0.207082
0.325802
0.43822
0.52537
0.559854
0.533883
0.460295
0.314118
0.149649
0.0050115
-0.0882704
-0.106624
-0.0876102
-0.544324
-0.485128
-0.397159
-0.294017
-0.181547
-0.064722
0.0561783
0.179191
0.299804
0.414159
0.50882
0.563373
0.575281
0.557097
0.520446
0.479094
0.455618
0.439005
0.443492
0.459325
-0.586291
-0.527595
-0.437178
-0.330496
-0.215611
-0.0966952
0.0265121
0.151644
0.275595
0.393365
0.49716
0.568968
0.610896
0.633287
0.648281
0.66098
0.682983
0.715497
0.74238
0.754919
-0.629057
-0.570808
-0.477423
-0.367261
-0.249962
-0.128583
-0.00286816
0.124587
0.251826
0.376256
0.487915
0.572417
0.632863
0.679939
0.720126
0.758087
0.796892
0.834142
0.862714
0.875522
-0.671903
-0.613218
-0.516523
-0.403083
-0.28352
-0.159649
-0.0313516
0.0986609
0.228738
0.360293
0.479507
0.574946
0.648961
0.710526
0.764246
0.81188
0.853504
0.888161
0.913838
0.926823
-0.713048
-0.652797
-0.552767
-0.436594
-0.315119
-0.18875
-0.0578988
0.0750426
0.208624
0.345296
0.472572
0.577342
0.660366
0.729197
0.787619
0.836835
0.877734
0.911202
0.936262
0.949072
-0.750387
-0.687985
-0.584761
-0.466462
-0.343204
-0.214467
-0.0813755
0.0542902
0.191646
0.332096
0.465687
0.576491
0.664598
0.736726
0.796334
0.845354
0.885645
0.918626
0.943628
0.956093
-0.78027
-0.71654
-0.610955
-0.491093
-0.366162
-0.23555
-0.100904
0.0365366
0.17647
0.319928
0.456872
0.571256
0.662089
0.735702
0.795721
0.844544
0.884365
0.917004
0.941933
0.954194
-0.799811
-0.735386
-0.62833
-0.507682
-0.381851
-0.250627
-0.11568
0.0221095
0.162805
0.30768
0.446093
0.56201
0.653701
0.72756
0.787456
0.836072
0.875561
0.90781
0.932637
0.944999
-0.804928
-0.741043
-0.633777
-0.513358
-0.388103
-0.258133
-0.124752
0.0114542
0.150846
0.294839
0.432543
0.547823
0.638793
0.711929
0.771179
0.819359
0.858619
0.890589
0.91514
0.927623
-0.790008
-0.727786
-0.622223
-0.504353
-0.382414
-0.256376
-0.127226
0.0048977
0.140536
0.280932
0.415219
0.527568
0.616229
0.687623
0.745666
0.793111
0.832071
0.864053
0.888597
0.901166
-0.751228
-0.691933
-0.59012
-0.477618
-0.362188
-0.243719
-0.122257
0.00282245
0.1318
0.265573
0.393529
0.50043
0.58482
0.652963
0.708701
0.754653
0.792765
0.824467
0.849054
0.861756
-0.67871
-0.625156
-0.531799
-0.42948
-0.325998
-0.219851
-0.10944
0.00561046
0.124724
0.248628
0.367122
0.46573
0.543324
0.605942
0.657386
0.70024
0.736414
0.767288
0.791879
0.804917
-0.571623
-0.525194
-0.443378
-0.357488
-0.272766
-0.18343
-0.0871956
0.0142613
0.11997
0.230613
0.336418
0.423751
0.491665
0.545818
0.589832
0.626114
0.656544
0.682931
0.704561
0.716558
-0.412646
-0.381038
-0.325141
-0.266559
-0.204884
-0.134773
-0.0560425
0.0283439
0.118319
0.214146
0.30652
0.382393
0.440419
0.485565
0.521042
0.548951
0.570745
0.588555
0.603513
0.612249
-0.225673
-0.21127
-0.18685
-0.160297
-0.124176
-0.0759503
-0.0185349
0.0467071
0.12018
0.201161
0.280639
0.346075
0.395601
0.433206
0.461613
0.482768
0.497715
0.507857
0.516032
0.52113
-0.0846408
-0.0782266
-0.0705921
-0.0612738
-0.0426944
-0.0144502
0.022412
0.0691518
0.125995
0.191685
0.257859
0.312544
0.353281
0.383097
0.404314
0.418914
0.428301
0.433441
0.436843
0.439085
-0.00221945
0.000794067
0.0035776
0.00871003
0.0196827
0.0360585
0.0592686
0.0916923
0.133925
0.185332
0.238821
0.28332
0.315942
0.339026
0.354705
0.364951
0.37142
0.374903
0.376823
0.378139
0.0429786
0.0432738
0.0442503
0.0484529
0.0563603
0.0678423
0.0845599
0.108275
0.139941
0.179766
0.222261
0.257889
0.283838
0.301995
0.314246
0.322239
0.327356
0.330275
0.331721
0.33246
0.0689272
0.0687799
0.0694311
0.0722936
0.0777535
0.0863802
0.0993674
0.11772
0.142297
0.173538
0.207265
0.235724
0.256501
0.271087
0.280984
0.287436
0.291475
0.293751
0.294793
0.295203
0.0865332
0.0865154
0.0870707
0.0889764
0.0926505
0.0988887
0.108659
0.122789
0.142026
0.166729
0.193594
0.216365
0.233019
0.244696
0.25257
0.257637
0.260728
0.262456
0.263262
0.263563
0.0981924
0.0982891
0.0988478
0.100276
0.102932
0.107473
0.114682
0.125362
0.140245
0.159673
0.181021
0.199182
0.212439
0.221674
0.227842
0.231779
0.234163
0.235504
0.236157
0.236405
0.104903
0.105029
0.105523
0.106644
0.108691
0.112141
0.117587
0.125715
0.137191
0.152381
0.169249
0.183652
0.194146
0.201428
0.206274
0.209365
0.211239
0.212296
0.212818
0.213017
0.107862
0.107976
0.108373
0.109245
0.110839
0.113511
0.117716
0.123995
0.132901
0.144779
0.158067
0.169451
0.177748
0.183501
0.187329
0.189771
0.19125
0.192081
0.19249
0.192645
0.108102
0.1082
0.108513
0.109189
0.110424
0.112493
0.115753
0.120631
0.127574
0.136879
0.147342
0.156331
0.162887
0.167432
0.170453
0.172379
0.173543
0.174194
0.174514
0.174635
0.106292
0.106373
0.106621
0.107148
0.108107
0.10971
0.112237
0.116028
0.121446
0.128739
0.136974
0.144064
0.149236
0.15282
0.1552
0.156714
0.15763
0.158141
0.158392
0.158486
0.102878
0.102943
0.103139
0.103551
0.104299
0.105546
0.107509
0.11046
0.114689
0.120403
0.126877
0.132462
0.136535
0.139357
0.141231
0.142422
0.143142
0.143543
0.143739
0.143812
0.0982138
0.0982661
0.0984197
0.098742
0.0993253
0.100296
0.101827
0.104128
0.107431
0.111906
0.116991
0.121383
0.124588
0.126809
0.128283
0.12922
0.129786
0.1301
0.130253
0.13031
0.0925764
0.0926175
0.0927377
0.0929891
0.0934438
0.0942009
0.0953941
0.0971901
0.0997709
0.103274
0.107263
0.110714
0.113234
0.11498
0.116138
0.116874
0.117317
0.117563
0.117682
0.117726
0.0861842
0.0862164
0.0863102
0.0865063
0.0868609
0.0874514
0.0883822
0.0897835
0.0917992
0.0945394
0.0976662
0.100374
0.102352
0.103722
0.10463
0.105206
0.105552
0.105744
0.105837
0.105871
0.0791997
0.0792248
0.0792976
0.0794501
0.079726
0.0801857
0.0809105
0.0820024
0.0835748
0.0857157
0.0881624
0.090283
0.0918315
0.0929031
0.0936129
0.094063
0.0943338
0.0944842
0.094557
0.0945838
0.0717549
0.0717746
0.0718316
0.0719504
0.0721653
0.0725229
0.0730867
0.0739365
0.0751612
0.0768299
0.0787387
0.080394
0.0816026
0.0824389
0.0829929
0.0833442
0.0835554
0.0836725
0.083729
0.0837498
0.0639577
0.0639727
0.0640163
0.0641079
0.0642738
0.0645504
0.0649869
0.0656455
0.0665954
0.0678911
0.0693743
0.0706607
0.0715999
0.0722497
0.0726802
0.0729531
0.0731169
0.0732074
0.073251
0.073267
0.0558742
0.0558855
0.0559188
0.0559887
0.056116
0.0563286
0.0566647
0.0571719
0.0579033
0.0589011
0.0600447
0.0610383
0.0617644
0.0622672
0.0626005
0.0628118
0.0629384
0.063008
0.0630411
0.0630535
0.0475893
0.0475985
0.0476247
0.0476789
0.0477767
0.0479394
0.0481959
0.0485827
0.0491408
0.0499025
0.050775
0.0515325
0.052086
0.0524688
0.0527219
0.0528816
0.0529769
0.0530289
0.0530533
0.053062
0.0391377
0.0391433
0.0391609
0.0391997
0.0392713
0.0393914
0.0395815
0.0398686
0.0402827
0.0408489
0.0415008
0.042068
0.0424821
0.0427686
0.0429583
0.0430784
0.0431502
0.0431894
0.0432081
0.0432148
0.0305555
0.0305603
0.0305745
0.0306037
0.0306559
0.0307429
0.0308803
0.0310876
0.0313857
0.0317913
0.0322576
0.032667
0.0329672
0.0331749
0.0333119
0.033398
0.0334488
0.0334754
0.0334867
0.0334911
0.0219039
0.0219081
0.0219184
0.0219384
0.0219738
0.0220326
0.0221252
0.0222644
0.0224657
0.0227403
0.0230526
0.0233212
0.023518
0.0236546
0.023745
0.0238019
0.0238362
0.0238555
0.0238646
0.0238678
0.0131752
0.0131771
0.0131809
0.0131894
0.0132068
0.0132372
0.013286
0.0133601
0.0134678
0.0136164
0.0137946
0.013949
0.0140605
0.014139
0.0141928
0.0142287
0.0142518
0.014266
0.0142743
0.0142778
0.00438823
0.00438795
0.0043883
0.00439073
0.00439572
0.00440424
0.00441833
0.00444085
0.00447575
0.00452698
0.00458519
0.00463619
0.00467468
0.00470141
0.00471963
0.00473169
0.0047392
0.00474322
0.00474503
0.00474672
-1.40447
-0.820772
-0.520518
-0.265462
-0.036068
0.18398
0.414958
0.642164
0.839649
0.918121
-0.599453
-0.268644
-0.1136
0.0486942
0.223716
0.396445
0.553593
0.67325
0.716171
0.701192
-0.152477
0.0174817
0.153207
0.271503
0.39391
0.508724
0.60264
0.662365
0.678637
0.695042
0.136301
0.234787
0.338
0.426216
0.507872
0.581549
0.638216
0.672759
0.689235
0.716389
0.329905
0.396429
0.471271
0.536473
0.594039
0.645203
0.683252
0.708344
0.728125
0.760986
0.469231
0.523038
0.584327
0.63712
0.677623
0.711798
0.739621
0.763253
0.78458
0.806095
0.596946
0.636726
0.684518
0.725357
0.753344
0.776069
0.797936
0.816747
0.830495
0.846964
0.71393
0.733855
0.762223
0.789645
0.810388
0.827427
0.844273
0.858327
0.872558
0.890993
0.794604
0.809664
0.82519
0.841112
0.858394
0.876095
0.891572
0.906675
0.92565
0.94654
0.857777
0.877341
0.895256
0.911514
0.929495
0.94835
0.96442
0.980373
0.998865
1.01385
0.944625
0.964746
0.990441
1.01106
1.02608
1.03995
1.05377
1.06686
1.07839
1.08647
1.06455
1.0693
1.08673
1.1061
1.11697
1.123
1.13116
1.14086
1.15019
1.15929
1.17192
1.16919
1.17089
1.18154
1.19238
1.19775
1.20266
1.21011
1.21903
1.22652
1.25786
1.25732
1.25626
1.25747
1.26377
1.27079
1.27661
1.28348
1.29035
1.29612
1.35354
1.34524
1.33591
1.32792
1.3249
1.32842
1.33646
1.34757
1.36129
1.37471
1.46184
1.4241
1.39231
1.372
1.36225
1.36239
1.37181
1.39121
1.42283
1.46241
)
;

boundaryField
{
    wall-4
    {
        type            zeroGradient;
    }
    pressure-outlet-7
    {
        type            fixedValue;
        value           uniform 0;
    }
    velocity-inlet-6
    {
        type            zeroGradient;
    }
    velocity-inlet-5
    {
        type            zeroGradient;
    }
    frontAndBackPlanes
    {
        type            empty;
    }
}


// ************************************************************************* //
