0.490941 	2.20644
0.561075 	2.20644
0.63121 	2.20644
0.701344 	2.20644
0.771478 	2.20644
0.841613 	2.20644
0.911747 	2.18142
0.981881 	2.18142
1.05202 	2.18142
1.12215 	2.18142
1.19228 	2.18142
1.26242 	2.18142
1.33255 	2.13746
1.40269 	2.13746
1.47282 	2.13746
1.54296 	2.13746
1.61309 	2.13746
1.68323 	2.13746
1.75336 	2.07712
1.82349 	2.07712
1.89363 	2.07712
1.96376 	2.07712
2.0339 	2.07712
2.10403 	2.07712
2.17417 	2.00584
2.2443 	2.00584
2.31443 	2.00584
2.38457 	2.00584
2.4547 	2.00584
2.52484 	2.00584
2.59497 	1.9295
2.66511 	1.9295
2.73524 	1.9295
2.80538 	1.9295
2.87551 	1.9295
2.94564 	1.9295
3.01578 	1.85315
3.08591 	1.85315
3.15605 	1.85315
3.22618 	1.85315
3.29632 	1.85315
3.36645 	1.85315
3.43659 	1.77866
3.50672 	1.77866
3.57685 	1.77866
3.64699 	1.77866
3.71712 	1.77866
3.78726 	1.77077
3.85739 	1.69757
3.92753 	1.69757
3.99766 	1.69757
4.06779 	1.69757
4.13793 	1.69757
4.20806 	1.69757
4.2782 	1.62635
4.34833 	1.62635
4.41847 	1.62635
4.4886 	1.62635
4.55874 	1.62635
4.62887 	1.62635
4.699 	1.62635
4.76914 	1.55693
4.83927 	1.55693
4.90941 	1.55693
4.97954 	1.55693
5.04968 	1.55693
5.11981 	1.55693
5.18994 	1.48921
5.26008 	1.48921
5.33021 	1.48921
5.40035 	1.48921
5.47048 	1.48921
5.54062 	1.48921
5.61075 	1.42409
5.68089 	1.42409
5.75102 	1.42409
5.82115 	1.42409
5.89129 	1.42409
5.96142 	1.42409
6.03156 	1.36214
6.10169 	1.36214
6.17183 	1.36214
6.24196 	1.36214
6.3121 	1.36214
6.38223 	1.36214
6.45236 	1.3042
6.5225 	1.3042
6.59263 	1.3042
6.66277 	1.3042
6.7329 	1.3042
6.80304 	1.3042
6.87317 	1.25035
6.9433 	1.25035
7.01344 	1.25035
7.08357 	1.25035
7.15371 	1.25035
7.22384 	1.25035
7.29398 	1.20077
7.36411 	1.20077
7.43425 	1.20077
7.50438 	1.20077
7.57451 	1.20077
7.64465 	1.20077
7.71478 	1.20077
7.78492 	1.15493
7.85505 	1.15493
7.92519 	1.15493
7.99532 	1.15493
8.06545 	1.15493
8.13559 	1.15493
8.20572 	1.11267
8.27586 	1.11267
8.34599 	1.11267
8.41613 	1.11267
8.48626 	1.11267
8.5564 	1.11267
8.62653 	1.07329
8.69666 	1.07329
8.7668 	1.07329
8.83693 	1.07329
8.90707 	1.07329
8.9772 	1.07329
9.04734 	1.03658
9.11747 	1.03658
9.18761 	1.03658
9.25774 	1.02244
9.32787 	1.02244
9.39801 	1.02244
9.46814 	1.02244
9.53828 	0.986932
9.60841 	0.986932
9.67855 	0.986932
9.74868 	0.986932
9.81881 	0.986932
9.88895 	0.986932
9.95908 	0.953034
10.0292 	0.953034
10.0994 	0.953034
10.1695 	0.953034
10.2396 	0.953034
10.3098 	0.953034
10.3799 	0.92021
10.45 	0.92021
10.5202 	0.92021
10.5903 	0.92021
10.6604 	0.92021
10.7306 	0.92021
10.8007 	0.888318
10.8708 	0.888318
10.941 	0.888318
11.0111 	0.888318
11.0812 	0.888318
11.1514 	0.888318
11.2215 	0.888318
11.2916 	0.856773
11.3618 	0.856773
11.4319 	0.856773
11.502 	0.856773
11.5722 	0.856773
11.6423 	0.856773
11.7124 	0.825207
11.7826 	0.825207
11.8527 	0.825207
11.9228 	0.825207
11.993 	0.825207
12.0631 	0.825207
12.1332 	0.792693
12.2034 	0.792693
12.2735 	0.792693
12.3437 	0.792693
12.4138 	0.792693
12.4839 	0.792693
12.5541 	0.792693
12.6242 	0.758589
12.6943 	0.758589
12.7645 	0.758589
12.8346 	0.758589
12.9047 	0.758589
12.9749 	0.758589
13.045 	0.722012
13.1151 	0.722012
13.1853 	0.722012
13.2554 	0.722012
13.3255 	0.722012
13.3957 	0.722012
13.4658 	0.722012
13.5359 	0.682844
13.6061 	0.682844
13.6762 	0.682844
13.7463 	0.682844
13.8165 	0.682844
13.8866 	0.682844
13.9567 	0.641452
14.0269 	0.641452
14.097 	0.641452
14.1671 	0.641452
14.2373 	0.641452
14.3074 	0.641452
14.3776 	0.623844
14.4477 	0.526656
14.5178 	0.526656
14.588 	0.526656
14.6581 	0.546372
14.7282 	0.546372
14.7984 	0.464701
14.8685 	0.494986
14.9386 	0.494986
15.0088 	0.494986
15.0789 	0.494986
15.149 	0.532768
15.2192 	0.438437
15.2893 	0.438437
15.3594 	0.438437
15.4296 	0.476206
15.4997 	0.476206
15.5698 	0.382393
15.64 	0.382393
15.7101 	0.382393
15.7802 	0.424752
15.8504 	0.424752
15.9205 	0.331117
15.9906 	0.331117
16.0608 	0.331117
16.1309 	0.383999
16.201 	0.383999
16.2712 	0.290563
16.3413 	0.290563
16.4114 	0.290563
16.4816 	0.290563
16.5517 	0.360115
16.6219 	0.27139
16.692 	0.27139
16.7621 	0.27139
16.8323 	0.27139
16.9024 	0.27139
16.9725 	0.278631
17.0427 	0.278631
17.1128 	0.278631
17.1829 	0.278631
17.2531 	0.202632
17.3232 	0.202632
17.3933 	0.202632
17.4635 	0.304995
17.5336 	0.304995
17.6037 	0.238188
17.6739 	0.238188
17.744 	0.238188
17.8141 	0.238188
17.8843 	0.238188
17.9544 	0.28047
18.0245 	0.28047
18.0947 	0.28047
18.1648 	0.28047
18.2349 	0.225614
18.3051 	0.225614
18.3752 	0.225614
18.4453 	0.225614
18.5155 	0.225614
18.5856 	0.264877
18.6557 	0.264877
18.7259 	0.264877
18.796 	0.264877
18.8662 	0.213325
18.9363 	0.213325
19.0064 	0.213325
19.0766 	0.213325
19.1467 	0.213325
19.2168 	0.1645
19.287 	0.255476
19.3571 	0.255476
19.4272 	0.255476
19.4974 	0.255476
19.5675 	0.205765
19.6376 	0.205765
19.7078 	0.205765
19.7779 	0.205765
19.848 	0.205765
19.9182 	0.158043
19.9883 	0.158043
20.0584 	0.250248
20.1286 	0.250248
20.1987 	0.250248
20.2688 	0.200232
20.339 	0.200232
20.4091 	0.200232
20.4792 	0.200232
20.5494 	0.200232
20.6195 	0.151388
20.6896 	0.151388
20.7598 	0.151388
20.8299 	0.151388
20.9 	0.243653
20.9702 	0.193703
21.0403 	0.193703
21.1105 	0.193703
21.1806 	0.193703
21.2507 	0.193703
21.3209 	0.146658
21.391 	0.146658
21.4611 	0.146658
21.5313 	0.146658
21.6014 	0.146658
21.6715 	0.146658
21.7417 	0.103262
21.8118 	0.103262
21.8819 	0.103262
21.9521 	0.180662
22.0222 	0.180662
22.0923 	0.14292
22.1625 	0.14292
22.2326 	0.14292
22.3027 	0.14292
22.3729 	0.14292
22.443 	0.14292
22.5131 	0.100887
22.5833 	0.100887
22.6534 	0.100887
22.7235 	0.100887
22.7937 	0.100887
22.8638 	0.0572312
22.9339 	0.0572312
23.0041 	0.0572312
23.0742 	0.0973625
23.1443 	0.0973625
23.2145 	0.0973625
23.2846 	0.0621917
23.3548 	0.0621917
23.4249 	0.0621917
23.495 	0.0621917
23.5652 	0.0621917
23.6353 	0.0621917
23.7054 	0.029437
23.7756 	0.029437
23.8457 	0.029437
23.9158 	0.029437
23.986 	0.029437
24.0561 	0.029437
24.1262 	-0.00468818
24.1964 	-0.00468818
24.2665 	-0.00468818
24.3366 	-0.00468818
24.4068 	-0.00468818
24.4769 	0.00918986
24.547 	0.00918986
24.6172 	-0.0253156
24.6873 	-0.0253156
24.7574 	-0.0253156
24.8276 	-0.0253156
24.8977 	-0.0253156
24.9678 	-0.0253156
25.038 	-0.0574106
25.1081 	-0.0574106
25.1782 	-0.0574106
25.2484 	-0.0574106
25.3185 	-0.0574106
25.3886 	-0.0574106
25.4588 	-0.0874485
25.5289 	-0.0874485
25.5991 	-0.0874485
25.6692 	-0.0874485
25.7393 	-0.0874485
25.8095 	-0.0874485
25.8796 	-0.0874485
25.9497 	-0.115823
26.0199 	-0.115823
26.09 	-0.100348
26.1601 	-0.100348
26.2303 	-0.100348
26.3004 	-0.100348
26.3705 	-0.100348
26.4407 	-0.129208
26.5108 	-0.129208
26.5809 	-0.129208
26.6511 	-0.129208
26.7212 	-0.129208
26.7913 	-0.129208
26.8615 	-0.129208
26.9316 	-0.157324
27.0017 	-0.157324
27.0719 	-0.157324
27.142 	-0.157324
27.2121 	-0.157324
27.2823 	-0.157324
27.3524 	-0.184954
27.4225 	-0.184954
27.4927 	-0.184954
27.5628 	-0.184954
27.6329 	-0.184954
27.7031 	-0.184954
27.7732 	-0.184954
27.8434 	-0.184954
27.9135 	-0.209384
27.9836 	-0.209384
28.0538 	-0.209384
28.1239 	-0.209384
28.194 	-0.209384
28.2642 	-0.209384
28.3343 	-0.222106
28.4044 	-0.246128
28.4746 	-0.246128
28.5447 	-0.246128
28.6148 	-0.246128
28.685 	-0.246128
28.7551 	-0.246128
28.8252 	-0.246128
28.8954 	-0.246128
28.9655 	-0.26753
29.0356 	-0.26753
29.1058 	-0.26753
29.1759 	-0.26753
29.246 	-0.26753
29.3162 	-0.26753
29.3863 	-0.26753
29.4564 	-0.287899
29.5266 	-0.287899
29.5967 	-0.287899
29.6668 	-0.287899
29.737 	-0.287899
29.8071 	-0.287899
29.8773 	-0.287899
29.9474 	-0.287899
30.0175 	-0.306981
30.0877 	-0.306981
30.1578 	-0.306981
30.2279 	-0.306981
30.2981 	-0.306981
30.3682 	-0.306981
30.4383 	-0.306981
30.5085 	-0.306981
30.5786 	-0.327837
30.6487 	-0.327837
30.7189 	-0.327837
30.789 	-0.327837
30.8591 	-0.327837
30.9293 	-0.327837
30.9994 	-0.327837
31.0695 	-0.327837
31.1397 	-0.351997
31.2098 	-0.351997
31.2799 	-0.351997
31.3501 	-0.351997
31.4202 	-0.351997
31.4903 	-0.351997
31.5605 	-0.371057
31.6306 	-0.371057
31.7007 	-0.390402
31.7709 	-0.390402
31.841 	-0.390402
31.9111 	-0.390402
31.9813 	-0.390402
32.0514 	-0.390402
32.1216 	-0.390402
32.1917 	-0.390402
32.2618 	-0.390402
32.332 	-0.407328
32.4021 	-0.407328
32.4722 	-0.407328
32.5424 	-0.407328
32.6125 	-0.407328
32.6826 	-0.407328
32.7528 	-0.407328
32.8229 	-0.407328
32.893 	-0.407328
32.9632 	-0.423572
33.0333 	-0.423572
33.1034 	-0.423572
33.1736 	-0.423572
33.2437 	-0.423572
33.3138 	-0.423572
33.384 	-0.423572
33.4541 	-0.423572
33.5242 	-0.423572
33.5944 	-0.434973
33.6645 	-0.434973
33.7346 	-0.434973
33.8048 	-0.434973
33.8749 	-0.434973
33.945 	-0.434973
34.0152 	-0.434973
34.0853 	-0.434973
34.1554 	-0.434973
34.2256 	-0.43967
34.2957 	-0.43967
34.3659 	-0.43967
34.436 	-0.43967
34.5061 	-0.43967
34.5763 	-0.43967
34.6464 	-0.43967
34.7165 	-0.43967
34.7867 	-0.43967
34.8568 	-0.43967
34.9269 	-0.437603
34.9971 	-0.437603
35.0672 	-0.437603
35.1373 	-0.437603
35.2075 	-0.437603
35.2776 	-0.437603
35.3477 	-0.437603
35.4179 	-0.437603
35.488 	-0.437603
35.5581 	-0.437603
35.6283 	-0.432119
35.6984 	-0.432119
35.7685 	-0.432119
35.8387 	-0.432119
35.9088 	-0.432119
35.9789 	-0.432119
36.0491 	-0.432119
36.1192 	-0.432119
36.1893 	-0.432119
36.2595 	-0.432119
36.3296 	-0.424941
36.3997 	-0.424941
36.4699 	-0.424941
36.54 	-0.424941
36.6102 	-0.424941
36.6803 	-0.424941
36.7504 	-0.424941
36.8206 	-0.424941
36.8907 	-0.424941
36.9608 	-0.424941
37.031 	-0.424941
37.1011 	-0.417738
37.1712 	-0.417738
37.2414 	-0.417738
37.3115 	-0.417738
37.3816 	-0.417738
37.4518 	-0.417738
37.5219 	-0.417738
37.592 	-0.417738
37.6622 	-0.40933
37.7323 	-0.40933
37.8024 	-0.40933
37.8726 	-0.40933
37.9427 	-0.40933
38.0128 	-0.40933
38.083 	-0.40933
38.1531 	-0.40933
38.2232 	-0.40933
38.2934 	-0.396667
38.3635 	-0.396667
38.4336 	-0.396667
38.5038 	-0.396667
38.5739 	-0.396667
38.644 	-0.396667
38.7142 	-0.396667
38.7843 	-0.396667
38.8545 	-0.396667
38.9246 	-0.379969
38.9947 	-0.379969
39.0649 	-0.379969
39.135 	-0.379969
39.2051 	-0.379969
39.2753 	-0.379969
39.3454 	-0.379969
39.4155 	-0.379969
39.4857 	-0.379969
39.5558 	-0.361257
39.6259 	-0.361257
39.6961 	-0.361257
39.7662 	-0.361257
39.8363 	-0.361257
39.9065 	-0.361257
39.9766 	-0.361257
40.0467 	-0.361257
40.1169 	-0.343472
40.187 	-0.343472
40.2571 	-0.343472
40.3273 	-0.343472
40.3974 	-0.343472
40.4675 	-0.343472
40.5377 	-0.343472
40.6078 	-0.343472
40.6779 	-0.343472
40.7481 	-0.327039
40.8182 	-0.327039
40.8883 	-0.327039
40.9585 	-0.327039
41.0286 	-0.327039
41.0988 	-0.327039
41.1689 	-0.327039
41.239 	-0.327039
41.3092 	-0.327039
41.3793 	-0.310807
41.4494 	-0.310807
41.5196 	-0.310807
41.5897 	-0.310807
41.6598 	-0.310807
41.73 	-0.310807
41.8001 	-0.310807
41.8702 	-0.310807
41.9404 	-0.310807
42.0105 	-0.296482
42.0806 	-0.296482
42.1508 	-0.296482
42.2209 	-0.296482
42.291 	-0.296482
42.3612 	-0.296482
42.4313 	-0.296482
42.5014 	-0.296482
42.5716 	-0.296482
42.6417 	-0.286508
42.7118 	-0.286508
42.782 	-0.286508
42.8521 	-0.286508
42.9222 	-0.286508
42.9924 	-0.286508
43.0625 	-0.286508
43.1327 	-0.286508
43.2028 	-0.280441
43.2729 	-0.280441
43.3431 	-0.280441
43.4132 	-0.280441
43.4833 	-0.280441
43.5535 	-0.280441
43.6236 	-0.280441
43.6937 	-0.280441
43.7639 	-0.280441
43.834 	-0.276344
43.9041 	-0.276344
43.9743 	-0.276344
44.0444 	-0.276344
44.1145 	-0.276344
44.1847 	-0.276344
44.2548 	-0.276344
44.3249 	-0.276344
44.3951 	-0.276344
44.4652 	-0.273207
44.5353 	-0.273207
44.6055 	-0.273207
44.6756 	-0.273207
44.7457 	-0.273207
44.8159 	-0.273207
44.886 	-0.273207
44.9561 	-0.273207
45.0263 	-0.273207
45.0964 	-0.271047
45.1665 	-0.271047
45.2367 	-0.271047
45.3068 	-0.271047
45.377 	-0.271047
45.4471 	-0.271047
45.5172 	-0.271047
45.5874 	-0.271047
45.6575 	-0.269451
45.7276 	-0.269451
45.7978 	-0.269451
45.8679 	-0.269451
45.938 	-0.269451
46.0082 	-0.269451
46.0783 	-0.269451
46.1484 	-0.269451
46.2186 	-0.269451
46.2887 	-0.267667
46.3588 	-0.267667
46.429 	-0.267667
46.4991 	-0.267667
46.5692 	-0.267667
46.6394 	-0.267667
46.7095 	-0.267667
46.7796 	-0.212391
46.8498 	-0.212391
46.9199 	-0.212054
46.99 	-0.212054
47.0602 	-0.212054
47.1303 	-0.212054
47.2004 	-0.212054
47.2706 	-0.212054
47.3407 	-0.212054
47.4108 	-0.212054
47.481 	-0.212054
47.5511 	-0.211639
47.6213 	-0.211639
47.6914 	-0.211639
47.7615 	-0.211639
47.8317 	-0.211639
47.9018 	-0.211639
47.9719 	-0.211639
48.0421 	-0.211639
48.1122 	-0.211639
48.1823 	-0.209645
48.2525 	-0.209645
48.3226 	-0.209645
48.3927 	-0.209645
48.4629 	-0.209645
48.533 	-0.209645
48.6031 	-0.209645
48.6733 	-0.209645
48.7434 	-0.205059
48.8135 	-0.205059
48.8837 	-0.205059
48.9538 	-0.205059
49.0239 	-0.205059
49.0941 	-0.205059
49.1642 	-0.205059
49.2343 	-0.205059
49.3045 	-0.205059
49.3746 	-0.197265
49.4447 	-0.197265
49.5149 	-0.197265
49.585 	-0.197265
49.6551 	-0.197265
49.7253 	-0.197265
49.7954 	-0.197265
49.8656 	-0.197265
49.9357 	-0.197265
50.0058 	-0.186562
50.076 	-0.186562
50.1461 	-0.186562
50.2162 	-0.186562
50.2864 	-0.186562
50.3565 	-0.186562
50.4266 	-0.186562
50.4968 	-0.186562
50.5669 	-0.186562
50.637 	-0.173636
50.7072 	-0.173636
50.7773 	-0.173636
50.8474 	-0.173636
50.9176 	-0.173636
50.9877 	-0.173636
51.0578 	-0.173636
51.128 	-0.173636
51.1981 	-0.173636
51.2682 	-0.15926
51.3384 	-0.15926
51.4085 	-0.15926
51.4786 	-0.15926
51.5488 	-0.15926
51.6189 	-0.15926
51.689 	-0.15926
51.7592 	-0.15926
51.8293 	-0.144152
51.8994 	-0.144152
51.9696 	-0.144152
52.0397 	-0.144152
52.1099 	-0.144152
52.18 	-0.144152
52.2501 	-0.144152
52.3203 	-0.144152
52.3904 	-0.144152
52.4605 	-0.129008
52.5307 	-0.129008
52.6008 	-0.129008
52.6709 	-0.129008
52.7411 	-0.129008
52.8112 	-0.129008
52.8813 	-0.129008
52.9515 	-0.129008
53.0216 	-0.129008
53.0917 	-0.114192
53.1619 	-0.114192
53.232 	-0.114192
53.3021 	-0.114192
53.3723 	-0.114192
53.4424 	-0.114192
53.5125 	-0.114192
53.5827 	-0.114192
53.6528 	-0.114192
53.7229 	-0.0996173
53.7931 	-0.0996173
53.8632 	-0.0996173
53.9333 	-0.0996173
54.0035 	-0.0996173
54.0736 	-0.0996173
54.1437 	-0.0996173
54.2139 	-0.0996173
54.284 	-0.0851895
54.3542 	-0.0851895
54.4243 	-0.0851895
54.4944 	-0.0851895
54.5646 	-0.0851895
54.6347 	-0.0851895
54.7048 	-0.0851895
54.775 	-0.0851895
54.8451 	-0.0851895
54.9152 	-0.0710492
54.9854 	-0.0710492
55.0555 	-0.0710492
55.1256 	-0.0710492
55.1958 	-0.0710492
55.2659 	-0.0710492
55.336 	-0.0710492
55.4062 	-0.0710492
55.4763 	-0.0710492
55.5464 	-0.0573973
55.6166 	-0.0573973
55.6867 	-0.0573973
55.7568 	-0.0573973
55.827 	-0.0573973
55.8971 	-0.0573973
55.9672 	-0.0573973
56.0374 	-0.0573973
56.1075 	-0.0573973
56.1776 	-0.0438019
56.2478 	-0.0438019
56.3179 	-0.0438019
56.3881 	-0.0438019
56.4582 	-0.0438019
56.5283 	-0.0438019
56.5985 	-0.0438019
56.6686 	-0.0438019
56.7387 	-0.0438019
56.8089 	-0.0297571
56.879 	-0.0297571
56.9491 	-0.0297571
57.0193 	-0.0297571
57.0894 	-0.0297571
57.1595 	-0.0297571
57.2297 	-0.0297571
57.2998 	-0.0297571
57.3699 	-0.0155596
57.4401 	-0.0155596
57.5102 	-0.0155596
57.5803 	-0.0155596
57.6505 	-0.0155596
57.7206 	-0.0155596
57.7907 	-0.0155596
57.8609 	-0.0155596
57.931 	-0.0155596
58.0011 	-0.00121337
58.0713 	-0.00121337
58.1414 	-0.00121337
58.2115 	-0.00121337
58.2817 	-0.00121337
58.3518 	-0.00121337
58.4219 	-0.00121337
58.4921 	-0.00121337
58.5622 	-0.00121337
58.6324 	0.0124691
58.7025 	0.0124691
58.7726 	0.0124691
58.8428 	0.0124691
58.9129 	0.0124691
58.983 	0.0124691
59.0532 	0.0124691
59.1233 	0.0124691
59.1934 	0.0124691
59.2636 	0.024431
59.3337 	0.024431
59.4038 	0.024431
59.474 	0.024431
59.5441 	0.024431
59.6142 	0.024431
59.6844 	0.024431
59.7545 	0.024431
59.8246 	0.0351208
59.8948 	0.0351208
59.9649 	0.0351208
60.035 	0.0351208
60.1052 	0.0351208
60.1753 	0.0351208
60.2454 	0.0351208
60.3156 	0.0351208
60.3857 	0.0351208
60.4558 	0.0444791
60.526 	0.0444791
60.5961 	0.0444791
60.6662 	0.0444791
60.7364 	0.0444791
60.8065 	0.0444791
60.8767 	0.0444791
60.9468 	0.0444791
61.0169 	0.0444791
61.0871 	0.0518404
61.1572 	0.0518404
61.2273 	0.0518404
61.2975 	0.0518404
61.3676 	0.0518404
61.4377 	0.0518404
61.5079 	0.0518404
61.578 	0.0518404
61.6481 	0.0518404
61.7183 	0.0569705
61.7884 	0.0569705
61.8585 	0.0569705
61.9287 	0.0569705
61.9988 	0.0569705
62.0689 	0.0569705
62.1391 	0.0569705
62.2092 	0.0569705
62.2793 	0.0569705
62.3495 	0.0598657
62.4196 	0.0598657
62.4897 	0.0598657
62.5599 	0.0598657
62.63 	0.0598657
62.7001 	0.0598657
62.7703 	0.0598657
62.8404 	0.0598657
62.9105 	0.0605011
62.9807 	0.0605011
63.0508 	0.0605011
63.121 	0.0605011
63.1911 	0.0605011
63.2612 	0.0605011
63.3314 	0.0605011
63.4015 	0.0605011
63.4716 	0.0605011
63.5418 	0.0591631
63.6119 	0.0591631
63.682 	0.0591631
63.7522 	0.0591631
63.8223 	0.0591631
63.8924 	0.0591631
63.9626 	0.0591631
64.0327 	0.0591631
64.1028 	0.0591631
64.173 	0.0559381
64.2431 	0.0559381
64.3132 	0.0559381
64.3834 	0.0559381
64.4535 	0.0559381
64.5236 	0.0559381
64.5938 	0.0559381
64.6639 	0.0559381
64.734 	0.0559381
64.8042 	0.0511203
64.8743 	0.0511203
64.9444 	0.0511203
65.0146 	0.0511203
65.0847 	0.0511203
65.1548 	0.0511203
65.225 	0.0511203
65.2951 	0.0584196
65.3653 	0.0584196
65.4354 	0.0511654
65.5055 	0.0511654
65.5757 	0.0511654
65.6458 	0.0511654
65.7159 	0.0511654
65.7861 	0.0511654
65.8562 	0.0511654
65.9263 	0.0511654
65.9965 	0.0426135
66.0666 	0.0426135
66.1367 	0.0426135
66.2069 	0.0426135
66.277 	0.0426135
66.3471 	0.0426135
66.4173 	0.0426135
66.4874 	0.0426135
66.5575 	0.0426135
66.6277 	0.0333775
66.6978 	0.0333775
66.7679 	0.0333775
66.8381 	0.0333775
66.9082 	0.0333775
66.9783 	0.0333775
67.0485 	0.0333775
67.1186 	0.0333775
67.1887 	0.0333775
67.2589 	0.0233698
67.329 	0.0233698
67.3991 	0.0233698
67.4693 	0.0233698
67.5394 	0.0233698
67.6096 	0.0233698
67.6797 	0.0233698
67.7498 	0.0233698
67.82 	0.0233698
67.8901 	0.0137724
67.9602 	0.0137724
68.0304 	0.0137724
68.1005 	0.0137724
68.1706 	0.0137724
68.2408 	0.0137724
68.3109 	0.0137724
68.381 	0.0137724
68.4512 	0.00356725
68.5213 	0.00356725
68.5914 	0.00356725
68.6616 	0.00356725
68.7317 	0.00356725
68.8018 	0.00356725
68.872 	0.00356725
68.9421 	0.00356725
69.0122 	0.00356725
