/*--------------------------------*- C++ -*----------------------------------*\
  =========                 |
  \\      /  F ield         | OpenFOAM: The Open Source CFD Toolbox
   \\    /   O peration     | Website:  https://openfoam.org
    \\  /    A nd           | Version:  6
     \\/     M anipulation  |
\*---------------------------------------------------------------------------*/
FoamFile
{
    version     2.0;
    format      ascii;
    class       volVectorField;
    location    "109";
    object      U;
}
// * * * * * * * * * * * * * * * * * * * * * * * * * * * * * * * * * * * * * //

dimensions      [0 1 -1 0 0 0 0];

internalField   nonuniform List<vector> 
8800
(
(0.987183 -0.0766651 0)
(1.00189 -0.0551901 0)
(0.999721 -0.0285481 0)
(1.00003 -0.0151436 0)
(1.0001 -0.00854578 0)
(1.00012 -0.00504869 0)
(1.00008 -0.00300267 0)
(1.00002 -0.00170078 0)
(0.99999 -0.000793379 0)
(1.00006 -7.47083e-05 0)
(0.999964 0.00065946 0)
(1.00003 0.00142477 0)
(1.00007 0.00242549 0)
(1.00007 0.00399713 0)
(1.00006 0.00663195 0)
(1.00006 0.0113717 0)
(0.999964 0.0208157 0)
(0.999177 0.0386703 0)
(1.0071 0.0724575 0)
(0.771215 0.0366618 0)
(0.363083 -0.016016 0)
(1.04332 -0.0768096 0)
(1.0846 -0.0704367 0)
(1.04519 -0.0535298 0)
(1.0233 -0.0388803 0)
(1.01204 -0.0262015 0)
(1.00644 -0.016837 0)
(1.0036 -0.0102991 0)
(1.00215 -0.00563265 0)
(1.00143 -0.00196804 0)
(1.00128 0.00135724 0)
(1.00168 0.00474737 0)
(1.00271 0.00866002 0)
(1.00468 0.0139796 0)
(1.00861 0.0216884 0)
(1.01657 0.0326543 0)
(1.03252 0.0465652 0)
(1.06269 0.0616811 0)
(1.09186 0.0761071 0)
(0.838662 0.0565652 0)
(0.216882 -0.00242828 0)
(1.07593 -0.050118 0)
(1.09989 -0.0482846 0)
(1.06466 -0.0404322 0)
(1.04006 -0.0335691 0)
(1.02394 -0.0260406 0)
(1.01414 -0.0184461 0)
(1.00856 -0.0116124 0)
(1.00558 -0.00573146 0)
(1.0043 -0.000304082 0)
(1.00464 0.00495051 0)
(1.00663 0.010337 0)
(1.01064 0.0163886 0)
(1.01794 0.0234078 0)
(1.03053 0.0308687 0)
(1.05063 0.03789 0)
(1.08038 0.0445688 0)
(1.10627 0.0513756 0)
(0.942487 0.0416334 0)
(0.216106 0.00246334 0)
(0.175234 -0.000814624 0)
(1.01778 -0.035457 0)
(1.10524 -0.0413359 0)
(1.0783 -0.0360106 0)
(1.05351 -0.0300673 0)
(1.03625 -0.0244794 0)
(1.02404 -0.0187326 0)
(1.0159 -0.0126318 0)
(1.01102 -0.00642496 0)
(1.00879 -7.53106e-05 0)
(1.00935 0.00619153 0)
(1.01268 0.0121825 0)
(1.01889 0.0179648 0)
(1.02875 0.0235302 0)
(1.04317 0.0288219 0)
(1.0637 0.0342909 0)
(1.09356 0.040266 0)
(1.09338 0.042013 0)
(0.827011 0.0229373 0)
(0.173925 0.000855447 0)
(0.154067 -0.000608226 0)
(0.956362 -0.0254198 0)
(1.10354 -0.0350622 0)
(1.08774 -0.0325698 0)
(1.0618 -0.027904 0)
(1.04419 -0.022862 0)
(1.0317 -0.0175891 0)
(1.02283 -0.0120288 0)
(1.01698 -0.00606673 0)
(1.0141 0.000423019 0)
(1.01476 0.00689953 0)
(1.0188 0.0127721 0)
(1.0258 0.0180005 0)
(1.03605 0.0229047 0)
(1.05059 0.0276495 0)
(1.07183 0.0321595 0)
(1.10004 0.0360778 0)
(1.06797 0.0341098 0)
(0.739258 0.0143471 0)
(0.152091 0.000654638 0)
(0.139739 -0.000464072 0)
(0.899603 -0.0190245 0)
(1.09595 -0.0299852 0)
(1.09586 -0.0290696 0)
(1.06937 -0.0253192 0)
(1.05093 -0.0211546 0)
(1.03798 -0.0163466 0)
(1.02884 -0.0110218 0)
(1.02268 -0.00524359 0)
(1.01949 0.00111088 0)
(1.02008 0.00744112 0)
(1.02424 0.0130606 0)
(1.03134 0.0179448 0)
(1.04179 0.0223935 0)
(1.0569 0.0263397 0)
(1.0791 0.0297736 0)
(1.10218 0.0323761 0)
(1.03572 0.02823 0)
(0.67249 0.0102562 0)
(0.136942 0.000517636 0)
(0.129255 -0.000358168 0)
(0.850211 -0.0146466 0)
(1.08368 -0.0258197 0)
(1.1016 -0.0260747 0)
(1.07629 -0.0227627 0)
(1.05731 -0.0190855 0)
(1.0439 -0.0147939 0)
(1.03439 -0.00982073 0)
(1.02798 -0.00424313 0)
(1.02458 0.0019405 0)
(1.025 0.0080631 0)
(1.02911 0.0134021 0)
(1.0363 0.0178596 0)
(1.04701 0.0216996 0)
(1.06251 0.0249746 0)
(1.08515 0.0278805 0)
(1.10119 0.0296015 0)
(1.00058 0.0237533 0)
(0.620387 0.00790584 0)
(0.125456 0.000421202 0)
(0.121283 -0.000276857 0)
(0.808331 -0.0114705 0)
(1.06858 -0.0221705 0)
(1.10523 -0.0233829 0)
(1.08262 -0.0204749 0)
(1.06322 -0.0170027 0)
(1.04953 -0.0130059 0)
(1.03973 -0.00835747 0)
(1.03301 -0.00303921 0)
(1.02934 0.002936 0)
(1.02956 0.00881697 0)
(1.03362 0.0138035 0)
(1.04084 0.0177722 0)
(1.05163 0.0211015 0)
(1.06734 0.023958 0)
(1.0903 0.026555 0)
(1.09726 0.0273656 0)
(0.964984 0.0202609 0)
(0.578382 0.00638827 0)
(0.116266 0.000351852 0)
(0.115137 -0.000212869 0)
(0.773195 -0.00908657 0)
(1.05206 -0.0189461 0)
(1.10774 -0.0208759 0)
(1.08858 -0.018328 0)
(1.0688 -0.0149882 0)
(1.05485 -0.0111389 0)
(1.04485 -0.00668525 0)
(1.03786 -0.0015927 0)
(1.03388 0.00414195 0)
(1.03385 0.00973134 0)
(1.03777 0.0143369 0)
(1.04489 0.0178677 0)
(1.05564 0.0208061 0)
(1.07154 0.0233287 0)
(1.09415 0.0255682 0)
(1.09043 0.0255447 0)
(0.930214 0.0175895 0)
(0.543443 0.00536164 0)
(0.10864 0.000302566 0)
(0.110386 -0.000161056 0)
(0.743872 -0.00722728 0)
(1.0352 -0.0160743 0)
(1.10935 -0.0184964 0)
(1.09428 -0.0162412 0)
(1.07421 -0.0129787 0)
(1.05999 -0.00920121 0)
(1.04978 -0.00485014 0)
(1.04254 8.73524e-05 0)
(1.03823 0.00559584 0)
(1.03787 0.0108816 0)
(1.04154 0.0151216 0)
(1.04847 0.0182612 0)
(1.05916 0.0208516 0)
(1.07523 0.0230737 0)
(1.09666 0.0249195 0)
(1.08106 0.0240979 0)
(0.896805 0.0155906 0)
(0.513499 0.00465712 0)
(0.102091 0.000268667 0)
(0.10675 -0.000117618 0)
(0.719556 -0.00571796 0)
(1.01884 -0.0134822 0)
(1.11018 -0.0161797 0)
(1.09991 -0.0141794 0)
(1.07958 -0.0109109 0)
(1.06505 -0.00714218 0)
(1.05459 -0.00283064 0)
(1.04708 0.00201475 0)
(1.04239 0.00734297 0)
(1.04162 0.0123524 0)
(1.04496 0.0162504 0)
(1.05164 0.0190141 0)
(1.06223 0.0212675 0)
(1.07847 0.0232105 0)
(1.09777 0.0246234 0)
(1.06951 0.0230263 0)
(0.864839 0.0141493 0)
(0.487071 0.00418501 0)
(0.0962731 0.000247153 0)
(0.104045 -7.9544e-05 0)
(0.69962 -0.00444165 0)
(1.0036 -0.0111008 0)
(1.11041 -0.0138885 0)
(1.10542 -0.0120562 0)
(1.08497 -0.00872885 0)
(1.07013 -0.00490621 0)
(1.05938 -0.000569813 0)
(1.05151 0.00424477 0)
(1.04637 0.0094468 0)
(1.04509 0.0142166 0)
(1.04804 0.0177906 0)
(1.05442 0.0201832 0)
(1.06488 0.0221063 0)
(1.08122 0.023772 0)
(1.09776 0.0248408 0)
(1.05601 0.0223502 0)
(0.834105 0.0131843 0)
(0.463037 0.00389151 0)
(0.0909184 0.000235679 0)
(0.102156 -4.40935e-05 0)
(0.683608 -0.00331022 0)
(0.98995 -0.00885771 0)
(1.11027 -0.0115333 0)
(1.11081 -0.00978636 0)
(1.09049 -0.00636835 0)
(1.07529 -0.00242689 0)
(1.0642 0.00200448 0)
(1.05591 0.0068547 0)
(1.05021 0.0119866 0)
(1.04832 0.0165528 0)
(1.05079 0.0198163 0)
(1.05681 0.021837 0)
(1.0671 0.0234272 0)
(1.08345 0.0247953 0)
(1.09685 0.0253916 0)
(1.04065 0.022078 0)
(0.804211 0.0126193 0)
(0.440498 0.0037381 0)
(0.0858161 0.000232079 0)
(0.101026 -8.93871e-06 0)
(0.671236 -0.00225299 0)
(0.978269 -0.00667656 0)
(1.11008 -0.00905592 0)
(1.11621 -0.00730759 0)
(1.09622 -0.00375094 0)
(1.08063 0.000378431 0)
(1.06913 0.00497848 0)
(1.06033 0.00993594 0)
(1.05395 0.0150565 0)
(1.05133 0.0194537 0)
(1.05321 0.0224168 0)
(1.05881 0.0240671 0)
(1.06889 0.0253162 0)
(1.08522 0.0263863 0)
(1.09457 0.0264479 0)
(1.02345 0.0222196 0)
(0.774672 0.0124108 0)
(0.418724 0.00370095 0)
(0.0807982 0.000235104 0)
(0.100648 2.79677e-05 0)
(0.662371 -0.00121342 0)
(0.968886 -0.00448279 0)
(1.11019 -0.00639465 0)
(1.12178 -0.00454569 0)
(1.10225 -0.000786856 0)
(1.08623 0.00360584 0)
(1.07425 0.00845337 0)
(1.06483 0.0135956 0)
(1.05764 0.0187688 0)
(1.05413 0.0230329 0)
(1.05531 0.0257048 0)
(1.06042 0.0269886 0)
(1.07024 0.027874 0)
(1.08641 0.028605 0)
(1.09082 0.0280327 0)
(1.00427 0.0228213 0)
(0.744925 0.0125348 0)
(0.397078 0.00376678 0)
(0.0757211 0.000244019 0)
(0.101047 6.22566e-05 0)
(0.657012 -0.000133103 0)
(0.962113 -0.00219915 0)
(1.11097 -0.0034817 0)
(1.12769 -0.00141471 0)
(1.1087 0.00262648 0)
(1.09221 0.00736735 0)
(1.07965 0.0125499 0)
(1.06948 0.0179611 0)
(1.0613 0.0232554 0)
(1.05673 0.027422 0)
(1.05708 0.0298203 0)
(1.0616 0.0307244 0)
(1.07109 0.0312252 0)
(1.08674 0.0315747 0)
(1.08529 0.0302393 0)
(0.982871 0.0239217 0)
(0.714339 0.0129759 0)
(0.374979 0.00392526 0)
(0.0704585 0.000257868 0)
(0.102295 0.000119295 0)
(0.655324 0.00103733 0)
(0.958282 0.000252658 0)
(1.11279 -0.000236638 0)
(1.13415 0.00218734 0)
(1.11569 0.00661035 0)
(1.09868 0.0117981 0)
(1.08543 0.0174164 0)
(1.07435 0.0231901 0)
(1.06499 0.0286767 0)
(1.05913 0.03278 0)
(1.05851 0.0349136 0)
(1.06233 0.0354132 0)
(1.0714 0.0355074 0)
(1.08604 0.035435 0)
(1.0777 0.0331549 0)
(0.958831 0.0255602 0)
(0.682211 0.0137229 0)
(0.351878 0.00416618 0)
(0.0649009 0.000275573 0)
(0.104533 0.000170138 0)
(0.6574 0.00218779 0)
(0.957764 0.00297075 0)
(1.11613 0.00345016 0)
(1.14138 0.00637858 0)
(1.12338 0.0113097 0)
(1.10577 0.0170609 0)
(1.09171 0.0232308 0)
(1.07952 0.0294691 0)
(1.06873 0.0352195 0)
(1.06135 0.0392824 0)
(1.05958 0.0411286 0)
(1.06255 0.0412165 0)
(1.07113 0.0408789 0)
(1.0841 0.0402654 0)
(1.06768 0.0368856 0)
(0.931593 0.0277813 0)
(0.64778 0.0147646 0)
(0.32727 0.00447792 0)
(0.0589601 0.000295816 0)
(0.107906 0.00023483 0)
(0.663944 0.00367449 0)
(0.960879 0.00594198 0)
(1.12145 0.00770881 0)
(1.14965 0.0112935 0)
(1.13197 0.0169087 0)
(1.11366 0.0233625 0)
(1.09859 0.030217 0)
(1.08506 0.0370287 0)
(1.07254 0.0431072 0)
(1.06337 0.0471359 0)
(1.06028 0.0486985 0)
(1.06223 0.0483262 0)
(1.07021 0.0475184 0)
(1.08091 0.0462662 0)
(1.05472 0.0415536 0)
(0.900412 0.0306167 0)
(0.610228 0.0160764 0)
(0.300696 0.00484249 0)
(0.0525746 0.000316619 0)
(0.112683 0.000323589 0)
(0.675378 0.00544147 0)
(0.968204 0.00946083 0)
(1.12927 0.0127108 0)
(1.15929 0.0171522 0)
(1.14169 0.0236509 0)
(1.12254 0.0309712 0)
(1.10623 0.0386581 0)
(1.09105 0.0461528 0)
(1.07645 0.0526052 0)
(1.06516 0.0565767 0)
(1.06047 0.0578084 0)
(1.06132 0.0569476 0)
(1.06858 0.0556265 0)
(1.07637 0.0536232 0)
(1.03812 0.0472625 0)
(0.864345 0.0340645 0)
(0.568695 0.0176058 0)
(0.271784 0.00523012 0)
(0.0457231 0.000335135 0)
(0.119237 0.000441604 0)
(0.692481 0.00764622 0)
(0.980629 0.0137684 0)
(1.14017 0.0186896 0)
(1.17071 0.0242294 0)
(1.15285 0.0318628 0)
(1.13261 0.0402431 0)
(1.11475 0.0489199 0)
(1.09753 0.0571882 0)
(1.08044 0.0640221 0)
(1.06665 0.0678639 0)
(1.06006 0.0686833 0)
(1.05979 0.0672903 0)
(1.06633 0.0654061 0)
(1.07011 0.0625203 0)
(1.01698 0.0540727 0)
(0.822246 0.0380635 0)
(0.522353 0.019252 0)
(0.240325 0.00559497 0)
(0.0384448 0.000347618 0)
(0.128098 0.000606338 0)
(0.716268 0.0105261 0)
(0.998952 0.0191315 0)
(1.15481 0.0259944 0)
(1.18435 0.0328996 0)
(1.16579 0.0420075 0)
(1.14413 0.0516703 0)
(1.12427 0.0614857 0)
(1.1045 0.0705674 0)
(1.08441 0.0777073 0)
(1.06776 0.081274 0)
(1.05904 0.0815506 0)
(1.05756 0.0795494 0)
(1.0631 0.0770175 0)
(1.06152 0.072957 0)
(0.990034 0.0619841 0)
(0.772781 0.0424421 0)
(0.470522 0.0208433 0)
(0.206378 0.00587275 0)
(0.0308596 0.000349655 0)
(0.140087 0.000848173 0)
(0.748132 0.0144711 0)
(1.0243 0.0260204 0)
(1.174 0.035173 0)
(1.20094 0.0438016 0)
(1.18091 0.0547764 0)
(1.1573 0.065949 0)
(1.13481 0.0769922 0)
(1.11187 0.086812 0)
(1.08824 0.0940412 0)
(1.06835 0.0970729 0)
(1.05732 0.0966287 0)
(1.05469 0.0939842 0)
(1.05856 0.0907069 0)
(1.04966 0.0851299 0)
(0.955654 0.0708217 0)
(0.714526 0.0468618 0)
(0.412884 0.0221219 0)
(0.170404 0.00598349 0)
(0.0231846 0.000336877 0)
(0.156528 0.0012265 0)
(0.790083 0.020131 0)
(1.05832 0.0352232 0)
(1.1987 0.0472089 0)
(1.22132 0.0583291 0)
(1.1986 0.0712502 0)
(1.17219 0.0840821 0)
(1.14624 0.0962629 0)
(1.11938 0.106522 0)
(1.09164 0.11341 0)
(1.0682 0.115495 0)
(1.05477 0.114084 0)
(1.05108 0.110701 0)
(1.05263 0.106677 0)
(1.03327 0.0989531 0)
(0.911729 0.0801646 0)
(0.646204 0.0507675 0)
(0.349826 0.0227509 0)
(0.1334 0.00584578 0)
(0.0157352 0.00030616 0)
(0.179698 0.00188398 0)
(0.845381 0.0286855 0)
(1.10395 0.0483595 0)
(1.23 0.0639389 0)
(1.24597 0.0780919 0)
(1.21897 0.0931235 0)
(1.18857 0.107448 0)
(1.15814 0.120286 0)
(1.12659 0.130325 0)
(1.09426 0.136164 0)
(1.06705 0.136719 0)
(1.0512 0.134012 0)
(1.04653 0.129752 0)
(1.04502 0.124724 0)
(1.01039 0.114086 0)
(0.855686 0.0892283 0)
(0.567234 0.0533732 0)
(0.282918 0.0223755 0)
(0.096971 0.00540188 0)
(0.00890563 0.000256042 0)
(0.213129 0.00334055 0)
(0.919924 0.042927 0)
(1.16417 0.0693625 0)
(1.26821 0.0888718 0)
(1.27475 0.106266 0)
(1.24141 0.122862 0)
(1.20559 0.137721 0)
(1.16966 0.150075 0)
(1.13281 0.158767 0)
(1.09559 0.162551 0)
(1.06458 0.160836 0)
(1.04639 0.156417 0)
(1.04089 0.151144 0)
(1.0348 0.144841 0)
(0.978174 0.129804 0)
(0.784718 0.0967386 0)
(0.478877 0.0537873 0)
(0.215604 0.0208162 0)
(0.0633983 0.00465954 0)
(0.00316803 0.000186612 0)
(0.258759 0.00986717 1.34256e-20)
(1.01745 0.0711344 1.1448e-20)
(1.23646 0.105134 -3.95581e-21)
(1.3106 0.126136 0)
(1.30466 0.146666 -9.64665e-35)
(1.26364 0.162904 1.3993e-21)
(1.22164 0.176457 -2.45721e-21)
(1.17976 0.186866 0)
(1.13732 0.193138 4.93205e-35)
(1.09498 0.194125 -2.93106e-21)
(1.06001 0.189765 0)
(1.03971 0.183731 -3.44775e-21)
(1.03421 0.17822 -1.01544e-20)
(1.01946 0.170562 -4.80083e-21)
(0.930099 0.147834 -1.44013e-21)
(0.690315 0.102546 -8.53783e-22)
(0.376643 0.0516538 0)
(0.147717 0.0183559 5.96556e-22)
(0.0328169 0.00373363 7.06482e-22)
(-0.00158065 6.47792e-05 1.2931e-20)
(0.290883 0.0257713 1.04612e-20)
(1.09875 0.115805 1.20895e-22)
(1.29611 0.156068 1.08265e-21)
(1.34943 0.177191 0)
(1.33126 0.197659 -4.95726e-21)
(1.2832 0.211903 -5.55883e-21)
(1.23518 0.223358 -2.49259e-21)
(1.18743 0.231588 -8.67389e-21)
(1.13936 0.235564 0)
(1.09174 0.234079 1.23999e-20)
(1.05259 0.227462 1.2221e-20)
(1.02944 0.219859 3.60733e-21)
(1.02101 0.213692 1.31189e-20)
(0.989321 0.201346 1.84258e-20)
(0.849433 0.166021 0)
(0.558392 0.105226 2.58373e-20)
(0.260838 0.0473595 3.70239e-20)
(0.0811648 0.0146423 4.11883e-20)
(0.00490626 0.00170542 -4.72415e-20)
(-0.00566347 -0.000465337 -9.01732e-22)
(0.29326 0.0440359 0)
(1.15171 0.173421 1.95299e-21)
(1.33768 0.218336 0)
(1.38019 0.239389 -6.88074e-21)
(1.35272 0.256572 0)
(1.29874 0.266944 -1.1023e-20)
(1.24513 0.274767 5.09691e-21)
(1.19186 0.279628 -1.75258e-20)
(1.13856 0.28039 -3.35256e-22)
(1.08613 0.27577 6.39316e-21)
(1.04329 0.266536 2.66109e-20)
(1.01767 0.25718 -2.24709e-23)
(1.00518 0.249258 -9.47068e-21)
(0.954213 0.230977 -1.71431e-20)
(0.770218 0.180871 2.02681e-20)
(0.455792 0.104695 -3.58221e-20)
(0.189188 0.0427466 -4.70715e-21)
(0.0444775 0.011027 0)
(-0.00928177 -0.000581015 -3.15535e-24)
(-0.00752351 -0.0010645 0)
(0.287058 0.0592976 2.94191e-20)
(1.18178 0.23493 -1.36636e-20)
(1.36458 0.285456 -9.66292e-21)
(1.40118 0.306743 3.32748e-21)
(1.36744 0.319771 -5.49794e-21)
(1.3091 0.325573 2.29995e-20)
(1.25097 0.329001 1.05828e-20)
(1.19307 0.329745 0)
(1.13523 0.326631 -3.22137e-20)
(1.07861 0.318347 0)
(1.03258 0.306177 -1.3875e-20)
(1.00477 0.294878 -1.70362e-20)
(0.98756 0.2844 -1.02162e-20)
(0.917429 0.258617 -1.23506e-20)
(0.699544 0.193064 0)
(0.381104 0.104138 0)
(0.142813 0.0393804 -3.03815e-20)
(0.0214923 0.00765861 5.99076e-21)
(-0.0181407 -0.00300416 -3.53708e-21)
(-0.00866949 -0.00169554 -4.18948e-21)
(0.279195 0.0725963 -1.42155e-20)
(1.19627 0.29637 0)
(1.38035 0.353567 2.08022e-20)
(1.41349 0.375271 9.55265e-21)
(1.37547 0.384236 1.23905e-20)
(1.31402 0.38543 0)
(1.25249 0.384303 1.04179e-20)
(1.19091 0.380662 1.9234e-20)
(1.12937 0.373337 1.64845e-20)
(1.06922 0.361066 2.95196e-20)
(1.02048 0.345741 0)
(0.990698 0.332318 -3.63842e-20)
(0.968381 0.318623 -2.18245e-20)
(0.880558 0.284285 -1.28852e-20)
(0.638587 0.203622 7.83203e-20)
(0.326654 0.104073 9.25455e-21)
(0.111246 0.0366275 4.35923e-20)
(0.00545128 0.00423769 -2.06011e-19)
(-0.0246024 -0.00559971 1.22016e-19)
(-0.00954394 -0.00235331 -1.48948e-19)
(0.271243 0.084479 -9.85608e-21)
(1.20054 0.35567 2.6276e-21)
(1.38785 0.420642 -2.5247e-21)
(1.4188 0.443054 -1.0614e-20)
(1.37778 0.448183 -1.09796e-20)
(1.31406 0.444907 3.53675e-22)
(1.24994 0.439314 -1.12008e-20)
(1.18548 0.431288 1.97881e-20)
(1.12095 0.419667 -3.51703e-20)
(1.05791 0.403274 0)
(1.00693 0.384682 -1.65096e-20)
(0.975389 0.369023 -3.03607e-22)
(0.947877 0.351727 -2.36934e-20)
(0.844466 0.308176 0)
(0.586695 0.212916 -1.68361e-20)
(0.28589 0.104465 -3.97351e-20)
(0.0880229 0.0341222 1.05491e-19)
(-0.00677665 0.000679489 -1.03871e-19)
(-0.0296803 -0.00832366 1.47648e-19)
(-0.010227 -0.0030208 -1.55365e-19)
(0.26409 0.0952877 -1.19443e-22)
(1.19806 0.41202 -1.79061e-21)
(1.38923 0.485574 -8.44529e-21)
(1.41859 0.508957 4.66854e-21)
(1.37541 0.510576 -5.55396e-21)
(1.31003 0.503053 0)
(1.2439 0.493176 -1.06197e-20)
(1.17714 0.480877 -2.06657e-20)
(1.11017 0.464994 -1.82581e-20)
(1.04476 0.444457 0)
(0.991953 0.422543 -1.69404e-20)
(0.958908 0.40456 -2.08063e-20)
(0.926414 0.383366 2.54629e-20)
(0.809691 0.330235 -1.53907e-20)
(0.542473 0.221304 -7.24813e-20)
(0.25414 0.105197 4.27488e-20)
(0.0696623 0.0317025 1.26054e-20)
(-0.0169799 -0.00305362 0)
(-0.0340424 -0.0111639 -1.41054e-19)
(-0.010782 -0.00368792 -5.22504e-21)
(0.257951 0.10537 -6.52287e-22)
(1.19117 0.465189 1.28064e-21)
(1.386 0.547786 4.18766e-21)
(1.41408 0.572306 1.58575e-20)
(1.36932 0.570771 -2.11862e-20)
(1.30273 0.559304 2.26631e-20)
(1.23502 0.545382 2.26898e-20)
(1.16637 0.528981 -3.28927e-20)
(1.09738 0.508929 1.09878e-20)
(1.02998 0.484257 -7.12986e-20)
(0.975729 0.458987 -1.89781e-20)
(0.941451 0.438584 0)
(0.904355 0.413334 2.73928e-20)
(0.776534 0.350432 3.26345e-20)
(0.504495 0.228947 3.88269e-20)
(0.228364 0.106134 -4.59169e-20)
(0.0541194 0.0292306 -1.35382e-20)
(-0.0262551 -0.00701871 1.59677e-20)
(-0.0382535 -0.0141914 0)
(-0.0113152 -0.00437208 -1.1214e-20)
(0.252762 0.114782 1.76321e-21)
(1.1816 0.515194 -2.87607e-21)
(1.37947 0.607279 -4.05029e-21)
(1.40626 0.632762 1.00982e-20)
(1.36031 0.628392 -9.98082e-21)
(1.29284 0.613296 -8.62736e-22)
(1.22388 0.595627 -2.4609e-20)
(1.15367 0.575348 -1.18363e-20)
(1.08294 0.551251 -3.14221e-20)
(1.01386 0.522469 2.52462e-23)
(0.958466 0.493777 -5.90774e-20)
(0.923241 0.470863 4.93858e-20)
(0.882007 0.441414 -2.97584e-20)
(0.74511 0.368812 3.54889e-20)
(0.471568 0.235854 0)
(0.206722 0.107128 -2.46548e-20)
(0.0401904 0.0265601 2.32916e-23)
(-0.0353079 -0.0113435 -6.86506e-20)
(-0.0427814 -0.0175513 -1.01542e-20)
(-0.0119378 -0.00511367 0)
(0.248515 0.123799 0)
(1.17043 0.562264 -2.29753e-21)
(1.37048 0.663955 -6.16612e-21)
(1.39597 0.690166 -9.75164e-21)
(1.3491 0.683243 -1.20323e-20)
(1.28098 0.664846 0)
(1.21102 0.643734 -1.14999e-20)
(1.13948 0.619831 -2.4843e-22)
(1.06722 0.591857 6.70796e-20)
(0.99665 0.558996 -9.77319e-21)
(0.940337 0.526782 -4.2499e-20)
(0.904422 0.501208 2.56585e-20)
(0.859559 0.467385 -3.91658e-22)
(0.715423 0.385265 3.76472e-20)
(0.442815 0.241948 2.26029e-20)
(0.188122 0.107909 -5.28527e-20)
(0.0274476 0.0234748 6.23045e-20)
(-0.0444084 -0.0162214 1.84128e-20)
(-0.0479053 -0.0214094 7.63086e-20)
(-0.0127825 -0.00598168 -2.06527e-19)
(0.245147 0.132589 -1.34509e-21)
(1.15851 0.606571 5.33197e-22)
(1.35971 0.717536 6.54798e-22)
(1.38386 0.744489 8.67223e-21)
(1.33625 0.735251 0)
(1.26766 0.713862 -1.1031e-20)
(1.19688 0.689621 3.82612e-20)
(1.12418 0.662369 2.60246e-20)
(1.05052 0.630715 0)
(0.978559 0.593818 -1.39825e-19)
(0.92146 0.557946 1.14322e-19)
(0.885077 0.529481 0)
(0.837142 0.491068 3.42988e-20)
(0.687471 0.399677 -3.01832e-22)
(0.417624 0.247076 -7.23043e-20)
(0.171995 0.108165 2.83033e-20)
(0.0158596 0.0197906 0)
(-0.0533628 -0.0217309 9.87148e-20)
(-0.0535469 -0.0258566 0)
(-0.0139043 -0.00703521 -9.69018e-20)
(0.242591 0.141162 2.13823e-21)
(1.14636 0.648354 2.29032e-21)
(1.34767 0.768098 1.09409e-21)
(1.37048 0.795761 0)
(1.32227 0.784429 -1.11366e-20)
(1.25333 0.760343 0)
(1.18185 0.733265 -3.83727e-20)
(1.1081 0.702946 -1.23738e-20)
(1.03311 0.667846 1.19512e-20)
(0.959769 0.626981 -6.91388e-20)
(0.901901 0.587281 1.18551e-20)
(0.865217 0.555605 0)
(0.814791 0.512333 -7.29829e-20)
(0.661174 0.411921 2.26038e-22)
(0.395529 0.251082 0)
(0.158026 0.107637 3.47738e-23)
(0.00557561 0.0154022 8.95305e-20)
(-0.061741 -0.0278053 -8.46373e-20)
(-0.0593611 -0.0308218 2.50611e-20)
(-0.0152651 -0.00828348 0)
(0.240521 0.149498 0)
(1.13425 0.687822 3.74677e-21)
(1.33482 0.815771 8.02807e-22)
(1.35627 0.844068 -5.35754e-22)
(1.30754 0.830835 -4.45058e-21)
(1.23834 0.804324 -2.50241e-20)
(1.16626 0.774695 1.42773e-20)
(1.09154 0.74159 -1.43914e-20)
(1.01525 0.703299 5.30646e-20)
(0.940436 0.658585 -1.10711e-19)
(0.881696 0.614862 -7.84078e-22)
(0.844793 0.579559 -3.22397e-20)
(0.792434 0.531081 1.17916e-19)
(0.636419 0.421979 -3.3208e-22)
(0.376104 0.25385 -5.53885e-20)
(0.145997 0.106174 -9.77197e-20)
(-0.00311442 0.0104632 0)
(-0.0690085 -0.0342035 0)
(-0.0648582 -0.0360947 2.68692e-20)
(-0.0167504 -0.00969227 -1.59264e-20)
(0.239113 0.157793 4.13957e-21)
(1.12238 0.725063 -9.46026e-21)
(1.32152 0.860676 -8.69411e-22)
(1.34156 0.889507 0)
(1.2924 0.874548 -3.12184e-22)
(1.223 0.845867 -2.40366e-20)
(1.1504 0.813962 3.52869e-20)
(1.07477 0.778353 5.75938e-20)
(0.997155 0.737154 6.94384e-20)
(0.920727 0.688761 -9.09629e-20)
(0.860882 0.640835 -9.84185e-20)
(0.823708 0.601399 8.62968e-20)
(0.769973 0.547268 0)
(0.613044 0.429782 -2.53385e-20)
(0.358986 0.255316 -5.94153e-20)
(0.135794 0.103893 -6.98514e-20)
(-0.0101144 0.00525493 -8.23352e-20)
(-0.0748312 -0.0405781 2.43452e-20)
(-0.0695737 -0.0413744 -1.44027e-20)
(-0.018203 -0.0111834 2.16912e-23)
(0.237961 0.165878 0)
(1.11121 0.760041 0)
(1.30801 0.902932 5.11204e-22)
(1.32662 0.932191 0)
(1.2771 0.915676 1.24521e-20)
(1.20756 0.885061 1.73138e-20)
(1.13451 0.851133 0)
(1.05799 0.813299 7.01809e-21)
(0.979035 0.769486 1.16851e-19)
(0.900812 0.717659 -2.09664e-19)
(0.839502 0.665413 0)
(0.801839 0.621246 -5.57494e-20)
(0.747193 0.560831 -4.67777e-22)
(0.590811 0.435227 -2.44474e-22)
(0.34398 0.255424 6.36728e-20)
(0.127451 0.101149 1.21934e-23)
(-0.0155025 0.000478665 -1.76619e-19)
(-0.0794233 -0.0462709 5.21976e-20)
(-0.0734976 -0.0463186 1.54753e-20)
(-0.0194898 -0.0126494 0)
(0.237072 0.173713 -1.9446e-20)
(1.10048 0.79326 -8.03478e-21)
(1.29442 0.942634 -7.00995e-21)
(1.31166 0.972238 -3.61488e-21)
(1.26186 0.954311 1.91914e-20)
(1.19223 0.921992 0)
(1.11876 0.886285 2.22467e-20)
(1.04141 0.846497 -1.56028e-20)
(0.961077 0.80038 7.99281e-22)
(0.880863 0.745426 1.54425e-20)
(0.817631 0.688857 1.28809e-19)
(0.779048 0.639325 -1.96802e-20)
(0.723815 0.571752 -7.27794e-20)
(0.569433 0.438049 -2.9312e-20)
(0.331255 0.253926 3.42035e-20)
(0.121565 0.0984312 1.96595e-23)
(-0.0190654 -0.00235067 4.73824e-20)
(-0.084048 -0.0499478 -1.12e-19)
(-0.078278 -0.0508251 1.32835e-19)
(-0.0210038 -0.014248 1.96341e-20)
(0.236234 0.181301 7.77094e-21)
(1.09023 0.824774 -4.76306e-21)
(1.28095 0.979926 1.33386e-21)
(1.29687 1.00978 3.96364e-22)
(1.24683 0.990576 -2.72061e-21)
(1.17716 0.956751 -3.15456e-20)
(1.10335 0.919493 6.82464e-21)
(1.02519 0.878009 -6.5681e-20)
(0.943455 0.829898 -1.30941e-19)
(0.861048 0.772175 -1.26577e-19)
(0.795379 0.711435 0)
(0.755212 0.655974 -8.66769e-20)
(0.699424 0.580085 1.05019e-19)
(0.548638 0.437762 0)
(0.32113 0.249942 -7.3368e-20)
(0.120324 0.0952994 4.31056e-20)
(-0.0181609 -0.00245632 -5.08276e-20)
(-0.0886698 -0.0512392 -6.01347e-20)
(-0.087099 -0.05603 -1.06851e-19)
(-0.0242607 -0.0168406 -8.43783e-20)
(0.235751 0.188726 -9.18008e-21)
(1.08034 0.854611 5.1137e-21)
(1.2677 1.01489 1.03954e-20)
(1.28237 1.04493 2.32934e-21)
(1.23215 1.02458 6.79005e-21)
(1.16247 0.989438 -1.83991e-20)
(1.08837 0.950827 2.26804e-20)
(1.00945 0.907905 -6.84584e-20)
(0.926305 0.858108 -7.83584e-20)
(0.84154 0.798016 1.34188e-19)
(0.772876 0.733402 2.86906e-19)
(0.730259 0.671634 0)
(0.673499 0.586078 0)
(0.527474 0.433751 -3.37845e-20)
(0.313426 0.241864 0)
(0.125285 0.0887648 9.25366e-20)
(-0.00696607 -0.00556577 1.09022e-19)
(-0.0848045 -0.0558891 0)
(-0.096613 -0.0648499 0)
(-0.0308085 -0.0217868 9.0741e-20)
(0.235155 0.195732 1.08682e-20)
(1.07086 0.882802 8.4158e-21)
(1.25478 1.04767 7.73239e-21)
(1.26824 1.07783 -4.17508e-21)
(1.21791 1.05643 5.86443e-21)
(1.14826 1.02014 2.06385e-20)
(1.07393 0.98036 -3.17395e-20)
(0.99431 0.936235 -3.05293e-22)
(0.909763 0.885055 -1.06227e-21)
(0.822497 0.82302 -5.35394e-22)
(0.750304 0.754979 1.48818e-19)
(0.704191 0.68677 0)
(0.645508 0.590264 1.07699e-19)
(0.504435 0.425864 7.30372e-20)
(0.305828 0.227559 1.71282e-19)
(0.135475 0.071436 4.99505e-20)
(0.0176142 -0.0247812 -5.86647e-20)
(-0.0546314 -0.0764058 -3.47601e-20)
(-0.0798079 -0.0773252 0)
(-0.0343794 -0.0269185 9.80125e-20)
(0.234914 0.20276 -2.54623e-20)
(1.06178 0.909454 0)
(1.24219 1.07831 1.01183e-20)
(1.25453 1.10856 -4.22942e-21)
(1.20419 1.08625 -4.10895e-21)
(1.1346 1.04895 -2.49686e-20)
(1.06012 1.00816 6.40021e-20)
(0.979844 0.963045 -5.29908e-21)
(0.893925 0.910772 0)
(0.804074 0.847219 -1.51159e-19)
(0.727874 0.776334 -3.27965e-19)
(0.677112 0.70187 1.32138e-20)
(0.615074 0.593397 1.51078e-19)
(0.477993 0.414802 0)
(0.29429 0.206101 1.16552e-19)
(0.142929 0.0396102 0)
(0.0447057 -0.0719245 0)
(-3.28734e-05 -0.129647 -3.74777e-20)
(0.00416475 -0.101492 0)
(0.0138196 -0.00939221 2.64464e-20)
(0.23444 0.209258 -2.9142e-20)
(1.05306 0.934909 0)
(1.22994 1.10703 1.7801e-20)
(1.24122 1.13738 0)
(1.19096 1.11429 1.2516e-21)
(1.12144 1.07615 0)
(1.04687 1.03452 3.45728e-21)
(0.965974 0.98867 9.7658e-21)
(0.87869 0.935618 1.0074e-20)
(0.786126 0.87099 -1.6781e-19)
(0.705416 0.797962 1.0017e-20)
(0.648705 0.717811 1.06965e-19)
(0.581465 0.596616 1.48668e-19)
(0.446237 0.40156 1.96258e-20)
(0.274904 0.179435 9.23704e-20)
(0.137802 -0.00411931 0)
(0.0552658 -0.142431 1.23644e-19)
(0.0317583 -0.151698 -7.26388e-20)
(0.0174233 0.021431 8.54761e-20)
(-0.0389845 0.466348 -1.01529e-19)
(0.234023 0.215598 2.45605e-20)
(1.04448 0.958998 3.56566e-20)
(1.21796 1.13416 0)
(1.22816 1.16473 9.78824e-22)
(1.17802 1.14114 -1.19479e-21)
(1.10849 1.10243 3.76778e-20)
(1.03386 1.06025 2.3546e-20)
(0.952279 1.01403 0)
(0.863514 0.960652 6.80308e-20)
(0.767961 0.89558 -8.91307e-21)
(0.681966 0.821254 0)
(0.617469 0.736075 0)
(0.541979 0.600795 1.35246e-19)
(0.405533 0.386317 -6.0844e-20)
(0.243774 0.149298 -9.51627e-20)
(0.117208 -0.0561318 0)
(0.0417017 -0.100701 6.30771e-20)
(-0.000143142 0.440537 -7.31355e-20)
(0.0259129 1.95729 -4.12591e-20)
(0.0514012 2.83984 -5.06427e-20)
(0.233362 0.221454 -1.89863e-20)
(1.03613 0.981907 -4.67364e-20)
(1.20628 1.15971 1.10917e-20)
(1.21536 1.19049 6.64659e-21)
(1.16546 1.16661 0)
(1.09588 1.12751 2.41616e-20)
(1.02134 1.08503 3.39126e-20)
(0.938977 1.03871 -4.90597e-21)
(0.848717 0.985396 1.02327e-20)
(0.750031 0.920472 1.62755e-19)
(0.658248 0.845793 1.71329e-19)
(0.584483 0.757097 1.24163e-19)
(0.497183 0.607348 1.38461e-19)
(0.355582 0.369706 -1.46325e-19)
(0.204533 0.121952 -1.46304e-19)
(0.0785963 0.00891343 0)
(0.0302262 0.939413 0)
(0.0741074 2.60845 3.55354e-20)
(0.077428 3.22577 0)
(0.0800503 3.39379 9.31283e-20)
(0.235592 0.227037 0)
(1.02839 1.00405 0)
(1.19457 1.18353 0)
(1.20266 1.21452 2.41257e-21)
(1.15292 1.19044 -5.3072e-22)
(1.08342 1.15126 1.52056e-20)
(1.00922 1.10877 2.25727e-20)
(0.926008 1.06258 -4.89183e-21)
(0.834246 1.00968 8.76459e-20)
(0.732353 0.945513 -1.34316e-21)
(0.634419 0.871452 3.44179e-19)
(0.550207 0.781257 -1.44534e-20)
(0.447159 0.618261 1.72515e-20)
(0.29649 0.351536 2.15095e-20)
(0.149705 0.12977 -1.03334e-21)
(0.0702976 1.05649 3.26331e-22)
(0.105516 2.79398 -1.92764e-19)
(0.109801 3.30516 -7.24892e-20)
(0.10399 3.42277 3.85896e-20)
(0.0963262 3.44165 -4.39959e-20)
(0.157792 0.171855 1.20019e-20)
(1.01606 1.02814 0)
(1.18261 1.20587 -2.44326e-20)
(1.19049 1.23727 -2.03718e-20)
(1.14087 1.21314 5.26414e-21)
(1.0718 1.17416 -1.48754e-20)
(0.997297 1.13149 -2.44259e-20)
(0.913406 1.08569 5.81002e-20)
(0.820192 1.03358 -7.33649e-20)
(0.715194 0.970836 0)
(0.610885 0.898362 1.72687e-19)
(0.51533 0.808675 -1.0394e-19)
(0.397481 0.648262 0)
(0.227681 0.33952 2.15285e-20)
(0.10455 0.675889 4.95555e-20)
(0.119009 2.61336 -5.51266e-20)
(0.163383 3.32609 6.23705e-20)
(0.150248 3.42773 3.38465e-20)
(0.126348 3.44658 3.81315e-20)
(0.109389 3.45563 6.1863e-20)
(0.269739 0.263775 -2.27571e-20)
(0.996452 1.03677 0)
(1.16264 1.2311 2.75262e-20)
(1.17483 1.26844 2.4755e-20)
(1.12237 1.24656 -9.83103e-21)
(1.05273 1.20785 1.01786e-20)
(0.976986 1.16665 2.76625e-20)
(0.892307 1.12193 4.55316e-21)
(0.797162 1.07178 7.24329e-20)
(0.688063 1.01272 1.47828e-19)
(0.57531 0.945408 9.94001e-21)
(0.461013 0.852265 9.52705e-20)
(0.303973 0.660726 1.70198e-20)
(0.187059 0.805067 -2.11525e-20)
(0.193142 2.51047 -4.64564e-20)
(0.244424 3.32351 4.62803e-20)
(0.22739 3.44604 -5.10444e-20)
(0.195255 3.46635 -2.91979e-20)
(0.163995 3.49163 -2.77388e-20)
(0.120308 3.48874 -3.94207e-21)
(0.259363 0.262297 0)
(0.992454 1.05898 8.96506e-21)
(1.15299 1.25441 -5.95601e-21)
(1.16294 1.29191 -3.28783e-21)
(1.11051 1.26979 -8.45099e-21)
(1.04082 1.2312 -8.65518e-21)
(0.96464 1.19012 -1.62772e-20)
(0.879488 1.14615 4.2112e-21)
(0.783271 1.09738 -7.69871e-20)
(0.671725 1.04111 -2.45707e-21)
(0.55371 0.978361 -3.22105e-19)
(0.428575 0.885996 1.37376e-20)
(0.271552 0.734375 -1.6365e-20)
(0.221865 1.51631 -1.97919e-20)
(0.288408 3.14726 3.58377e-21)
(0.299034 3.44391 -6.7069e-23)
(0.260027 3.49096 8.11352e-20)
(0.22775 3.51756 4.23958e-20)
(0.183158 3.53898 -1.6322e-20)
(0.134833 3.53738 -2.15158e-20)
(0.244943 0.259797 2.37284e-20)
(0.987473 1.08368 6.13652e-20)
(1.14292 1.27979 -1.69421e-20)
(1.15064 1.31702 -1.21732e-20)
(1.09814 1.29449 0)
(1.02849 1.25588 -5.34177e-21)
(0.95216 1.215 -2.0556e-20)
(0.866793 1.17177 3.84129e-21)
(0.769826 1.12457 -8.59003e-21)
(0.656424 1.07157 -1.39569e-19)
(0.534234 1.01422 -1.51741e-19)
(0.39979 0.92157 -1.14374e-19)
(0.270656 0.899746 -1.25163e-19)
(0.291454 2.3454 1.27671e-19)
(0.372333 3.37262 1.09253e-19)
(0.340401 3.49511 0)
(0.294995 3.53625 0)
(0.259486 3.57185 -1.35097e-20)
(0.218661 3.61651 0)
(0.150309 3.60484 -2.31919e-20)
(0.23474 0.261249 -3.60828e-20)
(0.98052 1.10914 -5.29069e-20)
(1.13141 1.30639 0)
(1.13704 1.34294 1.18481e-21)
(1.08448 1.31984 -1.26942e-20)
(1.01503 1.28115 -2.67991e-21)
(0.93888 1.24053 -1.15036e-20)
(0.853534 1.198 2.71566e-21)
(0.756085 1.15241 -5.78887e-20)
(0.641321 1.10283 7.20515e-21)
(0.51606 1.05111 0)
(0.37158 0.95962 0)