/*--------------------------------*- C++ -*----------------------------------*\
  =========                 |
  \\      /  F ield         | OpenFOAM: The Open Source CFD Toolbox
   \\    /   O peration     | Website:  https://openfoam.org
    \\  /    A nd           | Version:  6
     \\/     M anipulation  |
\*---------------------------------------------------------------------------*/
FoamFile
{
    version     2.0;
    format      ascii;
    class       surfaceScalarField;
    location    "40.7";
    object      phi;
}
// * * * * * * * * * * * * * * * * * * * * * * * * * * * * * * * * * * * * * //

dimensions      [0 3 -1 0 0 0 0];

internalField   nonuniform List<scalar> 
17370
(
-0.0900014
0.0898502
0.289162
-0.0714637
0.0537534
0.364486
-0.0381199
0.0276906
0.426597
-0.0196376
0.0146028
0.504287
-0.0107582
0.00826547
0.601895
-0.00626516
0.00489174
0.720431
-0.00373572
0.00290422
0.863738
-0.00217151
0.00161738
1.036
-0.00110334
0.000692695
1.24291
-0.000286788
-0.000100859
1.49158
0.000475398
-0.000878717
1.49159
0.00127275
-0.00176345
1.24318
0.0022979
-0.00301468
1.03635
0.00383792
-0.0049894
0.864058
0.0063592
-0.00835367
0.721052
0.010839
-0.0146748
0.60305
0.0197022
-0.0277479
0.507485
0.0381713
-0.0537967
0.431794
0.0714987
-0.0898732
0.36515
0.0900144
0.198996
-0.12813
0.088216
0.0399138
-0.364592
0.353365
-0.0746843
0.0859108
-0.446472
0.454311
-0.0844116
0.0765727
-0.521185
0.529894
-0.0684776
0.0597684
-0.612781
0.621561
-0.0515804
0.0428004
-0.726886
0.734153
-0.0353396
0.0280736
-0.867472
0.872569
-0.0224824
0.0173856
-1.03847
1.0419
-0.013595
0.0101643
-1.2446
1.24702
-0.00756678
0.00514536
-1.49263
1.4946
-0.00320496
0.00123282
-1.4925
1.49422
0.000452183
-0.00217841
-1.24398
1.24587
0.00408421
-0.00596621
-1.03751
1.04005
0.00832126
-0.0108554
-0.866103
0.869844
0.0142202
-0.0179603
-0.724394
0.729949
0.0230129
-0.0285675
-0.608703
0.616123
0.0357923
-0.0432123
-0.514903
0.523051
0.0519465
-0.0600949
-0.43986
0.447924
0.0687632
-0.0768264
-0.3753
0.376751
0.0846319
-0.0860823
-0.257338
0.222497
0.0748015
-0.0399601
-0.0685005
0.0586692
0.00983131
-0.0518456
0.0584411
-0.374108
0.367513
-0.0575336
0.0537874
-0.453582
0.457328
-0.0487
0.0447498
-0.52793
0.53188
-0.040912
0.0372769
-0.621545
0.62518
-0.0331841
0.0291235
-0.73533
0.739391
-0.0245756
0.0204365
-0.874316
0.878455
-0.0161106
0.0124307
-1.04346
1.04714
-0.00871099
0.00555425
-1.24855
1.2517
-0.00224413
-0.000819514
-1.49665
1.49972
0.00386026
-0.00711622
-1.49722
1.50047
0.0101948
-0.0138077
-1.25008
1.2537
0.0173821
-0.0215959
-1.04594
1.05015
0.0256431
-0.0301031
-0.877781
0.882241
0.0340907
-0.0381051
-0.739923
0.743938
0.0416671
-0.0454252
-0.626798
0.630556
0.0493074
-0.0543301
-0.534831
0.539853
0.0580107
-0.0588353
-0.457494
0.458319
0.0521467
-0.0319661
-0.335784
0.315604
0.0098809
-0.0683693
0.0584884
-0.052912
0.0489103
0.00400171
-0.0332052
0.0437689
-0.358062
0.347499
-0.0474815
0.046864
-0.459252
0.45987
-0.0438165
0.0404704
-0.535765
0.539112
-0.0367052
0.0334096
-0.628485
0.63178
-0.0299849
0.026971
-0.742603
0.745617
-0.0237378
0.0206553
-0.881972
0.885054
-0.0171519
0.0137963
-1.05072
1.05408
-0.0100288
0.00651055
-1.25513
1.25864
-0.00256046
-0.0012259
-1.50322
1.50701
0.00498439
-0.00885028
-1.50414
1.50801
0.012257
-0.0158732
-1.25746
1.26107
0.0190776
-0.022414
-1.05397
1.05731
0.0253555
-0.0284523
-0.885742
0.888838
0.0313544
-0.0346637
-0.747206
0.750515
0.0378553
-0.0415087
-0.634355
0.638008
0.0447585
-0.0476992
-0.544176
0.547117
0.0482079
-0.0443441
-0.456624
0.45276
0.0336024
-0.0161876
-0.296269
0.278854
0.00406166
-0.0526782
0.0486165
-0.0458251
0.0433218
0.00250329
-0.0228614
0.0332684
-0.336784
0.326377
-0.0391149
0.0401476
-0.459538
0.458505
-0.0389698
0.0366897
-0.541816
0.544096
-0.0340291
0.0314433
-0.634813
0.637399
-0.0283996
0.0255272
-0.748649
0.751522
-0.0222999
0.01934
-0.887989
0.890949
-0.016068
0.0129949
-1.05718
1.06026
-0.00949697
0.00611411
-1.26208
1.26547
-0.00218124
-0.00167523
-1.51088
1.51474
0.00549506
-0.00932005
-1.51191
1.51573
0.0125555
-0.0158558
-1.26452
1.26782
0.0187295
-0.0217779
-1.06041
1.06346
0.024546
-0.0275852
-0.891905
0.894944
0.0303036
-0.0331899
-0.75374
0.756626
0.0356356
-0.0381484
-0.6411
0.643613
0.0403022
-0.0413176
-0.548945
0.549961
0.0401193
-0.0340335
-0.447513
0.441427
0.023368
-0.0101953
-0.263677
0.250504
0.00257689
-0.0454659
0.042889
-0.0412386
0.0394629
0.0017757
-0.0168089
0.0260949
-0.316492
0.307206
-0.0327357
0.0349021
-0.456878
0.454712
-0.0345059
0.0328577
-0.546049
0.547697
-0.0307023
0.0286343
-0.639675
0.641743
-0.0262378
0.0238761
-0.754143
0.756505
-0.0210575
0.0183003
-0.893825
0.896582
-0.0150972
0.012059
-1.06328
1.06632
-0.00860412
0.00531032
-1.26876
1.27205
-0.00150602
-0.00220458
-1.5185
1.52221
0.00586859
-0.00953273
-1.51947
1.52313
0.0126371
-0.0158379
-1.27109
1.2743
0.0186208
-0.0215389
-1.06651
1.06943
0.0240479
-0.0266194
-0.897777
0.900348
0.028779
-0.0309718
-0.759091
0.761284
0.0328629
-0.0348318
-0.645791
0.647759
0.0363005
-0.0364779
-0.550506
0.550683
0.0340585
-0.0270704
-0.434811
0.427823
0.0174386
-0.00735447
-0.239028
0.228944
0.0018654
-0.040726
0.0388605
-0.0379315
0.0365927
0.00133879
-0.0128544
0.0208396
-0.298575
0.290589
-0.0276326
0.0305861
-0.45212
0.449166
-0.0308136
0.0297117
-0.5491
0.550201
-0.0277319
0.0258344
-0.643749
0.645647
-0.0236678
0.0215742
-0.758717
0.760811
-0.0191185
0.0166935
-0.899116
0.901541
-0.0138151
0.0109908
-1.0692
1.07203
-0.00768177
0.00448282
-1.27527
1.27847
-0.000769057
-0.0028379
-1.52585
1.52946
0.00638662
-0.00992255
-1.52675
1.53029
0.0128842
-0.0158778
-1.27743
1.28043
0.018386
-0.0209056
-1.07216
1.07468
0.0230111
-0.0251408
-0.902659
0.904789
0.026967
-0.0288724
-0.763296
0.765201
0.0305528
-0.0323174
-0.649606
0.65137
0.0331641
-0.0326311
-0.550521
0.549987
0.0293186
-0.022053
-0.420645
0.41338
0.0136257
-0.00567491
-0.220031
0.21208
0.00144732
-0.0372321
0.0357848
-0.0354219
0.0343868
0.00103503
-0.0100632
0.0168215
-0.283243
0.276484
-0.0233573
0.0267777
-0.445957
0.442537
-0.027606
0.0269454
-0.551073
0.551733
-0.0252283
0.0234856
-0.64751
0.649252
-0.0214681
0.0195012
-0.762845
0.764812
-0.0171802
0.0148929
-0.90383
0.906117
-0.0121959
0.00955419
-1.07469
1.07733
-0.00645211
0.0034246
-1.28154
1.28457
0.000123189
-0.00358559
-1.53297
1.53643
0.00697591
-0.0103089
-1.53373
1.53707
0.0130488
-0.0157646
-1.28331
1.28603
0.0180175
-0.0202727
-1.07707
1.07932
0.0221655
-0.0240817
-0.906803
0.90872
0.0257131
-0.0274007
-0.766984
0.768672
0.0288663
-0.0302758
-0.652985
0.654395
0.0306135
-0.0293702
-0.549113
0.54787
0.0254626
-0.0183121
-0.40615
0.399
0.011003
-0.0045524
-0.204952
0.198501
0.00116629
-0.0344955
0.0333292
-0.0334777
0.0326688
0.000808849
-0.00799107
0.0136774
-0.270293
0.264607
-0.0197292
0.023347
-0.439008
0.43539
-0.024652
0.0242392
-0.552296
0.552708
-0.02279
0.0211584
-0.650979
0.65261
-0.0192393
0.0173701
-0.766735
0.768604
-0.0151678
0.0130034
-0.908284
0.910448
-0.010454
0.00795724
-1.07982
1.08232
-0.00502439
0.00215188
-1.28747
1.29034
0.00121996
-0.00451052
-1.53979
1.54308
0.00771071
-0.0108119
-1.54029
1.54339
0.0133224
-0.0157769
-1.28864
1.29109
0.0177909
-0.0197872
-1.08148
1.08347
0.0214557
-0.0231504
-0.91053
0.912225
0.0246032
-0.0261157
-0.770249
0.771761
0.0274141
-0.0284863
-0.655611
0.656683
0.0284806
-0.0266014
-0.546312
0.544433
0.0223388
-0.0155047
-0.392004
0.38517
0.00913803
-0.00376555
-0.192641
0.187269
0.000968859
-0.0322758
0.0313069
-0.0319586
0.0313245
0.000634011
-0.00639084
0.0111618
-0.259409
0.254638
-0.0166308
0.0202632
-0.431773
0.42814
-0.0219105
0.0217364
-0.553053
0.553227
-0.0205285
0.0189573
-0.654266
0.655837
-0.0171014
0.0152889
-0.770434
0.772247
-0.0131524
0.0110513
-0.912485
0.914586
-0.00857864
0.0061647
-1.08468
1.0871
-0.0033451
0.000609654
-1.29309
1.29582
0.00256245
-0.00562157
-1.54623
1.54929
0.00857405
-0.0114265
-1.54638
1.54923
0.01373
-0.0159734
-1.29347
1.29571
0.0178084
-0.0196164
-1.08539
1.08719
0.0211096
-0.0226094
-0.913823
0.915323
0.0238926
-0.0252364
-0.773182
0.774526
0.0263991
-0.0270795
-0.657545
0.658225
0.0267186
-0.0243149
-0.54232
0.539916
0.0198485
-0.0133974
-0.378541
0.37209
0.00778932
-0.00320383
-0.182332
0.177746
0.0008286
-0.0304225
0.0295939
-0.0307722
0.0302812
0.000490948
-0.00509388
0.00906879
-0.250296
0.246321
-0.0138976
0.0173831
-0.424597
0.421111
-0.0192315
0.0192803
-0.553336
0.553287
-0.0183103
0.0168165
-0.657431
0.658924
-0.0150128
0.0132283
-0.774031
0.775815
-0.0111147
0.00904186
-0.916585
0.918658
-0.00661898
0.00427451
-1.08939
1.09174
-0.00155527
-0.00106717
-1.29844
1.30106
0.00409386
-0.00698891
-1.55221
1.55511
0.009752
-0.0123825
-1.55196
1.55459
0.0144739
-0.0164844
-1.29789
1.2999
0.0181121
-0.0197099
-1.08895
1.09055
0.0210324
-0.0223628
-0.916769
0.918099
0.0234994
-0.0246756
-0.775761
0.776937
0.0256371
-0.0259509
-0.658687
0.659001
0.0252181
-0.022391
-0.537317
0.534489
0.0178459
-0.0117981
-0.365861
0.359814
0.00679786
-0.00279665
-0.173489
0.169488
0.000727799
-0.0288284
0.0281006
-0.0298594
0.0294894
0.000369995
-0.00400323
0.00727637
-0.242726
0.239453
-0.0114536
0.0146784
-0.417787
0.414562
-0.016578
0.0167699
-0.553234
0.553042
-0.0158613
0.0144294
-0.660456
0.661888
-0.0126295
0.0108625
-0.777561
0.779328
-0.00879453
0.00678326
-0.920583
0.922594
-0.00443601
0.0021614
-1.09394
1.09621
0.000479067
-0.00301497
-1.30357
1.30611
0.00591902
-0.0086643
-1.5579
1.56064
0.0112523
-0.013682
-1.55712
1.55955
0.0155807
-0.0173717
-1.30183
1.30362
0.0187935
-0.0201585
-1.09205
1.09342
0.0212676
-0.0223826
-0.919338
0.920453
0.0233439
-0.0243467
-0.778034
0.779036
0.025084
-0.0251443
-0.659195
0.659255
0.0240393
-0.0208725
-0.531517
0.52835
0.0163087
-0.0106211
-0.353976
0.348288
0.0060895
-0.00251376
-0.165733
0.162158
0.000660503
-0.0274208
0.0267603
-0.0291804
0.0289185
0.000261876
-0.00304115
0.00567553
-0.236526
0.233892
-0.00919656
0.0120845
-0.411537
0.408649
-0.0139565
0.0142731
-0.552867
0.55255
-0.0134605
0.0121121
-0.663365
0.664714
-0.0103137
0.00851318
-0.781071
0.782872
-0.00639402
0.00433933
-0.924497
0.926551
-0.00196371
-0.00031001
-1.09838
1.10065
0.00290983
-0.00536669
-1.30853
1.31098
0.00813257
-0.0107044
-1.56324
1.56581
0.013083
-0.0152685
-1.56185
1.56404
0.0169423
-0.0184943
-1.30534
1.30689
0.0197151
-0.0208844
-1.09472
1.09589
0.0218356
-0.0227948
-0.921512
0.922471
0.0236186
-0.0244388
-0.779965
0.780785
0.0249045
-0.0246942
-0.659147
0.658937
0.0232109
-0.0197213
-0.525055
0.521565
0.0151549
-0.00976875
-0.342792
0.337406
0.00559191
-0.00232171
-0.158771
0.1555
0.000617088
-0.0261376
0.0255205
-0.0287144
0.0285566
0.000157762
-0.00213636
0.0041613
-0.231587
0.229562
-0.0070081
0.00946916
-0.406014
0.403553
-0.0111745
0.0115098
-0.552313
0.551977
-0.0107416
0.00943962
-0.666122
0.667424
-0.00763499
0.00580152
-0.784635
0.786468
-0.00363695
0.00154583
-0.92849
0.930581
0.000852641
-0.00312282
-1.10281
1.10508
0.00569115
-0.00809872
-1.31333
1.31574
0.0107838
-0.0132406
-1.56828
1.57074
0.0154602
-0.0174311
-1.5661
1.56807
0.0188893
-0.0202001
-1.30837
1.30968
0.0212039
-0.0221415
-1.097
1.09794
0.0228832
-0.0236059
-0.923362
0.924084
0.0242147
-0.0248238
-0.781505
0.782114
0.0249785
-0.0244578
-0.6585
0.657979
0.0226019
-0.0188474
-0.517987
0.514233
0.0143007
-0.00916344
-0.332196
0.327059
0.00525232
-0.00219771
-0.152376
0.149321
0.000591723
-0.0249329
0.0243412
-0.0284556
0.0284041
5.14196e-05
-0.00123801
0.00266018
-0.227857
0.226435
-0.00481543
0.00678848
-0.401384
0.399411
-0.00822496
0.00848391
-0.551806
0.551547
-0.00768265
0.00635276
-0.668848
0.670178
-0.00447516
0.00257749
-0.78826
0.790157
-0.00036044
-0.00176258
-0.932524
0.934647
0.00418786
-0.00647808
-1.10722
1.10951
0.00905317
-0.0114334
-1.31804
1.32042
0.0140221
-0.0163173
-1.57305
1.57535
0.0183217
-0.0200487
-1.56991
1.57164
0.0212691
-0.0223033
-1.3109
1.31193
0.0230397
-0.023673
-1.09876
1.0994
0.0241484
-0.024623
-0.924737
0.925212
0.0250669
-0.0255265
-0.782639
0.783099
0.0254096
-0.0245497
-0.657172
0.656312
0.0223392
-0.0183261
-0.510429
0.506416
0.0137682
-0.00879744
-0.322075
0.317105
0.00506198
-0.00213944
-0.146378
0.143456
0.000584613
-0.0237742
0.0231896
-0.0284079
0.0284636
-5.56682e-05
-0.000317073
0.0011214
-0.225329
0.224525
-0.00254622
0.00396352
-0.397765
0.396347
-0.00504775
0.00518589
-0.551506
0.551368
-0.00435502
0.00299904
-0.671661
0.673017
-0.00106329
-0.000920499
-0.792013
0.793997
0.00325491
-0.00549352
-0.936636
0.938874
0.00804415
-0.0104267
-1.11169
1.11407
0.0130582
-0.0154322
-1.32269
1.32506
0.0179503
-0.0201061
-1.5775
1.57965
0.0219213
-0.0233898
-1.57321
1.57468
0.0243619
-0.0251216
-1.31287
1.31363
0.0256109
-0.0259837
-1.09997
1.10034
0.0262085
-0.0264082
-0.925622
0.925822
0.0266078
-0.0267396
-0.78329
0.783422
0.0263492
-0.0250412
-0.655134
0.653826
0.0224123
-0.0181021
-0.502368
0.498057
0.0134985
-0.00862869
-0.312269
0.3074
0.00499591
-0.0021363
-0.140617
0.137758
0.00059309
-0.0226234
0.0220303
-0.0285867
0.0287717
-0.00018505
0.000646475
-0.000512402
-0.224033
0.223899
-0.000119526
0.000891722
-0.395291
0.394519
-0.00149969
0.0014154
-0.551524
0.551609
-0.000493171
-0.000931177
-0.674559
0.675983
0.00295604
-0.00507204
-0.795943
0.798059
0.00757963
-0.00997137
-0.940992
0.943384
0.0126569
-0.0151283
-1.11633
1.1188
0.0178216
-0.0202168
-1.32733
1.32972
0.0227042
-0.0247676
-1.58168
1.58375
0.0263893
-0.0275944
-1.57599
1.57719
0.0282764
-0.0286744
-1.31427
1.31467
0.0288365
-0.0288715
-1.10062
1.10065
0.0288117
-0.0287137
-0.925945
0.925847
0.0286473
-0.0284249
-0.783189
0.782967
0.0277073
-0.0258493
-0.652231
0.650373
0.0228071
-0.0182106
-0.493756
0.48916
0.0135244
-0.00867066
-0.302644
0.29779
0.00505792
-0.00218836
-0.134955
0.132085
0.000616352
-0.0214526
0.0208362
-0.0290276
0.0293554
-0.000327807
0.0017476
-0.00226932
-0.224082
0.224603
0.0025127
-0.00248652
-0.394151
0.394124
0.00251044
-0.00297599
-0.552132
0.552598
0.00412728
-0.00574365
-0.67768
0.679296
0.00797268
-0.0102655
-0.800133
0.802426
0.0129437
-0.0154728
-0.945612
0.948141
0.0183026
-0.0208953
-1.12113
1.12373
0.0236927
-0.0261304
-1.332
1.33443
0.0285663
-0.0304678
-1.58566
1.58756
0.0318423
-0.0327039
-1.57819
1.57905
0.0330598
-0.0330715
-1.31492
1.31493
0.0328716
-0.0325078
-1.10053
1.10017
0.0320942
-0.0316393
-0.925613
0.925158
0.0312855
-0.0306583
-0.782319
0.781691
0.0295346
-0.027135
-0.648331
0.645932
0.0236488
-0.0187025
-0.484598
0.479652
0.0138539
-0.00892086
-0.293026
0.288093
0.00524666
-0.00229616
-0.129248
0.126298
0.000655209
-0.0202317
0.0195765
-0.0297591
0.0302583
-0.000499169
0.00299346
-0.00430078
-0.22553
0.226837
0.00546672
-0.00627651
-0.394511
0.39532
0.007026
-0.00791656
-0.553602
0.554493
0.00934183
-0.0111759
-0.681246
0.68308
0.0136536
-0.0161847
-0.804671
0.807202
0.0191368
-0.0219156
-0.950523
0.953302
0.0250055
-0.0278043
-1.12621
1.12901
0.0307688
-0.0332841
-1.33675
1.33926
0.035702
-0.037456
-1.58927
1.59102
0.0385762
-0.0390743
-1.57968
1.58018
0.0390602
-0.0386571
-1.31476
1.31435
0.0380512
-0.0372485
-1.09959
1.09878
0.0364442
-0.0355686
-0.924487
0.923611
0.0348418
-0.0336963
-0.780561
0.779415
0.0320838
-0.0290554
-0.643412
0.640384
0.0250272
-0.0196349
-0.474742
0.46935
0.0145317
-0.0094056
-0.283221
0.278095
0.00557357
-0.0024621
-0.123354
0.120242
0.000709666
-0.0189296
0.01822
-0.0308462
0.0315718
-0.00072561
0.00453
-0.00673466
-0.228592
0.230796
0.00896083
-0.0106742
-0.396547
0.39826
0.0122691
-0.0137022
-0.556061
0.557494
0.0154944
-0.0175988
-0.685279
0.687383
0.020399
-0.0232647
-0.809694
0.81256
0.0266136
-0.0297472
-0.955967
0.9591
0.0331864
-0.0362453
-1.1317
1.13476
0.0394143
-0.042027
-1.34165
1.34426
0.0444357
-0.0460492
-1.5926
1.59421
0.0468748
-0.0469463
-1.5804
1.58047
0.046471
-0.0455734
-1.31368
1.31278
0.0445125
-0.0432259
-1.09769
1.09641
0.0419955
-0.0406526
-0.922431
0.921088
0.0394295
-0.0376894
-0.777737
0.775997
0.0354217
-0.031653
-0.637246
0.633477
0.0270152
-0.021087
-0.464018
0.45809
0.0156104
-0.0101482
-0.272997
0.267535
0.00604456
-0.00268276
-0.117109
0.113748
0.000775888
-0.0175176
0.0167418
-0.0323847
0.0334019
-0.00101724
0.00642781
-0.00970233
-0.233473
0.236748
0.0131731
-0.0159452
-0.400563
0.403335
0.0185136
-0.0206477
-0.559803
0.561937
0.0230181
-0.0255773
-0.689974
0.692534
0.0288744
-0.0321839
-0.815393
0.818703
0.0360005
-0.0395313
-0.962108
0.965639
0.0433612
-0.0467163
-1.13771
1.14107
0.0501144
-0.0528132
-1.34672
1.34942
0.0551429
-0.0564992
-1.59556
1.59691
0.0569181
-0.056467
-1.5802
1.57975
0.0554815
-0.0539965
-1.31152
1.31004
0.0524113
-0.0505542
-1.09474
1.09288
0.0488289
-0.0469543
-0.91934
0.917465
0.0451996
-0.0428161
-0.773716
0.771333
0.0398355
-0.0352462
-0.629638
0.625049
0.0298818
-0.023245
-0.452216
0.445579
0.0172182
-0.0112277
-0.262049
0.256059
0.00670094
-0.00297154
-0.110326
0.106596
0.000855865
-0.0159717
0.0151158
-0.0344966
0.0359045
-0.00140787
0.00885165
-0.0134164
-0.240474
0.245039
0.0183162
-0.0222678
-0.406867
0.410819
0.0259276
-0.0289031
-0.565208
0.568184
0.0320509
-0.0352606
-0.695712
0.698922
0.0392503
-0.0431484
-0.821977
0.825875
0.0475581
-0.0515821
-0.969044
0.973068
0.0558869
-0.0595897
-1.14431
1.14801
0.0632385
-0.066012
-1.35194
1.35472
0.0682091
-0.0692266
-1.59796
1.59897
0.0691454
-0.0680613
-1.57889
1.5778
0.0664527
-0.0642558
-1.30808
1.30588
0.0620463
-0.0595617
-1.09054
1.08806
0.057288
-0.054857
-0.915097
0.912667
0.0525055
-0.0494576
-0.768408
0.76536
0.0456868
-0.0401211
-0.620404
0.614838
0.0338559
-0.0262937
-0.438983
0.431421
0.0194913
-0.0127196
-0.249978
0.243206
0.00757778
-0.00334014
-0.102759
0.0985217
0.000952247
-0.0142641
0.0133118
-0.037362
0.039326
-0.00196401
0.0121371
-0.0183194
-0.250004
0.256186
0.0249048
-0.0302091
-0.415846
0.421151
0.0351234
-0.0390959
-0.572608
0.576581
0.0431923
-0.0472364
-0.702862
0.706906
0.0521342
-0.0567975
-0.829746
0.834409
0.0619726
-0.0666114
-0.977006
0.981645
0.0714753
-0.0755433
-1.15159
1.15566
0.0793991
-0.08216
-1.35725
1.36001
0.0841052
-0.0846464
-1.59959
1.60013
0.0839174
-0.0820316
-1.57622
1.57434
0.0796661
-0.0766702
-1.30314
1.30015
0.0737738
-0.0705663
-1.08491
1.08171
0.0676909
-0.0646554
-0.909613
0.906578
0.061647
-0.0578227
-0.761737
0.757912
0.0531195
-0.0464039
-0.609227
0.602512
0.0390474
-0.0302988
-0.423891
0.415142
0.0224397
-0.0145957
-0.236273
0.228429
0.00864359
-0.00377143
-0.0941369
0.0892648
0.0010602
-0.0123634
0.0113032
-0.0412833
0.0441077
-0.0028244
0.0169237
-0.0252317
-0.262723
0.271031
0.0338835
-0.0408129
-0.428102
0.435031
0.0472292
-0.0524358
-0.582404
0.58761
0.0577746
-0.0629297
-0.711795
0.71695
0.06893
-0.0744885
-0.839024
0.844583
0.0805165
-0.0857835
-0.986198
0.991465
0.0911361
-0.0954455
-1.15953
1.16384
0.0993234
-0.10187
-1.36242
1.36497
0.10332
-0.103168
-1.60016
1.60001
0.101567
-0.0986683
-1.57185
1.56895
0.0953921
-0.0914314
-1.29654
1.29257
0.0877172
-0.0837248
-1.07775
1.07375
0.0802183
-0.0765106
-0.902634
0.898927
0.0728038
-0.0680287
-0.753363
0.748588
0.0622725
-0.054213
-0.595741
0.587681
0.0455072
-0.0352123
-0.406403
0.396109
0.0259561
-0.0167426
-0.220382
0.211169
0.00981418
-0.00422472
-0.0842382
0.0786488
0.00116797
-0.0102529
0.00908498
-0.0468111
0.0510921
-0.00428099
0.0244138
-0.0356343
-0.279724
0.290945
0.0469818
-0.0561113
-0.444677
0.453807
0.0644208
-0.0711403
-0.595206
0.601926
0.0780966
-0.0847043
-0.722982
0.72959
0.0919542
-0.0984033
-0.850062
0.856511
0.105145
-0.110814
-0.996542
1.00221
0.116328
-0.120525
-1.16778
1.17197
0.12398
-0.125883
-1.36694
1.36884
0.126335
-0.125025
-1.5991
1.59779
0.122171
-0.11798
-1.56532
1.56113
0.113601
-0.108539
-1.28794
1.28288
0.103917
-0.0990431
-1.0689
1.06402
0.0948681
-0.0904523
-0.894019
0.889603
0.0860266
-0.0801601
-0.742915
0.737049
0.0731471
-0.0634366
-0.579456
0.569746
0.0530185
-0.0407602
-0.385779
0.373521
0.0297755
-0.0189519
-0.201801
0.190978
0.0109466
-0.00462934
-0.0729641
0.0666468
0.00125252
-0.00794325
0.00669073
-0.0550065
0.0623266
-0.00732006
0.0377177
-0.0533116
-0.303131
0.318724
0.0684924
-0.0805498
-0.467125
0.479182
0.0908617
-0.0990585
-0.611582
0.619779
0.107698
-0.115675
-0.736812
0.744789
0.123917
-0.130798
-0.862663
0.869544
0.137637
-0.143099
-1.00741
1.01287
0.148107
-0.151565
-1.17547
1.17893
0.153959
-0.154629
-1.36983
1.3705
0.153518
-0.150561
-1.5954
1.59245
0.146063
-0.140254
-1.55597
1.55016
0.134545
-0.128204
-1.27704
1.2707
0.122566
-0.116741
-1.05823
1.05241
0.111786
-0.106526
-0.883789
0.878529
0.10131
-0.0941631
-0.730067
0.722919
0.0855213
-0.0736249
-0.559548
0.547652
0.0610431
-0.0464854
-0.361138
0.346581
0.0335796
-0.0210472
-0.180211
0.167678
0.0119377
-0.00493431
-0.0604217
0.0534183
0.00128909
-0.00549166
0.00420257
-0.0691779
0.0732036
-0.00402568
0.0284899
-0.0420528
-0.336909
0.350472
0.0556005
-0.0665905
-0.49667
0.50766
0.0764714
-0.0857686
-0.631366
0.640663
0.0962986
-0.105783
-0.752217
0.761701
0.116229
-0.125405
-0.875471
0.884648
0.135031
-0.143421
-1.01739
1.02578
0.151969
-0.159023
-1.18127
1.18832
0.16563
-0.170364
-1.36994
1.37467
0.173707
-0.174632
-1.58819
1.58912
0.173056
-0.169449
-1.54317
1.53956
0.164824
-0.158835
-1.26339
1.2574
0.153136
-0.146413
-1.04553
1.0388
0.140574
-0.13404
-0.871613
0.865079
0.127196
-0.117159
-0.714022
0.703986
0.104611
-0.0879771
-0.534955
0.518321
0.0710104
-0.051847
-0.331707
0.312544
0.0357947
-0.0212414
-0.155544
0.14099
0.0113527
-0.00437413
-0.0470203
0.0400417
0.0010069
-0.00299868
0.00199178
-0.0805203
0.0784792
0.00204107
0.00705295
-0.0156395
-0.366779
0.375365
0.0258305
-0.0337533
-0.523194
0.531117
0.0416897
-0.0495032
-0.652487
0.660301
0.0590573
-0.0678854
-0.770733
0.779561
0.077244
-0.0856991
-0.893263
0.901718
0.0945639
-0.101979
-1.03389
1.04131
0.109735
-0.115785
-1.19518
1.20123
0.121406
-0.125127
-1.37909
1.38281
0.127141
-0.126871
-1.58919
1.58892
0.124076
-0.119202
-1.53512
1.53024
0.113235
-0.105831
-1.2508
1.2434
0.0987252
-0.090608
-1.03098
1.02287
0.0829849
-0.0744865
-0.855052
0.846554
0.0667363
-0.0580323
-0.689891
0.681187
0.0485169
-0.0370202
-0.499684
0.488187
0.026457
-0.0165667
-0.29304
0.283149
0.00979249
-0.00488349
-0.127007
0.122098
0.00210996
-0.000581411
-0.0333914
0.0318629
1.87403e-05
-0.000709884
0.000691144
-0.0817333
0.0788583
0.00287494
-0.00159335
-0.00319795
-0.386872
0.391664
0.00982444
-0.0156675
-0.542799
0.548642
0.0216522
-0.0283281
-0.670365
0.677041
0.0365757
-0.0442011
-0.787433
0.795058
0.052512
-0.0598976
-0.909412
0.916797
0.0674458
-0.0741591
-1.04858
1.0553
0.080995
-0.0864206
-1.20689
1.21231
0.0910036
-0.0937544
-1.38586
1.38861
0.0949605
-0.09369
-1.58779
1.58652
0.0898643
-0.0839419
-1.52443
1.5185
0.0771594
-0.069149
-1.23546
1.22745
0.0612775
-0.0528627
-1.01393
1.00552
0.0452555
-0.0370535
-0.836942
0.828739
0.0298475
-0.0220076
-0.668507
0.660667
0.0143933
-0.00627109
-0.474655
0.466533
0.000767268
0.0024995
-0.272251
0.268984
-0.00355841
0.00330672
-0.116118
0.116369
-0.00244178
0.00128643
-0.0297491
0.0309045
-0.000467111
-0.000188165
0.000655275
-0.0804696
0.0777134
0.00275619
-0.00511825
0.00277337
-0.400121
0.402465
0.00145625
-0.00587467
-0.557531
0.561949
0.0110183
-0.0166422
-0.685008
0.690632
0.0237283
-0.0303099
-0.802052
0.808634
0.037476
-0.0438976
-0.923692
0.930114
0.050871
-0.0566798
-1.06163
1.06744
0.062772
-0.0671625
-1.21737
1.22176
0.0711171
-0.0733556
-1.39112
1.39336
0.0739207
-0.072045
-1.58477
1.58289
0.0682256
-0.0625641
-1.51204
1.50638
0.0561723
-0.0483564
-1.21932
1.2115
0.0410123
-0.0330218
-0.996771
0.98878
0.0253751
-0.0170524
-0.819374
0.811051
0.0091362
-0.00126704
-0.648877
0.641008
-0.00508427
0.0101509
-0.456516
0.45145
-0.0120894
0.0115351
-0.263024
0.263578
-0.00985652
0.00713457
-0.115428
0.11815
-0.0046956
0.00223558
-0.0312963
0.0337563
-0.000711867
-0.00061158
0.00132345
-0.0790108
0.0766161
0.0023948
-0.00615285
0.00528731
-0.409047
0.409912
-0.00208428
-0.00127362
-0.569433
0.572791
0.00550219
-0.0106698
-0.697376
0.702544
0.0166959
-0.0225671
-0.814559
0.82043
0.0288924
-0.0346001
-0.93616
0.941867
0.0407247
-0.0460128
-1.07316
1.07845
0.0512889
-0.0554155
-1.22605
1.23017
0.0588818
-0.0608249
-1.39528
1.39722
0.061292
-0.0596497
-1.58103
1.57939
0.0563998
-0.0514112
-1.50045
1.49546
0.0459117
-0.0391622
-1.20405
1.1973
0.0324574
-0.0245711
-0.980426
0.97254
0.0168258
-0.00792646
-0.801231
0.792331
-0.000203856
0.00806948
-0.630029
0.622163
-0.0134072
0.0166466
-0.443651
0.440412
-0.0171007
0.0149559
-0.260518
0.262662
-0.0120693
0.00858932
-0.119419
0.122899
-0.00551364
0.00256061
-0.0354397
0.0383927
-0.000792922
-0.0016693
0.00246222
-0.0777228
0.0756976
0.00202526
-0.00599766
0.00556325
-0.415266
0.415701
-0.00361673
0.000792625
-0.578789
0.581613
0.00342693
-0.00795681
-0.708035
0.712565
0.0132565
-0.0184642
-0.825571
0.830778
0.0242096
-0.0294225
-0.947291
0.952503
0.0351329
-0.0398614
-1.0835
1.08823
0.0447027
-0.0485145
-1.23405
1.23786
0.0517208
-0.0535922
-1.399
1.40087
0.054191
-0.0533141
-1.57791
1.57703
0.0506479
-0.0465573
-1.49043
1.48634
0.0416935
-0.0355017
-1.19063
1.18444
0.0293504
-0.0215017
-0.964377
0.956528
0.013763
-0.00510231
-0.782534
0.773874
-0.00259456
0.00969602
-0.612399
0.605297
-0.0142357
0.016881
-0.434291
0.431645
-0.0168297
0.014629
-0.26099
0.263191
-0.0118159
0.00835164
-0.124848
0.128312
-0.00528115
0.0024622
-0.0403482
0.0431671
-0.000759741
-0.00289508
0.00365482
-0.0767997
0.075235
0.00156477
-0.00511708
0.00498415
-0.419973
0.420106
-0.00331512
0.00111159
-0.587135
0.589339
0.00290399
-0.00711217
-0.717491
0.721699
0.0122458
-0.0168402
-0.835656
0.84025
0.0219942
-0.0266961
-0.957727
0.962429
0.0321716
-0.0365238
-1.093
1.09735
0.0409111
-0.0446198
-1.24153
1.24524
0.048137
-0.0500815
-1.40286
1.4048
0.0510762
-0.0504943
-1.57597
1.57539
0.0485347
-0.0446095
-1.4822
1.47828
0.0402076
-0.0344197
-1.1781
1.17231
0.0283297
-0.0209123
-0.94854
0.941123
0.0134976
-0.00528704
-0.764537
0.756327
-0.00140095
0.00769074
-0.596767
0.590477
-0.0116007
0.0135481
-0.42654
0.424593
-0.013712
0.012199
-0.262059
0.263572
-0.00987406
0.00695611
-0.130012
0.13293
-0.00438943
0.00205716
-0.0447951
0.0471273
-0.000643648
-0.00399613
0.00463978
-0.0763823
0.0751664
0.0012159
-0.00405819
0.00405027
-0.423761
0.423769
-0.00246516
0.000357377
-0.594515
0.596623
0.00346943
-0.00733087
-0.726164
0.730025
0.0118286
-0.0163167
-0.844849
0.849337
0.0211409
-0.0260027
-0.966959
0.971821
0.0307651
-0.0349513
-1.10181
1.106
0.0395113
-0.0430708
-1.24886
1.25242
0.0462542
-0.0487574
-1.40674
1.40924
0.0501072
-0.049934
-1.57495
1.57478
0.0481523
-0.0446857
-1.47451
1.47105
0.0404542
-0.0348373
-1.16612
1.1605
0.0290755
-0.0221137
-0.933487
0.926525
0.0153859
-0.00826532
-0.748007
0.740886
0.00217506
0.00322902
-0.583118
0.577714
-0.00664367
0.00864221
-0.420158
0.41816
-0.00910946
0.00814483
-0.262372
0.263336
-0.00665038
0.00468137
-0.133785
0.135754
-0.00298902
0.00142892
-0.0481721
0.0497322
-0.000472599
-0.00485573
0.00532832
-0.0764932
0.0754755
0.0010177
-0.00280242
0.0025632
-0.42716
0.427399
-0.00115518
-0.000981345
-0.601341
0.603478
0.00448983
-0.00824042
-0.734357
0.738108
0.0125887
-0.0167
-0.853664
0.857776
0.0216504
-0.0257231
-0.976114
0.980187
0.0304575
-0.0344944
-1.11035
1.11439
0.0389898
-0.0428066
-1.256
1.25981
0.0463763
-0.0487583
-1.41157
1.41395
0.0504967
-0.0506724
-1.57454
1.57471
0.0493866
-0.046025
-1.46737
1.46401
0.0420411
-0.0367107
-1.15488
1.14955
0.0313845
-0.0249945
-0.919375
0.912985
0.0191256
-0.0128298
-0.733561
0.727265
0.00757692
-0.00277557
-0.571492
0.56669
-0.000517666
0.00251463
-0.41379
0.411793
-0.00341845
0.00332027
-0.261552
0.26165
-0.00286877
0.00200789
-0.135684
0.136545
-0.00127402
0.00064589
-0.0499664
0.0505945
-0.00022964
-0.00537766
0.0056073
-0.0768817
0.0761713
0.000710449
-0.00167827
0.000987765
-0.430621
0.431312
0.000202031
-0.00244009
-0.607404
0.609642
0.00562317
-0.00924733
-0.742041
0.745666
0.0134186
-0.0176492
-0.861777
0.866008
0.0219751
-0.0262029
-0.984471
0.988698
0.0309085
-0.0347649
-1.11886
1.12272
0.0394079
-0.0432468
-1.26347
1.26731
0.0469377
-0.0498809
-1.41677
1.41972
0.0520808
-0.0524438
-1.57489
1.57526
0.0512357
-0.0484015
-1.46072
1.45788
0.0448404
-0.0398409
-1.14404
1.13904
0.0348556
-0.0292636
-0.906572
0.90098
0.023698
-0.0182538
-0.720757
0.715313
0.0135502
-0.00900654
-0.561347
0.556803
0.00582021
-0.00331603
-0.407391
0.404887
0.0018847
-0.00100322
-0.259315
0.258434
0.00053725
-0.000236944
-0.135424
0.135124
-1.54878e-05
0.000146336
-0.050112
0.0499811
-0.000117236
-0.00545332
0.00557055
-0.0776705
0.0771185
0.000552044
-0.000717479
9.55486e-05
-0.434289
0.434911
0.00162307
-0.00368016
-0.613497
0.615554
0.00701564
-0.0104891
-0.749201
0.752674
0.0144784
-0.0182897
-0.869927
0.873738
0.0227239
-0.0266396
-0.99293
0.996845
0.0313112
-0.0356366
-1.12704
1.13137
0.0399773
-0.0441908
-1.27123
1.27544
0.0483427
-0.0513832
-1.42257
1.42561
0.0539054
-0.054933
-1.57579
1.57682
0.0540476
-0.0517114
-1.45485
1.45251
0.0483062
-0.0437819
-1.13405
1.12952
0.039316
-0.0341088
-0.895035
0.889828
0.0291736
-0.0241293
-0.709377
0.704332
0.0197457
-0.0152812
-0.551627
0.547162
0.0118649
-0.00897547
-0.400574
0.397685
0.00678926
-0.00502
-0.255389
0.253619
0.0035632
-0.00215903
-0.133118
0.131714
0.00108888
-0.000297869
-0.0487652
0.0479742
-1.4842e-05
-0.00518626
0.00520111
-0.0787338
0.0783576
0.000376157
0.000349303
-0.00115706
-0.43808
0.438888
0.00272505
-0.0050468
-0.619135
0.621457
0.00828415
-0.011568
-0.756055
0.759339
0.0155999
-0.019237
-0.877533
0.88117
0.0234997
-0.0275383
-1.00124
1.00528
0.0321433
-0.0364697
-1.13557
1.13989
0.0410748
-0.0453538
-1.2796
1.28388
0.0497079
-0.0534752
-1.42894
1.43271
0.0563814
-0.0576232
-1.57774
1.57899
0.0573289
-0.0552478
-1.45001
1.44793
0.0523758
-0.0484179
-1.12493
1.12097
0.0441133
-0.0392909
-0.884375
0.879552
0.0347181
-0.0298485
-0.698908
0.694038
0.0257245
-0.021245
-0.542376
0.537896
0.0176776
-0.0141608
-0.393147
0.38963
0.0113691
-0.00866772
-0.249755
0.247053
0.00621065
-0.00386482
-0.128782
0.126436
0.00209282
-0.000750025
-0.0461783
0.0448355
0.00011612
-0.00471374
0.00459762