0.490941 	0.00437177 	3.00032 	-3.04582e-20
0.561075 	0.00437177 	3.00032 	-3.04582e-20
0.63121 	0.00437177 	3.00032 	-3.04582e-20
0.701344 	0.00437177 	3.00032 	-3.04582e-20
0.771478 	0.00437177 	3.00032 	-3.04582e-20
0.841613 	0.00437177 	3.00032 	-3.04582e-20
0.911747 	0.014462 	3.00802 	-7.02169e-20
0.981881 	0.014462 	3.00802 	-7.02169e-20
1.05202 	0.014462 	3.00802 	-7.02169e-20
1.12215 	0.014462 	3.00802 	-7.02169e-20
1.19228 	0.014462 	3.00802 	-7.02169e-20
1.26242 	0.014462 	3.00802 	-7.02169e-20
1.33255 	0.0193293 	3.02329 	7.01687e-20
1.40269 	0.0193293 	3.02329 	7.01687e-20
1.47282 	0.0193293 	3.02329 	7.01687e-20
1.54296 	0.0193293 	3.02329 	7.01687e-20
1.61309 	0.0193293 	3.02329 	7.01687e-20
1.68323 	0.0193293 	3.02329 	7.01687e-20
1.75336 	0.0246852 	3.04252 	3.36345e-20
1.82349 	0.0246852 	3.04252 	3.36345e-20
1.89363 	0.0246852 	3.04252 	3.36345e-20
1.96376 	0.0246852 	3.04252 	3.36345e-20
2.0339 	0.0246852 	3.04252 	3.36345e-20
2.10403 	0.0246852 	3.04252 	3.36345e-20
2.17417 	0.0242392 	3.06666 	0
2.2443 	0.0242392 	3.06666 	0
2.31443 	0.0242392 	3.06666 	0
2.38457 	0.0242392 	3.06666 	0
2.4547 	0.0242392 	3.06666 	0
2.52484 	0.0242392 	3.06666 	0
2.59497 	0.0255875 	3.09075 	-1.53385e-19
2.66511 	0.0255875 	3.09075 	-1.53385e-19
2.73524 	0.0255875 	3.09075 	-1.53385e-19
2.80538 	0.0255875 	3.09075 	-1.53385e-19
2.87551 	0.0255875 	3.09075 	-1.53385e-19
2.94564 	0.0255875 	3.09075 	-1.53385e-19
3.01578 	0.023323 	3.11624 	1.22106e-19
3.08591 	0.023323 	3.11624 	1.22106e-19
3.15605 	0.023323 	3.11624 	1.22106e-19
3.22618 	0.023323 	3.11624 	1.22106e-19
3.29632 	0.023323 	3.11624 	1.22106e-19
3.36645 	0.023323 	3.11624 	1.22106e-19
3.43659 	0.0248861 	3.13928 	-2.24196e-19
3.50672 	0.0248861 	3.13928 	-2.24196e-19
3.57685 	0.0248861 	3.13928 	-2.24196e-19
3.64699 	0.0248861 	3.13928 	-2.24196e-19
3.71712 	0.0248861 	3.13928 	-2.24196e-19
3.78726 	0.0140598 	3.13811 	-2.48945e-19
3.85739 	0.0119206 	3.16277 	4.58805e-19
3.92753 	0.0119206 	3.16277 	4.58805e-19
3.99766 	0.0119206 	3.16277 	4.58805e-19
4.06779 	0.0119206 	3.16277 	4.58805e-19
4.13793 	0.0119206 	3.16277 	4.58805e-19
4.20806 	0.0119206 	3.16277 	4.58805e-19
4.2782 	0.0142244 	3.18385 	-2.62793e-19
4.34833 	0.0142244 	3.18385 	-2.62793e-19
4.41847 	0.0142244 	3.18385 	-2.62793e-19
4.4886 	0.0142244 	3.18385 	-2.62793e-19
4.55874 	0.0142244 	3.18385 	-2.62793e-19
4.62887 	0.0142244 	3.18385 	-2.62793e-19
4.699 	0.0142244 	3.18385 	-2.62793e-19
4.76914 	0.0118489 	3.20711 	-1.92874e-19
4.83927 	0.0118489 	3.20711 	-1.92874e-19
4.90941 	0.0118489 	3.20711 	-1.92874e-19
4.97954 	0.0118489 	3.20711 	-1.92874e-19
5.04968 	0.0118489 	3.20711 	-1.92874e-19
5.11981 	0.0118489 	3.20711 	-1.92874e-19
5.18994 	0.0139058 	3.22668 	1.69343e-19
5.26008 	0.0139058 	3.22668 	1.69343e-19
5.33021 	0.0139058 	3.22668 	1.69343e-19
5.40035 	0.0139058 	3.22668 	1.69343e-19
5.47048 	0.0139058 	3.22668 	1.69343e-19
5.54062 	0.0139058 	3.22668 	1.69343e-19
5.61075 	0.0112177 	3.24846 	-3.28874e-19
5.68089 	0.0112177 	3.24846 	-3.28874e-19
5.75102 	0.0112177 	3.24846 	-3.28874e-19
5.82115 	0.0112177 	3.24846 	-3.28874e-19
5.89129 	0.0112177 	3.24846 	-3.28874e-19
5.96142 	0.0112177 	3.24846 	-3.28874e-19
6.03156 	0.0134454 	3.26586 	3.51032e-19
6.10169 	0.0134454 	3.26586 	3.51032e-19
6.17183 	0.0134454 	3.26586 	3.51032e-19
6.24196 	0.0134454 	3.26586 	3.51032e-19
6.3121 	0.0134454 	3.26586 	3.51032e-19
6.38223 	0.0134454 	3.26586 	3.51032e-19
6.45236 	0.0109423 	3.28535 	2.03879e-20
6.5225 	0.0109423 	3.28535 	2.03879e-20
6.59263 	0.0109423 	3.28535 	2.03879e-20
6.66277 	0.0109423 	3.28535 	2.03879e-20
6.7329 	0.0109423 	3.28535 	2.03879e-20
6.80304 	0.0109423 	3.28535 	2.03879e-20
6.87317 	0.013735 	3.29994 	-1.94944e-20
6.9433 	0.013735 	3.29994 	-1.94944e-20
7.01344 	0.013735 	3.29994 	-1.94944e-20
7.08357 	0.013735 	3.29994 	-1.94944e-20
7.15371 	0.013735 	3.29994 	-1.94944e-20
7.22384 	0.013735 	3.29994 	-1.94944e-20
7.29398 	0.0115744 	3.31689 	0
7.36411 	0.0115744 	3.31689 	0
7.43425 	0.0115744 	3.31689 	0
7.50438 	0.0115744 	3.31689 	0
7.57451 	0.0115744 	3.31689 	0
7.64465 	0.0115744 	3.31689 	0
7.71478 	0.0115744 	3.31689 	0
7.78492 	0.0149754 	3.32875 	0
7.85505 	0.0149754 	3.32875 	0
7.92519 	0.0149754 	3.32875 	0
7.99532 	0.0149754 	3.32875 	0
8.06545 	0.0149754 	3.32875 	0
8.13559 	0.0149754 	3.32875 	0
8.20572 	0.0131433 	3.34357 	0
8.27586 	0.0131433 	3.34357 	0
8.34599 	0.0131433 	3.34357 	0
8.41613 	0.0131433 	3.34357 	0
8.48626 	0.0131433 	3.34357 	0
8.5564 	0.0131433 	3.34357 	0
8.62653 	0.0172833 	3.3532 	2.14374e-22
8.69666 	0.0172833 	3.3532 	2.14374e-22
8.7668 	0.0172833 	3.3532 	2.14374e-22
8.83693 	0.0172833 	3.3532 	2.14374e-22
8.90707 	0.0172833 	3.3532 	2.14374e-22
8.9772 	0.0172833 	3.3532 	2.14374e-22
9.04734 	0.0159485 	3.36649 	-2.36491e-19
9.11747 	0.0159485 	3.36649 	-2.36491e-19
9.18761 	0.0159485 	3.36649 	-2.36491e-19
9.25774 	0.0119036 	3.36906 	-2.51326e-20
9.32787 	0.0119036 	3.36906 	-2.51326e-20
9.39801 	0.0119036 	3.36906 	-2.51326e-20
9.46814 	0.0119036 	3.36906 	-2.51326e-20
9.53828 	0.0181025 	3.37779 	-2.44944e-19
9.60841 	0.0181025 	3.37779 	-2.44944e-19
9.67855 	0.0181025 	3.37779 	-2.44944e-19
9.74868 	0.0181025 	3.37779 	-2.44944e-19
9.81881 	0.0181025 	3.37779 	-2.44944e-19
9.88895 	0.0181025 	3.37779 	-2.44944e-19
9.95908 	0.0177401 	3.38981 	-1.46014e-20
10.0292 	0.0177401 	3.38981 	-1.46014e-20
10.0994 	0.0177401 	3.38981 	-1.46014e-20
10.1695 	0.0177401 	3.38981 	-1.46014e-20
10.2396 	0.0177401 	3.38981 	-1.46014e-20
10.3098 	0.0177401 	3.38981 	-1.46014e-20
10.3799 	0.0257748 	3.39744 	2.18856e-19
10.45 	0.0257748 	3.39744 	2.18856e-19
10.5202 	0.0257748 	3.39744 	2.18856e-19
10.5903 	0.0257748 	3.39744 	2.18856e-19
10.6604 	0.0257748 	3.39744 	2.18856e-19
10.7306 	0.0257748 	3.39744 	2.18856e-19
10.8007 	0.0271016 	3.40904 	-2.32389e-19
10.8708 	0.0271016 	3.40904 	-2.32389e-19
10.941 	0.0271016 	3.40904 	-2.32389e-19
11.0111 	0.0271016 	3.40904 	-2.32389e-19
11.0812 	0.0271016 	3.40904 	-2.32389e-19
11.1514 	0.0271016 	3.40904 	-2.32389e-19
11.2215 	0.0271016 	3.40904 	-2.32389e-19
11.2916 	0.0381207 	3.41591 	-4.04704e-19
11.3618 	0.0381207 	3.41591 	-4.04704e-19
11.4319 	0.0381207 	3.41591 	-4.04704e-19
11.502 	0.0381207 	3.41591 	-4.04704e-19
11.5722 	0.0381207 	3.41591 	-4.04704e-19
11.6423 	0.0381207 	3.41591 	-4.04704e-19
11.7124 	0.0423708 	3.42759 	3.91702e-19
11.7826 	0.0423708 	3.42759 	3.91702e-19
11.8527 	0.0423708 	3.42759 	3.91702e-19
11.9228 	0.0423708 	3.42759 	3.91702e-19
11.993 	0.0423708 	3.42759 	3.91702e-19
12.0631 	0.0423708 	3.42759 	3.91702e-19
12.1332 	0.0581672 	3.43433 	0
12.2034 	0.0581672 	3.43433 	0
12.2735 	0.0581672 	3.43433 	0
12.3437 	0.0581672 	3.43433 	0
12.4138 	0.0581672 	3.43433 	0
12.4839 	0.0581672 	3.43433 	0
12.5541 	0.0581672 	3.43433 	0
12.6242 	0.0664858 	3.44668 	-1.09576e-20
12.6943 	0.0664858 	3.44668 	-1.09576e-20
12.7645 	0.0664858 	3.44668 	-1.09576e-20
12.8346 	0.0664858 	3.44668 	-1.09576e-20
12.9047 	0.0664858 	3.44668 	-1.09576e-20
12.9749 	0.0664858 	3.44668 	-1.09576e-20
13.045 	0.0891713 	3.45411 	1.1038e-20
13.1151 	0.0891713 	3.45411 	1.1038e-20
13.1853 	0.0891713 	3.45411 	1.1038e-20
13.2554 	0.0891713 	3.45411 	1.1038e-20
13.3255 	0.0891713 	3.45411 	1.1038e-20
13.3957 	0.0891713 	3.45411 	1.1038e-20
13.4658 	0.0891713 	3.45411 	1.1038e-20
13.5359 	0.102433 	3.46758 	0
13.6061 	0.102433 	3.46758 	0
13.6762 	0.102433 	3.46758 	0
13.7463 	0.102433 	3.46758 	0
13.8165 	0.102433 	3.46758 	0
13.8866 	0.102433 	3.46758 	0
13.9567 	0.146725 	3.47899 	7.90442e-22
14.0269 	0.146725 	3.47899 	7.90442e-22
14.097 	0.146725 	3.47899 	7.90442e-22
14.1671 	0.146725 	3.47899 	7.90442e-22
14.2373 	0.146725 	3.47899 	7.90442e-22
14.3074 	0.146725 	3.47899 	7.90442e-22
14.3776 	0.145088 	3.48267 	1.15267e-19
14.4477 	0.148049 	3.5091 	-1.64441e-20
14.5178 	0.148049 	3.5091 	-1.64441e-20
14.588 	0.148049 	3.5091 	-1.64441e-20
14.6581 	0.161077 	3.50201 	0
14.7282 	0.161077 	3.50201 	0
14.7984 	0.175834 	3.52523 	-1.68329e-19
14.8685 	0.198646 	3.51508 	-1.70722e-19
14.9386 	0.198646 	3.51508 	-1.70722e-19
15.0088 	0.198646 	3.51508 	-1.70722e-19
15.0789 	0.198646 	3.51508 	-1.70722e-19
15.149 	0.215303 	3.50423 	1.67772e-19
15.2192 	0.232722 	3.53809 	1.42606e-19
15.2893 	0.232722 	3.53809 	1.42606e-19
15.3594 	0.232722 	3.53809 	1.42606e-19
15.4296 	0.253181 	3.51729 	-4.8895e-19
15.4997 	0.253181 	3.51729 	-4.8895e-19
15.5698 	0.26888 	3.54559 	2.54463e-19
15.64 	0.26888 	3.54559 	2.54463e-19
15.7101 	0.26888 	3.54559 	2.54463e-19
15.7802 	0.28652 	3.53729 	-4.26538e-19
15.8504 	0.28652 	3.53729 	-4.26538e-19
15.9205 	0.306218 	3.55307 	-1.19332e-19
15.9906 	0.306218 	3.55307 	-1.19332e-19
16.0608 	0.306218 	3.55307 	-1.19332e-19
16.1309 	0.331099 	3.53283 	0
16.201 	0.331099 	3.53283 	0
16.2712 	0.344601 	3.56516 	0
16.3413 	0.344601 	3.56516 	0
16.4114 	0.344601 	3.56516 	0
16.4816 	0.344601 	3.56516 	0
16.5517 	0.360835 	3.54196 	-1.67659e-19
16.6219 	0.395902 	3.56136 	5.48129e-20
16.692 	0.395902 	3.56136 	5.48129e-20
16.7621 	0.395902 	3.56136 	5.48129e-20
16.8323 	0.395902 	3.56136 	5.48129e-20
16.9024 	0.395902 	3.56136 	5.48129e-20
16.9725 	0.436097 	3.5537 	0
17.0427 	0.436097 	3.5537 	0
17.1128 	0.436097 	3.5537 	0
17.1829 	0.436097 	3.5537 	0
17.2531 	0.464172 	3.57298 	0
17.3232 	0.464172 	3.57298 	0
17.3933 	0.464172 	3.57298 	0
17.4635 	0.488505 	3.55418 	1.56872e-19
17.5336 	0.488505 	3.55418 	1.56872e-19
17.6037 	0.508681 	3.5623 	0
17.6739 	0.508681 	3.5623 	0
17.744 	0.508681 	3.5623 	0
17.8141 	0.508681 	3.5623 	0
17.8843 	0.508681 	3.5623 	0
17.9544 	0.566008 	3.55159 	1.28025e-19
18.0245 	0.566008 	3.55159 	1.28025e-19
18.0947 	0.566008 	3.55159 	1.28025e-19
18.1648 	0.566008 	3.55159 	1.28025e-19
18.2349 	0.580695 	3.5618 	-1.91634e-19
18.3051 	0.580695 	3.5618 	-1.91634e-19
18.3752 	0.580695 	3.5618 	-1.91634e-19
18.4453 	0.580695 	3.5618 	-1.91634e-19
18.5155 	0.580695 	3.5618 	-1.91634e-19
18.5856 	0.62347 	3.54376 	-2.78389e-19
18.6557 	0.62347 	3.54376 	-2.78389e-19
18.7259 	0.62347 	3.54376 	-2.78389e-19
18.796 	0.62347 	3.54376 	-2.78389e-19
18.8662 	0.640788 	3.5553 	2.22498e-19
18.9363 	0.640788 	3.5553 	2.22498e-19
19.0064 	0.640788 	3.5553 	2.22498e-19
19.0766 	0.640788 	3.5553 	2.22498e-19
19.1467 	0.640788 	3.5553 	2.22498e-19
19.2168 	0.666335 	3.57219 	2.98675e-20
19.287 	0.666163 	3.52874 	1.60533e-19
19.3571 	0.666163 	3.52874 	1.60533e-19
19.4272 	0.666163 	3.52874 	1.60533e-19
19.4974 	0.666163 	3.52874 	1.60533e-19
19.5675 	0.687392 	3.54305 	2.21981e-20
19.6376 	0.687392 	3.54305 	2.21981e-20
19.7078 	0.687392 	3.54305 	2.21981e-20
19.7779 	0.687392 	3.54305 	2.21981e-20
19.848 	0.687392 	3.54305 	2.21981e-20
19.9182 	0.715968 	3.5612 	-6.56828e-20
19.9883 	0.715968 	3.5612 	-6.56828e-20
20.0584 	0.691228 	3.49343 	0
20.1286 	0.691228 	3.49343 	0
20.1987 	0.691228 	3.49343 	0
20.2688 	0.716769 	3.51951 	4.70392e-20
20.339 	0.716769 	3.51951 	4.70392e-20
20.4091 	0.716769 	3.51951 	4.70392e-20
20.4792 	0.716769 	3.51951 	4.70392e-20
20.5494 	0.716769 	3.51951 	4.70392e-20
20.6195 	0.749654 	3.54418 	-2.83967e-20
20.6896 	0.749654 	3.54418 	-2.83967e-20
20.7598 	0.749654 	3.54418 	-2.83967e-20
20.8299 	0.749654 	3.54418 	-2.83967e-20
20.9 	0.698211 	3.38818 	2.79487e-19
20.9702 	0.727311 	3.44694 	1.00049e-19
21.0403 	0.727311 	3.44694 	1.00049e-19
21.1105 	0.727311 	3.44694 	1.00049e-19
21.1806 	0.727311 	3.44694 	1.00049e-19
21.2507 	0.727311 	3.44694 	1.00049e-19
21.3209 	0.763262 	3.49413 	-7.22002e-20
21.391 	0.763262 	3.49413 	-7.22002e-20
21.4611 	0.763262 	3.49413 	-7.22002e-20
21.5313 	0.763262 	3.49413 	-7.22002e-20
21.6014 	0.763262 	3.49413 	-7.22002e-20
21.6715 	0.763262 	3.49413 	-7.22002e-20
21.7417 	0.78652 	3.52015 	2.92292e-21
21.8118 	0.78652 	3.52015 	2.92292e-21
21.8819 	0.78652 	3.52015 	2.92292e-21
21.9521 	0.717969 	3.24952 	3.57071e-20
22.0222 	0.717969 	3.24952 	3.57071e-20
22.0923 	0.75541 	3.34221 	8.22492e-20
22.1625 	0.75541 	3.34221 	8.22492e-20
22.2326 	0.75541 	3.34221 	8.22492e-20
22.3027 	0.75541 	3.34221 	8.22492e-20
22.3729 	0.75541 	3.34221 	8.22492e-20
22.443 	0.75541 	3.34221 	8.22492e-20
22.5131 	0.784097 	3.41056 	-3.69953e-20
22.5833 	0.784097 	3.41056 	-3.69953e-20
22.6534 	0.784097 	3.41056 	-3.69953e-20
22.7235 	0.784097 	3.41056 	-3.69953e-20
22.7937 	0.784097 	3.41056 	-3.69953e-20
22.8638 	0.816975 	3.46296 	-3.4658e-20
22.9339 	0.816975 	3.46296 	-3.4658e-20
23.0041 	0.816975 	3.46296 	-3.4658e-20
23.0742 	0.70779 	2.91337 	6.47845e-20
23.1443 	0.70779 	2.91337 	6.47845e-20
23.2145 	0.70779 	2.91337 	6.47845e-20
23.2846 	0.747657 	3.07571 	-1.30438e-21
23.3548 	0.747657 	3.07571 	-1.30438e-21
23.4249 	0.747657 	3.07571 	-1.30438e-21
23.495 	0.747657 	3.07571 	-1.30438e-21
23.5652 	0.747657 	3.07571 	-1.30438e-21
23.6353 	0.747657 	3.07571 	-1.30438e-21
23.7054 	0.781054 	3.18584 	-2.24772e-21
23.7756 	0.781054 	3.18584 	-2.24772e-21
23.8457 	0.781054 	3.18584 	-2.24772e-21
23.9158 	0.781054 	3.18584 	-2.24772e-21
23.986 	0.781054 	3.18584 	-2.24772e-21
24.0561 	0.781054 	3.18584 	-2.24772e-21
24.1262 	0.812016 	3.2823 	0
24.1964 	0.812016 	3.2823 	0
24.2665 	0.812016 	3.2823 	0
24.3366 	0.812016 	3.2823 	0
24.4068 	0.812016 	3.2823 	0
24.4769 	0.662546 	2.47136 	-1.20778e-20
24.547 	0.662546 	2.47136 	-1.20778e-20
24.6172 	0.684355 	2.56731 	-8.35013e-20
24.6873 	0.684355 	2.56731 	-8.35013e-20
24.7574 	0.684355 	2.56731 	-8.35013e-20
24.8276 	0.684355 	2.56731 	-8.35013e-20
24.8977 	0.684355 	2.56731 	-8.35013e-20
24.9678 	0.684355 	2.56731 	-8.35013e-20
25.038 	0.729428 	2.75284 	2.53035e-20
25.1081 	0.729428 	2.75284 	2.53035e-20
25.1782 	0.729428 	2.75284 	2.53035e-20
25.2484 	0.729428 	2.75284 	2.53035e-20
25.3185 	0.729428 	2.75284 	2.53035e-20
25.3886 	0.729428 	2.75284 	2.53035e-20
25.4588 	0.750533 	2.83376 	0
25.5289 	0.750533 	2.83376 	0
25.5991 	0.750533 	2.83376 	0
25.6692 	0.750533 	2.83376 	0
25.7393 	0.750533 	2.83376 	0
25.8095 	0.750533 	2.83376 	0
25.8796 	0.750533 	2.83376 	0
25.9497 	0.790948 	2.98195 	-1.09493e-19
26.0199 	0.790948 	2.98195 	-1.09493e-19
26.09 	0.616213 	2.11385 	-8.66274e-20
26.1601 	0.616213 	2.11385 	-8.66274e-20
26.2303 	0.616213 	2.11385 	-8.66274e-20
26.3004 	0.616213 	2.11385 	-8.66274e-20
26.3705 	0.616213 	2.11385 	-8.66274e-20
26.4407 	0.6292 	2.16312 	2.22553e-19
26.5108 	0.6292 	2.16312 	2.22553e-19
26.5809 	0.6292 	2.16312 	2.22553e-19
26.6511 	0.6292 	2.16312 	2.22553e-19
26.7212 	0.6292 	2.16312 	2.22553e-19
26.7913 	0.6292 	2.16312 	2.22553e-19
26.8615 	0.6292 	2.16312 	2.22553e-19
26.9316 	0.656298 	2.27556 	-1.48367e-19
27.0017 	0.656298 	2.27556 	-1.48367e-19
27.0719 	0.656298 	2.27556 	-1.48367e-19
27.142 	0.656298 	2.27556 	-1.48367e-19
27.2121 	0.656298 	2.27556 	-1.48367e-19
27.2823 	0.656298 	2.27556 	-1.48367e-19
27.3524 	0.667703 	2.31975 	-5.59477e-20
27.4225 	0.667703 	2.31975 	-5.59477e-20
27.4927 	0.667703 	2.31975 	-5.59477e-20
27.5628 	0.667703 	2.31975 	-5.59477e-20
27.6329 	0.667703 	2.31975 	-5.59477e-20
27.7031 	0.667703 	2.31975 	-5.59477e-20
27.7732 	0.667703 	2.31975 	-5.59477e-20
27.8434 	0.667703 	2.31975 	-5.59477e-20
27.9135 	0.691666 	2.42144 	-6.51005e-20
27.9836 	0.691666 	2.42144 	-6.51005e-20
28.0538 	0.691666 	2.42144 	-6.51005e-20
28.1239 	0.691666 	2.42144 	-6.51005e-20
28.194 	0.691666 	2.42144 	-6.51005e-20
28.2642 	0.691666 	2.42144 	-6.51005e-20
28.3343 	0.55354 	1.84336 	7.3437e-20
28.4044 	0.552601 	1.86326 	-1.28902e-19
28.4746 	0.552601 	1.86326 	-1.28902e-19
28.5447 	0.552601 	1.86326 	-1.28902e-19
28.6148 	0.552601 	1.86326 	-1.28902e-19
28.685 	0.552601 	1.86326 	-1.28902e-19
28.7551 	0.552601 	1.86326 	-1.28902e-19
28.8252 	0.552601 	1.86326 	-1.28902e-19
28.8954 	0.552601 	1.86326 	-1.28902e-19
28.9655 	0.561347 	1.90717 	-1.50093e-19
29.0356 	0.561347 	1.90717 	-1.50093e-19
29.1058 	0.561347 	1.90717 	-1.50093e-19
29.1759 	0.561347 	1.90717 	-1.50093e-19
29.246 	0.561347 	1.90717 	-1.50093e-19
29.3162 	0.561347 	1.90717 	-1.50093e-19
29.3863 	0.561347 	1.90717 	-1.50093e-19
29.4564 	0.556186 	1.91953 	1.39255e-19
29.5266 	0.556186 	1.91953 	1.39255e-19
29.5967 	0.556186 	1.91953 	1.39255e-19
29.6668 	0.556186 	1.91953 	1.39255e-19
29.737 	0.556186 	1.91953 	1.39255e-19
29.8071 	0.556186 	1.91953 	1.39255e-19
29.8773 	0.556186 	1.91953 	1.39255e-19
29.9474 	0.556186 	1.91953 	1.39255e-19
30.0175 	0.55875 	1.95004 	-1.55176e-19
30.0877 	0.55875 	1.95004 	-1.55176e-19
30.1578 	0.55875 	1.95004 	-1.55176e-19
30.2279 	0.55875 	1.95004 	-1.55176e-19
30.2981 	0.55875 	1.95004 	-1.55176e-19
30.3682 	0.55875 	1.95004 	-1.55176e-19
30.4383 	0.55875 	1.95004 	-1.55176e-19
30.5085 	0.55875 	1.95004 	-1.55176e-19
30.5786 	0.548952 	1.95218 	2.92076e-19
30.6487 	0.548952 	1.95218 	2.92076e-19
30.7189 	0.548952 	1.95218 	2.92076e-19
30.789 	0.548952 	1.95218 	2.92076e-19
30.8591 	0.548952 	1.95218 	2.92076e-19
30.9293 	0.548952 	1.95218 	2.92076e-19
30.9994 	0.548952 	1.95218 	2.92076e-19
31.0695 	0.548952 	1.95218 	2.92076e-19
31.1397 	0.544221 	1.96875 	-1.47814e-19
31.2098 	0.544221 	1.96875 	-1.47814e-19
31.2799 	0.544221 	1.96875 	-1.47814e-19
31.3501 	0.544221 	1.96875 	-1.47814e-19
31.4202 	0.544221 	1.96875 	-1.47814e-19
31.4903 	0.544221 	1.96875 	-1.47814e-19
31.5605 	0.501029 	1.75335 	2.56032e-19
31.6306 	0.501029 	1.75335 	2.56032e-19
31.7007 	0.495924 	1.75726 	-8.16755e-20
31.7709 	0.495924 	1.75726 	-8.16755e-20
31.841 	0.495924 	1.75726 	-8.16755e-20
31.9111 	0.495924 	1.75726 	-8.16755e-20
31.9813 	0.495924 	1.75726 	-8.16755e-20
32.0514 	0.495924 	1.75726 	-8.16755e-20
32.1216 	0.495924 	1.75726 	-8.16755e-20
32.1917 	0.495924 	1.75726 	-8.16755e-20
32.2618 	0.495924 	1.75726 	-8.16755e-20
32.332 	0.490288 	1.76841 	0
32.4021 	0.490288 	1.76841 	0
32.4722 	0.490288 	1.76841 	0
32.5424 	0.490288 	1.76841 	0
32.6125 	0.490288 	1.76841 	0
32.6826 	0.490288 	1.76841 	0
32.7528 	0.490288 	1.76841 	0
32.8229 	0.490288 	1.76841 	0
32.893 	0.490288 	1.76841 	0
32.9632 	0.485469 	1.77065 	0
33.0333 	0.485469 	1.77065 	0
33.1034 	0.485469 	1.77065 	0
33.1736 	0.485469 	1.77065 	0
33.2437 	0.485469 	1.77065 	0
33.3138 	0.485469 	1.77065 	0
33.384 	0.485469 	1.77065 	0
33.4541 	0.485469 	1.77065 	0
33.5242 	0.485469 	1.77065 	0
33.5944 	0.481974 	1.77715 	4.28289e-20
33.6645 	0.481974 	1.77715 	4.28289e-20
33.7346 	0.481974 	1.77715 	4.28289e-20
33.8048 	0.481974 	1.77715 	4.28289e-20
33.8749 	0.481974 	1.77715 	4.28289e-20
33.945 	0.481974 	1.77715 	4.28289e-20
34.0152 	0.481974 	1.77715 	4.28289e-20
34.0853 	0.481974 	1.77715 	4.28289e-20
34.1554 	0.481974 	1.77715 	4.28289e-20
34.2256 	0.477064 	1.77537 	-3.93799e-20
34.2957 	0.477064 	1.77537 	-3.93799e-20
34.3659 	0.477064 	1.77537 	-3.93799e-20
34.436 	0.477064 	1.77537 	-3.93799e-20
34.5061 	0.477064 	1.77537 	-3.93799e-20
34.5763 	0.477064 	1.77537 	-3.93799e-20
34.6464 	0.477064 	1.77537 	-3.93799e-20
34.7165 	0.477064 	1.77537 	-3.93799e-20
34.7867 	0.477064 	1.77537 	-3.93799e-20
34.8568 	0.477064 	1.77537 	-3.93799e-20
34.9269 	0.47615 	1.77271 	8.01371e-20
34.9971 	0.47615 	1.77271 	8.01371e-20
35.0672 	0.47615 	1.77271 	8.01371e-20
35.1373 	0.47615 	1.77271 	8.01371e-20
35.2075 	0.47615 	1.77271 	8.01371e-20
35.2776 	0.47615 	1.77271 	8.01371e-20
35.3477 	0.47615 	1.77271 	8.01371e-20
35.4179 	0.47615 	1.77271 	8.01371e-20
35.488 	0.47615 	1.77271 	8.01371e-20
35.5581 	0.47615 	1.77271 	8.01371e-20
35.6283 	0.476128 	1.7633 	-1.88382e-20
35.6984 	0.476128 	1.7633 	-1.88382e-20
35.7685 	0.476128 	1.7633 	-1.88382e-20
35.8387 	0.476128 	1.7633 	-1.88382e-20
35.9088 	0.476128 	1.7633 	-1.88382e-20
35.9789 	0.476128 	1.7633 	-1.88382e-20
36.0491 	0.476128 	1.7633 	-1.88382e-20
36.1192 	0.476128 	1.7633 	-1.88382e-20
36.1893 	0.476128 	1.7633 	-1.88382e-20
36.2595 	0.476128 	1.7633 	-1.88382e-20
36.3296 	0.471108 	1.75318 	1.8391e-20
36.3997 	0.471108 	1.75318 	1.8391e-20
36.4699 	0.471108 	1.75318 	1.8391e-20
36.54 	0.471108 	1.75318 	1.8391e-20
36.6102 	0.471108 	1.75318 	1.8391e-20
36.6803 	0.471108 	1.75318 	1.8391e-20
36.7504 	0.471108 	1.75318 	1.8391e-20
36.8206 	0.471108 	1.75318 	1.8391e-20
36.8907 	0.471108 	1.75318 	1.8391e-20
36.9608 	0.471108 	1.75318 	1.8391e-20
37.031 	0.471108 	1.75318 	1.8391e-20
37.1011 	0.462036 	1.74379 	0
37.1712 	0.462036 	1.74379 	0
37.2414 	0.462036 	1.74379 	0
37.3115 	0.462036 	1.74379 	0
37.3816 	0.462036 	1.74379 	0
37.4518 	0.462036 	1.74379 	0
37.5219 	0.462036 	1.74379 	0
37.592 	0.462036 	1.74379 	0
37.6622 	0.450238 	1.73631 	0
37.7323 	0.450238 	1.73631 	0
37.8024 	0.450238 	1.73631 	0
37.8726 	0.450238 	1.73631 	0
37.9427 	0.450238 	1.73631 	0
38.0128 	0.450238 	1.73631 	0
38.083 	0.450238 	1.73631 	0
38.1531 	0.450238 	1.73631 	0
38.2232 	0.450238 	1.73631 	0
38.2934 	0.43582 	1.72959 	0
38.3635 	0.43582 	1.72959 	0
38.4336 	0.43582 	1.72959 	0
38.5038 	0.43582 	1.72959 	0
38.5739 	0.43582 	1.72959 	0
38.644 	0.43582 	1.72959 	0
38.7142 	0.43582 	1.72959 	0
38.7843 	0.43582 	1.72959 	0
38.8545 	0.43582 	1.72959 	0
38.9246 	0.420695 	1.72236 	0
38.9947 	0.420695 	1.72236 	0
39.0649 	0.420695 	1.72236 	0
39.135 	0.420695 	1.72236 	0
39.2051 	0.420695 	1.72236 	0
39.2753 	0.420695 	1.72236 	0
39.3454 	0.420695 	1.72236 	0
39.4155 	0.420695 	1.72236 	0
39.4857 	0.420695 	1.72236 	0
39.5558 	0.404838 	1.71331 	0
39.6259 	0.404838 	1.71331 	0
39.6961 	0.404838 	1.71331 	0
39.7662 	0.404838 	1.71331 	0
39.8363 	0.404838 	1.71331 	0
39.9065 	0.404838 	1.71331 	0
39.9766 	0.404838 	1.71331 	0
40.0467 	0.404838 	1.71331 	0
40.1169 	0.387044 	1.7041 	0
40.187 	0.387044 	1.7041 	0
40.2571 	0.387044 	1.7041 	0
40.3273 	0.387044 	1.7041 	0
40.3974 	0.387044 	1.7041 	0
40.4675 	0.387044 	1.7041 	0
40.5377 	0.387044 	1.7041 	0
40.6078 	0.387044 	1.7041 	0
40.6779 	0.387044 	1.7041 	0
40.7481 	0.365616 	1.69679 	0
40.8182 	0.365616 	1.69679 	0
40.8883 	0.365616 	1.69679 	0
40.9585 	0.365616 	1.69679 	0
41.0286 	0.365616 	1.69679 	0
41.0988 	0.365616 	1.69679 	0
41.1689 	0.365616 	1.69679 	0
41.239 	0.365616 	1.69679 	0
41.3092 	0.365616 	1.69679 	0
41.3793 	0.341979 	1.69326 	0
41.4494 	0.341979 	1.69326 	0
41.5196 	0.341979 	1.69326 	0
41.5897 	0.341979 	1.69326 	0
41.6598 	0.341979 	1.69326 	0
41.73 	0.341979 	1.69326 	0
41.8001 	0.341979 	1.69326 	0
41.8702 	0.341979 	1.69326 	0
41.9404 	0.341979 	1.69326 	0
42.0105 	0.316889 	1.69201 	0
42.0806 	0.316889 	1.69201 	0
42.1508 	0.316889 	1.69201 	0
42.2209 	0.316889 	1.69201 	0
42.291 	0.316889 	1.69201 	0
42.3612 	0.316889 	1.69201 	0
42.4313 	0.316889 	1.69201 	0
42.5014 	0.316889 	1.69201 	0
42.5716 	0.316889 	1.69201 	0
42.6417 	0.291047 	1.69097 	0
42.7118 	0.291047 	1.69097 	0
42.782 	0.291047 	1.69097 	0
42.8521 	0.291047 	1.69097 	0
42.9222 	0.291047 	1.69097 	0
42.9924 	0.291047 	1.69097 	0
43.0625 	0.291047 	1.69097 	0
43.1327 	0.291047 	1.69097 	0
43.2028 	0.265507 	1.69076 	0
43.2729 	0.265507 	1.69076 	0
43.3431 	0.265507 	1.69076 	0
43.4132 	0.265507 	1.69076 	0
43.4833 	0.265507 	1.69076 	0
43.5535 	0.265507 	1.69076 	0
43.6236 	0.265507 	1.69076 	0
43.6937 	0.265507 	1.69076 	0
43.7639 	0.265507 	1.69076 	0
43.834 	0.240706 	1.69284 	0
43.9041 	0.240706 	1.69284 	0
43.9743 	0.240706 	1.69284 	0
44.0444 	0.240706 	1.69284 	0
44.1145 	0.240706 	1.69284 	0
44.1847 	0.240706 	1.69284 	0
44.2548 	0.240706 	1.69284 	0
44.3249 	0.240706 	1.69284 	0
44.3951 	0.240706 	1.69284 	0
44.4652 	0.215768 	1.69686 	0
44.5353 	0.215768 	1.69686 	0
44.6055 	0.215768 	1.69686 	0
44.6756 	0.215768 	1.69686 	0
44.7457 	0.215768 	1.69686 	0
44.8159 	0.215768 	1.69686 	0
44.886 	0.215768 	1.69686 	0
44.9561 	0.215768 	1.69686 	0
45.0263 	0.215768 	1.69686 	0
45.0964 	0.190676 	1.70247 	0
45.1665 	0.190676 	1.70247 	0
45.2367 	0.190676 	1.70247 	0
45.3068 	0.190676 	1.70247 	0
45.377 	0.190676 	1.70247 	0
45.4471 	0.190676 	1.70247 	0
45.5172 	0.190676 	1.70247 	0
45.5874 	0.190676 	1.70247 	0
45.6575 	0.165502 	1.70847 	0
45.7276 	0.165502 	1.70847 	0
45.7978 	0.165502 	1.70847 	0
45.8679 	0.165502 	1.70847 	0
45.938 	0.165502 	1.70847 	0
46.0082 	0.165502 	1.70847 	0
46.0783 	0.165502 	1.70847 	0
46.1484 	0.165502 	1.70847 	0
46.2186 	0.165502 	1.70847 	0
46.2887 	0.140679 	1.71485 	0
46.3588 	0.140679 	1.71485 	0
46.429 	0.140679 	1.71485 	0
46.4991 	0.140679 	1.71485 	0
46.5692 	0.140679 	1.71485 	0
46.6394 	0.140679 	1.71485 	0
46.7095 	0.140679 	1.71485 	0
46.7796 	0.131768 	1.68602 	0
46.8498 	0.131768 	1.68602 	0
46.9199 	0.108368 	1.69138 	0
46.99 	0.108368 	1.69138 	0
47.0602 	0.108368 	1.69138 	0
47.1303 	0.108368 	1.69138 	0
47.2004 	0.108368 	1.69138 	0
47.2706 	0.108368 	1.69138 	0
47.3407 	0.108368 	1.69138 	0
47.4108 	0.108368 	1.69138 	0
47.481 	0.108368 	1.69138 	0
47.5511 	0.0860634 	1.69555 	0
47.6213 	0.0860634 	1.69555 	0
47.6914 	0.0860634 	1.69555 	0
47.7615 	0.0860634 	1.69555 	0
47.8317 	0.0860634 	1.69555 	0
47.9018 	0.0860634 	1.69555 	0
47.9719 	0.0860634 	1.69555 	0
48.0421 	0.0860634 	1.69555 	0
48.1122 	0.0860634 	1.69555 	0
48.1823 	0.064285 	1.69849 	0
48.2525 	0.064285 	1.69849 	0
48.3226 	0.064285 	1.69849 	0
48.3927 	0.064285 	1.69849 	0
48.4629 	0.064285 	1.69849 	0
48.533 	0.064285 	1.69849 	0
48.6031 	0.064285 	1.69849 	0
48.6733 	0.064285 	1.69849 	0
48.7434 	0.0438501 	1.6999 	0
48.8135 	0.0438501 	1.6999 	0
48.8837 	0.0438501 	1.6999 	0
48.9538 	0.0438501 	1.6999 	0
49.0239 	0.0438501 	1.6999 	0
49.0941 	0.0438501 	1.6999 	0
49.1642 	0.0438501 	1.6999 	0
49.2343 	0.0438501 	1.6999 	0
49.3045 	0.0438501 	1.6999 	0
49.3746 	0.024605 	1.69949 	0
49.4447 	0.024605 	1.69949 	0
49.5149 	0.024605 	1.69949 	0
49.585 	0.024605 	1.69949 	0
49.6551 	0.024605 	1.69949 	0
49.7253 	0.024605 	1.69949 	0
49.7954 	0.024605 	1.69949 	0
49.8656 	0.024605 	1.69949 	0
49.9357 	0.024605 	1.69949 	0
50.0058 	0.00571771 	1.69509 	0
50.076 	0.00571771 	1.69509 	0
50.1461 	0.00571771 	1.69509 	0
50.2162 	0.00571771 	1.69509 	0
50.2864 	0.00571771 	1.69509 	0
50.3565 	0.00571771 	1.69509 	0
50.4266 	0.00571771 	1.69509 	0
50.4968 	0.00571771 	1.69509 	0
50.5669 	0.00571771 	1.69509 	0
50.637 	-0.012805 	1.68654 	0
50.7072 	-0.012805 	1.68654 	0
50.7773 	-0.012805 	1.68654 	0
50.8474 	-0.012805 	1.68654 	0
50.9176 	-0.012805 	1.68654 	0
50.9877 	-0.012805 	1.68654 	0
51.0578 	-0.012805 	1.68654 	0
51.128 	-0.012805 	1.68654 	0
51.1981 	-0.012805 	1.68654 	0
51.2682 	-0.0290396 	1.67403 	0
51.3384 	-0.0290396 	1.67403 	0
51.4085 	-0.0290396 	1.67403 	0
51.4786 	-0.0290396 	1.67403 	0
51.5488 	-0.0290396 	1.67403 	0
51.6189 	-0.0290396 	1.67403 	0
51.689 	-0.0290396 	1.67403 	0
51.7592 	-0.0290396 	1.67403 	0
51.8293 	-0.0436971 	1.6584 	0
51.8994 	-0.0436971 	1.6584 	0
51.9696 	-0.0436971 	1.6584 	0
52.0397 	-0.0436971 	1.6584 	0
52.1099 	-0.0436971 	1.6584 	0
52.18 	-0.0436971 	1.6584 	0
52.2501 	-0.0436971 	1.6584 	0
52.3203 	-0.0436971 	1.6584 	0
52.3904 	-0.0436971 	1.6584 	0
52.4605 	-0.0556351 	1.63936 	0
52.5307 	-0.0556351 	1.63936 	0
52.6008 	-0.0556351 	1.63936 	0
52.6709 	-0.0556351 	1.63936 	0
52.7411 	-0.0556351 	1.63936 	0
52.8112 	-0.0556351 	1.63936 	0
52.8813 	-0.0556351 	1.63936 	0
52.9515 	-0.0556351 	1.63936 	0
53.0216 	-0.0556351 	1.63936 	0
53.0917 	-0.0653272 	1.61732 	0
53.1619 	-0.0653272 	1.61732 	0
53.232 	-0.0653272 	1.61732 	0
53.3021 	-0.0653272 	1.61732 	0
53.3723 	-0.0653272 	1.61732 	0
53.4424 	-0.0653272 	1.61732 	0
53.5125 	-0.0653272 	1.61732 	0
53.5827 	-0.0653272 	1.61732 	0
53.6528 	-0.0653272 	1.61732 	0
53.7229 	-0.0716205 	1.59415 	0
53.7931 	-0.0716205 	1.59415 	0
53.8632 	-0.0716205 	1.59415 	0
53.9333 	-0.0716205 	1.59415 	0
54.0035 	-0.0716205 	1.59415 	0
54.0736 	-0.0716205 	1.59415 	0
54.1437 	-0.0716205 	1.59415 	0
54.2139 	-0.0716205 	1.59415 	0
54.284 	-0.0759097 	1.56945 	0
54.3542 	-0.0759097 	1.56945 	0
54.4243 	-0.0759097 	1.56945 	0
54.4944 	-0.0759097 	1.56945 	0
54.5646 	-0.0759097 	1.56945 	0
54.6347 	-0.0759097 	1.56945 	0
54.7048 	-0.0759097 	1.56945 	0
54.775 	-0.0759097 	1.56945 	0
54.8451 	-0.0759097 	1.56945 	0
54.9152 	-0.0779327 	1.54561 	0
54.9854 	-0.0779327 	1.54561 	0
55.0555 	-0.0779327 	1.54561 	0
55.1256 	-0.0779327 	1.54561 	0
55.1958 	-0.0779327 	1.54561 	0
55.2659 	-0.0779327 	1.54561 	0
55.336 	-0.0779327 	1.54561 	0
55.4062 	-0.0779327 	1.54561 	0
55.4763 	-0.0779327 	1.54561 	0
55.5464 	-0.0792012 	1.52085 	0
55.6166 	-0.0792012 	1.52085 	0
55.6867 	-0.0792012 	1.52085 	0
55.7568 	-0.0792012 	1.52085 	0
55.827 	-0.0792012 	1.52085 	0
55.8971 	-0.0792012 	1.52085 	0
55.9672 	-0.0792012 	1.52085 	0
56.0374 	-0.0792012 	1.52085 	0
56.1075 	-0.0792012 	1.52085 	0
56.1776 	-0.0803391 	1.4983 	0
56.2478 	-0.0803391 	1.4983 	0
56.3179 	-0.0803391 	1.4983 	0
56.3881 	-0.0803391 	1.4983 	0
56.4582 	-0.0803391 	1.4983 	0
56.5283 	-0.0803391 	1.4983 	0
56.5985 	-0.0803391 	1.4983 	0
56.6686 	-0.0803391 	1.4983 	0
56.7387 	-0.0803391 	1.4983 	0
56.8089 	-0.0814538 	1.4762 	0
56.879 	-0.0814538 	1.4762 	0
56.9491 	-0.0814538 	1.4762 	0
57.0193 	-0.0814538 	1.4762 	0
57.0894 	-0.0814538 	1.4762 	0
57.1595 	-0.0814538 	1.4762 	0
57.2297 	-0.0814538 	1.4762 	0
57.2998 	-0.0814538 	1.4762 	0
57.3699 	-0.0839986 	1.45793 	0
57.4401 	-0.0839986 	1.45793 	0
57.5102 	-0.0839986 	1.45793 	0
57.5803 	-0.0839986 	1.45793 	0
57.6505 	-0.0839986 	1.45793 	0
57.7206 	-0.0839986 	1.45793 	0
57.7907 	-0.0839986 	1.45793 	0
57.8609 	-0.0839986 	1.45793 	0
57.931 	-0.0839986 	1.45793 	0
58.0011 	-0.0859531 	1.44276 	0
58.0713 	-0.0859531 	1.44276 	0
58.1414 	-0.0859531 	1.44276 	0
58.2115 	-0.0859531 	1.44276 	0
58.2817 	-0.0859531 	1.44276 	0
58.3518 	-0.0859531 	1.44276 	0
58.4219 	-0.0859531 	1.44276 	0
58.4921 	-0.0859531 	1.44276 	0
58.5622 	-0.0859531 	1.44276 	0
58.6324 	-0.08819 	1.43086 	0
58.7025 	-0.08819 	1.43086 	0
58.7726 	-0.08819 	1.43086 	0
58.8428 	-0.08819 	1.43086 	0
58.9129 	-0.08819 	1.43086 	0
58.983 	-0.08819 	1.43086 	0
59.0532 	-0.08819 	1.43086 	0
59.1233 	-0.08819 	1.43086 	0
59.1934 	-0.08819 	1.43086 	0
59.2636 	-0.0904402 	1.42358 	0
59.3337 	-0.0904402 	1.42358 	0
59.4038 	-0.0904402 	1.42358 	0
59.474 	-0.0904402 	1.42358 	0