/*--------------------------------*- C++ -*----------------------------------*\
  =========                 |
  \\      /  F ield         | OpenFOAM: The Open Source CFD Toolbox
   \\    /   O peration     | Website:  https://openfoam.org
    \\  /    A nd           | Version:  6
     \\/     M anipulation  |
\*---------------------------------------------------------------------------*/
FoamFile
{
    version     2.0;
    format      ascii;
    class       volVectorField;
    location    "111.5";
    object      U;
}
// * * * * * * * * * * * * * * * * * * * * * * * * * * * * * * * * * * * * * //

dimensions      [0 1 -1 0 0 0 0];

internalField   nonuniform List<vector> 
8800
(
(0.987183 -0.0766652 0)
(1.00189 -0.0551902 0)
(0.99972 -0.0285483 0)
(1.00003 -0.0151439 0)
(1.0001 -0.00854641 0)
(1.00012 -0.00504957 0)
(1.00008 -0.00300349 0)
(1.00002 -0.00170138 0)
(0.99999 -0.000793796 0)
(1.00006 -7.45582e-05 0)
(0.999966 0.000659909 0)
(1.00003 0.00142455 0)
(1.00007 0.00242469 0)
(1.00007 0.00399689 0)
(1.00006 0.00663189 0)
(1.00006 0.0113717 0)
(0.999965 0.0208157 0)
(0.999178 0.0386703 0)
(1.0071 0.0724575 0)
(0.771215 0.0366618 0)
(0.363083 -0.016016 0)
(1.04332 -0.0768094 0)
(1.08459 -0.0704363 0)
(1.04519 -0.0535294 0)
(1.0233 -0.0388801 0)
(1.01204 -0.0262017 0)
(1.00644 -0.016837 0)
(1.0036 -0.0102988 0)
(1.00215 -0.0056318 0)
(1.00143 -0.00196671 0)
(1.00128 0.0013594 0)
(1.00169 0.00474953 0)
(1.00271 0.00866001 0)
(1.00468 0.0139803 0)
(1.00861 0.0216892 0)
(1.01657 0.0326551 0)
(1.03252 0.0465659 0)
(1.06269 0.0616817 0)
(1.09186 0.0761074 0)
(0.838662 0.0565653 0)
(0.216883 -0.00242824 0)
(1.07593 -0.0501173 0)
(1.09989 -0.0482836 0)
(1.06466 -0.0404313 0)
(1.04006 -0.0335684 0)
(1.02394 -0.0260399 0)
(1.01414 -0.0184449 0)
(1.00857 -0.0116106 0)
(1.00558 -0.00572912 0)
(1.0043 -0.000301246 0)
(1.00465 0.00495432 0)
(1.00664 0.0103394 0)
(1.01064 0.01639 0)
(1.01794 0.0234098 0)
(1.03053 0.0308706 0)
(1.05063 0.0378916 0)
(1.08038 0.0445703 0)
(1.10627 0.0513768 0)
(0.942485 0.041634 0)
(0.216104 0.00246341 0)
(0.175236 -0.000814558 0)
(1.01778 -0.0354559 0)
(1.10524 -0.0413343 0)
(1.0783 -0.0360089 0)
(1.05352 -0.0300657 0)
(1.03625 -0.0244776 0)
(1.02404 -0.0187301 0)
(1.0159 -0.0126284 0)
(1.01102 -0.00642078 0)
(1.00879 -7.03795e-05 0)
(1.00936 0.00619746 0)
(1.01268 0.0121864 0)
(1.01889 0.0179677 0)
(1.02875 0.0235338 0)
(1.04317 0.0288251 0)
(1.0637 0.0342936 0)
(1.09356 0.0402684 0)
(1.09338 0.0420148 0)
(0.827007 0.0229381 0)
(0.173923 0.000855535 0)
(0.154071 -0.000608149 0)
(0.956368 -0.0254183 0)
(1.10355 -0.0350598 0)
(1.08775 -0.0325671 0)
(1.06181 -0.0279014 0)
(1.04419 -0.022859 0)
(1.03171 -0.017585 0)
(1.02283 -0.0120235 0)
(1.01699 -0.00606044 0)
(1.0141 0.000430345 0)
(1.01476 0.00690798 0)
(1.01881 0.0127774 0)
(1.0258 0.0180049 0)
(1.03604 0.0229099 0)
(1.05059 0.0276542 0)
(1.07183 0.0321635 0)
(1.10004 0.0360813 0)
(1.06796 0.0341123 0)
(0.739248 0.0143481 0)
(0.152086 0.000654742 0)
(0.139745 -0.000463983 0)
(0.899615 -0.0190226 0)
(1.09595 -0.0299818 0)
(1.09586 -0.0290657 0)
(1.06938 -0.0253153 0)
(1.05094 -0.0211501 0)
(1.03799 -0.0163408 0)
(1.02884 -0.0110145 0)
(1.02268 -0.0052351 0)
(1.01949 0.00112041 0)
(1.02008 0.00745211 0)
(1.02425 0.013068 0)
(1.03134 0.0179519 0)
(1.04179 0.0224012 0)
(1.0569 0.0263464 0)
(1.07909 0.0297794 0)
(1.10218 0.0323811 0)
(1.03571 0.0282335 0)
(0.672475 0.0102576 0)
(0.136936 0.00051776 0)
(0.129262 -0.000358064 0)
(0.850229 -0.0146442 0)
(1.08369 -0.0258153 0)
(1.10161 -0.0260694 0)
(1.07629 -0.0227572 0)
(1.05732 -0.0190792 0)
(1.0439 -0.0147858 0)
(1.0344 -0.00981085 0)
(1.02798 -0.00423165 0)
(1.02458 0.00195345 0)
(1.025 0.00807761 0)
(1.02912 0.0134117 0)
(1.0363 0.0178689 0)
(1.04701 0.0217097 0)
(1.06251 0.0249837 0)
(1.08514 0.0278886 0)
(1.10118 0.0296084 0)
(1.00056 0.0237579 0)
(0.620364 0.00790762 0)
(0.125448 0.000421349 0)
(0.121292 -0.000276735 0)
(0.808358 -0.0114675 0)
(1.0686 -0.0221648 0)
(1.10524 -0.023376 0)
(1.08263 -0.0204676 0)
(1.06323 -0.0169941 0)
(1.04953 -0.0129952 0)
(1.03974 -0.00834444 0)
(1.03302 -0.00302417 0)
(1.02934 0.00295297 0)
(1.02957 0.00883609 0)
(1.03362 0.013817 0)
(1.04084 0.0177857 0)
(1.05162 0.0211152 0)
(1.06733 0.0239705 0)
(1.0903 0.0265662 0)
(1.09725 0.0273749 0)
(0.964958 0.0202669 0)
(0.578349 0.0063905 0)
(0.116255 0.000352029 0)
(0.115149 -0.000212724 0)
(0.773233 -0.00908289 0)
(1.05209 -0.0189389 0)
(1.10775 -0.0208669 0)
(1.08859 -0.0183183 0)
(1.06881 -0.0149769 0)
(1.05486 -0.011125 0)
(1.04486 -0.00666864 0)
(1.03787 -0.00157356 0)
(1.03388 0.00416338 0)
(1.03385 0.00975506 0)
(1.03777 0.0143537 0)
(1.04488 0.0178849 0)
(1.05563 0.0208236 0)
(1.07153 0.0233448 0)
(1.09413 0.025583 0)
(1.09041 0.0255566 0)
(0.930176 0.0175971 0)
(0.543397 0.00536437 0)
(0.108625 0.000302774 0)
(0.110402 -0.000160884 0)
(0.743924 -0.00722281 0)
(1.03524 -0.0160654 0)
(1.10936 -0.0184851 0)
(1.0943 -0.0162289 0)
(1.07423 -0.0129642 0)
(1.06001 -0.00918343 0)
(1.04979 -0.00482905 0)
(1.04255 0.000111454 0)
(1.03823 0.00562287 0)
(1.03788 0.0109117 0)
(1.04155 0.0151442 0)
(1.04847 0.018284 0)
(1.05915 0.0208743 0)
(1.07522 0.0230945 0)
(1.09665 0.0249389 0)
(1.08104 0.0241131 0)
(0.89675 0.0156 0)
(0.513437 0.00466046 0)
(0.102072 0.000268912 0)
(0.10677 -0.000117411 0)
(0.719625 -0.00571255 0)
(1.01889 -0.0134714 0)
(1.11021 -0.0161655 0)
(1.09993 -0.0141637 0)
(1.0796 -0.0108925 0)
(1.06507 -0.00711982 0)
(1.05461 -0.00280424 0)
(1.04709 0.002045 0)
(1.0424 0.00737703 0)
(1.04162 0.0123899 0)
(1.04496 0.0162787 0)
(1.05163 0.0190431 0)
(1.06222 0.0212965 0)
(1.07845 0.0232373 0)
(1.09774 0.0246488 0)
(1.06948 0.0230456 0)
(0.864763 0.0141611 0)
(0.48699 0.00418909 0)
(0.0962485 0.000247447 0)
(0.10407 -7.92882e-05 0)
(0.699709 -0.00443512 0)
(1.00366 -0.0110877 0)
(1.11044 -0.0138709 0)
(1.10545 -0.0120366 0)
(1.085 -0.00870578 0)
(1.07015 -0.00487844 0)
(1.0594 -0.000537219 0)
(1.05153 0.00428197 0)
(1.04638 0.00948882 0)
(1.0451 0.0142636 0)
(1.04804 0.0178263 0)
(1.05441 0.0202209 0)
(1.06486 0.0221435 0)
(1.0812 0.0238061 0)
(1.09773 0.0248725 0)
(1.05595 0.0223745 0)
(0.834001 0.0131989 0)
(0.462932 0.00389649 0)
(0.0908874 0.000236026 0)
(0.102187 -4.37774e-05 0)
(0.683722 -0.00330239 0)
(0.990036 -0.0088418 0)
(1.11031 -0.0115117 0)
(1.11084 -0.00976214 0)
(1.09053 -0.00633975 0)
(1.07532 -0.00239253 0)
(1.06422 0.00204483 0)
(1.05593 0.00690079 0)
(1.05022 0.0120383 0)
(1.04833 0.0166101 0)
(1.05079 0.01986 0)
(1.05679 0.0218845 0)
(1.06708 0.0234744 0)
(1.08342 0.0248392 0)
(1.09681 0.0254306 0)
(1.04057 0.022109 0)
(0.804071 0.0126376 0)
(0.440363 0.00374417 0)
(0.0857773 0.000232492 0)
(0.101064 -8.55386e-06 0)
(0.67138 -0.00224368 0)
(0.978382 -0.00665729 0)
(1.11014 -0.00902992 0)
(1.11625 -0.00727824 0)
(1.09626 -0.00371594 0)
(1.08066 0.000420232 0)
(1.06916 0.0050274 0)
(1.06035 0.0099921 0)
(1.05397 0.01512 0)
(1.05134 0.0195248 0)
(1.05322 0.0224721 0)
(1.05879 0.0241281 0)
(1.06886 0.0253765 0)
(1.08518 0.0264425 0)
(1.09452 0.0264973 0)
(1.02333 0.0222583 0)
(0.774487 0.0124331 0)
(0.418553 0.00370819 0)
(0.0807501 0.00023558 0)
(0.100695 2.84164e-05 0)
(0.66255 -0.00120213 0)
(0.96903 -0.00445956 0)
(1.11027 -0.00636399 0)
(1.12183 -0.0045104 0)
(1.1023 -0.00074433 0)
(1.08628 0.00365655 0)
(1.07429 0.00851267 0)
(1.06486 0.0136635 0)
(1.05766 0.0188459 0)
(1.05414 0.0231199 0)
(1.05532 0.0257759 0)
(1.06039 0.0270657 0)
(1.0702 0.0279507 0)
(1.08637 0.0286766 0)
(1.09075 0.0280951 0)
(1.00412 0.0228693 0)
(0.744684 0.0125621 0)
(0.396862 0.00377539 0)
(0.0756623 0.000244559 0)
(0.101104 6.29707e-05 0)
(0.657231 -0.000119872 0)
(0.962293 -0.00217149 0)
(1.11107 -0.00344566 0)
(1.12776 -0.00137222 0)
(1.10876 0.00267782 0)
(1.09227 0.00742847 0)
(1.0797 0.0126217 0)
(1.06952 0.018044 0)
(1.06133 0.0233496 0)
(1.05674 0.0275284 0)
(1.05709 0.0299106 0)
(1.06157 0.030821 0)
(1.07105 0.0313213 0)
(1.08669 0.0316658 0)
(1.0852 0.0303179 0)
(0.982664 0.0239815 0)
(0.714027 0.013009 0)
(0.374709 0.00393536 0)
(0.0703872 0.000258467 0)
(0.102364 0.000120004 0)
(0.65559 0.00105368 0)
(0.958505 0.00028569 0)
(1.11292 -0.000194934 0)
(1.13423 0.00223769 0)
(1.11576 0.00667156 0)
(1.09875 0.0118708 0)
(1.0855 0.0175015 0)
(1.0744 0.0232884 0)
(1.06502 0.0287893 0)
(1.05916 0.0329079 0)
(1.05852 0.0350266 0)
(1.0623 0.0355337 0)
(1.07136 0.0356268 0)
(1.08598 0.0355499 0)
(1.07757 0.0332528 0)
(0.958553 0.0256336 0)
(0.681809 0.0137623 0)
(0.351544 0.00417771 0)
(0.0648154 0.000276208 0)
(0.10461 0.00017047 0)
(0.657697 0.00220637 0)
(0.958036 0.00300876 0)
(1.11629 0.00349868 0)
(1.14148 0.00643806 0)
(1.12347 0.0113821 0)
(1.10586 0.0171475 0)
(1.09178 0.0233328 0)
(1.07958 0.0295874 0)
(1.06877 0.0353545 0)
(1.06138 0.0394355 0)
(1.0596 0.0412687 0)
(1.06251 0.0413661 0)
(1.07108 0.0410276 0)
(1.08402 0.0404034 0)
(1.06751 0.0370068 0)
(0.931223 0.0278704 0)
(0.64727 0.0148107 0)
(0.326862 0.00449069 0)
(0.0588594 0.000296446 0)
(0.107998 0.000235621 0)
(0.664293 0.0036935 0)
(0.961205 0.0059837 0)
(1.12165 0.00776465 0)
(1.14978 0.0113628 0)
(1.13208 0.0169942 0)
(1.11377 0.0234647 0)
(1.09869 0.0303379 0)
(1.08514 0.0371697 0)
(1.0726 0.0432695 0)
(1.06341 0.0473202 0)
(1.0603 0.0488726 0)
(1.06219 0.0485106 0)
(1.07016 0.0477023 0)
(1.08082 0.0464369 0)
(1.05449 0.0417024 0)
(0.899922 0.0307231 0)
(0.609585 0.0161288 0)
(0.300204 0.00485592 0)
(0.0524583 0.000317175 0)
(0.112796 0.000324449 0)
(0.675793 0.00546197 0)
(0.968593 0.00950698 0)
(1.12952 0.0127741 0)
(1.15944 0.0172318 0)
(1.14183 0.0237504 0)
(1.12267 0.0310908 0)
(1.10635 0.0388005 0)
(1.09114 0.0463191 0)
(1.07652 0.0527988 0)
(1.0652 0.0567981 0)
(1.06051 0.0580386 0)
(1.06129 0.0571736 0)
(1.06852 0.0558534 0)
(1.07625 0.0538325 0)
(1.03782 0.0474429 0)
(0.8637 0.0341884 0)
(0.567893 0.0176627 0)
(0.271201 0.00524313 0)
(0.0455923 0.000335511 0)
(0.119374 0.000442618 0)
(0.692976 0.00767025 0)
(0.981071 0.0138141 0)
(1.14047 0.0187606 0)
(1.17089 0.0243204 0)
(1.15302 0.0319787 0)
(1.13277 0.0403839 0)
(1.1149 0.0490883 0)
(1.09765 0.0573863 0)
(1.08052 0.064251 0)
(1.06671 0.0681286 0)
(1.06011 0.0689609 0)
(1.05975 0.0675642 0)
(1.06627 0.0656809 0)
(1.06997 0.0627746 0)
(1.01656 0.054287 0)
(0.821403 0.0382026 0)
(0.521368 0.0193095 0)
(0.23965 0.00560579 0)
(0.0383029 0.000347678 0)
(0.128263 0.000607675 0)
(0.716855 0.0105541 0)
(0.99948 0.0191845 0)
(1.15517 0.0260751 0)
(1.18459 0.0330056 0)
(1.16599 0.0421426 0)
(1.14433 0.0518346 0)
(1.12445 0.0616831 0)
(1.10465 0.0708006 0)
(1.08452 0.0779779 0)
(1.06784 0.0815852 0)
(1.0591 0.0818834 0)
(1.05753 0.0798759 0)
(1.06304 0.0773469 0)
(1.06134 0.073261 0)
(0.989458 0.0622314 0)
(0.77169 0.0425894 0)
(0.469333 0.0208947 0)
(0.205619 0.00587893 0)
(0.0307126 0.000349248 0)
(0.14029 0.000850064 0)
(0.748824 0.0145057 0)
(1.02492 0.0260816 0)
(1.17442 0.0352672 0)
(1.20122 0.0439298 0)
(1.18116 0.0549332 0)
(1.15754 0.0661417 0)
(1.13503 0.0772249 0)
(1.11205 0.0870863 0)
(1.08837 0.0943593 0)
(1.06844 0.0974383 0)
(1.0574 0.0970267 0)
(1.05467 0.094369 0)
(1.05848 0.0911104 0)
(1.04942 0.0854866 0)
(0.954864 0.0710957 0)
(0.713128 0.0470043 0)
(0.411485 0.022157 0)
(0.169587 0.0059821 0)
(0.023042 0.000335876 0)
(0.156778 0.00122922 0)
(0.790899 0.0201734 0)
(1.05905 0.0352936 0)
(1.1992 0.0473194 0)
(1.22167 0.0584791 0)
(1.19891 0.0714346 0)
(1.17248 0.0843108 0)
(1.14651 0.0965395 0)
(1.1196 0.106847 0)
(1.09181 0.113784 0)
(1.06832 0.115923 0)
(1.05488 0.114557 0)
(1.05108 0.11115 0)
(1.05255 0.107147 0)
(1.03292 0.0993613 0)
(0.910646 0.0804478 0)
(0.644445 0.0508814 0)
(0.348238 0.0227563 0)
(0.132568 0.00583399 0)
(0.0156096 0.000304503 0)
(0.180012 0.00188848 0)
(0.846339 0.0287432 0)
(1.1048 0.048444 0)
(1.23057 0.0640673 0)
(1.24639 0.0782683 0)
(1.21935 0.093343 0)
(1.18893 0.107719 0)
(1.15846 0.120613 0)
(1.12686 0.130709 0)
(1.09445 0.136603 0)
(1.06719 0.137216 0)
(1.05133 0.134563 0)
(1.04655 0.130273 0)
(1.04493 0.125265 0)
(1.00987 0.114531 0)
(0.854207 0.0894907 0)
(0.565073 0.0534253 0)
(0.281201 0.0223381 0)
(0.0961869 0.00537842 0)
(0.00881079 0.000253832 0)
(0.213532 0.00334939 0)
(0.921052 0.0430119 0)
(1.16514 0.0694736 0)
(1.26887 0.0890152 0)
(1.27526 0.106481 0)
(1.24187 0.123129 0)
(1.20602 0.138049 0)
(1.17005 0.150466 0)
(1.13313 0.15922 0)
(1.09583 0.163062 0)
(1.06475 0.161408 0)
(1.04656 0.157055 0)
(1.04095 0.151743 0)
(1.03467 0.145452 0)
(0.977375 0.130264 0)
(0.78273 0.0969293 0)
(0.476329 0.0537386 0)
(0.213872 0.0207276 0)
(0.0627335 0.00462525 0)
(0.00311509 0.000184107 0)
(0.259284 0.00988857 1.54847e-20)
(1.01877 0.0712728 1.31741e-20)
(1.23755 0.105295 -4.5346e-21)
(1.31136 0.12632 0)
(1.30526 0.146943 -1.0879e-34)
(1.26419 0.163237 1.57332e-21)
(1.22216 0.176857 -2.73507e-21)
(1.18022 0.187336 0)
(1.13769 0.193676 5.42583e-35)
(1.09526 0.194726 -3.20285e-21)
(1.0602 0.19043 0)
(1.03994 0.184485 -3.73897e-21)
(1.03432 0.178907 -1.09929e-20)
(1.0192 0.171252 -5.19016e-21)
(0.928828 0.148245 -1.55382e-21)
(0.687626 0.102566 -9.20499e-22)
(0.373775 0.0514509 0)
(0.146124 0.0182089 6.42983e-22)
(0.0323418 0.00368764 7.61473e-22)
(-0.00158324 6.23229e-05 1.39409e-20)
(0.291529 0.0258161 1.24561e-20)
(1.10025 0.116032 1.21268e-22)
(1.2973 0.156299 1.25919e-21)
(1.35032 0.177467 0)
(1.33197 0.198008 -5.65137e-21)
(1.28385 0.212314 -6.30183e-21)
(1.23578 0.223844 -2.78947e-21)
(1.18796 0.232154 -9.61598e-21)
(1.1398 0.236209 0)
(1.09208 0.234798 1.35622e-20)
(1.05283 0.228246 1.33133e-20)
(1.02968 0.220724 3.9185e-21)
(1.02115 0.214575 1.41948e-20)
(0.98874 0.202072 1.98835e-20)
(0.847249 0.166258 0)
(0.55474 0.104949 2.78332e-20)
(0.257879 0.0469651 3.98786e-20)
(0.0798898 0.0144393 4.43633e-20)
(0.0047116 0.0016608 -5.08834e-20)
(-0.00559806 -0.000461656 -9.71337e-22)
(0.293969 0.0441485 0)
(1.15339 0.173757 2.41384e-21)
(1.339 0.218655 0)
(1.38121 0.239781 -8.1031e-21)
(1.35353 0.257003 0)
(1.29948 0.26744 -1.26093e-20)
(1.24582 0.275345 5.73091e-21)
(1.19248 0.280294 -1.95377e-20)
(1.13908 0.281148 -3.35871e-22)
(1.08652 0.276616 7.01358e-21)
(1.04356 0.267449 2.89465e-20)
(1.01794 0.25818 -2.20724e-23)
(1.0053 0.250239 -1.02377e-20)
(0.953169 0.23168 -1.84779e-20)
(0.767008 0.18081 2.18259e-20)
(0.451387 0.104052 -3.85635e-20)
(0.186276 0.042188 -5.0655e-21)
(0.0434765 0.0107958 0)
(-0.00924839 -0.000602783 -3.114e-24)
(-0.00740029 -0.00104885 0)
(0.287815 0.0594661 3.8496e-20)
(1.18365 0.235392 -1.75962e-20)
(1.36603 0.285885 -1.20717e-20)
(1.4023 0.30723 3.9802e-21)
(1.36835 0.320289 -6.5505e-21)
(1.30994 0.326159 2.63874e-20)
(1.25176 0.329676 1.19364e-20)
(1.19377 0.330517 0)
(1.13583 0.327509 -3.56016e-20)
(1.07906 0.319322 0)
(1.03289 0.307231 -1.51217e-20)
(1.00505 0.296002 -1.84593e-20)
(0.987611 0.285509 -1.10361e-20)
(0.915851 0.259163 -1.33017e-20)
(0.695281 0.192609 0)
(0.376142 0.103107 0)
(0.140006 0.0386628 -3.26784e-20)
(0.0207691 0.0074129 6.44281e-21)
(-0.0178822 -0.00298552 -3.80514e-21)
(-0.00848978 -0.00166261 -4.50689e-21)
(0.279989 0.0728135 -2.00196e-20)
(1.19832 0.296971 0)
(1.38194 0.354114 2.67989e-20)
(1.41471 0.375854 1.16411e-20)
(1.37647 0.384841 1.46407e-20)
(1.31496 0.386106 0)
(1.25336 0.385073 1.18615e-20)
(1.19169 0.381538 2.15292e-20)
(1.13004 0.374331 1.82926e-20)
(1.06974 0.362179 3.23512e-20)
(1.02085 0.34695 0)
(0.990989 0.333587 -3.94252e-20)
(0.968303 0.319818 -2.35763e-20)
(0.878304 0.284652 -1.39026e-20)
(0.633298 0.202694 8.42439e-20)
(0.321248 0.102639 9.94818e-21)
(0.108495 0.0357509 4.6862e-20)
(0.00500645 0.00400526 -2.21461e-19)
(-0.0240976 -0.00551221 1.31169e-19)
(-0.0093024 -0.00229616 -1.60122e-19)
(0.272063 0.0847439 -1.53598e-20)
(1.20274 0.356412 3.74688e-21)
(1.38956 0.421307 -3.43868e-21)
(1.42012 0.443729 -1.35842e-20)
(1.37887 0.448873 -1.33798e-20)
(1.31509 0.445667 3.53344e-22)
(1.25091 0.440174 -1.27434e-20)
(1.18636 0.432265 2.22359e-20)
(1.12171 0.420777 -3.90312e-20)
(1.05851 0.404531 0)
(1.00735 0.386061 -1.79366e-20)
(0.975687 0.37044 -3.03925e-22)
(0.947628 0.352944 -2.55669e-20)
(0.841479 0.308268 0)
(0.580417 0.21144 -1.81017e-20)
(0.280106 0.102588 -4.26995e-20)
(0.0853496 0.0330651 1.13342e-19)
(-0.00689752 0.000475459 -1.11605e-19)
(-0.0289006 -0.00814279 1.58642e-19)
(-0.00992463 -0.00293417 -1.66934e-19)
(0.264923 0.0955958 -1.20108e-22)
(1.2004 0.412901 -2.98339e-21)
(1.39105 0.486353 -1.23477e-20)
(1.41999 0.509717 6.25389e-21)
(1.37659 0.511341 -6.83486e-21)
(1.31115 0.50389 0)
(1.24496 0.494118 -1.22652e-20)
(1.17811 0.481948 -2.32785e-20)
(1.11103 0.46622 -2.03191e-20)
(1.04545 0.445861 0)
(0.992436 0.424102 -1.84596e-20)
(0.959201 0.406156 -2.25415e-20)
(0.925924 0.384633 2.74651e-20)
(0.805959 0.329996 -1.65505e-20)
(0.535257 0.219178 -7.7886e-20)
(0.247989 0.10282 4.59118e-20)
(0.0671006 0.0304289 1.35359e-20)
(-0.0166596 -0.00320441 0)
(-0.0328839 -0.0108482 -1.51487e-19)
(-0.0103996 -0.00356148 -5.611e-21)
(0.258784 0.105716 -1.4363e-21)
(1.19361 0.466203 2.55414e-21)
(1.38792 0.548674 6.27246e-21)
(1.41555 0.573144 2.0939e-20)
(1.37057 0.571603 -2.66557e-20)
(1.30393 0.560209 2.70613e-20)
(1.23617 0.546397 2.62029e-20)
(1.16745 0.530136 -3.70783e-20)
(1.09834 0.510262 1.209e-20)
(1.03078 0.485808 -7.81936e-20)
(0.976296 0.460747 -2.06042e-20)
(0.941754 0.440417 0)
(0.903585 0.414635 2.95333e-20)
(0.771889 0.349864 3.51163e-20)
(0.496307 0.226097 4.1718e-20)
(0.221798 0.103185 -4.92952e-20)
(0.0516945 0.0277211 -1.45324e-20)
(-0.0253531 -0.00706216 1.71435e-20)
(-0.0365423 -0.0136644 0)
(-0.0108039 -0.0041826 -1.20384e-20)
(0.253583 0.115159 1.01236e-20)
(1.18413 0.516331 -8.31566e-21)
(1.38148 0.608283 -6.27581e-21)
(1.40781 0.633669 1.37145e-20)
(1.36164 0.629281 -1.29009e-20)
(1.29412 0.614259 -8.64711e-22)
(1.22512 0.596706 -2.83616e-20)
(1.15485 0.576575 -1.33268e-20)
(1.08402 0.552677 -3.49486e-20)
(1.01478 0.524159 2.26534e-23)
(0.959148 0.495754 -6.42705e-20)
(0.923567 0.472948 5.3352e-20)
(0.880899 0.442772 -3.20457e-20)
(0.739483 0.367826 3.81383e-20)
(0.462331 0.232255 0)
(0.199648 0.10359 -2.64592e-20)
(0.037884 0.0248526 2.34179e-23)
(-0.033733 -0.0111909 -7.36707e-20)
(-0.0403406 -0.0166967 -1.08981e-20)
(-0.0112242 -0.0048216 0)
(0.249313 0.1242 0)
(1.17302 0.563508 -8.11112e-21)
(1.37255 0.665043 -1.09211e-20)
(1.39758 0.691131 -1.36147e-20)
(1.3505 0.684181 -1.51561e-20)
(1.28234 0.665857 0)
(1.21235 0.644865 -1.35029e-20)
(1.14076 0.621116 -2.51443e-22)
(1.06842 0.59336 7.46056e-20)
(0.997721 0.560812 -1.07543e-20)
(0.941175 0.528978 -4.61975e-20)
(0.904812 0.503571 2.77718e-20)
(0.858133 0.468861 -3.91753e-22)
(0.708794 0.383894 4.04805e-20)
(0.432451 0.237628 2.42447e-20)
(0.180406 0.103853 -5.67104e-20)
(0.0251247 0.0216647 6.68413e-20)
(-0.042223 -0.0157745 1.97514e-20)
(-0.0446494 -0.0201191 8.18626e-20)
(-0.0117949 -0.00553875 -2.21566e-19)
(0.245914 0.133006 5.61685e-22)
(1.16112 0.60791 -2.56958e-21)
(1.36183 0.718699 3.18963e-21)
(1.38553 0.745503 1.27982e-20)
(1.33771 0.736228 0)
(1.26909 0.714911 -1.37088e-20)
(1.19829 0.690789 4.46811e-20)
(1.12556 0.663694 2.94217e-20)
(1.05186 0.632273 0)
(0.979802 0.595738 -1.53435e-19)
(0.922499 0.560348 1.24164e-19)
(0.885594 0.532149 0)
(0.835443 0.492735 3.6902e-20)
(0.679847 0.397987 -2.97316e-22)
(0.406074 0.242127 -7.75726e-20)
(0.163486 0.103733 3.03651e-20)
(0.0132465 0.0179765 0)
(-0.0508289 -0.0209319 1.05856e-19)
(-0.0495754 -0.0240717 0)
(-0.0126141 -0.00640342 -1.03915e-19)
(0.243318 0.141586 1.00557e-22)
(1.14898 0.649771 -1.02313e-21)
(1.34983 0.769324 3.80692e-21)
(1.37219 0.796816 0)
(1.32378 0.785438 -1.46993e-20)
(1.25481 0.761419 0)
(1.18334 0.734457 -4.52339e-20)
(1.10958 0.704296 -1.41881e-20)
(1.03459 0.669438 1.33806e-20)
(0.961204 0.628976 -7.58488e-20)
(0.903194 0.58986 1.29046e-20)
(0.865956 0.558586 0)
(0.812927 0.514233 -7.85097e-20)
(0.652644 0.409982 2.18045e-22)
(0.382826 0.245624 0)
(0.148615 0.10297 2.99421e-23)
(0.00235618 0.0136189 9.59638e-20)
(-0.0592717 -0.0267034 -9.0711e-20)
(-0.0549542 -0.0285864 2.68584e-20)
(-0.0137014 -0.00745301 0)
(0.241203 0.149922 0)
(1.13685 0.689301 2.0539e-22)
(1.337 0.817049 -2.09305e-21)
(1.35801 0.845155 -5.36191e-22)
(1.3091 0.831867 -6.35407e-21)
(1.23988 0.805417 -3.11422e-20)
(1.16782 0.775898 1.67213e-20)
(1.09312 0.742949 -1.63306e-20)
(1.01686 0.704902 5.91737e-20)
(0.942076 0.660617 -1.21437e-19)
(0.883293 0.61757 -7.66605e-22)
(0.845864 0.582819 -3.47887e-20)
(0.790563 0.533206 1.26719e-19)
(0.62717 0.419828 -3.21182e-22)
(0.362406 0.247997 -5.9344e-20)
(0.135635 0.101353 -1.0469e-19)
(-0.00723018 0.00864802 0)
(-0.067056 -0.0329617 0)
(-0.060396 -0.0335561 2.87737e-20)
(-0.0149928 -0.00868641 -1.70528e-20)
(0.239747 0.158211 1.81219e-21)
(1.12494 0.726597 -1.88633e-21)
(1.3237 0.861996 2.22769e-21)
(1.34333 0.890619 0)
(1.294 0.875596 -3.1301e-22)
(1.22459 0.84697 -3.05755e-20)
(1.15202 0.815166 4.18197e-20)
(1.07643 0.779706 6.58856e-20)
(0.998889 0.738744 7.75972e-20)
(0.922575 0.690789 -9.98733e-20)
(0.86282 0.643606 -1.06754e-19)
(0.825217 0.604849 9.30801e-20)
(0.768288 0.549547 0)
(0.603353 0.427423 -2.71259e-20)
(0.344564 0.249157 -6.36051e-20)
(0.124501 0.0989299 -7.47634e-20)
(-0.0153464 0.00327811 -8.81112e-20)
(-0.0737915 -0.0394317 2.60444e-20)
(-0.0654294 -0.0387446 -1.54144e-20)
(-0.0163501 -0.010049 1.45111e-23)
(0.238544 0.166283 0)
(1.11371 0.761603 0)
(1.31019 0.904285 5.121e-22)
(1.32841 0.933324 0)
(1.27873 0.916735 1.89765e-20)
(1.20919 0.886166 2.25575e-20)
(1.13618 0.852328 0)
(1.05973 0.814631 8.12555e-21)
(0.980886 0.771043 1.30803e-19)
(0.902861 0.719641 -2.30072e-19)
(0.841799 0.668169 0)
(0.803868 0.624758 -6.00661e-20)
(0.745901 0.563127 -4.62467e-22)
(0.581073 0.432624 -2.38018e-22)
(0.32919 0.24905 6.80765e-20)
(0.115313 0.096087 3.19838e-24)
(-0.0220532 -0.00166027 -1.88831e-19)
(-0.0797242 -0.0453426 5.5795e-20)
(-0.0700849 -0.0438027 1.65371e-20)
(-0.0176565 -0.011451 0)
(0.237604 0.1741 -1.14641e-20)
(1.10292 0.794841 -3.70129e-21)
(1.29659 0.944012 7.1009e-23)
(1.31346 0.973386 -1.51231e-20)
(1.26351 0.955375 3.08243e-20)
(1.19389 0.923093 0)
(1.12047 0.887464 2.67286e-20)
(1.04321 0.847797 -1.79729e-20)
(0.963029 0.801885 7.98791e-22)
(0.883098 0.747327 1.6895e-20)
(0.820279 0.691512 1.39669e-19)
(0.781642 0.642742 -2.12172e-20)
(0.723108 0.573866 -7.8041e-20)
(0.560125 0.435116 -3.12788e-20)
(0.316571 0.247387 3.65254e-20)
(0.108867 0.0935115 6.35034e-24)
(-0.0270849 -0.00424129 5.05937e-20)
(-0.0864431 -0.0491294 -1.19604e-19)
(-0.0764444 -0.0487299 1.41811e-19)
(-0.0194214 -0.0131189 2.0969e-20)
(0.236712 0.181667 4.92625e-21)
(1.0926 0.826363 -2.44505e-21)
(1.2831 0.981322 1.33635e-21)
(1.29868 1.01094 -5.75916e-21)
(1.2485 0.991643 -5.20735e-21)
(1.17884 0.957844 -4.15484e-20)
(1.10509 0.920651 8.42185e-21)
(1.02703 0.879268 -7.58247e-20)
(0.945491 0.831334 -1.46908e-19)
(0.863444 0.773965 -1.39022e-19)
(0.798349 0.713915 0)
(0.75837 0.659125 -9.3215e-20)
(0.699443 0.581783 1.12439e-19)
(0.540127 0.434325 0)
(0.30725 0.243172 -7.82609e-20)
(0.107825 0.0906542 4.59433e-20)
(-0.0270317 -0.00378226 -5.42059e-20)
(-0.0937645 -0.0508645 -6.41325e-20)
(-0.0881082 -0.0550919 -1.13969e-19)
(-0.0234281 -0.0161122 -8.999e-20)
(0.23618 0.189067 -6.13827e-21)
(1.08264 0.856199 2.63461e-21)
(1.26982 1.0163 4.32531e-21)
(1.28417 1.0461 -5.89771e-21)
(1.23383 1.02565 1.21095e-20)
(1.16417 0.99052 -2.48209e-20)
(1.09013 0.95196 2.78084e-20)
(1.01133 0.909117 -7.93129e-20)
(0.928406 0.859464 -8.79747e-20)
(0.844065 0.79967 1.47515e-19)
(0.776122 0.735643 3.10988e-19)
(0.733932 0.674358 0)
(0.674311 0.587085 0)
(0.520162 0.429571 -3.6011e-20)
(0.301059 0.234679 0)
(0.114031 0.0839522 9.85602e-20)
(-0.0153789 -0.00754352 1.16138e-19)
(-0.09141 -0.0574746 0)
(-0.100456 -0.0660558 0)
(-0.0311726 -0.0218525 9.66843e-20)
(0.235536 0.196047 7.6139e-21)
(1.07309 0.884381 5.76781e-21)
(1.25687 1.04908 3.40386e-21)
(1.27003 1.079 2.86652e-21)
(1.21959 1.0575 1.15582e-20)
(1.14997 1.02121 2.86519e-20)
(1.07571 0.981466 -3.90572e-20)
(0.996214 0.937397 -3.10377e-22)
(0.911908 0.886324 -1.06193e-21)
(0.825118 0.824522 -5.23268e-22)
(0.753763 0.756935 1.61297e-19)
(0.708291 0.68894 0)
(0.647082 0.590311 1.15057e-19)
(0.498522 0.420606 7.77718e-20)
(0.295315 0.219487 1.82097e-19)
(0.126137 0.0653156 5.31179e-20)
(0.0105624 -0.0292767 -6.24286e-20)
(-0.0601254 -0.080948 -3.70111e-20)
(-0.0835409 -0.0804849 0)
(-0.0353838 -0.0276308 1.04347e-19)
(0.235249 0.203048 -1.85045e-20)
(1.06392 0.911018 0)
(1.24425 1.07973 5.48687e-21)
(1.25631 1.10974 1.42005e-21)
(1.20586 1.08731 -1.02034e-20)
(1.1363 1.05 -3.59922e-20)
(1.0619 1.00923 7.96661e-20)
(0.98176 0.964156 -6.07053e-21)
(0.896096 0.911953 0)
(0.806755 0.848559 -1.66468e-19)
(0.731473 0.777975 -3.55672e-19)
(0.681518 0.703396 1.42233e-20)
(0.617285 0.592278 1.61244e-19)
(0.473462 0.408168 0)
(0.285808 0.196583 1.23748e-19)
(0.135416 0.0312392 0)
(0.0389235 -0.0799476 0)
(-0.00380514 -0.136116 -3.98532e-20)
(0.00239198 -0.105334 0)
(0.0139882 -0.00956724 2.8141e-20)
(0.234734 0.209517 -2.17103e-20)
(1.05512 0.936451 0)
(1.23196 1.10845 1.04743e-20)
(1.24298 1.13856 0)
(1.19262 1.11534 4.42738e-21)
(1.12313 1.07719 0)
(1.04865 1.03557 4.46161e-21)
(0.967891 0.989729 1.1349e-20)
(0.880869 0.93671 1.13093e-20)
(0.788833 0.872165 -1.85021e-19)
(0.709081 0.799272 1.09042e-20)
(0.653281 0.718641 1.14896e-19)
(0.58414 0.594171 1.58632e-19)
(0.442984 0.393302 2.08727e-20)
(0.268345 0.168051 9.7962e-20)
(0.131851 -0.0151081 0)
(0.050739 -0.152954 1.31297e-19)
(0.0298664 -0.157512 -7.71742e-20)
(0.0171641 0.0208012 9.08901e-20)
(-0.0389 0.467164 -1.07961e-19)
(0.234278 0.21583 1.86015e-20)
(1.04647 0.960519 2.60564e-20)
(1.21994 1.13558 0)
(1.2299 1.16591 9.77443e-22)
(1.17967 1.14219 -9.54038e-21)
(1.11018 1.10345 5.75719e-20)
(1.03563 1.06127 2.9826e-20)
(0.954187 1.01504 0)
(0.865687 0.961655 7.69395e-20)
(0.770662 0.896585 -9.89304e-21)
(0.685623 0.822214 0)
(0.62207 0.736149 0)
(0.544893 0.596832 1.44296e-19)
(0.403391 0.376103 -6.46091e-20)
(0.2391 0.135643 -1.00847e-19)
(0.113393 -0.0703688 0)
(0.0394555 -0.109598 6.6902e-20)
(-0.000512466 0.440076 -7.76466e-20)
(0.0256873 1.95887 -4.39491e-20)
(0.0510867 2.84074 -5.38561e-20)
(0.233581 0.221659 -1.47422e-20)
(1.03805 0.983403 -3.48285e-20)
(1.20822 1.16113 6.97422e-21)
(1.21709 1.19167 2.24219e-21)
(1.1671 1.16765 0)
(1.09756 1.12853 3.80267e-20)
(1.02309 1.08602 4.37109e-20)
(0.940868 1.03967 -5.75479e-21)
(0.850868 0.986311 1.15443e-20)
(0.752694 0.921311 1.79811e-19)
(0.661822 0.846413 1.8612e-19)
(0.588944 0.756423 1.33522e-19)
(0.500019 0.601789 1.4773e-19)
(0.354158 0.35731 -1.55366e-19)
(0.201672 0.106123 -1.54997e-19)
(0.0757828 -0.0035634 0)
(0.0295818 0.943055 0)
(0.0733932 2.61026 3.78148e-20)
(0.0767219 3.22686 0)
(0.0794151 3.39419 9.93949e-20)
(0.235784 0.22722 0)
(1.03024 1.00552 0)
(1.19648 1.18495 0)
(1.20435 1.21569 1.25319e-21)
(1.15455 1.19149 -7.892e-21)
(1.08508 1.15226 2.53458e-20)
(1.01095 1.10974 2.93569e-20)
(0.927873 1.06349 -5.76947e-21)
(0.836359 1.01051 9.97755e-20)
(0.734946 0.946193 -1.31387e-21)
(0.637837 0.871759 3.74446e-19)
(0.554357 0.779887 -1.55131e-20)
(0.449606 0.611141 1.8447e-20)
(0.295047 0.337071 2.283e-20)
(0.147891 0.111462 -1.0663e-21)
(0.0687891 1.06049 3.21508e-22)
(0.104192 2.79623 -2.04562e-19)
(0.108542 3.30585 -7.70932e-20)
(0.102999 3.42292 4.12924e-20)
(0.0955257 3.44171 -4.71981e-20)
(0.157823 0.171912 9.59959e-21)
(1.01781 1.02959 0)
(1.18447 1.20728 -1.67794e-20)
(1.19216 1.23844 -9.37714e-21)
(1.14248 1.21417 -9.22009e-21)
(1.07344 1.17515 -2.54629e-20)
(0.999003 1.13243 -3.21227e-20)
(0.915239 1.08655 7.00679e-20)
(0.822255 1.03434 -8.38865e-20)
(0.717689 0.97137 0)
(0.614079 0.898397 1.88293e-19)
(0.518989 0.806727 -1.11999e-19)
(0.399531 0.641009 0)
(0.226131 0.323046 2.29087e-20)
(0.102268 0.671758 5.26065e-20)
(0.117482 2.61693 -5.85913e-20)
(0.161625 3.32632 6.63923e-20)
(0.148833 3.42759 3.62127e-20)
(0.125325 3.44637 4.08849e-20)
(0.108535 3.4554 6.68108e-20)
(0.269926 0.26393 -1.79551e-20)
(0.998073 1.03813 0)
(1.16441 1.23248 1.9847e-20)
(1.17649 1.26962 1.37564e-20)
(1.12395 1.24759 4.62899e-21)
(1.05434 1.20882 2.07608e-20)
(0.978664 1.16756 3.82365e-20)
(0.894104 1.12275 5.46082e-21)
(0.799168 1.07244 8.35513e-20)
(0.690447 1.01308 1.64725e-19)
(0.578213 0.944988 1.0911e-20)
(0.463819 0.848972 1.02988e-19)
(0.304581 0.650843 1.82734e-20)
(0.185156 0.795974 -2.25678e-20)
(0.19165 2.5163 -4.95759e-20)
(0.242822 3.32312 4.9834e-20)
(0.225916 3.44534 -5.51986e-20)
(0.193997 3.46574 -3.16217e-20)
(0.162951 3.49101 -3.05884e-20)
(0.119462 3.48826 -4.33401e-21)
(0.259509 0.262426 0)
(0.994007 1.0603 7.15791e-21)
(1.15472 1.25577 -4.50571e-21)
(1.16457 1.29309 -2.12883e-21)
(1.11206 1.2708 7.55594e-22)
(1.0424 1.23216 -1.88043e-20)
(0.966286 1.191 -2.30821e-20)
(0.881241 1.14693 5.09283e-21)
(0.785209 1.09798 -8.92119e-20)
(0.673981 1.04138 -2.43041e-21)
(0.55631 0.977715 -3.53e-19)
(0.430717 0.8822 1.48389e-20)
(0.271159 0.723778 -1.76179e-20)
(0.220246 1.51512 -2.11992e-20)
(0.286965 3.14798 3.56429e-21)
(0.297403 3.44285 -9.27749e-23)
(0.258695 3.48987 8.9543e-20)
(0.226603 3.51669 4.73281e-20)
(0.182145 3.53818 -1.92011e-20)
(0.134036 3.53669 -2.42839e-20)
(0.245039 0.259877 1.94697e-20)
(0.988954 1.08497 4.9451e-20)
(1.1446 1.28114 -1.28226e-20)
(1.15224 1.31819 -7.76538e-21)
(1.09966 1.2955 0)
(1.03004 1.25683 -1.92494e-20)
(0.953772 1.21587 -3.04008e-20)
(0.868498 1.17251 4.69652e-21)
(0.77169 1.12512 -9.91781e-21)
(0.658541 1.07175 -1.56969e-19)
(0.536521 1.01342 -1.67041e-19)
(0.401304 0.917303 -1.2417e-19)
(0.269918 0.891474 -1.35177e-19)
(0.289947 2.34916 1.37572e-19)
(0.371029 3.37161 1.18786e-19)
(0.338904 3.49355 0)
(0.293779 3.53502 0)
(0.258401 3.57073 -1.59821e-20)
(0.217896 3.61529 0)
(0.149739 3.60392 -2.82419e-20)
(0.234789 0.261285 -3.01011e-20)
(0.981922 1.11037 -4.32926e-20)
(1.13304 1.30772 0)
(1.1386 1.34411 1.18218e-21)
(1.08597 1.32085 -4.32729e-21)
(1.01655 1.28208 -2.26585e-20)
(0.940454 1.24137 -1.7827e-20)
(0.855185 1.19871 3.54186e-21)
(0.757868 1.15291 -6.82302e-20)
(0.643291 1.10296 8.20651e-21)
(0.518037 1.05023 0)
(0.372434 0.954613 0)
(0.29193 1.2193 -1.25854e-19)