/*--------------------------------*- C++ -*----------------------------------*\
  =========                 |
  \\      /  F ield         | OpenFOAM: The Open Source CFD Toolbox
   \\    /   O peration     | Website:  https://openfoam.org
    \\  /    A nd           | Version:  6
     \\/     M anipulation  |
\*---------------------------------------------------------------------------*/
FoamFile
{
    version     2.0;
    format      ascii;
    class       volVectorField;
    location    "45";
    object      U;
}
// * * * * * * * * * * * * * * * * * * * * * * * * * * * * * * * * * * * * * //

dimensions      [0 1 -1 0 0 0 0];

internalField   nonuniform List<vector> 
918
(
(0.985047 -0.000710434 0)
(0.00534678 2.96624 0)
(-0.00174859 0.854808 0)
(0.979574 0.00195869 0)
(-0.0141982 2.05188 3.01279e-20)
(-0.00709155 2.94856 -2.64315e-18)
(0.804906 1.12302 4.29146e-19)
(0.26064 0.100269 -1.50774e-20)
(0.999921 -0.00024307 0)
(0.080733 0.728681 0)
(0.0148112 0.509593 0)
(0.73431 -0.0168236 0)
(0.0101972 2.9316 0)
(0.00374501 2.79408 0)
(-0.00071028 3.18882 8.24371e-19)
(-0.0127259 1.90682 7.16087e-21)
(0.320197 0.0223773 9.96026e-19)
(0.234379 1.13726 3.42634e-19)
(0.96446 0.00672288 0)
(-0.0335693 0.48945 0)
(0.0639914 0.155425 -7.16827e-19)
(1.00184 -0.00456127 0)
(0.999852 -0.0089332 0)
(0.975156 -0.00605594 0)
(0.59481 -0.0360487 0)
(0.0222903 2.64461 0)
(-0.0123293 2.91193 9.71859e-19)
(-0.00184428 0.92598 0)
(-0.00653726 1.15959 0)
(-0.00256859 0.897714 0)
(-0.0212987 2.60954 0)
(-0.00434856 2.1051 -2.40561e-20)
(-0.00792588 1.87366 0)
(-0.0221371 2.9876 -9.54759e-23)
(-0.0164972 3.00549 2.05381e-18)
(0.00230029 3.00059 0)
(0.871391 -0.00960444 0)
(0.377077 0.920061 1.65351e-19)
(0.803588 1.13499 -5.27375e-19)
(0.937091 0.988567 5.41739e-19)
(0.670954 1.21904 -9.87455e-20)
(0.682029 1.19372 5.68121e-19)
(0.285449 0.189793 1.47094e-20)
(0.26993 0.0851262 0)
(1.13552 0.517255 0)
(0.250663 0.182441 6.70977e-20)
(0.229682 0.105797 -6.96273e-20)
(0.920439 -0.00701483 0)
(1.00026 7.32635e-05 0)
(0.999909 0.000318493 0)
(1.0037 -0.00728745 0)
(1.00089 -0.000950345 0)
(1.00011 -1.23834e-05 0)
(0.0951998 1.83573 -7.63903e-19)
(0.0343085 0.900641 0)
(0.135622 0.796903 0)
(0.0161025 0.852446 0)
(0.0443271 0.666887 0)
(0.00874419 2.01684 0)
(0.00264254 0.758965 0)
(0.00517002 0.539545 0)
(0.000775 0.750988 0)
(0.0132147 0.497749 0)
(0.841327 -0.0156639 0)
(0.840837 0.0333419 0)
(0.766473 -0.00700989 0)
(0.812033 0.0438273 0)
(0.70113 -0.0172402 0)
(0.0139363 3.00021 9.81816e-19)
(0.0111557 3.00596 0)
(0.00624874 3.00387 0)
(0.0119031 2.99712 1.11606e-23)
(0.00825302 2.95876 -1.45922e-18)
(0.0122371 2.98296 0)
(0.00904731 2.90474 0)
(0.021198 2.93179 2.28436e-24)
(0.00412678 2.82376 0)
(0.0254056 2.91865 0)
(-0.00108574 2.74465 0)
(0.309636 3.58843 0)
(-0.122557 3.67173 0)
(0.152348 3.27985 -7.67247e-19)
(0.00576018 3.01316 0)
(-0.0257651 2.0042 0)
(-0.00714548 2.16599 -7.06247e-21)
(-0.00785887 1.92184 3.47893e-21)
(0.407897 0.138061 -3.44701e-19)
(0.328547 -0.00213094 -3.33256e-19)
(0.379447 0.155772 -1.03644e-18)
(0.306166 0.0368711 -6.80533e-19)
(0.259524 0.999979 0)
(0.33238 1.26571 -3.57487e-19)
(0.407443 1.16802 5.88957e-19)
(0.987874 0.00809704 0)
(0.943404 0.00578536 0)
(1.00029 0.000672872 0)
(1.00254 0.00906963 0)
(1.00313 0.00895821 -2.62892e-18)
(0.992132 0.00946704 1.98658e-18)
(-0.0230703 0.766017 0)
(-0.0141187 0.467349 0)
(-0.0301517 0.989175 0)
(-0.0221522 0.798772 0)
(-0.0118851 0.499682 0)
(0.0779447 0.164889 2.21776e-19)
(0.130264 0.136796 0)
(0.993613 -0.0076989 0)
(0.954013 -0.00646803 0)
(0.755034 0.0498707 0)
(0.690116 0.0551015 0)
(0.661469 -0.0230849 0)
(0.972348 -0.00445054 0)
(0.619031 0.0601236 0)
(0.449522 -0.0290291 1.47629e-18)
(-0.0411501 2.8608 7.76175e-19)
(0.0337191 2.91413 0)
(0.0423544 2.89218 0)
(0.00377256 2.7015 0)
(-0.00882579 2.98654 9.31421e-19)
(-0.0142667 2.8948 0)
(-0.0109517 2.9919 -2.86503e-18)
(-0.0116483 2.92974 9.74411e-19)
(-0.00620266 1.34286 0)
(0.016161 1.37492 0)
(-0.00761059 2.13037 5.15816e-22)
(-0.00614332 2.08847 0)
(-0.0161279 1.88632 0)
(0.938436 -0.00538329 0)
(0.856454 -0.0109467 0)
(0.863573 0.00567435 0)
(0.949346 -0.00629958 0)
(0.883315 -0.00799642 0)
(0.501579 1.12099 -2.0998e-19)
(0.549082 1.19161 0)
(0.33815 0.853501 3.21313e-20)
(0.281852 0.718233 0)
(0.898544 1.02619 -1.51904e-19)
(1.012 0.827746 2.98894e-19)
(0.389527 1.32737 0)
(0.534222 1.27972 0)
(0.585817 1.21288 0)
(0.0967165 0.174825 -2.92987e-19)
(0.30641 0.185402 0)
(0.269366 0.0789331 1.92635e-19)
(0.976642 0.883419 0)
(1.05186 0.727585 0)
(1.07971 0.660996 -2.33189e-19)
(1.11977 0.575803 0)
(1.17434 0.387186 4.45753e-20)
(0.957291 -0.00722178 0)
(0.962615 -0.00818097 0)
(0.900697 -0.00732205 0)
(0.9839 -0.00813919 0)
(0.97437 -0.00807244 0)
(0.936476 -0.00654518 0)
(1.0002 0.00250212 0)
(1.00077 0.00124569 0)
(1 0.000771103 0)
(0.0425429 2.08161 4.2495e-19)
(0.1455 1.77936 0)
(0.0157527 2.19947 6.46747e-19)
(0.0547948 1.88618 -5.43698e-19)
(0.171799 1.11777 -2.80783e-19)
(0.0524927 0.981466 0)
(0.124068 0.97563 0)
(0.00393164 0.8184 0)
(0.0233469 0.603882 0)
(-0.00503167 2.25062 -7.90684e-22)
(0.0199331 2.02351 0)
(-0.00807709 2.25176 -3.14517e-20)
(0.00850452 2.02799 5.00925e-20)
(0.00756381 0.785879 0)
(0.0032044 0.771996 0)
(0.00802692 0.568683 0)
(-0.00595055 0.745461 0)
(-0.00411899 0.491196 0)
(0.937486 0.0135399 0)
(0.853285 -0.0118077 0)
(0.92723 0.00453617 0)
(0.844701 -0.0128314 0)
(0.812228 -0.00119434 0)
(0.899185 0.0224611 0)
(0.873714 0.0279311 0)
(0.788699 -0.00465753 0)
(0.0102782 3.06779 -9.16867e-21)
(0.0149055 3.05905 0)
(0.0124442 2.97026 0)
(0.00765008 2.87667 0)
(0.900517 3.98641 0)
(1.1959 3.38069 9.45061e-19)
(0.0828472 3.09458 0)
(-0.0159872 2.92006 0)
(-0.00228388 1.39309 0)
(-0.0284706 1.70281 0)
(-0.0103849 1.53968 0)
(-0.0308833 2.56617 -9.19916e-21)
(-0.0135652 2.26095 0)
(-0.0207548 2.40531 0)
(0.00306089 1.95164 2.41663e-21)
(-0.00353624 2.24819 -7.57735e-21)
(-0.00666822 2.20793 -3.66686e-21)
(-0.00302975 1.93454 0)
(0.432868 0.115743 5.24602e-19)
(0.350786 -0.0108925 -5.14714e-19)
(0.230339 1.58429 0)
(0.285935 0.746207 -3.2381e-19)
(0.180115 1.67931 -1.07339e-18)
(0.243172 1.20825 1.07425e-18)
(0.901867 0.00609733 0)
(0.967193 0.0105073 0)
(0.975056 0.00976877 0)
(0.92313 0.00595341 0)
(-0.00761346 0.736451 0)
(-0.0225925 0.747382 0)
(-0.00317599 0.474804 0)
(0.212791 0.180034 6.17753e-19)
(0.174049 0.165569 -7.34749e-19)
(0.178584 0.119837 0)
(1.09681 0.0871554 2.45134e-20)
(1.08072 0.0402962 0)
(1.01241 0.0424619 0)
(0.908355 -0.00284647 0)
(0.465537 0.0937468 0)
(0.525038 0.0695245 -2.36637e-18)
(0.387462 -0.0154488 8.91098e-19)
(0.010952 2.97745 8.19029e-19)
(-0.0324234 2.86208 4.74554e-20)
(0.00857967 3.05304 -1.93393e-20)
(0.0157243 3.04346 7.25047e-19)
(-0.0118064 2.99995 3.20407e-20)
(-0.0123465 2.95229 -1.29333e-22)
(-0.0150506 3.01329 -5.97876e-19)
(0.014281 3.02668 4.19931e-19)
(0.00758708 3.0347 -6.82117e-19)
(0.9338 0.00179009 0)
(0.938908 -0.00139834 0)
(0.847008 -0.0110557 0)
(0.956565 0.0115194 0)
(0.942815 0.0129153 0)
(0.881865 0.00581399 0)
(0.916573 0.0177395 0)
(0.925824 0.0147317 0)
(0.83814 0.00237486 0)
(0.675387 1.42142 1.95043e-20)
(0.693736 1.5325 0)
(0.121637 0.307149 6.81052e-20)
(0.201336 0.639097 5.40537e-19)
(0.236114 0.690337 -3.1655e-19)
(0.219663 0.51604 6.26987e-19)
(0.329411 0.807533 1.55204e-18)
(0.126681 0.225989 3.73837e-19)
(0.354673 0.177806 7.2358e-19)
(0.332678 0.188969 1.87304e-19)
(0.282067 0.0610361 3.59366e-19)
(1.16972 0.433498 7.49796e-20)
(1.19917 0.243238 7.44313e-20)
(0.00561779 2.24235 2.53819e-19)
(0.041022 1.94922 0)
(0.968743 0.0321829 0)
(0.94388 0.0188907 0)
(0.866725 -0.0156283 0)
(0.0125247 3.07416 0)
(0.0167856 2.94409 1.28442e-18)
(0.0139351 2.95671 0)
(0.00588898 2.84984 -1.27431e-18)
(0.0094614 3.09088 3.13999e-19)
(0.011385 3.08357 0)
(0.714775 1.83031 -1.73796e-19)
(1.24044 2.63737 5.87348e-19)
(0.699617 2.0089 -1.41091e-18)
(0.0223866 2.97597 -7.15784e-19)
(0.0411952 2.99896 0)
(-0.0384781 2.8791 0)
(-0.0077862 2.23029 -1.23463e-20)
(-0.00561528 2.25148 6.87108e-21)
(0.00629246 1.98696 -7.76234e-21)
(0.266905 1.38589 1.03374e-18)
(0.272562 0.535669 -7.09085e-19)
(0.070912 1.99753 7.61257e-19)
(0.121163 1.86883 -9.16274e-19)
(0.206793 1.52628 1.03137e-19)
(0.00788457 3.11911 -1.75736e-18)
(0.0164173 3.1197 1.92164e-18)
(-0.0051079 2.9801 8.75949e-19)
(-0.000474677 2.97497 -8.44241e-19)
(-0.0180196 2.87796 -8.92181e-19)
(0.0125603 3.09873 -2.33332e-18)
(0.00502213 3.1077 2.34907e-18)
(0.252397 0.679536 0)
(0.204584 0.644525 -1.14143e-18)
(0.0698366 0.210852 5.01603e-19)
(0.341013 0.925024 1.11046e-18)
(0.191473 0.268575 -1.70959e-18)
(1.18356 0.171886 5.17584e-20)
(1.19697 0.29714 0)
(1.17968 0.119633 3.26643e-21)
(-0.00232998 2.26032 -1.51163e-21)
(0.00158106 2.24698 0)
(0.0307686 1.98253 0)
(0.311455 1.3074 -3.69469e-19)
(0.350675 1.15228 -7.98599e-19)
(0.222163 0.37748 1.42388e-18)
(1.00643 -0.00971144 0)
(1.00773 -0.00780457 4.83307e-19)
(-0.00768277 1.3192 0)
(-0.0293351 1.30537 0)
(1.00245 0.0033026 1.37321e-21)
(1.00323 0.00786175 9.92072e-19)
(-0.0230719 2.55165 1.1646e-20)
(-0.0277081 2.59451 0)
(0.042044 3.17305 5.14787e-19)
(0.3784 3.55092 0)
(1.14148 0.680147 -5.74531e-20)
(1.01194 0.0107663 -2.79962e-21)
(1.02078 -0.00909051 0)
(1.0016 0.000241782 1.50388e-22)
(0.109645 1.36379 0)
(0.144448 2.59131 0)
(0.0265141 1.31103 0)
(-0.000358812 2.63684 2.53882e-20)
(-0.0210796 2.58875 9.49097e-21)
(0.998669 0.0268561 2.65003e-21)
(1.06192 0.00502854 0)
(1.09827 0.0272476 0)
(-0.0253827 1.74455 0)
(-0.0220519 2.59447 0)
(-0.00895677 1.30415 0)
(0.291843 1.48298 -1.66803e-19)
(1.01147 -0.0090939 0)
(1.00969 -0.0130031 0)
(1.00229 0.000937011 6.19604e-19)
(1.00548 -0.00494517 -7.29553e-19)
(1.00114 -0.000875759 0)
(-0.0107678 1.45965 0)
(-0.0107585 1.36538 0)
(-0.00253193 1.41506 0)
(-0.0110041 1.29059 0)
(-0.019153 1.26927 0)
(-0.016505 1.25003 0)
(1.03537 -0.0045878 0)
(1.01936 0.0150479 -9.06763e-22)
(0.790738 1.30241 2.68246e-19)
(1.00234 0.000363597 -6.17998e-19)
(1.0034 0.00451116 7.38183e-19)
(1.00129 0.00211585 0)
(1.01127 0.0096778 6.15845e-19)
(1.00693 0.00750013 -7.49775e-19)
(1.00729 0.011251 0)
(-0.0263487 2.6234 0)
(-0.0283657 2.60289 -2.13055e-20)
(-0.0264063 2.61658 1.53821e-20)
(1.23463 0.268017 5.36515e-19)
(1.16043 0.0873627 0)
(0.045172 3.09093 -1.01083e-18)
(0.0509289 2.87186 -7.15649e-20)
(0.104636 3.20122 1.35524e-18)
(0.123434 3.21354 -2.95146e-19)
(0.145572 3.26042 0)
(0.0226944 3.13766 2.78636e-19)
(0.0617136 3.16196 1.00694e-18)
(0.062374 3.17875 -5.209e-19)
(0.0268165 3.12941 0)
(0.62113 0.291935 0)
(0.572649 0.334501 0)
(1.11992 0.711899 1.36446e-19)
(1.08555 0.844911 -1.29079e-19)
(1.18046 0.597522 0)
(1.21137 0.534096 0)
(1.01582 0.0120333 -1.14408e-18)
(1.01476 0.0128058 1.43839e-18)
(1.02557 -0.00882804 0)
(1.02388 -0.0103775 0)
(1.00658 0.00289127 0)
(1.01092 0.00418919 0)
(1.00442 0.00216083 0)
(1.00947 0.00643497 0)
(1.00706 0.00512284 0)
(1.00449 0.00530764 0)
(0.096401 1.36042 0)
(0.0770103 1.34264 0)
(0.136993 1.41031 0)
(0.134954 1.41221 0)
(0.151486 2.61425 0)
(0.190731 2.67996 -4.20681e-19)
(0.108802 2.67583 0)
(0.0827915 2.6762 1.75296e-19)
(0.0286804 2.68042 -1.78698e-19)
(0.0143609 1.31704 0)
(0.019082 1.25048 0)
(0.0178981 1.33415 0)
(0.0285856 1.28154 0)
(0.00195154 1.99098 5.77602e-21)
(-0.0206527 2.61644 -1.15833e-20)
(-0.00772893 2.67935 7.79815e-21)
(-0.0186731 2.69331 0)
(-0.0228748 2.62421 -1.6473e-20)
(-0.0220988 2.61958 1.15504e-20)
(0.0104223 1.98983 -2.37705e-21)
(-0.00828149 2.40891 1.55423e-20)
(-0.0127023 2.43019 -8.84144e-21)
(1.00987 0.0382884 1.15994e-18)
(1.00577 0.0175147 -1.44481e-18)
(1.00302 0.0439275 -1.18656e-18)
(0.976644 0.0304844 1.49429e-18)
(1.06366 0.00837927 0)
(1.04919 -0.00672201 0)
(1.09087 0.0358721 0)
(1.07446 0.0139016 0)
(1.07314 -0.000464141 0)
(1.13907 0.0765395 0)
(1.11322 0.0439408 0)
(1.1157 0.0361387 0)
(-0.0272724 2.44401 9.93783e-22)
(-0.0133839 2.0254 0)
(-0.0167719 2.22842 0)
(-0.0227039 2.61504 -9.57946e-21)
(-0.0196622 2.62421 1.7826e-22)
(0.000702903 1.57464 -3.12102e-20)
(-0.00202743 1.49937 3.17842e-20)
(-0.0149525 1.38647 0)
(-0.0175246 1.39174 0)
(-0.0217925 1.3862 0)
(-0.0029374 1.30862 0)
(0.00739787 1.25196 0)
(0.375061 1.50434 2.76944e-19)
(0.422728 1.50993 1.49766e-19)
(0.604464 2.46396 -2.45481e-19)
(0.388898 2.56111 7.23749e-19)
(0.350561 2.06868 6.87762e-20)
(1.02058 -0.00810314 0)
(1.01573 -0.00941686 0)
(1.01481 -0.0132392 0)
(1.0076 -0.000669782 0)
(1.00492 -0.000667449 0)
(1.00799 -0.00453566 0)
(1.00952 -0.00355585 0)
(1.01458 -0.00441671 0)
(1.02013 0.0159626 1.1222e-18)
(1.01758 0.0147952 -1.42035e-18)
(1.02058 0.0181647 -1.13132e-18)
(1.01828 0.0166323 1.41361e-18)
(0.748719 1.34675 0)
(0.684778 1.38418 2.36143e-19)
(0.855692 1.22663 9.1678e-20)
(0.892058 1.18974 -1.2165e-19)
(1.16693 2.62184 2.70518e-19)
(0.779993 0.121165 5.80048e-19)
(1.16798 0.103557 0)
(1.20775 0.19516 -4.34489e-19)
(1.18837 0.15306 -1.80166e-20)
(1.013 0.158316 0)
(0.0839022 3.02288 3.57364e-19)
(0.0866772 2.90509 -1.20178e-18)
(0.0334893 2.36527 7.63244e-19)
(0.13345 -0.114189 -3.66519e-19)
(0.346299 3.45353 -2.47709e-19)
(0.196253 3.34462 0)
(0.226962 3.40374 3.22671e-19)
(0.227902 3.08135 -1.24584e-18)
(0.261423 3.2014 0)
(0.00589486 3.12271 5.22295e-20)
(0.0170407 3.13123 -5.99315e-19)
(0.0156717 3.12708 8.82078e-19)
(0.0330575 3.14012 0)
(0.031095 3.14969 0)
(1.26299 2.5882 0)
(0.522566 0.820484 -5.25343e-19)
(1.00479 1.01965 1.04629e-22)
(0.970027 1.07176 0)
(0.839323 0.960913 -1.1225e-19)
(1.06086 0.892593 2.68407e-20)
(0.40111 0.361957 -9.01023e-19)
(0.68706 0.308169 -2.34594e-20)
(0.628901 0.227264 4.05936e-19)
(0.596092 0.355914 3.00182e-20)
(0.509055 0.328938 -1.20979e-18)
(0.647659 0.321597 0)
(0.701632 0.414595 6.7813e-19)
(0.701942 0.417742 0)
(0.624216 0.350414 0)
(0.571011 0.284527 0)
(0.780467 0.646366 3.97988e-19)
(1.24317 0.297933 -4.40121e-19)
(1.23378 0.431209 0)
(1.23688 0.386065 0)
(0.727627 0.180464 6.09489e-19)
(0.836393 0.539834 -3.80189e-19)
(0.752448 0.497081 6.75532e-19)
(0.95464 0.42877 -7.01817e-19)
(1.01877 0.0145487 7.61346e-19)
(1.0173 0.0135828 -7.69586e-19)
(1.01611 0.0142241 0)
(1.0367 -0.00478983 0)
(1.03021 -0.00782973 -7.21714e-19)
(1.02837 -0.0107195 7.14277e-19)
(1.02477 0.0105599 0)
(1.0229 0.0145494 0)
(1.01264 0.00453662 0)
(1.01456 0.00908616 0)
(1.01615 0.00403196 0)
(1.01539 0.00278825 0)
(0.062985 1.35694 0)
(0.061142 1.31874 0)
(0.13952 1.41031 5.12746e-20)
(0.266034 1.47754 7.79583e-20)
(0.162485 1.45135 1.71711e-19)
(0.19144 1.45628 -2.79391e-19)
(0.145289 1.41531 0)
(0.12676 1.57955 -1.06871e-19)
(0.125692 1.57239 0)
(0.347196 2.02708 -1.00106e-19)
(0.326693 2.34691 6.20335e-19)
(0.179955 1.45382 9.31688e-20)
(0.264413 1.37819 2.05728e-20)
(0.19051 1.3808 -1.67595e-20)
(0.279445 1.31478 -9.73965e-20)
(0.25136 1.57687 0)
(0.253089 1.62629 1.04775e-19)
(0.0265622 2.27363 -1.74877e-20)
(0.0366568 2.67477 0)
(0.0676053 2.4147 1.03873e-19)
(0.0618294 2.43444 0)
(0.0680361 2.69317 -1.94558e-19)
(0.0424867 2.70846 0)
(0.0271274 1.42336 2.94596e-20)
(0.0370236 1.48392 0)
(0.0320031 1.38952 0)
(0.0228499 1.38508 -3.45309e-20)
(0.00126849 2.66372 -1.43191e-21)
(0.0246935 2.69793 2.05579e-19)
(0.00890981 2.7331 1.20507e-21)
(0.0030639 1.83628 -2.29339e-21)
(-0.00268635 1.68507 -3.88515e-21)
(0.0140011 1.30243 0)
(0.0220811 1.23695 0)
(0.0386537 1.58024 6.36503e-21)
(0.0369703 1.45442 -1.38279e-20)
(0.0342384 1.5261 1.26612e-20)
(0.0435301 1.60851 0)
(-0.03062 2.27784 7.86722e-20)
(-0.0325297 2.56252 -3.2825e-20)
(-0.0202343 2.46001 3.49723e-21)
(-0.00440321 1.85493 2.7811e-21)
(-0.0262919 2.51343 2.98779e-21)
(-0.0224684 2.45266 7.0481e-21)
(1.01844 0.0212113 -7.66918e-19)
(1.01448 0.0273564 7.71096e-19)
(1.01341 0.0166496 0)
(1.01207 0.068565 1.05614e-18)
(0.991414 0.0553855 -1.21799e-18)
(0.952544 0.0522612 1.36344e-18)
(1.0136 0.11304 -1.43765e-19)
(1.04346 -0.00498456 0)
(1.05152 -0.000925668 6.90896e-19)
(1.03989 -0.00831771 -6.90595e-19)
(1.07087 0.0424053 -4.09969e-20)
(1.06408 0.0275672 3.5412e-19)
(1.06397 0.0631018 0)
(1.05415 0.0521751 -1.27412e-19)
(1.03232 0.0432018 0)
(1.02589 0.0384453 0)
(1.02768 0.0132695 0)
(1.02408 0.015838 0)
(1.04026 0.0325504 2.61995e-19)
(1.03959 0.0275758 -5.79903e-19)
(1.05258 0.0368027 -2.77279e-19)
(1.04832 0.0367464 -3.05937e-19)
(1.07645 0.0672583 5.85873e-19)
(1.10008 0.0533496 0)
(1.10646 0.0923314 0)
(-0.0270365 2.2847 5.05509e-20)
(-0.0249894 2.02935 1.02782e-21)
(-0.0213456 2.03832 0)
(-0.0315176 2.45652 -5.0316e-20)
(-0.0261457 2.41368 -1.98031e-21)
(-0.0338934 2.48634 6.0023e-21)
(-0.0211689 2.63331 -9.3735e-21)
(-0.0244026 2.57687 1.33762e-22)
(-0.0234422 2.52901 -3.76125e-21)
(-0.0175193 2.6273 9.68324e-21)
(-0.0213304 2.62909 -1.04314e-20)
(-0.00635371 1.48396 -4.98293e-22)
(-0.00188464 1.62391 -2.99801e-20)
(0.36419 1.43553 -1.16836e-19)
(0.362749 1.36282 2.01578e-20)
(0.632269 1.4309 -2.28543e-19)
(0.510473 1.50145 -1.45129e-19)
(0.560324 1.4632 0)
(0.603792 2.43886 2.0822e-19)
(0.667579 2.43449 3.37894e-19)
(0.416641 2.52619 9.03006e-20)
(0.397655 2.5511 -6.24285e-19)
(0.500417 2.49092 5.72123e-19)
(0.56041 2.47935 0)
(0.489058 2.53446 -5.53146e-19)
(0.257028 2.60139 1.14613e-18)
(0.368355 2.56961 -6.70603e-20)
(0.287294 2.66268 -1.60844e-18)
(0.965651 2.39738 7.03971e-19)
(0.847983 2.39683 0)
(1.01143 0.00125647 2.51194e-20)
(1.01529 -0.00531587 -2.04991e-20)
(1.01764 -0.00410476 -3.74774e-19)
(1.01548 -0.00119364 3.73426e-19)
(1.01301 0.0016961 0)
(0.622809 1.29623 0)
(0.662553 1.18564 0)
(0.776083 1.11047 0)
(0.649807 1.14388 0)
(1.19749 2.63815 5.02777e-20)
(1.08974 2.38744 0)
(0.825313 2.19528 3.4234e-21)
(0.825567 2.45295 0)
(0.919107 2.54122 -4.24616e-19)
(0.951161 2.49088 2.83673e-19)
(0.802853 0.155738 0)
(0.762604 0.13672 1.58124e-19)
(0.918636 0.152068 9.19253e-19)
(0.830685 0.131027 -3.4536e-19)
(0.786158 0.0862874 -1.05605e-18)
(1.08407 0.235159 -8.46764e-19)
(0.981576 0.300353 -7.94426e-21)
(0.930415 0.33493 8.27121e-19)
(1.01618 0.245942 6.94113e-19)
(0.933355 0.194755 -1.21652e-18)
(0.896294 0.205929 1.52113e-19)
(0.940685 0.296656 -3.18464e-19)
(0.909239 0.208599 0)
(0.999939 0.197138 5.95381e-19)
(1.05523 0.209089 0)
(1.05047 0.218035 0)
(1.12174 0.119911 2.68657e-19)
(1.0634 0.186117 -1.05249e-20)
(1.07752 0.238013 -1.53205e-19)
(1.11492 0.204946 0)
(1.02337 0.0473154 5.93935e-19)
(1.03924 0.0614692 7.37811e-19)
(1.03291 0.0452342 -5.89177e-19)
(1.04216 0.0670549 -4.94699e-19)
(1.01498 0.07276 -7.47776e-19)
(0.990537 0.163179 0)
(0.992522 0.105513 0)
(0.961428 0.0659518 -4.84039e-19)
(0.909801 0.0965446 1.9105e-19)
(1.03902 0.112618 6.84303e-19)
(1.07389 0.131353 -7.8688e-19)
(1.06826 0.173199 7.0687e-19)
(1.03498 0.150221 0)
(1.08365 0.117235 0)
(1.05718 0.108626 -3.21696e-19)
(1.04421 0.104371 -5.56711e-19)
(0.589992 1.10953 1.10331e-19)
(0.624397 1.43271 -1.62724e-20)
(1.14786 2.73166 -2.39108e-19)
(1.2004 3.11342 9.4658e-22)
(1.25631 2.73931 -1.19874e-19)
(1.29762 2.71094 1.4996e-20)
(1.27357 2.33356 -3.71972e-20)
(1.18826 3.01931 -6.7374e-20)
(1.20707 2.97623 2.13662e-19)
(1.18252 3.26749 -1.26061e-19)
(1.4018 2.98355 1.56165e-19)
(1.41379 2.92195 0)
(0.556635 0.844287 -4.73645e-20)
(0.231607 1.22171 4.86568e-19)
(0.501373 0.433599 5.74686e-19)
(0.37852 0.195122 6.5994e-19)
(0.536053 0.359473 6.83169e-19)
(0.555655 0.456235 -1.10303e-18)
(0.557993 0.453511 9.04387e-19)
(0.507735 0.382396 -3.48219e-19)
(0.431141 0.31482 7.86392e-19)
(0.745316 0.239325 -3.49401e-19)
(0.711155 0.271199 0)
(0.673939 0.192976 8.52407e-21)
(0.739027 0.499587 3.68663e-19)
(0.692938 0.476566 -1.3405e-18)
(0.641481 0.450948 2.09524e-20)
(0.639748 0.427818 0)
(0.701563 0.728405 3.76025e-19)
(0.819672 0.79739 4.16446e-19)
(0.749961 0.848493 -4.85262e-19)
(0.888352 0.814882 -1.55374e-19)
(0.91909 0.852858 -3.76342e-20)
(0.926745 0.860395 3.85866e-20)
(0.876359 0.671407 -6.7698e-19)
(0.943626 0.719585 1.44458e-19)
(0.992269 0.720924 0)
(0.991054 0.695676 -1.88047e-19)
(1.02841 0.32191 2.1664e-19)
(1.15251 0.322963 2.6313e-19)
(1.06798 0.273518 3.46813e-19)
(0.98987 0.36591 -4.28018e-19)
(1.0413 0.470421 0)
(1.12633 0.415873 0)
(0.893573 0.411783 4.39653e-21)
(0.84131 0.295801 0)
(0.879864 0.283163 3.94384e-19)
(0.907089 0.331191 8.63801e-21)
(0.96703 0.470881 1.96921e-18)
(0.897551 0.535677 5.05837e-19)
(0.917661 0.481553 -5.45407e-19)
(0.833052 0.459588 5.79192e-19)
(0.812407 0.438559 3.58857e-19)
(0.790997 0.406013 -3.51897e-19)
(1.02798 -0.000445221 6.19339e-19)
(1.0203 0.000357047 0)
(1.01893 0.00120009 4.04113e-19)
(1.02254 -0.000953494 -9.14868e-19)
(1.02249 0.00436354 4.4566e-19)
(1.02012 0.0113236 -9.32558e-19)
(1.02094 0.0110828 0)
(1.01987 0.011842 -1.94233e-19)
(1.01648 0.00762512 4.86827e-19)
(1.01672 0.0107359 -2.44355e-19)
(1.01736 0.0103708 1.78835e-19)
(0.0309252 1.32559 0)
(0.0298544 1.35444 0)
(0.0439439 1.33463 0)
(0.0438081 1.29206 0)
(0.0766885 1.36664 1.80961e-20)
(0.0910087 1.33888 -2.763e-20)
(0.050187 1.54886 -9.41201e-21)
(0.105219 1.38061 -4.92877e-20)
(0.0418454 1.46519 1.147e-20)
(0.0448228 1.46275 -9.50651e-21)
(0.0668345 1.3696 -4.04319e-20)
(0.0557468 1.37445 4.61076e-20)
(0.0462059 1.35164 7.42418e-21)
(0.0395032 1.37314 2.68739e-21)
(0.107219 2.38527 -1.13903e-19)
(0.0957139 2.4284 0)
(0.148049 2.03334 1.05422e-19)
(0.11632 1.70595 4.26488e-20)
(0.221789 2.02382 -9.20276e-20)
(0.195267 2.43976 0)
(0.248598 2.38677 -6.04726e-19)
(0.306541 2.38202 4.29268e-19)
(0.25292 1.99396 -2.40631e-19)
(0.136519 2.15876 1.64713e-19)
(0.112897 2.26974 0)
(0.0221018 1.86195 -3.38047e-20)
(-0.00574687 2.39305 -5.92562e-20)
(0.00520865 2.1413 0)
(0.00503776 2.45498 -1.46065e-20)
(0.0254475 2.29996 2.57921e-20)
(0.018259 1.40485 -6.05915e-21)
(0.015993 1.39107 1.04532e-19)
(0.0150195 1.39499 -3.47545e-20)
(0.0206919 1.3949 -2.81712e-20)
(0.0263487 1.42699 0)
(0.0116629 1.37748 0)
(0.00750312 1.30155 -4.57016e-20)
(0.00321108 1.36999 1.28433e-20)
(0.0102666 1.37139 0)
(0.0124036 1.29705 -3.53059e-20)
(0.0200557 1.22902 7.07315e-20)
(1.04205 0.0142461 0)
(1.04842 0.00977903 -6.4651e-20)
(1.03895 0.0232779 -4.67026e-19)
(1.04917 0.0221442 0)
(1.05419 0.021355 0)
(1.03619 0.0121811 -6.74357e-21)
(1.03025 0.012531 7.49948e-19)
(1.0318 0.0167316 9.12017e-19)
(1.02569 0.0205302 0)
(1.02232 0.0210083 0)
(1.03539 0.0250606 4.66325e-19)
(1.02556 0.0272801 0)
(1.02371 0.0273375 0)
(-0.0191421 2.02933 0)
(-0.00548196 1.65344 -2.86811e-21)
(-0.00843002 1.7611 -2.42219e-20)
(-0.00291333 1.37535 0)
(-0.00652984 1.54692 -1.59601e-20)
(-0.00868072 1.45109 1.05085e-20)
(-0.00669286 1.38266 0)
(0.405134 1.65766 0)
(0.356488 1.30242 -2.39839e-20)
(0.277462 1.34455 0)
(0.422059 1.30902 -4.33739e-20)
(0.462428 1.46399 0)
(0.445427 1.4062 4.17234e-20)
(1.04022 2.68615 -1.50671e-20)
(0.980972 2.41819 -8.84684e-19)
(0.940235 2.20938 1.00722e-18)
(0.863385 2.38968 2.37549e-19)
(0.854638 2.50303 0)
(0.921995 2.49996 0)
(0.94944 2.39058 0)
(0.926242 2.37864 -9.21499e-19)
(0.694872 2.47317 -3.70801e-19)
(0.80312 2.45675 -9.63349e-20)
(0.811259 2.43488 7.26881e-20)
(0.704557 2.4083 0)
(0.809103 2.40181 0)
(0.770846 2.41732 -3.63805e-19)
(0.768918 2.48158 0)
(0.611949 1.07318 0)
(0.520022 0.890896 -5.38095e-19)
(0.523274 0.956725 -3.12598e-20)
(0.50659 1.09527 0)
(0.493026 1.00694 8.25233e-19)
(0.77927 0.880367 -1.36065e-19)
(0.786786 1.01553 0)
(0.764433 0.993999 1.9056e-19)
(0.652157 1.02481 0)
(0.648141 0.936641 0)
(1.16522 2.76645 -2.16176e-19)
(1.14057 2.82498 -8.59886e-20)
(0.927491 2.35355 6.71129e-20)
(0.903548 2.33295 -7.35947e-20)
(1.13436 2.74449 0)
(1.08624 2.71312 8.8468e-20)
(1.10195 2.50585 -2.96009e-19)
(1.00216 2.26023 -2.86356e-20)
(0.502335 1.35546 0)
(0.52136 1.09494 -9.72602e-20)
(0.583681 1.18146 0)
(0.856862 0.218262 0)
(0.781092 0.170057 0)
(0.716139 0.137615 0)
(0.858953 0.217329 -6.05787e-19)
(0.771024 0.211662 3.63727e-19)
(0.922569 0.0805201 -3.94592e-19)
(0.944851 0.131416 0)
(0.916397 0.142684 1.7067e-19)
(0.856415 0.098456 6.84501e-19)
(0.816091 0.069998 -4.28668e-19)
(1.10251 3.36081 -6.86932e-19)
(1.16812 3.28347 0)
(1.12177 3.44601 -1.59076e-18)
(0.661357 3.59125 1.3262e-18)
(1.033 3.08735 1.29418e-19)
(0.525939 0.822756 5.61292e-19)
(0.512102 0.79279 0)
(0.376873 0.462688 -1.47406e-19)
(0.472856 0.661811 8.54926e-19)
(0.52783 0.439132 -2.00816e-19)
(0.514827 0.492311 2.31447e-19)
(0.690023 0.535461 4.80368e-19)
(0.723027 0.564345 0)
(0.651035 0.597789 0)
(0.624393 0.550658 0)
(0.998376 0.601334 9.52182e-20)
(0.952339 0.578018 -4.89228e-19)
(0.966347 0.596315 3.68614e-19)
(1.02836 0.528735 -3.64319e-19)
(1.07052 0.500357 0)
(1.07398 0.587281 -9.48211e-20)
(0.862645 0.399429 -8.01526e-19)
(0.857673 0.391027 -1.02082e-18)
(0.800528 0.383602 6.3136e-19)
(0.806836 0.342041 -6.52511e-19)
(0.846645 0.306464 -5.08204e-19)
(0.804565 0.306129 6.25042e-19)
(1.02653 0.00637345 -4.66326e-19)
(1.02618 0.00649981 9.4013e-19)
(1.02979 0.000624748 6.00216e-19)
(1.03394 0.00132387 -7.20883e-19)
(1.03368 0.0110993 0)
(1.0298 0.0112791 -1.1729e-18)
(0.0884761 1.66372 1.1326e-20)
(0.0491339 1.59813 0)
(0.0944486 1.70848 8.66737e-20)
(0.106192 1.68152 -8.03527e-20)
(0.0366006 1.54052 1.7567e-20)
(0.0224683 1.52906 0)
(0.00720558 1.68393 0)
(-0.00168267 1.48766 7.28457e-21)
(0.000561762 1.43073 -6.55286e-21)
(-0.00598785 1.54309 3.5611e-21)
(-0.00142781 1.88889 1.05677e-20)
(-0.0121566 1.9419 -2.41829e-21)
(0.492788 1.37809 -2.47568e-19)
(0.49544 1.37513 2.70692e-19)
(0.438952 1.30001 -6.31521e-21)
(0.426107 1.30032 7.19932e-21)
(0.613483 1.30471 0)
(0.543509 1.39483 1.16725e-19)
(0.544383 1.39832 -1.13624e-19)
(0.469789 1.28195 6.08055e-21)
(0.513817 1.24288 0)
(0.580072 1.21327 0)
(0.669248 2.43582 5.46461e-19)
(0.662233 2.4607 1.27826e-18)
(0.720229 2.47591 -8.78668e-19)
(0.620759 2.44793 -2.00656e-19)
(0.554735 2.54537 2.72024e-19)
(0.494847 2.50687 -7.07136e-19)
(0.990164 2.39512 -5.67309e-19)
(1.02457 2.41361 0)
(0.947152 2.19416 -6.2656e-19)
(1.05646 2.69382 0)
(1.05578 2.67648 0)
(0.615367 2.31016 3.44234e-20)
(1.12412 3.08052 9.96111e-20)
(1.00587 2.98141 -1.54941e-19)
(0.334817 0.855146 0)
(0.350361 0.75936 -2.99858e-19)
(0.54231 0.687698 -3.02456e-19)
(0.381189 2.15637 0)
(0.410319 2.74964 -9.10598e-20)
(0.421624 2.4882 0)
(0.712179 0.686737 -8.04382e-19)
(0.767336 0.682473 1.13162e-18)
(0.78162 0.646759 -1.07434e-18)
(0.686214 0.645575 -1.02343e-19)
(0.748201 0.604845 -4.22142e-19)
(0.979099 2.76656 -7.54539e-20)
(1.01712 2.76962 -1.95337e-19)
(0.568128 2.23541 3.93184e-19)
(0.617179 1.75525 -3.18031e-19)
(0.714678 1.87296 -4.7871e-19)
(0.983469 2.40725 -1.36079e-19)
(0.981891 2.36254 3.50316e-19)
(0.660741 1.79184 3.21373e-20)
(0.468569 1.32123 1.683e-19)
)
;

boundaryField
{
    wall-4
    {
        type            noSlip;
    }
    velocity-inlet-5
    {
        type            fixedValue;
        value           uniform (1 0 0);
    }
    velocity-inlet-6
    {
        type            fixedValue;
        value           uniform (0 3 0);
    }
    pressure-outlet-7
    {
        type            zeroGradient;
    }
    wall-8
    {
        type            noSlip;
    }
    frontAndBackPlanes
    {
        type            empty;
    }
}


// ************************************************************************* //
