/*--------------------------------*- C++ -*----------------------------------*\
  =========                 |
  \\      /  F ield         | OpenFOAM: The Open Source CFD Toolbox
   \\    /   O peration     | Website:  https://openfoam.org
    \\  /    A nd           | Version:  6
     \\/     M anipulation  |
\*---------------------------------------------------------------------------*/
FoamFile
{
    version     2.0;
    format      ascii;
    class       volScalarField;
    location    "82.9";
    object      p;
}
// * * * * * * * * * * * * * * * * * * * * * * * * * * * * * * * * * * * * * //

dimensions      [0 2 -2 0 0 0 0];

internalField   nonuniform List<scalar> 
8800
(
0.854519
0.805204
0.767239
0.739171
0.71901
0.704424
0.693827
0.686289
0.681406
0.67934
0.680715
0.685062
0.691859
0.701285
0.714025
0.731348
0.755226
0.788325
0.831263
0.883777
0.689011
0.695356
0.704506
0.708055
0.705447
0.69936
0.69242
0.68618
0.681381
0.678514
0.678287
0.68092
0.685567
0.6917
0.698803
0.705839
0.71072
0.710598
0.703925
0.695027
0.662522
0.668758
0.673259
0.677131
0.68008
0.68103
0.679944
0.677824
0.675847
0.675013
0.676051
0.67851
0.681403
0.683678
0.684203
0.682418
0.679055
0.675044
0.670265
0.666549
0.658215
0.660981
0.663588
0.665747
0.667486
0.669056
0.670161
0.670517
0.670408
0.670513
0.671326
0.672477
0.673226
0.673083
0.672114
0.670764
0.669099
0.6668
0.664391
0.662825
0.65315
0.654576
0.656416
0.658499
0.660213
0.661508
0.66261
0.663594
0.66441
0.665155
0.665877
0.666349
0.666383
0.666029
0.665368
0.66426
0.66261
0.66072
0.659369
0.658567
0.648148
0.649051
0.650299
0.651928
0.653624
0.65516
0.656449
0.657578
0.658651
0.659681
0.660481
0.660886
0.66091
0.660555
0.659763
0.658584
0.65723
0.65597
0.655152
0.654628
0.643224
0.643881
0.644843
0.646163
0.647615
0.649136
0.650628
0.652001
0.653275
0.654497
0.655468
0.655983
0.65602
0.655601
0.654834
0.653904
0.652923
0.652027
0.65145
0.651066
0.638376
0.638881
0.639668
0.640813
0.642118
0.643542
0.64506
0.646613
0.648141
0.649619
0.650801
0.651438
0.651543
0.651244
0.6507
0.650028
0.649305
0.648652
0.64823
0.64793
0.633547
0.633949
0.634611
0.635637
0.636873
0.638248
0.639765
0.641421
0.643173
0.644947
0.646398
0.647242
0.647552
0.647493
0.647198
0.646754
0.646243
0.645787
0.645476
0.645232
0.628655
0.628983
0.629558
0.630508
0.631702
0.63307
0.63463
0.636396
0.638358
0.640448
0.642251
0.643419
0.644032
0.644253
0.644209
0.644003
0.643696
0.643405
0.643179
0.642974
0.623611
0.623883
0.624399
0.625305
0.626489
0.627891
0.629536
0.631458
0.633669
0.636129
0.638372
0.639959
0.640938
0.641477
0.641707
0.641743
0.641643
0.6415
0.641343
0.641165
0.618322
0.618551
0.61903
0.619924
0.621136
0.622616
0.624391
0.626526
0.62906
0.631978
0.634758
0.636844
0.638253
0.639157
0.639696
0.639981
0.640098
0.640094
0.639994
0.639835
0.612692
0.612887
0.613349
0.614259
0.615542
0.617144
0.619107
0.621525
0.624469
0.627956
0.631388
0.63407
0.63598
0.637304
0.638195
0.638767
0.639106
0.639232
0.639179
0.639032
0.606614
0.606782
0.607243
0.608199
0.609593
0.61137
0.613589
0.616374
0.619833
0.624019
0.628239
0.631634
0.63414
0.635952
0.637247
0.638148
0.638721
0.638975
0.638963
0.638824
0.599962
0.600107
0.600583
0.601614
0.603164
0.605178
0.60773
0.610982
0.61508
0.620121
0.625295
0.629543
0.632756
0.635142
0.636899
0.63817
0.639012
0.6394
0.639426
0.639289
0.592589
0.59271
0.593215
0.594352
0.59611
0.59843
0.601409
0.605245
0.610136
0.616218
0.62254
0.627806
0.631854
0.634922
0.637228
0.638929
0.640069
0.640595
0.640656
0.640517
0.584304
0.58441
0.584951
0.586226
0.588252
0.590962
0.594478
0.599045
0.604911
0.612262
0.619963
0.62644
0.631475
0.635342
0.638306
0.640511
0.641987
0.64266
0.642751
0.642607
0.574835
0.57494
0.575548
0.576995
0.579368
0.582572
0.586763
0.59224
0.599309
0.608201
0.617553
0.625465
0.631663
0.636472
0.640209
0.643007
0.644863
0.645689
0.645807
0.645654
0.563885
0.563969
0.564661
0.566358
0.569174
0.573008
0.57805
0.584667
0.593222
0.603986
0.615308
0.624906
0.632469
0.638386
0.643017
0.646507
0.648787
0.649768
0.649907
0.649741
0.551051
0.551123
0.551921
0.553928
0.557307
0.561949
0.568081
0.576136
0.586534
0.599571
0.613234
0.624799
0.633937
0.641139
0.646813
0.651092
0.653826
0.654956
0.655106
0.654924
0.535742
0.535805
0.536754
0.53918
0.543299
0.549
0.556544
0.566437
0.579137
0.594932
0.611348
0.625182
0.636114
0.644786
0.651642
0.656801
0.66001
0.661267
0.661415
0.661214
0.517152
0.517209
0.518375
0.521391
0.526524
0.533654
0.543074
0.555353
0.570946
0.590073
0.609693
0.626096
0.639048
0.649359
0.657523
0.663643
0.6673
0.668644
0.668771
0.66855
0.494057
0.49412
0.495641
0.499547
0.506139
0.515277
0.52727
0.5427
0.561938
0.585058
0.608343
0.627597
0.642764
0.654868
0.664444
0.671537
0.675572
0.676934
0.677018
0.676779
0.464611
0.464705
0.466831
0.472175
0.481043
0.493143
0.508778
0.528406
0.552204
0.580026
0.607418
0.629759
0.64728
0.661285
0.672338
0.680328
0.684588
0.685872
0.685891
0.685639
0.425613
0.425841
0.429221
0.437225
0.449939
0.466631
0.487471
0.512628
0.541998
0.575214
0.607079
0.632669
0.652619
0.668545
0.681058
0.68975
0.693994
0.695087
0.695026
0.694769
0.37099
0.372136
0.378881
0.392419
0.411867
0.435671
0.463723
0.495859
0.531763
0.570941
0.607514
0.636416
0.658782
0.676564
0.690374
0.699428
0.703337
0.704143
0.704004
0.703753
0.291955
0.299713
0.315229
0.338937
0.368447
0.401771
0.438591
0.478694
0.521787
0.567388
0.608961
0.641389
0.666356
0.686108
0.700964
0.71001
0.713386
0.713894
0.713707
0.713495
0.207849
0.224812
0.250012
0.284641
0.324754
0.367729
0.413316
0.461477
0.512019
0.564541
0.611793
0.648333
0.676377
0.698299
0.714083
0.72251
0.725025
0.725238
0.725076
0.724941
0.135713
0.156461
0.189742
0.233742
0.283257
0.335318
0.389434
0.445498
0.503287
0.562382
0.614857
0.655023
0.68565
0.709243
0.725286
0.732803
0.734658
0.734768
0.734642
0.73454
0.0765937
0.0996494
0.138477
0.189192
0.246047
0.305701
0.367337
0.43064
0.495186
0.560427
0.617699
0.661115
0.693873
0.718607
0.734674
0.741583
0.743139
0.743225
0.74313
0.743038
0.027584
0.0520127
0.0948503
0.150799
0.213519
0.279412
0.347439
0.41712
0.487807
0.558743
0.620479
0.666852
0.701482
0.727172
0.743202
0.749664
0.751067
0.751174
0.751117
0.751032
-0.0139473
0.0112844
0.0570785
0.117273
0.184933
0.256148
0.329709
0.405034
0.481302
0.557527
0.623488
0.67265
0.70904
0.735532
0.751488
0.757648
0.758964
0.759111
0.759097
0.759019
-0.050069
-0.024317
0.0237802
0.0874967
0.159389
0.235257
0.313749
0.394192
0.47562
0.55685
0.626869
0.678741
0.716786
0.744063
0.760025
0.765967
0.767283
0.767482
0.767518
0.767454
-0.0823045
-0.0561471
-0.00616291
0.0605641
0.136136
0.216111
0.299065
0.384243
0.470529
0.556574
0.630561
0.68514
0.724885
0.753013
0.769117
0.775065
0.776364
0.776578
0.776655
0.776608
-0.111711
-0.0851876
-0.0336013
0.0357492
0.114573
0.198216
0.285228
0.374804
0.465729
0.556461
0.634423
0.69175
0.733291
0.762418
0.778877
0.784922
0.786214
0.78641
0.786481
0.786446
-0.139126
-0.11222
-0.0592019
0.0125171
0.0942325
0.181171
0.271889
0.365569
0.460939
0.556295
0.63827
0.698435
0.74187
0.772116
0.789022
0.795213
0.796496
0.796649
0.796699
0.79668
-0.164977
-0.137711
-0.0833815
-0.00955035
0.0747574
0.164674
0.25879
0.356302
0.455929
0.555876
0.641938
0.70504
0.750414
0.781802
0.799206
0.805545
0.80682
0.806909
0.806927
0.806918
-0.189757
-0.162053
-0.106509
-0.0307573
0.0558853
0.148499
0.245737
0.346825
0.450519
0.555012
0.645276
0.711424
0.758773
0.791288
0.809128
0.815549
0.816811
0.816826
0.816797
0.816785
-0.213627
-0.185478
-0.128794
-0.0513057
0.037436
0.132494
0.23259
0.337006
0.444568
0.553551
0.648156
0.717504
0.766857
0.800366
0.818504
0.824948
0.826136
0.826084
0.826011
0.82599
-0.236751
-0.208129
-0.150388
-0.0713213
0.0193079
0.11657
0.219265
0.326751
0.437975
0.551368
0.650448
0.723222
0.774656
0.80903
0.827245
0.833547
0.834631
0.834516
0.834406
0.834377
-0.259251
-0.23013
-0.171371
-0.0908705
0.0014349
0.100678
0.205726
0.316023
0.430673
0.548353
0.652031
0.728534
0.782239
0.817364
0.835357
0.841327
0.842242
0.842068
0.841932
0.841896
-0.281208
-0.251535
-0.191778
-0.109981
-0.0161872
0.0848093
0.191968
0.304812
0.422627
0.544406
0.652788
0.73338
0.789704
0.825584
0.843053
0.848358
0.848987
0.848756
0.848612
0.848571
-0.302513
-0.272313
-0.211608
-0.128667
-0.0335563
0.0689933
0.178015
0.293145
0.413838
0.539488
0.652593
0.737674
0.797142
0.834012
0.850683
0.854869
0.85495
0.854642
0.854531
0.854496
-0.323164
-0.292454
-0.230873
-0.146911
-0.0506435
0.0532625
0.163923
0.281058
0.404343
0.533568
0.651335
0.741275
0.804554
0.84298
0.85887
0.861397
0.860359
0.859813
0.859853
0.859906
-0.343221
-0.311949
-0.249569
-0.1647
-0.0674069
0.0376776
0.149758
0.268627
0.394193
0.526652
0.648899
0.744008
0.81181
0.852673
0.868397
0.869094
0.866071
0.864631
0.864917
0.865483
-0.362561
-0.330779
-0.267654
-0.181982
-0.0838046
0.0223071
0.135597
0.255938
0.383472
0.518791
0.645196
0.745654
0.818642
0.862927
0.879756
0.879547
0.874292
0.870562
0.869416
0.8693
-0.381274
-0.348965
-0.285143
-0.198798
-0.0998783
0.00710727
0.121388
0.242931
0.372108
0.509918
0.640065
0.745951
0.824817
0.873375
0.892782
0.893685
0.887487
0.87968
0.870781
0.872414
-0.399292
-0.366576
-0.302176
-0.215344
-0.115919
-0.00824223
0.106728
0.229143
0.359589
0.499454
0.632917
0.744234
0.830058
0.88372
0.90649
0.910358
0.903513
0.890095
0.869845
0.870156
-0.416491
-0.383588
-0.318598
-0.231438
-0.13167
-0.0234498
0.0918078
0.214875
0.346174
0.487575
0.623682
0.739624
0.833255
0.892581
0.916879
0.921465
0.914266
0.885574
0.828631
0.804508
-0.432764
-0.400953
-0.334018
-0.246649
-0.146341
-0.0380306
0.0769081
0.200402
0.332139
0.47444
0.612367
0.731413
0.833027
0.898548
0.918623
0.917931
0.897432
0.842139
0.779702
0.741866
-0.474882
-0.418
-0.348136
-0.261906
-0.160692
-0.0529684
0.0621752
0.185593
0.317262
0.459663
0.598483
0.718808
0.825397
0.89712
0.907986
0.886324
0.830725
0.760955
0.69051
0.651706
-0.449439
-0.431006
-0.369604
-0.282669
-0.182959
-0.0754358
0.0390737
0.161957
0.292937
0.434359
0.572483
0.691958
0.791207
0.870552
0.847008
0.729207
0.632835
0.565897
0.49957
0.523592
-0.479607
-0.448046
-0.385781
-0.299334
-0.199993
-0.0926034
0.0221284
0.144418
0.274488
0.414353
0.550197
0.666446
0.754432
0.79914
0.739456
0.592236
0.477736
0.400521
0.316211
0.358413
-0.502852
-0.468949
-0.40499
-0.318505
-0.219213
-0.111826
0.00281298
0.124351
0.25313
0.39072
0.522847
0.633114
0.709282
0.715683
0.600874
0.439529
0.305803
0.209694
0.112315
0.140657
-0.525394
-0.490489
-0.42521
-0.338094
-0.238737
-0.131471
-0.0173446
0.103246
0.23046
0.365281
0.492496
0.59388
0.652931
0.625573
0.4598
0.277864
0.114379
-0.0222362
-0.148526
-0.138892
-0.547623
-0.512373
-0.446227
-0.358551
-0.259081
-0.152051
-0.0385996
0.0808632
0.206171
0.337717
0.459004
0.55137
0.589263
0.513901
0.320749
0.11966
-0.0698899
-0.225824
-0.432007
-0.511777
-0.570228
-0.53507
-0.468432
-0.380374
-0.280781
-0.173961
-0.0611402
0.0571255
0.180347
0.308252
0.422973
0.505933
0.516451
0.389893
0.19368
-0.018663
-0.212886
-0.37568
-0.499753
-0.616265
-0.594277
-0.559063
-0.492181
-0.403948
-0.304374
-0.197879
-0.0858081
0.0310498
0.151785
0.275387
0.382936
0.45269
0.43476
0.272098
0.074684
-0.131443
-0.309007
-0.407396
-0.43358
-0.44689
-0.6199
-0.584644
-0.517605
-0.429365
-0.330007
-0.224031
-0.112984
0.00211459
0.119854
0.238313
0.338249
0.389364
0.35166
0.158724
-0.0363888
-0.222178
-0.356485
-0.394991
-0.403762
-0.404068
-0.64738
-0.611941
-0.544745
-0.456611
-0.357633
-0.252431
-0.1427
-0.0297479
0.0844721
0.197011
0.288352
0.322344
0.251434
0.054882
-0.133587
-0.294864
-0.370484
-0.384844
-0.385945
-0.385814
-0.676724
-0.640986
-0.573624
-0.485692
-0.387275
-0.283079
-0.174976
-0.0645675
0.0456438
0.151589
0.232984
0.251518
0.141608
-0.0395453
-0.217282
-0.344874
-0.374395
-0.375387
-0.376128
-0.375744
-0.707681
-0.67162
-0.604147
-0.516531
-0.418854
-0.315929
-0.209797
-0.102333
0.00341459
0.102173
0.173454
0.172548
0.0442993
-0.126213
-0.28327
-0.356192
-0.371477
-0.370207
-0.370186
-0.369876
-0.739696
-0.703494
-0.636054
-0.548902
-0.452187
-0.350831
-0.247019
-0.142929
-0.0419991
0.0491934
0.110168
0.0928042
-0.0452017
-0.202561
-0.327869
-0.365793
-0.3654
-0.366074
-0.366036
-0.36582
-0.772325
-0.736076
-0.668855
-0.582388
-0.486922
-0.38746
-0.286358
-0.186082
-0.0903024
-0.00642276
0.0418735
0.0174939
-0.126178
-0.263531
-0.354636
-0.362726
-0.363731
-0.363662
-0.363456
-0.363303
-0.804603
-0.768489
-0.70182
-0.616348
-0.522501
-0.425333
-0.327345
-0.231297
-0.141075
-0.0638335
-0.0264525
-0.0577919
-0.195305
-0.308783
-0.362565
-0.372219
-0.365473
-0.362964
-0.362174
-0.361856
-0.834744
-0.799445
-0.733909
-0.649889
-0.558138
-0.463735
-0.369304
-0.277825
-0.193549
-0.122549
-0.0896795
-0.135457
-0.251476
-0.345595
-0.368687
-0.369361
-0.366965
-0.365037
-0.364221
-0.363707
-0.861621
-0.827426
-0.763711
-0.6818
-0.592761
-0.501711
-0.411342
-0.324742
-0.246472
-0.18204
-0.151392
-0.202519
-0.293885
-0.365303
-0.386553
-0.375612
-0.372197
-0.370701
-0.369806
-0.369331
-0.882535
-0.850321
-0.789458
-0.710544
-0.625041
-0.538068
-0.452336
-0.370983
-0.298515
-0.240527
-0.212652
-0.254379
-0.321576
-0.367094
-0.3711
-0.372811
-0.372877
-0.372495
-0.372164
-0.372149
-0.895412
-0.865992
-0.809059
-0.734362
-0.653434
-0.571403
-0.490965
-0.415271
-0.34857
-0.295366
-0.268596
-0.297014
-0.338071
-0.370262
-0.368094
-0.370082
-0.370516
-0.370277
-0.370323
-0.370349
-0.897537
-0.872038
-0.820393
-0.751386
-0.676291
-0.600234
-0.525804
-0.456096
-0.395445
-0.345885
-0.314753
-0.334815
-0.347339
-0.372944
-0.371916
-0.369595
-0.369495
-0.369503
-0.369538
-0.369459
-0.88659
-0.865893
-0.821317
-0.759852
-0.692114
-0.623178
-0.55549
-0.491976
-0.437363
-0.393105
-0.348724
-0.368161
-0.348923
-0.351664
-0.360139
-0.364704
-0.368054
-0.370033
-0.370801
-0.370938
-0.860149
-0.844978
-0.809915
-0.758505
-0.699836
-0.639216
-0.578994
-0.521838
-0.472484
-0.4355
-0.388186
-0.384484
-0.368075
-0.35124
-0.358477
-0.37126
-0.376908
-0.37959
-0.380568
-0.380884
-0.821643
-0.811957
-0.787297
-0.747573
-0.699445
-0.648071
-0.595778
-0.545028
-0.500388
-0.46911
-0.438695
-0.418877
-0.410989
-0.427736
-0.437062
-0.418741
-0.4037
-0.398853
-0.398041
-0.398004
-0.778114
-0.772604
-0.758397
-0.730119
-0.692998
-0.650606
-0.605895
-0.561239
-0.520453
-0.49077
-0.463579
-0.449788
-0.445102
-0.460945
-0.433403
-0.40964
-0.406902
-0.407037
-0.406331
-0.405603
-0.73953
-0.73619
-0.729449
-0.71149
-0.683412
-0.648643
-0.610385
-0.570402
-0.531694
-0.500023
-0.473587
-0.452821
-0.428261
-0.408989
-0.397206
-0.405115
-0.416888
-0.414337
-0.411307
-0.41427
-0.711723
-0.709747
-0.706298
-0.695691
-0.674423
-0.645245
-0.61118
-0.573469
-0.534496
-0.49926
-0.473268
-0.445386
-0.430395
-0.437349
-0.487614
-0.567369
-0.6028
-0.588639
-0.547825
-0.537896
-0.691258
-0.690556
-0.689384
-0.68414
-0.668573
-0.643124
-0.610386
-0.572498
-0.531116
-0.48959
-0.458261
-0.435918
-0.430684
-0.478502
-0.551614
-0.577092
-0.590234
-0.57952
-0.551155
-0.536583
-0.679295
-0.679062
-0.678446
-0.675982
-0.665383
-0.641956
-0.609094
-0.569266
-0.523528
-0.472583
-0.430695
-0.376473
-0.33579
-0.334111
-0.385668
-0.435855
-0.402287
-0.340363
-0.284733
-0.257791
-0.671054
-0.670903
-0.670494
-0.669753
-0.663276
-0.642117
-0.608162
-0.565238
-0.513725
-0.451587
-0.388944
-0.307116
-0.190817
-0.0611373
0.0531112
0.144968
0.243573
0.3244
0.380312
0.404827
-0.665669
-0.665644
-0.665552
-0.665438
-0.661462
-0.643404
-0.608543
-0.561904
-0.504635
-0.4318
-0.348533
-0.250969
-0.0748449
0.186467
0.478911
0.746617
0.940765
1.04656
1.08542
1.09583
-0.661132
-0.661189
-0.66121
-0.661191
-0.659717
-0.645145
-0.610488
-0.560659
-0.497855
-0.41659
-0.320951
-0.215907
-0.0139798
0.294069
0.634309
0.952274
1.19639
1.32188
1.36038
1.367
-0.657477
-0.657435
-0.65704
-0.656198
-0.655414
-0.646198
-0.614954
-0.563948
-0.495778
-0.409521
-0.31001
-0.20371
-0.0214804
0.265878
0.579842
0.86892
1.08869
1.20568
1.24867
1.25926
-0.65702
-0.656831
-0.656035
-0.654271
-0.653012
-0.649226
-0.624468
-0.571377
-0.49811
-0.411959
-0.314646
-0.215101
-0.0620353
0.189161
0.44952
0.680596
0.862249
0.966567
1.00816
1.01962
-0.659303
-0.659855
-0.66174
-0.665228
-0.667923
-0.667455
-0.641268
-0.580238
-0.506363
-0.424444
-0.330995
-0.243365
-0.12579
0.079743
0.295154
0.477108
0.619996
0.707344
0.743549
0.752463
-0.65923
-0.661348
-0.667857
-0.681891
-0.699048
-0.699348
-0.658266
-0.588855
-0.521512
-0.444207
-0.355338
-0.278809
-0.191799
-0.0290864
0.143176
0.282745
0.391481
0.45853
0.484743
0.490369
-0.667738
-0.669818
-0.67503
-0.681189
-0.689116
-0.68823
-0.650313
-0.593839
-0.54163
-0.466859
-0.383668
-0.316372
-0.253015
-0.130504
0.00272977
0.107911
0.187241
0.235506
0.2531
0.256088
-0.69159
-0.692703
-0.692597
-0.67141
-0.627444
-0.603594
-0.599852
-0.595578
-0.560848
-0.488429
-0.412304
-0.353801
-0.302222
-0.211042
-0.109954
-0.0331279
0.0210121
0.0533479
0.0652905
0.0671536
-0.718256
-0.717488
-0.712073
-0.675007
-0.599508
-0.547823
-0.581042
-0.616971
-0.583207
-0.51036
-0.438893
-0.388811
-0.344208
-0.272376
-0.194634
-0.138773
-0.099683
-0.077244
-0.0692363
-0.0680399
-0.761792
-0.758785
-0.76568
-0.77013
-0.764521
-0.731274
-0.722811
-0.700782
-0.62939
-0.532566
-0.467491
-0.418286
-0.380354
-0.324183
-0.260434
-0.214349
-0.18256
-0.163672
-0.156788
-0.15607
-0.880561
-0.891226
-0.936219
-0.994351
-1.02127
-1.00121
-0.937075
-0.826285
-0.68383
-0.561182
-0.491496
-0.437536
-0.406424
-0.359288
-0.302348
-0.261722
-0.2329
-0.216471
-0.210924
-0.210791
-1.02269
-1.04358
-1.09286
-1.14164
-1.16655
-1.14635
-1.06657
-0.901658
-0.710066
-0.584396
-0.498888
-0.446876
-0.42308
-0.377973
-0.327195
-0.29089
-0.263483
-0.248003
-0.242839
-0.243269
-1.06152
-1.08023
-1.11317
-1.14701
-1.1673
-1.14989
-1.06369
-0.865768
-0.68874
-0.57354
-0.481125
-0.441478
-0.423197
-0.38057
-0.335014
-0.302892
-0.279283
-0.266463
-0.262491
-0.263192
-0.952139
-0.966706
-0.994194
-1.02505
-1.04538
-1.03228
-0.942116
-0.766409
-0.629892
-0.514399
-0.446287
-0.417582
-0.398758
-0.364103
-0.32838
-0.302637
-0.283906
-0.273719
-0.27085
-0.271719
-0.705789
-0.721611
-0.752472
-0.791403
-0.821827
-0.81387
-0.73784
-0.625569
-0.5214
-0.437688
-0.399472
-0.369422
-0.358305
-0.332187
-0.306542
-0.290541
-0.278291
-0.272058
-0.27033
-0.271331
-0.381362
-0.394199
-0.421136
-0.459891
-0.495188
-0.507735
-0.480291
-0.438202
-0.389614
-0.357375
-0.330954
-0.312454
-0.306269
-0.289211
-0.27831
-0.271766
-0.267617
-0.266005
-0.26567
-0.26647
-0.0917422
-0.0993566
-0.117853
-0.149559
-0.191535
-0.227773
-0.25303
-0.266693
-0.271481
-0.267753
-0.257519
-0.253332
-0.249636
-0.24265
-0.242058
-0.244842
-0.248757
-0.252015
-0.252983
-0.25338
0.0834852
0.0790906
0.0661789
0.0397144
-0.00153627
-0.0559787
-0.10925
-0.150193
-0.173728
-0.187474
-0.193899
-0.190095
-0.189686
-0.191846
-0.199337
-0.207804
-0.215868
-0.221293
-0.222679
-0.222864
0.14837
0.145444
0.135836
0.114359
0.0777198
0.0304003
-0.0219899
-0.0701921
-0.106421
-0.127568
-0.133041
-0.13045
-0.132464
-0.138746
-0.149467
-0.159754
-0.167755
-0.172213
-0.173457
-0.173767
0.146021
0.144065
0.137159
0.121325
0.093654
0.0550985
0.0128524
-0.0269979
-0.0580978
-0.0769595
-0.0827275
-0.0783404
-0.0790576
-0.0891424
-0.100433
-0.108141
-0.112568
-0.114399
-0.115394
-0.116025
0.112303
0.111157
0.106768
0.0963876
0.0781436
0.0529113
0.02321
-0.00632814
-0.0294148
-0.0431636
-0.0457935
-0.0387233
-0.0392691
-0.0495592
-0.0577893
-0.0614278
-0.0620164
-0.0618386
-0.0626184
-0.0634647
0.0659837
0.0654951
0.0632203
0.0576438
0.0476397
0.0336672
0.017369
0.000813853
-0.0124597
-0.0198932
-0.0208608
-0.0175404
-0.019284
-0.0233963
-0.0266099
-0.0263729
-0.0240601
-0.0225294
-0.0234008
-0.0244564
0.0140494
0.0141214
0.014405
0.0140926
0.0124075
0.00943521
0.00571998
0.00199327
-0.000804841
-0.00302849
-0.00375264
-0.00473076
-0.00371508
-0.00393023
-0.00471361
-0.00490567
-0.00517121
-0.00551002
-0.00520428
-0.00511766
-0.0100022
0.177174
0.348783
0.493731
0.609156
0.699644
0.774496
0.835211
0.850313
0.847011
0.276074
0.396028
0.508278
0.605281
0.686609
0.753442
0.806015
0.841544
0.860607
0.877361
0.469835
0.54959
0.628368
0.697334
0.756024
0.80463
0.842898
0.872183
0.894272
0.913531
0.613137
0.669702
0.726671
0.777758
0.821753
0.859256
0.890756
0.917224
0.937308
0.956206
0.728547
0.771089
0.813306
0.852913
0.88831
0.919603
0.947034
0.9703
0.988135
1.0062
0.824447
0.859751
0.894511
0.927822
0.958579
0.986439
1.01106
1.03176
1.04744
1.06492
0.912098
0.943807
0.975803
1.00674
1.03552
1.06172
1.08469
1.10351
1.11736
1.13437
0.998586
1.03101
1.06327
1.09433
1.12297
1.14864
1.17068
1.18813
1.20046
1.21698
1.09273
1.1291
1.16375
1.19612
1.2252
1.25047
1.27152
1.28776
1.29934
1.31547
1.20567
1.24631
1.28323
1.31608
1.3445
1.36844
1.38802
1.40326
1.41513
1.4312
1.34698
1.388
1.42324
1.45276
1.47792
1.4995
1.51798
1.53344
1.54654
1.56249
1.51846
1.55072
1.57762
1.59994
1.62
1.63871
1.65643
1.67319
1.68809
1.70381
1.7047
1.72194
1.73905
1.75572
1.77181
1.78653
1.80043
1.8149
1.83014
1.84743
1.88809
1.89803
1.91121
1.92219
1.9316
1.94125
1.95185
1.96203
1.97131
1.99698
2.10593
2.10023
2.08728
2.07303
2.06673
2.07243
2.09057
2.11909
2.15285
2.18918
2.40875
2.27281
2.19329
2.15076
2.13343
2.13741
2.16484
2.2227
2.33036
2.50877
0.758212
0.751909
0.744181
0.733069
0.719502
0.706858
0.69647
0.688471
0.682773
0.679469
0.679155
0.682025
0.687288
0.694669
0.704234
0.716076
0.729647
0.742582
0.751575
0.759118
0.667271
0.673191
0.681265
0.687401
0.690474
0.689969
0.686893
0.682912
0.679344
0.67709
0.676996
0.67929
0.683078
0.687549
0.691669
0.693928
0.692864
0.688235
0.681185
0.673354
0.660505
0.662878
0.666148
0.668925
0.671381
0.673578
0.674769
0.674639
0.673725
0.672952
0.673213
0.674675
0.676495
0.677753
0.677701
0.67625
0.674104
0.671752
0.668776
0.665761
0.655694
0.656782
0.658702
0.661045
0.662924
0.664333
0.665565
0.666577
0.667204
0.667623
0.668231
0.66903
0.669542
0.669459
0.668858
0.667956
0.66664
0.664682
0.662582
0.661107
0.650641
0.651274
0.652406
0.654171
0.656024
0.657629
0.658897
0.659984
0.660999
0.661945
0.662796
0.663383
0.663575
0.663411
0.662907
0.661958
0.66055
0.658954
0.657626
0.656826
0.645678
0.646117
0.646909
0.648221
0.649754
0.651333
0.652831
0.654155
0.655349
0.656494
0.657524
0.658206
0.658451
0.658268
0.657644
0.656677
0.655547
0.654421
0.653529
0.652997
0.640796
0.641123
0.641739
0.642818
0.644128
0.645546
0.647049
0.648557
0.649996
0.651367
0.652607
0.653449
0.653757
0.653576
0.65303
0.652286
0.651471
0.650638
0.649989
0.6496
0.635967
0.636221
0.636718
0.637641
0.638831
0.640161
0.641613
0.643181
0.644816
0.646459
0.647967
0.649004
0.649446
0.649427
0.649109
0.648613
0.648018
0.647418
0.646952
0.646655
0.631118
0.631319
0.631735
0.632549
0.633665
0.634953
0.636397
0.638018
0.639807
0.641713
0.643539
0.644865
0.645567
0.645812
0.64575
0.645493
0.645115
0.644714
0.64439
0.644157
0.626162
0.626324
0.626681
0.627424
0.628498
0.629774
0.631256
0.632972
0.634935
0.63712
0.639323
0.641043
0.642101
0.642663
0.642878
0.642868
0.642717
0.6425
0.642294
0.642108
0.621007
0.621138
0.621454
0.622155
0.623216
0.624525
0.626086
0.627944
0.630136
0.632666
0.635329
0.637536
0.639022
0.639951
0.640481
0.64074
0.640815
0.640778
0.640675
0.640524
0.615561
0.615666
0.615954
0.616639
0.617725
0.61911
0.620794
0.622851
0.625345
0.628309
0.631539
0.634331
0.63632
0.637676
0.638563
0.639116
0.63944
0.639583
0.639568
0.639445
0.609721
0.609804
0.610078
0.610771
0.611916
0.613419
0.615284
0.617608
0.62049
0.623997
0.627918
0.631413
0.634002
0.635853
0.637151
0.638054
0.638646
0.638964
0.639029
0.638927
0.603373
0.603436
0.603704
0.604428
0.60567
0.60734
0.609449
0.612123
0.615495
0.619672
0.624434
0.628776
0.632079
0.634517
0.636288
0.637581
0.638477
0.638987
0.63913
0.639044
0.596378
0.596422
0.596693
0.597471
0.598849
0.600741
0.60317
0.606291
0.610275
0.615274
0.621058
0.626417
0.630568
0.633699
0.636031
0.637772
0.639017
0.639734
0.639955
0.639881
0.588584
0.588602
0.588875
0.589731
0.591288
0.593467
0.596305
0.599986
0.604731
0.610741
0.61776
0.624335
0.629492
0.633442
0.63644
0.638717
0.640357
0.6413
0.641597
0.641531
0.579728
0.579741
0.580039
0.580995
0.582784
0.585329
0.588681
0.593064
0.598752
0.605999
0.614509
0.622535
0.628884
0.633796
0.637577
0.640495
0.642592
0.643782
0.644155
0.644093
0.569547
0.569535
0.569875
0.570984
0.573075
0.576085
0.580088
0.585352
0.592211
0.600972
0.611281
0.621027
0.628778
0.634825
0.63953
0.643191
0.645816
0.647274
0.64772
0.647657
0.557702
0.557668
0.558059
0.559355
0.561823
0.565433
0.570265
0.576643
0.584962
0.59558
0.608051
0.619827
0.629214
0.636584
0.642372
0.646892
0.650113
0.651853
0.652365
0.652296
0.543686
0.54363
0.544101
0.545651
0.548605
0.552988
0.558891
0.566692
0.576849
0.58975
0.604811
0.618964
0.630234
0.639121
0.646165
0.651661
0.65554
0.657563
0.658126
0.658044
0.526806
0.526728
0.527327
0.529231
0.532837
0.538253
0.54557
0.555222
0.567715
0.583432
0.601574
0.618471
0.631884
0.642487
0.650936
0.657531
0.662112
0.664392
0.664981
0.664878
0.506072
0.505977
0.506783
0.509203
0.513728
0.520577
0.529821
0.541937
0.557434
0.57662
0.59839
0.618406
0.634208
0.64671
0.656695
0.664493
0.669768
0.672246
0.672823
0.672692
0.479977
0.479883
0.481033
0.484257
0.490176
0.499118
0.511104
0.526581
0.545961
0.569388
0.595363
0.618848
0.637243
0.651797
0.663438
0.672472
0.678358
0.680926
0.681442
0.681277
0.446084
0.446042
0.447816
0.452424
0.460685
0.472921
0.488949
0.509053
0.533414
0.561926
0.592663
0.619907
0.641041
0.657737
0.671081
0.681307
0.687615
0.690111
0.690512
0.690313
0.400048
0.400224
0.403372
0.410887
0.423527
0.441186
0.463226
0.489587
0.520142
0.554559
0.590519
0.62172
0.645657
0.664494
0.679516
0.690757
0.697149
0.699366
0.699609
0.699385
0.333752
0.335169
0.342834
0.357061
0.377762
0.40406
0.434583
0.468896
0.506742
0.547713
0.589183
0.624398
0.651103
0.671994
0.688463
0.70034
0.706411
0.708136
0.708213
0.707991
0.254637
0.257415
0.272329
0.296881
0.328628
0.365136
0.404827
0.447506
0.493035
0.541083
0.588763
0.62873
0.658882
0.682315
0.700376
0.71249
0.717976
0.719292
0.719308
0.719174
0.173662
0.180922
0.203325
0.238194
0.280627
0.327111
0.375963
0.427048
0.48029
0.535403
0.589261
0.633892
0.667322
0.693226
0.712756
0.724642
0.729078
0.729834
0.729791
0.729711
0.107504
0.116764
0.143938
0.186101
0.236912
0.291839
0.348937
0.40789
0.468471
0.530288
0.589891
0.638737
0.675002
0.702775
0.723029
0.734457
0.73826
0.738857
0.738829
0.738776
0.0532988
0.0632963
0.094101
0.141673
0.198788
0.260454
0.32447
0.390322
0.457556
0.525579
0.59052
0.643226
0.681977
0.711263
0.732039
0.743089
0.746503
0.747025
0.74703
0.747002
0.00795521
0.0182778
0.0515607
0.103347
0.165621
0.232875
0.302727
0.374555
0.447734
0.521443
0.591375
0.647674
0.688723
0.719369
0.740507
0.751229
0.754407
0.754924
0.754975
0.754974
-0.0310007
-0.0205442
0.0145824
0.0697381
0.136325
0.20838
0.283331
0.360457
0.439012
0.517995
0.592638
0.6524
0.695617
0.727519
0.74897
0.759471
0.762463
0.762993
0.763117
0.763162
-0.0652784
-0.0547855
-0.0182223
0.0397244
0.10999
0.18622
0.265704
0.347645
0.43118
0.515136
0.594322
0.657451
0.70281
0.735962
0.757811
0.768171
0.771125
0.771725
0.771891
0.771974
-0.0961566
-0.0856519
-0.0479387
0.0124038
0.0858713
0.165782
0.249334
0.335695
0.423902
0.512626
0.59626
0.662752
0.710315
0.744794
0.767181
0.777651
0.780632
0.781218
0.781401
0.781516
-0.124645
-0.114109
-0.0753804
-0.0129139
0.0633986
0.146582
0.233805
0.324236
0.416854
0.510201
0.598249
0.668168
0.718005
0.753948
0.777048
0.787762
0.790791
0.791337
0.791493
0.791611
-0.151328
-0.140745
-0.101097
-0.0367191
0.0421203
0.128238
0.218797
0.312988
0.40977
0.507623
0.600103
0.673531
0.725734
0.763207
0.787075
0.798105
0.801197
0.801683
0.801785
0.801881
-0.176687
-0.166028
-0.125516
-0.0594017
0.0217045
0.110466
0.204067
0.301735
0.402452
0.504688
0.601643
0.678695
0.73333
0.77234
0.797016
0.808293
0.811439
0.811863
0.811897
0.811965
-0.201087
-0.190264
-0.148939
-0.0812267
0.00192173
0.0930626
0.189438
0.290322
0.39474
0.50123
0.60271
0.683532
0.740693
0.781209
0.806589
0.818028
0.821182
0.821531
0.82149
0.821523
-0.224656
-0.213641
-0.171538
-0.102372
-0.0173842
0.0759066
0.174798
0.278637
0.386523
0.49711
0.603161
0.687952
0.747761
0.789725
0.81562
0.827104
0.830155
0.830423
0.830324
0.830326
-0.247574
-0.236313
-0.193462
-0.122934
-0.0362996
0.0589169
0.160082
0.266617
0.377726
0.492243
0.602867
0.691856
0.75454
0.797954
0.824135
0.835405
0.838275
0.838449
0.838299
0.838276
-0.269836
-0.258353
-0.21477
-0.142967
-0.0548629
0.0420674
0.145274
0.254247
0.368318
0.486541
0.601708
0.69515
0.761044
0.806016
0.83226
0.843028
0.845536
0.845588
0.845405
0.845364
-0.291521
-0.27979
-0.235452
-0.162485
-0.0730859
0.0253581
0.130378
0.241541
0.358299
0.479964
0.599582
0.697721
0.767282
0.814124
0.840303
0.850157
0.852025
0.851885
0.851691
0.851649
-0.312503
-0.300586
-0.255514
-0.181502
-0.090951
0.00883208
0.11543
0.228531
0.347695
0.472519
0.596404
0.69944
0.773205
0.822472
0.848708
0.857247
0.857964
0.857412
0.857244
0.85726
-0.332925
-0.320733
-0.274953
-0.200014
-0.10845
-0.00749462
0.100496
0.215269
0.336558
0.464241
0.592116
0.700154
0.778675
0.831138
0.858001
0.865135
0.864008
0.862426
0.862225
0.862526
-0.352623
-0.340196
-0.293769
-0.217988
-0.125519
-0.0235547
0.0856427
0.201857
0.324967
0.455154
0.586691
0.699705
0.783481
0.839993
0.868514
0.874959
0.871746
0.868115
0.867211
0.867992
-0.371721
-0.359015
-0.311921
-0.23538
-0.142134
-0.0392934
0.0709426
0.188357
0.313009
0.445363
0.580145
0.697909
0.787349
0.848663
0.88
0.88737
0.883261
0.877112
0.872051
0.864903
-0.39011
-0.377195
-0.329496
-0.252358
-0.158517
-0.0549839
0.0560748
0.174387
0.300271
0.434423
0.572045
0.694316
0.790055
0.857138
0.892272
0.90243
0.899486
0.890889
0.878766
0.878308
-0.407754
-0.394817
-0.346506
-0.268871
-0.174661
-0.0705949
0.0410612
0.15992
0.286703
0.42218
0.562156
0.68834
0.790707
0.864594
0.903517
0.916602
0.914702
0.906174
0.870961
0.833025
-0.424455
-0.411737
-0.362907
-0.284803
-0.19057
-0.086138
0.0258923
0.145076
0.272355
0.408638
0.550336