/*--------------------------------*- C++ -*----------------------------------*\
  =========                 |
  \\      /  F ield         | OpenFOAM: The Open Source CFD Toolbox
   \\    /   O peration     | Website:  https://openfoam.org
    \\  /    A nd           | Version:  6
     \\/     M anipulation  |
\*---------------------------------------------------------------------------*/
FoamFile
{
    version     2.0;
    format      ascii;
    class       volScalarField;
    location    "84.1";
    object      p;
}
// * * * * * * * * * * * * * * * * * * * * * * * * * * * * * * * * * * * * * //

dimensions      [0 2 -2 0 0 0 0];

internalField   nonuniform List<scalar> 
8800
(
0.834704
0.785389
0.747424
0.719356
0.699196
0.68461
0.674014
0.666476
0.661595
0.659531
0.660908
0.665257
0.672055
0.681482
0.694222
0.711545
0.735424
0.768523
0.811462
0.863976
0.669195
0.67554
0.684691
0.68824
0.685632
0.679545
0.672606
0.666367
0.661569
0.658704
0.658479
0.661114
0.665762
0.671896
0.679
0.686037
0.690919
0.690796
0.684124
0.675226
0.642706
0.648942
0.653443
0.657315
0.660265
0.661215
0.660129
0.658012
0.656036
0.655203
0.656244
0.658705
0.661599
0.663875
0.664401
0.662617
0.659254
0.655244
0.650465
0.646749
0.638397
0.641163
0.643771
0.64593
0.647669
0.64924
0.650346
0.650704
0.650596
0.650704
0.651519
0.652672
0.653423
0.653281
0.652313
0.650964
0.649299
0.647001
0.644592
0.643026
0.633331
0.634756
0.636597
0.63868
0.640395
0.641691
0.642794
0.64378
0.644597
0.645346
0.64607
0.646544
0.64658
0.646228
0.645569
0.644461
0.642812
0.640922
0.639572
0.63877
0.628326
0.62923
0.630478
0.632107
0.633804
0.635341
0.636631
0.637762
0.638838
0.639871
0.640675
0.641083
0.641109
0.640756
0.639965
0.638787
0.637434
0.636175
0.635357
0.634833
0.6234
0.624056
0.625019
0.62634
0.627792
0.629315
0.630808
0.632183
0.633461
0.634686
0.635662
0.63618
0.63622
0.635803
0.635038
0.63411
0.63313
0.632234
0.631658
0.631273
0.618548
0.619053
0.619841
0.620986
0.622293
0.623718
0.625238
0.626794
0.628325
0.629807
0.630995
0.631636
0.631744
0.631448
0.630907
0.630237
0.629515
0.628863
0.628441
0.62814
0.613715
0.614117
0.614779
0.615806
0.617044
0.61842
0.619939
0.621599
0.623355
0.625134
0.626592
0.627441
0.627755
0.6277
0.627408
0.626966
0.626456
0.626002
0.625691
0.625447
0.608818
0.609146
0.609722
0.610673
0.611869
0.613239
0.614801
0.616571
0.618537
0.620634
0.622444
0.623619
0.624238
0.624463
0.624423
0.624219
0.623914
0.623625
0.6234
0.623194
0.603768
0.60404
0.604557
0.605464
0.60665
0.608054
0.609703
0.611629
0.613846
0.616313
0.618566
0.62016
0.621147
0.621691
0.621925
0.621965
0.621867
0.621726
0.621569
0.621391
0.598472
0.5987
0.599181
0.600075
0.60129
0.602773
0.604552
0.606692
0.609233
0.61216
0.614952
0.617047
0.618464
0.619375
0.619919
0.620209
0.620329
0.620327
0.620227
0.620068
0.592834
0.593028
0.593491
0.594403
0.595688
0.597294
0.599261
0.601685
0.604637
0.608136
0.611581
0.614274
0.616195
0.617527
0.618425
0.619003
0.619346
0.619473
0.619421
0.619274
0.586745
0.586913
0.587375
0.588333
0.58973
0.591511
0.593735
0.596526
0.599995
0.604195
0.608431
0.61184
0.614359
0.61618
0.617484
0.618392
0.61897
0.619227
0.619216
0.619076
0.580081
0.580226
0.580703
0.581736
0.583289
0.585307
0.587866
0.591125
0.595236
0.600292
0.605485
0.60975
0.612978
0.615378
0.617144
0.618424
0.619273
0.619663
0.61969
0.619553
0.572694
0.572815
0.57332
0.574459
0.576221
0.578546
0.581532
0.585378
0.590282
0.596383
0.602728
0.608014
0.612081
0.615164
0.617482
0.619196
0.620343
0.620873
0.620934
0.620795
0.564392
0.564497
0.565039
0.566316
0.568346
0.571062
0.574585
0.579163
0.585045
0.592418
0.600146
0.606648
0.611705
0.615591
0.618572
0.62079
0.622276
0.622952
0.623044
0.6229
0.554901
0.555006
0.555615
0.557064
0.559441
0.562652
0.566851
0.572341
0.579428
0.588346
0.597729
0.605672
0.611897
0.616729
0.620487
0.623299
0.625167
0.625997
0.626116
0.625963
0.543924
0.544008
0.544701
0.546402
0.549222
0.553063
0.558115
0.564747
0.573322
0.584117
0.595476
0.60511
0.612704
0.618649
0.623304
0.626815
0.629107
0.630093
0.630232
0.630066
0.531058
0.531131
0.531929
0.53394
0.537324
0.541974
0.548117
0.556189
0.566611
0.579684
0.593389
0.604996
0.614172
0.621407
0.62711
0.631414
0.634162
0.635297
0.635447
0.635264
0.51571
0.515773
0.516724
0.519154
0.523279
0.528988
0.536545
0.546457
0.559185
0.575021
0.591487
0.60537
0.616346
0.625056
0.631947
0.637134
0.640358
0.64162
0.641767
0.641565
0.497072
0.497129
0.498297
0.501317
0.506457
0.513596
0.52303
0.535331
0.550958
0.570132
0.589809
0.606269
0.619272
0.62963
0.637832
0.643983
0.647656
0.649002
0.649128
0.648906
0.473918
0.473981
0.475504
0.479415
0.486013
0.495161
0.507172
0.522628
0.541905
0.56508
0.588432
0.607749
0.622975
0.635132
0.64475
0.651877
0.655925
0.657287
0.657369
0.657128
0.444393
0.444487
0.446616
0.451967
0.460844
0.472956
0.488612
0.508272
0.532116
0.560003
0.58747
0.609884
0.627472
0.641533
0.652637
0.660658
0.664925
0.666205
0.666222
0.665968
0.405291
0.40552
0.408905
0.416918
0.429645
0.446356
0.467222
0.492419
0.521843
0.555134
0.587086
0.612759
0.632783
0.648772
0.661337
0.670055
0.674298
0.675383
0.675319
0.675062
0.350523
0.351672
0.358429
0.371986
0.391455
0.415286
0.443374
0.475558
0.511528
0.550791
0.587465
0.616461
0.63891
0.656762
0.670622
0.679692
0.683589
0.684383
0.684241
0.683991
0.271279
0.279058
0.294607
0.31835
0.347894
0.381257
0.418124
0.458286
0.501454
0.547152
0.58884
0.621377
0.646434
0.666264
0.681162
0.690207
0.693557
0.694052
0.693863
0.693652
0.186937
0.203951
0.229204
0.263886
0.304047
0.347071
0.392713
0.44094
0.491562
0.544189
0.591562
0.628224
0.656376
0.678381
0.694193
0.702589
0.705067
0.705266
0.705102
0.704969
0.114591
0.135402
0.168753
0.21282
0.262393
0.314512
0.36869
0.424824
0.482694
0.541894
0.594493
0.634792
0.665542
0.689227
0.705284
0.712746
0.714556
0.714652
0.714524
0.714424
0.0552857
0.078412
0.117321
0.168112
0.225032
0.284749
0.34645
0.409822
0.474448
0.539786
0.597179
0.640727
0.673622
0.698456
0.714526
0.721366
0.722873
0.722942
0.722843
0.722752
0.00611411
0.0306186
0.0735452
0.129576
0.192365
0.258322
0.326414
0.39616
0.466916
0.537936
0.599777
0.646278
0.681041
0.706831
0.722846
0.729222
0.730569
0.730655
0.730589
0.730503
-0.0355541
-0.0102436
0.035645
0.0959233
0.163654
0.234933
0.308555
0.38394
0.460263
0.536551
0.602585
0.651845
0.68834
0.714902
0.730811
0.736866
0.738135
0.73826
0.738235
0.738154
-0.0717901
-0.0459578
0.00223867
0.0660391
0.138002
0.213933
0.292484
0.372978
0.454448
0.535708
0.605766
0.657688
0.695804
0.723088
0.73894
0.74475
0.746002
0.746187
0.746214
0.746146
-0.104118
-0.077881
-0.0277941
0.0390196
0.114662
0.1947
0.27771
0.362929
0.449242
0.535293
0.609272
0.663849
0.703591
0.731653
0.747572
0.753331
0.754576
0.754784
0.754856
0.754804
-0.133596
-0.106994
-0.0553038
0.0141376
0.0930335
0.176738
0.263804
0.353418
0.444355
0.53507
0.612979
0.670254
0.711729
0.7407
0.756884
0.762704
0.763933
0.764132
0.764215
0.764177
-0.161062
-0.13408
-0.0809567
-0.00914399
0.072646
0.159649
0.25042
0.344135
0.439508
0.534826
0.61672
0.676784
0.720096
0.750119
0.766691
0.772618
0.773826
0.773989
0.774052
0.774026
-0.186946
-0.159607
-0.105171
-0.0312429
0.0531428
0.143126
0.237297
0.334844
0.434472
0.534367
0.620327
0.683296
0.728517
0.759635
0.776645
0.782701
0.783888
0.783986
0.784018
0.78401
-0.211743
-0.183969
-0.128319
-0.0524663
0.0342581
0.126942
0.224239
0.325364
0.429061
0.533502
0.623651
0.689648
0.736813
0.769029
0.786457
0.792572
0.793731
0.793754
0.793742
0.793733
-0.235615
-0.207401
-0.15061
-0.0730181
0.0158097
0.110944
0.211103
0.315562
0.423134
0.532072
0.626559
0.695749
0.744907
0.778104
0.795811
0.801936
0.803018
0.802964
0.802907
0.802891
-0.258732
-0.230047
-0.1722
-0.093026
-0.002306
0.095037
0.197803
0.305341
0.416585
0.529944
0.628919
0.701532
0.752754
0.786795
0.804573
0.810562
0.811534
0.811414
0.811318
0.811294
-0.281213
-0.252034
-0.19317
-0.112559
-0.0201578
0.079173
0.184298
0.294658
0.409342
0.527008
0.630601
0.706948
0.760429
0.795198
0.812742
0.818395
0.819204
0.819023
0.818899
0.818868
-0.303145
-0.273418
-0.213558
-0.131646
-0.0377517
0.0633384
0.170584
0.283501
0.401366
0.523158
0.631481
0.711934
0.768018
0.803502
0.820497
0.825494
0.826024
0.825788
0.825656
0.825619
-0.32442
-0.29417
-0.233363
-0.150303
-0.0550877
0.0475618
0.156678
0.271894
0.392657
0.518347
0.63143
0.716397
0.775613
0.812039
0.828193
0.832066
0.832059
0.83176
0.831664
0.831632
-0.345036
-0.314281
-0.252598
-0.168516
-0.0721387
0.0318734
0.142638
0.259871
0.383244
0.51254
0.630329
0.720194
0.783221
0.821148
0.836457
0.838644
0.837534
0.837021
0.837093
0.837153
-0.365056
-0.333743
-0.271261
-0.18627
-0.0888637
0.0163327
0.128525
0.247505
0.373178
0.505741
0.628059
0.723143
0.79071
0.831028
0.846093
0.846396
0.843292
0.841931
0.842306
0.842903
-0.384355
-0.352536
-0.289312
-0.203517
-0.105222
0.00100715
0.114417
0.234879
0.36254
0.497996
0.624525
0.725019
0.797812
0.841527
0.857623
0.85694
0.851566
0.847937
0.846944
0.846918
-0.403028
-0.370685
-0.306765
-0.220296
-0.121256
-0.0141477
0.10026
0.221936
0.351258
0.489238
0.619565
0.725562
0.804293
0.852286
0.870907
0.871245
0.86482
0.856995
0.848153
0.849883
-0.421003
-0.388257
-0.323761
-0.236804
-0.137256
-0.0294519
0.0856526
0.208212
0.338822
0.47889
0.612595
0.72411
0.809889
0.863032
0.884995
0.888217
0.88099
0.867425
0.847025
0.847505
-0.43816
-0.40523
-0.340146
-0.252861
-0.152967
-0.0446144
0.0707838
0.194006
0.325486
0.467124
0.603535
0.71977
0.813469
0.872365
0.895886
0.899784
0.892021
0.863114
0.806247
0.782192
-0.454394
-0.422562
-0.355529
-0.268034
-0.167597
-0.0591502
0.0559344
0.179593
0.311528
0.454096
0.592387
0.711825
0.813627
0.87884
0.898203
0.896776
0.875774
0.820259
0.757836
0.720019
-0.496473
-0.439584
-0.369609
-0.283256
-0.181907
-0.0740447
0.0412513
0.164843
0.296725
0.43942
0.578653
0.699469
0.806386
0.877871
0.888175
0.865819
0.809673
0.739617
0.669108
0.630257
-0.470959
-0.452499
-0.391014
-0.30396
-0.204115
-0.0964485
0.0182195
0.141288
0.2725
0.414248
0.55284
0.672915
0.77262
0.851772
0.827628
0.709134
0.612362
0.545159
0.478706
0.502522
-0.501087
-0.469503
-0.407154
-0.320585
-0.221108
-0.113573
0.00132298
0.123805
0.254116
0.394324
0.530653
0.647532
0.73601
0.78063
0.720258
0.572431
0.457547
0.38008
0.295663
0.337631
-0.524285
-0.490364
-0.426323
-0.339716
-0.240287
-0.132752
-0.0179452
0.10379
0.232816
0.370757
0.503371
0.614274
0.690935
0.697265
0.581729
0.419887
0.285837
0.189492
0.09201
0.120183
-0.546774
-0.511855
-0.446497
-0.359261
-0.259767
-0.152351
-0.0380549
0.0827357
0.2102
0.345371
0.473062
0.575042
0.634546
0.607069
0.440602
0.258252
0.0945274
-0.0422341
-0.168598
-0.159146
-0.568945
-0.533684
-0.467462
-0.379669
-0.280063
-0.172883
-0.059261
0.0604027
0.185962
0.317851
0.439586
0.532455
0.570779
0.495039
0.301428
0.0999833
-0.0897313
-0.245728
-0.451869
-0.531556
-0.591487
-0.556322
-0.489612
-0.40144
-0.301712
-0.194743
-0.0817528
0.0367134
0.160183
0.288417
0.403542
0.486964
0.497771
0.370814
0.174166
-0.0384966
-0.23283
-0.395564
-0.519581
-0.63591
-0.615467
-0.58025
-0.513302
-0.424959
-0.325252
-0.21861
-0.106371
0.0106848
0.131661
0.255573
0.363459
0.433626
0.415817
0.252804
0.0549394
-0.151571
-0.329232
-0.427408
-0.453513
-0.466868
-0.641016
-0.605762
-0.538661
-0.450315
-0.350831
-0.24471
-0.133497
-0.0182046
0.0997674
0.21851
0.318706
0.370063
0.33244
0.139254
-0.0563653
-0.242735
-0.377161
-0.415387
-0.42407
-0.424388
-0.668417
-0.632984
-0.565733
-0.477499
-0.378398
-0.273056
-0.163163
-0.0500226
0.0644189
0.177214
0.268748
0.302861
0.231962
0.0353085
-0.153707
-0.315947
-0.391751
-0.40568
-0.406587
-0.406408
-0.697679
-0.661951
-0.59454
-0.506514
-0.407979
-0.303648
-0.195389
-0.0847993
0.0256215
0.131798
0.213323
0.231927
0.122108
-0.0590947
-0.237191
-0.365984
-0.395726
-0.396199
-0.396708
-0.396256
-0.728549
-0.692503
-0.624987
-0.537284
-0.439496
-0.336442
-0.230161
-0.122523
-0.0165783
0.0823863
0.153759
0.152832
0.0249541
-0.145422
-0.302282
-0.376192
-0.391737
-0.390318
-0.390222
-0.389881
-0.760474
-0.724291
-0.656815
-0.569584
-0.472766
-0.371288
-0.267336
-0.163081
-0.0619662
0.0294184
0.0904656
0.0732084
-0.0643897
-0.221179
-0.345522
-0.384168
-0.384475
-0.38536
-0.385395
-0.385193
-0.79301
-0.756784
-0.689534
-0.602996
-0.507436
-0.407862
-0.30663
-0.206198
-0.110248
-0.0261656
0.0221986
-0.00188605
-0.145245
-0.281958
-0.372078
-0.380653
-0.382335
-0.382557
-0.382472
-0.382342
-0.825191
-0.789106
-0.722418
-0.636883
-0.542952
-0.445682
-0.347575
-0.251386
-0.161
-0.0835392
-0.046012
-0.0770731
-0.214298
-0.327913
-0.381203
-0.390907
-0.384382
-0.382101
-0.381398
-0.381089
-0.855238
-0.819969
-0.754423
-0.67035
-0.578526
-0.484033
-0.389492
-0.297898
-0.213447
-0.14226
-0.109237
-0.154725
-0.270295
-0.365294
-0.388168
-0.388487
-0.386371
-0.384653
-0.383866
-0.383369
-0.882019
-0.847858
-0.784142
-0.702189
-0.613089
-0.521962
-0.431499
-0.344797
-0.26637
-0.2018
-0.170794
-0.221958
-0.311971
-0.384245
-0.40589
-0.3944
-0.391121
-0.389717
-0.388922
-0.388521
-0.90284
-0.870662
-0.809807
-0.730863
-0.645311
-0.558271
-0.47247
-0.391013
-0.318464
-0.260322
-0.232078
-0.274279
-0.339131
-0.382526
-0.387757
-0.390496
-0.390905
-0.390806
-0.390686
-0.390728
-0.915629
-0.886246
-0.82933
-0.754614
-0.67365
-0.591567
-0.511069
-0.435301
-0.368572
-0.315198
-0.288208
-0.317661
-0.357546
-0.382986
-0.383899
-0.388358
-0.389879
-0.389998
-0.390148
-0.3902
-0.917674
-0.892211
-0.840589
-0.771575
-0.696453
-0.620363
-0.545872
-0.476148
-0.415436
-0.365787
-0.335303
-0.356659
-0.376522
-0.39526
-0.395233
-0.392856
-0.391981
-0.391528
-0.391348
-0.391226
-0.906651
-0.885989
-0.841445
-0.779983
-0.712231
-0.643263
-0.575546
-0.511995
-0.457317
-0.413301
-0.369772
-0.39381
-0.386936
-0.409166
-0.402867
-0.39466
-0.392507
-0.392315
-0.392241
-0.39211
-0.880157
-0.865016
-0.829986
-0.778587
-0.71991
-0.659268
-0.599026
-0.54178
-0.492468
-0.455661
-0.408171
-0.402805
-0.384984
-0.380277
-0.380271
-0.387406
-0.391685
-0.393965
-0.394759
-0.394936
-0.841624
-0.831958
-0.80733
-0.767621
-0.719483
-0.668103
-0.615763
-0.56497
-0.520214
-0.48861
-0.457091
-0.424904
-0.385771
-0.375941
-0.397843
-0.402909
-0.402884
-0.404277
-0.405866
-0.406501
-0.798093
-0.792593
-0.778413
-0.75015
-0.713025
-0.670613
-0.625905
-0.581159
-0.540182
-0.509986
-0.482264
-0.456167
-0.436104
-0.42442
-0.415209
-0.416696
-0.427787
-0.434346
-0.436482
-0.436791
-0.759528
-0.756191
-0.749463
-0.731524
-0.703449
-0.668666
-0.630429
-0.590364
-0.551668
-0.520464
-0.493351
-0.486537
-0.49414
-0.531864
-0.541051
-0.538656
-0.524217
-0.50258
-0.489667
-0.490929
-0.73174
-0.729766
-0.726327
-0.715735
-0.694478
-0.665296
-0.63126
-0.593611
-0.554919
-0.519319
-0.493941
-0.482093
-0.507405
-0.556254
-0.609724
-0.647484
-0.647271
-0.614129
-0.567633
-0.552804
-0.711288
-0.710588
-0.709422
-0.704198
-0.688639
-0.663142
-0.630389
-0.592685
-0.551088
-0.509585
-0.479665
-0.448899
-0.412122
-0.401455
-0.413763
-0.42051
-0.424474
-0.426992
-0.413178
-0.405443
-0.699323
-0.699091
-0.698476
-0.696024
-0.68548
-0.662044
-0.628882
-0.589334
-0.543625
-0.493299
-0.449959
-0.396741
-0.319839
-0.247529
-0.197929
-0.177669
-0.187958
-0.186564
-0.175899
-0.168643
-0.691057
-0.690909
-0.690506
-0.689787
-0.683344
-0.662162
-0.627989
-0.585303
-0.534128
-0.472159
-0.410456
-0.328622
-0.207232
-0.0794067
0.0046816
0.0439652
0.095273
0.160056
0.214699
0.240739
-0.685624
-0.685596
-0.685501
-0.685389
-0.681491
-0.663565
-0.628568
-0.581907
-0.524924
-0.452537
-0.370795
-0.27486
-0.104988
0.114564
0.347469
0.539221
0.690934
0.800078
0.864661
0.889123
-0.681035
-0.681099
-0.681143
-0.681169
-0.679791
-0.665536
-0.63065
-0.580902
-0.51817
-0.43715
-0.342029
-0.237848
-0.0381831
0.253166
0.586304
0.899943
1.14777
1.29351
1.34966
1.36305
-0.677123
-0.677131
-0.676847
-0.676233
-0.675618
-0.666347
-0.63481
-0.583752
-0.515777
-0.429685
-0.329476
-0.221996
-0.0343458
0.258708
0.590406
0.903531
1.15618
1.29951
1.34896
1.35839
-0.675947
-0.675758
-0.674953
-0.673193
-0.672008
-0.667762
-0.643006
-0.590575
-0.51849
-0.431595
-0.333963
-0.233453
-0.080399
0.177127
0.455034
0.704876
0.901573
1.01176
1.05222
1.06115
-0.678058
-0.678341
-0.679332
-0.680993
-0.681705
-0.681197
-0.657766
-0.599888
-0.526172
-0.443737
-0.35103
-0.26158
-0.143309
0.0653656
0.282826
0.463911
0.602994
0.681394
0.711955
0.71988
-0.679181
-0.680961
-0.686411
-0.698143
-0.711861
-0.711777
-0.676687
-0.610067
-0.540706
-0.464123
-0.376128
-0.299455
-0.213366
-0.054156
0.114012
0.247371
0.347217
0.406416
0.430154
0.435901
-0.684964
-0.687021
-0.692472
-0.70306
-0.718189
-0.71879
-0.679862
-0.616893
-0.560467
-0.487508
-0.405315
-0.338706
-0.275948
-0.154278
-0.024019
0.0766538
0.150742
0.19537
0.212763
0.216099
-0.705812
-0.707119
-0.708251
-0.695327
-0.667612
-0.65512
-0.636323
-0.617466
-0.5805
-0.50985
-0.434661
-0.377743
-0.329972
-0.239269
-0.138514
-0.0601176
-0.0025741
0.0312255
0.0431141
0.0449434
-0.731561
-0.731423
-0.727134
-0.691823
-0.616595
-0.563482
-0.595307
-0.628413
-0.599678
-0.530723
-0.461535
-0.413243
-0.3719
-0.299552
-0.222238
-0.164832
-0.124046
-0.0993992
-0.0908431
-0.0900383
-0.764286
-0.76109
-0.76046
-0.74899
-0.718501
-0.682452
-0.687097
-0.692035
-0.638219
-0.552769
-0.487198
-0.442235
-0.405152
-0.347185
-0.285722
-0.241938
-0.211704
-0.194721
-0.189108
-0.18862
-0.85825
-0.863761
-0.899656
-0.950472
-0.97418
-0.952592
-0.901192
-0.814503
-0.694545
-0.578328
-0.512581
-0.460584
-0.426956
-0.381163
-0.330935
-0.295715
-0.271822
-0.258146
-0.253375
-0.253118
-1.00528
-1.02454
-1.07589
-1.12928
-1.15515
-1.13584
-1.06053
-0.912911
-0.731619
-0.60412
-0.524766
-0.468826
-0.44002
-0.399873
-0.354161
-0.32355
-0.302467
-0.290994
-0.28695
-0.287021
-1.08128
-1.10014
-1.13688
-1.17389
-1.19573
-1.17839
-1.09431
-0.906667
-0.72254
-0.605977
-0.513456
-0.466488
-0.444446
-0.404021
-0.362724
-0.334797
-0.31387
-0.301952
-0.298003
-0.298477
-1.01451
-1.02964
-1.05648
-1.08573
-1.10438
-1.09015
-1.00639
-0.821196
-0.673775
-0.560717
-0.481629
-0.449593
-0.429273
-0.395201
-0.358261
-0.331269
-0.311227
-0.300414
-0.29719
-0.298007
-0.810438
-0.825518
-0.854309
-0.889322
-0.915293
-0.906667
-0.82426
-0.694808
-0.582972
-0.485615
-0.440886
-0.413222
-0.39914
-0.371267
-0.34072
-0.318386
-0.301706
-0.292605
-0.290317
-0.291276
-0.50616
-0.520027
-0.548772
-0.588129
-0.622494
-0.627376
-0.58372
-0.520293
-0.452801
-0.408114
-0.381939
-0.361781
-0.359171
-0.336929
-0.31388
-0.298607
-0.286304
-0.280278
-0.278951
-0.279979
-0.196242
-0.205483
-0.226586
-0.260751
-0.300267
-0.326601
-0.337805
-0.336583
-0.329907
-0.321218
-0.30799
-0.306182
-0.306104
-0.291698
-0.281313
-0.274201
-0.268987
-0.266778
-0.266474
-0.267348
0.0195106
0.0142317
-0.000245465
-0.0281665
-0.0702608
-0.122953
-0.169508
-0.204089
-0.223987
-0.234462
-0.242247
-0.244264
-0.246217
-0.242586
-0.242738
-0.245137
-0.248166
-0.250691
-0.251452
-0.251948
0.118227
0.114823
0.104129
0.0807046
0.0421234
-0.00777438
-0.0627012
-0.111601
-0.145763
-0.168632
-0.180707
-0.183303
-0.187423
-0.191154
-0.199486
-0.209022
-0.217816
-0.223347
-0.224558
-0.224692
0.135298
0.132967
0.125065
0.107283
0.0762466
0.0343214
-0.0112735
-0.0542061
-0.0887741
-0.111961
-0.123508
-0.127742
-0.131787
-0.138644
-0.150264
-0.162118
-0.172185
-0.177788
-0.179005
-0.179075
0.110341
0.108906
0.103693
0.0916141
0.0707225
0.0416332
0.00814273
-0.0240032
-0.0493171
-0.0669861
-0.0760714
-0.0767337
-0.0791263
-0.0877594
-0.0990542
-0.108325
-0.114909
-0.118136
-0.119233
-0.119567
0.0668673
0.066181
0.0633857
0.0567966
0.045143
0.0292203
0.0106418
-0.00835785
-0.0239314
-0.0329995
-0.0361911
-0.0331932
-0.0339448
-0.041615
-0.050164
-0.0554474
-0.0572314
-0.0578168
-0.0586434
-0.0593216
0.0147083
0.0147561
0.0150651
0.0145206
0.0123599
0.00880294
0.00462412
0.000428241
-0.00297731
-0.00610549
-0.00680049
-0.00606074
-0.000498607
-0.00467097
-0.00838301
-0.0101465
-0.0115815
-0.011885
-0.0114386
-0.0114482
-0.0303951
0.156522
0.327842
0.472492
0.58764
0.677827
0.752393
0.812873
0.827882
0.82461
0.25516
0.374854
0.486859
0.583663
0.66477
0.731439
0.783832
0.819258
0.838267
0.855034
0.448368
0.527995
0.606634
0.675503
0.734035
0.782529
0.820728
0.849943
0.872002
0.891263
0.591382
0.647897
0.704766
0.755759
0.799728
0.837128
0.868588
0.895022
0.915085
0.933984
0.706666
0.749179
0.791361
0.830874
0.866219
0.89749
0.924872
0.94812
0.965944
0.984007
0.802514
0.83777
0.872486
0.905768
0.936479
0.964317
0.98892
1.0096
1.02527
1.04275
0.890081
0.921773
0.953741
0.984662
1.01342
1.03959
1.06255
1.08137
1.0952
1.11221
0.976558
1.00896
1.04119
1.07223
1.10086
1.12652
1.14854
1.16599
1.17832
1.19483
1.07066
1.107
1.14166
1.17399
1.20307
1.22834
1.24939
1.26562
1.2772
1.29333
1.18357
1.22416
1.26112
1.29396
1.32237
1.34631
1.36589
1.38113
1.393
1.40906
1.32493
1.3659
1.4011
1.43065
1.4558
1.47737
1.49585
1.51131
1.52441
1.54035
1.49635
1.5286
1.55549
1.5778
1.59788
1.61658
1.6343
1.65106
1.66596
1.68168
1.68258
1.69982
1.71691
1.73358
1.74967
1.7644
1.7783
1.79277
1.808
1.8253
1.86595
1.8759
1.88908
1.90006
1.90946
1.91912
1.92972
1.93989
1.94918
1.97484
2.08381
2.0781
2.06516
2.0509
2.04459
2.0503
2.06844
2.09696
2.13072
2.16705
2.38662
2.25067
2.17116
2.12862
2.1113
2.11528
2.14271
2.20057
2.30823
2.48664
0.738396
0.732094
0.724366
0.713254
0.699687
0.687044
0.676656
0.668659
0.662961
0.659659
0.659347
0.662219
0.667483
0.674865
0.684432
0.696274
0.709845
0.72278
0.731774
0.739317
0.647455
0.653375
0.66145
0.667586
0.670659
0.670154
0.667079
0.663099
0.659532
0.657279
0.657188
0.659484
0.663273
0.667746
0.671867
0.674126
0.673063
0.668434
0.661384
0.653553
0.640688
0.643061
0.646331
0.649108
0.651565
0.653763
0.654954
0.654825
0.653912
0.653142
0.653405
0.654869
0.656691
0.657951
0.657899
0.656449
0.654304
0.651952
0.648976
0.645961
0.635875
0.636964
0.638884
0.641227
0.643107
0.644516
0.645749
0.646762
0.647391
0.647812
0.648423
0.649224
0.649739
0.649657
0.649057
0.648156
0.646841
0.644883
0.642784
0.641309
0.63082
0.631454
0.632586
0.634351
0.636204
0.637811
0.639079
0.640168
0.641185
0.642134
0.642988
0.643578
0.643772
0.64361
0.643107
0.64216
0.640752
0.639157
0.637829
0.63703
0.625855
0.626294
0.627086
0.628399
0.629933
0.631512
0.633012
0.634337
0.635534
0.636682
0.637716
0.638401
0.638649
0.638468
0.637847
0.63688
0.635752
0.634626
0.633735
0.633203
0.62097
0.621297
0.621913
0.622993
0.624304
0.625723
0.627228
0.628737
0.630179
0.631553
0.632798
0.633644
0.633956
0.633779
0.633234
0.632492
0.631678
0.630847
0.630198
0.629809
0.616137
0.616391
0.616889
0.617812
0.619003
0.620335
0.621788
0.623359
0.624997
0.626645
0.628158
0.6292
0.629647
0.629632
0.629316
0.628822
0.628229
0.62763
0.627165
0.626867
0.611284
0.611485
0.6119
0.612716
0.613832
0.615123
0.616569
0.618193
0.619985
0.621897
0.623729
0.625061
0.625769
0.626019
0.62596
0.625706
0.62533
0.624931
0.624607
0.624374
0.606322
0.606484
0.606841
0.607586
0.60866
0.609939
0.611423
0.613143
0.61511
0.617302
0.619512
0.621241
0.622306
0.622873
0.623092
0.623086
0.622937
0.622722
0.622517
0.622331
0.601161
0.601291
0.601608
0.60231
0.603373
0.604684
0.606247
0.60811
0.610308
0.612845
0.615517
0.617734
0.619228
0.620164
0.620699
0.620963
0.621041
0.621007
0.620904
0.620754
0.595707
0.595811
0.5961
0.596786
0.597874
0.599262
0.600949
0.603011
0.605512
0.608485
0.611726
0.614529
0.616529
0.617892
0.618786
0.619345
0.619674
0.619819
0.619805
0.619682
0.589858
0.589941
0.590214
0.590909
0.592056
0.593563
0.595431
0.597761
0.600651
0.604168
0.608103
0.611612
0.614213
0.616075
0.617381
0.618291
0.618888
0.619209
0.619276
0.619174
0.583498
0.583561
0.583829
0.584555
0.585799
0.587473
0.589587
0.592268
0.595648
0.599837
0.604616
0.608976
0.612293
0.614743
0.616525
0.617827
0.618729
0.619243
0.619388
0.619302
0.57649
0.576534
0.576805
0.577585
0.578965
0.580861
0.583296
0.586424
0.590419
0.595433
0.601236
0.606615
0.610784
0.613931
0.616276
0.618026
0.61928
0.620003
0.620226
0.620152
0.56868
0.568698
0.568972
0.569829
0.571389
0.573573
0.576416
0.580106
0.584863
0.59089
0.597932
0.604532
0.609711
0.613679
0.616693
0.618984
0.620634
0.621583
0.621882
0.621816
0.559804
0.559818
0.560116
0.561074
0.562866
0.565416
0.568775
0.573168
0.57887
0.586137
0.594674
0.602729
0.609104
0.614039
0.617839
0.620774
0.622883
0.624081
0.624456
0.624394
0.549601
0.549588
0.549929
0.55104
0.553134
0.55615
0.56016
0.565436
0.572311
0.581095
0.591436
0.601216
0.608999
0.615073
0.619801
0.623482
0.626123
0.627589
0.628037
0.627974
0.537727
0.537693
0.538084
0.539382
0.541854
0.54547
0.550311
0.556701
0.565039
0.575684
0.588193
0.600009
0.609433
0.616835
0.622653
0.627196
0.630435
0.632184
0.632698
0.632628
0.523676
0.523619
0.524092
0.525644
0.528601
0.532991
0.538904
0.546719
0.556898
0.569831
0.584935
0.599135
0.610448
0.619373
0.626452
0.631977
0.635877
0.637908
0.638473
0.63839
0.506753
0.506675
0.507275
0.509181
0.512791
0.518214
0.525542
0.535211
0.547729
0.563483
0.581674
0.598627
0.61209
0.622738
0.631226
0.637854
0.642458
0.644747
0.645336
0.645233
0.485965
0.485871
0.486677
0.4891
0.493629
0.500486
0.509743
0.521879
0.537405
0.556634
0.578462
0.598539
0.6144
0.626954
0.636985
0.64482
0.650119
0.652603
0.653179
0.653047
0.459801
0.459707
0.460859
0.464086
0.470012
0.478962
0.490964
0.506464
0.525879
0.549356
0.575398
0.598954
0.617415
0.632027
0.643721
0.652795
0.658701
0.661272
0.661785
0.661619
0.425818
0.425776
0.427553
0.432165
0.440435
0.452683
0.468731
0.488864
0.513267
0.541838
0.572652
0.599978
0.621186
0.637947
0.651348
0.661615
0.667937
0.670431
0.670827
0.670627
0.379659
0.379837
0.382991
0.390515
0.403168
0.420846
0.442912
0.46931
0.499917
0.534403
0.570452
0.601746
0.625767
0.644675
0.659759
0.671036
0.677434
0.67964
0.679878
0.679652
0.313186
0.314609
0.322292
0.33654
0.357265
0.383595
0.414155
0.448516
0.486423
0.527475
0.569048
0.604369
0.631167
0.65214
0.668672
0.680577
0.686638
0.688347
0.688418
0.688196
0.233855
0.236643
0.251595
0.27619
0.307979
0.344529
0.384267
0.427002
0.4726
0.520737
0.568528
0.608616
0.638876
0.662398
0.680522
0.692644
0.6981
0.699394
0.699404
0.69927
0.152651
0.159932
0.182395
0.217325
0.259814
0.306351
0.35526
0.406408
0.459724
0.514928
0.568902
0.613662
0.647215
0.673225
0.692815
0.704682
0.709066
0.709797
0.709749
0.709669
0.0862898
0.0955818
0.122826
0.165064
0.21594
0.270929
0.328089
0.387109
0.447764
0.50967
0.569389
0.618365
0.654762
0.682654
0.70297
0.714361
0.718102
0.718671
0.718637
0.718583
0.031912
0.0419427
0.0728259
0.120481
0.177668
0.239399
0.30348
0.369399
0.436703
0.504808
0.56985
0.622682
0.66157
0.690984
0.711818
0.722814
0.726157
0.726646
0.726641
0.726608
-0.0135817
-0.00322355
0.0301433
0.0820185
0.144369
0.211688
0.281605
0.353496
0.426736
0.500513
0.570525
0.62693
0.668096
0.698856
0.720037
0.730683
0.73378
0.734263
0.7343
0.734294
-0.0526638
-0.0421706
-0.00695527
0.0482929
0.114955
0.187077
0.26209
0.339273
0.417882
0.496909
0.571605
0.631427
0.67474
0.706712
0.72815
0.73854
0.741457
0.741947
0.742054
0.742089
-0.0870455
-0.0765159
-0.0398607
0.0181817
0.0885214
0.164819
0.244365
0.326357
0.409932
0.493915
0.573113
0.636265
0.681651
0.714816
0.736576
0.746784
0.749627
0.750192
0.750349
0.750424
-0.118006
-0.107465
-0.0696598
-0.00921706
0.0643279
0.144305
0.227915
0.314325
0.402562
0.491294
0.574906
0.641366
0.688903
0.723323
0.745535
0.75576
0.758615
0.759175
0.759362
0.759472
-0.146557
-0.135986
-0.0971642
-0.0345947
0.0417978
0.125049
0.212331
0.302809
0.395449
0.488785
0.576785
0.646624
0.696382
0.732189
0.755028
0.765444
0.768324
0.768848
0.769018
0.769143
-0.173282
-0.162665
-0.122925
-0.0584418
0.0204807
0.106669
0.197289
0.291525
0.388327
0.486159
0.578569
0.651885
0.703964
0.741255
0.764808
0.775484
0.778403
0.778867
0.778989
0.779095
-0.198665
-0.187975
-0.147372
-0.0811501
4.32066e-05
0.0888791
0.182543
0.280258
0.380996
0.483208
0.58008
0.657001
0.711486
0.750277
0.774581
0.785491
0.788449
0.788841
0.788897
0.788977
-0.223075
-0.212223
-0.170809
-0.102987
-0.0197473
0.0714721
0.167915
0.268851
0.373294
0.479766
0.581161
0.66184
0.718833
0.759115
0.784114
0.795153
0.798105
0.798418
0.798396
0.798442
-0.246641
-0.2356
-0.193409
-0.124132
-0.0390486
0.0543257
0.153291
0.257188
0.365107
0.475686
0.581659
0.666308
0.725939
0.767651
0.793147
0.804229
0.807078
0.807301
0.807217
0.807232
-0.269546
-0.258262
-0.215324
-0.144683
-0.0579496
0.037356
0.138601
0.245203
0.356356
0.470876
0.581441
0.670299
0.732796
0.775939
0.801709
0.812578
0.81524
0.815369
0.815231
0.815219
-0.291787
-0.280283
-0.236615
-0.164698
-0.0764905
0.0205343
0.123828
0.232877
0.347004
0.465251
0.580384
0.673712
0.739421
0.784096
0.809898
0.820253
0.822568
0.822578
0.822405
0.822374
-0.313445
-0.301693
-0.257275
-0.184193
-0.0946849
0.00385877
0.108973
0.220221
0.33705
0.458762
0.578376
0.676431
0.74581
0.792322
0.818018
0.827448
0.829127
0.828955
0.828773
0.828741
-0.334396
-0.322459
-0.27731
-0.203181
-0.112518
-0.0126295
0.0940695
0.207267
0.326517
0.451411
0.575327
0.678319
0.751919
0.800824
0.826515
0.834594
0.835127
0.834561
0.834419
0.834449
-0.354779
-0.342574
-0.296717
-0.221661
-0.129982
-0.028916
0.0791838
0.194063
0.315453
0.443229
0.571177
0.67922
0.757607
0.809685
0.835933
0.842548
0.841216
0.839647
0.839509
0.839846
-0.374439
-0.361999
-0.3155
-0.239601
-0.147014
-0.0449344
0.0643785
0.180708
0.303935
0.434241
0.565893
0.678968
0.762657
0.818781
0.846623
0.852469
0.849007
0.845399
0.844628
0.845516
-0.393496
-0.38078
-0.333616
-0.256957
-0.163591
-0.0606311
0.0497266
0.167266
0.292049
0.424546
0.559485
0.677375
0.766791
0.827739
0.858356
0.865047
0.860606
0.854428
0.849466
0.842443
-0.411843
-0.39892
-0.351155
-0.273899
-0.179936
-0.076279
0.0349073
0.153354
0.279383
0.413702
0.551527
0.673998
0.769796
0.836567
0.870973
0.880386
0.876987
0.868218
0.856017
0.855609
-0.429444
-0.416502
-0.368127
-0.290375
-0.196041
-0.0918475
0.0199421
0.138943
0.265886
0.401554
0.541778
0.668242
0.770768
0.844435
0.882665
0.89497
0.8925
0.883626
0.848326
0.810426
-0.446105
-0.433382
-0.384491
-0.306269
-0.211911
-0.107349
0.00482051