/*--------------------------------*- C++ -*----------------------------------*\
  =========                 |
  \\      /  F ield         | OpenFOAM: The Open Source CFD Toolbox
   \\    /   O peration     | Website:  https://openfoam.org
    \\  /    A nd           | Version:  6
     \\/     M anipulation  |
\*---------------------------------------------------------------------------*/
FoamFile
{
    version     2.0;
    format      ascii;
    class       surfaceScalarField;
    location    "58";
    object      phi;
}
// * * * * * * * * * * * * * * * * * * * * * * * * * * * * * * * * * * * * * //

dimensions      [0 3 -1 0 0 0 0];

internalField   nonuniform List<scalar> 
17370
(
-0.0900013
0.0898511
0.289161
-0.0714655
0.0537563
0.364485
-0.0381241
0.027696
0.426596
-0.0196456
0.0146139
0.504283
-0.0107731
0.00828339
0.601892
-0.00628418
0.00490798
0.720434
-0.00374432
0.0029039
0.863747
-0.00216257
0.00160372
1.03601
-0.00108746
0.000675121
1.24292
-0.000266937
-0.000125128
1.49158
0.000503956
-0.000912084
1.4916
0.00130835
-0.00179846
1.24318
0.00232996
-0.00304099
1.03635
0.00385748
-0.00500202
0.864051
0.00636764
-0.00836011
0.72105
0.010845
-0.0146806
0.60305
0.0197076
-0.0277526
0.507484
0.0381752
-0.0538
0.431793
0.0715013
-0.089875
0.365149
0.0900155
0.198995
-0.128133
0.0882204
0.0399128
-0.364595
0.353371
-0.0746804
0.0859043
-0.446474
0.454316
-0.0844046
0.0765633
-0.521189
0.529897
-0.0684688
0.0597607
-0.612787
0.621563
-0.0515746
0.042798
-0.726892
0.734159
-0.03534
0.0280737
-0.867473
0.872585
-0.0224757
0.0173631
-1.03847
1.04192
-0.0135553
0.0101073
-1.2446
1.24703
-0.00749777
0.00506643
-1.49262
1.4946
-0.00312082
0.00114553
-1.4925
1.49422
0.000533855
-0.00225884
-1.24398
1.24586
0.00416141
-0.00604515
-1.03751
1.04004
0.00840366
-0.0109386
-0.866103
0.869835
0.0143
-0.0180322
-0.724394
0.729938
0.0230726
-0.028616
-0.6087
0.616116
0.0358318
-0.0432474
-0.514899
0.523045
0.051979
-0.0601252
-0.439858
0.447918
0.0687911
-0.0768518
-0.375298
0.376744
0.0846538
-0.0860999
-0.257333
0.222484
0.0748135
-0.0399647
-0.0685108
0.0586822
0.00982859
-0.0518286
0.0584176
-0.374119
0.36753
-0.0575067
0.0537583
-0.453589
0.457337
-0.048672
0.0447233
-0.52794
0.531889
-0.0408881
0.037254
-0.621556
0.625191
-0.0331581
0.0290874
-0.735341
0.739412
-0.0245219
0.0203661
-0.874332
0.878487
-0.0160236
0.0123323
-1.04348
1.04717
-0.00859763
0.00542654
-1.24856
1.25173
-0.00209923
-0.000974155
-1.49666
1.49973
0.00402265
-0.00728786
-1.49721
1.50047
0.010368
-0.0139776
-1.25008
1.25369
0.0175435
-0.021744
-1.04593
1.05013
0.0257753
-0.0302167
-0.877772
0.882213
0.0341882
-0.0381883
-0.73991
0.74391
0.0417416
-0.0454925
-0.626783
0.630534
0.0493686
-0.0543858
-0.534817
0.539834
0.0580598
-0.0588764
-0.457481
0.458298
0.0521775
-0.0319823
-0.335763
0.315567
0.00988568
-0.0683541
0.0584684
-0.0529286
0.0489303
0.00399834
-0.0331811
0.0437347
-0.35809
0.347536
-0.0474399
0.0468172
-0.459272
0.459894
-0.0437655
0.0404167
-0.535788
0.539137
-0.0366498
0.0333522
-0.628513
0.63181
-0.0299225
0.0268983
-0.742632
0.745656
-0.0236474
0.020547
-0.882
0.885101
-0.0170221
0.0136464
-1.05075
1.05413
-0.00985629
0.00631987
-1.25515
1.25869
-0.00235335
-0.00144193
-1.50324
1.50703
0.005206
-0.00907953
-1.50414
1.50802
0.0124897
-0.0161082
-1.25743
1.26105
0.0193092
-0.0226333
-1.05394
1.05726
0.0255554
-0.0286263
-0.885713
0.888784
0.0315053
-0.0347943
-0.747178
0.750467
0.0379744
-0.0416207
-0.634324
0.63797
0.0448654
-0.047798
-0.544149
0.547081
0.0482958
-0.0444148
-0.45659
0.452709
0.0336516
-0.0162116
-0.296211
0.278771
0.00406887
-0.0526516
0.0485827
-0.0458495
0.0433508
0.00249869
-0.0228294
0.0332195
-0.336837
0.326447
-0.0390512
0.040075
-0.459573
0.458549
-0.0388916
0.0366108
-0.541851
0.544132
-0.0339518
0.031365
-0.634857
0.637443
-0.028313
0.0254235
-0.748695
0.751585
-0.0221684
0.0191823
-0.888046
0.891032
-0.0158847
0.0127916
-1.05725
1.06035
-0.00927182
0.00586747
-1.26214
1.26555
-0.00190748
-0.00197565
-1.51091
1.51479
0.00581769
-0.00965477
-1.51191
1.51575
0.0128931
-0.0161886
-1.26449
1.26779
0.0190532
-0.0220874
-1.06036
1.0634
0.0248371
-0.0278506
-0.891849
0.894862
0.0305422
-0.0334004
-0.753683
0.756541
0.0358262
-0.0383226
-0.641043
0.643539
0.0404626
-0.041461
-0.548891
0.54989
0.0402441
-0.0341304
-0.447437
0.441324
0.0234327
-0.0102256
-0.263563
0.250356
0.00258559
-0.0454232
0.0428376
-0.0412725
0.0395017
0.00177077
-0.0167733
0.0260389
-0.316581
0.307316
-0.0326587
0.0348085
-0.45694
0.45479
-0.034396
0.0327328
-0.546104
0.547767
-0.0305613
0.0284759
-0.639743
0.641828
-0.0260561
0.0236692
-0.754222
0.756609
-0.0208224
0.0180438
-0.893916
0.896695
-0.0148191
0.0117598
-1.06338
1.06644
-0.00827901
0.00496043
-1.26885
1.27217
-0.00113292
-0.00259737
-1.51858
1.52231
0.00627524
-0.00994728
-1.51949
1.52316
0.0130569
-0.016255
-1.27104
1.27423
0.0190248
-0.0219131
-1.06643
1.06931
0.024387
-0.0269206
-0.897692
0.900225
0.0290505
-0.0312194
-0.759003
0.761172
0.0330993
-0.0350618
-0.6457
0.647663
0.0365204
-0.0366817
-0.550415
0.550576
0.0342356
-0.027204
-0.43467
0.427638
0.017525
-0.0073943
-0.238837
0.228707
0.00187678
-0.0406629
0.0387862
-0.0379759
0.0366426
0.00133326
-0.0128156
0.0207776
-0.298708
0.290746
-0.0275452
0.0304812
-0.452219
0.449283
-0.0306974
0.0295883
-0.54919
0.550299
-0.027606
0.0257014
-0.643857
0.645761
-0.0235159
0.0213918
-0.758836
0.76096
-0.0188902
0.0164174
-0.899254
0.901727
-0.0134851
0.0106141
-1.06936
1.07223
-0.00726069
0.00402662
-1.27542
1.27865
-0.000284408
-0.00334276
-1.52595
1.52958
0.00690509
-0.0104527
-1.52676
1.53031
0.0134241
-0.0164215
-1.27737
1.28037
0.0189282
-0.0214378
-1.07205
1.07456
0.0235276
-0.0256359
-0.90253
0.904638
0.0274363
-0.0293041
-0.763169
0.765036
0.0309492
-0.0326793
-0.64949
0.651221
0.0334895
-0.0329224
-0.550377
0.54981
0.0295636
-0.0222329
-0.420401
0.41307
0.0137404
-0.00572737
-0.219737
0.211724
0.00146227
-0.0371431
0.0356808
-0.0354775
0.0344488
0.00102874
-0.0100219
0.0167545
-0.283425
0.276692
-0.0232574
0.0266465
-0.446102
0.442713
-0.0274422
0.0267537
-0.551193
0.551882
-0.0250071
0.0232344
-0.647646
0.649419
-0.0211771
0.019172
-0.763019
0.765024
-0.0168129
0.014498
-0.904049
0.906364
-0.0117738
0.00910183
-1.07493
1.0776
-0.00595648
0.00288004
-1.28177
1.28484
0.000724795
-0.00423543
-1.53313
1.53664
0.0076657
-0.0110292
-1.53376
1.53712
0.0137824
-0.0164923
-1.28323
1.28594
0.0187186
-0.0209235
-1.07694
1.07914
0.0227648
-0.024634
-0.906638
0.908508
0.0262341
-0.0278931
-0.766798
0.768457
0.0293426
-0.0307415
-0.652803
0.654202
0.031061
-0.0297675
-0.548893
0.5476
0.0257964
-0.0185533
-0.405758
0.398515
0.0111547
-0.004621
-0.204521
0.197987
0.00118561
-0.0343735
0.0331878
-0.0335452
0.0327425
0.0008027
-0.00795213
0.013614
-0.270526
0.264864
-0.0196343
0.0232233
-0.439217
0.435628
-0.0244989
0.0240599
-0.552484
0.552923
-0.0225809
0.0209186
-0.651192
0.652854
-0.0189584
0.0170426
-0.766978
0.768894
-0.0147798
0.0125547
-0.908563
0.910788
-0.00993376
0.00737112
-1.08014
1.0827
-0.00436775
0.00143838
-1.28779
1.29072
0.00198703
-0.00531485
-1.54003
1.54336
0.00854439
-0.0116755
-1.54035
1.54349
0.0142106
-0.0166817
-1.28854
1.29101
0.0186989
-0.0206826
-1.08128
1.08326
0.0223256
-0.023988
-0.910299
0.911961
0.0254082
-0.0268794
-0.770026
0.771497
0.028139
-0.0291658
-0.655395
0.656422
0.0291135
-0.0271586
-0.545979
0.544024
0.0227929
-0.0158241
-0.391406
0.384437
0.00933581
-0.00385378
-0.19203
0.186548
0.00099329
-0.0321114
0.0311181
-0.0320373
0.0314099
0.00062745
-0.00635542
0.0111034
-0.259688
0.25494
-0.0165361
0.0201281
-0.43204
0.428448
-0.0217311
0.021523
-0.553288
0.553496
-0.0202829
0.0186828
-0.654535
0.656135
-0.0167818
0.0149168
-0.770772
0.772637
-0.0127135
0.0105486
-0.912903
0.915068
-0.00800138
0.00551663
-1.08515
1.08763
-0.00261252
-0.000206693
-1.29353
1.29635
0.00348063
-0.0066348
-1.54656
1.54972
0.00966827
-0.0125815
-1.54649
1.5494
0.0149195
-0.0171752
-1.29338
1.29564
0.0189946
-0.0207624
-1.0852
1.08696
0.0222136
-0.0236809
-0.913549
0.915016
0.0249381
-0.026238
-0.772876
0.774176
0.027356
-0.0279695
-0.657227
0.65784
0.0275495
-0.0250404
-0.541806
0.539297
0.0204379
-0.0138104
-0.377651
0.371024
0.00804339
-0.00331571
-0.181483
0.176755
0.000858981
-0.0302032
0.0293442
-0.0308623
0.0303767
0.000485607
-0.0050713
0.00903245
-0.250614
0.246652
-0.0138349
0.0172826
-0.42494
0.421493
-0.0190726
0.0190563
-0.553658
0.553675
-0.018008
0.01644
-0.657788
0.659356
-0.014559
0.0127106
-0.774478
0.776327
-0.0105324
0.00839968
-0.917123
0.919256
-0.00589772
0.00346374
-1.09
1.09243
-0.000630385
-0.00210157
-1.29906
1.3018
0.0052443
-0.00823813
-1.55275
1.55574
0.0110861
-0.0137932
-1.55219
1.5549
0.0159437
-0.0179941
-1.2978
1.29985
0.0196247
-0.0211837
-1.08869
1.09025
0.0224481
-0.0237292
-0.916424
0.917705
0.0248386
-0.0259882
-0.775398
0.776547
0.0269187
-0.0271708
-0.658262
0.658514
0.0263558
-0.0233793
-0.536572
0.533596
0.0186393
-0.0123461
-0.364585
0.358292
0.00713169
-0.00294267
-0.172331
0.168142
0.000767314
-0.0285417
0.0277743
-0.0299591
0.0295933
0.000365831
-0.00399661
0.00726705
-0.243063
0.239792
-0.0114282
0.0146235
-0.418191
0.414996
-0.0164794
0.0166281
-0.553666
0.553518
-0.0156683
0.0141833
-0.660957
0.662442
-0.0123052
0.0104451
-0.778157
0.780017
-0.00825037
0.0061066
-0.921289
0.923433
-0.00360475
0.00118803
-1.09476
1.09718
0.00160399
-0.00427612
-1.30443
1.3071
0.00732578
-0.0101998
-1.55863
1.5615
0.0128958
-0.0154145
-1.55748
1.56
0.0173789
-0.0192198
-1.30181
1.30365
0.0206609
-0.022016
-1.09179
1.09315
0.0231055
-0.0242133
-0.918934
0.920042
0.0251745
-0.0261472
-0.777601
0.778574
0.0268201
-0.0267762
-0.658637
0.658593
0.0255468
-0.0221595
-0.530431
0.527044
0.0173292
-0.0113187
-0.352167
0.346157
0.00651017
-0.00269508
-0.164171
0.160356
0.000708584
-0.0270468
0.0263382
-0.0292885
0.0290295
0.000259042
-0.00305549
0.00570321
-0.236858
0.234211
-0.00922386
0.0120829
-0.411995
0.409136
-0.0138861
0.0141178
-0.553393
0.553161
-0.0132017
0.0117571
-0.663986
0.66543
-0.0098499
0.0079447
-0.781867
0.783772
-0.00570232
0.00352608
-0.925476
0.927652
-0.00100269
-0.00142067
-1.09949
1.10191
0.00420373
-0.0068458
-1.30968
1.31232
0.00982774
-0.0125961
-1.56427
1.56704
0.0151494
-0.0174883
-1.5624
1.56474
0.0192737
-0.0209084
-1.30539
1.30703
0.0221552
-0.0232899
-1.0945
1.09564
0.0241848
-0.025111
-0.921105
0.922031
0.0259318
-0.0267438
-0.779455
0.780267
0.027137
-0.0268311
-0.658411
0.658105
0.0251615
-0.0213852
-0.523484
0.519708
0.0164679
-0.0106578
-0.340284
0.334474
0.00612266
-0.00254764
-0.156692
0.153117
0.000676091
-0.0256574
0.0249813
-0.0288284
0.0286706
0.0001578
-0.00218489
0.0042487
-0.231879
0.229815
-0.00712562
0.0095823
-0.406509
0.404053
-0.0112326
0.0114759
-0.553005
0.552762
-0.0105758
0.00913883
-0.666969
0.668406
-0.00717955
0.00520429
-0.785668
0.787643
-0.00287798
0.000626346
-0.929729
0.931981
0.00197298
-0.00445057
-1.10424
1.10672
0.00726585
-0.00990309
-1.31487
1.31751
0.0128335
-0.0155036
-1.5697
1.57237
0.0179149
-0.0200718
-1.56695
1.56911
0.0216806
-0.0231187
-1.30857
1.31001
0.024182
-0.0251086
-1.0968
1.09772
0.0258103
-0.0265381
-0.922909
0.923637
0.0272012
-0.027865
-0.780969
0.781633
0.0279503
-0.0272765
-0.657577
0.656903
0.0251738
-0.0210123
-0.515782
0.51162
0.0159873
-0.0102912
-0.328767
0.323071
0.00591864
-0.00247825
-0.149642
0.146201
0.000664125
-0.0243234
0.0236592
-0.0285705
0.0285154
5.50334e-05
-0.00133469
0.00282858
-0.228059
0.226565
-0.00504621
0.00703442
-0.401865
0.399877
-0.00842621
0.00860132
-0.552647
0.552472
-0.00767833
0.00622158
-0.669961
0.671418
-0.0041794
0.00210325
-0.789608
0.791684
0.000345389
-0.00270567
-0.934136
0.936497
0.00541215
-0.00797157
-1.1091
1.11166
0.010854
-0.0135256
-1.32006
1.32273
0.0164518
-0.0190653
-1.57495
1.57756
0.0213646
-0.0233528
-1.57114
1.57313
0.0247821
-0.0260031
-1.31133
1.31255
0.0268558
-0.0275361
-1.09869
1.09937
0.0280215
-0.0285389
-0.924328
0.924845
0.0290385
-0.0294932
-0.782107
0.782561
0.0292981
-0.0281962
-0.655985
0.654883
0.0256272
-0.0210578
-0.507324
0.502755
0.0158765
-0.010193
-0.317438
0.311755
0.00587753
-0.00247778
-0.142817
0.139418
0.000670341
-0.0230057
0.0223354
-0.028518
0.0285722
-5.41306e-05
-0.000458392
0.00137725
-0.225381
0.224462
-0.00291018
0.00436724
-0.398191
0.396734
-0.00539766
0.00541151
-0.552497
0.552483
-0.00439189
0.00284103
-0.67305
0.674601
-0.000668311
-0.00155137
-0.793753
0.795973
0.004161
-0.00666143
-0.938752
0.941252
0.00951179
-0.0121891
-1.11413
1.11681
0.0151758
-0.0179062
-1.32533
1.32806
0.0208388
-0.0233912
-1.58008
1.58263
0.025566
-0.0273722
-1.57499
1.5768
0.0286084
-0.0296
-1.31364
1.31463
0.0302361
-0.0306771
-1.10011
1.10055
0.030936
-0.0312218
-0.925327
0.925613
0.031533
-0.0317249
-0.782719
0.782911
0.0312589
-0.0296314
-0.653536
0.651908
0.0265573
-0.0215335
-0.498062
0.493038
0.0161246
-0.010344
-0.306091
0.30031
0.00598476
-0.00253967
-0.136035
0.13259
0.000693003
-0.0216687
0.0209757
-0.0286834
0.0288544
-0.000171058
0.000468147
-0.000162016
-0.223867
0.223561
-0.000637657
0.00148809
-0.395614
0.394763
-0.00205538
0.00182866
-0.552736
0.552963
-0.000662053
-0.00102502
-0.676374
0.678061
0.0033618
-0.00576613
-0.798185
0.800589
0.00859546
-0.0112985
-0.943659
0.946362
0.0143613
-0.0172115
-1.11941
1.12226
0.0203514
-0.0231758
-1.33072
1.33354
0.0261483
-0.0286625
-1.58509
1.5876
0.0307218
-0.032336
-1.57845
1.58007
0.0333662
-0.0341084
-1.31548
1.31622
0.0345081
-0.034687
-1.10104
1.10122
0.034709
-0.0347482
-0.925858
0.925897
0.0348598
-0.0346994
-0.782717
0.782557
0.0338709
-0.0316493
-0.650082
0.647861
0.028006
-0.0224543
-0.487885
0.482333
0.0167278
-0.0107319
-0.2945
0.288504
0.00622951
-0.00265828
-0.129124
0.125553
0.000730332
-0.0202802
0.0195499
-0.0291057
0.0294187
-0.000313029
0.00147255
-0.00181101
-0.223611
0.223949
0.0018499
-0.00171237
-0.394272
0.394134
0.00174503
-0.0023272
-0.553555
0.554137
0.00371512
-0.00559865
-0.680017
0.6819
0.00816912
-0.0108118
-0.802981
0.805624
0.0139122
-0.0168573
-0.948971
0.951916
0.0201721
-0.0232313
-1.12504
1.1281
0.0265667
-0.0295246
-1.3363
1.33926
0.0325708
-0.0350617
-1.59002
1.59251
0.0370058
-0.0384156
-1.58152
1.58293
0.0392192
-0.0396778
-1.31678
1.31724
0.0398132
-0.0397001
-1.10141
1.1013
0.0394556
-0.0392252
-0.925866
0.925636
0.0391257
-0.038505
-0.781938
0.781317
0.0372237
-0.0343275
-0.645481
0.642585
0.0300307
-0.023848
-0.476636
0.470454
0.0176915
-0.0113516
-0.282426
0.276086
0.00660566
-0.00283001
-0.121926
0.118151
0.000781118
-0.0188117
0.0180306
-0.0298031
0.0302882
-0.000485131
0.00273317
-0.00381125
-0.224674
0.225752
0.00471526
-0.00537507
-0.394367
0.395026
0.00613126
-0.00717383
-0.555219
0.556261
0.0088874
-0.0110503
-0.684129
0.686292
0.0139468
-0.0169034
-0.808256
0.811212
0.0203482
-0.0235998
-0.954768
0.95802
0.0272349
-0.0305608
-1.13109
1.13442
0.0341397
-0.0372512
-1.34215
1.34526
0.0403637
-0.0427976
-1.59488
1.59732
0.0445751
-0.0457259
-1.58415
1.5853
0.0462538
-0.046433
-1.31748
1.31766
0.0462965
-0.045868
-1.10115
1.10072
0.045328
-0.0448013
-0.925277
0.92475
0.0443809
-0.0433228
-0.780245
0.779187
0.0414685
-0.0377714
-0.639554
0.635857
0.0326971
-0.0257429
-0.464095
0.45714
0.0190225
-0.0121986
-0.269609
0.262785
0.00710654
-0.00305027
-0.114287
0.11023
0.000843598
-0.0172371
0.0163935
-0.0308497
0.0315521
-0.00070239
0.00421301
-0.00616943
-0.227262
0.229218
0.00813933
-0.00969244
-0.396119
0.397673
0.0112731
-0.0128929
-0.557967
0.559587
0.0150601
-0.0175851
-0.688867
0.691392
0.0208883
-0.024235
-0.814159
0.817506
0.0281171
-0.0317624
-0.961198
0.964843
0.0358047
-0.0394586
-1.13769
1.14134
0.0433277
-0.0466217
-1.3483
1.35159
0.0498222
-0.0522092
-1.59963
1.60202
0.0538067
-0.054657
-1.58624
1.58709
0.0548404
-0.0546607
-1.31754
1.31736
0.0541886
-0.0533991
-1.10018
1.09939
0.0525324
-0.0516666
-0.924029
0.923163
0.0508364
-0.0492672
-0.777669
0.7761
0.0467004
-0.0420515
-0.632045
0.627396
0.0360504
-0.0281548
-0.449972
0.442077
0.0207164
-0.0132589
-0.255765
0.248307
0.00771825
-0.00331038
-0.106055
0.101647
0.000914486
-0.0155346
0.0146202
-0.0323285
0.0333185
-0.000989945
0.00609186
-0.00910702
-0.231629
0.234644
0.0123147
-0.0149263
-0.399798
0.402409
0.0174809
-0.0198159
-0.562066
0.564401
0.0225876
-0.0255991
-0.694405
0.697417
0.0294474
-0.0332819
-0.820851
0.824685
0.0376973
-0.0418085
-0.968423
0.972534
0.0463196
-0.0503447
-1.14494
1.14897
0.0545347
-0.0580168
-1.3548
1.35828
0.0612753
-0.0635524
-1.60424
1.60652
0.0648977
-0.0653753
-1.58769
1.58817
0.0651743
-0.0645595
-1.31678
1.31616
0.0637036
-0.0624984
-1.09841
1.0972
0.0612674
-0.0600609
-0.922021
0.920815
0.0586864
-0.0565006
-0.774059
0.771873
0.0530774
-0.0472718
-0.622635
0.616829
0.0401411
-0.0310877
-0.433919
0.424866
0.0227539
-0.0145058
-0.240595
0.232347
0.00841814
-0.00359767
-0.0970941
0.0922736
0.000989542
-0.0136896
0.0127001
-0.0343687
0.0357555
-0.00138676
0.0085462
-0.0129076
-0.238105
0.242467
0.0175975
-0.0214366
-0.405778
0.409617
0.025122
-0.0283263
-0.567871
0.571075
0.031892
-0.0355665
-0.70103
0.704705
0.0401309
-0.044591
-0.828531
0.832991
0.0496527
-0.0543087
-0.976585
0.981241
0.0593528
-0.0637786
-1.15294
1.15736
0.0682796
-0.0718946
-1.36164
1.36525
0.0751066
-0.0771487
-1.60855
1.6106
0.0781101
-0.0780885
-1.58833
1.58831
0.0774209
-0.0762735
-1.31502
1.31388
0.0749946
-0.0733366
-1.09571
1.09405
0.0717095
-0.0700689
-0.919217
0.917577
0.0681325
-0.0651811
-0.769188
0.766236
0.0606939
-0.0534669
-0.610902
0.603675
0.0449584
-0.0344964
-0.415503
0.405041
0.0250754
-0.0158822
-0.223792
0.214599
0.00916341
-0.00388948
-0.0872935
0.0820196
0.0010612
-0.0116971
0.0106359
-0.0371659
0.0391197
-0.0019538
0.0119727
-0.0180377
-0.247208
0.253273
0.0245163
-0.0297893
-0.414546
0.419819
0.0348022
-0.0390534
-0.57577
0.580022
0.0436134
-0.0481383
-0.709097
0.713622
0.0536112
-0.0588428
-0.83746
0.842691
0.0646852
-0.0699743
-0.985855
0.991145
0.0755942
-0.0804008
-1.1617
1.16651
0.0851312
-0.0887663
-1.36867
1.37231
0.0917748
-0.0934137
-1.61231
1.61395
0.0938149
-0.09312
-1.58787
1.58718
0.0918403
-0.0900332
-1.31213
1.31032
0.088226
-0.0860918
-1.09194
1.0898
0.0840545
-0.0818221
-0.915414
0.913182
0.0793408
-0.0753868
-0.762682
0.758728
0.0695817
-0.060614
-0.596304
0.587336
0.0504333
-0.0382769
-0.394232
0.382076
0.02757
-0.0172946
-0.205066
0.194791
0.00988873
-0.00415367
-0.0765886
0.0708535
0.00111949
-0.00956824
0.00844875
-0.0410404
0.0438762
-0.00283588
0.0169544
-0.0252725
-0.259658
0.267976
0.0339653
-0.0409596
-0.426772
0.433766
0.0475919
-0.0531297
-0.586227
0.591765
0.0589513
-0.0645752
-0.718998
0.724622
0.0711962
-0.0773342
-0.847914
0.854052
0.0840141
-0.089907
-0.996372
1.00226
0.0959925
-0.101024
-1.17114
1.17617
0.105767
-0.109193
-1.37562
1.37904
0.111721
-0.112695
-1.61512
1.6161
0.112306
-0.110736
-1.58596
1.58439
0.108689
-0.106107
-1.30785
1.30527
0.10366
-0.100954
-1.08701
1.0843
0.098454
-0.0955257
-0.910236
0.907308
0.0923772
-0.0871392
-0.754044
0.748806
0.0796966
-0.0685901
-0.578164
0.567058
0.0563887
-0.0422311
-0.369561
0.355403
0.030052
-0.0185994
-0.184186
0.172733
0.0104999
-0.00434666
-0.0649932
0.0588399
0.00115148
-0.00733512
0.00618364
-0.0465635
0.0508834
-0.00431997
0.0246634
-0.036037
-0.276631
0.288004
0.0475912
-0.0568938
-0.443484
0.452787
0.0655563
-0.0726504
-0.599867
0.606961
0.0800414
-0.0871429
-0.731159
0.73826
0.0949561
-0.101911
-0.860084
0.867039
0.109233
-0.11548
-1.00798
1.01422
0.121692
-0.126596
-1.18085
1.18576
0.130925
-0.13373
-1.38192
1.38473
0.13532
-0.135235
-1.61637
1.61629
0.133723
-0.131008
-1.58216
1.57944
0.128008
-0.124496
-1.30193
1.29842
0.121328
-0.117988
-1.08076
1.07742
0.114959
-0.111289
-0.903512
0.899842
0.107191
-0.100277
-0.742657
0.735742
0.0907648
-0.077052
-0.55562
0.541907
0.0624695
-0.046033
-0.340936
0.3245
0.0322465
-0.0196009
-0.161051
0.148405
0.0108741
-0.00441363
-0.0526404
0.0461799
0.00114078
-0.00505437
0.00391359
-0.0547978
0.0621647
-0.00736688
0.0380617
-0.0539196
-0.300258
0.316116
0.0695245
-0.0820409
-0.466365
0.478882
0.092878
-0.10135
-0.617159
0.625631
0.110269
-0.118655
-0.745946
0.754332
0.127398
-0.134738
-0.873678
0.881018
0.142109
-0.148112
-1.02002
1.02602
0.153792
-0.157955
-1.19
1.19416
0.161239
-0.162856
-1.38669
1.3883
0.16297
-0.161357
-1.61526
1.61365
0.158314
-0.154114
-1.57588
1.57168
0.149906
-0.145256
-1.29403
1.28938
0.141238
-0.137198
-1.07297
1.06893
0.133502
-0.128999
-0.895058
0.890555
0.123556
-0.114421
-0.727617
0.718482
0.102232
-0.0853251
-0.527592
0.510686
0.0680504
-0.0492272
-0.30789
0.289067
0.0338405
-0.0201277
-0.135804
0.122091
0.0109144
-0.00431109
-0.0398348
0.0332315
0.00106417
-0.00280993
0.00174576
-0.0690197
0.0731277
-0.00410802
0.0290037
-0.0428662
-0.334486
0.348349
0.0567876
-0.0683533
-0.496833
0.508399
0.0786167
-0.0881782
-0.637702
0.647263
0.0987988
-0.108662
-0.762168
0.772031
0.119615
-0.129264
-0.887331
0.89698
0.139467
-0.148471
-1.0311
1.0401
0.15781
-0.165712
-1.19723
1.20513
0.173427
-0.179377
-1.38872
1.39467
0.184356
-0.18712
-1.61079
1.61356
0.187644
-0.186507
-1.56641
1.56527
0.184317
-0.181237
-1.28376
1.28068
0.178487
-0.175217
-1.06339
1.06012
0.172246
-0.167713
-0.884203
0.87967
0.16019
-0.146742
-0.707628
0.694179
0.128576
-0.104431
-0.493013
0.468867
0.0809582
-0.0564541
-0.270177
0.245673
0.0375123
-0.0215114
-0.108997
0.0929964
0.0112291
-0.00423648
-0.0271066
0.020114
0.000970676
-0.00068118
-0.000289496
-0.0804592
0.0785393
0.00191997
0.00762787
-0.0165429
-0.364878
0.373793
0.0270793
-0.0354085
-0.524521
0.532851
0.0437318
-0.0515953
-0.659508
0.667371
0.0612665
-0.0703763
-0.781365
0.790475
0.0801138
-0.088941
-0.905976
0.914804
0.098249
-0.106108
-1.04879
1.05664
0.11442
-0.121058
-1.21277
1.21941
0.127445
-0.132023
-1.4002
1.40478
0.135232
-0.136417
-1.61539
1.61657
0.135422
-0.132763
-1.56337
1.56071
0.12903
-0.124319
-1.27694
1.27223
0.119961
-0.11517
-1.05492
1.05013
0.110597
-0.104771
-0.87029
0.864464
0.0968498
-0.0849775
-0.676983
0.665111
0.0711526
-0.054666
-0.443271
0.426784
0.0401624
-0.0266883
-0.221523
0.208049
0.0171348
-0.00958662
-0.0779038
0.0703556
0.00491321
-0.00183125
-0.0133864
0.0103045
0.000403517
0.0014914
-0.00189492
-0.0818729
0.0790167
0.00285623
-0.0011999
-0.00386177
-0.385458
0.39052
0.0108237
-0.0168723
-0.545006
0.551055
0.0229991
-0.0297964
-0.677823
0.68462
0.0381739
-0.0460569
-0.798656
0.806539
0.0546916
-0.0623527
-0.922789
0.93045
0.0701742
-0.0771385
-1.0643
1.07127
0.0842808
-0.0900419
-1.22557
1.23133
0.0950936
-0.0984438
-1.40863
1.41198
0.100597
-0.100596
-1.61698
1.61698
0.098415
-0.0945594
-1.55732
1.55347
0.0898556
-0.0842973
-1.26711
1.26155
0.0787629
-0.0728409
-1.04365
1.03773
0.0672031
-0.0605759
-0.854713
0.848086
0.0533859
-0.0436866
-0.65013
0.64043
0.0338156
-0.0233813
-0.408713
0.398279
0.0156741
-0.00965649
-0.194039
0.188021
0.00596035
-0.00339269
-0.0627061
0.0601384
0.00180362
-0.000721956
-0.00701529
0.00593363
0.000168231
0.00254455
-0.00271278
-0.0806666
0.0778966
0.00276997
-0.00495139
0.0024448
-0.399088
0.401594
0.0020436
-0.00657844
-0.56018
0.564715
0.011729
-0.0174211
-0.692869
0.698561
0.0246007
-0.0313505
-0.813758
0.820508
0.0386979
-0.0452376
-0.937523
0.944063
0.0522918
-0.0581546
-1.07777
1.08363
0.064322
-0.0688171
-1.23664
1.24113
0.0729939
-0.0755805
-1.41504
1.41762
0.0767358
-0.0756483
-1.61645
1.61536
0.0728228
-0.068365
-1.54894
1.54449
0.0631458
-0.0566685
-1.25556
1.24908
0.0505783
-0.0439327
-1.03052
1.02387
0.0374925
-0.0306763
-0.83822
0.831404
0.0240552
-0.0165274
-0.627751
0.620224
0.0100021
-0.00465571
-0.386781
0.381435
0.00178898
-0.000357266
-0.180688
0.179256
-0.000150887
8.88636e-05
-0.0566186
0.0566806
-4.37128e-05
-2.18514e-05
-0.00433082
0.00439638
1.61215e-06
0.00315061
-0.00315222
-0.0791848
0.0767436
0.00244119
-0.00615162
0.005222
-0.408217
0.409147
-0.00186201
-0.00149565
-0.572298
0.575656
0.00559519
-0.0107406
-0.705499
0.710645
0.0167656
-0.0226904
-0.826538
0.832463
0.0290434
-0.0347174
-0.950118
0.955792
0.0407562
-0.0459511
-1.08934
1.09453
0.0511281
-0.0551924
-1.24546
1.24952
0.058643
-0.0606089
-1.41978
1.42175
0.0611247
-0.0595147
-1.61403
1.61242
0.0562651
-0.0512569
-1.53929
1.53428
0.0457517
-0.0390964
-1.24242
1.23577
0.0326998
-0.0255202
-1.01624
1.00906
0.0189207
-0.0119645
-0.822017
0.815061
0.00601273
-8.85099e-05
-0.610165
0.604241
-0.00403137
0.00623
-0.373849
0.37165
-0.0064599
0.00552269
-0.175776
0.176713
-0.00419483
0.00266737
-0.0559825
0.05751
-0.00151891
0.000584358
-0.00405766
0.00499222
-0.000147072
0.00337315
-0.00322607
-0.077817
0.0757362
0.00208079
-0.00608082
0.00564555
-0.414493
0.414929
-0.00363765
0.000912401
-0.581635
0.58436
0.00308941
-0.00749296
-0.716176
0.72058
0.0126631
-0.0177964
-0.83758
0.842713
0.0234372
-0.0285121
-0.961096
0.966171
0.0340403
-0.0385839
-1.09944
1.10398
0.0432128
-0.0468206
-1.25327
1.25688
0.0497606
-0.0513095
-1.4234
1.42495
0.051413
-0.049877
-1.61067
1.60914
0.04636
-0.0412973
-1.52878
1.52372
0.0356409
-0.0288504
-1.22883
1.22204
0.0225917
-0.015245
-1.00132
0.993973
0.0086041
-0.00185741
-0.806272
0.799525
-0.00359597
0.00837894
-0.595858
0.591075
-0.0112604
0.0121344
-0.366423
0.365549
-0.0109474
0.00889176
-0.175725
0.177781
-0.00679356
0.00443237
-0.0584181
0.0607793
-0.00257598
0.00105958
-0.00566872
0.00718511
-0.000277879
0.00318135
-0.00290347
-0.0767903
0.0751747
0.00161557
-0.00521648
0.00510394
-0.419176
0.419289
-0.00343837
0.0013903
-0.589791
0.591839
0.00235536
-0.00635595
-0.725416
0.729416
0.0112579
-0.0156723
-0.847452
0.851867
0.0206219
-0.0251197
-0.971195
0.975693
0.0303621
-0.0344767
-1.10854
1.11265
0.0385701
-0.0419539
-1.26029
1.26367
0.0450006
-0.0463497
-1.42648
1.42783
0.0464399
-0.0447292
-1.60717
1.60546
0.0414631
-0.0361616
-1.51839
1.51308
0.0307526
-0.0243004
-1.21508
1.20862
0.018118
-0.0112093
-0.986418
0.979509
0.00475259
0.00195752
-0.791251
0.784541
-0.00691901
0.0111169
-0.583597
0.579399
-0.0135744
0.0140213
-0.361619
0.361172
-0.0127585
0.010448
-0.177905
0.180216
-0.00808089
0.00536181
-0.0625101
0.0652292
-0.00318626
0.00136369
-0.00841271
0.0102353
-0.00037253
0.00269372
-0.00232119
-0.0762727
0.075018
0.00125469
-0.00412735
0.00413656
-0.422922
0.422913
-0.00259359
0.000646472
-0.596887
0.598835
0.00289947
-0.00650322
-0.733704
0.737308
0.0106981
-0.0149447
-0.856243
0.86049
0.0195123
-0.0241488
-0.979976
0.984612
0.0286498
-0.0325684
-1.11686
1.12078
0.0367765
-0.0399089
-1.26691
1.27005
0.0424549
-0.0441823
-1.42907
1.43079
0.0443922
-0.0428973
-1.60377
1.60228
0.0397231
-0.0349782
-1.50799
1.50324
0.0299164
-0.0238226
-1.20191
1.19582
0.0180495
-0.0114605
-0.972312
0.965723
0.00532312
0.00094375
-0.776957
0.77069
-0.00605011
0.00993271
-0.57246
0.568577
-0.0121083
0.0129017
-0.35792
0.357126
-0.012111
0.0100581
-0.180395
0.182448
-0.00790711
0.00534278
-0.0670157
0.06958
-0.00324578
0.00143309
-0.0116337
0.0134464
-0.000408576
0.00203198
-0.0016234
-0.0763019
0.0752585
0.00104335
-0.00282422
0.00258212
-0.426311
0.426553
-0.00123001
-0.000722007
-0.603412
0.605364
0.00400606
-0.00749919
-0.741411
0.744904
0.0115285
-0.0153733
-0.864549
0.868394
0.0200567
-0.0238899
-0.988646
0.992479
0.0283531
-0.0320932
-1.12484
1.12858
0.0361767
-0.0394891
-1.27314
1.27645
0.0423161
-0.0438115
-1.43226
1.43376
0.0443336
-0.0432211
-1.6007
1.59958
0.0407196
-0.0363458
-1.49845
1.49407
0.0317627
-0.0260873
-1.18989
1.18421
0.0206932
-0.0144304
-0.958815
0.952552
0.00877806
-0.00275249
-0.763563
0.757537
-0.00216638
0.00618905
-0.562019
0.557996
-0.00850575
0.00950655
-0.353943
0.352943
-0.0094009
0.0081022
-0.182257
0.183555
-0.0065445
0.00452596
-0.0710445
0.073063
-0.0028088
0.00128472
-0.0146932
0.0162173
-0.000382847
0.00132876
-0.000945914
-0.076631
0.0759038
0.000727191
-0.00166389
0.000938783
-0.429802
0.430527
0.000236199
-0.00232182
-0.609212
0.611297
0.00530131
-0.00867717
-0.748603
0.751979
0.0125481
-0.0165247
-0.87212
0.876096
0.0205865
-0.0245812
-0.996508
1.0005
0.0290035
-0.0325314
-1.13274
1.13627
0.0367115
-0.0399864
-1.27956
1.28283
0.0428721
-0.0448998
-1.43566
1.43768
0.0459181
-0.0451293
-1.59852
1.59773
0.0429144
-0.0392832
-1.48992
1.48629
0.0352371
-0.0299184
-1.17845
1.17313
0.024806
-0.0192024
-0.946185
0.940581
0.0136211
-0.00810069
-0.750828
0.745308
0.0033077
0.00103077
-0.552031
0.547692
-0.00355381
0.00506504
-0.3493
0.347789
-0.00552508
0.00516148
-0.18294
0.183304
-0.00431692
0.00309969
-0.0738722
0.0750894
-0.00200501
0.000957882
-0.0170924
0.0181395
-0.000300711
0.000709878
-0.000409167
-0.0773777
0.0768139
0.000563848
-0.000683072
-3.3516e-06
-0.43354
0.434226
0.00173295
-0.00368551
-0.615122
0.617074
0.00685385
-0.0101176
-0.75531
0.758574
0.0138551
-0.0174368
-0.879756
0.883338
0.0216282
-0.0253112
-1.00448
1.00817
0.0296856
-0.0336605
-1.14024
1.14422
0.0374906
-0.0411049
-1.28615
1.28976
0.0444313
-0.0465692
-1.4396
1.44174
0.0479936
-0.0480139
-1.59718
1.5972
0.0462676
-0.043227
-1.48253
1.47949
0.0393764
-0.0345664
-1.1679
1.16309
0.0299998
-0.0247526
-0.934606
0.929358
0.0197117
-0.0143879
-0.738949
0.733625
0.00965654
-0.00500425
-0.541808
0.537156
0.00188464
0.000247288
-0.343813
0.341681
-0.00147615
0.00190777
-0.181985
0.181553
-0.00184587
0.00145128
-0.0751086
0.0755032
-0.00101222
0.00053019
-0.0185263
0.0190084
-0.00018458
0.000264978
-8.03979e-05
-0.07841
0.0780258
0.00038411
0.0003866
-0.0012686
-0.437444
0.438326
0.00287925
-0.00514576
-0.620662
0.622928
0.00826242
-0.0113875
-0.761795
0.76492
0.0152286
-0.0186715
-0.886905
0.890348
0.022712
-0.0265228
-1.01232
1.01613
0.0308153
-0.0347661
-1.14804
1.15199
0.038833
-0.0424933
-1.29329
1.29695
0.0460246
-0.0489347
-1.44417
1.44708
0.0508361
-0.0511724
-1.59716
1.5975
0.0500862
-0.047346
-1.47633
1.47359
0.0440836
-0.0399408
-1.15831
1.15416
0.0356055
-0.0307605
-0.9239
0.919055
0.0259997
-0.0206764
-0.727619
0.722295
0.0160057
-0.0110384
-0.531513
0.526545
0.00740646
-0.00438791
-0.337259
0.334241
0.00247594
-0.00118252
-0.179359
0.178065
0.000390651
3.30801e-05
-0.0747351
0.0743113
-0.000198489
0.000195333
-0.0188805
0.0188836
-0.000100814
4.84235e-05
5.23904e-05
-0.0796776