/*--------------------------------*- C++ -*----------------------------------*\
  =========                 |
  \\      /  F ield         | OpenFOAM: The Open Source CFD Toolbox
   \\    /   O peration     | Website:  https://openfoam.org
    \\  /    A nd           | Version:  6
     \\/     M anipulation  |
\*---------------------------------------------------------------------------*/
FoamFile
{
    version     2.0;
    format      ascii;
    class       volScalarField;
    location    "119.9";
    object      p;
}
// * * * * * * * * * * * * * * * * * * * * * * * * * * * * * * * * * * * * * //

dimensions      [0 2 -2 0 0 0 0];

internalField   nonuniform List<scalar> 
8800
(
1.31601
1.2667
1.22873
1.20067
1.18052
1.16594
1.15536
1.14784
1.14299
1.14096
1.14237
1.14675
1.15357
1.16302
1.17577
1.1931
1.21699
1.25009
1.29303
1.34554
1.15049
1.15684
1.16599
1.16955
1.16695
1.16087
1.15394
1.14772
1.14294
1.14011
1.13992
1.14259
1.14727
1.15342
1.16054
1.16759
1.17248
1.17236
1.16569
1.1568
1.12399
1.13023
1.13473
1.13861
1.14157
1.14253
1.14146
1.13937
1.13742
1.13663
1.13771
1.1402
1.14313
1.14542
1.14596
1.14419
1.14083
1.13683
1.13205
1.12834
1.11966
1.12243
1.12504
1.12721
1.12896
1.13054
1.13167
1.13205
1.13197
1.13212
1.13299
1.13418
1.13496
1.13484
1.13389
1.13256
1.1309
1.12861
1.1262
1.12464
1.11456
1.11599
1.11784
1.11993
1.12166
1.12297
1.12409
1.12511
1.12596
1.12676
1.12754
1.12806
1.12813
1.12781
1.12717
1.12608
1.12444
1.12256
1.12122
1.12041
1.10952
1.11043
1.11168
1.11332
1.11503
1.11659
1.1179
1.11907
1.12019
1.12128
1.12215
1.12261
1.12268
1.12236
1.1216
1.12044
1.1191
1.11786
1.11704
1.11652
1.10455
1.10521
1.10618
1.10751
1.10898
1.11053
1.11205
1.11346
1.1148
1.11609
1.11714
1.11773
1.11782
1.11745
1.11671
1.11581
1.11485
1.11397
1.1134
1.11301
1.09964
1.10014
1.10094
1.1021
1.10343
1.10488
1.10644
1.10804
1.10964
1.1112
1.11248
1.1132
1.11338
1.11313
1.11263
1.11199
1.1113
1.11066
1.11025
1.10994
1.09473
1.09514
1.09581
1.09685
1.09812
1.09953
1.10109
1.1028
1.10464
1.10652
1.10809
1.10903
1.10943
1.10944
1.1092
1.10879
1.10831
1.10788
1.10758
1.10733
1.08975
1.09008
1.09067
1.09164
1.09286
1.09427
1.09589
1.09772
1.09978
1.102
1.10394
1.10524
1.10596
1.10626
1.10628
1.10613
1.10587
1.1056
1.10538
1.10518
1.0846
1.08487
1.0854
1.08633
1.08755
1.089
1.09071
1.09272
1.09504
1.09765
1.10007
1.10181
1.10292
1.10356
1.10387
1.10398
1.10393
1.10382
1.10367
1.10349
1.07918
1.07941
1.0799
1.08082
1.08208
1.08361
1.08546
1.0877
1.09037
1.09347
1.09646
1.09873
1.1003
1.10133
1.10197
1.10234
1.10252
1.10256
1.10247
1.10231
1.07339
1.07359
1.07406
1.075
1.07634
1.078
1.08006
1.08259
1.0857
1.0894
1.09308
1.09599
1.09809
1.09958
1.1006
1.10128
1.1017
1.10187
1.10183
1.10168
1.06713
1.06729
1.06777
1.06876
1.07021
1.07207
1.07438
1.07731
1.08096
1.0854
1.08992
1.09359
1.09633
1.09834
1.0998
1.10083
1.10151
1.10181
1.10181
1.10167
1.06025
1.06039
1.06088
1.06196
1.06357
1.06567
1.06834
1.07175
1.07607
1.08142
1.08694
1.09152
1.09503
1.09766
1.09962
1.10106
1.10202
1.10247
1.10251
1.10237
1.05261
1.05273
1.05325
1.05443
1.05626
1.05868
1.06179
1.06581
1.07096
1.0774
1.08414
1.08981
1.09421
1.09757
1.10013
1.10204
1.10333
1.10393
1.104
1.10386
1.044
1.0441
1.04465
1.04598
1.04809
1.05091
1.05457
1.05935
1.06552
1.07329
1.08149
1.08844
1.0939
1.09813
1.10141
1.10387
1.10553
1.10628
1.10638
1.10623
1.03413
1.03423
1.03485
1.03635
1.03882
1.04215
1.04651
1.05223
1.05965
1.06903
1.07896
1.08744
1.09414
1.09939
1.10351
1.10663
1.1087
1.10961
1.10973
1.10957
1.02271
1.02278
1.0235
1.02525
1.02817
1.03213
1.03737
1.04426
1.05322
1.06455
1.07656
1.08682
1.09498
1.10142
1.10651
1.11039
1.11291
1.11398
1.11412
1.11394
1.00928
1.00935
1.01017
1.01225
1.01573
1.02052
1.02686
1.03524
1.0461
1.0598
1.07425
1.08659
1.09643
1.10426
1.11048
1.11521
1.11821
1.11942
1.11956
1.11937
0.993243
0.9933
0.994281
0.996781
1.00101
1.00687
1.01466
1.02492
1.03816
1.05472
1.07206
1.08678
1.09853
1.10793
1.11542
1.12109
1.12458
1.1259
1.12603
1.12581
0.973729
0.973782
0.974991
0.978091
0.983343
0.990657
1.00036
1.01307
1.0293
1.04932
1.07
1.08742
1.1013
1.11245
1.12133
1.128
1.13192
1.13329
1.13338
1.13315
0.949473
0.949531
0.9511
0.955104
0.961833
0.971185
0.983524
0.999475
1.01946
1.04362
1.06813
1.08853
1.10475
1.11778
1.12815
1.13581
1.14004
1.14137
1.1414
1.14115
0.918487
0.918577
0.920771
0.926254
0.935302
0.94767
0.963743
0.984017
1.00872
1.03776
1.06655
1.09019
1.10887
1.12388
1.13579
1.14429
1.14862
1.14979
1.14975
1.1495
0.877405
0.877638
0.881131
0.889351
0.902343
0.919425
0.940845
0.966816
0.997285
1.03194
1.06541
1.09245
1.11368
1.1307
1.14406
1.15311
1.15724
1.15815
1.15803
1.15778
0.819793
0.821004
0.828022
0.841986
0.861893
0.886297
0.915151
0.948331
0.98558
1.02647
1.06489
1.09543
1.11917
1.13811
1.1527
1.16186
1.16544
1.16601
1.16582
1.16559
0.736317
0.744541
0.760776
0.7853
0.815577
0.849794
0.887693
0.929108
0.973815
1.02142
1.06514
1.09942
1.12589
1.14682
1.16226
1.17102
1.17382
1.17407
1.17386
1.17367
0.647012
0.66518
0.691587
0.727475
0.768702
0.812837
0.859737
0.909423
0.961786
1.01654
1.06619
1.10485
1.13459
1.15765
1.17355
1.1811
1.18285
1.18284
1.18267
1.18257
0.570175
0.592424
0.627322
0.672924
0.723834
0.777321
0.832977
0.890763
0.950548
1.01206
1.06716
1.10973
1.14228
1.16697
1.18259
1.18869
1.1897
1.18963
1.18951
1.18943
0.506739
0.531493
0.572236
0.624802
0.683267
0.744527
0.807868
0.873032
0.939691
1.00748
1.06758
1.11367
1.14863
1.17445
1.18956
1.19463
1.19529
1.1952
1.1951
1.19505
0.453773
0.480082
0.525067
0.583026
0.647497
0.715098
0.784918
0.856518
0.929343
1.00286
1.06756
1.11689
1.15403
1.18075
1.19529
1.19956
1.20001
1.19991
1.19983
1.19978
0.408704
0.435942
0.484071
0.546382
0.615864
0.688831
0.764201
0.841417
0.919735
0.998433
1.06735
1.11966
1.15877
1.18618
1.20011
1.20375
1.20407
1.20396
1.20389
1.20385
0.369446
0.397294
0.447871
0.513781
0.587529
0.665153
0.74542
0.827653
0.910938
0.994365
1.06712
1.12212
1.16299
1.19091
1.20421
1.20737
1.20759
1.20748
1.20742
1.20738
0.334492
0.362797
0.415377
0.484349
0.561792
0.643507
0.728167
0.814977
0.902845
0.990649
1.06691
1.12435
1.16674
1.19502
1.20773
1.21051
1.21066
1.21054
1.21047
1.21043
0.302783
0.331479
0.385745
0.457392
0.538092
0.623445
0.71208
0.803109
0.895278
0.987209
1.06673
1.12635
1.17007
1.19856
1.21072
1.21321
1.21327
1.21313
1.21306
1.21302
0.273467
0.302553
0.358326
0.432384
0.515982
0.604605
0.696865
0.791818
0.88807
0.983964
1.06657
1.12816
1.17299
1.20156
1.21318
1.21542
1.21542
1.21525
1.21517
1.21512
0.24611
0.275531
0.332669
0.408895
0.49511
0.586702
0.682292
0.780916
0.881085
0.980873
1.06649
1.12983
1.17554
1.204
1.21508
1.21712
1.21706
1.21687
1.21676
1.21671
0.22018
0.25001
0.308402
0.386611
0.475203
0.569503
0.668178
0.770255
0.874209
0.977898
1.06655
1.1315
1.17777
1.20589
1.21641
1.21827
1.21817
1.21797
1.21786
1.21779
0.195493
0.225723
0.285287
0.365307
0.456058
0.552842
0.654378
0.759716
0.86734
0.974998
1.06684
1.13335
1.17982
1.20728
1.21718
1.2189
1.21881
1.21861
1.2185
1.21842
0.171846
0.202482
0.263137
0.344823
0.437541
0.536597
0.640781
0.749192
0.860383
0.9721
1.06744
1.1356
1.18194
1.2083
1.21745
1.21911
1.21907
1.21888
1.21876
1.21867
0.149087
0.180176
0.241844
0.32506
0.419548
0.52068
0.627311
0.738611
0.853247
0.969106
1.06837
1.13854
1.18452
1.20915
1.21725
1.2189
1.21905
1.21885
1.21867
1.21856
0.12709
0.158667
0.221349
0.305951
0.402032
0.505037
0.613917
0.72791
0.845854
0.965898
1.06957
1.14243
1.18811
1.21031
1.21657
1.21795
1.21847
1.21851
1.21835
1.21813
0.105938
0.137972
0.201612
0.287443
0.384953
0.489652
0.600566
0.717057
0.838145
0.962372
1.07092
1.14741
1.19338
1.21267
1.21587
1.21607
1.21684
1.21791
1.21834
1.21805
0.0855989
0.118055
0.182589
0.269518
0.368303
0.474513
0.587262
0.706025
0.830077
0.958411
1.07221
1.15347
1.20097
1.2176
1.21692
1.21444
1.2148
1.21751
1.21987
1.22012
0.0659733
0.0989135
0.164253
0.25216
0.352091
0.459639
0.574021
0.694823
0.821617
0.95392
1.07323
1.1604
1.21121
1.22661
1.22232
1.21651
1.21565
1.22011
1.22551
1.22768
0.0471653
0.0805347
0.146619
0.235393
0.336326
0.445063
0.560877
0.683478
0.812765
0.948826
1.07372
1.1678
1.22398
1.24035
1.23398
1.22534
1.22228
1.2257
1.23191
1.23492
0.0290639
0.0628727
0.129654
0.219157
0.320946
0.430716
0.547747
0.671896
0.803401
0.942984
1.07341
1.17527
1.23891
1.25866
1.25216
1.24168
1.23483
1.22974
1.22421
1.22989
0.0117084
0.0458542
0.113203
0.203248
0.305649
0.416273
0.534231
0.659624
0.793034
0.935853
1.07179
1.18229
1.25604
1.28189
1.27665
1.26514
1.25219
1.23762
1.21545
1.22224
-0.00480299
0.0294663
0.0974045
0.187838
0.290669
0.402004
0.520485
0.646913
0.781841
0.927453
1.06844
1.18742
1.27343
1.30804
1.30354
1.2888
1.26999
1.23783
1.18509
1.16488
-0.0203886
0.0126389
0.0826769
0.173365
0.276808
0.388398
0.506777
0.634021
0.770065
0.917871
1.06314
1.18948
1.28839
1.33392
1.32512
1.30362
1.27044
1.21153
1.15152
1.11581
-0.0623834
-0.00401293
0.0692894
0.158855
0.263272
0.374424
0.493253
0.620795
0.757433
0.90661
1.0551
1.18699
1.29744
1.35213
1.34128
1.29425
1.22449
1.14839
1.07772
1.0388
-0.0344153
-0.0150328
0.04893
0.139102
0.242256
0.353398
0.471871
0.599404
0.736273
0.886216
1.03698
1.17292
1.28197
1.34469
1.29771
1.15707
1.0498
0.97564
0.906011
0.923419
-0.0641019
-0.0314345
0.033452
0.123246
0.226118
0.337234
0.456161
0.583436
0.719961
0.869388
1.01949
1.15383
1.25223
1.28671
1.20058
1.0335
0.907331
0.82254
0.734558
0.769372
-0.0865806
-0.0516175
0.0150163
0.104902
0.207777
0.319017
0.438059
0.564879
0.700586
0.848532
0.995988
1.12523
1.21131
1.20831
1.06783
0.890921
0.746871
0.642779
0.542139
0.562789
-0.108167
-0.0722549
-0.00431599
0.0862139
0.189217
0.300447
0.419139
0.54526
0.679787
0.825525
0.968613
1.08827
1.15505
1.11807
0.929456
0.735654
0.564539
0.42291
0.293162
0.292946
-0.129268
-0.0930804
-0.0243178
0.0667707
0.169933
0.281011
0.399152
0.524339
0.657246
0.800051
0.937128
1.04566
1.09005
0.99796
0.791713
0.581472
0.387647
0.22928
0.0244727
-0.0570832
-0.150574
-0.114578
-0.0453934
0.0460516
0.149357
0.260277
0.377872
0.501994
0.632989
0.772247
0.902169
1.00035
1.0142
0.871881
0.664286
0.445448
0.248363
0.0861854
-0.034605
-0.143383
-0.173134
-0.137217
-0.0678937
0.0236703
0.12695
0.237571
0.354466
0.477255
0.605833
0.740642
0.862632
0.945631
0.929913
0.751296
0.544035
0.331991
0.151908
0.0540855
0.0288073
0.01614
-0.197115
-0.161295
-0.0919425
-0.000456567
0.102568
0.212663
0.328542
0.449579
0.575114
0.704419
0.816911
0.880138
0.840455
0.635015
0.430611
0.239422
0.103069
0.0649208
0.0570621
0.0566584
-0.222816
-0.186945
-0.117582
-0.0263155
0.0762595
0.185533
0.300052
0.418872
0.540705
0.663547
0.765671
0.810493
0.730808
0.52758
0.330537
0.164339
0.0883823
0.0744357
0.0735941
0.0737456
-0.250234
-0.214205
-0.144843
-0.0539147
0.047992
0.156168
0.268957
0.385082
0.502588
0.618069
0.709148
0.734457
0.616737
0.429564
0.244123
0.112703
0.0842214
0.0835284
0.082986
0.0833964
-0.279129
-0.242923
-0.173639
-0.0831909
0.0178316
0.124597
0.235254
0.348201
0.460809
0.568127
0.648031
0.651356
0.516122
0.340488
0.17693
0.101317
0.0868333
0.0887236
0.0889663
0.0893462
-0.308951
-0.272754
-0.203717
-0.113927
-0.0140524
0.0909549
0.199067
0.308326
0.415602
0.514356
0.58225
0.568326
0.42437
0.262394
0.132063
0.0928509
0.0936638
0.0931915
0.0933853
0.0936666
-0.339256
-0.303175
-0.2346
-0.145719
-0.0473229
0.0555513
0.160671
0.265733
0.36727
0.457793
0.511182
0.490617
0.34316
0.201536
0.106412
0.0981505
0.0965662
0.0962569
0.0963117
0.096468
-0.369038
-0.333326
-0.265578
-0.177951
-0.0814394
0.018857
0.120529
0.220929
0.316264
0.399302
0.441022
0.411732
0.274637
0.159331
0.102018
0.0918156
0.0970948
0.098184
0.0985548
0.0987247
-0.396787
-0.361958
-0.295626
-0.209747
-0.115631
-0.0184238
0.0793195
0.174676
0.263427
0.339353
0.376081
0.332
0.219249
0.127569
0.103825
0.100554
0.0997233
0.10013
0.10034
0.100476
-0.421139
-0.387584
-0.323373
-0.23992
-0.148847
-0.0553473
0.0379339
0.127925
0.210067
0.278574
0.312569
0.26418
0.177335
0.109677
0.0889267
0.0973869
0.100286
0.101279
0.101593
0.101732
-0.439561
-0.40813
-0.347086
-0.266975
-0.179784
-0.0907285
-0.00250376
0.0817739
0.157514
0.218887
0.249642
0.210952
0.149013
0.104541
0.0995675
0.0999199
0.101499
0.102077
0.102263
0.102406
-0.450117
-0.421579
-0.364741
-0.289203
-0.206933
-0.123188
-0.0406618
0.0375051
0.1069
0.162927
0.192389
0.166075
0.130915
0.10388
0.104681
0.102345
0.101521
0.101568
0.101623
0.101737
-0.450166
-0.425612
-0.374308
-0.304796
-0.228688
-0.151271
-0.0751132
-0.00336789
0.0594951
0.111292
0.144556
0.125925
0.116228
0.099978
0.0988508
0.0994993
0.0993136
0.0992542
0.0992678
0.0993461
-0.437273
-0.417496
-0.373662
-0.312058
-0.243618
-0.173617
-0.104534
-0.0393254
0.0171405
0.0628187
0.108345
0.0897973
0.102472
0.0936152
0.0925315
0.094835
0.0954865
0.0952878
0.0950898
0.0950921
-0.409712
-0.395369
-0.361118
-0.309841
-0.250714
-0.189263
-0.127905
-0.0692811
-0.0183793
0.0195671
0.0672819
0.0735063
0.0842697
0.0817378
0.0850228
0.0865025
0.0878257
0.0875379
0.0869959
0.0869086
-0.371019
-0.361926
-0.338092
-0.298553
-0.250083
-0.19799
-0.144668
-0.0926408
-0.0465751
-0.0141047
0.0173212
0.0446812
0.0724942
0.0720064
0.0666121
0.0707705
0.0710818
0.0702297
0.0696744
0.069668
-0.328254
-0.323068
-0.309486
-0.281342
-0.243862
-0.200691
-0.154954
-0.109047
-0.0668491
-0.0356664
-0.00812404
0.0164892
0.0459541
0.0671174
0.0868601
0.0772269
0.0551888
0.0431962
0.0397658
0.0392336
-0.290987
-0.287794
-0.281295
-0.263448
-0.234878
-0.199167
-0.159791
-0.118488
-0.0782809
-0.0456042
-0.0204157
-0.00646788
-0.00419212
-0.0266262
-0.0592369
-0.0938231
-0.0969508
-0.0585225
-0.0324893
-0.033261
-0.264125
-0.262228
-0.258987
-0.248488
-0.226688
-0.196506
-0.161083
-0.121965
-0.081471
-0.0447758
-0.0179045
-0.0115413
-0.0484712
-0.114452
-0.181104
-0.218422
-0.225271
-0.193873
-0.149442
-0.132754
-0.244462
-0.243798
-0.24273
-0.237582
-0.221706
-0.195131
-0.160836
-0.121304
-0.077841
-0.0341363
-0.00333231
0.0231991
0.0365718
0.0192696
-0.0285059
-0.0401828
-0.0276792
-0.00314975
0.0267329
0.0424667
-0.232877
-0.232658
-0.232069
-0.229797
-0.219125
-0.194731
-0.160043
-0.118255
-0.0699874
-0.0163676
0.0296765
0.0927339
0.172281
0.244974
0.28352
0.31071
0.34675
0.384335
0.415509
0.430796
-0.224796
-0.224651
-0.224257
-0.223679
-0.217262
-0.195426
-0.15966
-0.114317
-0.0601376
0.00553136
0.0739154
0.161832
0.304097
0.480772
0.64766
0.780581
0.873648
0.933573
0.967955
0.982224
-0.219419
-0.219376
-0.219265
-0.219133
-0.215484
-0.197233
-0.160525
-0.110849
-0.0505771
0.0255652
0.11184
0.209319
0.395079
0.656313
0.930221
1.17088
1.3425
1.43719
1.47829
1.49138
-0.214962
-0.214954
-0.214884
-0.214806
-0.213531
-0.199398
-0.162727
-0.109345
-0.0437637
0.039669
0.136896
0.240259
0.436969
0.728967
1.04932
1.34213
1.56529
1.68747
1.73381
1.7466
-0.211121
-0.211103
-0.210973
-0.210721
-0.210664
-0.200896
-0.166154
-0.111108
-0.0415014
0.0454731
0.147016
0.25177
0.429898
0.70816
1.01458
1.2982
1.52155
1.64866
1.69743
1.70943
-0.208164
-0.208149
-0.208083
-0.208033
-0.208438
-0.201756
-0.170705
-0.115439
-0.0442689
0.0428191
0.141708
0.2392
0.385113
0.629333
0.889337
1.12244
1.31044
1.42142
1.46502
1.47552
-0.205199
-0.205239
-0.205385
-0.205691
-0.205944
-0.202532
-0.17545
-0.121933
-0.0517558
0.0323481
0.123705
0.20968
0.321149
0.519707
0.730722
0.907811
1.04825
1.13304
1.16649
1.1743
-0.202064
-0.202133
-0.202225
-0.202311
-0.202456
-0.20135
-0.179233
-0.129346
-0.0626992
0.0159013
0.0977198
0.171321
0.253113
0.40465
0.568299
0.699423
0.799927
0.860184
0.883289
0.888128
-0.199054
-0.199141
-0.199258
-0.199398
-0.199701
-0.199313
-0.18189
-0.136816
-0.0755688
-0.00432385
0.0676963
0.129586
0.18853
0.30012
0.42302
0.518353
0.589258
0.630953
0.646499
0.649025
-0.195986
-0.19611
-0.196319
-0.196677
-0.19727
-0.1975
-0.183681
-0.143622
-0.0889469
-0.0257599
0.0367945
0.0884535
0.131368
0.212838
0.303621
0.37164
0.420815
0.449262
0.459235
0.460763
-0.192813
-0.19295
-0.193125
-0.193394
-0.19392
-0.194553
-0.183673
-0.149307
-0.101837
-0.0464933
0.00723637
0.0500346
0.0815594
0.141927
0.208717
0.257024
0.291212
0.310505
0.317002
0.317738
-0.190184
-0.190222
-0.19002
-0.189265
-0.188181
-0.188351
-0.181388
-0.154089
-0.113846
-0.0651958
-0.0194539
0.0151397
0.0393592
0.0843245
0.134003
0.168869
0.193262
0.206826
0.211124
0.211377
-0.189285
-0.18918
-0.188602
-0.186853
-0.183935
-0.18267
-0.179514
-0.15911
-0.124273
-0.0810685
-0.0434676
-0.0152255
0.00376488
0.0386356
0.0761595
0.101672
0.119474
0.129109
0.132102
0.131945
-0.190395
-0.190341
-0.190226
-0.189905
-0.189213
-0.188468
-0.1853
-0.166476
-0.13276
-0.0949087
-0.0646233
-0.0404734
-0.0248692
0.00171897
0.0307576
0.0504586
0.0642173
0.071457
0.0735559
0.073184
-0.191052
-0.191432
-0.193034
-0.197832
-0.205158
-0.207318
-0.200635
-0.175296
-0.140019
-0.107947
-0.0825628
-0.0603062
-0.0473687
-0.0262779
-0.00327921
0.0122179
0.0230688
0.0286283
0.0301456
0.0296992
-0.187225
-0.187998
-0.190985
-0.200254
-0.214679
-0.219279
-0.20691
-0.177424
-0.145768
-0.120141
-0.096061
-0.0747032
-0.0648997
-0.0472703
-0.0278849
-0.0150846
-0.00633841
-0.00203613
-0.000860058
-0.00132344
-0.181018
-0.181615
-0.183338
-0.186727
-0.190702
-0.195072
-0.185936
-0.167661
-0.148817
-0.128409
-0.103426
-0.0853536
-0.0771122
-0.0616967
-0.0447406
-0.0336218
-0.0259925
-0.0223035
-0.0212428
-0.0216961
-0.179521
-0.179483
-0.177472
-0.163161
-0.13507
-0.120962
-0.135738
-0.148892
-0.148186
-0.130281
-0.1071
-0.0923397
-0.0848317
-0.0695202
-0.0543441
-0.0441338
-0.03706
-0.0334237
-0.0323863
-0.0328596
-0.188356
-0.186994
-0.18096
-0.158774
-0.121455
-0.100465
-0.122334
-0.15143
-0.153144
-0.130976
-0.108724
-0.096198
-0.088066
-0.0734861
-0.0587616
-0.0484793
-0.0410709
-0.0372135
-0.0361536
-0.0366688
-0.220017
-0.218146
-0.222045
-0.226604
-0.223346
-0.2062
-0.202591
-0.19845
-0.171925
-0.13434
-0.109698
-0.0971081
-0.0876192
-0.0730773
-0.0589574
-0.0482223
-0.0401403
-0.0357679
-0.0346496
-0.0352403
-0.291698
-0.29805
-0.322891
-0.355499
-0.366244
-0.350476
-0.316659
-0.258715
-0.189599
-0.135012
-0.10898
-0.0944449
-0.0837682
-0.0696473
-0.0553597
-0.0440844
-0.0358334
-0.0315729
-0.0306025
-0.0312434
-0.354853
-0.367289
-0.395679
-0.421533
-0.430932
-0.415148
-0.370708
-0.282568
-0.189493
-0.129055
-0.101515
-0.0857335
-0.0757589
-0.063032
-0.0491401
-0.0377505
-0.0297289
-0.0259019
-0.0251933
-0.0258653
-0.339185
-0.349165
-0.370138
-0.390293
-0.399663
-0.386774
-0.337556
-0.241902
-0.15914
-0.108545
-0.0819147
-0.0683373
-0.06314
-0.0518666
-0.0383565
-0.0280587
-0.021493
-0.0186956
-0.0184583
-0.0191429
-0.216032
-0.227986
-0.248017
-0.268213
-0.277618
-0.267348
-0.22566
-0.151005
-0.101175
-0.0690946
-0.0494323
-0.0428898
-0.04356
-0.0333553
-0.0228343
-0.0161388
-0.011372
-0.00943406
-0.0097419
-0.0105401
-0.00922026
-0.0126129
-0.0257396
-0.0501704
-0.0664004
-0.0675909
-0.0601049
-0.0386879
-0.0284506
-0.0188872
-0.0126312
-0.0099542
-0.0098199
-0.00919524
-0.00491146
-0.0057406
-0.00575578
-0.00571926
-0.00459342
-0.00383493
0.412653
0.5914
0.753549
0.88945
0.99552
1.0767
1.14318
1.19757
1.21093
1.20887
0.680671
0.793968
0.899668
0.989988
1.06486
1.1259
1.17387
1.20647
1.22423
1.24162
0.862038
0.937058
1.01118
1.07576
1.13039
1.17562
1.21147
1.23922
1.26021
1.27962
0.997296
1.05088
1.10463
1.15282
1.19438
1.22988
1.2599
1.28527
1.30482
1.32373
1.10775
1.14842
1.18854
1.22625
1.26009
1.29015
1.31656
1.33909
1.35667
1.37476
1.20059
1.23464
1.26806
1.3002
1.32995
1.357
1.381
1.40128
1.41671
1.43419
1.28618
1.31714
1.3483
1.37852
1.40669
1.43237
1.45495
1.4735
1.48716
1.50414
1.3714
1.40339
1.43515
1.46577
1.49405
1.51941
1.54118
1.55844
1.57062
1.58711
1.46476
1.50094
1.53534
1.56743
1.59627
1.62132
1.64219
1.65828
1.66975
1.68585
1.57733
1.61801
1.65474
1.68732
1.71554
1.73932
1.75877
1.77391
1.78571
1.80174
1.71865
1.7594
1.79449
1.82386
1.84889
1.87037
1.88877
1.90418
1.91723
1.93315
1.8898
1.92166
1.94858
1.97089
1.99091
2.00957
2.02725
2.04398
2.05885
2.07456
2.07576
2.09292
2.10997
2.12663
2.14269
2.1574
2.17128
2.18573
2.20094
2.21824
2.25911
2.26899
2.28214
2.2931
2.30251
2.31215
2.32273
2.33288
2.34216
2.36782
2.47685
2.47114
2.45819
2.44394
2.43762
2.44331
2.46144
2.48996
2.52372
2.56004
2.77969
2.64374
2.56421
2.52162
2.50429
2.50828
2.5357
2.59356
2.70121
2.87962
1.2197
1.2134
1.20567
1.19456
1.181
1.16837
1.15799
1.15001
1.14434
1.14106
1.14079
1.1437
1.14899
1.15639
1.16597
1.17783
1.1914
1.20434
1.21334
1.22088
1.12875
1.13467
1.14275
1.14889
1.15197
1.15147
1.14841
1.14444
1.1409
1.13868
1.13863
1.14096
1.14478
1.14928
1.15341
1.15568
1.15463
1.15001
1.14296
1.13513
1.12196
1.12434
1.12761
1.13039
1.13286
1.13507
1.13627
1.13616
1.13528
1.13454
1.13485
1.13635
1.13821
1.13949
1.13946
1.13802
1.13589
1.13354
1.13057
1.12756
1.11713
1.11821
1.12014
1.12249
1.12438
1.1258
1.12705
1.12808
1.12874
1.12921
1.12987
1.13072
1.13127
1.13122
1.13064
1.12975
1.12845
1.1265
1.12441
1.12294
1.11204
1.11267
1.11381
1.11558
1.11744
1.11907
1.12035
1.12147
1.12252
1.12352
1.12443
1.12508
1.12532
1.12519
1.12471
1.12379
1.12239
1.12081
1.11949
1.11869
1.10703
1.10747
1.10826
1.10959
1.11113
1.11273
1.11426
1.11561
1.11685
1.11806
1.11916
1.11991
1.12021
1.12008
1.11949
1.11855
1.11744
1.11633
1.11544
1.11491
1.10209
1.10242
1.10304
1.10413
1.10546
1.1069
1.10843
1.10998
1.11147
1.11291
1.11424
1.11517
1.11554
1.11542
1.11492
1.11421
1.11342
1.1126
1.11197
1.11158
1.0972
1.09745
1.09795
1.09889
1.1001
1.10146
1.10294
1.10456
1.10626
1.10799
1.1096
1.11074
1.11126
1.11131
1.11105
1.1106
1.11003
1.10946
1.109
1.10871
1.09226
1.09246
1.09288
1.09371
1.09485
1.09618
1.09766
1.09934
1.1012
1.10321
1.10516
1.10661
1.10742
1.10775
1.10776
1.10755
1.10721
1.10684
1.10654
1.1063
1.08721
1.08737
1.08773
1.08849
1.08959
1.09091
1.09244
1.09423
1.09628
1.09858
1.10094
1.10281
1.104
1.10466
1.10496
1.10502
1.10492
1.10474
1.10455
1.10437
1.08193
1.08206
1.08238
1.08311
1.0842
1.08555
1.08717
1.08911
1.09141
1.09409
1.09693
1.09932
1.10096
1.10202
1.10266
1.103
1.10314
1.10315
1.10307
1.10292
1.07634
1.07645
1.07674
1.07745
1.07857
1.08001
1.08176
1.08391
1.08654
1.08967
1.09312
1.09613
1.09831
1.09983
1.10084
1.1015
1.10191
1.10211
1.10212
1.102
1.07033
1.07041
1.07069
1.07141
1.0726
1.07416
1.07611
1.07854
1.08157
1.08528
1.08946
1.09323
1.09605
1.0981
1.09956
1.1006
1.10129
1.10168
1.10177
1.10167
1.06378
1.06384
1.06411
1.06487
1.06616
1.06789
1.0701
1.0729
1.07645
1.08086
1.08593
1.0906
1.09418
1.09686
1.09883
1.10029
1.10132
1.10192
1.10209
1.102
1.05654
1.05658
1.05686
1.05767
1.0591
1.06107
1.0636
1.06687
1.07106
1.07634
1.08249
1.08823
1.09273
1.09615
1.09873
1.10068
1.10209
1.10291
1.10316
1.10309
1.04844
1.04846
1.04875
1.04964
1.05125
1.05351
1.05647
1.06032
1.0653
1.07164
1.07909
1.08613
1.09169
1.096
1.0993
1.10184
1.10368
1.10475
1.10508
1.10501
1.03923
1.03924
1.03955
1.04054
1.0424
1.04504
1.04852
1.0531
1.05906
1.06669
1.0757
1.08428
1.09111
1.09646
1.10061
1.10385
1.10619
1.10752
1.10793
1.10786
1.02863
1.02861
1.02896
1.03011
1.03226
1.03538
1.03953
1.04501
1.05218
1.06139
1.07229
1.08268
1.09101
1.09757
1.10273
1.10678
1.1097
1.11131
1.11179
1.11172
1.01626
1.01622
1.01662
1.01796
1.02049
1.02422
1.02922
1.03584
1.04452
1.05565
1.06881
1.08134
1.09141
1.09939
1.10572
1.1107
1.11426
1.11617
1.11671
1.11663
1.00159
1.00153
1.00201
1.0036
1.00663
1.01114
1.01723
1.02532
1.03589
1.04938
1.06524
1.08027
1.09233
1.10193
1.10963
1.11565
1.11991
1.1221
1.12268
1.12258
0.983899
0.983812
0.984425
0.986372
0.99006
0.995618
1.00315
1.01313
1.0261
1.04252
1.06158
1.07948
1.09381
1.10523
1.11443
1.12163
1.12662
1.12904
1.12963
1.1295
0.96213
0.962026
0.962852
0.965323
0.96994
0.976951
0.986447
0.99895
1.01502
1.03502
1.05786
1.07902
1.09586
1.10929
1.12012
1.12859
1.13426
1.13683
1.13737
1.13721
0.934694
0.934592
0.935777
0.939064
0.945104
0.95424
0.966534
0.982487
1.00256
1.02695
1.05417
1.07895
1.09851
1.1141
1.12666
1.1364
1.14261
1.14518
1.14562
1.14543
0.899005
0.898964
0.900804
0.905508
0.913944
0.926449
0.942884
0.963594
0.988807
1.01847
1.05065
1.07936
1.1018
1.11962
1.13396
1.14485
1.15134
1.15371
1.15401
1.15378
0.850469
0.850674
0.853972
0.861683
0.874607
0.892687
0.915306
0.942461
0.974078
1.00988
1.04752
1.08039
1.10576
1.12582
1.14187
1.15365
1.16
1.16195
1.16207
1.16184
0.780465
0.782014
0.790092
0.804776
0.826035
0.853033
0.884398
0.919769
0.958941
1.00158
1.04502
1.08214
1.11045
1.13261
1.15012
1.1623
1.16801
1.16939
1.16935
1.16914
0.696735
0.699701
0.715494
0.740991
0.773726
0.811205
0.851996
0.895974
0.94306
0.993015
1.04294
1.08509
1.11705
1.14186
1.16076
1.17266
1.17744
1.17832
1.17825
1.17812
0.610659
0.618384
0.642188
0.678476
0.722257
0.770022
0.820233
0.872839
0.927838
0.985055
1.04138
1.08846
1.12394
1.15134
1.17145
1.1825
1.18583
1.18617
1.18607
1.186
0.539845
0.549858
0.578709
0.622635
0.675052
0.731485
0.790155
0.850817
0.913314
0.977383
1.03964
1.09118
1.12977
1.15922
1.17976
1.18975
1.19222
1.19239
1.19231
1.19227
0.481536
0.492335
0.525049
0.574617
0.63354
0.696862
0.762582
0.830257
0.899494
0.96984
1.03756
1.0932
1.13458
1.16574
1.18648
1.19557
1.19747
1.19755
1.19748
1.19745
0.43243
0.443633
0.479029
0.53298
0.597174
0.666167
0.737786
0.811472
0.886641
0.962636
1.03534
1.09476
1.13873
1.17139
1.19215
1.20041
1.20191
1.20194
1.20188
1.20187
0.390125
0.401513
0.438904
0.496361
0.564934
0.638761
0.715485
0.794432
0.874877
0.955969
1.03322
1.09608
1.1424
1.17634
1.19699
1.20452
1.20575
1.20574
1.20569
1.20568
0.3529
0.364359
0.403308
0.463659
0.535947
0.613958
0.695189
0.778861
0.864105
0.949867
1.03129
1.09726
1.14568
1.18071
1.20115
1.20807
1.20908
1.20904
1.20899
1.20898
0.319503
0.330986
0.37116
0.434001
0.509514
0.591198
0.676449
0.764423
0.854103
0.944235
1.02952
1.09834
1.14863
1.18455
1.20473
1.21112
1.21197
1.21189
1.21183
1.21182
0.288901
0.30042
0.341675
0.406716
0.485087
0.570033
0.658903
0.750821
0.844654
0.938935
1.0279
1.09932
1.15126
1.1879
1.20775
1.21368
1.2144
1.21428
1.2142
1.21418
0.260505
0.272064
0.314277
0.381293
0.462221
0.550103
0.642265
0.737825
0.835573
0.933858
1.02638
1.10024
1.15359
1.19075
1.2102
1.21573
1.21633
1.21617
1.21607
1.21603
0.233815
0.245427
0.288523
0.357337
0.440578
0.531123
0.626303
0.725247
0.826716
0.928919
1.025
1.1012
1.15572
1.19313
1.21207
1.21723
1.21773
1.21754
1.21742
1.21737
0.208429
0.220177
0.264093
0.334566
0.41991
0.512875
0.610836
0.712944
0.817958
0.924038
1.02377
1.10232
1.15777
1.19509
1.21336
1.21816
1.21861
1.21841
1.21828
1.21823
0.18419
0.196089
0.240782
0.312771
0.400033
0.49521
0.595729
0.700793
0.809196
0.919119
1.02271
1.10376
1.15995
1.19676
1.21414
1.2186
1.21903
1.21885
1.21873
1.21867
0.160879
0.172978
0.218409
0.291823
0.380826
0.478013
0.580884
0.688704
0.800338
0.914075
1.02176
1.1057
1.16258
1.19839
1.21448
1.21858
1.21911
1.21899
1.21883
1.21875
0.138473
0.150751
0.196888
0.271638
0.36221
0.461214
0.566241
0.676615
0.791313
0.908801
1.02084
1.10824
1.16609
1.20042
1.21454
1.218
1.21876
1.21882
1.21862
1.21848
0.116832
0.129343
0.176194
0.252164
0.344133
0.444771
0.551754
0.664486
0.782063
0.903207
1.01982
1.11142
1.17089
1.20354
1.21475
1.21668
1.21743
1.21805
1.21827
1.21817
0.0960852
0.10873
0.156282
0.233356
0.326573
0.428683
0.53741
0.65229
0.772552
0.897224
1.01855
1.11514
1.17735
1.20875
1.21626
1.2153
1.21517
1.21657
1.21836
1.21892
0.0760412
0.0888991
0.13713
0.215181
0.309507
0.412929
0.523229
0.640022
0.762754
0.890797
1.01686
1.11918
1.18559
1.21704
1.22112
1.21646
1.21413
1.21609
1.22036
1.22283
0.0568101
0.0698815
0.118708
0.197642
0.292968
0.39754
0.509232
0.627727
0.752677
0.883855
1.01462
1.12324
1.19546
1.22902
1.23117
1.22317
1.21822
1.21993
1.22653
1.23222
0.0382901
0.0515719
0.101034
0.180763
0.276953
0.382539
0.495457
0.615422
0.742339
0.8764
1.01166
1.12691
1.20646
1.24444
1.2468
1.23693
1.22933
1.22771
1.22828
1.22519
0.0205522
0.0339795
0.0840076
0.16436
0.26123
0.367643
0.481579
0.602728
0.731342
0.868011
1.00763
1.1299
1.21855
1.26364
1.26845
1.25811
1.24788
1.23777
1.22667
1.22957
0.0035899
0.017
0.0675952
0.148474
0.24579
0.352865
0.467599
0.589587
0.719593
0.858466
1.00213
1.13133
1.23048
1.28567
1.29445
1.28428
1.26958
1.25547
1.21964
1.1847
-0.0124313
0.000760731
0.0517876
0.133228
0.230607
0.338172
0.453483
0.576089
0.707092
0.847678
0.994808
1.13034
1.24013
1.30821
1.32236
1.30824
1.28675
1.25302
1.2006
1.15089
-0.0302244
-0.0136624
0.0367629
0.119097
0.21595
0.323801
0.43883
0.562248
0.69388
0.835674
0.985423
1.12613
1.24467
1.329
1.35006
1.32771
1.28208
1.22
1.1504
1.09233
-0.0180512
0.0074242
0.0626548
0.148898
0.252932
0.364146
0.485318
0.612898
0.749669
0.899232
1.0488
1.18245
1.29372
1.36664
1.35363
1.26085
1.19207
1.11788
1.04778
1.00359
-0.0310777
-0.0229711
0.0194966
0.0961239
0.193202
0.300369
0.416031
0.539663
0.671683
0.814261
0.965912
1.11116
1.23567
1.3274
1.36029
1.30513
1.17602
1.08554
1.01896
0.943545
-0.0512139
-0.0403226
0.00574608
0.0838287
0.18158
0.28834
0.403117
0.526085
0.657765
0.800068
0.952019
1.09853
1.22226
1.30138
1.30119
1.1795
1.03269
0.937062
0.864469
0.786335
-0.0732968
-0.061243
-0.0120006
0.0670737
0.164817
0.271887
0.386941
0.510007
0.641331
0.783075
0.933677
1.07762
1.19209
1.25513
1.21134
1.04593
0.891332
0.781315
0.694807
0.584708
-0.0947297
-0.0826853
-0.031821
0.0483977
0.146183
0.253431
0.368531
0.491296
0.621923
0.762425
0.910438
1.04915
1.15276
1.18963
1.09702
0.904297
0.730244
0.593874
0.483281
0.339872
-0.11583
-0.10388
-0.052036
0.0291835
0.127297
0.234585
0.349391
0.471484
0.601027
0.739653
0.884027
1.01579
1.10888
1.10348
0.961895
0.758433
0.560783
0.388571
0.242874
0.000458455
-0.137056
-0.125307
-0.0729225
0.0089273
0.107327
0.214647
0.329089
0.4504
0.578595
0.714818
0.854666
0.976612
1.05415
1.01743
0.828668
0.618186
0.408481
0.227601
0.0597328
-0.18643
-0.158971
-0.147417
-0.0948635
-0.0126774
0.0858833
0.193187
0.307245
0.427714
0.554356
0.687707
0.822297
0.932348
0.991464
0.921899
0.706717
0.491301
0.286106
0.114301
0.0287627
-0.0179692
-0.182275
-0.170851
-0.118208
-0.0359263
0.0625578
0.169626
0.283084
0.40239
0.526995
0.656691
0.784747
0.883775