/*--------------------------------*- C++ -*----------------------------------*\
  =========                 |
  \\      /  F ield         | OpenFOAM: The Open Source CFD Toolbox
   \\    /   O peration     | Website:  https://openfoam.org
    \\  /    A nd           | Version:  6
     \\/     M anipulation  |
\*---------------------------------------------------------------------------*/
FoamFile
{
    version     2.0;
    format      ascii;
    class       surfaceScalarField;
    location    "45";
    object      phi;
}
// * * * * * * * * * * * * * * * * * * * * * * * * * * * * * * * * * * * * * //

dimensions      [0 3 -1 0 0 0 0];

internalField   nonuniform List<scalar> 
17370
(
-0.0900014
0.0898507
0.289162
-0.0714646
0.0537548
0.364485
-0.0381216
0.027692
0.426598
-0.0196388
0.0146038
0.504287
-0.0107594
0.00826707
0.601894
-0.0062667
0.00489198
0.720432
-0.00373284
0.00289772
0.863742
-0.00216184
0.00160694
1.03601
-0.00109424
0.000684954
1.24291
-0.000279809
-0.000107933
1.49158
0.000483965
-0.000889287
1.4916
0.00128336
-0.00177138
1.24318
0.00230227
-0.00301548
1.03635
0.00383664
-0.00498772
0.864058
0.00635856
-0.00835455
0.721053
0.0108407
-0.0146767
0.603051
0.0197042
-0.02775
0.507485
0.0381734
-0.0537986
0.431793
0.0715001
-0.0898741
0.36515
0.0900148
0.198996
-0.128131
0.0882166
0.0399145
-0.364593
0.353367
-0.0746849
0.0859114
-0.446474
0.454313
-0.0844135
0.0765747
-0.521187
0.529894
-0.0684804
0.0597727
-0.612783
0.621561
-0.0515862
0.0428082
-0.726888
0.734153
-0.0353493
0.0280841
-0.867471
0.872574
-0.0224909
0.0173876
-1.03847
1.04191
-0.0135884
0.0101476
-1.2446
1.24702
-0.00754237
0.00511483
-1.49263
1.4946
-0.00317239
0.00120102
-1.4925
1.49422
0.000479604
-0.00220203
-1.24398
1.24586
0.00410452
-0.00598697
-1.03751
1.04005
0.00834361
-0.010878
-0.866103
0.869842
0.0142425
-0.017982
-0.724394
0.729947
0.0230334
-0.0285863
-0.608703
0.616121
0.035809
-0.0432268
-0.514902
0.523049
0.051959
-0.0601055
-0.439859
0.447922
0.0687723
-0.0768346
-0.3753
0.376749
0.0846397
-0.0860885
-0.257337
0.222493
0.0748059
-0.0399619
-0.0685034
0.0586719
0.00983148
-0.0518452
0.0584393
-0.374111
0.367517
-0.0575322
0.0537864
-0.453584
0.45733
-0.0487006
0.044752
-0.527933
0.531881
-0.0409161
0.0372819
-0.621548
0.625182
-0.0331882
0.0291238
-0.735333
0.739397
-0.0245694
0.0204239
-0.87432
0.878466
-0.0160913
0.0124066
-1.04347
1.04715
-0.00867962
0.00551538
-1.24855
1.25171
-0.00219737
-0.000869808
-1.49666
1.49972
0.00391222
-0.00716987
-1.49721
1.50047
0.0102475
-0.0138576
-1.25008
1.25369
0.0174285
-0.0216382
-1.04594
1.05015
0.025681
-0.0301366
-0.877779
0.882235
0.0341206
-0.0381319
-0.739919
0.74393
0.0416919
-0.0454481
-0.626793
0.630549
0.0493281
-0.0543485
-0.534826
0.539847
0.0580268
-0.0588487
-0.45749
0.458312
0.0521573
-0.0319718
-0.335777
0.315592
0.00988269
-0.0683647
0.058482
-0.0529159
0.0489145
0.00400144
-0.0332027
0.0437659
-0.35807
0.347507
-0.0474791
0.0468623
-0.459258
0.459875
-0.0438164
0.0404724
-0.535773
0.539117
-0.0367105
0.0334181
-0.628495
0.631787
-0.0299958
0.0269805
-0.742611
0.745626
-0.0237402
0.0206477
-0.881976
0.885069
-0.0171306
0.0137627
-1.05073
1.0541
-0.00998333
0.00645609
-1.25514
1.25866
-0.00249896
-0.00129011
-1.50322
1.50701
0.00504904
-0.00891696
-1.50414
1.50801
0.0123248
-0.0159457
-1.25745
1.26107
0.0191556
-0.0224955
-1.05396
1.0573
0.0254345
-0.0285221
-0.885734
0.888822
0.0314137
-0.0347139
-0.747199
0.750499
0.0379007
-0.0415516
-0.634346
0.637997
0.0447992
-0.0477363
-0.544169
0.547106
0.0482403
-0.0443695
-0.456614
0.452743
0.0336196
-0.016196
-0.296251
0.278828
0.00406415
-0.0526699
0.0486058
-0.0458305
0.0433279
0.0025026
-0.0228561
0.0332599
-0.336796
0.326392
-0.039104
0.0401358
-0.459546
0.458514
-0.0389591
0.0366817
-0.541825
0.544102
-0.0340249
0.0314405
-0.634824
0.637408
-0.0283936
0.0255134
-0.748661
0.751541
-0.0222741
0.0193048
-0.888006
0.890976
-0.0160265
0.0129491
-1.05721
1.06029
-0.0094448
0.00605374
-1.2621
1.26549
-0.00210841
-0.00176113
-1.51089
1.51476
0.00559299
-0.00942392
-1.51191
1.51575
0.0126604
-0.0159585
-1.26452
1.26781
0.0188278
-0.021871
-1.0604
1.06345
0.0246333
-0.0276643
-0.891892
0.894923
0.0303741
-0.0332521
-0.753722
0.7566
0.0356921
-0.0382004
-0.64108
0.643588
0.0403509
-0.0413616
-0.548927
0.549938
0.0401582
-0.0340641
-0.447489
0.441395
0.0233885
-0.0102048
-0.26364
0.250456
0.00257946
-0.0454521
0.0428727
-0.0412459
0.0394703
0.0017756
-0.0168061
0.02609
-0.316511
0.307227
-0.0327297
0.0348954
-0.456895
0.454729
-0.034498
0.0328472
-0.546065
0.547716
-0.0306884
0.0286156
-0.639696
0.641768
-0.0262124
0.0238422
-0.754165
0.756535
-0.0210126
0.0182454
-0.893847
0.896614
-0.0150307
0.0119818
-1.06331
1.06636
-0.00851566
0.00521369
-1.26879
1.27209
-0.00140226
-0.00231583
-1.51853
1.52225
0.0059847
-0.00964881
-1.51949
1.52315
0.0127547
-0.0159583
-1.27108
1.27428
0.0187424
-0.0216554
-1.06648
1.0694
0.0241548
-0.026713
-0.897753
0.900311
0.0288608
-0.0310455
-0.759068
0.761253
0.0329354
-0.034906
-0.645765
0.647735
0.0363734
-0.0365458
-0.550479
0.550651
0.0341178
-0.0271152
-0.434766
0.427764
0.0174676
-0.00736798
-0.238966
0.228866
0.00186933
-0.0407056
0.0388363
-0.0379404
0.0366018
0.00133855
-0.012853
0.0208369
-0.298601
0.290617
-0.0276286
0.0305829
-0.452143
0.449189
-0.0308148
0.0297182
-0.549124
0.550221
-0.0277457
0.02585
-0.643778
0.645674
-0.0236758
0.0215655
-0.758747
0.760858
-0.019085
0.0166373
-0.899157
0.901604
-0.013738
0.0108991
-1.06926
1.0721
-0.00757695
0.00436523
-1.27532
1.27853
-0.000638597
-0.00298179
-1.52589
1.52951
0.00654095
-0.0100842
-1.52676
1.53031
0.0130493
-0.0160433
-1.27743
1.28042
0.018552
-0.0210719
-1.07214
1.07466
0.0231767
-0.0253036
-0.902627
0.904754
0.0271243
-0.0290194
-0.763257
0.765152
0.0306878
-0.0324391
-0.64957
0.651321
0.0332732
-0.0327284
-0.550475
0.54993
0.029401
-0.0221144
-0.420566
0.413279
0.0136653
-0.00569313
-0.219934
0.211962
0.00145253
-0.0372032
0.0357507
-0.0354319
0.0343971
0.00103474
-0.0100638
0.0168223
-0.283274
0.276516
-0.0233573
0.0267744
-0.445991
0.442573
-0.0275961
0.0269262
-0.551104
0.551774
-0.0251958
0.0234388
-0.647547
0.649304
-0.0214041
0.0194235
-0.762896
0.764876
-0.0170917
0.0147983
-0.903894
0.906187
-0.0120946
0.00944219
-1.07476
1.07741
-0.00632337
0.00327698
-1.28162
1.28467
0.000290918
-0.00376802
-1.53304
1.53652
0.00717082
-0.0105172
-1.53376
1.53711
0.013265
-0.0159837
-1.2833
1.28602
0.018232
-0.0204716
-1.07704
1.07928
0.0223444
-0.0242394
-0.906764
0.908659
0.0258585
-0.0275417
-0.766933
0.768617
0.0290109
-0.0304267
-0.652931
0.654347
0.0307633
-0.0295085
-0.549043
0.547788
0.0255797
-0.018397
-0.406023
0.39884
0.0110566
-0.00457675
-0.204808
0.198328
0.00117318
-0.0344555
0.0332823
-0.033488
0.0326794
0.000808634
-0.00799505
0.0136841
-0.270325
0.264636
-0.0197383
0.0233578
-0.439051
0.435431
-0.0246656
0.0242546
-0.552351
0.552762
-0.0228068
0.0211724
-0.651044
0.652679
-0.0192414
0.0173511
-0.766802
0.768692
-0.0151174
0.0129223
-0.908365
0.91056
-0.0103419
0.0078215
-1.07993
1.08245
-0.00486516
0.00197236
-1.28758
1.29048
0.0014235
-0.00473294
-1.53988
1.54319
0.00795201
-0.0110735
-1.54034
1.54346
0.0135986
-0.0160656
-1.28864
1.2911
0.0180916
-0.0201027
-1.08143
1.08344
0.021779
-0.0234705
-0.91047
0.912161
0.0249092
-0.0263996
-0.770192
0.771682
0.0276778
-0.0287299
-0.655553
0.656605
0.0287076
-0.0268002
-0.54621
0.544302
0.0225006
-0.0156188
-0.391804
0.384923
0.00920875
-0.00379699
-0.192434
0.187022
0.000977485
-0.0322209
0.0312434
-0.0319682
0.0313343
0.00063389
-0.00640008
0.011177
-0.259434
0.254658
-0.0166479
0.0202755
-0.431816
0.428189
-0.0219117
0.0217253
-0.553107
0.553294
-0.0205038
0.0189181
-0.654337
0.655923
-0.0170419
0.0152099
-0.770537
0.772369
-0.0130553
0.0109418
-0.912624
0.914738
-0.00845339
0.00602004
-1.08484
1.08727
-0.00317085
0.000403368
-1.29325
1.29602
0.00280829
-0.00590509
-1.54637
1.54947
0.00889328
-0.0117758
-1.54646
1.54934
0.0140979
-0.0163496
-1.29348
1.29573
0.0181819
-0.0199785
-1.08536
1.08716
0.0214579
-0.0229467
-0.913766
0.915255
0.0242221
-0.0255548
-0.773102
0.774434
0.0267099
-0.0273773
-0.65745
0.658117
0.0270014
-0.0245677
-0.542154
0.53972
0.0200571
-0.0135448
-0.378239
0.371727
0.00787998
-0.00324327
-0.182039
0.177402
0.000838993
-0.0303481
0.0295091
-0.0307801
0.0302877
0.000492374
-0.00511555
0.00910494
-0.250305
0.246315
-0.0139467
0.0174372
-0.424645
0.421154
-0.0192803
0.0193146
-0.553423
0.553388
-0.0183219
0.016803
-0.657543
0.659062
-0.014973
0.0131656
-0.774166
0.775973
-0.0110268
0.00892905
-0.916751
0.918848
-0.00647368
0.00409426
-1.0896
1.09198
-0.00133382
-0.00132703
-1.29867
1.30133
0.00439699
-0.00733436
-1.55243
1.55537
0.0101354
-0.0128001
-1.5521
1.55476
0.0149196
-0.0169586
-1.29792
1.29995
0.0186078
-0.0202194
-1.0889
1.09051
0.0215442
-0.0228677
-0.916685
0.918009
0.0239899
-0.0251416
-0.775682
0.776834
0.0260827
-0.0263828
-0.658571
0.658871
0.0256328
-0.0227554
-0.537078
0.534201
0.0181393
-0.0120009
-0.365421
0.359283
0.00692133
-0.00285039
-0.173083
0.169012
0.000742221
-0.0287304
0.0279882
-0.0298631
0.0294912
0.000371895
-0.00403571
0.00733119
-0.242701
0.239406
-0.0115279
0.0147609
-0.417818
0.414585
-0.0166597
0.0168469
-0.553337
0.55315
-0.01593
0.0144858
-0.660609
0.662053
-0.0126598
0.0108571
-0.777751
0.779553
-0.00874011
0.00667929
-0.920821
0.922882
-0.00427603
0.0019506
-1.09423
1.09655
0.000744794
-0.00333271
-1.30389
1.30647
0.00629545
-0.0090966
-1.5582
1.561
0.0117341
-0.0142046
-1.55732
1.55979
0.0161319
-0.0179464
-1.3019
1.30372
0.0193825
-0.0207594
-1.09204
1.09341
0.0218783
-0.0230052
-0.919266
0.920392
0.0239766
-0.0249735
-0.777938
0.778935
0.0256866
-0.025717
-0.659038
0.659068
0.0245814
-0.0213434
-0.531156
0.527918
0.0166855
-0.0108793
-0.353341
0.347535
0.00624442
-0.00257953
-0.165177
0.161513
0.00067745
-0.0272912
0.0266138
-0.0291782
0.0289128
0.000265363
-0.00308863
0.00575561
-0.236447
0.23378
-0.00930815
0.0122107
-0.411544
0.408642
-0.0140763
0.0143703
-0.552991
0.552697
-0.0135229
0.0121399
-0.663562
0.664945
-0.0103056
0.00847334
-0.781336
0.783168
-0.00631689
0.00422217
-0.924827
0.926922
-0.00179212
-0.000538692
-1.09876
1.10109
0.00320798
-0.0057344
-1.30895
1.31148
0.00858121
-0.0112272
-1.56367
1.56632
0.0136765
-0.0159303
-1.56214
1.5644
0.0176603
-0.0192622
-1.30546
1.30707
0.0205107
-0.0216905
-1.09474
1.09592
0.022637
-0.0235918
-0.92146
0.922415
0.0244196
-0.0252487
-0.779863
0.780692
0.0257028
-0.0254719
-0.658948
0.658717
0.0239326
-0.0203427
-0.524532
0.520943
0.0156474
-0.0101023
-0.3419
0.336355
0.00579023
-0.00240524
-0.158022
0.154637
0.00063853
-0.0259704
0.0253318
-0.0287034
0.0285392
0.000164175
-0.00220774
0.00428161
-0.231428
0.229355
-0.00717985
0.00967247
-0.405973
0.403481
-0.0113863
0.011708
-0.552475
0.552154
-0.0109095
0.00957219
-0.666405
0.667743
-0.00772119
0.00583996
-0.784984
0.786865
-0.00361557
0.00146191
-0.928915
0.931069
0.0010177
-0.00337346
-1.10331
1.10567
0.00604333
-0.00854285
-1.3139
1.3164
0.0113235
-0.0138637
-1.56885
1.57139
0.0161627
-0.0182188
-1.56653
1.56858
0.0197493
-0.0211242
-1.30858
1.30996
0.022172
-0.0231405
-1.09706
1.09803
0.0238944
-0.0246351
-0.923328
0.924069
0.0252726
-0.0259149
-0.781426
0.782068
0.0260583
-0.0254932
-0.658258
0.657693
0.0235563
-0.0196594
-0.517243
0.513346
0.0149368
-0.009589
-0.330959
0.325612
0.00550256
-0.00230178
-0.151382
0.148181
0.000618035
-0.0247192
0.0241012
-0.0284319
0.0283702
6.16844e-05
-0.00134614
0.00283934
-0.227586
0.226093
-0.00506851
0.00708789
-0.401261
0.399242
-0.00854015
0.00878609
-0.551985
0.551739
-0.00795169
0.00658396
-0.669217
0.670585
-0.00465343
0.00269574
-0.788724
0.790682
-0.00039736
-0.00181136
-0.933088
0.935297
0.00433961
-0.0067303
-1.1079
1.11029
0.00942311
-0.0119187
-1.3188
1.32129
0.0146449
-0.0170722
-1.57382
1.57625
0.0192065
-0.0210561
-1.57051
1.57236
0.0223776
-0.0234996
-1.31124
1.31236
0.0242968
-0.0249817
-1.09892
1.0996
0.0254875
-0.0259935
-0.92476
0.925266
0.0264689
-0.0269479
-0.782592
0.783071
0.0268234
-0.0258933
-0.656862
0.655931
0.0235641
-0.0193519
-0.509366
0.505154
0.0145635
-0.00932431
-0.320385
0.315146
0.00536877
-0.00226544
-0.145073
0.141969
0.000616084
-0.0235035
0.0228874
-0.0283667
0.0284146
-4.78692e-05
-0.000458958
0.00136256
-0.224907
0.224003
-0.00288993
0.00437274
-0.397529
0.396046
-0.00547893
0.00559469
-0.551701
0.551586
-0.00470655
0.00328383
-0.672128
0.673551
-0.00125912
-0.00081618
-0.792623
0.794699
0.00325782
-0.0055955
-0.937383
0.939721
0.00825509
-0.010743
-1.11257
1.11506
0.0135038
-0.0160092
-1.32368
1.32618
0.0186842
-0.020996
-1.57854
1.58085
0.0229505
-0.0245564
-1.57405
1.57566
0.0256397
-0.0265041
-1.31339
1.31425
0.0270742
-0.0275105
-1.10025
1.10069
0.0277783
-0.0280308
-0.925744
0.925996
0.0282944
-0.0284869
-0.783283
0.783476
0.0281115
-0.0267251
-0.654704
0.653318
0.0239539
-0.0193904
-0.500881
0.496317
0.0144888
-0.00927499
-0.310003
0.304789
0.00536652
-0.00228567
-0.138928
0.135848
0.00062941
-0.0222866
0.0216571
-0.0285199
0.0286866
-0.000166685
0.000490413
-0.00022009
-0.223421
0.22315
-0.00055223
0.00141358
-0.394909
0.394048
-0.00205348
0.00194197
-0.551754
0.551866
-0.000939332
-0.000579293
-0.675181
0.676699
0.00271506
-0.00493467
-0.796748
0.798967
0.00756011
-0.0100671
-0.941943
0.94445
0.0128933
-0.0155023
-1.11744
1.12005
0.0183549
-0.0209053
-1.32858
1.33113
0.0235718
-0.0258108
-1.58304
1.58528
0.0276113
-0.0289803
-1.57711
1.57847
0.0298012
-0.030347
-1.31499
1.31553
0.0306249
-0.0307547
-1.10106
1.10119
0.0307585
-0.0307401
-0.926211
0.926193
0.0307666
-0.0306101
-0.783303
0.783146
0.0298933
-0.0279582
-0.651661
0.649726
0.0247214
-0.0197857
-0.491722
0.486787
0.0147175
-0.00943781
-0.299644
0.294364
0.00549214
-0.00236077
-0.1328
0.129668
0.000657474
-0.0210383
0.0203808
-0.0289332
0.0292452
-0.000311968
0.00152531
-0.00190469
-0.223231
0.22361
0.00198703
-0.00185259
-0.39356
0.393425
0.00182443
-0.00229901
-0.552379
0.552854
0.00352719
-0.00523839
-0.678494
0.680205
0.00759425
-0.0100198
-0.801164
0.803589
0.0128604
-0.0155444
-0.946816
0.9495
0.0185475
-0.0213045
-1.12254
1.1253
0.0242891
-0.0269091
-1.33358
1.3362
0.0295627
-0.0316716
-1.58736
1.58947
0.0332582
-0.0343313
-1.57964
1.58072
0.0348753
-0.0350733
-1.31593
1.31613
0.0350233
-0.0347979
-1.10122
1.10099
0.0344815
-0.0341391
-0.926088
0.925746
0.0339232
-0.0333586
-0.782551
0.781987
0.032243
-0.0297182
-0.647593
0.645068
0.0259681
-0.0205878
-0.481833
0.476452
0.015266
-0.00981561
-0.28912
0.283669
0.00574542
-0.00249049
-0.126542
0.123287
0.000700376
-0.0197296
0.0190293
-0.0296267
0.0301071
-0.000480414
0.00278652
-0.00392738
-0.224385
0.225526
0.00491746
-0.00559851
-0.39368
0.394361
0.00627901
-0.00718211
-0.553861
0.554764
0.00869322
-0.0106456
-0.682264
0.684216
0.0132826
-0.0159737
-0.805985
0.808676
0.0191113
-0.0220668
-0.952047
0.955002
0.0253555
-0.028341
-1.12795
1.13094
0.0315161
-0.0342271
-1.33871
1.34142
0.0368686
-0.0388486
-1.59141
1.59339
0.0401873
-0.0409193
-1.58156
1.58229
0.0411084
-0.0409156
-1.31614
1.31595
0.0405031
-0.03989
-1.1006
1.09999
0.039222
-0.0385086
-0.925251
0.924538
0.0379615
-0.0369095
-0.780925
0.779873
0.0352893
-0.0320829
-0.642407
0.639201
0.0277258
-0.0218076
-0.471051
0.465133
0.0161409
-0.0104111
-0.278222
0.272492
0.00612659
-0.00267397
-0.12001
0.116557
0.000757499
-0.018331
0.0175735
-0.0306695
0.0313689
-0.00069945
0.00429516
-0.00634734
-0.227116
0.229168
0.0083995
-0.00998073
-0.395469
0.397051
0.0114989
-0.0129559
-0.556358
0.557815
0.0148565
-0.0171033
-0.686549
0.688796
0.0200885
-0.0231288
-0.811331
0.814371
0.0266697
-0.0299828
-0.95785
0.961163
0.0336264
-0.0368792
-1.13383
1.13709
0.0402727
-0.0431004
-1.34402
1.34684
0.0457537
-0.0476068
-1.59519
1.59704
0.0486817
-0.0490191
-1.58276
1.5831
0.048775
-0.0481351
-1.3155
1.31486
0.0473038
-0.0462516
-1.09912
1.09807
0.0451996
-0.0440608
-0.92359
0.922451
0.0430255
-0.0414324
-0.778283
0.776689
0.0391449
-0.0351462
-0.635897
0.631898
0.0300944
-0.0235294
-0.459202
0.452637
0.0173956
-0.0112501
-0.266727
0.260582
0.00664621
-0.00291333
-0.113054
0.109321
0.000828498
-0.0168153
0.0159868
-0.0321547
0.0331431
-0.000988399
0.00619091
-0.00931152
-0.231675
0.234796
0.0126035
-0.0152452
-0.399228
0.401869
0.0177482
-0.0199295
-0.560164
0.562345
0.0224372
-0.0251613
-0.691525
0.694249
0.0286595
-0.0321498
-0.817373
0.820863
0.0361532
-0.0398553
-0.964353
0.968055
0.043884
-0.047437
-1.14023
1.14379
0.0510714
-0.054009
-1.34954
1.35248
0.0566225
-0.0582597
-1.59868
1.60032
0.0589652
-0.0588055
-1.58314
1.58298
0.0580703
-0.0568656
-1.31386
1.31266
0.0555279
-0.053937
-1.09664
1.09505
0.0524304
-0.050805
-0.920974
0.919348
0.0492378
-0.0470238
-0.774528
0.772314
0.0439987
-0.0390862
-0.627836
0.622924
0.0331966
-0.0258106
-0.446049
0.438663
0.0190528
-0.0123353
-0.254358
0.24764
0.00729885
-0.00320277
-0.105509
0.101412
0.000910996
-0.0151554
0.0142444
-0.0342077
0.0355911
-0.00138339
0.00866654
-0.0131086
-0.238375
0.242817
0.0178673
-0.0217243
-0.405294
0.409151
0.0253542
-0.0283934
-0.565664
0.568703
0.0316803
-0.0350443
-0.697571
0.700935
0.0392184
-0.0432867
-0.824317
0.828385
0.0478808
-0.0520792
-0.971653
0.975851
0.0565899
-0.0604949
-1.14724
1.15114
0.0643793
-0.0673817
-1.35523
1.35824
0.0698594
-0.0711594
-1.60164
1.60294
0.0713707
-0.0705832
-1.58243
1.58165
0.0692457
-0.067354
-1.311
1.30911
0.0654241
-0.0632219
-1.09296
1.09076
0.0611836
-0.0590291
-0.917279
0.915124
0.0568427
-0.0539244
-0.769498
0.76658
0.0500227
-0.0440115
-0.617958
0.611947
0.0371041
-0.0286979
-0.431249
0.422843
0.021134
-0.0136639
-0.240803
0.233333
0.00807007
-0.00352782
-0.097213
0.0926708
0.000997858
-0.013332
0.0123342
-0.0370233
0.038977
-0.00195368
0.0120633
-0.0181934
-0.247692
0.253822
0.0247177
-0.0299829
-0.414112
0.419377
0.0349066
-0.0389503
-0.573178
0.577222
0.0431773
-0.0473407
-0.704989
0.709152
0.0523741
-0.0571807
-0.832425
0.837231
0.0625303
-0.0673366
-0.979976
0.984782
0.0723901
-0.0766394
-1.15493
1.15917
0.0807103
-0.0836891
-1.361
1.36398
0.0859132
-0.0867593
-1.60386
1.60471
0.086339
-0.0847786
-1.58038
1.57882
0.0827114
-0.0800311
-1.30667
1.30399
0.0774156
-0.0745257
-1.08794
1.08505
0.0719118
-0.0691067
-0.912372
0.909566
0.066207
-0.0624001
-0.763003
0.759196
0.0574294
-0.0501122
-0.605874
0.598557
0.0419814
-0.0323028
-0.414407
0.404729
0.0236962
-0.0152477
-0.225699
0.21725
0.00895029
-0.00387572
-0.0880042
0.0829297
0.00108256
-0.0113405
0.0102579
-0.0409214
0.0437514
-0.00283002
0.0169873
-0.0253322
-0.260327
0.268672
0.0340215
-0.040975
-0.426325
0.433279
0.0474569
-0.0527668
-0.583139
0.588449
0.0582417
-0.0635042
-0.714141
0.719404
0.069654
-0.0753464
-0.842008
0.8477
0.0815197
-0.0869206
-0.989504
0.994905
0.0924205
-0.0968659
-1.16322
1.16766
0.1009
-0.103609
-1.36658
1.36929
0.105256
-0.105321
-1.60499
1.60505
0.103981
-0.101407
-1.57663
1.57405
0.0984467
-0.0948563
-1.30069
1.2971
0.0915034
-0.0878892
-1.08142
1.0778
0.0846607
-0.0811324
-0.905962
0.902433
0.0775154
-0.0726668
-0.754594
0.749745
0.0664631
-0.0575865
-0.591153
0.582276
0.0479593
-0.0366836
-0.395013
0.383738
0.0267424
-0.0170526
-0.208608
0.198918
0.00990121
-0.00422397
-0.077726
0.0720488
0.00115767
-0.00918874
0.00803107
-0.0464587
0.0507608
-0.00430211
0.0245964
-0.0359257
-0.27741
0.288739
0.047388
-0.0565915
-0.442962
0.452165
0.0650544
-0.071901
-0.596196
0.603042
0.0789623
-0.0856929
-0.725538
0.732268
0.0930437
-0.0995615
-0.853293
0.859811
0.106378
-0.112123
-1.0001
1.00585
0.117733
-0.122034
-1.17172
1.17602
0.125629
-0.127684
-1.37142
1.37347
0.128335
-0.127254
-1.60435
1.60327
0.124687
-0.120836
-1.57073
1.56688
0.116783
-0.112085
-1.29278
1.28809
0.107831
-0.103406
-1.07326
1.06884
0.0995925
-0.0953387
-0.897885
0.893632
0.0909787
-0.084888
-0.743909
0.737819
0.077206
-0.0664294
-0.573229
0.562452
0.0549681
-0.0417247
-0.372421
0.359178
0.0301281
-0.0189407
-0.189069
0.177881
0.010821
-0.00452331
-0.0662874
0.0599897
0.00120799
-0.00690197
0.00569398
-0.0546861
0.0620257
-0.00733964
0.0379086
-0.053644
-0.30102
0.316755
0.0690223
-0.0812858
-0.465607
0.47787
0.0918002
-0.100048
-0.612845
0.621093
0.108698
-0.116744
-0.73956
0.747606
0.125046
-0.131961
-0.866024
0.872939
0.138836
-0.14435
-1.01113
1.01664
0.149444
-0.153013
-1.17964
1.18321
0.155566
-0.156414
-1.37464
1.37549
0.155552
-0.152894
-1.60119
1.59853
0.14873
-0.143306
-1.56212
1.5567
0.137961
-0.132021
-1.2826
1.27666
0.126753
-0.121353
-1.06331
1.05791
0.116781
-0.111784
-0.88804
0.883044
0.106495
-0.0988435
-0.73053
0.722879
0.0893227
-0.0762154
-0.551282
0.538175
0.0625294
-0.046986
-0.345866
0.330322
0.0335071
-0.0207034
-0.166725
0.153921
0.0115877
-0.00471913
-0.0537716
0.0469031
0.00120862
-0.00453498
0.00332636
-0.0688838
0.0729574
-0.00407359
0.0287802
-0.0424914
-0.335071
0.348783
0.0562032
-0.0674256
-0.495559
0.506781
0.0774265
-0.0867666
-0.632761
0.642101
0.0972263
-0.106745
-0.755045
0.764564
0.117227
-0.126426
-0.878869
0.888067
0.136096
-0.144558
-1.02123
1.02969
0.15322
-0.160409
-1.18567
1.19286
0.167204
-0.172158
-1.37512
1.38007
0.175827
-0.17712
-1.5946
1.59589
0.175957
-0.172858
-1.55013
1.54703
0.168747
-0.163389
-1.26979
1.26443
0.158328
-0.152341
-1.05133
1.04535
0.147154
-0.141218
-0.876139
0.870203
0.134594
-0.124047
-0.713578
0.703031
0.110406
-0.092173
-0.524404
0.506171
0.0737516
-0.0533238
-0.314515
0.294087
0.0364971
-0.0214661
-0.14155
0.126519
0.0113905
-0.00435551
-0.0405891
0.033554
0.000995423
-0.00217217
0.00117675
-0.0802761
0.0783198
0.00195628
0.00742554
-0.0162012
-0.365231
0.374007
0.0265612
-0.0346384
-0.522579
0.530656
0.042674
-0.0504607
-0.653971
0.661757
0.0599942
-0.0688375
-0.773579
0.782422
0.0782217
-0.0867054
-0.896692
0.905176
0.0956092
-0.103059
-1.03787
1.04532
0.110851
-0.116928
-1.19983
1.2059
0.122568
-0.126299
-1.38463
1.38836
0.128324
-0.128096
-1.59617
1.59594
0.125423
-0.120778
-1.54294
1.5383
0.115128
-0.108228
-1.25837
1.25147
0.1018
-0.0947095
-1.03826
1.03117
0.0882086
-0.0808813
-0.860708
0.853381
0.073707
-0.0645001
-0.688497
0.67929
0.0542326
-0.0418397
-0.486234
0.473841
0.0305727
-0.0198566
-0.273544
0.262828
0.0122562
-0.00650039
-0.112109
0.106353
0.00311342
-0.00105008
-0.0267866
0.0247233
0.000169597
0.000100484
-0.000270081
-0.0816265
0.0787833
0.00284329
-0.00128532
-0.00368741
-0.385623
0.390595
0.0105021
-0.0164544
-0.542557
0.548509
0.0224907
-0.0292037
-0.671931
0.678644
0.0374968
-0.0451842
-0.790323
0.798011
0.0535549
-0.0609713
-0.912891
0.920307
0.0685152
-0.0751887
-1.05261
1.05928
0.0819493
-0.0872796
-1.21153
1.21686
0.0917377
-0.0943914
-1.39136
1.39401
0.0955526
-0.0943957
-1.59488
1.59372
0.090898
-0.0855225
-1.53289
1.52752
0.079353
-0.0720825
-1.24427
1.237
0.064862
-0.0570044
-1.02313
1.01527
0.049636
-0.0414143
-0.843877
0.835655
0.0341254
-0.0261338
-0.666274
0.658283
0.0183487
-0.0102798
-0.459622
0.451553
0.00465728
-0.000899012
-0.251315
0.247556
-0.000798111
0.00130297
-0.0999321
0.0994272
-0.0011175
0.000622044
-0.0221634
0.0226589
-0.000243885
0.000846252
-0.000602367
-0.0804348
0.0777059
0.00272886
-0.00489268
0.00241574
-0.399157
0.401634
0.00198304
-0.00649445
-0.557556
0.562068
0.011662
-0.0173443
-0.686745
0.692427
0.0245244
-0.0311776
-0.805044
0.811697
0.0383796
-0.0447805
-0.927203
0.933604
0.0516663
-0.0573486
-1.06553
1.07121
0.0632668
-0.06748
-1.22178
1.22599
0.0712663
-0.0734137
-1.39644
1.39858
0.0739849
-0.0722526
-1.59219
1.59045
0.0686785
-0.0632989
-1.52168
1.5163
0.0571062
-0.0493857
-1.22947
1.22175
0.0419616
-0.0336836
-1.00656
0.998279
0.0257403
-0.0174062
-0.825635
0.817301
0.0100134
-0.00299705
-0.646847
0.639831
-0.00277052
0.0072681
-0.441815
0.437317
-0.00907804
0.0088608
-0.241304
0.241521
-0.00760829
0.00543506
-0.0978865
0.10006
-0.00352556
0.00165144
-0.0225067
0.0243808
-0.000516184
0.000798741
-0.000282557
-0.0790257
0.076643
0.0023827
-0.00598937
0.00502881
-0.408292
0.409253
-0.00170929
-0.00169824
-0.569664
0.573071
0.00592072
-0.0111243
-0.699289
0.704493
0.0172135
-0.0231178
-0.81765
0.823554
0.0294185
-0.0350362
-0.93958
0.945198
0.0409979
-0.0461026
-1.07677
1.08187
0.051155
-0.055086
-1.23008
1.23401
0.0583776
-0.0601811
-1.40041
1.40221
0.0604855
-0.0585779
-1.5886
1.58669
0.0548382
-0.0490867
-1.51019
1.50443
0.0427622
-0.0350888
-1.21385
1.20618
0.0276882
-0.0194493
-0.989424
0.981186
0.0120295
-0.00431128
-0.807829
0.800111
-0.00218349
0.00815642
-0.629878
0.623905
-0.0124435
0.0151779
-0.430056
0.427322
-0.0154147
0.0133928
-0.23853
0.240552
-0.0107989
0.0075988
-0.101073
0.104273
-0.00479291
0.00218213
-0.0257076
0.0283184
-0.000655891
7.05338e-05
0.000585357
-0.0777672
0.0757522
0.00201496
-0.00584436
0.00533379
-0.414668
0.415178
-0.00332461
0.000505226
-0.579126
0.581946
0.00366506
-0.00817343
-0.710036
0.714544
0.0134639
-0.018636
-0.82867
0.833842
0.0242862
-0.0293601
-0.950486
0.95556
0.034882
-0.0394259
-1.08672
1.09127
0.0440676
-0.0477111
-1.2377
1.24134
0.050721
-0.0523371
-1.40379
1.40541
0.0524739
-0.0508219
-1.58468
1.58303
0.0470057
-0.0414707
-1.49818
1.49264
0.0353289
-0.0280466
-1.19834
1.19106
0.0214504
-0.0139115
-0.972943
0.965404
0.0072255
-0.000295966
-0.791813
0.784883
-0.00577526
0.0113824
-0.615348
0.609741
-0.0150599
0.0172937
-0.421611
0.419377
-0.0168998
0.0144215
-0.239191
0.241669
-0.0115458
0.0080539
-0.106321
0.109813
-0.0050303
0.00230712
-0.0302004
0.0329236
-0.000693435
-0.00098276
0.00167619
-0.0768713
0.0753233
0.001548
-0.00492672
0.00471458
-0.419513
0.419725
-0.00301627
0.000858165
-0.587479
0.589637
0.0030608
-0.00718823
-0.719444
0.723572
0.0122413
-0.0167372
-0.838627
0.843123
0.0217499
-0.026305
-0.960619
0.965174
0.0316222
-0.0358417
-1.09587
1.10009
0.0400992
-0.0436816
-1.24486
1.24844
0.0469864
-0.048587
-1.40708
1.40869
0.0489157
-0.0473503
-1.58101
1.57944
0.0441921
-0.0390426
-1.48704
1.48189
0.0338234
-0.0276576
-1.18392
1.17776
0.0218277
-0.015356
-0.958137
0.951666
0.00916613
-0.00226745
-0.777128
0.770229
-0.00360231
0.0094526
-0.601725
0.595875
-0.0131973
0.0150697
-0.414476
0.412604
-0.0149462
0.0130313
-0.24094
0.242855
-0.0104754
0.00730677
-0.111868
0.115037
-0.00458577
0.00213917
-0.0347499
0.0371965
-0.000664223
-0.002084
0.00274822
-0.0764953
0.0753057
0.00118952
-0.00380317
0.0036912
-0.423458
0.42357
-0.00207457
2.88118e-05
-0.594798
0.596844
0.0036731
-0.00740768
-0.727949
0.731683
0.0117697
-0.016124
-0.84758
0.851934
0.0208021
-0.0255518
-0.969556
0.974306
0.0302249
-0.0343558
-1.10446
1.10859
0.038864
-0.0423345
-1.25196
1.25543
0.0453022
-0.0474382
-1.41025
1.41239
0.0481239
-0.047141
-1.57805
1.57706
0.0445968
-0.0406423
-1.47723
1.47328
0.036376
-0.0311683
-1.17166
1.16645
0.0261201
-0.0201183
-0.945142
0.93914
0.0141393
-0.00742676
-0.762783
0.75607
0.00126537
0.00444564
-0.588184
0.582473
-0.00806627
0.0101212
-0.408051
0.405996
-0.0104544
0.00920449
-0.242083
0.243333
-0.00748454
0.00526987
-0.116354
0.118569
-0.00334896
0.00158163
-0.0385353
0.0403026
-0.000506175
-0.00305837
0.00356455
-0.0766719
0.0756824
0.000989549
-0.00249086
0.00211115
-0.427069
0.427449
-0.000651536
-0.00144164
-0.601556
0.60365
0.00482652
-0.00844129
-0.735888
0.739503
0.0126366
-0.0166115
-0.856104
0.860079
0.0214461
-0.0254607
-0.978502
0.982516
0.0301844
-0.0342346
-1.11292
1.11697
0.038732
-0.0424822
-1.25892
1.26267
0.0458476
-0.0478959
-1.41434
1.41639
0.0491276
-0.0488595
-1.57616
1.5759
0.0473807
-0.0442131
-1.4695
1.46633
0.0407288
-0.0361428
-1.16154
1.15695
0.0314774
-0.0255541
-0.932797
0.926873
0.0196783
-0.0128589
-0.748595
0.741776
0.00681887
-0.00117065
-0.57535
0.569702
-0.0025505
0.00456407
-0.401439
0.399425
-0.00533774
0.00495945
-0.241918
0.242296
-0.00417534
0.00294916
-0.118997
0.120223
-0.00189135
0.000939103
-0.0409151
0.0418674
-0.000317256
-0.00370931
0.00402657
-0.0771478
0.0764644
0.000683451
-0.0013344
0.000477175
-0.430812
0.43167
0.000802266
-0.00304327
-0.607583
0.609824
0.00613906
-0.00964716
-0.74331
0.746818
0.0136802
-0.0178021
-0.863941
0.868063
0.0220618
-0.0262902
-0.986767
0.990995
0.0310458
-0.0349557
-1.12148
1.12539
0.0396205
-0.0433956
-1.26626
1.27004
0.0468962
-0.0495741
-1.4189
1.42158
0.0514785
-0.0517495
-1.57581
1.57608
0.0507688
-0.0484966
-1.46349
1.46122
0.0455884
-0.0412471
-1.15225
1.14791
0.0366032
-0.0309258
-0.920668
0.91499
0.0247916
-0.0183361
-0.734341
0.727885
0.0126106
-0.00716753
-0.563212
0.557769
0.00357231
-0.00104911
-0.394749
0.392226
-0.000187268
0.000742964
-0.240402
0.239846
-0.000827931
0.000689789
-0.119683
0.119821
-0.000560178
0.000356725
-0.0417914
0.0419948
-0.000159603
-0.00401456
0.00417416
-0.0780257
0.0775043
0.000521403
-0.000371511
-0.000434574
-0.434827
0.435633
0.0022917
-0.00440039
-0.613719
0.615828
0.00770294
-0.0111041
-0.750259
0.75366
0.0149989
-0.0187467
-0.871885
0.875633
0.0231704
-0.027132
-0.995249
0.999211
0.0318874
-0.0362761
-1.12977
1.13416
0.040625
-0.0447602
-1.27388
1.27802
0.0487347
-0.0515855
-1.4242
1.42705
0.0539948
-0.0551632
-1.57666
1.57783
0.0547012
-0.052991
-1.45885
1.45714
0.0501233
-0.0459753
-1.14349
1.13934
0.0415109
-0.0358502
-0.90875
0.90309
0.0301266
-0.024008
-0.720773
0.714654
0.0186957
-0.0134956
-0.55161
0.54641
0.00976325
-0.0068531
-0.387673
0.384763
0.00479364
-0.0032943
-0.237178
0.235679
0.00218909
-0.00122655
-0.118327
0.117364
0.000532653
-6.40904e-05
-0.0412264
0.0407578
-6.9328e-05
-0.00394758
0.00401691
-0.0791774
0.0788305
0.000346911
0.000666798
-0.00166986
-0.439
0.440003
0.00341183
-0.00583256
-0.619499
0.621919
0.00910211
-0.0123722
-0.756999
0.760269
0.0163707
-0.0199968
-0.879386
0.883012
0.0242975
-0.0284106
-1.00367
1.00778
0.0331049
-0.0374764
-1.13842
1.14279
0.0420557
-0.0462325
-1.28209
1.28626
0.0504203
-0.0540605
-1.43021
1.43385
0.0569735
-0.0584603
-1.57898
1.58047
0.0586
-0.0570174
-1.45525
1.45367
0.0544681
-0.0505952
-1.135
1.13113
0.0460473
-0.0406081
-0.897067
0.891628
0.0352341
-0.029404
-0.708111
0.702281
0.0245049
-0.0194124
-0.540827
0.535734
0.0155465
-0.0119735
-0.380018
0.376445
0.00930723
-0.00687482
-0.232144
0.229712
0.0047746
-0.00286701
-0.114961
0.113054
0.00149074
-0.000495759
-0.0393759
0.0383809
5.30263e-05