/*--------------------------------*- C++ -*----------------------------------*\
  =========                 |
  \\      /  F ield         | OpenFOAM: The Open Source CFD Toolbox
   \\    /   O peration     | Website:  https://openfoam.org
    \\  /    A nd           | Version:  6
     \\/     M anipulation  |
\*---------------------------------------------------------------------------*/
FoamFile
{
    version     2.0;
    format      ascii;
    class       volScalarField;
    location    "61";
    object      p;
}
// * * * * * * * * * * * * * * * * * * * * * * * * * * * * * * * * * * * * * //

dimensions      [0 2 -2 0 0 0 0];

internalField   nonuniform List<scalar> 
8800
(
0.788938
0.739627
0.701662
0.673586
0.653415
0.638813
0.628197
0.620633
0.615716
0.613604
0.614931
0.619237
0.626004
0.635407
0.648132
0.665447
0.689321
0.722416
0.765343
0.817873
0.623415
0.62976
0.638909
0.64245
0.639835
0.633741
0.62679
0.620532
0.615705
0.612799
0.612522
0.615107
0.619714
0.625815
0.632894
0.639912
0.644781
0.644653
0.637976
0.629077
0.596975
0.60321
0.607707
0.61157
0.614504
0.615436
0.614326
0.612177
0.610162
0.609277
0.610261
0.612674
0.61553
0.617781
0.618291
0.616497
0.613126
0.609107
0.604323
0.600605
0.592691
0.595454
0.598057
0.600208
0.601936
0.603488
0.604568
0.604889
0.604736
0.604784
0.605536
0.606635
0.607345
0.607174
0.606183
0.604817
0.603137
0.600826
0.598412
0.596845
0.587662
0.589085
0.590918
0.592989
0.594689
0.595965
0.59704
0.597987
0.598751
0.599431
0.600082
0.600494
0.600481
0.60009
0.599402
0.598272
0.596605
0.594704
0.593348
0.592545
0.582707
0.583609
0.584848
0.586464
0.588142
0.589653
0.59091
0.591995
0.593009
0.593962
0.594679
0.595013
0.594979
0.594579
0.593754
0.592549
0.591174
0.5899
0.589075
0.588551
0.577843
0.578499
0.579452
0.580756
0.582186
0.583679
0.585131
0.586452
0.587657
0.588787
0.589658
0.590087
0.590055
0.58958
0.588772
0.58781
0.586802
0.585887
0.585304
0.58492
0.57307
0.573574
0.574351
0.575477
0.576756
0.578146
0.579619
0.58111
0.582555
0.583923
0.584985
0.585516
0.585535
0.585169
0.584572
0.583859
0.583103
0.582428
0.581997
0.581698
0.568332
0.568733
0.569384
0.570388
0.571594
0.572928
0.574391
0.575975
0.577629
0.579273
0.580578
0.581291
0.581495
0.581351
0.58099
0.580494
0.57994
0.579457
0.579138
0.578895
0.563551
0.563878
0.564442
0.565366
0.566525
0.567845
0.569341
0.571021
0.572866
0.574801
0.576427
0.577435
0.577916
0.578031
0.577903
0.577629
0.577269
0.576946
0.576711
0.576508
0.558641
0.558913
0.559416
0.560293
0.561435
0.562781
0.564351
0.566171
0.568244
0.570515
0.572545
0.573936
0.574754
0.575159
0.575284
0.575234
0.575068
0.574886
0.574718
0.574543
0.553513
0.553742
0.554207
0.555068
0.556233
0.557647
0.559334
0.561348
0.563715
0.566407
0.56893
0.570779
0.571989
0.572729
0.573135
0.57332
0.573348
0.573295
0.573182
0.573027
0.548078
0.548273
0.54872
0.549594
0.550821
0.552347
0.554207
0.556482
0.559228
0.562444
0.565566
0.56796
0.569627
0.570749
0.571473
0.571905
0.572143
0.572211
0.572145
0.572003
0.542233
0.542402
0.542846
0.543762
0.545093
0.546783
0.548882
0.551501
0.554728
0.558594
0.562442
0.565486
0.567692
0.56925
0.570336
0.571067
0.571511
0.571696
0.57167
0.571537
0.535861
0.536008
0.536465
0.537453
0.538932
0.540847
0.543264
0.546323
0.550153
0.554817
0.559543
0.563367
0.56621
0.568283
0.569778
0.570833
0.571514
0.571822
0.571832
0.571704
0.528824
0.528947
0.529433
0.530523
0.532202
0.534412
0.537238
0.540856
0.545434
0.551074
0.556864
0.561618
0.565214
0.567894
0.569874
0.571304
0.572247
0.572679
0.572723
0.572595
0.520936
0.521039
0.521571
0.522797
0.524737
0.527326
0.530668
0.534983
0.540486
0.547318
0.554392
0.560258
0.564748
0.568142
0.5707
0.572567
0.573804
0.57437
0.574445
0.574314
0.51197
0.512075
0.512656
0.514054
0.516331
0.519402
0.523397
0.528587
0.535237
0.543524
0.552139
0.559328
0.564872
0.569105
0.572347
0.574722
0.576293
0.576999
0.577105
0.576967
0.501615
0.501705
0.502378
0.50401
0.506722
0.510408
0.515234
0.521526
0.529603
0.539669
0.55013
0.558874
0.565655
0.570876
0.574898
0.57788
0.579824
0.580677
0.580809
0.580661
0.489499
0.489575
0.49035
0.492296
0.49557
0.500052
0.505942
0.513635
0.523492
0.53573
0.548391
0.558954
0.567168
0.573535
0.578473
0.582144
0.584498
0.5855
0.585651
0.585491
0.475075
0.475144
0.476064
0.478422
0.48243
0.487958
0.495234
0.504716
0.516801
0.531686
0.546952
0.559624
0.56948
0.577164
0.583155
0.587602
0.590395
0.591539
0.591702
0.591525
0.457567
0.457628
0.458763
0.461706
0.46672
0.473659
0.48278
0.494592
0.509481
0.527571
0.545889
0.560969
0.572679
0.581847
0.588996
0.594313
0.597553
0.598818
0.598979
0.598782
0.435829
0.435895
0.437371
0.441186
0.447647
0.456572
0.468221
0.483118
0.501559
0.523509
0.545328
0.563087
0.576835
0.587636
0.596061
0.602283
0.605943
0.607288
0.607429
0.607211
0.408088
0.408183
0.410253
0.415479
0.424175
0.436026
0.451249
0.470256
0.493147
0.519656
0.545406
0.566077
0.582016
0.594544
0.604329
0.611449
0.61544
0.6168
0.616899
0.616661
0.371308
0.371525
0.374804
0.382628
0.395091
0.411437
0.431762
0.456179
0.484507
0.516258
0.546312
0.57006
0.58827
0.602588
0.613737
0.621641
0.625811
0.627091
0.627125
0.626869
0.319678
0.320757
0.327267
0.340458
0.359496
0.382793
0.410169
0.44141
0.476121
0.513681
0.548291
0.57518
0.595653
0.611675
0.624105
0.632589
0.636691
0.637787
0.637742
0.637475
0.244785
0.252141
0.267066
0.290088
0.31895
0.351556
0.387517
0.426579
0.46837
0.512252
0.551751
0.582017
0.604945
0.622836
0.636455
0.645273
0.649167
0.650057
0.64996
0.649725
0.165124
0.181197
0.205439
0.239068
0.278263
0.320341
0.364948
0.412003
0.46124
0.512113
0.557422
0.591896
0.617877
0.638004
0.65292
0.661829
0.66525
0.665881
0.665807
0.665663
0.0968934
0.116534
0.148564
0.191339
0.239747
0.290737
0.343761
0.398695
0.45526
0.512903
0.56368
0.602048
0.630823
0.652885
0.66869
0.677401
0.68039
0.680906
0.680881
0.680792
0.0410676
0.0629216
0.100315
0.149647
0.205281
0.263772
0.324268
0.386458
0.449896
0.513949
0.569934
0.611956
0.643287
0.667067
0.683712
0.692574
0.695467
0.695984
0.695983
0.695923
-0.00519284
0.0179826
0.0592668
0.113731
0.175152
0.239825
0.306691
0.375302
0.445042
0.515125
0.576079
0.62161
0.655369
0.680848
0.698476
0.707704
0.710771
0.711262
0.711286
0.711252
-0.0445042
-0.0205307
0.0236292
0.0822675
0.148563
0.218517
0.29092
0.365254
0.440752
0.516444
0.582106
0.631019
0.66718
0.694315
0.713006
0.722837
0.726109
0.726638
0.726677
0.726663
-0.0788924
-0.0543772
-0.00795875
0.0541426
0.124614
0.199184
0.276509
0.355998
0.436776
0.517745
0.58788
0.640055
0.678529
0.707305
0.72704
0.737486
0.741043
0.741649
0.741713
0.74171
-0.109846
-0.0848784
-0.036592
0.0284606
0.102548
0.181169
0.262917
0.347137
0.432859
0.518842
0.593275
0.648539
0.689213
0.719536
0.74026
0.751267
0.755153
0.755879
0.755943
0.755942
-0.13837
-0.112983
-0.0631002
0.00452536
0.0817871
0.164003
0.249755
0.338346
0.428718
0.519482
0.59808
0.656328
0.69909
0.73084
0.752457
0.763989
0.768135
0.768983
0.769033
0.769023
-0.16526
-0.139416
-0.0880917
-0.0181587
0.0619102
0.147338
0.236715
0.329336
0.424088
0.519479
0.602164
0.663355
0.708098
0.74118
0.763553
0.775463
0.779818
0.780728
0.780765
0.780739
-0.190901
-0.164612
-0.111956
-0.0399677
0.0426026
0.130911
0.223578
0.31992
0.418822
0.518711
0.605457
0.669583
0.716275
0.750552
0.773546
0.78571
0.790161
0.791102
0.791115
0.791066
-0.215713
-0.188897
-0.135011
-0.0611639
0.0236468
0.114544
0.210212
0.309988
0.412799
0.517062
0.607898
0.675029
0.723675
0.759084
0.782564
0.794833
0.799279
0.800211
0.800192
0.800121
-0.239828
-0.212477
-0.157427
-0.0819007
0.00491429
0.0981423
0.196533
0.299469
0.405942
0.514464
0.609453
0.679719
0.730407
0.766909
0.790733
0.802963
0.807342
0.808226
0.80819
0.808098
-0.263366
-0.235455
-0.179315
-0.102261
-0.0136528
0.0816603
0.182505
0.288328
0.398223
0.510856
0.610065
0.683681
0.736574
0.774198
0.798259
0.810302
0.814501
0.8153
0.815228
0.815118
-0.286422
-0.25793
-0.200718
-0.122279
-0.0320832
0.0650929
0.168138
0.27658
0.389635
0.5062
0.609679
0.686911
0.742296
0.78113
0.805298
0.816973
0.820868
0.821531
0.821414
0.821287
-0.309044
-0.279896
-0.221651
-0.141949
-0.0503467
0.0484678
0.153475
0.26426
0.380195
0.500466
0.608233
0.689367
0.747644
0.787904
0.81208
0.823134
0.826532
0.826988
0.826828
0.826695
-0.331085
-0.301315
-0.242085
-0.161259
-0.0684137
0.0318463
0.13857
0.251435
0.369955
0.493667
0.605653
0.690964
0.752618
0.794727
0.818931
0.829037
0.831624
0.831755
0.831549
0.831422
-0.352516
-0.322149
-0.262003
-0.180171
-0.0862324
0.0152859
0.12351
0.238179
0.358989
0.485817
0.601879
0.691583
0.757135
0.801728
0.826303
0.835229
0.836466
0.835936
0.835649
0.835576
-0.373389
-0.342368
-0.281383
-0.198649
-0.103741
-0.00113135
0.108382
0.22459
0.347383
0.47697
0.596852
0.691091
0.761002
0.808838
0.834616
0.842654
0.841963
0.839936
0.839234
0.839408
-0.39355
-0.361945
-0.300168
-0.216628
-0.12088
-0.0173211
0.0932821
0.210777
0.335247
0.467215
0.590539
0.689328
0.763956
0.815691
0.843877
0.852375
0.850168
0.845581
0.84258
0.841272
-0.41309
-0.380883
-0.318361
-0.234141
-0.137684
-0.0333227
0.0781584
0.196681
0.32251
0.456487
0.582782
0.686035
0.765741
0.821756
0.853435
0.864624
0.863239
0.856322
0.846628
0.846759
-0.431923
-0.399244
-0.336098
-0.251383
-0.154446
-0.0494679
0.0625963
0.181817
0.308627
0.444154
0.572919
0.68044
0.765882
0.82637
0.861645
0.877155
0.87744
0.86678
0.848523
0.846015
-0.449916
-0.416985
-0.353214
-0.268162
-0.170899
-0.065455
0.046805
0.166508
0.29389
0.43046
0.561001
0.671884
0.763576
0.828352
0.864377
0.880225
0.882957
0.858415
0.800409
0.77508
-0.466934
-0.434926
-0.369301
-0.284017
-0.186281
-0.0808031
0.0310658
0.151031
0.27858
0.415576
0.547098
0.65978
0.757803
0.826827
0.8569
0.867483
0.855641
0.804999
0.743001
0.705425
-0.51013
-0.452671
-0.384085
-0.299729
-0.20134
-0.0964512
0.0155192
0.135265
0.262497
0.399156
0.530819
0.643507
0.744736
0.818887
0.83714
0.82574
0.779782
0.715729
0.646915
0.609094
-0.485186
-0.466905
-0.406562
-0.321563
-0.224586
-0.119941
-0.00870213
0.110326
0.236545
0.371651
0.501725
0.612166
0.704777
0.785929
0.770722
0.663914
0.574349
0.511893
0.448526
0.477209
-0.516272
-0.484636
-0.423506
-0.339128
-0.242304
-0.137827
-0.0264588
0.0918713
0.217011
0.350264
0.477656
0.584468
0.666485
0.711864
0.661823
0.523676
0.415557
0.342571
0.260866
0.308162
-0.540437
-0.506363
-0.443416
-0.358947
-0.262188
-0.157748
-0.0465245
0.0709722
0.194695
0.325478
0.448986
0.5498
0.620106
0.627828
0.522928
0.368987
0.240751
0.148827
0.0541307
0.0876857
-0.563971
-0.528793
-0.464402
-0.379227
-0.282412
-0.178116
-0.0674221
0.0490722
0.171141
0.299043
0.417652
0.51042
0.563739
0.538942
0.382379
0.206589
0.0476311
-0.085944
-0.210427
-0.195742
-0.58724
-0.551624
-0.486278
-0.400479
-0.303515
-0.199443
-0.0894239
0.0259154
0.146038
0.270638
0.383527
0.468185
0.500913
0.43152
0.244214
0.0483147
-0.13775
-0.290912
-0.496293
-0.575835
-0.610925
-0.575323
-0.509398
-0.423144
-0.326
-0.222103
-0.112697
0.00144805
0.119492
0.240516
0.347254
0.422528
0.430135
0.309186
0.118316
-0.0897567
-0.280959
-0.442081
-0.56589
-0.684888
-0.6361
-0.600372
-0.534106
-0.44759
-0.3504
-0.246778
-0.138086
-0.0253212
0.0902861
0.207167
0.307313
0.369978
0.350459
0.193083
0.000617333
-0.201627
-0.376268
-0.473186
-0.499456
-0.513002
-0.662896
-0.627054
-0.560532
-0.473909
-0.376857
-0.273689
-0.165965
-0.0549043
0.0578001
0.169787
0.262853
0.308117
0.26959
0.0816198
-0.109015
-0.291128
-0.422878
-0.460689
-0.469707
-0.47006
-0.691586
-0.655493
-0.588713
-0.502087
-0.405321
-0.302842
-0.196355
-0.0873581
0.0219639
0.128323
0.213297
0.242686
0.172887
-0.0203328
-0.205012
-0.363181
-0.437045
-0.451179
-0.45235
-0.452246
-0.72218
-0.685719
-0.618661
-0.532117
-0.435802
-0.334224
-0.229265
-0.122702
-0.0172185
0.0828653
0.158478
0.173318
0.0654677
-0.112814
-0.287724
-0.413226
-0.441823
-0.442501
-0.443029
-0.442625
-0.754411
-0.717552
-0.650263
-0.563906
-0.468206
-0.367776
-0.264664
-0.16091
-0.0597057
0.0335561
0.0995975
0.0956634
-0.0301306
-0.198174
-0.352981
-0.424696
-0.439721
-0.437722
-0.437425
-0.437007
-0.787705
-0.750632
-0.683241
-0.59721
-0.50233
-0.403325
-0.302393
-0.201853
-0.105284
-0.0192152
0.036892
0.0169598
-0.118726
-0.273313
-0.395593
-0.433288
-0.433331
-0.434334
-0.434278
-0.433942
-0.821597
-0.784407
-0.717091
-0.631586
-0.537795
-0.440524
-0.342148
-0.245242
-0.153661
-0.0745919
-0.0310366
-0.0578067
-0.199824
-0.332481
-0.419537
-0.428752
-0.431818
-0.433015
-0.433077
-0.432959
-0.855115
-0.81796
-0.751037
-0.666362
-0.574016
-0.478862
-0.383433
-0.290571
-0.204406
-0.131768
-0.0992501
-0.133883
-0.270474
-0.379399
-0.426373
-0.437843
-0.434136
-0.432685
-0.432196
-0.432109
-0.886318
-0.84996
-0.784009
-0.7006
-0.610163
-0.517585
-0.425534
-0.337074
-0.25671
-0.19036
-0.162935
-0.214589
-0.330911
-0.423606
-0.445889
-0.4436
-0.437358
-0.432117
-0.430723
-0.430386
-0.914125
-0.878847
-0.814545
-0.733045
-0.645118
-0.555689
-0.46751
-0.383799
-0.309251
-0.249921
-0.225572
-0.287317
-0.380851
-0.452006
-0.477222
-0.462066
-0.446095
-0.437718
-0.435407
-0.434389
-0.935756
-0.902435
-0.840819
-0.762107
-0.677488
-0.591917
-0.508148
-0.429634
-0.360629
-0.308555
-0.287877
-0.348045
-0.420503
-0.458545
-0.465058
-0.476262
-0.479994
-0.477368
-0.472852
-0.470273
-0.948988
-0.918489
-0.860673
-0.785954
-0.70566
-0.624787
-0.546031
-0.473106
-0.409813
-0.363118
-0.344302
-0.402566
-0.464757
-0.473406
-0.479936
-0.508873
-0.528321
-0.525527
-0.518968
-0.517068
-0.951071
-0.924534
-0.871902
-0.802648
-0.727924
-0.652701
-0.579693
-0.512289
-0.455654
-0.411889
-0.392781
-0.445333
-0.537732
-0.564325
-0.54732
-0.529364
-0.514084
-0.506702
-0.504349
-0.504384
-0.939718
-0.918066
-0.872325
-0.810355
-0.742728
-0.674211
-0.607631
-0.545565
-0.495358
-0.455873
-0.42865
-0.471798
-0.566916
-0.738241
-0.656007
-0.539073
-0.48362
-0.469153
-0.465388
-0.463463
-0.912136
-0.896152
-0.859956
-0.807809
-0.748945
-0.68841
-0.628441
-0.572321
-0.525251
-0.493285
-0.450717
-0.437416
-0.398383
-0.475843
-0.478936
-0.431991
-0.412627
-0.410918
-0.410438
-0.409046
-0.871784
-0.861512
-0.83579
-0.795275
-0.74659
-0.694955
-0.642063
-0.591387
-0.54584
-0.516529
-0.475456
-0.356268
-0.111842
0.0550892
-0.0542748
-0.236528
-0.353077
-0.385269
-0.392152
-0.393958
-0.82587
-0.820012
-0.804951
-0.775841
-0.737979
-0.694673
-0.649147
-0.60247
-0.559798
-0.522908
-0.487363
-0.391261
-0.241815
-0.0213756
-0.143514
-0.352485
-0.474109
-0.497242
-0.507696
-0.519269
-0.784868
-0.781325
-0.774088
-0.755295
-0.726266
-0.690318
-0.650155
-0.607888
-0.564966
-0.529226
-0.505661
-0.560365
-0.852072
-1.31479
-1.56193
-1.67184
-1.60543
-1.40632
-1.20832
-1.15979
-0.755549
-0.753407
-0.749695
-0.738338
-0.715787
-0.684826
-0.648354
-0.607374
-0.563912
-0.528765
-0.504533
-0.672667
-1.12945
-1.713
-2.01729
-1.89694
-1.64931
-1.42526
-1.25284
-1.18639
-0.734554
-0.73381
-0.732579
-0.726743
-0.709469
-0.681367
-0.645349
-0.602618
-0.556826
-0.504234
-0.474705
-0.468613
-0.529864
-0.494098
-0.45465
-0.302773
-0.152064
-0.0343557
0.0403427
0.0716179
-0.722538
-0.722242
-0.721541
-0.718677
-0.706469
-0.680223
-0.641985
-0.5973
-0.5416
-0.477752
-0.414551
-0.328305
-0.162256
0.17301
0.557462
0.890865
1.08942
1.16243
1.18448
1.18772
-0.715177
-0.714811
-0.713958
-0.712794
-0.705699
-0.681503
-0.640687
-0.58835
-0.527018
-0.452786
-0.353415
-0.244591
0.0155345
0.463853
0.90734
1.30895
1.55028
1.6406
1.67209
1.67655
-0.712935
-0.712871
-0.712763
-0.713022
-0.709175
-0.686331
-0.64096
-0.583238
-0.515612
-0.422739
-0.321037
-0.196406
0.0560311
0.478466
0.909655
1.28674
1.5127
1.60367
1.62359
1.62301
-0.709978
-0.71119
-0.714119
-0.717846
-0.716146
-0.690946
-0.643549
-0.585025
-0.506503
-0.409715
-0.307585
-0.190146
0.0292318
0.367378
0.681775
0.957285
1.12889
1.19759
1.21794
1.22215
-0.704873
-0.706035
-0.706167
-0.704159
-0.701213
-0.682967
-0.648791
-0.594037
-0.511583
-0.408311
-0.305891
-0.213806
-0.0443915
0.216202
0.433534
0.597492
0.692962
0.748993
0.786017
0.800687
-0.724872
-0.723191
-0.709809
-0.681341
-0.660898
-0.669291
-0.664692
-0.612744
-0.521138
-0.412748
-0.311104
-0.233653
-0.0820039
0.0965687
0.273795
0.405228
0.490261
0.552252
0.590944
0.605252
-0.781323
-0.777303
-0.766647
-0.746243
-0.733112
-0.735832
-0.72214
-0.642044
-0.529405
-0.417997
-0.320123
-0.249293
-0.141502
0.0523737
0.203493
0.328932
0.426414
0.48908
0.519377
0.528116
-0.890971
-0.898165
-0.9259
-0.95867
-0.95887
-0.929739
-0.836787
-0.683783
-0.539004
-0.42259
-0.323249
-0.255133
-0.177859
-0.0304334
0.115323
0.244425
0.337751
0.397894
0.422497
0.428145
-1.01566
-1.03663
-1.08036
-1.11329
-1.11278
-1.06413
-0.913874
-0.70749
-0.546926
-0.419289
-0.317305
-0.252158
-0.186743
-0.067991
0.0625962
0.160272
0.238216
0.285889
0.304438
0.307571
-1.0213
-1.04073
-1.07424
-1.10171
-1.10174
-1.04277
-0.866211
-0.67319
-0.526633
-0.398687
-0.309389
-0.23302
-0.187813
-0.106902
0.00418606
0.0821521
0.146422
0.18148
0.19448
0.194901
-0.83265
-0.85326
-0.888122
-0.921882
-0.927186
-0.860846
-0.71474
-0.579998
-0.454801
-0.361147
-0.283272
-0.220622
-0.179278
-0.126779
-0.0490836
0.0125892
0.0617251
0.087339
0.0970823
0.0969791
-0.494298
-0.51037
-0.540434
-0.575125
-0.591435
-0.564233
-0.502482
-0.430223
-0.360593
-0.304161
-0.253078
-0.208221
-0.177341
-0.138554
-0.0893392
-0.0480682
-0.0160224
0.000680865
0.0060709
0.00466502
-0.164171
-0.172457
-0.191755
-0.222105
-0.254523
-0.273244
-0.282746
-0.281665
-0.268896
-0.244334
-0.22008
-0.19141
-0.173601
-0.159596
-0.129215
-0.105201
-0.0891223
-0.0835796
-0.0825898
-0.0842242
0.0348073
0.0308744
0.0180022
-0.00917385
-0.051337
-0.100819
-0.143215
-0.174708
-0.192423
-0.195363
-0.191878
-0.181647
-0.176097
-0.174666
-0.167627
-0.162206
-0.160576
-0.162709
-0.164314
-0.164894
0.106388
0.104047
0.0947064
0.0720928
0.0340054
-0.0146756
-0.0640971
-0.106874
-0.139922
-0.160303
-0.17357
-0.174001
-0.180579
-0.184531
-0.189602
-0.197013
-0.20573
-0.21381
-0.216564
-0.216832
0.110456
0.108808
0.102127
0.0856466
0.0568262
0.0184247
-0.0244387
-0.0670316
-0.104914
-0.135853
-0.163365
-0.183525
-0.198533
-0.206704
-0.212149
-0.221156
-0.232611
-0.237687
-0.238484
-0.23836
0.0912182
0.0901035
0.0855545
0.0742215
0.0539032
0.0253209
-0.00896578
-0.0454558
-0.0822884
-0.119086
-0.160841
-0.203492
-0.230638
-0.224571
-0.221311
-0.225474
-0.230843
-0.233312
-0.233297
-0.233308
0.068174
0.0674714
0.0644809
0.0569297
0.0430378
0.0226482
-0.00344499
-0.0333497
-0.0664828
-0.104165
-0.152372
-0.209485
-0.241776
-0.224282
-0.211059
-0.208144
-0.21001
-0.211344
-0.21109
-0.210976
0.047957
0.0475387
0.0456617
0.0408062
0.0315479
0.0173893
-0.00157063
-0.0243993
-0.0513431
-0.0839548
-0.126865
-0.177377
-0.198915
-0.182137
-0.17042
-0.170773
-0.171948
-0.173002
-0.173249
-0.173309
0.0324384
0.0321742
0.031028
0.0280013
0.0219943
0.012511
-0.000638567
-0.0170135
-0.0364284
-0.0588558
-0.086104
-0.114023
-0.120869
-0.111326
-0.110894
-0.117591
-0.123492
-0.126655
-0.127577
-0.12772
0.021053
0.0209409
0.0203
0.018547
0.0149136
0.00892596
0.000457045
-0.0101201
-0.0220452
-0.0331186
-0.0400865
-0.0410178
-0.0311412
-0.0372469
-0.0510942
-0.0644215
-0.0728988
-0.0768036
-0.0781551
-0.0784146
0.0129623
0.0129285
0.0126178
0.0117589
0.0097918
0.00638292
0.00144939
-0.00433278
-0.00977457
-0.0107219
-0.00102586
0.0191442
0.0394466
0.0228133
-0.000436893
-0.0170473
-0.0265645
-0.0299788
-0.0317843
-0.0322406
0.00733401
0.0073529
0.00724941
0.0069278
0.00604759
0.00435104
0.00186533
-0.00079088
-0.00179917
0.00323215
0.0225596
0.0534642
0.0783731
0.0582335
0.0309852
0.0142246
0.00720073
0.00448572
0.003111
0.00240657
0.00331756
0.0033572
0.00337154
0.00333905
0.00307708
0.00246457
0.00153623
0.000614264
0.00122492
0.00689752
0.0260495
0.055285
0.0770452
0.0594878
0.0357938
0.0248318
0.0214593
0.0203649
0.0190909
0.0179914
0.000378741
0.000412113
0.000389911
0.000456021
0.000588689
0.000624188
0.000445797
0.000280863
0.000260621
0.00112336
0.00444041
0.0131935
0.0220615
0.0232655
0.0150247
0.0142889
0.0122163
0.00926951
0.00665185
0.00597847
-0.062906
0.12673
0.300902
0.44899
0.5682
0.662852
0.741938
0.806355
0.822945
0.819438
0.229218
0.351318
0.465922
0.565762
0.650032
0.719779
0.774845
0.812192
0.832202
0.848772
0.427772
0.509309
0.590112
0.661175
0.721865
0.772235
0.811914
0.84213
0.864794
0.884024
0.574613
0.632466
0.69101
0.743494
0.788807
0.827344
0.859647
0.886716
0.907101
0.925995
0.692476
0.735905
0.779219
0.819746
0.855912
0.887865
0.915792
0.93944
0.957442
0.975483
0.790178
0.826081
0.861349
0.89524
0.926477
0.95473
0.979664
1.00057
1.01638
1.03386
0.878735
0.910863
0.943231
0.974486
1.00356
1.02998
1.05314
1.0721
1.08603
1.10306
0.965868
0.998504
1.03098
1.06223
1.09104
1.11686
1.13901
1.15656
1.16896
1.18549
1.06036
1.09679
1.13158
1.16406
1.19326
1.21864
1.23978
1.25608
1.26771
1.28387
1.17345
1.21402
1.25107
1.28405
1.31256
1.33658
1.35622
1.37151
1.38341
1.39952
1.31482
1.35592
1.3912
1.42081
1.44604
1.46767
1.48618
1.50167
1.51478
1.53077
1.48644
1.5189
1.5458
1.56813
1.58823
1.60696
1.62469
1.64145
1.65636
1.67217
1.67287
1.69016
1.70729
1.72398
1.74007
1.7548
1.76869
1.78315
1.79839
1.8158
1.85609
1.86603
1.8792
1.89016
1.89956
1.9092
1.9198
1.93
1.93934
1.96473
2.07355
2.06778
2.05478
2.04053
2.03424
2.03994
2.05804
2.08654
2.12032
2.15662
2.37682
2.24098
2.1615
2.11895
2.10155
2.10557
2.13307
2.19099
2.29863
2.47685
0.692597
0.686298
0.678565
0.667449
0.653882
0.641236
0.630839
0.622822
0.617096
0.613754
0.613391
0.616214
0.621439
0.628789
0.638331
0.650151
0.663704
0.676629
0.685619
0.693157
0.60171
0.607636
0.615701
0.621825
0.624886
0.624367
0.621273
0.617271
0.613672
0.611377
0.611232
0.613476
0.617223
0.621664
0.625763
0.628008
0.626938
0.622305
0.615257
0.607424
0.594968
0.59734
0.600607
0.60338
0.605827
0.608008
0.609177
0.609018
0.608068
0.607248
0.607452
0.608859
0.610637
0.611865
0.611791
0.610326
0.608168
0.605804
0.602818
0.5998
0.590186
0.591274
0.593189
0.595524
0.597392
0.598786
0.599996
0.600978
0.601564
0.601928
0.602472
0.603208
0.603672
0.603552
0.602923
0.601998
0.600665
0.598694
0.596586
0.595108
0.585174
0.585808
0.586935
0.588689
0.590527
0.592114
0.593357
0.59441
0.595377
0.596261
0.597036
0.59755
0.597684
0.597474
0.596935
0.595959
0.59453
0.59292
0.591581
0.590779
0.580266
0.580705
0.581492
0.582792
0.584308
0.585863
0.587331
0.588614
0.589753
0.590823
0.591764
0.592359
0.592533
0.592294
0.591628
0.590627
0.589472
0.588327
0.587423
0.586889
0.57545
0.575778
0.576389
0.577454
0.578744
0.580135
0.581602
0.58306
0.584433
0.585716
0.586849
0.587586
0.587807
0.587559
0.586959
0.586173
0.585325
0.584469
0.583806
0.583414
0.570704
0.570959
0.571451
0.572358
0.573523
0.574822
0.57623
0.57774
0.579298
0.580837
0.582216
0.583124
0.583459
0.583356
0.582971
0.582421
0.581786
0.581156
0.580673
0.580374
0.565956
0.566158
0.566568
0.567364
0.568451
0.569702
0.571096
0.572649
0.574345
0.576128
0.577798
0.578967
0.579537
0.579677
0.57953
0.579206
0.578777
0.578338
0.577994
0.577759
0.561122
0.561285
0.561636
0.562359
0.5634
0.564631
0.566054
0.56769
0.569543
0.571581
0.573597
0.575126
0.576021
0.576452
0.576561
0.576466
0.576249
0.575984
0.575756
0.575568
0.556114
0.556246
0.556556
0.557235
0.558258
0.559515
0.561005
0.562768
0.56483
0.567182
0.56962
0.571596
0.572883
0.573651
0.574048
0.5742
0.574193
0.574096
0.573965
0.573813
0.550845
0.550952
0.551234
0.551894
0.552936
0.55426
0.555863
0.557807
0.560147
0.562899
0.565856
0.568369
0.570117
0.571274
0.571997
0.572417
0.572628
0.572701
0.572656
0.572531
0.545218
0.545304
0.54557
0.546235
0.547331
0.548765
0.550535
0.552728
0.555428
0.558683
0.562279
0.565436
0.567729
0.569336
0.570428
0.571161
0.571616
0.571846
0.571877
0.571774
0.539125
0.539192
0.539452
0.540146
0.541332
0.542924
0.544925
0.547449
0.55061
0.554491
0.558866
0.562799
0.56574
0.567875
0.569389
0.57047
0.571194
0.571595
0.571699
0.571613
0.532437
0.532485
0.532748
0.533493
0.53481
0.536615
0.538922
0.541871
0.545611
0.550267
0.555593
0.560459
0.564169
0.566927
0.568937
0.570409
0.571442
0.572029
0.572204
0.572131
0.524999
0.525029
0.5253
0.526119
0.52761
0.529694
0.532395
0.53588
0.540343
0.54595
0.55243
0.558419
0.563045
0.566537
0.569135
0.571076
0.572458
0.573243
0.573489
0.573426
0.516609
0.516627
0.516902
0.517822
0.519542
0.521983
0.525183
0.529343
0.534707
0.541484
0.549362
0.556694
0.562408
0.566766
0.570058
0.572557
0.574336
0.575341
0.575659
0.575603
0.506965
0.506959
0.507287
0.50835
0.510367
0.513264
0.517096
0.522109
0.528597
0.536816
0.546385
0.555318
0.562315
0.567691
0.571797
0.574948
0.577187
0.578431
0.578822
0.578769
0.495774
0.495746
0.496122
0.497377
0.499767
0.503252
0.507897
0.513994
0.521896
0.531897
0.543512
0.554334
0.562826
0.569392
0.574456
0.578353
0.581116
0.582621
0.583082
0.583028
0.482553
0.482503
0.482957
0.484462
0.487338
0.491591
0.497288
0.504774
0.514458
0.526658
0.540735
0.553779
0.564005
0.571943
0.578114
0.582876
0.586225
0.587999
0.588522
0.588462
0.466652
0.466579
0.467157
0.469013
0.472536
0.477809
0.4849
0.494199
0.506153
0.52107
0.538093
0.553722
0.565927
0.575426
0.582854
0.58859
0.592578
0.594619
0.595192
0.595119
0.447125
0.447035
0.447812
0.450177
0.454614
0.461306
0.470297
0.482011
0.496893
0.515168
0.535674
0.554258
0.568682
0.579911
0.588725
0.595545
0.600197
0.602479
0.603077
0.602983
0.42255
0.422458
0.423571
0.426724
0.432534
0.441301
0.452989
0.467999
0.486681
0.50908
0.533634
0.555507
0.57235
0.585462
0.595774
0.603733
0.609028
0.611489
0.612075
0.611953
0.390606
0.390559
0.392274
0.396786
0.40489
0.416884
0.432543
0.452087
0.475635
0.502987
0.53214
0.557596
0.577011
0.592106
0.603985
0.613089
0.618915
0.621447
0.621975
0.621819
0.347141
0.347293
0.350315
0.357645
0.370033
0.38733
0.408871
0.43454
0.464141
0.497247
0.531467
0.560711
0.582767
0.599858
0.61328
0.623444
0.629584
0.632015
0.632433
0.632242
0.284416
0.285731
0.29306
0.306868
0.32709
0.352812
0.38264
0.41608
0.452817
0.492335
0.531922
0.565017
0.58967
0.608678
0.623473
0.634428
0.640578
0.642683
0.642939
0.642734
0.209508
0.212091
0.226323
0.250081
0.281013
0.316739
0.355576
0.397268
0.44162
0.488189
0.533987
0.571835
0.599861
0.621341
0.637842
0.649428
0.655448
0.657343
0.657561
0.657456
0.132822
0.139691
0.161053
0.194787
0.236154
0.281638
0.329475
0.379479
0.43153
0.485249
0.537397
0.580108
0.611563
0.635569
0.653791
0.665907
0.671445
0.672877
0.673024
0.672989
0.0703105
0.079028
0.105001
0.145801
0.195391
0.249174
0.305147
0.36298
0.422425
0.483015
0.541198
0.588459
0.623077
0.64932
0.668815
0.681208
0.686579
0.687878
0.688054
0.688075
0.0191245
0.0285546
0.0580387
0.104106
0.159894
0.220333
0.283174
0.347898
0.414067
0.481068
0.544991
0.596611
0.634189
0.662522
0.683363
0.696309
0.701608
0.702998
0.703257
0.703315
-0.0237217
-0.0139839
0.0179027
0.0680896
0.12896
0.194925
0.26357
0.334295
0.406529
0.479478
0.548809
0.604592
0.645052
0.675416
0.697631
0.711194
0.716827
0.718438
0.718727
0.718805
-0.0606896
-0.0508131
-0.017122
0.0363658
0.101487
0.172204
0.245931
0.321984
0.399698
0.47813
0.552547
0.612321
0.655574
0.687937
0.711505
0.725931
0.732047
0.733778
0.73408
0.734155
-0.0934481
-0.0835151
-0.0483971
0.00782954
0.0765714
0.15141
0.229634
0.31049
0.393234
0.476803
0.556085
0.619654
0.665586
0.699868
0.724751
0.740001
0.746583
0.748494
0.748809
0.748869
-0.123245
-0.113267
-0.0769855
-0.0183988
0.053478
0.131926
0.214159
0.299405
0.386836
0.475272
0.559202
0.626427
0.674901
0.710972
0.737079
0.753081
0.760159
0.762214
0.762532
0.76257
-0.151016
-0.140974
-0.103654
-0.042973
0.0316727
0.113313
0.199145
0.288403
0.380199
0.473259
0.561695
0.632508
0.683422
0.721189
0.748399
0.765031
0.772489
0.774671
0.774982
0.774992
-0.177314
-0.167202
-0.12891
-0.0663434
0.0107489
0.0952342
0.184309
0.27723
0.373099
0.47059
0.563455
0.637812
0.69113
0.730484
0.758668
0.77577
0.783464
0.785739
0.786045
0.786024
-0.202598
-0.192336
-0.153136
-0.088858
-0.00958398
0.0774472
0.169454
0.26573
0.365408
0.467142
0.564373
0.642312
0.698047
0.738926
0.767948
0.78542
0.793186
0.795457
0.795758
0.795709
-0.227142
-0.216658
-0.176592
-0.110739
-0.0295074
0.0598004
0.154463
0.253815
0.357022
0.462816
0.564383
0.645992
0.704227
0.746632
0.776388
0.794049
0.801784
0.80401
0.804276
0.804208
-0.251048
-0.240316
-0.199414
-0.13212
-0.0491296
0.0422226
0.139273
0.241423
0.347897
0.457545
0.563419
0.648847
0.709738
0.753731
0.784146
0.801854
0.809453
0.811574
0.811792
0.811695
-0.274427
-0.263424
-0.221712
-0.153058
-0.068499
0.0246742
0.123864
0.228544
0.338024
0.451307
0.561422
0.650846
0.71465
0.760381
0.791413
0.809004
0.816324
0.818277
0.818426
0.818304
-0.297284
-0.286022
-0.243501
-0.173579
-0.0876195
0.00716668
0.108265
0.215211
0.327419
0.444083
0.558346
0.651933
0.718997
0.766734
0.798379
0.81566
0.822514
0.824197
0.824248
0.824102
-0.319689
-0.308101
-0.264757
-0.193674
-0.106471
-0.0102672
0.092516
0.201478
0.316129
0.43589
0.554145
0.652036
0.722751
0.772917
0.805309
0.822061
0.828139
0.829392
0.829326
0.829169
-0.341429
-0.329613
-0.285458
-0.213324
-0.125015
-0.0275583
0.0766823
0.187412
0.304223
0.426779
0.548789
0.651061
0.725828
0.778987
0.81251
0.828627
0.833513
0.834007
0.833738
0.833588
-0.362652
-0.35051
-0.305578
-0.232506
-0.14322
-0.0446677
0.0608548
0.173093
0.291786
0.416824
0.542268
0.648908
0.728079
0.784858
0.820228
0.836013
0.839317
0.838385
0.83758
0.837473
-0.383179
-0.370749
-0.325102
-0.251168
-0.161005
-0.0615096
0.0451171
0.158642
0.278921
0.40609
0.534608
0.645474
0.729315
0.79028
0.828429
0.844905
0.846925
0.843782
0.841381
0.840941
-0.403107
-0.390356
-0.343968
-0.269255
-0.178333
-0.0780146
0.0295569
0.14414
0.265737
0.394709
0.525867
0.640644
0.729329
0.794853
0.836567
0.855361
0.857893
0.853152
0.847058
0.838188
-0.422321
-0.409321
-0.362266
-0.28693
-0.195425
-0.0944643
0.0138377
0.129183
0.251785
0.382181
0.515533
0.633844
0.727714
0.7983
0.843971
0.86666
0.872372
0.867405
0.856597
0.855075
-0.44078
-0.427717
-0.379987
-0.304139
-0.212263
-0.110822
-0.00200918
0.113753
0.237033
0.368382
0.503426
0.624585
0.72373
0.799828
0.848679
0.874558
0.882741
0.88072
0.846912
0.80793
-0.45826
-0.44542