/*--------------------------------*- C++ -*----------------------------------*\
  =========                 |
  \\      /  F ield         | OpenFOAM: The Open Source CFD Toolbox
   \\    /   O peration     | Website:  https://openfoam.org
    \\  /    A nd           | Version:  6
     \\/     M anipulation  |
\*---------------------------------------------------------------------------*/
FoamFile
{
    version     2.0;
    format      ascii;
    class       surfaceScalarField;
    location    "61";
    object      phi;
}
// * * * * * * * * * * * * * * * * * * * * * * * * * * * * * * * * * * * * * //

dimensions      [0 3 -1 0 0 0 0];

internalField   nonuniform List<scalar> 
17370
(
-0.0899999
0.0898537
0.289157
-0.0714613
0.053757
0.36448
-0.0381253
0.0277002
0.426593
-0.0196522
0.0146212
0.504283
-0.0107797
0.00828875
0.601893
-0.00628832
0.00491126
0.720435
-0.00374692
0.00290587
0.863748
-0.00216369
0.00160379
1.03601
-0.00108636
0.000673183
1.24292
-0.000264607
-0.000127894
1.49158
0.000507245
-0.00091631
1.4916
0.00131354
-0.00180418
1.24318
0.00233571
-0.00304653
1.03635
0.00386303
-0.00500796
0.864051
0.00637439
-0.00836808
0.721051
0.0108541
-0.0146901
0.603051
0.019716
-0.0277581
0.507481
0.0381774
-0.0538014
0.431792
0.0714978
-0.089878
0.365156
0.0900144
0.198996
-0.128132
0.0882117
0.0399199
-0.36459
0.353404
-0.074689
0.0858758
-0.446477
0.454318
-0.084382
0.0765405
-0.521186
0.529896
-0.0684508
0.0597414
-0.612785
0.621561
-0.0515548
0.0427788
-0.726893
0.734156
-0.0353229
0.0280599
-0.867475
0.872585
-0.0224648
0.0173544
-1.03847
1.04192
-0.0135479
0.0101003
-1.2446
1.24703
-0.00749073
0.00505866
-1.49263
1.4946
-0.00311241
0.00113749
-1.4925
1.49422
0.000545656
-0.00226941
-1.24398
1.24586
0.00417192
-0.00605591
-1.03751
1.04004
0.00841401
-0.0109477
-0.866104
0.869833
0.0143068
-0.0180363
-0.724395
0.729936
0.0230734
-0.0286136
-0.6087
0.616113
0.0358262
-0.0432396
-0.514897
0.523043
0.05197
-0.0601154
-0.439856
0.447911
0.0687809
-0.0768355
-0.375303
0.376742
0.0846364
-0.0860753
-0.257331
0.222479
0.0748249
-0.0399728
-0.0685091
0.0586844
0.00982472
-0.0518302
0.0584193
-0.374122
0.367533
-0.0575077
0.0537572
-0.453592
0.457343
-0.0486683
0.0447159
-0.527942
0.531895
-0.0408765
0.0372397
-0.621557
0.625194
-0.0331412
0.0290693
-0.735341
0.739413
-0.0245032
0.0203476
-0.874332
0.878488
-0.0160053
0.0123143
-1.04348
1.04717
-0.00857942
0.00540802
-1.24856
1.25173
-0.00208021
-0.000992622
-1.49666
1.49973
0.0040408
-0.00730635
-1.49721
1.50047
0.0103864
-0.0139949
-1.25007
1.25368
0.017558
-0.021754
-1.04593
1.05012
0.0257814
-0.0302203
-0.877768
0.882207
0.0341913
-0.0381925
-0.739906
0.743907
0.0417476
-0.0455016
-0.62678
0.630534
0.0493804
-0.0543986
-0.534816
0.539835
0.0580729
-0.0588881
-0.457484
0.458299
0.0521863
-0.0319795
-0.33577
0.315563
0.00988291
-0.0683491
0.0584662
-0.0529319
0.0489339
0.00399802
-0.0331764
0.0437277
-0.358093
0.347542
-0.0474319
0.0468086
-0.459277
0.4599
-0.0437568
0.0404082
-0.535794
0.539143
-0.0366413
0.0333427
-0.628519
0.631817
-0.0299108
0.0268837
-0.742635
0.745662
-0.023629
0.0205254
-0.882002
0.885105
-0.016998
0.0136212
-1.05076
1.05413
-0.00983068
0.00629414
-1.25516
1.25869
-0.0023267
-0.00146941
-1.50324
1.50703
0.00523417
-0.00910789
-1.50414
1.50801
0.0125177
-0.0161352
-1.25743
1.26104
0.0193345
-0.0226567
-1.05393
1.05725
0.0255775
-0.0286479
-0.885707
0.888777
0.0315266
-0.0348145
-0.747175
0.750463
0.037993
-0.0416367
-0.634324
0.637968
0.0448791
-0.0478095
-0.544149
0.54708
0.0483053
-0.0444217
-0.456587
0.452703
0.0336565
-0.0162142
-0.296204
0.278762
0.00406988
-0.052649
0.0485792
-0.0458538
0.0433559
0.00249792
-0.0228238
0.0332109
-0.336846
0.326459
-0.03904
0.0400621
-0.45958
0.458558
-0.038877
0.0365946
-0.541859
0.544142
-0.0339335
0.0313442
-0.634865
0.637454
-0.028289
0.0253966
-0.748703
0.751595
-0.0221389
0.0191508
-0.888053
0.891041
-0.0158514
0.0127567
-1.05726
1.06035
-0.00923507
0.00582956
-1.26214
1.26555
-0.00186905
-0.00201371
-1.51091
1.51479
0.00585495
-0.00969172
-1.51191
1.51574
0.0129303
-0.0162254
-1.26448
1.26778
0.0190878
-0.0221177
-1.06035
1.06338
0.0248634
-0.0278743
-0.89184
0.894851
0.0305652
-0.0334228
-0.753676
0.756534
0.0358479
-0.0383428
-0.641039
0.643533
0.0404815
-0.0414778
-0.548888
0.549884
0.0402586
-0.0341416
-0.44743
0.441313
0.0234402
-0.0102292
-0.26355
0.250339
0.00258667
-0.0454186
0.0428319
-0.0412784
0.0395087
0.00176972
-0.0167659
0.0260273
-0.316597
0.307335
-0.0326434
0.0347909
-0.456952
0.454805
-0.0343768
0.0327122
-0.546115
0.54778
-0.0305386
0.0284507
-0.639754
0.641842
-0.0260279
0.0236384
-0.754233
0.756622
-0.0207884
0.0180066
-0.893927
0.896709
-0.0147781
0.0117154
-1.06339
1.06645
-0.00823153
0.00491048
-1.26886
1.27218
-0.00108087
-0.00265104
-1.51858
1.52231
0.00633002
-0.0100021
-1.51948
1.52315
0.013111
-0.0163072
-1.27102
1.27422
0.0190743
-0.0219585
-1.06641
1.0693
0.0244288
-0.0269598
-0.897677
0.900208
0.0290881
-0.0312549
-0.758992
0.761159
0.0331324
-0.0350923
-0.645693
0.647653
0.0365481
-0.036706
-0.550407
0.550565
0.0342559
-0.027219
-0.434655
0.427618
0.0175347
-0.00739882
-0.238816
0.22868
0.00187809
-0.0406559
0.0387778
-0.0379839
0.0366518
0.00133207
-0.0128069
0.0207636
-0.298732
0.290775
-0.0275258
0.0304575
-0.452237
0.449305
-0.0306699
0.0295575
-0.549205
0.550317
-0.0275713
0.0256625
-0.643872
0.645781
-0.0234716
0.0213426
-0.758853
0.760982
-0.0188364
0.0163608
-0.899272
0.901748
-0.0134267
0.0105544
-1.06938
1.07225
-0.00719908
0.0039626
-1.27543
1.27867
-0.000218243
-0.00340982
-1.52596
1.52959
0.00697164
-0.0105182
-1.52675
1.5303
0.0134892
-0.0164853
-1.27735
1.28035
0.0189886
-0.0214924
-1.07203
1.07453
0.0235778
-0.0256835
-0.902511
0.904616
0.0274826
-0.0293484
-0.763152
0.765018
0.0309912
-0.0327187
-0.649477
0.651205
0.033526
-0.0329551
-0.550363
0.549792
0.0295909
-0.0222527
-0.420374
0.413036
0.013753
-0.00573311
-0.219704
0.211685
0.0014639
-0.0371332
0.0356693
-0.0354879
0.0344606
0.00102737
-0.0100117
0.0167381
-0.28346
0.276734
-0.0232343
0.0266181
-0.446129
0.442745
-0.027409
0.0267163
-0.551215
0.551908
-0.0249652
0.0231883
-0.647669
0.649446
-0.021127
0.0191189
-0.763044
0.765052
-0.0167566
0.0144373
-0.904073
0.906392
-0.0117065
0.00902782
-1.07495
1.07763
-0.00587599
0.00279555
-1.28179
1.28487
0.000811361
-0.00432209
-1.53314
1.53665
0.00775095
-0.0111133
-1.53375
1.53711
0.0138664
-0.0165753
-1.28321
1.28592
0.0187988
-0.0209977
-1.07691
1.07911
0.0228336
-0.0247001
-0.906611
0.908478
0.0262993
-0.0279573
-0.766776
0.768434
0.0294049
-0.0307989
-0.652787
0.654181
0.031113
-0.0298122
-0.548871
0.54757
0.0258326
-0.0185788
-0.405716
0.398462
0.0111706
-0.00462821
-0.204474
0.197932
0.00118766
-0.0343599
0.0331723
-0.0335584
0.0327574
0.000801022
-0.00793976
0.0135941
-0.270574
0.264919
-0.0196056
0.0231872
-0.439255
0.435673
-0.0244564
0.0240127
-0.552513
0.552956
-0.0225292
0.0208625
-0.65122
0.652887
-0.0188964
0.0169748
-0.76701
0.768931
-0.0147056
0.0124752
-0.908598
0.910829
-0.0098495
0.00728321
-1.08018
1.08274
-0.00427532
0.00134046
-1.28782
1.29075
0.00209262
-0.00542787
-1.54004
1.54338
0.0086629
-0.0117966
-1.54034
1.54348
0.0143313
-0.0167985
-1.28851
1.29098
0.0188086
-0.0207823
-1.08125
1.08322
0.0224178
-0.0240757
-0.910263
0.911921
0.0254934
-0.0269618
-0.769992
0.77146
0.0282175
-0.0292371
-0.655368
0.656388
0.0291786
-0.0272144
-0.545942
0.543978
0.0228381
-0.0158559
-0.391342
0.384359
0.00935542
-0.00386253
-0.191965
0.186472
0.000995711
-0.0320934
0.0310977
-0.032054
0.0314285
0.000625537
-0.00634127
0.0110806
-0.259752
0.255013
-0.0165029
0.0200857
-0.432093
0.42851
-0.0216795
0.0214633
-0.553327
0.553543
-0.020214
0.0186054
-0.654573
0.656181
-0.0166954
0.0148239
-0.770817
0.772688
-0.0126152
0.0104455
-0.91295
0.915119
-0.00789175
0.00539929
-1.08519
1.08768
-0.00248612
-0.000339967
-1.29357
1.2964
0.00361822
-0.00677352
-1.54659
1.54974
0.00980665
-0.01272
-1.54648
1.54939
0.0150581
-0.0173126
-1.29335
1.2956
0.0191271
-0.0208847
-1.08515
1.08691
0.0223267
-0.0237876
-0.913505
0.914966
0.025042
-0.0263399
-0.772836
0.774134
0.0274545
-0.0280598
-0.657191
0.657796
0.0276325
-0.0251113
-0.541751
0.539229
0.0204947
-0.0138499
-0.377557
0.370913
0.00806762
-0.00332644
-0.181394
0.176653
0.00086191
-0.0301795
0.0293176
-0.0308829
0.0303995
0.000483428
-0.00505498
0.00900583
-0.250696
0.246745
-0.0137957
0.0172324
-0.425012
0.421575
-0.0190126
0.0189898
-0.55371
0.553733
-0.0179355
0.0163634
-0.657838
0.65941
-0.0144767
0.0126216
-0.774534
0.776389
-0.0104337
0.00829048
-0.917184
0.919328
-0.00577664
0.00333265
-1.09006
1.09251
-0.000489105
-0.0022525
-1.29912
1.30186
0.00540692
-0.00841147
-1.55278
1.55578
0.0112677
-0.0139793
-1.55218
1.55489
0.0161299
-0.0181773
-1.29776
1.29981
0.0198012
-0.0213482
-1.08864
1.09019
0.022605
-0.0238829
-0.916363
0.917641
0.0249891
-0.0261306
-0.775343
0.776485
0.0270499
-0.0272891
-0.65821
0.658449
0.026465
-0.0234715
-0.53649
0.533496
0.0187123
-0.0123964
-0.364452
0.358136
0.00716252
-0.0029564
-0.172213
0.168006
0.000771152
-0.0285111
0.02774
-0.0299843
0.029621
0.000363284
-0.00397795
0.00723667
-0.243166
0.239907
-0.0113831
0.0145643
-0.418286
0.415105
-0.016405
0.0165405
-0.553732
0.553596
-0.0155673
0.0140706
-0.661016
0.662513
-0.0121798
0.0103083
-0.778228
0.7801
-0.0081029
0.00595174
-0.921372
0.923523
-0.00344268
0.00101816
-1.09484
1.09727
0.00178454
-0.00446729
-1.3045
1.30719
0.00752746
-0.0104087
-1.55868
1.56156
0.0131097
-0.0156315
-1.55748
1.56
0.0175977
-0.0194375
-1.30176
1.3036
0.0208706
-0.0222092
-1.09173
1.09307
0.023286
-0.0243877
-0.918863
0.919965
0.0253481
-0.0263203
-0.777532
0.778504
0.0269874
-0.0269372
-0.658562
0.658511
0.0256881
-0.0222807
-0.530311
0.526904
0.017425
-0.0113839
-0.351984
0.345943
0.00654952
-0.00271227
-0.164015
0.160178
0.000713249
-0.0270079
0.0262947
-0.0293189
0.0290627
0.000256156
-0.00303435
0.0056688
-0.236986
0.234351
-0.00917293
0.0120168
-0.412117
0.409273
-0.013805
0.0140246
-0.553483
0.553264
-0.0130967
0.0116422
-0.664069
0.665523
-0.00972402
0.00780798
-0.781961
0.783877
-0.00555147
0.00335935
-0.925577
0.927769
-0.000815833
-0.00162592
-1.09959
1.10203
0.00442618
-0.0070803
-1.30978
1.31243
0.0100721
-0.0128474
-1.56434
1.56711
0.0154052
-0.0177475
-1.5624
1.56475
0.0195381
-0.0211783
-1.30534
1.30698
0.0224243
-0.0235519
-1.09442
1.09555
0.024442
-0.0253641
-0.921017
0.921939
0.02618
-0.0269849
-0.779376
0.780181
0.0273643
-0.0270403
-0.658319
0.657995
0.0253468
-0.0215379
-0.523316
0.519507
0.0165861
-0.0107375
-0.340035
0.334186
0.00617054
-0.00256843
-0.156489
0.152886
0.000681719
-0.025608
0.0249263
-0.0288647
0.0287103
0.000154385
-0.00216056
0.00420919
-0.232033
0.229985
-0.00706664
0.00950413
-0.406663
0.404225
-0.0111339
0.0113613
-0.553117
0.55289
-0.0104477
0.00900063
-0.667069
0.668516
-0.00702959
0.00504068
-0.785784
0.787773
-0.00269754
0.000430249
-0.929865
0.932132
0.00218588
-0.00467964
-1.10438
1.10688
0.00751506
-0.0101737
-1.315
1.31766
0.0131299
-0.0158239
-1.56979
1.57249
0.0182548
-0.0204254
-1.56697
1.56914
0.0220408
-0.0234766
-1.30852
1.30995
0.0245277
-0.0254306
-1.09672
1.09762
0.0261186
-0.0268443
-0.922805
0.923531
0.0275081
-0.0281682
-0.780865
0.781525
0.0282374
-0.0275399
-0.657451
0.656754
0.0254071
-0.0212056
-0.515546
0.511345
0.016137
-0.0103915
-0.328434
0.322689
0.00597834
-0.00250387
-0.14938
0.145905
0.000670929
-0.0242615
0.0235906
-0.0286138
0.0285625
5.12424e-05
-0.00130823
0.00278568
-0.228244
0.226767
-0.00498267
0.00695049
-0.402057
0.400089
-0.00831863
0.00847117
-0.552793
0.552641
-0.00752325
0.00604396
-0.670088
0.671568
-0.00397904
0.00188359
-0.789754
0.79185
0.00058412
-0.00296122
-0.934303
0.93668
0.00568793
-0.00826855
-1.10928
1.11186
0.0111764
-0.0138708
-1.32024
1.32293
0.016819
-0.019449
-1.57509
1.57772
0.0217613
-0.0237625
-1.57118
1.57318
0.0252007
-0.0264267
-1.31127
1.3125
0.0272729
-0.027939
-1.09859
1.09925
0.0284145
-0.0289292
-0.924207
0.924722
0.0294283
-0.0298798
-0.781989
0.782441
0.0296713
-0.0285372
-0.65582
0.654686
0.0259276
-0.0213029
-0.507002
0.502378
0.0160638
-0.0103169
-0.316997
0.31125
0.00595062
-0.00250882
-0.142481
0.139039
0.000678491
-0.0229285
0.0222501
-0.0285689
0.0286274
-5.84957e-05
-0.000428741
0.0013293
-0.225599
0.224698
-0.00283934
0.00427364
-0.398423
0.396989
-0.00527973
0.00527445
-0.552682
0.552688
-0.00423738
0.00267125
-0.673218
0.674784
-0.000481082
-0.00175893
-0.793938
0.796178
0.00439629
-0.00692667
-0.938962
0.941493
0.0098126
-0.0125227
-1.11436
1.11707
0.0155446
-0.0183063
-1.32555
1.32832
0.0212731
-0.023855
-1.58026
1.58284
0.0260542
-0.02788
-1.57505
1.57687
0.029131
-0.0301374
-1.31359
1.3146
0.030772
-0.0311958
-1.10001
1.10043
0.0314506
-0.0317396
-0.925188
0.925477
0.0320479
-0.0322236
-0.782582
0.782758
0.0317336
-0.0300565
-0.653324
0.651647
0.0269323
-0.0218383
-0.49762
0.492526
0.0163561
-0.0104955
-0.305511
0.29965
0.00607306
-0.00257661
-0.135607
0.132111
0.000702533
-0.0215732
0.0208707
-0.0287434
0.0289187
-0.000175273
0.000498239
-0.000212852
-0.224122
0.223837
-0.000561278
0.0013842
-0.395891
0.395068
-0.00191837
0.00166268
-0.552961
0.553217
-0.000467757
-0.00124255
-0.676573
0.678284
0.00360471
-0.0060333
-0.798413
0.800841
0.0088907
-0.0116202
-0.943931
0.94666
0.0147144
-0.0175966
-1.11971
1.12259
0.0207762
-0.0236411
-1.33101
1.33388
0.0266596
-0.0292139
-1.58533
1.58789
0.0313081
-0.032952
-1.57856
1.5802
0.0340032
-0.0347668
-1.31544
1.3162
0.0351695
-0.0353323
-1.10093
1.1011
0.0353505
-0.035398
-0.925705
0.925752
0.0355103
-0.0353253
-0.782548
0.782363
0.0344593
-0.0321837
-0.649786
0.647511
0.0284753
-0.0228324
-0.487288
0.481645
0.0170115
-0.0109151
-0.293746
0.287649
0.00633473
-0.00270149
-0.128586
0.124953
0.000741221
-0.0201636
0.0194223
-0.0291749
0.0294934
-0.000318471
0.0015083
-0.00186536
-0.223904
0.224261
0.00193079
-0.00182138
-0.394601
0.394492
0.00188956
-0.00250327
-0.553838
0.554452
0.00392454
-0.00583928
-0.680272
0.682186
0.00844579
-0.0111221
-0.803264
0.80594
0.0142605
-0.0172431
-0.949299
0.952281
0.0206029
-0.0237069
-1.12541
1.12851
0.0270931
-0.0300956
-1.33668
1.33968
0.0331879
-0.0357182
-1.59035
1.59288
0.0376969
-0.0391374
-1.58169
1.58313
0.0399694
-0.0404648
-1.31677
1.31726
0.0406173
-0.0404979
-1.10131
1.10119
0.0402533
-0.0400355
-0.925702
0.925484
0.0399386
-0.0392924
-0.781736
0.78109
0.0379715
-0.0350044
-0.645084
0.642116
0.0306193
-0.0243159
-0.475835
0.469531
0.0180383
-0.0115717
-0.281453
0.274986
0.00672996
-0.00287996
-0.121255
0.117405
0.000793373
-0.0186709
0.0178775
-0.0298831
0.0303748
-0.000491688
0.00277411
-0.00387659
-0.225011
0.226113
0.00480363
-0.00549029
-0.394748
0.395435
0.0062854
-0.00736082
-0.55556
0.556635
0.00910384
-0.0112938
-0.684447
0.686637
0.014222
-0.0172153
-0.80861
0.811603
0.0207095
-0.0240127
-0.955181
0.958484
0.0277082
-0.0310902
-1.13156
1.13494
0.0347324
-0.0379059
-1.34263
1.3458
0.0410938
-0.0436031
-1.59531
1.59782
0.0454483
-0.046654
-1.58438
1.58559
0.0472152
-0.0474267
-1.31752
1.31773
0.0473021
-0.0468666
-1.10106
1.10063
0.0463338
-0.0458301
-0.925114
0.92461
0.0454038
-0.0443073
-0.780005
0.778909
0.0423899
-0.0386037
-0.63902
0.635234
0.033416
-0.0263072
-0.463025
0.455917
0.0194342
-0.0124544
-0.268361
0.261381
0.00724767
-0.00310521
-0.113456
0.109314
0.000856451
-0.0170695
0.0162131
-0.0309421
0.0316517
-0.00070968
0.00425729
-0.00623839
-0.227643
0.229624
0.00824058
-0.00982722
-0.396561
0.398148
0.0114483
-0.013107
-0.558373
0.560032
0.015315
-0.0178766
-0.689246
0.691808
0.0212258
-0.0246173
-0.81459
0.817982
0.0285524
-0.0322494
-0.961714
0.965411
0.0363524
-0.0400682
-1.13827
1.14199
0.0440133
-0.047383
-1.34891
1.35228
0.0506692
-0.0531346
-1.60021
1.60267
0.0548068
-0.0557294
-1.58659
1.58751
0.0559773
-0.0558608
-1.31763
1.31751
0.0554231
-0.0546372
-1.10013
1.09935
0.0537866
-0.0529538
-0.923879
0.923046
0.0521126
-0.0505002
-0.777392
0.775779
0.0478565
-0.0430872
-0.631324
0.626555
0.0369312
-0.0288315
-0.448556
0.440456
0.0211993
-0.0135507
-0.254178
0.246529
0.0078746
-0.00336901
-0.10504
0.100535
0.000927525
-0.0153389
0.0144113
-0.032434
0.033433
-0.000998956
0.00614342
-0.00918026
-0.232057
0.235093
0.0124226
-0.0150675
-0.400302
0.402947
0.0176606
-0.0200357
-0.562556
0.564931
0.022855
-0.0259168
-0.694873
0.697935
0.0298248
-0.0337166
-0.821379
0.825271
0.038196
-0.0423702
-0.969045
0.973219
0.0469582
-0.0510605
-1.14566
1.14976
0.055341
-0.058908
-1.35558
1.35914
0.0622613
-0.0646271
-1.60499
1.60735
0.0660561
-0.0666143
-1.5882
1.58875
0.0664852
-0.0659678
-1.31695
1.31643
0.0651797
-0.0639939
-1.09842
1.09724
0.0627815
-0.0616176
-0.921916
0.920752
0.0602416
-0.0580158
-0.773744
0.771518
0.0544899
-0.0485194
-0.621658
0.615688
0.0411836
-0.031869
-0.43205
0.422735
0.0232957
-0.0148203
-0.238596
0.230121
0.00857906
-0.00365405
-0.0958742
0.0909491
0.00100068
-0.0134657
0.012465
-0.0344899
0.0358859
-0.00139607
0.00859931
-0.01299
-0.238575
0.242966
0.0177156
-0.0215881
-0.406345
0.410218
0.0253089
-0.0285477
-0.568445
0.571684
0.0321546
-0.0358745
-0.701606
0.705326
0.0405009
-0.0450286
-0.829177
0.833704
0.0501754
-0.0549175
-0.977346
0.982088
0.0600618
-0.0645825
-1.15381
1.15834
0.0691927
-0.0729162
-1.3626
1.36632
0.0762576
-0.0784249
-1.6095
1.61167
0.0795033
-0.0795912
-1.58901
1.5891
0.0790086
-0.0779583
-1.31534
1.31429
0.076753
-0.0751384
-1.09581
1.09419
0.0735602
-0.0719696
-0.919181
0.917591
0.0700472
-0.0670238
-0.768835
0.765812
0.0623964
-0.0549443
-0.609576
0.602124
0.0461638
-0.0353687
-0.413055
0.40226
0.0256565
-0.0162008
-0.221305
0.21185
0.00931525
-0.00393691
-0.0858555
0.0804771
0.00106846
-0.0114492
0.0103808
-0.0373033
0.0392701
-0.00196677
0.0120322
-0.0181286
-0.247727
0.253823
0.0246452
-0.0299549
-0.41518
0.42049
0.0350098
-0.039306
-0.576427
0.580724
0.0439173
-0.0484978
-0.709777
0.714358
0.054047
-0.0593566
-0.838242
0.843551
0.0652899
-0.0706665
-0.986791
0.992168
0.0763894
-0.0813003
-1.16278
1.16769
0.0861581
-0.0899212
-1.36986
1.37362
0.0930822
-0.0948719
-1.61353
1.61532
0.0954262
-0.094884
-1.58879
1.58825
0.0937339
-0.0920594
-1.31262
1.31095
0.0903504
-0.0882748
-1.09219
1.09011
0.0862915
-0.0841265
-0.915448
0.913283
0.0816768
-0.077613
-0.762236
0.758172
0.0716087
-0.0623221
-0.594495
0.585209
0.0517768
-0.039201
-0.391049
0.378473
0.0281494
-0.0175838
-0.202019
0.191454
0.0100096
-0.00418226
-0.0749362
0.0691089
0.00112013
-0.00930492
0.00818479
-0.0411975
0.0440466
-0.00284909
0.0170248
-0.0253749
-0.260227
0.268577
0.0341037
-0.0411331
-0.427484
0.434513
0.0478064
-0.0533945
-0.586995
0.592583
0.0592906
-0.0649929
-0.719815
0.725517
0.0717086
-0.077933
-0.848851
0.855075
0.0847093
-0.0906978
-0.997483
1.00347
0.0969012
-0.102053
-1.17243
1.17759
0.106937
-0.110499
-1.37707
1.38063
0.113189
-0.114327
-1.61664
1.61778
0.114106
-0.112714
-1.5872
1.5858
0.11083
-0.108426
-1.30859
1.30618
0.10613
-0.103535
-1.08746
1.08486
0.101125
-0.0982661
-0.910381
0.907523
0.0951265
-0.0897318
-0.753438
0.748044
0.0820156
-0.0704735
-0.575674
0.564132
0.0577965
-0.0431247
-0.36546
0.350788
0.0305561
-0.0188067
-0.180526
0.168777
0.0105581
-0.0043431
-0.0631563
0.0569413
0.00114202
-0.00707033
0.00592832
-0.0467418
0.0510797
-0.00433799
0.0247499
-0.0361588
-0.277253
0.288662
0.047752
-0.0570891
-0.444275
0.453612
0.065791
-0.0729261
-0.600757
0.607892
0.0803825
-0.0875619
-0.732135
0.739314
0.0954717
-0.102526
-0.861196
0.86825
0.109969
-0.116336
-1.00929
1.01566
0.122687
-0.127728
-1.18239
1.18743
0.132219
-0.135189
-1.38366
1.38663
0.136984
-0.137103
-1.61826
1.61838
0.135792
-0.133277
-1.58376
1.58124
0.130459
-0.127159
-1.303
1.2997
0.124175
-0.120995
-1.08148
1.0783
0.118069
-0.114491
-0.90381
0.900232
0.110382
-0.10324
-0.741787
0.734645
0.0933324
-0.0790208
-0.552198
0.537887
0.0638233
-0.046776
-0.335727
0.318679
0.0325771
-0.0196642
-0.15677
0.143857
0.0108366
-0.00436591
-0.0506856
0.0442149
0.00111852
-0.00480887
0.00369035
-0.0550057
0.0624026
-0.00739686
0.0381751
-0.0540733
-0.300943
0.316841
0.0697253
-0.0822874
-0.467239
0.479801
0.0931715
-0.101684
-0.618159
0.626672
0.110666
-0.119134
-0.747077
0.755545
0.12799
-0.135444
-0.874993
0.882447
0.142948
-0.149076
-1.02158
1.02771
0.154901
-0.159206
-1.19181
1.19612
0.162664
-0.164457
-1.38877
1.39056
0.164787
-0.163396
-1.61757
1.61618
0.160591
-0.156649
-1.57791
1.57397
0.152676
-0.14829
-1.29551
1.29112
0.144516
-0.140704
-1.07405
1.07024
0.137125
-0.132698
-0.895546
0.891119
0.12719
-0.11768
-0.726303
0.716792
0.104906
-0.0871952
-0.522904
0.505193
0.0691746
-0.0496704
-0.301403
0.281898
0.0338925
-0.0199916
-0.130973
0.117072
0.0107583
-0.00421384
-0.0378642
0.0313198
0.00102904
-0.00260824
0.0015792
-0.0692752
0.0733935
-0.00411837
0.0290773
-0.0429748
-0.335251
0.349149
0.056944
-0.0685597
-0.497807
0.509423
0.0788862
-0.0885102
-0.638838
0.648462
0.099211
-0.109165
-0.763471
0.773425
0.120234
-0.129995
-0.888862
0.898624
0.140332
-0.149477
-1.0329
1.04205
0.158995
-0.167091
-1.19933
1.20743
0.175052
-0.181265
-1.39116
1.39737
0.186585
-0.189729
-1.61357
1.61671
0.190677
-0.190014
-1.56897
1.56831
0.188277
-0.185728
-1.28574
1.28319
0.183496
-0.180797
-1.06491
1.06221
0.178227
-0.173842
-0.884875
0.88049
0.16612
-0.151977
-0.705552
0.691409
0.132787
-0.1073
-0.486665
0.461178
0.0826739
-0.0572209
-0.26235
0.236897
0.037773
-0.0215187
-0.1038
0.0875454
0.0111693
-0.00418404
-0.0252364
0.0182511
0.000949745
-0.000542789
-0.000406956
-0.0807465
0.0788171
0.00192938
0.00763597
-0.0165731
-0.365711
0.374648
0.0271453
-0.0355175
-0.525595
0.533967
0.0439045
-0.0518224
-0.660802
0.66872
0.0615655
-0.0707597
-0.782852
0.792047
0.0806004
-0.0895308
-0.907726
0.916657
0.0989671
-0.106962
-1.05088
1.05887
0.115445
-0.122263
-1.21527
1.22209
0.128879
-0.133708
-1.40318
1.40801
0.137254
-0.138815
-1.61895
1.62051
0.138243
-0.136067
-1.56694
1.56476
0.1328
-0.128633
-1.27995
1.27579
0.124817
-0.12065
-1.05738
1.05322
0.11656
-0.110976
-0.871269
0.865686
0.102762
-0.0901674
-0.673519
0.660924
0.0753956
-0.0577608
-0.434214
0.416579
0.0423291
-0.0280852
-0.211854
0.19761
0.0180216
-0.0100935
-0.0722683
0.0643403
0.00518971
-0.00194196
-0.0115071
0.0082593
0.000432396
0.00159699
-0.00202939
-0.0821553
0.0792817
0.00287355
-0.00123019
-0.0038407
-0.386331
0.391402
0.0108268
-0.0169028
-0.546163
0.552239
0.023061
-0.0299001
-0.679246
0.686085
0.0383332
-0.0462837
-0.80031
0.80826
0.0550068
-0.0627585
-0.924742
0.932494
0.0706914
-0.0777707
-1.06666
1.07374
0.0850575
-0.0909754
-1.22843
1.23434
0.0962345
-0.0998142
-1.41212
1.4157
0.102271
-0.102607
-1.6213
1.62164
0.100811
-0.0974048
-1.56187
1.55846
0.093139
-0.088084
-1.27121
1.26615
0.0830186
-0.0776125
-1.04716
1.04175
0.0724011
-0.066089
-0.855909
0.849597
0.0586644
-0.0484073
-0.645307
0.63505
0.0378574
-0.0266212
-0.397453
0.386217
0.0182169
-0.011513
-0.182959
0.176255
0.00728707
-0.00424701
-0.056366
0.0533259
0.00230426
-0.000941351
-0.00481496
0.00345204
0.000232874
0.00270366
-0.00293654
-0.080927
0.0781364
0.00279067
-0.00501233
0.00251085
-0.399977
0.402478
0.00198914
-0.00653881
-0.561382
0.565932
0.0117049
-0.0174227
-0.694375
0.700093
0.0246365
-0.0314367
-0.815544
0.822344
0.0388582
-0.0454772
-0.939653
0.946272
0.0526292
-0.0585911
-1.08036
1.08632
0.0648836
-0.0695098
-1.23981
1.24443
0.0738543
-0.0766236
-1.41897
1.42174
0.0780288
-0.0772355
-1.62145
1.62065
0.0747543
-0.0706943
-1.5544
1.55034
0.0658423
-0.0597696
-1.26063
1.25456
0.0540633
-0.0478412
-1.03489
1.02867
0.0417585
-0.0352159
-0.839569
0.833026
0.0283779
-0.0204795
-0.62186
0.613961
0.0135285
-0.00764664
-0.373978
0.368096
0.00427861
-0.0023205
-0.168553
0.166595
0.00135683
-0.000928853
-0.0494305
0.0490025
0.000587641
-0.000306886
-0.00161028
0.00132953
8.60384e-05
0.00340669
-0.00349273
-0.0794137
0.0769491
0.00246459
-0.00623918
0.00532739
-0.409096
0.410008
-0.00196394
-0.0014013
-0.573519
0.576884
0.00550978
-0.0106749
-0.70706
0.712225
0.0167235
-0.0226874
-0.828427
0.83439
0.0290971
-0.0348295
-0.9524
0.958132
0.0409368
-0.0462005
-1.09211
1.09738
0.0514633
-0.0556189
-1.24888
1.25303
0.0591899
-0.0612945
-1.42407
1.42618
0.0620061
-0.0606174
-1.6196
1.61822
0.0575986
-0.0528291
-1.54549
1.54072
0.0475641
-0.041203
-1.24825
1.24189
0.0350882
-0.0282159
-1.02134
1.01447
0.0218483
-0.0150907
-0.823504
0.816746
0.00924089
-0.00317001
-0.603588
0.597517
-0.00112261
0.00356852
-0.36017
0.357724
-0.00409814
0.00355036
-0.16279
0.163338
-0.00261745
0.00155339
-0.047829
0.0488931
-0.000810877
0.000255198
-0.000660236
0.00121591
-4.84696e-05
0.00377726
-0.00372879
-0.0780069
0.0759009
0.00210602
-0.00619119
0.00578646
-0.41534
0.415745
-0.00378434
0.00105652
-0.582859
0.585587
0.00295127
-0.00736814
-0.717779
0.722195
0.0125495
-0.0177066
-0.839547
0.844704
0.0233811
-0.0284888
-0.963482
0.96859
0.034056
-0.0386406
-1.10234
1.10693
0.0433237
-0.0469912
-1.25686
1.26053
0.0500129
-0.0516539
-1.42796
1.4296
0.0518702
-0.0504469
-1.61665
1.61523
0.0470622
-0.0421773
-1.53543
1.53055
0.0367055
-0.0301467
-1.23523
1.22867
0.0240994
-0.0169312
-1.00692
0.999755
0.0104204
-0.0038451
-0.807933
0.801358
-0.00148651
0.00631361
-0.589048
0.584221
-0.00918652
0.0100515
-0.352402
0.351537
-0.00900373
0.00720539
-0.162154
0.163953
-0.00540366
0.00341321
-0.0493943
0.0513847
-0.00191694
0.000743935
-0.00154201
0.00271501
-0.000180465
0.00377005
-0.00358959
-0.0769351
0.0752933
0.00164178
-0.00534812
0.00527926
-0.419967
0.420035
-0.00362959
0.00158683
-0.591005
0.593047
0.00216037
-0.00616675
-0.727044
0.73105
0.0110692
-0.0154948
-0.84947
0.853895
0.0204605
-0.0249726
-0.973638
0.97815
0.0302326
-0.0343656
-1.11152
1.11565
0.0384833
-0.0418952
-1.26399
1.2674
0.0449792
-0.0463645
-1.4312
1.43259
0.0464999
-0.0448519
-1.61335
1.6117
0.0416947
-0.0365588
-1.52541
1.52027
0.0313005
-0.0249584
-1.22189
1.21555
0.0188354
-0.0119747
-0.992278
0.985417
0.00556623
0.00103738
-0.793002
0.786399
-0.00585577
0.0100454
-0.576761
0.572572
-0.0123905
0.0126376
-0.347658
0.347411
-0.0112944
0.00912944
-0.164008
0.166173
-0.00695765
0.00452257
-0.0528286
0.0552637
-0.00262781
0.00108554
-0.00367426
0.00521654
-0.000281802
0.00344781
-0.003166
-0.0763673
0.0750864
0.00128094
-0.00427435
0.00433975
-0.423632
0.423567
-0.00282882
0.000892238
-0.598073
0.60001
0.00265017
-0.00625273
-0.735342
0.738945
0.0104366
-0.0146836
-0.858287
0.862534
0.0192521
-0.0238885
-0.982438
0.987074
0.0283872
-0.0323044
-1.11987
1.12378
0.0365127
-0.0396471
-1.27066
1.27379
0.0421945
-0.0439223
-1.43385
1.43558
0.0441427
-0.0426956
-1.61008
1.60863
0.0395978
-0.0349048
-1.51531
1.51062
0.0298517
-0.0237325
-1.20889
1.20277
0.0179208
-0.0113137
-0.978202
0.971594
0.00518869
0.00102595
-0.778743
0.772529
-0.00600327
0.00973442
-0.565664
0.561933
-0.0118226
0.0124001
-0.344263
0.343686
-0.0114308
0.00935661
-0.166532
0.168607
-0.00726129
0.00483172
-0.0569198
0.0593494
-0.00288723
0.00124381
-0.00645176
0.00809519
-0.000341565
0.00292403
-0.00258247
-0.0763421
0.0752762
0.00106584
-0.00297504
0.00279754
-0.42692
0.427098
-0.00149097
-0.000432772
-0.604548
0.606472
0.00371479
-0.00719728
-0.743041
0.746523
0.0112023
-0.0150359
-0.866596
0.87043
0.0197096
-0.023531
-0.9911
0.994922
0.0279814
-0.031708
-1.12784
1.13157
0.0357752
-0.0390697
-1.27688
1.28018
0.0418722
-0.0433434
-1.43704
1.43851
0.0438507
-0.042733
-1.60709
1.60597
0.0402018
-0.0357352
-1.5058
1.50133
0.031048
-0.0252929
-1.19677
1.19101
0.0198738
-0.0136021
-0.96465
0.958378
0.00792185
-0.00185289
-0.765298
0.759229
-0.00304214
0.00687926
-0.555449
0.551612
-0.00904511
0.00984833
-0.340697
0.339893
-0.0095227
0.0080862
-0.168585
0.170022
-0.00645713
0.00441272
-0.0608449
0.0628893
-0.00270606
0.00121474
-0.00931106
0.0108024
-0.000352763
0.00230249
-0.00194973
-0.0766154
0.0758696
0.000745785
-0.00181386
0.00115358
-0.430297
0.430957
-2.47391e-05
-0.00201753
-0.610283
0.612325
0.00498157
-0.00833512
-0.750203
0.753557
0.0121719
-0.0161309
-0.874147
0.878106
0.0201747
-0.0241522
-0.998936
1.00291
0.0285535
-0.0320574
-1.13571
1.13921
0.0362068
-0.0394453
-1.28325
1.28649
0.0422824
-0.044265
-1.44038
1.44236
0.0452346
-0.044367
-1.60487
1.604
0.0420238
-0.0382518
-1.49705
1.49328
0.0341235
-0.0287801
-1.18519
1.17985
0.0236686
-0.0180269
-0.951982
0.946341
0.0123551
-0.00673836
-0.75237
0.746754
0.00194475
0.00222703
-0.545557
0.541385
-0.00459237
0.00591982
-0.336527
0.3352
-0.00619851
0.00565501
-0.169629
0.170173
-0.00467264
0.00331652
-0.0638592
0.0652153
-0.00211337
0.000987879
-0.0117575
0.012883
-0.000300916
0.00169611
-0.0013952
-0.0773111
0.0767277
0.000583364
-0.000829546
0.000202736
-0.433908
0.434535
0.00147312
-0.00337853
-0.616114
0.618019
0.00652167
-0.00975386
-0.756861
0.760093
0.0134503
-0.0170079
-0.881749
0.885307
0.0211758
-0.0248351
-1.00687
1.01053
0.0291797
-0.0331214
-1.14316
1.1471
0.0369055
-0.0404695
-1.28976
1.29333
0.04373
-0.0458005
-1.44422
1.44629
0.0471328
-0.0470219
-1.60334
1.60323
0.0451275
-0.0419999
-1.48939
1.48626
0.0381382
-0.0333315
-1.17462
1.16981
0.0287144
-0.0233243
-0.940269
0.934879
0.0181202
-0.0126596
-0.740216
0.734756
0.00788914
-0.00333178
-0.535422
0.530865
0.000409494
0.00149006
-0.331443
0.329544
-0.00250746
0.0027279
-0.169132
0.168912
-0.00247743
0.00188691
-0.0654753
0.0660659
-0.00127966
0.000642363
-0.0134339
0.0140712
-0.000212431
0.00121073
-0.000998295
-0.0782932
0.0778903
0.00040291
0.000246746
-0.00106921
-0.437688
0.438511
0.00262522
-0.00484472
-0.621564
0.623783
0.0079289
-0.0110156
-0.763283
0.76637
0.0148123
-0.0182265
-0.888851
0.892265
0.0222383
-0.0260202
-1.01466
1.01844
0.0302745
-0.034182
-1.15088
1.15479
0.0381904
-0.0417876
-1.2968
1.3004
0.0452387
-0.0480631
-1.44864
1.45146
0.0498367
-0.0500276
-1.60305
1.60324
0.048834
-0.0460654
-1.48305
1.48028
0.0427962
-0.0385798
-1.16501
1.16079
0.0340843
-0.0290177
-0.929211
0.924144
0.0240881
-0.018655
-0.728568
0.723135
0.013949
-0.00905021
-0.525179
0.520281
0.00561092
-0.00286093
-0.325353
0.322603
0.00119355
-0.000160366
-0.167034
0.166001
-0.000378631
0.000536784
-0.0656014
0.0654433
-0.000485433
0.000306421
-0.0141508
0.0143298
-0.000123141