/*--------------------------------*- C++ -*----------------------------------*\
  =========                 |
  \\      /  F ield         | OpenFOAM: The Open Source CFD Toolbox
   \\    /   O peration     | Website:  https://openfoam.org
    \\  /    A nd           | Version:  6
     \\/     M anipulation  |
\*---------------------------------------------------------------------------*/
FoamFile
{
    version     2.0;
    format      ascii;
    class       volVectorField;
    location    "61";
    object      U;
}
// * * * * * * * * * * * * * * * * * * * * * * * * * * * * * * * * * * * * * //

dimensions      [0 1 -1 0 0 0 0];

internalField   nonuniform List<vector> 
8800
(
(0.987195 -0.0767056 0)
(1.0019 -0.0551773 0)
(0.999724 -0.0285505 0)
(1.00002 -0.0151546 0)
(1.00007 -0.00855722 0)
(1.00009 -0.00505843 0)
(1.00006 -0.00301222 0)
(1.00002 -0.00171049 0)
(0.999999 -0.000802985 0)
(1.00006 -8.59074e-05 0)
(0.999986 0.000644124 0)
(0.999994 0.00140978 0)
(1.00002 0.00243249 0)
(1.00004 0.00400509 0)
(1.00004 0.00663748 0)
(1.00001 0.0113772 0)
(0.999897 0.0208174 0)
(0.99915 0.0386583 0)
(1.0071 0.0724578 0)
(0.771226 0.0366897 0)
(0.363039 -0.0160157 0)
(1.04331 -0.0768285 0)
(1.08461 -0.0704472 0)
(1.04522 -0.0535512 0)
(1.02329 -0.0389034 0)
(1.01201 -0.0262337 0)
(1.00642 -0.0168817 0)
(1.00359 -0.0103552 0)
(1.00215 -0.00569684 0)
(1.00146 -0.00204048 0)
(1.00132 0.00128397 0)
(1.00168 0.00466634 0)
(1.00266 0.00860119 0)
(1.00466 0.0139394 0)
(1.00861 0.0216439 0)
(1.01658 0.0326104 0)
(1.03249 0.0465269 0)
(1.06266 0.0616502 0)
(1.09189 0.0760842 0)
(0.838674 0.0565772 0)
(0.216816 -0.00242197 0)
(1.07587 -0.0501565 0)
(1.09986 -0.0483408 0)
(1.06462 -0.0404916 0)
(1.04 -0.0336359 0)
(1.02388 -0.0261216 0)
(1.0141 -0.0185454 0)
(1.00855 -0.0117295 0)
(1.00558 -0.00586333 0)
(1.00433 -0.000446143 0)
(1.00467 0.0048017 0)
(1.0066 0.0101938 0)
(1.0106 0.01629 0)
(1.01794 0.0233171 0)
(1.03053 0.030784 0)
(1.05061 0.037822 0)
(1.08032 0.0445172 0)
(1.10625 0.0513399 0)
(0.942537 0.0416101 0)
(0.216164 0.00245202 0)
(0.175135 -0.000815271 0)
(1.01763 -0.0355043 0)
(1.10517 -0.0414128 0)
(1.07823 -0.0361047 0)
(1.05342 -0.0301797 0)
(1.03615 -0.0246137 0)
(1.02396 -0.0188918 0)
(1.01586 -0.0128151 0)
(1.011 -0.00662908 0)
(1.00881 -0.000294755 0)
(1.00939 0.00596292 0)
(1.01265 0.0119648 0)
(1.01886 0.0178076 0)
(1.02877 0.0233883 0)
(1.0432 0.0286932 0)
(1.06372 0.0341838 0)
(1.09354 0.0401744 0)
(1.09341 0.0419429 0)
(0.827193 0.0229038 0)
(0.174035 0.000849574 0)
(0.153914 -0.00061051 0)
(0.956076 -0.0254828 0)
(1.1034 -0.0351702 0)
(1.08763 -0.0327045 0)
(1.06166 -0.0280625 0)
(1.04405 -0.0230512 0)
(1.03159 -0.0178137 0)
(1.02275 -0.0122881 0)
(1.01695 -0.0063552 0)
(1.01411 0.000113356 0)
(1.0148 0.00657849 0)
(1.01878 0.0124671 0)
(1.0258 0.0177707 0)
(1.03611 0.0226942 0)
(1.05067 0.0274582 0)
(1.07191 0.0319989 0)
(1.10007 0.0359414 0)
(1.06811 0.0340095 0)
(0.739615 0.0143048 0)
(0.152258 0.000649421 0)
(0.139522 -0.000467365 0)
(0.899113 -0.0191051 0)
(1.09569 -0.0301305 0)
(1.09567 -0.0292538 0)
(1.06917 -0.0255344 0)
(1.05074 -0.0214085 0)
(1.03782 -0.0166476 0)
(1.02872 -0.0113698 0)
(1.02262 -0.00563084 0)
(1.0195 0.000694726 0)
(1.02013 0.00700965 0)
(1.02423 0.0126513 0)
(1.03138 0.0176279 0)
(1.04191 0.0220999 0)
(1.05704 0.0260723 0)
(1.07924 0.0295488 0)
(1.10229 0.0321835 0)
(1.03604 0.0280947 0)
(0.673083 0.0102022 0)
(0.137183 0.000512243 0)
(0.128959 -0.000362348 0)
(0.849449 -0.0147468 0)
(1.08326 -0.0260076 0)
(1.10133 -0.0263177 0)
(1.07601 -0.0230463 0)
(1.05704 -0.0194171 0)
(1.04367 -0.0151852 0)
(1.03422 -0.0102741 0)
(1.02788 -0.00474948 0)
(1.02457 0.00139698 0)
(1.02507 0.00750055 0)
(1.02912 0.0128665 0)
(1.03638 0.0174341 0)
(1.0472 0.0213026 0)
(1.06273 0.0246134 0)
(1.08537 0.0275738 0)
(1.10141 0.0293396 0)
(1.00115 0.0235768 0)
(0.621284 0.00783799 0)
(0.125791 0.000415166 0)
(0.120892 -0.000281969 0)
(0.807225 -0.0115932 0)
(1.06793 -0.0224076 0)
(1.10483 -0.0236954 0)
(1.08224 -0.0208394 0)
(1.06286 -0.0174265 0)
(1.04921 -0.0135054 0)
(1.03948 -0.00893558 0)
(1.03286 -0.0036859 0)
(1.02931 0.00223949 0)
(1.02964 0.00809385 0)
(1.03364 0.0131134 0)
(1.04097 0.0172125 0)
(1.0519 0.0205731 0)
(1.06764 0.0234763 0)
(1.09062 0.0261439 0)
(1.09764 0.0270173 0)
(0.96592 0.0200336 0)
(0.579667 0.00630323 0)
(0.116716 0.000344801 0)
(0.114634 -0.00021902 0)
(0.771661 -0.00923503 0)
(1.05109 -0.0192397 0)
(1.10718 -0.0212723 0)
(1.08808 -0.0187896 0)
(1.06832 -0.0155239 0)
(1.05443 -0.0117688 0)
(1.04451 -0.00741331 0)
(1.03764 -0.0024087 0)
(1.03382 0.00326155 0)
(1.03393 0.00881644 0)
(1.03781 0.0134604 0)
(1.04508 0.0171457 0)
(1.05601 0.0201178 0)
(1.07196 0.0226965 0)
(1.09459 0.0250258 0)
(1.09105 0.0250882 0)
(0.931644 0.0172981 0)
(0.54522 0.0052552 0)
(0.109232 0.000294152 0)
(0.109749 -0.000168397 0)
(0.741818 -0.00740545 0)
(1.03382 -0.0164329 0)
(1.10857 -0.0189896 0)
(1.09363 -0.016816 0)
(1.07359 -0.0136435 0)
(1.05943 -0.00998169 0)
(1.04932 -0.00575365 0)
(1.04224 -0.000928978 0)
(1.03814 0.00449369 0)
(1.03796 0.00972942 0)
(1.04161 0.0140104 0)
(1.04874 0.0173276 0)
(1.05965 0.0199523 0)
(1.07579 0.0222452 0)
(1.09729 0.0242059 0)
(1.08203 0.0235018 0)
(0.898891 0.0152191 0)
(0.515894 0.00452451 0)
(0.10286 0.000258556 0)
(0.105953 -0.000126358 0)
(0.716874 -0.00593034 0)
(1.01694 -0.0139154 0)
(1.10913 -0.0167858 0)
(1.09908 -0.0148901 0)
(1.07877 -0.0117316 0)
(1.06433 -0.00810528 0)
(1.054 -0.00394425 0)
(1.04667 0.000759104 0)
(1.04224 0.00597255 0)
(1.04171 0.0109096 0)
(1.04506 0.0148517 0)
(1.052 0.0178265 0)
(1.06287 0.0201134 0)
(1.07918 0.0221413 0)
(1.09865 0.0237039 0)
(1.07096 0.022262 0)
(0.867772 0.0136824 0)
(0.490237 0.00402163 0)
(0.0972559 0.000235129 0)
(0.103059 -8.99257e-05 0)
(0.696188 -0.00469354 0)
(1.00105 -0.0116195 0)
(1.109 -0.0146225 0)
(1.10436 -0.012922 0)
(1.08396 -0.00973223 0)
(1.0692 -0.0060835 0)
(1.0586 -0.00193468 0)
(1.05097 0.00269932 0)
(1.04616 0.00775259 0)
(1.04518 0.0124239 0)
(1.04817 0.0160387 0)
(1.05489 0.0186729 0)
(1.06569 0.0206242 0)
(1.08212 0.0223962 0)
(1.09903 0.0235498 0)
(1.05812 0.0213707 0)
(0.838131 0.0125963 0)
(0.467162 0.00369044 0)
(0.0921631 0.000221258 0)
(0.100947 -5.64209e-05 0)
(0.679288 -0.00360775 0)
(0.986604 -0.00947408 0)
(1.10841 -0.0124135 0)
(1.10946 -0.010829 0)
(1.08921 -0.00758169 0)
(1.07411 -0.00385389 0)
(1.06321 0.000346285 0)
(1.0552 0.00496876 0)
(1.04991 0.00990334 0)
(1.0484 0.0143316 0)
(1.05094 0.0176327 0)
(1.05739 0.0199318 0)
(1.0681 0.0215414 0)
(1.08458 0.0230406 0)
(1.09841 0.0237823 0)
(1.04368 0.0208486 0)
(0.809645 0.0118907 0)
(0.445824 0.00349351 0)
(0.0873802 0.000215174 0)
(0.0995555 -2.35917e-05 0)
(0.665873 -0.00260354 0)
(0.973967 -0.00740442 0)
(1.10765 -0.0101024 0)
(1.11451 -0.00855772 0)
(1.09463 -0.00521673 0)
(1.07915 -0.00134861 0)
(1.06786 0.00296765 0)
(1.0594 0.00764006 0)
(1.05351 0.0125094 0)
(1.05137 0.0167244 0)
(1.05338 0.0197124 0)
(1.05951 0.0216638 0)
(1.07009 0.0229115 0)
(1.08657 0.0241422 0)
(1.09655 0.0244282 0)
(1.02769 0.0206732 0)
(0.781895 0.0115077 0)
(0.425529 0.00340465 0)
(0.0827448 0.000215269 0)
(0.0988686 1.0759e-05 0)
(0.65579 -0.0016261 0)
(0.963449 -0.0053384 0)
(1.10705 -0.00762431 0)
(1.11963 -0.00602263 0)
(1.10027 -0.00253038 0)
(1.08437 0.00154299 0)
(1.07264 0.00603773 0)
(1.06362 0.0108209 0)
(1.05702 0.0156688 0)
(1.0541 0.019685 0)
(1.05548 0.0223583 0)
(1.06121 0.0239439 0)
(1.07165 0.0248054 0)
(1.08803 0.0257355 0)
(1.0934 0.0255216 0)
(1.01014 0.020881 0)
(0.754422 0.0114215 0)
(0.405703 0.00341008 0)
(0.0781245 0.000221039 0)
(0.0989073 4.40468e-05 0)
(0.649013 -0.000627708 0)
(0.955348 -0.00320198 0)
(1.10697 -0.00491221 0)
(1.125 -0.00314845 0)
(1.10625 0.000560426 0)
(1.08989 0.00491309 0)
(1.07761 0.00966549 0)
(1.06791 0.0146281 0)
(1.06043 0.0194971 0)
(1.05658 0.0233227 0)
(1.05721 0.0256659 0)
(1.06247 0.0268727 0)
(1.07274 0.0273365 0)
(1.08873 0.0278978 0)
(1.08878 0.0270681 0)
(0.990882 0.0214969 0)
(0.726702 0.0116131 0)
(0.385822 0.00350114 0)
(0.0733978 0.000231807 0)
(0.0997095 8.3803e-05 0)
(0.645621 0.000406693 0)
(0.949984 -0.000921207 0)
(1.10775 -0.00188004 0)
(1.13081 0.000168823 0)
(1.11266 0.00417863 0)
(1.09579 0.00889319 0)
(1.08288 0.013983 0)
(1.07234 0.0191954 0)
(1.06381 0.0241411 0)
(1.05884 0.0277942 0)
(1.05856 0.0297801 0)
(1.06326 0.0305771 0)
(1.0733 0.0306135 0)
(1.08854 0.0307518 0)
(1.08242 0.0291673 0)
(0.96966 0.0225503 0)
(0.698175 0.0120739 0)
(0.3654 0.00367076 0)
(0.068458 0.000246969 0)
(0.101486 0.000144224 0)
(0.646008 0.00156383 0)
(0.94772 0.0015868 0)
(1.10984 0.00157685 0)
(1.13724 0.00405148 0)
(1.11965 0.00847855 0)
(1.1022 0.013653 0)
(1.0885 0.0191727 0)
(1.07696 0.0247134 0)
(1.06714 0.0297733 0)
(1.06082 0.0332514 0)
(1.05946 0.0348336 0)
(1.06349 0.0351862 0)
(1.07326 0.0347532 0)
(1.08721 0.0343985 0)
(1.07406 0.0318988 0)
(0.946107 0.0240855 0)
(0.66823 0.012802 0)
(0.343971 0.00391489 0)
(0.0632079 0.000266003 0)
(0.104284 0.000205269 0)
(0.650536 0.00297855 0)
(0.948998 0.00447054 0)
(1.1137 0.0055954 0)
(1.14455 0.00863769 0)
(1.12739 0.0136195 0)
(1.10924 0.0193758 0)
(1.09459 0.0254381 0)
(1.0818 0.0313866 0)
(1.07042 0.036595 0)
(1.0625 0.039877 0)
(1.0599 0.040994 0)
(1.06312 0.040854 0)
(1.07255 0.0398864 0)
(1.08458 0.0390084 0)
(1.06337 0.0353649 0)
(0.919727 0.0261318 0)
(0.636209 0.0137917 0)
(0.32109 0.0042253 0)
(0.0575629 0.000287851 0)
(0.108388 0.000287222 0)
(0.65971 0.00464988 0)
(0.954319 0.00788079 0)
(1.11984 0.0103442 0)
(1.15301 0.0141461 0)
(1.13607 0.0198556 0)
(1.11709 0.0263336 0)
(1.10125 0.0330554 0)
(1.08691 0.0394874 0)
(1.07364 0.0448499 0)
(1.06382 0.0478638 0)
(1.05979 0.0484462 0)
(1.06206 0.0477511 0)
(1.07106 0.0461973 0)
(1.0807 0.0446764 0)
(1.04988 0.0396615 0)
(0.889884 0.0287326 0)
(0.601399 0.0150323 0)
(0.296332 0.00459172 0)
(0.0514567 0.000311197 0)
(0.114141 0.000398794 0)
(0.674322 0.00674752 0)
(0.964354 0.0120163 0)
(1.12885 0.0160524 0)
(1.16298 0.0208406 0)
(1.14596 0.0275161 0)
(1.12592 0.0348793 0)
(1.10858 0.0423859 0)
(1.09233 0.049357 0)
(1.07676 0.0548338 0)
(1.0647 0.0574593 0)
(1.05898 0.0573665 0)
(1.06021 0.0560512 0)
(1.06873 0.0538331 0)
(1.07533 0.0515816 0)
(1.033 0.0448774 0)
(0.855811 0.0318826 0)
(0.563067 0.0164886 0)
(0.269335 0.00499217 0)
(0.0448538 0.000333635 0)
(0.122057 0.000553812 0)
(0.695295 0.00949043 0)
(0.979965 0.0171859 0)
(1.14138 0.0230582 0)
(1.17493 0.0290996 0)
(1.15736 0.0370367 0)
(1.13592 0.0454755 0)
(1.11666 0.0538813 0)
(1.09801 0.0613946 0)
(1.07968 0.0668784 0)
(1.06503 0.068933 0)
(1.05736 0.0679944 0)
(1.05745 0.0659111 0)
(1.06547 0.0629276 0)
(1.06814 0.0597718 0)
(1.01198 0.0510768 0)
(0.816603 0.0355611 0)
(0.52049 0.0181005 0)
(0.23984 0.00539597 0)
(0.0377647 0.000352274 0)
(0.132868 0.000778989 0)
(0.723936 0.0132619 0)
(1.00231 0.0238548 0)
(1.15821 0.031914 0)
(1.18946 0.0395385 0)
(1.17062 0.0490995 0)
(1.14726 0.0587993 0)
(1.12547 0.0681509 0)
(1.10381 0.0760957 0)
(1.08217 0.0813352 0)
(1.06459 0.082519 0)
(1.05482 0.0805195 0)
(1.05369 0.0775099 0)
(1.06099 0.0736233 0)
(1.05843 0.0694238 0)
(0.985835 0.0582711 0)
(0.771249 0.0396713 0)
(0.473041 0.0197561 0)
(0.207773 0.00575571 0)
(0.0302632 0.000363156 0)
(0.147827 0.00113258 0)
(0.762234 0.0186902 0)
(1.03304 0.0328046 0)
(1.1803 0.043545 0)
(1.20735 0.0532407 0)
(1.18606 0.0647614 0)
(1.15997 0.0758293 0)
(1.13485 0.0860109 0)
(1.10946 0.0940591 0)
(1.08398 0.0985786 0)
(1.06316 0.0984355 0)
(1.05117 0.0950785 0)
(1.04876 0.090985 0)
(1.05492 0.0862301 0)
(1.04558 0.0804642 0)
(0.953324 0.0663498 0)
(0.718737 0.0440021 0)
(0.420367 0.0212831 0)
(0.17337 0.00600704 0)
(0.02251 0.000361592 0)
(0.169099 0.00174496 0)
(0.813395 0.0269022 0)
(1.07471 0.0455619 0)
(1.2088 0.0597884 0)
(1.22926 0.0722965 0)
(1.20377 0.0856283 0)
(1.17379 0.0978757 0)
(1.14436 0.108394 0)
(1.11451 0.115873 0)
(1.08471 0.118948 0)
(1.06044 0.116874 0)
(1.04621 0.111779 0)
(1.04256 0.1064 0)
(1.04723 0.100697 0)
(1.02855 0.0929106 0)
(0.91295 0.0750163 0)
(0.658282 0.0482263 0)
(0.362698 0.0224517 0)
(0.137343 0.00607608 0)
(0.0147763 0.000342515 0)
(0.200008 0.00308842 0)
(0.883116 0.0404728 0)
(1.13099 0.0658963 0)
(1.2441 0.0842521 0)
(1.25486 0.0994441 0)
(1.2231 0.114059 0)
(1.18789 0.126561 0)
(1.15317 0.136279 0)
(1.11825 0.142062 0)
(1.08383 0.142677 0)
(1.05607 0.137909 0)
(1.03969 0.130643 0)
(1.03493 0.123716 0)
(1.03757 0.116861 0)
(1.00599 0.106505 0)
(0.862938 0.0837032 0)
(0.589829 0.0518177 0)
(0.301562 0.0230502 0)
(0.101278 0.00591457 0)
(0.00752329 0.000299046 0)
(0.242196 0.00923021 3.589e-20)
(0.975391 0.0672873 3.15371e-20)
(1.19953 0.100298 -1.11411e-20)
(1.28304 0.120672 0)
(1.2813 0.138319 -2.9646e-34)
(1.24189 0.152421 4.36634e-21)
(1.20067 0.16339 -8.05597e-21)
(1.16017 0.170889 0)
(1.11981 0.1739 1.69613e-34)
(1.08048 0.171246 -1.03521e-20)
(1.04902 0.163271 0)
(1.03034 0.153596 -1.24597e-20)
(1.02456 0.145209 -3.68623e-20)
(1.02459 0.137866 -1.74552e-20)
(0.974251 0.123838 -5.26887e-21)
(0.797776 0.0939386 -3.1341e-21)
(0.508103 0.0552247 0)
(0.235366 0.0234488 2.19284e-21)
(0.0653179 0.0058154 2.58886e-21)
(0.000752377 0.000241544 4.6635e-20)
(0.271451 0.0242509 2.36123e-20)
(1.05176 0.109628 5.35776e-22)
(1.25611 0.14931 2.8413e-21)
(1.31786 0.169644 0)
(1.30443 0.187563 -1.4642e-20)
(1.25789 0.199521 -1.68867e-20)
(1.21072 0.208175 -8.0317e-21)
(1.16438 0.213178 -2.92151e-20)
(1.11837 0.213402 0)
(1.07369 0.20756 4.40214e-20)
(1.03794 0.196431 4.39801e-20)
(1.01657 0.184322 1.31355e-20)
(1.00863 0.173964 4.82108e-20)
(1.00095 0.163854 6.8053e-20)
(0.925022 0.144135 0)
(0.71062 0.105292 9.60794e-20)
(0.412669 0.059004 1.3782e-19)
(0.166538 0.0234094 1.53057e-19)
(0.0297942 0.0045934 -1.74957e-19)
(-0.00600096 -0.000409141 -3.29047e-21)
(0.272883 0.0408854 0)
(1.10031 0.164436 3.46499e-21)
(1.29433 0.209271 0)
(1.34493 0.229324 -1.71945e-20)
(1.32251 0.244569 0)
(1.26999 0.252645 -3.24207e-20)
(1.21724 0.257561 1.62435e-20)
(1.16531 0.25897 -5.8117e-20)
(1.11388 0.255584 -1.58726e-21)
(1.06406 0.24594 2.26613e-20)
(1.02427 0.231247 9.70598e-20)
(1.00029 0.216471 -2.40313e-22)
(0.989967 0.203963 -3.51023e-20)
(0.974734 0.190681 -6.4253e-20)
(0.880678 0.164896 7.61075e-20)
(0.648974 0.116732 -1.34837e-19)
(0.358235 0.06267 -1.78204e-20)
(0.13216 0.0232026 0)
(0.0127944 0.00283237 -1.16853e-23)
(-0.00947154 -0.00127535 0)
(0.266487 0.0548987 2.77828e-20)
(1.12658 0.222908 -1.62423e-20)
(1.3179 0.273759 -1.59416e-20)
(1.36277 0.294326 7.6532e-21)
(1.33411 0.305925 -1.31269e-20)
(1.27711 0.309487 6.75485e-20)
(1.21973 0.309993 3.37136e-20)
(1.16295 0.307158 0)
(1.10668 0.299589 -1.11998e-19)
(1.05219 0.285674 0)
(1.00858 0.267135 -5.0817e-20)
(0.982023 0.249522 -6.3384e-20)
(0.969266 0.234693 -3.83085e-20)
(0.947989 0.217929 -4.67554e-20)
(0.844155 0.186097 0)
(0.609646 0.1298 0)
(0.330885 0.0689596 -1.16163e-19)
(0.117225 0.0245107 2.29666e-20)
(0.00490968 0.00129214 -1.34304e-20)
(-0.0115916 -0.00222717 -1.57058e-20)
(0.258901 0.0672438 2.16517e-21)
(1.13816 0.281326 0)
(1.33082 0.339266 2.56756e-20)
(1.37239 0.360811 1.99223e-20)
(1.33936 0.368752 3.15243e-20)
(1.27908 0.367815 0)
(1.2181 0.363799 3.22573e-20)
(1.15736 0.356528 6.39051e-20)
(1.09692 0.344543 5.69316e-20)
(1.0382 0.326166 1.07284e-19)
(0.991014 0.303598 0)
(0.961908 0.28295 -1.36879e-19)
(0.946796 0.265723 -8.28883e-20)
(0.921037 0.24559 -4.9126e-20)
(0.813524 0.208574 3.02171e-19)
(0.584744 0.145037 3.59655e-20)
(0.319124 0.077857 1.687e-19)
(0.114799 0.0274902 -7.99098e-19)
(0.00359959 0.000571917 4.72521e-19)
(-0.012487 -0.00306816 -5.69289e-19)
(0.25166 0.0783516 1.77587e-20)
(1.14044 0.337808 -8.99221e-22)
(1.33609 0.40395 -1.05754e-21)
(1.37547 0.426849 -1.47199e-20)
(1.33924 0.431319 -2.34096e-20)
(1.2765 0.426061 1.81174e-21)
(1.21267 0.417674 -3.50887e-20)
(1.14865 0.406062 6.56444e-20)
(1.08461 0.389679 -1.22726e-19)
(1.02215 0.366805 0)
(0.97165 0.340184 -6.17354e-20)
(0.94007 0.316503 -1.61485e-21)
(0.922615 0.29683 -9.09898e-20)
(0.893724 0.273674 0)
(0.786789 0.231881 -6.56102e-20)
(0.568134 0.162277 -1.55949e-19)
(0.316593 0.0890884 4.15261e-19)
(0.119129 0.032404 -4.09306e-19)
(0.00721822 0.00121026 5.81149e-19)
(-0.0120442 -0.00358026 -6.03834e-19)
(0.24558 0.0886273 -5.07263e-22)
(1.13696 0.391695 5.41263e-21)
(1.33586 0.466788 6.02686e-21)
(1.37343 0.491273 3.31752e-21)
(1.33482 0.492602 -1.13112e-20)
(1.27019 0.48329 0)
(1.20406 0.470778 -3.13505e-20)
(1.13729 0.455028 -6.84453e-20)
(1.07017 0.434403 -6.34707e-20)
(1.00433 0.407131 0)
(0.950784 0.376601 -6.38483e-20)
(0.916804 0.34992 -7.99653e-20)
(0.897143 0.327842 9.89536e-20)
(0.865986 0.30181 -6.03336e-20)
(0.761943 0.255555 -2.878e-19)
(0.55478 0.180973 1.71081e-19)
(0.317328 0.101778 5.07714e-20)
(0.126571 0.0390328 0)
(0.0136781 0.00329036 -5.64095e-19)
(-0.0106371 -0.00369497 -2.07122e-20)
(0.240788 0.0984024 5.8122e-21)
(1.13003 0.442833 -8.59906e-21)
(1.33162 0.527229 -4.59613e-21)
(1.36751 0.553391 1.56563e-20)
(1.32703 0.551944 -3.67917e-20)
(1.26097 0.538916 5.66486e-20)
(1.19298 0.522582 6.77367e-20)
(1.12387 0.502957 -1.09322e-19)
(1.05398 0.478316 4.02167e-20)
(0.985069 0.446841 -2.64372e-19)
(0.928677 0.412494 -7.27882e-20)
(0.892466 0.382882 0)
(0.870769 0.35848 1.07631e-19)
(0.837871 0.32977 1.29535e-19)
(0.737312 0.279437 1.55369e-19)
(0.541762 0.200348 -1.86573e-19)
(0.318168 0.115292 -5.52501e-20)
(0.13416 0.047033 6.48194e-20)
(0.0211349 0.00651133 0)
(-0.00869474 -0.00344254 -4.51268e-20)
(0.237171 0.107778 -8.51371e-20)
(1.12127 0.491291 4.84401e-20)
(1.32465 0.585216 6.65785e-21)
(1.3587 0.612841 5.84547e-21)
(1.31672 0.608938 -1.35008e-20)
(1.24955 0.592546 -4.10883e-21)
(1.18001 0.57275 -7.45989e-20)
(1.10887 0.549561 -3.97172e-20)
(1.03651 0.52116 -1.10681e-19)
(0.964766 0.485704 3.16983e-22)
(0.905695 0.447621 -2.2745e-19)
(0.8674 0.41515 1.94488e-19)
(0.843855 0.388509 -1.18793e-19)
(0.809461 0.357203 1.43426e-19)
(0.712081 0.303005 0)
(0.527437 0.219697 -1.01732e-19)
(0.316499 0.129136 1.45843e-22)
(0.140171 0.0556783 -2.84001e-19)
(0.0281269 0.010408 -4.16558e-20)
(-0.00658226 -0.00292129 0)
(0.234621 0.116981 0)
(1.11167 0.537281 5.54387e-20)
(1.31575 0.640826 2.58388e-20)
(1.3478 0.669448 -1.4719e-21)
(1.30454 0.663362 -2.10971e-20)
(1.23651 0.643963 0)
(1.1657 0.621063 -3.19603e-20)
(1.09277 0.594637 -1.07017e-21)
(1.01816 0.562777 2.37466e-19)
(0.943751 0.523558 -3.61239e-20)
(0.882107 0.481865 -1.64587e-19)
(0.841856 0.446622 1.00837e-19)
(0.816632 0.417805 -2.23673e-21)
(0.780823 0.383834 1.52609e-19)
(0.685748 0.325832 9.44941e-20)
(0.511313 0.238074 -2.20043e-19)
(0.311644 0.142527 2.60625e-19)
(0.143134 0.0640725 7.72219e-20)
(0.0333646 0.0143477 3.18111e-19)
(-0.00469265 -0.0022922 -8.49505e-19)
(0.233062 0.126136 -2.74535e-20)
(1.10187 0.580988 3.77579e-20)
(1.30549 0.693632 -2.61599e-20)
(1.33546 0.723157 -6.6438e-21)
(1.29107 0.715114 0)
(1.22237 0.693037 -2.16971e-20)
(1.15048 0.667386 1.09457e-19)
(1.07598 0.638062 8.62939e-20)
(0.999276 0.603052 0)
(0.922288 0.560313 -5.23558e-19)
(0.858145 0.51517 4.46282e-19)
(0.81604 0.477228 0)
(0.789216 0.446078 1.39352e-19)
(0.752066 0.40931 -2.2374e-21)
(0.658755 0.347176 -3.02686e-19)
(0.492933 0.254778 1.18382e-19)
(0.303667 0.154522 0)
(0.142479 0.0714169 4.17045e-19)
(0.0361768 0.017661 0)
(-0.00328912 -0.00173493 -4.0284e-19)
(0.232311 0.13529 3.26635e-20)
(1.09226 0.622587 4.84116e-20)
(1.29432 0.743673 -2.61908e-20)
(1.32216 0.773983 0)
(1.27678 0.764177 -1.17112e-20)
(1.20754 0.73973 0)
(1.13473 0.711646 -1.04625e-19)
(1.0588 0.679757 -3.85685e-20)
(0.980141 0.641928 4.12726e-20)
(0.900643 0.595938 -2.5917e-19)
(0.834006 0.547529 4.58851e-20)
(0.790064 0.506814 0)
(0.761729 0.473121 -2.97725e-19)
(0.723193 0.433303 2.19353e-21)
(0.630997 0.366679 0)
(0.472493 0.269266 1.31176e-21)
(0.292556 0.164335 3.82052e-19)
(0.138668 0.0768638 -3.60692e-19)
(0.0364827 0.0198329 1.0638e-19)
(-0.00248341 -0.00138207 0)
(0.23203 0.144343 0)
(1.08304 0.662176 5.80402e-20)
(1.28264 0.791044 3.73806e-20)
(1.3083 0.821992 -2.51608e-21)
(1.26201 0.810579 9.91826e-22)
(1.19235 0.784039 -4.81977e-20)
(1.11875 0.753823 4.0092e-20)
(1.04153 0.719684 -4.68378e-20)
(0.961021 0.679368 1.85959e-19)
(0.879025 0.63044 -4.14386e-19)
(0.809834 0.57892 -4.00081e-21)
(0.764007 0.53529 -1.29504e-19)
(0.734202 0.498861 4.83924e-19)
(0.694208 0.455638 -2.59345e-21)
(0.602638 0.384007 -2.35512e-19)
(0.450222 0.281178 -4.1963e-19)
(0.278708 0.171629 0)
(0.132031 0.0801795 0)
(0.0348364 0.0207081 1.14926e-19)
(-0.00219468 -0.00128808 -6.74365e-20)
(0.232322 0.153411 4.54948e-20)
(1.0744 0.699634 -1.3178e-19)
(1.27073 0.835833 -4.02098e-20)
(1.29418 0.867265 0)
(1.24707 0.854374 -1.55533e-21)
(1.17707 0.825991 -3.78754e-20)
(1.1028 0.793926 9.26953e-20)
(1.0244 0.757834 1.80256e-19)
(0.94212 0.715364 2.40385e-19)
(0.857634 0.663842 -3.3771e-19)
(0.785765 0.609351 -3.84398e-19)
(0.737918 0.562699 3.46526e-19)
(0.706631 0.523328 0)
(0.665024 0.476115 -1.07026e-19)
(0.57361 0.398831 -2.54891e-19)
(0.426049 0.290194 -3.01795e-19)
(0.262536 0.176065 -3.56728e-19)
(0.12293 0.0812194 1.05391e-19)
(0.0315999 0.0204191 -6.18676e-20)
(-0.00226624 -0.00139484 2.8856e-22)
(0.2329 0.162299 0)
(1.06639 0.735484 0)
(1.25876 0.878134 2.56936e-21)
(1.28001 0.909902 0)
(1.23217 0.895647 -1.79428e-20)
(1.16192 0.865646 2.03106e-20)
(1.08707 0.83198 0)
(1.00761 0.794218 2.06142e-20)
(0.923626 0.749916 3.99196e-19)
(0.836643 0.696162 -7.77145e-19)
(0.761922 0.638877 0)
(0.711842 0.589195 -2.23273e-19)
(0.67891 0.546535 -3.05361e-21)
(0.635516 0.49453 -2.37359e-21)
(0.544016 0.410847 2.72709e-19)
(0.400681 0.296075 -1.37469e-22)
(0.244506 0.177577 -7.68684e-19)
(0.111989 0.0800291 2.26765e-19)
(0.0271478 0.0190164 6.70194e-20)
(-0.00256886 -0.00165629 0)
(0.233585 0.171043 -1.8103e-19)
(1.05877 0.769685 -8.83759e-20)
(1.24683 0.918007 -1.1698e-19)
(1.26597 0.950006 1.1993e-19)
(1.21749 0.934471 -4.78417e-20)
(1.14706 0.903064 0)
(1.07173 0.868028 5.26444e-20)
(0.991287 0.82886 -4.65853e-20)
(0.905691 0.783042 3.93175e-21)
(0.81621 0.727427 5.75859e-20)
(0.738429 0.667595 4.97666e-19)
(0.685822 0.614972 -7.82096e-20)
(0.650916 0.568503 -2.98763e-19)
(0.605516 0.510698 -1.24901e-19)
(0.513847 0.419754 1.48221e-19)
(0.374629 0.298645 4.68294e-23)
(0.225231 0.176063 2.07078e-19)
(0.100032 0.0767481 -4.87976e-19)
(0.0222364 0.0167665 5.76769e-19)
(-0.00298224 -0.00202049 8.4087e-20)
(0.234089 0.179559 6.87484e-20)
(1.05155 0.802324 -4.9799e-20)
(1.23509 0.955568 6.33334e-21)
(1.2522 0.987676 7.61661e-20)
(1.20316 0.970953 1.70996e-20)
(1.13261 0.938317 -2.97052e-20)
(1.05688 0.902119 1.32821e-20)
(0.97557 0.861781 -1.92589e-19)
(0.888448 0.814743 -4.36678e-19)
(0.796466 0.757639 -4.61858e-19)
(0.715438 0.695623 0)
(0.659907 0.640196 -3.44687e-19)
(0.622527 0.589315 4.3127e-19)
(0.574764 0.524524 0)
(0.483041 0.425196 -3.17534e-19)
(0.348403 0.297494 1.89107e-19)
(0.205984 0.171384 -2.22666e-19)
(0.0883467 0.0717358 -2.62571e-19)
(0.0175377 0.0140543 -4.64533e-19)
(-0.00339688 -0.00241595 -3.62197e-19)
(0.234935 0.187941 -7.76266e-20)
(1.04458 0.833383 5.32784e-20)
(1.22358 0.990873 1.22238e-19)
(1.23878 1.02299 1.10778e-19)
(1.18929 1.00519 -3.24667e-20)
(1.11866 0.97149 -8.79323e-21)
(1.04263 0.934304 4.575e-20)
(0.960543 0.893021 -1.95166e-19)
(0.871981 0.84504 -2.57801e-19)
(0.777537 0.786816 4.8195e-19)
(0.693081 0.723061 1.09294e-18)
(0.634166 0.664994 0)
(0.593659 0.609159 0)
(0.542908 0.536087 -1.43894e-19)
(0.451236 0.426757 0)
(0.322192 0.291741 4.06529e-19)
(0.188095 0.162782 4.78742e-19)
(0.078928 0.0649885 0)
(0.0142757 0.0112683 0)
(-0.00370531 -0.00277063 3.89154e-19)
(0.23544 0.195857 8.82902e-20)
(1.03788 0.86285 7.15544e-20)
(1.21239 1.02404 8.88668e-20)
(1.22579 1.05609 -1.06359e-19)
(1.17592 1.03729 -4.21408e-20)
(1.10528 1.00266 -1.22468e-21)
(1.02903 0.964642 -6.09439e-20)
(0.94627 0.922609 -3.25261e-22)
(0.856375 0.873936 -5.1183e-21)
(0.759525 0.814959 -4.87558e-21)
(0.671508 0.749978 5.62821e-19)
(0.608704 0.689455 0)
(0.564308 0.628338 4.37586e-19)
(0.509551 0.545668 3.07191e-19)
(0.417669 0.424263 7.41891e-19)
(0.295482 0.280068 2.19088e-19)
(0.172937 0.147681 -2.57664e-19)
(0.0760821 0.0535959 -1.51286e-19)
(0.0179331 0.00720851 0)
(-0.00253452 -0.00276718 4.18144e-19)
(0.236282 0.20379 -1.99041e-19)
(1.03142 0.890873 0)
(1.20151 1.0551 1.04485e-19)
(1.21325 1.08704 -9.01725e-20)
(1.16312 1.06734 5.65641e-20)
(1.09251 1.03191 1.94631e-20)
(1.01613 0.993187 1.08305e-19)
(0.932792 0.950577 -1.67327e-20)
(0.841672 0.901441 0)
(0.742514 0.842043 -5.28825e-19)
(0.650863 0.776395 -1.22145e-18)
(0.583665 0.713673 5.07266e-20)
(0.534562 0.647191 6.04383e-19)
(0.474416 0.553764 0)
(0.381238 0.418283 5.01185e-19)
(0.265941 0.261457 0)
(0.158685 0.120278 0)
(0.0852577 0.0226742 -1.63625e-19)
(0.053155 -0.0120227 0)
(0.0268923 0.00642489 1.11989e-19)
(0.236685 0.211143 -2.22648e-19)
(1.02516 0.917643 0)
(1.19092 1.08427 1.73808e-19)
(1.20111 1.1161 0)
(1.15084 1.09562 -3.41569e-20)
(1.08028 1.05953 0)
(1.00387 1.02025 3.7019e-21)
(0.920014 0.977264 2.63003e-20)
(0.827754 0.92792 3.21909e-20)
(0.726335 0.868454 -5.77942e-19)
(0.630963 0.802753 3.63542e-20)
(0.558782 0.738279 4.0988e-19)
(0.503994 0.666508 5.89889e-19)
(0.436602 0.561062 7.9896e-20)
(0.340181 0.410498 3.93269e-19)
(0.228721 0.236984 0)
(0.133931 0.0767665 5.4352e-19)
(0.0742004 -0.0187714 -3.17143e-19)
(0.0325207 0.0572786 3.68067e-19)
(-0.0381767 0.454754 -4.3879e-19)
(0.237034 0.218331 1.84546e-19)
(1.01888 0.943047 2.8529e-19)
(1.18056 1.11187 0)
(1.18923 1.1437 5.17455e-21)
(1.13889 1.1227 1.00328e-19)
(1.06833 1.08621 -7.52203e-20)
(0.991921 1.04664 3.1541e-20)
(0.907524 1.00362 0)
(0.814086 0.954478 2.08729e-19)
(0.710308 0.895514 -2.96515e-20)
(0.610888 0.830555 0)
(0.532778 0.765014 0)
(0.470639 0.687768 5.28678e-19)
(0.393693 0.568033 -2.47471e-19)
(0.291477 0.402974 -3.98814e-19)
(0.179819 0.209918 0)
(0.0764329 0.0888697 2.74157e-19)
(0.00676156 0.464642 -3.16678e-19)
(0.0317836 1.92317 -1.76778e-19)
(0.0583354 2.82311 -2.23174e-19)
(0.237007 0.224951 -1.38619e-19)
(1.01263 0.967253 -3.66192e-19)
(1.17044 1.13789 1.03362e-19)
(1.17762 1.16972 8.71307e-20)
(1.12733 1.14839 0)
(1.05675 1.11167 -6.39127e-20)
(0.980504 1.07203 3.40031e-20)
(0.895514 1.0292 -1.21799e-20)
(0.80095 0.980596 3.12952e-20)
(0.694821 0.922617 5.47268e-19)
(0.591257 0.859105 6.14488e-19)
(0.506624 0.793667 4.58398e-19)
(0.435319 0.710908 5.32178e-19)
(0.347211 0.573667 -5.81729e-19)
(0.241598 0.399515 -6.0255e-19)
(0.118099 0.258787 0)
(0.0410456 0.876505 0)
(0.0889543 2.57815 1.51457e-19)
(0.0915118 3.21038 0)
(0.0927487 3.38899 3.65968e-19)
(0.239701 0.231096 0)
(1.00665 0.990626 0)
(1.16028 1.16219 0)
(1.16604 1.19401 2.61237e-20)
(1.11583 1.17246 9.22439e-20)
(1.04535 1.13577 -6.05016e-20)
(0.96954 1.09635 1.82246e-20)
(0.883918 1.0539 -1.15521e-20)
(0.788281 1.0061 2.54243e-19)
(0.679867 0.949604 -9.28989e-21)
(0.572153 0.888172 1.20945e-18)
(0.480703 0.824339 -5.31147e-20)
(0.397944 0.736428 6.43519e-20)
(0.299424 0.576152 8.43249e-20)
(0.181414 0.417529 -2.13797e-21)
(0.0941529 1.01091 1.71381e-21)
(0.126903 2.75888 -7.99542e-19)
(0.13171 3.30097 -2.99322e-19)
(0.121839 3.42433 1.54211e-19)
(0.110888 3.44424 -1.71175e-19)
(0.162752 0.176441 8.17581e-20)
(0.996863 1.01606 0)
(1.1499 1.18497 -2.07222e-19)
(1.15488 1.21695 -2.34877e-19)
(1.10485 1.19535 2.13798e-19)
(1.03479 1.15899 6.86081e-20)
(0.958881 1.11952 -1.37196e-20)
(0.872788 1.07772 1.1378e-19)
(0.776155 1.03108 -2.04731e-19)
(0.665657 0.97659 0)
(0.553851 0.917809 5.9117e-19)
(0.455572 0.856833 -3.72599e-19)
(0.35955 0.766974 0)
(0.243963 0.579858 7.87983e-20)
(0.134633 0.780201 1.90852e-19)
(0.14123 2.55985 -2.18738e-19)
(0.190072 3.32978 2.4585e-19)
(0.172229 3.43598 1.32765e-19)
(0.142576 3.45463 1.4931e-19)
(0.123059 3.46322 2.3885e-19)
(0.275109 0.269896 -1.56083e-19)
(0.980296 1.02705 0)
(1.13225 1.21138 2.25432e-19)
(1.14073 1.24869 2.57937e-19)
(1.08776 1.22917 -2.35587e-19)
(1.01713 1.19321 -9.30647e-20)
(0.940036 1.15529 -1.20327e-20)
(0.853397 1.11481 9.10016e-21)
(0.755372 1.07045 1.87929e-19)
(0.641999 1.02017 4.60207e-19)
(0.524805 0.967677 3.27845e-20)
(0.415253 0.912409 3.28475e-19)
(0.290712 0.806626 5.97858e-20)
(0.206844 0.953717 -7.70492e-20)
(0.212157 2.4333 -1.73182e-19)
(0.263176 3.33555 1.66649e-19)
(0.246229 3.46311 -1.85669e-19)
(0.211664 3.4814 -1.07782e-19)
(0.177856 3.50541 -9.22009e-20)
(0.132841 3.4994 -1.09115e-20)
(0.265547 0.268988 0)
(0.977938 1.05041 6.46421e-20)
(1.12396 1.23533 -4.63613e-20)
(1.1301 1.27256 -3.05375e-20)
(1.07695 1.25266 -1.62152e-19)
(1.00632 1.21689 9.52651e-20)
(0.928928 1.17922 1.6179e-20)
(0.842059 1.13961 7.68155e-21)
(0.74344 1.09678 -1.91543e-19)
(0.628656 1.04948 -1.41583e-20)
(0.508476 1.00182 -1.0546e-18)
(0.392995 0.949895 4.69791e-20)
(0.2773 0.880033 -5.61082e-20)
(0.241382 1.55576 -7.06203e-20)
(0.303032 3.14436 1.76892e-20)
(0.316859 3.46615 1.53129e-21)
(0.275101 3.51298 2.67928e-19)
(0.241024 3.53519 1.32822e-19)
(0.195323 3.55465 -3.65072e-20)
(0.145391 3.55037 -5.18527e-20)
(0.251639 0.267206 1.63672e-19)
(0.974702 1.0764 4.40144e-19)
(1.1153 1.26135 -1.33044e-19)
(1.11901 1.29796 -1.15586e-19)
(1.06568 1.27761 0)
(0.995142 1.24188 1.64491e-19)
(0.917721 1.2045 3.89456e-20)
(0.830874 1.1657 6.14741e-21)
(0.73197 1.12449 -2.15657e-20)
(0.6163 1.08043 -4.0293e-19)
(0.494011 1.03816 -4.80255e-19)
(0.374274 0.989386 -3.79504e-19)
(0.276131 1.02265 -4.21293e-19)
(0.305317 2.30972 4.33452e-19)
(0.382704 3.39409 3.59328e-19)
(0.355363 3.52372 0)
(0.307141 3.55918 0)
(0.270366 3.59206 -2.85517e-20)
(0.225817 3.63694 0)
(0.156525 3.62034 -3.82632e-20)
(0.241835 0.269307 -2.44873e-19)
(0.969522 1.1033 -3.73684e-19)
(1.10527 1.28864 0)
(1.10669 1.32421 6.22683e-21)
(1.05319 1.30323 -1.73434e-19)
(0.982912 1.26744 2.62681e-19)
(0.905777 1.23038 3.42517e-20)
(0.819176 1.19232 1.18053e-21)
(0.720242 1.1527 -1.23839e-19)
(0.604108 1.11187 1.92707e-20)
(0.480564 1.07514 0)
(0.356626 1.03274 0)
(0.300075 1.31001 -3.77834e-19)
(0.38258 2.97382 1.51056e-19)
(0.447231 3.49452 1.89281e-19)
(0.39438 3.55845 0)