/*--------------------------------*- C++ -*----------------------------------*\
  =========                 |
  \\      /  F ield         | OpenFOAM: The Open Source CFD Toolbox
   \\    /   O peration     | Website:  https://openfoam.org
    \\  /    A nd           | Version:  6
     \\/     M anipulation  |
\*---------------------------------------------------------------------------*/
FoamFile
{
    version     2.0;
    format      ascii;
    class       volScalarField;
    location    "107.2";
    object      p;
}
// * * * * * * * * * * * * * * * * * * * * * * * * * * * * * * * * * * * * * //

dimensions      [0 2 -2 0 0 0 0];

internalField   nonuniform List<scalar> 
8800
(
0.990626
0.941313
0.90335
0.875285
0.85513
0.840552
0.829967
0.822444
0.817583
0.815545
0.816951
0.821322
0.828139
0.837582
0.850331
0.86766
0.891544
0.924645
0.967585
1.0201
0.825113
0.831459
0.840612
0.844164
0.841561
0.83548
0.82855
0.822324
0.817544
0.814704
0.814508
0.817171
0.821841
0.82799
0.835105
0.842151
0.847038
0.84692
0.84025
0.831356
0.798612
0.80485
0.809354
0.813231
0.816187
0.817147
0.816073
0.813972
0.812019
0.811216
0.812288
0.814777
0.817692
0.819983
0.82052
0.818744
0.815387
0.811382
0.806605
0.80289
0.794287
0.797055
0.799666
0.801831
0.803578
0.805159
0.806279
0.806656
0.806574
0.806714
0.807566
0.80875
0.809525
0.8094
0.808445
0.807107
0.805449
0.803156
0.800751
0.799185
0.789198
0.790625
0.79247
0.79456
0.796284
0.797593
0.798711
0.79972
0.800567
0.801353
0.80212
0.80263
0.802694
0.802363
0.80172
0.800625
0.798985
0.797103
0.795756
0.794953
0.784165
0.785069
0.786322
0.78796
0.789668
0.79122
0.792529
0.793686
0.794797
0.795875
0.796729
0.797179
0.797239
0.796912
0.796141
0.794978
0.793638
0.792387
0.791573
0.791049
0.779202
0.779859
0.780827
0.782158
0.783624
0.785164
0.786681
0.788087
0.789406
0.790686
0.79172
0.79229
0.792371
0.791986
0.791246
0.790337
0.789372
0.788486
0.787915
0.787529
0.774305
0.77481
0.775605
0.776761
0.778084
0.779531
0.781079
0.782671
0.784253
0.7858
0.787059
0.787762
0.787921
0.787665
0.787154
0.786508
0.785806
0.785166
0.784748
0.784447
0.769417
0.769819
0.770488
0.771529
0.772786
0.774188
0.77574
0.777444
0.779259
0.781117
0.782661
0.783586
0.783962
0.783956
0.783703
0.783291
0.782806
0.782366
0.782061
0.781816
0.764453
0.764781
0.765365
0.766331
0.76755
0.76895
0.770552
0.772375
0.774413
0.776603
0.778518
0.779785
0.780481
0.780768
0.780775
0.780611
0.780336
0.780065
0.779845
0.779639
0.759323
0.759594
0.76012
0.761045
0.762258
0.763698
0.765393
0.767383
0.769684
0.772264
0.774643
0.77635
0.777432
0.778052
0.778347
0.778436
0.778376
0.778257
0.778107
0.777927
0.75393
0.754158
0.754647
0.755563
0.75681
0.758333
0.760168
0.762383
0.765024
0.768086
0.77103
0.773264
0.774797
0.775802
0.776423
0.776771
0.776941
0.776967
0.776874
0.776713
0.748175
0.748369
0.748841
0.749777
0.7511
0.752753
0.754786
0.757297
0.760369
0.764028
0.767657
0.770518
0.772583
0.774031
0.775025
0.775684
0.776083
0.776243
0.776198
0.776048
0.741948
0.742114
0.742587
0.743571
0.74501
0.746848
0.749146
0.752041
0.755651
0.760042
0.764499
0.768112
0.770806
0.772772
0.774196
0.7752
0.775852
0.776147
0.776144
0.776001
0.735117
0.73526
0.735748
0.73681
0.738412
0.740494
0.743139
0.746518
0.750794
0.756078
0.761534
0.766046
0.769489
0.772066
0.773981
0.775384
0.776322
0.776758
0.776793
0.776651
0.727529
0.72765
0.728166
0.729336
0.731152
0.733549
0.736635
0.740619
0.745716
0.752085
0.758744
0.764327
0.768655
0.771956
0.774459
0.776325
0.777583
0.778165
0.778234
0.77809
0.718984
0.719087
0.719638
0.720952
0.723044
0.725841
0.729478
0.734215
0.740322
0.748009
0.75611
0.762967
0.768338
0.772491
0.775702
0.778109
0.779727
0.780462
0.780562
0.780411
0.709193
0.709296
0.709916
0.711406
0.713855
0.717157
0.721484
0.727158
0.734506
0.743791
0.753615
0.761978
0.76858
0.773736
0.777776
0.78082
0.782844
0.783738
0.783863
0.783701
0.697862
0.697941
0.698651
0.700396
0.703289
0.70723
0.712427
0.719269
0.728149
0.739372
0.751247
0.761377
0.76942
0.775754
0.780749
0.78454
0.787012
0.788063
0.788205
0.788029
0.684553
0.68462
0.68544
0.687501
0.690962
0.695724
0.702031
0.710345
0.72112
0.734693
0.748998
0.761186
0.77089
0.778588
0.784697
0.78933
0.792278
0.793474
0.793622
0.793428
0.668658
0.668716
0.66969
0.672176
0.676385
0.682219
0.689963
0.700156
0.713294
0.729713
0.746878
0.761433
0.773023
0.782276
0.789641
0.795206
0.798637
0.799948
0.800084
0.799871
0.649326
0.649381
0.650582
0.653665
0.658895
0.666176
0.675829
0.688461
0.704569
0.724423
0.744909
0.762143
0.775849
0.786832
0.795572
0.802138
0.806009
0.807379
0.807483
0.80725
0.625304
0.625365
0.626922
0.630908
0.63761
0.646922
0.659196
0.675051
0.694901
0.718871
0.743154
0.763357
0.779376
0.792244
0.802455
0.810011
0.814212
0.815557
0.815606
0.815357
0.594629
0.594721
0.5969
0.602354
0.611368
0.623685
0.639673
0.659824
0.684357
0.713181
0.741718
0.765133
0.783614
0.798446
0.810193
0.818613
0.822948
0.824159
0.824134
0.823877
0.553975
0.554208
0.557676
0.565849
0.578785
0.595788
0.617093
0.642905
0.673167
0.707567
0.740754
0.767552
0.788563
0.8054
0.818614
0.827632
0.831813
0.832773
0.832665
0.832412
0.496994
0.498191
0.505147
0.519013
0.538822
0.563099
0.591787
0.624757
0.661747
0.702324
0.740435
0.770708
0.794229
0.812982
0.827461
0.836654
0.84033
0.840961
0.840784
0.840547
0.414485
0.422601
0.438666
0.462999
0.493104
0.527123
0.564791
0.605934
0.650323
0.697558
0.740915
0.774916
0.801161
0.821933
0.83731
0.846201
0.849155
0.849464
0.849253
0.849062
0.326346
0.34422
0.370336
0.405922
0.446891
0.490759
0.537365
0.586723
0.638714
0.693049
0.742298
0.780652
0.810167
0.833119
0.849099
0.856913
0.858845
0.858885
0.858714
0.858599
0.250563
0.272445
0.306949
0.352156
0.402731
0.455878
0.511174
0.568572
0.627931
0.688976
0.74363
0.785857
0.818188
0.84283
0.858705
0.865187
0.866385
0.866339
0.866213
0.866134
0.188113
0.212445
0.252712
0.304818
0.362882
0.423743
0.486665
0.551385
0.617566
0.684829
0.744435
0.790153
0.824893
0.850732
0.866279
0.871832
0.872673
0.872603
0.872501
0.872437
0.136073
0.161904
0.206347
0.263796
0.32782
0.394979
0.464335
0.535444
0.607744
0.680676
0.744808
0.7937
0.830614
0.857473
0.87265
0.87748
0.878103
0.878019
0.877931
0.877871
0.0918598
0.118575
0.166105
0.227866
0.29687
0.369365
0.444243
0.520938
0.598696
0.676764
0.745022
0.796786
0.835652
0.863349
0.87811
0.882401
0.882888
0.88279
0.882706
0.882647
0.0533908
0.0806799
0.130608
0.195938
0.269185
0.346321
0.426079
0.507779
0.59049
0.673248
0.745262
0.7996
0.840136
0.868461
0.882813
0.886708
0.887101
0.886986
0.886897
0.886835
0.0191529
0.0468719
0.0987626
0.167129
0.244058
0.325277
0.409424
0.495704
0.583008
0.670138
0.745591
0.802196
0.844121
0.872857
0.886811
0.890413
0.890745
0.890616
0.890522
0.890452
-0.0119152
0.0161746
0.0697182
0.14074
0.220919
0.305776
0.393904
0.48442
0.576063
0.667354
0.746036
0.804657
0.847697
0.876627
0.890147
0.893521
0.893826
0.893704
0.893611
0.893531
-0.0406649
-0.012202
0.0428163
0.116236
0.199313
0.287445
0.379212
0.473684
0.569469
0.664813
0.746631
0.807103
0.85101
0.879902
0.892928
0.896109
0.896422
0.896341
0.896267
0.896181
-0.067532
-0.0387427
0.0176167
0.0931894
0.17888
0.269989
0.365107
0.463293
0.563074
0.662459
0.747434
0.80968
0.854262
0.8829
0.89536
0.898356
0.898708
0.898703
0.898671
0.898583
-0.0930486
-0.0638572
-0.00626167
0.0712812
0.159345
0.253169
0.351396
0.453084
0.556743
0.660218
0.748506
0.812563
0.857685
0.88589
0.897712
0.900517
0.900919
0.901016
0.901045
0.900964
-0.117395
-0.0878052
-0.0290531
0.0502855
0.140502
0.236813
0.337921
0.442921
0.550348
0.658008
0.749885
0.81593
0.861537
0.889146
0.900254
0.902846
0.903296
0.903496
0.903592
0.903525
-0.14077
-0.11077
-0.0509411
0.0300461
0.122219
0.2208
0.324569
0.432684
0.543773
0.655708
0.751552
0.819935
0.866064
0.892902
0.903188
0.905524
0.906011
0.906297
0.906451
0.906399
-0.16332
-0.132865
-0.0720331
0.0104662
0.104395
0.205044
0.311261
0.422293
0.536907
0.653178
0.753416
0.824691
0.871537
0.897416
0.906614
0.908606
0.909133
0.909482
0.90966
0.909616
-0.185162
-0.154214
-0.0923832
-0.00851565
0.0869881
0.189494
0.29795
0.411683
0.529658
0.650265
0.755322
0.830231
0.878262
0.902988
0.910611
0.911969
0.912541
0.913003
0.913204
0.913141
-0.206213
-0.1748
-0.112022
-0.0269459
0.0699645
0.17414
0.284609
0.400827
0.521962
0.646842
0.75706
0.836467
0.886514
0.910154
0.915503
0.9155
0.915916
0.916758
0.917241
0.917164
-0.226495
-0.194647
-0.130987
-0.0448359
0.053323
0.15898
0.271252
0.389707
0.513781
0.642781
0.758403
0.843187
0.896447
0.919651
0.922261
0.91975
0.919284
0.920834
0.922421
0.922685
-0.246102
-0.213756
-0.149302
-0.0621952
0.0370799
0.144041
0.257904
0.378345
0.505094
0.63799
0.759089
0.850071
0.907969
0.932103
0.932451
0.926741
0.924315
0.926531
0.930301
0.932078
-0.264923
-0.232135
-0.166945
-0.0789934
0.0212533
0.129365
0.244611
0.366782
0.495922
0.632418
0.758877
0.856684
0.920682
0.94756
0.947236
0.938929
0.933679
0.934197
0.93845
0.940911
-0.283063
-0.249823
-0.183944
-0.0952858
0.00578567
0.11489
0.231298
0.354936
0.48616
0.625944
0.757522
0.862636
0.934186
0.965665
0.966695
0.957353
0.948688
0.9418
0.934539
0.938661
-0.300479
-0.266888
-0.200449
-0.111274
-0.0096202
0.100296
0.217568
0.342354
0.475319
0.618022
0.754495
0.867351
0.948374
0.986454
0.990383
0.98147
0.967965
0.952445
0.92912
0.933461
-0.317066
-0.283337
-0.216322
-0.126785
-0.0247231
0.0858583
0.203585
0.329301
0.463594
0.608717
0.749478
0.86952
0.961462
1.00787
1.01398
1.0038
0.985767
0.952702
0.897762
0.87557
-0.332737
-0.30022
-0.231161
-0.141389
-0.038719
0.072063
0.189624
0.316041
0.451244
0.59814
0.74233
0.868135
0.971225
1.02741
1.03046
1.01418
0.982744
0.92258
0.860488
0.823264
-0.374511
-0.316919
-0.244675
-0.156073
-0.0523884
0.057892
0.17583
0.302427
0.43801
0.585832
0.732364
0.861989
0.97377
1.03829
1.03682
0.99775
0.930032
0.853959
0.782096
0.742371
-0.347412
-0.328342
-0.265168
-0.175928
-0.0736492
0.0365611
0.154053
0.280466
0.41596
0.563908
0.711451
0.842973
0.950301
1.02227
0.984635
0.851049
0.74598
0.673038
0.603595
0.622737
-0.37706
-0.344834
-0.280766
-0.191921
-0.0899789
0.0201784
0.138049
0.264087
0.399025
0.546047
0.692174
0.821154
0.916845
0.957975
0.881992
0.721141
0.598055
0.515042
0.427608
0.464445
-0.399614
-0.365104
-0.299331
-0.210417
-0.108496
0.00174099
0.11965
0.245122
0.379049
0.524237
0.667171
0.790268
0.873825
0.87597
0.745389
0.573672
0.432538
0.330608
0.230542
0.253546
-0.421331
-0.385872
-0.318809
-0.229268
-0.127252
-0.0170704
0.100422
0.225093
0.357671
0.500364
0.638602
0.751901
0.817246
0.784908
0.604834
0.414948
0.24599
0.10548
-0.0235401
-0.0201972
-0.442616
-0.406873
-0.338988
-0.248904
-0.14676
-0.0367695
0.0801142
0.203764
0.334582
0.474123
0.606243
0.708943
0.752368
0.667269
0.465751
0.258387
0.0655205
-0.0926287
-0.298599
-0.37953
-0.464162
-0.428588
-0.360275
-0.269842
-0.167578
-0.0577779
0.0585126
0.181025
0.309826
0.445694
0.570698
0.663543
0.677183
0.541209
0.337753
0.120782
-0.0758605
-0.238854
-0.361451
-0.473399
-0.487024
-0.45149
-0.383019
-0.292468
-0.190244
-0.08077
0.034783
0.155907
0.282216
0.413605
0.530713
0.609317
0.593333
0.421098
0.21733
0.00701029
-0.172713
-0.271256
-0.296998
-0.309933
-0.511354
-0.475876
-0.407348
-0.316865
-0.214903
-0.105973
0.00853856
0.127874
0.251104
0.377033
0.485222
0.544324
0.506141
0.305477
0.104265
-0.0854598
-0.221465
-0.259893
-0.268172
-0.268532
-0.537444
-0.501878
-0.433305
-0.343022
-0.241507
-0.133405
-0.0202637
0.0968449
0.216383
0.335956
0.434438
0.475307
0.399925
0.19905
0.00487397
-0.160009
-0.236209
-0.250248
-0.251215
-0.251087
-0.5653
-0.529532
-0.460918
-0.370948
-0.270086
-0.163074
-0.0516545
0.0627763
0.178048
0.290479
0.37821
0.401281
0.287093
0.101963
-0.080951
-0.211522
-0.240616
-0.241193
-0.241699
-0.241292
-0.594676
-0.558687
-0.490102
-0.400576
-0.300571
-0.194947
-0.0856313
0.02567
0.136148
0.240727
0.317566
0.319797
0.187708
0.0136592
-0.14783
-0.223331
-0.23799
-0.235895
-0.235567
-0.235162
-0.625027
-0.588998
-0.520602
-0.431688
-0.33279
-0.228882
-0.122061
-0.0143679
0.090916
0.187247
0.252743
0.238123
0.0971766
-0.0633404
-0.192533
-0.231724
-0.231044
-0.231434
-0.231162
-0.230837
-0.65591
-0.619944
-0.551941
-0.463878
-0.366402
-0.264568
-0.160666
-0.0570616
0.0426625
0.131043
0.182846
0.161414
0.0165981
-0.123669
-0.218305
-0.226734
-0.228205
-0.228524
-0.228435
-0.228243
-0.686346
-0.650667
-0.583407
-0.496526
-0.400862
-0.30153
-0.200982
-0.101909
-0.00817187
0.0730067
0.11343
0.0844686
-0.051469
-0.165643
-0.222875
-0.232984
-0.227632
-0.226597
-0.226229
-0.226058
-0.714731
-0.679907
-0.613976
-0.528755
-0.435401
-0.339062
-0.242331
-0.148152
-0.0607756
0.0136236
0.0491991
0.00613417
-0.106267
-0.19759
-0.220668
-0.224129
-0.224871
-0.224403
-0.224206
-0.224082
-0.739796
-0.706177
-0.642269
-0.559375
-0.468961
-0.376221
-0.283824
-0.19485
-0.113865
-0.04654
-0.0132942
-0.0610033
-0.147608
-0.21613
-0.237219
-0.22759
-0.224162
-0.223079
-0.222766
-0.222612
-0.758961
-0.7274
-0.666549
-0.586884
-0.500239
-0.411823
-0.324343
-0.240916
-0.166115
-0.105656
-0.0752532
-0.113462
-0.175017
-0.219642
-0.225131
-0.22464
-0.223093
-0.222496
-0.222277
-0.222103
-0.770246
-0.741524
-0.684779
-0.609562
-0.52772
-0.444488
-0.362565
-0.285081
-0.216407
-0.161099
-0.131853
-0.157225
-0.191442
-0.217861
-0.217677
-0.221193
-0.222657
-0.22278
-0.222725
-0.222632
-0.771001
-0.746217
-0.694904
-0.625591
-0.549791
-0.472757
-0.39707
-0.325852
-0.263505
-0.212199
-0.179112
-0.196574
-0.20511
-0.219988
-0.222431
-0.22283
-0.223491
-0.223741
-0.223828
-0.223833
-0.758851
-0.738827
-0.69481
-0.633259
-0.565005
-0.495268
-0.426533
-0.36172
-0.305622
-0.260129
-0.214741
-0.232905
-0.21938
-0.226957
-0.228588
-0.226732
-0.226149
-0.226397
-0.226659
-0.226692
-0.73181
-0.71722
-0.68273
-0.631386
-0.572334
-0.511049
-0.449931
-0.391606
-0.340977
-0.303056
-0.25502
-0.249223
-0.239912
-0.242068
-0.236249
-0.234569
-0.233127
-0.233253
-0.233587
-0.233631
-0.693359
-0.684075
-0.659958
-0.620304
-0.571844
-0.51986
-0.46671
-0.414916
-0.369065
-0.336662
-0.305093
-0.277495
-0.250945
-0.25583
-0.261625
-0.253412
-0.247828
-0.246533
-0.246851
-0.246847
-0.650515
-0.645217
-0.63139
-0.603123
-0.565643
-0.522567
-0.476999
-0.431287
-0.389316
-0.358207
-0.330131
-0.303078
-0.270475
-0.24737
-0.228478
-0.234413
-0.256006
-0.268841
-0.272536
-0.272747
-0.612947
-0.609702
-0.603081
-0.585105
-0.556563
-0.521
-0.481786
-0.440716
-0.400725
-0.367962
-0.342022
-0.324284
-0.312581
-0.319483
-0.34215
-0.375106
-0.380412
-0.35125
-0.335222
-0.337479
-0.585881
-0.583957
-0.58061
-0.569982
-0.548223
-0.518215
-0.483044
-0.444155
-0.403962
-0.36756
-0.339641
-0.332057
-0.365968
-0.431821
-0.505057
-0.549463
-0.557117
-0.522648
-0.475352
-0.459434
-0.566043
-0.565366
-0.564245
-0.558994
-0.543089
-0.516708
-0.482747
-0.443603
-0.400543
-0.357386
-0.326609
-0.301428
-0.295552
-0.323042
-0.378681
-0.392552
-0.384252
-0.361965
-0.331436
-0.315212
-0.554437
-0.554216
-0.553609
-0.551213
-0.540431
-0.516205
-0.481888
-0.440619
-0.392899
-0.340106
-0.295828
-0.234416
-0.16169
-0.103422
-0.0814663
-0.0690524
-0.0334631
0.00665282
0.0423071
0.0598869
-0.546397
-0.546253
-0.545851
-0.545182
-0.538618
-0.516838
-0.481507
-0.436752
-0.383269
-0.318772
-0.252453
-0.16747
-0.0298472
0.139379
0.298332
0.427113
0.519825
0.581877
0.620175
0.635974
-0.541139
-0.541095
-0.540976
-0.540814
-0.536931
-0.518641
-0.482345
-0.433282
-0.373864
-0.298711
-0.213699
-0.118011
0.0667154
0.329502
0.607889
0.854557
1.02811
1.12076
1.15569
1.16572
-0.536876
-0.536867
-0.536787
-0.53667
-0.535269
-0.520908
-0.484526
-0.431749
-0.366688
-0.284126
-0.187797
-0.0841665
0.1122
0.403362
0.721338
1.0125
1.23143
1.34713
1.3873
1.39745
-0.53332
-0.533318
-0.533196
-0.532929
-0.532713
-0.52277
-0.488048
-0.433179
-0.363968
-0.277544
-0.17655
-0.0719089
0.107537
0.383216
0.684601
0.961898
1.17546
1.29394
1.34034
1.35313
-0.530684
-0.530714
-0.530721
-0.530736
-0.531165
-0.524221
-0.492799
-0.437355
-0.366453
-0.279555
-0.180494
-0.0828513
0.066573
0.311819
0.57171
0.804359
0.990399
1.10159
1.14715
1.15904
-0.527934
-0.528078
-0.528422
-0.52905
-0.529576
-0.525855
-0.497813
-0.443888
-0.373807
-0.289309
-0.197277
-0.110828
0.0025129
0.20636
0.424283
0.608341
0.756345
0.847157
0.883912
0.892711
-0.524937
-0.525132
-0.525401
-0.525735
-0.52611
-0.524679
-0.501412
-0.451399
-0.38506
-0.305615
-0.221437
-0.147072
-0.0625449
0.0961139
0.268404
0.408494
0.518799
0.586594
0.612241
0.617305
-0.522902
-0.522986
-0.522809
-0.522101
-0.521248
-0.520232
-0.502805
-0.459478
-0.399168
-0.324856
-0.249839
-0.18634
-0.125061
-0.00480521
0.125722
0.22808
0.305153
0.351386
0.368509
0.370874
-0.523472
-0.523328
-0.522535
-0.520378
-0.517051
-0.5151
-0.504432
-0.469201
-0.414074
-0.345391
-0.279294
-0.225383
-0.178428
-0.0920542
0.00393519
0.0764676
0.12934
0.158652
0.168504
0.1697
-0.528186
-0.528021
-0.527364
-0.525656
-0.522525
-0.520131
-0.513632
-0.482852
-0.428604
-0.365182
-0.308244
-0.260964
-0.222275
-0.15808
-0.090505
-0.0424325
-0.00924622
0.00881374
0.0145301
0.0154259
-0.535293
-0.53568
-0.537098
-0.540949
-0.546537
-0.548585
-0.538971
-0.500797
-0.442334
-0.385327
-0.335955
-0.292191
-0.262111
-0.21445
-0.162948
-0.128557
-0.106969
-0.0956865
-0.0916985
-0.0912527
-0.538895
-0.54004
-0.544318
-0.556657
-0.575981
-0.584234
-0.567367
-0.514267
-0.454841
-0.405524
-0.358008
-0.31885
-0.293648
-0.256681
-0.216555
-0.189015
-0.170551
-0.160757
-0.157276
-0.157025
-0.537576
-0.538611
-0.542557
-0.553473
-0.57387
-0.587519
-0.561562
-0.510849
-0.464139
-0.420942
-0.374638
-0.339995
-0.321044
-0.287302
-0.250461
-0.225303
-0.207518
-0.197237
-0.193956
-0.194118
-0.539574
-0.540101
-0.540861
-0.534358
-0.514985
-0.501035
-0.501095
-0.486715
-0.465888
-0.427486
-0.384343
-0.356038
-0.34022
-0.30974
-0.274902
-0.249087
-0.229842
-0.218944
-0.215732
-0.216194
-0.548752
-0.548526
-0.545457
-0.52136
-0.467539
-0.426502
-0.439815
-0.465988
-0.464092
-0.428595
-0.389143
-0.366129
-0.351122
-0.320245
-0.28758
-0.263029
-0.244322
-0.233862
-0.230681
-0.231267
-0.567936
-0.565641
-0.561417
-0.54318
-0.504101
-0.468421
-0.474003
-0.497375
-0.481551
-0.432245
-0.391133
-0.369184
-0.352699
-0.321604
-0.290098
-0.267215
-0.250816
-0.242357
-0.239646
-0.240193
-0.626354
-0.626522
-0.643246
-0.667895
-0.674558
-0.651451
-0.621791
-0.578158
-0.511211
-0.435996
-0.390511
-0.363869
-0.341305
-0.312468
-0.28472
-0.263838
-0.249421
-0.24194
-0.239453
-0.239898
-0.734244
-0.745212
-0.779234
-0.817945
-0.831907
-0.811017
-0.756849
-0.659334
-0.535388
-0.436174
-0.383414
-0.34624
-0.320616
-0.292707
-0.266202
-0.247315
-0.235175
-0.228865
-0.226651
-0.22699
-0.811681
-0.825547
-0.854243
-0.881229
-0.892906
-0.872792
-0.806057
-0.67296
-0.526568
-0.42262
-0.358287
-0.315421
-0.291777
-0.263967
-0.237664
-0.21926
-0.206956
-0.200574
-0.198496
-0.198963
-0.795056
-0.804448
-0.823795
-0.844277
-0.855393
-0.838684
-0.768155
-0.617833
-0.477726
-0.380617
-0.310634
-0.274181
-0.253092
-0.224923
-0.199237
-0.18064
-0.16784
-0.160856
-0.158968
-0.159623
-0.680696
-0.689233
-0.705656
-0.724656
-0.737106
-0.722593
-0.651323
-0.517345
-0.401534
-0.308401
-0.247624
-0.222218
-0.203616
-0.177134
-0.153386
-0.135517
-0.122187
-0.115156
-0.113758
-0.114664
-0.493814
-0.504366
-0.523562
-0.546541
-0.562237
-0.546443
-0.474742
-0.376572
-0.290483
-0.216959
-0.178975
-0.159714
-0.14556
-0.125174
-0.105453
-0.0892067
-0.0768276
-0.070765
-0.0702584
-0.0713841
-0.249054
-0.260796
-0.285351
-0.315359
-0.331898
-0.31529
-0.263988
-0.205671
-0.15404
-0.119998
-0.102121
-0.0888538
-0.0846611
-0.0706426
-0.0575111
-0.0466295
-0.0376142
-0.0336741
-0.034123
-0.0352944
0.0111263
-0.007219
-0.0423044
-0.0632579
-0.0695762
-0.0676115
-0.0599828
-0.0477346
-0.0356182
-0.0279771
-0.0237435
-0.0183427
-0.0177218
-0.0162633
-0.0121614
-0.0124858
-0.0119166
-0.0117673
-0.00981345
-0.00893165
0.102361
0.284253
0.449984
0.589131
0.698246
0.782094
0.850536
0.90597
0.919024
0.916462
0.376501
0.492137
0.600075
0.692478
0.769186
0.831694
0.880631
0.913682
0.931489
0.948625
0.561705
0.638226
0.71375
0.7796
0.835302
0.88133
0.91769
0.945708
0.966859
0.986191
0.699071
0.753613
0.808322
0.857295
0.899495
0.935458
0.965791
0.991347
1.01108
1.02999
0.810915
0.852111
0.892843
0.931058
0.965283
0.99564
1.02227
1.04497
1.06266
1.08076
0.904566
0.938955
0.972745
1.0052
1.0352
1.06245
1.08661
1.107
1.12252
1.14001
0.990691
1.02185
1.05324
1.08364
1.11198
1.1378
1.16048
1.17912
1.19283
1.20983
1.07624
1.10835
1.14024
1.17099
1.19937
1.22482
1.24666
1.26398
1.2762
1.2927
1.1698
1.20604
1.24053
1.2727
1.3016
1.32671
1.34763
1.36377
1.37526
1.39137
1.28249
1.32319
1.35998
1.39262
1.42088
1.4447
1.46419
1.47936
1.49117
1.50721
1.42387
1.46467
1.49979
1.52918
1.55424
1.57575
1.59417
1.6096
1.62266
1.63858
1.59508
1.62698
1.65391
1.67624
1.69628
1.71494
1.73264
1.74938
1.76426
1.77996
1.78108
1.79825
1.81532
1.83198
1.84806
1.86277
1.87666
1.89111
1.90633
1.92363
1.96444
1.97433
1.98749
1.99846
2.00786
2.01751
2.0281
2.03825
2.04753
2.0732
2.18221
2.1765
2.16355
2.14929
2.14298
2.14867
2.16681
2.19533
2.22909
2.26542
2.48504
2.34909
2.26956
2.22699
2.20966
2.21366
2.24107
2.29893
2.40658
2.58499
0.894318
0.888016
0.88029
0.869181
0.855618
0.842981
0.832602
0.824617
0.818937
0.815659
0.815376
0.818275
0.82356
0.830957
0.840535
0.852386
0.865962
0.878901
0.887897
0.895441
0.803368
0.809289
0.817366
0.823506
0.826584
0.826086
0.823019
0.819053
0.815505
0.813278
0.813216
0.815542
0.819354
0.823842
0.827975
0.830244
0.829187
0.824562
0.817515
0.809685
0.796587
0.79896
0.802233
0.805015
0.807478
0.809683
0.810886
0.810772
0.80988
0.809137
0.809433
0.81093
0.812777
0.814056
0.814018
0.812579
0.810441
0.808095
0.805123
0.80211
0.791755
0.792844
0.794767
0.797116
0.799002
0.800421
0.801666
0.802697
0.80335
0.803802
0.804452
0.80529
0.805834
0.805775
0.805192
0.804303
0.802997
0.801047
0.798952
0.797479
0.786674
0.787308
0.788443
0.790215
0.792077
0.793694
0.794978
0.796087
0.797132
0.798118
0.799017
0.79965
0.79988
0.799744
0.799262
0.79833
0.796934
0.795348
0.794026
0.793228
0.781677
0.782115
0.782911
0.784231
0.785775
0.787369
0.788886
0.790237
0.791466
0.792658
0.793745
0.794483
0.794772
0.794624
0.794027
0.79308
0.791967
0.790853
0.789968
0.789438
0.776751
0.777078
0.777697
0.778786
0.780109
0.781545
0.783071
0.784611
0.786092
0.787518
0.788826
0.789736
0.790098
0.78996
0.789447
0.78873
0.787935
0.787117
0.786477
0.786089
0.771869
0.772121
0.772623
0.773556
0.774762
0.776114
0.777594
0.779199
0.780885
0.782595
0.784185
0.785303
0.785811
0.785846
0.785569
0.785106
0.784536
0.783956
0.7835
0.783204
0.766954
0.767155
0.767574
0.768401
0.769535
0.770849
0.772327
0.773993
0.775841
0.777828
0.779752
0.781177
0.781961
0.782271
0.782262
0.782046
0.7817
0.781323
0.781011
0.78078
0.761919
0.76208
0.762441
0.763199
0.764295
0.765601
0.767123
0.768892
0.770926
0.773207
0.775529
0.77737
0.778528
0.779172
0.779452
0.779495
0.779384
0.779196
0.779004
0.778819
0.75667
0.756799
0.757119
0.757837
0.758924
0.760268
0.761875
0.763797
0.766074
0.768718
0.771525
0.773878
0.775487
0.776516
0.777128
0.777453
0.777578
0.777578
0.777491
0.777342
0.75111
0.751213
0.751506
0.752209
0.753325
0.75475
0.756489
0.758621
0.761216
0.764316
0.767718
0.770687
0.772827
0.774306
0.775295
0.77593
0.776323
0.776509
0.776512
0.776389
0.745134
0.745214
0.745493
0.746206
0.747386
0.748936
0.750864
0.753276
0.756277
0.759945
0.764073
0.767782
0.770554
0.772558
0.773983
0.774992
0.775665
0.776036
0.776123
0.776022
0.738622
0.738682
0.738955
0.739702
0.740982
0.742706
0.744889
0.747665
0.751176
0.755544
0.760553
0.765153
0.768678
0.771305
0.773233
0.774657
0.775655
0.77623
0.776398
0.776312
0.731434
0.731471
0.731748
0.732552
0.733972
0.735924
0.738438
0.741675
0.745822
0.751047
0.757123
0.762791
0.767212
0.770575
0.773103
0.775006
0.776377
0.777174
0.777422
0.777347
0.723397
0.723415
0.723696
0.724578
0.726181
0.728428
0.731361
0.735177
0.740111
0.746384
0.753749
0.760694
0.766176
0.770407
0.773646
0.776128
0.777923
0.77896
0.779287
0.779219
0.714252
0.714259
0.714568
0.715555
0.717397
0.720017
0.723478
0.728016
0.733922
0.741476
0.750394
0.758858
0.765597
0.770849
0.774926
0.778097
0.780382
0.781682
0.782086
0.78202
0.703738
0.703719
0.704067
0.705205
0.707347
0.710441
0.714566
0.720006
0.727117
0.736236
0.747022
0.757285
0.765501
0.771958
0.777023
0.780989
0.78384
0.785422
0.785898
0.78583
0.691467
0.691428
0.691828
0.693156
0.695679
0.69938
0.70435
0.710927
0.719538
0.730573
0.743601
0.755981
0.76592
0.773775
0.779997
0.784878
0.788368
0.79024
0.790778
0.7907
0.676926
0.676864
0.677345
0.678927
0.681942
0.686429
0.692487
0.700517
0.711011
0.724398
0.740108
0.754964
0.766877
0.776332
0.783896
0.789815
0.793997
0.796152
0.796732
0.796637
0.659392
0.659308
0.659919
0.661859
0.665531
0.671063
0.678556
0.688473
0.70136
0.717645
0.736541
0.754254
0.768407
0.779671
0.788716
0.795799
0.800707
0.803106
0.803695
0.803576
0.63783
0.637729
0.638551
0.641014
0.645612
0.652593
0.662043
0.674475
0.690439
0.710291
0.732936
0.753889
0.770538
0.783793
0.79446
0.802794
0.808394
0.810954
0.811508
0.811357
0.610664
0.610565
0.611743
0.615017
0.621034
0.630133
0.642369
0.658232
0.678177
0.702392
0.729384
0.753937
0.773293
0.78869
0.801083
0.810687
0.816853
0.819436
0.819901
0.819714
0.575341
0.5753
0.577125
0.58181
0.590211
0.602664
0.619019
0.639611
0.664663
0.694117
0.726039
0.754496
0.776709
0.794338
0.808498
0.819278
0.825759
0.828178
0.8285
0.828282
0.527327
0.527525
0.530789
0.538458
0.551321
0.569313
0.591813
0.618809
0.650219
0.685765
0.723113
0.755702
0.780837
0.800685
0.816572
0.828285
0.834679
0.836713
0.836861
0.836627
0.458119
0.459636
0.467617
0.482198
0.503332
0.530175
0.56136
0.596511
0.635418
0.677738
0.720837
0.757649
0.785707
0.807659
0.825018
0.837205
0.843038
0.844506
0.844498
0.844279
0.375399
0.378324
0.393906
0.419181
0.451684
0.488942
0.529488
0.573186
0.619951
0.669539
0.719066
0.760869
0.792571
0.817201
0.836018
0.848056
0.853032
0.85401
0.853952
0.853823
0.290471
0.298085
0.321545
0.357492
0.400949
0.448412
0.498307
0.550572
0.605194
0.66199
0.717871
0.764568
0.79977
0.827025
0.847149
0.858496
0.862098
0.862524
0.862436
0.862362
0.220717
0.230544
0.258977
0.302472
0.354491
0.410557
0.468847
0.529105
0.591169
0.654763
0.716529
0.767652
0.80595
0.83525
0.855956
0.866402
0.869187
0.869435
0.869359
0.869312
0.163355
0.173953
0.206182
0.255253
0.313721
0.376623
0.441912
0.50913
0.577883
0.647704
0.714866
0.77003
0.811104
0.84215
0.863209
0.872901
0.875139
0.875288
0.875225
0.875194
0.115142
0.12612
0.160969
0.21437
0.27807
0.346607
0.417758
0.49095
0.565595
0.641019
0.713105
0.771944
0.81554
0.84815
0.869434
0.878449
0.880314
0.880403
0.880345
0.880322
0.0736603
0.0848061
0.1216
0.17846
0.246508
0.319857
0.39609
0.474523
0.554422
0.634909
0.711477
0.773654
0.819504
0.853437
0.874797
0.883259
0.88487
0.884913
0.884852
0.884828
0.0371927
0.0483938
0.0867028
0.146418
0.218161
0.295678
0.376408
0.459557
0.544254
0.629403
0.710092
0.775273
0.823077
0.858085
0.879409
0.887409
0.888846
0.888853
0.888781
0.888752
0.00447715
0.0156917
0.0551945
0.117366
0.192317
0.273502
0.358251
0.445707
0.534857
0.624399
0.708946
0.776851
0.826324
0.862135
0.883317
0.890914
0.892235
0.892224
0.892149
0.892113
-0.0255211
-0.0142772
0.0262764
0.0906202
0.168424
0.252872
0.341244
0.432661
0.526
0.619751
0.708014
0.77846
0.829362
0.865715
0.886601
0.893822
0.895066
0.895069
0.895013
0.894977
-0.053389
-0.0421073
-0.000621352
0.0656762
0.14603
0.233417
0.325093
0.420178
0.517483
0.615334
0.707282
0.780199
0.83235
0.869
0.889438
0.896273
0.897468
0.897522
0.897514
0.897491
-0.079624
-0.0682944
-0.0259416
0.0421348
0.124793
0.214845
0.309553
0.408056
0.509145
0.611037
0.706748
0.782186
0.835485
0.872227
0.892073
0.898498
0.899657
0.899792
0.899861
0.899865
-0.104631
-0.0931667
-0.0500074
0.0197116
0.104464
0.196935
0.294437
0.39614
0.500842
0.606751
0.706399
0.784537
0.838989
0.875665
0.894791
0.900774
0.90189
0.902118
0.902277
0.902319
-0.128562
-0.116944
-0.0730189
-0.00179918
0.0848573
0.179537
0.279605
0.384294
0.492453
0.602348
0.70617
0.787355
0.84308
0.879571
0.897837
0.90333
0.904387
0.9047
0.904943
0.905026
-0.151631
-0.139809
-0.0951525
-0.0225254
0.0658562
0.162537
0.264957
0.372421
0.483871
0.597712
0.705949
0.790677
0.847973
0.884208
0.901413
0.906297
0.907277
0.907661
0.90796
0.908071
-0.173856
-0.161849
-0.116493
-0.0425477
0.0473868
0.14587
0.250436
0.360458
0.475012
0.592712
0.705583
0.794461
0.853872
0.889886
0.905684
0.909681
0.910532
0.911008
0.911336
0.911446
-0.195365
-0.183126
-0.137058
-0.0619093
0.0294011
0.129498
0.236001
0.348371
0.465816
0.587241
0.704895
0.79857
0.860916
0.896995
0.910957
0.913439
0.913905
0.914553
0.915042
0.915177
-0.216036
-0.203651
-0.156884
-0.0806511
0.011885
0.113428
0.221648
0.336138
0.456251
0.581222
0.7037
0.80279
0.869111
0.906025
0.917924
0.917955
0.917253
0.918065
0.919269
0.919779
-0.23604
-0.223434
-0.175989
-0.0987985
-0.00517882
0.097646
0.207404
0.323768
0.446304
0.574604
0.701823
0.806833
0.878295
0.917325
0.92771
0.924652
0.921582
0.922083
0.924752
0.926564
-0.25527
-0.24244
-0.194399
-0.116341
-0.0217492
0.0821923
0.193303
0.311315
0.435996
0.567332
0.699116
0.810363
0.888114
0.930906
0.941213
0.935581
0.929493
0.928685
0.932765
0.937249
-0.273816
-0.260767
-0.212088
-0.133252
-0.0378235
0.0670975
0.17939
0.298811
0.425365
0.559434
0.695467
0.813001
0.898034
0.946261
0.958429
0.951893
0.943209
0.938894
0.937322
0.933106
-0.291604
-0.2784
-0.229152
-0.14971
-0.0536288
0.0520846
0.165344
0.285878
0.414015
0.550492
0.690498
0.814401
0.907962
0.963589
0.979588
0.974062
0.96364
0.952237
0.939838
0.94054
-0.308635
-0.295438
-0.245621
-0.165673
-0.0691716
0.0371709
0.151173
0.272467
0.401864
0.5403
0.683859
0.813763
0.916682
0.981803
1.00267
0.999011
0.985689
0.971169
0.934185
0.897425
-0.324735
-0.311753
-0.26149
-0.181021
-0.0844725
0.0223317
0.136848
0.258677
0.388925
0.528801
0.675269
0.810337
0.922267
0.998865
1.02491
1.0192
1.00125
0.967258
0.912777
0.860872
-0.342601
-0.326267
-0.276565
-0.195294