/*--------------------------------*- C++ -*----------------------------------*\
  =========                 |
  \\      /  F ield         | OpenFOAM: The Open Source CFD Toolbox
   \\    /   O peration     | Website:  https://openfoam.org
    \\  /    A nd           | Version:  6
     \\/     M anipulation  |
\*---------------------------------------------------------------------------*/
FoamFile
{
    version     2.0;
    format      ascii;
    class       surfaceScalarField;
    location    "24.5";
    object      phi;
}
// * * * * * * * * * * * * * * * * * * * * * * * * * * * * * * * * * * * * * //

dimensions      [0 3 -1 0 0 0 0];

internalField   nonuniform List<scalar> 
17370
(
-0.0900008
0.0898495
0.289162
-0.071463
0.0537531
0.364485
-0.038121
0.027694
0.426595
-0.0196427
0.0146081
0.504286
-0.0107626
0.00826844
0.601896
-0.00626417
0.00488343
0.720438
-0.00371921
0.00288525
0.86374
-0.00215696
0.00161048
1.036
-0.00110679
0.000704989
1.2429
-0.000312304
-6.70024e-05
1.49157
0.000426557
-0.000829502
1.49159
0.00122994
-0.00172986
1.24319
0.00227101
-0.00299149
1.03636
0.003818
-0.00497363
0.864062
0.0063456
-0.0083404
0.721052
0.0108267
-0.0146645
0.603052
0.0196925
-0.0277368
0.507484
0.0381576
-0.0537832
0.431794
0.0714873
-0.0898657
0.365154
0.0900105
0.199
-0.128133
0.0882213
0.0399113
-0.364595
0.35337
-0.0746789
0.0859037
-0.446475
0.454315
-0.0844031
0.0765631
-0.521183
0.529903
-0.0684614
0.0597409
-0.612776
0.621566
-0.0515436
0.0427537
-0.726869
0.734145
-0.0352821
0.0280061
-0.867457
0.872532
-0.0224155
0.0173408
-1.03847
1.04186
-0.0135828
0.010194
-1.2446
1.247
-0.00762972
0.0052327
-1.49265
1.49462
-0.00330696
0.00134193
-1.49249
1.49422
0.000332264
-0.00206589
-1.24399
1.24588
0.00397915
-0.00587019
-1.03751
1.04003
0.00822504
-0.0107484
-0.866098
0.869813
0.0140921
-0.0178074
-0.724387
0.729939
0.0228366
-0.0283891
-0.608703
0.61614
0.0356262
-0.0430631
-0.514905
0.523072
0.0518169
-0.0599843
-0.439866
0.447944
0.0686742
-0.0767523
-0.375307
0.376773
0.0845639
-0.0860297
-0.257352
0.222532
0.0747643
-0.0399442
-0.0685066
0.0586838
0.00982282
-0.0518021
0.058388
-0.374111
0.367525
-0.0574782
0.0537396
-0.453582
0.45732
-0.0486721
0.0447431
-0.527929
0.531858
-0.0409242
0.0372986
-0.621543
0.625168
-0.0332025
0.0291301
-0.735321
0.739394
-0.0245582
0.0203932
-0.874268
0.878433
-0.016061
0.0123961
-1.04341
1.04707
-0.00873197
0.00563435
-1.24852
1.25162
-0.00240478
-0.00061011
-1.49663
1.49965
0.00359351
-0.00678981
-1.49721
1.50041
0.00983938
-0.0134414
-1.25006
1.25366
0.0170468
-0.021309
-1.04591
1.05017
0.0254065
-0.0299035
-0.877792
0.882289
0.0339083
-0.0379339
-0.739961
0.743986
0.0414992
-0.0452556
-0.626826
0.630583
0.049132
-0.05415
-0.534858
0.539876
0.0578365
-0.0586833
-0.457523
0.45837
0.0520248
-0.0318988
-0.335837
0.315711
0.00985921
-0.0684041
0.0585449
-0.0529337
0.04894
0.00399372
-0.0331467
0.0436891
-0.358087
0.347545
-0.0473822
0.046742
-0.459253
0.459893
-0.0436594
0.0402713
-0.535745
0.539133
-0.0364643
0.0331504
-0.628459
0.631773
-0.0297366
0.0267524
-0.742578
0.745562
-0.0235735
0.02056
-0.881937
0.884951
-0.0171483
0.0138745
-1.05065
1.05392
-0.0101868
0.00671811
-1.25502
1.25849
-0.00281428
-0.000939003
-1.50311
1.50686
0.00467371
-0.00851868
-1.50404
1.50788
0.0119028
-0.0154855
-1.25739
1.26097
0.0186543
-0.0219474
-1.05397
1.05727
0.0248539
-0.0279192
-0.885793
0.888858
0.0308042
-0.034115
-0.747269
0.75058
0.0373414
-0.0410612
-0.634397
0.638117
0.0443764
-0.0473773
-0.544222
0.547223
0.0479334
-0.0441244
-0.45671
0.452901
0.0334468
-0.0161105
-0.296432
0.279096
0.00403905
-0.0527547
0.0487157
-0.0458669
0.0433811
0.00248582
-0.022738
0.0330964
-0.336862
0.326504
-0.0389208
0.0399656
-0.459561
0.458517
-0.0388219
0.0365903
-0.541833
0.544064
-0.033973
0.0314005
-0.634795
0.637367
-0.0283458
0.0254549
-0.748568
0.751459
-0.022219
0.0192717
-0.887861
0.890809
-0.0160285
0.0129946
-1.05701
1.06004
-0.0095598
0.00627429
-1.26187
1.26516
-0.00246601
-0.0012569
-1.51066
1.51438
0.00495728
-0.00869261
-1.51172
1.51546
0.0118851
-0.0151878
-1.26439
1.26769
0.0180829
-0.0211675
-1.06037
1.06345
0.0239732
-0.0270612
-0.891931
0.895019
0.0298255
-0.0327477
-0.753828
0.75675
0.0352024
-0.0376975
-0.641234
0.643729
0.0398269
-0.0408432
-0.549077
0.550094
0.0396709
-0.0336665
-0.447713
0.441708
0.023115
-0.0100736
-0.264022
0.250981
0.00254069
-0.0455929
0.0430522
-0.0413154
0.0395672
0.00174823
-0.0165979
0.0257748
-0.316693
0.307516
-0.0323149
0.0344142
-0.4569
0.454801
-0.0339683
0.0322904
-0.545967
0.547645
-0.0301257
0.0280708
-0.639597
0.641652
-0.0257218
0.0234369
-0.754064
0.756349
-0.0207301
0.0180951
-0.89367
0.896305
-0.0150452
0.0121583
-1.06301
1.0659
-0.00885404
0.0056783
-1.26837
1.27155
-0.00197063
-0.00167518
-1.51806
1.52171
0.00528361
-0.008884
-1.51911
1.52271
0.0119218
-0.0150451
-1.2709
1.27402
0.0177519
-0.0205995
-1.06648
1.06933
0.0230527
-0.0255638
-0.897888
0.900399
0.0276735
-0.0298383
-0.759246
0.761411
0.0317413
-0.0337573
-0.645887
0.647903
0.0352998
-0.0355821
-0.550659
0.550941
0.0332943
-0.0264964
-0.435217
0.428419
0.0170636
-0.00718064
-0.239664
0.229781
0.00181533
-0.0409261
0.0391107
-0.0380635
0.0367583
0.00130527
-0.0125556
0.0203891
-0.299002
0.291168
-0.0270655
0.0299671
-0.452275
0.449373
-0.0301773
0.0290669
-0.549091
0.550202
-0.0270907
0.0252086
-0.643626
0.645508
-0.0230852
0.0210663
-0.758443
0.760462
-0.018727
0.0164285
-0.898719
0.901018
-0.0136898
0.0109933
-1.06869
1.07138
-0.00782675
0.00477213
-1.27467
1.27773
-0.00124964
-0.00215804
-1.52525
1.52866
0.00552501
-0.00892123
-1.52622
1.52961
0.0118021
-0.0147414
-1.27708
1.28001
0.0172112
-0.0196901
-1.07197
1.07445
0.0217543
-0.0238467
-0.902618
0.90471
0.0256483
-0.0275456
-0.763412
0.765309
0.0292339
-0.0310177
-0.649826
0.65161
0.0319205
-0.0314727
-0.550888
0.550441
0.0283009
-0.0212773
-0.421443
0.414419
0.0131221
-0.00544893
-0.221092
0.213418
0.00138699
-0.0375343
0.0361473
-0.0356272
0.0346522
0.000974963
-0.00955769
0.0160286
-0.28403
0.277559
-0.0223029
0.0255973
-0.446206
0.442911
-0.0264183
0.0258314
-0.550982
0.551568
-0.0242395
0.0225956
-0.647279
0.648923
-0.0206659
0.0187674
-0.762463
0.764362
-0.0165413
0.0143717
-0.903266
0.905435
-0.0118549
0.00940934
-1.07395
1.07639
-0.00655452
0.0037657
-1.28064
1.28343
-0.000484393
-0.00273331
-1.53195
1.53517
0.00588807
-0.00898973
-1.53288
1.53598
0.0115445
-0.0140996
-1.28278
1.28533
0.0162508
-0.0184357
-1.07679
1.07897
0.0203083
-0.0222323
-0.906741
0.908665
0.0238665
-0.0255262
-0.767105
0.768765
0.0269364
-0.0282815
-0.65317
0.654516
0.0286252
-0.0274899
-0.549604
0.548468
0.0238387
-0.0171176
-0.407496
0.400775
0.010248
-0.00421628
-0.206632
0.2006
0.00107464
-0.034929
0.0338544
-0.033806
0.0330725
0.000733554
-0.00728198
0.0125472
-0.271701
0.266436
-0.0181867
0.0215409
-0.439565
0.436211
-0.0226946
0.0222429
-0.552095
0.552546
-0.0208261
0.0192832
-0.650508
0.652051
-0.0175262
0.0158675
-0.766154
0.767813
-0.0139587
0.0120853
-0.907481
0.909354
-0.00987043
0.00767829
-1.07869
1.08088
-0.00508458
0.00251793
-1.28607
1.28864
0.000512407
-0.00348347
-1.53827
1.54124
0.00637834
-0.00917329
-1.53894
1.54174
0.0114366
-0.0136523
-1.28771
1.28993
0.0154785
-0.0172917
-1.08098
1.08279
0.018811
-0.0203458
-0.91039
0.911924
0.0216704
-0.0230722
-0.770268
0.77167
0.0243045
-0.0253809
-0.655722
0.656799
0.0254943
-0.023902
-0.547102
0.545509
0.0200727
-0.01387
-0.394297
0.388094
0.00811925
-0.00332439
-0.195222
0.190428
0.000855577
-0.0329019
0.0320463
-0.0324476
0.0319213
0.000526229
-0.00536797
0.00951103
-0.261746
0.257603
-0.0143673
0.0176375
-0.432874
0.429604
-0.0191347
0.0189901
-0.552871
0.553016
-0.0178945
0.0164955
-0.653551
0.65495
-0.0148784
0.01336
-0.76943
0.770948
-0.0116007
0.00986801
-0.911137
0.912869
-0.00778613
0.00573153
-1.08295
1.08501
-0.00330661
0.000956836
-1.29105
1.2934
0.00175705
-0.00435043
-1.544
1.5466
0.00685324
-0.00928506
-1.54438
1.54681
0.0112524
-0.0131924
-1.29201
1.29395
0.0147725
-0.0163142
-1.08444
1.08598
0.0175691
-0.0188435
-0.913295
0.914569
0.0199628
-0.0211622
-0.772969
0.774169
0.022196
-0.0228484
-0.657709
0.658361
0.0225689
-0.0205177
-0.543689
0.541638
0.0166568
-0.0111138
-0.382213
0.37667
0.0063847
-0.00260408
-0.186178
0.182398
0.000675257
-0.0312923
0.030617
-0.0314834
0.0311216
0.000361809
-0.00378463
0.00691272
-0.253975
0.250847
-0.0108765
0.0138278
-0.426472
0.423521
-0.0154549
0.0155791
-0.553021
0.552897
-0.0148486
0.0137031
-0.656235
0.65738
-0.0123088
0.0109267
-0.772437
0.773819
-0.00929039
0.00765515
-0.914571
0.916207
-0.00571491
0.00380115
-1.08696
1.08887
-0.00156793
-0.000591184
-1.2956
1.29776
0.0030914
-0.00548668
-1.54904
1.55143
0.00776064
-0.00989389
-1.5491
1.55123
0.0115836
-0.0131995
-1.29576
1.29738
0.0144978
-0.0157743
-1.08742
1.0887
0.0168315
-0.0178841
-0.915737
0.91679
0.0187588
-0.0196189
-0.775175
0.776035
0.0202889
-0.0204283
-0.658761
0.658901
0.0197294
-0.0173691
-0.539424
0.537064
0.0136708
-0.00886747
-0.371495
0.366691
0.00503002
-0.00206112
-0.179048
0.176079
0.000547847
-0.0300203
0.0294724
-0.030842
0.0306438
0.00019816
-0.00223872
0.00436402
-0.248226
0.2461
-0.00734535
0.00979693
-0.420811
0.41836
-0.0113435
0.0116041
-0.5527
0.552439
-0.0110329
0.0100446
-0.658453
0.659441
-0.00878102
0.00755181
-0.7752
0.776429
-0.00610758
0.00467811
-0.917732
0.919161
-0.00298108
0.0013255
-1.09057
1.09223
0.00061287
-0.00252059
-1.29974
1.30165
0.00473554
-0.00685868
-1.55371
1.55583
0.00882711
-0.0105791
-1.55324
1.55499
0.01187
-0.0130479
-1.29882
1.29999
0.0139473
-0.0147469
-1.08976
1.09056
0.0153929
-0.0160655
-0.91762
0.918293
0.016671
-0.0172925
-0.77668
0.777302
0.017691
-0.0175509
-0.658881
0.658741
0.0165653
-0.0141078
-0.534677
0.532219
0.0107408
-0.00674055
-0.362313
0.358313
0.00375676
-0.00154728
-0.173515
0.171305
0.000426197
-0.0289977
0.0285715
-0.0305386
0.0305105
2.80814e-05
-0.000828498
0.0020454
-0.244459
0.243242
-0.00407926
0.00597874
-0.416202
0.414303
-0.00733616
0.0076534
-0.552156
0.551839
-0.00719915
0.00640454
-0.660372
0.661166
-0.00537566
0.00436931
-0.777623
0.778629
-0.0031522
0.00187953
-0.920467
0.92174
-0.000310612
-0.0012467
-1.09372
1.09528
0.0030857
-0.00482551
-1.30338
1.30512
0.00677792
-0.00855765
-1.55771
1.55949
0.0101588
-0.0115834
-1.55657
1.558
0.0126025
-0.0134366
-1.30102
1.30185
0.0140127
-0.0144913
-1.09122
1.0917
0.0148036
-0.0150652
-0.918743
0.919005
0.0152603
-0.0154783
-0.777666
0.777884
0.0155236
-0.0150681
-0.658455
0.657999
0.0138002
-0.0112704
-0.529789
0.52726
0.00823355
-0.00496218
-0.354729
0.351458
0.00270452
-0.00111225
-0.169457
0.167864
0.000311849
-0.0282222
0.0279103
-0.0305499
0.0306584
-0.000108581
0.000223644
0.000254832
-0.242436
0.241958
-0.00142935
0.00277969
-0.412687
0.411337
-0.00394783
0.00436733
-0.551458
0.551038
-0.0041481
0.00357933
-0.661869
0.662438
-0.00270612
0.00177334
-0.779703
0.780636
-0.000573949
-0.00070039
-0.922956
0.92423
0.00224955
-0.0037771
-1.09669
1.09822
0.00553045
-0.00719187
-1.30674
1.3084
0.00903887
-0.0106798
-1.56115
1.56279
0.0121032
-0.0132751
-1.55929
1.56047
0.014047
-0.0146473
-1.30264
1.30324
0.0150026
-0.0152343
-1.09208
1.09231
0.015306
-0.0152476
-0.919096
0.919037
0.0151388
-0.0149509
-0.777742
0.777554
0.0145274
-0.0135506
-0.657258
0.656281
0.0119339
-0.00933129
-0.524758
0.522155
0.00660398
-0.00391881
-0.348558
0.345873
0.00214266
-0.000889658
-0.166513
0.16526
0.000249137
-0.0276561
0.027407
-0.0308087
0.0309937
-0.000184978
0.000838828
-0.000878744
-0.241781
0.241821
0.000430886
0.000321423
-0.410311
0.409559
-0.00112954
0.00146451
-0.550635
0.5503
-0.00128266
0.000813298
-0.663
0.66347
-5.12e-05
-0.000844243
-0.781658
0.782554
0.00205692
-0.00336015
-0.925439
0.926742
0.00495864
-0.00652666
-1.09965
1.10122
0.00832534
-0.00999846
-1.30998
1.31166
0.0118184
-0.0134029
-1.56433
1.56592
0.0147013
-0.0156831
-1.56153
1.56252
0.0162218
-0.01651
-1.30373
1.30402
0.0165475
-0.0164066
-1.09241
1.09227
0.0161697
-0.0158618
-0.918822
0.918514
0.0155059
-0.0149807
-0.777077
0.776552
0.014217
-0.0129279
-0.655134
0.653844
0.0111105
-0.0085351
-0.519641
0.517065
0.00608007
-0.00373981
-0.343461
0.341121
0.00212955
-0.00091173
-0.164096
0.162879
0.000257762
-0.0271826
0.0269248
-0.0312053
0.0314498
-0.000244453
0.00126143
-0.00163559
-0.242011
0.242385
0.00173086
-0.0015637
-0.409151
0.408984
0.0013192
-0.00132024
-0.5501
0.550101
0.00167065
-0.00224196
-0.664044
0.664616
0.00313435
-0.00413138
-0.783569
0.784566
0.00544723
-0.00682294
-0.927967
0.929343
0.00847985
-0.0100744
-1.10269
1.10429
0.0118663
-0.0135197
-1.31325
1.31491
0.0152803
-0.016754
-1.56743
1.5689
0.0178724
-0.0185734
-1.56338
1.56409
0.0188196
-0.0187865
-1.30419
1.30416
0.0185539
-0.0181067
-1.09193
1.09149
0.0175739
-0.0168803
-0.917948
0.917254
0.016207
-0.0154317
-0.77581
0.775035
0.014466
-0.0130257
-0.652476
0.651036
0.011191
-0.00875561
-0.514665
0.51223
0.00645747
-0.0041532
-0.338925
0.33662
0.00244264
-0.00106915
-0.161651
0.160278
0.00030634
-0.0266746
0.0263683
-0.0317272
0.0320339
-0.000306782
0.001679
-0.00229675
-0.242869
0.243487
0.0027586
-0.00302879
-0.409115
0.409385
0.00333955
-0.00383498
-0.550388
0.550884
0.00468614
-0.0056653
-0.665479
0.666458
0.00687104
-0.00811946
-0.785765
0.787013
0.00964856
-0.0111749
-0.930622
0.932149
0.0129442
-0.014595
-1.10575
1.1074
0.0164209
-0.0180267
-1.31643
1.31803
0.0196347
-0.0208575
-1.57018
1.57141
0.021649
-0.0219894
-1.56462
1.56496
0.0219243
-0.021526
-1.304
1.3036
0.020989
-0.0202475
-1.09089
1.09015
0.0194525
-0.0185398
-0.916332
0.915419
0.017688
-0.0166929
-0.774012
0.773017
0.0156144
-0.0141553
-0.649597
0.648138
0.0123609
-0.00990256
-0.509989
0.50753
0.00743818
-0.00484505
-0.334317
0.331724
0.00287645
-0.00127561
-0.158861
0.15726
0.000371404
-0.0260662
0.0256948
-0.0323892
0.0327822
-0.000392984
0.00226559
-0.0031719
-0.244241
0.245147
0.00390743
-0.00438195
-0.409794
0.410269
0.00491275
-0.00563396
-0.551599
0.55232
0.00675924
-0.00805184
-0.667788
0.669081
0.00965283
-0.0112722
-0.7885
0.790119
0.0132419
-0.0151296
-0.933648
0.935535
0.0172257
-0.0191568
-1.10898
1.11092
0.0212461
-0.023047
-1.31958
1.32138
0.0247817
-0.0260103
-1.57251
1.57374
0.0267179
-0.0268742
-1.56514
1.5653
0.0265869
-0.0258904
-1.30306
1.30236
0.0249931
-0.0238774
-1.08921
1.0881
0.0228912
-0.0218417
-0.91439
0.91334
0.020859
-0.0198255
-0.771852
0.770819
0.0186682
-0.016965
-0.646652
0.644949
0.0147469
-0.0116657
-0.505025
0.501944
0.00865327
-0.0056028
-0.32904
0.32599
0.00334455
-0.00150784
-0.155619
0.153782
0.0004494
-0.0253267
0.0248773
-0.0332364
0.0337527
-0.000516323
0.00312695
-0.00449457
-0.246271
0.247638
0.00564796
-0.0063028
-0.410822
0.411477
0.00677941
-0.00739329
-0.55315
0.553764
0.00841667
-0.00970676
-0.670594
0.671884
0.0115006
-0.0134805
-0.791954
0.793934
0.015914
-0.0182746
-0.937401
0.939762
0.020991
-0.023516
-1.11292
1.11544
0.0262496
-0.0286155
-1.3233
1.32567
0.0309126
-0.0325761
-1.57506
1.57673
0.0336218
-0.0340376
-1.56551
1.56592
0.0338626
-0.033279
-1.3017
1.30111
0.0324187
-0.0312506
-1.08685
1.08568
0.029988
-0.0284613
-0.911916
0.910389
0.0270802
-0.0254925
-0.769503
0.767915
0.023565
-0.020777
-0.642913
0.640125
0.0174723
-0.0133773
-0.49861
0.494515
0.00976535
-0.00633223
-0.322907
0.319474
0.00382596
-0.00175383
-0.151932
0.14986
0.000531315
-0.0244401
0.0239088
-0.0343469
0.0350397
-0.000692742
0.00432678
-0.0063701
-0.249322
0.251365
0.00824329
-0.00934023
-0.412317
0.413414
0.00985722
-0.0102182
-0.554449
0.55481
0.0109378
-0.0121152
-0.673354
0.674532
0.0139765
-0.0161593
-0.795995
0.798178
0.0190659
-0.0220748
-0.942145
0.945154
0.0256054
-0.0289123
-1.11813
1.12144
0.0324946
-0.0355773
-1.32825
1.33134
0.0385783
-0.040797
-1.5786
1.58082
0.0422413
-0.0429218
-1.56647
1.56715
0.0428969
-0.0423206
-1.30055
1.29997
0.0414238
-0.0400657
-1.08436
1.08301
0.0385386
-0.0366463
-0.908538
0.906646
0.0346095
-0.0317919
-0.765614
0.762796
0.0285775
-0.0242353
-0.636655
0.632312
0.0197937
-0.0149098
-0.490263
0.485379
0.0109113
-0.0071913
-0.316112
0.312392
0.00441704
-0.00205165
-0.147775
0.14541
0.000627837
-0.0233942
0.0227663
-0.035832
0.0367781
-0.000946124
0.00594861
-0.00889761
-0.253812
0.256761
0.0118161
-0.0137633
-0.414944
0.416891
0.0148946
-0.0154063
-0.555522
0.556033
0.0160395
-0.017191
-0.675898
0.677049
0.0191952
-0.0217802
-0.800389
0.802974
0.0253602
-0.0290248
-0.948183
0.951848
0.033295
-0.0372502
-1.12485
1.12881
0.0414716
-0.0450394
-1.33453
1.3381
0.048428
-0.0508283
-1.58308
1.58548
0.0522529
-0.0527218
-1.56774
1.56821
0.0524015
-0.0514223
-1.29923
1.29825
0.0500649
-0.0481675
-1.08135
1.07945
0.0461004
-0.043398
-0.904209
0.901506
0.0403531
-0.0362753
-0.75909
0.755012
0.0319654
-0.0267016
-0.627497
0.622233
0.0217673
-0.0166143
-0.480675
0.475522
0.0124033
-0.00834548
-0.308817
0.30476
0.00518803
-0.00241911
-0.143023
0.140254
0.000738373
-0.0221673
0.021429
-0.0378366
0.0391437
-0.0013071
0.00810545
-0.0121748
-0.260171
0.26424
0.0163637
-0.019451
-0.419585
0.422672
0.0216784
-0.0230282
-0.557491
0.558841
0.0243941
-0.0261228
-0.678532
0.680261
0.0289437
-0.0322542
-0.80566
0.80897
0.0364658
-0.0406227
-0.955418
0.959575
0.0453512
-0.0496307
-1.13268
1.13696
0.0540835
-0.0577136
-1.34154
1.34517
0.0609577
-0.062986
-1.58763
1.58966
0.0638296
-0.0635283
-1.5683
1.568
0.0624053
-0.060453
-1.29681
1.29485
0.058177
-0.0552706
-1.07701
1.0741
0.0522359
-0.0484429
-0.89802
0.894228
0.0445023
-0.0396729
-0.750232
0.745403
0.0348804
-0.0293936
-0.616849
0.611362
0.0243996
-0.0191212
-0.470734
0.465455
0.0145806
-0.00994971
-0.30084
0.296209
0.00621367
-0.00288754
-0.13745
0.134124
0.000872589
-0.0207238
0.0198512
-0.0405447
0.0423797
-0.001835
0.0111403
-0.0166575
-0.268779
0.274296
0.0223764
-0.0268154
-0.426874
0.431313
0.0305252
-0.033304
-0.561791
0.56457
0.0361928
-0.0392682
-0.682725
0.6858
0.0432659
-0.0473844
-0.812219
0.816337
0.0522579
-0.0568548
-0.963551
0.968148
0.0618866
-0.0662718
-1.141
1.14539
0.0706242
-0.0739345
-1.34844
1.35175
0.0765417
-0.0776911
-1.59113
1.59228
0.0774429
-0.0758519
-1.56701
1.56542
0.0735142
-0.0702373
-1.29221
1.28893
0.0667851
-0.0626123
-1.07045
1.06628
0.0585021
-0.0537383
-0.889643
0.884879
0.0491674
-0.043953
-0.740017
0.734802
0.039014
-0.0334787
-0.605874
0.600339
0.0283537
-0.0226744
-0.460499
0.454819
0.0175007
-0.0120058
-0.291705
0.28621
0.00748391
-0.0034557
-0.130757
0.126729
0.00103448
-0.0190097
0.0179752
-0.0442775
0.0469467
-0.00266919
0.0156808
-0.0231277
-0.280296
0.287743
0.0306863
-0.036661
-0.437427
0.443401
0.0419761
-0.0463103
-0.569282
0.573616
0.0510572
-0.0557864
-0.689717
0.694447
0.0613367
-0.066579
-0.820468
0.82571
0.0723722
-0.0775239
-0.972577
0.977729
0.0828538
-0.0872235
-1.14943
1.1538
0.091234
-0.0939353
-1.35452
1.35722
0.0955381
-0.0954505
-1.59265
1.59257
0.0937784
-0.0906024
-1.56295
1.55978
0.0868549
-0.0821159
-1.28487
1.28013
0.0773999
-0.0719505
-1.06133
1.05588
0.0668404
-0.0612121
-0.879337
0.873708
0.0560846
-0.0504989
-0.728955
0.723369
0.0453397
-0.0395264
-0.594659
0.588845
0.0339379
-0.0274381
-0.449337
0.442838
0.0212635
-0.014556
-0.280813
0.274106
0.00901342
-0.0041163
-0.122677
0.11778
0.00121416
-0.0169893
0.0157751
-0.0495915
0.0537225
-0.00413105
0.0230397
-0.0332019
-0.295809
0.305972
0.0431267
-0.0509668
-0.451961
0.459801
0.0580323
-0.0640937
-0.580321
0.586382
0.0709586
-0.0774828
-0.69995
0.706474
0.0847007
-0.0911127
-0.830949
0.837361
0.0977857
-0.103383
-0.982655
0.988252
0.108816
-0.112938
-1.1577
1.16182
0.116307
-0.118103
-1.3592
1.361
0.118366
-0.11675
-1.59152
1.5899
0.113421
-0.108496
-1.5556
1.55067
0.103245
-0.096973
-1.27455
1.26828
0.0909747
-0.0842836
-1.04967
1.04298
0.0782062
-0.0716972
-0.867259
0.86075
0.0659356
-0.0598071
-0.716926
0.710798
0.054177
-0.0477181
-0.582576
0.576117
0.0412555
-0.0334867
-0.436372
0.428603
0.02594
-0.017674
-0.26752
0.259254
0.0108451
-0.00488151
-0.112919
0.106955
0.00141137
-0.0146254
0.0132141
-0.0575638
0.064767
-0.0072032
0.0363811
-0.0507615
-0.317431
0.331812
0.0642827
-0.0742909
-0.471567
0.481575
0.0830442
-0.0908296
-0.595341
0.603126
0.0998326
-0.107898
-0.713473
0.721538
0.116318
-0.123391
-0.843542
0.850615
0.130383
-0.135911
-0.993395
0.998923
0.140904
-0.144277
-1.16522
1.16859
0.1465
-0.14693
-1.36181
1.36224
0.145429
-0.141938
-1.58712
1.58363
0.13669
-0.129846
-1.54463
1.53779
0.122986
-0.115128
-1.26111
1.25325
0.107832
-0.099898
-1.03551
1.02757
0.0928323
-0.0853899
-0.853336
0.845893
0.0788921
-0.0720442
-0.703514
0.696666
0.06572
-0.0582174
-0.568811
0.561309
0.0504601
-0.0409454
-0.420645
0.41113
0.031598
-0.0213902
-0.251112
0.240904
0.0129831
-0.00573822
-0.101219
0.0939744
0.0016052
-0.0119079
0.0103027
-0.0716392
0.0753744
-0.0037352
0.0266908
-0.0392188
-0.349117
0.361645
0.051143
-0.0604146
-0.496775
0.506046
0.069405
-0.0788395
-0.61415
0.623585
0.0895803
-0.0991192
-0.72913
0.738669
0.109668
-0.118955
-0.856892
0.866179
0.128623
-0.136938
-1.0035
1.01182
0.145251
-0.151946
-1.17081
1.17751
0.157976
-0.161986
-1.36137
1.36538
0.164273
-0.163904
-1.57872
1.57835
0.160718
-0.155112
-1.52966
1.52406
0.148419
-0.139861
-1.24441
1.23586
0.131489
-0.121449
-1.01881
1.00877
0.112324
-0.102411
-0.837463
0.827551
0.09365
-0.0843397
-0.688326
0.679015
0.0754687
-0.065219
-0.552594
0.542344
0.0546325
-0.0417857
-0.401141
0.388294
0.0299881
-0.0182967
-0.230719
0.219028
0.00978586
-0.00366828
-0.0872949
0.0811773
0.000748856
-0.00891636
0.0081675
-0.0827082
0.0801854
0.00252287
0.00501305
-0.0126629
-0.377157
0.384807
0.0214364
-0.0286755
-0.51987
0.527109
0.0367975
-0.0449773
-0.634581
0.642761
0.0546497
-0.0634845
-0.747975
0.75681
0.0728563
-0.081318
-0.875026
0.883488
0.0901165
-0.0973667
-1.01986
1.02711
0.104804
-0.110434
-1.184
1.18964
0.115415
-0.118363
-1.36904
1.37199
0.119259
-0.117709
-1.57698
1.57543
0.113465
-0.106911
-1.51741
1.51086
0.0993015
-0.0899753
-1.22661
1.21728
0.0810331
-0.0708768
-0.998237
0.988081
0.0614206
-0.0510402
-0.816339
0.805959
0.0419023
-0.0327812
-0.666659
0.657538
0.0250604
-0.0170133
-0.529087
0.521039
0.00996041
-0.00371805
-0.374674
0.368432
-0.000136523
0.00231907
-0.206955
0.204772
-0.00286288
0.00205138
-0.0743752
0.0751867
-0.000939236
-0.00663091
0.00757015
-0.0831431
0.0800941
0.00304904
-0.0031667
-0.000779337
-0.395814
0.39976
0.00623186
-0.0117214
-0.538108
0.543598
0.018416
-0.0255087
-0.652096
0.659189
0.033806
-0.0414101
-0.765007
0.772611
0.0496867
-0.0570209
-0.891292
0.898626
0.0644274
-0.0709051
-1.03422
1.0407
0.0773619
-0.0823334
-1.19488
1.19985
0.0863084
-0.0884213
-1.3743
1.37641
0.0888419
-0.0868057
-1.57321
1.57117
0.0822366
-0.0755895
-1.50368
1.49704
0.068167
-0.059393
-1.20788
1.1991
0.0506993
-0.0411621
-0.977604
0.968067
0.0323518
-0.022779
-0.795554
0.785981
0.01457
-0.00630657
-0.646735
0.638471
-0.000368798
0.00666251
-0.510431
0.504137
-0.0107126
0.0127304
-0.359778
0.35776
-0.0123621
0.0101614
-0.199788
0.201989
-0.00729392
0.00391989
-0.0746788
0.0780528
-0.00139254
-0.00740548
0.00879801
-0.0815218
0.0786043
0.00291747
-0.0063157
0.00462629
-0.407754
0.409443
-0.00128751
-0.00294531
-0.552161
0.556394
0.00884238
-0.0148223
-0.666636
0.672616
0.0219437
-0.0284881
-0.779858
0.786403
0.0355689
-0.0418643
-0.905542
0.911838
0.0486165
-0.0541562
-1.0468
1.05234
0.0598747
-0.0638767
-1.2045
1.2085
0.0673648
-0.0691621
-1.37839
1.38019
0.0692508
-0.0669594
-1.56883
1.56654
0.0627531
-0.0567027
-1.49002
1.48397
0.0499862
-0.0418145
-1.19032
1.18215
0.0341229
-0.025735
-0.958485
0.950097
0.0178808
-0.00968162
-0.776512
0.768313
0.00231697
0.00483325
-0.628964
0.621814
-0.0104507
0.0150584
-0.495678
0.491071
-0.0174598
0.0176613
-0.351966
0.351765
-0.0156192
0.0117351
-0.201028
0.204912
-0.00812262
0.00408783
-0.0798371
0.0838719
-0.00135515
-0.00922439
0.0105795
-0.079816
0.0773482
0.00246783
-0.00699367
0.00665438
-0.415648
0.415987
-0.00411845
0.000877587
-0.563661
0.566902
0.0039774
-0.00938536
-0.678984
0.684392
0.015419
-0.0212244
-0.792499
0.798304
0.0274198
-0.0329588
-0.917822
0.923361
0.0388422
-0.043868
-1.05782
1.06285
0.048822
-0.0526456
-1.21245
1.21627
0.0557816
-0.0574092
-1.38175
1.38338
0.0574879
-0.0554093
-1.56424
1.56216
0.0516455
-0.046086
-1.47749
1.47193
0.0401376
-0.0330842
-1.17418
1.16713
0.0264111
-0.0190419
-0.941708
0.934339
0.0123963
-0.00536904
-0.760082
0.753055
-0.000690301
0.00663398
-0.614021
0.608077
-0.0111109
0.014639
-0.484273
0.480745
-0.0164099
0.0162178
-0.347854
0.348046
-0.0140128
0.0104397
-0.205033
0.208606
-0.00712067
0.00348335
-0.0857016
0.089339
-0.0011645
-0.0110345
0.012199
-0.0784064
0.0763504
0.00205599
-0.00656226
0.00650366
-0.421025
0.421084
-0.00499933
0.0022131
-0.57272
0.575506
0.00239084
-0.00702311
-0.689597
0.694229
0.0122671
-0.0173695
-0.803534
0.808636
0.0229491
-0.0279824
-0.928681
0.933714
0.0334777
-0.038003
-1.06769
1.07221
0.0426175
-0.0462141
-1.21991
1.22351
0.0491565
-0.0507306
-1.38486
1.38643
0.0508997
-0.0494651
-1.56015
1.55871
0.046125
-0.041371
-1.46617
1.46141
0.036124
-0.0299257
-1.16015
1.15395
0.024325
-0.0178634
-0.927102
0.920641
0.0121593
-0.00633485
-0.746175
0.740351
0.00130099
0.00357577
-0.601843
0.596966
-0.00721977
0.0101753
-0.475394
0.472438
-0.0113948
0.011205
-0.344999
0.345189
-0.00972069
0.00699369
-0.208306
0.211033
-0.00459683
0.00227979
-0.0903264
0.0926434
-0.000785985
-0.0124386
0.0132246
-0.0774422
0.0758753
0.00156693
-0.00545444
0.00557106
-0.425088
0.424971
-0.00416791
0.00196003
-0.580802
0.58301
0.00222515
-0.00642902
-0.698931
0.703135
0.0114593
-0.0159365
-0.813522
0.817999
0.0209294
-0.0254848
-0.938831
0.943387
0.0308036
-0.0350303
-1.07685
1.08107
0.039278
-0.0428329
-1.22702
1.23057
0.0461187
-0.0477575
-1.38812
1.38976
0.048268
-0.0470834
-1.55701
1.55582
0.0445082
-0.040132
-1.4566
1.45222
0.0356637
-0.0303449
-1.14778
1.14247
0.02532
-0.0198546
-0.914393
0.908928
0.0148784
-0.00970173
-0.734443
0.729266
0.00560798
-0.00134873
-0.5917
0.587441
-0.00189466
0.00431699
-0.468027
0.465604
-0.00556711
0.00579047
-0.342415
0.342192
-0.00503403
0.00353353
-0.210003
0.211503
-0.00226997
0.00115675
-0.092628
0.0937412
-0.000441383
-0.0131352
0.0135766
-0.0770358
0.0758289
0.00120688
-0.00424315
0.00440133
-0.428419
0.428261
-0.00298446
0.000781244
-0.587928
0.590131
0.00307749
-0.00688166
-0.707419
0.711223
0.0112709
-0.0156391
-0.822565
0.826933
0.0203311
-0.0250885
-0.947853
0.95261
0.0297801
-0.0339125
-1.08547
1.08961
0.0383954
-0.0418438
-1.23409
1.23753
0.0448237
-0.0470273
-1.39139
1.3936
0.0479151
-0.0472319
-1.55477
1.55409
0.0450464
-0.0414471
-1.4481
1.4445
0.0374929
-0.0327055
-1.13692
1.13214
0.0282426
-0.0232846
-0.903404
0.898446
0.0188037
-0.0142829
-0.72415
0.719629
0.0103066
-0.00649462
-0.582765
0.578953
0.00359145
-0.00106929
-0.4617
0.459178
-0.000418067
0.00092151
-0.33929
0.338786
-0.00109224
0.000924781
-0.20966
0.209828
-0.000745436
0.000502631
-0.0928493
0.0930921
-0.000284207
-0.0132161
0.0135003
-0.0771865
0.0761803
0.00100624
-0.00289888
0.00280425
-0.431549
0.431644
-0.0015498
-0.000752248
-0.594509
0.596811
0.00430605
-0.0080052
-0.715391
0.71909
0.0122591
-0.0162816
-0.831223
0.835245
0.0211432
-0.0251849
-0.956891
0.960932
0.0299122
-0.0339468
-1.09396
1.09799
0.0384061
-0.0421347
-1.24103
1.24476
0.0455167
-0.0476399
-1.39564
1.39776
0.049007
-0.0488536
-1.5534
1.55324
0.0474032
-0.0441908
-1.4408
1.43759
0.0407054
-0.036331
-1.12743
1.12306
0.0322387
-0.027548
-0.893274
0.888584
0.0234223
-0.019027
-0.714829
0.710434
0.015249
-0.0115114
-0.574678
0.570941
0.00851618
-0.00607032
-0.455421
0.452976
0.00423907
-0.00311288
-0.335415
0.334288
0.00209914
-0.00122295
-0.207422
0.206546
0.000515498
4.24902e-05
-0.0913579
0.0907999
-0.000183193
-0.0128405
0.0130237
-0.0776245
0.0769219
0.000702655
-0.00174014
0.00118698
-0.434877
0.435431
-5.57525e-05
-0.00235571
-0.600402
0.602813
0.00560332
-0.0091993
-0.722889
0.726485
0.0133118
-0.0174898
-0.83924
0.843418
0.0217971
-0.0260401
-0.965254
0.969497
0.0307838
-0.0346693
-1.1025
1.10638
0.0392921
-0.0430562
-1.24835
1.25212
0.046587
-0.0493233
-1.40035
1.40308
0.0512731
-0.0515026
-1.55317
1.5534
0.0503407
-0.0478284
-1.43453
1.43202
0.0448196
-0.0407088
-1.11848
1.11437
0.0367663
-0.0324803
-0.88374
0.879454
0.0281683
-0.0240121
-0.705737
0.701581
0.0202767
-0.0164383
-0.566956
0.563118
0.0134597
-0.0106055
-0.449026
0.446172
0.00843128
-0.00649605
-0.330697
0.328762
0.00487618
-0.00312779
-0.203561
0.201813
0.00160918
-0.000434024
-0.0885873
0.0874121
-5.59993e-05
-0.0121485
0.0122045
-0.0784495
0.077897
0.000552521
-0.000780284
0.000254941
-0.438453
0.438978
0.00145673
-0.00368109
-0.606407
0.608631
0.00709511
-0.0105765
-0.729936
0.733417
0.014556
-0.0183701
-0.847366
0.85118
0.0228321
-0.0268047
-0.973805
0.977778
0.0315398
-0.0358952
-1.11076
1.11511
0.040224
-0.0443645
-1.25597
1.26012
0.048382
-0.0512806
-1.40577
1.40866
0.0536916
-0.0547403
-1.55387
1.55492
0.0540584
-0.0521618
-1.42936
1.42746
0.0493168
-0.0455407
-1.11021
1.10644
0.0418341
-0.0375083
-0.87464
0.870314
0.0333782
-0.0291473
-0.696849
0.692618
0.0253693
-0.0213464
-0.5589
0.554877
0.0180613
-0.0149272
-0.442216
0.439082
0.0121352
-0.00954509
-0.32472
0.32213
0.00721235
-0.00472692
-0.198162
0.195676
0.00265695
-0.000959842
-0.084823
0.0831259
0.000123348
-0.0112706
0.0111473
-0.0795273
0.0791408
0.000386559
0.000261413
-0.00101193
-0.442193
0.442944
0.00259155
-0.00506545
-0.61203
0.614504
0.00839863
-0.0117301
-0.736764
0.740095
0.0158
-0.0194887
-0.855046
0.858734
0.023824
-0.0279399
-0.982269
0.986385
0.0326145
-0.0369662
-1.11937
1.12372
0.0415487
-0.0457611
-1.26422
1.26843
0.0500159
-0.0537079
-1.41189
1.41558
0.0566268
-0.0580273
-1.55594
1.55734
0.0580649
-0.0564807
-1.42544
1.42386
0.0541246
-0.0507666
-1.10251
1.09915
0.0470132
-0.0427514
-0.865613
0.861351
0.0386353
-0.0341966
-0.68793
0.683492
0.0303897
-0.0261507
-0.55074
0.546501
0.0226653
-0.0190016
-0.434851
0.431187
0.0158296
-0.0125628
-0.317576
0.314309
0.00942288
-0.00621805
-0.191391
0.188187
0.00359909
-0.00141337
-0.0801212
0.0779355
0.000269804
-0.0101944
0.00992455
-0.0808068
0.0805306