/*--------------------------------*- C++ -*----------------------------------*\
  =========                 |
  \\      /  F ield         | OpenFOAM: The Open Source CFD Toolbox
   \\    /   O peration     | Website:  https://openfoam.org
    \\  /    A nd           | Version:  6
     \\/     M anipulation  |
\*---------------------------------------------------------------------------*/
FoamFile
{
    version     2.0;
    format      ascii;
    class       surfaceScalarField;
    location    "45.7";
    object      phi;
}
// * * * * * * * * * * * * * * * * * * * * * * * * * * * * * * * * * * * * * //

dimensions      [0 3 -1 0 0 0 0];

internalField   nonuniform List<scalar> 
17370
(
-0.0900015
0.0898509
0.289161
-0.0714651
0.0537555
0.364485
-0.0381226
0.0276933
0.426597
-0.0196404
0.0146058
0.504286
-0.0107618
0.00826981
0.601894
-0.00626959
0.00489472
0.720432
-0.00373503
0.00289919
0.863742
-0.00216251
0.00160695
1.03601
-0.00109354
0.000683597
1.24291
-0.000277844
-0.000110422
1.49158
0.000487184
-0.000892643
1.4916
0.00128656
-0.00177435
1.24318
0.00230488
-0.00301762
1.03635
0.00383846
-0.00498933
0.864057
0.00635999
-0.00835569
0.721053
0.0108415
-0.0146773
0.60305
0.0197045
-0.0277501
0.507485
0.0381735
-0.0537987
0.431793
0.0715002
-0.0898742
0.365149
0.0900149
0.198996
-0.128131
0.0882167
0.0399145
-0.364594
0.353367
-0.0746849
0.0859113
-0.446474
0.454313
-0.0844135
0.0765747
-0.521187
0.529895
-0.0684808
0.0597733
-0.612784
0.621561
-0.0515872
0.0428097
-0.726889
0.734153
-0.0353514
0.0280872
-0.867472
0.872575
-0.0224947
0.0173913
-1.03847
1.04191
-0.0135911
0.0101482
-1.2446
1.24702
-0.00754057
0.00511099
-1.49263
1.4946
-0.00316785
0.00119707
-1.4925
1.49422
0.000482347
-0.00220324
-1.24398
1.24586
0.00410504
-0.00598817
-1.03751
1.04005
0.0083463
-0.0108824
-0.866103
0.869843
0.0142482
-0.0179879
-0.724394
0.729946
0.0230385
-0.0285904
-0.608703
0.616121
0.035812
-0.0432296
-0.514902
0.523049
0.0519618
-0.0601082
-0.43986
0.447921
0.0687747
-0.0768365
-0.3753
0.376748
0.0846412
-0.0860896
-0.257336
0.222492
0.0748067
-0.0399622
-0.0685039
0.0586725
0.00983136
-0.0518445
0.0584383
-0.374112
0.367518
-0.0575307
0.0537846
-0.453584
0.45733
-0.0486989
0.0447508
-0.527933
0.531881
-0.0409154
0.0372812
-0.621548
0.625182
-0.0331868
0.029121
-0.735332
0.739398
-0.0245648
0.0204188
-0.874321
0.878468
-0.0160873
0.0124047
-1.04347
1.04715
-0.00867933
0.00551469
-1.24855
1.25171
-0.00219352
-0.000877739
-1.49666
1.49973
0.00392394
-0.00718325
-1.49721
1.50047
0.0102598
-0.0138678
-1.25008
1.25369
0.0174367
-0.021645
-1.04594
1.05015
0.0256868
-0.0301411
-0.877779
0.882233
0.0341244
-0.0381355
-0.739918
0.743929
0.0416957
-0.0454516
-0.626791
0.630547
0.0493312
-0.0543514
-0.534825
0.539846
0.0580293
-0.0588509
-0.457489
0.458311
0.0521589
-0.0319726
-0.335777
0.31559
0.00988287
-0.0683641
0.0584812
-0.0529166
0.0489152
0.00400135
-0.0332017
0.0437644
-0.358071
0.347508
-0.0474774
0.0468604
-0.45926
0.459877
-0.0438142
0.0404698
-0.535775
0.539119
-0.0367075
0.0334148
-0.628497
0.63179
-0.0299928
0.026978
-0.742613
0.745628
-0.023738
0.0206446
-0.881976
0.88507
-0.0171251
0.0137536
-1.05073
1.0541
-0.00997054
0.00644215
-1.25514
1.25866
-0.00248702
-0.00129786
-1.50323
1.50701
0.00505275
-0.00891894
-1.50414
1.50801
0.0123285
-0.015953
-1.25745
1.26107
0.0191653
-0.0225054
-1.05395
1.0573
0.0254425
-0.0285275
-0.885734
0.888819
0.0314171
-0.0347156
-0.747199
0.750498
0.0379018
-0.0415528
-0.634346
0.637997
0.0448013
-0.0477389
-0.544167
0.547105
0.0482431
-0.0443719
-0.456613
0.452741
0.0336213
-0.0161968
-0.296248
0.278824
0.00406439
-0.0526686
0.0486042
-0.0458315
0.043329
0.00250257
-0.0228554
0.0332588
-0.336798
0.326395
-0.0391028
0.0401352
-0.459548
0.458515
-0.0389598
0.0366845
-0.541826
0.544102
-0.0340303
0.0314473
-0.634825
0.637408
-0.0284004
0.0255179
-0.74866
0.751543
-0.0222748
0.0193022
-0.88801
0.890982
-0.0160221
0.012945
-1.05722
1.06029
-0.00944133
0.00604905
-1.26211
1.2655
-0.00209951
-0.00177631
-1.51089
1.51476
0.00561381
-0.0094476
-1.51191
1.51575
0.0126827
-0.0159766
-1.26452
1.26781
0.0188427
-0.0218846
-1.0604
1.06345
0.0246482
-0.0276819
-0.891887
0.894921
0.0303929
-0.0332696
-0.753718
0.756594
0.035707
-0.0382121
-0.641077
0.643582
0.0403599
-0.0413684
-0.548925
0.549933
0.0401638
-0.0340686
-0.447485
0.44139
0.0233916
-0.0102064
-0.263635
0.25045
0.00257999
-0.0454502
0.0428702
-0.0412473
0.0394719
0.0017754
-0.0168052
0.0260888
-0.316515
0.307231
-0.032728
0.0348928
-0.456898
0.454733
-0.0344934
0.0328397
-0.546067
0.547721
-0.0306766
0.0285995
-0.639698
0.641775
-0.0261921
0.0238198
-0.754169
0.756541
-0.0209901
0.0182243
-0.89385
0.896616
-0.0150113
0.0119627
-1.06331
1.06636
-0.00849591
0.00519345
-1.2688
1.2721
-0.00138346
-0.00233109
-1.51854
1.52225
0.0059967
-0.00965987
-1.51949
1.52315
0.0127664
-0.0159715
-1.27107
1.27428
0.0187554
-0.0216649
-1.06648
1.06939
0.0241584
-0.0267102
-0.897751
0.900303
0.0288555
-0.0310424
-0.759065
0.761252
0.0329373
-0.0349137
-0.645759
0.647735
0.0363838
-0.0365569
-0.550475
0.550648
0.0341278
-0.0271227
-0.43476
0.427755
0.0174724
-0.00737017
-0.238957
0.228855
0.00186996
-0.0407028
0.0388329
-0.037942
0.0366037
0.00133827
-0.0128512
0.0208341
-0.298606
0.290623
-0.0276254
0.0305808
-0.452147
0.449192
-0.0308156
0.0297227
-0.54913
0.550223
-0.0277555
0.0258646
-0.643785
0.645676
-0.0236939
0.0215835
-0.758752
0.760862
-0.0190981
0.0166425
-0.899162
0.901617
-0.0137334
0.0108871
-1.06927
1.07211
-0.00756007
0.00434634
-1.27533
1.27854
-0.000618176
-0.0030038
-1.52589
1.52951
0.00656477
-0.0101096
-1.52676
1.53031
0.0130765
-0.0160733
-1.27743
1.28042
0.0185875
-0.0211155
-1.07213
1.07466
0.0232264
-0.0253557
-0.90262
0.90475
0.0271738
-0.0290614
-0.763253
0.765141
0.0307205
-0.0324621
-0.649568
0.65131
0.0332904
-0.0327423
-0.550469
0.54992
0.0294118
-0.022122
-0.420554
0.413264
0.0136701
-0.00569528
-0.219921
0.211946
0.00145311
-0.037199
0.0357458
-0.035434
0.0343996
0.00103437
-0.0100622
0.0168199
-0.283281
0.276524
-0.0233529
0.0267666
-0.445995
0.442582
-0.0275828
0.0269072
-0.551105
0.551781
-0.02517
0.0234063
-0.647547
0.649311
-0.0213648
0.0193809
-0.762903
0.764887
-0.0170511
0.014765
-0.903908
0.906195
-0.012072
0.0094277
-1.07478
1.07742
-0.0063122
0.00326323
-1.28163
1.28468
0.000312217
-0.0037986
-1.53305
1.53654
0.00720951
-0.01056
-1.53376
1.53711
0.0133071
-0.0160198
-1.2833
1.28601
0.0182572
-0.0204824
-1.07704
1.07926
0.0223451
-0.0242353
-0.906759
0.90865
0.0258547
-0.0275412
-0.766922
0.768608
0.0290163
-0.0304394
-0.652917
0.65434
0.0307801
-0.0295249
-0.549031
0.547775
0.0255945
-0.0184081
-0.406005
0.398818
0.0110636
-0.00457986
-0.204788
0.198304
0.00117402
-0.0344498
0.0332758
-0.0334905
0.032682
0.0008085
-0.00799408
0.0136826
-0.270333
0.264645
-0.0197364
0.0233568
-0.43906
0.43544
-0.024666
0.0242561
-0.552363
0.552773
-0.0228086
0.0211744
-0.65106
0.652694
-0.019244
0.0173524
-0.766813
0.768705
-0.0151131
0.0129084
-0.90837
0.910574
-0.0103147
0.00778274
-1.07994
1.08247
-0.00481843
0.00192486
-1.2876
1.29049
0.00146429
-0.00476387
-1.5399
1.5432
0.00797316
-0.0110896
-1.54034
1.54346
0.0136171
-0.0160935
-1.28863
1.2911
0.0181329
-0.0201587
-1.08141
1.08344
0.0218427
-0.0235351
-0.910456
0.912149
0.0249695
-0.0264532
-0.77019
0.771674
0.0277251
-0.0287707
-0.655551
0.656596
0.0287439
-0.026831
-0.546197
0.544285
0.0225246
-0.0156351
-0.391777
0.384888
0.00921889
-0.00380162
-0.192405
0.186988
0.000978834
-0.0322133
0.0312345
-0.0319709
0.0313372
0.000633723
-0.00639964
0.0111761
-0.259444
0.254667
-0.0166453
0.0202701
-0.431824
0.428199
-0.021904
0.0217179
-0.553113
0.553299
-0.0204988
0.0189161
-0.654344
0.655927
-0.0170397
0.0152052
-0.770552
0.772387
-0.0130474
0.0109324
-0.912652
0.914767
-0.00844466
0.00601271
-1.08487
1.0873
-0.00316271
0.000388786
-1.29327
1.29604
0.00283801
-0.00595338
-1.54638
1.5495
0.00895841
-0.0118509
-1.54646
1.54935
0.014173
-0.0164176
-1.29349
1.29573
0.0182396
-0.0200247
-1.08537
1.08715
0.0214985
-0.0229856
-0.91376
0.915247
0.024262
-0.0255936
-0.773081
0.774412
0.0267455
-0.0274097
-0.65743
0.658094
0.0270307
-0.024595
-0.542126
0.53969
0.0200808
-0.0135621
-0.378196
0.371677
0.00789064
-0.00324774
-0.181999
0.177356
0.000840048
-0.0303376
0.0294976
-0.0307831
0.0302909
0.000492173
-0.00511598
0.00910606
-0.250314
0.246324
-0.0139485
0.0174384
-0.424659
0.421169
-0.0192766
0.0193012
-0.553438
0.553413
-0.0182947
0.0167622
-0.657558
0.659091
-0.014923
0.0131138
-0.774186
0.775995
-0.0109783
0.00888466
-0.916769
0.918863
-0.00643022
0.00404685
-1.08962
1.092
-0.00127913
-0.0013866
-1.2987
1.30137
0.00445598
-0.00738684
-1.55247
1.5554
0.0101831
-0.0128496
-1.55212
1.55479
0.0149761
-0.0170243
-1.29791
1.29995
0.0186787
-0.0202909
-1.08888
1.09049
0.0216106
-0.022927
-0.916668
0.917985
0.0240444
-0.0251957
-0.775673
0.776825
0.0261394
-0.0264412
-0.658555
0.658857
0.0256913
-0.0228077
-0.537047
0.534163
0.018181
-0.0120293
-0.365362
0.359211
0.00693856
-0.00285803
-0.173029
0.168948
0.000744363
-0.0287172
0.0279728
-0.0298658
0.029494
0.000371827
-0.00403646
0.00733216
-0.242709
0.239413
-0.0115281
0.0147609
-0.417829
0.414596
-0.0166633
0.016859
-0.553359
0.553163
-0.0159551
0.0145229
-0.66064
0.662073
-0.0127029
0.0108951
-0.777779
0.779586
-0.00876149
0.00667996
-0.920851
0.922932
-0.00425478
0.00191471
-1.09427
1.09661
0.000790149
-0.0033832
-1.30393
1.30652
0.00635254
-0.0091626
-1.55823
1.56104
0.0118068
-0.0142787
-1.55734
1.55981
0.0162051
-0.0180182
-1.30191
1.30373
0.0194568
-0.0208408
-1.09203
1.09342
0.0219697
-0.0231081
-0.919247
0.920385
0.0240855
-0.0250782
-0.77792
0.778913
0.0257806
-0.0258012
-0.659016
0.659036
0.0246583
-0.0214068
-0.531105
0.527854
0.0167352
-0.0109135
-0.353254
0.347432
0.0062652
-0.00258858
-0.165102
0.161426
0.000679912
-0.0272735
0.0265935
-0.0291811
0.0289155
0.000265676
-0.00309213
0.00576129
-0.236453
0.233783
-0.00931497
0.0122149
-0.411557
0.408657
-0.0140713
0.0143529
-0.553004
0.552722
-0.0134914
0.0120976
-0.663578
0.664972
-0.010256
0.00842295
-0.781374
0.783207
-0.00627243
0.00418627
-0.924885
0.926972
-0.001764
-0.000565621
-1.09882
1.10115
0.0032422
-0.00578234
-1.30901
1.31155
0.00864874
-0.0113142
-1.56373
1.5664
0.0137826
-0.0160551
-1.56217
1.56445
0.0177984
-0.0194079
-1.30547
1.30708
0.0206545
-0.0218238
-1.09474
1.09591
0.0227548
-0.0236923
-0.921456
0.922393
0.0245113
-0.0253418
-0.779836
0.780666
0.0257978
-0.0255639
-0.65891
0.658676
0.0240166
-0.0204183
-0.524457
0.520858
0.015709
-0.0101443
-0.34178
0.336216
0.00581506
-0.00241549
-0.157923
0.154523
0.000640993
-0.0259475
0.0253065
-0.0287061
0.0285412
0.000164933
-0.00221485
0.00429331
-0.231428
0.229349
-0.00719679
0.00969407
-0.405987
0.403489
-0.0114114
0.0117322
-0.552512
0.552191
-0.0109271
0.0095796
-0.666452
0.6678
-0.00771614
0.00582428
-0.785028
0.78692
-0.00358818
0.00142301
-0.928959
0.931124
0.00107094
-0.00344041
-1.10337
1.10574
0.00612388
-0.00863192
-1.31398
1.31649
0.0114158
-0.0139542
-1.56893
1.57147
0.0162508
-0.0183072
-1.56658
1.56864
0.0198404
-0.0212198
-1.3086
1.30998
0.0222732
-0.0232487
-1.09704
1.09802
0.0240118
-0.0247651
-0.923301
0.924055
0.0254149
-0.0260655
-0.781415
0.782065
0.0262083
-0.0256416
-0.65822
0.657653
0.0236944
-0.019774
-0.517143
0.513223
0.0150248
-0.00964762
-0.330795
0.325417
0.00553752
-0.0023169
-0.15125
0.148029
0.000622201
-0.0246905
0.0240683
-0.0284334
0.0283713
6.21179e-05
-0.00135498
0.00285468
-0.227576
0.226076
-0.00508995
0.00711234
-0.401265
0.399243
-0.0085661
0.00881517
-0.552016
0.551766
-0.00798697
0.00662541
-0.669271
0.670633
-0.0046961
0.00273007
-0.788791
0.790757
-0.000412432
-0.00181855
-0.933167
0.935398
0.00437023
-0.00677767
-1.10799
1.1104
0.00948515
-0.0119953
-1.31889
1.3214
0.0147434
-0.0171972
-1.57391
1.57636
0.0193543
-0.0212214
-1.57057
1.57244
0.0225548
-0.0236903
-1.31127
1.31241
0.0244988
-0.0251911
-1.09893
1.09963
0.0256986
-0.0262061
-0.924756
0.925263
0.0266781
-0.0271476
-0.782574
0.783044
0.0270157
-0.02607
-0.656814
0.655869
0.0237211
-0.0194821
-0.509216
0.504977
0.0146648
-0.00939152
-0.32016
0.314887
0.00540782
-0.00228134
-0.1449
0.141773
0.000619949
-0.0234665
0.0228466
-0.028367
0.0284148
-4.77681e-05
-0.000468332
0.00138166
-0.224885
0.223971
-0.00291942
0.00440682
-0.397528
0.396041
-0.00550812
0.00561082
-0.551733
0.551631
-0.00470251
0.00326127
-0.672179
0.673621
-0.00122017
-0.000864745
-0.792705
0.79479
0.00331097
-0.0056493
-0.937496
0.939834
0.00831039
-0.0108053
-1.11269
1.11519
0.0135812
-0.0161064
-1.32381
1.32633
0.0188041
-0.0211328
-1.57868
1.58101
0.023106
-0.0247327
-1.57415
1.57578
0.0258321
-0.0267056
-1.31344
1.31431
0.0272787
-0.0277108
-1.10028
1.10071
0.0279755
-0.0282319
-0.925745
0.926002
0.0285075
-0.0287129
-0.783254
0.78346
0.0283397
-0.0269411
-0.654629
0.65323
0.0241545
-0.0195601
-0.500677
0.496083
0.0146191
-0.00935972
-0.309704
0.304444
0.00541513
-0.00230532
-0.138706
0.135596
0.00063418
-0.022241
0.0216068
-0.0285189
0.0286837
-0.000164874
0.000472899
-0.000189366
-0.22338
0.223097
-0.000596782
0.00146817
-0.394897
0.394025
-0.0021131
0.0019981
-0.551809
0.551924
-0.000981284
-0.000555955
-0.675274
0.676812
0.00271346
-0.00494851
-0.796854
0.799089
0.00758729
-0.0101075
-0.942058
0.944578
0.0129535
-0.0155853
-1.11758
1.12021
0.0184644
-0.0210346
-1.32875
1.33132
0.0237194
-0.0259749
-1.58321
1.58546
0.0277921
-0.0291806
-1.57724
1.57863
0.030022
-0.0305921
-1.31506
1.31563
0.030887
-0.0310269
-1.10109
1.10123
0.031032
-0.0310199
-0.926221
0.926209
0.0310567
-0.0309082
-0.783306
0.783158
0.0301947
-0.0282505
-0.651568
0.649624
0.0249827
-0.0199963
-0.491444
0.486458
0.0148755
-0.00953939
-0.299246
0.29391
0.00554979
-0.00238382
-0.132515
0.129349
0.000663046
-0.0209822
0.0203191
-0.0289288
0.0292391
-0.000310314
0.00150584
-0.00187353
-0.223167
0.223535
0.0019415
-0.00179629
-0.393525
0.39338
0.00175974
-0.0022271
-0.552429
0.552896
0.00344691
-0.00515307
-0.678611
0.680317
0.00751229
-0.00995471
-0.801299
0.803742
0.012829
-0.0155509
-0.946973
0.949695
0.0185933
-0.0213787
-1.12274
1.12552
0.0243892
-0.0270347
-1.33379
1.33644
0.0297225
-0.0318717
-1.58758
1.58973
0.0334948
-0.0345957
-1.57983
1.58093
0.0351606
-0.0353806
-1.31605
1.31627
0.0353535
-0.0351516
-1.10128
1.10108
0.0348542
-0.0345293
-0.926116
0.925791
0.0343228
-0.033749
-0.782562
0.781989
0.0326161
-0.0300607
-0.647475
0.644919
0.0262719
-0.0208357
-0.481447
0.476011
0.0154526
-0.00993391
-0.288602
0.283083
0.00581119
-0.00251595
-0.126184
0.122889
0.000706186
-0.0196615
0.0189553
-0.0296199
0.0300995
-0.000479569
0.00276732
-0.00389178
-0.224296
0.225421
0.00486325
-0.00553531
-0.393625
0.394297
0.00621834
-0.00713611
-0.553903
0.554821
0.00867091
-0.0106466
-0.682376
0.684352
0.0133099
-0.0160233
-0.806157
0.80887
0.0191784
-0.0221438
-0.95227
0.955236
0.0254422
-0.0284416
-1.1282
1.1312
0.0316399
-0.0343794
-1.33898
1.34171
0.0370573
-0.0390703
-1.59171
1.59372
0.0404433
-0.0412077
-1.5818
1.58257
0.0414268
-0.0412636
-1.3163
1.31614
0.0408724
-0.0402793
-1.10071
1.10012
0.0396264
-0.0389344
-0.92532
0.924628
0.0384102
-0.0373728
-0.780919
0.779882
0.0357448
-0.0325112
-0.642235
0.639001
0.0281074
-0.0221129
-0.470544
0.464549
0.0163649
-0.0105501
-0.277556
0.271741
0.00620279
-0.00270322
-0.119567
0.116067
0.000764203
-0.0182501
0.0174859
-0.0306596
0.0313557
-0.000696117
0.00426578
-0.00629538
-0.22699
0.229019
0.00832468
-0.0098883
-0.395393
0.396957
0.011399
-0.0128687
-0.556435
0.557905
0.0148041
-0.0170901
-0.686724
0.68901
0.0201133
-0.0231759
-0.811546
0.814609
0.0267315
-0.0300593
-0.95809
0.961417
0.0337275
-0.0370105
-1.13411
1.13739
0.0404404
-0.0432985
-1.34434
1.3472
0.0459796
-0.0478563
-1.59555
1.59743
0.0489563
-0.0493294
-1.58308
1.58345
0.0491176
-0.0485134
-1.31572
1.31512
0.0477121
-0.0466861
-1.09927
1.09825
0.0456532
-0.0445404
-0.923711
0.922598
0.0435369
-0.0419737
-0.778307
0.776744
0.0396916
-0.0356564
-0.635673
0.631637
0.0305366
-0.0238742
-0.458527
0.451865
0.0176448
-0.0114018
-0.265881
0.259638
0.00672755
-0.00294352
-0.112512
0.108728
0.000835037
-0.0167201
0.0158851
-0.0321375
0.0331234
-0.000985932
0.00616491
-0.00926782
-0.231508
0.234611
0.0125389
-0.0151645
-0.399115
0.401741
0.0176543
-0.0198264
-0.560248
0.56242
0.0223297
-0.0250557
-0.691756
0.694482
0.0285677
-0.0320847
-0.817636
0.821153
0.0361311
-0.0398786
-0.964644
0.968391
0.0439563
-0.0475495
-1.14058
1.14417
0.0512256
-0.0542039
-1.34993
1.35291
0.05687
-0.0585628
-1.5991
1.6008
0.0593217
-0.0592078
-1.58352
1.58341
0.058509
-0.0573433
-1.31416
1.31299
0.0560422
-0.054494
-1.09685
1.0953
0.0530185
-0.0514219
-0.921153
0.919556
0.0498725
-0.0476692
-0.774608
0.772405
0.0446251
-0.0396586
-0.627534
0.622567
0.0336897
-0.0261923
-0.44517
0.437673
0.0193248
-0.0124977
-0.253307
0.24648
0.00738421
-0.00323368
-0.10486
0.10071
0.000917345
-0.0150462
0.0141288
-0.0341847
0.0355657
-0.00138098
0.00864031
-0.0130652
-0.238173
0.242598
0.0178074
-0.0216565
-0.405152
0.409002
0.0252877
-0.0283385
-0.565733
0.568784
0.0316427
-0.0350228
-0.697805
0.701185
0.0392187
-0.0433149
-0.824638
0.828734
0.0479445
-0.0521749
-0.972035
0.976265
0.0567191
-0.0606543
-1.14766
1.1516
0.0645743
-0.0676143
-1.35571
1.35875
0.0701377
-0.0714861
-1.60217
1.60352
0.0717478
-0.0710183
-1.58291
1.58218
0.0697356
-0.0679018
-1.31138
1.30955
0.066018
-0.0638533
-1.09327
1.09111
0.0618487
-0.0597334
-0.917525
0.91541
0.0575658
-0.0546535
-0.7696
0.766687
0.0507236
-0.0446466
-0.617547
0.61147
0.0376418
-0.0291017
-0.430133
0.421593
0.0214136
-0.0138264
-0.239523
0.231935
0.00815415
-0.00355843
-0.0964523
0.0918566
0.00100442
-0.0132087
0.0122043
-0.0369941
0.0389447
-0.00195063
0.01204
-0.0181568
-0.247455
0.253572
0.0246684
-0.0299282
-0.413956
0.419215
0.034861
-0.0389329
-0.573284
0.577356
0.043206
-0.0474126
-0.705268
0.709475
0.0524813
-0.0573089
-0.832801
0.837629
0.0626729
-0.0674914
-0.98041
0.985228
0.0725627
-0.0768367
-1.15541
1.15968
0.0809396
-0.0839502
-1.36154
1.36455
0.0862114
-0.0870947
-1.60447
1.60536
0.0867229
-0.0852196
-1.58096
1.57946
0.0832033
-0.0805736
-1.30716
1.30453
0.0780019
-0.0751672
-1.08835
1.08552
0.0725939
-0.0698421
-0.912724
0.909972
0.0669811
-0.0631889
-0.763107
0.759314
0.058183
-0.0507692
-0.605326
0.597912
0.0425127
-0.0326807
-0.413006
0.403174
0.0239445
-0.0153836
-0.224177
0.215616
0.00901743
-0.00389964
-0.0871366
0.0820188
0.00108787
-0.0112028
0.0101149
-0.0408852
0.0437127
-0.00282748
0.016974
-0.0253116
-0.260062
0.2684
0.0339923
-0.0409378
-0.426158
0.433104
0.0474217
-0.0527441
-0.583298
0.58862
0.058243
-0.0635308
-0.714497
0.719784
0.0697097
-0.0754245
-0.842428
0.848143
0.0816208
-0.0870456
-0.989967
0.995392
0.092578
-0.0970567
-1.16375
1.16823
0.101132
-0.10388
-1.36719
1.36994
0.105577
-0.105696
-1.60569
1.60581
0.104407
-0.101882
-1.57734
1.57481
0.0989684
-0.0954306
-1.30128
1.29774
0.092128
-0.0885703
-1.08192
1.07836
0.0853935
-0.0819086
-0.906431
0.902946
0.0783339
-0.0734814
-0.754713
0.74986
0.0672098
-0.0581996
-0.590408
0.581397
0.0484215
-0.0369804
-0.393295
0.381854
0.0269152
-0.0171325
-0.206862
0.197079
0.00993333
-0.0042325
-0.0767765
0.0710756
0.00115883
-0.00904066
0.00788183
-0.0464177
0.05072
-0.0043023
0.0246029
-0.0359378
-0.277132
0.288467
0.0474072
-0.0566127
-0.44278
0.451986
0.0650805
-0.0719271
-0.596375
0.603221
0.0789847
-0.0857198
-0.725928
0.732663
0.0930826
-0.0996197
-0.853758
0.860296
0.106467
-0.112246
-1.00062
1.0064
0.117892
-0.122227
-1.17233
1.17666
0.125864
-0.127965
-1.37212
1.37422
0.128678
-0.127659
-1.60518
1.60416
0.125149
-0.121356
-1.57155
1.56776
0.117356
-0.112725
-1.29349
1.28886
0.108539
-0.104185
-1.07386
1.06951
0.100413
-0.0961721
-0.898415
0.894175
0.0918092
-0.0856699
-0.74401
0.73787
0.0778883
-0.0669514
-0.572222
0.561285
0.0553188
-0.041903
-0.370369
0.356954
0.0301983
-0.0189473
-0.187141
0.17589
0.0108071
-0.00451049
-0.0652964
0.0589998
0.00120267
-0.00675244
0.00554978
-0.0546448
0.0619863
-0.00734145
0.037928
-0.0536799
-0.300753
0.316505
0.0690844
-0.0813777
-0.465435
0.477728
0.09192
-0.100175
-0.613035
0.62129
0.108829
-0.116885
-0.739956
0.748012
0.125204
-0.132138
-0.86653
0.873465
0.139036
-0.14457
-1.01171
1.01725
0.149686
-0.153276
-1.18031
1.1839
0.155854
-0.156731
-1.37543
1.37631
0.155906
-0.153291
-1.60213
1.59952
0.149185
-0.143833
-1.56306
1.55771
0.13856
-0.132695
-1.28343
1.27757
0.127494
-0.122164
-1.06406
1.05872
0.117639
-0.112654
-0.888624
0.883639
0.107334
-0.0996199
-0.730529
0.722815
0.0899548
-0.0766379
-0.549944
0.536627
0.0627595
-0.0470505
-0.343474
0.327765
0.0334806
-0.0206395
-0.16467
0.151829
0.0115286
-0.00468529
-0.0527841
0.0459408
0.00119681
-0.00439588
0.00319907
-0.0688447
0.0729236
-0.00407885
0.0288126
-0.0425425
-0.334835
0.348565
0.0562775
-0.0675387
-0.495451
0.506712
0.0775741
-0.0869462
-0.632989
0.642361
0.0974284
-0.10698
-0.755471
0.765023
0.11749
-0.126705
-0.879409
0.888624
0.136388
-0.14486
-1.02184
1.03032
0.153533
-0.160731
-1.18638
1.19358
0.167536
-0.172497
-1.37594
1.3809
0.176174
-0.177492
-1.59559
1.59691
0.176378
-0.173352
-1.55119
1.54816
0.169321
-0.164069
-1.27076
1.26551
0.159136
-0.153324
-1.05222
1.04641
0.148309
-0.142522
-0.876797
0.87101
0.135923
-0.125225
-0.713425
0.702727
0.111344
-0.0928042
-0.522653
0.504114
0.0741282
-0.0534932
-0.311801
0.291166
0.0365523
-0.0214636
-0.13943
0.124341
0.0113743
-0.00434326
-0.0396464
0.0326154
0.000991233
-0.00205344
0.00106221
-0.0802414
0.0782929
0.00194855
0.00745672
-0.0162478
-0.365028
0.373819
0.0266238
-0.0347267
-0.522552
0.530655
0.0427933
-0.0505928
-0.654265
0.662064
0.0601395
-0.0689979
-0.774061
0.782919
0.0783906
-0.0868747
-0.897255
0.905739
0.0957743
-0.103221
-1.0385
1.04595
0.111012
-0.117099
-1.20055
1.20663
0.122764
-0.126543
-1.38549
1.38927
0.128659
-0.128547
-1.59728
1.59717
0.126006
-0.121504
-1.54423
1.53973
0.115977
-0.10919
-1.25959
1.2528
0.102832
-0.0957781
-1.03938
1.03233
0.0892865
-0.0819791
-0.86145
0.854143
0.0748039
-0.0655189
-0.688088
0.678803
0.0551225
-0.0425836
-0.483925
0.471386
0.0311891
-0.0203411
-0.270449
0.259601
0.012617
-0.00673368
-0.10988
0.103997
0.00325422
-0.00111278
-0.0258426
0.0237011
0.000188917
0.000210029
-0.000398946
-0.0816037
0.0787625
0.00284123
-0.00126256
-0.00371961
-0.38544
0.390422
0.0105409
-0.0164914
-0.542575
0.548526
0.0225225
-0.0292264
-0.67225
0.678954
0.037507
-0.0451887
-0.790828
0.79851
0.0535532
-0.0609621
-0.913446
0.920855
0.0684983
-0.0751704
-1.05323
1.0599
0.0819388
-0.0872885
-1.21228
1.21763
0.0917796
-0.0944692
-1.39233
1.39502
0.0956651
-0.0945144
-1.5962
1.59505
0.0909928
-0.0855766
-1.53439
1.52897
0.0793832
-0.0721248
-1.24566
1.2384
0.0649763
-0.0572806
-1.02436
1.01666
0.0501302
-0.0421667
-0.844699
0.836736
0.0350245
-0.0269718
-0.665735
0.657683
0.0191241
-0.0109903
-0.457012
0.448878
0.00531084
-0.00146268
-0.247963
0.244115
-0.000340668
0.000972101
-0.0975109
0.0968795
-0.000901849
0.000516136
-0.0210795
0.0214652
-0.000209282
0.000981968
-0.000772686
-0.0804162
0.0776898
0.00272646
-0.00486908
0.00238221
-0.398987
0.401474
0.00202004
-0.00651698
-0.557568
0.562065
0.0116522
-0.0173058
-0.687043
0.692697
0.0244587
-0.0310949
-0.805528
0.812164
0.0382857
-0.044682
-0.927741
0.934138
0.0515714
-0.0572642
-1.06616
1.07185
0.0632013
-0.0674308
-1.22257
1.2268
0.0712242
-0.073359
-1.39745
1.39958
0.0738883
-0.0721033
-1.59347
1.59168
0.0684976
-0.0631279
-1.52309
1.51772
0.0569854
-0.0493674
-1.23091
1.22329
0.0420773
-0.0339655
-1.00814
1.00003
0.0261376
-0.0178521
-0.826855
0.818569
0.0104559
-0.00345088
-0.64631
0.639305
-0.00230412
0.00675347
-0.439098
0.434649
-0.00855052
0.0083843
-0.237819
0.237986
-0.00720498
0.00513325
-0.0952292
0.0973009
-0.00332237
0.00155185
-0.0212197
0.0229902
-0.000484026
0.00099164
-0.000507614
-0.0790106
0.0766305
0.00238008
-0.0059617
0.00498762
-0.408138
0.409112
-0.00165939
-0.00173463
-0.569651
0.573045
0.00592304
-0.011099
-0.699539
0.704715
0.0171642
-0.0230543
-0.818096
0.823986
0.0293493
-0.0349714
-0.940112
0.945734
0.0409468
-0.0460665
-1.07742
1.08254
0.0511304
-0.0550579
-1.23089
1.23482
0.0583258
-0.0600976
-1.40138
1.40315
0.0603713
-0.0584805
-1.58981
1.58792
0.0548257
-0.0492208
-1.51171
1.5061
0.0430477
-0.0355171
-1.21557
1.20804
0.02818
-0.0199019
-0.991246
0.982968
0.0123571
-0.00447872
-0.808958
0.80108
-0.00209106
0.00801455
-0.629298
0.623375
-0.0122457
0.01488
-0.427447
0.424813
-0.0150619
0.0130714
-0.235012
0.237003
-0.0105266
0.00738898
-0.0982484
0.101386
-0.00464648
0.0021077
-0.0242401
0.0267788
-0.00063055
0.000320921
0.000309629
-0.0777562
0.0757433
0.00201289
-0.00581838
0.00528976
-0.414536
0.415065
-0.00326315
0.000444975
-0.5791
0.581918
0.00370762
-0.00820184
-0.710242
0.714737
0.0134814
-0.0186478
-0.829089
0.834255
0.0242993
-0.0293805
-0.951029
0.95611
0.0349109
-0.0394548
-1.0874
1.09195
0.0440797
-0.047691
-1.23849
1.2421
0.0506559
-0.0522371
-1.4047
1.40628
0.0523654
-0.0507539
-1.58595
1.58434
0.0469993
-0.0415082
-1.49999
1.49449
0.0353602
-0.028002
-1.20026
1.1929
0.0212708
-0.0135499
-0.974576
0.966855
0.00673882
0.000198412
-0.792619
0.785681
-0.00612957
0.0115116
-0.614841
0.609458
-0.0150566
0.0171853
-0.419207
0.417078
-0.0167254
0.0142254
-0.235691
0.238191
-0.0113765
0.00791868
-0.103416
0.106874
-0.00493232
0.00225211
-0.0286279
0.0313081
-0.000672577
-0.000695541
0.00136812
-0.0768635
0.0753157
0.0015478
-0.00491135
0.00468196
-0.419412
0.419642
-0.00296207
0.00079221
-0.587463
0.589633
0.00312838
-0.00725939
-0.719639
0.72377
0.0123171
-0.0168155
-0.839037
0.843536
0.0218304
-0.0263845
-0.961173
0.965727
0.0316896
-0.0358815
-1.09654
1.10073
0.0400893
-0.0436165
-1.24557
1.2491
0.046864
-0.0484228
-1.40792
1.40948
0.0487245
-0.0471206
-1.58234
1.58073
0.0438648
-0.0385303
-1.48882
1.48348
0.0330834
-0.0266503
-1.18557
1.17913
0.0206233
-0.0140434
-0.959408
0.952828
0.00790407
-0.00121828
-0.778023
0.771338
-0.00438883
0.0099515
-0.601668
0.596105
-0.0134797
0.0152594
-0.412245
0.410465
-0.015076
0.0131102
-0.237493
0.239459
-0.0105329
0.00733682
-0.108967
0.112163
-0.00459678
0.00213716
-0.0331384
0.035598
-0.000659353
-0.00177167
0.00243102
-0.0764873
0.0752964
0.00119097
-0.00380096
0.00367717
-0.423385
0.423509
-0.00204005
-2.11872e-05
-0.594814
0.596875
0.00373761
-0.00748756
-0.728161
0.731911
0.0118638
-0.0162238
-0.847997
0.852357
0.0208987
-0.0256331
-0.9701
0.974835
0.0302691
-0.0343478
-1.10505
1.10913
0.0387859
-0.0421925
-1.25255
1.25596
0.0450982
-0.0471822
-1.411
1.41308
0.0477938
-0.0466728
-1.57924
1.57812
0.0439026
-0.0396433
-1.47855
1.47429
0.0351042
-0.0296721
-1.17275
1.16732
0.0245462
-0.0186357
-0.94629
0.94038
0.0128775
-0.00646806
-0.76417
0.757761
0.000537448
0.0050231
-0.588602
0.583042
-0.00857505
0.010567
-0.406007
0.404015
-0.0108267
0.00949202
-0.238768
0.240102
-0.00770687
0.00541699
-0.113558
0.115848
-0.00343834
0.00162332
-0.0369907
0.0388057
-0.000518875
-0.00275734
0.00327621
-0.0766604
0.0756684
0.000992004
-0.0024992
0.00211599
-0.427013
0.427397
-0.000645169
-0.00146027
-0.601607
0.603712
0.00486332
-0.00849654
-0.736138
0.739771
0.0127086
-0.0166871
-0.856531
0.86051
0.0215097
-0.0254945
-0.979006
0.982991
0.0301641
-0.0341516
-1.1134
1.11739
0.0385777
-0.04227
-1.25939
1.26308
0.0455782
-0.0475665
-1.41498
1.41697
0.0486871
-0.048235
-1.57705
1.5766
0.0465148
-0.0431002
-1.47021
1.4668
0.0394639
-0.0348338
-1.16227
1.15764
0.0302611
-0.0245664
-0.934224
0.92853
0.0189516
-0.012378
-0.750583
0.744009
0.00646629
-0.000870113
-0.575981
0.570384
-0.00283705
0.00485002
-0.399464
0.397451
-0.0056052
0.00518413
-0.238775
0.239196
-0.00435677
0.00308543
-0.116364
0.117636
-0.00198349
0.000981801
-0.0394844
0.040486
-0.000329299
-0.00344109
0.00377039
-0.0771301
0.0764445
0.000685617
-0.00134536
0.000490631
-0.43076
0.431615
0.000790371
-0.0030367
-0.607662
0.609908
0.00614438
-0.00966561
-0.743595
0.747116
0.0137092
-0.0178284
-0.864371
0.86849
0.0220666
-0.0262562
-0.987205
0.991394
0.0309532
-0.0348052
-1.12183
1.12568
0.0394136
-0.0431463
-1.26662
1.27035
0.0466013
-0.049218
-1.41941
1.42203
0.0510033
-0.0511116
-1.57633
1.57643
0.0499671
-0.0475923
-1.46378
1.4614
0.0446887
-0.0404586
-1.15298
1.14875
0.0359875
-0.0305226
-0.922576
0.917111
0.0245359
-0.0181446
-0.736734
0.730343
0.0123837
-0.00685045
-0.563835
0.558302
0.00319338
-0.000669352
-0.392751
0.390227
-0.000537407
0.00104583
-0.237361
0.236852
-0.00107017
0.000855601
-0.117185
0.1174
-0.000656862
0.000395602
-0.0404711
0.0407324
-0.000167659
-0.0037764
0.00394406
-0.0780027
0.0774799
0.000522825
-0.000377604
-0.000422523
-0.434768
0.435568
0.00227299
-0.00437815
-0.613809
0.615914
0.00768225
-0.0110871
-0.750565
0.75397
0.014982
-0.0187193
-0.872304
0.876042
0.0231147
-0.0270357
-0.995606
0.999527
0.0317396
-0.0360862
-1.13002
1.13436
0.0404012
-0.0445129
-1.27416
1.27828
0.0484546
-0.0512508
-1.42459
1.42738
0.0535608
-0.054626
-1.57688
1.57794
0.0541074
-0.0524299
-1.459
1.45732
0.049672
-0.045695
-1.1445
1.14052
0.0413842
-0.035835
-0.911047
0.905498
0.0301218
-0.023914
-0.723198
0.71699
0.0184658
-0.0131231
-0.551985
0.546642
0.00931866
-0.00640496
-0.385626
0.382713
0.00438725
-0.00295701
-0.234263
0.232832
0.00192921
-0.0010546
-0.115999
0.115125
0.000432043
-2.36088e-05
-0.040045
0.0396365
-7.71442e-05
-0.00375012
0.00382726
-0.0791517
0.0788048
0.000346912
0.000669759
-0.00166687
-0.43893
0.439927
0.0033979
-0.00580861
-0.619581
0.621992
0.00906866
-0.0123311
-0.757306
0.760568
0.0163184
-0.0199267
-0.879779
0.883387
0.0241961
-0.0282732
-1.00394
1.00802
0.0329308
-0.0372799
-1.13859
1.14294
0.041848
-0.0460171
-1.28233
1.2865
0.050183
-0.0537811
-1.4305
1.4341
0.0566288
-0.0580779
-1.57902
1.58047
0.0582484
-0.0567784
-1.45552
1.45405
0.054372
-0.0506523
-1.13637
1.13265
0.0461959
-0.040769
-0.89954
0.894113
0.0353168
-0.0293333
-0.710302
0.704318
0.024285
-0.0190713
-0.540899
0.535685
0.0151562
-0.0115837
-0.377943
0.37437
0.00894141
-0.00656086
-0.22937
0.226989
0.00452459
-0.00269372
-0.112816
0.110985
0.00138526
-0.000448828
-0.0383277
0.0373913
4.02417e-05
-0.00348596
0.00344572