/*--------------------------------*- C++ -*----------------------------------*\
  =========                 |
  \\      /  F ield         | OpenFOAM: The Open Source CFD Toolbox
   \\    /   O peration     | Website:  https://openfoam.org
    \\  /    A nd           | Version:  6
     \\/     M anipulation  |
\*---------------------------------------------------------------------------*/
FoamFile
{
    version     2.0;
    format      ascii;
    class       volScalarField;
    location    "57.1";
    object      p;
}
// * * * * * * * * * * * * * * * * * * * * * * * * * * * * * * * * * * * * * //

dimensions      [0 2 -2 0 0 0 0];

internalField   nonuniform List<scalar> 
8800
(
0.913118
0.8638
0.825831
0.797756
0.777585
0.762984
0.752365
0.744797
0.739873
0.737752
0.739066
0.743363
0.750122
0.759519
0.772238
0.789547
0.813416
0.846509
0.889443
0.941956
0.74762
0.753964
0.76311
0.766653
0.764036
0.757935
0.750976
0.744709
0.739872
0.736956
0.736667
0.739242
0.743842
0.74994
0.757019
0.764039
0.768908
0.768777
0.762097
0.753195
0.721154
0.727387
0.731881
0.735743
0.73868
0.739613
0.738501
0.736347
0.734323
0.733427
0.734398
0.7368
0.739648
0.741891
0.742392
0.74059
0.737215
0.733195
0.728409
0.724693
0.71688
0.719643
0.722242
0.72439
0.726113
0.727663
0.72874
0.729056
0.728895
0.728931
0.729668
0.730754
0.731454
0.731272
0.730275
0.728904
0.727223
0.724913
0.722497
0.72093
0.711859
0.713283
0.715114
0.717183
0.718879
0.72015
0.721218
0.722157
0.722911
0.723577
0.724211
0.724609
0.724584
0.724185
0.723491
0.722357
0.720686
0.718782
0.717424
0.716621
0.706916
0.707817
0.709055
0.710667
0.712342
0.713849
0.715098
0.716173
0.717174
0.718109
0.718807
0.719124
0.719078
0.718668
0.717834
0.716622
0.715243
0.713965
0.713139
0.712615
0.702066
0.702721
0.703672
0.704973
0.706398
0.707885
0.70933
0.710639
0.711828
0.712936
0.713785
0.714194
0.714146
0.713658
0.71284
0.711869
0.710856
0.709937
0.709351
0.708968
0.697309
0.697813
0.698588
0.69971
0.700984
0.702367
0.703829
0.705307
0.706734
0.708079
0.709113
0.709619
0.709617
0.709234
0.708625
0.707902
0.707138
0.706457
0.706025
0.705726
0.692592
0.692993
0.693641
0.694641
0.695841
0.697166
0.698618
0.700186
0.701819
0.703433
0.704705
0.705388
0.705566
0.705402
0.705024
0.704516
0.703951
0.703462
0.70314
0.702898
0.687836
0.688163
0.688724
0.689644
0.690795
0.692106
0.693588
0.695251
0.697071
0.69897
0.700556
0.701526
0.701976
0.702065
0.701916
0.701626
0.701252
0.700922
0.700684
0.700482
0.682956
0.683227
0.683728
0.6846
0.685733
0.687068
0.688623
0.690421
0.692463
0.694694
0.696674
0.698019
0.698798
0.699172
0.699271
0.6992
0.699017
0.698826
0.698655
0.698481
0.677865
0.678094
0.678556
0.679411
0.680566
0.681967
0.683636
0.685623
0.687953
0.690594
0.693058
0.694854
0.696017
0.696717
0.697092
0.69725
0.697256
0.697191
0.697075
0.696921
0.672474
0.672669
0.673112
0.67398
0.675196
0.676707
0.678545
0.68079
0.683493
0.686651
0.689701
0.692028
0.693638
0.694709
0.695393
0.695793
0.696004
0.696057
0.695987
0.695847
0.666682
0.66685
0.667292
0.6682
0.669519
0.671193
0.673267
0.675851
0.679027
0.682822
0.686585
0.689548
0.691684
0.693182
0.694216
0.694904
0.695316
0.695483
0.695453
0.695322
0.660375
0.660521
0.660976
0.661955
0.663422
0.665318
0.667708
0.67073
0.674503
0.679085
0.68371
0.687433
0.690187
0.692184
0.693614
0.694615
0.695256
0.695543
0.695549
0.695423
0.653414
0.653538
0.654021
0.655102
0.656767
0.658957
0.661751
0.665323
0.669835
0.675378
0.68105
0.685685
0.689176
0.691762
0.693663
0.695025
0.695917
0.696326
0.696366
0.696241
0.645624
0.645725
0.646252
0.647469
0.649394
0.65196
0.655268
0.659531
0.664957
0.671676
0.67861
0.684337
0.688701
0.691979
0.694438
0.696221
0.697398
0.697935
0.698008
0.69788
0.63677
0.636875
0.637452
0.63884
0.6411
0.644145
0.648101
0.653232
0.659794
0.667952
0.676404
0.683429
0.688824
0.692918
0.696037
0.698312
0.699808
0.700483
0.700585
0.700452
0.626549
0.626639
0.627307
0.62893
0.631626
0.635284
0.640068
0.646298
0.654279
0.664199
0.674472
0.683024
0.689622
0.694674
0.698554
0.701403
0.703262
0.704083
0.704212
0.704071
0.614598
0.614673
0.615444
0.61738
0.620635
0.625088
0.630931
0.638552
0.648303
0.660381
0.672828
0.683165
0.691168
0.697339
0.7021
0.705619
0.707875
0.708844
0.708996
0.708841
0.600371
0.600439
0.601356
0.603703
0.60769
0.613185
0.62041
0.629811
0.641773
0.656473
0.671506
0.683929
0.693547
0.700997
0.706781
0.71105
0.713735
0.714849
0.715016
0.714845
0.583102
0.583163
0.584291
0.587221
0.592212
0.599112
0.608176
0.619902
0.634661
0.652555
0.670614
0.685413
0.696848
0.70575
0.712669
0.717773
0.720903
0.722146
0.722316
0.722127
0.561649
0.561713
0.563184
0.566984
0.573419
0.582303
0.59389
0.608692
0.626994
0.648731
0.67027
0.687724
0.701171
0.711668
0.719818
0.725822
0.729377
0.730714
0.730871
0.73066
0.534263
0.534357
0.536416
0.541619
0.550276
0.562076
0.577225
0.596125
0.618863
0.645151
0.670606
0.690955
0.706572
0.718776
0.728259
0.735155
0.739066
0.740438
0.74056
0.740327
0.497907
0.498121
0.501382
0.509175
0.521584
0.537863
0.558097
0.58239
0.610545
0.642059
0.671828
0.695252
0.713128
0.727101
0.737944
0.745643
0.749771
0.751091
0.751153
0.750901
0.446808
0.447874
0.454348
0.467483
0.486439
0.509647
0.536911
0.56802
0.602573
0.639905
0.674213
0.700772
0.720904
0.736593
0.748726
0.757054
0.761175
0.762335
0.76232
0.762053
0.372591
0.379889
0.394736
0.417652
0.446402
0.478887
0.514712
0.553614
0.595214
0.638868
0.678115
0.708102
0.730725
0.748329
0.76172
0.770494
0.774498
0.775479
0.775411
0.775175
0.29359
0.309562
0.333683
0.367162
0.406199
0.448118
0.492569
0.539476
0.588573
0.63929
0.684404
0.718682
0.744454
0.7644
0.77928
0.788385
0.792048
0.792785
0.792733
0.792592
0.225926
0.245448
0.277328
0.319919
0.368143
0.41896
0.471831
0.526625
0.583054
0.640571
0.691248
0.729518
0.758205
0.780237
0.796213
0.805344
0.808674
0.809292
0.809278
0.809194
0.17054
0.192274
0.229506
0.278638
0.334062
0.392352
0.452665
0.514704
0.578038
0.64204
0.69802
0.740042
0.771366
0.795232
0.812252
0.821652
0.825017
0.825669
0.825679
0.825628
0.124604
0.147663
0.18878
0.243029
0.304221
0.368684
0.435378
0.503872
0.573546
0.643602
0.70459
0.750183
0.784013
0.809646
0.827766
0.83779
0.841406
0.842046
0.84209
0.842068
0.0855127
0.109382
0.153377
0.211796
0.277858
0.3476
0.419822
0.494016
0.569437
0.645141
0.71087
0.759907
0.796178
0.823559
0.842843
0.853585
0.857504
0.858216
0.85829
0.858289
0.0512499
0.0756782
0.121938
0.183813
0.254033
0.328371
0.405502
0.484855
0.565583
0.646586
0.716821
0.769089
0.807705
0.836755
0.857144
0.868545
0.87283
0.873683
0.873789
0.873796
0.0203352
0.0452334
0.0933693
0.158187
0.232011
0.310391
0.391948
0.47604
0.561702
0.647709
0.722232
0.777589
0.818383
0.848959
0.870363
0.882362
0.886993
0.888023
0.888137
0.888142
-0.00823057
0.0171076
0.0668498
0.134246
0.211234
0.293198
0.378745
0.467194
0.5575
0.648289
0.726963
0.785292
0.828105
0.860081
0.882348
0.894862
0.899784
0.90095
0.901063
0.901056
-0.0352352
-0.009411
0.041791
0.111492
0.191272
0.276435
0.365596
0.45807
0.552767
0.648168
0.730914
0.792151
0.836911
0.870162
0.893153
0.906021
0.911133
0.912378
0.912482
0.912455
-0.0610442
-0.0347576
0.0177954
0.0895541
0.171826
0.259861
0.352311
0.448502
0.547337
0.647228
0.734028
0.798177
0.844855
0.87928
0.902868
0.91595
0.921127
0.922404
0.92248
0.922427
-0.0860735
-0.0592377
-0.00543492
0.068186
0.152694
0.243312
0.338757
0.438376
0.541103
0.645374
0.736261
0.803397
0.852031
0.887568
0.911608
0.92477
0.929952
0.93122
0.931281
0.931202
-0.110444
-0.0830482
-0.028064
0.0472412
0.13375
0.226692
0.324853
0.427632
0.534018
0.642539
0.737572
0.807852
0.858546
0.895198
0.919613
0.932739
0.937829
0.939034
0.939075
0.938979
-0.134267
-0.106297
-0.0501965
0.026643
0.114944
0.209968
0.310581
0.416245
0.526048
0.63867
0.737914
0.811568
0.864512
0.902338
0.927054
0.940006
0.944913
0.946017
0.946002
0.945879
-0.157633
-0.129059
-0.0718725
0.00637071
0.0962569
0.193143
0.295958
0.404235
0.517193
0.633737
0.737241
0.814536
0.870021
0.909148
0.934068
0.946684
0.951264
0.952198
0.952123
0.95198
-0.180585
-0.151326
-0.0930913
-0.0135744
0.0777208
0.176247
0.281026
0.391645
0.507479
0.627714
0.735489
0.816704
0.87513
0.915816
0.940854
0.952886
0.956951
0.957644
0.95751
0.957357
-0.202965
-0.17306
-0.113823
-0.0331755
0.0593698
0.159348
0.265847
0.378548
0.496964
0.620618
0.732591
0.817979
0.879829
0.92252
0.947725
0.958879
0.962106
0.962423
0.962223
0.962074
-0.224738
-0.194218
-0.134049
-0.0523819
0.0412636
0.142507
0.250512
0.365019
0.485723
0.612473
0.728495
0.81824
0.884021
0.929356
0.955106
0.9652
0.967045
0.96663
0.966315
0.966214
-0.24596
-0.214763
-0.153737
-0.0711572
0.023468
0.12581
0.235112
0.351162
0.473846
0.603335
0.723141
0.817357
0.887508
0.936207
0.963371
0.972772
0.972685
0.970673
0.969872
0.969996
-0.266466
-0.234667
-0.172828
-0.0894333
0.00604365
0.109343
0.219744
0.337087
0.461447
0.5933
0.716499
0.815176
0.890019
0.942668
0.97247
0.982614
0.981099
0.976483
0.973279
0.971798
-0.286352
-0.253929
-0.191326
-0.107238
-0.0110426
0.0930662
0.204357
0.322736
0.448454
0.5823
0.708413
0.811441
0.89128
0.94818
0.981692
0.994877
0.994421
0.987762
0.977796
0.9777
-0.305527
-0.272618
-0.209366
-0.124766
-0.0280873
0.0766427
0.188531
0.307616
0.434313
0.569694
0.698207
0.805367
0.890777
0.952024
0.989295
1.0071
1.00869
0.998368
0.980275
0.977508
-0.32385
-0.290694
-0.226774
-0.141822
-0.044827
0.0603778
0.172478
0.292053
0.419322
0.55573
0.685946
0.796321
0.887739
0.953029
0.991087
1.00905
1.0135
0.989555
0.931469
0.906193
-0.341195
-0.308983
-0.24314
-0.157931
-0.0605168
0.0447554
0.156476
0.276322
0.403762
0.540579
0.671709
0.783735
0.88119
0.950408
0.98239
0.995033
0.984619
0.93475
0.873097
0.835432
-0.384961
-0.326705
-0.258269
-0.173867
-0.0759192
0.028835
0.140662
0.260301
0.387434
0.523897
0.655116
0.76702
0.867368
0.941681
0.961437
0.951795
0.907468
0.84417
0.775956
0.738508
-0.360023
-0.341731
-0.281312
-0.19647
-0.0995791
0.00493935
0.11604
0.234984
0.361121
0.496024
0.625621
0.735201
0.826688
0.908018
0.894464
0.789617
0.701437
0.640085
0.576988
0.604805
-0.391556
-0.359747
-0.29848
-0.214133
-0.117513
-0.0132128
0.098035
0.216297
0.341365
0.474425
0.601313
0.707289
0.788331
0.834095
0.785686
0.649412
0.54268
0.470693
0.389459
0.435857
-0.416126
-0.381823
-0.318719
-0.234249
-0.137699
-0.033433
0.0776934
0.195146
0.318817
0.449436
0.572469
0.672424
0.742228
0.750437
0.647334
0.494867
0.367891
0.276972
0.182358
0.214511
-0.440115
-0.404679
-0.34012
-0.254949
-0.158288
-0.0541314
0.0564933
0.172976
0.295028
0.422806
0.541016
0.632957
0.686342
0.662179
0.507462
0.332877
0.174874
0.04253
-0.0807853
-0.0674236
-0.463865
-0.427972
-0.36244
-0.276633
-0.179783
-0.0758161
0.0341694
0.149536
0.269691
0.39422
0.506778
0.590933
0.623941
0.555755
0.370041
0.175234
-0.0100687
-0.162467
-0.366936
-0.445845
-0.488062
-0.452167
-0.386031
-0.299745
-0.202682
-0.0988566
0.0105579
0.124779
0.242914
0.363932
0.470419
0.545606
0.553574
0.434116
0.244874
0.0379719
-0.152332
-0.312913
-0.435969
-0.554308
-0.513796
-0.477759
-0.41126
-0.324682
-0.227536
-0.123947
-0.0151972
0.0977026
0.213474
0.33043
0.430461
0.49335
0.474362
0.318623
0.12786
-0.0730514
-0.246652
-0.3429
-0.368916
-0.382417
-0.541203
-0.505041
-0.438265
-0.35155
-0.254502
-0.151318
-0.0434772
0.067791
0.180748
0.292911
0.386042
0.431618
0.394058
0.207829
0.0189295
-0.161646
-0.292506
-0.330006
-0.338897
-0.339224
-0.570569
-0.534144
-0.467089
-0.380338
-0.283531
-0.180982
-0.0743109
0.0349835
0.144658
0.251337
0.33656
0.366492
0.298025
0.106667
-0.0762387
-0.232992
-0.305937
-0.319937
-0.321078
-0.320944
-0.60191
-0.565108
-0.497751
-0.411046
-0.314645
-0.212934
-0.107714
-0.000745357
0.10521
0.205803
0.281835
0.297573
0.19129
0.0151028
-0.158156
-0.282226
-0.309989
-0.310623
-0.311167
-0.310766
-0.634973
-0.59776
-0.530148
-0.443594
-0.347758
-0.247127
-0.143665
-0.0393825
0.0624614
0.156407
0.223068
0.220025
0.0963952
-0.0694239
-0.222802
-0.293085
-0.307446
-0.305032
-0.304583
-0.30415
-0.669189
-0.631754
-0.564016
-0.47775
-0.382682
-0.283402
-0.182016
-0.0808146
0.0166284
0.103526
0.160552
0.141601
0.00857
-0.143708
-0.26452
-0.301285
-0.300299
-0.300491
-0.300036
-0.299592
-0.704114
-0.666554
-0.598866
-0.513087
-0.419054
-0.321431
-0.222482
-0.124768
-0.032028
0.0480713
0.0928577
0.0677238
-0.0716551
-0.201094
-0.286467
-0.294833
-0.297146
-0.297973
-0.297798
-0.297488
-0.738785
-0.701258
-0.633935
-0.548951
-0.45631
-0.360729
-0.264598
-0.170759
-0.0831062
-0.00912496
0.0252009
-0.00767421
-0.141587
-0.245644
-0.289846
-0.300979
-0.297163
-0.295687
-0.294985
-0.294773
-0.771267
-0.734538
-0.668174
-0.58443
-0.493646
-0.400573
-0.307694
-0.218066
-0.135829
-0.0677465
-0.0377006
-0.0860584
-0.20301
-0.2907
-0.307659
-0.304568
-0.297547
-0.291702
-0.290044
-0.289624
-0.800508
-0.764867
-0.700144
-0.618292
-0.529978
-0.439991
-0.350892
-0.265773
-0.189021
-0.127084
-0.0994281
-0.153315
-0.252997
-0.329022
-0.345441
-0.323116
-0.302201
-0.2911
-0.287852
-0.286657
-0.823725
-0.790078
-0.728047
-0.648976
-0.563958
-0.477765
-0.393076
-0.312799
-0.241601
-0.184819
-0.161596
-0.20217
-0.285266
-0.348836
-0.344841
-0.337834
-0.329481
-0.322131
-0.31632
-0.31332
-0.838751
-0.807959
-0.74974
-0.674674
-0.594018
-0.512483
-0.432872
-0.35794
-0.292501
-0.238508
-0.217225
-0.239187
-0.282855
-0.353248
-0.34767
-0.361505
-0.37778
-0.374686
-0.366842
-0.364657
-0.842829
-0.816036
-0.76304
-0.693473
-0.618448
-0.542688
-0.468745
-0.399878
-0.339967
-0.28899
-0.259448
-0.275724
-0.24271
-0.288443
-0.306899
-0.336461
-0.356619
-0.362501
-0.363727
-0.365077
-0.833608
-0.81178
-0.765754
-0.703533
-0.635677
-0.566956
-0.499404
-0.436919
-0.382214
-0.338711
-0.289287
-0.305306
-0.230767
-0.128292
-0.237455
-0.306972
-0.340862
-0.360412
-0.370003
-0.372803
-0.808308
-0.79224
-0.75585
-0.703556
-0.644606
-0.584062
-0.524035
-0.467327
-0.419432
-0.384134
-0.33685
-0.366449
-0.37672
-0.331164
-0.371502
-0.427229
-0.453326
-0.461485
-0.463817
-0.46509
-0.77037
-0.760108
-0.734303
-0.693685
-0.645116
-0.593542
-0.541737
-0.491062
-0.449022
-0.421048
-0.410338
-0.480129
-0.655931
-0.751106
-0.684759
-0.633781
-0.615224
-0.59621
-0.5848
-0.58186
-0.726902
-0.721131
-0.706092
-0.676931
-0.639052
-0.596283
-0.551516
-0.50801
-0.468676
-0.448133
-0.440552
-0.56877
-0.723033
-0.9319
-0.826126
-0.69825
-0.636355
-0.587956
-0.564622
-0.563984
-0.688156
-0.684757
-0.677631
-0.658656
-0.629442
-0.593744
-0.555058
-0.514965
-0.478406
-0.452948
-0.441352
-0.479761
-0.481393
-0.521868
-0.649242
-0.723094
-0.730391
-0.65352
-0.559163
-0.539298
-0.660324
-0.65838
-0.654796
-0.643183
-0.620386
-0.589228
-0.553403
-0.514518
-0.476023
-0.441572
-0.442764
-0.402027
-0.338829
-0.319685
-0.269389
-0.304794
-0.34044
-0.334632
-0.293672
-0.274403
-0.639556
-0.638828
-0.637646
-0.631846
-0.614462
-0.585926
-0.54971
-0.508954
-0.463037
-0.42385
-0.401441
-0.362085
-0.198278
-0.0353849
0.0979384
0.131411
0.133505
0.0913669
0.0707649
0.0662026
-0.627618
-0.627285
-0.626666
-0.624125
-0.611745
-0.584077
-0.544751
-0.497379
-0.447288
-0.388035
-0.324947
-0.261356
-0.0930898
0.0498108
0.142292
0.18783
0.186662
0.204805
0.236674
0.251452
-0.620275
-0.620092
-0.619781
-0.61951
-0.611733
-0.583982
-0.539801
-0.486928
-0.422539
-0.341763
-0.258857
-0.112359
0.0295441
0.155177
0.246589
0.288937
0.360334
0.510741
0.636043
0.689172
-0.615148
-0.615624
-0.616711
-0.618237
-0.612407
-0.584375
-0.536641
-0.476506
-0.398593
-0.306054
-0.197613
-0.0468787
0.192856
0.441468
0.670568
0.892775
1.10823
1.29461
1.40839
1.44875
-0.606287
-0.60728
-0.609092
-0.610251
-0.605222
-0.580774
-0.53684
-0.474185
-0.389895
-0.27722
-0.161049
-0.041019
0.20384
0.477911
0.861758
1.2227
1.50039
1.69326
1.78063
1.80467
-0.607601
-0.606371
-0.598043
-0.583369
-0.5763
-0.572976
-0.547401
-0.482683
-0.386516
-0.267673
-0.14162
-0.0205495
0.174095
0.484375
0.830786
1.15562
1.41054
1.56397
1.62789
1.64369
-0.647202
-0.64235
-0.626213
-0.60228
-0.592012
-0.60262
-0.583284
-0.499856
-0.387944
-0.267741
-0.141727
-0.0245744
0.105903
0.347819
0.658826
0.923297
1.12247
1.23062
1.27312
1.28183
-0.736432
-0.737011
-0.74747
-0.76388
-0.759746
-0.740934
-0.65898
-0.52413
-0.390591
-0.268981
-0.146516
-0.0461805
0.0527588
0.217618
0.452904
0.647972
0.793368
0.867856
0.89637
0.89925
-0.858545
-0.875005
-0.91348
-0.942599
-0.937586
-0.8829
-0.730212
-0.543308
-0.39298
-0.263844
-0.157688
-0.074249
-0.00795171
0.118927
0.276445
0.403297
0.49791
0.544104
0.557655
0.560366
-0.892632
-0.91424
-0.948144
-0.972898
-0.966228
-0.893812
-0.707651
-0.52268
-0.376772
-0.255176
-0.164574
-0.0982547
-0.0534564
0.0246452
0.129488
0.209586
0.259243
0.276821
0.284562
0.285021
-0.738445
-0.75835
-0.792092
-0.821756
-0.817584
-0.735315
-0.581035
-0.444926
-0.321442
-0.22894
-0.16311
-0.117412
-0.0836853
-0.0341023
0.0223456
0.0606867
0.0763676
0.0842485
0.0886154
0.0900169
-0.416085
-0.432287
-0.461141
-0.491483
-0.499058
-0.458462
-0.389252
-0.312576
-0.240092
-0.187025
-0.152083
-0.123279
-0.11625
-0.0680935
-0.0253092
-0.00785555
-0.00814308
-0.00851041
-0.00665173
-0.00519676
-0.0848342
-0.0930398
-0.11173
-0.13962
-0.166613
-0.180189
-0.183143
-0.173807
-0.158027
-0.134741
-0.125273
-0.127436
-0.135977
-0.103999
-0.0674478
-0.0433321
-0.030007
-0.0226703
-0.0200797
-0.0197639
0.12077
0.117129
0.104882
0.078421
0.0385197
-0.0063591
-0.0428527
-0.0694282
-0.0829828
-0.0834854
-0.0937136
-0.11442
-0.129644
-0.0833801
-0.0451318
-0.0283342
-0.0163967
-0.0113977
-0.00985369
-0.0100475
0.197423
0.195241
0.186188
0.16398
0.127096
0.0813442
0.036962
0.00115801
-0.0238391
-0.0378966
-0.0503392
-0.0651512
-0.0706279
-0.0420405
-0.0130068
-0.000595045
0.00749023
0.0103767
0.01104
0.0103176
0.205036
0.203554
0.197272
0.181394
0.153954
0.118661
0.0808689
0.0466298
0.0205892
0.00609296
0.000319857
0.00122881
0.0122996
0.0249022
0.0304788
0.0314054
0.0324921
0.0333079
0.033414
0.0329829
0.186845
0.185951
0.181938
0.171533
0.152971
0.12775
0.0994232
0.0726909
0.0518734
0.04321
0.0484512
0.0672233
0.0880523
0.0914481
0.0844066
0.0758841
0.0704699
0.0677461
0.0667081
0.0659791
0.161446
0.160975
0.15857
0.152086
0.140117
0.123237
0.103486
0.0843307
0.0699997
0.0685065
0.0847217
0.11548
0.143157
0.136988
0.120419
0.109089
0.103914
0.102283
0.101206
0.100308
0.135245
0.135112
0.133775
0.129925
0.122499
0.111725
0.0986726
0.0861309
0.0777346
0.081183
0.10403
0.14087
0.171135
0.160932
0.140982
0.130466
0.12741
0.126833
0.125718
0.124379
0.110538
0.110467
0.109746
0.107534
0.103039
0.0962952
0.0878893
0.0797607
0.0749722
0.0799131
0.102394
0.137806
0.164804
0.151816
0.135457
0.129333
0.127817
0.128021
0.126822
0.125538
0.0875485
0.08758
0.0872086
0.0859792
0.0833251
0.0791192
0.0736475
0.0680118
0.0641436
0.0664328
0.0801789
0.103768
0.119415
0.107982
0.0986663
0.100486
0.104613
0.106418
0.105726
0.10458
0.0664289
0.0664755
0.0663009
0.0656725
0.0641501
0.0615388
0.0577911
0.0532538
0.0483909
0.0442594
0.0413234
0.0400405
0.0355767
0.0313237
0.0382026
0.0518189
0.0616103
0.0653831
0.0650162
0.0639783
0.0473601
0.0473962
0.0473143
0.0469936
0.04619
0.0445601
0.0418763
0.0377429
0.0315256
0.0199311
-0.00300298
-0.0376129
-0.0733283
-0.066239
-0.0355872
-0.00915742
0.00541599
0.00909846
0.00951725
0.00923756
0.0303795
0.0303926
0.0303509
0.0302656
0.0299301
0.0290641
0.0273243
0.0238491
0.0169435
0.00158912
-0.0341208
-0.097183
-0.1386
-0.118321
-0.0769151
-0.050192
-0.0409843
-0.0387372
-0.0371911
-0.0364858
0.0155695
0.0155582
0.0155378
0.0155859
0.0155766
0.0151918
0.0140582
0.0119167
0.00735159
-0.00515882
-0.0354691
-0.0905686
-0.116664
-0.0922201
-0.0628044
-0.050768
-0.0498405
-0.0505109
-0.0486038
-0.0474478
0.00278897
0.00279169
0.00277115
0.00281211
0.00299532
0.00312889
0.0030845
0.00278445
0.00207554
0.000632493
-0.00479422
-0.01631
-0.0295062
-0.0241055
-0.02221
-0.0215667
-0.0219339
-0.0193504
-0.0163351
-0.0145077
0.0658064
0.255495
0.430134
0.57845
0.698017
0.793172
0.872714
0.93735
0.953935
0.950134
0.358667
0.481109
0.596071
0.696139
0.780572
0.85045
0.905573
0.942823
0.962714
0.979216
0.558083
0.640068
0.721
0.791986
0.852559
0.902848
0.942445
0.972575
0.995195
1.01441
0.706242
0.763982
0.821893
0.874132
0.919315
0.957788
0.990055
1.0171
1.03745
1.05633
0.823006
0.866511
0.909615
0.950048
0.986239
1.01819
1.04612
1.06976
1.08775
1.10578
0.920046
0.955884
0.991512
1.02546
1.05671
1.08499
1.10994
1.13085
1.14666
1.16414
1.00884
1.04089
1.07332
1.10466
1.13377
1.16021
1.18338
1.20235
1.2163
1.23332
1.096
1.12864
1.16113
1.19241
1.22124
1.24708
1.26925
1.2868
1.29921
1.31574
1.19051
1.22696
1.26177
1.29427
1.32348
1.34887
1.37001
1.38632
1.39795
1.4141
1.30365
1.34425
1.3813
1.41429
1.44281
1.46682
1.48646
1.50175
1.51366
1.52974
1.44507
1.48616
1.52143
1.55104
1.57626
1.59788
1.6164
1.63189
1.64501
1.66097
1.61664
1.64905
1.67594
1.69826
1.71836
1.73709
1.75483
1.77161
1.78652
1.80225
1.80298
1.82026
1.83739
1.85407
1.87017
1.88491
1.89882
1.9133
1.92854
1.94584
1.98637
1.99635
2.00956
2.02054
2.02995
2.03961
2.05022
2.06041
2.0697
2.09536
2.20428
2.19858
2.18564
2.17138
2.16508
2.1708
2.18894
2.21747
2.25123
2.28756
2.5071
2.37114
2.29164
2.24913
2.23181
2.23578
2.26322
2.32108
2.42875
2.60715
0.816814
0.810511
0.802779
0.791661
0.778085
0.765429
0.755022
0.746997
0.741262
0.73791
0.737535
0.740348
0.745566
0.752913
0.762456
0.774281
0.78784
0.800767
0.809755
0.817295
0.72589
0.731809
0.739879
0.746008
0.749071
0.748552
0.745455
0.741446
0.737839
0.735533
0.735376
0.73761
0.741349
0.745784
0.749879
0.75212
0.751043
0.746404
0.739348
0.731514
0.719151
0.721524
0.724788
0.727557
0.730001
0.732182
0.73335
0.733189
0.732232
0.731402
0.731593
0.732987
0.734754
0.735972
0.73589
0.734417
0.732255
0.72989
0.726906
0.723887
0.714379
0.715467
0.717381
0.719714
0.721579
0.722968
0.724173
0.725149
0.725728
0.726082
0.72661
0.727332
0.727783
0.727653
0.727016
0.726087
0.724751
0.722778
0.720668
0.719189
0.709377
0.710011
0.711137
0.712889
0.714725
0.716307
0.717544
0.718588
0.719546
0.720415
0.721173
0.72167
0.72179
0.72157
0.721023
0.720041
0.718607
0.716993
0.715652
0.714849
0.704481
0.70492
0.705706
0.707003
0.708516
0.710067
0.711528
0.712802
0.713928
0.714982
0.715901
0.716477
0.716635
0.716383
0.715707
0.714698
0.713536
0.712386
0.711479
0.710945
0.699681
0.700009
0.700618
0.701681
0.702966
0.704351
0.70581
0.707259
0.708617
0.70988
0.710988
0.711701
0.711902
0.711638
0.711025
0.710229
0.709373
0.708511
0.707845
0.707453
0.694953
0.695208
0.695699
0.696602
0.697763
0.699055
0.700454
0.701952
0.703493
0.705009
0.706358
0.707237
0.707547
0.707424
0.707021
0.706459
0.705814
0.705177
0.70469
0.70439
0.690228
0.69043
0.690839
0.691632
0.692713
0.693956
0.695339
0.696878
0.698555
0.700311
0.701946
0.703078
0.703616
0.703731
0.703564
0.703223
0.70278
0.702332
0.701984
0.701748
0.685421
0.685584
0.685934
0.686654
0.687688
0.68891
0.69032
0.691938
0.693768
0.695773
0.697746
0.699231
0.700089
0.700489
0.700572
0.700456
0.700224
0.699947
0.699713
0.699524
0.680446
0.680579
0.680887
0.681562
0.682578
0.683824
0.6853
0.687044
0.689078
0.691391
0.693778
0.6957
0.696941
0.69767
0.698034
0.698158
0.698132
0.698019
0.697882
0.69773
0.675217
0.675325
0.675606
0.676261
0.677294
0.678607
0.680193
0.682113
0.684418
0.687123
0.690019
0.692467
0.694159
0.695269
0.695954
0.69634
0.696524
0.696579
0.696526
0.696402
0.669639
0.669725
0.66999
0.670651
0.671737
0.673158
0.674908
0.677074
0.679735
0.682935
0.686457
0.689537
0.691761
0.693309
0.694351
0.695041
0.695463
0.69567
0.695692
0.695589
0.663605
0.663672
0.66393
0.664619
0.665796
0.667372
0.669352
0.671845
0.674961
0.678779
0.683069
0.686907
0.689762
0.691823
0.693275
0.694304
0.694984
0.695358
0.695452
0.695366
0.656988
0.657037
0.657298
0.658037
0.659343
0.661132
0.663416
0.66633
0.670019
0.6746
0.679823
0.684578
0.688186
0.690854
0.692785
0.69419
0.69517
0.695723
0.695886
0.695814
0.649635
0.649665
0.649934
0.650748
0.652227
0.654293
0.656967
0.660412
0.664817
0.670339
0.6767
0.682554
0.687056
0.69044
0.692941
0.694798
0.696114
0.69686
0.697093
0.697032
0.641351
0.64137
0.641642
0.642555
0.644261
0.646683
0.649852
0.653967
0.659261
0.665937
0.673676
0.680855
0.686424
0.690651
0.693826
0.696221
0.697921
0.698877
0.699182
0.699128
0.63183
0.631824
0.632151
0.633207
0.635209
0.638084
0.641884
0.646848
0.653262
0.66137
0.670781
0.679532
0.686353
0.691569
0.695532
0.698556
0.700696
0.701887
0.702264
0.702214
0.620788
0.62076
0.621134
0.622381
0.624757
0.628221
0.63283
0.638872
0.646691
0.656566
0.668001
0.678614
0.686903
0.693282
0.698168
0.701915
0.704562
0.706006
0.706454
0.706404
0.607749
0.607699
0.608149
0.609645
0.612506
0.616735
0.622393
0.629819
0.639411
0.651472
0.665349
0.678153
0.688143
0.695864
0.701829
0.70641
0.709624
0.711333
0.711846
0.711792
0.592065
0.591992
0.592565
0.594411
0.597918
0.603164
0.610211
0.619441
0.631289
0.646048
0.662851
0.67822
0.690165
0.699406
0.706603
0.712124
0.715961
0.717939
0.718508
0.718443
0.5728
0.572709
0.573481
0.575833
0.580252
0.586913
0.595857
0.607499
0.622274
0.640384
0.660648
0.678942
0.693071
0.704013
0.712561
0.719127
0.723621
0.725848
0.726451
0.726368
0.548545
0.548452
0.549555
0.552691
0.558479
0.567211
0.578844
0.593768
0.612327
0.634552
0.658849
0.680413
0.696943
0.70974
0.719745
0.72744
0.732576
0.735002
0.735606
0.735497
0.516988
0.516939
0.518643
0.523132
0.531202
0.543146
0.558736
0.578187
0.601597
0.628754
0.657643
0.682786
0.701874
0.716636
0.728185
0.737014
0.742704
0.745233
0.745793
0.745651
0.473994
0.474142
0.477146
0.484439
0.496775
0.514005
0.535454
0.561006
0.590462
0.623374
0.65733
0.686259
0.707972
0.724729
0.73782
0.74772
0.753772
0.756241
0.756704
0.756527
0.411879
0.413179
0.420464
0.434201
0.454334
0.47996
0.509674
0.542984
0.579564
0.618885
0.658206
0.690994
0.715325
0.733992
0.748488
0.759228
0.765371
0.767553
0.767854
0.76766
0.337631
0.340183
0.354335
0.377979
0.408778
0.444369
0.48306
0.524593
0.568774
0.615161
0.660757
0.698375
0.726157
0.747387
0.763678
0.775228
0.781396
0.78344
0.78371
0.783615
0.26157
0.268391
0.289641
0.323215
0.364409
0.409721
0.457398
0.507261
0.559187
0.612778
0.664774
0.707326
0.738638
0.762505
0.780678
0.792985
0.798846
0.800468
0.800663
0.800636
0.199565
0.208224
0.234077
0.274697
0.324091
0.377683
0.43348
0.491149
0.550447
0.610922
0.669041
0.716265
0.750833
0.777065
0.796682
0.8095
0.815309
0.816805
0.817053
0.817084
0.148763
0.158132
0.187493
0.233369
0.288938
0.349158
0.4118
0.476366
0.542435
0.609387
0.673302
0.724952
0.762565
0.790961
0.812099
0.825535
0.831424
0.833142
0.833485
0.833556
0.10619
0.11587
0.147635
0.197626
0.258265
0.324009
0.392464
0.46304
0.535172
0.608074
0.677422
0.733293
0.77384
0.804337
0.8269
0.84122
0.847607
0.84958
0.849962
0.850049
0.0693964
0.0792219
0.112802
0.166095
0.230977
0.30146
0.374978
0.450861
0.528467
0.60688
0.681372
0.741239
0.784625
0.817157
0.841159
0.85643
0.863363
0.865519
0.865942
0.866023
0.0367208
0.0466116
0.0816304
0.137662
0.206148
0.280734
0.358741
0.439436
0.522089
0.605649
0.684996
0.748665
0.794705
0.829157
0.854509
0.870638
0.878145
0.880514
0.880958
0.881021
0.00692531
0.0168692
0.0530604
0.11146
0.183074
0.261261
0.343272
0.428351
0.515678
0.604091
0.688083
0.755408
0.803953
0.840171
0.866704
0.883594
0.89162
0.894182
0.894644
0.894687
-0.0209183
-0.0109046
0.0263475
0.0868522
0.161225
0.242591
0.328185
0.417261
0.508955
0.601994
0.690486
0.761366
0.812324
0.850168
0.877782
0.89525
0.903655
0.906364
0.906838
0.906856
-0.0473615
-0.0372569
0.00098317
0.0633824
0.140193
0.224391
0.313221
0.405957
0.501723
0.599192
0.692087
0.766501
0.819827
0.859219
0.887768
0.905713
0.914276
0.917079
0.917561
0.917549
-0.0728395
-0.0625743
-0.0234067
0.0407172
0.119705
0.206442
0.2982
0.394289
0.493847
0.595551
0.692813
0.770797
0.82652
0.867425
0.896781
0.915046
0.923667
0.926459
0.926935
0.926907
-0.0976229
-0.0871203
-0.0470645
0.0186449
0.0995895
0.188598
0.283004
0.382163
0.485246
0.591
0.692602
0.774247
0.832472
0.87491
0.904991
0.923441
0.932035
0.934778
0.935213
0.935148
-0.121801
-0.111038
-0.0701267
-0.00296074
0.0797416
0.170792
0.26758
0.369535
0.475885
0.585483
0.691385
0.776848
0.83776
0.88182
0.912609
0.931137
0.939581
0.942207
0.942586
0.942499
-0.145469
-0.134438
-0.0926941
-0.0241505
0.0601248
0.152993
0.251921
0.356403
0.465755
0.578981
0.689114
0.778576
0.842442
0.888296
0.919786
0.93825
0.946432
0.948864
0.949148
0.949025
-0.168646
-0.15734
-0.114769
-0.0449455
0.0407417
0.13522
0.236057
0.342805
0.454881
0.571482
0.685744
0.779376
0.846535
0.894473
0.926703
0.944918
0.952631
0.954766
0.95493
0.954778
-0.191391
-0.179739
-0.136321
-0.0653285
0.021608
0.11751
0.220035
0.328801
0.443318
0.563008
0.681238
0.779167
0.85
0.900466
0.933596
0.951366
0.958321
0.959983
0.960001
0.959829
-0.213471
-0.201584
-0.157331
-0.085277
0.00277393
0.0999357
0.203924
0.314462
0.431139
0.553614
0.675571
0.777861
0.852742
0.90631
0.940743
0.958011
0.963801
0.964645
0.964417
0.964242
-0.235042
-0.222815
-0.177767
-0.104761
-0.0157234
0.0825423
0.18782
0.299872
0.418431
0.543379
0.668742
0.775358
0.854613
0.911896
0.948347
0.96548
0.969751
0.969097
0.96826
0.968102
-0.255917
-0.243392
-0.197604
-0.123726
-0.0338004
0.0654178
0.171808
0.285153
0.405302
0.532371
0.660779
0.771556
0.855428
0.916942
0.956319
0.974415
0.977539
0.974628
0.97208
0.971518
-0.276193
-0.263335
-0.216783
-0.142113
-0.0514163
0.0486333
0.155978
0.270391
0.391862
0.520725
0.651745
0.766348
0.854983
0.921032
0.964072
0.984807
0.988686
0.984279
0.97807
0.968981
-0.295752
-0.282637
-0.235395
-0.160085
-0.0687939
0.0319022
0.139988
0.255174
0.377655
0.507933
0.641115
0.759149
0.852844
0.923835
0.970881
0.995816
1.00326
0.998909
0.988222
0.986467
-0.31455
-0.301373
-0.253431
-0.177581
-0.0859129
0.0152591
0.123872
0.239485
0.36265
0.493872
0.628714
0.749477
0.848285
0.924547
0.974751
1.00301
1.01306
1.01212
0.978392
0.93961
-0.332345
-0.319405
-0.270821
-0.194478
-0.102757
-0.0013053
0.107637
0.223459
0.346917
0.478583
0.614475
0.737001
0.840206
0.922358
0.973741
0.997405
1.00741
0.989333
0.93749
0.882418
-0.35186
-0.33548
-0.287227
-0.210278
-0.119073
-0.0175441