/*--------------------------------*- C++ -*----------------------------------*\
  =========                 |
  \\      /  F ield         | OpenFOAM: The Open Source CFD Toolbox
   \\    /   O peration     | Website:  https://openfoam.org
    \\  /    A nd           | Version:  6
     \\/     M anipulation  |
\*---------------------------------------------------------------------------*/
FoamFile
{
    version     2.0;
    format      ascii;
    class       surfaceScalarField;
    location    "57";
    object      phi;
}
// * * * * * * * * * * * * * * * * * * * * * * * * * * * * * * * * * * * * * //

dimensions      [0 3 -1 0 0 0 0];

internalField   nonuniform List<scalar> 
17370
(
-0.0900002
0.0898543
0.289157
-0.0714623
0.0537582
0.36448
-0.0381269
0.0277022
0.426593
-0.0196549
0.0146246
0.504282
-0.0107834
0.00829209
0.601893
-0.00629077
0.00491279
0.720435
-0.00374772
0.00290639
0.863748
-0.00216439
0.00160505
1.03601
-0.00108842
0.000675855
1.24292
-0.000267711
-0.000124219
1.49158
0.000502975
-0.000911164
1.4916
0.00130766
-0.00179811
1.24318
0.00233016
-0.00304211
1.03635
0.00385985
-0.00500608
0.864053
0.00637352
-0.00836798
0.721052
0.0108543
-0.0146903
0.603051
0.019716
-0.027758
0.507481
0.0381775
-0.0538014
0.431792
0.0714978
-0.0898779
0.365156
0.0900143
0.198997
-0.128131
0.0882102
0.0399207
-0.36459
0.353402
-0.0746911
0.0858787
-0.446476
0.454317
-0.0843859
0.0765452
-0.521186
0.529894
-0.0684566
0.0597487
-0.612785
0.62156
-0.0515633
0.042788
-0.726892
0.734156
-0.0353319
0.0280681
-0.867474
0.872584
-0.0224725
0.0173619
-1.03847
1.04192
-0.0135556
0.0101089
-1.2446
1.24703
-0.00750046
0.00507012
-1.49263
1.4946
-0.00312542
0.00115193
-1.4925
1.49422
0.000531052
-0.00225412
-1.24398
1.24586
0.00415589
-0.0060391
-1.03751
1.04005
0.00839731
-0.0109322
-0.866104
0.869836
0.0142935
-0.0180251
-0.724396
0.729937
0.0230641
-0.0286058
-0.6087
0.616115
0.0358201
-0.0432344
-0.514898
0.523044
0.0519653
-0.0601111
-0.439857
0.447912
0.068777
-0.0768317
-0.375303
0.376743
0.0846334
-0.0860729
-0.257331
0.22248
0.0748234
-0.0399722
-0.0685071
0.0586817
0.00982547
-0.0518351
0.058426
-0.37412
0.367529
-0.0575161
0.0537672
-0.453591
0.45734
-0.0486799
0.0447286
-0.52794
0.531892
-0.0408899
0.0372533
-0.621555
0.625191
-0.0331549
0.0290834
-0.735338
0.73941
-0.0245181
0.0203636
-0.874329
0.878484
-0.0160229
0.0123334
-1.04348
1.04717
-0.00860055
0.00543104
-1.24855
1.25172
-0.0021053
-0.000966466
-1.49666
1.49973
0.00401388
-0.00727808
-1.49721
1.50047
0.0103574
-0.0139661
-1.25008
1.25368
0.0175312
-0.0217307
-1.04593
1.05013
0.0257613
-0.0302029
-0.87777
0.882212
0.0341757
-0.0381787
-0.739909
0.743911
0.041735
-0.0454903
-0.626783
0.630538
0.04937
-0.0543891
-0.534819
0.539838
0.0580645
-0.058881
-0.457486
0.458303
0.0521811
-0.0319768
-0.335773
0.315569
0.00988207
-0.0683517
0.0584697
-0.0529282
0.0489294
0.00399883
-0.0331824
0.0437364
-0.358088
0.347533
-0.0474431
0.0468216
-0.459273
0.459894
-0.0437714
0.0404239
-0.53579
0.539138
-0.0366581
0.0333608
-0.628514
0.631811
-0.0299308
0.0269058
-0.742629
0.745654
-0.0236538
0.0205526
-0.881996
0.885097
-0.0170275
0.0136526
-1.05075
1.05413
-0.0098641
0.00632924
-1.25515
1.25869
-0.00236388
-0.00143081
-1.50323
1.50703
0.00519437
-0.00906689
-1.50414
1.50801
0.0124761
-0.0160944
-1.25743
1.26105
0.0192966
-0.0226235
-1.05393
1.05726
0.0255484
-0.0286216
-0.885713
0.888787
0.0315018
-0.0347912
-0.747182
0.750471
0.0379712
-0.0416168
-0.63433
0.637975
0.0448609
-0.0477932
-0.544154
0.547086
0.048291
-0.0444103
-0.456593
0.452712
0.0336486
-0.0162104
-0.296214
0.278776
0.00406874
-0.0526535
0.0485847
-0.0458482
0.0433492
0.00249897
-0.0228315
0.0332226
-0.336834
0.326443
-0.0390552
0.0400795
-0.459573
0.458548
-0.0388962
0.0366151
-0.541852
0.544133
-0.033956
0.0313692
-0.634856
0.637443
-0.0283176
0.0254288
-0.748693
0.751582
-0.0221751
0.0191905
-0.888042
0.891027
-0.0158944
0.0128023
-1.05725
1.06034
-0.00928327
0.00587992
-1.26214
1.26554
-0.00192164
-0.00195958
-1.51091
1.51479
0.00579996
-0.00963626
-1.51191
1.51574
0.0128749
-0.0161715
-1.26449
1.26779
0.0190373
-0.0220727
-1.06036
1.0634
0.0248228
-0.0278364
-0.891853
0.894866
0.0305285
-0.0333877
-0.753687
0.756547
0.0358148
-0.0383124
-0.641048
0.643546
0.0404537
-0.0414535
-0.548897
0.549896
0.0402377
-0.0341256
-0.447442
0.44133
0.0234297
-0.0102243
-0.263569
0.250364
0.00258523
-0.0454255
0.0428403
-0.0412704
0.0394993
0.00177111
-0.0167758
0.0260427
-0.316576
0.307309
-0.032664
0.034815
-0.456939
0.454788
-0.0344037
0.0327414
-0.546104
0.547766
-0.0305711
0.028487
-0.639742
0.641826
-0.0260693
0.0236846
-0.754218
0.756602
-0.0208397
0.0180621
-0.89391
0.896688
-0.0148375
0.0117781
-1.06337
1.06643
-0.00829749
0.00497931
-1.26885
1.27217
-0.00115203
-0.00257856
-1.51857
1.5223
0.00625716
-0.00992945
-1.51948
1.52316
0.0130389
-0.016237
-1.27104
1.27424
0.019008
-0.0218987
-1.06643
1.06932
0.0243743
-0.0269086
-0.897696
0.90023
0.0290384
-0.0312072
-0.75901
0.761178
0.0330873
-0.0350505
-0.645708
0.647672
0.0365098
-0.0366722
-0.550422
0.550585
0.0342273
-0.0271978
-0.434678
0.427648
0.017521
-0.00739254
-0.238847
0.228718
0.00187628
-0.0406661
0.0387898
-0.0379731
0.0366393
0.00133374
-0.012819
0.0207827
-0.298699
0.290736
-0.0275521
0.030489
-0.452215
0.449278
-0.030706
0.0295976
-0.549188
0.550296
-0.0276159
0.025712
-0.643853
0.645757
-0.0235269
0.021403
-0.75883
0.760954
-0.0189021
0.0164312
-0.899246
0.901717
-0.0135022
0.0106349
-1.06935
1.07222
-0.00728486
0.00405266
-1.27541
1.27864
-0.000311478
-0.00331526
-1.52595
1.52957
0.00687736
-0.0104249
-1.52676
1.5303
0.0133964
-0.0163941
-1.27737
1.28037
0.0189015
-0.0214125
-1.07205
1.07456
0.0235041
-0.0256136
-0.902537
0.904647
0.0274148
-0.0292834
-0.763177
0.765046
0.0309295
-0.0326613
-0.649499
0.651231
0.0334733
-0.0329085
-0.550387
0.549822
0.0295522
-0.0222247
-0.420413
0.413086
0.0137354
-0.00572508
-0.219751
0.21174
0.00146161
-0.0371473
0.0356857
-0.0354738
0.0344445
0.00102929
-0.0100259
0.0167607
-0.283413
0.276678
-0.0232662
0.0266575
-0.446095
0.442704
-0.0274551
0.026768
-0.55119
0.551877
-0.0250229
0.023252
-0.647643
0.649414
-0.0211976
0.0191956
-0.763012
0.765014
-0.0168396
0.0145261
-0.904036
0.90635
-0.0118017
0.0091288
-1.07491
1.07759
-0.00598317
0.00290815
-1.28175
1.28483
0.000693586
-0.00420076
-1.53312
1.53663
0.00762819
-0.0109906
-1.53376
1.53712
0.0137439
-0.0164554
-1.28323
1.28594
0.0186843
-0.0208925
-1.07694
1.07915
0.022736
-0.0246068
-0.906648
0.908519
0.0262083
-0.0278693
-0.766811
0.768472
0.0293206
-0.0307212
-0.652816
0.654217
0.0310418
-0.0297503
-0.548907
0.547616
0.0257821
-0.0185431
-0.405778
0.398539
0.0111484
-0.0046182
-0.204541
0.198011
0.00118484
-0.0343791
0.0331943
-0.0335403
0.032737
0.000803265
-0.00795641
0.0136209
-0.270509
0.264844
-0.0196441
0.0232355
-0.439205
0.435613
-0.0245139
0.0240776
-0.552477
0.552913
-0.022602
0.0209427
-0.651183
0.652843
-0.018985
0.0170704
-0.766966
0.76888
-0.0148086
0.0125853
-0.908548
0.910771
-0.00996804
0.00740995
-1.08013
1.08268
-0.00441111
0.00148376
-1.28777
1.2907
0.00194265
-0.00527371
-1.54002
1.54335
0.00850685
-0.0116399
-1.54035
1.54349
0.0141747
-0.0166446
-1.28854
1.29101
0.0186614
-0.020647
-1.08129
1.08327
0.0222924
-0.023956
-0.910312
0.911975
0.0253761
-0.0268468
-0.770039
0.77151
0.0281064
-0.0291354
-0.655409
0.656438
0.0290856
-0.0271346
-0.545997
0.544046
0.0227736
-0.0158108
-0.391434
0.384472
0.00932762
-0.00385011
-0.192058
0.18658
0.000992252
-0.0321189
0.0311266
-0.0320313
0.0314031
0.00062814
-0.00636045
0.0111116
-0.259666
0.254915
-0.0165481
0.0201434
-0.432023
0.428427
-0.0217489
0.0215417
-0.553277
0.553485
-0.0203019
0.0187015
-0.654524
0.656124
-0.0168014
0.0149386
-0.770758
0.772621
-0.0127394
0.0105789
-0.912883
0.915043
-0.00803576
0.00555337
-1.08512
1.0876
-0.00265146
-0.000164552
-1.29351
1.29633
0.00343243
-0.00657972
-1.54655
1.5497
0.00960747
-0.0125179
-1.54649
1.5494
0.0148558
-0.0171134
-1.29339
1.29565
0.0189358
-0.0207072
-1.08521
1.08698
0.0221607
-0.0236289
-0.913568
0.915036
0.0248873
-0.0261897
-0.772898
0.7742
0.0273102
-0.027929
-0.657247
0.657866
0.0275134
-0.0250104
-0.541833
0.53933
0.020414
-0.0137938
-0.377692
0.371072
0.00803318
-0.00331116
-0.18152
0.176798
0.000857712
-0.0302129
0.0293552
-0.0308548
0.0303684
0.00048641
-0.00507693
0.00904153
-0.250585
0.24662
-0.0138484
0.0173005
-0.424916
0.421464
-0.019096
0.0190852
-0.553644
0.553654
-0.0180437
0.0164822
-0.657775
0.659336
-0.0146081
0.0127644
-0.774457
0.776301
-0.0105886
0.00845634
-0.917096
0.919228
-0.0059549
0.00352272
-1.08997
1.0924
-0.000692856
-0.00203616
-1.29904
1.30177
0.00517762
-0.00817229
-1.55272
1.55572
0.0110215
-0.0137288
-1.55218
1.55489
0.0158788
-0.0179297
-1.29781
1.29986
0.0195628
-0.0211271
-1.08871
1.09027
0.0223975
-0.023683
-0.916442
0.917728
0.0247923
-0.0259389
-0.775422
0.776568
0.0268686
-0.027123
-0.658288
0.658542
0.0263121
-0.0233416
-0.536609
0.533639
0.0186092
-0.0123254
-0.364642
0.358358
0.00711913
-0.0029372
-0.172381
0.168199
0.000765859
-0.0285541
0.0277883
-0.02995
0.0295834
0.000366679
-0.00400283
0.0072772
-0.243027
0.239752
-0.0114432
0.0146426
-0.418158
0.414959
-0.0165017
0.0166521
-0.553642
0.553492
-0.0156936
0.0142095
-0.660933
0.662417
-0.0123327
0.0104746
-0.778129
0.779987
-0.00828459
0.00614796
-0.921258
0.923394
-0.00365578
0.00124742
-1.09472
1.09713
0.00153731
-0.00420415
-1.30439
1.30706
0.00724827
-0.0101171
-1.55861
1.56147
0.0128091
-0.0153253
-1.55748
1.55999
0.0172886
-0.0191282
-1.30182
1.30366
0.0205685
-0.0219246
-1.09181
1.09317
0.023014
-0.0241223
-0.918963
0.920071
0.0250868
-0.0260659
-0.777628
0.778607
0.0267455
-0.0267067
-0.658668
0.658629
0.0254863
-0.0221096
-0.530483
0.527107
0.0172903
-0.0112923
-0.352245
0.346247
0.00649411
-0.00268797
-0.164236
0.16043
0.000706585
-0.0270628
0.0263562
-0.0292776
0.0290175
0.000260077
-0.00306262
0.00571477
-0.236814
0.234162
-0.00924134
0.0121068
-0.411953
0.409087
-0.0139176
0.0141557
-0.553365
0.553127
-0.0132457
0.0118059
-0.663962
0.665402
-0.00990434
0.00800495
-0.781834
0.783733
-0.00576781
0.00359409
-0.925429
0.927603
-0.00107168
-0.00135007
-1.09944
1.10186
0.00412831
-0.00676244
-1.30963
1.31226
0.00973315
-0.0124907
-1.56424
1.56699
0.015035
-0.0173685
-1.56239
1.56472
0.0191539
-0.0207926
-1.3054
1.30704
0.0220464
-0.0231938
-1.09452
1.09567
0.0240976
-0.0250257
-0.921136
0.922064
0.0258444
-0.0266543
-0.779494
0.780304
0.0270503
-0.0267507
-0.658455
0.658156
0.0250884
-0.0213229
-0.523557
0.519791
0.0164188
-0.0106247
-0.340388
0.334594
0.00610295
-0.00253923
-0.156776
0.153212
0.00067391
-0.0256776
0.0250037
-0.0288153
0.0286565
0.000158859
-0.0021923
0.00426066
-0.231826
0.229757
-0.00714325
0.00960529
-0.406455
0.403993
-0.0112618
0.0115121
-0.552963
0.552713
-0.0106209
0.00919284
-0.666931
0.668359
-0.00724248
0.00527402
-0.785622
0.787591
-0.00295437
0.00070968
-0.929678
0.931923
0.00187995
-0.00434779
-1.10418
1.10665
0.00715394
-0.00978624
-1.31481
1.31744
0.0127155
-0.0153875
-1.56965
1.57232
0.0178011
-0.0199584
-1.56693
1.56909
0.021564
-0.0229952
-1.30858
1.31002
0.0240543
-0.0249797
-1.09683
1.09776
0.0256818
-0.0264118
-0.922947
0.923677
0.0270764
-0.0277408
-0.781006
0.78167
0.0278307
-0.0271642
-0.65763
0.656963
0.0250737
-0.0209304
-0.51588
0.511737
0.0159245
-0.0102494
-0.328906
0.323231
0.00589378
-0.00246755
-0.149751
0.146324
0.000661242
-0.0243487
0.0236874
-0.0285552
0.0284989
5.6352e-05
-0.00134335
0.00284254
-0.227996
0.226497
-0.00506718
0.00706248
-0.4018
0.399805
-0.00846132
0.00864047
-0.552596
0.552417
-0.00771886
0.00626235
-0.669911
0.671368
-0.00422214
0.00215164
-0.78955
0.791621
0.00028664
-0.00263506
-0.934066
0.936414
0.00532831
-0.00787658
-1.10902
1.11157
0.0107472
-0.0134071
-1.31999
1.32265
0.016318
-0.0189164
-1.57489
1.57749
0.0212026
-0.0231822
-1.57112
1.5731
0.0246062
-0.0258242
-1.31134
1.31256
0.0266772
-0.0273644
-1.09871
1.0994
0.027853
-0.0283697
-0.924372
0.924889
0.0288703
-0.0293311
-0.782154
0.782615
0.0291451
-0.028057
-0.656052
0.654964
0.0255046
-0.0209572
-0.507461
0.502913
0.0157993
-0.0101419
-0.317623
0.311965
0.00584751
-0.0024651
-0.142956
0.139574
0.00066703
-0.0230373
0.0223703
-0.0285001
0.0285528
-5.26875e-05
-0.000467367
0.00139149
-0.225308
0.224383
-0.00293122
0.0043961
-0.398112
0.396647
-0.00543782
0.00546438
-0.552434
0.552408
-0.00445964
0.00292183
-0.672995
0.674533
-0.000761644
-0.00144843
-0.793683
0.795893
0.00405077
-0.00654678
-0.938662
0.941158
0.00939182
-0.0120614
-1.11403
1.1167
0.0150358
-0.0177526
-1.32523
1.32794
0.0206713
-0.0232127
-1.57999
1.58253
0.0253774
-0.0271727
-1.57495
1.57674
0.0284026
-0.0293913
-1.31365
1.31464
0.0300286
-0.0304733
-1.10014
1.10059
0.0307367
-0.0310238
-0.925374
0.925661
0.0313337
-0.0315245
-0.782779
0.78297
0.0310642
-0.0294561
-0.653625
0.652017
0.0264018
-0.0214068
-0.498246
0.493251
0.0160287
-0.0102815
-0.306332
0.300585
0.00594844
-0.00252458
-0.136211
0.132787
0.000689149
-0.0217076
0.0210184
-0.0286624
0.0288322
-0.000169742
0.000459198
-0.000147642
-0.223784
0.223472
-0.000658952
0.00151648
-0.39552
0.394662
-0.00209171
0.00187256
-0.552652
0.552871
-0.00071529
-0.000962059
-0.676292
0.677969
0.00328686
-0.00567913
-0.798093
0.800486
0.00849343
-0.0111802
-0.943555
0.946242
0.0142233
-0.0170553
-1.11929
1.12212
0.0201771
-0.0229873
-1.33059
1.3334
0.0259452
-0.028446
-1.58498
1.58748
0.0304943
-0.0320992
-1.57839
1.58
0.0331218
-0.0338543
-1.31548
1.31621
0.0342484
-0.0344281
-1.10107
1.10125
0.0344499
-0.0344869
-0.925911
0.925948
0.0345978
-0.0344456
-0.782776
0.782624
0.0336295
-0.0314277
-0.650203
0.648001
0.0278114
-0.0222979
-0.488133
0.48262
0.0166105
-0.0106565
-0.294814
0.28886
0.00618633
-0.00264067
-0.129347
0.125801
0.000725939
-0.0203277
0.0196017
-0.029082
0.0293932
-0.000311213
0.00146219
-0.00179525
-0.223517
0.22385
0.00182643
-0.0016794
-0.394164
0.394017
0.00169931
-0.00227149
-0.553457
0.554029
0.00365178
-0.0055288
-0.67992
0.681797
0.00809099
-0.0107228
-0.802866
0.805498
0.013807
-0.0167354
-0.94883
0.951758
0.0200313
-0.0230732
-1.12488
1.12792
0.0263879
-0.0293229
-1.33614
1.33907
0.0323394
-0.0347997
-1.58987
1.59234
0.0367171
-0.0381071
-1.58144
1.58283
0.0389008
-0.0393487
-1.31677
1.31722
0.0394804
-0.0393715
-1.10143
1.10132
0.0391255
-0.0388884
-0.925919
0.925682
0.0387863
-0.0381814
-0.782011
0.781406
0.0369187
-0.0340501
-0.645642
0.642773
0.0297882
-0.0236547
-0.476969
0.470835
0.0175486
-0.0112613
-0.282832
0.276544
0.00655494
-0.00280978
-0.122204
0.118459
0.000776216
-0.0188689
0.0180927
-0.0297757
0.0302588
-0.000483032
0.00272169
-0.00379341
-0.224568
0.22564
0.00469194
-0.00534371
-0.394241
0.394893
0.00608467
-0.00710982
-0.555098
0.556123
0.00880228
-0.0109469
-0.684013
0.686158
0.0138225
-0.0167631
-0.808117
0.811058
0.0201931
-0.0234321
-0.954597
0.957836
0.0270514
-0.0303586
-1.1309
1.1342
0.0339131
-0.0370018
-1.34193
1.34502
0.0400925
-0.04251
-1.59468
1.5971
0.0442708
-0.0454023
-1.58402
1.58515
0.0459091
-0.0460571
-1.31746
1.31761
0.0459012
-0.0454694
-1.10116
1.10073
0.0449278
-0.0443918
-0.925325
0.924789
0.0439686
-0.0429202
-0.780337
0.779289
0.0410864
-0.0374244
-0.63977
0.636108
0.0323978
-0.0255089
-0.464538
0.457649
0.0188525
-0.0120935
-0.270129
0.26337
0.0070488
-0.00302786
-0.114629
0.110608
0.000838344
-0.0173051
0.0164668
-0.0308186
0.0315189
-0.000700311
0.00420177
-0.00615243
-0.227145
0.229096
0.00811473
-0.00965987
-0.395977
0.397522
0.0112298
-0.0128384
-0.557816
0.559425
0.0149915
-0.0175007
-0.688712
0.691221
0.0207854
-0.0241121
-0.813984
0.81731
0.027969
-0.0315879
-0.960995
0.964614
0.0355984
-0.0392231
-1.13745
1.14108
0.0430611
-0.0463272
-1.34804
1.3513
0.049495
-0.0518494
-1.59938
1.60174
0.0534167
-0.0542407
-1.58607
1.58689
0.0544057
-0.0542039
-1.31747
1.31726
0.0537145
-0.0529173
-1.10018
1.09938
0.0520432
-0.0511618
-0.924065
0.923184
0.0503319
-0.0487741
-0.777766
0.776208
0.0462352
-0.0416332
-0.632334
0.627732
0.0356934
-0.0278802
-0.45056
0.442747
0.0205208
-0.0131414
-0.256424
0.249045
0.00765582
-0.00328729
-0.106472
0.102103
0.000909471
-0.015614
0.0147045
-0.0322938
0.0332808
-0.000986958
0.00607689
-0.00908717
-0.231501
0.234511
0.0122849
-0.0148859
-0.39964
0.402241
0.0174282
-0.0197522
-0.561895
0.564219
0.0225132
-0.0255129
-0.694221
0.697221
0.0293449
-0.033159
-0.820635
0.824449
0.0375449
-0.0416257
-0.968163
0.972244
0.0461029
-0.0500962
-1.14465
1.14864
0.0542483
-0.0576901
-1.35448
1.35792
0.0608989
-0.0631275
-1.60392
1.60615
0.0644269
-0.0648629
-1.58747
1.5879
0.064631
-0.0639904
-1.31666
1.31602
0.063115
-0.0618988
-1.09837
1.09716
0.0606531
-0.0594255
-0.922036
0.920809
0.0580554
-0.0558862
-0.774163
0.771994
0.0525017
-0.0467614
-0.623022
0.617282
0.0397144
-0.0307687
-0.43469
0.425744
0.0225333
-0.0143783
-0.241422
0.233267
0.00835329
-0.00357509
-0.0975941
0.0928159
0.000985113
-0.0137797
0.0127946
-0.0343291
0.0357128
-0.00138372
0.00853138
-0.0128854
-0.237969
0.242323
0.0175659
-0.0213942
-0.405601
0.409429
0.025064
-0.0282476
-0.567671
0.570854
0.0317879
-0.0354373
-0.700813
0.704463
0.0399708
-0.0444043
-0.828271
0.832704
0.0494403
-0.0540732
-0.976269
0.980902
0.0590884
-0.0634818
-1.15257
1.15697
0.0679418
-0.0715175
-1.36124
1.36481
0.0746855
-0.0766852
-1.60814
1.61014
0.0776015
-0.0775319
-1.58801
1.58794
0.0768205
-0.0756189
-1.31487
1.31366
0.074301
-0.0726196
-1.09562
1.09394
0.0709708
-0.0693075
-0.919198
0.917535
0.0673591
-0.0644333
-0.769308
0.766382
0.0600013
-0.0528662
-0.611429
0.604294
0.0444693
-0.0341433
-0.416511
0.406185
0.0248409
-0.0157544
-0.224819
0.215732
0.00910287
-0.00387073
-0.0878813
0.0826492
0.00105839
-0.0117966
0.0107382
-0.0371214
0.0390716
-0.00195016
0.0119593
-0.0180169
-0.247062
0.25312
0.0244858
-0.0297493
-0.414349
0.419613
0.0347501
-0.0389856
-0.575526
0.579761
0.0435235
-0.0480226
-0.708821
0.71332
0.0534624
-0.0586635
-0.837146
0.842347
0.0644709
-0.0697236
-0.985489
0.990742
0.0752986
-0.0800621
-1.16127
1.16603
0.0847444
-0.0883336
-1.36819
1.37178
0.0912876
-0.0928721
-1.6118
1.61339
0.0932218
-0.092476
-1.58746
1.58671
0.0911499
-0.0892877
-1.31187
1.31001
0.0874323
-0.0852573
-1.0918
1.08962
0.0831865
-0.080921
-0.915353
0.913088
0.0784225
-0.0745014
-0.762833
0.758911
0.0687724
-0.0599298
-0.597025
0.588183
0.0498941
-0.0379065
-0.395538
0.38355
0.0273384
-0.0171796
-0.20632
0.196161
0.00984107
-0.00414261
-0.077262
0.0715635
0.00111935
-0.0096738
0.00855445
-0.0409911
0.0438229
-0.00283179
0.0169337
-0.0252427
-0.259502
0.267811
0.0339249
-0.040909
-0.426558
0.433542
0.047532
-0.053061
-0.58595
0.591479
0.0588663
-0.0644709
-0.718671
0.724275
0.0710633
-0.0771642
-0.847537
0.853638
0.0837954
-0.0896415
-0.995924
1.00177
0.0956768
-0.100662
-1.17062
1.17561
0.105349
-0.108714
-1.37503
1.3784
0.111166
-0.112064
-1.61449
1.61539
0.1116
-0.10996
-1.58544
1.5838
0.107855
-0.10521
-1.30749
1.30485
0.102708
-0.0999561
-1.08677
1.08402
0.0974163
-0.094457
-0.91012
0.90716
0.0912981
-0.0861136
-0.754238
0.749053
0.0787742
-0.0678376
-0.579149
0.568213
0.0558256
-0.0418733
-0.371234
0.357282
0.0298498
-0.0185157
-0.185685
0.174351
0.010476
-0.00434777
-0.0657398
0.0596115
0.00115522
-0.00744097
0.00628574
-0.0465076
0.0508219
-0.00431425
0.0246378
-0.0360001
-0.276461
0.287824
0.0475395
-0.0568271
-0.443247
0.452535
0.0654695
-0.0725422
-0.599557
0.60663
0.079902
-0.0869706
-0.730787
0.737856
0.0947447
-0.101663
-0.859633
0.866551
0.108945
-0.115154
-1.00744
1.01365
0.121319
-0.126175
-1.18024
1.18509
0.130446
-0.133196
-1.38122
1.38397
0.134725
-0.134575
-1.6156
1.61545
0.132987
-0.130181
-1.58148
1.57868
0.127097
-0.123492
-1.30145
1.29784
0.120245
-0.116834
-1.0804
1.07699
0.113758
-0.110049
-0.903319
0.899611
0.105949
-0.0991196
-0.742941
0.736111
0.0897578
-0.0762756
-0.556969
0.543486
0.0619318
-0.0457338
-0.34305
0.326852
0.0321091
-0.0195692
-0.162797
0.150257
0.0108838
-0.00442996
-0.0534357
0.0469818
0.00114892
-0.00515291
0.00400399
-0.0547331
0.0620957
-0.0073626
0.038035
-0.0538803
-0.300072
0.315917
0.0694671
-0.081964
-0.466095
0.478592
0.092776
-0.101218
-0.616786
0.625228
0.110101
-0.11845
-0.745502
0.753851
0.127153
-0.134459
-0.873157
0.880463
0.141792
-0.147755
-1.01941
1.02537
0.153385
-0.157496
-1.18928
1.19339
0.160718
-0.162272
-1.38587
1.38742
0.162307
-0.160611
-1.61434
1.61264
0.157483
-0.153194
-1.57502
1.57073
0.148903
-0.144158
-1.29338
1.28864
0.140045
-0.135905
-1.07246
1.06832
0.132156
-0.127614
-0.894775
0.890234
0.122184
-0.113182
-0.728064
0.719062
0.101209
-0.0846031
-0.529427
0.512821
0.0676091
-0.0490431
-0.310499
0.291933
0.0338062
-0.0201659
-0.137767
0.124127
0.0109632
-0.00434234
-0.0406432
0.0340224
0.00107582
-0.00289335
0.00181753
-0.0689429
0.073046
-0.00410309
0.0289855
-0.0428364
-0.334281
0.348132
0.056743
-0.0682926
-0.496524
0.508074
0.0785424
-0.0880892
-0.637267
0.646814
0.0986919
-0.108527
-0.761648
0.771483
0.119435
-0.129037
-0.886741
0.896342
0.13918
-0.148124
-1.0304
1.03934
0.157392
-0.165223
-1.1964
1.20423
0.172846
-0.178696
-1.38777
1.39362
0.183545
-0.186171
-1.6097
1.61232
0.186547
-0.185246
-1.56536
1.56406
0.182895
-0.179622
-1.28292
1.27965
0.176682
-0.173204
-1.06272
1.05924
0.170089
-0.165501
-0.883833
0.879246
0.158046
-0.144845
-0.708343
0.695142
0.127051
-0.103392
-0.495467
0.471807
0.0803335
-0.0561635
-0.273289
0.249119
0.0373959
-0.0214809
-0.1111
0.0951851
0.011225
-0.00423905
-0.027889
0.020903
0.000971599
-0.000745797
-0.000225802
-0.0803727
0.0784547
0.00191804
0.0076208
-0.0165264
-0.364654
0.37356
0.0270488
-0.0353645
-0.524184
0.5325
0.0436707
-0.0515254
-0.659034
0.666889
0.061183
-0.0702662
-0.780787
0.78987
0.0799626
-0.0887458
-0.905291
0.914074
0.0980022
-0.105812
-1.04797
1.05578
0.114066
-0.120642
-1.21181
1.21838
0.126951
-0.131446
-1.39905
1.40355
0.134547
-0.135607
-1.61402
1.61508
0.134467
-0.131639
-1.56198
1.55915
0.127744
-0.122849
-1.27572
1.27082
0.118316
-0.113321
-1.05387
1.04887
0.108575
-0.102643
-0.869828
0.863897
0.0948447
-0.0832372
-0.678196
0.666589
0.0697441
-0.0536472
-0.4467
0.430603
0.0394473
-0.0262172
-0.225273
0.212043
0.0168188
-0.00939503
-0.0801446
0.0727209
0.0048021
-0.00178225
-0.0141818
0.011162
0.00038878
0.0014281
-0.00181688
-0.0817864
0.0789321
0.00285422
-0.00119896
-0.00385743
-0.385217
0.390273
0.0108069
-0.0168422
-0.54464
0.550675
0.0229524
-0.0297327
-0.677315
0.684095
0.0380917
-0.0459501
-0.798023
0.805881
0.0545529
-0.0621829
-0.922023
0.929653
0.0699681
-0.0768944
-1.0634
1.07032
0.0839868
-0.0896953
-1.22448
1.23019
0.0946797
-0.0979559
-1.40732
1.4106
0.100007
-0.0998863
-1.61535
1.61523
0.0975718
-0.093568
-1.55558
1.55158
0.0887293
-0.0830182
-1.26554
1.25982
0.0773355
-0.0712471
-1.04229
1.0362
0.0654721
-0.0587634
-0.85418
0.847471
0.0516978
-0.0421794
-0.651822
0.642304
0.0325297
-0.022354
-0.412882
0.402707
0.0148635
-0.00905676
-0.198227
0.19242
0.00552612
-0.00310792
-0.0651687
0.0627505
0.00163376
-0.000647522
-0.0079218
0.00693556
0.000146072
0.00245769
-0.00260377
-0.0805831
0.0778185
0.00276459
-0.00493632
0.00242996
-0.398837
0.401344
0.00204911
-0.00657057
-0.559788
0.564309
0.011703
-0.0173758
-0.692321
0.697994
0.024537
-0.0312657
-0.813072
0.819801
0.0385895
-0.0451078
-0.936699
0.943218
0.0521363
-0.0579712
-1.07679
1.08262
0.0641026
-0.0685596
-1.23545
1.23991
0.0726846
-0.0752117
-1.41358
1.41611
0.0762916
-0.0751297
-1.61459
1.61343
0.0722304
-0.0676871
-1.54693
1.54239
0.0623714
-0.0557676
-1.25369
1.24709
0.0495489
-0.0427638
-1.02885
1.02207
0.0362208
-0.029312
-0.837673
0.830764
0.0226661
-0.0152516
-0.629824
0.62241
0.00884911
-0.0036559
-0.391428
0.386234
0.000936803
0.000329803
-0.185187
0.18392
-0.000687037
0.00045734
-0.0593646
0.0595943
-0.000275097
8.48151e-05
-0.00541842
0.0056087
-3.01481e-05
0.00303169
-0.00300154
-0.0791084
0.076674
0.00243444
-0.00612638
0.00519116
-0.407967
0.408902
-0.00183454
-0.00151608
-0.571884
0.575235
0.00560327
-0.0107349
-0.704911
0.710042
0.0167487
-0.0226587
-0.825808
0.831718
0.0289955
-0.0346549
-0.949256
0.954915
0.0406753
-0.04585
-1.0883
1.09348
0.0510009
-0.0550366
-1.2442
1.24823
0.0584494
-0.0603781
-1.41821
1.42014
0.0608542
-0.0591968
-1.61203
1.61038
0.0558742
-0.0507631
-1.5371
1.53199
0.0451584
-0.0383985
-1.2403
1.23354
0.0319254
-0.0246866
-1.01436
1.00712
0.018034
-0.011016
-0.821408
0.81439
0.00506181
0.000845312
-0.612413
0.606506
-0.00495227
0.00711802
-0.378734
0.376568
-0.00728078
0.00622318
-0.180533
0.18159
-0.0047671
0.00307576
-0.0590506
0.0607419
-0.00178216
0.000708789
-0.00539263
0.006466
-0.000184529
0.00319801
-0.00301348
-0.077751
0.0756773
0.00207373
-0.00604854
0.00560232
-0.414255
0.414701
-0.00359176
0.000865603
-0.581215
0.583941
0.00313228
-0.00753082
-0.715563
0.719962
0.0126987
-0.0178227
-0.836819
0.841943
0.0234496
-0.0285101
-0.960205
0.965266
0.0340203
-0.0385466
-1.09836
1.10289
0.0431554
-0.0467437
-1.25196
1.25555
0.0496637
-0.0511948
-1.42176
1.42329
0.0512677
-0.0496786
-1.60858
1.60699
0.0460884
-0.0409472
-1.52638
1.52123
0.0352411
-0.0284246
-1.22653
1.21972
0.0221418
-0.0147584
-0.999355
0.991972
0.00807878
-0.00127178
-0.805602
0.798795
-0.00424555
0.00901289
-0.598158
0.59339
-0.0119129
0.0128328
-0.371356
0.370436
-0.0116374
0.00948813
-0.180635
0.182784
-0.00729165
0.00480254
-0.0617821
0.0642712
-0.00282097
0.00117962
-0.00726721
0.00890856
-0.000315779
0.0029365
-0.00262072
-0.0767363
0.0751274
0.00160897
-0.00518192
0.00505606
-0.418959
0.419085
-0.00338423
0.00132975
-0.589378
0.591432
0.00241784
-0.00641997
-0.724794
0.728797
0.0113262
-0.0157352
-0.846671
0.85108
0.0206728
-0.0251575
-0.970275
0.97476
0.0303848
-0.0344876
-1.10743
1.11153
0.0385695
-0.0419444
-1.25894
1.26231
0.0449835
-0.0463227
-1.42481
1.42615
0.0463887
-0.0446491
-1.60497
1.60323
0.0413748
-0.0361009
-1.51587
1.51059
0.0307228
-0.0242859
-1.21275
1.20632
0.0180953
-0.0111491
-0.984393
0.977446
0.00464875
0.00211225
-0.790545
0.783784
-0.00714109
0.0113615
-0.585893
0.581673
-0.0138609
0.0143937
-0.366465
0.365932
-0.0131866
0.0108579
-0.182883
0.185212
-0.0084403
0.00563812
-0.066092
0.0688942
-0.00337487
0.00146025
-0.010229
0.0121437
-0.0004049
0.00238495
-0.00198005
-0.0762308
0.0749815
0.00124928
-0.00409384
0.00408875
-0.422729
0.422735
-0.00253619
0.000582296
-0.59649
0.598444
0.00296759
-0.00657585
-0.733088
0.736696
0.0107792
-0.0150235
-0.855448
0.859693
0.0195827
-0.0242094
-0.979031
0.983658
0.0287014
-0.0326148
-1.11573
1.11964
0.0368203
-0.0399542
-1.26555
1.26868
0.0425027
-0.0442294
-1.42738
1.42911
0.0444419
-0.0429741
-1.60154
1.60007
0.039858
-0.0351743
-1.50556
1.50087
0.030139
-0.0240323
-1.19961
1.1935
0.0182292
-0.0116249
-0.970225
0.963621
0.00550166
0.000743548
-0.776238
0.769993
-0.00586242
0.0098354
-0.574671
0.570698
-0.0120719
0.0129608
-0.362622
0.361733
-0.0122534
0.0102303
-0.185316
0.187339
-0.00808062
0.00548855
-0.070704
0.0732961
-0.00335276
0.00149218
-0.0135876
0.0154482
-0.000430624
0.00167582
-0.00124519
-0.0762706
0.0752315
0.00103917
-0.0027929
0.00253693
-0.426143
0.426399
-0.00117476
-0.000786894
-0.603033
0.604995
0.00407101
-0.0075689
-0.740804
0.744302
0.011608
-0.015453
-0.863748
0.867593
0.0201318
-0.0239614
-0.987685
0.991515
0.0284234
-0.0321663
-1.12371
1.12745
0.0362574
-0.0395803
-1.27179
1.27511
0.042421
-0.0439322
-1.43058
1.43209
0.0444879
-0.0434315
-1.59854
1.59748
0.0409821
-0.0366155
-1.49611
1.49175
0.0320056
-0.026302
-1.18754
1.18184
0.0209155
-0.0147109
-0.956733
0.950528
0.00913057
-0.00315649
-0.762938
0.756964
-0.00176761
0.00586654
-0.564174
0.560075
-0.00824545
0.0093019
-0.358449
0.357393
-0.00927127
0.00803481
-0.187069
0.188305
-0.00651795
0.00452711
-0.074728
0.0767188
-0.00282215
0.00130032
-0.0166912
0.018213
-0.000391533
0.000948012
-0.000556479
-0.0766095
0.0758858
0.000723729
-0.00163455
0.000897674
-0.429659
0.430396
0.000285114
-0.00238082
-0.608849
0.610944
0.00535989
-0.00874029
-0.748006
0.751386
0.0126205
-0.0165988
-0.871316
0.875294
0.0206612
-0.0246585
-0.995544
0.999541
0.0290881
-0.0326271
-1.13161
1.13515
0.0368228
-0.0401148
-1.27823
1.28152
0.0430236
-0.0450806
-1.43401
1.43607
0.0461479
-0.0454029
-1.59648
1.59573
0.0431975
-0.0395392
-1.48757
1.48392
0.0354811
-0.0302033
-1.17607
1.17079
0.0251784
-0.0196886
-0.944265
0.938775
0.0141852
-0.00870289
-0.750328
0.744846
0.00390481
0.000494798
-0.554144
0.549744
-0.00308329
0.00467304
-0.353639
0.352049
-0.00520883
0.00492084
-0.187599
0.187887
-0.00413594
0.00298237
-0.0774525
0.078606
-0.00194168
0.000936203
-0.0190465
0.020052
-0.000297608
0.000329866
-3.22585e-05
-0.077365
0.076804
0.000560997
-0.000655884
-4.00726e-05
-0.433421
0.434117
0.0017782
-0.00373897
-0.614772
0.616733
0.00690649
-0.0101745
-0.75472
0.757988
0.0139202
-0.0175055
-0.878954
0.882539
0.0217018
-0.0253933
-1.00353
1.00722
0.0297813
-0.0337722
-1.13914
1.14313
0.0376228
-0.0412578
-1.28485
1.28849
0.044612
-0.0467861
-1.43802
1.4402
0.0482574
-0.0483
-1.59521
1.59525
0.0465504
-0.0435269
-1.48014
1.47712
0.0397432
-0.0350558
-1.16564
1.16096
0.0306053
-0.0254435
-0.932918
0.927756
0.0204349
-0.0151246
-0.738532
0.733222
0.0103991
-0.00571464
-0.543885
0.5392
0.0025046
-0.000257241
-0.347973
0.345725
-0.00106235
0.00157883
-0.186457
0.18594
-0.00159318
0.00128125
-0.0785312
0.0788431
-0.000907792
0.000484996
-0.0203688
0.0207916
-0.00017289
-9.44811e-05
0.000267371
-0.0784044
0.0780229
0.00038149
0.000411645
-0.0013031
-0.437348
0.438239
0.00292205
-0.00519501
-0.620324
0.622597
0.00831125
-0.0114409
-0.761209
0.764339
0.0152886
-0.0187362
-0.886109
0.889557
0.022785
-0.0266077
-1.01138
1.01521
0.0309173
-0.0348858
-1.14697
1.15094
0.0389742
-0.0426566
-1.29204
1.29572
0.0462183
-0.0491644
-1.44266
1.4456
0.051104
-0.0514615
-1.59523
1.59559
0.0504076
-0.0477645
-1.47402
1.47137
0.0446312
-0.0406174
-1.15632
1.1523
0.0363449
-0.0315028
-0.922345
0.917503
0.0267267
-0.0214064
-0.727234
0.721913
0.0167399
-0.0117311
-0.533555
0.528546
0.00801846
-0.00491516
-0.341213
0.338109
0.00293085
-0.00155274
-0.183636
0.182258
0.000670183
-0.000148723
-0.0779615
0.07744
-9.52324e-05
0.000157244
-0.0205873
0.0205253