/*--------------------------------*- C++ -*----------------------------------*\
  =========                 |
  \\      /  F ield         | OpenFOAM: The Open Source CFD Toolbox
   \\    /   O peration     | Website:  https://openfoam.org
    \\  /    A nd           | Version:  6
     \\/     M anipulation  |
\*---------------------------------------------------------------------------*/
FoamFile
{
    version     2.0;
    format      ascii;
    class       volVectorField;
    location    "57";
    object      U;
}
// * * * * * * * * * * * * * * * * * * * * * * * * * * * * * * * * * * * * * //

dimensions      [0 1 -1 0 0 0 0];

internalField   nonuniform List<vector> 
8800
(
(0.987195 -0.076706 0)
(1.0019 -0.0551783 0)
(0.99972 -0.028552 0)
(1.00002 -0.0151573 0)
(1.00007 -0.00856037 0)
(1.00008 -0.00506008 0)
(1.00005 -0.00301272 0)
(1.00002 -0.00171124 0)
(0.999998 -0.00080512 0)
(1.00006 -8.87038e-05 0)
(0.999987 0.000640159 0)
(0.999994 0.00140438 0)
(1.00002 0.00242803 0)
(1.00004 0.00400289 0)
(1.00004 0.00663715 0)
(1.00001 0.0113774 0)
(0.999892 0.0208174 0)
(0.999148 0.0386583 0)
(1.0071 0.0724577 0)
(0.771226 0.0366896 0)
(0.363034 -0.016016 0)
(1.04331 -0.0768306 0)
(1.08461 -0.0704507 0)
(1.04521 -0.0535569 0)
(1.02328 -0.0389113 0)
(1.012 -0.0262414 0)
(1.0064 -0.0168881 0)
(1.00358 -0.0103615 0)
(1.00215 -0.00570551 0)
(1.00145 -0.00205197 0)
(1.00132 0.00127128 0)
(1.00169 0.00465216 0)
(1.00266 0.008587 0)
(1.00466 0.0139291 0)
(1.00861 0.0216364 0)
(1.01658 0.0326055 0)
(1.03249 0.0465231 0)
(1.06266 0.0616465 0)
(1.09189 0.0760822 0)
(0.838677 0.0565763 0)
(0.216807 -0.00242239 0)
(1.07586 -0.0501614 0)
(1.09985 -0.0483487 0)
(1.06461 -0.0405022 0)
(1.03998 -0.0336476 0)
(1.02386 -0.0261339 0)
(1.01408 -0.0185589 0)
(1.00854 -0.0117451 0)
(1.00558 -0.00588196 0)
(1.00433 -0.000468069 0)
(1.00468 0.00477839 0)
(1.0066 0.0101685 0)
(1.0106 0.0162682 0)
(1.01793 0.0233013 0)
(1.03053 0.0307712 0)
(1.05061 0.0378117 0)
(1.08032 0.0445085 0)
(1.10625 0.0513331 0)
(0.942547 0.0416065 0)
(0.216174 0.0024516 0)
(0.17512 -0.000815671 0)
(1.01761 -0.0355106 0)
(1.10516 -0.0414233 0)
(1.07821 -0.0361179 0)
(1.05339 -0.0301947 0)
(1.03612 -0.024632 0)
(1.02394 -0.0189146 0)
(1.01585 -0.0128419 0)
(1.011 -0.00665847 0)
(1.00881 -0.000327369 0)
(1.0094 0.00592879 0)
(1.01266 0.0119292 0)
(1.01886 0.0177767 0)
(1.02877 0.0233649 0)
(1.04321 0.0286722 0)
(1.06373 0.0341657 0)
(1.09354 0.0401595 0)
(1.09343 0.0419318 0)
(0.827223 0.0228988 0)
(0.174052 0.000849021 0)
(0.153893 -0.000610963 0)
(0.956039 -0.0254911 0)
(1.10338 -0.0351845 0)
(1.0876 -0.0327218 0)
(1.06162 -0.028083 0)
(1.04401 -0.0230775 0)
(1.03157 -0.0178468 0)
(1.02274 -0.0123266 0)
(1.01694 -0.00639742 0)
(1.01412 6.74909e-05 0)
(1.01481 0.00653104 0)
(1.01879 0.0124196 0)
(1.0258 0.0177291 0)
(1.03612 0.0226611 0)
(1.05069 0.0274266 0)
(1.07193 0.0319711 0)
(1.10008 0.0359191 0)
(1.06813 0.0339936 0)
(0.739672 0.0142982 0)
(0.152283 0.000648778 0)
(0.139492 -0.000467927 0)
(0.899049 -0.019116 0)
(1.09566 -0.03015 0)
(1.09564 -0.029278 0)
(1.06912 -0.0255641 0)
(1.05069 -0.0214466 0)
(1.03779 -0.016694 0)
(1.0287 -0.0114227 0)
(1.02261 -0.00568855 0)
(1.0195 0.000632957 0)
(1.02015 0.00694684 0)
(1.02425 0.0125892 0)
(1.03139 0.0175728 0)
(1.04192 0.022055 0)
(1.05707 0.0260296 0)
(1.07926 0.0295107 0)
(1.10231 0.0321524 0)
(1.03609 0.0280732 0)
(0.673176 0.0101937 0)
(0.137221 0.000511495 0)
(0.128919 -0.000362999 0)
(0.849349 -0.0147603 0)
(1.0832 -0.0260327 0)
(1.10128 -0.0263505 0)
(1.07595 -0.0230871 0)
(1.05699 -0.0194674 0)
(1.04362 -0.0152441 0)
(1.03419 -0.0103416 0)
(1.02786 -0.00482553 0)
(1.02457 0.0013159 0)
(1.02508 0.00741986 0)
(1.02914 0.0127867 0)
(1.0364 0.0173608 0)
(1.04722 0.0212414 0)
(1.06276 0.0245555 0)
(1.0854 0.0275214 0)
(1.10144 0.0292963 0)
(1.00124 0.0235481 0)
(0.621424 0.00782699 0)
(0.125842 0.000414256 0)
(0.120841 -0.000282704 0)
(0.80708 -0.0116091 0)
(1.06784 -0.0224384 0)
(1.10476 -0.0237377 0)
(1.08217 -0.0208921 0)
(1.06279 -0.0174905 0)
(1.04915 -0.0135799 0)
(1.03944 -0.0090208 0)
(1.03283 -0.00378116 0)
(1.02931 0.00213619 0)
(1.02966 0.00798826 0)
(1.03368 0.0130082 0)
(1.041 0.0171162 0)
(1.05193 0.0204918 0)
(1.06769 0.0233983 0)
(1.09067 0.0260717 0)
(1.0977 0.0269592 0)
(0.966065 0.0199965 0)
(0.579866 0.00628939 0)
(0.116785 0.000343716 0)
(0.114568 -0.000219866 0)
(0.771463 -0.0092538 0)
(1.05096 -0.0192773 0)
(1.10709 -0.0213254 0)
(1.08799 -0.0188561 0)
(1.06823 -0.0156039 0)
(1.05436 -0.0118611 0)
(1.04445 -0.00751968 0)
(1.03761 -0.00253007 0)
(1.03381 0.00313003 0)
(1.03395 0.00868201 0)
(1.03785 0.0133258 0)
(1.04512 0.0170221 0)
(1.05606 0.0200135 0)
(1.07202 0.0225959 0)
(1.09466 0.02493 0)
(1.09115 0.0250134 0)
(0.931864 0.0172508 0)
(0.545496 0.00523798 0)
(0.109324 0.000292856 0)
(0.109666 -0.000169372 0)
(0.741555 -0.00742711 0)
(1.03364 -0.0164775 0)
(1.10845 -0.019054 0)
(1.09353 -0.0168958 0)
(1.07348 -0.0137394 0)
(1.05934 -0.0100932 0)
(1.04925 -0.00588282 0)
(1.04219 -0.0010765 0)
(1.03812 0.00432956 0)
(1.03798 0.00955612 0)
(1.04166 0.0138364 0)
(1.04879 0.0171662 0)
(1.05972 0.0198134 0)
(1.07587 0.0221128 0)
(1.09739 0.0240843 0)
(1.08218 0.0234075 0)
(0.899212 0.0151597 0)
(0.516267 0.00450324 0)
(0.102979 0.000257019 0)
(0.105852 -0.000127473 0)
(0.716536 -0.00595514 0)
(1.01668 -0.0139678 0)
(1.10898 -0.0168637 0)
(1.09896 -0.0149888 0)
(1.07865 -0.0118506 0)
(1.06421 -0.00824411 0)
(1.0539 -0.00410376 0)
(1.0466 0.00057766 0)
(1.04221 0.00576999 0)
(1.04172 0.0106946 0)
(1.04511 0.0146352 0)
(1.05206 0.0176254 0)
(1.06295 0.0199378 0)
(1.07929 0.0219715 0)
(1.09878 0.0235567 0)
(1.07118 0.0221401 0)
(0.868229 0.0136067 0)
(0.490735 0.00399494 0)
(0.0974099 0.000233226 0)
(0.102936 -9.11929e-05 0)
(0.695765 -0.00472169 0)
(1.00072 -0.0116795 0)
(1.1088 -0.0147132 0)
(1.10421 -0.0130373 0)
(1.0838 -0.00987085 0)
(1.06905 -0.00624697 0)
(1.05848 -0.00212595 0)
(1.05088 0.00247832 0)
(1.04612 0.00750544 0)
(1.0452 0.0121612 0)
(1.04822 0.0157706 0)
(1.05495 0.0184147 0)
(1.06579 0.0203931 0)
(1.08225 0.022168 0)
(1.09921 0.0233412 0)
(1.05845 0.0212076 0)
(0.838766 0.012498 0)
(0.467821 0.00365668 0)
(0.0923601 0.000218909 0)
(0.100798 -5.7885e-05 0)
(0.678768 -0.0036397 0)
(0.986182 -0.00954266 0)
(1.10815 -0.0125196 0)
(1.10927 -0.0109649 0)
(1.08902 -0.00774522 0)
(1.07392 -0.0040493 0)
(1.06304 0.000116038 0)
(1.05508 0.00470208 0)
(1.04984 0.00960215 0)
(1.04841 0.0140069 0)
(1.05101 0.0172987 0)
(1.05747 0.0196088 0)
(1.06823 0.0212456 0)
(1.08474 0.0227492 0)
(1.09866 0.0235202 0)
(1.04414 0.020645 0)
(0.810507 0.0117683 0)
(0.44668 0.00345263 0)
(0.087629 0.000212484 0)
(0.0993773 -2.52703e-05 0)
(0.665246 -0.00263928 0)
(0.973438 -0.0074814 0)
(1.10731 -0.0102238 0)
(1.11426 -0.00871633 0)
(1.09438 -0.00541022 0)
(1.07891 -0.00158096 0)
(1.06766 0.00269136 0)
(1.05924 0.00731511 0)
(1.05343 0.0121405 0)
(1.05137 0.0163258 0)
(1.05346 0.0192961 0)
(1.0596 0.0212589 0)
(1.07025 0.0225329 0)
(1.08677 0.0237679 0)
(1.09688 0.0240865 0)
(1.02835 0.0204103 0)
(0.783055 0.0113529 0)
(0.426635 0.00335384 0)
(0.0830571 0.00021199 0)
(0.0986575 8.80985e-06 0)
(0.655044 -0.00166555 0)
(0.962799 -0.00542331 0)
(1.10663 -0.00776029 0)
(1.11932 -0.00620212 0)
(1.09996 -0.00275202 0)
(1.08407 0.00127306 0)
(1.07237 0.00571191 0)
(1.0634 0.0104337 0)
(1.05688 0.0152202 0)
(1.05407 0.0191916 0)
(1.05554 0.0218387 0)
(1.0613 0.023433 0)
(1.07182 0.0243198 0)
(1.08826 0.0252545 0)
(1.09382 0.0250814 0)
(1.01106 0.0205493 0)
(0.755964 0.0112292 0)
(0.407121 0.00334866 0)
(0.0785135 0.000217259 0)
(0.0986593 4.1978e-05 0)
(0.64814 -0.00067123 0)
(0.954562 -0.00329372 0)
(1.10644 -0.00506386 0)
(1.1246 -0.0033536 0)
(1.10586 0.000304313 0)
(1.08951 0.00459902 0)
(1.07728 0.00928379 0)
(1.06764 0.0141669 0)
(1.06026 0.0189566 0)
(1.05654 0.0227229 0)
(1.05726 0.0250281 0)
(1.06257 0.0262337 0)
(1.07293 0.0267168 0)
(1.089 0.0272833 0)
(1.08929 0.0265277 0)
(0.992147 0.0210796 0)
(0.728735 0.0113764 0)
(0.387626 0.00342768 0)
(0.073878 0.000227535 0)
(0.0994208 8.09459e-05 0)
(0.644611 0.00035992 0)
(0.949049 -0.00101831 0)
(1.1071 -0.00204662 0)
(1.1303 -6.03029e-05 0)
(1.11218 0.0038876 0)
(1.09533 0.00853064 0)
(1.08245 0.0135354 0)
(1.07199 0.0186516 0)
(1.06358 0.0234975 0)
(1.05875 0.02707 0)
(1.05859 0.0290081 0)
(1.06333 0.0297803 0)
(1.0735 0.0298274 0)
(1.08886 0.0299711 0)
(1.08311 0.0284833 0)
(0.971385 0.0220318 0)
(0.700828 0.0117848 0)
(0.367673 0.00358439 0)
(0.0690436 0.000242264 0)
(0.101151 0.000141737 0)
(0.644856 0.00151765 0)
(0.946626 0.00148636 0)
(1.10903 0.00139372 0)
(1.13662 0.00379886 0)
(1.11906 0.00815281 0)
(1.10162 0.0132365 0)
(1.08797 0.0186491 0)
(1.07651 0.0240713 0)
(1.06683 0.0290051 0)
(1.06068 0.0323783 0)
(1.05947 0.0338951 0)
(1.06355 0.0341973 0)
(1.07346 0.0337673 0)
(1.08761 0.0334166 0)
(1.07499 0.0310411 0)
(0.948438 0.0234362 0)
(0.671665 0.0124521 0)
(0.346809 0.00381449 0)
(0.0639133 0.000260973 0)
(0.103896 0.000201903 0)
(0.649197 0.00291778 0)
(0.94773 0.00436728 0)
(1.11273 0.00539454 0)
(1.14378 0.00835883 0)
(1.12666 0.0132513 0)
(1.10853 0.0189004 0)
(1.09392 0.0248354 0)
(1.08121 0.0306373 0)
(1.06999 0.0356834 0)
(1.06226 0.0388233 0)
(1.05984 0.0398418 0)
(1.06313 0.0396306 0)
(1.07274 0.0386591 0)
(1.08506 0.0377527 0)
(1.06464 0.0342884 0)
(0.922857 0.0253419 0)
(0.640622 0.0133793 0)
(0.324595 0.00411354 0)
(0.0583998 0.000282933 0)
(0.107941 0.000283528 0)
(0.658216 0.00459108 0)
(0.952827 0.00774933 0)
(1.11869 0.0101309 0)
(1.15207 0.0138468 0)
(1.13518 0.019446 0)
(1.11621 0.0257929 0)
(1.10042 0.0323625 0)
(1.08617 0.0386136 0)
(1.07306 0.0437789 0)
(1.06347 0.0466133 0)
(1.05963 0.0470531 0)
(1.06198 0.0462517 0)
(1.07124 0.0446567 0)
(1.08125 0.0431313 0)
(1.0516 0.038334 0)
(0.894059 0.0277776 0)
(0.607015 0.0145576 0)
(0.300603 0.00447204 0)
(0.0524304 0.000306857 0)
(0.113628 0.000393705 0)
(0.672635 0.0066805 0)
(0.962675 0.0118751 0)
(1.12749 0.0158277 0)
(1.16184 0.0205263 0)
(1.14487 0.027066 0)
(1.12484 0.0342732 0)
(1.10756 0.0415959 0)
(1.09142 0.0483523 0)
(1.07604 0.053587 0)
(1.06422 0.0559853 0)
(1.05872 0.0557247 0)
(1.06 0.0542294 0)
(1.06882 0.0519525 0)
(1.07594 0.0496726 0)
(1.03535 0.0432584 0)
(0.861335 0.0307592 0)
(0.570137 0.015965 0)
(0.274453 0.00487375 0)
(0.0459583 0.000330865 0)
(0.121468 0.000548756 0)
(0.693432 0.0094155 0)
(0.978097 0.0170361 0)
(1.13979 0.0228228 0)
(1.17355 0.0287634 0)
(1.15604 0.036535 0)
(1.13461 0.0447904 0)
(1.11541 0.0529796 0)
(1.09687 0.0602407 0)
(1.07873 0.0654361 0)
(1.06435 0.0672065 0)
(1.05694 0.0660521 0)
(1.05708 0.0637401 0)
(1.06541 0.0606679 0)
(1.06883 0.0574988 0)
(1.01519 0.049139 0)
(0.823854 0.0342829 0)
(0.529271 0.0175549 0)
(0.245844 0.00529238 0)
(0.0389765 0.000352191 0)
(0.132195 0.000771796 0)
(0.721905 0.0131812 0)
(1.00024 0.0236963 0)
(1.15637 0.0316669 0)
(1.1878 0.0391789 0)
(1.16902 0.0485432 0)
(1.14568 0.0580346 0)
(1.12395 0.0671398 0)
(1.1024 0.0747893 0)
(1.08097 0.0796809 0)
(1.06366 0.0805105 0)
(1.05416 0.0782185 0)
(1.05308 0.0749171 0)
(1.06075 0.0709095 0)
(1.05932 0.0666341 0)
(0.990242 0.0560086 0)
(0.780687 0.0382749 0)
(0.483771 0.0192377 0)
(0.214628 0.00568592 0)
(0.0315354 0.000367042 0)
(0.14707 0.00112551 0)
(0.760042 0.0185923 0)
(1.03077 0.0326301 0)
(1.1782 0.0432862 0)
(1.20536 0.0528293 0)
(1.18415 0.0641473 0)
(1.15809 0.0749729 0)
(1.13303 0.0848742 0)
(1.10776 0.0925945 0)
(1.08248 0.0967095 0)
(1.06195 0.0961419 0)
(1.05022 0.0924178 0)
(1.04785 0.0879267 0)
(1.05443 0.0829594 0)
(1.04674 0.0772421 0)
(0.959408 0.0637863 0)
(0.730885 0.0425869 0)
(0.433201 0.0208695 0)
(0.180925 0.00599601 0)
(0.0237674 0.000370864 0)
(0.168241 0.00173497 0)
(0.811036 0.0267839 0)
(1.07219 0.0453569 0)
(1.20639 0.0594875 0)
(1.22692 0.0718252 0)
(1.2015 0.084939 0)
(1.17157 0.0969201 0)
(1.14221 0.107122 0)
(1.11249 0.114232 0)
(1.0829 0.116863 0)
(1.05889 0.114303 0)
(1.04488 0.108751 0)
(1.04123 0.102867 0)
(1.04639 0.0968795 0)
(1.03026 0.0891924 0)
(0.921332 0.0722478 0)
(0.67367 0.0469399 0)
(0.377635 0.0222423 0)
(0.145313 0.00614569 0)
(0.0159175 0.000357763 0)
(0.199017 0.00307355 0)
(0.88055 0.0403297 0)
(1.12819 0.0656451 0)
(1.24135 0.0838829 0)
(1.25213 0.0988976 0)
(1.22045 0.113267 0)
(1.18528 0.125486 0)
(1.15064 0.134876 0)
(1.11581 0.140261 0)
(1.08157 0.140386 0)
(1.05405 0.135053 0)
(1.03788 0.127224 0)
(1.03305 0.119709 0)
(1.03631 0.112528 0)
(1.00865 0.102349 0)
(0.874418 0.0809241 0)
(0.608838 0.0508669 0)
(0.318345 0.0231443 0)
(0.109287 0.00607385 0)
(0.00844831 0.000319034 0)
(0.241037 0.00919065 4.32118e-20)
(0.97256 0.0670837 3.77828e-20)
(1.19641 0.0999612 -1.32367e-20)
(1.27991 0.120229 0)
(1.27818 0.137681 -3.40962e-34)
(1.23884 0.151527 4.9943e-21)
(1.19767 0.162206 -9.05537e-21)
(1.15725 0.169364 0)
(1.11702 0.17195 1.87177e-34)
(1.07784 0.168753 -1.13133e-20)
(1.04652 0.160147 0)
(1.02793 0.149805 -1.34743e-20)
(1.02192 0.140675 -3.97692e-20)
(1.02282 0.132741 -1.88021e-20)
(0.978615 0.119435 -5.65939e-21)
(0.813494 0.0915864 -3.36302e-21)
(0.530978 0.0549766 0)
(0.253611 0.0239414 2.35279e-21)
(0.0731697 0.00610098 2.77789e-21)
(0.00145692 0.000274293 5.00357e-20)
(0.2702 0.0241385 3.08476e-20)
(1.04871 0.109317 5.30955e-22)
(1.25271 0.148848 3.48707e-21)
(1.31438 0.169067 0)
(1.30097 0.186814 -1.71865e-20)
(1.25449 0.198511 -1.96055e-20)
(1.20737 0.206868 -9.10976e-21)
(1.16107 0.211527 -3.26295e-20)
(1.1151 0.211327 0)
(1.07043 0.204922 4.81907e-20)
(1.03471 0.193104 4.78812e-20)
(1.01324 0.180239 1.4249e-20)
(1.00504 0.169073 5.20245e-20)
(0.998925 0.158403 7.31744e-20)
(0.932419 0.140118 0)
(0.732542 0.104135 1.0311e-19)
(0.440358 0.060062 1.47913e-19)
(0.186019 0.0246507 1.6428e-19)
(0.0378896 0.00518797 -1.87811e-19)
(-0.00532862 -0.000352272 -3.53081e-21)
(0.27167 0.0407107 0)
(1.09713 0.163994 5.18205e-21)
(1.29071 0.208648 0)
(1.34115 0.22861 -2.17425e-20)
(1.31871 0.243701 0)
(1.26624 0.251536 -3.8293e-20)
(1.2135 0.256186 1.85723e-20)
(1.16158 0.257275 -6.54925e-20)
(1.11015 0.253471 -1.58313e-21)
(1.06028 0.243249 2.49204e-20)
(1.02034 0.227844 1.05505e-19)
(0.996053 0.212294 -2.55887e-22)
(0.985405 0.199028 -3.78516e-20)
(0.97253 0.185519 -6.90624e-20)
(0.890794 0.161925 8.173e-20)
(0.675763 0.117269 -1.4475e-19)
(0.389534 0.0653614 -1.91332e-20)
(0.153868 0.025499 0)
(0.0222622 0.00394544 -1.08657e-23)
(-0.0084642 -0.00114319 0)
(0.265385 0.0546862 6.15682e-20)
(1.12336 0.222358 -3.10184e-20)
(1.31415 0.273003 -2.50285e-20)
(1.35876 0.293487 1.01033e-20)
(1.33005 0.304951 -1.7095e-20)
(1.27308 0.308296 8.01878e-20)
(1.21573 0.308561 3.87377e-20)
(1.15896 0.305432 0)
(1.10262 0.297483 -1.24486e-19)
(1.04793 0.28304 0)
(1.00399 0.26383 -5.53901e-20)
(0.976939 0.245465 -6.85747e-20)
(0.96384 0.229982 -4.12934e-20)
(0.945765 0.213371 -5.02334e-20)
(0.856038 0.184593 0)
(0.639365 0.13243 0)
(0.364633 0.0735396 -1.24655e-19)
(0.141831 0.0282883 2.46599e-20)
(0.0165959 0.00323517 -1.44261e-20)
(-0.0100874 -0.00195263 -1.68716e-20)
(0.25795 0.0670159 -1.96562e-20)
(1.13501 0.2807 0)
(1.32702 0.338404 4.85114e-20)
(1.36823 0.359855 2.78454e-20)
(1.33511 0.367674 4.00222e-20)
(1.27485 0.366552 0)
(1.21387 0.362341 3.76754e-20)
(1.15306 0.35483 7.24516e-20)
(1.09247 0.342513 6.36621e-20)
(1.03349 0.32367 1.17804e-19)
(0.985853 0.300527 0)
(0.956081 0.279191 -1.48114e-19)
(0.940579 0.261433 -8.93669e-20)
(0.918649 0.24205 -5.28808e-20)
(0.826446 0.208475 3.24385e-19)
(0.615972 0.149811 3.86054e-20)
(0.354867 0.0846424 1.81055e-19)
(0.142464 0.0330877 -8.58078e-19)
(0.017979 0.00369788 5.07527e-19)
(-0.0102508 -0.00254209 -6.11769e-19)
(0.250887 0.078133 -3.08229e-21)
(1.13746 0.337148 3.3674e-21)
(1.3323 0.403014 -4.57008e-21)
(1.37119 0.425798 -2.6105e-20)
(1.33483 0.430163 -3.2566e-20)
(1.27209 0.424762 1.80866e-21)
(1.20825 0.416225 -4.08983e-20)
(1.14415 0.404423 7.48424e-20)
(1.07995 0.387771 -1.37182e-19)
(1.01714 0.364517 0)
(0.966076 0.337389 -6.70211e-20)
(0.933667 0.313033 -1.62412e-21)
(0.915872 0.293054 -9.79626e-20)
(0.891059 0.270971 0)
(0.799883 0.233067 -7.04459e-20)
(0.599318 0.169149 -1.67356e-19)
(0.353203 0.0980482 4.45527e-19)
(0.149024 0.0400881 -4.39315e-19)
(0.0241316 0.00579346 6.24106e-19)
(-0.00898046 -0.00270139 -6.4848e-19)
(0.245 0.0884414 -5.05174e-22)
(1.13422 0.39105 8.26507e-22)
(1.33214 0.465813 -9.0571e-21)
(1.3691 0.490154 9.43193e-21)
(1.3303 0.49139 -1.62183e-20)
(1.26568 0.481972 0)
(1.19953 0.469353 -3.75892e-20)
(1.13267 0.453467 -7.83016e-20)
(1.06532 0.432648 -7.12198e-20)
(0.999064 0.405076 0)
(0.944826 0.374051 -6.95394e-20)
(0.910005 0.346906 -8.64568e-20)
(0.890009 0.324699 1.0645e-19)
(0.862995 0.30013 -6.47301e-20)
(0.774408 0.258347 -3.08727e-19)
(0.584979 0.189829 1.83484e-19)
(0.35418 0.112724 5.46197e-20)
(0.157845 0.0487373 0)
(0.0324551 0.00936447 -6.053e-19)
(-0.00689289 -0.00243921 -2.22187e-20)
(0.240408 0.0982703 2.82205e-21)
(1.1276 0.442245 -3.68575e-21)
(1.32803 0.526243 3.47801e-21)
(1.36318 0.55222 3.52462e-20)
(1.32246 0.550685 -5.78176e-20)
(1.25641 0.537591 7.34453e-20)
(1.18837 0.521198 8.10815e-20)
(1.11914 0.501492 -1.25143e-19)
(1.04902 0.476731 4.43598e-20)
(0.979638 0.445019 -2.90285e-19)
(0.922515 0.410318 -7.88835e-20)
(0.885415 0.38043 0)
(0.863363 0.356019 1.15647e-19)
(0.834595 0.329114 1.38862e-19)
(0.748617 0.2838 1.66449e-19)
(0.570445 0.211044 -1.99858e-19)
(0.353761 0.1283 -5.9208e-20)
(0.165715 0.0587427 6.94907e-20)
(0.0408905 0.0139553 0)
(-0.00447929 -0.00182631 -4.83494e-20)
(0.236986 0.107718 -5.31629e-20)
(1.1192 0.490795 2.73984e-20)
(1.32125 0.584342 -1.96994e-21)
(1.35441 0.611635 1.98091e-20)
(1.31213 0.607643 -2.47542e-20)
(1.24496 0.591221 -4.10103e-21)
(1.17538 0.571418 -8.8843e-20)
(1.10412 0.548206 -4.53503e-20)
(1.0315 0.519752 -1.23976e-19)
(0.959245 0.484147 3.07939e-22)
(0.899431 0.445893 -2.46953e-19)
(0.860202 0.413172 2.09332e-19)
(0.836327 0.386611 -1.27342e-19)
(0.806128 0.357461 1.53409e-19)
(0.722169 0.308834 0)
(0.554417 0.232002 -1.08773e-19)
(0.350435 0.143969 4.29531e-23)
(0.170917 0.0690049 -3.03881e-19)
(0.0478501 0.0189216 -4.46e-20)
(-0.00218961 -0.00102862 0)
(0.23463 0.117004 0)
(1.10996 0.53691 3.29781e-20)
(1.31254 0.63997 7.37549e-21)
(1.34359 0.668221 -1.63927e-20)
(1.29998 0.662038 -3.30932e-20)
(1.23195 0.642644 0)
(1.16109 0.619787 -3.95838e-20)
(1.08803 0.593405 -1.08525e-21)
(1.01313 0.561547 2.65838e-19)
(0.938198 0.522294 -3.98162e-20)
(0.875805 0.480512 -1.78472e-19)
(0.834587 0.44494 1.08755e-19)
(0.809111 0.416329 -2.22556e-21)
(0.777548 0.384927 1.63182e-19)
(0.695208 0.332686 1.00869e-19)
(0.536536 0.251589 -2.35215e-19)
(0.343716 0.158731 2.78499e-19)
(0.172257 0.0785538 8.24702e-20)
(0.0522197 0.0234849 3.39988e-19)
(-0.000408886 -0.000250183 -9.07971e-19)
(0.233251 0.126258 -2.01705e-20)
(1.10053 0.580771 2.57674e-20)
(1.30248 0.692815 -1.63008e-20)
(1.33136 0.721923 9.27656e-21)
(1.28658 0.713764 0)
(1.21786 0.691728 -3.19387e-20)
(1.14592 0.666171 1.33798e-19)
(1.07127 0.636955 9.90999e-20)
(0.994272 0.602012 0)
(0.91676 0.559331 -5.74685e-19)
(0.851828 0.514082 4.83192e-19)
(0.808749 0.475775 0)
(0.781834 0.445125 1.49033e-19)
(0.748855 0.411163 -2.23447e-21)
(0.667546 0.355 -3.22693e-19)
(0.516388 0.269147 1.26275e-19)
(0.333758 0.171667 0)
(0.169747 0.0864632 4.44993e-19)
(0.0535553 0.0269918 0)
(0.000671796 0.000329002 -4.30045e-19)
(0.232665 0.135515 2.49033e-20)
(1.0913 0.622542 3.56154e-20)
(1.29152 0.742906 -1.56677e-20)
(1.31819 0.772754 0)
(1.27237 0.762806 -2.53463e-20)
(1.2031 0.738436 0)
(1.13024 0.710499 -1.30618e-19)
(1.05417 0.678771 -4.54104e-20)
(0.975206 0.641078 4.66425e-20)
(0.895165 0.59521 -2.84341e-19)
(0.827682 0.546645 4.98182e-20)
(0.782807 0.505728 0)
(0.754483 0.472767 -3.18301e-19)
(0.72004 0.435769 2.20732e-21)
(0.639298 0.375258 0)
(0.494283 0.284211 1.46554e-21)
(0.320597 0.182045 4.07166e-19)
(0.163886 0.0921019 -3.84621e-19)
(0.052318 0.0290022 1.13425e-19)
(0.00106576 0.000603569 0)
(0.232531 0.144674 0)
(1.08245 0.662282 4.44058e-20)
(1.28006 0.790335 2.61711e-20)
(1.30448 0.820781 -2.49376e-21)
(1.25771 0.809192 -6.30845e-21)
(1.18801 0.782765 -7.1376e-20)
(1.11437 0.752748 4.92959e-20)
(1.03699 0.718816 -5.41069e-20)
(0.956172 0.678694 2.08828e-19)
(0.873618 0.629932 -4.54446e-19)
(0.803542 0.578284 -3.90677e-21)
(0.756821 0.534718 -1.39031e-19)
(0.727031 0.498993 5.16786e-19)
(0.691077 0.458509 -2.59657e-21)
(0.61038 0.393082 -2.50575e-19)
(0.470312 0.296515 -4.46755e-19)
(0.30475 0.189618 0)
(0.155005 0.0952655 0)
(0.0490391 0.0295396 1.22284e-19)
(0.000913765 0.000576813 -7.18367e-20)
(0.23295 0.153837 3.66983e-20)
(1.07415 0.699946 -1.02695e-19)
(1.26835 0.835192 -2.82757e-20)
(1.29051 0.866083 0)
(1.24289 0.852978 -1.56948e-21)
(1.17286 0.824743 -6.2564e-20)
(1.09853 0.792921 1.17236e-19)
(1.01998 0.757077 2.11264e-19)
(0.93738 0.714852 2.70799e-19)
(0.852315 0.663526 -3.70837e-19)
(0.779552 0.609054 -4.1547e-19)
(0.730812 0.562642 3.71887e-19)
(0.699453 0.5237 0)
(0.661911 0.479346 -1.13822e-19)
(0.580785 0.408327 -2.71055e-19)
(0.444711 0.305906 -3.21006e-19)
(0.286539 0.194186 -3.79715e-19)
(0.143528 0.0958949 1.12189e-19)
(0.0439978 0.0287432 -6.59247e-20)
(0.00043043 0.000325821 2.84246e-22)
(0.233671 0.162812 0)
(1.06645 0.735991 0)
(1.25659 0.877565 2.59786e-21)
(1.27649 0.908757 0)
(1.22812 0.894247 6.81613e-21)
(1.15783 0.864426 4.00151e-20)
(1.08293 0.831041 0)
(1.0033 0.793564 2.4736e-20)
(0.919013 0.749554 4.5089e-19)
(0.831435 0.69603 -8.52724e-19)
(0.75583 0.638978 0)
(0.704807 0.589487 -2.39397e-19)
(0.671733 0.547003 -3.06439e-21)
(0.632444 0.498247 -2.41498e-21)
(0.550566 0.420765 2.89811e-19)
(0.41801 0.312176 -1.85743e-22)
(0.266317 0.195628 -8.17678e-19)
(0.130108 0.0940174 2.41284e-19)
(0.0377892 0.0266529 7.13055e-20)
(-0.000279401 -0.000106798 0)
(0.234449 0.171653 -1.51206e-19)
(1.05911 0.770383 -7.18805e-20)
(1.24486 0.91751 -8.99969e-20)
(1.26261 0.948872 7.62628e-20)
(1.21359 0.933071 -3.97509e-21)
(1.14311 0.901875 0)
(1.06772 0.867152 6.92562e-20)
(0.987122 0.828299 -5.53445e-20)
(0.901215 0.782816 3.92536e-21)
(0.811136 0.727486 6.29363e-20)
(0.732494 0.668082 5.37749e-19)
(0.678856 0.615404 -8.39295e-20)
(0.643805 0.569152 -3.18602e-19)
(0.602451 0.515073 -1.32648e-19)
(0.519746 0.430038 1.57458e-19)
(0.390715 0.315116 3.28345e-24)
(0.244846 0.19383 2.202e-19)
(0.115667 0.0897966 -5.18999e-19)
(0.0311966 0.0236123 6.13413e-19)
(-0.00107191 -0.000658747 8.94392e-20)
(0.235027 0.180265 5.81755e-20)
(1.05214 0.80321 -4.10395e-20)
(1.2333 0.955139 6.33904e-21)
(1.249 0.986549 5.29846e-20)
(1.19941 0.96956 7.7583e-21)
(1.1288 0.937161 -6.69191e-20)
(1.05302 0.9013 1.91917e-20)
(0.971545 0.861303 -2.29885e-19)
(0.884116 0.814642 -4.95099e-19)
(0.791549 0.757896 -5.07424e-19)
(0.709671 0.696409 0)
(0.653031 0.640657 -3.6893e-19)
(0.615559 0.590414 4.59382e-19)
(0.571609 0.529608 0)
(0.488279 0.435796 -3.37179e-19)
(0.36322 0.314352 2.00881e-19)
(0.223287 0.188598 -2.36655e-19)
(0.101533 0.0836315 -2.79166e-19)
(0.0249432 0.0200521 -4.93909e-19)
(-0.00181565 -0.00123602 -3.85081e-19)
(0.235939 0.188736 -6.64264e-20)
(1.0454 0.83445 4.39213e-20)
(1.22197 0.990512 9.94022e-20)
(1.23575 1.02187 7.9887e-20)
(1.18568 1.00381 -1.26346e-20)
(1.115 0.970367 -3.24611e-20)
(1.03891 0.933536 6.46069e-20)
(0.956661 0.892621 -2.34811e-19)
(0.867799 0.845053 -2.92682e-19)
(0.772794 0.787271 5.30191e-19)
(0.687484 0.724029 1.18057e-18)
(0.627424 0.665532 0)
(0.58688 0.611006 0)
(0.539538 0.541779 -1.52734e-19)
(0.455857 0.437779 0)
(0.335625 0.309015 4.31806e-19)
(0.202905 0.179202 5.08747e-19)
(0.0896773 0.0755844 0)
(0.0202523 0.0164087 0)
(-0.00239063 -0.00175092 4.13638e-19)
(0.236499 0.196732 7.6387e-20)
(1.0389 0.86409 6.16904e-20)
(1.21094 1.02374 7.26677e-20)
(1.22292 1.05498 -8.01472e-20)
(1.17246 1.03592 -2.10522e-20)
(1.10177 1.00157 2.81334e-20)
(1.02545 0.963921 -8.76464e-20)
(0.942532 0.922278 -2.05392e-22)
(0.852345 0.874056 -5.10764e-21)
(0.754964 0.815598 -5.03152e-21)
(0.666084 0.751026 6.07889e-19)
(0.602153 0.690251 0)
(0.557714 0.631089 4.65288e-19)
(0.505901 0.55181 3.25879e-19)
(0.421763 0.436042 7.86738e-19)
(0.307297 0.297774 2.3253e-19)
(0.184992 0.163222 -2.73785e-19)
(0.0842352 0.0630165 -1.60771e-19)
(0.022318 0.0115457 0)
(-0.00150036 -0.00191177 4.44291e-19)
(0.237385 0.204741 -1.73905e-19)
(1.03262 0.892278 0)
(1.20021 1.05487 8.73185e-20)
(1.21053 1.08594 -6.93129e-20)
(1.1598 1.06599 3.42024e-20)
(1.08913 1.03085 -2.06835e-20)
(1.01268 0.992507 1.64989e-19)
(0.929196 0.950311 -1.96404e-20)
(0.837796 0.901659 0)
(0.738137 0.842843 -5.83257e-19)
(0.645618 0.777468 -1.3201e-18)
(0.577359 0.714951 5.43399e-20)
(0.52813 0.650783 6.41876e-19)
(0.470545 0.560288 0)
(0.384904 0.43131 5.3095e-19)
(0.275898 0.279651 0)
(0.167784 0.135228 0)
(0.0903568 0.0315833 -1.7384e-19)
(0.0554247 -0.00863236 0)
(0.027127 0.00683846 1.18972e-19)
(0.237825 0.212161 -1.95957e-19)
(1.02651 0.919204 0)
(1.18977 1.0841 1.46797e-19)
(1.19854 1.11501 0)
(1.14766 1.09428 -2.26115e-20)
(1.07704 1.0585 0)
(1.00055 1.01961 7.31555e-21)
(0.916559 0.977059 3.19371e-20)
(0.824033 0.92823 3.65646e-20)
(0.722145 0.869385 -6.38514e-19)
(0.625917 0.80385 3.94739e-20)
(0.552778 0.740231 4.3796e-19)
(0.497716 0.670682 6.26182e-19)
(0.43269 0.568103 8.46038e-20)
(0.343494 0.42532 4.16154e-19)
(0.236676 0.25577 0)
(0.140322 0.0916345 5.7705e-19)
(0.0778835 -0.0126871 -3.37395e-19)
(0.0327952 0.0582151 3.91098e-19)
(-0.0381674 0.454041 -4.66206e-19)
(0.238203 0.219411 1.63253e-19)
(1.02036 0.944757 2.50246e-19)
(1.17955 1.11176 0)
(1.18681 1.14263 5.24663e-21)
(1.13585 1.12139 7.01136e-20)
(1.06522 1.0852 -3.71166e-21)
(0.988735 1.04603 5.3991e-20)
(0.90421 1.00347 0)
(0.810525 0.954875 2.40155e-19)
(0.706309 0.896546 -3.30852e-20)
(0.606069 0.831717 0)
(0.527133 0.76776 0)
(0.464583 0.692178 5.6078e-19)
(0.390068 0.576056 -2.61613e-19)
(0.294483 0.420177 -4.21503e-19)
(0.185571 0.229634 0)
(0.0796682 0.100502 2.90696e-19)
(0.0071937 0.464886 -3.36278e-19)
(0.032117 1.92128 -1.88266e-19)
(0.0587196 2.82215 -2.37305e-19)
(0.238198 0.226083 -1.23646e-19)
(1.01423 0.969107 -3.23088e-19)
(1.16957 1.13784 8.84047e-20)
(1.17534 1.16866 7.11805e-20)
(1.12442 1.1471 0)
(1.05378 1.11069 -1.43732e-20)
(0.977448 1.07147 6.87848e-20)
(0.89234 1.02911 -1.51619e-20)
(0.797548 0.981072 3.58688e-20)
(0.691012 0.923718 6.0645e-19)
(0.586693 0.860413 6.65242e-19)
(0.501377 0.797122 4.89865e-19)
(0.42963 0.715152 5.64007e-19)
(0.344332 0.583433 -6.14038e-19)
(0.244311 0.419337 -6.36217e-19)
(0.121253 0.275616 0)
(0.0418076 0.872422 0)
(0.0898596 2.57637 1.61226e-19)
(0.0923433 3.20943 0)
(0.0935012 3.38866 3.91162e-19)
(0.240911 0.232265 0)
(1.00834 0.99261 0)
(1.15954 1.16219 0)
(1.16392 1.19295 2.19465e-20)
(1.11307 1.17118 6.59679e-20)
(1.0425 1.13482 -2.46337e-20)
(0.966611 1.09581 4.21377e-20)
(0.880883 1.05385 -1.46125e-20)
(0.78504 1.00665 2.9635e-19)
(0.676252 0.950748 -9.44944e-21)
(0.567876 0.88972 1.31147e-18)
(0.475877 0.828189 -5.66001e-20)
(0.392879 0.74029 6.82893e-20)
(0.29775 0.588509 8.88978e-20)
(0.183835 0.437466 -1.95527e-21)
(0.0957746 1.00906 1.69198e-21)
(0.128246 2.75659 -8.47397e-19)
(0.133102 3.30058 -3.1817e-19)
(0.122982 3.4244 1.65206e-19)
(0.111801 3.44439 -1.83968e-19)
(0.163648 0.177367 7.36726e-20)
(0.998654 1.01815 0)
(1.1493 1.18505 -1.80711e-19)
(1.15288 1.21585 -1.95387e-19)
(1.10224 1.1941 1.62347e-19)
(1.03207 1.15805 3.12056e-20)
(0.956082 1.11901 -4.05416e-20)
(0.869894 1.07772 1.55045e-19)
(0.773082 1.03167 -2.40817e-19)
(0.662242 0.977759 0)
(0.549891 0.919678 6.42604e-19)
(0.451165 0.860589 -3.98738e-19)
(0.355316 0.770663 0)
(0.244059 0.595719 8.30505e-20)
(0.137154 0.789484 2.01363e-19)
(0.142554 2.55626 -2.31732e-19)
(0.191801 3.33 2.61021e-19)
(0.173628 3.4365 1.41862e-19)
(0.1436 3.45512 1.60107e-19)
(0.123917 3.46368 2.58278e-19)
(0.276499 0.271328 -1.40126e-19)
(0.982247 1.02931 0)
(1.1317 1.2115 1.98551e-19)
(1.13877 1.24806 2.19401e-19)
(1.08529 1.22796 -1.85102e-19)
(1.01456 1.19233 -5.63549e-20)
(0.937426 1.15484 2.44743e-20)
(0.850704 1.11489 1.22091e-20)
(0.752517 1.07111 2.25717e-19)
(0.638828 1.02132 5.16964e-19)
(0.521274 0.969991 3.59779e-20)
(0.411562 0.915262 3.52621e-19)
(0.288018 0.812313 6.35711e-20)
(0.207756 0.964026 -8.13592e-20)
(0.213374 2.42845 -1.83652e-19)
(0.264353 3.33629 1.78954e-19)
(0.247407 3.46423 -2.00664e-19)
(0.212683 3.48238 -1.16785e-19)
(0.178692 3.5063 -1.02496e-19)
(0.133605 3.50008 -1.20579e-20)
(0.266968 0.270447 0)
(0.97996 1.05276 5.8336e-20)
(1.12351 1.23549 -4.12829e-20)
(1.12826 1.27193 -2.64712e-20)
(1.07458 1.25147 -1.30137e-19)
(1.00387 1.21604 6.00815e-20)
(0.926453 1.17881 -7.18571e-21)
(0.839511 1.13974 1.06856e-20)
(0.740754 1.09749 -2.32834e-19)
(0.625705 1.05065 -1.42784e-20)
(0.505288 1.00434 -1.15426e-18)
(0.389875 0.951719 5.0342e-20)
(0.276253 0.886395 -5.98463e-20)
(0.242392 1.55924 -7.49892e-20)
(0.303818 3.14417 1.76638e-20)
(0.317949 3.46764 1.63903e-21)
(0.275983 3.51444 2.98057e-19)
(0.241789 3.53636 1.50619e-19)
(0.19601 3.55566 -4.66681e-20)
(0.146 3.55119 -5.99356e-20)
(0.253014 0.268655 1.49038e-19)
(0.9768 1.07884 3.98646e-19)
(1.11495 1.26155 -1.18713e-19)
(1.11729 1.29732 -1.00206e-19)
(1.06341 1.27645 0)
(0.99283 1.24105 1.16601e-19)
(0.915382 1.20413 5.2673e-21)
(0.828472 1.16587 9.04703e-21)
(0.729453 1.12523 -2.60162e-20)
(0.61357 1.08162 -4.60311e-19)
(0.491147 1.04063 -5.29122e-19)
(0.371352 0.989924 -4.09381e-19)
(0.27587 1.02875 -4.51293e-19)
(0.30609 2.30773 4.63529e-19)
(0.383219 3.39553 3.89751e-19)
(0.356218 3.52562 0)
(0.307808 3.56071 0)
(0.270946 3.59337 -3.7374e-20)
(0.22618 3.63826 0)
(0.156866 3.62133 -5.54471e-20)
(0.243152 0.270748 -2.24474e-19)
(0.971685 1.10585 -3.4034e-19)
(1.10501 1.28891 0)
(1.1051 1.32359 6.32339e-21)
(1.05105 1.3021 -1.4448e-19)
(0.980736 1.26665 1.94122e-19)
(0.903574 1.23005 1.27473e-20)
(0.816919 1.19253 3.98282e-21)
(0.717887 1.15345 -1.58413e-19)
(0.6016 1.11307 2.25804e-20)
(0.478037 1.07727 0)
(0.354518 1.03277 0)
(0.300218 1.31492 -4.07785e-19)
(0.382984 2.97284 1.63959e-19)
(0.447657 3.49646 2.09794e-19)
(0.394869 3.56053 0)