/*--------------------------------*- C++ -*----------------------------------*\
| =========                 |                                                 |
| \\      /  F ield         | OpenFOAM: The Open Source CFD Toolbox           |
|  \\    /   O peration     | Version:  2106                                  |
|   \\  /    A nd           | Website:  www.openfoam.com                      |
|    \\/     M anipulation  |                                                 |
\*---------------------------------------------------------------------------*/
FoamFile
{
    version     2.0;
    format      ascii;
    arch        "LSB;label=32;scalar=64";
    class       volScalarField;
    location    "2";
    object      T;
}
// * * * * * * * * * * * * * * * * * * * * * * * * * * * * * * * * * * * * * //

dimensions      [0 0 0 1 0 0 0];

internalField   nonuniform List<scalar> 
1000
(
3.23021e-150
4.11972e-150
7.02865e-150
1.47614e-149
3.42235e-149
8.23688e-149
2.00766e-148
4.91252e-148
1.20316e-147
2.94659e-147
7.21364e-147
1.76514e-146
4.31694e-146
1.05522e-145
2.57794e-145
6.2946e-145
1.53613e-144
3.7467e-144
9.13338e-144
2.22523e-143
5.41852e-143
1.3187e-142
3.20751e-142
7.79738e-142
1.89447e-141
4.60026e-141
1.11643e-140
2.70794e-140
6.56445e-140
1.59042e-139
3.85104e-139
9.31959e-139
2.25406e-138
5.44861e-138
1.3163e-137
3.17814e-137
7.66901e-137
1.84949e-136
4.45772e-136
1.07379e-135
2.58504e-135
6.21959e-135
1.49554e-134
3.594e-134
8.63177e-134
2.07186e-133
4.97007e-133
1.19153e-132
2.85484e-132
6.83594e-132
1.63588e-131
3.91236e-131
9.35107e-131
2.23367e-130
5.33222e-130
1.27213e-129
3.03308e-129
7.22715e-129
1.721e-128
4.09564e-128
9.74074e-128
2.3152e-127
5.49935e-127
1.30545e-126
3.09693e-126
7.3422e-126
1.73958e-125
4.11892e-125
9.74637e-125
2.30474e-124
5.44653e-124
1.28628e-123
3.03577e-123
7.16007e-123
1.68764e-122
3.97519e-122
9.35727e-122
2.20116e-121
5.17447e-121
1.2156e-120
2.8538e-120
6.69522e-120
1.56969e-119
3.67764e-119
8.61052e-119
2.01462e-118
4.71045e-118
1.10061e-117
2.56983e-117
5.9962e-117
1.39813e-116
3.25774e-116
7.58549e-116
1.76501e-115
4.10398e-115
9.5358e-115
2.21413e-114
5.13736e-114
1.19116e-113
2.75986e-113
6.38991e-113
1.47839e-112
3.418e-112
7.89659e-112
1.82302e-111
4.2056e-111
9.69496e-111
2.23329e-110
5.14074e-110
1.18245e-109
2.71782e-109
6.24216e-109
1.4326e-108
3.28541e-108
7.52882e-108
1.724e-107
3.94474e-107
9.01925e-107
2.06059e-106
4.70413e-106
1.07309e-105
2.44599e-105
5.57108e-105
1.26791e-104
2.88335e-104
6.55191e-104
1.48764e-103
3.3751e-103
7.65125e-103
1.73314e-102
3.92275e-102
8.87156e-102
2.00476e-101
4.52663e-101
1.02126e-100
2.30224e-100
5.18571e-100
1.16711e-99
2.6246e-99
5.89734e-99
1.32401e-98
2.97008e-98
6.65709e-98
1.49087e-97
3.33603e-97
7.45861e-97
1.66617e-96
3.7189e-96
8.29358e-96
1.84799e-95
4.11421e-95
9.15167e-95
2.03396e-94
4.51656e-94
1.00207e-93
2.22132e-93
4.91976e-93
1.08867e-92
2.40696e-92
5.31689e-92
1.17344e-91
2.5875e-91
5.70048e-91
1.25474e-90
2.75934e-90
6.06271e-90
1.33087e-89
2.91882e-89
6.39566e-89
1.40012e-88
3.0623e-88
6.69158e-88
1.46086e-87
3.18629e-87
6.94315e-87
1.51155e-86
3.28761e-86
7.1438e-86
1.55084e-85
3.36352e-85
7.28797e-85
1.57763e-84
3.41181e-84
7.37135e-84
1.59107e-83
3.43092e-83
7.39109e-83
1.59068e-82
3.42003e-82
7.34598e-82
1.5763e-81
3.37909e-81
7.23647e-81
1.54817e-80
3.30885e-80
7.06475e-80
1.50688e-79
3.21084e-79
6.83465e-79
1.45335e-78
3.0873e-78
6.55149e-78
1.38884e-77
2.94113e-77
6.22191e-77
1.31486e-76
2.77574e-76
5.85357e-76
1.23312e-75
2.59493e-75
5.45489e-75
1.14546e-74
2.40276e-74
5.03468e-74
1.05381e-73
2.20335e-73
4.60183e-73
9.6007e-73
2.00078e-72
4.16501e-72
8.66069e-72
1.7989e-71
3.73231e-71
7.73504e-71
1.60125e-70
3.31106e-70
6.83886e-70
1.41093e-69
2.9076e-69
5.98503e-69
1.23055e-68
2.52715e-68
5.18394e-68
1.06215e-67
2.17372e-67
4.44338e-67
9.07222e-67
1.85013e-66
3.76856e-66
7.66714e-66
1.55802e-65
3.16223e-65
6.41049e-65
1.29797e-64
2.62491e-64
5.30194e-64
1.06961e-63
2.15518e-63
4.3372e-63
8.71764e-63
1.75005e-62
3.50883e-62
7.02639e-62
1.40527e-61
2.80697e-61
5.59977e-61
1.11571e-60
2.22015e-60
4.41222e-60
8.75742e-60
1.73595e-59
3.43667e-59
6.79478e-59
1.34168e-58
2.64578e-58
5.21065e-58
1.02484e-57
2.01303e-57
3.94883e-57
7.73587e-57
1.51346e-56
2.95698e-56
5.76957e-56
1.12422e-55
2.18763e-55
4.25112e-55
8.24976e-55
1.59876e-54
3.09407e-54
5.97966e-54
1.15404e-53
2.22414e-53
4.28054e-53
8.22671e-53
1.57886e-52
3.02586e-52
5.7908e-52
1.10665e-51
2.11186e-51
4.02437e-51
7.65785e-51
1.45509e-50
2.76086e-50
5.2308e-50
9.89599e-50
1.86946e-49
3.52642e-49
6.64222e-49
1.24925e-48
2.34608e-48
4.39937e-48
8.23735e-48
1.54005e-47
2.87493e-47
5.35877e-47
9.97344e-47
1.85338e-46
3.43891e-46
6.37108e-46
1.17852e-45
2.17667e-45
4.01399e-45
7.39069e-45
1.35868e-44
2.49385e-44
4.57029e-44
8.36244e-44
1.52769e-43
2.78645e-43
5.0743e-43
9.22589e-43
1.67473e-42
3.03518e-42
5.49193e-42
9.92116e-42
1.78935e-41
3.22198e-41
5.79216e-41
1.03955e-40
1.86269e-40
3.33209e-40
5.9508e-40
1.061e-39
1.88855e-39
3.35598e-39
5.95362e-39
1.05442e-38
1.8643e-38
3.29065e-38
5.79844e-38
1.02e-37
1.79123e-37
3.14021e-37
5.49565e-37
9.60134e-37
1.67454e-36
2.91544e-36
5.0671e-36
8.7914e-36
1.52264e-35
2.63254e-35
4.54349e-35
7.82777e-35
1.34623e-34
2.31116e-34
3.96066e-34
6.77534e-34
1.15696e-33
1.97209e-33
3.35547e-33
5.69898e-33
9.66175e-33
1.63504e-32
2.76191e-32
4.65693e-32
7.83785e-32
1.31673e-31
2.20801e-31
3.69578e-31
6.17459e-31
1.02969e-30
1.71395e-30
2.84763e-30
4.72236e-30
7.81668e-30
1.29143e-29
2.12964e-29
3.50529e-29
5.75866e-29
9.44274e-29
1.54544e-28
2.52453e-28
4.11606e-28
6.69815e-28
1.08792e-27
1.76364e-27
2.85355e-27
4.60816e-27
7.42732e-27
1.19481e-26
1.91832e-26
3.074e-26
4.91635e-26
7.84758e-26
1.25021e-25
1.98783e-25
3.15446e-25
4.99598e-25
7.89701e-25
1.2458e-24
1.96147e-24
3.08215e-24
4.83358e-24
7.56525e-24
1.18172e-23
1.84223e-23
2.86622e-23
4.4505e-23
6.8967e-23
1.06661e-22
1.64627e-22
2.53586e-22
3.89833e-22
5.98079e-22
9.15725e-22
1.39925e-21
2.13379e-21
3.24736e-21
4.93209e-21
7.47572e-21
1.13082e-20
1.70709e-20
2.57179e-20
3.86664e-20
5.8016e-20
8.68716e-20
1.29815e-19
1.9359e-19
2.8811e-19
4.27903e-19
6.34229e-19
9.38119e-19
1.38478e-18
2.03994e-18
2.9989e-18
4.39964e-18
6.44143e-18
9.41146e-18
1.37227e-17
1.99679e-17
2.89956e-17
4.20185e-17
6.07654e-17
8.7696e-17
1.26302e-16
1.8153e-16
2.60372e-16
3.7269e-16
5.32362e-16
7.58882e-16
1.07956e-15
1.5326e-15
2.17129e-15
3.06983e-15
4.3313e-15
6.09861e-15
8.5694e-15
1.20165e-14
1.68157e-14
2.34834e-14
3.27278e-14
4.55179e-14
6.31769e-14
8.75073e-14
1.2096e-13
1.6686e-13
2.29706e-13
3.15578e-13
4.32669e-13
5.91995e-13
8.08343e-13
1.10151e-12
1.49795e-12
2.03294e-12
2.75341e-12
3.72164e-12
5.02017e-12
6.75808e-12
9.07926e-12
1.21731e-11
1.62882e-11
2.17506e-11
2.89865e-11
3.85519e-11
5.11712e-11
6.77851e-11
8.96136e-11
1.18235e-10
1.55686e-10
2.04592e-10
2.68326e-10
3.51216e-10
4.58801e-10
5.98156e-10
7.78298e-10
1.01069e-09
1.3099e-09
1.69435e-09
2.18733e-09
2.81822e-09
3.62399e-09
4.65104e-09
5.95755e-09
7.61624e-09
9.71786e-09
1.23754e-08
1.57293e-08
1.99537e-08
2.52639e-08
3.19259e-08
4.02675e-08
5.06916e-08
6.36927e-08
7.98761e-08
9.99815e-08
1.24911e-07
1.55762e-07
1.93867e-07
2.40841e-07
2.98636e-07
3.69609e-07
4.56597e-07
5.63009e-07
6.92935e-07
8.51268e-07
1.04385e-06
1.27765e-06
1.56095e-06
1.90359e-06
2.3172e-06
2.81556e-06
3.4149e-06
4.13433e-06
4.99633e-06
6.0272e-06
7.25776e-06
8.72396e-06
1.04677e-05
1.25377e-05
1.49906e-05
1.78917e-05
2.13168e-05
2.53531e-05
3.01011e-05
3.56761e-05
4.22105e-05
4.98554e-05
5.87837e-05
6.9192e-05
8.1304e-05
9.53737e-05
0.000111688
0.000130573
0.000152393
0.000177562
0.000206541
0.000239851
0.00027807
0.000321847
0.000371902
0.000429038
0.000494144
0.000568205
0.000652307
0.00074765
0.000855552
0.000977461
0.00111496
0.00126979
0.00144383
0.00163915
0.00185798
0.00210273
0.00237604
0.00268073
0.00301983
0.00339663
0.00381463
0.00427756
0.00478944
0.00535453
0.00597734
0.00666267
0.0074156
0.00824145
0.00914587
0.0101347
0.0112143
0.0123909
0.0136713
0.0150625
0.0165717
0.0182065
0.0199744
0.0218834
0.0239416
0.0261573
0.0285388
0.0310947
0.0338336
0.0367641
0.039895
0.043235
0.0467926
0.0505764
0.0545949
0.0588562
0.0633685
0.0681395
0.0731766
0.0784869
0.0840772
0.0899536
0.096122
0.102588
0.109355
0.116428
0.12381
0.131504
0.139511
0.147833
0.15647
0.165422
0.174686
0.18426
0.194142
0.204327
0.214811
0.225586
0.236647
0.247985
0.259591
0.271457
0.283571
0.295923
0.3085
0.321289
0.334277
0.347449
0.360791
0.374287
0.387922
0.401677
0.415538
0.429486
0.443504
0.457574
0.471679
0.4858
0.499919
0.514018
0.52808
0.542087
0.55602
0.569864
0.583601
0.597214
0.610688
0.624007
0.637156
0.65012
0.662885
0.675438
0.687766
0.699858
0.711701
0.723285
0.734601
0.745637
0.756387
0.766842
0.776994
0.786837
0.796364
0.80557
0.81445
0.823
0.831215
0.839092
0.846628
0.85382
0.860666
0.867163
0.87331
0.879106
0.884548
0.889637
0.89437
0.898747
0.902767
0.906429
0.909732
0.912675
0.915258
0.917479
0.919337
0.920831
0.92196
0.922723
0.923117
0.923143
0.922798
0.922081
0.920989
0.919523
0.917679
0.915456
0.912853
0.909869
0.906502
0.902751
0.898615
0.894094
0.889188
0.883896
0.87822
0.872159
0.865716
0.858892
0.85169
0.844112
0.836163
0.827846
0.819167
0.810132
0.800746
0.791016
0.780952
0.770561
0.759852
0.748837
0.737525
0.725929
0.71406
0.701933
0.68956
0.676957
0.664137
0.651118
0.637914
0.624542
0.611021
0.597366
0.583595
0.569727
0.555781
0.541773
0.527723
0.513648
0.499568
0.485501
0.471464
0.457476
0.443554
0.429715
0.415976
0.402353
0.388863
0.375519
0.362338
0.349332
0.336516
0.323901
0.311499
0.299322
0.287379
0.275681
0.264234
0.253049
0.24213
0.231485
0.221118
0.211034
0.201237
0.191729
0.182512
0.173588
0.164957
0.156618
0.148572
0.140817
0.133349
0.126168
0.119268
0.112648
0.106301
0.100224
0.0944122
0.088859
0.0835591
0.0785063
0.0736944
0.0691167
0.0647665
0.0606368
0.0567207
0.053011
0.0495005
0.0461821
0.0430484
0.0400922
0.0373065
0.034684
0.0322177
0.0299008
0.0277263
0.0256876
0.0237781
0.0219916
0.0203216
0.0187622
0.0173075
0.0159519
0.0146897
0.0135158
0.0124251
0.0114126
0.0104736
0.00960368
0.00879851
0.00805399
0.00736622
0.00673146
0.00614621
0.0056071
0.00511097
0.00465483
0.00423584
0.00385134
0.00349881
0.00317591
0.00288041
0.00261023
0.00236344
0.00213822
0.00193287
0.0017458
0.00157554
0.00142073
0.00128008
0.00115241
0.00103664
0.000931742
0.000836782
0.000750894
0.00067328
0.000603204
0.00053999
0.000483014
0.000431707
0.000385543
0.000344043
0.000306768
0.000273316
0.000243321
0.000216448
0.000192393
0.000170877
0.00015165
0.000134482
0.000119166
0.000105513
9.33518e-05
8.25293e-05
7.29057e-05
6.43553e-05
5.67645e-05
5.00312e-05
4.40632e-05
3.87779e-05
3.41009e-05
2.99656e-05
2.63121e-05
2.30868e-05
2.02419e-05
1.77343e-05
1.5526e-05
1.35826e-05
1.18738e-05
1.03723e-05
9.05412e-06
7.8977e-06
6.88399e-06
5.99605e-06
5.21888e-06
4.53918e-06
3.94517e-06
3.42644e-06
2.9738e-06
2.57912e-06
2.23523e-06
1.93583e-06
1.67535e-06
1.44891e-06
1.25219e-06
1.08143e-06
9.33301e-07
8.04906e-07
6.93694e-07
5.97435e-07
5.1418e-07
4.42224e-07
3.80077e-07
3.26442e-07
2.80185e-07
2.4032e-07
2.05987e-07
1.76441e-07
1.51031e-07
1.29194e-07
1.10441e-07
9.43469e-08
8.05448e-08
6.87164e-08
5.85864e-08
4.99169e-08
4.25024e-08
3.61657e-08
3.07536e-08
2.61345e-08
2.21948e-08
1.88368e-08
1.59766e-08
1.3542e-08
1.1471e-08
9.71059e-09
8.2151e-09
6.94553e-09
5.86844e-09
4.95527e-09
4.18156e-09
3.52645e-09
2.97212e-09
2.50337e-09
2.10724e-09
1.77269e-09
1.49034e-09
1.25219e-09
1.05145e-09
8.82353e-10
7.39999e-10
6.20235e-10
5.19539e-10
4.34928e-10
3.63878e-10
3.04252e-10
2.54244e-10
2.12329e-10
1.77219e-10
1.47827e-10
1.23236e-10
1.02676e-10
8.54955e-11
7.11481e-11
5.91739e-11
4.91863e-11
4.08607e-11
3.39247e-11
2.81498e-11
2.33445e-11
1.93484e-11
1.60272e-11
1.32685e-11
1.09784e-11
9.07841e-12
7.50301e-12
6.1975e-12
5.11627e-12
4.22131e-12
3.48095e-12
2.86885e-12
2.36307e-12
1.94538e-12
1.60063e-12
1.31626e-12
1.08181e-12
8.88639e-13
7.29561e-13
5.98635e-13
4.90938e-13
4.02399e-13
3.2965e-13
2.69908e-13
2.20875e-13
1.80653e-13
1.47676e-13
1.20655e-13
9.85265e-14
8.04137e-14
6.55962e-14
5.34812e-14
4.35812e-14
3.54962e-14
2.88981e-14
2.35197e-14
1.91454e-14
1.5609e-14
1.27988e-14
1.06844e-14
9.39137e-15
)
;

boundaryField
{
    sides
    {
        type            zeroGradient;
    }
    empty
    {
        type            empty;
    }
}


// ************************************************************************* //
