/*--------------------------------*- C++ -*----------------------------------*\
  =========                 |
  \\      /  F ield         | OpenFOAM: The Open Source CFD Toolbox
   \\    /   O peration     | Website:  https://openfoam.org
    \\  /    A nd           | Version:  6
     \\/     M anipulation  |
\*---------------------------------------------------------------------------*/
FoamFile
{
    version     2.0;
    format      ascii;
    class       volScalarField;
    location    "43.7";
    object      p;
}
// * * * * * * * * * * * * * * * * * * * * * * * * * * * * * * * * * * * * * //

dimensions      [0 2 -2 0 0 0 0];

internalField   nonuniform List<scalar> 
8800
(
0.848132
0.798813
0.760841
0.732761
0.712582
0.697966
0.687329
0.679739
0.674786
0.672624
0.673889
0.678143
0.68487
0.694245
0.706946
0.724242
0.748103
0.781191
0.824122
0.876633
0.68264
0.688982
0.698124
0.701662
0.699039
0.69293
0.68596
0.679673
0.674807
0.671852
0.671515
0.674042
0.678602
0.684671
0.691728
0.698733
0.703592
0.703454
0.696769
0.687864
0.656188
0.662419
0.666909
0.670765
0.673693
0.674614
0.673485
0.671306
0.669245
0.668302
0.669219
0.671573
0.674384
0.6766
0.677081
0.675263
0.671876
0.667847
0.663056
0.659339
0.651939
0.654701
0.657295
0.659435
0.661149
0.662684
0.663742
0.66403
0.663827
0.663808
0.664485
0.66552
0.666178
0.665963
0.66494
0.66355
0.661854
0.659533
0.657112
0.655544
0.646952
0.648374
0.6502
0.652259
0.653943
0.655198
0.656242
0.657147
0.657852
0.658452
0.659019
0.659358
0.659285
0.658846
0.658122
0.656965
0.655276
0.653358
0.651993
0.651191
0.64205
0.642951
0.644183
0.645786
0.647447
0.648935
0.650157
0.651193
0.652137
0.652998
0.653614
0.653859
0.653754
0.653296
0.652425
0.651184
0.64978
0.648484
0.64765
0.647127
0.637255
0.637909
0.638854
0.640144
0.641554
0.643019
0.644432
0.645697
0.646821
0.64784
0.648591
0.648912
0.648789
0.648242
0.647376
0.646368
0.645323
0.644382
0.643788
0.643406
0.632565
0.633069
0.633838
0.634949
0.636207
0.637567
0.638994
0.640422
0.641778
0.643025
0.643937
0.644328
0.644232
0.643771
0.6431
0.642327
0.64152
0.640812
0.64037
0.640073
0.627934
0.628334
0.628977
0.629965
0.631148
0.632449
0.633862
0.635375
0.636929
0.638426
0.639551
0.640092
0.640148
0.639884
0.639425
0.638851
0.638234
0.637709
0.637376
0.637136
0.623282
0.623608
0.624164
0.625072
0.626205
0.627488
0.628928
0.630527
0.632249
0.634003
0.635414
0.636217
0.636518
0.63648
0.636226
0.635852
0.635409
0.635034
0.634784
0.634586
0.618532
0.618802
0.619298
0.620159
0.621273
0.622576
0.624078
0.625796
0.627719
0.629778
0.631547
0.632686
0.633288
0.633509
0.633479
0.633301
0.633031
0.632786
0.6326
0.632431
0.613602
0.613829
0.614285
0.615127
0.616259
0.617622
0.619227
0.621116
0.623298
0.625728
0.62794
0.629495
0.630445
0.630962
0.631176
0.6312
0.631099
0.630968
0.630837
0.63069
0.608409
0.608602
0.609038
0.609893
0.611087
0.612558
0.614328
0.616463
0.619004
0.621919
0.624665
0.626691
0.628033
0.628871
0.629351
0.629578
0.629648
0.629625
0.62954
0.629408
0.602866
0.603031
0.603465
0.604363
0.60566
0.60729
0.609292
0.611758
0.614747
0.618255
0.621658
0.624263
0.626065
0.627267
0.628044
0.628514
0.628753
0.628828
0.62878
0.62866
0.596864
0.597005
0.597452
0.598421
0.599865
0.60171
0.604013
0.606893
0.610451
0.614706
0.618904
0.622189
0.624546
0.626186
0.627305
0.628035
0.628458
0.628637
0.628627
0.628515
0.590284
0.590402
0.590874
0.591942
0.593579
0.595707
0.59839
0.601783
0.606026
0.611174
0.616355
0.620498
0.623531
0.625694
0.627211
0.628242
0.628881
0.629169
0.629195
0.629087
0.582965
0.583059
0.583572
0.58477
0.586656
0.589149
0.592335
0.596406
0.601532
0.607801
0.614171
0.619314
0.623133
0.625898
0.627888
0.629264
0.63014
0.630542
0.630602
0.630497
0.574681
0.574776
0.575339
0.576704
0.578919
0.581877
0.585692
0.590608
0.59685
0.604511
0.612314
0.618654
0.623393
0.626881
0.629443
0.631224
0.632364
0.63289
0.632986
0.63288
0.565142
0.565215
0.565856
0.567448
0.570088
0.573637
0.578246
0.584213
0.59181
0.601172
0.610717
0.618508
0.624379
0.628736
0.631971
0.634253
0.635707
0.636376
0.636507
0.636396
0.554019
0.554076
0.55482
0.556705
0.559867
0.564172
0.569804
0.577121
0.586428
0.597873
0.609545
0.619065
0.626249
0.631631
0.635653
0.638517
0.640335
0.641157
0.641323
0.641204
0.540752
0.540798
0.541682
0.543966
0.547832
0.553145
0.560128
0.569206
0.580726
0.594781
0.608941
0.620433
0.629138
0.6357
0.640642
0.644184
0.646412
0.6474
0.647598
0.647467
0.524578
0.524617
0.525709
0.528546
0.533364
0.540025
0.548785
0.560114
0.574342
0.591518
0.608705
0.622571
0.633065
0.641015
0.647056
0.651398
0.654095
0.655256
0.655476
0.655328
0.504361
0.504406
0.505827
0.509497
0.515701
0.524293
0.535539
0.549924
0.567701
0.588714
0.609336
0.625794
0.638251
0.647762
0.655
0.660255
0.663458
0.664783
0.665009
0.664835
0.478283
0.478362
0.480368
0.485415
0.493786
0.505239
0.519987
0.538417
0.560578
0.586123
0.610692
0.630086
0.644719
0.655936
0.664508
0.67074
0.674447
0.675905
0.676115
0.675909
0.443275
0.443485
0.446698
0.454313
0.466381
0.482254
0.502037
0.525835
0.553419
0.584221
0.613122
0.635624
0.652545
0.665545
0.675557
0.682759
0.6869
0.68842
0.688584
0.688345
0.39356
0.394643
0.401096
0.41404
0.432602
0.455345
0.48211
0.512679
0.546639
0.583282
0.616803
0.64253
0.661779
0.676586
0.688009
0.696121
0.70054
0.702016
0.702104
0.701829
0.320708
0.328063
0.342946
0.365665
0.393928
0.425868
0.461141
0.499493
0.540545
0.583602
0.62218
0.651467
0.673355
0.690243
0.703256
0.712208
0.716899
0.718371
0.718433
0.718192
0.242964
0.259004
0.283222
0.316478
0.354997
0.396324
0.440211
0.486605
0.535235
0.585514
0.630228
0.664092
0.689441
0.709022
0.724002
0.73405
0.738977
0.740384
0.740481
0.740365
0.176424
0.196078
0.228116
0.270398
0.317998
0.36815
0.420425
0.47472
0.530779
0.588034
0.638572
0.676733
0.705277
0.727348
0.744083
0.754933
0.759921
0.761375
0.761526
0.761482
0.121983
0.143857
0.181252
0.230053
0.284752
0.34231
0.402009
0.463583
0.52662
0.5905
0.646504
0.688658
0.720109
0.744293
0.762566
0.774401
0.780083
0.781585
0.78175
0.781751
0.0766991
0.0998994
0.141169
0.195069
0.255491
0.319164
0.385196
0.453212
0.522616
0.592655
0.653795
0.699611
0.733695
0.759842
0.779547
0.79244
0.79866
0.800342
0.800602
0.800636
0.0379689
0.0619895
0.106137
0.164172
0.229412
0.29831
0.369833
0.443542
0.51872
0.594429
0.660336
0.709513
0.745991
0.773927
0.794848
0.80842
0.815114
0.817113
0.817463
0.817515
0.00381189
0.0284094
0.0748203
0.13628
0.205623
0.279069
0.355466
0.434301
0.514757
0.595699
0.666001
0.718304
0.756909
0.786302
0.808064
0.822185
0.829296
0.83162
0.832047
0.832091
-0.0272178
-0.00212894
0.0461554
0.110525
0.183419
0.260847
0.341618
0.42514
0.510467
0.596329
0.670771
0.725995
0.766516
0.797027
0.819353
0.833812
0.841217
0.843782
0.844296
0.844336
-0.0560933
-0.0305356
0.0193487
0.0862686
0.162265
0.243216
0.327931
0.415755
0.505648
0.596199
0.674669
0.732694
0.774985
0.806437
0.829188
0.843893
0.851523
0.854256
0.85478
0.854793
-0.0835814
-0.0574973
-0.00614298
0.0630466
0.141772
0.225866
0.314153
0.405943
0.500145
0.595223
0.6777
0.738506
0.782488
0.814796
0.837934
0.852835
0.860587
0.863386
0.863909
0.863883
-0.110008
-0.0834404
-0.0307262
0.0405092
0.121678
0.2086
0.300133
0.395584
0.493855
0.593369
0.679866
0.743502
0.789178
0.822343
0.845856
0.86092
0.868701
0.871497
0.872041
0.87201
-0.135775
-0.10863
-0.0546563
0.0184427
0.101812
0.191285
0.285778
0.38461
0.486727
0.590582
0.681164
0.747741
0.795198
0.829302
0.853236
0.868438
0.87622
0.878956
0.879438
0.879369
-0.160968
-0.13324
-0.0780695
-0.00327021
0.0820839
0.173862
0.271045
0.372998
0.478739
0.586827
0.681572
0.751265
0.800674
0.835832
0.860244
0.875567
0.883282
0.885908
0.886297
0.886169
-0.185672
-0.157349
-0.101048
-0.0246802
0.0624696
0.156322
0.255939
0.360749
0.469886
0.582073
0.681037
0.754075
0.805673
0.842045
0.866965
0.88234
0.889868
0.892304
0.892582
0.89241
-0.209944
-0.181002
-0.123592
-0.0457879
0.0429669
0.138686
0.240495
0.347903
0.460185
0.576288
0.679492
0.756117
0.810242
0.848055
0.873512
0.888825
0.896033
0.898187
0.898348
0.898147
-0.233801
-0.204165
-0.145682
-0.0665698
0.023626
0.121002
0.224772
0.334515
0.449669
0.569446
0.676857
0.757306
0.814373
0.853986
0.880058
0.895121
0.901785
0.90356
0.903598
0.903377
-0.257065
-0.226781
-0.167278
-0.0869926
0.00449652
0.103348
0.20884
0.320663
0.438395
0.561561
0.673055
0.757528
0.817988
0.859938
0.886867
0.901463
0.907213
0.908424
0.908321
0.908099
-0.279688
-0.248792
-0.188339
-0.106994
-0.0143545
0.08579
0.192794
0.30643
0.426444
0.552654
0.668036
0.756648
0.820928
0.865905
0.894281
0.908362
0.912621
0.912831
0.912511
0.912329
-0.301716
-0.270151
-0.208826
-0.126526
-0.0328555
0.0684169
0.176729
0.291919
0.413906
0.542787
0.661751
0.754534
0.822955
0.871668
0.902538
0.916713
0.919011
0.917233
0.91621
0.916238
-0.32298
-0.29082
-0.228672
-0.145513
-0.0509417
0.0513162
0.160744
0.277242
0.400896
0.532061
0.654183
0.751039
0.823793
0.876747
0.911389
0.927392
0.928603
0.923944
0.920166
0.918392
-0.343569
-0.310799
-0.247879
-0.163984
-0.0686489
0.0344422
0.144782
0.262332
0.387333
0.5204
0.645178
0.745895
0.823147
0.880519
0.919868
0.940204
0.943425
0.937499
0.926507
0.925491
-0.363393
-0.33016
-0.266585
-0.182139
-0.0862833
0.0174427
0.128407
0.246679
0.372645
0.507138
0.634035
0.738283
0.820416
0.882083
0.925796
0.951838
0.958388
0.949113
0.930993
0.926633
-0.38231
-0.34887
-0.284617
-0.199763
-0.103587
0.00062832
0.11184
0.230614
0.357139
0.492544
0.62087
0.727683
0.814969
0.880285
0.924599
0.950369
0.960797
0.938704
0.879951
0.853949
-0.400203
-0.367762
-0.301564
-0.216322
-0.119864
-0.0155082
0.0953517
0.214412
0.341096
0.476799
0.605771
0.713621
0.805975
0.874517
0.911759
0.93139
0.92627
0.878929
0.817654
0.779898
-0.444682
-0.386011
-0.317289
-0.232423
-0.135906
-0.0318915
0.0790744
0.197953
0.324321
0.459577
0.588379
0.695668
0.789987
0.863324
0.886765
0.882565
0.843951
0.784097
0.7172
0.680367
-0.420073
-0.401592
-0.341047
-0.256302
-0.160249
-0.0564513
0.053825
0.172046
0.297402
0.430997
0.557841
0.662512
0.748053
0.826729
0.817513
0.719224
0.63535
0.576872
0.51548
0.544814
-0.452133
-0.420132
-0.358715
-0.27451
-0.178542
-0.0750701
0.0353722
0.15294
0.277253
0.408992
0.533058
0.634074
0.709873
0.753324
0.709497
0.578722
0.475978
0.406622
0.327071
0.375089
-0.477196
-0.442741
-0.379482
-0.295092
-0.199189
-0.095757
0.0146112
0.131404
0.254354
0.383659
0.503894
0.599013
0.663683
0.670969
0.572837
0.424651
0.301109
0.212751
0.119674
0.153224
-0.501677
-0.466104
-0.401417
-0.316343
-0.220285
-0.116927
-0.00700555
0.108864
0.230235
0.35674
0.472247
0.560577
0.60863
0.584625
0.434619
0.263791
0.108731
-0.0212783
-0.143021
-0.128522
-0.52592
-0.489904
-0.424272
-0.338591
-0.242304
-0.139091
-0.0297552
0.085058
0.204586
0.327923
0.438025
0.519131
0.547623
0.4816
0.29907
0.107538
-0.0751238
-0.225291
-0.428346
-0.507384
-0.550606
-0.514607
-0.448398
-0.362258
-0.265731
-0.162617
-0.053792
0.0599438
0.177523
0.297467
0.401852
0.47385
0.479206
0.362051
0.175702
-0.0283282
-0.215994
-0.374512
-0.496236
-0.61502
-0.57682
-0.540702
-0.474165
-0.387758
-0.29113
-0.188203
-0.0799799
0.03251
0.147811
0.263833
0.36205
0.422275
0.401741
0.248171
0.0602767
-0.137781
-0.308864
-0.40322
-0.428815
-0.442401
-0.604702
-0.56848
-0.501707
-0.415196
-0.318653
-0.216082
-0.108704
0.00223385
0.114818
0.226191
0.317756
0.361529
0.322799
0.138934
-0.0472915
-0.225085
-0.353749
-0.390318
-0.399088
-0.399422
-0.634535
-0.598069
-0.531063
-0.444556
-0.348251
-0.246267
-0.139995
-0.0309503
0.0784607
0.184476
0.268412
0.296767
0.228289
0.0389072
-0.141191
-0.295532
-0.366912
-0.380661
-0.381558
-0.381371
-0.666334
-0.629505
-0.562248
-0.475834
-0.379938
-0.278752
-0.173869
-0.0670747
0.0387368
0.138764
0.21375
0.227915
0.122102
-0.0522301
-0.221905
-0.343399
-0.370659
-0.37154
-0.371987
-0.37145
-0.69984
-0.662616
-0.595155
-0.508945
-0.413625
-0.313482
-0.210306
-0.106134
-0.00431544
0.0891573
0.154781
0.150484
0.0262354
-0.137645
-0.285541
-0.352293
-0.367355
-0.366783
-0.366953
-0.366513
-0.734483
-0.697051
-0.629515
-0.543651
-0.449114
-0.350291
-0.249156
-0.148023
-0.0505134
0.0360449
0.0917124
0.0714802
-0.0633739
-0.215085
-0.329623
-0.362422
-0.362225
-0.362774
-0.362688
-0.362586
-0.769826
-0.732277
-0.664838
-0.57952
-0.486037
-0.388836
-0.290126
-0.192475
-0.0996392
-0.0196598
0.0230461
-0.0038404
-0.146085
-0.278091
-0.360443
-0.365412
-0.363448
-0.360182
-0.358928
-0.358666
-0.804903
-0.767396
-0.700362
-0.615887
-0.523817
-0.428617
-0.332723
-0.239008
-0.151338
-0.0771556
-0.0460608
-0.0817977
-0.21944
-0.330756
-0.37604
-0.381327
-0.370267
-0.364128
-0.360556
-0.358874
-0.837814
-0.8011
-0.735035
-0.651827
-0.561629
-0.468897
-0.376214
-0.286885
-0.204855
-0.136172
-0.110968
-0.165484
-0.28363
-0.381887
-0.399619
-0.390874
-0.381939
-0.375026
-0.371221
-0.36932
-0.867516
-0.831876
-0.767427
-0.6861
-0.598346
-0.508685
-0.419667
-0.335092
-0.259018
-0.196237
-0.174414
-0.241494
-0.339257
-0.417451
-0.441598
-0.417149
-0.399529
-0.390723
-0.388333
-0.386946
-0.891275
-0.857592
-0.795751
-0.717133
-0.632569
-0.546679
-0.461958
-0.38234
-0.312526
-0.255799
-0.236663
-0.30423
-0.385395
-0.433039
-0.439263
-0.447233
-0.443144
-0.443059
-0.441929
-0.440109
-0.906944
-0.876058
-0.817875
-0.743089
-0.662684
-0.581293
-0.501689
-0.427213
-0.3639
-0.313036
-0.292366
-0.357781
-0.424427
-0.459876
-0.493924
-0.522343
-0.548729
-0.555119
-0.550273
-0.54732
-0.911777
-0.884821
-0.831621
-0.761997
-0.686919
-0.610893
-0.53706
-0.468263
-0.411359
-0.367424
-0.342238
-0.410539
-0.473456
-0.503177
-0.557082
-0.636105
-0.674271
-0.671722
-0.662017
-0.659727
-0.903629
-0.881483
-0.834817
-0.771988
-0.703517
-0.633993
-0.56616
-0.503816
-0.452469
-0.419312
-0.38957
-0.478932
-0.535982
-0.518361
-0.55833
-0.670883
-0.7037
-0.703532
-0.705826
-0.707149
-0.879442
-0.86293
-0.825426
-0.771686
-0.711207
-0.649115
-0.587789
-0.531505
-0.485425
-0.462105
-0.456264
-0.577049
-0.648779
-0.642227
-0.638488
-0.718459
-0.758956
-0.749066
-0.747943
-0.746521
-0.842331
-0.831597
-0.804103
-0.761064
-0.709803
-0.655357
-0.600902
-0.549559
-0.508238
-0.489185
-0.507312
-0.669105
-0.861582
-1.057
-1.13119
-1.19457
-1.07726
-0.912941
-0.833025
-0.834613
-0.798618
-0.792548
-0.775495
-0.742969
-0.700846
-0.653551
-0.604307
-0.556686
-0.51855
-0.497793
-0.526976
-0.683383
-0.95032
-1.29571
-1.52829
-1.63272
-1.56655
-1.37307
-1.20379
-1.13162
-0.757804
-0.754347
-0.745598
-0.722569
-0.687551
-0.645108
-0.599015
-0.552554
-0.50957
-0.486878
-0.507558
-0.556643
-0.679351
-0.859809
-0.871563
-0.923773
-0.935903
-0.902744
-0.837056
-0.785051
-0.726552
-0.724539
-0.720143
-0.704465
-0.674476
-0.633725
-0.587471
-0.53505
-0.482607
-0.436223
-0.398987
-0.363422
-0.216881
-0.191994
-0.19721
-0.174124
-0.0326146
0.0696439
0.141596
0.17962
-0.701533
-0.700734
-0.69948
-0.690749
-0.66497
-0.623659
-0.571465
-0.512879
-0.4425
-0.362581
-0.276288
-0.132336
0.0128066
0.229435
0.485606
0.736486
0.942821
1.08955
1.20295
1.2467
-0.685803
-0.685373
-0.68501
-0.680722
-0.659314
-0.616585
-0.557222
-0.48558
-0.401183
-0.293232
-0.177264
0.0156792
0.294411
0.659918
1.06767
1.4365
1.72178
1.9353
2.04858
2.08675
-0.67505
-0.674568
-0.673762
-0.672474
-0.656923
-0.614379
-0.54834
-0.463667
-0.368909
-0.24988
-0.118443
0.0141576
0.309931
0.677284
1.15129
1.6025
1.9512
2.16692
2.26874
2.29861
-0.671959
-0.669982
-0.666554
-0.66642
-0.65989
-0.619516
-0.545831
-0.45192
-0.344367
-0.23422
-0.0966283
0.0240798
0.221849
0.597129
1.01972
1.41758
1.71267
1.89306
1.97483
1.99627
-0.690524
-0.687543
-0.685299
-0.688004
-0.683759
-0.635634
-0.545029
-0.441837
-0.32957
-0.214907
-0.09133
0.033239
0.161259
0.437433
0.794364
1.09442
1.32049
1.45135
1.50571
1.5194
-0.729344
-0.730939
-0.740449
-0.746317
-0.730151
-0.654552
-0.538639
-0.423356
-0.314923
-0.199633
-0.0956943
0.0106586
0.105365
0.267245
0.528025
0.754521
0.920233
1.01176
1.05035
1.05827
-0.740215
-0.750594
-0.76712
-0.772258
-0.738019
-0.635834
-0.508247
-0.393818
-0.290359
-0.190552
-0.101707
-0.0259186
0.0445637
0.165216
0.339965
0.482821
0.592854
0.652794
0.676736
0.680958
-0.63931
-0.650884
-0.666486
-0.668776
-0.631399
-0.539398
-0.438135
-0.344512
-0.25688
-0.180082
-0.114378
-0.0635117
-0.0254238
0.0446398
0.168984
0.277356
0.348129
0.3857
0.399477
0.401533
-0.427113
-0.435169
-0.446275
-0.450225
-0.429941
-0.384333
-0.330965
-0.272217
-0.215872
-0.161038
-0.12332
-0.0904856
-0.0811678
-0.023538
0.0624226
0.128479
0.172978
0.195572
0.203959
0.203942
-0.200505
-0.204568
-0.212584
-0.222789
-0.228614
-0.226297
-0.214973
-0.194542
-0.167802
-0.134626
-0.118124
-0.11233
-0.117085
-0.0795147
-0.00758578
0.0360427
0.0592428
0.0683653
0.0711116
0.0707694
-0.0431581
-0.0452931
-0.0523579
-0.0677928
-0.0893791
-0.110342
-0.123706
-0.128002
-0.122052
-0.108285
-0.100097
-0.106439
-0.111537
-0.0792663
-0.0387475
-0.0178792
-0.00697375
-0.00313667
-0.00240871
-0.00277569
0.0331921
0.0317278
0.0254878
0.00993889
-0.0145697
-0.0410638
-0.0634186
-0.0776109
-0.0832638
-0.0791655
-0.0749406
-0.077103
-0.0787121
-0.0512749
-0.0312946
-0.0239934
-0.0255548
-0.0282868
-0.029536
-0.0298186
0.0576208
0.0565132
0.0516883
0.0393229
0.0192415
-0.00405404
-0.0258016
-0.0429445
-0.0520355
-0.0523629
-0.0460019
-0.0365769
-0.0273274
-0.00939615
-0.00405325
-0.00869282
-0.014315
-0.0173933
-0.018118
-0.0185372
0.0576892
0.0569549
0.0536372
0.0449456
0.0302945
0.0122642
-0.00565151
-0.020604
-0.0297915
-0.029476
-0.0176853
0.00344677
0.0286515
0.0393117
0.0314419
0.0202595
0.0139403
0.012239
0.011368
0.0107489
0.0480789
0.0476458
0.0455365
0.0398073
0.0297849
0.0169772
0.00329522
-0.0084342
-0.0157713
-0.0142869
0.00213071
0.0291837
0.0601973
0.0636388
0.0539982
0.0446737
0.0422468
0.0428466
0.0432905
0.0418509
0.0353642
0.0351182
0.0338416
0.0302336
0.0237067
0.0148727
0.00515181
-0.00366636
-0.00947204
-0.0081866
0.00773237
0.0336715
0.0625035
0.0600816
0.0507476
0.0492322
0.0515281
0.0549975
0.0555059
0.0540501
0.0224934
0.0223388
0.0215695
0.0194271
0.0152882
0.00946702
0.00246319
-0.00418883
-0.00986438
-0.0106731
-0.00102897
0.0159884
0.0343104
0.027336
0.0240962
0.0280967
0.0365566
0.0427086
0.0439265
0.0422303
0.0110873
0.0109478
0.0104539
0.00918607
0.00661927
0.00272171
-0.00251644
-0.0082548
-0.0145566
-0.0193049
-0.0205405
-0.0190288
-0.0161121
-0.0223477
-0.0217888
-0.0114652
-0.00149572
0.0037098
0.00457811
0.00338333
0.00203653
0.00188836
0.00152165
0.000734285
-0.000879371
-0.00364538
-0.00781426
-0.0133505
-0.0210437
-0.030832
-0.0453169
-0.0624183
-0.0832814
-0.091276
-0.0784439
-0.0617949
-0.0501285
-0.0455101
-0.0450018
-0.0457107
-0.00426569
-0.00442247
-0.00474244
-0.00529258
-0.0064072
-0.00850182
-0.0119925
-0.0175978
-0.0266025
-0.0408528
-0.0654334
-0.103389
-0.13711
-0.142734
-0.122506
-0.103009
-0.0936535
-0.0910595
-0.0905005
-0.090548
-0.0078658
-0.0080313
-0.00833421
-0.00881184
-0.00969506
-0.0114787
-0.014403
-0.0197524
-0.0286782
-0.0449231
-0.0734364
-0.11544
-0.15324
-0.151466
-0.132325
-0.118748
-0.114571
-0.1147
-0.114156
-0.113785
-0.00904359
-0.00919364
-0.00947291
-0.00993367
-0.010691
-0.0121682
-0.0146799
-0.0193067
-0.0269967
-0.0421791
-0.0665704
-0.0989818
-0.124165
-0.118205
-0.108249
-0.105342
-0.106803
-0.108296
-0.108147
-0.108047
-0.00840508
-0.00853265
-0.00877657
-0.00917586
-0.00980624
-0.0109162
-0.012979
-0.0164277
-0.0221588
-0.0333249
-0.0485327
-0.0650806
-0.0745696
-0.0711427
-0.0712589
-0.076738
-0.0811852
-0.0833972
-0.0834835
-0.0835614
-0.00650727
-0.00661519
-0.00681002
-0.00711226
-0.00754622
-0.00829666
-0.00980534
-0.0120118
-0.0157922
-0.021562
-0.0271842
-0.0269701
-0.0248605
-0.0224002
-0.0320948
-0.0422988
-0.0475595
-0.048855
-0.0493891
-0.0498044
-0.00386797
-0.00395455
-0.00407089
-0.00425751
-0.00448375
-0.00491308
-0.00564108
-0.00677699
-0.00878536
-0.0106479
-0.00878589
0.00312677
0.0181294
0.0132268
-0.0019587
-0.0136013
-0.0172208
-0.0173902
-0.0183793
-0.0191944
-0.000620578
-0.000655557
-0.000663439
-0.000682539
-0.000903101
-0.00110891
-0.00104541
-0.00102915
-0.00122452
-0.001936
-0.00186835
0.00322569
0.0130443
0.0130877
0.00431816
-0.00120853
-0.00249307
-0.00282809
-0.00349778
-0.00327974
0.00618946
0.196152
0.371098
0.520015
0.64069
0.737384
0.818546
0.884403
0.901211
0.897267
0.300657
0.423347
0.538586
0.639278
0.724651
0.795596
0.851626
0.889459
0.909618
0.926092
0.500854
0.58286
0.664153
0.735853
0.79731
0.848376
0.88855
0.919051
0.941875
0.961114
0.648745
0.70649
0.765566
0.818749
0.864662
0.903642
0.936252
0.963518
0.984016
1.00293
0.766025
0.810166
0.854538
0.895602
0.932101
0.964295
0.992401
1.01617
1.03425
1.05231
0.866316
0.902176
0.937389
0.971467
1.00286
1.03123
1.05626
1.07725
1.09311
1.1106
0.954767
0.987174
1.01957
1.05087
1.08001
1.1065
1.12972
1.14873
1.1627
1.17973
1.04211
1.07483
1.10738
1.13867
1.16751
1.19338
1.21557
1.23316
1.24559
1.26212
1.13671
1.17316
1.20798
1.24051
1.26974
1.29516
1.31633
1.33266
1.34431
1.36046
1.24985
1.29039
1.32748
1.36052
1.38908
1.41312
1.43278
1.44808
1.46
1.47608
1.3912
1.43236
1.46766
1.4973
1.52255
1.54419
1.56271
1.57821
1.59134
1.6073
1.56285
1.59539
1.62225
1.64456
1.66466
1.6834
1.70115
1.71793
1.73285
1.74858
1.74927
1.76657
1.7837
1.80038
1.81648
1.83122
1.84513
1.85961
1.87486
1.89216
1.93265
1.94265
1.95586
1.96686
1.97626
1.98592
1.99654
2.00672
2.01601
2.04168
2.15059
2.14489
2.13195
2.11769
2.11139
2.11711
2.13526
2.16378
2.19754
2.23387
2.45341
2.31745
2.23795
2.19545
2.17813
2.1821
2.20953
2.2674
2.37506
2.55347
0.751828
0.745524
0.737789
0.726667
0.713085
0.700421
0.690001
0.681956
0.676194
0.672805
0.672382
0.675149
0.680329
0.687647
0.697168
0.708979
0.722529
0.73545
0.744433
0.751971
0.660915
0.666832
0.6749
0.681024
0.684081
0.683553
0.680443
0.676414
0.672776
0.670432
0.670226
0.672408
0.676106
0.680511
0.684584
0.686808
0.68572
0.681072
0.674011
0.666174
0.654198
0.65657
0.659831
0.662594
0.66503
0.6672
0.668352
0.668168
0.667179
0.666304
0.66644
0.667779
0.669502
0.670686
0.670577
0.669085
0.666909
0.664533
0.661542
0.658519
0.649454
0.650542
0.652452
0.654779
0.656634
0.658011
0.659198
0.660148
0.66069
0.660991
0.661456
0.662117
0.662518
0.662347
0.661678
0.660725
0.659371
0.657384
0.655264
0.653783
0.64449
0.645124
0.646246
0.647991
0.649815
0.651382
0.652598
0.653612
0.654525
0.655333
0.656017
0.656444
0.656505
0.656237
0.655651
0.654639
0.653183
0.65155
0.650197
0.649391
0.639642
0.640082
0.640864
0.642153
0.643653
0.645186
0.646622
0.647861
0.648936
0.649919
0.65075
0.651239
0.651326
0.651014
0.650291
0.649245
0.648054
0.646881
0.64596
0.645422
0.634902
0.63523
0.635837
0.636891
0.638163
0.639529
0.64096
0.642369
0.64367
0.644856
0.645862
0.646464
0.646571
0.646232
0.645559
0.644713
0.643817
0.642927
0.642243
0.641847
0.630251
0.630506
0.630994
0.631889
0.633036
0.634307
0.635676
0.637129
0.638607
0.64003
0.641256
0.642001
0.642195
0.641974
0.641495
0.640868
0.640171
0.639495
0.638987
0.638684
0.625619
0.625821
0.626227
0.627012
0.62808
0.6293
0.630652
0.632143
0.63375
0.635402
0.636889
0.637856
0.638246
0.638235
0.637966
0.637541
0.637032
0.636534
0.63616
0.635922
0.620928
0.621092
0.621438
0.622151
0.623171
0.624368
0.625741
0.627302
0.629042
0.630914
0.632706
0.634
0.634683
0.634933
0.634891
0.634669
0.634347
0.634007
0.633743
0.633553
0.616098
0.616231
0.616536
0.617203
0.618203
0.619421
0.62085
0.622521
0.624445
0.6266
0.628772
0.630459
0.631491
0.632039
0.632252
0.632245
0.632107
0.631917
0.631745
0.631592
0.611046
0.611152
0.611429
0.612077
0.613095
0.614377
0.615911
0.617745
0.619922
0.622437
0.625076
0.627244
0.628683
0.629571
0.630064
0.630284
0.630329
0.630284
0.630192
0.630067
0.60569
0.605775
0.606035
0.606689
0.60776
0.609149
0.610845
0.612923
0.615442
0.618425
0.621644
0.624383
0.626293
0.627559
0.628356
0.628832
0.629076
0.629164
0.629141
0.629039
0.599934
0.599999
0.600253
0.600935
0.602096
0.603638
0.605557
0.60795
0.610908
0.614481
0.618414
0.621843
0.624312
0.626024
0.627177
0.627935
0.628393
0.628622
0.628663
0.62858
0.593659
0.593704
0.593957
0.594688
0.595976
0.597725
0.599932
0.602718
0.60621
0.610493
0.6153
0.619579
0.622741
0.624999
0.626573
0.62765
0.628358
0.628738
0.628845
0.62878
0.586729
0.586752
0.587012
0.587816
0.589271
0.591288
0.593873
0.597168
0.60134
0.606514
0.612393
0.617699
0.621682
0.624587
0.626644
0.628097
0.62909
0.629634
0.629807
0.629757
0.578965
0.57898
0.579243
0.580139
0.581814
0.584177
0.587244
0.591198
0.596242
0.602529
0.609713
0.616265
0.621215
0.624859
0.627498
0.629398
0.630708
0.631434
0.631676
0.631638
0.570066
0.570051
0.570362
0.571399
0.573368
0.576172
0.579846
0.584615
0.590749
0.598442
0.607239
0.615244
0.62135
0.625894
0.629227
0.631671
0.633352
0.634281
0.634599
0.634572
0.559781
0.559744
0.5601
0.561313
0.563632
0.566992
0.571442
0.577247
0.584708
0.59407
0.60482
0.614659
0.622175
0.627798
0.631968
0.635053
0.637178
0.638344
0.638742
0.638722
0.547642
0.547583
0.548013
0.549463
0.552239
0.556329
0.561797
0.568961
0.578192
0.589735
0.602869
0.614791
0.623897
0.630759
0.635895
0.639714
0.642351
0.64378
0.64426
0.644246
0.532991
0.532909
0.533454
0.535234
0.53863
0.5437
0.550512
0.55943
0.570859
0.58504
0.601053
0.615501
0.626512
0.634829
0.641113
0.645805
0.649038
0.650759
0.651321
0.651305
0.514898
0.514797
0.515534
0.517796
0.522058
0.528484
0.537133
0.548409
0.562721
0.580214
0.599664
0.617008
0.630165
0.640134
0.647747
0.65345
0.657361
0.659398
0.660032
0.660003
0.491921
0.491819
0.492888
0.495918
0.501502
0.509949
0.521243
0.535769
0.553841
0.575438
0.598904
0.619501
0.635035
0.646836
0.655877
0.662708
0.667348
0.669694
0.670379
0.670325
0.461697
0.461642
0.463314
0.467677
0.475502
0.487103
0.502291
0.52128
0.544162
0.570672
0.598754
0.62298
0.641108
0.654885
0.66549
0.673541
0.678908
0.681516
0.682213
0.682122
0.420072
0.420222
0.423219
0.430387
0.442433
0.459268
0.480266
0.50533
0.534247
0.566535
0.599714
0.627764
0.648577
0.664378
0.67661
0.685861
0.691852
0.694589
0.69524
0.695105
0.359367
0.360676
0.367994
0.381608
0.401403
0.426565
0.455755
0.488516
0.52452
0.563226
0.601849
0.633867
0.657407
0.675206
0.688987
0.699355
0.7058
0.708472
0.708974
0.708802
0.286359
0.288967
0.30322
0.32678
0.357212
0.392267
0.430392
0.471385
0.515061
0.560947
0.606014
0.64307
0.670296
0.690962
0.706851
0.718514
0.72552
0.72831
0.72888
0.728833
0.211492
0.218394
0.239803
0.273281
0.314057
0.358764
0.40583
0.455145
0.5066
0.559801
0.611498
0.653804
0.684846
0.708483
0.726711
0.739835
0.747304
0.749922
0.75036
0.750409
0.150564
0.159279
0.185359
0.225901
0.27474
0.327621
0.38276
0.439883
0.498787
0.559008
0.617012
0.664239
0.698822
0.725116
0.745348
0.759721
0.767416
0.770186
0.770974
0.77111
0.100565
0.109985
0.13957
0.185369
0.24034
0.299781
0.361721
0.425728
0.491418
0.558197
0.622131
0.673943
0.711772
0.740426
0.76241
0.777985
0.786556
0.7899
0.790837
0.791
0.0584989
0.0682252
0.100221
0.150123
0.210123
0.275033
0.342727
0.412715
0.484472
0.557257
0.626729
0.682788
0.723561
0.754401
0.778027
0.794723
0.80407
0.807821
0.808894
0.809053
0.0219358
0.0318111
0.0656311
0.118827
0.183016
0.252612
0.325328
0.400603
0.477829
0.556114
0.63068
0.690683
0.734133
0.766914
0.791879
0.809404
0.819372
0.823514
0.824687
0.824846
-0.0107464
-0.00079774
0.0344707
0.0903957
0.15814
0.231784
0.308939
0.388979
0.471209
0.554576
0.633889
0.697549
0.743482
0.777879
0.803808
0.82186
0.832361
0.836844
0.838089
0.838246
-0.0407512
-0.0307396
0.00569679
0.0639897
0.134813
0.211994
0.293096
0.377472
0.464316
0.552458
0.636303
0.703451
0.751692
0.787486
0.81413
0.832556
0.843316
0.848047
0.849411
0.849575
-0.0689811
-0.0588949
-0.0213711
0.0390177
0.112538
0.192832
0.27747
0.365796
0.456934
0.549617
0.637865
0.708457
0.758918
0.795985
0.823227
0.841966
0.852929
0.857812
0.859195
0.859344
-0.0959853
-0.0857699
-0.0472497
0.0150242
0.0909428
0.174011
0.261841
0.353776
0.448919
0.54595
0.638553
0.712612
0.765272
0.803569
0.831374
0.850393
0.861482
0.866403
0.867773
0.867858
-0.122147
-0.111752
-0.0722894
-0.00828758
0.0697834
0.155346
0.246069
0.34131
0.44019
0.541401
0.638345
0.715946
0.77087
0.810435
0.838843
0.858121
0.869296
0.874191
0.875526
0.875591
-0.147718
-0.137066
-0.0966957
-0.031099
0.0489196
0.136726
0.230071
0.328345
0.430705
0.535932
0.637206
0.718469
0.775806
0.816754
0.84585
0.865406
0.876632
0.881457
0.882703
0.882737
-0.172748
-0.161823
-0.120586
-0.0535107
0.0282791
0.118113
0.213826
0.314866
0.420461
0.529512
0.635092
0.720179
0.78014
0.822643
0.85252
0.872353
0.883554
0.88822
0.88934
0.889312
-0.197317
-0.18611
-0.144025
-0.0755459
0.00784564
0.0995006
0.197346
0.300895
0.409471
0.522141
0.631952
0.72102
0.783886
0.828195
0.858958
0.879018
0.890081
0.894502
0.895442
0.895348
-0.221408
-0.209916
-0.16698
-0.0971969
-0.0123621
0.0809225
0.180681
0.286483
0.397775
0.513813
0.627733
0.720905
0.787015
0.833488
0.865307
0.885525
0.896254
0.900277
0.901008
0.900863
-0.245053
-0.23321
-0.189414
-0.118434
-0.0323059
0.0624314
0.163888
0.271702
0.385434
0.504551
0.622387
0.719739
0.789438
0.838558
0.87175
0.892072
0.902179
0.905585
0.906049
0.90586
-0.268003
-0.255925
-0.211288
-0.139217
-0.0519243
0.0441112
0.147045
0.256632
0.372525
0.49441
0.615889
0.717425
0.791022
0.843354
0.878487
0.899026
0.908119
0.91049
0.910554
0.910332
-0.290404
-0.277989
-0.232552
-0.159502
-0.0711713
0.02601
0.130249
0.241359
0.359138
0.483471
0.60824
0.713866
0.791592
0.847685
0.885602
0.906949
0.914777
0.91536
0.91457
0.914303
-0.312062
-0.299351
-0.253178
-0.179228
-0.0899552
0.00821916
0.113589
0.226007
0.345381
0.471803
0.599478
0.708971
0.790954
0.85122
0.892866
0.916338
0.923557
0.921654
0.918721
0.917915
-0.333067
-0.320031
-0.273098
-0.198327
-0.108233
-0.00918912
0.0971557
0.210662
0.331365
0.459545
0.589675
0.702647
0.788916
0.853538
0.899555
0.92692
0.935852
0.93279
0.926101
0.916392
-0.353303
-0.340019
-0.292405
-0.216971
-0.126235
-0.0265163
0.0805904
0.194892
0.31661
0.44616
0.578278
0.694267
0.784958
0.85419
0.90472
0.937384
0.951264
0.949386
0.938701
0.93558
-0.372719
-0.359395
-0.311095
-0.235091
-0.143933
-0.0437356
0.0639293
0.17868
0.301088
0.431531
0.565123