/*--------------------------------*- C++ -*----------------------------------*\
  =========                 |
  \\      /  F ield         | OpenFOAM: The Open Source CFD Toolbox
   \\    /   O peration     | Website:  https://openfoam.org
    \\  /    A nd           | Version:  6
     \\/     M anipulation  |
\*---------------------------------------------------------------------------*/
FoamFile
{
    version     2.0;
    format      ascii;
    class       volScalarField;
    location    "83";
    object      p;
}
// * * * * * * * * * * * * * * * * * * * * * * * * * * * * * * * * * * * * * //

dimensions      [0 2 -2 0 0 0 0];

internalField   nonuniform List<scalar> 
8800
(
0.852184
0.80287
0.764905
0.736836
0.716676
0.702089
0.691492
0.683954
0.679071
0.677005
0.67838
0.682727
0.689523
0.69895
0.711689
0.729012
0.75289
0.785989
0.828927
0.881441
0.686676
0.693021
0.702171
0.705721
0.703113
0.697025
0.690085
0.683845
0.679045
0.676179
0.675952
0.678585
0.683231
0.689364
0.696467
0.703503
0.708384
0.708262
0.701589
0.692691
0.660187
0.666423
0.670924
0.674796
0.677745
0.678695
0.677608
0.675489
0.673512
0.672677
0.673715
0.676175
0.679067
0.681342
0.681867
0.680082
0.676719
0.672709
0.667929
0.664214
0.65588
0.658646
0.661253
0.663412
0.665151
0.666721
0.667826
0.668182
0.668073
0.668178
0.66899
0.670141
0.67089
0.670747
0.669778
0.668428
0.666763
0.664464
0.662056
0.660489
0.650815
0.65224
0.654081
0.656163
0.657877
0.659173
0.660274
0.661259
0.662074
0.66282
0.663542
0.664013
0.664047
0.663693
0.663033
0.661924
0.660274
0.658384
0.657034
0.656231
0.645812
0.646715
0.647963
0.649592
0.651288
0.652824
0.654113
0.655242
0.656315
0.657345
0.658145
0.658551
0.658575
0.658219
0.657427
0.656248
0.654895
0.653635
0.652817
0.652293
0.640888
0.641544
0.642507
0.643827
0.645278
0.6468
0.648291
0.649664
0.650939
0.652161
0.653132
0.653648
0.653684
0.653265
0.652499
0.651569
0.650588
0.649691
0.649115
0.64873
0.636039
0.636544
0.637331
0.638475
0.639781
0.641205
0.642723
0.644276
0.645804
0.647282
0.648465
0.649102
0.649207
0.648909
0.648365
0.647693
0.64697
0.646317
0.645895
0.645595
0.631209
0.631611
0.632273
0.633299
0.634536
0.63591
0.637427
0.639083
0.640836
0.64261
0.644062
0.644906
0.645216
0.645158
0.644863
0.644419
0.643908
0.643452
0.643142
0.642898
0.626316
0.626644
0.62722
0.628169
0.629364
0.630732
0.632291
0.634058
0.63602
0.63811
0.639914
0.641083
0.641697
0.641918
0.641874
0.641668
0.641361
0.641071
0.640845
0.64064
0.621271
0.621543
0.62206
0.622966
0.624149
0.625552
0.627197
0.629119
0.631331
0.633791
0.636035
0.637622
0.638603
0.639142
0.639373
0.639409
0.639309
0.639166
0.639009
0.638831
0.615981
0.61621
0.616689
0.617583
0.618796
0.620275
0.622052
0.624187
0.626721
0.629639
0.632421
0.634508
0.635917
0.636822
0.637361
0.637647
0.637764
0.63776
0.63766
0.637501
0.61035
0.610545
0.611007
0.611918
0.613201
0.614803
0.616766
0.619185
0.622129
0.625617
0.629051
0.631733
0.633645
0.634969
0.635861
0.636434
0.636773
0.636898
0.636846
0.636699
0.604271
0.604439
0.6049
0.605856
0.607251
0.609028
0.611247
0.614032
0.617492
0.621679
0.625901
0.629297
0.631804
0.633617
0.634913
0.635815
0.636388
0.636642
0.636631
0.636491
0.597617
0.597763
0.598239
0.59927
0.60082
0.602834
0.605387
0.608639
0.612739
0.617781
0.622956
0.627206
0.63042
0.632808
0.634565
0.635838
0.63668
0.637068
0.637094
0.636957
0.590243
0.590364
0.590869
0.592006
0.593764
0.596084
0.599064
0.602901
0.607793
0.613877
0.620201
0.625469
0.629519
0.632587
0.634895
0.636597
0.637738
0.638265
0.638325
0.638187
0.581956
0.582061
0.582603
0.583877
0.585904
0.588615
0.592132
0.596699
0.602567
0.609919
0.617623
0.624103
0.629139
0.633008
0.635973
0.63818
0.639657
0.64033
0.640421
0.640278
0.572485
0.57259
0.573197
0.574644
0.577018
0.580223
0.584414
0.589892
0.596963
0.605857
0.615212
0.623127
0.629327
0.634139
0.637878
0.640677
0.642534
0.64336
0.643478
0.643325
0.561531
0.561616
0.562308
0.564005
0.566821
0.570656
0.575699
0.582317
0.590873
0.60164
0.612966
0.622567
0.630133
0.636052
0.640685
0.644178
0.646458
0.64744
0.647579
0.647413
0.548694
0.548766
0.549564
0.551572
0.554951
0.559594
0.565727
0.573783
0.584183
0.597224
0.61089
0.622458
0.6316
0.638805
0.644481
0.648763
0.651499
0.652629
0.652779
0.652597
0.533381
0.533444
0.534393
0.53682
0.54094
0.546642
0.554187
0.564081
0.576783
0.592581
0.609002
0.622841
0.633776
0.642452
0.649311
0.654473
0.657682
0.65894
0.659088
0.658887
0.514786
0.514843
0.51601
0.519026
0.52416
0.531291
0.540712
0.552993
0.568589
0.58772
0.607345
0.623753
0.636709
0.647024
0.655191
0.661314
0.664973
0.666317
0.666444
0.666223
0.491686
0.49175
0.49327
0.497177
0.503769
0.512908
0.524903
0.540335
0.559577
0.5827
0.605992
0.625251
0.640423
0.652531
0.662111
0.669208
0.673243
0.674605
0.67469
0.67445
0.462233
0.462327
0.464453
0.469798
0.478667
0.490768
0.506404
0.526035
0.549837
0.577665
0.605063
0.62741
0.644937
0.658946
0.670004
0.677997
0.682257
0.683541
0.68356
0.683307
0.423225
0.423454
0.426834
0.434839
0.447554
0.464248
0.48509
0.510251
0.539625
0.572847
0.604719
0.630316
0.650273
0.666204
0.678722
0.687416
0.69166
0.692752
0.692691
0.692434
0.36859
0.369736
0.376482
0.390022
0.409471
0.433278
0.461333
0.493473
0.529382
0.568567
0.605149
0.634059
0.656432
0.67422
0.688034
0.69709
0.700998
0.701802
0.701663
0.701412
0.289537
0.297296
0.312816
0.336526
0.366039
0.399366
0.43619
0.476298
0.519397
0.565006
0.606589
0.639027
0.664001
0.68376
0.698619
0.707665
0.711039
0.711546
0.711359
0.711147
0.205411
0.222377
0.247582
0.282215
0.322332
0.365312
0.410904
0.45907
0.509619
0.562149
0.609411
0.645961
0.674014
0.695944
0.71173
0.720154
0.722666
0.722878
0.722715
0.722581
0.133257
0.15401
0.187297
0.231302
0.280822
0.332888
0.387009
0.443079
0.500874
0.559978
0.612463
0.65264
0.683278
0.706878
0.722922
0.730435
0.732286
0.732394
0.732268
0.732167
0.0741215
0.097183
0.136018
0.186739
0.243599
0.303259
0.3649
0.428208
0.492761
0.55801
0.615291
0.658718
0.691488
0.716229
0.732297
0.7392
0.740752
0.740837
0.740741
0.740649
0.0250979
0.049533
0.092378
0.148334
0.211059
0.276957
0.34499
0.414676
0.485368
0.556311
0.618055
0.664439
0.69908
0.724777
0.740806
0.747261
0.748659
0.748764
0.748706
0.748621
-0.016445
0.00879323
0.0545952
0.114796
0.182462
0.253683
0.327248
0.402579
0.47885
0.55508
0.621047
0.670217
0.706615
0.733112
0.749064
0.755215
0.756527
0.756672
0.756657
0.756579
-0.0525765
-0.0268178
0.0212876
0.0850111
0.156909
0.232782
0.311279
0.391726
0.473158
0.55439
0.624411
0.676286
0.714337
0.741613
0.757566
0.763496
0.764807
0.765005
0.765039
0.764975
-0.0848198
-0.0586559
-0.00866309
0.0580712
0.133649
0.213629
0.296588
0.381768
0.468056
0.554102
0.628087
0.682665
0.722409
0.750531
0.766619
0.77255
0.773845
0.774058
0.774135
0.774087
-0.114232
-0.0877025
-0.0361075
0.0332506
0.11208
0.195728
0.282744
0.372324
0.463249
0.55398
0.631937
0.689259
0.730794
0.759907
0.776342
0.782368
0.783654
0.78385
0.783922
0.783888
-0.141651
-0.114739
-0.0617123
0.0100144
0.091736
0.178679
0.269402
0.363085
0.458454
0.553807
0.635775
0.695931
0.739356
0.769583
0.786461
0.792629
0.793905
0.794059
0.79411
0.79409
-0.167505
-0.140233
-0.0858948
-0.0120555
0.0722586
0.162181
0.256301
0.353816
0.453443
0.553384
0.639438
0.702529
0.74789
0.779256
0.796626
0.802941
0.804209
0.804298
0.804317
0.804308
-0.192286
-0.164576
-0.109024
-0.0332637
0.0533856
0.146005
0.243248
0.344338
0.448032
0.552521
0.642775
0.70891
0.756244
0.788735
0.806541
0.812936
0.814189
0.814204
0.814176
0.814164
-0.216156
-0.188002
-0.131309
-0.0538122
0.0349366
0.130001
0.230102
0.334521
0.442084
0.551062
0.645657
0.714993
0.764329
0.797813
0.815916
0.822333
0.823511
0.823459
0.823387
0.823367
-0.23928
-0.210652
-0.152902
-0.0738268
0.0168098
0.114078
0.216779
0.324269
0.435494
0.548884
0.647955
0.720716
0.772133
0.80648
0.824658
0.830934
0.832009
0.831893
0.831784
0.831755
-0.261777
-0.232652
-0.173884
-0.0933744
-0.00106112
0.0981895
0.203243
0.313545
0.428197
0.545876
0.649546
0.726036
0.779724
0.81482
0.832776
0.838719
0.839625
0.83945
0.839315
0.839279
-0.283732
-0.254054
-0.194289
-0.112482
-0.0186806
0.0823235
0.18949
0.302339
0.420157
0.541937
0.650314
0.730894
0.787198
0.823046
0.840477
0.845755
0.846376
0.846144
0.846001
0.84596
-0.305034
-0.27483
-0.214117
-0.131165
-0.0360465
0.0665112
0.17554
0.290677
0.411375
0.537027
0.650131
0.735202
0.79465
0.831484
0.848112
0.852272
0.852344
0.852037
0.851927
0.851892
-0.325681
-0.294968
-0.233379
-0.149407
-0.0531303
0.0507843
0.161453
0.278596
0.401887
0.531117
0.648885
0.738819
0.802078
0.840464
0.856305
0.858803
0.857758
0.857215
0.857257
0.857311
-0.345735
-0.31446
-0.252071
-0.167192
-0.0698901
0.0352034
0.147292
0.26617
0.391744
0.52421
0.646462
0.74157
0.809352
0.850171
0.865841
0.866504
0.863474
0.86204
0.862333
0.862901
-0.365071
-0.333286
-0.270153
-0.184471
-0.0862841
0.019837
0.133137
0.253486
0.381029
0.516358
0.642773
0.743233
0.816207
0.860446
0.877214
0.876965
0.871699
0.867976
0.866842
0.866733
-0.38378
-0.351469
-0.287639
-0.201284
-0.102354
0.00464136
0.118932
0.240485
0.369672
0.507495
0.637655
0.74355
0.822407
0.870919
0.890262
0.891116
0.884897
0.877087
0.868193
0.869834
-0.401794
-0.369076
-0.304668
-0.217826
-0.118391
-0.0107039
0.104277
0.226703
0.357161
0.49704
0.630522
0.741855
0.827677
0.881298
0.904002
0.907813
0.900933
0.887501
0.867238
0.867564
-0.418989
-0.386084
-0.321087
-0.233916
-0.134138
-0.0259073
0.0893612
0.21244
0.343752
0.485171
0.6213
0.737266
0.830905
0.8902
0.914435
0.91896
0.911709
0.882998
0.826061
0.801945
-0.435258
-0.403445
-0.336503
-0.249124
-0.148805
-0.0404839
0.074466
0.197972
0.329723
0.472044
0.609998
0.729075
0.830708
0.896209
0.91623
0.915475
0.894929
0.839615
0.777178
0.739344
-0.477372
-0.42049
-0.350617
-0.264377
-0.163152
-0.0554176
0.0597377
0.183168
0.314853
0.457275
0.596125
0.716489
0.823108
0.89482
0.905649
0.883927
0.828276
0.758478
0.688026
0.649218
-0.451923
-0.433488
-0.372079
-0.285135
-0.185414
-0.077879
0.0366426
0.15954
0.290537
0.431982
0.57014
0.68966
0.788949
0.86829
0.844704
0.726841
0.630431
0.563467
0.497128
0.521134
-0.482087
-0.450524
-0.388252
-0.301795
-0.202443
-0.0950425
0.0197019
0.142006
0.272094
0.411983
0.547861
0.664156
0.752183
0.796893
0.737158
0.589885
0.47535
0.398111
0.313789
0.355976
-0.505328
-0.471422
-0.407458
-0.320962
-0.221659
-0.114261
0.000390907
0.121944
0.250741
0.388356
0.520516
0.630827
0.707033
0.713435
0.598571
0.437183
0.303429
0.207298
0.109906
0.138236
-0.527864
-0.492958
-0.427673
-0.340547
-0.241179
-0.133902
-0.0197621
0.100844
0.228075
0.362921
0.490168
0.591591
0.650672
0.623308
0.457486
0.275514
0.112005
-0.0246256
-0.150925
-0.141306
-0.550088
-0.514837
-0.448684
-0.360999
-0.261519
-0.154477
-0.0410124
0.0784653
0.203792
0.335362
0.456678
0.549072
0.586991
0.511605
0.318422
0.117299
-0.0722717
-0.228216
-0.434398
-0.51416
-0.572687
-0.537528
-0.470884
-0.382817
-0.283213
-0.176382
-0.0635483
0.0547323
0.177972
0.3059
0.420646
0.50363
0.514161
0.387581
0.191339
-0.0210375
-0.215285
-0.378081
-0.50214
-0.618635
-0.596729
-0.561514
-0.494627
-0.406386
-0.306801
-0.200294
-0.0882112
0.0286611
0.149414
0.273038
0.380607
0.450381
0.432451
0.269775
0.0723339
-0.133835
-0.311439
-0.409826
-0.43599
-0.4493
-0.622344
-0.587088
-0.520044
-0.431796
-0.332429
-0.226442
-0.115382
-0.000269442
0.117486
0.235966
0.335916
0.387033
0.349337
0.156395
-0.0387353
-0.224584
-0.358956
-0.397458
-0.406202
-0.4065
-0.649816
-0.614377
-0.547177
-0.459036
-0.360048
-0.254836
-0.145093
-0.0321274
0.0821084
0.194665
0.286018
0.320014
0.249102
0.0525549
-0.135911
-0.297242
-0.372943
-0.387289
-0.388369
-0.388231
-0.679152
-0.643415
-0.576049
-0.488109
-0.389684
-0.285477
-0.177364
-0.0669425
0.0432835
0.149245
0.23065
0.249178
0.139281
-0.0418609
-0.219555
-0.347151
-0.376752
-0.377755
-0.378496
-0.378111
-0.7101
-0.67404
-0.606564
-0.518941
-0.421256
-0.318322
-0.212179
-0.104703
0.00105729
0.0998312
0.171121
0.170208
0.0419745
-0.128511
-0.285485
-0.358376
-0.373738
-0.372507
-0.372501
-0.372195
-0.742105
-0.705904
-0.638462
-0.551304
-0.454582
-0.353217
-0.249396
-0.145295
-0.0443537
0.046853
0.107838
0.0904754
-0.0475309
-0.204871
-0.330109
-0.368003
-0.367662
-0.368362
-0.368335
-0.368123
-0.774724
-0.738477
-0.671253
-0.584781
-0.489309
-0.389839
-0.288729
-0.188444
-0.0926545
-0.00876166
0.039538
0.0151831
-0.128513
-0.265892
-0.356997
-0.365045
-0.366048
-0.365982
-0.36578
-0.365627
-0.806991
-0.770879
-0.704209
-0.618732
-0.52488
-0.427706
-0.329711
-0.233655
-0.143425
-0.0661725
-0.02879
-0.0601066
-0.197629
-0.311189
-0.365014
-0.374619
-0.367847
-0.365336
-0.364545
-0.364226
-0.83712
-0.801824
-0.736287
-0.652263
-0.560508
-0.4661
-0.371663
-0.28018
-0.195897
-0.124895
-0.0920056
-0.137803
-0.253761
-0.347928
-0.371077
-0.371733
-0.369361
-0.367447
-0.366633
-0.366121
-0.863985
-0.829793
-0.766078
-0.684164
-0.595122
-0.504068
-0.413695
-0.327093
-0.248821
-0.184389
-0.153712
-0.204901
-0.296115
-0.367451
-0.388813
-0.377897
-0.374537
-0.373061
-0.37218
-0.371713
-0.884886
-0.852674
-0.791813
-0.712898
-0.627392
-0.540416
-0.454683
-0.373329
-0.300867
-0.242878
-0.214993
-0.256806
-0.323878
-0.369012
-0.373135
-0.375033
-0.375165
-0.374818
-0.374509
-0.3745
-0.897749
-0.868332
-0.811401
-0.736704
-0.655775
-0.573743
-0.493304
-0.417614
-0.350921
-0.297718
-0.270968
-0.299495
-0.340792
-0.372453
-0.370445
-0.372546
-0.373009
-0.372771
-0.372814
-0.372839
-0.89986
-0.874364
-0.822721
-0.753715
-0.67862
-0.602563
-0.528133
-0.458433
-0.397787
-0.348248
-0.317211
-0.337374
-0.351032
-0.376763
-0.375309
-0.372584
-0.372247
-0.372151
-0.372142
-0.372051
-0.888898
-0.868204
-0.823631
-0.762167
-0.69443
-0.625494
-0.557809
-0.494298
-0.439699
-0.395491
-0.351155
-0.370906
-0.352352
-0.357236
-0.364272
-0.367717
-0.370625
-0.372447
-0.373158
-0.373272
-0.862441
-0.847273
-0.812213
-0.760806
-0.702138
-0.641519
-0.581297
-0.524144
-0.474807
-0.437838
-0.390545
-0.386111
-0.368595
-0.351143
-0.358781
-0.372235
-0.378361
-0.381252
-0.382307
-0.382641
-0.823921
-0.814238
-0.78958
-0.749858
-0.701731
-0.650358
-0.598064
-0.547316
-0.502673
-0.47138
-0.440849
-0.419811
-0.409192
-0.422263
-0.433796
-0.418279
-0.40491
-0.400705
-0.400134
-0.400177
-0.780379
-0.77487
-0.760665
-0.732389
-0.695267
-0.652875
-0.608165
-0.563504
-0.522701
-0.493011
-0.465905
-0.452353
-0.448317
-0.464961
-0.438271
-0.414931
-0.411972
-0.411952
-0.411242
-0.410543
-0.741782
-0.738443
-0.731702
-0.713744
-0.685664
-0.650895
-0.612637
-0.572647
-0.53395
-0.502339
-0.475894
-0.45729
-0.437986
-0.425509
-0.414895
-0.418678
-0.426753
-0.421876
-0.417811
-0.420514
-0.713963
-0.711987
-0.708537
-0.69793
-0.67666
-0.647476
-0.613411
-0.575692
-0.536734
-0.501419
-0.475525
-0.447749
-0.433695
-0.437934
-0.484378
-0.562597
-0.597356
-0.583541
-0.543413
-0.533608
-0.693483
-0.692781
-0.691609
-0.686366
-0.670795
-0.645337
-0.612584
-0.574699
-0.533282
-0.491746
-0.460239
-0.436591
-0.427149
-0.467352
-0.53254
-0.555607
-0.572048
-0.565454
-0.540142
-0.52699
-0.681503
-0.681272
-0.680657
-0.678197
-0.667612
-0.644239
-0.611159
-0.571435
-0.525697
-0.474776
-0.432865
-0.378853
-0.335668
-0.331872
-0.380933
-0.431318
-0.402061
-0.343395
-0.289654
-0.263559
-0.67324
-0.67309
-0.672681
-0.671941
-0.665463
-0.644287
-0.610286
-0.567378
-0.515873
-0.453737
-0.391207
-0.309362
-0.194399
-0.0687242
0.0387195
0.122432
0.217571
0.299454
0.357559
0.383285
-0.667831
-0.667805
-0.667712
-0.667595
-0.663621
-0.645558
-0.610672
-0.564024
-0.50678
-0.433969
-0.350774
-0.253215
-0.0781196
0.179559
0.468664
0.732918
0.925753
1.0334
1.07484
1.08647
-0.663274
-0.663331
-0.663354
-0.663338
-0.661868
-0.647308
-0.612597
-0.562794
-0.499984
-0.418714
-0.323031
-0.217996
-0.0157596
0.292567
0.63448
0.954472
1.20155
1.32962
1.36903
1.37572
-0.659584
-0.659546
-0.65916
-0.658337
-0.657569
-0.648347
-0.617066
-0.566084
-0.497909
-0.411632
-0.312015
-0.20555
-0.023103
0.265304
0.581479
0.873432
1.09619
1.2146
1.25731
1.26745
-0.659058
-0.658867
-0.658066
-0.656295
-0.655039
-0.65123
-0.626493
-0.573478
-0.500271
-0.414029
-0.316708
-0.217089
-0.0640802
0.187655
0.448742
0.680148
0.861559
0.965242
1.00635
1.01765
-0.661337
-0.661863
-0.663664
-0.666981
-0.66949
-0.669066
-0.643155
-0.582344
-0.508452
-0.426505
-0.33313
-0.245381
-0.127868
0.0777002
0.29278
0.473969
0.615598
0.701641
0.737434
0.746382
-0.661365
-0.663456
-0.669882
-0.68375
-0.700642
-0.700912
-0.660345
-0.591074
-0.52355
-0.446319
-0.357538
-0.281083
-0.194174
-0.0318996
0.140014
0.279269
0.387758
0.454552
0.480693
0.486338
-0.669619
-0.671684
-0.676898
-0.683529
-0.692291
-0.691491
-0.653368
-0.596213
-0.543653
-0.469018
-0.385897
-0.318713
-0.255523
-0.132771
0.000340981
0.105404
0.184725
0.233257
0.250987
0.253966
-0.693289
-0.694433
-0.694455
-0.673962
-0.631375
-0.608568
-0.603366
-0.597855
-0.562943
-0.490579
-0.414539
-0.35619
-0.304927
-0.213759
-0.112563
-0.0353754
0.0192019
0.0516889
0.0635852
0.065439
-0.719878
-0.719201
-0.713838
-0.676817
-0.601004
-0.549003
-0.582293
-0.618265
-0.584876
-0.512428
-0.441042
-0.390999
-0.346551
-0.274512
-0.197058
-0.141433
-0.102489
-0.0801163
-0.0721203
-0.0709432
-0.762244
-0.759201
-0.765402
-0.768204
-0.760863
-0.727425
-0.719857
-0.700201
-0.630453
-0.534525
-0.469349
-0.420363
-0.38214
-0.326193
-0.262956
-0.217418
-0.186171
-0.167624
-0.161002
-0.160274
-0.878854
-0.889048
-0.93341
-0.990979
-1.01777
-0.997611
-0.934252
-0.825531
-0.68508
-0.5629
-0.493602
-0.439569
-0.408166
-0.361168
-0.304868
-0.264906
-0.23675
-0.220708
-0.215253
-0.215088
-1.02171
-1.04251
-1.09205
-1.14124
-1.16621
-1.14603
-1.0666
-0.903219
-0.712299
-0.586469
-0.501454
-0.449095
-0.42486
-0.380405
-0.330087
-0.294032
-0.266875
-0.251466
-0.246339
-0.24675
-1.06393
-1.08266
-1.11588
-1.14994
-1.17035
-1.15296
-1.06688
-0.869719
-0.691917
-0.576845
-0.484376
-0.44424
-0.425898
-0.383251
-0.337554
-0.305472
-0.28191
-0.269054
-0.265067
-0.265761
-0.958108
-0.972684
-1.00008
-1.03074
-1.05086
-1.03766
-0.9481
-0.771356
-0.634102
-0.518723
-0.449797
-0.421234
-0.402477
-0.367797
-0.331731
-0.305509
-0.286306
-0.27587
-0.272938
-0.273803
-0.715228
-0.731012
-0.761749
-0.800403
-0.830476
-0.822375
-0.745677
-0.631856
-0.527005
-0.442097
-0.403656
-0.374063
-0.36299
-0.336356
-0.309851
-0.293097
-0.280338
-0.273788
-0.271994
-0.27299
-0.391962
-0.40493
-0.432067
-0.470947
-0.506206
-0.518248
-0.489192
-0.44534
-0.395107
-0.361991
-0.3357
-0.317116
-0.311355
-0.293716
-0.281909
-0.274469
-0.269446
-0.267332
-0.266858
-0.267694
-0.100125
-0.10787
-0.126575
-0.158483
-0.200279
-0.235619
-0.259895
-0.272465
-0.276532
-0.272441
-0.261939
-0.258026
-0.25449
-0.247018
-0.245671
-0.247826
-0.251171
-0.254061
-0.254953
-0.255397
0.0785972
0.0741353
0.0611004
0.0345048
-0.00684336
-0.0613458
-0.114167
-0.154709
-0.177883
-0.191429
-0.198134
-0.194858
-0.194622
-0.196421
-0.203607
-0.211869
-0.219824
-0.225238
-0.226621
-0.226808
0.146165
0.1432
0.133501
0.111857
0.0750123
0.0274953
-0.0251744
-0.0734915
-0.10964
-0.130982
-0.136989
-0.134876
-0.137023
-0.143164
-0.153977
-0.164545
-0.172957
-0.177735
-0.17901
-0.17928
0.145287
0.143301
0.136314
0.120319
0.0923733
0.053502
0.0109635
-0.0291154
-0.0604794
-0.0795842
-0.0856415
-0.0821122
-0.0831037
-0.092997
-0.104495
-0.112719
-0.117715
-0.119902
-0.120947
-0.121532
0.112204
0.111036
0.106583
0.0960681
0.0776151
0.0520833
0.0220902
-0.00765842
-0.0308715
-0.0447174
-0.0472939
-0.0398973
-0.040598
-0.0511594
-0.0601999
-0.064632
-0.065861
-0.0659652
-0.0667881
-0.0676036
0.0660753
0.0655716
0.0632577
0.0576025
0.0474699
0.0333491
0.016876
0.000149527
-0.0132462
-0.0205554
-0.0211117
-0.0164962
-0.0178635
-0.0235594
-0.0278325
-0.0279597
-0.0260235
-0.024675
-0.0255652
-0.0266121
0.0141044
0.0141752
0.0144608
0.0141309
0.0124075
0.0093855
0.00563357
0.00187904
-0.000950239
-0.00319586
-0.00383141
-0.00410298
-0.00321565
-0.00283494
-0.00429792
-0.00487799
-0.00546824
-0.00574341
-0.00546906
-0.00542645
-0.0124201
0.174748
0.34634
0.491262
0.606663
0.697123
0.771951
0.832646
0.847741
0.844441
0.273644
0.393571
0.505794
0.602776
0.684086
0.750905
0.803463
0.838983
0.858041
0.874796
0.467347
0.547085
0.62585
0.694811
0.753486
0.802085
0.840345
0.869625
0.891711
0.91097
0.61061
0.66718
0.724141
0.775222
0.819212
0.856706
0.888204
0.914668
0.934751
0.953649
0.726025
0.768561
0.810771
0.850367
0.885765
0.917054
0.944481
0.967746
0.985579
1.00364
0.821906
0.85721
0.891971
0.925279
0.95603
0.98389
1.00851
1.02921
1.04489
1.06237
0.90956
0.941263
0.973256
1.00419
1.03298
1.05916
1.08213
1.10096
1.11481
1.13182
0.996043
1.02847
1.06073
1.09178
1.12042
1.14609
1.16813
1.18558
1.19791
1.21442
1.09018
1.12655
1.1612
1.19357
1.22265
1.24792
1.26897
1.28521
1.29678
1.31292
1.20312
1.24375
1.28068
1.31352
1.34195
1.36589
1.38547
1.40071
1.41258
1.42865
1.34444
1.38544
1.42068
1.45021
1.47537
1.49695
1.51543
1.53089
1.54399
1.55993
1.5159
1.54818
1.57507
1.59739
1.61745
1.63615
1.65388
1.67064
1.68554
1.70126
1.70215
1.71939
1.7365
1.75317
1.76925
1.78398
1.79788
1.81235
1.82758
1.84488
1.88553
1.89547
1.90866
1.91964
1.92904
1.9387
1.9493
1.95947
1.96876
1.99442
2.10338
2.09768
2.08473
2.07048
2.06417
2.06988
2.08802
2.11654
2.1503
2.18663
2.4062
2.27025
2.19074
2.1482
2.13087
2.13486
2.16229
2.22015
2.32781
2.50622
0.755877
0.749575
0.741846
0.730734
0.717167
0.704524
0.694135
0.686136
0.680438
0.677134
0.67682
0.67969
0.684953
0.692333
0.701899
0.71374
0.727311
0.740246
0.749239
0.756782
0.664936
0.670856
0.678931
0.685066
0.68814
0.687634
0.684558
0.680577
0.677009
0.674754
0.67466
0.676954
0.680742
0.685213
0.689333
0.691592
0.690528
0.685899
0.678849
0.671018
0.65817
0.660543
0.663813
0.66659
0.669046
0.671243
0.672434
0.672303
0.671389
0.670617
0.670878
0.672339
0.674159
0.675418
0.675365
0.673915
0.671769
0.669416
0.66644
0.663425
0.653358
0.654447
0.656367
0.65871
0.660589
0.661997
0.663229
0.664241
0.664869
0.665287
0.665896
0.666695
0.667207
0.667124
0.666522
0.66562
0.664304
0.662346
0.660246
0.658771
0.648305
0.648938
0.650071
0.651835
0.653688
0.655293
0.656561
0.657648
0.658663
0.65961
0.66046
0.661047
0.661239
0.661075
0.660571
0.659622
0.658214
0.656618
0.65529
0.654491
0.643342
0.643781
0.644573
0.645885
0.647418
0.648997
0.650495
0.651819
0.653013
0.654158
0.655188
0.655871
0.656116
0.655932
0.655309
0.654341
0.653212
0.652086
0.651193
0.650662
0.638459
0.638786
0.639402
0.640481
0.641791
0.643209
0.644713
0.64622
0.647659
0.64903
0.65027
0.651113
0.651421
0.651241
0.650694
0.649951
0.649135
0.648303
0.647654
0.647265
0.63363
0.633883
0.634381
0.635304
0.636493
0.637824
0.639276
0.640844
0.642479
0.644123
0.645631
0.646668
0.64711
0.647092
0.646773
0.646277
0.645683
0.645083
0.644617
0.64432
0.62878
0.628981
0.629396
0.630211
0.631326
0.632615
0.634059
0.635681
0.637469
0.639376
0.641202
0.642528
0.643231
0.643476
0.643414
0.643158
0.64278
0.642379
0.642056
0.641822
0.623823
0.623984
0.624341
0.625085
0.626158
0.627435
0.628917
0.630634
0.632596
0.634782
0.636986
0.638707
0.639766
0.640328
0.640543
0.640534
0.640382
0.640166
0.63996
0.639774
0.618667
0.618797
0.619114
0.619815
0.620876
0.622186
0.623746
0.625605
0.627797
0.630327
0.632991
0.6352
0.636686
0.637616
0.638146
0.638405
0.638481
0.638444
0.638341
0.63819
0.61322
0.613324
0.613613
0.614298
0.615384
0.616769
0.618453
0.62051
0.623005
0.62597
0.629201
0.631994
0.633984
0.63534
0.636228
0.636782
0.637106
0.637249
0.637234
0.637111
0.607379
0.607462
0.607735
0.608428
0.609574
0.611077
0.612942
0.615267
0.61815
0.621657
0.625579
0.629076
0.631666
0.633518
0.634816
0.63572
0.636313
0.636631
0.636697
0.636594
0.601029
0.601092
0.60136
0.602084
0.603326
0.604996
0.607106
0.609781
0.613154
0.617331
0.622095
0.626439
0.629743
0.632182
0.633954
0.635248
0.636144
0.636654
0.636798
0.636712
0.594033
0.594077
0.594347
0.595126
0.596503
0.598396
0.600826
0.603947
0.607932
0.612933
0.618718
0.624079
0.628231
0.631365
0.633697
0.635439
0.636685
0.637403
0.637624
0.637549
0.586236
0.586255
0.586528
0.587384
0.588941
0.591121
0.593959
0.597641
0.602387
0.608398
0.615419
0.621997
0.627156
0.631107
0.634106
0.636385
0.638026
0.63897
0.639267
0.639201
0.577378
0.577392
0.577689
0.578646
0.580435
0.58298
0.586333
0.590717
0.596406
0.603654
0.612168
0.620196
0.626547
0.631461
0.635245
0.638164
0.640261
0.641453
0.641826
0.641764
0.567195
0.567182
0.567523
0.568632
0.570723
0.573734
0.577738
0.583003
0.589863
0.598626
0.608937
0.618687
0.626441
0.63249
0.637197
0.64086
0.643486
0.644946
0.645392
0.645329
0.555347
0.555313
0.555704
0.557
0.559469
0.563079
0.567912
0.574291
0.582612
0.593232
0.605706
0.617485
0.626877
0.634249
0.64004
0.644561
0.647784
0.649525
0.650037
0.649968
0.541328
0.541271
0.541743
0.543293
0.546247
0.550631
0.556535
0.564337
0.574495
0.5874
0.602464
0.616621
0.627896
0.636785
0.643832
0.649331
0.653212
0.655235
0.655799
0.655716
0.524444
0.524366
0.524965
0.526869
0.530475
0.535892
0.54321
0.552863
0.565358
0.581078
0.599224
0.616127
0.629544
0.640151
0.648603
0.655201
0.659784
0.662065
0.662654
0.662551
0.503704
0.50361
0.504415
0.506836
0.511361
0.51821
0.527456
0.539574
0.555073
0.574263
0.596038
0.616059
0.631866
0.644373
0.654361
0.662163
0.66744
0.669919
0.670495
0.670364
0.477603
0.477509
0.478659
0.481883
0.487803
0.496745
0.508733
0.524211
0.543595
0.567026
0.593007
0.616498
0.634899
0.649458
0.661103
0.670141
0.676028
0.678596
0.679112
0.678947
0.443702
0.443659
0.445434
0.450042
0.458304
0.470541
0.486571
0.506677
0.531042
0.559558
0.590302
0.617553
0.638694
0.655395
0.668744
0.678974
0.685282
0.687779
0.688179
0.68798
0.397655
0.397831
0.40098
0.408495
0.421136
0.438797
0.460839
0.487203
0.517763
0.552186
0.588153
0.619362
0.643306
0.662149
0.677177
0.68842
0.694813
0.697029
0.697272
0.697047
0.331343
0.332761
0.340428
0.354656
0.375359
0.40166
0.432186
0.466503
0.504354
0.545331
0.586811
0.622034
0.648747
0.669645
0.686119
0.697999
0.704069
0.705793
0.705869
0.705647
0.252209
0.254988
0.269905
0.294462
0.326212
0.362723
0.402418
0.445102
0.490636
0.538692
0.586381
0.626358
0.65652
0.67996
0.698026
0.710141
0.715624
0.716939
0.716954
0.71682
0.171215
0.178477
0.200885
0.235759
0.278196
0.324685
0.373542
0.424632
0.47788
0.533
0.586868
0.63151
0.66495
0.690863
0.710398
0.722283
0.726714
0.727468
0.727425
0.727344
0.105039
0.114302
0.141482
0.183651
0.234468
0.2894
0.346503
0.405462
0.466048
0.527872
0.587485
0.636342
0.672617
0.700401
0.72066
0.732085
0.735883
0.736478
0.736449
0.736395
0.0508198
0.0608201
0.0916313
0.13921
0.196331
0.258002
0.322024
0.387881
0.455121
0.523151
0.5881
0.640815
0.679578
0.708874
0.729656
0.740701
0.744109
0.744628
0.744632
0.744603
0.00546346
0.015789
0.0490789
0.100872
0.163153
0.230412
0.30027
0.372103
0.445286
0.519001
0.588939
0.645246
0.686304
0.716959
0.738101
0.748816
0.751987
0.752501
0.752551
0.75255
-0.0335033
-0.0230437
0.0120903
0.0672537
0.133847
0.205907
0.280863
0.357994
0.436554
0.51554
0.590186
0.649952
0.693177
0.725084
0.746534
0.757025
0.76001
0.760537
0.76066
0.760703
-0.0677898
-0.0572938
-0.020723
0.0372316
0.107503
0.183739
0.263228
0.345173
0.428711
0.512669
0.591856
0.654986
0.700346
0.733498
0.755339
0.765686
0.76863
0.769227
0.769393
0.769475
-0.0986749
-0.0881673
-0.0504465
0.00990445
0.0833784
0.163294
0.246851
0.333217
0.421426
0.510149
0.593781
0.66027
0.707831
0.742304
0.764675
0.775124
0.778094
0.778678
0.778861
0.778976
-0.127169
-0.11663
-0.0778933
-0.0154182
0.0609009
0.14409
0.231317
0.321753
0.414372
0.507717
0.595762
0.665673
0.715503
0.751434
0.774512
0.7852
0.788216
0.788761
0.788918
0.789036
-0.153855
-0.143269
-0.103614
-0.0392268
0.0396195
0.125743
0.216307
0.310502
0.407285
0.505136
0.59761
0.671028
0.72322
0.760678
0.78452
0.795519
0.798597
0.799081
0.799184
0.799281
-0.179216
-0.168554
-0.128035
-0.0619114
0.019202
0.10797
0.201576
0.299248
0.399966
0.5022
0.599148
0.676188
0.730811
0.769802
0.794448
0.805694
0.808824
0.809245
0.80928
0.80935
-0.203617
-0.192791
-0.151459
-0.0837372
-0.000581262
0.090566
0.186947
0.287835
0.392255
0.498743
0.600216
0.681026
0.738173
0.77867
0.804019
0.815424
0.818561
0.818906
0.818867
0.818901
-0.227185
-0.216168
-0.174057
-0.104882
-0.0198866
0.073411
0.172309
0.276152
0.384041
0.494627
0.60067
0.68545
0.745244
0.787188
0.81305
0.8245
0.827534
0.827798
0.8277
0.827703
-0.250102
-0.238839
-0.195981
-0.125443
-0.0388005
0.0564233
0.157595
0.264135
0.375247
0.489764
0.600382
0.689361
0.75203
0.795422
0.82157
0.832806
0.835658
0.835827
0.835679
0.835657
-0.272361
-0.260877
-0.217286
-0.145474
-0.0573616
0.0395764
0.14279
0.251769
0.365844
0.484069
0.599232
0.692665
0.758544
0.803492
0.8297
0.840434
0.842925
0.842973
0.84279
0.84275
-0.294044
-0.28231
-0.237967
-0.16499
-0.0755819
0.0228703
0.127897
0.239067
0.35583
0.477499
0.597116
0.695248
0.764794
0.811609
0.837749
0.847567
0.849419
0.849276
0.849083
0.849042
-0.315023
-0.303104
-0.258026
-0.184004
-0.0934439
0.00634776
0.112953
0.226062
0.345232
0.470062
0.593948
0.69698
0.770733
0.81997
0.846161
0.854662
0.855363
0.854809
0.854643
0.85466
-0.335441
-0.323248
-0.277461
-0.202512
-0.110939
-0.00997519
0.0980245
0.212806
0.334102
0.461791
0.589671
0.69771
0.77622
0.828652
0.855465
0.862556
0.86141
0.859828
0.859633
0.859937
-0.355135
-0.342707
-0.296275
-0.220483
-0.128004
-0.0260314
0.0831752
0.199398
0.322517
0.452712
0.584258
0.697276
0.781046
0.837527
0.865992
0.872387
0.869152
0.865522
0.864628
0.865418
-0.374229
-0.361523
-0.314422
-0.237872
-0.144616
-0.0417661
0.0684794
0.185903
0.310566
0.44293
0.577723
0.695496
0.784936
0.84622
0.877499
0.884811
0.880673
0.87452
0.869467
0.862329
-0.392614
-0.379699
-0.331995
-0.254846
-0.160996
-0.0574526
0.0536161
0.171939
0.297833
0.431997
0.569634
0.691921
0.787666
0.854725
0.8898
0.899895
0.896911
0.888297
0.876166
0.875713
-0.410254
-0.397316
-0.349001
-0.271356
-0.177136
-0.0730597
0.0386069
0.157476
0.284271
0.419762
0.559756
0.685962
0.788343
0.862215
0.901083
0.914103
0.91215
0.90359
0.86837
0.830437
-0.426951
-0.414233
-0.365398
-0.287285
-0.193041
-0.0885988
0.0234423
0.142637
0.269929
0.406228