/*--------------------------------*- C++ -*----------------------------------*\
  =========                 |
  \\      /  F ield         | OpenFOAM: The Open Source CFD Toolbox
   \\    /   O peration     | Website:  https://openfoam.org
    \\  /    A nd           | Version:  6
     \\/     M anipulation  |
\*---------------------------------------------------------------------------*/
FoamFile
{
    version     2.0;
    format      ascii;
    class       volScalarField;
    location    "90.1";
    object      p;
}
// * * * * * * * * * * * * * * * * * * * * * * * * * * * * * * * * * * * * * //

dimensions      [0 2 -2 0 0 0 0];

internalField   nonuniform List<scalar> 
8800
(
0.844316
0.795002
0.757037
0.72897
0.708811
0.694228
0.683635
0.676102
0.671227
0.669172
0.670558
0.674914
0.681718
0.69115
0.703893
0.721218
0.745099
0.778198
0.821137
0.873652
0.678805
0.685151
0.694302
0.697852
0.695246
0.689161
0.682225
0.67599
0.671197
0.66834
0.668125
0.670768
0.675423
0.681562
0.68867
0.69571
0.700593
0.700472
0.6938
0.684904
0.652312
0.658549
0.663051
0.666925
0.669876
0.67083
0.669748
0.667635
0.665667
0.664844
0.665894
0.668364
0.671265
0.673546
0.674075
0.672293
0.668933
0.664924
0.660146
0.65643
0.647998
0.650765
0.653373
0.655535
0.657276
0.658851
0.659961
0.660325
0.660225
0.660343
0.66117
0.662333
0.663092
0.662955
0.661991
0.660645
0.658983
0.656686
0.654279
0.652713
0.642924
0.64435
0.646193
0.648278
0.649996
0.651296
0.652404
0.653397
0.654224
0.654984
0.655723
0.656208
0.656253
0.655907
0.655253
0.65415
0.652503
0.650616
0.649267
0.648464
0.637911
0.638814
0.640064
0.641696
0.643397
0.644938
0.646235
0.647374
0.648461
0.649508
0.650328
0.65075
0.650787
0.650442
0.649657
0.648484
0.647135
0.645879
0.645062
0.644538
0.632973
0.633629
0.634594
0.635918
0.637374
0.638903
0.640403
0.641789
0.64308
0.644322
0.645317
0.645852
0.645905
0.645498
0.644741
0.643819
0.642843
0.641951
0.641376
0.640991
0.628107
0.628612
0.629402
0.63055
0.631862
0.633294
0.634823
0.636391
0.637938
0.639441
0.640651
0.641312
0.641437
0.641154
0.640622
0.639959
0.639244
0.638596
0.638175
0.637874
0.623256
0.623658
0.624323
0.625354
0.626598
0.627982
0.629512
0.631185
0.63296
0.634765
0.63625
0.637123
0.637457
0.637418
0.637138
0.636706
0.636204
0.635754
0.635445
0.635201
0.618338
0.618665
0.619244
0.6202
0.621403
0.622782
0.624357
0.626144
0.628133
0.63026
0.632104
0.633308
0.633952
0.634197
0.634171
0.633981
0.633685
0.633401
0.633178
0.632972
0.613262
0.613533
0.614053
0.614966
0.61616
0.617576
0.619239
0.621186
0.62343
0.625933
0.628226
0.629857
0.630874
0.631442
0.631696
0.631751
0.631666
0.631532
0.631377
0.631199
0.607935
0.608163
0.608646
0.609547
0.610772
0.612268
0.614065
0.616229
0.618801
0.621772
0.624613
0.626753
0.628207
0.629147
0.629716
0.630024
0.630161
0.630168
0.63007
0.62991
0.602259
0.602453
0.602919
0.603838
0.605135
0.606756
0.608744
0.611196
0.614187
0.617737
0.621241
0.623988
0.625955
0.627325
0.628253
0.628858
0.629218
0.629356
0.629306
0.629158
0.596126
0.596293
0.596758
0.597725
0.599135
0.600933
0.603181
0.606006
0.60952
0.613781
0.618089
0.621563
0.624139
0.626007
0.627349
0.628288
0.628889
0.629158
0.62915
0.629009
0.589408
0.589552
0.590032
0.591074
0.592643
0.594681
0.597268
0.600565
0.604729
0.609859
0.615137
0.619481
0.622779
0.625235
0.627049
0.628369
0.629246
0.629651
0.629681
0.629542
0.581955
0.582076
0.582585
0.583734
0.585513
0.587861
0.590879
0.594769
0.599735
0.605922
0.612369
0.617751
0.621902
0.625056
0.627433
0.629195
0.630378
0.630925
0.630989
0.630849
0.573578
0.573682
0.574225
0.575513
0.577563
0.580304
0.583864
0.588493
0.594447
0.601921
0.60977
0.616388
0.621546
0.625519
0.628574
0.630853
0.632381
0.633077
0.633171
0.633025
0.563989
0.564094
0.564706
0.566167
0.568566
0.571806
0.576046
0.581594
0.588766
0.597803
0.607329
0.615408
0.621756
0.626693
0.630543
0.633429
0.635348
0.636199
0.63632
0.636164
0.552896
0.552978
0.553675
0.55539
0.558234
0.562107
0.567206
0.573905
0.582578
0.593512
0.605039
0.614834
0.622575
0.628647
0.633412
0.637014
0.639365
0.640372
0.640513
0.640343
0.539886
0.539956
0.540762
0.542788
0.546197
0.550883
0.557079
0.565228
0.575764
0.588999
0.602901
0.614697
0.624045
0.631433
0.637267
0.641679
0.644493
0.645648
0.645798
0.645612
0.524363
0.524424
0.525382
0.527829
0.531981
0.537729
0.545346
0.555347
0.568208
0.584232
0.600927
0.615031
0.626209
0.635098
0.642145
0.647456
0.650748
0.652028
0.652172
0.651967
0.5055
0.505556
0.506736
0.509777
0.514945
0.522129
0.531632
0.544037
0.559818
0.579212
0.599154
0.61587
0.629104
0.63967
0.64805
0.654338
0.65808
0.659436
0.659556
0.65933
0.482077
0.482139
0.483672
0.487604
0.494233
0.503432
0.515524
0.531105
0.550564
0.573995
0.59765
0.617261
0.632754
0.645148
0.654963
0.662236
0.666339
0.667699
0.667771
0.667528
0.452188
0.452281
0.454425
0.459808
0.468725
0.480898
0.496655
0.516468
0.540527
0.568715
0.596532
0.619278
0.637166
0.651489
0.66281
0.670971
0.675268
0.676529
0.676532
0.676278
0.412599
0.41283
0.416239
0.424299
0.437089
0.453887
0.474885
0.500269
0.529953
0.563596
0.595952
0.622002
0.642359
0.658637
0.671428
0.680257
0.684492
0.685539
0.685461
0.685205
0.357148
0.358312
0.365129
0.378776
0.398345
0.422306
0.450572
0.482991
0.519272
0.558949
0.596089
0.625517
0.648335
0.666497
0.680579
0.689709
0.693546
0.694289
0.694135
0.693889
0.27691
0.28479
0.300491
0.324408
0.354115
0.387668
0.424768
0.465219
0.508751
0.554924
0.59715
0.630182
0.655653
0.675827
0.690901
0.699926
0.703156
0.703589
0.703392
0.703187
0.191436
0.208699
0.234205
0.269149
0.309544
0.352808
0.398725
0.447275
0.498296
0.551431
0.599398
0.636626
0.665263
0.687625
0.703546
0.711784
0.714086
0.714228
0.71406
0.713933
0.118073
0.139196
0.172884
0.217275
0.267134
0.31954
0.374028
0.430512
0.488798
0.548528
0.60175
0.642683
0.674005
0.698082
0.714162
0.721341
0.722948
0.722989
0.72286
0.722767
0.0578603
0.0813324
0.120634
0.1718
0.229037
0.289067
0.351096
0.414827
0.479862
0.545724
0.603748
0.647972
0.681515
0.706806
0.722834
0.729315
0.730593
0.730599
0.730491
0.730408
0.00788211
0.0327608
0.0761206
0.13255
0.19568
0.261958
0.330379
0.40047
0.471607
0.543094
0.605536
0.65272
0.688196
0.714464
0.730381
0.736335
0.737432
0.737433
0.737341
0.737258
-0.0344798
-0.00877903
0.0375734
0.0982644
0.166342
0.23794
0.311882
0.387579
0.464223
0.540889
0.607412
0.657295
0.69445
0.721463
0.73718
0.742744
0.743758
0.743784
0.743715
0.743631
-0.0713013
-0.04507
0.00361187
0.0678333
0.140143
0.216388
0.295238
0.376005
0.457713
0.539227
0.609593
0.661972
0.700609
0.728153
0.743621
0.748899
0.749884
0.749959
0.749928
0.749844
-0.104107
-0.0774703
-0.0268802
0.0403545
0.116345
0.196693
0.279978
0.365424
0.451897
0.538042
0.612126
0.666896
0.706899
0.734897
0.75014
0.755186
0.756166
0.756305
0.756331
0.756256
-0.133962
-0.106965
-0.0547603
0.01511
0.0943553
0.178366
0.265691
0.355487
0.446512
0.537174
0.614952
0.67212
0.713502
0.741983
0.757088
0.761996
0.762984
0.763171
0.763248
0.763187
-0.161711
-0.134343
-0.0806984
-0.0084395
0.0737045
0.16101
0.252032
0.345905
0.441295
0.536439
0.617964
0.677645
0.720501
0.749594
0.764692
0.769528
0.770487
0.77069
0.7708
0.770757
-0.187787
-0.160077
-0.105117
-0.0307246
0.054026
0.144318
0.238739
0.336434
0.436033
0.535655
0.621075
0.683407
0.727878
0.757696
0.772892
0.777701
0.778599
0.778778
0.778892
0.778861
-0.212701
-0.18457
-0.128393
-0.0520593
0.0350454
0.128053
0.225608
0.326883
0.430544
0.534653
0.624147
0.689314
0.735503
0.766125
0.781473
0.786255
0.787074
0.787193
0.787283
0.787269
-0.236621
-0.208065
-0.150746
-0.072655
0.016572
0.11205
0.212488
0.317114
0.424668
0.533272
0.627042
0.695275
0.743273
0.774684
0.790175
0.794857
0.795578
0.795616
0.795668
0.795669
-0.259726
-0.230721
-0.172342
-0.09265
-0.00150808
0.0962046
0.199279
0.307017
0.418282
0.531349
0.629609
0.701203
0.751129
0.783242
0.798696
0.803218
0.803803
0.803754
0.803762
0.803762
-0.282146
-0.252661
-0.193274
-0.112122
-0.0192739
0.0804544
0.185924
0.29653
0.411293
0.528745
0.631697
0.707019
0.759083
0.791744
0.806896
0.811088
0.811507
0.811386
0.811358
0.811352
-0.303975
-0.27396
-0.213583
-0.131111
-0.0367443
0.0647738
0.172404
0.285622
0.403644
0.525336
0.633146
0.712629
0.767197
0.800373
0.814838
0.818385
0.818565
0.818395
0.818348
0.818334
-0.325115
-0.294598
-0.233276
-0.149643
-0.0539301
0.0491803
0.158725
0.274302
0.395314
0.521045
0.633789
0.717913
0.775553
0.809408
0.822815
0.825204
0.824913
0.824734
0.824739
0.824724
-0.345569
-0.31457
-0.252374
-0.167709
-0.0708117
0.0336947
0.144932
0.262592
0.386313
0.515808
0.633479
0.722698
0.784152
0.819239
0.831476
0.832034
0.830698
0.830436
0.830723
0.830824
-0.36541
-0.333874
-0.270883
-0.185301
-0.0873537
0.0183688
0.131079
0.250551
0.376674
0.509608
0.632061
0.726767
0.792868
0.83013
0.841741
0.840131
0.836749
0.835902
0.836813
0.837619
-0.38452
-0.352495
-0.288769
-0.202377
-0.103521
0.00326348
0.117234
0.238252
0.366466
0.502471
0.629412
0.729857
0.801407
0.841979
0.854278
0.851291
0.845435
0.84242
0.842374
0.842856
-0.402992
-0.370465
-0.30605
-0.218978
-0.119359
-0.0116689
0.103339
0.225634
0.355613
0.494322
0.625358
0.73169
0.809519
0.854456
0.869077
0.866665
0.859184
0.851317
0.842729
0.844913
-0.420763
-0.38785
-0.322866
-0.235304
-0.135161
-0.0267471
0.0889973
0.212239
0.343611
0.484597
0.619338
0.731639
0.816996
0.86739
0.885345
0.88542
0.876315
0.861901
0.84064
0.841976
-0.437717
-0.404634
-0.33907
-0.251174
-0.150673
-0.0416843
0.0743906
0.198357
0.330704
0.473444
0.61122
0.728723
0.822579
0.879256
0.899019
0.899648
0.889113
0.858914
0.802307
0.778557
-0.453755
-0.421801
-0.35427
-0.26616
-0.1651
-0.0559943
0.0597992
0.184262
0.317164
0.461013
0.600981
0.722177
0.824714
0.888388
0.904527
0.89964
0.876031
0.819132
0.756553
0.718732
-0.495658
-0.438704
-0.368165
-0.281206
-0.179208
-0.0706708
0.0453706
0.16982
0.302762
0.446902
0.588086
0.711125
0.819416
0.889729
0.897638
0.871894
0.812809
0.74113
0.670132
0.630963
-0.469767
-0.451165
-0.389264
-0.301633
-0.201122
-0.092754
0.0226957
0.146692
0.279085
0.422493
0.563344
0.686128
0.787682
0.865533
0.838658
0.716818
0.618039
0.549434
0.482208
0.504957
-0.499701
-0.467992
-0.405221
-0.318054
-0.21791
-0.109659
0.00604931
0.129501
0.261062
0.403048
0.541785
0.661474
0.751777
0.79541
0.731874
0.581294
0.46451
0.38574
0.300581
0.341385
-0.522674
-0.488649
-0.42419
-0.336981
-0.236884
-0.12862
-0.0129764
0.109761
0.240087
0.379885
0.51498
0.628706
0.706938
0.712355
0.593648
0.429622
0.293948
0.196313
0.0982018
0.125239
-0.544903
-0.509899
-0.444136
-0.356306
-0.256142
-0.147988
-0.0328408
0.0889757
0.217772
0.354848
0.485036
0.589633
0.650384
0.621958
0.45254
0.26846
0.103494
-0.0341984
-0.161213
-0.153022
-0.566786
-0.531458
-0.464848
-0.376471
-0.276199
-0.168277
-0.0537971
0.0669051
0.193813
0.327622
0.451812
0.546899
0.586398
0.508653
0.313249
0.110418
-0.0800951
-0.236738
-0.442988
-0.522912
-0.589012
-0.553801
-0.486723
-0.397982
-0.297596
-0.189888
-0.0760411
0.0434648
0.168281
0.298413
0.415881
0.501496
0.512915
0.383951
0.185726
-0.0279956
-0.222946
-0.385902
-0.50987
-0.625334
-0.612646
-0.577406
-0.510115
-0.421223
-0.320871
-0.2135
-0.100411
0.0176758
0.139981
0.265729
0.375735
0.448103
0.430409
0.265382
0.0661465
-0.141284
-0.319557
-0.418003
-0.444082
-0.45736
-0.637821
-0.602569
-0.535153
-0.446282
-0.34617
-0.239336
-0.127289
-0.0109857
0.108276
0.228759
0.330857
0.384028
0.346294
0.151241
-0.0456545
-0.232773
-0.367635
-0.406046
-0.414692
-0.415024
-0.664823
-0.629415
-0.561879
-0.473149
-0.373445
-0.267411
-0.156708
-0.0425899
0.0730811
0.187497
0.280763
0.316289
0.24446
0.0465381
-0.143625
-0.306259
-0.382138
-0.396271
-0.3973
-0.39716
-0.693659
-0.657979
-0.590316
-0.501828
-0.40272
-0.297726
-0.188691
-0.0771692
0.0344031
0.142062
0.225111
0.244768
0.133644
-0.0488665
-0.228001
-0.356779
-0.386328
-0.387038
-0.387672
-0.387273
-0.724077
-0.688104
-0.620374
-0.532245
-0.43392
-0.33024
-0.223226
-0.114714
-0.00770788
0.0925684
0.165238
0.165202
0.0357403
-0.136185
-0.294164
-0.368025
-0.383228
-0.381721
-0.381588
-0.381255
-0.755527
-0.719441
-0.651791
-0.564175
-0.466862
-0.364803
-0.26017
-0.155109
-0.0530346
0.0394633
0.101562
0.0850372
-0.0538202
-0.212993
-0.339111
-0.377314
-0.376979
-0.377329
-0.377168
-0.376915
-0.787564
-0.75146
-0.684081
-0.597205
-0.501199
-0.401094
-0.299241
-0.198079
-0.101283
-0.0162748
0.0328748
0.00948171
-0.134115
-0.274244
-0.367263
-0.374768
-0.37525
-0.374921
-0.374598
-0.374356
-0.819219
-0.783292
-0.716523
-0.630699
-0.536375
-0.438632
-0.33997
-0.243129
-0.152019
-0.0737872
-0.0356731
-0.065885
-0.201909
-0.317593
-0.375978
-0.384194
-0.376625
-0.374418
-0.373656
-0.373262
-0.848757
-0.813655
-0.748076
-0.663768
-0.571608
-0.476703
-0.381676
-0.289513
-0.204454
-0.132607
-0.0991197
-0.143275
-0.255815
-0.34844
-0.373665
-0.375791
-0.375695
-0.374912
-0.374405
-0.374065
-0.875012
-0.841038
-0.777339
-0.695208
-0.60583
-0.514357
-0.423472
-0.336292
-0.257337
-0.192196
-0.160904
-0.209852
-0.296267
-0.359362
-0.383713
-0.376595
-0.37533
-0.375068
-0.374964
-0.374895
-0.895317
-0.863341
-0.802553
-0.723489
-0.637719
-0.550398
-0.464241
-0.382386
-0.309359
-0.250793
-0.222269
-0.262614
-0.325341
-0.362043
-0.368688
-0.373638
-0.37451
-0.374914
-0.375194
-0.375278
-0.907623
-0.87845
-0.821642
-0.746862
-0.66574
-0.583432
-0.502653
-0.426533
-0.359407
-0.305813
-0.278275
-0.308723
-0.351364
-0.377767
-0.375038
-0.377434
-0.378093
-0.377866
-0.377746
-0.377657
-0.909234
-0.883981
-0.832501
-0.763475
-0.688248
-0.611988
-0.537275
-0.467232
-0.406268
-0.35646
-0.325278
-0.349329
-0.373846
-0.401453
-0.393572
-0.385714
-0.382673
-0.381281
-0.380662
-0.380419
-0.897813
-0.877345
-0.832995
-0.771579
-0.703764
-0.634685
-0.566768
-0.502971
-0.448096
-0.403745
-0.360598
-0.38282
-0.375648
-0.399384
-0.394253
-0.384769
-0.38131
-0.380308
-0.379859
-0.379639
-0.871066
-0.85609
-0.821254
-0.769939
-0.711238
-0.650509
-0.59012
-0.532663
-0.483011
-0.44614
-0.398603
-0.389165
-0.368498
-0.36112
-0.362966
-0.370137
-0.373881
-0.375699
-0.376444
-0.376639
-0.832439
-0.822888
-0.798442
-0.75882
-0.710683
-0.659217
-0.606785
-0.555735
-0.510688
-0.479214
-0.446749
-0.410217
-0.367435
-0.358061
-0.374168
-0.37807
-0.377787
-0.379398
-0.381289
-0.381863
-0.788978
-0.783538
-0.769493
-0.741307
-0.704186
-0.661699
-0.616844
-0.571986
-0.530804
-0.500032
-0.471628
-0.441297
-0.407738
-0.386017
-0.374745
-0.381507
-0.39957
-0.411243
-0.415003
-0.415445
-0.750585
-0.747271
-0.740601
-0.72273
-0.694645
-0.659767
-0.621401
-0.581294
-0.542291
-0.510707
-0.484054
-0.470791
-0.470173
-0.482819
-0.49501
-0.520701
-0.522309
-0.504245
-0.492882
-0.495556
-0.722928
-0.720962
-0.717559
-0.707029
-0.685751
-0.65652
-0.622317
-0.584567
-0.545773
-0.510467
-0.484138
-0.479236
-0.529039
-0.627191
-0.723417
-0.764454
-0.76035
-0.716895
-0.658919
-0.639319
-0.702632
-0.701934
-0.700781
-0.695598
-0.680081
-0.654473
-0.621571
-0.583607
-0.54179
-0.499888
-0.470998
-0.447583
-0.449017
-0.485672
-0.549023
-0.574775
-0.544014
-0.507765
-0.466048
-0.44616
-0.690802
-0.690571
-0.689957
-0.687536
-0.67703
-0.653568
-0.620245
-0.580326
-0.534179
-0.483776
-0.440244
-0.384279
-0.309103
-0.226489
-0.162127
-0.0978925
-0.05856
-0.0385325
-0.0244449
-0.0162769
-0.682639
-0.68249
-0.682082
-0.681379
-0.674962
-0.653819
-0.619599
-0.576344
-0.525006
-0.462761
-0.399348
-0.31869
-0.177863
0.0132818
0.19015
0.32271
0.388819
0.420358
0.43216
0.437434
-0.677318
-0.677273
-0.677146
-0.676992
-0.67317
-0.655485
-0.620127
-0.573023
-0.515701
-0.442894
-0.360989
-0.26469
-0.087934
0.147531
0.379317
0.567875
0.69733
0.777477
0.82416
0.843709
-0.672989
-0.673021
-0.67303
-0.673029
-0.671728
-0.657655
-0.622239
-0.571616
-0.50882
-0.428139
-0.333384
-0.230874
-0.0366842
0.241081
0.542475
0.813278
1.01671
1.13896
1.2007
1.22179
-0.669063
-0.669167
-0.669228
-0.669193
-0.66901
-0.658947
-0.625666
-0.573542
-0.506494
-0.421042
-0.320496
-0.215697
-0.028214
0.255209
0.574271
0.873299
1.11729
1.26485
1.32509
1.34003
-0.666195
-0.666188
-0.665913
-0.665271
-0.665168
-0.65848
-0.630308
-0.579032
-0.509708
-0.42273
-0.324175
-0.224589
-0.0710808
0.188811
0.471067
0.728967
0.94238
1.07123
1.12027
1.13068
-0.665456
-0.665339
-0.664847
-0.663644
-0.661853
-0.659462
-0.638058
-0.588723
-0.51834
-0.433208
-0.341478
-0.252372
-0.132834
0.0778523
0.306205
0.500466
0.654361
0.744102
0.777229
0.783581
-0.668247
-0.668538
-0.669116
-0.669974
-0.670115
-0.670094
-0.65258
-0.602272
-0.530967
-0.451134
-0.36777
-0.288999
-0.200551
-0.0406717
0.128559
0.262872
0.36307
0.41848
0.438575
0.442889
-0.672452
-0.673718
-0.677561
-0.686542
-0.698577
-0.701511
-0.675798
-0.615847
-0.546476
-0.475729
-0.398979
-0.330855
-0.266781
-0.152643
-0.0281478
0.0651655
0.128942
0.163083
0.176353
0.179676
-0.677427
-0.678857
-0.683712
-0.696199
-0.71539
-0.720736
-0.687901
-0.622862
-0.565333
-0.502857
-0.429957
-0.371879
-0.323461
-0.237227
-0.145532
-0.0784069
-0.0326115
-0.00647034
0.00453439
0.0065703
-0.692859
-0.693796
-0.695571
-0.691541
-0.678167
-0.672712
-0.649094
-0.617926
-0.585655
-0.526723
-0.459668
-0.411396
-0.375692
-0.307457
-0.231617
-0.175861
-0.136862
-0.113742
-0.105664
-0.104238
-0.71604
-0.716098
-0.714319
-0.686903
-0.621314
-0.567961
-0.5872
-0.615569
-0.603712
-0.545388
-0.48602
-0.445978
-0.416307
-0.36009
-0.296936
-0.249298
-0.213136
-0.191536
-0.183964
-0.18365
-0.742612
-0.74048
-0.736494
-0.713794
-0.660962
-0.615084
-0.626421
-0.65901
-0.631612
-0.56475
-0.50871
-0.473929
-0.448043
-0.397251
-0.342446
-0.302087
-0.271456
-0.253894
-0.248437
-0.24853
-0.806332
-0.806166
-0.827359
-0.860285
-0.87495
-0.852641
-0.820289
-0.770676
-0.683282
-0.587997
-0.529059
-0.49212
-0.464498
-0.421942
-0.376285
-0.342166
-0.317156
-0.303347
-0.29884
-0.29926
-0.938377
-0.952948
-0.999352
-1.05622
-1.08323
-1.06788
-1.00555
-0.888012
-0.734018
-0.611071
-0.544171
-0.495266
-0.467221
-0.430028
-0.391888
-0.365285
-0.346925
-0.337215
-0.334036
-0.334426
-1.04818
-1.06725
-1.10792
-1.14817
-1.17087
-1.15488
-1.08229
-0.922689
-0.741124
-0.618397
-0.538188
-0.484983
-0.459298
-0.426141
-0.393497
-0.372356
-0.358984
-0.352301
-0.349889
-0.350289
-1.04162
-1.05542
-1.08265
-1.11203
-1.13145
-1.11916
-1.04375
-0.865503
-0.70269
-0.592154
-0.504449
-0.463075
-0.439052
-0.406926
-0.380293
-0.363962
-0.353505
-0.347878
-0.345966
-0.34636
-0.905219
-0.916917
-0.939751
-0.966522
-0.986517
-0.97764
-0.904732
-0.757206
-0.632645
-0.526792
-0.45789
-0.426933
-0.403735
-0.377218
-0.355033
-0.340397
-0.33093
-0.326033
-0.32445
-0.32498
-0.666614
-0.679236
-0.703932
-0.735361
-0.761184
-0.759119
-0.699747
-0.608732
-0.521239
-0.443155
-0.404885
-0.37417
-0.358777
-0.339502
-0.320011
-0.306527
-0.297418
-0.292382
-0.290938
-0.291606
-0.375873
-0.386738
-0.409577
-0.442546
-0.474164
-0.486936
-0.466993
-0.432138
-0.389456
-0.360425
-0.33421
-0.315775
-0.31159
-0.29252
-0.274845
-0.263971
-0.256111
-0.252022
-0.251083
-0.251823
-0.117254
-0.124461
-0.141981
-0.171557
-0.209524
-0.243915
-0.266707
-0.277192
-0.276282
-0.269381
-0.258645
-0.257673
-0.255711
-0.24014
-0.227158
-0.218007
-0.211085
-0.207962
-0.207554
-0.208273
0.0411854
0.0365586
0.0235439
-0.0020997
-0.0406845
-0.0884179
-0.13429
-0.165507
-0.181232
-0.188544
-0.192908
-0.193768
-0.195462
-0.184201
-0.17445
-0.167522
-0.162708
-0.161007
-0.160956
-0.161571
0.0965856
0.0932938
0.0833759
0.0625424
0.0290993
-0.0113465
-0.0527883
-0.0870036
-0.109904
-0.121743
-0.127653
-0.129268
-0.131896
-0.1257
-0.119432
-0.114675
-0.111401
-0.110412
-0.110659
-0.111262
0.0806561
0.0784229
0.0718827
0.0583607
0.0367407
0.00902098
-0.0179221
-0.0389026
-0.0528698
-0.0605866
-0.066981
-0.067628
-0.0690163
-0.0658237
-0.0634897
-0.0612528
-0.0590278
-0.0582716
-0.0588606
-0.059586
0.0230734
0.0227864
0.0223257
0.0195004
0.0141543
0.00737867
0.000743141
-0.00535847
-0.0093076
-0.0113392
-0.0128413
-0.0133477
-0.0108701
-0.0116685
-0.0130422
-0.0141723
-0.0149273
-0.0150135
-0.0136212
-0.0130701
-0.0256074
0.160305
0.330507
0.474017
0.58785
0.676611
0.749727
0.80897
0.823447
0.820319
0.25759
0.376438
0.487549
0.583371
0.663475
0.729172
0.780751
0.815599
0.834308
0.851146
0.44902
0.527951
0.605872
0.674056
0.731955
0.779863
0.817628
0.846564
0.868416
0.887686
0.590649
0.646743
0.703147
0.75368
0.797254
0.834338
0.865527
0.891755
0.911753
0.930657
0.705123
0.747357
0.789255
0.828489
0.863575
0.894644
0.921858
0.944976
0.962774
0.980854
0.800553
0.835602
0.87011
0.903213
0.93376
0.961464
0.985971
1.00659
1.02223
1.03972
0.887788
0.919363
0.95119
0.981997
1.01067
1.03676
1.05966
1.07844
1.09225
1.10926
0.974032
1.00637
1.03854
1.06952
1.0981
1.12372
1.14571
1.16313
1.17543
1.19194
1.06801
1.10436
1.13899
1.17131
1.20035
1.22558
1.24659
1.26279
1.27435
1.29047
1.18091
1.22161
1.25851
1.29128
1.31965
1.34355
1.3631
1.37832
1.39017
1.40623
1.32235
1.36326
1.39844
1.42791
1.45304
1.4746
1.49306
1.50851
1.5216
1.53754
1.49371
1.52576
1.55269
1.57503
1.59509
1.61379
1.63151
1.64826
1.66316
1.67887
1.67982
1.69703
1.71412
1.7308
1.74689
1.76161
1.77551
1.78998
1.80521
1.8225
1.8632
1.87312
1.8863
1.89727
1.90668
1.91633
1.92693
1.9371
1.94639
1.97205
2.08102
2.07532
2.06237
2.04811
2.04181
2.04751
2.06565
2.09417
2.12793
2.16426
2.38384
2.24789
2.16838
2.12583
2.1085
2.11249
2.13992
2.19778
2.30544
2.48384
0.748008
0.741706
0.733978
0.722867
0.709301
0.696661
0.686276
0.678282
0.67259
0.669295
0.668993
0.671873
0.677144
0.684531
0.694101
0.705946
0.719518
0.732455
0.741449
0.748992
0.657063
0.662984
0.671059
0.677196
0.680272
0.679769
0.676696
0.67272
0.66916
0.666915
0.666833
0.669139
0.672935
0.677413
0.681537
0.6838
0.682738
0.678111
0.671061
0.663231
0.650292
0.652665
0.655936
0.658715
0.661173
0.663374
0.664569
0.664444
0.663538
0.662776
0.66305
0.664525
0.666355
0.667621
0.667573
0.666127
0.663984
0.661633
0.658659
0.655645
0.645473
0.646561
0.648482
0.650828
0.652709
0.654122
0.655359
0.656377
0.657014
0.657445
0.658068
0.658882
0.659405
0.659331
0.658736
0.657839
0.656527
0.654571
0.652474
0.650999
0.640409
0.641043
0.642176
0.643943
0.645799
0.64741
0.648683
0.649778
0.650804
0.651765
0.652633
0.653237
0.653443
0.653289
0.652793
0.65185
0.650446
0.648854
0.647528
0.646729
0.635434
0.635873
0.636666
0.637981
0.639518
0.641102
0.642608
0.643941
0.645149
0.64631
0.647361
0.648064
0.648325
0.648154
0.647541
0.64658
0.645457
0.644335
0.643445
0.642914
0.630536
0.630863
0.63148
0.632563
0.633878
0.635302
0.636814
0.638333
0.639787
0.641178
0.642443
0.64331
0.643637
0.643473
0.642938
0.642204
0.641396
0.640569
0.639923
0.639535
0.625688
0.625941
0.62644
0.627366
0.628562
0.6299
0.631362
0.632944
0.634597
0.636265
0.637803
0.638869
0.639335
0.639336
0.639033
0.638549
0.637963
0.63737
0.636907
0.636611
0.620815
0.621016
0.621432
0.622251
0.623374
0.624671
0.626128
0.627765
0.629575
0.631511
0.633372
0.634734
0.635466
0.635735
0.635692
0.635451
0.635084
0.634692
0.634372
0.63414
0.61583
0.615991
0.616349
0.617098
0.618179
0.619466
0.620963
0.622699
0.624687
0.626907
0.629154
0.630918
0.632013
0.632604
0.632843
0.632852
0.632716
0.632509
0.632308
0.632123
0.61064
0.61077
0.611087
0.611795
0.612865
0.614187
0.615764
0.617645
0.619869
0.62244
0.625155
0.627416
0.628947
0.629913
0.630472
0.630755
0.630848
0.630825
0.630727
0.630578
0.605151
0.605255
0.605546
0.606237
0.607334
0.608734
0.610438
0.612521
0.615052
0.618067
0.621359
0.624216
0.626261
0.627661
0.628585
0.629168
0.629518
0.629676
0.629667
0.629544
0.599261
0.599343
0.599619
0.600319
0.601477
0.602997
0.604885
0.607241
0.610166
0.613732
0.617729
0.621303
0.623959
0.625866
0.62721
0.628152
0.628773
0.62911
0.629184
0.629082
0.592853
0.592915
0.593185
0.593917
0.595173
0.596862
0.598998
0.601709
0.605132
0.609379
0.614232
0.618668
0.622053
0.62456
0.626389
0.62773
0.628662
0.629196
0.629349
0.629263
0.585785
0.585829
0.586101
0.586889
0.588282
0.590196
0.592656
0.595819
0.599862
0.604944
0.610836
0.616308
0.620559
0.623775
0.626178
0.627978
0.629269
0.630016
0.630247
0.630172
0.577905
0.577922
0.578198
0.579063
0.580636
0.58284
0.585712
0.589442
0.594256
0.600362
0.607509
0.61422
0.619498
0.623551
0.626637
0.628989
0.630686
0.631664
0.631972
0.631905
0.568942
0.568953
0.569255
0.570223
0.57203
0.574601
0.577992
0.582432
0.5882
0.595559
0.60422
0.612407
0.618901
0.623938
0.627828
0.63084
0.633005
0.634236
0.63462
0.634557
0.558635
0.55862
0.558964
0.560085
0.562194
0.565235
0.569281
0.57461
0.581561
0.590453
0.600939
0.610875
0.6188
0.624998
0.629835
0.633609
0.636318
0.637822
0.638279
0.638215
0.546632
0.546596
0.546991
0.548299
0.550788
0.554431
0.559313
0.565763
0.574189
0.584961
0.597638
0.609638
0.61923
0.62678
0.632729
0.637382
0.640704
0.642493
0.643015
0.642943
0.532425
0.532366
0.532842
0.534403
0.537378
0.541799
0.547758
0.555643
0.565922
0.579003
0.594304
0.608718
0.620229
0.629328
0.636566
0.642219
0.646211
0.648284
0.648855
0.648768
0.515305
0.515225
0.515829
0.517746
0.521376
0.526834
0.534213
0.543961
0.556597
0.572522
0.590942
0.608145
0.621836
0.632686
0.641359
0.648137
0.652842
0.655169
0.65576
0.655651
0.494273
0.494177
0.494987
0.497422
0.501972
0.508868
0.518185
0.530413
0.546078
0.565507
0.5876
0.607966
0.624089
0.636876
0.647118
0.655119
0.660521
0.663034
0.663604
0.663466
0.467794
0.467698
0.468859
0.472101
0.478052
0.487046
0.499119
0.514732
0.534313
0.558025
0.584376
0.608258
0.62702
0.641894
0.653824
0.663077
0.669076
0.671656
0.672154
0.671982
0.433388
0.433346
0.435137
0.439769
0.44808
0.46039
0.47653
0.496803
0.521407
0.550256
0.581429
0.609129
0.630674
0.647726
0.661387
0.671834
0.678219
0.680694
0.681067
0.680861
0.386653
0.386836
0.390024
0.397592
0.410305
0.428076
0.450271
0.476848
0.507699
0.542515
0.578981
0.610705
0.635105
0.654332
0.669694
0.681131
0.687543
0.6897
0.689909
0.68968
0.319342
0.320792
0.328564
0.342911
0.363756
0.390235
0.420978
0.455572
0.493779
0.535218
0.577277
0.613092
0.640325
0.661635
0.67846
0.69048
0.696485
0.698122
0.698167
0.697945
0.238983
0.241815
0.256952
0.281748
0.313744
0.350498
0.390468
0.433482
0.479421
0.52799
0.576323
0.616972
0.647724
0.671653
0.69004
0.702174
0.707489
0.70868
0.708666
0.708533
0.156675
0.164055
0.186808
0.222034
0.264801
0.311602
0.360788
0.41225
0.465935
0.5216
0.576145
0.62153
0.655662
0.682117
0.70195
0.713709
0.717852
0.718473
0.718409
0.718331
0.0893259
0.0987723
0.126359
0.168961
0.220157
0.275447
0.332919
0.392275
0.453312
0.515683
0.575987
0.625625
0.662657
0.691097
0.711659
0.722818
0.726261
0.726713
0.726657
0.726604
0.0340955
0.0442892
0.0755544
0.123616
0.181161
0.243211
0.307616
0.373874
0.441552
0.510094
0.575704
0.629199
0.668788
0.698823
0.71988
0.730584
0.733585
0.733941
0.733899
0.733859
-0.0121523
-0.0016191
0.0321634
0.0844708
0.147195
0.214842
0.285081
0.3573
0.430877
0.505037
0.575531
0.632563
0.674422
0.705819
0.727204
0.737478
0.740198
0.740524
0.740503
0.740474
-0.0518773
-0.0412028
-0.00554949
0.0501511
0.117193
0.189641
0.264967
0.342454
0.421346
0.500667
0.575714
0.63602
0.679925
0.712439
0.733968
0.743861
0.746412
0.746749
0.746768
0.746759
-0.0867948
-0.076082
-0.0389717
0.0195367
0.090256
0.166878
0.246724
0.328987
0.412788
0.496947
0.576332
0.639742
0.685536
0.719
0.740569
0.750146
0.752575
0.75294
0.753026
0.753051
-0.118183
-0.107463
-0.0691941
-0.00827064
0.0656495
0.145953
0.229854
0.3165
0.404903
0.493705
0.577306
0.643775
0.691399
0.725779
0.747415
0.756733
0.759073
0.759483
0.759644
0.759713
-0.147067
-0.13632
-0.0970318
-0.0339655
0.0428066
0.126385
0.213948
0.304643
0.397395
0.490709
0.578504
0.648079
0.697596
0.732956
0.754753
0.763937
0.766241
0.766668
0.766872
0.76698
-0.174034
-0.163244
-0.123041
-0.0580477
0.0212686
0.107789
0.198687
0.293132
0.390012
0.487734
0.57979
0.652591
0.704138
0.740612
0.762715
0.771849
0.774094
0.774512
0.774718
0.774852
-0.19957
-0.188719
-0.147656
-0.0809132
0.000689707
0.08987
0.183821
0.281744
0.382549
0.484598
0.581011
0.657224
0.710935
0.748615
0.771121
0.780279
0.782479
0.782825
0.783007
0.783143
-0.224062
-0.21306
-0.17119
-0.102836
-0.0191688
0.0724132
0.16916
0.270315
0.374834
0.481137
0.582012
0.66186
0.717893
0.756842
0.779772
0.788946
0.791069
0.791323
0.791447
0.791561
-0.247645
-0.236466
-0.193826
-0.124005
-0.0384747
0.0552848
0.154578
0.258719
0.366741
0.477183
0.582633
0.666389
0.724929
0.765149
0.788458
0.79754
0.799539
0.799685
0.799735
0.799824
-0.270514
-0.259105
-0.215726
-0.144531
-0.0573257
0.0383902
0.139993
0.246875
0.358175
0.472613
0.582712
0.670685
0.73201
0.773504
0.796948
0.805796
0.807601
0.807634
0.807616
0.807676
-0.292671
-0.281052
-0.236959
-0.164479
-0.0757727
0.0216884
0.125373
0.234747
0.34908
0.467324
0.582098
0.674616
0.739109
0.781968
0.8053
0.813596
0.81507
0.814997
0.814929
0.814964
-0.31421
-0.302351
-0.257523
-0.183871
-0.0938425
0.00516565
0.110707
0.22233
0.339433
0.461249
0.580649
0.67803
0.746208
0.79073
0.813721
0.821007
0.821893
0.82168
0.821609
0.821635
-0.335018
-0.322981
-0.277434
-0.202728
-0.111528
-0.0111466
0.0960192
0.209643
0.329245
0.454363
0.578245
0.68076
0.753241
0.799986
0.82267
0.828426
0.828154
0.82765
0.827693
0.827806
-0.355226
-0.342942
-0.296696
-0.221059
-0.128828
-0.0272411
0.0813636
0.196723
0.318546
0.446675
0.574791
0.682613
0.760047
0.809863
0.832757
0.836739
0.834509
0.83311
0.83338
0.833946
-0.374706
-0.362189
-0.315319
-0.238837
-0.145684
-0.0430578
0.0667963
0.183659
0.307401
0.438191
0.570235
0.683386
0.766383
0.820255
0.844445
0.847268
0.842663
0.839296
0.839337
0.840855
-0.393568
-0.380788
-0.333265
-0.256023
-0.162079
-0.0585488
0.0523839
0.170506
0.295884
0.429
0.56456
0.682857
0.771923
0.830775
0.857581
0.860878
0.854877
0.848687
0.844276
0.83785
-0.411709
-0.398739
-0.350625
-0.272787
-0.178236
-0.0739868
0.0378079
0.156887
0.283592
0.418668
0.55736
0.680619
0.776504
0.841504
0.872143
0.87788
0.872272
0.862642
0.85
0.849805
-0.429103
-0.416124
-0.367414
-0.289083
-0.194151
-0.0893443
0.023086
0.142768
0.270467
0.407031
0.548372
0.676036
0.779163
0.851569
0.886302
0.894875
0.889622
0.878919
0.843036
0.80527
-0.445565
-0.432803
-0.383601
-0.304791
-0.209833
-0.104636
0.00820387
0.128265