/*--------------------------------*- C++ -*----------------------------------*\
  =========                 |
  \\      /  F ield         | OpenFOAM: The Open Source CFD Toolbox
   \\    /   O peration     | Website:  https://openfoam.org
    \\  /    A nd           | Version:  6
     \\/     M anipulation  |
\*---------------------------------------------------------------------------*/
FoamFile
{
    version     2.0;
    format      ascii;
    class       volScalarField;
    location    "75";
    object      p;
}
// * * * * * * * * * * * * * * * * * * * * * * * * * * * * * * * * * * * * * //

dimensions      [0 2 -2 0 0 0 0];

internalField   nonuniform List<scalar> 
2200
(
0.789857
0.774637
0.757163
0.740884
0.726449
0.714447
0.704854
0.697429
0.69211
0.689219
0.689743
0.693543
0.699563
0.707489
0.717422
0.729653
0.744268
0.760711
0.778259
0.79349
0.733547
0.729627
0.724628
0.719054
0.712784
0.706205
0.699839
0.694231
0.689914
0.687586
0.68811
0.691389
0.696415
0.702554
0.709326
0.716204
0.722663
0.728326
0.733361
0.737318
0.691987
0.691677
0.692636
0.693966
0.694426
0.693408
0.691172
0.688384
0.685869
0.684495
0.685043
0.687441
0.690759
0.694162
0.696847
0.69817
0.697896
0.696685
0.695881
0.696254
0.666853
0.667885
0.670295
0.673628
0.676872
0.679196
0.680306
0.680372
0.679937
0.679702
0.680338
0.681731
0.683082
0.683721
0.683142
0.681209
0.678248
0.675068
0.672743
0.671762
0.651927
0.653387
0.656153
0.659703
0.663332
0.666637
0.669313
0.671237
0.672508
0.673422
0.674188
0.67464
0.674434
0.673333
0.671283
0.668457
0.665189
0.661872
0.659224
0.6578
0.644238
0.645551
0.647847
0.650736
0.653773
0.656767
0.659634
0.662247
0.664464
0.666161
0.667069
0.667012
0.6661
0.664489
0.662382
0.659961
0.657349
0.654744
0.652596
0.651319
0.640429
0.641341
0.642889
0.644918
0.647111
0.649365
0.65174
0.654207
0.656606
0.65865
0.659776
0.65973
0.658911
0.65766
0.656203
0.654633
0.652928
0.651226
0.649848
0.648973
0.637547
0.638133
0.639101
0.640437
0.641938
0.643525
0.645291
0.647298
0.64946
0.651503
0.652867
0.65327
0.653042
0.652528
0.651889
0.651143
0.650239
0.649288
0.648511
0.647958
0.634161
0.634549
0.635192
0.636133
0.637223
0.638394
0.639732
0.641337
0.643211
0.645209
0.646877
0.647882
0.648375
0.6486
0.648649
0.648496
0.648126
0.647647
0.64722
0.646863
0.629925
0.630198
0.630697
0.631485
0.632446
0.633499
0.634692
0.636127
0.637874
0.639934
0.641973
0.643589
0.644751
0.645554
0.646049
0.646252
0.646162
0.64592
0.645667
0.645423
0.624938
0.625142
0.625579
0.626337
0.627336
0.628488
0.629794
0.631333
0.633205
0.635495
0.637999
0.640196
0.64186
0.643044
0.643816
0.644248
0.64431
0.644211
0.644063
0.643888
0.619493
0.619654
0.620069
0.62084
0.62191
0.623213
0.62476
0.62661
0.628859
0.631622
0.634689
0.637411
0.639493
0.640983
0.641972
0.642551
0.6428
0.642846
0.642769
0.642631
0.613628
0.61377
0.614185
0.614988
0.616166
0.617685
0.619565
0.62186
0.624644
0.628069
0.631835
0.635141
0.63761
0.63938
0.640588
0.641367
0.641806
0.641974
0.641956
0.64184
0.607274
0.607388
0.607808
0.608686
0.610044
0.611851
0.614123
0.616942
0.620403
0.624587
0.62915
0.633125
0.636118
0.638293
0.639837
0.640867
0.641492
0.641792
0.641826
0.641722
0.600431
0.600532
0.600974
0.601917
0.603416
0.605466
0.608124
0.611488
0.615713
0.620878
0.626423
0.631214
0.6349
0.637649
0.63964
0.641032
0.641922
0.642376
0.642462
0.642362
0.592894
0.592923
0.59337
0.59442
0.596118
0.598474
0.601576
0.605562
0.610576
0.616801
0.623547
0.629454
0.634016
0.637502
0.64011
0.641958
0.643156
0.64378
0.643921
0.643824
0.584336
0.584385
0.584856
0.586033
0.587985
0.590721
0.594345
0.599034
0.604958
0.612302
0.620514
0.627848
0.633587
0.638
0.641323
0.643717
0.645276
0.64608
0.646278
0.646178
0.574485
0.574555
0.575077
0.576445
0.578688
0.581852
0.586081
0.591612
0.598713
0.607564
0.617485
0.6265
0.633648
0.639177
0.643356
0.646351
0.648299
0.649316
0.649575
0.649467
0.563053
0.563122
0.563708
0.565238
0.567865
0.571617
0.576643
0.583225
0.591714
0.602429
0.614418
0.625482
0.634303
0.641122
0.646249
0.649946
0.652362
0.653597
0.653905
0.653781
0.549531
0.549619
0.550329
0.552101
0.555188
0.559656
0.565704
0.573674
0.583982
0.597078
0.611723
0.625052
0.63567
0.643886
0.650084
0.654584
0.657511
0.658971
0.65931
0.65916
0.533342
0.533404
0.534234
0.536407
0.540201
0.545687
0.553125
0.56296
0.575673
0.591694
0.609496
0.625462
0.638045
0.647709
0.655033
0.660349
0.663762
0.665396
0.665742
0.665561
0.513521
0.513621
0.514657
0.517358
0.522132
0.529045
0.53837
0.550671
0.566555
0.586363
0.60789
0.626666
0.641229
0.65248
0.661033
0.66719
0.671058
0.672833
0.673157
0.672938
0.489256
0.489371
0.49069
0.494106
0.500131
0.508932
0.520939
0.536786
0.556905
0.581322
0.606949
0.628713
0.645419
0.658263
0.668002
0.674986
0.679268
0.681114
0.681374
0.681115
0.458126
0.458417
0.460362
0.465079
0.473304
0.485161
0.501045
0.521545
0.54687
0.576656
0.606888
0.631816
0.650626
0.665003
0.675886
0.683583
0.688149
0.689971
0.69013
0.689832
0.417462
0.418105
0.421233
0.428421
0.440396
0.456996
0.478398
0.504989
0.536638
0.572556
0.607726
0.635924
0.656788
0.672561
0.684406
0.692683
0.697364
0.699018
0.699032
0.698717
0.364302
0.365476
0.371054
0.382731
0.400835
0.424478
0.453309
0.487422
0.526413
0.569149
0.60959
0.64099
0.663712
0.680719
0.693488
0.702095
0.706477
0.707708
0.70758
0.707289
0.29672
0.300403
0.312
0.331646
0.358236
0.390471
0.427725
0.470022
0.516842
0.566778
0.612807
0.647894
0.673091
0.691661
0.704988
0.713445
0.71738
0.718258
0.718115
0.71789
0.22189
0.231339
0.251548
0.280516
0.316284
0.357443
0.403501
0.454094
0.508501
0.565459
0.617459
0.656974
0.684888
0.704788
0.718458
0.726541
0.729843
0.730401
0.730258
0.730105
0.152885
0.166515
0.193649
0.231414
0.276443
0.326746
0.381628
0.440234
0.501736
0.565074
0.622226
0.665348
0.695821
0.71711
0.731195
0.738948
0.741768
0.742085
0.741967
0.741882
0.0969572
0.111885
0.143096
0.187485
0.24037
0.298892
0.361918
0.428126
0.496312
0.565208
0.626814
0.673301
0.705928
0.728529
0.743382
0.75128
0.753864
0.754074
0.75405
0.754025
0.0510531
0.0664609
0.100554
0.149836
0.208897
0.274284
0.344427
0.417431
0.491639
0.565634
0.63136
0.680874
0.71567
0.740049
0.755852
0.764062
0.766794
0.767176
0.767197
0.76719
0.0120517
0.0281704
0.06467
0.117832
0.181781
0.25271
0.32878
0.407716
0.48746
0.566374
0.635858
0.688136
0.725406
0.751725
0.768685
0.777583
0.780717
0.781207
0.781155
0.781138
-0.0218704
-0.00502926
0.0336812
0.0901361
0.158062
0.233531
0.314588
0.398702
0.483425
0.566857
0.639837
0.695042
0.735064
0.763285
0.781596
0.791147
0.794524
0.795049
0.794964
0.794933
-0.0518609
-0.0344668
0.00616825
0.0655761
0.136928
0.216216
0.301436
0.389918
0.479046
0.566668
0.643353
0.701908
0.744293
0.774189
0.793785
0.803998
0.807571
0.808128
0.80803
0.807986
-0.0790342
-0.0611949
-0.0188369
0.0432725
0.117672
0.200239
0.28893
0.381083
0.474209
0.566092
0.64698
0.70866
0.752895
0.78442
0.805005
0.815667
0.819509
0.820151
0.820044
0.81998
-0.104058
-0.0858453
-0.0419698
0.0225922
0.099733
0.185186
0.276862
0.372223
0.469098
0.565451
0.650642
0.714957
0.760858
0.793706
0.815003
0.826136
0.830209
0.830913
0.830796
0.83071
-0.127504
-0.108949
-0.0636835
0.00311675
0.0827531
0.170806
0.265147
0.363413
0.463852
0.564605
0.65371
0.720419
0.768146
0.802075
0.823926
0.835401
0.839661
0.840409
0.840274
0.840167
-0.149693
-0.130752
-0.0842567
-0.0154325
0.0664942
0.15694
0.253716
0.354621
0.4583
0.562981
0.655742
0.725305
0.774927
0.809614
0.831946
0.843685
0.847973
0.848712
0.848562
0.848444
-0.17085
-0.151546
-0.103915
-0.0332277
0.0508338
0.143489
0.242443
0.345613
0.451994
0.56008
0.65679
0.729883
0.781397
0.816863
0.839469
0.851141
0.855326
0.855977
0.855792
0.855668
-0.191129
-0.171486
-0.122837
-0.050422
0.0356294
0.1303
0.231129
0.336089
0.444574
0.555789
0.657074
0.734317
0.788049
0.824342
0.846892
0.858181
0.861954
0.86231
0.862047
0.861929
-0.210719
-0.1908
-0.14119
-0.0671526
0.0207582
0.117236
0.219592
0.325869
0.436012
0.550308
0.656624
0.738519
0.795177
0.832691
0.854785
0.865032
0.867822
0.867598
0.867354
0.867291
-0.229762
-0.209606
-0.159094
-0.0835307
0.00610501
0.10418
0.207747
0.314988
0.426549
0.543872
0.655235
0.742321
0.803001
0.842226
0.863723
0.872263
0.873141
0.872303
0.872043
0.872045
-0.248441
-0.228024
-0.176626
-0.0996189
-0.00837235
0.0911162
0.19563
0.303626
0.416492
0.536585
0.652595
0.745327
0.811072
0.853137
0.874692
0.881043
0.879136
0.876945
0.876344
0.87643
-0.26672
-0.246057
-0.193803
-0.11543
-0.0226769
0.0780754
0.183352
0.291986
0.406033
0.528454
0.648524
0.747046
0.818699
0.865142
0.888265
0.893002
0.887673
0.882398
0.880404
0.880561
-0.284607
-0.263693
-0.210596
-0.130929
-0.0367646
0.0651147
0.170994
0.280181
0.39525
0.519524
0.643011
0.747017
0.824938
0.877449
0.904508
0.909546
0.901643
0.890793
0.884307
0.88336
-0.301961
-0.280818
-0.226907
-0.146047
-0.0506114
0.0522303
0.158568
0.268238
0.38419
0.509954
0.636258
0.745031
0.829113
0.888684
0.921982
0.930588
0.922168
0.905253
0.883925
0.861775
-0.318722
-0.297362
-0.242674
-0.16079
-0.0643786
0.0391123
0.145721
0.25582
0.37263
0.499735
0.628341
0.740936
0.830568
0.897536
0.939202
0.953491
0.947418
0.931168
0.933788
0.950862
-0.334764
-0.313288
-0.257958
-0.175301
-0.0783374
0.0253513
0.13198
0.24246
0.360184
0.488589
0.618916
0.734165
0.828227
0.90158
0.95126
0.972174
0.966766
0.941921
0.907754
0.908575
-0.350083
-0.328642
-0.27279
-0.189543
-0.0923877
0.0110674
0.117444
0.228268
0.346996
0.476635
0.607914
0.72432
0.820703
0.897793
0.950576
0.969561
0.948853
0.897002
0.846603
0.830615
-0.364576
-0.343448
-0.287206
-0.203525
-0.106524
-0.00368589
0.102211
0.213338
0.333081
0.46375
0.595112
0.710952
0.807043
0.881846
0.926495
0.923476
0.889713
0.817811
0.750427
0.730159
-0.378201
-0.357756
-0.301225
-0.2173
-0.120788
-0.0188487
0.0864267
0.197793
0.3184
0.449674
0.580226
0.693547
0.784863
0.850967
0.874626
0.854737
0.789872
0.696161
0.615663
0.595866
-0.391333
-0.371698
-0.315173
-0.231412
-0.135715
-0.0347513
0.0699631
0.18152
0.302676
0.433961
0.562796
0.671528
0.754181
0.804133
0.798311
0.762553
0.652027
0.542037
0.452395
0.434206
-0.404893
-0.385766
-0.329744
-0.246776
-0.152084
-0.0519013
0.0525267
0.164241
0.285498
0.416074
0.542308
0.643879
0.713662
0.739854
0.714032
0.629482
0.49799
0.368686
0.260194
0.239471
-0.419422
-0.400366
-0.345246
-0.263632
-0.170015
-0.0703233
0.0341266
0.14591
0.266719
0.395772
0.518414
0.61136
0.663753
0.661937
0.622284
0.491056
0.331731
0.163553
0.0253697
-0.00242897
-0.435147
-0.416027
-0.361815
-0.281693
-0.189104
-0.0897093
0.0148756
0.126511
0.246277
0.372922
0.490673
0.574756
0.607305
0.576305
0.500776
0.346076
0.164431
-0.0436189
-0.240513
-0.321925
-0.452243
-0.432978
-0.379553
-0.300772
-0.209103
-0.109948
-0.00528965
0.105919
0.224085
0.347487
0.459293
0.533644
0.545686
0.485459
0.358072
0.196941
0.0110795
-0.250955
-0.657011
-0.978068
-0.470947
-0.451504
-0.39858
-0.320775
-0.229811
-0.130884
-0.0263182
0.0841949
0.200345
0.319808
0.424997
0.488958
0.481099
0.401314
0.216484
0.0345953
-0.130707
-0.368694
-0.854451
-1.61199
-0.491258
-0.471521
-0.418928
-0.341844
-0.251456
-0.152825
-0.0485455
0.0610245
0.174795
0.289602
0.387878
0.440856
0.414059
0.32179
0.0961673
-0.100502
-0.239479
-0.367476
-0.541689
-0.817224
-0.51326
-0.493254
-0.44085
-0.364366
-0.274527
-0.17636
-0.0726804
0.0355833
0.146532
0.255917
0.34721
0.388542
0.346309
0.238157
0.00353065
-0.179648
-0.289953
-0.347279
-0.387344
-0.418424
-0.53685
-0.516504
-0.464344
-0.388458
-0.299261
-0.201779
-0.0990029
0.00763075
0.115455
0.219132
0.302773
0.332509
0.281654
0.155858
-0.0645525
-0.221791
-0.307551
-0.329912
-0.356381
-0.361163
-0.561982
-0.541494
-0.489461
-0.414138
-0.325654
-0.229079
-0.127568
-0.0229264
0.0815619
0.179486
0.254654
0.272762
0.222222
0.074691
-0.11844
-0.241139
-0.298248
-0.319778
-0.325798
-0.326153
-0.588253
-0.567679
-0.515931
-0.441255
-0.353665
-0.258286
-0.158401
-0.0561245
0.0447992
0.137298
0.204031
0.210519
0.163827
-0.00385685
-0.162979
-0.253472
-0.281358
-0.305353
-0.30679
-0.306443
-0.615644
-0.595007
-0.543519
-0.469568
-0.383016
-0.289103
-0.191264
-0.0918261
0.00517205
0.0930214
0.152352
0.148675
0.0997258
-0.0672265
-0.200382
-0.270962
-0.284293
-0.291224
-0.293082
-0.293351
-0.643393
-0.622772
-0.571686
-0.498627
-0.413404
-0.321321
-0.225933
-0.129785
-0.0369943
0.0468858
0.100425
0.088081
0.0306315
-0.117549
-0.223414
-0.276928
-0.294457
-0.285706
-0.282815
-0.282356
-0.670964
-0.650466
-0.599881
-0.527945
-0.444308
-0.354385
-0.261873
-0.169451
-0.0811692
-0.00111839
0.0482504
0.0306791
-0.0397611
-0.156405
-0.230776
-0.263024
-0.284054
-0.276865
-0.271816
-0.270176
-0.697017
-0.676962
-0.627279
-0.556764
-0.475149
-0.387828
-0.298567
-0.210239
-0.12659
-0.0507398
-0.00444527
-0.0217692
-0.0968853
-0.18706
-0.236644
-0.247159
-0.260033
-0.26286
-0.261898
-0.260501
-0.720542
-0.701276
-0.652977
-0.584357
-0.505157
-0.420827
-0.335209
-0.251256
-0.172436
-0.101286
-0.0574585
-0.0684989
-0.137879
-0.207477
-0.243116
-0.249361
-0.250638
-0.255124
-0.256777
-0.256525
-0.739752
-0.721801
-0.675752
-0.609696
-0.533462
-0.452581
-0.370922
-0.291532
-0.217584
-0.151064
-0.109016
-0.113214
-0.168427
-0.218142
-0.245742
-0.259472
-0.255964
-0.25508
-0.25509
-0.255026
-0.753519
-0.737475
-0.69451
-0.631756
-0.55893
-0.481924
-0.404669
-0.33006
-0.260788
-0.198292
-0.157349
-0.157408
-0.196002
-0.22673
-0.244328
-0.257466
-0.255126
-0.253727
-0.253278
-0.253322
-0.760419
-0.746909
-0.707976
-0.649127
-0.5803
-0.507682
-0.435134
-0.36546
-0.300877
-0.241661
-0.200289
-0.200684
-0.228661
-0.242085
-0.244252
-0.250258
-0.25364
-0.25627
-0.257616
-0.258407
-0.760396
-0.749668
-0.714911
-0.660326
-0.595993
-0.528441
-0.461236
-0.396697
-0.336881
-0.280454
-0.235586
-0.240105
-0.269202
-0.276513
-0.269492
-0.275055
-0.279227
-0.282833
-0.284599
-0.28611
-0.752904
-0.743614
-0.712896
-0.663436
-0.604945
-0.543419
-0.48184
-0.422345
-0.367004
-0.313299
-0.266093
-0.272594
-0.31018
-0.340593
-0.35856
-0.371222
-0.36834
-0.359036
-0.350986
-0.34779
-0.732527
-0.724114
-0.699201
-0.657447
-0.606734
-0.551946
-0.496325
-0.441656
-0.390224
-0.33851
-0.288857
-0.292155
-0.335301
-0.408028
-0.473186
-0.498779
-0.495649
-0.474689
-0.452159
-0.436067
-0.693717
-0.687753
-0.673372
-0.643303
-0.602202
-0.554577
-0.504085
-0.453471
-0.405579
-0.356399
-0.296621
-0.27682
-0.310489
-0.389773
-0.477625
-0.516093
-0.516364
-0.494048
-0.468695
-0.450192
-0.651723
-0.650162
-0.644234
-0.624322
-0.592208
-0.551574
-0.50552
-0.457545
-0.410962
-0.363065
-0.289775
-0.219335
-0.189295
-0.205842
-0.247851
-0.255235
-0.229092
-0.193642
-0.161349
-0.142004
-0.622798
-0.622551
-0.617062
-0.604763
-0.580464
-0.545828
-0.50302
-0.454749
-0.404827
-0.351415
-0.265956
-0.135563
0.00394206
0.132981
0.221878
0.307001
0.381587
0.439357
0.475888
0.493226
-0.597594
-0.597093
-0.595268
-0.589471
-0.571291
-0.540883
-0.499172
-0.447657
-0.390294
-0.322902
-0.22722
-0.0674431
0.140416
0.367842
0.577031
0.743373
0.864656
0.943794
0.984381
0.998767
-0.580819
-0.580869
-0.581023
-0.575543
-0.562505
-0.536558
-0.49535
-0.439568
-0.373326
-0.292539
-0.185002
-0.0156513
0.215721
0.478183
0.741326
0.959882
1.11657
1.21389
1.26361
1.28218
-0.56791
-0.567882
-0.567589
-0.565397
-0.558165
-0.534252
-0.492603
-0.433871
-0.359756
-0.268487
-0.153397
0.00822977
0.230812
0.493235
0.767322
1.00822
1.18921
1.30112
1.35564
1.37337
-0.560136
-0.559995
-0.559935
-0.560726
-0.555071
-0.533624
-0.492356
-0.4319
-0.353574
-0.257219
-0.142159
0.00221803
0.19953
0.43402
0.682906
0.909928
1.08731
1.19865
1.25126
1.26705
-0.553713
-0.553745
-0.554131
-0.555409
-0.5499
-0.530912
-0.493529
-0.435755
-0.356874
-0.259945
-0.149191
-0.0240556
0.141605
0.336753
0.539923
0.726997
0.87649
0.972258
1.01724
1.03023
-0.547027
-0.546956
-0.546752
-0.546381
-0.542422
-0.529473
-0.497696
-0.444613
-0.368189
-0.272495
-0.16812
-0.0624109
0.0717253
0.227858
0.384415
0.524728
0.636929
0.709944
0.744046
0.75335
-0.5457
-0.544837
-0.542395
-0.538177
-0.534725
-0.530221
-0.506932
-0.458476
-0.384009
-0.288881
-0.192733
-0.106703
-0.00139251
0.120435
0.238719
0.340268
0.420165
0.472659
0.495787
0.499787
-0.560353
-0.558498
-0.554781
-0.549195
-0.547334
-0.544532
-0.52495
-0.476111
-0.399411
-0.304539
-0.218345
-0.152024
-0.0719305
0.0228252
0.113826
0.188928
0.24614
0.283503
0.300443
0.30395
-0.591586
-0.58966
-0.587764
-0.587331
-0.590942
-0.58519
-0.554525
-0.494188
-0.410905
-0.317573
-0.243349
-0.193762
-0.133462
-0.0590844
0.0130425
0.0714155
0.11537
0.144604
0.158643
0.160377
-0.62973
-0.629677
-0.633548
-0.640805
-0.644683
-0.631474
-0.586217
-0.508828
-0.414372
-0.325411
-0.266488
-0.230079
-0.183229
-0.122917
-0.0633899
-0.0156063
0.0202152
0.0445688
0.0572616
0.0591854
-0.655764
-0.659047
-0.666498
-0.674827
-0.676891
-0.659111
-0.601204
-0.507017
-0.406317
-0.327623
-0.285484
-0.259317
-0.220729
-0.168154
-0.116648
-0.0765171
-0.0472307
-0.0280213
-0.0192239
-0.0174725
-0.644399
-0.648421
-0.658228
-0.668515
-0.670262
-0.647433
-0.575513
-0.475155
-0.384004
-0.32449
-0.297785
-0.277368
-0.24233
-0.195382
-0.150259
-0.116933
-0.0941612
-0.0804034
-0.0750956
-0.0744976
-0.569325
-0.575144
-0.587388
-0.599913
-0.601981
-0.57417
-0.501939
-0.415932
-0.349107
-0.311936
-0.295031
-0.279075
-0.2481
-0.206202
-0.167865
-0.141888
-0.125419
-0.116411
-0.113924
-0.114488
-0.431953
-0.437886
-0.448534
-0.46064
-0.463714
-0.442069
-0.393246
-0.340249
-0.303741
-0.2839
-0.270369
-0.258377
-0.235943
-0.203234
-0.173213
-0.154269
-0.143338
-0.138518
-0.138388
-0.139816
-0.264508
-0.268502
-0.276459
-0.286666
-0.293725
-0.288907
-0.272507
-0.25561
-0.244804
-0.235044
-0.225583
-0.221438
-0.211551
-0.187986
-0.166251
-0.154608
-0.149527
-0.148465
-0.150095
-0.151982
-0.11249
-0.114966
-0.120297
-0.129042
-0.140383
-0.151201
-0.160201
-0.16869
-0.173874
-0.171191
-0.168124
-0.176169
-0.188418
-0.162794
-0.14855
-0.145434
-0.146548
-0.148652
-0.151304
-0.153221
-0.00641203
-0.00783324
-0.01172
-0.0196978
-0.0330287
-0.0515233
-0.0729803
-0.0929353
-0.105469
-0.109076
-0.113273
-0.129864
-0.150239
-0.134279
-0.129393
-0.132555
-0.136882
-0.140455
-0.143395
-0.145126
0.0502702
0.0494009
0.0461122
0.0383741
0.0248083
0.00504616
-0.0190639
-0.0418746
-0.0566478
-0.0644872
-0.0742422
-0.0914777
-0.107471
-0.108128
-0.111372
-0.117588
-0.122624
-0.126288
-0.129018
-0.13048
0.0713757
0.0708683
0.0681723
0.0609027
0.0478361
0.0288866
0.00567054
-0.0172085
-0.032735
-0.0420003
-0.0532176
-0.0668592
-0.078239
-0.0853343
-0.0927059
-0.100239
-0.105559
-0.109175
-0.111559
-0.112716
0.0724222
0.0721503
0.0702767
0.0642114
0.0525241
0.0352185
0.01338
-0.00921759
-0.0252492
-0.0339043
-0.0434658
-0.0530208
-0.0602312
-0.0666615
-0.0742373
-0.081973
-0.0878161
-0.091556
-0.0935297
-0.0943297
0.0642432
0.0640856
0.0630052
0.0587052
0.0492504
0.0345638
0.015408
-0.00559398
-0.021558
-0.0290226
-0.0366115
-0.0437936
-0.0487571
-0.0526152
-0.0583833
-0.0654042
-0.0709846
-0.0742375
-0.0755375
-0.0759959
0.0527232
0.0526137
0.0520377
0.0495321
0.0430651
0.0318606
0.0167746
-0.00013832
-0.0141602
-0.0207784
-0.0266493
-0.0347905
-0.0398914
-0.0421347
-0.0459946
-0.0513434
-0.0555939
-0.0577258
-0.0583596
-0.0586529
0.0403895
0.0403208
0.0399479
0.0386821
0.0352223
0.0280356
0.0172463
0.00530883
-0.00482842
-0.00981991
-0.0125709
-0.0239822
-0.0305412
-0.032464
-0.0353704
-0.0392067
-0.0418487
-0.0428408
-0.043052
-0.0433048
0.028408
0.0284332
0.0281697
0.0273644
0.0259204
0.0226112
0.0159514
0.00773862
0.000612754
-0.00311569
0.00173557
-0.0123204
-0.0202168
-0.022445
-0.0250141
-0.0278397
-0.0292293
-0.0294959
-0.0296675
-0.0299673
0.0167873
0.0168661
0.0168484
0.0163135
0.0154233
0.0144927
0.0118686
0.00696735
0.00167669
-0.00296341
0.00696841
-0.00423461
-0.0118384
-0.011375
-0.0132891
-0.0168903
-0.0179129
-0.0175053
-0.0174688
-0.0176832
0.00562198
0.00566
0.00581543
0.00580514
0.00513052
0.00479797
0.00452483
0.00285171
0.000612255
-0.00307414
0.00489487
-0.000226394
-0.00712424
-0.00181944
-0.00278034
-0.00753462
-0.00808718
-0.00725641
-0.00691134
-0.00691029
-0.553471
-0.100545
0.175958
0.382691
0.547241
0.679653
0.784968
0.87353
0.945718
0.982608
0.104869
0.31424
0.428915
0.546934
0.659754
0.752942
0.820631
0.858547
0.855338
0.855813
0.368581
0.499761
0.592216
0.673996
0.74673
0.806434
0.848649
0.869796
0.875954
0.911399
0.551864
0.639115
0.712595
0.773025
0.822299
0.861873
0.892435
0.916189
0.936301
0.967608
0.698457
0.755245
0.810714
0.855499
0.891814
0.921818
0.947753
0.97188
0.996263
1.02071
0.818188
0.858064
0.897914
0.931965
0.960846
0.986071
1.00928
1.03189
1.05426
1.07313
0.922271
0.949449
0.979044
1.00578
1.02981
1.05188
1.07282
1.09298
1.11211
1.128
1.01469
1.03348
1.05664
1.07908
1.09984
1.11913
1.1374
1.15493
1.17154
1.18516
1.09891
1.11599
1.13514
1.1533
1.17053
1.18701
1.20295
1.21828
1.23277
1.24498
1.18202
1.19553
1.21206
1.22799
1.24301
1.25722
1.27079
1.28388
1.29644
1.30694
1.26883
1.27734
1.2903
1.30423
1.31753
1.32986
1.34134
1.35216
1.36249
1.37151
1.35688
1.36249
1.37238
1.38417
1.39569
1.40605
1.41517
1.42345
1.43141
1.4385
1.44855
1.45211
1.45905
1.46728
1.47551
1.48332
1.49046
1.49689
1.50302
1.50882
1.54439
1.54468
1.54657
1.54945
1.55308
1.5577
1.56351
1.57027
1.57723
1.58329
1.64623
1.63747
1.62799
1.62074
1.61734
1.61881
1.62549
1.6368
1.65114
1.6646
1.75287
1.71578
1.68491
1.66588
1.65693
1.65656
1.66472
1.68366
1.71495
1.75384
)
;

boundaryField
{
    wall-4
    {
        type            zeroGradient;
    }
    pressure-outlet-7
    {
        type            fixedValue;
        value           uniform 0;
    }
    velocity-inlet-6
    {
        type            zeroGradient;
    }
    velocity-inlet-5
    {
        type            zeroGradient;
    }
    frontAndBackPlanes
    {
        type            empty;
    }
}


// ************************************************************************* //
