/*--------------------------------*- C++ -*----------------------------------*\
  =========                 |
  \\      /  F ield         | OpenFOAM: The Open Source CFD Toolbox
   \\    /   O peration     | Website:  https://openfoam.org
    \\  /    A nd           | Version:  6
     \\/     M anipulation  |
\*---------------------------------------------------------------------------*/
FoamFile
{
    version     2.0;
    format      ascii;
    class       volScalarField;
    location    "41.6";
    object      p;
}
// * * * * * * * * * * * * * * * * * * * * * * * * * * * * * * * * * * * * * //

dimensions      [0 2 -2 0 0 0 0];

internalField   nonuniform List<scalar> 
8800
(
0.911732
0.862413
0.82444
0.796359
0.776178
0.761561
0.750921
0.743328
0.73837
0.7362
0.737455
0.741702
0.748423
0.757793
0.770491
0.787784
0.811644
0.844731
0.887661
0.940172
0.746241
0.752583
0.761724
0.765262
0.762638
0.756528
0.749555
0.743264
0.738393
0.735433
0.735088
0.737605
0.742158
0.748221
0.755275
0.762276
0.767132
0.766992
0.760306
0.751401
0.719792
0.726023
0.730512
0.734367
0.737293
0.738212
0.737081
0.734898
0.732831
0.731878
0.732785
0.735131
0.737935
0.740145
0.740621
0.7388
0.735411
0.731381
0.72659
0.722872
0.715546
0.718307
0.720901
0.723041
0.724753
0.726286
0.72734
0.727624
0.727414
0.727385
0.728051
0.729076
0.729726
0.729505
0.728477
0.727083
0.725384
0.72306
0.720637
0.71907
0.710564
0.711986
0.713811
0.71587
0.717553
0.718805
0.719847
0.720746
0.721444
0.722033
0.722587
0.722914
0.722832
0.722385
0.721654
0.720491
0.718797
0.716876
0.71551
0.714707
0.705669
0.70657
0.707801
0.709403
0.711061
0.712546
0.713764
0.714794
0.715727
0.716573
0.717174
0.717408
0.717291
0.716824
0.715945
0.714698
0.71329
0.711991
0.711155
0.710632
0.700883
0.701536
0.702482
0.703773
0.705181
0.706644
0.708053
0.70931
0.710426
0.711435
0.712166
0.712464
0.712327
0.711768
0.710892
0.709875
0.708821
0.707875
0.707279
0.706896
0.696205
0.696708
0.697477
0.698587
0.699844
0.701201
0.702623
0.704045
0.705389
0.706614
0.707505
0.707877
0.707762
0.707285
0.7066
0.705815
0.705
0.704287
0.703842
0.703546
0.691587
0.691986
0.69263
0.693619
0.694803
0.696103
0.697515
0.699021
0.700565
0.702045
0.703142
0.703651
0.703681
0.703394
0.702916
0.702325
0.701694
0.70116
0.700824
0.700586
0.686955
0.687281
0.687838
0.688747
0.689881
0.691163
0.692599
0.694189
0.695896
0.697623
0.699004
0.699774
0.700044
0.69998
0.699704
0.69931
0.698853
0.698467
0.698213
0.698015
0.682228
0.682498
0.682994
0.683856
0.68497
0.68627
0.687767
0.689474
0.691376
0.693405
0.695135
0.696238
0.696804
0.696993
0.696935
0.696731
0.696439
0.696182
0.695994
0.695826
0.67733
0.677556
0.678013
0.678858
0.679994
0.681356
0.682952
0.684826
0.686989
0.689386
0.691551
0.693055
0.693963
0.694442
0.694621
0.694611
0.694483
0.694337
0.694203
0.694057
0.67218
0.672371
0.672808
0.673666
0.674861
0.676331
0.678097
0.680219
0.682731
0.685599
0.688292
0.690268
0.691558
0.692344
0.692779
0.692971
0.693008
0.692967
0.692877
0.692748
0.666689
0.666852
0.667287
0.668189
0.66949
0.67112
0.673118
0.675571
0.678539
0.682006
0.685342
0.68787
0.689602
0.69074
0.69146
0.691877
0.692074
0.692127
0.692078
0.691961
0.660759
0.660897
0.661344
0.662316
0.663762
0.665605
0.667892
0.670747
0.67426
0.678453
0.68258
0.685798
0.688086
0.689658
0.690716
0.691386
0.691764
0.691919
0.691906
0.691798
0.654268
0.654381
0.654852
0.655922
0.657557
0.659677
0.662347
0.665715
0.669919
0.675004
0.680102
0.684147
0.687099
0.689186
0.69063
0.691589
0.692171
0.692431
0.692455
0.692352
0.647059
0.647156
0.647661
0.648857
0.650744
0.653228
0.656397
0.660438
0.665511
0.6717
0.677978
0.683032
0.686746
0.689415
0.691319
0.692614
0.693423
0.693797
0.693857
0.693758
0.638905
0.638995
0.639553
0.640918
0.643131
0.646074
0.649859
0.654736
0.660934
0.668527
0.676214
0.68243
0.687063
0.690449
0.692903
0.694599
0.695671
0.69617
0.696266
0.696167
0.629544
0.629612
0.630248
0.631828
0.634442
0.637954
0.642517
0.64842
0.65592
0.66517
0.674625
0.682333
0.688101
0.692358
0.695493
0.697674
0.699061
0.699704
0.699839
0.699737
0.618604
0.618654
0.619389
0.621257
0.624388
0.628654
0.634246
0.641518
0.650784
0.662154
0.673682
0.683045
0.690096
0.695358
0.699272
0.702035
0.703783
0.704584
0.704756
0.704647
0.605544
0.605582
0.606452
0.608705
0.612525
0.617778
0.624688
0.633673
0.645077
0.659008
0.67307
0.684468
0.693073
0.699527
0.704376
0.707836
0.710013
0.71099
0.711195
0.711072
0.589588
0.589623
0.590698
0.59349
0.598237
0.60482
0.6135
0.624753
0.638911
0.655985
0.673043
0.686769
0.697139
0.70498
0.710927
0.7152
0.717871
0.719034
0.719262
0.719119
0.569544
0.56959
0.571001
0.574628
0.580751
0.589253
0.600408
0.614703
0.632381
0.653287
0.673792
0.690139
0.70248
0.71187
0.719007
0.724198
0.727388
0.72873
0.728966
0.728795
0.543576
0.543659
0.545661
0.550666
0.558951
0.57031
0.584964
0.603303
0.625371
0.65082
0.675279
0.694559
0.709074
0.720167
0.728643
0.734811
0.73852
0.740006
0.74023
0.740026
0.508636
0.508859
0.512078
0.519671
0.531678
0.547476
0.56718
0.590897
0.618401
0.64911
0.677908
0.700292
0.71709
0.729965
0.739846
0.746985
0.751141
0.752702
0.752886
0.752647
0.458973
0.460078
0.466561
0.479502
0.498011
0.520675
0.547356
0.577839
0.611719
0.648284
0.681728
0.707363
0.726506
0.741188
0.752498
0.760558
0.765026
0.766567
0.766682
0.766408
0.386134
0.393545
0.408506
0.431247
0.459439
0.491295
0.526485
0.56477
0.605775
0.648793
0.687326
0.716541
0.738335
0.755109
0.768037
0.777019
0.78183
0.783402
0.783503
0.783265
0.308415
0.324502
0.348826
0.382113
0.420567
0.461797
0.505607
0.55195
0.600558
0.650832
0.695548
0.729412
0.75474
0.774298
0.789326
0.799564
0.804728
0.806283
0.806419
0.80631
0.241913
0.261625
0.29378
0.336092
0.383621
0.433683
0.485886
0.540146
0.596195
0.653477
0.70406
0.742266
0.770845
0.792948
0.809878
0.82099
0.826366
0.828035
0.82822
0.828184
0.187576
0.209502
0.247007
0.29582
0.350438
0.407904
0.467526
0.529071
0.592107
0.656041
0.712127
0.754357
0.785856
0.810123
0.828573
0.840796
0.846907
0.848636
0.848843
0.848858
0.142436
0.165673
0.207024
0.260898
0.321218
0.384782
0.45073
0.518697
0.588106
0.658193
0.719434
0.765317
0.79948
0.825724
0.845583
0.858725
0.865421
0.867359
0.867685
0.86773
0.103831
0.127885
0.172079
0.230042
0.295129
0.363885
0.43531
0.508948
0.584107
0.65984
0.725813
0.775083
0.811605
0.839531
0.860419
0.874271
0.881451
0.883762
0.884177
0.884234
0.0697334
0.0943589
0.140786
0.202131
0.271276
0.34454
0.420816
0.499561
0.57996
0.660909
0.731274
0.783666
0.822261
0.851445
0.873015
0.887335
0.894914
0.897579
0.898125
0.898189
0.0386746
0.0637819
0.112067
0.176302
0.248965
0.326184
0.406812
0.490224
0.575478
0.661356
0.735891
0.791187
0.831618
0.861805
0.883918
0.89859
0.906476
0.909391
0.910011
0.910062
0.00969601
0.0352528
0.0851305
0.151929
0.227682
0.308411
0.392965
0.480665
0.570504
0.661097
0.739703
0.797767
0.839874
0.870942
0.893501
0.908447
0.916549
0.919591
0.920204
0.920213
-0.0179326
0.00812114
0.0594667
0.128561
0.207062
0.290939
0.379052
0.47072
0.564892
0.660069
0.742694
0.803497
0.847215
0.879118
0.902074
0.917218
0.925401
0.928523
0.929169
0.929151
-0.0445043
-0.0180003
0.0347009
0.10588
0.186858
0.273577
0.364931
0.460269
0.558547
0.658207
0.744854
0.808437
0.853809
0.8866
0.909989
0.925321
0.933534
0.936622
0.937274
0.937254
-0.070385
-0.0433391
0.0106175
0.0836879
0.166908
0.256192
0.350508
0.449245
0.551407
0.655432
0.746152
0.812639
0.859794
0.893579
0.917455
0.932959
0.941183
0.944202
0.944768
0.944699
-0.0956375
-0.0680464
-0.0129134
0.0618795
0.147125
0.238728
0.335741
0.437618
0.54343
0.651698
0.746553
0.81614
0.86527
0.900173
0.924585
0.940243
0.948397
0.951301
0.951771
0.95164
-0.120335
-0.0921776
-0.035951
0.0404138
0.127477
0.221167
0.320623
0.425377
0.534601
0.646958
0.746002
0.818926
0.870293
0.906486
0.93148
0.947233
0.955209
0.957911
0.958259
0.958083
-0.144536
-0.115795
-0.0584949
0.0192907
0.107965
0.203528
0.305184
0.412552
0.524925
0.641171
0.744421
0.820938
0.874891
0.912619
0.938243
0.953996
0.961668
0.964069
0.964288
0.964078
-0.168267
-0.138857
-0.0805339
-0.00147432
0.0886346
0.185855
0.289478
0.399189
0.514425
0.634308
0.741727
0.822078
0.87904
0.918676
0.94503
0.960611
0.967752
0.969752
0.969832
0.9696
-0.191362
-0.161323
-0.102032
-0.0218521
0.06953
0.168219
0.273568
0.385363
0.503156
0.626383
0.737846
0.822225
0.882645
0.924736
0.952089
0.9673
0.973535
0.974939
0.974861
0.974626
-0.213786
-0.183147
-0.122961
-0.0417838
0.0507167
0.150684
0.257549
0.371151
0.491198
0.617418
0.732726
0.821242
0.885533
0.930767
0.95974
0.974566
0.979317
0.979671
0.979351
0.979154
-0.235593
-0.204293
-0.143288
-0.0612259
0.0322624
0.133339
0.241511
0.356655
0.478641
0.607479
0.726321
0.818992
0.887453
0.93653
0.968193
0.983293
0.986114
0.984406
0.983332
0.983339
-0.256625
-0.224735
-0.162955
-0.0801101
0.0142286
0.116269
0.22555
0.341987
0.465601
0.596669
0.718616
0.815328
0.888127
0.941521
0.977155
0.994319
0.996157
0.991518
0.987599
0.985767
-0.276979
-0.244477
-0.181973
-0.0984697
-0.00342179
0.0994291
0.20961
0.327079
0.452
0.584913
0.709459
0.809985
0.887255
0.945106
0.985616
1.00737
1.01143
1.00568
0.99447
0.993203
-0.296571
-0.263599
-0.200484
-0.116507
-0.0209951
0.082467
0.193255
0.311422
0.437264
0.571544
0.698145
0.802131
0.884222
0.946355
0.991327
1.019
1.02663
1.0176
0.999539
0.994726
-0.315265
-0.282068
-0.218317
-0.134017
-0.0382339
0.065692
0.176705
0.295348
0.421702
0.556834
0.684795
0.791264
0.878408
0.944122
0.989639
1.01704
1.02867
1.00687
0.947857
0.921591
-0.33294
-0.300699
-0.235075
-0.150487
-0.0544343
0.0495913
0.160231
0.279129
0.405597
0.540966
0.669502
0.77692
0.869
0.937835
0.976102
0.997132
0.993073
0.945988
0.884455
0.846504
-0.377099
-0.318684
-0.250617
-0.166568
-0.0703738
0.0332392
0.143968
0.262649
0.388753
0.523617
0.65191
0.75868
0.852604
0.926134
0.950415
0.947125
0.909375
0.849922
0.782942
0.746035
-0.352401
-0.334138
-0.274082
-0.190099
-0.09461
0.0087295
0.118752
0.236709
0.361729
0.494852
0.621093
0.725109
0.810432
0.888773
0.880575
0.783035
0.699462
0.641196
0.579813
0.609519
-0.384221
-0.352452
-0.2916
-0.208159
-0.112866
-0.00983781
0.100306
0.21758
0.341505
0.472716
0.596122
0.696425
0.772111
0.815128
0.772167
0.641751
0.539166
0.469948
0.390363
0.438862
-0.409063
-0.37481
-0.312152
-0.228601
-0.133416
-0.0304551
0.0795638
0.196023
0.318534
0.447264
0.566807
0.661257
0.725484
0.732705
0.635128
0.486903
0.363292
0.274987
0.181758
0.215852
-0.433328
-0.397931
-0.333852
-0.249674
-0.154397
-0.051559
0.0579701
0.173456
0.294342
0.420227
0.535022
0.622715
0.670352
0.646176
0.496389
0.325301
0.169914
0.0395399
-0.0824634
-0.0671082
-0.457352
-0.421492
-0.356478
-0.271739
-0.176299
-0.0736561
0.0352492
0.149623
0.268616
0.391288
0.500672
0.581111
0.609163
0.543532
0.360432
0.168345
-0.0150461
-0.165891
-0.36992
-0.448976
-0.481817
-0.445952
-0.38037
-0.295221
-0.1996
-0.0971011
0.0112467
0.124485
0.24148
0.360721
0.464394
0.535754
0.540869
0.423765
0.236717
0.0318288
-0.156851
-0.316345
-0.438929
-0.559183
-0.507806
-0.4718
-0.405891
-0.320515
-0.224846
-0.122588
-0.0148968
0.0970337
0.211696
0.326984
0.424504
0.484137
0.463335
0.309585
0.120955
-0.0779697
-0.250027
-0.34526
-0.371105
-0.384755
-0.535453
-0.499325
-0.433174
-0.347723
-0.25219
-0.150346
-0.043562
0.0667464
0.17863
0.289249
0.38011
0.423382
0.384244
0.2002
0.0131623
-0.165629
-0.295102
-0.332027
-0.340964
-0.341254
-0.56504
-0.528651
-0.462259
-0.376832
-0.281579
-0.18038
-0.0747738
0.0335607
0.142201
0.247451
0.330656
0.358745
0.290303
0.100105
-0.0808645
-0.236201
-0.308313
-0.322084
-0.323089
-0.322928
-0.596579
-0.559817
-0.493157
-0.40783
-0.313021
-0.212674
-0.10854
-0.00254998
0.102408
0.201651
0.275862
0.290027
0.184548
0.00911781
-0.16165
-0.284543
-0.312321
-0.312896
-0.313171
-0.312655
-0.629809
-0.592642
-0.525753
-0.440623
-0.346416
-0.247162
-0.144827
-0.0415736
0.0592739
0.151948
0.216753
0.212477
0.089298
-0.0756072
-0.225007
-0.293803
-0.308871
-0.308067
-0.307985
-0.307397
-0.664149
-0.62677
-0.559769
-0.474962
-0.381553
-0.283664
-0.183464
-0.0833978
0.012974
0.0987303
0.153483
0.133008
0.000272399
-0.151451
-0.268711
-0.302583
-0.302859
-0.304067
-0.304087
-0.303896
-0.699159
-0.661658
-0.594709
-0.510402
-0.418046
-0.321824
-0.224124
-0.127748
-0.0362406
0.0427929
0.0844901
0.0555844
-0.0827748
-0.212105
-0.299009
-0.305409
-0.303777
-0.30078
-0.299779
-0.299717
-0.733833
-0.696384
-0.62979
-0.546259
-0.455287
-0.361117
-0.266283
-0.174095
-0.0880028
-0.015263
0.0149662
-0.0272044
-0.159011
-0.258647
-0.309019
-0.319282
-0.309478
-0.303399
-0.300241
-0.298961
-0.766295
-0.729636
-0.663941
-0.581586
-0.492421
-0.400755
-0.309208
-0.221562
-0.141659
-0.0751086
-0.0505515
-0.12007
-0.235341
-0.30062
-0.315931
-0.323301
-0.326863
-0.326155
-0.323219
-0.321106
-0.79546
-0.759874
-0.695712
-0.615114
-0.528293
-0.439655
-0.351948
-0.269002
-0.195979
-0.136509
-0.116161
-0.211165
-0.327327
-0.354484
-0.362007
-0.366685
-0.364941
-0.365197
-0.365533
-0.364635
-0.818584
-0.784948
-0.723295
-0.64523
-0.561472
-0.476434
-0.393201
-0.315183
-0.249152
-0.197911
-0.181927
-0.292656
-0.44623
-0.490067
-0.466189
-0.458829
-0.451558
-0.447847
-0.444531
-0.441698
-0.833519
-0.802656
-0.744541
-0.670079
-0.590267
-0.50953
-0.431186
-0.358784
-0.299016
-0.256208
-0.245338
-0.356408
-0.570348
-0.720535
-0.669288
-0.593418
-0.566699
-0.55984
-0.551177
-0.54816
-0.837456
-0.810522
-0.75725
-0.687698
-0.612815
-0.537278
-0.463975
-0.397699
-0.343677
-0.309223
-0.300942
-0.396351
-0.564746
-0.768167
-0.693979
-0.65879
-0.637368
-0.614989
-0.603516
-0.600674
-0.828444
-0.806235
-0.759274
-0.696163
-0.627469
-0.557837
-0.490183
-0.428895
-0.380902
-0.354887
-0.335858
-0.408944
-0.358336
-0.379441
-0.386637
-0.522324
-0.574771
-0.567713
-0.567826
-0.567001
-0.8033
-0.786655
-0.748634
-0.694118
-0.63295
-0.569885
-0.50821
-0.450938
-0.406787
-0.386781
-0.377365
-0.387016
-0.239595
-0.0252641
-0.11714
-0.341457
-0.464632
-0.487442
-0.49898
-0.502665
-0.76509
-0.754154
-0.72592
-0.681722
-0.628933
-0.573089
-0.516416
-0.463595
-0.419943
-0.396875
-0.419734
-0.443428
-0.489538
-0.564636
-0.84041
-0.992618
-0.981441
-0.800615
-0.6854
-0.684636
-0.719964
-0.71371
-0.695747
-0.661665
-0.61754
-0.567643
-0.515437
-0.464428
-0.419627
-0.393304
-0.416227
-0.561618
-0.99329
-1.40407
-1.60025
-1.73157
-1.70457
-1.55973
-1.38953
-1.31651
-0.677283
-0.673696
-0.664146
-0.639381
-0.601821
-0.556152
-0.506278
-0.452634
-0.403483
-0.369389
-0.348571
-0.49386
-0.821956
-1.34594
-1.67924
-1.76343
-1.66616
-1.48261
-1.31919
-1.21636
-0.644142
-0.641999
-0.637144
-0.619837
-0.58696
-0.542346
-0.49038
-0.433029
-0.367151
-0.298834
-0.227386
-0.19364
-0.261717
-0.260364
-0.144645
0.129303
0.459818
0.706307
0.833196
0.887682
-0.617719
-0.61685
-0.615445
-0.605451
-0.576587
-0.530771
-0.472884
-0.405455
-0.324133
-0.223097
-0.108417
0.078175
0.319522
0.675646
1.14056
1.58411
1.94457
2.17784
2.28491
2.32384
-0.601205
-0.600683
-0.600269
-0.595208
-0.570868
-0.523399
-0.45787
-0.377904
-0.28716
-0.164542
-0.0342434
0.136094
0.416074
0.856813
1.4481
1.98371
2.37711
2.60132
2.70567
2.73445
-0.590624
-0.589842
-0.588835
-0.587512
-0.569711
-0.521588
-0.449079
-0.358978
-0.25755
-0.144641
-0.00796728
0.111882
0.346566
0.766721
1.2872
1.74971
2.08589
2.2875
2.37742
2.39918
-0.589927
-0.587728
-0.585064
-0.586208
-0.57611
-0.526638
-0.444077
-0.348522
-0.239901
-0.13139
-0.0105491
0.0965266
0.236086
0.586042
0.996342
1.33993
1.59561
1.74224
1.80309
1.81962
-0.608496
-0.606862
-0.608482
-0.613073
-0.599572
-0.535847
-0.437759
-0.333992
-0.229235
-0.11873
-0.0235966
0.0712156
0.156228
0.391127
0.699346
0.951316
1.12829
1.22101
1.26108
1.27016
-0.631688
-0.635968
-0.646471
-0.649505
-0.620826
-0.533384
-0.4199
-0.311324
-0.210749
-0.11073
-0.0292742
0.0363951
0.100739
0.278763
0.481082
0.64653
0.758076
0.819138
0.843518
0.848832
-0.600503
-0.609623
-0.623169
-0.623554
-0.582445
-0.48487
-0.375729
-0.277049
-0.184283
-0.100586
-0.0332388
0.00799714
0.0386535
0.159928
0.303807
0.414715
0.486382
0.524035
0.540149
0.543669
-0.459681
-0.468702
-0.479823
-0.478537
-0.443845
-0.373782
-0.298272
-0.222627
-0.151375
-0.0846031
-0.0317112
0.012154
0.0295246
0.122699
0.226742
0.292257
0.32968
0.348205
0.35573
0.356936
-0.250401
-0.255883
-0.263778
-0.267638
-0.256421
-0.23015
-0.19625
-0.15462
-0.109792
-0.0587481
-0.0184598
0.0220592
0.0498651
0.0963747
0.168125
0.209654
0.230539
0.244244
0.24956
0.250368
-0.0637916
-0.0664912
-0.0730875
-0.0840144
-0.0950139
-0.101847
-0.099763
-0.0884625
-0.0665035
-0.0328352
0.00217375
0.037679
0.0738131
0.111694
0.147819
0.16763
0.186336
0.197622
0.202275
0.201828
0.0486072
0.0470897
0.0410802
0.0266587
0.00516849
-0.0158773
-0.0306738
-0.0357932
-0.0300591
-0.00960175
0.0186474
0.0517653
0.0865316
0.112478
0.137042
0.151036
0.162452
0.170386
0.173183
0.1723
0.0952828
0.0941547
0.0890328
0.075877
0.055087
0.0322512
0.0129353
0.00019297
-0.00253547
0.00628448
0.0271197
0.0539463
0.0801963
0.0897862
0.104539
0.118733
0.132028
0.141516
0.144109
0.14272
0.104937
0.104131
0.100353
0.0903709
0.0739027
0.0546108
0.0365459
0.0221795
0.0144496
0.0154129
0.0261906
0.0425726
0.0601546
0.0595902
0.0679768
0.08087
0.0946666
0.103323
0.105871
0.104455
0.097987
0.0974563
0.0949103
0.0880297
0.0762356
0.0615672
0.0463103
0.0331658
0.0229638
0.0178518
0.0182758
0.0193026
0.0234527
0.0199568
0.02623
0.0399785
0.0533593
0.0606668
0.0622722
0.0607082
0.0850668
0.084719
0.083087
0.0786235
0.0707248
0.0601627
0.0485298
0.0371006
0.0264927
0.0165442
0.00695488
-0.00908171
-0.025021
-0.0338959
-0.0186256
-0.00195353
0.00935688
0.0131423
0.0140876
0.0133298
0.071275
0.0710267
0.0700026
0.0672921
0.0622143
0.0551917
0.0466194
0.0376002
0.0271633
0.0149135
-0.00232398
-0.0306995
-0.0563336
-0.0608567
-0.0448193
-0.0296023
-0.0221211
-0.0201579
-0.0201138
-0.0204127
0.0590275
0.0588401
0.0582248
0.0566943
0.0536808
0.0492649
0.0433551
0.0366683
0.0276901
0.016076
-0.00293838
-0.0332419
-0.0587833
-0.0560283
-0.0416092
-0.0320658
-0.0297926
-0.0310647
-0.0314536
-0.031488
0.049144
0.0489946
0.048633
0.0478398
0.0462636
0.0436391
0.0399797
0.0354216
0.029372
0.0212081
0.00684723
-0.013823
-0.0293102
-0.0222146
-0.013533
-0.0120749
-0.0141774
-0.0165562
-0.0171761
-0.0173159
0.0415318
0.0414226
0.0412222
0.0408744
0.0401789
0.0389342
0.0370802
0.0345285
0.0316624
0.0283793
0.0246391
0.0191002
0.0174193
0.0246162
0.0246295
0.0211982
0.0171762
0.0152544
0.0149125
0.0146006
0.0356421
0.0355689
0.0354668
0.0353652
0.0351961
0.0347471
0.0343163
0.0334868
0.0338491
0.0360386
0.0434382
0.0555672
0.0660621
0.0720948
0.066347
0.0590172
0.0551433
0.054417
0.0542327
0.0536096
0.0306115
0.0305821
0.0305681
0.0306023
0.030722
0.030842
0.0312627
0.0320859
0.0348084
0.0409017
0.0571528
0.0853501
0.110943
0.109479
0.0984825
0.0899304
0.087953
0.0886516
0.0883359
0.0873332
0.0255924
0.0255863
0.0256321
0.0257446
0.0260013
0.0264824
0.0272932
0.0292593
0.0332552
0.0409832
0.0601776
0.0936916
0.12181
0.118983
0.10813
0.105119
0.104635
0.106953
0.106566
0.105449
0.0202736
0.0202724
0.0203219
0.0203765
0.0206538
0.0213272
0.0223057
0.0244728
0.0281695
0.0356572
0.0508474
0.078018
0.0979129
0.0962392
0.0939228
0.0966247
0.104417
0.107455
0.106335
0.104951
0.0145038
0.0144961
0.0145334
0.0145948
0.0148166
0.015275
0.0162006
0.017785
0.020296
0.0256932
0.0331854
0.0431243
0.0456106
0.0490223
0.0575348
0.0708034
0.0810312
0.0844349
0.0835377
0.082376
0.0082245
0.0082002
0.00827768
0.00836722
0.00839472
0.00862268
0.00925327
0.0100661
0.0114744
0.013106
0.0132304
0.004733
-0.0134419
-0.00405952
0.0162686
0.0350834
0.0446005
0.0467322
0.045682
0.0448482
0.00183168
0.00177541
0.0017257
0.00172853
0.00179164
0.00168441
0.00171738
0.00207771
0.00224842
0.00235426
0.00207176
0.000958115
-0.0108402
-0.0098352
-0.00439612
0.00270152
0.000160981
-0.000529503
0.00350561
0.00550107
0.0683128
0.259211
0.435144
0.58486
0.706293
0.803699
0.885499
0.951812
0.968757
0.96478
0.364446
0.487795
0.603655
0.704926
0.79083
0.862239
0.918633
0.956711
0.977
0.993448
0.5658
0.648203
0.729901
0.801992
0.863794
0.915145
0.955535
0.986187
1.0091
1.02834
0.714379
0.772384
0.831739
0.88517
0.931301
0.97046
1.00321
1.03057
1.05113
1.07005
0.832062
0.876388
0.920958
0.962191
0.998827
1.03113
1.05933
1.08316
1.10129
1.11934
0.932691
0.968651
1.00398
1.03815
1.06963
1.09808
1.12317
1.14419
1.16008
1.17757
1.02131
1.05379
1.08626
1.11761
1.14681
1.17335
1.1966
1.21564
1.22963
1.24667
1.10877
1.14152
1.17412
1.20544
1.23432
1.26022
1.28244
1.30004
1.31248
1.32903
1.20343
1.23989
1.27475
1.3073
1.33656
1.36199
1.38318
1.39953
1.41119
1.42734
1.3166
1.35715
1.39426
1.42732
1.45589
1.47995
1.49962
1.51493
1.52686
1.54295
1.45797
1.49915
1.53446
1.56412
1.58937
1.61102
1.62955
1.64506
1.6582
1.67415
1.62964
1.66221
1.68907
1.71139
1.73149
1.75023
1.76799
1.78477
1.79969
1.81542
1.81608
1.83339
1.85052
1.86721
1.88331
1.89805
1.91197
1.92645
1.9417
1.959
1.99947
2.00948
2.02269
2.03368
2.04309
2.05275
2.06337
2.07355
2.08285
2.10851
2.21742
2.21172
2.19878
2.18452
2.17822
2.18394
2.20209
2.23061
2.26438
2.30071
2.52023
2.38427
2.30478
2.26228
2.24496
2.24893
2.27637
2.33423
2.4419
2.6203
0.815428
0.809123
0.801388
0.790265
0.776682
0.764017
0.753596
0.745547
0.739781
0.736386
0.735954
0.738712
0.743884
0.751197
0.760714
0.772523
0.78607
0.798989
0.807972
0.815509
0.724516
0.730433
0.738501
0.744624
0.74768
0.74715
0.744039
0.740006
0.736364
0.734012
0.733797
0.735969
0.73966
0.74406
0.748128
0.750349
0.749259
0.74461
0.737547
0.729709
0.717803
0.720174
0.723435
0.726197
0.728632
0.730801
0.731951
0.731765
0.730771
0.729889
0.730015
0.731344
0.733057
0.734234
0.734119
0.732623
0.730443
0.728065
0.725071
0.722048
0.713063
0.714152
0.716062
0.718387
0.720241
0.721615
0.722799
0.723744
0.724279
0.724569
0.725023
0.725675
0.726067
0.725888
0.725213
0.724256
0.722898
0.720909
0.718787
0.717305
0.708105
0.708739
0.709861
0.711605
0.713429
0.714994
0.716206
0.717217
0.718122
0.718922
0.719592
0.720004
0.720053
0.719774
0.719181
0.718163
0.716701
0.715065
0.713709
0.712903
0.703264
0.703704
0.704486
0.705775
0.707274
0.708806
0.710238
0.711471
0.712539
0.713508
0.714323
0.714797
0.714869
0.714546
0.713813
0.712758
0.71156
0.710382
0.709457
0.708919
0.698536
0.698864
0.699471
0.700525
0.701795
0.703159
0.704586
0.705989
0.707282
0.708455
0.709442
0.710023
0.710112
0.709757
0.709072
0.708216
0.707311
0.706413
0.705725
0.705329
0.693897
0.694151
0.69464
0.695535
0.696681
0.697951
0.699319
0.700767
0.702239
0.703652
0.704857
0.705574
0.70574
0.705498
0.704999
0.704357
0.703648
0.702963
0.70245
0.702146
0.689283
0.689485
0.689891
0.690677
0.691745
0.692964
0.694312
0.695798
0.697393
0.699021
0.70048
0.701422
0.701787
0.701751
0.701459
0.701015
0.700489
0.699979
0.699599
0.69936
0.684613
0.684776
0.685123
0.685837
0.686857
0.688054
0.689424
0.690981
0.69271
0.694567
0.69633
0.69758
0.698225
0.698441
0.69837
0.698124
0.697782
0.697428
0.697157
0.696966
0.679809
0.679941
0.680245
0.680914
0.681917
0.683135
0.68456
0.686219
0.688125
0.690246
0.692377
0.694026
0.695022
0.695535
0.695717
0.69568
0.695515
0.695306
0.695126
0.694973
0.674796
0.674902
0.675179
0.675829
0.676848
0.678129
0.679659
0.681484
0.683645
0.686136
0.688731
0.69084
0.692226
0.693067
0.693518
0.693702
0.693718
0.693647
0.693544
0.69342
0.669485
0.669568
0.669828
0.670486
0.671561
0.67295
0.674644
0.676714
0.679215
0.682159
0.685323
0.688006
0.689855
0.691061
0.691804
0.69223
0.692433
0.692494
0.692459
0.692359
0.663788
0.663851
0.664103
0.664788
0.665955
0.667501
0.669414
0.671794
0.674728
0.678264
0.682137
0.685487
0.687884
0.689528
0.690619
0.691318
0.691724
0.691918
0.691948
0.691869
0.657596
0.657639
0.657891
0.658624
0.659916
0.661663
0.663859
0.666621
0.670078
0.674308
0.679044
0.683244
0.686329
0.68852
0.69002
0.691026
0.691678
0.692021
0.692114
0.692052
0.650775
0.650791
0.651043
0.651848
0.653303
0.655311
0.657885
0.661163
0.665299
0.670413
0.676206
0.681424
0.685316
0.688126
0.690101
0.691472
0.692398
0.6929
0.693062
0.693015
0.643116
0.643128
0.64339
0.644287
0.645963
0.648322
0.651373
0.655298
0.660308
0.666543
0.673643
0.680076
0.684914
0.688453
0.690996
0.692806
0.694033
0.694708
0.694939
0.694907
0.634378
0.634359
0.634666
0.635696
0.637655
0.64044
0.644083
0.648808
0.654871
0.662478
0.671174
0.679076
0.685085
0.689531
0.692762
0.695109
0.696711
0.697594
0.697902
0.697881
0.624273
0.624233
0.624584
0.625787
0.628084
0.631408
0.635814
0.64157
0.648976
0.65826
0.668903
0.678626
0.686017
0.69152
0.695583
0.698563
0.700602
0.701721
0.702113
0.702103
0.612324
0.61226
0.612681
0.614117
0.616869
0.620918
0.626336
0.633442
0.642603
0.654067
0.667088
0.678874
0.687854
0.694595
0.699622
0.703339
0.705895
0.707288
0.707767
0.707762
0.597894
0.597808
0.598347
0.600101
0.603445
0.608442
0.615175
0.624004
0.635334
0.649397
0.665299
0.679646
0.690555
0.698765
0.704952
0.709565
0.712739
0.714445
0.715012
0.715002
0.580007
0.579906
0.580638
0.582871
0.587067
0.593412
0.601983
0.613185
0.627424
0.644841
0.664172
0.681369
0.694391
0.704244
0.711742
0.717355
0.721223
0.72326
0.723906
0.723883
0.55717
0.557069
0.558136
0.561138
0.566657
0.575005
0.586201
0.600627
0.618596
0.640083
0.663444
0.683945
0.699371
0.711051
0.71999
0.726737
0.731346
0.733711
0.734415
0.734367
0.52703
0.526979
0.528654
0.533001
0.540774
0.552298
0.567397
0.586306
0.609111
0.63554
0.663519
0.687621
0.705626
0.719267
0.729758
0.737704
0.743043
0.745683
0.746411
0.746327
0.48546
0.485615
0.488634
0.495809
0.507817
0.524587
0.545505
0.570485
0.59931
0.631512
0.664603
0.692558
0.713267
0.728936
0.741039
0.750196
0.756182
0.758969
0.759661
0.759536
0.424807
0.426129
0.433495
0.447139
0.466895
0.491985
0.521094
0.553772
0.589709
0.628351
0.666914
0.698853
0.722297
0.739992
0.753668
0.763945
0.77042
0.773184
0.773739
0.773578
0.351787
0.354436
0.368758
0.39238
0.422801
0.45777
0.495803
0.536728
0.580358
0.626221
0.671272
0.708305
0.735479
0.756077
0.771893
0.783557
0.790729
0.793677
0.794326
0.794298
0.27694
0.283897
0.305383
0.338928
0.379689
0.424307
0.471289
0.520541
0.571972
0.625171
0.676882
0.719219
0.750281
0.773925
0.792218
0.805559
0.813309
0.816097
0.816613
0.816685
0.216102
0.224845
0.251017
0.291632
0.340437
0.39323
0.448288
0.505358
0.564241
0.624484
0.682546
0.729837
0.764476
0.790811
0.811165
0.82578
0.833877
0.836938
0.837862
0.838024
0.166224
0.175664
0.205337
0.251181
0.3061
0.365442
0.427287
0.49124
0.556904
0.623715
0.687735
0.739635
0.777529
0.806259
0.828381
0.84421
0.853201
0.85687
0.857963
0.858142
0.124302
0.13404
0.166103
0.216013
0.275919
0.340698
0.408282
0.478198
0.549922
0.622719
0.692258
0.748406
0.789246
0.820163
0.843838
0.860694
0.870439
0.874554
0.8758
0.87598
0.0878388
0.0977235
0.131592
0.184757
0.2488
0.318215
0.390795
0.465975
0.543147
0.621414
0.696013
0.756103
0.799625
0.832361
0.857175
0.874732
0.885142
0.88969
0.89104
0.89123
0.0551741
0.0651313
0.100429
0.156297
0.223857
0.297281
0.374273
0.454198
0.536344
0.619674
0.699035
0.762783
0.808757
0.842978
0.868611
0.886648
0.897503
0.902394
0.903888
0.904099
0.0250959
0.035114
0.0715631
0.129799
0.200423
0.277357
0.35828
0.442519
0.529265
0.617387
0.701309
0.768565
0.816782
0.85231
0.878621
0.89707
0.908237
0.913388
0.914947
0.915146
-0.00326665
0.00682229
0.0443385
0.104684
0.178017
0.258064
0.342513
0.430686
0.521737
0.61443
0.702802
0.773501
0.823861
0.860586
0.887478
0.906255
0.917597
0.922871
0.924447
0.924646
-0.0304169
-0.0202168
0.0182718
0.0805209
0.156289
0.239132
0.326771
0.41855
0.51362
0.610711
0.703477
0.777617
0.830113
0.868037
0.895524
0.914598
0.926069
0.931386
0.932952
0.933062
-0.0567114
-0.0463533
-0.00694119
0.0570543
0.135013
0.220381
0.310913
0.406004
0.504838
0.606151
0.703277
0.780927
0.835651
0.874856
0.903012
0.922399
0.933972
0.939245
0.940759
0.940858
-0.0823696
-0.0717751
-0.031486
0.0341135
0.11406
0.201703
0.294861
0.392995
0.495341
0.600694
0.70215
0.783433
0.840559
0.881185
0.910098
0.92981
0.941457
0.946656
0.948069
0.948126
-0.10743
-0.0965793
-0.0554541
0.0116129
0.093361
0.183055
0.278589
0.379502
0.485105
0.594298
0.70004
0.785122
0.844883
0.88712
0.916884
0.936922
0.948561
0.953601
0.95488
0.954874
-0.13196
-0.120843
-0.0789089
-0.0104576
0.0728988
0.164428
0.262101
0.365537
0.474138
0.586947
0.69689
0.785931
0.848626
0.892743
0.92348
0.943816
0.955349
0.960142
0.961225
0.961146
-0.155948
-0.144561
-0.101819
-0.0320976
0.0526907
0.145853
0.245442
0.351144
0.462468
0.578627
0.692639
0.785767
0.851741
0.89811
0.93001
0.950595
0.961837
0.966222
0.967078
0.966941
-0.179441
-0.167712
-0.124152
-0.0532843
0.0327685
0.127378
0.228666
0.336389
0.450149
0.569359
0.68724
0.784528
0.854129
0.90324
0.936639
0.957441
0.968109
0.971862
0.972428
0.972239
-0.202203
-0.190246
-0.145879
-0.0739832
0.0131917
0.109082
0.211844
0.321344
0.437256
0.559196
0.680669
0.782119
0.855648
0.908059
0.943544
0.964709
0.974421
0.977113
0.977245
0.977016
-0.224391
-0.212098
-0.166965
-0.0941566
-0.00599645
0.0910121
0.195074
0.306096
0.423875
0.548219
0.67293
0.77844
0.856112
0.912356
0.950782
0.972943
0.981477
0.982341
0.981565
0.981275
-0.245821
-0.233234
-0.187389
-0.11375
-0.0247102
0.0732573
0.178442
0.290765
0.410115
0.536502
0.664062
0.7734
0.855324
0.915791
0.958093
0.982607
0.990678
0.989034
0.986022
0.985153
-0.266593
-0.253676
-0.207092
-0.132704
-0.04291
0.0558886
0.162036
0.275436
0.396087
0.524183
0.654142
0.76691
0.853095
0.917934
0.964726
0.993371
1.00337
1.00066
0.993856
0.984004
-0.286594
-0.273424
-0.226177
-0.151195
-0.0608286
0.0386058
0.145499
0.259678
0.381312
0.510726
0.642613
0.758337
0.84889
0.918317
0.969695
1.00385
1.01907
1.01778
1.00712
1.00367
-0.305785
-0.292562
-0.24464
-0.169158
-0.078442
0.0214369
0.128866
0.243476
0.365762
0.496017
0.629315
0.74726
0.842059
0.916143
0.970751
1.00868
1.02714
1.03062
0.997148
0.957444
-0.323929
-0.310953
-0.262428
-0.186467
-0.0957289
0.00436565
0.112149
0.226965
0.349513
0.480108
0.614201
0.73342
0.831644
0.910766
0.965936
0.997944
1.01676
1.00316
0.951791
0.895859
-0.343754
-0.327343
-0.279268
-0.202626
-0.112482
-0.0123536