/*--------------------------------*- C++ -*----------------------------------*\
  =========                 |
  \\      /  F ield         | OpenFOAM: The Open Source CFD Toolbox
   \\    /   O peration     | Website:  https://openfoam.org
    \\  /    A nd           | Version:  6
     \\/     M anipulation  |
\*---------------------------------------------------------------------------*/
FoamFile
{
    version     2.0;
    format      ascii;
    class       volVectorField;
    location    "15";
    object      U;
}
// * * * * * * * * * * * * * * * * * * * * * * * * * * * * * * * * * * * * * //

dimensions      [0 1 -1 0 0 0 0];

internalField   nonuniform List<vector> 
918
(
(0.98511 -0.000612888 0)
(0.00529058 2.96628 0)
(-0.00549055 1.63322 0)
(0.979705 0.00181465 0)
(-0.000463872 1.59278 5.36829e-22)
(-0.00703645 2.94853 -1.94927e-18)
(0.852179 1.15414 7.52787e-19)
(0.486898 0.21409 -8.11937e-21)
(0.999917 -0.000364266 0)
(0.0235203 1.06314 0)
(-0.00395724 1.30827 0)
(0.811765 -0.00754526 0)
(0.010141 2.93142 0)
(0.00238712 2.79443 0)
(-0.000209094 3.20307 1.15791e-18)
(-0.0044196 1.5039 -1.44194e-20)
(0.588385 0.085671 5.00577e-19)
(0.191921 1.13706 6.63636e-19)
(0.965461 0.00764573 0)
(-0.00186465 1.45804 0)
(0.182748 0.271729 -4.30386e-19)
(1.00141 -0.00462132 0)
(0.999842 -0.00899152 0)
(0.975078 -0.00666818 0)
(0.736479 -0.0136006 0)
(0.0242663 2.63817 0)
(-0.0129349 2.91189 6.68502e-19)
(-0.0135337 1.66057 0)
(-0.0138867 1.76218 0)
(-0.0127083 1.65692 0)
(-0.00121493 1.81382 0)
(-0.000519918 1.6086 -4.24871e-22)
(-0.00291484 1.51288 0)
(-0.0222658 2.98757 -6.84382e-23)
(-0.0165569 3.00552 1.51565e-18)
(0.00230062 3.00068 0)
(0.871614 -0.00557656 0)
(0.345963 0.888732 -6.21507e-20)
(0.858339 1.16977 -1.10333e-18)
(0.982335 1.0505 1.00207e-18)
(0.71601 1.25408 -1.74053e-19)
(0.743411 1.2114 9.95429e-19)
(0.518841 0.295458 7.92212e-21)
(0.517297 0.189631 0)
(1.19845 0.54241 0)
(0.478545 0.31544 3.73066e-20)
(0.435971 0.215918 -3.87152e-20)
(0.921726 -0.0044163 0)
(1.00034 -0.000199181 0)
(0.999909 0.000287675 0)
(1.00375 -0.00727986 0)
(1.00079 -0.00122003 0)
(1.00005 -0.000141848 0)
(0.0743865 1.57722 -4.71339e-19)
(-0.00926896 1.15052 0)
(0.0505271 0.972933 0)
(-0.0267857 1.25326 0)
(0.00525152 1.15622 0)
(-0.00846454 1.57666 0)
(-0.006493 1.48629 0)
(0.00234275 1.31062 0)
(-0.0170908 1.51175 0)
(-0.0107956 1.32881 0)
(0.888489 0.000763299 0)
(0.895057 0.0106342 0)
(0.825986 0.000106455 0)
(0.886424 0.0156417 0)
(0.794427 -0.00784272 0)
(0.0140262 3.00015 7.14448e-19)
(0.0113124 3.00562 0)
(0.00650772 3.00402 0)
(0.0119439 2.99692 7.98188e-24)
(0.00837272 2.95868 -1.06185e-18)
(0.0123039 2.98294 0)
(0.00891922 2.90458 0)
(0.0212641 2.93121 1.46024e-24)
(0.00384789 2.82396 0)
(0.0264208 2.91842 0)
(-0.00151574 2.74318 0)
(0.311527 3.60465 0)
(-0.123341 3.68818 0)
(0.153737 3.29344 -1.07772e-18)
(0.0068915 3.02329 0)
(-0.0118373 1.79382 0)
(-0.0053403 1.63928 1.42246e-20)
(-0.00664694 1.52226 -2.3077e-20)
(0.647881 0.155415 -1.72421e-19)
(0.608907 0.0535012 -1.65447e-19)
(0.612447 0.187394 -5.17233e-19)
(0.558971 0.121327 -3.47254e-19)
(0.288656 1.02383 0)
(0.253858 1.23629 -6.46043e-19)
(0.339297 1.22474 1.06437e-18)
(0.988798 0.00968051 0)
(0.945556 0.00948111 0)
(1.00026 0.00082408 0)
(1.00242 0.00923333 0)
(1.00305 0.00958381 -8.3954e-19)
(0.991984 0.00916568 6.35044e-19)
(-0.0128289 1.57649 0)
(-0.00896593 1.44219 0)
(-0.0171491 1.66678 0)
(-0.0145608 1.61031 0)
(-0.000460001 1.48188 0)
(0.248784 0.288668 1.33073e-19)
(0.291393 0.264692 0)
(0.993477 -0.00722286 0)
(0.953076 -0.00645262 0)
(0.862128 0.0186689 0)
(0.827592 0.0382603 0)
(0.772294 -0.00596857 0)
(1.02602 -0.0047749 0)
(0.781577 0.0481835 0)
(0.657899 -0.0201339 6.3753e-19)
(-0.0394716 2.86311 3.82745e-19)
(0.0353002 2.91259 0)
(0.0446972 2.8899 0)
(0.00244126 2.69905 0)
(-0.00847884 2.98624 6.23151e-19)
(-0.0144906 2.89493 0)
(-0.011001 2.99162 -1.95263e-18)
(-0.011863 2.92971 6.69624e-19)
(-0.0105687 1.81246 0)
(-0.00899642 1.80759 0)
(-0.00198884 1.63819 -2.76032e-22)
(-0.00326536 1.61017 0)
(-0.00538698 1.50583 0)
(0.933171 -0.00299191 0)
(0.864634 -0.00446013 0)
(0.870207 0.0120754 0)
(0.943769 -0.0020592 0)
(0.889789 -0.00486038 0)
(0.472618 1.09233 6.57913e-20)
(0.524347 1.17453 0)
(0.301649 0.805445 -1.3616e-22)
(0.247237 0.674144 0)
(0.968306 1.06349 -2.95828e-19)
(1.08245 0.876968 6.00194e-19)
(0.44847 1.29252 0)
(0.605304 1.30643 0)
(0.573762 1.23241 0)
(0.129115 0.0818445 -8.189e-20)
(0.549385 0.261638 0)
(0.53032 0.161032 1.00824e-19)
(1.04315 0.922193 0)
(1.11588 0.763196 0)
(1.14811 0.696974 -5.27068e-19)
(1.17581 0.604459 0)
(1.23249 0.39309 4.9255e-20)
(0.954971 -0.00420897 0)
(0.961368 -0.00448598 0)
(0.903916 -0.00384215 0)
(0.983935 -0.00736573 0)
(0.97559 -0.00597144 0)
(0.936951 -0.00475352 0)
(1.00032 0.00284723 0)
(1.00091 0.00119821 0)
(1.00006 0.000716279 0)
(0.0628691 1.7739 2.64444e-19)
(0.103977 1.52609 0)
(0.0337343 1.78406 3.91803e-19)
(0.0386195 1.60055 -3.34513e-19)
(0.105827 1.14514 -5.47702e-19)
(0.0250863 1.09524 0)
(0.159266 0.977685 0)
(-0.00893916 1.35694 0)
(0.0122171 1.22992 0)
(-0.0113348 1.71067 -1.04207e-21)
(-0.00768743 1.60606 0)
(-0.00734769 1.69197 -4.88241e-20)
(-0.00522515 1.56503 9.42398e-20)
(-0.0134794 1.42313 0)
(-0.0053719 1.46534 0)
(0.000871245 1.26909 0)
(-0.0191728 1.5341 0)
(-0.0133573 1.36187 0)
(0.963725 0.0164727 0)
(0.910221 0.00678421 0)
(0.946194 0.0102955 0)
(0.878544 0.00233396 0)
(0.828697 -0.00526687 0)
(0.915502 0.00120309 0)
(0.906564 0.00658131 0)
(0.826813 -0.00495495 0)
(0.0107965 3.06698 -6.26213e-21)
(0.0145003 3.05983 0)
(0.012637 2.97034 0)
(0.00773145 2.87618 0)
(0.899117 4.00339 0)
(1.19413 3.39244 1.0288e-18)
(0.084157 3.10442 0)
(-0.0147884 2.92601 0)
(-0.0123899 1.79376 0)
(-0.0128803 1.7921 0)
(-0.0125459 1.7926 0)
(-0.00490298 1.80292 3.28128e-21)
(-0.0110394 1.7992 0)
(-0.00662046 1.79641 0)
(-0.00249342 1.54117 1.17657e-21)
(-0.00385657 1.66914 2.78545e-20)
(-0.00607777 1.6561 2.35973e-20)
(-0.00454482 1.52829 0)
(0.675888 0.114206 2.52845e-19)
(0.622335 0.0227491 -2.47395e-19)
(0.172772 1.4584 0)
(0.352633 0.789441 -2.20236e-19)
(0.119886 1.52781 -7.48824e-19)
(0.238521 1.21981 7.47115e-19)
(0.909322 0.0114215 0)
(0.968761 0.0117621 0)
(0.975734 0.0120307 0)
(0.927309 0.00922642 0)
(-0.0199585 1.55096 0)
(-0.0187219 1.56205 0)
(-0.0124644 1.40064 0)
(0.443386 0.327877 3.3969e-19)
(0.371639 0.301911 -4.15457e-19)
(0.390608 0.243672 0)
(1.14288 0.0868074 -8.77165e-21)
(1.13134 0.0412404 0)
(1.05883 0.0353886 0)
(0.973071 0.00646386 0)
(0.677789 0.0749111 0)
(0.709069 0.037362 -1.04034e-18)
(0.618073 -0.0067329 4.0827e-19)
(0.011703 2.97813 4.6741e-19)
(-0.0324798 2.86354 4.69219e-20)
(0.00844747 3.05317 -1.34604e-20)
(0.0152025 3.04371 5.14017e-19)
(-0.01199 3.00012 2.23014e-20)
(-0.0120828 2.95245 -9.06904e-23)
(-0.0150196 3.01339 -4.29026e-19)
(0.0137837 3.02705 3.00124e-19)
(0.00735926 3.03431 -4.80268e-19)
(0.942193 0.00862723 0)
(0.937793 0.0033042 0)
(0.864994 0.000633833 0)
(0.958693 0.0131785 0)
(0.946996 0.0144864 0)
(0.891177 0.00931977 0)
(0.921409 0.00406134 0)
(0.931291 0.0138059 0)
(0.843107 0.00280599 0)
(0.656396 1.4104 3.21272e-19)
(0.680646 1.526 0)
(0.187338 0.358278 1.27808e-20)
(0.150027 0.486887 1.01904e-19)
(0.20732 0.615246 -5.57667e-20)
(0.179727 0.509583 1.02004e-19)
(0.305393 0.654381 5.25678e-19)
(0.139317 0.139459 2.02852e-19)
(0.591381 0.217975 3.73281e-19)
(0.571948 0.240401 9.13233e-20)
(0.551447 0.146322 1.85293e-19)
(1.2219 0.450665 3.49617e-19)
(1.24175 0.247818 3.63404e-19)
(0.0204471 1.77244 1.58181e-19)
(0.0272412 1.61565 0)
(1.01122 0.029311 0)
(0.97981 0.0205138 0)
(0.935582 0.000935761 0)
(0.011528 3.07456 0)
(0.017076 2.94335 8.53148e-19)
(0.014275 2.95646 0)
(0.00599222 2.84959 -8.46743e-19)
(0.008922 3.08944 2.04072e-19)
(0.0122945 3.08292 0)
(0.702388 1.82736 -2.53973e-19)
(1.2374 2.64342 8.44334e-19)
(0.6894 2.00879 -1.66865e-18)
(0.0236638 2.97909 -3.53377e-19)
(0.0432457 3.00577 0)
(-0.0364478 2.8834 0)
(-4.94306e-05 1.6637 -3.95248e-21)
(-0.00168975 1.67168 -6.37795e-20)
(0.000497628 1.54912 -6.95071e-21)
(0.230325 1.29936 6.89484e-19)
(0.327148 0.500176 -4.75331e-19)
(0.0659229 1.70567 5.17426e-19)
(0.105327 1.63457 -6.27006e-19)
(0.151872 1.39313 7.2422e-20)
(0.00437841 3.12027 -1.19953e-18)
(0.0189666 3.11932 1.28991e-18)
(-0.00468343 2.98072 5.52209e-19)
(4.54802e-05 2.97572 -5.00634e-19)
(-0.0175258 2.87902 -5.62433e-19)
(0.0127689 3.09952 -1.49321e-18)
(0.00543082 3.10643 1.45931e-18)
(0.182829 0.543254 0)
(0.110559 0.450449 -2.04945e-19)
(0.141765 0.140901 8.91613e-20)
(0.306648 0.773768 5.84957e-19)
(0.22043 0.189093 -8.90218e-19)
(1.2281 0.168913 -8.21857e-20)
(1.23643 0.305906 0)
(1.22203 0.111064 1.4744e-19)
(-0.00613975 1.74724 -1.28162e-21)
(0.0080902 1.76607 0)
(0.00497687 1.60728 0)
(0.306187 1.17556 -2.36704e-19)
(0.357862 1.02051 -5.15317e-19)
(0.241987 0.310054 8.5644e-19)
(1.00626 -0.0108088 0)
(1.0075 -0.00777621 1.54034e-19)
(-0.0101926 1.80146 0)
(-0.0172847 1.81019 0)
(1.00252 0.00343619 1.44833e-21)
(1.00324 0.00759754 3.15339e-19)
(-0.00553017 1.8066 -4.28742e-21)
(-0.00381726 1.80509 0)
(0.0465902 3.18076 1.75853e-19)
(0.385645 3.56968 0)
(1.06988 0.684954 7.89879e-20)
(1.01063 0.0100724 -2.25161e-21)
(1.01838 -0.0141187 0)
(1.00172 0.000166548 5.16752e-23)
(-0.188161 1.33545 0)
(-0.0927389 2.27901 0)
(-0.0393166 1.75948 0)
(-0.0462736 1.89194 6.57921e-20)
(-0.0245817 1.8445 4.14868e-20)
(1.00311 0.00925619 1.89719e-21)
(1.04615 0.0143755 0)
(1.0794 0.0312886 0)
(-0.0129953 1.7928 0)
(-0.0113721 1.81675 0)
(-0.0230219 1.79535 0)
(0.28591 1.24415 -4.61305e-19)
(1.00916 -0.0091088 0)
(1.0105 -0.0135787 0)
(1.00238 0.000154806 1.92796e-19)
(1.00603 -0.00591877 -2.30156e-19)
(1.00099 -0.000987409 0)
(-0.0147947 1.79172 0)
(-0.0124642 1.79433 0)
(-0.0125299 1.79468 0)
(-0.0201109 1.79795 0)
(-0.0163271 1.79443 0)
(-0.0197302 1.79773 0)
(1.01969 -0.00462246 0)
(1.02256 0.012794 -1.57223e-21)
(0.763279 1.29182 5.56875e-19)
(1.00293 0.000368854 -1.92791e-19)
(1.00421 0.00414339 2.35622e-19)
(1.00131 0.00192923 0)
(1.01097 0.00954296 1.83963e-19)
(1.00728 0.00900352 -2.35998e-19)
(1.00847 0.0104786 0)
(-0.00926385 1.8174 0)
(-0.0064685 1.81277 1.21995e-20)
(-0.00723992 1.81142 -8.34672e-21)
(1.18683 0.262309 -1.7955e-19)
(1.12127 0.0836558 0)
(0.0547782 3.09004 -5.55338e-19)
(0.0540509 2.86639 -4.23567e-20)
(0.113538 3.20407 6.97653e-19)
(0.129839 3.217 -6.80048e-20)
(0.150542 3.27096 0)
(0.0250945 3.13894 1.35903e-19)
(0.0679985 3.1633 5.50069e-19)
(0.0678756 3.18278 -2.57961e-19)
(0.0294805 3.12843 0)
(0.697247 0.335965 0)
(0.639505 0.401732 0)
(1.06721 0.711477 -2.94647e-19)
(1.03113 0.864958 4.47596e-19)
(1.12587 0.59773 0)
(1.1591 0.551436 0)
(1.01451 0.00975293 -3.46053e-19)
(1.01358 0.00893706 4.31499e-19)
(1.02131 -0.0139496 0)
(1.01564 -0.0200962 0)
(1.00777 0.00181717 0)
(1.01029 0.00252435 0)
(1.00393 0.00311917 0)
(1.00917 0.00752596 0)
(1.00714 0.00511127 0)
(1.00435 0.00513119 0)
(-0.174409 1.37646 0)
(-0.174349 1.41544 0)
(-0.156003 1.29432 0)
(-0.050297 1.28327 0)
(-0.113153 2.38338 0)
(0.032483 2.40078 -2.75428e-19)
(-0.0861317 2.277 0)
(-0.057691 2.16862 1.22696e-19)
(-0.0376399 1.9978 -1.24028e-19)
(-0.0339955 1.7654 0)
(-0.0240456 1.77434 0)
(-0.0548491 1.73905 0)
(-0.0465385 1.70126 0)
(-0.0876271 1.84012 -3.6033e-20)
(-0.0381035 1.85838 5.17704e-20)
(-0.0446036 1.88872 6.48421e-20)
(-0.033665 1.8725 0)
(-0.0183299 1.84462 -9.31381e-20)
(-0.00903079 1.83519 -4.8104e-20)
(-0.0812739 1.83156 2.86352e-20)
(-0.0522015 1.84215 -6.79321e-20)
(-0.0594765 1.86047 -8.50819e-20)
(1.011 0.0169424 3.39426e-19)
(1.01134 0.00755385 -4.15094e-19)
(1.00583 0.0182799 -3.60337e-19)
(0.994919 0.0152553 4.60174e-19)
(1.04202 0.0219678 0)
(1.04023 0.00898287 0)
(1.06178 0.0372275 0)
(1.05217 0.0237315 0)
(1.05736 0.013824 0)
(1.10379 0.0742631 0)
(1.08031 0.0524749 0)
(1.09917 0.0400499 0)
(-0.00961901 1.80814 -1.45209e-21)
(-0.0134808 1.79768 0)
(-0.0105058 1.8018 0)
(-0.0114314 1.82052 1.36833e-20)
(-0.0110708 1.82098 -6.36765e-22)
(-0.0174948 1.79272 1.39039e-20)
(-0.0172027 1.79336 -1.40925e-20)
(-0.0203209 1.79582 0)
(-0.0171101 1.79622 0)
(-0.0163557 1.79612 0)
(-0.0239633 1.79564 0)
(-0.0255606 1.79169 0)
(0.435448 1.34864 9.12866e-19)
(0.391666 1.40804 3.31679e-19)
(0.645573 2.43883 -1.55254e-19)
(0.292049 2.54814 3.91128e-19)
(0.55849 2.29292 -1.81375e-19)
(1.01864 -0.00994748 0)
(1.01676 -0.00942602 0)
(1.0182 -0.0130671 0)
(1.00872 -0.000658198 0)
(1.00463 -0.000995295 0)
(1.00747 -0.00445772 0)
(1.01082 -0.00499245 0)
(1.01241 -0.00485958 0)
(1.02139 0.0123564 3.24761e-19)
(1.01226 0.0133307 -4.21905e-19)
(1.02534 0.0104278 -3.28001e-19)
(1.02311 0.0104239 4.11029e-19)
(0.741236 1.31197 0)
(0.651427 1.37878 6.54786e-19)
(0.856075 1.21116 3.87983e-19)
(0.862035 1.21074 -5.15024e-19)
(1.13204 2.62418 -5.99653e-19)
(0.831595 0.114075 2.478e-19)
(1.12685 0.0959179 0)
(1.166 0.173031 1.48743e-19)
(1.15233 0.158392 6.45605e-21)
(0.973294 0.130006 0)
(0.1034 3.03439 -1.22507e-19)
(0.100754 2.90546 -6.25066e-19)
(0.0505589 2.3536 4.2169e-19)
(0.160074 0.0764153 -1.96793e-19)
(0.352179 3.46451 -4.99519e-19)
(0.201657 3.35226 0)
(0.229228 3.41861 6.50682e-19)
(0.238735 3.08974 -1.2078e-19)
(0.274514 3.20908 0)
(0.00684804 3.12235 2.93522e-20)
(0.0173712 3.13139 -3.61393e-19)
(0.0161264 3.12704 5.31914e-19)
(0.0362057 3.14031 0)
(0.0346758 3.15089 0)
(1.25121 2.59189 0)
(0.501697 0.829003 -1.94465e-19)
(0.950648 1.03718 -2.20549e-19)
(0.950039 1.06479 0)
(0.805646 0.955859 7.53804e-20)
(1.02212 0.905132 2.66445e-20)
(0.43281 0.459858 -4.89607e-19)
(0.719958 0.326528 -2.58023e-20)
(0.710962 0.297587 1.94445e-19)
(0.638345 0.422899 1.57154e-20)
(0.578069 0.419481 -6.52696e-19)
(0.697513 0.34908 0)
(0.695786 0.433847 3.34789e-19)
(0.697506 0.431302 0)
(0.682275 0.397314 0)
(0.67666 0.35063 0)
(0.718447 0.618339 8.50896e-20)
(1.18668 0.284502 1.35072e-19)
(1.17396 0.420129 0)
(1.1729 0.396198 0)
(0.76856 0.22189 2.91731e-19)
(0.762509 0.518931 -1.59916e-19)
(0.698701 0.491304 2.54972e-19)
(0.896041 0.405423 -2.08148e-19)
(1.016 0.00958324 2.27313e-19)
(1.01638 0.0084051 -2.36051e-19)
(1.00951 0.00754988 0)
(1.01854 -0.00827427 0)
(1.0192 -0.0152141 -2.04104e-19)
(1.01054 -0.0225066 2.0177e-19)
(1.03382 0.00696018 0)
(1.028 0.0119658 0)
(1.01336 0.00492787 0)
(1.01387 0.00781787 0)
(1.01814 -0.000155796 0)
(1.01533 -0.00110134 0)
(-0.161928 1.49064 0)
(-0.130416 1.53991 0)
(-0.185391 1.23947 2.76286e-19)
(0.270539 1.25287 2.75907e-19)
(0.0309605 1.22224 6.00163e-19)
(0.16209 1.21387 -9.65752e-19)
(-0.0393912 1.28363 0)
(-0.303762 1.96786 4.89547e-19)
(-0.339839 1.89062 0)
(0.471174 2.35639 2.68736e-19)
(0.297143 2.52196 1.47156e-19)
(-0.168467 1.82298 -4.32153e-19)
(0.276028 1.14311 2.93543e-19)
(0.0137112 1.24281 -2.32421e-19)
(0.361151 1.17041 7.18538e-19)
(0.142136 1.83222 0)
(0.326951 1.87161 -5.42624e-19)
(-0.164144 1.9603 -1.83345e-20)
(-0.041258 2.03293 0)
(-0.181236 2.08246 8.60474e-20)
(-0.145897 2.00733 0)
(-0.0512813 2.13744 -1.36972e-19)
(-0.03484 2.06137 0)
(-0.0861785 1.78412 -2.5726e-20)
(-0.113145 1.80427 0)
(-0.109452 1.73833 0)
(-0.0906806 1.75918 2.90255e-20)
(-0.0519885 1.91209 -7.77939e-21)
(-0.040557 1.97656 1.37441e-19)
(-0.0404839 1.94816 9.87781e-22)
(-0.0437921 1.81695 2.45309e-20)
(-0.057152 1.80973 1.50761e-20)
(-0.0248158 1.78077 0)
(-0.023943 1.7823 0)
(-0.163686 1.86983 4.66684e-20)
(-0.154769 1.75023 2.52675e-20)
(-0.143871 1.81336 -3.85987e-20)
(-0.222139 1.88434 0)
(-0.0157026 1.8123 -4.85937e-20)
(-0.0159424 1.8193 2.27684e-20)
(-0.016352 1.81876 -7.28266e-21)
(-0.0371099 1.81571 -2.93567e-20)
(-0.0183374 1.82827 -1.15475e-20)
(-0.02119 1.8369 5.97224e-20)
(1.02461 0.00812274 -2.19697e-19)
(1.02049 0.0120487 2.24996e-19)
(1.02002 0.00636719 0)
(0.999244 0.0434551 3.18448e-19)
(0.995532 0.0315742 -3.86036e-19)
(0.970222 0.0268338 4.50849e-19)
(0.990754 0.0834064 -4.1547e-20)
(1.0226 -0.00146225 0)
(1.0309 0.00860657 1.81142e-19)
(1.02449 0.00107475 -1.76356e-19)
(1.03964 0.0408684 -9.41681e-21)
(1.04321 0.0263531 8.31783e-20)
(1.031 0.0561038 0)
(1.02452 0.0462148 -3.29433e-20)
(1.02208 0.0238563 0)
(1.01997 0.0232358 0)
(1.03548 0.00978042 0)
(1.03026 0.00954581 0)
(1.02955 0.024526 6.79911e-20)
(1.03076 0.0193611 -1.57639e-19)
(1.03212 0.0289386 -6.61577e-20)
(1.03343 0.0312848 -8.00276e-20)
(1.02621 0.0570619 1.34027e-19)
(1.05681 0.0534672 0)
(1.04763 0.0856288 0)
(-0.0158915 1.81287 -1.94369e-20)
(-0.0144116 1.80216 -1.72239e-21)
(-0.0160647 1.80132 0)
(-0.0108651 1.814 2.07224e-20)
(-0.0101261 1.80928 3.06717e-21)
(-0.00957175 1.81302 -3.32204e-21)
(-0.00842319 1.83246 4.01623e-20)
(-0.0158539 1.82339 -2.65426e-21)
(-0.0153851 1.82436 1.28027e-20)
(-0.0101323 1.8256 -2.11429e-20)
(-0.00891805 1.82745 2.51466e-20)
(-0.0204139 1.7935 5.04707e-22)
(-0.0197943 1.79551 2.28335e-20)
(0.531882 1.24254 -4.76169e-19)
(0.543594 1.32804 -6.43663e-19)
(0.640922 1.41587 -6.31497e-19)
(0.527084 1.44396 -3.19843e-19)
(0.523572 1.45215 0)
(0.624212 2.4262 1.06966e-19)
(0.699863 2.39133 2.24287e-19)
(0.402422 2.54961 1.10173e-19)
(0.321355 2.65264 -6.57687e-20)
(0.488164 2.61388 1.4371e-19)
(0.53579 2.47962 0)
(0.553078 2.47224 -3.3521e-19)
(0.0585404 2.51695 7.16392e-19)
(0.235513 2.54685 -3.84485e-20)
(0.18457 2.51617 -8.85106e-19)
(0.937502 2.35723 9.0778e-20)
(0.837437 2.34106 0)
(1.0109 -0.000470908 7.52754e-21)
(1.01288 -0.00424594 -6.41755e-21)
(1.01397 -0.00626572 -1.10788e-19)
(1.01373 -0.00717049 1.11709e-19)
(1.01322 -0.00255058 0)
(0.655242 1.28079 0)
(0.636324 1.1653 0)
(0.751982 1.06226 0)
(0.623888 1.11334 0)
(1.17106 2.64393 3.94316e-20)
(1.04222 2.36442 0)
(0.790338 2.2892 -2.49309e-21)
(0.832608 2.47337 0)
(0.898029 2.56536 4.53792e-21)
(0.905628 2.52028 -3.08217e-21)
(0.826364 0.123738 0)
(0.802549 0.148715 7.47646e-20)
(0.9047 0.126764 3.63727e-19)
(0.863874 0.108688 -1.50568e-19)
(0.859509 0.0789207 -4.44649e-19)
(1.02153 0.216134 -1.55467e-19)
(0.943309 0.262449 -1.07426e-20)
(0.891522 0.285362 3.15397e-19)
(0.976105 0.212418 2.26137e-19)
(0.924576 0.165553 -4.46024e-19)
(0.884925 0.180499 5.97078e-20)
(0.908492 0.272836 -1.06967e-19)
(0.883394 0.196178 0)
(0.976356 0.175929 2.09008e-19)
(1.00312 0.168516 0)
(1.00608 0.190891 0)
(1.07226 0.0973065 4.89892e-20)
(1.01248 0.14924 -1.00795e-20)
(1.00782 0.2216 -3.38427e-20)
(1.03979 0.182714 0)
(1.01409 0.0224323 1.67952e-19)
(1.01992 0.0409141 1.94182e-19)
(1.01957 0.0269113 -1.66943e-19)
(1.01298 0.0453655 -1.30813e-19)
(1.00191 0.0470963 -2.25201e-19)
(0.977133 0.13308 0)
(0.984239 0.0799403 0)
(0.970433 0.0473682 -1.64497e-19)
(0.929291 0.0597749 7.07697e-20)
(0.99694 0.0819026 1.8501e-19)
(1.02058 0.0964422 -1.61935e-19)
(1.01629 0.133423 1.56907e-19)
(1.00026 0.121277 0)
(1.0305 0.0927875 0)
(1.01736 0.0767336 -7.23639e-20)
(1.01661 0.0754562 -1.46404e-19)
(0.569584 1.10638 -1.34322e-19)
(0.619106 1.52665 2.32435e-19)
(1.13101 2.77893 1.36622e-19)
(1.19169 3.13726 -7.63483e-20)
(1.23431 2.75403 6.00263e-19)
(1.28413 2.72205 -3.07999e-19)
(1.25104 2.32462 -3.15644e-20)
(1.1775 3.045 2.50143e-19)
(1.18961 3.00312 -2.87883e-19)
(1.17373 3.28606 -2.54207e-19)
(1.39506 2.99714 3.1471e-19)
(1.40835 2.93287 0)
(0.523827 0.840527 -6.71028e-21)
(0.251318 1.25882 2.63087e-19)
(0.476331 0.546314 3.1549e-19)
(0.334091 0.321308 3.69443e-19)
(0.569014 0.442173 3.64064e-19)
(0.536981 0.511504 -5.74102e-19)
(0.539895 0.519199 4.76315e-19)
(0.517127 0.483393 -1.90332e-19)
(0.493524 0.429148 4.41739e-19)
(0.775502 0.252458 -1.61988e-19)
(0.741087 0.292757 0)
(0.743782 0.248743 1.1922e-20)
(0.686538 0.524341 1.69871e-19)
(0.65245 0.50225 -6.29555e-19)
(0.618689 0.497053 2.36142e-20)
(0.636258 0.47988 0)
(0.656899 0.740127 1.07871e-19)
(0.736696 0.778212 3.89965e-20)
(0.696285 0.843362 -5.37653e-20)
(0.801927 0.788339 -1.45345e-21)
(0.87318 0.838304 2.06656e-20)
(0.873529 0.842584 -2.12135e-20)
(0.795528 0.636928 -1.46986e-19)
(0.877117 0.702189 1.35286e-21)
(0.939429 0.709141 0)
(0.92964 0.680786 1.29403e-20)
(0.971348 0.310368 4.10374e-20)
(1.08032 0.297877 -4.1079e-20)
(1.00296 0.263377 6.28852e-20)
(0.943252 0.338788 -1.04078e-19)
(0.974662 0.425195 0)
(1.05335 0.394713 0)
(0.880101 0.343303 8.67678e-21)
(0.831309 0.277232 0)
(0.835053 0.268797 1.71016e-19)
(0.889419 0.282994 1.25316e-21)
(0.88715 0.414017 5.69812e-19)
(0.816811 0.490969 1.44645e-19)
(0.837397 0.438595 -2.03071e-19)
(0.795279 0.420357 2.15872e-19)
(0.776046 0.411243 1.54348e-19)
(0.77762 0.40379 -1.50405e-19)
(1.02071 -0.0102248 1.76527e-19)
(1.02129 -0.00996166 0)
(1.01962 -0.0100854 1.19961e-19)
(1.01999 -0.011077 -2.63941e-19)
(1.0314 -0.00127648 1.29507e-19)
(1.02902 0.00774671 -2.74538e-19)
(1.02662 0.0116462 0)
(1.02393 0.0136357 -5.75362e-20)
(1.02171 0.00196609 1.43437e-19)
(1.01858 0.0104795 -7.30875e-20)
(1.0234 0.0107067 5.44266e-20)
(-0.0762645 1.6796 0)
(-0.119551 1.72029 0)
(-0.110699 1.60136 0)
(-0.0775495 1.62788 0)
(-0.291689 1.64553 -3.05233e-19)
(-0.280564 1.47824 9.62155e-20)
(-0.339241 1.9034 7.06875e-20)
(-0.420313 1.65899 -1.86642e-19)
(-0.19786 1.75298 2.22459e-21)
(-0.213615 1.74532 -3.4685e-21)
(-0.253187 1.62379 5.28462e-20)
(-0.228722 1.63253 1.09245e-19)
(-0.167359 1.65664 8.69644e-21)
(-0.161309 1.69334 6.52096e-22)
(-0.208296 2.14115 -8.8991e-20)
(-0.224501 2.23197 0)
(-0.318791 2.22821 -4.6172e-20)
(-0.360584 1.97442 -3.76825e-20)
(-0.0321777 2.262 7.92475e-20)
(-0.032305 2.56286 0)
(0.0717763 2.53846 -8.13515e-20)
(0.138265 2.56548 5.7863e-20)
(-0.186676 2.27784 1.78864e-19)
(-0.277658 2.26212 -1.50654e-19)
(-0.205451 2.44266 0)
(-0.1284 1.8688 -7.03317e-20)
(-0.0981437 1.87254 -1.26192e-19)
(-0.105919 1.85512 0)
(-0.102183 1.93487 -2.54528e-21)
(-0.145326 1.93575 4.03831e-20)
(-0.0440647 1.78631 4.94511e-21)
(-0.0314412 1.78971 -7.60903e-20)
(-0.0324976 1.79524 1.97945e-20)
(-0.0487936 1.79309 2.79841e-20)
(-0.0702834 1.79201 0)
(-0.0295217 1.79542 0)
(-0.0267826 1.79018 2.4354e-20)
(-0.0275131 1.79459 -7.77106e-21)
(-0.02809 1.79537 0)
(-0.0257072 1.78584 1.81728e-20)
(-0.0250663 1.7861 -3.61373e-20)
(1.03023 0.0188323 0)
(1.03595 0.0200416 -1.67707e-20)
(1.0357 0.0202566 -1.2482e-19)
(1.03577 0.0222403 0)
(1.03503 0.0243101 0)
(1.03707 0.0129208 -5.65371e-21)
(1.03602 0.0115965 2.10318e-19)
(1.03266 0.0123787 2.54285e-19)
(1.03025 0.0108458 0)
(1.02488 0.00933752 0)
(1.02938 0.0184397 1.27e-19)
(1.02348 0.0140814 0)
(1.02453 0.0120825 0)
(-0.0193097 1.81293 0)
(-0.021005 1.79652 1.84096e-21)
(-0.0199365 1.80595 1.14682e-20)
(-0.0272481 1.79543 0)
(-0.0227993 1.79866 1.52659e-20)
(-0.0234144 1.7956 -7.83027e-21)
(-0.0258119 1.7943 0)
(0.569626 1.59141 0)
(0.569543 1.32426 9.79417e-19)
(0.485932 1.41346 0)
(0.586816 1.32878 -1.09604e-18)
(0.54529 1.36094 0)
(0.590927 1.32361 5.02213e-19)
(1.0241 2.69111 -2.36475e-21)
(0.95847 2.37416 -1.13025e-19)
(0.867791 2.10767 1.82319e-19)
(0.854512 2.32754 8.5678e-20)
(0.86052 2.49432 0)
(0.891669 2.50716 0)
(0.911611 2.34847 0)
(0.904179 2.31499 -3.08701e-19)
(0.741393 2.47224 1.03129e-20)
(0.835486 2.47128 -1.44809e-20)
(0.824696 2.4507 1.15235e-20)
(0.711521 2.37174 0)
(0.797863 2.34615 0)
(0.76874 2.36914 -1.99361e-19)
(0.805924 2.47064 0)
(0.58133 1.05138 0)
(0.503346 0.900228 2.62514e-20)
(0.510842 0.949595 2.96444e-21)
(0.497252 1.06409 0)
(0.502763 0.998578 -3.85729e-20)
(0.72428 0.871702 2.72719e-20)
(0.756861 0.999821 0)
(0.73705 0.981688 -9.10164e-20)
(0.642431 0.988917 0)
(0.601208 0.926291 0)
(1.138 2.80044 8.93993e-20)
(1.11372 2.86382 1.54192e-19)
(0.908541 2.41759 -3.40178e-19)
(0.889278 2.39265 5.42241e-20)
(1.10222 2.76633 0)
(1.05241 2.73617 -6.53213e-20)
(1.0678 2.49472 -2.81376e-20)
(0.94395 2.21035 -2.26937e-20)
(0.468672 1.42829 0)
(0.472734 1.09279 1.17945e-19)
(0.523823 1.16852 0)
(0.848183 0.214754 0)
(0.805976 0.164491 0)
(0.775455 0.188184 0)
(0.835425 0.224392 -2.69191e-19)
(0.786051 0.224956 1.70109e-19)
(0.930255 0.0571774 -1.4091e-19)
(0.937513 0.105115 0)
(0.92611 0.112083 6.79257e-20)
(0.884853 0.076415 2.80818e-19)
(0.884798 0.0607389 -1.71978e-19)
(1.09926 3.37651 -9.60271e-19)
(1.16151 3.30084 0)
(1.12276 3.4628 -2.07912e-18)
(0.664063 3.61052 1.75636e-18)
(1.04239 3.12254 4.57756e-19)
(0.50576 0.835929 1.60834e-19)
(0.49398 0.813024 0)
(0.386749 0.563414 -7.23346e-20)
(0.401258 0.69019 3.16149e-19)
(0.496396 0.546937 -1.00625e-19)
(0.49415 0.560791 1.12682e-19)
(0.632453 0.555176 2.27245e-19)
(0.648742 0.576471 0)
(0.586392 0.630372 0)
(0.559658 0.571795 0)
(0.92113 0.581835 -6.33964e-20)
(0.852537 0.523787 -1.38212e-19)
(0.888685 0.574146 3.10585e-20)
(0.919966 0.481467 -9.61427e-20)
(0.992446 0.45691 0)
(1.01676 0.568203 7.93027e-21)
(0.830147 0.368356 -3.31795e-19)
(0.822804 0.35898 -3.94925e-19)
(0.814507 0.364848 2.61409e-19)
(0.793296 0.339715 -3.08254e-19)
(0.825408 0.292255 -2.2598e-19)
(0.79753 0.295232 2.77071e-19)
(1.03602 -0.000118631 -1.34709e-19)
(1.03647 0.00186645 2.7485e-19)
(1.02283 -0.00371554 1.67537e-19)
(1.02664 -0.00084619 -2.0131e-19)
(1.03171 0.0158217 0)
(1.03541 0.011404 -3.31131e-19)
(-0.245593 1.91212 2.88766e-20)
(-0.255466 1.8735 0)
(-0.336525 1.96422 -1.14376e-19)
(-0.337857 1.95779 1.23786e-19)
(-0.338518 1.89608 -1.27025e-19)
(-0.330365 1.90225 0)
(-0.0302336 1.81364 0)
(-0.0277818 1.80298 -8.54051e-21)
(-0.025611 1.8003 7.65557e-21)
(-0.0243335 1.80106 2.10839e-21)
(-0.0217175 1.81198 -1.51514e-20)
(-0.0227773 1.81371 9.52552e-21)
(0.494302 1.43019 3.91943e-19)
(0.501621 1.4162 -4.18941e-19)
(0.55005 1.3288 4.95022e-19)
(0.586506 1.37178 -2.4333e-20)
(0.635495 1.29355 0)
(0.581613 1.37303 5.87372e-19)
(0.599663 1.38205 -5.85485e-19)
(0.545502 1.30802 -4.85313e-19)
(0.534181 1.28208 0)
(0.534526 1.23868 0)
(0.807874 2.4908 -1.53567e-20)
(0.733729 2.4869 4.73439e-19)
(0.803646 2.47761 -3.21695e-19)
(0.706285 2.48505 -9.79313e-20)
(0.651976 2.67035 -2.05473e-21)
(0.499118 2.67275 -9.12598e-20)
(0.962313 2.34362 -1.03169e-19)
(0.991577 2.38281 0)
(0.875621 2.10819 -1.20132e-19)
(1.02422 2.7156 0)
(1.0181 2.69241 0)
(0.62487 2.33402 3.93718e-19)
(1.12225 3.09835 4.68163e-19)
(1.01921 3.01019 -5.72579e-19)
(0.337823 0.930821 0)
(0.368752 0.848201 -1.18828e-19)
(0.546018 0.753306 -3.73967e-20)
(0.398574 2.18877 0)
(0.417006 2.76491 -3.20073e-19)
(0.431321 2.50406 0)
(0.649758 0.690331 -2.26532e-19)
(0.69853 0.670742 3.23738e-19)
(0.699784 0.644602 -3.23247e-19)
(0.608684 0.662801 -3.57262e-20)
(0.675554 0.618194 -1.51504e-19)
(0.982097 2.78873 -3.54562e-19)
(1.01756 2.79579 3.05829e-19)
(0.58715 2.28376 -2.08163e-19)
(0.616873 1.75833 9.36934e-20)
(0.709321 1.93717 1.43886e-19)
(0.976183 2.45338 -6.9016e-20)
(0.975726 2.43228 -1.78711e-19)
(0.666869 1.86951 -6.13987e-21)
(0.46369 1.38242 -1.06477e-19)
)
;

boundaryField
{
    wall-4
    {
        type            noSlip;
    }
    velocity-inlet-5
    {
        type            fixedValue;
        value           uniform (1 0 0);
    }
    velocity-inlet-6
    {
        type            fixedValue;
        value           uniform (0 3 0);
    }
    pressure-outlet-7
    {
        type            zeroGradient;
    }
    wall-8
    {
        type            noSlip;
    }
    frontAndBackPlanes
    {
        type            empty;
    }
}


// ************************************************************************* //
