/*--------------------------------*- C++ -*----------------------------------*\
  =========                 |
  \\      /  F ield         | OpenFOAM: The Open Source CFD Toolbox
   \\    /   O peration     | Website:  https://openfoam.org
    \\  /    A nd           | Version:  6
     \\/     M anipulation  |
\*---------------------------------------------------------------------------*/
FoamFile
{
    version     2.0;
    format      ascii;
    class       surfaceScalarField;
    location    "33";
    object      phi;
}
// * * * * * * * * * * * * * * * * * * * * * * * * * * * * * * * * * * * * * //

dimensions      [0 3 -1 0 0 0 0];

internalField   nonuniform List<scalar> 
1300
(
3.75095
5.62643
-3.54429
3.75095
-5.14571
5.62643
-4.34088
4.34088
-1.0221
1.0221
1.87648
1.87448
-2.73847
2.73847
-2.17496
2.17496
-2.56463
2.56463
-5.24794
5.24794
-5.06926
5.06926
4.71897
-4.71897
-5.73655
5.73655
-1.34641
1.34641
-3.7363
3.7363
3.17321
-3.17321
-2.31
2.31
-0.290911
0.290911
-0.55414
4.30509
3.19681
3.19681
-2.0484
2.0484
-4.87181
4.87181
6.22238
-6.22238
4.97821
-4.97821
-1.43392
-2.80833
0.800849
-10.1737
-4.34486
-4.34486
-8.44103
8.44103
-2.8146
2.81183
2.94414
-2.94414
-1.73002
1.73002
-4.33395
-0.00692876
-4.33395
4.31684
0.0240484
4.31684
-1.10933
0.0872236
-1.10933
3.88414
-3.88414
0.879425
0.142676
0.879425
3.06655
-3.06655
-1.87689
3.75336
1.87407
-1.87208
6.17717
-1.87888
3.75336
-5.99136
5.99136
-2.94795
0.209481
-2.94795
2.53484
0.203633
2.53484
-6.74544
6.74544
-2.14255
-0.0324072
-2.14255
2.21206
-0.0370971
2.21206
2.8734
-2.8734
-2.6547
0.0900716
-2.6547
2.4456
0.119032
2.4456
0.35351
5.27292
-5.97994
8.79177
-5.27292
0.0249822
5.2103
0.0376343
5.2103
-5.10534
0.0360871
-5.10534
5.01252
0.0567373
5.01252
4.81343
-0.094457
4.81343
-4.83363
0.114655
-4.83363
-3.33535
-5.40365
-6.10631
0.369756
-6.10631
-1.34827
0.00186471
-1.34827
1.30842
0.0379896
1.30842
-3.6198
3.6198
-4.05572
0.319422
-4.05572
3.12807
0.0451409
3.12807
1.86812
1.88283
5.61907
-5.61907
2.44586
-2.29063
-0.0193729
-2.29063
-2.33216
-2.64604
2.33216
-0.022163
-0.547077
0.256166
-0.547077
3.15691
0.0399056
3.15691
2.29377
0.151832
-2.29377
0.245373
3.23503
-3.23503
1.3934
0.654996
1.3934
-5.56022
5.56022
4.96057
0.0519429
-4.96057
0.0887677
6.15768
0.0647028
6.15768
-6.20758
-0.014805
-6.20758
1.62187
-4.4302
-3.4716
5.13038
0.60617
-5.13038
0.785524
2.91425
0.0298869
2.91425
-2.92227
2.92227
-2.98223
0.0380887
-2.98223
-2.1575
0.427478
-2.1575
1.41076
0.319259
1.41076
-4.20936
-0.124599
-4.20936
-4.20576
0.150036
4.20576
0.111077
1.04849
-1.04849
-1.19206
0.082732
-1.19206
-4.01768
-0.191674
4.01768
-0.133543
-3.80296
-0.0811825
-3.80296
-3.02057
0.0383443
3.02057
0.0459781
3.11178
0.045126
-3.11178
0.0452318
-1.87093
3.75376
-1.88002
3.75409
-5.61758
-0.373785
-5.61758
6.29152
-0.30016
6.29152
3.31852
0.41778
-3.31852
0.370565
2.37929
0.155551
2.37929
-6.73814
-0.00730377
-6.73814
6.7168
0.0286411
6.7168
2.22508
0.154205
-2.22508
0.0825313
2.23808
-0.026024
2.23808
2.89457
-0.0211774
2.89457
-2.87066
-0.00273107
-2.87066
2.80177
-2.80177
2.7335
0.0682655
-2.7335
0.0787996
-11.124
11.1092
-0.0361927
-11.0878
5.17411
5.17411
4.26755
0.54588
4.26755
-5.02283
0.189203
-5.02283
2.3448
-5.8164
4.81407
-8.14942
5.42297
-15.5966
3.79399
-9.19764
6.50919
-6.50919
6.33066
0.178527
-6.33066
0.224354
-1.35987
0.011593
-1.35987
-2.99683
-0.622969
-2.99683
4.26844
-0.648644
4.26844
-3.02887
3.02887
-3.07722
0.0483536
3.07722
0.0508456
2.26201
-0.0239319
-2.26201
-0.0286158
0.71058
0.168845
-0.71058
0.163503
3.44201
-0.206977
3.44201
-3.05078
-0.184252
-3.05078
-1.37797
0.0181035
1.37797
0.0154297
-5.80794
0.247725
-5.80794
-11.1814
0.0936074
-11.1438
-6.11397
-6.11397
2.32706
11.1188
-2.88984
0.0191806
2.88984
0.0244075
2.97697
0.0518972
-2.97697
0.0547056
-2.86359
0.0618195
2.86359
0.0586776
-2.53025
0.372751
-2.53025
-1.01815
1.01815
-1.17269
0.154541
1.17269
0.238066
1.31962
-0.271126
1.31962
1.26426
0.044154
-1.26426
0.0722078
-3.74541
-0.0575505
-3.74541
6.5257
-0.234175
6.5257
-2.94104
-0.109737
2.94104
-0.0464721
-0.0347997
11.144
-5.13931
0.0339689
5.13931
-11.2087
11.2427
-3.2416
0.711353
3.2416
1.02595
5.28785
0.272366
-5.28785
0.265021
6.63684
0.0799554
-6.63684
0.127657
-2.51735
-0.479473
-2.51735
-5.01412
-0.603455
5.01412
-0.745681
-11.4821
-0.203145
11.6853
-11.4254
6.01109
0.146596
-6.01109
11.3893
-0.957994
-0.0904988
0.957994
0.0601591
1.64939
-0.32977
1.64939
3.65192
-0.209907
-3.65192
-0.0934884
-6.65731
-0.0808271
6.65731
-0.131615
-2.07355
-0.443802
2.07355
-0.424162
-4.26713
4.30703
1.91004
-1.75737
-2.67283
-4.40341
1.85457
1.8992
4.30043
-10.2046
-5.392
-9.41911
7.21496
-6.94994
-9.36885
9.2744
7.64839
-7.72958
-5.7786
5.82945
6.48367
-6.43769
1.87943
1.87393
7.96561
-7.75613
-15.7542
15.3804
7.50321
-7.53562
15.8663
-15.8736
-17.8422
17.9222
-5.71592
5.806
-6.72871
6.72598
-6.94153
6.89506
-2.91487
-5.23455
13.0503
-12.6805
7.58775
-7.60712
-8.58678
8.90621
3.38465
0.92238
3.42978
-1.88204
3.76147
-1.87131
3.78135
3.5541
-6.46896
2.2623
-4.93513
3.45393
4.13381
-3.43177
-0.971636
-5.92242
5.95231
-5.81651
5.87519
8.99171
-8.99864
-1.88516
3.75909
-1.86893
3.76812
-3.42349
-2.35511
3.37835
0.92208
7.66739
5.38287
-8.27356
-1.14555
-7.83285
7.62295
-8.11275
7.9285
-0.440874
5.837
-5.39612
4.43093
-1.65146
7.48846
5.56349
5.7527
5.86032
-5.58796
1.08961
-6.48574
-6.39697
-2.58783
2.67056
2.54022
-2.39754
5.98081
1.66758
5.84727
-5.62906
-2.10052
-5.68661
3.82062
2.00883
3.86897
4.08028
2.40338
4.11863
3.02991
-3.03578
0.00587876
-3.05841
6.08831
0.723309
-5.41351
-4.49143
4.99808
2.96753
5.20172
-5.55065
-2.20548
-5.18008
-9.60933
-6.14491
-10.2128
10.1501
5.23038
9.84991
-12.0055
11.8739
4.83634
2.66687
4.79924
-4.96514
-2.57048
-4.88261
11.689
-2.58001
-9.10901
-10.3299
-7.51234
10.3012
5.56508
10.9189
7.00326
11.0466
4.42757
7.26145
-9.99265
2.48031
-3.86733
-1.8486
-3.78853
3.68061
2.12539
3.79964
-4.21508
-2.51363
-4.1959
-4.28397
-2.65757
4.30515
2.42083
-4.38619
-3.72656
4.49593
2.39914
5.09972
-10.4917
4.09792
-9.33247
-9.1598
-3.5207
-8.93544
4.05909
2.99352
-7.05261
-2.40987
8.31664
-4.18283
7.34501
-4.50937
-3.09775
-4.53799
-6.88769
-1.69909
-6.73766
-8.96234
8.48287
-9.25677
8.60813
12.71
-5.71964
-6.9904
-3.96673
-2.47095
3.9215
-0.491723
-3.71089
3.71677
0.0505827
3.83194
4.75432
4.26259
-3.88423
-1.93228
-3.82952
3.82946
2.04573
3.89128
6.74757
2.24414
6.77162
-6.45174
-2.5469
-6.57634
9.13546
-8.70798
2.89661
-2.8785
5.26232
2.66618
-5.05534
-2.77751
6.24063
-3.13772
-3.10292
-12.3622
10.8631
1.49905
-4.87371
-0.442778
-0.151867
-5.58969
-3.77916
5.47503
0.277663
11.1408
7.36162
-5.51534
5.76307
6.16992
6.22186
-0.175108
5.91977
-5.20842
5.33665
-2.47393
-2.86271
5.32688
-5.51856
-1.24945
-5.36531
4.11586
0.328713
1.76946
-1.5133
-2.03074
-0.557094
-1.95853
1.50011
1.04011
1.66895
0.949276
1.72129
-2.96463
0.589034
2.3756
-2.01536
-1.80851
-3.64227
-1.03808
4.68035
5.55225
2.0707
-5.45876
-0.227847
2.74411
-2.70612
-0.797701
-2.84457
2.10307
-2.90077
-3.52663
-1.84415
5.37079
-3.36946
-0.460063
3.31756
0.551411
-3.82607
-2.09635
3.78798
0.330645
-3.12587
6.19029
-3.06441
-5.05816
2.52919
3.55913
4.53801
-4.79151
2.44754
2.34397
-1.23238
4.27005
0.931661
4.42561
-6.8849
4.67942
5.69586
3.21034
-6.11364
0.933559
-5.95134
8.3785
-7.23549
-1.14301
3.91999
4.45851
7.13217
5.57787
-5.72761
12.8598
-1.05525
-6.18024
7.0066
-3.79625
4.76036
-8.55662
-10.3382
4.158
-9.26623
11.0565
-1.79028
-3.61586
-8.38965
12.8821
-1.22609
-11.656
8.62383
-4.26888
-4.26552
8.5344
-6.84889
6.836
-1.97017
-4.86584
-10.1727
-5.70096
10.2535
1.62041
-9.83844
12.3188
-2.57699
4.04151
0.757734
4.01548
3.28178
-5.41482
2.13304
3.56711
-5.53727
2.04586
-7.46069
-7.0286
12.5933
-5.56475
-10.5493
-9.64557
-0.903735
2.47199
9.84676
-9.47524
7.35591
2.11933
3.30602
0.585261
-3.37428
-0.414244
0.271118
4.52282
-4.79394
4.07076
4.22259
3.30584
1.21698
3.84356
2.10875
-3.86797
-0.32793
-4.15861
1.50105
-1.73778
-3.66161
5.16266
-4.06298
0.401371
-2.73337
-3.50349
6.23686
-4.58197
3.03956
3.15073
5.08529
-4.91271
1.40923
-2.3984
-2.51432
2.65376
-4.39154
1.95038
3.21228
4.34951
0.622948
6.42464
6.16871
-9.41816
0.0856877
11.5516
-10.406
2.5351
8.51147
-9.89101
0.245444
-8.69
1.3896
-5.57243
-5.66301
5.10572
-6.80481
-3.4509
6.19835
0.573269
-6.30943
-0.42823
-6.0762
-2.88614
-6.52
-3.08352
-6.17326
-8.81113
-1.68664
-7.12449
6.79623
-6.70887
-3.50391
7.45455
1.15358
-7.46685
7.37635
-7.54422
7.21445
0.0943134
3.62245
4.35691
1.88595
-2.39007
4.27602
-5.03341
7.27755
-8.6024
3.56899
4.07349
-6.62039
-4.52891
5.06877
4.06669
5.38803
8.98478
-10.4882
1.50341
-10.7716
12.1139
-1.34225
-16.5746
5.80296
-7.58982
2.62261
0.273996
2.6342
0.657132
2.42801
-3.08515
-2.22137
-2.20594
-2.35267
-3.46414
5.8168
1.1345
-3.38997
2.25547
-3.51002
4.64452
0.0405049
-3.43048
5.22901
-2.801
5.50301
-3.46951
2.03349
3.43964
5.78314
-2.34351
4.38319
-1.71701
1.85845
-4.20196
-1.60568
-2.96994
5.09532
-3.26692
3.6683
-0.301379
3.96967
-4.07126
0.933541
-0.765414
3.45718
3.70255
4.31435
-3.09737
2.99053
-4.70754
-1.21143
-4.08459
-0.872304
-0.232046
-3.84345
4.0755
6.06565
-6.29769
-5.31459
9.57174
-4.25715
7.73005
-5.46666
-2.26339
-4.31133
-4.39665
3.93858
1.98119
9.71124
0.175789
-5.64245
-5.03263
-4.00668
3.22166
2.11498
-1.92934
3.42839
2.0812
-0.311742
0.550546
1.11841
1.87085
-1.3203
0.231386
1.63946
-1.28191
1.98396
0.760156
-2.02811
0.0695826
-1.30993
3.41299
1.06567
-2.10578
0.785482
1.01876
-3.49269
4.80488
-2.52742
-2.27746
5.82363
1.15715
-3.68457
4.20816
-3.87945
2.36807
-3.40615
-1.3165
-5.19595
-3.52836
-2.52438
4.77985
-3.29242
5.36312
1.25321
-5.13527
6.38848
-3.53852
1.69436
-3.06944
3.8296
-1.106
-1.96344
2.88409
2.4867
-3.00442
0.159849
-0.120329
2.34655
-2.46687
-0.554224
-2.56958
-4.573
4.90364
-2.10641
4.55395
2.16961
-1.91518
6.46913
1.81085
-3.72603
-3.2473
-3.70737
-1.38206
3.15596
-0.566606
-4.316
-5.43244
4.1618
0.263809
-6.82642
7.72838
-0.901956
-3.85889
-0.820527
4.74052
-5.98515
0.447876
-3.93928
3.7891
4.72076
4.98457
-11.4607
-0.19529
-6.23034
1.14919
-7.37953
5.6077
-3.59865
7.75664
-10.4147
6.91081
-9.26114
6.61363
-0.765899
6.25585
-4.12281
2.85315
-8.55412
-6.93371
5.4599
-2.79302
6.21763
-3.16439
9.38202
-5.74138
5.14449
4.23753
-0.718389
-3.8196
-5.31644
4.59805
-0.171954
3.84353
4.98009
-2.87134
4.65216
2.25301
-4.65141
-2.13853
-6.49139
1.83998
-3.34066
-1.91678
3.75676
3.16851
3.75377
1.24244
-3.33952
7.44219
-8.34592
-1.87744
-3.78558
5.36073
-0.762674
3.30945
-7.09503
-2.26298
4.83645
-0.747106
-4.08935
0.883185
-4.33408
1.65864
-5.99272
5.14617
-5.5744
2.23592
-9.82575
-5.23092
-5.17076
-2.27016
-5.27406
-7.63412
5.36397
-1.83116
5.54519
-8.62153
7.87443
-3.49236
8.85633
-5.46869
-1.05131
5.89286
1.32159
10.1779
0.103469
-4.63238
-1.90839
3.83638
-1.92798
1.31327
-3.73998
0.0963946
2.46211
3.36153
-6.57797
-0.0424193
-4.6748
-3.91598
7.98267
5.65576
11.7214
1.2332
9.18257
-1.1999
10.4158
4.18813
4.42619
-3.06007
4.56349
1.01543
4.58441
-0.820019
2.85351
1.81419
1.81605
0.890073
2.30406
1.39849
3.2376
0.152458
-2.05348
4.6574
-8.66407
-0.98505
-8.11819
1.1562
5.44027
-4.28407
3.01568
-0.900695
1.0877
0.0646375
-1.63831
1.57368
-2.79808
-1.95006
-0.310594
-1.5824
2.36789
1.83059
-2.05729
-0.740784
0.264104
-3.79247
3.14204
-2.98219
-0.495498
5.89298
-2.74723
0.280358
-1.05287
-2.28922
-2.84632
2.77673
6.17568
0.293446
3.11127
5.19709
3.10073
0.229396
3.92418
-5.71447
-3.5365
-5.90976
-0.302057
4.43846
1.7839
8.06287
6.02143
5.25875
-1.83627
-10.1822
6.5713
-2.00782
5.22906
-1.13971
-4.85301
5.02242
2.25512
-5.59569
0.0212908
-4.83172
-6.83954
-0.492602
8.36703
-9.68531
8.634
5.74786
1.37662
-4.43345
-0.737316
4.27891
0.147286
10.5631
-0.911445
-7.17892
8.09036
-4.52883
3.54378
0.753671
2.67472
2.32735
1.42665
-5.75227
-10.0363
-1.86311
-1.62958
-4.14057
0.539774
-2.37036
6.10941
-2.56563
3.84601
5.52474
6.61243
-2.07851
-4.21918
6.33566
-2.48965
4.12279
)
;

boundaryField
{
    wall-4
    {
        type            calculated;
        value           uniform 0;
    }
    velocity-inlet-5
    {
        type            calculated;
        value           uniform -3.75095;
    }
    velocity-inlet-6
    {
        type            calculated;
        value           uniform -5.62643;
    }
    pressure-outlet-7
    {
        type            calculated;
        value           nonuniform List<scalar> 8(3.54429 5.14571 4.24225 9.37281 8.73899 5.09347 7.15887 9.21696);
    }
    wall-8
    {
        type            calculated;
        value           uniform 0;
    }
    frontAndBackPlanes
    {
        type            empty;
        value           nonuniform 0();
    }
}


// ************************************************************************* //
