/*--------------------------------*- C++ -*----------------------------------*\
  =========                 |
  \\      /  F ield         | OpenFOAM: The Open Source CFD Toolbox
   \\    /   O peration     | Website:  https://openfoam.org
    \\  /    A nd           | Version:  6
     \\/     M anipulation  |
\*---------------------------------------------------------------------------*/
FoamFile
{
    version     2.0;
    format      ascii;
    class       volVectorField;
    location    "33";
    object      U;
}
// * * * * * * * * * * * * * * * * * * * * * * * * * * * * * * * * * * * * * //

dimensions      [0 1 -1 0 0 0 0];

internalField   nonuniform List<vector> 
918
(
(0.985045 -0.000704101 0)
(0.00533166 2.96625 0)
(-0.0536477 0.929955 0)
(0.979572 0.00195595 0)
(-0.0384312 1.36449 1.30723e-20)
(-0.00708488 2.94855 -2.65259e-18)
(0.823677 1.14438 4.33329e-19)
(0.35414 0.136174 -1.56126e-20)
(0.999918 -0.000257056 0)
(0.0669603 0.784041 0)
(-0.00553928 0.582656 0)
(0.736737 -0.0125477 0)
(0.0102202 2.93154 0)
(0.00328245 2.79441 0)
(-0.000987766 3.19211 8.32706e-19)
(-0.0693146 1.79696 -8.49108e-20)
(0.412841 0.0354225 1.0238e-18)
(0.23831 1.16113 3.49951e-19)
(0.964511 0.00665732 0)
(-0.0204991 0.651656 0)
(0.102407 0.19746 -7.35445e-19)
(1.00184 -0.00456897 0)
(0.999853 -0.00894354 0)
(0.975138 -0.00607264 0)
(0.602783 -0.039771 0)
(0.0232837 2.64309 0)
(-0.0124315 2.91208 9.76334e-19)
(-0.0676001 0.835138 0)
(-0.17953 1.11764 0)
(-0.0567272 0.872031 0)
(-0.233218 2.50768 0)
(-0.0887486 1.55339 -1.03045e-20)
(-0.104373 1.27 0)
(-0.0221682 2.9876 -9.58445e-23)
(-0.0165026 3.0055 2.06129e-18)
(0.00230673 3.0006 0)
(0.870828 -0.00932773 0)
(0.375324 0.918062 1.62404e-19)
(0.826336 1.15554 -5.28525e-19)
(0.962972 1.00983 5.4382e-19)
(0.691037 1.23946 -9.95709e-20)
(0.702079 1.21152 5.74191e-19)
(0.383889 0.22733 1.52313e-20)
(0.368628 0.113317 0)
(1.14498 0.51853 0)
(0.349155 0.238345 6.95513e-20)
(0.321803 0.152558 -7.21773e-20)
(0.920303 -0.00693547 0)
(1.00026 7.51741e-05 0)
(0.999911 0.000315609 0)
(1.00372 -0.00728505 0)
(1.00091 -0.000935837 0)
(1.0001 -1.64728e-05 0)
(0.097743 1.81035 -7.73934e-19)
(0.0364127 0.928488 0)
(0.121659 0.847265 0)
(0.0276528 0.87999 0)
(0.0496234 0.70526 0)
(0.0128044 2.01402 0)
(-0.0152391 0.7499 0)
(-0.00101912 0.569696 0)
(-0.0125425 0.760365 0)
(-0.0199713 0.59796 0)
(0.838464 -0.0136127 0)
(0.848795 0.0289204 0)
(0.768464 -0.0025994 0)
(0.823153 0.0393709 0)
(0.702007 -0.0180779 0)
(0.013964 3.0002 9.8551e-19)
(0.0111959 3.00595 0)
(0.00629047 3.0039 0)
(0.0118931 2.99709 1.12088e-23)
(0.0082992 2.95871 -1.46471e-18)
(0.0121946 2.98289 0)
(0.00898641 2.90478 0)
(0.0209895 2.93147 2.29705e-24)
(0.00405189 2.8243 0)
(0.0260379 2.91871 0)
(-0.000405781 2.74432 0)
(0.30998 3.59218 0)
(-0.122822 3.67552 0)
(0.152369 3.2833 -7.75012e-19)
(0.00609082 3.0161 0)
(-0.293919 2.33422 0)
(-0.079538 1.95582 8.37117e-20)
(-0.034598 1.89713 -6.00694e-20)
(0.48659 0.136331 -3.53656e-19)
(0.416261 0.00587811 -3.41562e-19)
(0.467898 0.162125 -1.06612e-18)
(0.397364 0.0532884 -7.03478e-19)
(0.256357 0.9721 0)
(0.342679 1.29262 -3.66123e-19)
(0.415888 1.1881 6.02563e-19)
(0.987973 0.00803791 0)
(0.943477 0.00586703 0)
(1.00029 0.000674934 0)
(1.00254 0.00907491 0)
(1.00316 0.00889251 -2.62559e-18)
(0.99212 0.00953302 1.98408e-18)
(0.000579336 0.778431 0)
(-0.00599263 0.620666 0)
(-0.0408272 0.875127 0)
(-0.0148935 0.789541 0)
(0.0173239 0.641641 0)
(0.137739 0.209474 2.27733e-19)
(0.187666 0.184802 0)
(0.993601 -0.00769662 0)
(0.953973 -0.0064765 0)
(0.776461 0.0488448 0)
(0.71423 0.056171 0)
(0.65959 -0.0265074 0)
(0.960077 -0.00517912 0)
(0.647397 0.0527943 0)
(0.476256 -0.0412283 1.47431e-18)
(-0.0407613 2.86133 7.7651e-19)
(0.0338256 2.91394 0)
(0.0426579 2.89176 0)
(0.00350384 2.70135 0)
(-0.00852314 2.98659 9.35266e-19)
(-0.0141306 2.89479 0)
(-0.010967 2.99167 -2.87737e-18)
(-0.0116762 2.92966 9.79211e-19)
(-0.240758 1.18182 0)
(-0.259643 1.37023 0)
(-0.124759 1.86167 -2.54739e-21)
(-0.131567 1.71402 0)
(-0.101146 1.57563 0)
(0.937932 -0.00551797 0)
(0.855575 -0.0102644 0)
(0.864213 0.00658544 0)
(0.948928 -0.0063496 0)
(0.882887 -0.00779612 0)
(0.499881 1.11922 -2.06459e-19)
(0.547634 1.19045 0)
(0.336436 0.850902 3.17727e-20)
(0.280019 0.716375 0)
(0.923166 1.04561 -1.51408e-19)
(1.03826 0.845174 2.9612e-19)
(0.401387 1.34391 0)
(0.551824 1.30032 0)
(0.596342 1.23764 0)
(0.0898295 0.171479 -2.8886e-19)
(0.404014 0.215207 0)
(0.370363 0.106445 1.99577e-19)
(1.00042 0.900197 0)
(1.06715 0.742357 0)
(1.09702 0.675466 -2.22497e-19)
(1.12401 0.58636 0)
(1.17872 0.373228 4.5147e-20)
(0.957061 -0.00727224 0)
(0.962484 -0.0081596 0)
(0.900419 -0.00714636 0)
(0.983881 -0.00812413 0)
(0.97432 -0.00807915 0)
(0.936404 -0.00652643 0)
(1.0002 0.00250198 0)
(1.00077 0.00126799 0)
(0.999993 0.000783128 0)
(0.0402711 2.06678 4.30183e-19)
(0.147064 1.75484 0)
(0.0106751 2.18259 6.5681e-19)
(0.0578022 1.86892 -5.53068e-19)
(0.171315 1.14245 -2.86542e-19)
(0.0563202 1.00702 0)
(0.121827 1.00574 0)
(0.0134043 0.839539 0)
(0.0385611 0.648264 0)
(-0.0135286 2.20513 -9.42496e-22)
(0.0315504 2.00522 0)
(-0.0136016 2.17519 -5.46981e-20)
(0.0122236 2.00479 9.91465e-20)
(0.0202363 0.796818 0)
(-0.00118912 0.757536 0)
(0.0256533 0.598182 0)
(-0.0129017 0.76247 0)
(-0.0330553 0.613326 0)
(0.935023 0.0129932 0)
(0.849447 -0.0116079 0)
(0.925701 0.00425818 0)
(0.842108 -0.0111758 0)
(0.813969 0.00199161 0)
(0.902374 0.0199756 0)
(0.878871 0.0246875 0)
(0.790228 -0.000539966 0)
(0.0104094 3.06715 -9.21421e-21)
(0.0149985 3.05942 0)
(0.0123776 2.9704 0)
(0.00753552 2.87659 0)
(0.900903 3.99064 0)
(1.19642 3.384 9.48318e-19)
(0.0830919 3.09747 0)
(-0.015525 2.92219 0)
(-0.210618 1.51645 0)
(-0.279005 2.2174 0)
(-0.314122 1.91111 0)
(-0.233277 2.50865 -2.01905e-20)
(-0.25248 2.4646 0)
(-0.249839 2.45506 0)
(0.00554268 1.98136 -1.59043e-21)
(-0.0237472 2.07751 3.32351e-20)
(-0.0347152 2.02272 6.07478e-20)
(-0.0120338 1.95172 0)
(0.501595 0.108889 5.34107e-19)
(0.416152 -0.00875567 -5.24652e-19)
(0.237559 1.56938 0)
(0.279133 0.704469 -3.17329e-19)
(0.176733 1.66787 -1.07048e-18)
(0.241234 1.17671 1.0711e-18)
(0.902152 0.00636751 0)
(0.967302 0.0103355 0)
(0.975167 0.00970956 0)
(0.923283 0.00614732 0)
(-0.0208307 0.776278 0)
(-0.011256 0.783303 0)
(-0.0131743 0.618479 0)
(0.302788 0.228109 6.37652e-19)
(0.249482 0.216226 -7.54893e-19)
(0.265886 0.162276 0)
(1.08316 0.0866651 2.53028e-20)
(1.06585 0.0400906 0)
(1.0013 0.041232 0)
(0.900918 -0.00352321 0)
(0.524729 0.0860461 0)
(0.572511 0.0598004 -2.36632e-18)
(0.43204 -0.0188695 8.94442e-19)
(0.0110043 2.97715 8.18399e-19)
(-0.0333539 2.86199 4.55343e-20)
(0.00820317 3.05308 -1.94212e-20)
(0.015755 3.04334 7.27111e-19)
(-0.0118805 3 3.21795e-20)
(-0.0122643 2.95236 -1.29821e-22)
(-0.0150469 3.01329 -6.00076e-19)
(0.0143538 3.02658 4.22517e-19)
(0.00756161 3.03483 -6.86754e-19)
(0.932875 0.0011745 0)
(0.938191 -0.00174175 0)
(0.845144 -0.00951359 0)
(0.9568 0.0112005 0)
(0.943306 0.0125542 0)
(0.882289 0.00629343 0)
(0.918235 0.0163118 0)
(0.926705 0.0140857 0)
(0.839144 0.0041924 0)
(0.674101 1.42086 2.44713e-20)
(0.692803 1.53253 0)
(0.123807 0.323689 6.90136e-20)
(0.196231 0.628249 5.43205e-19)
(0.230214 0.684311 -3.15581e-19)
(0.224301 0.526102 6.24493e-19)
(0.314376 0.783469 1.52622e-18)
(0.119057 0.217103 3.64346e-19)
(0.449057 0.185791 7.48804e-19)
(0.427153 0.209666 1.92867e-19)
(0.38927 0.0824013 3.72154e-19)
(1.16844 0.437642 6.1088e-20)
(1.18935 0.240228 5.89578e-20)
(-0.000528465 2.2165 2.58056e-19)
(0.0491226 1.93384 0)
(0.962227 0.030145 0)
(0.939872 0.0169765 0)
(0.862143 -0.0162307 0)
(0.0121425 3.07472 0)
(0.0168399 2.94394 1.29006e-18)
(0.0139915 2.95689 0)
(0.00582009 2.8501 -1.28022e-18)
(0.00941913 3.08981 3.15509e-19)
(0.0117749 3.08355 0)
(0.713934 1.8311 -1.75525e-19)
(1.24086 2.63969 5.92981e-19)
(0.698969 2.01019 -1.41833e-18)
(0.022796 2.97681 -7.15352e-19)
(0.0417175 3.00097 0)
(-0.0377449 2.88082 0)
(-0.0184998 2.14972 -1.20101e-20)
(-0.0129119 2.11813 -5.98326e-20)
(0.00937084 2.00482 -4.73618e-21)
(0.258504 1.36573 1.02095e-18)
(0.255578 0.493366 -7.01377e-19)
(0.0692613 1.98652 7.60513e-19)
(0.120519 1.85497 -9.13235e-19)
(0.20666 1.50191 1.01299e-19)
(0.00494529 3.12038 -1.95233e-18)
(0.0154553 3.12038 2.14275e-18)
(-0.00499703 2.98093 8.76212e-19)
(-0.000884269 2.97516 -8.41807e-19)
(-0.017781 2.87779 -8.92454e-19)
(0.0119754 3.10081 -2.34849e-18)
(0.0056403 3.1055 2.35098e-18)
(0.238234 0.661518 0)
(0.189262 0.632194 -1.15387e-18)
(0.067544 0.210056 5.06381e-19)
(0.332971 0.89802 1.08809e-18)
(0.182099 0.257114 -1.67516e-18)
(1.17016 0.172282 5.65547e-20)
(1.18758 0.298833 0)
(1.16462 0.118652 -3.69749e-21)
(-0.0103143 2.21662 -1.62946e-21)
(-0.00708753 2.22141 0)
(0.0449411 1.97529 0)
(0.312037 1.29586 -3.65357e-19)
(0.344463 1.12005 -7.86645e-19)
(0.208761 0.359745 1.39994e-18)
(1.00643 -0.0097454 0)
(1.00774 -0.00782204 4.82774e-19)
(-0.127687 1.20927 0)
(-0.07251 1.03775 0)
(1.00245 0.00332833 1.40086e-21)
(1.0033 0.00804277 9.90555e-19)
(-0.232331 2.51015 2.69171e-20)
(-0.21164 2.48664 0)
(0.0432259 3.17449 5.13658e-19)
(0.379607 3.55458 0)
(1.11087 0.685375 -6.46488e-20)
(1.01211 0.0108446 -2.73784e-21)
(1.02071 -0.00919088 0)
(1.00162 0.000223544 1.56314e-22)
(0.100341 1.36241 0)
(0.140598 2.59818 0)
(0.0122164 1.31854 0)
(-0.0105372 2.63713 3.24456e-20)
(-0.0319167 2.57973 3.40158e-20)
(1.00146 0.0248603 2.52445e-21)
(1.06173 0.00488635 0)
(1.095 0.0223051 0)
(-0.204388 2.12488 0)
(-0.0418637 2.53659 0)
(0.0144978 1.16609 0)
(0.278284 1.47872 -1.68511e-19)
(1.01145 -0.00909154 0)
(1.00971 -0.0130886 0)
(1.00232 0.000946156 6.19652e-19)
(1.00548 -0.00500422 -7.28671e-19)
(1.00112 -0.000907652 0)
(-0.0859779 1.7926 0)
(-0.0886597 1.26188 0)
(-0.159836 1.58143 0)
(8.07908e-05 1.1266 0)
(0.0201285 1.03874 0)
(-0.00108482 0.981909 0)
(1.03478 -0.00499243 0)
(1.01991 0.0148502 -9.89377e-22)
(0.779234 1.30242 2.67599e-19)
(1.00226 0.000361314 -6.16594e-19)
(1.00339 0.00461385 7.37212e-19)
(1.00131 0.002122 0)
(1.01152 0.00960152 6.14897e-19)
(1.00714 0.00757242 -7.48572e-19)
(1.00745 0.0114433 0)
(-0.117546 2.5625 0)
(-0.1885 2.53859 4.37821e-20)
(-0.12554 2.51963 -4.54975e-20)
(1.21617 0.266279 5.55418e-19)
(1.14985 0.0803366 0)
(0.0475824 3.09008 -1.01731e-18)
(0.0515198 2.87 -7.21446e-20)
(0.106338 3.20188 1.3566e-18)
(0.124477 3.21489 -2.94081e-19)
(0.146927 3.26281 0)
(0.0238459 3.13798 2.79231e-19)
(0.0634364 3.16209 1.01319e-18)
(0.0638023 3.17971 -5.22122e-19)
(0.0280026 3.12893 0)
(0.653944 0.319451 0)
(0.599596 0.356085 0)
(1.09652 0.714726 1.56101e-19)
(1.06294 0.855287 -1.50865e-19)
(1.15404 0.607428 0)
(1.18684 0.536395 0)
(1.01586 0.012043 -1.14246e-18)
(1.01476 0.0128335 1.4363e-18)
(1.02541 -0.00888976 0)
(1.02375 -0.0104237 0)
(1.0064 0.00266153 0)
(1.01073 0.00414866 0)
(1.00455 0.00211633 0)
(1.0095 0.00646215 0)
(1.00709 0.00518767 0)
(1.00463 0.00540797 0)
(0.0892317 1.35951 0)
(0.076013 1.33953 0)
(0.125389 1.40147 0)
(0.122977 1.41096 0)
(0.148837 2.62205 0)
(0.192836 2.6864 -4.23517e-19)
(0.106786 2.68049 0)
(0.0826475 2.68118 1.82616e-19)
(0.0308078 2.68175 -1.77977e-19)
(0.00781919 1.31246 0)
(0.00529865 1.25755 0)
(0.0176081 1.33585 0)
(0.0395852 1.28803 0)
(-0.0104491 1.99826 -1.0237e-21)
(-0.035539 2.60831 1.15336e-20)
(-0.0181242 2.67836 2.30172e-20)
(-0.0286789 2.68129 0)
(-0.041128 2.61237 -6.95437e-20)
(-0.0384781 2.60429 -4.25567e-20)
(-0.00160712 1.99931 1.66835e-21)
(-0.0278066 2.4257 -1.54626e-20)
(-0.0258243 2.44022 -2.60998e-20)
(1.01093 0.0359869 1.1545e-18)
(1.00743 0.0173034 -1.43952e-18)
(1.00513 0.0405189 -1.18126e-18)
(0.981044 0.0277507 1.48783e-18)
(1.0628 0.00743183 0)
(1.04861 -0.00714455 0)
(1.08963 0.0330842 0)
(1.07259 0.0116217 0)
(1.07006 0.000133988 0)
(1.1308 0.0681501 0)
(1.10652 0.0381259 0)
(1.10761 0.0306827 0)
(-0.218932 2.51852 8.76464e-21)
(-0.182702 2.35645 0)
(-0.238127 2.45024 0)
(-0.0749177 2.57153 2.34309e-20)
(-0.0466857 2.58102 -1.04182e-21)
(0.0375826 1.85278 -1.36553e-19)
(0.00166413 1.70177 1.37844e-19)
(0.0690581 1.38869 0)
(0.0407555 1.38207 0)
(0.0223083 1.34862 0)
(0.0252669 1.18634 0)
(-0.0101744 1.04765 0)
(0.372873 1.49808 2.81475e-19)
(0.411682 1.507 1.50475e-19)
(0.592779 2.4767 -2.47772e-19)
(0.390212 2.57108 7.04631e-19)
(0.356448 2.07916 6.61398e-20)
(1.02042 -0.00811603 0)
(1.01564 -0.00941622 0)
(1.01479 -0.013401 0)
(1.00749 -0.00082504 0)
(1.00501 -0.000661216 0)
(1.00799 -0.00457139 0)
(1.0095 -0.00369866 0)
(1.01447 -0.00455574 0)
(1.02064 0.0154795 1.1197e-18)
(1.01786 0.0146287 -1.41875e-18)
(1.02131 0.0175661 -1.12788e-18)
(1.01898 0.0158653 1.41374e-18)
(0.742805 1.34238 0)
(0.672311 1.38608 2.38626e-19)
(0.849788 1.21964 8.59752e-20)
(0.877957 1.19629 -1.14076e-19)
(1.16523 2.62215 2.5855e-19)
(0.801736 0.108088 5.84853e-19)
(1.15439 0.0949264 0)
(1.19001 0.188608 -4.4888e-19)
(1.17098 0.149461 -1.85904e-20)
(1.01528 0.14457 0)
(0.0894597 3.02667 3.42635e-19)
(0.0901848 2.90565 -1.21075e-18)
(0.0393796 2.36386 7.71981e-19)
(0.13596 -0.0474638 -3.72554e-19)
(0.346975 3.45698 -2.54144e-19)
(0.196852 3.34746 0)
(0.227532 3.40752 3.31051e-19)
(0.230737 3.08456 -1.21249e-18)
(0.265363 3.20518 0)
(0.00689671 3.12242 5.23399e-20)
(0.017044 3.13133 -6.03744e-19)
(0.0160546 3.12707 8.88609e-19)
(0.034238 3.14011 0)
(0.0324146 3.14992 0)
(1.26153 2.58966 0)
(0.510425 0.835253 -5.14713e-19)
(0.986601 1.03383 5.51723e-21)
(0.961133 1.06823 0)
(0.82113 0.952523 -1.12153e-19)
(1.04546 0.89627 2.80034e-20)
(0.405706 0.39959 -9.2237e-19)
(0.714925 0.330349 -2.58232e-20)
(0.684139 0.256157 4.16689e-19)
(0.61377 0.389033 3.08136e-20)
(0.526271 0.374109 -1.24463e-18)
(0.675078 0.339732 0)
(0.696889 0.424751 7.17324e-19)
(0.701376 0.428952 0)
(0.65022 0.363647 0)
(0.612342 0.305697 0)
(0.753545 0.643439 4.00242e-19)
(1.21995 0.293796 -4.59875e-19)
(1.20373 0.434445 0)
(1.21557 0.387722 0)
(0.763442 0.19129 6.26006e-19)
(0.81792 0.544273 -3.88362e-19)
(0.742511 0.504583 6.8323e-19)
(0.932953 0.421395 -7.35756e-19)
(1.01905 0.0142841 7.60613e-19)
(1.01742 0.01352 -7.69938e-19)
(1.01616 0.0142449 0)
(1.03613 -0.00516459 0)
(1.0299 -0.00804995 -7.20847e-19)
(1.02802 -0.0109362 7.134e-19)
(1.02491 0.0100012 0)
(1.02316 0.0138427 0)
(1.01248 0.00447576 0)
(1.01451 0.00907241 0)
(1.01596 0.00376542 0)
(1.01507 0.00245883 0)
(0.0655861 1.35023 0)
(0.0633574 1.31057 0)
(0.144748 1.38484 5.44084e-20)
(0.257698 1.47169 7.7687e-20)
(0.149838 1.4437 1.67444e-19)
(0.174717 1.45084 -2.73846e-19)
(0.14877 1.39448 0)
(0.13483 1.57715 -9.38707e-20)
(0.115722 1.56499 0)
(0.349877 2.04099 -9.62538e-20)
(0.342001 2.35413 6.31441e-19)
(0.173454 1.44299 8.1865e-20)
(0.26147 1.36517 2.562e-20)
(0.189425 1.36655 -2.08113e-20)
(0.280645 1.30035 -8.14798e-20)
(0.256346 1.57481 0)
(0.253815 1.62622 9.16302e-20)
(0.0267607 2.28251 -2.02481e-20)
(0.0322538 2.68201 0)
(0.0612452 2.41831 1.14953e-19)
(0.0551835 2.43798 0)
(0.0708134 2.69524 -2.02553e-19)
(0.0450287 2.71371 0)
(0.0133438 1.42444 3.36852e-20)
(0.0268676 1.47845 0)
(0.0279641 1.38792 0)
(0.00783562 1.39503 -3.94854e-20)
(-0.009044 2.6665 -1.00576e-20)
(0.0198602 2.70101 2.15571e-19)
(0.00245298 2.73387 1.29879e-21)
(-0.0190175 1.85124 1.03794e-20)
(-0.0308414 1.67351 -9.17445e-23)
(0.0214257 1.29731 0)
(0.0223316 1.17292 0)
(0.0359573 1.57578 -9.56509e-21)
(0.0396355 1.45407 -1.96107e-20)
(0.0303964 1.52147 2.29739e-20)
(0.0391716 1.60012 0)
(-0.0864374 2.35249 6.16394e-20)
(-0.103159 2.54866 -3.68309e-20)
(-0.0330691 2.48223 -5.74404e-21)
(-0.0391006 1.8609 -1.25697e-20)
(-0.0505764 2.49819 -5.95532e-21)
(-0.031649 2.44684 4.09284e-20)
(1.01938 0.0204476 -7.65856e-19)
(1.0156 0.0259822 7.69068e-19)
(1.01411 0.0158146 0)
(1.0131 0.0621788 1.05393e-18)
(0.994321 0.0501104 -1.21311e-18)
(0.959653 0.0470232 1.35733e-18)
(1.01444 0.10354 -1.43912e-19)
(1.0427 -0.00548172 0)
(1.05063 -0.00139908 6.90924e-19)
(1.03894 -0.00893045 -6.91396e-19)
(1.07032 0.0375666 -4.10067e-20)
(1.06403 0.0236053 3.53689e-19)
(1.06293 0.0558466 0)
(1.05406 0.0466601 -1.27296e-19)
(1.03191 0.0401027 0)
(1.02642 0.0363856 0)
(1.02773 0.0124967 0)
(1.02417 0.0152644 0)
(1.03961 0.0301743 2.61889e-19)
(1.03944 0.0260053 -5.79104e-19)
(1.05149 0.0349042 -2.77557e-19)
(1.04717 0.0350247 -3.05737e-19)
(1.07317 0.0582393 5.892e-19)
(1.09428 0.0457672 0)
(1.09932 0.0844586 0)
(-0.0716967 2.37003 1.00881e-19)
(-0.112856 2.29371 1.24887e-20)
(-0.0601572 2.27125 0)
(-0.121691 2.50367 -9.90674e-20)
(-0.194789 2.50772 -2.09359e-20)
(-0.158718 2.50673 -2.4351e-22)
(-0.0389521 2.61227 3.68271e-20)
(-0.0673271 2.5477 -3.25448e-21)
(-0.0429621 2.51925 1.17772e-20)
(-0.043048 2.59812 -1.90551e-20)
(-0.0405874 2.60321 2.39037e-20)
(0.112416 1.6033 5.60113e-21)
(0.0457172 1.82429 -8.40887e-20)
(0.367725 1.41963 -1.18317e-19)
(0.362917 1.3499 9.06021e-21)
(0.626734 1.42806 -2.30564e-19)
(0.505366 1.49654 -1.4503e-19)
(0.547313 1.46425 0)
(0.607695 2.43444 2.15298e-19)
(0.666407 2.43384 3.33018e-19)
(0.426414 2.52844 8.34926e-20)
(0.400692 2.55716 -6.37878e-19)
(0.503043 2.50317 5.70947e-19)
(0.552193 2.48784 0)
(0.498303 2.5346 -5.45809e-19)
(0.261992 2.6034 1.15134e-18)
(0.369287 2.57556 -6.1045e-20)
(0.288784 2.66324 -1.59915e-18)
(0.958969 2.39551 7.01137e-19)
(0.843756 2.39771 0)
(1.01126 0.00101858 2.51002e-20)
(1.01527 -0.00546911 -2.04544e-20)
(1.01759 -0.00412925 -3.73872e-19)
(1.01535 -0.00147561 3.73202e-19)
(1.01276 0.00130183 0)
(0.622069 1.28705 0)
(0.656431 1.17433 0)
(0.759724 1.09481 0)
(0.642645 1.13446 0)
(1.19584 2.63872 5.11105e-20)
(1.08813 2.38555 0)
(0.826501 2.19991 3.36907e-21)
(0.827477 2.46032 0)
(0.918483 2.54653 -4.16938e-19)
(0.951157 2.496 2.78785e-19)
(0.818882 0.135188 0)
(0.784324 0.128732 1.61246e-19)
(0.920582 0.13473 9.23986e-19)
(0.847429 0.111631 -3.50988e-19)
(0.819035 0.0738302 -1.05886e-18)
(1.07431 0.223971 -8.64691e-19)
(0.978512 0.277908 -8.18336e-21)
(0.916559 0.318621 8.4222e-19)
(1.01676 0.229176 7.06145e-19)
(0.938643 0.178523 -1.22487e-18)
(0.898424 0.188084 1.52907e-19)
(0.930485 0.285125 -3.2326e-19)
(0.907412 0.192533 0)
(1.00255 0.181151 5.99929e-19)
(1.05278 0.193531 0)
(1.04745 0.200932 0)
(1.1112 0.108978 2.71943e-19)
(1.06506 0.170381 -1.0355e-20)
(1.06714 0.230357 -1.54787e-19)
(1.10234 0.196947 0)
(1.02346 0.0435385 5.93023e-19)
(1.03903 0.0557076 7.37671e-19)
(1.03272 0.0417868 -5.88617e-19)
(1.04276 0.0601968 -4.9436e-19)
(1.01568 0.0663598 -7.46406e-19)
(0.991498 0.14925 0)
(0.995084 0.0957785 0)
(0.968698 0.0601085 -4.81426e-19)
(0.920099 0.0871294 1.9151e-19)
(1.04065 0.101442 6.86284e-19)
(1.07306 0.117447 -7.95736e-19)
(1.06883 0.157779 7.15192e-19)
(1.04003 0.137053 0)
(1.08212 0.10196 0)
(1.06027 0.0944795 -3.23689e-19)
(1.04563 0.0937173 -5.58392e-19)
(0.589065 1.11475 1.07224e-19)
(0.623533 1.4402 -1.4019e-20)
(1.1462 2.7354 -2.34987e-19)
(1.19874 3.11724 -1.12789e-21)
(1.2548 2.74071 -1.093e-19)
(1.29633 2.71275 9.57864e-21)
(1.27206 2.33362 -3.70126e-20)
(1.18628 3.02227 -6.21221e-20)
(1.20526 2.97856 2.06621e-19)
(1.18146 3.27115 -1.29365e-19)
(1.40115 2.98644 1.59927e-19)
(1.41332 2.92531 0)
(0.543094 0.856191 -4.61245e-20)
(0.238074 1.23307 4.80558e-19)
(0.490512 0.475962 5.88904e-19)
(0.361211 0.237885 6.75219e-19)
(0.545105 0.400003 7.00317e-19)
(0.549706 0.488823 -1.12426e-18)
(0.551604 0.487935 9.19563e-19)
(0.509451 0.423965 -3.55824e-19)
(0.447155 0.36247 8.06498e-19)
(0.774756 0.246137 -3.57338e-19)
(0.743468 0.28367 0)
(0.722908 0.217056 1.01956e-20)
(0.722499 0.517495 3.76471e-19)
(0.68566 0.487932 -1.37168e-18)
(0.64068 0.482485 2.36976e-20)
(0.650657 0.451511 0)
(0.676517 0.742261 3.72012e-19)
(0.786949 0.784515 4.17936e-19)
(0.722935 0.839033 -4.85842e-19)
(0.855575 0.800285 -1.55748e-19)
(0.898797 0.846865 -3.85413e-20)
(0.905513 0.853696 3.95298e-20)
(0.841083 0.66252 -6.65467e-19)
(0.913856 0.715022 1.44885e-19)
(0.96867 0.72006 0)
(0.962687 0.69593 -1.90329e-19)
(1.02051 0.312886 2.20209e-19)
(1.13256 0.31596 2.73595e-19)
(1.05514 0.267218 3.54225e-19)
(0.976688 0.355365 -4.35291e-19)
(1.01355 0.464287 0)
(1.09982 0.412859 0)
(0.874829 0.386328 9.82018e-21)
(0.847719 0.287088 0)
(0.869095 0.269389 3.97156e-19)
(0.892152 0.314648 7.48952e-21)
(0.928837 0.441986 2.07201e-18)
(0.860251 0.516881 5.23503e-19)
(0.880328 0.46135 -5.7421e-19)
(0.808179 0.450383 6.0941e-19)
(0.799787 0.436102 3.66641e-19)
(0.786635 0.410373 -3.60064e-19)
(1.02763 -0.000920717 6.18698e-19)
(1.02017 1.03843e-05 0)
(1.01884 0.000835088 4.03689e-19)
(1.02244 -0.00138737 -9.13894e-19)
(1.02252 0.0041531 4.45087e-19)
(1.02037 0.0108945 -9.31202e-19)
(1.02122 0.0105898 0)
(1.02011 0.0113328 -1.9405e-19)
(1.01649 0.00734705 4.86293e-19)
(1.01681 0.010483 -2.43932e-19)
(1.01746 0.0100466 1.78619e-19)
(0.0355581 1.32377 0)
(0.0417866 1.35567 0)
(0.0545585 1.32864 0)
(0.0552736 1.28727 0)
(0.0774054 1.3605 -9.3281e-21)
(0.0843793 1.33764 -1.35736e-20)
(0.0503886 1.52361 -6.42042e-21)
(0.0937198 1.3485 -4.58634e-20)
(0.0458727 1.46032 1.35477e-20)
(0.0491282 1.45493 -1.12219e-20)
(0.0713972 1.35901 -3.16297e-20)
(0.0621414 1.3629 4.83881e-20)
(0.0590449 1.34619 7.85834e-21)
(0.0486115 1.36409 3.44337e-21)
(0.0983899 2.38879 -1.26714e-19)
(0.0915377 2.43847 0)
(0.148143 2.04919 9.61433e-20)
(0.107125 1.71095 3.82071e-20)
(0.222429 2.03408 -8.11366e-20)
(0.211892 2.4495 0)
(0.241296 2.40405 -6.36949e-19)
(0.305004 2.39802 4.50575e-19)
(0.249735 2.01226 -2.12084e-19)
(0.138993 2.17909 1.49565e-19)
(0.111694 2.29066 0)
(0.0158677 1.87735 -1.32604e-20)
(-0.0199856 2.41017 -5.73022e-20)
(-0.00039301 2.16281 0)
(0.00419161 2.46804 -1.65822e-20)
(0.0219265 2.31539 1.64775e-20)
(0.00558945 1.40385 -4.84147e-21)
(0.012402 1.38797 8.34401e-20)
(0.0309018 1.40754 -2.81624e-20)
(0.00127127 1.40585 -2.32553e-20)
(0.0128532 1.4271 0)
(0.0344877 1.38719 0)
(0.0623354 1.19917 -3.93087e-20)
(0.0877594 1.37858 1.00041e-20)
(0.0596444 1.37499 0)
(0.0314943 1.26685 -3.45887e-20)
(0.0189483 1.0556 6.62438e-20)
(1.04195 0.0130093 0)
(1.04717 0.00890645 -6.46919e-20)
(1.03874 0.0216248 -4.67039e-19)
(1.04822 0.0209156 0)
(1.05311 0.0202858 0)
(1.03587 0.0113122 -6.36937e-21)
(1.03061 0.0117091 7.48903e-19)
(1.03185 0.0157205 9.11272e-19)
(1.02593 0.0196157 0)
(1.02266 0.0204281 0)
(1.03529 0.0235144 4.65706e-19)
(1.02512 0.0260514 0)
(1.02458 0.0257468 0)
(-0.0333334 2.04856 0)
(0.0281831 1.82399 1.48265e-20)
(0.0265685 1.89146 -2.06405e-20)
(0.073461 1.39635 0)
(0.0671605 1.64728 -1.72353e-20)
(0.0920072 1.51821 2.76205e-20)
(0.0774087 1.43409 0)
(0.41006 1.67707 0)
(0.353022 1.28914 -7.34418e-21)
(0.286678 1.33975 0)
(0.419 1.30092 -6.06152e-20)
(0.463369 1.4511 0)
(0.443659 1.3938 4.8087e-20)
(1.0375 2.6893 -1.50731e-20)
(0.975595 2.41576 -8.81221e-19)
(0.932281 2.19925 1.01849e-18)
(0.85828 2.3905 2.32994e-19)
(0.852418 2.508 0)
(0.919734 2.50458 0)
(0.942761 2.38967 0)
(0.918843 2.37746 -9.066e-19)
(0.698153 2.48231 -3.62798e-19)
(0.804156 2.46625 -9.42594e-20)
(0.812942 2.44289 7.13313e-20)
(0.701866 2.40816 0)
(0.805629 2.40191 0)
(0.767865 2.41675 -3.57986e-19)
(0.769573 2.48874 0)
(0.60497 1.07335 0)
(0.515199 0.894464 -5.25587e-19)
(0.516885 0.959798 -3.05441e-20)
(0.503134 1.0986 0)
(0.488731 1.00994 8.0657e-19)
(0.757289 0.878998 -1.34552e-19)
(0.77309 1.00944 0)
(0.746976 0.9836 1.89924e-19)
(0.637737 1.02245 0)
(0.633263 0.937961 0)
(1.16422 2.76841 -2.13401e-19)
(1.13921 2.82778 -8.40703e-20)
(0.926881 2.35801 6.35652e-20)
(0.902365 2.33775 -7.25377e-20)
(1.13326 2.74591 0)
(1.08508 2.71468 8.72135e-20)
(1.10031 2.5052 -2.94232e-19)
(0.999978 2.25611 -2.85395e-20)
(0.505185 1.3644 0)
(0.522209 1.0969 -9.45535e-20)
(0.576844 1.17268 0)
(0.869069 0.196901 0)
(0.805979 0.156907 0)
(0.74473 0.145668 0)
(0.876205 0.207947 -6.23714e-19)
(0.801737 0.210852 3.68251e-19)
(0.933103 0.0735267 -3.96244e-19)
(0.946344 0.119364 0)
(0.921392 0.127973 1.71079e-19)
(0.871121 0.0881594 6.85184e-19)
(0.843719 0.0611074 -4.286e-19)
(1.10261 3.36458 -6.96252e-19)
(1.16762 3.28743 0)
(1.12263 3.44993 -1.608e-18)
(0.661803 3.59535 1.34118e-18)
(1.03244 3.09343 1.42969e-19)
(0.517489 0.833444 5.46907e-19)
(0.506671 0.800858 0)
(0.381223 0.505176 -1.46494e-19)
(0.455322 0.684664 8.37226e-19)
(0.517061 0.482961 -2.04614e-19)
(0.507287 0.524681 2.31104e-19)
(0.677872 0.553925 4.87679e-19)
(0.705479 0.579022 0)
(0.634563 0.624453 0)
(0.601674 0.571037 0)
(0.971805 0.612924 1.00194e-19)
(0.909784 0.558206 -5.07019e-19)
(0.935527 0.595675 3.68311e-19)
(0.987607 0.508493 -3.88753e-19)
(1.03662 0.491028 0)
(1.05075 0.601107 -9.58191e-20)
(0.835859 0.394405 -8.33772e-19)
(0.831685 0.387181 -1.05214e-18)
(0.801629 0.387278 6.50099e-19)
(0.803876 0.347478 -6.69866e-19)
(0.840958 0.299753 -5.20732e-19)
(0.808663 0.300267 6.39096e-19)
(1.02654 0.00595141 -4.65693e-19)
(1.02625 0.00607524 9.39644e-19)
(1.02945 0.000261522 5.99773e-19)
(1.03341 0.000857443 -7.20572e-19)
(1.03349 0.0104284 0)
(1.02976 0.0103424 -1.17136e-18)
(0.0791504 1.66002 1.47102e-20)
(0.0455712 1.58137 0)
(0.0904982 1.71091 7.90762e-20)
(0.102788 1.68737 -7.05247e-20)
(0.0340693 1.51639 1.20476e-20)
(0.0353144 1.50076 0)
(-0.0109624 1.72028 0)
(0.00619098 1.55476 1.10451e-21)
(0.0410553 1.48018 -9.93791e-22)
(0.0292988 1.6307 1.70856e-20)
(0.00762654 1.92291 -2.10901e-21)
(-0.0278414 1.94821 4.8219e-21)
(0.494424 1.38378 -2.4094e-19)
(0.497618 1.3818 2.63366e-19)
(0.43416 1.29231 3.00438e-21)
(0.429515 1.30303 7.00745e-21)
(0.612429 1.29496 0)
(0.542467 1.38475 1.23674e-19)
(0.544008 1.38967 -1.20271e-19)
(0.468153 1.26816 -2.87185e-21)
(0.508928 1.23353 0)
(0.577265 1.20521 0)
(0.672984 2.44558 5.34663e-19)
(0.664534 2.46907 1.26894e-18)
(0.722224 2.48364 -8.70858e-19)
(0.623328 2.45802 -1.99253e-19)
(0.556936 2.55726 2.69798e-19)
(0.496017 2.51832 -7.05007e-19)
(0.987149 2.39166 -5.73052e-19)
(1.02265 2.41145 0)
(0.942833 2.18683 -6.29398e-19)
(1.05497 2.69495 0)
(1.05455 2.67788 0)
(0.616829 2.31841 4.83922e-20)
(1.12298 3.08673 1.12288e-19)
(1.00527 2.98671 -1.70092e-19)
(0.338571 0.879015 0)
(0.356841 0.788191 -2.9265e-19)
(0.541789 0.711098 -2.93371e-19)
(0.384306 2.16511 0)
(0.413476 2.75526 -1.00644e-19)
(0.423652 2.49473 0)
(0.681332 0.706543 -7.93511e-19)
(0.737013 0.695059 1.1177e-18)
(0.749589 0.657479 -1.11592e-18)
(0.672863 0.66535 -1.02198e-19)
(0.726559 0.619766 -4.27502e-19)
(0.978098 2.77256 -8.50543e-20)
(1.01546 2.77639 -1.8298e-19)
(0.570131 2.24473 3.67616e-19)
(0.616513 1.76571 -3.00513e-19)
(0.714129 1.87889 -4.71145e-19)
(0.982318 2.41375 -1.3789e-19)
(0.980111 2.36934 3.42979e-19)
(0.66087 1.80175 3.12659e-20)
(0.467545 1.32655 1.6599e-19)
)
;

boundaryField
{
    wall-4
    {
        type            noSlip;
    }
    velocity-inlet-5
    {
        type            fixedValue;
        value           uniform (1 0 0);
    }
    velocity-inlet-6
    {
        type            fixedValue;
        value           uniform (0 3 0);
    }
    pressure-outlet-7
    {
        type            zeroGradient;
    }
    wall-8
    {
        type            noSlip;
    }
    frontAndBackPlanes
    {
        type            empty;
    }
}


// ************************************************************************* //
