/*--------------------------------*- C++ -*----------------------------------*\
  =========                 |
  \\      /  F ield         | OpenFOAM: The Open Source CFD Toolbox
   \\    /   O peration     | Website:  https://openfoam.org
    \\  /    A nd           | Version:  6
     \\/     M anipulation  |
\*---------------------------------------------------------------------------*/
FoamFile
{
    version     2.0;
    format      ascii;
    class       volScalarField;
    location    "36.9";
    object      p;
}
// * * * * * * * * * * * * * * * * * * * * * * * * * * * * * * * * * * * * * //

dimensions      [0 2 -2 0 0 0 0];

internalField   nonuniform List<scalar> 
8800
(
0.974538
0.925219
0.887245
0.859163
0.83898
0.824359
0.813712
0.80611
0.801141
0.798955
0.800188
0.804415
0.811119
0.820476
0.833165
0.850453
0.874309
0.907392
0.950321
1.00283
0.809049
0.815391
0.824531
0.828067
0.825441
0.819328
0.812351
0.806055
0.801175
0.798198
0.797833
0.800326
0.804859
0.810908
0.817951
0.824945
0.829795
0.829651
0.822963
0.814056
0.782605
0.788836
0.793324
0.797178
0.800101
0.801016
0.799879
0.797688
0.795607
0.794634
0.795516
0.79784
0.800626
0.802821
0.803287
0.801457
0.798062
0.794027
0.789232
0.785514
0.778367
0.781128
0.783722
0.78586
0.78757
0.789099
0.790148
0.790421
0.790195
0.790143
0.790785
0.791785
0.792415
0.792176
0.791133
0.789728
0.78802
0.785689
0.783263
0.781695
0.773395
0.774816
0.776641
0.778699
0.780378
0.781626
0.78266
0.783549
0.784224
0.784783
0.785307
0.785612
0.785505
0.785038
0.78429
0.783114
0.781411
0.779482
0.778111
0.777309
0.768513
0.769414
0.770646
0.772249
0.773907
0.775387
0.776597
0.777613
0.778528
0.779347
0.779911
0.780105
0.779959
0.779466
0.778567
0.777301
0.775877
0.774566
0.773725
0.773202
0.763745
0.764399
0.765346
0.766636
0.768044
0.769503
0.770903
0.772148
0.773241
0.774212
0.774899
0.775159
0.774981
0.774391
0.773488
0.772447
0.771375
0.770414
0.769812
0.76943
0.75909
0.759593
0.760365
0.761478
0.762737
0.764095
0.765516
0.766926
0.768256
0.769449
0.770283
0.770591
0.770422
0.7699
0.769175
0.768357
0.767512
0.766778
0.766327
0.766032
0.754507
0.754906
0.755554
0.75655
0.75774
0.759044
0.760457
0.761957
0.763477
0.764906
0.765943
0.766386
0.766349
0.765999
0.765468
0.764833
0.764163
0.763604
0.763259
0.763023
0.749918
0.750242
0.750804
0.751723
0.752865
0.75415
0.755586
0.757165
0.758838
0.760514
0.761816
0.762505
0.762699
0.76256
0.762222
0.761771
0.761268
0.760852
0.760588
0.760393
0.74525
0.745516
0.746018
0.746894
0.748022
0.749328
0.750814
0.752496
0.754364
0.756327
0.757966
0.758969
0.759445
0.759557
0.759426
0.759152
0.758796
0.7585
0.758304
0.758141
0.740437
0.740659
0.741121
0.74198
0.743129
0.744498
0.746091
0.747939
0.750049
0.752361
0.75442
0.755819
0.756623
0.756999
0.757086
0.756989
0.756788
0.756599
0.756455
0.756315
0.735397
0.735581
0.736025
0.736904
0.73812
0.739604
0.741375
0.743486
0.745958
0.748744
0.751308
0.753136
0.754281
0.754928
0.755239
0.755322
0.755263
0.755167
0.755068
0.754947
0.730064
0.730218
0.730658
0.731582
0.732907
0.734545
0.736527
0.738948
0.741847
0.745205
0.748396
0.750774
0.752354
0.75335
0.753931
0.754212
0.754291
0.754285
0.754229
0.754123
0.724342
0.724468
0.724914
0.725899
0.727358
0.729195
0.731451
0.734244
0.73768
0.741752
0.745712
0.74874
0.750874
0.752293
0.753196
0.753729
0.75398
0.754071
0.754054
0.753959
0.718122
0.718217
0.718685
0.719764
0.721405
0.723513
0.726156
0.729467
0.733553
0.738466
0.743391
0.747283
0.750038
0.751926
0.75319
0.753979
0.754425
0.754619
0.754641
0.754555
0.71126
0.711339
0.711827
0.713021
0.7149
0.717356
0.720466
0.724439
0.729441
0.735509
0.741554
0.746343
0.749837
0.752308
0.754006
0.755117
0.755776
0.756083
0.756146
0.756066
0.703496
0.703565
0.704105
0.705443
0.707608
0.710464
0.71414
0.718862
0.724842
0.732206
0.739708
0.745774
0.75024
0.75345
0.755728
0.757266
0.758203
0.758648
0.758753
0.758675
0.694622
0.694668
0.695281
0.696806
0.699331
0.702733
0.70718
0.712968
0.720353
0.729427
0.738618
0.746046
0.75157
0.755621
0.758574
0.760604
0.761878
0.762485
0.762633
0.762553
0.684186
0.684221
0.684919
0.686695
0.689676
0.693768
0.699173
0.706241
0.715282
0.726416
0.737725
0.746887
0.753754
0.758836
0.76261
0.765252
0.766939
0.767734
0.76792
0.767827
0.671559
0.671594
0.672423
0.674543
0.678158
0.683194
0.68989
0.698671
0.709868
0.723562
0.737394
0.748557
0.756948
0.763221
0.767936
0.7713
0.773453
0.774446
0.774664
0.774553
0.655879
0.655923
0.65697
0.659637
0.664183
0.670551
0.67902
0.690069
0.704025
0.720887
0.737684
0.751165
0.7613
0.768926
0.774678
0.778836
0.781481
0.782668
0.782911
0.782775
0.635954
0.636017
0.637418
0.640945
0.646875
0.655154
0.666085
0.680164
0.697624
0.718313
0.738607
0.754733
0.766831
0.775965
0.782903
0.787923
0.791077
0.792449
0.792711
0.792547
0.609987
0.610096
0.61212
0.617087
0.625235
0.636394
0.650867
0.669038
0.690951
0.716223
0.740474
0.759503
0.773749
0.784538
0.792724
0.798681
0.802339
0.803873
0.804139
0.803945
0.575005
0.575267
0.578547
0.586144
0.598057
0.613693
0.633238
0.656794
0.684156
0.714725
0.743364
0.765553
0.782102
0.794673
0.804245
0.811179
0.815317
0.816963
0.817206
0.816978
0.525343
0.526514
0.533101
0.546078
0.564507
0.587042
0.613591
0.643951
0.677727
0.71421
0.747548
0.773025
0.791966
0.806367
0.817409
0.825359
0.829921
0.8316
0.831784
0.831515
0.452511
0.460059
0.475206
0.498026
0.52611
0.557806
0.592863
0.631052
0.671995
0.714995
0.753521
0.782677
0.804344
0.820937
0.833776
0.842852
0.847933
0.849747
0.849941
0.849712
0.374915
0.391111
0.415688
0.449046
0.487342
0.528382
0.572038
0.618314
0.666928
0.717306
0.762178
0.796152
0.821493
0.841049
0.856232
0.866837
0.87258
0.874547
0.874798
0.874715
0.308518
0.328353
0.360756
0.4031
0.450384
0.500207
0.552243
0.606448
0.662568
0.720053
0.770908
0.809387
0.838163
0.8604
0.877523
0.889214
0.895431
0.897681
0.897968
0.89795
0.254318
0.276312
0.313985
0.362767
0.417123
0.474298
0.53374
0.595219
0.65836
0.722538
0.779
0.821569
0.853357
0.877689
0.896187
0.908994
0.916164
0.918559
0.918911
0.918953
0.209294
0.232503
0.273941
0.327734
0.387779
0.451042
0.516788
0.584698
0.654227
0.724595
0.786228
0.832485
0.866777
0.892836
0.912467
0.926187
0.934024
0.936781
0.937288
0.937374
0.170826
0.194757
0.238945
0.29679
0.361613
0.430066
0.501279
0.574883
0.650172
0.726222
0.79258
0.842137
0.878584
0.906025
0.926573
0.940937
0.949277
0.952459
0.953161
0.953265
0.136986
0.161399
0.207727
0.268882
0.337746
0.410707
0.486788
0.565519
0.64609
0.727392
0.798115
0.850615
0.888923
0.917472
0.93875
0.953628
0.962329
0.965838
0.966649
0.966744
0.106341
0.131162
0.179224
0.243178
0.315494
0.392398
0.472847
0.556287
0.641772
0.728005
0.802839
0.85806
0.898006
0.927491
0.949303
0.964502
0.973427
0.977145
0.978025
0.978104
0.0779217
0.103166
0.152686
0.219018
0.294318
0.374705
0.459105
0.546878
0.636987
0.727942
0.806741
0.864587
0.906083
0.936445
0.958718
0.974165
0.983237
0.987064
0.987957
0.987988
0.0509493
0.0766708
0.127536
0.195955
0.273839
0.357318
0.445296
0.537074
0.631545
0.727067
0.809793
0.870266
0.913331
0.944576
0.967305
0.982966
0.992099
0.995949
0.996887
0.996903
0.0250616
0.051248
0.103338
0.173614
0.253785
0.340028
0.431253
0.526732
0.625313
0.725281
0.811958
0.875163
0.919911
0.952122
0.975352
0.991222
1.00037
1.00415
1.00506
1.00506
-0.000159399
0.0266033
0.0798363
0.151771
0.233971
0.322691
0.416874
0.515762
0.618215
0.722506
0.813212
0.879338
0.925945
0.959254
0.983059
0.999156
1.00833
1.01204
1.01283
1.01277
-0.0248269
0.00253312
0.0568539
0.130294
0.214303
0.305244
0.402104
0.504125
0.610207
0.718702
0.813533
0.882816
0.931519
0.966079
0.99055
1.00689
1.01602
1.01959
1.02027
1.02014
-0.0490478
-0.0210774
0.034298
0.109121
0.194748
0.287672
0.386941
0.491818
0.60128
0.71383
0.812858
0.885567
0.936652
0.972673
0.997888
1.01445
1.02345
1.0268
1.02733
1.02715
-0.0728843
-0.0442649
0.0121545
0.0882365
0.175297
0.269997
0.371423
0.478878
0.59145
0.707855
0.811103
0.887498
0.941339
0.979102
1.00515
1.02188
1.03063
1.03366
1.03403
1.03381
-0.096361
-0.067014
-0.00957683
0.0676528
0.156001
0.252268
0.355607
0.465359
0.580749
0.700755
0.808183
0.888502
0.94553
0.985434
1.01248
1.02923
1.03752
1.0401
1.0403
1.04004
-0.119297
-0.0892703
-0.0308614
0.0474062
0.136908
0.23456
0.339567
0.451348
0.569243
0.692554
0.804031
0.888455
0.949089
0.991699
1.02006
1.0367
1.04415
1.04607
1.04606
1.04579
-0.141643
-0.110972
-0.0516515
0.0275613
0.118085
0.216944
0.323403
0.436931
0.557025
0.683289
0.798603
0.887202
0.951814
0.997811
1.02819
1.04479
1.05081
1.05157
1.05125
1.051
-0.163447
-0.132071
-0.0719044
0.00816753
0.099606
0.199512
0.307213
0.422221
0.544197
0.673035
0.791855
0.884604
0.953442
1.00348
1.03697
1.05431
1.05853
1.05706
1.05585
1.05579
-0.184529
-0.152529
-0.0915528
-0.0107
0.0815367
0.182352
0.291099
0.407337
0.530884
0.661901
0.783781
0.880528
0.953688
1.00815
1.04602
1.06601
1.06956
1.06507
1.06079
1.05879
-0.204976
-0.172336
-0.110596
-0.0290681
0.0638444
0.165421
0.275006
0.392215
0.51701
0.649816
0.774236
0.874709
0.952251
1.01117
1.05423
1.0794
1.08572
1.08055
1.06887
1.06696
-0.224693
-0.191563
-0.129167
-0.0471324
0.0462264
0.148364
0.258501
0.376342
0.501995
0.636106
0.762507
0.866304
0.948485
1.01156
1.05918
1.09068
1.10111
1.09291
1.07525
1.06929
-0.243531
-0.210162
-0.147086
-0.0646824
0.028935
0.131493
0.241805
0.360058
0.48616
0.621057
0.74873
0.854853
0.941803
1.00823
1.05607
1.08725
1.10189
1.08106
1.02152
0.994679
-0.261364
-0.228892
-0.163949
-0.0811947
0.0126449
0.115297
0.22519
0.343636
0.46979
0.604856
0.733009
0.839933
0.931451
1.00068
1.04083
1.06477
1.06347
1.01724
0.95517
0.916778
-0.305858
-0.246905
-0.179706
-0.0972437
-0.00342057
0.0988651
0.208785
0.32696
0.45269
0.587186
0.715008
0.821156
0.914209
0.987945
1.01355
1.01207
0.976527
0.918124
0.850941
0.813855
-0.28107
-0.262806
-0.203343
-0.121105
-0.0277553
0.074243
0.183398
0.300764
0.425321
0.557984
0.683643
0.786864
0.871493
0.949144
0.943051
0.846948
0.7637
0.705746
0.644221
0.674824
-0.313183
-0.281306
-0.221049
-0.139291
-0.0460185
0.0556073
0.164836
0.281473
0.404884
0.535573
0.658354
0.757831
0.833089
0.875494
0.833806
0.703904
0.601135
0.531884
0.452015
0.501628
-0.338281
-0.303893
-0.241767
-0.159806
-0.0665915
0.0349254
0.143991
0.259762
0.381715
0.509872
0.628787
0.722566
0.786172
0.793477
0.696251
0.54706
0.422652
0.333954
0.239968
0.27546
-0.3628
-0.327253
-0.263654
-0.180997
-0.0876377
0.0137524
0.122302
0.237059
0.357351
0.482625
0.596825
0.684028
0.731228
0.706635
0.556284
0.383476
0.226541
0.0945088
-0.0287622
-0.0110775
-0.387081
-0.351066
-0.286496
-0.203211
-0.109624
-0.00841407
0.0994908
0.213105
0.331483
0.453519
0.562336
0.642376
0.669906
0.605125
0.41918
0.224419
0.0383299
-0.114977
-0.32236
-0.402276
-0.411801
-0.375795
-0.310621
-0.226849
-0.13301
-0.0319228
0.0754093
0.187866
0.304237
0.422829
0.525944
0.597092
0.602241
0.484704
0.294241
0.0857916
-0.106571
-0.268981
-0.394048
-0.519263
-0.438034
-0.401921
-0.336389
-0.252305
-0.158343
-0.0574651
0.0492016
0.160335
0.274376
0.389019
0.485978
0.545868
0.524772
0.369249
0.177088
-0.0254036
-0.200845
-0.298683
-0.325049
-0.338981
-0.465924
-0.429726
-0.363928
-0.279685
-0.185772
-0.0852664
0.0204941
0.129996
0.241281
0.35128
0.441585
0.485444
0.444732
0.258709
0.0679909
-0.11453
-0.246763
-0.284828
-0.294249
-0.294395
-0.495759
-0.459335
-0.393278
-0.30897
-0.215247
-0.11533
-0.010731
0.0967932
0.204876
0.309556
0.392247
0.421
0.351537
0.157088
-0.0272405
-0.185912
-0.260306
-0.274245
-0.275718
-0.275627
-0.527537
-0.490785
-0.424447
-0.340148
-0.246771
-0.14764
-0.0444742
0.0607097
0.165154
0.263965
0.337591
0.352526
0.244786
0.063853
-0.110329
-0.236488
-0.26493
-0.265259
-0.265771
-0.265416
-0.561001
-0.523893
-0.457313
-0.373122
-0.280243
-0.182129
-0.0806942
0.0217797
0.122129
0.214657
0.278617
0.274746
0.147718
-0.0238633
-0.177069
-0.248831
-0.263324
-0.260298
-0.259319
-0.25879
-0.59556
-0.558298
-0.491599
-0.407643
-0.315451
-0.218617
-0.119221
-0.0198475
0.0759769
0.161964
0.216021
0.195333
0.0571671
-0.102339
-0.222617
-0.256715
-0.256506
-0.257869
-0.257352
-0.256427
-0.630778
-0.593454
-0.52681
-0.443266
-0.352007
-0.256747
-0.159742
-0.063858
0.0269932
0.106637
0.148573
0.117065
-0.0262507
-0.167208
-0.256251
-0.260806
-0.258714
-0.255353
-0.253463
-0.252931
-0.665595
-0.62845
-0.562177
-0.479316
-0.389308
-0.29599
-0.201753
-0.109742
-0.024306
0.0492408
0.0800784
0.0360435
-0.102384
-0.218158
-0.281504
-0.285101
-0.262935
-0.246583
-0.242229
-0.241696
-0.698366
-0.662019
-0.596652
-0.514868
-0.426507
-0.335555
-0.244517
-0.156756
-0.0769894
-0.0102004
0.0170251
-0.0527376
-0.177016
-0.260599
-0.280236
-0.279521
-0.275006
-0.268215
-0.259674
-0.255638
-0.727861
-0.692663
-0.628825
-0.548686
-0.462477
-0.374351
-0.287046
-0.203888
-0.129862
-0.0712063
-0.0438101
-0.132911
-0.261471
-0.307066
-0.323135
-0.32751
-0.341249
-0.347402
-0.34148
-0.337172
-0.751504
-0.718304
-0.65694
-0.5792
-0.495838
-0.411017
-0.327974
-0.249832
-0.181959
-0.130938
-0.108116
-0.195092
-0.34661
-0.416356
-0.424085
-0.435279
-0.444094
-0.453909
-0.452248
-0.448689
-0.767281
-0.736859
-0.678931
-0.604608
-0.524943
-0.44407
-0.365466
-0.293041
-0.231867
-0.185928
-0.174554
-0.25466
-0.400925
-0.558348
-0.570483
-0.56981
-0.585484
-0.585784
-0.578585
-0.576711
-0.772502
-0.745958
-0.692733
-0.622976
-0.547922
-0.471908
-0.397779
-0.331194
-0.276303
-0.239885
-0.222338
-0.338297
-0.409731
-0.435203
-0.443042
-0.587732
-0.654434
-0.645395
-0.643636
-0.643302
-0.765293
-0.743369
-0.696273
-0.632465
-0.563014
-0.492604
-0.423785
-0.361153
-0.312844
-0.28809
-0.275761
-0.427118
-0.439865
-0.333309
-0.374624
-0.567836
-0.682383
-0.677126
-0.675816
-0.674295
-0.74276
-0.726233
-0.687643
-0.631828
-0.569002
-0.504557
-0.441329
-0.382541
-0.337767
-0.319067
-0.342317
-0.512668
-0.699728
-0.868055
-1.01861
-1.15092
-1.03249
-0.838604
-0.749977
-0.755359
-0.707712
-0.696748
-0.667464
-0.621129
-0.565702
-0.507068
-0.448314
-0.393587
-0.350615
-0.330614
-0.381036
-0.596196
-0.985012
-1.42832
-1.72234
-1.8549
-1.75322
-1.51045
-1.28802
-1.20751
-0.665585
-0.659299
-0.639888
-0.602759
-0.554667
-0.500568
-0.444872
-0.390705
-0.345097
-0.325355
-0.362498
-0.500087
-0.822528
-1.20604
-1.32693
-1.38779
-1.36575
-1.28688
-1.16763
-1.08791
-0.624668
-0.621175
-0.61027
-0.581773
-0.538824
-0.487435
-0.43142
-0.3733
-0.317362
-0.279667
-0.246615
-0.263666
-0.25503
-0.341086
-0.421445
-0.441022
-0.309765
-0.177042
-0.0644394
-0.00458314
-0.591437
-0.58942
-0.583882
-0.562766
-0.523424
-0.471017
-0.410549
-0.344994
-0.26914
-0.179055
-0.0972944
0.0649788
0.239879
0.535435
0.87624
1.21614
1.53132
1.75272
1.86571
1.90508
-0.563364
-0.562612
-0.561123
-0.547904
-0.511736
-0.456746
-0.389025
-0.308616
-0.222698
-0.105835
0.0264117
0.2171
0.615692
1.03411
1.54519
2.00962
2.35604
2.5876
2.71764
2.76115
-0.543216
-0.542764
-0.542747
-0.535616
-0.503847
-0.445482
-0.370794
-0.28168
-0.180573
-0.0690042
0.0777751
0.214802
0.479985
0.910169
1.42394
1.92342
2.31545
2.57175
2.69186
2.72503
-0.52803
-0.526985
-0.526875
-0.524892
-0.498317
-0.43726
-0.354309
-0.263317
-0.157606
-0.0439576
0.0817362
0.211106
0.355196
0.728455
1.19563
1.59962
1.9094
2.09986
2.18262
2.20495
-0.522736
-0.521513
-0.522656
-0.522589
-0.495788
-0.427707
-0.337543
-0.242422
-0.143282
-0.0328449
0.0758738
0.19553
0.296325
0.50776
0.860582
1.17991
1.41375
1.54156
1.59456
1.60733
-0.52058
-0.522639
-0.527875
-0.526129
-0.489839
-0.408456
-0.312518
-0.218425
-0.123877
-0.0247497
0.0703864
0.155383
0.243235
0.377871
0.605179
0.816492
0.969557
1.05437
1.08986
1.0983
-0.483821
-0.489804
-0.497808
-0.492031
-0.446547
-0.361598
-0.271219
-0.185141
-0.101896
-0.0180384
0.0566217
0.11673
0.163175
0.267147
0.429941
0.560047
0.647399
0.696316
0.71704
0.719912
-0.366947
-0.373707
-0.380846
-0.374621
-0.336726
-0.273584
-0.20776
-0.140369
-0.0753705
-0.00983868
0.0442989
0.0880704
0.108199
0.168352
0.281753
0.370374
0.426574
0.453884
0.463936
0.464777
-0.192144
-0.196595
-0.202231
-0.201802
-0.18666
-0.159631
-0.12586
-0.0863913
-0.0431193
0.00373795
0.0396565
0.0655681
0.0822712
0.119437
0.189965
0.243792
0.278489
0.297204
0.304453
0.304745
-0.0315682
-0.0336669
-0.0385186
-0.0462696
-0.0526552
-0.0542835
-0.0478365
-0.0336617
-0.0105287
0.020547
0.0438526
0.0607545
0.0754421
0.109243
0.155382
0.184907
0.201627
0.209705
0.212138
0.211509
0.0682142
0.0671324
0.062458
0.0509335
0.0341859
0.0190131
0.0105237
0.00973701
0.0191289
0.0369234
0.0555528
0.0665652
0.0786281
0.102895
0.137783
0.153569
0.161795
0.165243
0.165965
0.165079
0.112227
0.111483
0.107568
0.0969315
0.080202
0.0627601
0.0491634
0.04166
0.0426381
0.0524307
0.0673684
0.0801412
0.0924795
0.108287
0.128531
0.136195
0.141901
0.144998
0.145931
0.144995
0.123672
0.123095
0.120207
0.112289
0.0992586
0.0844349
0.0715276
0.062805
0.0591495
0.0646771
0.076993
0.0923001
0.111528
0.121071
0.127325
0.130783
0.134856
0.136843
0.137555
0.136577
0.120557
0.120125
0.118195
0.113006
0.104104
0.0932479
0.082812
0.0746027
0.0700615
0.071467
0.0825491
0.0966802
0.118342
0.123074
0.122841
0.125696
0.130465
0.13447
0.135269
0.133737
0.112459
0.112125
0.110884
0.107725
0.102077
0.0948774
0.0868464
0.0804608
0.075466
0.0751095
0.0799978
0.0882449
0.103833
0.104199
0.104558
0.109706
0.116746
0.121697
0.12329
0.121978
0.103897
0.103625
0.102815
0.100969
0.0976028
0.0930505
0.0877222
0.0828144
0.0778994
0.0746128
0.0704572
0.0660932
0.0673612
0.0652469
0.0723391
0.083476
0.0940129
0.0999998
0.10179
0.100672
0.0966878
0.0964692
0.0959253
0.0948375
0.0929284
0.090095
0.0868467
0.0830295
0.0788514
0.0734063
0.0606197
0.03984
0.020121
0.0189245
0.0393336
0.0575262
0.069315
0.0744923
0.075311
0.0744017
0.0909619
0.0908008
0.0904349
0.0897523
0.0887299
0.0871487
0.085265
0.08307
0.0802708
0.0742066
0.0594245
0.0309481
0.00161586
0.00503463
0.0284084
0.0458238
0.0535489
0.0553523
0.0557839
0.0558973
0.0861162
0.0860138
0.0857931
0.0853116
0.084645
0.0840951
0.0833967
0.0824397
0.0818914
0.0788997
0.0715624
0.0533279
0.0341139
0.0430945
0.05839
0.0656544
0.0669863
0.0660148
0.0659817
0.0660183
0.0813121
0.0812707
0.0812031
0.0809434
0.0807609
0.0806024
0.0810713
0.0820937
0.0835522
0.0868468
0.0930556
0.0963769
0.0965507
0.104039
0.106064
0.104824
0.102046
0.100462
0.100009
0.099364
0.0758005
0.0758278
0.0759475
0.0759846
0.0760675
0.0763637
0.0776368
0.0806435
0.0849321
0.0942787
0.113389
0.142174
0.16174
0.167225
0.156582
0.14489
0.138908
0.137729
0.136784
0.136165
0.0687054
0.0687908
0.069082
0.0695063
0.0698245
0.0707821
0.0722648
0.0765517
0.0837392
0.09757
0.124922
0.175774
0.217362
0.215036
0.192093
0.175789
0.170544
0.169138
0.16733
0.16621
0.0593279
0.0594184
0.0597829
0.0604183
0.0612027
0.062716
0.0653625
0.069296
0.0777733
0.0925659
0.120045
0.172655
0.217358
0.215085
0.193775
0.18391
0.179646
0.178497
0.176226
0.174939
0.0476245
0.047628
0.0479575
0.0488087
0.0503134
0.05237
0.0551577
0.0593549
0.0666374
0.0783062
0.0984149
0.135712
0.166354
0.165926
0.153899
0.151472
0.156072
0.157561
0.154472
0.152833
0.0343584
0.0343721
0.0348134
0.0359166
0.0374192
0.0393971
0.0425036
0.0464132
0.048872
0.0547918
0.0651209
0.0762587
0.079665
0.0808135
0.0855101
0.0950992
0.0967847
0.0972983
0.0956199
0.0942441
0.0195369
0.0194797
0.0197541
0.0208109
0.0223724
0.0241157
0.02633
0.0299651
0.0306916
0.0297506
0.0323503
0.0206279
-0.00766393
-0.00658601
0.014402
0.0225156
0.0184549
0.0130594
0.0152423
0.0160835
0.00437276
0.00418853
0.00388084
0.00348293
0.00306574
0.00293855
0.00367711
0.00524384
0.00510062
0.00474932
0.00764225
0.0163344
-0.00538073
-0.0118429
-0.00396198
-0.00631354
-0.0183385
-0.0214717
-0.0154811
-0.00972555
0.12603
0.319652
0.498484
0.650439
0.773945
0.873283
0.956865
1.02454
1.042
1.03799
0.426843
0.552142
0.669816
0.772724
0.860103
0.932816
0.990268
1.0291
1.0498
1.06618
0.631631
0.715195
0.798003
0.871191
0.933955
0.986115
1.02715
1.05825
1.08143
1.10065
0.782255
0.841016
0.901063
0.95515
1.00189
1.04157
1.07471
1.10235
1.12312
1.14205
0.900937
0.945774
0.990911
1.03261
1.06964
1.10228
1.13074
1.15477
1.17303
1.1911
1.00237
1.03862
1.07432
1.10882
1.14057
1.16923
1.1945
1.21566
1.23164
1.24914
1.09152
1.1242
1.15688
1.18844
1.21781
1.24449
1.26786
1.28699
1.30105
1.3181
1.1793
1.21218
1.24492
1.27637
1.30536
1.33134
1.35365
1.37131
1.3838
1.40036
1.27418
1.31071
1.34565
1.37828
1.40761
1.43311
1.45435
1.47074
1.48243
1.4986
1.38747
1.42803
1.46521
1.49834
1.52696
1.55106
1.57077
1.58611
1.59806
1.61415
1.52888
1.57012
1.60547
1.63516
1.66045
1.68213
1.70068
1.71621
1.72936
1.74532
1.70063
1.73326
1.76013
1.78245
1.80258
1.82133
1.8391
1.8559
1.87083
1.88656
1.88713
1.90444
1.92159
1.93829
1.9544
1.96915
1.98307
1.99756
2.01281
2.03012
2.07052
2.08054
2.09377
2.10477
2.11418
2.12384
2.13447
2.14466
2.15396
2.17962
2.2885
2.2828
2.26986
2.2556
2.24931
2.25504
2.27319
2.30171
2.33548
2.37181
2.59131
2.45534
2.37586
2.33337
2.31606
2.32003
2.34747
2.40533
2.513
2.69141
0.878235
0.87193
0.864194
0.85307
0.839485
0.826816
0.816389
0.808334
0.802557
0.799148
0.798699
0.801432
0.806585
0.813884
0.823392
0.835193
0.848736
0.861651
0.870631
0.878167
0.787325
0.793242
0.80131
0.807432
0.810486
0.809955
0.80684
0.802802
0.799149
0.796782
0.796545
0.798694
0.802364
0.806748
0.810803
0.813016
0.811918
0.807264
0.800196
0.792356
0.780618
0.78299
0.78625
0.789011
0.791444
0.79361
0.794757
0.794562
0.793556
0.792652
0.792753
0.794061
0.795755
0.796914
0.796784
0.795277
0.793089
0.790706
0.787708
0.784683
0.775887
0.776975
0.778885
0.781209
0.783062
0.784434
0.785615
0.786553
0.787072
0.787344
0.78777
0.788391
0.788762
0.788562
0.787869
0.786897
0.785529
0.783531
0.781403
0.779919
0.77094
0.771574
0.772695
0.774439
0.776262
0.777825
0.779034
0.780035
0.780926
0.781697
0.782334
0.782717
0.782738
0.782435
0.781819
0.780784
0.779309
0.77766
0.776297
0.775489
0.766117
0.766556
0.767339
0.768628
0.770127
0.771656
0.773081
0.774302
0.775351
0.776295
0.777075
0.777505
0.777542
0.777189
0.776433
0.775357
0.77414
0.772947
0.772013
0.771473
0.761407
0.761735
0.762343
0.763399
0.764672
0.766038
0.767462
0.768855
0.770137
0.771287
0.772232
0.772758
0.772792
0.772395
0.771673
0.770786
0.769855
0.768938
0.768238
0.76784
0.756797
0.757051
0.75754
0.758441
0.759593
0.760868
0.762236
0.76368
0.765135
0.766511
0.767661
0.768323
0.768431
0.768131
0.767583
0.766899
0.766156
0.765442
0.764913
0.764608
0.752222
0.752423
0.752831
0.753624
0.7547
0.755927
0.75728
0.758765
0.760346
0.761948
0.763349
0.764205
0.76449
0.764379
0.764023
0.763525
0.762954
0.762407
0.762008
0.761768
0.747602
0.747763
0.748111
0.748834
0.749868
0.751074
0.752442
0.753986
0.755689
0.757487
0.759174
0.760346
0.76091
0.761048
0.760909
0.760596
0.760193
0.759793
0.7595
0.759309
0.742872
0.743001
0.743307
0.743985
0.745001
0.746227
0.74765
0.74929
0.751164
0.753238
0.755285
0.75682
0.757709
0.758134
0.75823
0.758112
0.75788
0.757615
0.757411
0.757258
0.737955
0.738057
0.738335
0.738998
0.740035
0.74133
0.742867
0.744688
0.746814
0.749231
0.751719
0.753717
0.754983
0.755701
0.756035
0.756111
0.756039
0.755897
0.755767
0.755645
0.732777
0.732855
0.733114
0.733784
0.734882
0.73629
0.73799
0.740055
0.742523
0.745403
0.748453
0.750976
0.75267
0.753724
0.754331
0.754629
0.754712
0.754692
0.754629
0.754533
0.727257
0.727313
0.727562
0.728261
0.729452
0.731009
0.732911
0.735249
0.738127
0.74157
0.745304
0.74849
0.75072
0.752216
0.753168
0.753731
0.753994
0.754094
0.754094
0.754022
0.721303
0.721338
0.721586
0.722326
0.723624
0.725362
0.727541
0.730263
0.73363
0.737731
0.742303
0.746334
0.749255
0.751281
0.752604
0.753445
0.75396
0.754208
0.754275
0.754223
0.714787
0.714794
0.715036
0.715841
0.717307
0.719313
0.72186
0.725093
0.729168
0.734175
0.739795
0.744796
0.748462
0.751053
0.752833
0.754006
0.754759
0.755151
0.755286
0.755254
0.707502
0.707499
0.707758
0.708642
0.710297
0.71261
0.715587
0.719408
0.724282
0.730364
0.737266
0.743474
0.748119
0.751478
0.753836
0.755452
0.756523
0.757096
0.757308
0.757294
0.699216
0.699184
0.69947
0.700469
0.702373
0.705065
0.708599
0.713198
0.719103
0.726499
0.734977
0.742694
0.748495
0.752738
0.755792
0.757973
0.759425
0.760224
0.760523
0.760523
0.689615
0.689563
0.689892
0.691045
0.693243
0.696441
0.700711
0.706325
0.713589
0.722728
0.733144
0.742571
0.749718
0.755007
0.758878
0.761701
0.763619
0.764692
0.765087
0.765095
0.678146
0.678076
0.678474
0.679826
0.682424
0.686273
0.69148
0.698365
0.707285
0.718482
0.731276
0.742875
0.751678
0.758242
0.763126
0.766734
0.769219
0.770605
0.771098
0.771105
0.664067
0.663981
0.664505
0.666181
0.669355
0.674142
0.680664
0.689298
0.700452
0.714334
0.729991
0.744059
0.754706
0.762694
0.768707
0.773175
0.776283
0.778
0.778588
0.778588
0.64637
0.646274
0.647009
0.649191
0.653226
0.659348
0.667687
0.678662
0.692675
0.709862
0.728967
0.74595
0.75875
0.768365
0.775649
0.781097
0.78488
0.786932
0.787607
0.787594
0.623593
0.623504
0.624589
0.627566
0.632965
0.641101
0.65209
0.666325
0.684111
0.705418
0.728576
0.748836
0.764015
0.775414
0.784096
0.7906
0.795092
0.797469
0.798217
0.798189
0.593432
0.593397
0.595105
0.599467
0.607181
0.618541
0.633466
0.652211
0.674852
0.701129
0.728939
0.752835
0.770598
0.783952
0.794134
0.801795
0.807007
0.80968
0.810476
0.810422
0.551833
0.552004
0.555084
0.562318
0.574296
0.590942
0.611717
0.636548
0.665248
0.69733
0.730306
0.758107
0.778614
0.794019
0.805814
0.814702
0.82063
0.823518
0.824309
0.824219
0.491231
0.492578
0.500056
0.513808
0.533519
0.558504
0.587474
0.620029
0.655871
0.694446
0.732949
0.764801
0.788098
0.805593
0.819
0.82913
0.835711
0.83868
0.839369
0.839237
0.418184
0.420937
0.435429
0.459214
0.489626
0.524414
0.562291
0.603096
0.646668
0.692538
0.737652
0.774744
0.801903
0.82243
0.838238
0.849992
0.857454
0.860784
0.861642
0.86165
0.343438
0.350529
0.372209
0.405907
0.446576
0.490975
0.537763
0.586915
0.638326
0.691631
0.743551
0.7861
0.81731
0.841046
0.859496
0.873108
0.881507
0.8848
0.885562
0.885692
0.282808
0.2916
0.317925
0.358646
0.407317
0.459823
0.514644
0.571603
0.630499
0.690897
0.749249
0.796877
0.831822
0.858357
0.878809
0.893721
0.902648
0.906477
0.907773
0.908002
0.233025
0.242501
0.272252
0.318126
0.372876
0.431904
0.493499
0.557315
0.623015
0.690005
0.754368
0.806665
0.84487
0.873724
0.895709
0.911769
0.921666
0.926238
0.927765
0.928027
0.191215
0.200938
0.23298
0.282863
0.342584
0.407055
0.474372
0.544148
0.61592
0.688928
0.758816
0.815372
0.856419
0.887161
0.910434
0.927384
0.938077
0.943164
0.944913
0.945224
0.154929
0.16475
0.198512
0.251577
0.315414
0.384527
0.456838
0.531901
0.609129
0.687646
0.762628
0.823029
0.866598
0.898909
0.923185
0.940826
0.952214
0.957745
0.959642
0.959953
0.122599
0.132441
0.167531
0.223214
0.290509
0.363609
0.440341
0.52017
0.60242
0.686044
0.765783
0.829729
0.875516
0.909159
0.934223
0.95241
0.964143
0.970042
0.972045
0.972365
0.0930139
0.102891
0.139045
0.196955
0.267191
0.343758
0.424422
0.508601
0.595506
0.683949
0.768213
0.835542
0.883383
0.918232
0.943952
0.962517
0.974499
0.980576
0.982649
0.982978
0.0652689
0.0752053
0.112368
0.172208
0.244966
0.324557
0.408746
0.496899
0.588145
0.681185
0.769849
0.840487
0.890362
0.926378
0.952735
0.971644
0.983783
0.989978
0.99202
0.99229
0.0388049
0.0488462
0.0869256
0.148487
0.223466
0.305726
0.393084
0.484873
0.580172
0.677602
0.770605
0.844589
0.896554
0.933798
0.960829
0.980074
0.99235
0.998525
1.00056
1.00076
0.0131905
0.0234155
0.062376
0.125491
0.202423
0.287062
0.377282
0.4724
0.571475
0.673106
0.77041
0.847862
0.902078
0.940681
0.968471
0.988074
1.00047
1.00661
1.00857
1.00875
-0.0118398
-0.00134886
0.0384753
0.103017
0.181693
0.268446
0.361253
0.459413
0.561994
0.667638
0.769228
0.850318
0.907007
0.947147
0.975807
0.995827
1.00834
1.01441
1.01625
1.01638
-0.0363442
-0.0255892
0.0150735
0.0809442
0.161192
0.249838
0.344965
0.445889
0.55171
0.661158
0.76701
0.851935
0.911369
0.953268
0.982929
1.00341
1.01599
1.02191
1.02358
1.02364
-0.0604471
-0.049391
-0.00790067
0.0592413
0.140894
0.231225
0.328429
0.431847
0.540634
0.653661
0.763696
0.852633
0.915128
0.959087
0.989911
1.01086
1.02344
1.02912
1.03057
1.03053
-0.0841361
-0.0727652
-0.0304216
0.0378929
0.120809
0.21264
0.311697
0.417338
0.528806
0.645142
0.759229
0.852305
0.918216
0.964632
0.996849
1.01826
1.03068
1.03596
1.03714
1.03703
-0.107427
-0.0956871
-0.0524772
0.0169201
0.100973
0.194137
0.294826
0.402435
0.51629
0.63563
0.753569
0.850851
0.920517
0.969877
1.00387
1.02577
1.03776
1.0424
1.04324
1.04306
-0.130077
-0.118079
-0.0740223
-0.00363051
0.0814513
0.175798
0.277896
0.387223
0.503172
0.625194
0.746701
0.848175
0.921858
0.974703
1.0111
1.03372
1.04494
1.04848
1.0488
1.04855
-0.15223
-0.139873
-0.0950037
-0.0237113
0.0622886
0.157675
0.261009
0.371794
0.489551
0.613927
0.738641
0.844172
0.922042
0.978865
1.01853
1.04259
1.05289
1.05454
1.05381
1.05346
-0.173688
-0.161017
-0.115391
-0.0432597
0.0435769
0.13986
0.244256
0.356278
0.475545
0.601911
0.729434
0.838758
0.920877
0.981992
1.02582
1.05276
1.06301
1.06214
1.05895
1.0579
-0.194536
-0.181519
-0.135112
-0.0622108
0.0253618
0.12243
0.22773
0.340766
0.461273
0.589294
0.719165
0.831861
0.918177
0.98365
1.03216
1.06375
1.07649
1.07481
1.06779
1.05758
-0.214649
-0.201369
-0.154259
-0.080729
0.00741585
0.105082
0.21107
0.324824
0.446251
0.575531
0.707268
0.822835
0.913383
0.983331
1.03648
1.07399
1.09257
1.09297
1.08253
1.07835
-0.233975
-0.220639
-0.172819
-0.0987413
-0.0102315
0.0878432
0.194316
0.308441
0.430455
0.560514
0.693591
0.811275
0.905861
0.980259
1.03646
1.07783
1.09984
1.10533
1.07222
1.03216
-0.252272
-0.239183
-0.190728
-0.11612
-0.0275503
0.0706934
0.177487
0.291756
0.413969
0.544302
0.678101
0.796944
0.894707
0.973818
1.03032
1.06507
1.08758
1.07588
1.02433
0.967697
-0.272265
-0.255735
-0.207643
-0.132406
-0.0443567
0.0538964
0.160252
0.274824
0.396891
0.52702
0.66076
0.779687
0.878427
0.964727
1.01682
1.05131
1.03842
1.00068
0.938773
0.879001
-0.262351
-0.238469
-0.187813
-0.107909
-0.0145792
0.0877184
0.19961
0.317553
0.442943
0.576945
0.704352
0.809952
0.901458
0.988469
1.02467
0.966926
0.927516
0.872254
0.808509
0.767545