/*--------------------------------*- C++ -*----------------------------------*\
  =========                 |
  \\      /  F ield         | OpenFOAM: The Open Source CFD Toolbox
   \\    /   O peration     | Website:  https://openfoam.org
    \\  /    A nd           | Version:  6
     \\/     M anipulation  |
\*---------------------------------------------------------------------------*/
FoamFile
{
    version     2.0;
    format      ascii;
    class       surfaceScalarField;
    location    "25.7";
    object      phi;
}
// * * * * * * * * * * * * * * * * * * * * * * * * * * * * * * * * * * * * * //

dimensions      [0 3 -1 0 0 0 0];

internalField   nonuniform List<scalar> 
17370
(
-0.0900013
0.0898501
0.289162
-0.0714637
0.0537539
0.364485
-0.0381207
0.0276907
0.426598
-0.0196353
0.0145978
0.504289
-0.0107502
0.00825352
0.601899
-0.00624595
0.00486531
0.720438
-0.00370605
0.00287874
0.863734
-0.00215636
0.00161347
1.03599
-0.00110975
0.000706147
1.24291
-0.000308254
-7.00339e-05
1.49157
0.000434254
-0.000840861
1.4916
0.00124154
-0.00173801
1.24319
0.0022738
-0.00298731
1.03635
0.0038056
-0.00495462
0.864056
0.00632604
-0.00832425
0.721056
0.0108131
-0.0146528
0.603054
0.0196839
-0.0277329
0.507488
0.0381572
-0.0537843
0.431795
0.0714883
-0.0898665
0.365154
0.0900111
0.199
-0.128131
0.0882205
0.0399103
-0.364592
0.353369
-0.0746769
0.0859
-0.446471
0.454312
-0.0843974
0.0765555
-0.521179
0.529889
-0.0684578
0.059748
-0.612774
0.621554
-0.0515606
0.0427801
-0.726878
0.734136
-0.0353202
0.0280627
-0.867471
0.872552
-0.0224857
0.0174051
-1.03847
1.04189
-0.0136223
0.0102008
-1.2446
1.247
-0.00761521
0.00521387
-1.49264
1.49459
-0.00329452
0.0013423
-1.49247
1.4942
0.000327411
-0.00205293
-1.24399
1.24587
0.00395262
-0.00584027
-1.03751
1.04006
0.00820727
-0.0107557
-0.866106
0.869846
0.0141328
-0.0178733
-0.724399
0.72994
0.0229099
-0.0284515
-0.608701
0.616128
0.0356727
-0.0430991
-0.514902
0.523058
0.051843
-0.0599988
-0.439861
0.447934
0.068676
-0.076749
-0.375303
0.37677
0.0845618
-0.0860288
-0.257349
0.222529
0.0747642
-0.0399439
-0.0685045
0.058677
0.0098275
-0.0518218
0.0584123
-0.37411
0.36752
-0.0575041
0.0537587
-0.453586
0.457331
-0.0486711
0.0447175
-0.527933
0.531887
-0.0408726
0.0372244
-0.621539
0.625187
-0.0331045
0.0290212
-0.735298
0.739381
-0.0244665
0.0203439
-0.874266
0.878389
-0.016065
0.0124377
-1.04342
1.04705
-0.0087848
0.00567714
-1.24853
1.25164
-0.00240916
-0.00064185
-1.49665
1.4997
0.00366902
-0.00689387
-1.49722
1.50045
0.00994473
-0.0135222
-1.25007
1.25365
0.0170812
-0.0212861
-1.04591
1.05011
0.0253403
-0.0298196
-0.877768
0.882247
0.0338327
-0.0378768
-0.739945
0.743989
0.0414616
-0.0452433
-0.626827
0.630608
0.0491446
-0.0541824
-0.53486
0.539898
0.0578747
-0.0587178
-0.457524
0.458367
0.0520523
-0.0319146
-0.33583
0.315693
0.00986534
-0.0683997
0.0585344
-0.0529264
0.0489318
0.00399458
-0.0331614
0.0437105
-0.358078
0.347529
-0.0474138
0.0467941
-0.459245
0.459865
-0.0437489
0.0404099
-0.535744
0.539083
-0.0366531
0.0333682
-0.628469
0.631754
-0.029961
0.0269564
-0.742601
0.745605
-0.0237229
0.0206407
-0.881938
0.88502
-0.0171526
0.0138245
-1.05065
1.05398
-0.0101052
0.0066365
-1.25502
1.25849
-0.00276567
-0.000945001
-1.50313
1.50684
0.00463273
-0.00845158
-1.50405
1.50787
0.0118443
-0.0154633
-1.25739
1.26101
0.0186863
-0.0220518
-1.05397
1.05734
0.0250246
-0.0281422
-0.885804
0.888922
0.0310481
-0.034355
-0.747281
0.750588
0.0375527
-0.0412196
-0.634393
0.63806
0.0444827
-0.047444
-0.544212
0.547173
0.0479781
-0.0441568
-0.456694
0.452872
0.0334692
-0.0161205
-0.29641
0.279061
0.0040409
-0.0527427
0.0487018
-0.0458541
0.0433645
0.00248959
-0.0227687
0.0331384
-0.336841
0.326471
-0.0389568
0.0399702
-0.459551
0.458538
-0.0387684
0.0364626
-0.541805
0.544111
-0.0337755
0.0311767
-0.634775
0.637374
-0.0281429
0.0253076
-0.748584
0.751419
-0.0221548
0.0192817
-0.887914
0.890787
-0.0161041
0.0131075
-1.05704
1.06004
-0.00968322
0.00636711
-1.2619
1.26522
-0.00249915
-0.00129522
-1.51069
1.51448
0.00506805
-0.00886349
-1.51174
1.51553
0.0120757
-0.0153608
-1.26441
1.2677
0.0182153
-0.0212339
-1.06041
1.06343
0.0239646
-0.0269656
-0.891962
0.894963
0.0296652
-0.0325563
-0.753811
0.756702
0.0350329
-0.0375977
-0.641194
0.643759
0.039802
-0.0408746
-0.549052
0.550124
0.0397304
-0.033726
-0.447689
0.441684
0.0231573
-0.0100936
-0.263968
0.250904
0.00254632
-0.0455728
0.0430265
-0.0412931
0.0395367
0.00175644
-0.016649
0.0258566
-0.316628
0.307421
-0.0324444
0.0346042
-0.456903
0.454743
-0.034238
0.0326388
-0.546035
0.547634
-0.0305356
0.0284908
-0.63963
0.641675
-0.0260941
0.0237314
-0.754029
0.756391
-0.0209281
0.0182089
-0.893636
0.896355
-0.0150746
0.01212
-1.06304
1.066
-0.00876388
0.00557888
-1.26845
1.27164
-0.00189016
-0.00170863
-1.51815
1.52175
0.00526956
-0.00884996
-1.5192
1.52278
0.0118979
-0.0150702
-1.27095
1.27412
0.0178404
-0.0207669
-1.06646
1.06938
0.0233016
-0.0259123
-0.897815
0.900426
0.0281034
-0.0303178
-0.759221
0.761435
0.0322075
-0.0341534
-0.645942
0.647888
0.0356098
-0.0358054
-0.55068
0.550875
0.0334516
-0.0265997
-0.43515
0.428298
0.0171293
-0.0072127
-0.239554
0.229638
0.00182575
-0.0408935
0.0390677
-0.0380281
0.036719
0.0013091
-0.0126178
0.0204767
-0.298892
0.291033
-0.0271477
0.0300159
-0.452188
0.44932
-0.0301802
0.0290369
-0.548999
0.550143
-0.0270486
0.0251788
-0.643613
0.645482
-0.0230893
0.0211011
-0.758554
0.760542
-0.0187825
0.0164936
-0.898859
0.901148
-0.0137685
0.0110884
-1.06881
1.07149
-0.00793097
0.00486037
-1.27475
1.27783
-0.00128253
-0.00221822
-1.52531
1.52881
0.00566882
-0.00909817
-1.5263
1.52973
0.0119787
-0.0148962
-1.27717
1.28009
0.0173444
-0.0198045
-1.07209
1.07455
0.0218517
-0.023918
-0.902745
0.904811
0.0256911
-0.0275563
-0.763446
0.765311
0.0292345
-0.0310381
-0.649721
0.651525
0.0319778
-0.0315768
-0.550763
0.550362
0.0284312
-0.0213992
-0.421304
0.414272
0.0132054
-0.00548349
-0.220919
0.213197
0.00139377
-0.0374849
0.0360911
-0.0355759
0.0345827
0.000993181
-0.00968591
0.016235
-0.283832
0.277283
-0.0225942
0.0259329
-0.446177
0.442838
-0.026741
0.0260954
-0.551038
0.551684
-0.0244029
0.0226817
-0.647307
0.649028
-0.0207062
0.018814
-0.762475
0.764367
-0.0166325
0.0145067
-0.90332
0.905445
-0.0120047
0.0095363
-1.07403
1.0765
-0.00662553
0.00377207
-1.28078
1.28364
-0.000435967
-0.00280752
-1.53218
1.53543
0.00599049
-0.00914254
-1.53306
1.53621
0.0117546
-0.0143633
-1.28287
1.28548
0.0165363
-0.0187125
-1.07683
1.079
0.0205533
-0.0224375
-0.90673
0.908614
0.024059
-0.0257539
-0.767079
0.768773
0.0272283
-0.028653
-0.653206
0.654631
0.0290353
-0.0278921
-0.549606
0.548463
0.0241806
-0.0173592
-0.407295
0.400474
0.0103984
-0.00428566
-0.206338
0.200225
0.00109571
-0.0348583
0.0337626
-0.0337235
0.0329763
0.000747288
-0.0074344
0.0127889
-0.271351
0.265996
-0.0185187
0.0219556
-0.439402
0.435965
-0.0232104
0.022852
-0.552154
0.552512
-0.0215228
0.0200098
-0.650643
0.652156
-0.0182218
0.0164753
-0.766239
0.767985
-0.0144227
0.0124087
-0.907562
0.909576
-0.0100551
0.00776475
-1.07887
1.08116
-0.00509488
0.00248959
-1.28631
1.28892
0.000569671
-0.00356458
-1.53851
1.5415
0.00647982
-0.00929714
-1.5392
1.54201
0.0115842
-0.0138575
-1.28792
1.2902
0.0157623
-0.0176849
-1.08108
1.083
0.0193209
-0.0209886
-0.910419
0.912087
0.0224098
-0.023855
-0.770348
0.771794
0.0250627
-0.0260585
-0.655812
0.656808
0.0260849
-0.0243922
-0.547002
0.54531
0.0204711
-0.0141592
-0.393889
0.387577
0.00830059
-0.00340006
-0.194766
0.189865
0.000872615
-0.0327946
0.031922
-0.0323314
0.0317797
0.000551697
-0.00559576
0.00987549
-0.261193
0.256913
-0.0148514
0.0181654
-0.432584
0.42927
-0.0196392
0.0194418
-0.552814
0.553012
-0.0182944
0.0168639
-0.653628
0.655059
-0.015215
0.0136561
-0.769659
0.771218
-0.0118527
0.0100806
-0.911458
0.91323
-0.0079717
0.00589205
-1.08328
1.08536
-0.00343911
0.00103617
-1.29138
1.29378
0.00176572
-0.00447179
-1.54436
1.54707
0.00708587
-0.00960431
-1.54471
1.54723
0.011625
-0.013584
-1.29232
1.29428
0.0151789
-0.0167564
-1.08474
1.08632
0.0180571
-0.019378
-0.913561
0.914882
0.0205253
-0.0217394
-0.773086
0.7743
0.0227902
-0.0234743
-0.657675
0.658359
0.0232222
-0.0211625
-0.543447
0.541387
0.0172292
-0.0115371
-0.381574
0.375882
0.00664776
-0.00271738
-0.185483
0.181553
0.000705277
-0.031144
0.0304387
-0.031318
0.0309325
0.000385506
-0.00405254
0.00735929
-0.253133
0.249826
-0.0115083
0.014568
-0.426065
0.423006
-0.0162125
0.0162649
-0.553096
0.553044
-0.0153959
0.0140978
-0.656463
0.657762
-0.0125889
0.0111652
-0.772758
0.774182
-0.00951048
0.00785819
-0.914927
0.916579
-0.00586286
0.00388944
-1.08732
1.08929
-0.00157451
-0.000640706
-1.29603
1.29824
0.00318139
-0.00558309
-1.54957
1.55197
0.0078602
-0.0100311
-1.5496
1.55177
0.0117674
-0.0134501
-1.29614
1.29782
0.0147943
-0.0160737
-1.08776
1.08904
0.0171171
-0.0181819
-0.91603
0.917095
0.0191247
-0.0201416
-0.77538
0.776397
0.0209953
-0.0212836
-0.658869
0.659157
0.0206563
-0.0182581
-0.539178
0.53678
0.0144186
-0.00938875
-0.37053
0.3655
0.00534017
-0.00218544
-0.178045
0.17489
0.000575171
-0.0298156
0.0292404
-0.0306241
0.0303848
0.000239281
-0.00264158
0.00501465
-0.246994
0.244621
-0.00824764
0.0108645
-0.42016
0.417543
-0.0124941
0.0127565
-0.552886
0.552624
-0.0121502
0.0111194
-0.658948
0.659979
-0.00979725
0.00847706
-0.775615
0.776936
-0.00690181
0.00532755
-0.918169
0.919743
-0.00347739
0.00167235
-1.0911
1.09291
0.000413367
-0.00244297
-1.30031
1.30234
0.0047842
-0.00701647
-1.55426
1.5565
0.00910494
-0.0109967
-1.55384
1.55573
0.0124303
-0.0137534
-1.29936
1.30069
0.0147902
-0.0157718
-1.09022
1.0912
0.0165843
-0.0173874
-0.918013
0.918816
0.0180491
-0.0186887
-0.777157
0.777797
0.0191002
-0.0189666
-0.659224
0.65909
0.0179382
-0.0153466
-0.534306
0.531715
0.0117701
-0.0074741
-0.360859
0.356563
0.00420789
-0.00173751
-0.172102
0.169632
0.000472605
-0.0287304
0.0282577
-0.0302241
0.0301452
7.89928e-05
-0.00125272
0.0027245
-0.24272
0.241249
-0.00500817
0.00706097
-0.415209
0.413156
-0.00849997
0.00883119
-0.552299
0.551968
-0.00833721
0.00746071
-0.660945
0.661821
-0.006287
0.0051262
-0.778287
0.779448
-0.00373273
0.00231955
-0.92122
0.922634
-0.000619669
-0.0010213
-1.09452
1.09617
0.00293108
-0.0047514
-1.30418
1.306
0.00680609
-0.00871679
-1.55853
1.56044
0.0104441
-0.0119638
-1.55742
1.55894
0.0130413
-0.013953
-1.30187
1.30278
0.0146081
-0.0151807
-1.09203
1.0926
0.0155853
-0.0160009
-0.919439
0.919854
0.0163804
-0.0167876
-0.778209
0.778616
0.0169234
-0.0164999
-0.65878
0.658357
0.0152124
-0.0125755
-0.529148
0.526511
0.00933899
-0.00575585
-0.352674
0.349091
0.00319467
-0.00132839
-0.167503
0.165637
0.000372878
-0.0278503
0.0274774
-0.0301364
0.0302016
-6.51834e-05
-5.01778e-05
0.000724636
-0.240202
0.239527
-0.00212432
0.00359689
-0.411411
0.409939
-0.00476139
0.00506924
-0.551658
0.551351
-0.0046533
0.00390912
-0.662689
0.663433
-0.00288029
0.00183731
-0.780626
0.781669
-0.000561534
-0.000748066
-0.923902
0.925212
0.00231294
-0.0038547
-1.09764
1.09918
0.00563761
-0.00731998
-1.30769
1.30937
0.00919721
-0.0108735
-1.56218
1.56386
0.0123245
-0.0135245
-1.56031
1.56151
0.014325
-0.014923
-1.30356
1.30416
0.0152609
-0.0154678
-1.09303
1.09323
0.015588
-0.0156249
-0.920038
0.920075
0.0155996
-0.0155396
-0.778666
0.778606
0.0153215
-0.0145685
-0.657784
0.657031
0.013035
-0.0103758
-0.52394
0.521281
0.00746171
-0.0044898
-0.345885
0.342913
0.00247491
-0.00103582
-0.164046
0.162607
0.000293944
-0.0271669
0.0268729
-0.030329
0.0305088
-0.000179768
0.000762269
-0.000723754
-0.239196
0.239157
0.000106134
0.000795876
-0.408781
0.407879
-0.00166458
0.00195392
-0.551052
0.550762
-0.00165998
0.0010507
-0.664176
0.664785
-0.000115013
-0.000922083
-0.782786
0.783823
0.00226417
-0.00364206
-0.926461
0.927839
0.00528295
-0.00686097
-1.10062
1.1022
0.0086514
-0.0103044
-1.31094
1.3126
0.0120754
-0.0135766
-1.56537
1.56687
0.0148059
-0.0157489
-1.56256
1.5635
0.0162932
-0.0166451
-1.30468
1.30504
0.0167747
-0.0167528
-1.09337
1.09335
0.0165773
-0.0163097
-0.919949
0.919681
0.0160378
-0.0156801
-0.778284
0.777926
0.0150324
-0.0138063
-0.656002
0.654775
0.0119729
-0.00925599
-0.518675
0.515958
0.00658081
-0.00400791
-0.340236
0.337663
0.00226439
-0.000969853
-0.161318
0.160023
0.000277032
-0.0266196
0.0263426
-0.0307178
0.0309627
-0.000244946
0.00131719
-0.00169247
-0.239307
0.239683
0.00173431
-0.00141188
-0.407313
0.406991
0.000949301
-0.000803163
-0.550555
0.550408
0.00110782
-0.00169274
-0.665468
0.666053
0.00260989
-0.00366789
-0.784926
0.785984
0.00507179
-0.0065457
-0.929128
0.930602
0.00830903
-0.0100098
-1.10371
1.10541
0.011917
-0.013656
-1.31421
1.31595
0.015493
-0.017022
-1.56834
1.56987
0.018188
-0.0189662
-1.56438
1.56516
0.0192835
-0.0193086
-1.30527
1.30529
0.0191099
-0.0187107
-1.09315
1.09275
0.0182686
-0.0177296
-0.919214
0.918675
0.0171627
-0.0164242
-0.777253
0.776514
0.0154287
-0.013895
-0.653413
0.65188
0.0118703
-0.00915192
-0.513355
0.510637
0.00663685
-0.00421316
-0.335285
0.332861
0.00246975
-0.00108445
-0.158761
0.157375
0.000312608
-0.0260821
0.0257695
-0.0312476
0.0315648
-0.00031725
0.00178681
-0.00250089
-0.240223
0.240937
0.00306061
-0.00334768
-0.407025
0.407312
0.00352553
-0.00378715
-0.550495
0.550756
0.00433317
-0.00509333
-0.666815
0.667575
0.00620643
-0.00745162
-0.787174
0.788419
0.00905019
-0.0106645
-0.931986
0.9336
0.0125645
-0.0143477
-1.10701
1.10879
0.0163045
-0.018045
-1.3176
1.31934
0.0198167
-0.0212106
-1.5713
1.57269
0.0221688
-0.0226336
-1.5658
1.56627
0.0226467
-0.0223367
-1.30519
1.30488
0.0218598
-0.0211562
-1.09217
1.09147
0.0203799
-0.0194329
-0.917859
0.916912
0.0185484
-0.0175344
-0.775532
0.774518
0.0163276
-0.0146157
-0.650279
0.648567
0.0125504
-0.00989342
-0.508101
0.505444
0.00739181
-0.00483931
-0.330516
0.327964
0.00289228
-0.00128688
-0.155955
0.15435
0.000374576
-0.0254619
0.0250873
-0.0319333
0.0323406
-0.000407341
0.00236731
-0.00338632
-0.241816
0.242835
0.00434222
-0.00507397
-0.407837
0.408569
0.00581297
-0.0066115
-0.551416
0.552214
0.00772802
-0.00896593
-0.66872
0.669958
0.0104896
-0.0120594
-0.78983
0.7914
0.0139568
-0.0158064
-0.935099
0.936948
0.0178874
-0.0197854
-1.11044
1.11234
0.0218257
-0.0235572
-1.32096
1.32269
0.0252125
-0.0263777
-1.5739
1.57506
0.0270096
-0.0270935
-1.56654
1.56663
0.0267687
-0.0260532
-1.30442
1.3037
0.0252022
-0.0241259
-1.09056
1.08949
0.0230644
-0.0218907
-0.915717
0.914543
0.0208009
-0.0195488
-0.773226
0.771974
0.0182229
-0.0164459
-0.646873
0.645096
0.0143219
-0.011474
-0.502949
0.500101
0.00865597
-0.00569199
-0.325369
0.322405
0.00341781
-0.00153535
-0.15269
0.150807
0.000452836
-0.0247179
0.0242651
-0.0328087
0.0333359
-0.000527221
0.00316675
-0.00458966
-0.244058
0.245481
0.00593072
-0.00694717
-0.409476
0.410492
0.00798252
-0.00908013
-0.553351
0.554449
0.0105498
-0.0121703
-0.671619
0.67324
0.01418
-0.0162089
-0.793171
0.7952
0.0186249
-0.0208768
-0.938734
0.940986
0.0233461
-0.025578
-1.11417
1.1164
0.0279287
-0.0298962
-1.32436
1.32633
0.0316996
-0.0328549
-1.57609
1.57725
0.0333695
-0.0332321
-1.56651
1.56637
0.0326011
-0.0315347
-1.30279
1.30173
0.0302769
-0.0287844
-1.08819
1.0867
0.0274606
-0.0260598
-0.91319
0.91179
0.0247989
-0.0234696
-0.770515
0.769186
0.0219988
-0.0198419
-0.643272
0.641115
0.0171501
-0.0135347
-0.497181
0.493565
0.0100793
-0.00659173
-0.319347
0.31586
0.00397554
-0.00180704
-0.148881
0.146712
0.000541157
-0.0238198
0.0232786
-0.033941
0.0346354
-0.0006944
0.00429137
-0.00630981
-0.247189
0.249207
0.00822138
-0.00953686
-0.411683
0.412999
0.0106351
-0.0117193
-0.555819
0.556903
0.013209
-0.014962
-0.675164
0.676917
0.0173024
-0.0197803
-0.797389
0.799867
0.0227162
-0.025513
-0.943198
0.945995
0.0286662
-0.0315414
-1.11869
1.12157
0.0345912
-0.0371458
-1.32839
1.33095
0.0395098
-0.0410836
-1.57848
1.58005
0.0418913
-0.0419407
-1.56625
1.5663
0.0413849
-0.0403193
-1.30063
1.29956
0.0390202
-0.0373482
-1.08502
1.08335
0.0356455
-0.0337026
-0.909945
0.908002
0.0319787
-0.0299347
-0.767456
0.765412
0.0275581
-0.0241818
-0.638585
0.635209
0.020315
-0.0156275
-0.489726
0.485039
0.0115124
-0.00755619
-0.31235
0.308394
0.00460393
-0.00211724
-0.144517
0.14203
0.000640713
-0.0227535
0.0221128
-0.035425
0.0363633
-0.000938249
0.0058682
-0.00873339
-0.251599
0.254464
0.0115343
-0.0134312
-0.41466
0.416557
0.0147444
-0.0157286
-0.558308
0.559292
0.0170541
-0.0188344
-0.678908
0.680688
0.0213904
-0.0241881
-0.80234
0.805137
0.0277296
-0.0312637
-0.948816
0.95235
0.0353077
-0.0390126
-1.12459
1.1283
0.0429239
-0.0461836
-1.33368
1.33694
0.0492119
-0.0512683
-1.58178
1.58383
0.0523791
-0.0525683
-1.56641
1.5666
0.0520356
-0.0508742
-1.29844
1.29728
0.0494239
-0.0474688
-1.08147
1.07952
0.0454272
-0.0429764
-0.905647
0.903196
0.0404012
-0.0369483
-0.762512
0.759059
0.033171
-0.0281929
-0.631094
0.626116
0.0231843
-0.0176851
-0.480242
0.474743
0.0131033
-0.00871915
-0.304518
0.300134
0.00537004
-0.00248377
-0.139518
0.136632
0.000752488
-0.0214951
0.0207426
-0.0374099
0.0387146
-0.00130469
0.00808774
-0.0121117
-0.257796
0.26182
0.0161851
-0.019095
-0.41912
0.422029
0.0211522
-0.0224396
-0.56096
0.562248
0.0238916
-0.0257765
-0.682687
0.684572
0.0286585
-0.0320418
-0.807883
0.811266
0.0363888
-0.0406726
-0.955909
0.960192
0.0455349
-0.0499254
-1.13211
1.1365
0.0544793
-0.0581903
-1.34027
1.34398
0.0615251
-0.0636517
-1.58585
1.58797
0.0646125
-0.0644567
-1.56661
1.56646
0.0635027
-0.0617943
-1.29587
1.29416
0.0597667
-0.0571464
-1.07719
1.07457
0.0544168
-0.0509808
-0.900062
0.896626
0.0472668
-0.0424903
-0.754659
0.749883
0.0375316
-0.0315817
-0.620631
0.614682
0.0260192
-0.0201306
-0.46943
0.463542
0.015169
-0.0102392
-0.295893
0.290963
0.00634313
-0.00292922
-0.133717
0.130304
0.000880352
-0.0200183
0.0191379
-0.0401131
0.0419424
-0.0018293
0.0111392
-0.0166405
-0.266317
0.271818
0.0222697
-0.0264975
-0.426014
0.430242
0.0298102
-0.032131
-0.564847
0.567168
0.0345405
-0.0372723
-0.6869
0.689632
0.0411858
-0.0454118
-0.814666
0.818892
0.0505323
-0.0554218
-0.96441
0.9693
0.0608176
-0.0655479
-1.14079
1.14552
0.0702876
-0.0739624
-1.34749
1.35117
0.0769925
-0.0785678
-1.58974
1.59131
0.0787643
-0.0776506
-1.56581
1.56469
0.075738
-0.0729011
-1.2919
1.28906
0.0698208
-0.0660384
-1.07129
1.06751
0.0622163
-0.0575916
-0.892291
0.887666
0.0529188
-0.0473192
-0.744295
0.738695
0.0418245
-0.0355446
-0.608571
0.602291
0.0297584
-0.0234991
-0.457983
0.451723
0.0179676
-0.0122321
-0.286168
0.280432
0.00758507
-0.00348629
-0.126844
0.122746
0.00103883
-0.0182856
0.0172468
-0.0438378
0.0465123
-0.00267446
0.0157467
-0.0232337
-0.277825
0.285312
0.0307925
-0.0366582
-0.436162
0.442028
0.0416843
-0.0456332
-0.571462
0.575411
0.049871
-0.0541985
-0.693178
0.697506
0.0594863
-0.0646649
-0.823038
0.828217
0.0705516
-0.0759047
-0.973985
0.979338
0.0815483
-0.0862666
-1.14993
1.15465
0.0907157
-0.0938595
-1.35436
1.35751
0.0959894
-0.0964277
-1.59219
1.59262
0.0952896
-0.0926606
-1.56276
1.56013
0.0893614
-0.0850437
-1.28544
1.28112
0.0806582
-0.0754854
-1.0629
1.05773
0.0704954
-0.064811
-0.882137
0.876453
0.0594372
-0.0533769
-0.732391
0.726331
0.0476522
-0.0411793
-0.595917
0.589444
0.0350431
-0.0280792
-0.445742
0.438778
0.0216154
-0.0147104
-0.274802
0.267897
0.00906653
-0.00412111
-0.118614
0.113668
0.00120952
-0.0162518
0.0150423
-0.0491516
0.0532935
-0.00414193
0.0231731
-0.0334352
-0.293418
0.30368
0.043444
-0.0513389
-0.450528
0.458423
0.0583012
-0.0640822
-0.581821
0.587602
0.070544
-0.0767332
-0.702651
0.70884
0.0836662
-0.0899362
-0.833348
0.839618
0.0965889
-0.102271
-0.984411
0.990093
0.107898
-0.112273
-1.15886
1.16324
0.115992
-0.118161
-1.3599
1.36207
0.118884
-0.11773
-1.59208
1.59092
0.114854
-0.110374
-1.55646
1.55198
0.105476
-0.0995242
-1.27591
1.26996
0.0937509
-0.0871997
-1.0517
1.04515
0.0811389
-0.0745266
-0.869886
0.863273
0.0685509
-0.0620599
-0.719453
0.712962
0.0559985
-0.0490362
-0.582641
0.575679
0.0421481
-0.0340003
-0.431936
0.423789
0.0261977
-0.0177491
-0.261108
0.252659
0.0108363
-0.00485219
-0.108744
0.10276
0.00139498
-0.0138929
0.0124979
-0.0571407
0.0643428
-0.00720208
0.0364774
-0.0509643
-0.3152
0.329687
0.0646182
-0.0748084
-0.470304
0.480495
0.0836096
-0.0912387
-0.596382
0.604012
0.0999765
-0.107826
-0.715579
0.723428
0.116042
-0.122989
-0.845665
0.852611
0.12992
-0.135465
-0.995279
1.00082
0.140551
-0.144071
-1.16683
1.17035
0.146516
-0.147197
-1.3632
1.36389
0.146024
-0.142874
-1.58854
1.58539
0.137959
-0.131429
-1.54631
1.53978
0.124807
-0.117154
-1.26305
1.2554
0.109984
-0.10211
-1.03776
1.02989
0.0950325
-0.0875082
-0.855727
0.848202
0.0808698
-0.0737903
-0.705366
0.698287
0.06717
-0.0592813
-0.568027
0.560138
0.0511724
-0.0413092
-0.415515
0.405652
0.0317127
-0.021336
-0.244333
0.233957
0.0128751
-0.00565689
-0.0969782
0.08976
0.0015744
-0.0111983
0.00962386
-0.0712015
0.0749708
-0.00376924
0.0268887
-0.0395007
-0.347079
0.359691
0.0516314
-0.061025
-0.4959
0.505293
0.0700048
-0.0793353
-0.614958
0.624289
0.089959
-0.0993865
-0.73086
0.740288
0.109825
-0.119028
-0.858769
0.867973
0.128638
-0.136937
-1.00539
1.01369
0.145287
-0.152067
-1.17267
1.17945
0.158249
-0.162449
-1.36322
1.36742
0.164995
-0.16491
-1.58076
1.58067
0.162023
-0.156705
-1.53191
1.5266
0.150226
-0.141848
-1.24672
1.23834
0.133587
-0.12362
-1.02116
1.01119
0.114526
-0.104613
-0.839684
0.829771
0.0958165
-0.086419
-0.689736
0.680338
0.0773745
-0.0667403
-0.551108
0.540474
0.0558209
-0.0426213
-0.395361
0.382161
0.0305413
-0.018615
-0.223628
0.211702
0.00997054
-0.00375545
-0.0831135
0.0768984
0.000782595
-0.00825983
0.00747724
-0.0822912
0.0798327
0.00245844
0.00527061
-0.0130317
-0.375272
0.383033
0.0219613
-0.0292551
-0.519243
0.526537
0.0373114
-0.0454151
-0.635344
0.643448
0.0550345
-0.063816
-0.749495
0.758276
0.0731301
-0.081552
-0.876744
0.885165
0.0903229
-0.0975655
-1.02172
1.02897
0.105011
-0.110674
-1.186
1.19167
0.115726
-0.118776
-1.37121
1.37426
0.119821
-0.118413
-1.57952
1.57811
0.114301
-0.107876
-1.52015
1.51373
0.100361
-0.0911027
-1.22923
1.21997
0.0821925
-0.0720474
-1.0007
0.990553
0.0625883
-0.0522055
-0.818499
0.808116
0.0430807
-0.0339909
-0.667741
0.658651
0.0262763
-0.0181643
-0.527095
0.518983
0.0110118
-0.00466802
-0.368198
0.361854
0.000688887
0.00166089
-0.199537
0.197187
-0.00238451
0.00179504
-0.07013
0.0707195
-0.000840649
-0.00595973
0.00680038
-0.0828253
0.0798062
0.00301905
-0.00294766
-0.00111675
-0.394115
0.398179
0.00669066
-0.0122217
-0.537596
0.543127
0.0188415
-0.0258892
-0.652837
0.659885
0.0341583
-0.0417351
-0.76642
0.773996
0.0499797
-0.0572843
-0.892931
0.900236
0.0646689
-0.0711363
-1.03606
1.04253
0.0776016
-0.0825933
-1.19694
1.20193
0.0865921
-0.0887381
-1.37664
1.37878
0.0892053
-0.0872282
-1.57597
1.574
0.0827064
-0.0760775
-1.50663
1.5
0.06866
-0.0598816
-1.21057
1.2018
0.0511707
-0.0416047
-0.980073
0.970507
0.0327628
-0.0231598
-0.797683
0.78808
0.0149369
-0.00668876
-0.647785
0.639536
5.14763e-05
0.00617391
-0.508245
0.502019
-0.0101848
0.0121091
-0.353144
0.35122
-0.0117391
0.00965684
-0.19219
0.194272
-0.00691927
0.00370278
-0.0700901
0.0733066
-0.00131328
-0.0065998
0.00791308
-0.0812598
0.0783733
0.00288653
-0.00612884
0.00434655
-0.406242
0.408024
-0.000920533
-0.00335371
-0.551736
0.55601
0.00918908
-0.0151379
-0.667384
0.673332
0.0222453
-0.0287782
-0.781209
0.787742
0.0358449
-0.0421267
-0.907129
0.913411
0.0488603
-0.0543844
-1.04862
1.05414
0.0600936
-0.0640892
-1.20657
1.21057
0.0675856
-0.0693892
-1.38078
1.38259
0.0694733
-0.067167
-1.57167
1.56936
0.062937
-0.0568455
-1.49297
1.48688
0.0500689
-0.0418254
-1.19296
1.18471
0.034063
-0.0255905
-0.960844
0.952372
0.0176503
-0.00935906
-0.778516
0.770224
0.0019221
0.00527588
-0.62991
0.622713
-0.0108982
0.0154293
-0.493557
0.489026
-0.0176618
0.0175862
-0.345459
0.345534
-0.015366
0.0115168
-0.193448
0.197297
-0.00792855
0.00397059
-0.0750426
0.0790006
-0.00131002
-0.00831099
0.00962101
-0.0796022
0.0771558
0.00244633
-0.00683809
0.0064241
-0.414292
0.414706
-0.00383487
0.000597463
-0.563306
0.566543
0.00424017
-0.00964456
-0.679733
0.685137
0.0156765
-0.0214765
-0.793819
0.799619
0.0276617
-0.0331886
-0.919378
0.924905
0.0390602
-0.0440782
-1.05961
1.06463
0.0490183
-0.0528254
-1.21451
1.21831
0.0559416
-0.0575475
-1.38413
1.38573
0.0576065
-0.0554906
-1.56704
1.56492
0.05167
-0.046033
-1.48034
1.47471
0.039996
-0.0328231
-1.17666
1.16949
0.026032
-0.0185349
-0.943858
0.936361
0.0117755
-0.00462961
-0.76186
0.754714
-0.00152433
0.0075343
-0.614809
0.608799
-0.0120259
0.01549
-0.482234
0.47877
-0.0171019
0.0166726
-0.341708
0.342138
-0.0142519
0.0105686
-0.197721
0.201404
-0.00716419
0.00348401
-0.0809384
0.0846186
-0.00115294
-0.0100948
0.0112478
-0.0782282
0.0761877
0.00204055
-0.00643246
0.00631224
-0.419795
0.419915
-0.00476854
0.00197996
-0.572405
0.575194
0.00261657
-0.00724367
-0.690361
0.694988
0.0124887
-0.0175916
-0.804842
0.809945
0.0231675
-0.0281946
-0.930216
0.935243
0.0336796
-0.0381931
-1.06946
1.07397
0.0427879
-0.0463686
-1.22193
1.22551
0.0492851
-0.0508272
-1.38718
1.38872
0.0509458
-0.0494516
-1.56285
1.56136
0.0460474
-0.0412033
-1.46885
1.464
0.0358639
-0.0295509
-1.16239
1.15608
0.0238326
-0.0172365
-0.928988
0.922392
0.0114097
-0.00545261
-0.747676
0.741719
0.000305199
0.00467051
-0.60241
0.597434
-0.00836453
0.0113098
-0.473368
0.470423
-0.0124206
0.012045
-0.339263
0.339639
-0.0103773
0.00749381
-0.201407
0.204291
-0.00494339
0.00244386
-0.0858262
0.0883258
-0.00083046
-0.0115307
0.0123612
-0.0772907
0.0757366
0.00155406
-0.0053383
0.00539798
-0.423966
0.423907
-0.00395813
0.00174904
-0.580538
0.582747
0.00243459
-0.00663736
-0.699706
0.703909
0.0116694
-0.0161448
-0.814825
0.8193
0.021133
-0.0256811
-0.94035
0.944899
0.0309933
-0.0352068
-1.07859
1.0828
0.0394395
-0.0429764
-1.229
1.23254
0.0462326
-0.0478381
-1.39038
1.39198
0.048295
-0.0470554
-1.55959
1.55835
0.0443984
-0.0399261
-1.45909
1.45462
0.0353657
-0.0299382
-1.1498
1.14437
0.0248091
-0.0192224
-0.916017
0.91043
0.0141367
-0.00885196
-0.735653
0.730368
0.00467788
-0.000360358
-0.592017
0.587699
-0.00289779
0.00527933
-0.465949
0.463568
-0.00643571
0.00653536
-0.337033
0.336933
-0.00559877
0.00390029
-0.203574
0.205273
-0.00248757
0.00124056
-0.0885109
0.089758
-0.000456435
-0.0123469
0.0128033
-0.0769073
0.0757122
0.00119514
-0.00413527
0.00423729
-0.427397
0.427295
-0.00278036
0.000582071
-0.587709
0.589908
0.00327445
-0.00707895
-0.708207
0.712012
0.0114712
-0.0158408
-0.823864
0.828233
0.0205307
-0.0252852
-0.949358
0.954112
0.029967
-0.0340883
-1.08719
1.09131
0.0385565
-0.0419837
-1.23603
1.23946
0.0449329
-0.0471035
-1.39358
1.39575
0.0479435
-0.0471964
-1.55725
1.5565
0.0449323
-0.0412562
-1.4504
1.44673
0.0372309
-0.032365
-1.13873
1.13387
0.0278213
-0.022766
-0.904809
0.899753
0.0181941
-0.0135837
-0.725143
0.720533
0.00954192
-0.00568614
-0.582923
0.579067
0.00277702
-0.000292351
-0.459625
0.45714
-0.00111916
0.00150948
-0.334127
0.333736
-0.00152928
0.00118938
-0.203629
0.203968
-0.000883334
0.000552281
-0.0890705
0.0894016
-0.000288895
-0.0125083
0.0127972
-0.0770805
0.0760841
0.000996437
-0.0028001
0.00264952
-0.430621
0.430771
-0.00136108
-0.00094264
-0.594333
0.596636
0.00449955
-0.0082023
-0.716194
0.719897
0.0124587
-0.0164814
-0.832521
0.836543
0.0213421
-0.02538
-0.958388
0.962426
0.0301016
-0.0341268
-1.09565
1.09968
0.038571
-0.0422797
-1.24293
1.24664
0.0456361
-0.0477219
-1.39776
1.39984
0.0490433
-0.0488326
-1.55574
1.55553
0.0473244
-0.0440369
-1.44296
1.43967
0.0404792
-0.0360385
-1.12907
1.12463
0.0319039
-0.0271749
-0.894495
0.889766
0.0230095
-0.018566
-0.715674
0.711231
0.0147516
-0.0109918
-0.574733
0.570973
0.00799799
-0.00558521
-0.453362
0.450949
0.00381881
-0.00278829
-0.330443
0.329412
0.00185815
-0.00107384
-0.201706
0.200922
0.000438244
6.23819e-05
-0.0878124
0.0873117
-0.000180037
-0.0121992
0.0123792
-0.0775416
0.0768475
0.000694047
-0.00164726
0.00104396
-0.434039
0.434642
0.000119673
-0.00253614
-0.600271
0.602688
0.00579016
-0.00939181
-0.72371
0.727312
0.0135094
-0.0176908
-0.840538
0.844719
0.0219998
-0.0262426
-0.966744
0.970987
0.0309824
-0.0348595
-1.10417
1.10805
0.0394696
-0.0432148
-1.25021
1.25395
0.0467186
-0.0494226
-1.40239
1.40509
0.0513297
-0.0514986
-1.55539
1.55556
0.050285
-0.0477208
-1.43654
1.43398
0.0446709
-0.0405007
-1.12001
1.11584
0.0365006
-0.0321705
-0.884866
0.880536
0.0278386
-0.0236729
-0.706486
0.702321
0.0199323
-0.016096
-0.566951
0.563115
0.0131334
-0.0103172
-0.446988
0.444172
0.00819625
-0.0063281
-0.325871
0.324003
0.00475214
-0.00304604
-0.198038
0.196332
0.00156665
-0.000423488
-0.0851837
0.0840405
-5.19077e-05
-0.0115466
0.0115985
-0.0783886
0.0778455
0.000543055
-0.000691139
0.000119916
-0.437698
0.438269
0.00162189
-0.00385485
-0.606322
0.608555
0.00727961
-0.0107698
-0.730777
0.734267
0.0147569
-0.0185765
-0.84867
0.85249
0.0230428
-0.0270171
-0.975296
0.97927
0.031749
-0.0361001
-1.11242
1.11677
0.0404159
-0.0445419
-1.2578
1.26192
0.0485342
-0.0514046
-1.40774
1.41061
0.053763
-0.0547652
-1.55598
1.55698
0.0540336
-0.0520757
-1.43127
1.42931
0.0491852
-0.0453853
-1.11163
1.10783
0.0416732
-0.0373374
-0.875715
0.87138
0.0331931
-0.0289512
-0.697573
0.693331
0.0251728
-0.0211583
-0.558881
0.554867
0.0178882
-0.0147796
-0.440207
0.437098
0.0120195
-0.00946372
-0.319977
0.317421
0.00714692
-0.00467652
-0.192739
0.190269
0.00262669
-0.00095256
-0.0815066
0.0798324
0.000127329
-0.0106977
0.0105703
-0.0794893
0.0791132
0.000376121
0.000347786
-0.00113894
-0.441519
0.44231
0.0027501
-0.00523786
-0.611991
0.614479
0.00858618
-0.0119286
-0.73763
0.740972
0.0160078
-0.0197034
-0.856361
0.860057
0.0240449
-0.0281635
-0.983764
0.987882
0.0328383
-0.0371865
-1.12102
1.12537
0.0417607
-0.0459594
-1.26601
1.27021
0.0501906
-0.0538515
-1.4138
1.41747
0.0567229
-0.0580807
-1.55795
1.55931
0.0580591
-0.0564256
-1.42723
1.4256
0.0540398
-0.050653
-1.10389
1.1005
0.0468784
-0.042606
-0.866659
0.862386
0.0384921
-0.0340632
-0.688642
0.684213
0.0302685
-0.0260464
-0.550726
0.546504
0.0225772
-0.0189303
-0.432854
0.429207
0.0157717
-0.0125153
-0.312862
0.309606
0.0093741
-0.00616771
-0.186018
0.182812
0.00355977
-0.00139488
-0.0768728
0.074708
0.000268658
-0.00964973