/*--------------------------------*- C++ -*----------------------------------*\
  =========                 |
  \\      /  F ield         | OpenFOAM: The Open Source CFD Toolbox
   \\    /   O peration     | Website:  https://openfoam.org
    \\  /    A nd           | Version:  6
     \\/     M anipulation  |
\*---------------------------------------------------------------------------*/
FoamFile
{
    version     2.0;
    format      ascii;
    class       volVectorField;
    location    "25.7";
    object      U;
}
// * * * * * * * * * * * * * * * * * * * * * * * * * * * * * * * * * * * * * //

dimensions      [0 1 -1 0 0 0 0];

internalField   nonuniform List<vector> 
8800
(
(0.987187 -0.0766662 0)
(1.0019 -0.0551909 0)
(0.999762 -0.0285503 0)
(1.00005 -0.015139 0)
(1.00005 -0.00853026 0)
(1.00002 -0.00501871 0)
(1.00001 -0.00298077 0)
(1.00001 -0.00171359 0)
(1.00002 -0.000829871 0)
(1.00005 -0.000122811 0)
(1.00003 0.000580077 0)
(1.00002 0.00135061 0)
(1.00002 0.00238148 0)
(1.00002 0.00395629 0)
(1.00004 0.006599 0)
(1.00007 0.0113442 0)
(0.999988 0.0207955 0)
(0.999181 0.0386559 0)
(1.00709 0.0724503 0)
(0.771216 0.0366595 0)
(0.363059 -0.0160183 0)
(1.0433 -0.0768202 0)
(1.0846 -0.070455 0)
(1.0452 -0.0535506 0)
(1.02325 -0.0389077 0)
(1.01191 -0.0262361 0)
(1.00633 -0.0169134 0)
(1.00355 -0.0104111 0)
(1.00215 -0.00577652 0)
(1.00146 -0.0021738 0)
(1.00133 0.00109868 0)
(1.00173 0.0044395 0)
(1.00271 0.00840034 0)
(1.00467 0.0137895 0)
(1.0086 0.0215055 0)
(1.01659 0.0324878 0)
(1.03256 0.0464176 0)
(1.06273 0.0615603 0)
(1.09191 0.0760182 0)
(0.838791 0.0565301 0)
(0.216801 -0.00242968 0)
(1.07588 -0.0501485 0)
(1.0999 -0.0483362 0)
(1.06464 -0.040495 0)
(1.03991 -0.0336298 0)
(1.02368 -0.0261022 0)
(1.01388 -0.0185528 0)
(1.00838 -0.0118188 0)
(1.00547 -0.00605645 0)
(1.00429 -0.000728425 0)
(1.00463 0.00444797 0)
(1.00654 0.00979956 0)
(1.01051 0.0159018 0)
(1.01787 0.0229777 0)
(1.03057 0.0305028 0)
(1.05076 0.0375861 0)
(1.08055 0.044321 0)
(1.10647 0.0511764 0)
(0.942856 0.0415313 0)
(0.216375 0.00244892 0)
(0.175125 -0.000815425 0)
(1.01763 -0.0354915 0)
(1.10513 -0.0413989 0)
(1.07812 -0.0361003 0)
(1.05323 -0.0301953 0)
(1.03593 -0.0246583 0)
(1.02376 -0.0189954 0)
(1.01568 -0.0130154 0)
(1.01091 -0.00691559 0)
(1.0088 -0.000706063 0)
(1.00942 0.00542794 0)
(1.01266 0.0114229 0)
(1.01888 0.0172949 0)
(1.02883 0.02293 0)
(1.04331 0.0282825 0)
(1.06389 0.0338121 0)
(1.0938 0.0398422 0)
(1.09382 0.0416881 0)
(0.827943 0.0227878 0)
(0.174413 0.000837358 0)
(0.153935 -0.00060731 0)
(0.956143 -0.0254305 0)
(1.10343 -0.0351 0)
(1.08758 -0.0326019 0)
(1.06143 -0.0279146 0)
(1.04369 -0.0229316 0)
(1.03127 -0.0178647 0)
(1.02252 -0.0125655 0)
(1.01682 -0.00680971 0)
(1.01409 -0.000470915 0)
(1.01484 0.00590086 0)
(1.01887 0.0117538 0)
(1.02587 0.0170073 0)
(1.03619 0.0218981 0)
(1.05086 0.0266833 0)
(1.07229 0.031316 0)
(1.10063 0.035391 0)
(1.06897 0.0336074 0)
(0.741072 0.0141262 0)
(0.152867 0.000632078 0)
(0.139602 -0.000461996 0)
(0.899327 -0.0189823 0)
(1.09562 -0.0299664 0)
(1.09546 -0.0291598 0)
(1.0688 -0.0255539 0)
(1.05026 -0.0214771 0)
(1.03735 -0.0167775 0)
(1.02833 -0.0116663 0)
(1.02231 -0.00614754 0)
(1.01934 -6.79448e-05 0)
(1.0201 0.00605611 0)
(1.0243 0.0115888 0)
(1.03148 0.0165545 0)
(1.04207 0.0211558 0)
(1.05735 0.0252444 0)
(1.07967 0.0287463 0)
(1.10299 0.0313885 0)
(1.03753 0.0274824 0)
(0.675566 0.0099468 0)
(0.138103 0.000490719 0)
(0.129157 -0.000353425 0)
(0.850116 -0.0145442 0)
(1.0833 -0.0256668 0)
(1.10095 -0.0258789 0)
(1.07541 -0.0225955 0)
(1.05639 -0.0191393 0)
(1.04301 -0.0152398 0)
(1.03359 -0.0106487 0)
(1.02732 -0.00544988 0)
(1.02419 0.000424821 0)
(1.02486 0.00632212 0)
(1.0291 0.0115065 0)
(1.03649 0.0159998 0)
(1.04744 0.0198021 0)
(1.06312 0.0230439 0)
(1.08585 0.0260723 0)
(1.1025 0.0280704 0)
(1.00385 0.0227197 0)
(0.625247 0.00749015 0)
(0.127133 0.000387575 0)
(0.121261 -0.000269313 0)
(0.808604 -0.0112294 0)
(1.0682 -0.0218491 0)
(1.10449 -0.0231419 0)
(1.08143 -0.0203624 0)
(1.06171 -0.0170934 0)
(1.04794 -0.0134887 0)
(1.03822 -0.00929916 0)
(1.03172 -0.00443356 0)
(1.0284 0.00105075 0)
(1.02895 0.00647175 0)
(1.0332 0.0112446 0)
(1.0407 0.015246 0)
(1.05186 0.0186003 0)
(1.06801 0.0215387 0)
(1.09138 0.0242622 0)
(1.09941 0.0252954 0)
(0.970299 0.0187965 0)
(0.585678 0.00581745 0)
(0.118601 0.000310019 0)
(0.1153 -0.000200936 0)
(0.774363 -0.00865993 0)
(1.05166 -0.0182495 0)
(1.10634 -0.0202364 0)
(1.08678 -0.0179748 0)
(1.06687 -0.014997 0)
(1.05287 -0.0116003 0)
(1.04291 -0.00771224 0)
(1.03615 -0.00328015 0)
(1.03259 0.00179269 0)
(1.03303 0.00680602 0)
(1.03725 0.0109991 0)
(1.04478 0.0144611 0)
(1.05604 0.0174222 0)
(1.07236 0.0199982 0)
(1.09525 0.0222797 0)
(1.09348 0.0225331 0)
(0.938574 0.0155435 0)
(0.554133 0.00459546 0)
(0.111867 0.000250262 0)
(0.110838 -0.000145802 0)
(0.746658 -0.0065451 0)
(1.03539 -0.0149006 0)
(1.10754 -0.0172268 0)
(1.09171 -0.0152093 0)
(1.07163 -0.012483 0)
(1.05749 -0.00948797 0)
(1.04735 -0.0059906 0)
(1.04035 -0.00194385 0)
(1.03655 0.00268982 0)
(1.03677 0.00722154 0)
(1.0409 0.0108911 0)
(1.04842 0.0138093 0)
(1.05965 0.0161874 0)
(1.07604 0.0182752 0)
(1.09812 0.0201927 0)
(1.08593 0.0198897 0)
(0.909645 0.0127968 0)
(0.528809 0.00365217 0)
(0.10646 0.000205919 0)
(0.107625 -9.75986e-05 0)
(0.724819 -0.004762 0)
(1.01996 -0.0117695 0)
(1.10788 -0.0143924 0)
(1.09641 -0.0127713 0)
(1.07582 -0.0102707 0)
(1.06129 -0.00754117 0)
(1.05109 -0.00422472 0)
(1.04412 -0.000393221 0)
(1.04015 0.00379005 0)
(1.04007 0.00771874 0)
(1.0438 0.0108875 0)
(1.05098 0.0133717 0)
(1.0622 0.0152773 0)
(1.07911 0.0169752 0)
(1.09981 0.0184779 0)
(1.07695 0.0174849 0)
(0.883783 0.0104904 0)
(0.508469 0.00291612 0)
(0.10209 0.000171804 0)
(0.105477 -5.53905e-05 0)
(0.708463 -0.00312943 0)
(1.00624 -0.00863173 0)
(1.10718 -0.0112553 0)
(1.10027 -0.0101195 0)
(1.07965 -0.00790473 0)
(1.06494 -0.00529397 0)
(1.05443 -0.00225277 0)
(1.04698 0.00120858 0)
(1.04262 0.00508623 0)
(1.04222 0.00870027 0)
(1.04585 0.01135 0)
(1.05307 0.0132151 0)
(1.06429 0.0147067 0)
(1.08125 0.0158988 0)
(1.09996 0.0166673 0)
(1.06688 0.0149669 0)
(0.86133 0.00840141 0)
(0.49229 0.00229136 0)
(0.0985069 0.000146673 0)
(0.104381 -5.53767e-06 0)
(0.697528 -0.00154382 0)
(0.995041 -0.00545183 0)
(1.10595 -0.00779184 0)
(1.10358 -0.00689437 0)
(1.08348 -0.00494506 0)
(1.06871 -0.00264494 0)
(1.05818 0.000165049 0)
(1.05075 0.00329119 0)
(1.04615 0.00669332 0)
(1.04526 0.00969404 0)
(1.04831 0.0116909 0)
(1.055 0.0129121 0)
(1.06592 0.0136609 0)
(1.08272 0.0143574 0)
(1.09903 0.014662 0)
(1.05647 0.0124785 0)
(0.842491 0.00651022 0)
(0.479904 0.00174217 0)
(0.095637 0.000120296 0)
(0.104348 3.39671e-05 0)
(0.691517 -0.000179606 0)
(0.98664 -0.00258928 0)
(1.10469 -0.00450371 0)
(1.10637 -0.00376308 0)
(1.08652 -0.00205443 0)
(1.07146 4.54982e-05 0)
(1.06066 0.00264932 0)
(1.0529 0.00556048 0)
(1.04791 0.00864962 0)
(1.04649 0.011194 0)
(1.04899 0.0126629 0)
(1.05543 0.0133301 0)
(1.06625 0.0135407 0)
(1.0829 0.0134684 0)
(1.09708 0.01314 0)
(1.04596 0.010459 0)
(0.826872 0.00508774 0)
(0.470583 0.00136972 0)
(0.0934205 9.82653e-05 0)
(0.105223 8.33197e-05 0)
(0.68957 0.000788115 0)
(0.980972 -0.000324342 0)
(1.10343 -0.00175978 0)
(1.10877 -0.00123297 0)
(1.0896 0.000306176 0)
(1.07461 0.00253258 0)
(1.06379 0.00522407 0)
(1.05574 0.0081613 0)
(1.05019 0.011057 0)
(1.04811 0.0132057 0)
(1.05003 0.0142733 0)
(1.05575 0.0145473 0)
(1.06601 0.014256 0)
(1.08224 0.0137755 0)
(1.09368 0.0126883 0)
(1.03526 0.00938671 0)
(0.813726 0.00448614 0)
(0.462944 0.00129829 0)
(0.0915634 9.60397e-05 0)
(0.106667 0.000103468 0)
(0.690434 0.00135656 0)
(0.978132 0.00138403 0)
(1.10256 0.000607869 0)
(1.11095 0.00116619 0)
(1.09263 0.00265317 0)
(1.07777 0.00499241 0)
(1.0668 0.00788551 0)
(1.0584 0.0110181 0)
(1.0522 0.0140078 0)
(1.04927 0.0160671 0)
(1.0503 0.0167405 0)
(1.05535 0.0164055 0)
(1.06495 0.0155968 0)
(1.08046 0.0145922 0)
(1.08905 0.0128862 0)
(1.02449 0.0092076 0)
(0.801959 0.00463574 0)
(0.455419 0.00145609 0)
(0.0896375 0.000110638 0)
(0.108613 0.000131632 0)
(0.693522 0.00191101 0)
(0.978165 0.00281482 0)
(1.10275 0.00305695 0)
(1.1133 0.00403956 0)
(1.09583 0.00584817 0)
(1.08114 0.00851632 0)
(1.07003 0.0115925 0)
(1.06108 0.0148041 0)
(1.05403 0.0176746 0)
(1.05001 0.0193764 0)
(1.05004 0.0194978 0)
(1.05417 0.0186584 0)
(1.06311 0.0172763 0)
(1.07788 0.0156541 0)
(1.08362 0.0135454 0)
(1.01394 0.0097972 0)
(0.790308 0.00528451 0)
(0.446953 0.00172168 0)
(0.0873717 0.0001344 0)
(0.111146 0.000166851 0)
(0.698568 0.00255367 0)
(0.980565 0.00407588 0)
(1.10517 0.00528331 0)
(1.11692 0.00720811 0)
(1.09977 0.00971293 0)
(1.08491 0.0128641 0)
(1.07346 0.0162678 0)
(1.06386 0.0195511 0)
(1.0558 0.0222351 0)
(1.05046 0.0233784 0)
(1.0493 0.0228858 0)
(1.05245 0.0213915 0)
(1.06046 0.0194934 0)
(1.0745 0.0174651 0)
(1.0779 0.0151249 0)
(1.00349 0.0112844 0)
(0.77737 0.0062137 0)
(0.437044 0.00204222 0)
(0.0846439 0.000164973 0)
(0.1144 0.000213314 0)
(0.705657 0.00343427 0)
(0.984794 0.00557889 0)
(1.10942 0.00726443 0)
(1.1222 0.00981262 0)
(1.10472 0.0131031 0)
(1.08931 0.0170884 0)
(1.07712 0.021121 0)
(1.06657 0.0249254 0)
(1.05712 0.027834 0)
(1.05022 0.0287788 0)
(1.04771 0.0278022 0)
(1.04988 0.0255874 0)
(1.0574 0.0231824 0)
(1.07068 0.0208686 0)
(1.07176 0.0182992 0)
(0.991259 0.0134336 0)
(0.762123 0.00717695 0)
(0.425537 0.0023933 0)
(0.0813627 0.000199803 0)
(0.118644 0.000277459 0)
(0.715609 0.00467967 0)
(0.990302 0.00778065 0)
(1.1144 0.00950249 0)
(1.12835 0.0121429 0)
(1.111 0.0159976 0)
(1.09482 0.0208466 0)
(1.08179 0.0259732 0)
(1.07005 0.0309265 0)
(1.05884 0.0347479 0)
(1.05008 0.0362345 0)
(1.04594 0.0353917 0)
(1.04665 0.0331064 0)
(1.05324 0.0300871 0)
(1.06609 0.0267895 0)
(1.06319 0.0226057 0)
(0.975259 0.0156702 0)
(0.744573 0.00817717 0)
(0.412373 0.00279899 0)
(0.077477 0.000238539 0)
(0.12426 0.000373549 0)
(0.729606 0.00643564 0)
(0.997867 0.0109682 0)
(1.11922 0.0129833 0)
(1.13472 0.015422 0)
(1.11818 0.0196213 0)
(1.1018 0.0254445 0)
(1.08791 0.0320606 0)
(1.07458 0.0384131 0)
(1.0612 0.0433382 0)
(1.05022 0.045372 0)
(1.04412 0.0445628 0)
(1.04309 0.0420237 0)
(1.04799 0.0383648 0)
(1.05829 0.0335953 0)
(1.04943 0.0267294 0)
(0.955405 0.0176911 0)
(0.725153 0.00938223 0)
(0.397298 0.00328717 0)
(0.0729084 0.000280667 0)
(0.131849 0.000520233 0)
(0.7492 0.00887351 0)
(1.00937 0.0154619 0)
(1.12464 0.0187289 0)
(1.14114 0.0213331 0)
(1.12628 0.0261457 0)
(1.11047 0.0332085 0)
(1.09549 0.0411661 0)
(1.08004 0.0485854 0)
(1.06395 0.054032 0)
(1.05026 0.055842 0)
(1.04188 0.0542889 0)
(1.03867 0.0506956 0)
(1.041 0.0457944 0)
(1.04646 0.0390503 0)
(1.03118 0.0300426 0)
(0.933492 0.0199232 0)
(0.703924 0.0109825 0)
(0.379846 0.00389087 0)
(0.0675784 0.000327009 0)
(0.142191 0.00073324 0)
(0.77571 0.0121997 0)
(1.02697 0.0213129 0)
(1.13325 0.0267268 0)
(1.14875 0.0307458 0)
(1.13633 0.0373527 0)
(1.12067 0.0456836 0)
(1.10402 0.0545007 0)
(1.08582 0.0622455 0)
(1.06636 0.0672255 0)
(1.0494 0.0677405 0)
(1.03824 0.0644457 0)
(1.03243 0.0589321 0)
(1.03129 0.0520383 0)
(1.03146 0.0435669 0)
(1.01097 0.0335593 0)
(0.910595 0.0230237 0)
(0.680004 0.0131053 0)
(0.35922 0.00465123 0)
(0.0613331 0.000382134 0)
(0.156538 0.0010803 0)
(0.811022 0.0171568 0)
(1.05262 0.0293746 0)
(1.14796 0.0376982 0)
(1.1606 0.0448524 0)
(1.14861 0.053559 0)
(1.13199 0.0631781 0)
(1.11279 0.0724364 0)
(1.0911 0.0797488 0)
(1.06762 0.0832855 0)
(1.04686 0.0814947 0)
(1.03245 0.07565 0)
(1.02367 0.0677434 0)
(1.01889 0.0587135 0)
(1.01469 0.0489447 0)
(0.990093 0.0384992 0)
(0.886054 0.0273476 0)
(0.652041 0.015807 0)
(0.334672 0.00552995 0)
(0.05407 0.000439331 0)
(0.177067 0.00169632 0)
(0.85823 0.0249657 0)
(1.0885 0.0410867 0)
(1.17021 0.0527737 0)
(1.17784 0.0636899 0)
(1.16354 0.0749521 0)
(1.14413 0.0858886 0)
(1.12115 0.095198 0)
(1.09512 0.101372 0)
(1.06703 0.102611 0)
(1.04204 0.0977754 0)
(1.02415 0.0889615 0)
(1.01219 0.0784969 0)
(1.00418 0.0674979 0)
(0.996587 0.0565914 0)
(0.968113 0.0455196 0)
(0.858293 0.0330367 0)
(0.618689 0.0191547 0)
(0.305651 0.00656122 0)
(0.0457576 0.000496714 0)
(0.207031 0.00305829 0)
(0.922683 0.0383548 0)
(1.13664 0.0602124 0)
(1.20028 0.0750156 0)
(1.2004 0.0900684 0)
(1.18091 0.1034 0)
(1.15657 0.114924 0)
(1.12847 0.123385 0)
(1.09726 0.127469 0)
(1.06408 0.125532 0)
(1.03464 0.117074 0)
(1.01319 0.105052 0)
(0.998151 0.0920141 0)
(0.987321 0.0791323 0)
(0.976867 0.0669873 0)
(0.943845 0.0548257 0)
(0.825475 0.040151 0)
(0.578842 0.023132 0)
(0.27235 0.00773507 0)
(0.0366518 0.000542993 0)
(0.248306 0.0093977 -1.00267e-21)
(1.00791 0.0652867 -6.4379e-22)
(1.19369 0.0931004 1.03399e-22)
(1.2364 0.110517 0)
(1.2255 0.127852 -8.9485e-36)
(1.19875 0.14132 1.59771e-22)
(1.16799 0.151726 -4.64677e-22)
(1.13384 0.158117 0)
(1.09685 0.159272 1.34272e-35)
(1.05804 0.153612 -9.43401e-22)
(1.02374 0.141293 0)
(0.99833 0.126051 -1.28079e-21)
(0.979953 0.110568 -3.88097e-21)
(0.966199 0.0959684 -1.86694e-21)
(0.95272 0.0827081 -5.81251e-22)
(0.914273 0.0696126 -3.50253e-22)
(0.783604 0.0517188 0)
(0.528899 0.0298525 2.50005e-22)
(0.234657 0.010829 2.96656e-22)
(0.0282351 0.001127 5.34212e-21)
(0.275471 0.0250989 -3.23889e-21)
(1.078 0.108357 1.03235e-22)
(1.24124 0.140805 -1.37473e-22)
(1.26942 0.159694 0)
(1.24826 0.175833 -1.13909e-22)
(1.21431 0.187801 -3.50335e-22)
(1.17688 0.196376 -3.87863e-22)
(1.13633 0.20054 -1.96524e-21)
(1.09307 0.198977 0)
(1.04782 0.190019 4.01094e-21)
(1.00745 0.174248 4.29348e-21)
(0.976917 0.156215 1.35177e-21)
(0.954128 0.138602 5.22104e-21)
(0.936451 0.122333 7.58809e-21)
(0.918234 0.107451 0)
(0.873309 0.0922101 1.11372e-20)
(0.733122 0.070445 1.62021e-20)
(0.478557 0.0428675 1.81182e-20)
(0.204502 0.0175201 -2.08853e-20)
(0.0224571 0.0019448 -3.92447e-22)
(0.274839 0.0413497 0)
(1.12139 0.164335 -1.1351e-21)
(1.27526 0.200101 0)
(1.29504 0.21886 1.42836e-21)
(1.26619 0.231621 0)
(1.22595 0.240275 -5.55994e-23)
(1.18233 0.245673 6.57778e-22)
(1.13569 0.246655 -3.38306e-21)
(1.08644 0.241725 -3.16357e-22)
(1.03517 0.229217 1.99287e-21)
(0.989203 0.210165 9.88249e-21)
(0.954059 0.189727 -6.19655e-23)
(0.927459 0.170545 -3.89812e-21)
(0.906424 0.153157 -7.45103e-21)
(0.885149 0.137473 8.98316e-21)
(0.838145 0.120585 -1.61161e-20)
(0.703519 0.0948588 -2.1916e-21)
(0.463853 0.0615045 0)
(0.208719 0.027612 9.17467e-24)
(0.0256707 0.00356156 0)
(0.267336 0.0552202 -3.04921e-20)
(1.14353 0.223775 1.2319e-20)
(1.29694 0.264524 6.30998e-21)
(1.31185 0.282736 -1.05625e-21)
(1.27773 0.291707 1.56244e-21)
(1.23268 0.296477 -2.00684e-22)
(1.184 0.29806 1.23075e-21)
(1.13214 0.295259 0)
(1.07752 0.286608 -8.56612e-21)
(1.02079 0.270321 0)
(0.969922 0.248033 -5.10258e-21)
(0.930818 0.22533 -6.9237e-21)
(0.901092 0.204815 -4.35591e-21)
(0.877553 0.186646 -5.53657e-21)
(0.85444 0.170145 0)
(0.808749 0.152252 0)
(0.686073 0.123556 -1.46942e-20)
(0.466691 0.0847603 2.9341e-21)
(0.222971 0.0408426 -1.70808e-21)
(0.0314097 0.00609477 -2.02162e-21)
(0.259491 0.0676323 2.34288e-20)
(1.15218 0.282979 0)
(1.30907 0.329997 -1.83672e-20)
(1.32095 0.347828 -4.27083e-21)
(1.28313 0.353203 -2.69849e-21)
(1.23446 0.354134 0)
(1.18182 0.351823 5.86072e-22)
(1.12567 0.345143 3.42266e-21)
(1.06653 0.332607 4.01042e-21)
(1.00507 0.312485 9.93437e-21)
(0.949972 0.2869 0)
(0.907664 0.261984 -1.51066e-20)
(0.875528 0.240091 -9.52672e-21)
(0.85016 0.221229 -5.72286e-21)
(0.826052 0.204315 3.69534e-20)
(0.782742 0.185541 4.51821e-21)
(0.672562 0.154692 2.15235e-20)
(0.472192 0.109696 -1.03416e-19)
(0.236483 0.0559215 6.15463e-20)
(0.0366995 0.00905028 -7.51331e-20)
(0.252462 0.0788352 2.53599e-20)
(1.15249 0.340109 -4.57682e-21)
(1.3144 0.395251 3.35694e-21)
(1.32399 0.412395 8.70395e-21)
(1.2834 0.414425 4.85116e-21)
(1.23194 0.411693 3.42255e-22)
(1.17618 0.405641 -7.421e-22)
(1.11653 0.395188 3.13263e-21)
(1.05357 0.378845 -8.76701e-21)
(0.988133 0.354853 0)
(0.929481 0.325955 -6.58324e-21)
(0.884559 0.29874 -3.12847e-22)
(0.850644 0.27542 -1.06278e-20)
(0.824039 0.255761 0)
(0.799501 0.238472 -8.07114e-21)
(0.758712 0.218936 -1.95927e-20)
(0.65909 0.186346 5.38284e-20)
(0.473467 0.134995 -5.3503e-20)
(0.244394 0.0709083 7.62859e-20)
(0.0402859 0.0119842 -8.03076e-20)
(0.246845 0.0893055 -1.06419e-22)
(1.14777 0.394605 5.76751e-21)
(1.31445 0.458526 1.64366e-20)
(1.32233 0.47533 -5.53065e-21)
(1.27967 0.474376 2.84541e-21)
(1.22604 0.468233 0)
(1.1677 0.458679 4.19762e-22)
(1.10513 0.44464 -2.9848e-21)
(1.03891 0.424616 -4.24636e-21)
(0.970053 0.396823 0)
(0.90838 0.364544 -6.5598e-21)
(0.861336 0.334862 -8.91172e-21)
(0.826085 0.309893 1.16266e-20)
(0.798762 0.289239 -7.35514e-21)
(0.774275 0.271399 -3.55736e-20)
(0.735908 0.25115 2.17721e-20)
(0.6441 0.216666 6.78617e-21)
(0.469169 0.158696 0)
(0.245359 0.0840328 -7.41464e-20)
(0.0415996 0.014415 -2.75828e-21)
(0.242609 0.0993364 4.28166e-21)
(1.14014 0.446295 -6.73117e-21)
(1.31066 0.519231 -9.05368e-21)
(1.31714 0.535989 -1.68866e-20)
(1.27283 0.532398 1.44449e-20)
(1.21748 0.523177 -6.4413e-21)
(1.15703 0.510402 -8.24001e-22)
(1.09195 0.493012 -4.64489e-21)
(1.0229 0.46947 3.50106e-21)
(0.95094 0.437956 -2.44633e-20)
(0.886654 0.402235 -7.89229e-21)
(0.837856 0.369923 0)
(0.801587 0.343022 1.27054e-20)
(0.773924 0.320992 1.56076e-20)
(0.749794 0.302181 1.91187e-20)
(0.713525 0.280832 -2.37448e-20)
(0.627373 0.243836 -7.13455e-21)
(0.459689 0.178913 8.4547e-21)
(0.241426 0.0943932 0)
(0.0411517 0.0161649 -6.00807e-21)
(0.239544 0.109023 -5.04747e-20)
(1.13106 0.495243 3.11854e-20)
(1.30417 0.577149 1.00526e-20)
(1.30934 0.59405 -1.31276e-20)
(1.26372 0.588125 8.94464e-21)
(1.20696 0.576148 -8.01614e-22)
(1.14473 0.56047 5.29684e-22)
(1.07747 0.540001 -1.78109e-21)
(1.00588 0.513153 -7.54888e-21)
(0.931094 0.478044 4.20143e-23)
(0.864317 0.438832 -2.3898e-20)
(0.813998 0.403637 2.24325e-20)
(0.777032 0.374572 -1.41804e-20)
(0.749223 0.350871 1.75094e-20)
(0.725506 0.330715 0)
(0.69085 0.307881 -1.28886e-20)
(0.608539 0.26775 -2.09941e-22)
(0.445839 0.195825 -3.69634e-20)
(0.233127 0.101984 -5.47149e-21)
(0.0393722 0.0172165 0)
(0.237502 0.118546 0)
(1.12134 0.541692 3.40648e-20)
(1.29571 0.632223 2.3831e-20)
(1.29965 0.649335 1.50157e-20)
(1.25293 0.641341 8.35562e-21)
(1.19502 0.626937 0)
(1.13128 0.60866 1.85176e-21)
(1.06211 0.585401 -2.43754e-22)
(0.988198 0.555512 1.61154e-20)
(0.910753 0.516976 -3.1215e-21)
(0.841627 0.474263 -1.74581e-20)
(0.789844 0.43601 1.13493e-20)
(0.752212 0.404388 -4.01257e-22)
(0.724293 0.378688 1.84863e-20)
(0.700993 0.356858 1.19395e-20)
(0.667567 0.332099 -2.80122e-20)
(0.587698 0.288118 3.37719e-20)
(0.428456 0.209111 1.00874e-20)
(0.22146 0.106978 4.18431e-20)
(0.0365236 0.0175653 -1.1323e-19)
(0.23634 0.128016 -1.32171e-20)
(1.11152 0.585799 1.98963e-20)
(1.28595 0.684485 -1.52333e-20)
(1.28864 0.701804 -1.77618e-20)
(1.241 0.691958 0)
(1.18211 0.675415 6.60175e-21)
(1.11707 0.654839 -4.77858e-21)
(1.04621 0.629089 3.00814e-21)
(0.970163 0.596446 0)
(0.890178 0.554692 -4.72398e-20)
(0.818658 0.508521 4.75244e-20)
(0.76524 0.467052 0)
(0.726848 0.432656 1.67383e-20)
(0.698852 0.404586 -4.0088e-22)
(0.675929 0.380742 -3.78494e-20)
(0.643295 0.353597 1.48956e-20)
(0.56476 0.305129 0)
(0.408217 0.218847 5.46038e-20)
(0.207285 0.109598 0)
(0.0330344 0.0173091 -5.38397e-20)
(0.235874 0.137446 1.48386e-20)
(1.10193 0.627715 2.29576e-20)
(1.27532 0.733957 -1.59548e-20)
(1.27676 0.751462 0)
(1.22834 0.739968 1.21619e-20)
(1.16862 0.721544 0)
(1.10246 0.698936 7.63895e-21)
(1.03007 0.670988 -9.28009e-23)
(0.952016 0.635895 2.20717e-21)
(0.869494 0.591194 -2.33585e-20)
(0.795397 0.541646 4.69794e-21)
(0.740263 0.496873 0)
(0.700993 0.459395 -3.56509e-20)
(0.67283 0.428722 4.12538e-22)
(0.650167 0.402565 0)
(0.617872 0.372592 4.77078e-22)
(0.539663 0.318966 4.95964e-20)
(0.385244 0.225078 -4.75911e-20)
(0.191081 0.109785 1.41126e-20)
(0.029066 0.0164619 0)
(0.235764 0.146719 0)
(1.09273 0.667547 2.58717e-20)
(1.26418 0.780724 1.89894e-20)
(1.26437 0.798362 -4.54457e-22)
(1.21527 0.785387 7.90692e-21)
(1.15484 0.765316 1.57737e-20)
(1.0877 0.740931 -2.25335e-21)
(1.01393 0.711065 -1.14319e-21)
(0.933954 0.673826 1.11764e-20)
(0.84887 0.626485 -3.67489e-20)
(0.772098 0.573769 -6.62685e-22)
(0.714965 0.525598 -1.48507e-20)
(0.674609 0.484875 5.82972e-20)
(0.646119 0.451305 -4.89197e-22)
(0.623598 0.422514 -2.97144e-20)
(0.591218 0.389179 -5.41046e-20)
(0.512501 0.329678 0)
(0.359849 0.227941 0)
(0.173177 0.107484 1.53691e-20)
(0.0247909 0.0150794 -9.12276e-21)
(0.236121 0.155949 1.87145e-20)
(1.08406 0.705123 -5.69541e-20)
(1.25278 0.824876 -2.0402e-20)
(1.25172 0.842566 0)
(1.20205 0.828267 -3.20953e-22)
(1.14102 0.806757 1.96731e-20)
(1.07302 0.780833 -8.98356e-21)
(0.997988 0.749316 7.88408e-22)
(0.916195 0.710252 1.30961e-20)
(0.828569 0.66062 -2.89068e-20)
(0.748922 0.604983 -4.04625e-20)
(0.689431 0.553462 3.96535e-20)
(0.647648 0.509255 0)
(0.618667 0.472495 -1.33897e-20)
(0.596146 0.440694 -3.25134e-20)
(0.563266 0.403383 -3.91129e-20)
(0.483253 0.337123 -4.72435e-20)
(0.332233 0.227334 1.41048e-20)
(0.153783 0.102648 -8.30785e-21)
(0.0202129 0.0131574 7.49407e-23)
(0.236631 0.164926 0)
(1.07594 0.740996 0)
(1.24131 0.866496 5.39829e-22)
(1.23903 0.884161 0)
(1.18887 0.868688 -3.03681e-20)
(1.12734 0.84592 -1.78752e-20)
(1.0586 0.818664 0)
(0.982436 0.785756 -6.0828e-22)
(0.898934 0.745178 1.95649e-20)
(0.808762 0.69364 -6.64593e-20)
(0.725996 0.635403 0)
(0.663785 0.580629 -2.54581e-20)
(0.620177 0.532807 -5.97474e-22)
(0.590394 0.492477 -4.89379e-22)
(0.567714 0.457176 3.47149e-20)
(0.533959 0.415158 -8.30993e-23)
(0.451993 0.34122 -1.02369e-19)
(0.302396 0.223069 3.05898e-20)
(0.133192 0.0953721 9.09575e-21)
(0.0155582 0.0108134 0)
(0.237156 0.173699 -6.97359e-20)
(1.06812 0.775124 -3.5344e-20)
(1.22987 0.905664 -5.19934e-20)
(1.22645 0.923245 7.07439e-20)
(1.17588 0.906713 -5.75985e-20)
(1.11394 0.882861 0)
(1.04458 0.854469 -8.59119e-21)
(0.967407 0.820405 8.80095e-22)
(0.882304 0.778615 7.71572e-22)
(0.789587 0.72556 5.12812e-21)
(0.703528 0.665125 5.12852e-20)
(0.638182 0.607328 -8.77336e-21)
(0.592202 0.555789 -3.60296e-20)
(0.561189 0.511464 -1.58448e-20)
(0.538136 0.471987 1.92198e-20)
(0.50322 0.424319 -5.85094e-23)
(0.418972 0.341733 2.79201e-20)
(0.270812 0.215105 -6.62132e-20)
(0.112148 0.0860067 7.88599e-20)
(0.0110244 0.00819809 1.16039e-20)
(0.237424 0.182163 2.57722e-20)
(1.06063 0.807582 -1.94558e-20)
(1.2186 0.942492 1.25768e-21)
(1.2141 0.959937 4.03942e-20)
(1.1632 0.942448 1.36946e-20)
(1.10093 0.917644 3.62281e-20)
(1.03106 0.888288 -4.14685e-21)
(0.953 0.85328 5.27138e-21)
(0.86641 0.810558 -1.76033e-20)
(0.771202 0.756381 -3.75109e-20)
(0.681707 0.694205 0)
(0.612806 0.633739 -3.92569e-20)
(0.563824 0.578509 5.22506e-20)
(0.530924 0.529758 0)
(0.507114 0.485109 -4.1163e-20)
(0.47087 0.43045 2.52744e-20)
(0.384393 0.338132 -3.01346e-20)
(0.238568 0.203437 -3.60236e-20)
(0.0916191 0.0750619 -6.3952e-20)
(0.00687147 0.00550664 -5.05149e-20)
(0.237991 0.190417 -2.84987e-20)
(1.05332 0.838353 2.08277e-20)
(1.20755 0.977049 4.92544e-20)
(1.20206 0.994319 5.58598e-20)
(1.1509 0.975976 -2.86434e-20)
(1.08839 0.950349 2.54849e-20)
(1.01812 0.920168 -1.27912e-20)
(0.939288 0.88442 8.00767e-21)
(0.851334 0.841027 -9.3142e-21)
(0.753741 0.786121 3.71486e-20)
(0.660694 0.722693 1.10292e-19)
(0.587855 0.659974 0)
(0.535208 0.601293 0)
(0.499478 0.547819 -1.83352e-20)
(0.474112 0.496651 0)
(0.436369 0.432787 5.48632e-20)
(0.34854 0.329242 6.55238e-20)
(0.207096 0.187672 0)
(0.0730167 0.0630477 0)
(0.00337326 0.00297303 5.47201e-20)
(0.238161 0.198132 3.16365e-20)
(1.04622 0.867435 2.53343e-20)
(1.19678 1.00945 3.55318e-20)
(1.19038 1.02652 -5.03125e-20)
(1.13904 1.0074 -3.22326e-20)
(1.07636 0.981045 -3.43229e-20)
(1.0058 0.95017 1.92613e-20)
(0.926326 0.913854 8.51494e-23)
(0.837149 0.870026 -9.99878e-22)
(0.737285 0.814762 -1.19826e-21)
(0.640663 0.750607 5.62318e-20)
(0.563564 0.686131 0)
(0.506601 0.624402 5.29314e-20)
(0.466819 0.56627 3.88569e-20)
(0.438366 0.507124 9.78312e-20)
(0.398388 0.43051 2.9642e-20)
(0.311183 0.312714 -3.58415e-20)
(0.179242 0.165799 -2.10552e-20)
(0.0605594 0.0498298 0)
(0.00151373 0.00088564 5.92154e-20)
(0.238647 0.205813 -7.00341e-20)
(1.0393 0.894947 0)
(1.18631 1.03976 4.00383e-20)
(1.17909 1.05661 -4.14661e-20)
(1.12767 1.0368 3.69272e-20)
(1.06489 1.00981 5.08639e-20)
(0.994148 0.978347 -4.59037e-20)
(0.914145 0.941617 -8.07266e-23)
(0.823883 0.897562 0)
(0.721906 0.842259 -3.72142e-20)
(0.621772 0.777928 -1.18496e-19)
(0.540152 0.712259 5.49476e-21)
(0.478347 0.648037 7.23955e-20)
(0.433127 0.585766 0)
(0.399135 0.517634 6.62176e-20)
(0.354535 0.423845 0)
(0.269162 0.285258 0)
(0.156921 0.128367 -2.32307e-20)
(0.0742585 0.0230049 0)
(0.0239028 0.00583399 1.59442e-20)
(0.238659 0.212859 -7.69729e-20)
(1.03254 0.921163 0)
(1.17612 1.06817 6.51987e-20)
(1.16817 1.08482 0)
(1.11674 1.06443 -2.0245e-20)
(1.05391 1.03693 0)
(0.983084 1.005 -3.58942e-21)
(0.902648 0.968043 -1.67585e-21)
(0.811425 0.924002 9.62789e-22)
(0.707457 0.868996 -3.84301e-20)
(0.603891 0.805093 3.2501e-21)
(0.517481 0.738903 4.51892e-20)
(0.450238 0.672759 7.0378e-20)
(0.398003 0.607275 9.90768e-21)
(0.355102 0.53025 5.20385e-20)
(0.301044 0.415457 0)
(0.211555 0.248624 7.76273e-20)
(0.112073 0.0679029 -4.58837e-20)
(0.037562 0.0601061 5.3026e-20)
(-0.0364125 0.43491 -6.29107e-20)
(0.238597 0.219674 6.30378e-20)
(1.02576 0.945951 9.76266e-20)
(1.16615 1.09501 0)
(1.1575 1.11159 1.08373e-21)
(1.10609 1.09086 5.5357e-20)
(1.04318 1.06308 -1.00268e-19)
(0.972322 1.03093 -2.08908e-20)
(0.891461 0.994069 0)
(0.799286 0.95044 2.23668e-21)
(0.693316 0.896284 -1.53539e-21)
(0.586165 0.83359 0)
(0.494456 0.767849 0)
(0.421004 0.700365 6.2128e-20)
(0.360086 0.632622 -3.09186e-20)
(0.304002 0.548517 -5.2264e-20)
(0.234393 0.411539 0)
(0.118196 0.231803 3.98843e-20)
(0.015653 0.453703 -4.65884e-20)
(0.039045 1.87685 -2.55104e-20)
(0.0671623 2.798 -3.14168e-20)
(0.2382 0.225885 -4.65292e-20)
(1.019 0.969488 -1.23892e-19)
(1.1564 1.12026 3.79531e-20)
(1.14708 1.13677 3.59117e-20)
(1.09579 1.1159 0)
(1.03276 1.08798 -7.23187e-20)
(0.962049 1.05582 -3.5728e-20)
(0.880754 1.01926 1.30188e-21)
(0.78772 0.976358 4.09724e-22)
(0.679841 0.923501 3.25328e-20)
(0.569185 0.862681 5.50724e-20)
(0.472068 0.798697 4.77039e-20)
(0.391817 0.730373 6.1479e-20)
(0.321682 0.660245 -7.11324e-20)
(0.252682 0.574892 -7.79291e-20)
(0.154982 0.443761 0)
(0.0570324 0.853407 0)
(0.104976 2.54586 2.11523e-20)
(0.108238 3.18994 0)
(0.108706 3.38136 5.36707e-20)
(0.240551 0.231649 0)
(1.01251 0.992078 0)
(1.1466 1.1438 0)
(1.13671 1.16018 1.01e-20)
(1.08557 1.13933 4.98463e-20)
(1.02247 1.11149 -5.58177e-20)
(0.95219 1.07956 -2.58641e-20)
(0.870455 1.0435 1.56109e-21)
(0.776661 1.00158 -3.19759e-21)
(0.667027 0.950487 -2.09398e-21)
(0.55305 0.892151 1.02598e-19)
(0.450728 0.831418 -5.58546e-21)
(0.363103 0.763254 7.0874e-21)
(0.284946 0.687443 1.0211e-20)
(0.197162 0.60747 2.27982e-22)
(0.117887 0.994032 3.24301e-22)
(0.148181 2.70105 -1.07946e-19)
(0.158108 3.28932 -4.08457e-20)
(0.144677 3.4242 2.03854e-20)
(0.130042 3.44601 -2.2057e-20)
(0.162507 0.176355 2.76914e-20)
(1.00141 1.01655 0)
(1.1367 1.16586 -7.5006e-20)
(1.1268 1.18214 -9.37833e-20)
(1.07586 1.16162 1.04587e-19)
(1.01291 1.13404 5.93859e-20)
(0.942537 1.10219 3.07726e-20)
(0.860595 1.06682 -2.99098e-20)
(0.766233 1.02611 5.83607e-21)
(0.655163 0.977208 0)
(0.538181 0.921902 4.65572e-20)
(0.431017 0.865604 -3.66132e-20)
(0.335474 0.801772 0)
(0.250479 0.719526 9.3563e-21)
(0.16561 0.863137 2.30717e-20)
(0.162949 2.47179 -2.72063e-20)
(0.221637 3.32525 3.10398e-20)
(0.199792 3.44152 1.57839e-20)
(0.165191 3.46145 1.82264e-20)
(0.142656 3.47033 2.58631e-20)
(0.274986 0.269247 -5.41575e-20)
(0.9838 1.02594 0)
(1.11872 1.19084 7.82978e-20)
(1.1131 1.21493 9.88148e-20)
(1.06041 1.1948 -1.09429e-19)
(0.997154 1.16775 -6.45367e-20)
(0.925909 1.13723 -4.86346e-20)
(0.84347 1.10312 -2.1961e-21)
(0.747958 1.06465 -1.21363e-20)
(0.63446 1.01986 1.53843e-20)
(0.512838 0.970869 2.08964e-21)
(0.398269 0.923125 2.93367e-20)
(0.286432 0.872942 6.00998e-21)
(0.223846 1.01803 -8.42085e-21)
(0.234141 2.33216 -1.96883e-20)
(0.290218 3.33347 1.68983e-20)
(0.275352 3.47561 -1.70743e-20)
(0.238203 3.49434 -9.94439e-21)
(0.201105 3.51853 -5.0439e-21)
(0.151975 3.51127 -9.43736e-22)
(0.264747 0.267836 0)
(0.980863 1.04819 2.08379e-20)
(1.11062 1.21384 -1.55371e-20)
(1.10324 1.23775 -1.10626e-20)
(1.05057 1.21759 -7.20953e-20)
(0.987493 1.19078 6.30942e-20)
(0.916024 1.16051 3.30383e-20)
(0.833561 1.12725 -2.37249e-21)
(0.737801 1.09031 1.64771e-20)
(0.623477 1.04846 -2.99504e-21)
(0.499839 1.0043 -6.80191e-20)
(0.38181 0.962553 4.17463e-21)
(0.275771 0.945945 -5.33413e-21)
(0.26143 1.51726 -7.11878e-21)
(0.328658 3.10394 3.70016e-21)
(0.349123 3.47809 5.02049e-22)
(0.304786 3.53244 1.12065e-20)
(0.267765 3.55178 1.57166e-21)
(0.218932 3.57204 7.51777e-21)
(0.163936 3.5664 6.67433e-22)
(0.250223 0.265257 5.1769e-20)
(0.976893 1.07287 1.39882e-19)
(1.10204 1.2388 -4.43454e-20)
(1.09301 1.2621 -4.19655e-20)
(1.04041 1.2418 0)
(0.977499 1.215 9.32698e-20)
(0.906068 1.18499 5.09161e-20)
(0.823847 1.15252 -2.56761e-21)
(0.728161 1.11717 1.65944e-21)
(0.613531 1.07843 -1.3198e-21)
(0.488671 1.03957 -2.52308e-20)
(0.369479 1.00529 -3.01681e-20)
(0.283196 1.08013 -3.61987e-20)
(0.327656 2.2008 3.87974e-20)
(0.412876 3.39252 2.56114e-20)
(0.391414 3.5433 0)
(0.338403 3.57952 0)
(0.299567 3.6148 7.3997e-21)
(0.246461 3.66479 0)
(0.173895 3.6417 1.87836e-20)
(0.239731 0.266502 -7.56518e-20)
(0.970867 1.09828 -1.16439e-19)
(1.0921 1.26492 0)
(1.08164 1.28733 1.28273e-21)
(1.02913 1.26664 -7.06299e-20)
(0.966508 1.23972 1.39223e-19)
(0.895437 1.20998 3.45698e-20)
(0.813696 1.1782 -3.41512e-21)
(0.71835 1.14436 2.16658e-20)
(0.603837 1.10866 -6.93331e-22)
(0.478515 1.07524 0)
(0.361188 1.05178 0)
(0.314489 1.32189 -2.79881e-20)
(0.408809 2.87341 1.00605e-20)
(0.485118 3.50677 5.94622e-21)
(0.432065 3.5826 0)
(0.387532 3.63648 2.33929e-20)
(0.338942 3.68975 -3.75741e-20)
(0.287119 3.65978 -3.67557e-20)
(0.186982 3.63675 3.77142e-21)