/*--------------------------------*- C++ -*----------------------------------*\
  =========                 |
  \\      /  F ield         | OpenFOAM: The Open Source CFD Toolbox
   \\    /   O peration     | Website:  https://openfoam.org
    \\  /    A nd           | Version:  6
     \\/     M anipulation  |
\*---------------------------------------------------------------------------*/
FoamFile
{
    version     2.0;
    format      ascii;
    class       volVectorField;
    location    "67";
    object      U;
}
// * * * * * * * * * * * * * * * * * * * * * * * * * * * * * * * * * * * * * //

dimensions      [0 1 -1 0 0 0 0];

internalField   nonuniform List<vector> 
2200
(
(0.877625 -0.0201792 0)
(1.00471 -0.0399811 0)
(1.00283 -0.0342582 0)
(1.00032 -0.0231751 0)
(0.99992 -0.015451 0)
(1.00003 -0.0100895 0)
(1 -0.00636997 0)
(0.999982 -0.00387833 0)
(1 -0.0020808 0)
(1.00014 -0.000541299 0)
(1.00017 0.000882772 0)
(1.0004 0.00235412 0)
(1.00035 0.00417624 0)
(1.00029 0.00664906 0)
(1.00016 0.0103147 0)
(0.999958 0.0156301 0)
(1.00049 0.023231 0)
(1.0031 0.034126 0)
(1.00473 0.0400536 0)
(0.877659 0.0201934 0)
(0.700822 -0.0265887 0)
(0.993612 -0.0586202 0)
(1.02975 -0.0597011 0)
(1.02179 -0.0488349 0)
(1.01386 -0.0360946 0)
(1.0083 -0.0250127 0)
(1.00509 -0.0167338 0)
(1.00326 -0.01062 0)
(1.0022 -0.00578941 0)
(1.00163 -0.00159714 0)
(1.00147 0.00268808 0)
(1.00171 0.00698288 0)
(1.00277 0.0115714 0)
(1.00466 0.0175074 0)
(1.00801 0.0256673 0)
(1.01368 0.0366767 0)
(1.02147 0.0495172 0)
(1.02924 0.060507 0)
(0.9935 0.0587374 0)
(0.700533 0.0266208 0)
(0.530479 -0.0214103 0)
(0.966292 -0.0552432 0)
(1.05274 -0.0605762 0)
(1.04845 -0.0532292 0)
(1.03238 -0.0414762 0)
(1.02126 -0.031567 0)
(1.01372 -0.0227178 0)
(1.009 -0.0151063 0)
(1.00624 -0.00843384 0)
(1.005 -0.00209969 0)
(1.00519 0.00409699 0)
(1.0065 0.0100853 0)
(1.00914 0.0167203 0)
(1.01364 0.0242395 0)
(1.02092 0.0328882 0)
(1.03184 0.0425801 0)
(1.04803 0.0539712 0)
(1.05267 0.0605083 0)
(0.965462 0.0556241 0)
(0.529272 0.0215615 0)
(0.393171 -0.0132631 0)
(0.909903 -0.0453669 0)
(1.05583 -0.0512906 0)
(1.0665 -0.0472098 0)
(1.05112 -0.0388898 0)
(1.03583 -0.0310568 0)
(1.02483 -0.0238744 0)
(1.01721 -0.016817 0)
(1.01225 -0.00970015 0)
(1.00939 -0.00238968 0)
(1.00903 0.00520325 0)
(1.01142 0.0125618 0)
(1.01621 0.0192807 0)
(1.02379 0.0259373 0)
(1.03484 0.0327639 0)
(1.05019 0.0402448 0)
(1.06535 0.0481844 0)
(1.05406 0.0520344 0)
(0.907676 0.0458518 0)
(0.390352 0.0134548 0)
(0.309245 -0.00618028 0)
(0.846371 -0.0330526 0)
(1.0482 -0.0428781 0)
(1.07728 -0.0391517 0)
(1.06533 -0.0330404 0)
(1.0487 -0.0270527 0)
(1.03585 -0.0217674 0)
(1.02626 -0.0159526 0)
(1.01963 -0.00934835 0)
(1.01604 -0.00196676 0)
(1.01601 0.00567491 0)
(1.0194 0.0127211 0)
(1.02568 0.0191507 0)
(1.03484 0.0247366 0)
(1.04731 0.029752 0)
(1.06369 0.035381 0)
(1.07543 0.0408596 0)
(1.04554 0.044163 0)
(0.842009 0.0336947 0)
(0.304862 0.00638542 0)
(0.26547 -0.00190583 0)
(0.78894 -0.0218591 0)
(1.03226 -0.0337235 0)
(1.08168 -0.0320862 0)
(1.07505 -0.0275084 0)
(1.05865 -0.0224315 0)
(1.04543 -0.0182243 0)
(1.03505 -0.013507 0)
(1.02735 -0.00778688 0)
(1.02251 -0.00103377 0)
(1.02193 0.00617715 0)
(1.02584 0.0128069 0)
(1.03304 0.018012 0)
(1.04315 0.0220808 0)
(1.05627 0.0256212 0)
(1.07259 0.0300837 0)
(1.07847 0.0341045 0)
(1.02779 0.0352507 0)
(0.782209 0.0226075 0)
(0.259708 0.00215465 0)
(0.241286 -0.000326146 0)
(0.738741 -0.013956 0)
(1.0128 -0.0265693 0)
(1.0824 -0.0263704 0)
(1.08133 -0.0229128 0)
(1.06637 -0.0185729 0)
(1.05345 -0.0150968 0)
(1.0432 -0.0111457 0)
(1.03553 -0.00614697 0)
(1.03086 -0.000109412 0)
(1.03043 0.0061961 0)
(1.03434 0.0118606 0)
(1.04131 0.0164471 0)
(1.0509 0.0200186 0)
(1.06321 0.0230703 0)
(1.0776 0.0267931 0)
(1.07805 0.0293561 0)
(1.00615 0.0286152 0)
(0.728735 0.0149535 0)
(0.233739 0.00067433 0)
(0.22659 -1.14623e-05 0)
(0.695929 -0.00915637 0)
(0.992494 -0.0217388 0)
(1.08096 -0.0229275 0)
(1.08553 -0.020011 0)
(1.07238 -0.015951 0)
(1.05967 -0.0122495 0)
(1.04965 -0.00839576 0)
(1.04175 -0.00386314 0)
(1.03653 0.00140398 0)
(1.03572 0.00701965 0)
(1.03938 0.0119897 0)
(1.04603 0.015814 0)
(1.05537 0.0187208 0)
(1.06788 0.0214669 0)
(1.08036 0.0245402 0)
(1.07411 0.0265434 0)
(0.982109 0.0242418 0)
(0.681637 0.0104166 0)
(0.216834 0.000451385 0)
(0.216885 -3.7804e-05 0)
(0.660485 -0.00631213 0)
(0.972025 -0.0181911 0)
(1.07844 -0.0203034 0)
(1.08924 -0.0177675 0)
(1.0776 -0.0141392 0)
(1.06513 -0.0106929 0)
(1.05559 -0.00698481 0)
(1.04844 -0.00262206 0)
(1.04388 0.00242804 0)
(1.04283 0.0074773 0)
(1.04579 0.0120309 0)
(1.05169 0.0156918 0)
(1.06013 0.0186796 0)
(1.07172 0.0212611 0)
(1.08205 0.0237962 0)
(1.06946 0.0249288 0)
(0.958102 0.0213055 0)
(0.641383 0.00790726 0)
(0.204493 0.000574904 0)
(0.209845 -7.4559e-05 0)
(0.632356 -0.00454047 0)
(0.953741 -0.015337 0)
(1.07565 -0.0181511 0)
(1.09253 -0.0160057 0)
(1.08249 -0.0125563 0)
(1.06999 -0.0089246 0)
(1.06034 -0.00505219 0)
(1.05286 -0.000664315 0)
(1.0477 0.0041288 0)
(1.04643 0.00897461 0)
(1.04898 0.013236 0)
(1.05444 0.0166546 0)
(1.06275 0.0191232 0)
(1.0745 0.0213667 0)
(1.08314 0.0233772 0)
(1.0626 0.0239932 0)
(0.933543 0.0192467 0)
(0.606434 0.00655887 0)
(0.194007 0.000725984 0)
(0.204009 -6.44305e-05 0)
(0.608952 -0.00336115 0)
(0.935913 -0.0130196 0)
(1.07278 -0.016307 0)
(1.09603 -0.0144332 0)
(1.08729 -0.0111648 0)
(1.07487 -0.00764528 0)
(1.06528 -0.00390706 0)
(1.05808 0.00045049 0)
(1.05325 0.00533986 0)
(1.05143 0.0102993 0)
(1.05333 0.0145423 0)
(1.05833 0.0177058 0)
(1.06624 0.0202698 0)
(1.07735 0.0223784 0)
(1.08349 0.0238803 0)
(1.0559 0.0234618 0)
(0.909703 0.0177357 0)
(0.575958 0.00586258 0)
(0.184259 0.000858261 0)
(0.199499 -3.42014e-06 0)
(0.591023 -0.00237818 0)
(0.920645 -0.0106882 0)
(1.06987 -0.0142561 0)
(1.09941 -0.0126427 0)
(1.09208 -0.00946107 0)
(1.07925 -0.00573308 0)
(1.06904 -0.00180608 0)
(1.06102 0.00268892 0)
(1.05523 0.00767296 0)
(1.05311 0.0123701 0)
(1.0548 0.016274 0)
(1.05954 0.0193316 0)
(1.06758 0.0213113 0)
(1.07892 0.023099 0)
(1.08317 0.0241464 0)
(1.04663 0.0229988 0)
(0.884915 0.0165664 0)
(0.547998 0.00551561 0)
(0.174563 0.000955688 0)
(0.195871 0.000138937 0)
(0.57636 -0.00152801 0)
(0.906474 -0.00845662 0)
(1.06735 -0.0117839 0)
(1.10304 -0.0101584 0)
(1.09708 -0.00707172 0)
(1.08431 -0.00353261 0)
(1.07392 0.000256907 0)
(1.06581 0.00462261 0)
(1.06001 0.00953014 0)
(1.05724 0.0146252 0)
(1.05825 0.0186185 0)
(1.06282 0.0211182 0)
(1.07056 0.0229829 0)
(1.08089 0.0243721 0)
(1.08229 0.0247639 0)
(1.03749 0.022906 0)
(0.860625 0.0157832 0)
(0.522338 0.00538888 0)
(0.165063 0.0010244 0)
(0.193809 0.000292799 0)
(0.565863 -0.00053365 0)
(0.895026 -0.00639804 0)
(1.06504 -0.00972391 0)
(1.10684 -0.00810647 0)
(1.10241 -0.00483956 0)
(1.08927 -0.000915016 0)
(1.07805 0.00314467 0)
(1.06892 0.00788689 0)
(1.06179 0.0129744 0)
(1.05829 0.0174268 0)
(1.05905 0.0209163 0)
(1.06319 0.0234688 0)
(1.07109 0.0247858 0)
(1.0811 0.0256999 0)
(1.07997 0.0257102 0)
(1.02511 0.0231151 0)
(0.834682 0.0153809 0)
(0.497202 0.00540035 0)
(0.155415 0.00108586 0)
(0.193028 0.000457598 0)
(0.558377 0.000119629 0)
(0.885153 -0.00408799 0)
(1.06361 -0.00696008 0)
(1.11083 -0.00519722 0)
(1.10762 -0.00176523 0)
(1.09453 0.00224517 0)
(1.0831 0.00641368 0)
(1.07377 0.0109817 0)
(1.06644 0.0157316 0)
(1.06228 0.0205714 0)
(1.06212 0.0241773 0)
(1.06602 0.0260555 0)
(1.07344 0.0272067 0)
(1.08151 0.0276438 0)
(1.0774 0.0268766 0)
(1.01276 0.0237041 0)
(0.808843 0.0152021 0)
(0.473073 0.00552723 0)
(0.145865 0.00115777 0)
(0.193817 0.000523895 0)
(0.55476 0.00139913 0)
(0.878983 -0.00184407 0)
(1.06312 -0.00404849 0)
(1.11539 -0.00194576 0)
(1.11351 0.0018664 0)
(1.10012 0.00632904 0)
(1.08787 0.0107845 0)
(1.07716 0.0155993 0)
(1.06833 0.0207208 0)
(1.06326 0.0250704 0)
(1.06256 0.0277772 0)
(1.0655 0.0293769 0)
(1.07273 0.0299661 0)
(1.0804 0.0300133 0)
(1.07211 0.0288738 0)
(0.996717 0.0244697 0)
(0.780815 0.0153928 0)
(0.448356 0.00581306 0)
(0.135954 0.00124494 0)
(0.196387 0.000700938 0)
(0.555434 0.00207794 0)
(0.875109 0.000732221 0)
(1.06446 -0.00076245 0)
(1.12085 0.00167669 0)
(1.12002 0.00581923 0)
(1.10665 0.0105175 0)
(1.09421 0.0152585 0)
(1.0836 0.0201962 0)
(1.07471 0.0251688 0)
(1.06792 0.0292644 0)
(1.06547 0.0322073 0)
(1.06781 0.033656 0)
(1.07408 0.0339642 0)
(1.07922 0.033352 0)
(1.06683 0.030997 0)
(0.980443 0.0259635 0)
(0.752243 0.016018 0)
(0.423545 0.00624786 0)
(0.125825 0.00135631 0)
(0.200978 0.0010763 0)
(0.558676 0.00300777 0)
(0.876031 0.00338318 0)
(1.06725 0.00273317 0)
(1.1271 0.00588773 0)
(1.12733 0.0107017 0)
(1.11343 0.0160828 0)
(1.09992 0.0213697 0)
(1.08737 0.0267095 0)
(1.07587 0.0317495 0)
(1.06829 0.0358681 0)
(1.06579 0.0382684 0)
(1.06673 0.0389916 0)
(1.07236 0.0385258 0)
(1.07663 0.0371797 0)
(1.05839 0.034343 0)
(0.959627 0.0277587 0)
(0.720539 0.0170775 0)
(0.39695 0.0067931 0)
(0.114938 0.00148383 0)
(0.208014 0.00152366 0)
(0.566636 0.00442744 0)
(0.880733 0.00598058 0)
(1.07293 0.00694734 0)
(1.13462 0.0107086 0)
(1.13566 0.0161043 0)
(1.12141 0.0218578 0)
(1.10738 0.0275111 0)
(1.09484 0.0331041 0)
(1.08347 0.0386902 0)
(1.07366 0.0433193 0)
(1.06754 0.0453933 0)
(1.06741 0.0458975 0)
(1.07204 0.0448664 0)
(1.07307 0.0427553 0)
(1.04906 0.0382175 0)
(0.937616 0.0307431 0)
(0.686874 0.0186166 0)
(0.368846 0.00751905 0)
(0.103375 0.00164428 0)
(0.216786 0.00195499 0)
(0.578132 0.00588445 0)
(0.889117 0.00888666 0)
(1.08073 0.011281 0)
(1.14348 0.0162291 0)
(1.14527 0.0227595 0)
(1.1302 0.0294672 0)
(1.11477 0.0359079 0)
(1.09956 0.042329 0)
(1.0842 0.0479839 0)
(1.07197 0.0519771 0)
(1.06668 0.0539658 0)
(1.06514 0.0536571 0)
(1.06833 0.0514073 0)
(1.06813 0.0484913 0)
(1.03603 0.0432269 0)
(0.909765 0.0336151 0)
(0.648636 0.0203804 0)
(0.337789 0.00826596 0)
(0.0907391 0.00177214 0)
(0.230123 0.00258296 0)
(0.598383 0.008325 0)
(0.90623 0.0136523 0)
(1.09303 0.0177614 0)
(1.15447 0.0235066 0)
(1.15639 0.030635 0)
(1.14047 0.0381139 0)
(1.12383 0.0452752 0)
(1.10764 0.0522101 0)
(1.09162 0.0588268 0)
(1.07734 0.0640706 0)
(1.06712 0.0649887 0)
(1.0641 0.0636006 0)
(1.06605 0.0608631 0)
(1.06113 0.0563518 0)
(1.02062 0.0487729 0)
(0.879518 0.0379066 0)
(0.607031 0.0226347 0)
(0.304212 0.00906738 0)
(0.0773466 0.00188506 0)
(0.246392 0.0032315 0)
(0.622391 0.0101249 0)
(0.927472 0.0173925 0)
(1.10872 0.023731 0)
(1.1676 0.0313707 0)
(1.16936 0.0402532 0)
(1.15184 0.0492855 0)
(1.13286 0.0577406 0)
(1.11279 0.0658439 0)
(1.09162 0.0724762 0)
(1.07315 0.0757555 0)
(1.06407 0.0759673 0)
(1.06008 0.0744915 0)
(1.0597 0.0700926 0)
(1.05261 0.0643824 0)
(1.00102 0.0558727 0)
(0.841261 0.0419866 0)
(0.558492 0.024904 0)
(0.266775 0.0097376 0)
(0.0629571 0.00193824 0)
(0.268862 0.00444954 0)
(0.656064 0.0143817 0)
(0.957158 0.0246064 0)
(1.12988 0.0333664 0)
(1.18411 0.0422678 0)
(1.18418 0.053015 0)
(1.16396 0.0635762 0)
(1.14225 0.0733483 0)
(1.1198 0.0819383 0)
(1.09684 0.0885126 0)
(1.07671 0.0924294 0)
(1.0625 0.0917624 0)
(1.05599 0.0875605 0)
(1.0548 0.082286 0)
(1.04089 0.074789 0)
(0.976699 0.0628668 0)
(0.798747 0.0473988 0)
(0.505794 0.02739 0)
(0.226996 0.010235 0)
(0.0482473 0.00193303 0)
(0.300776 0.0056093 0)
(0.703279 0.0176404 0)
(0.9981 0.032238 0)
(1.15745 0.044774 0)
(1.20432 0.0564218 0)
(1.20236 0.0696575 0)
(1.17876 0.0817293 0)
(1.15327 0.0925969 0)
(1.12581 0.101894 0)
(1.09673 0.10826 0)
(1.07094 0.109766 0)
(1.05608 0.106514 0)
(1.04945 0.101882 0)
(1.04522 0.0940867 0)
(1.02704 0.0843344 0)
(0.947089 0.0715565 0)
(0.745622 0.0518276 0)
(0.443528 0.0290909 0)
(0.183531 0.0102865 0)
(0.0331606 0.00180382 0)
(0.336502 0.00888443 0)
(0.759808 0.0261384 0)
(1.04632 0.0443485 0)
(1.1911 0.0609512 0)
(1.22923 0.075004 0)
(1.2227 0.0916874 0)
(1.19374 0.105877 0)
(1.16302 0.117909 0)
(1.13088 0.127028 0)
(1.09828 0.131783 0)
(1.07052 0.131215 0)
(1.05272 0.126147 0)
(1.04336 0.117772 0)
(1.03748 0.108454 0)
(1.00867 0.0972023 0)
(0.909586 0.0793679 0)
(0.68611 0.0572575 0)
(0.378774 0.0308942 0)
(0.140352 0.0100526 0)
(0.019593 0.00165127 0)
(0.414736 0.0137364 0)
(0.845847 0.03651 0)
(1.11389 0.0625883 0)
(1.23313 0.084633 0)
(1.25766 0.101661 6.34188e-34)
(1.24447 0.12172 -2.85047e-34)
(1.20899 0.137157 0)
(1.17292 0.149166 0)
(1.13481 0.156874 0)
(1.0957 0.158924 0)
(1.06263 0.154773 0)
(1.04308 0.145295 0)
(1.03375 0.135075 0)
(1.02331 0.123052 0)
(0.985839 0.107836 0)
(0.864802 0.0885331 0)
(0.613125 0.0604365 0)
(0.300615 0.030147 0)
(0.0917421 0.00894631 0)
(0.00488297 0.00146423 0)
(0.480308 0.0283348 4.77564e-20)
(0.946018 0.0571012 -3.61108e-20)
(1.18382 0.0921367 0)
(1.27504 0.120283 2.7455e-20)
(1.28778 0.139194 -2.22551e-20)
(1.2648 0.16173 3.00763e-34)
(1.22187 0.177281 0)
(1.17964 0.188759 1.61465e-20)
(1.1359 0.194922 -5.3244e-20)
(1.09283 0.193694 1.09158e-20)
(1.05767 0.184058 0)
(1.03573 0.170595 -2.80245e-20)
(1.02272 0.156633 -3.36209e-20)
(1.00782 0.1419 5.88169e-20)
(0.950979 0.124835 -4.63987e-20)
(0.795336 0.096366 0)
(0.512274 0.06299 -1.65952e-20)
(0.212259 0.0287369 0)
(0.0449699 0.00798013 -9.18284e-20)
(-0.0105043 0.00070259 1.0822e-19)
(0.51633 0.0536682 -6.23488e-21)
(1.00993 0.094737 1.08649e-19)
(1.23546 0.135224 -6.869e-21)
(1.30964 0.164524 -6.77933e-20)
(1.31361 0.185966 -4.6592e-20)
(1.28155 0.208662 7.56844e-20)
(1.23172 0.223891 0)
(1.18364 0.234436 0)
(1.13406 0.238366 8.46774e-20)
(1.08447 0.233014 0)
(1.04312 0.219477 1.00925e-19)
(1.01815 0.202932 3.00706e-20)
(1.00282 0.185114 4.59346e-22)
(0.978401 0.165436 -6.38758e-20)
(0.905135 0.13918 0)
(0.724163 0.107755 0)
(0.42877 0.0664996 -2.69823e-19)
(0.152339 0.027937 6.78612e-19)
(0.0124214 0.00521633 -4.01163e-19)
(-0.022014 -0.00148655 -4.72385e-19)
(0.527592 0.078113 -6.26151e-20)
(1.04626 0.142489 2.38439e-20)
(1.27059 0.188635 1.26832e-20)
(1.33646 0.218862 1.17067e-19)
(1.33328 0.240607 1.38483e-20)
(1.29352 0.26177 -1.9705e-19)
(1.23727 0.275342 6.73105e-20)
(1.18305 0.283505 0)
(1.12814 0.28464 -1.79287e-19)
(1.0751 0.275982 1.60614e-19)
(1.03247 0.258356 -2.72275e-19)
(1.00364 0.234765 1.27706e-19)
(0.985026 0.211652 -8.2278e-20)
(0.957012 0.187794 1.85936e-19)
(0.870461 0.159788 0)
(0.673693 0.117826 -6.71064e-20)
(0.377395 0.0705043 0)
(0.127945 0.0273502 3.696e-19)
(-0.000858287 0.00205204 -8.7547e-19)
(-0.0275615 -0.00379525 5.47885e-19)
(0.527534 0.103177 1.71219e-19)
(1.07078 0.195821 -7.57818e-20)
(1.29588 0.249004 -1.53459e-20)
(1.35521 0.279576 0)
(1.34655 0.299799 -8.58196e-20)
(1.30079 0.318674 1.05963e-19)
(1.23884 0.32968 -7.25712e-20)
(1.17937 0.334258 0)
(1.11943 0.330843 1.27476e-19)
(1.06109 0.31711 -1.12772e-19)
(1.01232 0.29387 2.35404e-19)
(0.98272 0.267629 0)
(0.962635 0.24177 -1.74903e-19)
(0.926993 0.213302 9.88222e-20)
(0.836654 0.17459 2.46266e-19)
(0.638076 0.130651 -2.1671e-19)
(0.355364 0.0778319 3.41764e-19)
(0.123543 0.0281516 -7.55909e-19)
(-0.00468544 0.00024429 4.77971e-19)
(-0.0304516 -0.00590319 -5.97698e-19)
(0.515489 0.130814 -5.80253e-20)
(1.07674 0.245389 4.14744e-20)
(1.30785 0.308167 -5.02639e-20)
(1.36508 0.342211 1.01306e-19)
(1.35248 0.362266 -9.57804e-20)
(1.30203 0.378495 3.34873e-20)
(1.23571 0.386063 3.46067e-21)
(1.17166 0.386143 -1.43916e-19)
(1.10744 0.378381 -1.3428e-19)
(1.04695 0.360646 -2.42319e-19)
(0.999613 0.332754 -5.05644e-19)
(0.967019 0.300314 -1.55549e-19)
(0.941822 0.270104 2.15567e-21)
(0.907354 0.237153 -3.36048e-19)
(0.811915 0.199731 -4.5147e-21)
(0.615457 0.145652 3.14725e-19)
(0.349323 0.0861898 -9.42868e-20)
(0.127439 0.0333823 -5.46656e-20)
(0.000244877 0.000165918 0)
(-0.0294904 -0.00755343 1.26897e-18)
(0.500946 0.155576 0)
(1.07735 0.295345 -3.30257e-21)
(1.31369 0.368505 -7.8002e-21)
(1.36833 0.405108 -1.25578e-20)
(1.35279 0.424018 9.19239e-20)
(1.29908 0.437736 -7.81645e-20)
(1.22934 0.442287 7.93752e-20)
(1.16207 0.438188 2.36688e-19)
(1.09522 0.424866 -7.47702e-20)
(1.03172 0.400344 1.19814e-19)
(0.978446 0.366482 2.71523e-19)
(0.942881 0.333348 3.38798e-19)
(0.918699 0.302339 -2.03442e-19)
(0.878678 0.265421 3.63584e-19)
(0.78512 0.217424 -2.87732e-19)
(0.596683 0.163237 0)
(0.346217 0.0989112 -7.15915e-19)
(0.136353 0.0404135 9.63661e-19)
(0.010163 0.00228817 7.19105e-20)
(-0.0255869 -0.00801313 -1.34171e-18)
(0.483697 0.177126 -6.56122e-21)
(1.06719 0.340297 -2.29325e-21)
(1.31114 0.42455 5.61465e-20)
(1.36581 0.465837 -7.90869e-20)
(1.34798 0.485222 7.6913e-20)
(1.29155 0.496808 -7.58807e-20)
(1.21953 0.498042 1.57489e-19)
(1.15017 0.489004 -7.05743e-20)
(1.08149 0.470772 -3.01755e-19)
(1.01597 0.442188 -2.14736e-22)
(0.962027 0.405896 -2.94812e-19)
(0.924867 0.367636 -3.64135e-19)
(0.895653 0.330687 2.24685e-19)
(0.856716 0.291671 -1.30507e-19)
(0.763716 0.245849 3.13045e-19)
(0.583362 0.18146 0)
(0.346696 0.113169 -4.45159e-19)
(0.146638 0.0491832 6.57504e-19)
(0.0214279 0.00616379 1.24318e-18)
(-0.0203978 -0.00751018 -1.46216e-18)
(0.469967 0.198083 -7.20851e-20)
(1.05846 0.386266 2.8908e-20)
(1.30628 0.480869 -3.48356e-20)
(1.35954 0.52492 8.10455e-20)
(1.33991 0.54348 1.18992e-20)
(1.28163 0.55296 -1.48095e-19)
(1.20789 0.551438 -9.20406e-20)
(1.13699 0.538658 -9.14841e-20)
(1.06597 0.515492 -1.70997e-19)
(0.996549 0.480952 2.74612e-19)
(0.937002 0.438154 2.98201e-19)
(0.898623 0.398834 5.77964e-19)
(0.8698 0.363725 0)
(0.827328 0.32175 6.14723e-21)
(0.738164 0.264658 -8.59952e-19)
(0.567102 0.202568 2.01944e-19)
(0.345983 0.128088 9.66503e-19)
(0.156165 0.059061 -2.85246e-19)
(0.032816 0.0115496 5.91421e-19)
(-0.0147002 -0.00616091 -4.93931e-20)
(0.456465 0.216494 7.95934e-21)
(1.04419 0.427173 5.07132e-20)
(1.29682 0.532423 -1.19425e-20)
(1.35008 0.58076 8.41356e-20)
(1.32888 0.59981 -1.48046e-19)
(1.26882 0.607535 1.47015e-19)
(1.19376 0.603224 9.54019e-20)
(1.12126 0.586316 2.72569e-19)
(1.04806 0.558885 3.42395e-19)
(0.977221 0.520298 -3.18098e-19)
(0.919922 0.475399 0)
(0.879163 0.431843 -2.18681e-19)
(0.844717 0.390657 2.51069e-19)
(0.805924 0.346267 3.16123e-19)
(0.718021 0.294012 -1.83167e-19)
(0.554954 0.221133 -4.43477e-19)
(0.345368 0.143458 -1.32032e-19)
(0.164396 0.0698328 -2.03973e-21)
(0.0428855 0.0176871 0)
(-0.00940696 -0.00439764 0)
(0.446855 0.235113 -7.89468e-20)
(1.03345 0.469253 0)
(1.28686 0.58414 3.04495e-21)
(1.33861 0.634754 -1.43865e-20)
(1.31607 0.652855 1.7009e-19)
(1.25475 0.65862 -4.24181e-20)
(1.17829 0.651986 9.75528e-20)
(1.10434 0.632314 -1.84289e-19)
(1.02958 0.600881 2.60538e-19)
(0.956881 0.557125 -1.04574e-19)
(0.894642 0.505864 1.71148e-19)
(0.85093 0.460798 6.94301e-19)
(0.819961 0.422034 1.42598e-20)
(0.777574 0.375103 -3.3051e-19)
(0.693054 0.311237 6.10002e-19)
(0.537944 0.241649 3.24468e-21)
(0.341127 0.158098 1.41256e-19)
(0.168824 0.0803931 -6.73316e-19)
(0.0501871 0.0236232 6.93858e-19)
(-0.00507632 -0.00259672 -8.17147e-19)
(0.438487 0.252063 4.76501e-23)
(1.0197 0.506574 0)
(1.27418 0.630969 0)
(1.3254 0.685241 -5.50557e-22)
(1.3016 0.703687 -4.98001e-20)
(1.23877 0.707887 6.93913e-20)
(1.16127 0.698928 -1.80088e-19)
(1.08659 0.675852 0)
(1.01119 0.640985 -3.84215e-19)
(0.937731 0.593868 4.60933e-19)
(0.876162 0.54067 4.8818e-19)
(0.831226 0.491556 -2.54697e-19)
(0.795834 0.44598 -3.0816e-19)
(0.756296 0.396851 7.22402e-19)
(0.672923 0.339199 -2.1708e-19)
(0.52371 0.257865 -2.58264e-19)
(0.335049 0.172268 -1.54351e-19)
(0.170397 0.089919 -7.27727e-19)
(0.0551279 0.0287566 1.06777e-19)
(-0.00169176 -0.000960929 8.84957e-19)
(0.433161 0.269553 -3.94776e-20)
(1.00939 0.545078 -5.07035e-20)
(1.26186 0.678013 2.30611e-20)
(1.31111 0.734005 1.07341e-22)
(1.28614 0.75145 -5.40818e-20)
(1.22245 0.753741 1.12214e-19)
(1.14438 0.742618 0)
(1.06942 0.717394 1.1214e-19)
(0.993247 0.679699 -8.84227e-20)
(0.91737 0.628762 7.69498e-19)
(0.850414 0.569692 -1.10172e-19)
(0.803792 0.518248 1.26488e-19)
(0.771377 0.4748 0)
(0.728468 0.423651 -3.91072e-19)
(0.647776 0.35294 4.72984e-19)
(0.504031 0.276505 0)
(0.325677 0.184548 -3.32341e-19)
(0.168954 0.0976496 9.78274e-19)
(0.0573395 0.0327067 1.16267e-19)
(0.000660052 0.000318047 -1.09112e-18)
(0.428255 0.287671 -9.88996e-20)
(0.997037 0.579203 1.23525e-19)
(1.24796 0.720273 0)
(1.29611 0.779263 1.80344e-20)
(1.27015 0.796932 0)
(1.20555 0.797681 -1.46097e-19)
(1.12726 0.784477 0)
(1.05227 0.756479 0)
(0.97539 0.716352 -1.17264e-19)
(0.897698 0.662777 -7.31497e-19)
(0.831326 0.602305 -9.02379e-19)
(0.783652 0.546749 1.47759e-19)
(0.746419 0.495852 5.32911e-19)
(0.706788 0.441187 4.30291e-19)
(0.626365 0.378309 -1.51784e-18)
(0.486781 0.289207 -6.06699e-19)
(0.314331 0.195005 3.55726e-19)
(0.164078 0.103397 0)
(0.0570782 0.0349021 9.97595e-19)
(0.00193642 0.00112081 -1.17647e-18)
(0.425325 0.304845 1.18467e-19)
(0.98798 0.614595 -1.43777e-19)
(1.23502 0.762834 0)
(1.28086 0.822982 -1.15304e-20)
(1.25398 0.839621 -1.20111e-21)
(1.18901 0.838469 0)
(1.11082 0.823188 5.62753e-20)
(1.0358 0.793475 7.79062e-20)
(0.957774 0.751521 -2.20503e-19)
(0.877456 0.695236 9.69173e-20)
(0.805766 0.629504 0)
(0.754937 0.570616 6.13924e-19)
(0.720238 0.52142 6.24149e-21)
(0.678129 0.464588 2.32125e-19)
(0.599763 0.38709 2.75318e-19)
(0.46469 0.304038 0)
(0.301601 0.202356 -5.79237e-19)
(0.157868 0.106248 1.13186e-18)
(0.055261 0.0358193 -1.20443e-18)
(0.00220948 0.00152461 2.53358e-18)
(0.423181 0.32126 0)
(0.97744 0.645651 0)
(1.22125 0.800734 -7.15251e-20)
(1.2656 0.863273 0)
(1.23796 0.880037 0)
(1.1725 0.877365 -1.23519e-19)
(1.09437 0.860189 5.77603e-20)
(1.01923 0.828167 1.80665e-20)
(0.940364 0.78455 -5.04088e-20)
(0.858395 0.7267 0)
(0.785991 0.66001 -1.37641e-19)
(0.732796 0.597146 -5.00539e-19)
(0.693769 0.538521 -6.01891e-19)
(0.653999 0.476035 -2.41768e-19)
(0.576957 0.407659 2.98023e-19)
(0.446762 0.310285 -7.01936e-19)
(0.289915 0.206602 1.24661e-18)
(0.151931 0.106607 1.37943e-21)
(0.0529362 0.0357719 -1.15238e-18)
(0.00206158 0.00147779 -1.70844e-19)
(0.422319 0.336563 0)
(0.969972 0.677978 -1.17557e-19)
(1.2087 0.839049 8.62527e-20)
(1.25048 0.902238 0)
(1.22203 0.917937 0)
(1.15638 0.913399 2.48945e-19)
(1.07853 0.894274 0)
(1.00354 0.86086 0)
(0.923882 0.816178 -4.83428e-19)
(0.839635 0.756957 1.34142e-19)
(0.760838 0.68574 -1.22289e-18)
(0.703201 0.618966 0)
(0.664785 0.560592 -6.57137e-19)
(0.62252 0.495022 9.74645e-21)
(0.54881 0.40825 -9.59672e-19)
(0.424578 0.31771 3.77428e-19)
(0.277903 0.20681 1.19336e-21)
(0.148908 0.104472 -1.29828e-18)
(0.0522205 0.0351058 6.2039e-19)
(0.00237532 0.00127677 1.82773e-19)
(0.421817 0.351174 0)
(0.961141 0.706098 -1.61525e-19)
(1.19564 0.872902 9.21299e-20)
(1.23561 0.937939 1.18729e-19)
(1.20644 0.953639 -1.21415e-20)
(1.14052 0.947602 2.73612e-20)
(1.06304 0.926803 -3.47732e-20)
(0.988268 0.891573 4.65389e-19)
(0.908067 0.845897 5.17136e-19)
(0.821992 0.78612 1.01941e-18)
(0.741722 0.715286 1.01603e-18)
(0.680368 0.645047 1.78828e-19)
(0.635931 0.574957 9.44221e-19)
(0.594209 0.499489 5.82402e-19)
(0.523102 0.421201 6.88252e-19)
(0.407361 0.312797 -4.12537e-19)
(0.270122 0.200203 -4.76954e-19)
(0.150217 0.100286 5.61033e-19)
(0.0566316 0.033672 -3.34526e-19)
(0.00491121 0.00121545 5.90277e-19)
(0.421896 0.36505 2.28821e-19)
(0.954907 0.735583 2.53538e-19)
(1.18379 0.907364 5.39437e-20)
(1.22104 0.9726 1.58541e-20)
(1.19109 0.987157 3.3864e-21)
(1.1252 0.979276 -6.86636e-20)
(1.0484 0.956712 3.38594e-20)
(0.97419 0.920487 -1.97266e-20)
(0.893421 0.87434 -6.00677e-19)
(0.805079 0.81426 -1.10651e-18)
(0.718493 0.74048 7.04503e-20)
(0.651022 0.666505 0)
(0.604155 0.59598 0)
(0.558231 0.515915 -3.04439e-19)
(0.488874 0.410645 -1.12983e-18)
(0.384102 0.307181 8.8822e-19)
(0.266719 0.186095 5.20364e-19)
(0.159325 0.0890669 0)
(0.0741173 0.0293414 1.07388e-18)
(0.0169538 0.0029519 -6.34551e-19)
(0.421909 0.378422 -1.20391e-19)
(0.947282 0.760948 1.07714e-19)
(1.17152 0.93754 -1.28205e-19)
(1.20688 1.0042 -1.02959e-19)
(1.17632 1.01864 -1.46795e-20)
(1.11053 1.00929 -2.07759e-20)
(1.03455 0.985278 0)
(0.960782 0.947686 -5.85277e-19)
(0.879429 0.901051 7.42698e-20)
(0.789166 0.841124 0)
(0.700969 0.76927 0)
(0.628998 0.693619 1.14588e-19)
(0.574541 0.611205 1.53366e-19)
(0.524672 0.515967 -3.29913e-19)
(0.456335 0.416958 8.11111e-19)
(0.358651 0.281778 -9.67507e-19)
(0.26083 0.159534 -1.11626e-18)
(0.185757 0.0617391 9.90356e-19)
(0.145266 0.0187279 -3.83905e-19)
(0.0885256 0.0219865 2.22884e-19)
(0.422132 0.390972 1.51915e-19)
(0.941849 0.78768 0)
(1.16044 0.968477 0)
(1.19315 1.03502 -2.76927e-20)
(1.16202 1.0483 2.2422e-20)
(1.09665 1.03717 -1.96059e-20)
(1.02167 1.01156 1.53313e-19)
(0.9485 0.973245 5.99839e-19)
(0.866451 0.926466 1.08751e-18)
(0.773975 0.866961 -8.33466e-20)
(0.679748 0.793453 1.72898e-19)
(0.60151 0.715569 -1.02609e-18)
(0.541991 0.634465 -1.02499e-18)
(0.484276 0.536464 -1.77467e-19)
(0.407849 0.398646 0)
(0.323554 0.267543 -3.80177e-21)
(0.246664 0.102005 6.15525e-19)
(0.205294 -0.0166295 -1.055e-18)
(0.158314 -0.0896404 8.07806e-19)
(0.076857 -0.0504168 6.8572e-19)
(0.422029 0.403297 -3.3587e-19)
(0.93471 0.81015 -1.51442e-19)
(1.14876 0.995166 8.48739e-21)
(1.17985 1.06311 5.97022e-20)
(1.14838 1.07636 0)
(1.08339 1.06394 -7.67929e-20)
(1.0093 1.03713 -2.19751e-19)
(0.936279 0.997736 -1.9891e-21)
(0.853141 0.95069 -5.69703e-19)
(0.758501 0.891729 -8.17969e-20)
(0.663078 0.821581 7.59738e-20)
(0.580705 0.745225 9.01676e-19)
(0.512763 0.654634 9.99946e-19)
(0.445201 0.538013 1.73267e-19)
(0.366909 0.413064 8.77718e-19)
(0.258524 0.220786 0)
(0.156838 0.0859728 0)
(0.0133611 0.20499 6.95604e-19)
(-0.0440169 0.700773 -1.60693e-20)
(0.00382143 1.67723 -7.89619e-19)
(0.422157 0.41495 1.85857e-19)
(0.929664 0.834412 4.26971e-19)
(1.13822 1.02317 -5.90308e-19)
(1.16692 1.091 2.91998e-19)
(1.13519 1.10338 -6.90726e-21)
(1.07095 1.08963 -2.93906e-20)
(0.997822 1.06167 0)
(0.924937 1.02196 -4.99592e-19)
(0.840563 0.975088 0)
(0.743437 0.917164 1.1495e-18)
(0.641759 0.846461 -9.33103e-20)
(0.553043 0.769535 1.04628e-19)
(0.477574 0.684216 1.15051e-18)
(0.399248 0.575676 -3.74521e-19)
(0.277887 0.395818 -4.44927e-19)
(0.181226 0.280929 0)
(0.071068 0.521273 0)
(0.0202183 1.48014 0)
(0.0542535 2.5188 -4.02955e-19)
(0.0664442 2.92986 -2.43222e-19)
(0.421584 0.426122 0)
(0.923001 0.854409 0)
(1.12722 1.04701 2.15823e-19)
(1.15452 1.11623 -2.36487e-19)
(1.12279 1.12893 1.01531e-19)
(1.05927 1.11446 3.64699e-20)
(0.986974 1.08592 2.79587e-20)
(0.913736 1.04564 -2.17679e-20)
(0.827655 0.998791 8.06175e-20)
(0.727895 0.941674 -1.3196e-18)
(0.625494 0.875744 1.68883e-19)
(0.532755 0.803827 9.06519e-19)
(0.448844 0.712587 -1.14612e-18)
(0.35183 0.578938 -1.261e-18)
(0.246773 0.463553 4.22904e-19)
(0.144365 0.672979 0)
(0.0773847 1.72579 5.76014e-19)
(0.0918215 2.73318 6.34408e-19)
(0.0965859 3.08797 -7.15156e-19)
(0.0861719 3.21035 7.75354e-19)
(0.421214 0.436797 0)
(0.918405 0.876349 3.78313e-19)
(1.11747 1.07236 -5.37224e-20)
(1.1426 1.14136 3.32482e-19)
(1.11094 1.15344 -1.06574e-19)
(1.04838 1.13816 0)
(0.976841 1.10904 0)
(0.903285 1.06892 0)
(0.815653 1.02257 4.53255e-19)
(0.713587 0.966937 6.09394e-20)
(0.605291 0.901183 0)
(0.507205 0.829807 -9.00917e-19)
(0.415139 0.746292 0)
(0.301058 0.630809 8.97964e-19)
(0.196199 0.711742 -6.11816e-19)
(0.133264 1.57494 -4.86383e-19)
(0.131547 2.72977 -1.11886e-18)
(0.147361 3.12494 -5.99372e-19)
(0.126218 3.24996 -8.46953e-19)
(0.111725 3.2852 7.42203e-19)
(0.419526 0.446173 -1.33219e-19)
(0.912104 0.893712 1.64112e-20)
(1.10723 1.09347 -5.98815e-20)
(1.13127 1.16387 -2.56074e-19)
(1.09992 1.17651 0)
(1.03816 1.161 0)
(0.967207 1.13189 0)
(0.892917 1.09173 3.4623e-20)
(0.803415 1.04581 -5.73213e-19)
(0.698825 0.991194 0)
(0.590883 0.931035 0)
(0.490222 0.867612 0)
(0.382107 0.770904 0)
(0.307516 0.742733 6.60582e-19)
(0.2331 1.24661 1.62454e-18)
(0.188891 2.5227 4.75831e-19)
(0.20197 3.09785 9.63131e-19)
(0.190144 3.26744 -7.4043e-19)
(0.154866 3.3202 2.62282e-19)
(0.136332 3.33149 0)
(0.417966 0.454672 1.37352e-19)
(0.90709 0.913159 -8.41687e-19)
(1.09786 1.11678 -2.28726e-19)
(1.12028 1.18721 -4.98588e-20)
(1.08931 1.19937 2.52439e-20)
(1.02843 1.18337 -9.02558e-20)
(0.957858 1.15403 -2.55867e-21)
(0.88297 1.11447 -3.79924e-19)
(0.792095 1.06955 0)
(0.686029 1.01709 -7.8381e-20)
(0.572945 0.957397 7.13019e-20)
(0.469039 0.893046 0)
(0.369824 0.831962 0)
(0.300014 1.00251 -8.29469e-19)
(0.226674 1.96826 1.0859e-19)
(0.221722 2.99135 -3.65858e-19)
(0.249302 3.27087 7.81713e-19)
(0.228845 3.35188 5.85665e-19)
(0.176849 3.37206 -8.79812e-19)
(0.158055 3.38172 4.4007e-19)
(0.415048 0.462911 2.7013e-19)
(0.899356 0.928691 8.20396e-19)
(1.08706 1.1371 2.74176e-19)
(1.10923 1.20963 0)
(1.07886 1.22251 0)
(1.0186 1.20631 7.04623e-20)
(0.948249 1.17708 6.12448e-20)
(0.872539 1.13773 3.38458e-19)
(0.780207 1.09366 2.2247e-20)
(0.672276 1.04246 1.00232e-18)
(0.561663 0.988511 -1.19341e-18)
(0.450774 0.931121 0)
(0.380011 0.919761 0)
(0.317289 1.37068 -5.64034e-19)
(0.2803 2.63864 -6.85844e-19)
(0.320072 3.20533 0)
(0.337616 3.33857 -8.74167e-19)
(0.263893 3.38954 -1.14665e-20)
(0.198772 3.42323 5.85028e-19)
(0.174975 3.44053 -2.4793e-19)
(0.412339 0.471742 -5.13243e-19)
(0.893259 0.94948 -3.93778e-19)
(1.07675 1.16235 0)
(1.09767 1.23497 0)
(1.06785 1.24718 0)
(1.00828 1.23021 0)
(0.938022 1.20045 -7.29161e-20)
(0.861818 1.16176 2.90573e-19)
(0.768823 1.11904 0)
(0.660882 1.07064 -9.12275e-19)
(0.546257 1.01682 2.13978e-18)
(0.444029 0.968829 8.72589e-20)
(0.388058 1.06594 1.15524e-19)
(0.342333 1.90088 9.11755e-19)
(0.334282 2.97957 -5.01795e-19)
(0.373303 3.30516 0)
(0.34654 3.40196 2.59824e-19)
(0.266019 3.47402 7.20475e-20)
(0.218834 3.51572 4.5164e-20)
(0.184094 3.50915 9.58078e-20)
(0.408548 0.481605 2.43203e-19)
(0.884037 0.966006 -4.01361e-19)
(1.06459 1.18398 0)
(1.08555 1.25918 -7.35924e-20)
(1.05629 1.27228 2.54764e-19)
(0.997146 1.25489 0)
(0.927053 1.22503 0)
(0.850366 1.18646 -5.00689e-19)
(0.756728 1.14483 -5.79414e-20)
(0.647952 1.09777 8.93474e-19)
(0.53377 1.04786 -1.01896e-18)
(0.452822 1.02831 5.88179e-19)
(0.408434 1.30424 0)
(0.377868 2.3439 -4.82078e-19)
(0.400498 3.18785 3.13161e-19)
(0.448717 3.39785 2.18175e-19)
(0.420554 3.47319 0)
(0.363554 3.5234 1.92182e-20)
(0.315335 3.53481 -2.11253e-19)
(0.235803 3.47341 -3.59384e-20)
(0.405374 0.492213 -4.81515e-19)
(0.877308 0.989882 5.75304e-19)