/*--------------------------------*- C++ -*----------------------------------*\
  =========                 |
  \\      /  F ield         | OpenFOAM: The Open Source CFD Toolbox
   \\    /   O peration     | Website:  https://openfoam.org
    \\  /    A nd           | Version:  6
     \\/     M anipulation  |
\*---------------------------------------------------------------------------*/
FoamFile
{
    version     2.0;
    format      ascii;
    class       surfaceScalarField;
    location    "17";
    object      phi;
}
// * * * * * * * * * * * * * * * * * * * * * * * * * * * * * * * * * * * * * //

dimensions      [0 3 -1 0 0 0 0];

internalField   nonuniform List<scalar> 
17370
(
-0.0899947
0.0898432
0.289162
-0.0714454
0.0537347
0.364486
-0.038099
0.0276758
0.426591
-0.019635
0.014609
0.504278
-0.0107613
0.00825127
0.601912
-0.00622334
0.00483239
0.720448
-0.00367404
0.00285398
0.863727
-0.00214041
0.00160338
1.03599
-0.00110436
0.000706871
1.2429
-0.000317666
-5.99423e-05
1.49157
0.000421892
-0.000813886
1.49158
0.00120651
-0.00169868
1.24318
0.00222628
-0.00292881
1.03634
0.00374133
-0.00489376
0.864059
0.00628118
-0.00830478
0.721081
0.0108084
-0.0146493
0.603056
0.0196703
-0.0277067
0.507476
0.0381263
-0.053758
0.4318
0.0714647
-0.0898561
0.365167
0.0900025
0.199008
-0.128146
0.0882473
0.0398989
-0.364605
0.353438
-0.0746363
0.085804
-0.446489
0.454329
-0.0842979
0.0764581
-0.521204
0.529941
-0.0683646
0.0596276
-0.612755
0.621575
-0.0514058
0.0425858
-0.726848
0.734077
-0.0351068
0.027878
-0.867483
0.872484
-0.0223577
0.0173569
-1.03846
1.04184
-0.0136287
0.0102437
-1.24459
1.24699
-0.0076688
0.00526791
-1.49267
1.49461
-0.00333673
0.00138721
-1.49245
1.49416
0.000286338
-0.00199715
-1.24398
1.24588
0.00391533
-0.00581963
-1.03749
1.04002
0.00818525
-0.0107241
-0.866106
0.869795
0.0140672
-0.0177565
-0.724386
0.729874
0.0227116
-0.0282001
-0.608665
0.616121
0.0354029
-0.042859
-0.51492
0.523113
0.051649
-0.0598422
-0.43989
0.44796
0.0685487
-0.0766192
-0.375322
0.376798
0.0844337
-0.08591
-0.25737
0.222589
0.074708
-0.0399268
-0.0685704
0.0587778
0.00979259
-0.0516539
0.0582018
-0.374164
0.367616
-0.0572632
0.0535132
-0.453588
0.457338
-0.048473
0.0445652
-0.527949
0.531857
-0.0407464
0.0370955
-0.62157
0.625221
-0.0329378
0.0287993
-0.735282
0.73942
-0.0241816
0.0200025
-0.874171
0.87835
-0.0156984
0.0120852
-1.04333
1.04694
-0.00852539
0.00553313
-1.24848
1.25147
-0.00242005
-0.000518675
-1.49658
1.49952
0.00343
-0.00651285
-1.49719
1.50027
0.00946013
-0.0129604
-1.25
1.2535
0.016516
-0.0207644
-1.04582
1.05007
0.024892
-0.0294499
-0.877717
0.882275
0.0335277
-0.0376188
-0.739996
0.744087
0.0412207
-0.0449908
-0.626872
0.630642
0.0488576
-0.053859
-0.53488
0.539881
0.0575665
-0.058452
-0.457567
0.458453
0.0518423
-0.0317898
-0.335961
0.315908
0.00982353
-0.0684861
0.0586626
-0.0530644
0.0491292
0.00393521
-0.0327521
0.04314
-0.358267
0.347879
-0.0467165
0.0459946
-0.459314
0.460036
-0.0428325
0.039399
-0.535749
0.539182
-0.0355927
0.0323319
-0.628493
0.631754
-0.0290065
0.0260948
-0.74259
0.745502
-0.0229851
0.0200408
-0.881846
0.88479
-0.0167296
0.0135689
-1.05046
1.05362
-0.0100096
0.00665986
-1.25477
1.25812
-0.00286687
-0.000799561
-1.50288
1.50655
0.00444734
-0.00817848
-1.50377
1.5075
0.0114584
-0.0149244
-1.25716
1.26062
0.0179922
-0.0211983
-1.05384
1.05705
0.0240519
-0.0270645
-0.885784
0.888796
0.0298896
-0.0331291
-0.747361
0.750601
0.0363108
-0.0400413
-0.634449
0.63818
0.0434137
-0.0465073
-0.544275
0.547368
0.0471596
-0.043489
-0.456871
0.4532
0.032992
-0.0158838
-0.296783
0.279675
0.00397091
-0.0529159
0.048945
-0.0461214
0.043707
0.00241438
-0.0221722
0.0322937
-0.33737
0.327249
-0.0379734
0.0389804
-0.459769
0.458762
-0.0378323
0.0356114
-0.541941
0.544162
-0.0329802
0.0303937
-0.63476
0.637346
-0.0273803
0.0245805
-0.7484
0.7512
-0.0214745
0.0186638
-0.887595
0.890406
-0.0155505
0.0126242
-1.0566
1.05953
-0.00929875
0.00612778
-1.26139
1.26456
-0.00247373
-0.00105667
-1.51022
1.51375
0.00457281
-0.0081654
-1.51122
1.51481
0.0112517
-0.0144644
-1.26393
1.26714
0.0172713
-0.0202447
-1.06006
1.06303
0.0229286
-0.0259053
-0.891766
0.894742
0.0285994
-0.0315061
-0.75377
0.756676
0.0339963
-0.0365215
-0.64136
0.643886
0.0386529
-0.0396915
-0.549309
0.550348
0.0385766
-0.0327496
-0.448155
0.442328
0.0224735
-0.00977066
-0.264856
0.252153
0.00245934
-0.0458962
0.0434369
-0.041731
0.0400882
0.00164273
-0.0156796
0.0244019
-0.317789
0.309066
-0.0306051
0.0325808
-0.457209
0.455234
-0.0321679
0.0306225
-0.545965
0.547511
-0.0286388
0.0267151
-0.639517
0.64144
-0.0244543
0.0222415
-0.753731
0.755944
-0.0196138
0.0170844
-0.893133
0.895663
-0.014179
0.011463
-1.06237
1.06509
-0.00836383
0.00540479
-1.26763
1.27059
-0.00195636
-0.00143533
-1.51721
1.5206
0.00478667
-0.00812925
-1.51829
1.52163
0.0109638
-0.0139012
-1.27023
1.27317
0.0164579
-0.0191827
-1.06593
1.06865
0.0215474
-0.0240007
-0.897517
0.89997
0.0260677
-0.0281582
-0.759151
0.761242
0.0299406
-0.0317921
-0.645964
0.647816
0.0332262
-0.0335053
-0.550891
0.55117
0.0313783
-0.0249705
-0.436121
0.429713
0.0160469
-0.0067234
-0.241295
0.231972
0.0016965
-0.0414127
0.0397162
-0.038717
0.0375826
0.00113438
-0.0110888
0.0181418
-0.301142
0.294089
-0.0241762
0.0267796
-0.452899
0.450296
-0.0269294
0.0258601
-0.548851
0.54992
-0.0240677
0.0223928
-0.643214
0.644889
-0.0205451
0.0187837
-0.7579
0.759662
-0.0167545
0.0147395
-0.897946
0.899961
-0.0123474
0.00997581
-1.06766
1.07003
-0.00719075
0.00446805
-1.27343
1.27615
-0.00128127
-0.00184622
-1.52386
1.52699
0.00493454
-0.00800877
-1.52483
1.5279
0.010577
-0.0131621
-1.27595
1.27853
0.0153379
-0.0175035
-1.07114
1.0733
0.0193044
-0.0210916
-0.90208
0.903867
0.0226369
-0.0242842
-0.763095
0.764742
0.0257877
-0.0274053
-0.649556
0.651174
0.0282969
-0.0279457
-0.551159
0.550808
0.0251257
-0.0188235
-0.423257
0.416955
0.0115263
-0.00473607
-0.223977
0.217187
0.00119982
-0.038285
0.0370851
-0.0366463
0.0358841
0.000762206
-0.00742626
0.0127146
-0.287926
0.282638
-0.0179841
0.0207969
-0.447547
0.444734
-0.0215278
0.0210762
-0.550675
0.551127
-0.0197787
0.0184728
-0.646438
0.647744
-0.0169897
0.0155315
-0.761263
0.762721
-0.0138124
0.0121305
-0.901749
0.903431
-0.0101314
0.00813074
-1.07218
1.07418
-0.00572788
0.00332496
-1.27873
1.28113
-0.000473763
-0.00231485
-1.52997
1.53276
0.00505641
-0.00776285
-1.53081
1.53352
0.00996757
-0.0121024
-1.28088
1.28301
0.0138326
-0.0155296
-1.07516
1.07686
0.0169336
-0.0183628
-0.905435
0.906864
0.0195604
-0.0208
-0.766207
0.767447
0.0218993
-0.0229733
-0.652588
0.653662
0.0232075
-0.0222235
-0.550139
0.549155
0.0191366
-0.013534
-0.410966
0.405363
0.00795159
-0.0032322
-0.211477
0.206758
0.000842407
-0.0360768
0.0352344
-0.0353031
0.0349107
0.000392386
-0.00411615
0.00764589
-0.278227
0.274697
-0.01187
0.0146691
-0.441896
0.439097
-0.0159801
0.0161139
-0.551286
0.551152
-0.0155796
0.014834
-0.648747
0.649492
-0.0138241
0.0127493
-0.764001
0.765076
-0.0113844
0.00994307
-0.905032
0.906473
-0.00815375
0.00635878
-1.07609
1.07789
-0.00419514
0.00205792
-1.28338
1.28552
0.000488253
-0.00300063
-1.53538
1.53789
0.00544305
-0.00779319
-1.53602
1.53837
0.00967742
-0.0115133
-1.285
1.28683
0.0129839
-0.0143919
-1.07846
1.07987
0.0154867
-0.0164973
-0.90813
0.90914
0.0172264
-0.0178441
-0.768372
0.76899
0.0182681
-0.0184918
-0.654294
0.654518
0.0180597
-0.0163905
-0.547815
0.546146
0.0132336
-0.00860802
-0.400204
0.395579
0.00473743
-0.00185767
-0.202988
0.200109
0.000489216
-0.0345646
0.0340753
-0.034692
0.0346076
8.4378e-05
-0.00166969
0.00366778
-0.271999
0.270001
-0.00657343
0.0089184
-0.436457
0.434112
-0.0104047
0.0108497
-0.550794
0.550349
-0.0106701
0.0101984
-0.650074
0.650546
-0.00957885
0.0089155
-0.765939
0.766602
-0.00802935
0.00705444
-0.907679
0.908653
-0.00578265
0.00438689
-1.07949
1.08089
-0.00261617
0.000769114
-1.28754
1.28938
0.0014917
-0.00375722
-1.54031
1.54258
0.00593094
-0.00793425
-1.54058
1.54258
0.00944591
-0.0107752
-1.28844
1.28977
0.0117203
-0.0124896
-1.08096
1.08173
0.0129807
-0.0133163
-0.909795
0.91013
0.0135915
-0.0138408
-0.769409
0.769659
0.0139673
-0.0137461
-0.654461
0.654239
0.0129325
-0.0110174
-0.54427
0.542355
0.00824919
-0.00486703
-0.391571
0.388189
0.00245238
-0.000875299
-0.197982
0.196405
0.000206322
-0.0337488
0.0335424
-0.0346057
0.0346419
-3.6206e-05
-0.000667225
0.00184873
-0.268513
0.267331
-0.00376546
0.00546804
-0.432122
0.43042
-0.00666896
0.0071065
-0.549896
0.549459
-0.00714934
0.00691878
-0.65089
0.651121
-0.00649463
0.00599612
-0.767136
0.767634
-0.00531103
0.00452104
-0.909487
0.910277
-0.00342597
0.00223404
-1.08214
1.08333
-0.000711508
-0.000869369
-1.29106
1.29264
0.00279535
-0.0046857
-1.54464
1.54653
0.00647733
-0.00810898
-1.54437
1.546
0.00930694
-0.0103104
-1.29089
1.29189
0.0109756
-0.0114723
-1.0823
1.0828
0.0117676
-0.0119311
-0.910331
0.910495
0.0118783
-0.0116733
-0.769683
0.769478
0.0113972
-0.0108487
-0.653856
0.653308
0.00991985
-0.00814888
-0.540507
0.538736
0.00589846
-0.00337167
-0.385326
0.382799
0.00165711
-0.000564977
-0.195158
0.194066
0.000117003
-0.0334041
0.0332871
-0.0346881
0.0347385
-5.04012e-05
-0.000403106
0.00133156
-0.266309
0.265381
-0.00294619
0.00449214
-0.428864
0.427318
-0.0057002
0.00622219
-0.549004
0.548482
-0.00629276
0.0060732
-0.651331
0.65155
-0.00563393
0.00508589
-0.768157
0.768705
-0.00432422
0.00346533
-0.911078
0.911937
-0.00232892
0.00108946
-1.08451
1.08575
0.000502192
-0.00214143
-1.29421
1.29585
0.00407311
-0.0058952
-1.54833
1.55016
0.00759282
-0.0091398
-1.54755
1.5491
0.0102531
-0.0111765
-1.29285
1.29377
0.0117713
-0.0121525
-1.08324
1.08362
0.0122792
-0.0122757
-0.910572
0.910569
0.0121693
-0.0118876
-0.769174
0.768892
0.0114836
-0.0107667
-0.652659
0.651943
0.00966854
-0.00777626
-0.536978
0.535085
0.00555888
-0.00319355
-0.380423
0.378058
0.00161342
-0.000586981
-0.193028
0.192001
0.000136349
-0.0331662
0.0330298
-0.0347922
0.0348566
-6.43307e-05
-0.000119139
0.000841697
-0.264536
0.263814
-0.00236924
0.00412921
-0.425684
0.423924
-0.00587179
0.00689235
-0.547812
0.546791
-0.00735028
0.00735837
-0.651711
0.651703
-0.00698977
0.00632167
-0.769307
0.769975
-0.00536377
0.00422222
-0.912909
0.914051
-0.00269036
0.00105703
-1.08713
1.08876
0.000963635
-0.00297701
-1.29762
1.29964
0.00531297
-0.0074987
-1.5521
1.55429
0.00953157
-0.0113883
-1.55076
1.55261
0.0127587
-0.0139153
-1.29475
1.29591
0.0146845
-0.0152494
-1.08403
1.08459
0.0155221
-0.0155623
-0.91051
0.91055
0.0152742
-0.0147662
-0.768581
0.768073
0.0141266
-0.0127803
-0.651035
0.649689
0.0109496
-0.00827983
-0.532876
0.530206
0.00565121
-0.00317957
-0.375635
0.373163
0.00163679
-0.000640587
-0.190986
0.18999
0.000170064
-0.0328785
0.0327084
-0.0349351
0.0350413
-0.000106217
0.00031571
6.11464e-05
-0.26322
0.262843
-0.00124231
0.00299662
-0.422095
0.420341
-0.00523291
0.00699441
-0.545394
0.543633
-0.00823174
0.00850438
-0.651555
0.651282
-0.00826006
0.00770178
-0.770677
0.771235
-0.00659771
0.0051566
-0.915373
0.916814
-0.00318292
0.0010955
-1.09061
1.0927
0.00143847
-0.00392533
-1.30188
1.30436
0.00681078
-0.00953346
-1.55674
1.55947
0.0120385
-0.0143012
-1.5547
1.55697
0.0159506
-0.0174115
-1.29727
1.29873
0.0184349
-0.019197
-1.08526
1.08603
0.0195301
-0.0194237
-0.910532
0.910425
0.0190214
-0.0181913
-0.767436
0.766606
0.0167171
-0.0142918
-0.647815
0.64539
0.0114728
-0.00808187
-0.527109
0.523718
0.00527467
-0.00294505
-0.37072
0.36839
0.00156719
-0.000658199
-0.189037
0.188128
0.000191834
-0.0325305
0.0323387
-0.0351719
0.0353351
-0.000163221
0.000874499
-0.000947112
-0.262702
0.262775
0.000399018
0.00083662
-0.41879
0.417554
-0.0028236
0.00472397
-0.54174
0.539839
-0.00641106
0.00726789
-0.650777
0.64992
-0.00727371
0.0066871
-0.771812
0.772398
-0.00540229
0.00377815
-0.918377
0.920001
-0.00160045
-0.000668504
-1.09487
1.09714
0.00340733
-0.00608736
-1.30695
1.30963
0.0091758
-0.012058
-1.56231
1.5652
0.0146764
-0.0169511
-1.55934
1.56161
0.0185948
-0.0199757
-1.30018
1.30156
0.0208259
-0.0212972
-1.0867
1.08717
0.0213117
-0.0210443
-0.91017
0.909903
0.0203773
-0.0187777
-0.765408
0.763809
0.0165609
-0.0135349
-0.642595
0.639569
0.0104114
-0.00709182
-0.520292
0.516972
0.00461747
-0.00268049
-0.366255
0.364318
0.00151397
-0.000677867
-0.187275
0.186439
0.00020808
-0.0321511
0.031943
-0.035538
0.0357697
-0.000231695
0.00140748
-0.00193951
-0.263034
0.263566
0.0021105
-0.0016987
-0.416764
0.416353
0.000580078
0.000678559
-0.538331
0.537073
-0.00188778
0.00258205
-0.649064
0.64837
-0.00266215
0.0020993
-0.773001
0.773563
-0.000931763
-0.000556644
-0.921486
0.922975
0.00257317
-0.00469464
-1.09929
1.10141
0.00727024
-0.00977998
-1.3122
1.31471
0.0126195
-0.0151762
-1.56792
1.57048
0.0173886
-0.0191821
-1.56373
1.56553
0.0202898
-0.0211108
-1.3027
1.30352
0.0214338
-0.02144
-1.08737
1.08737
0.0211645
-0.0203264
-0.909365
0.908527
0.0189472
-0.0169208
-0.761879
0.759852
0.0145932
-0.011704
-0.636585
0.633695
0.00897816
-0.00625589
-0.513987
0.511265
0.00427996
-0.00268073
-0.362602
0.361003
0.00161717
-0.000758976
-0.185629
0.184771
0.000239018
-0.0317431
0.0315041
-0.0360578
0.0363625
-0.000304695
0.00192011
-0.00281671
-0.26429
0.265187
0.00357957
-0.00389472
-0.416428
0.416743
0.00374784
-0.0033633
-0.536451
0.536067
0.0029787
-0.00288815
-0.648063
0.647973
0.00319744
-0.00388125
-0.774066
0.77475
0.00504974
-0.006452
-0.924239
0.925642
0.00830958
-0.0102371
-1.1033
1.10523
0.0125321
-0.0147057
-1.31697
1.31914
0.0170571
-0.0190485
-1.57272
1.57471
0.0206124
-0.0216756
-1.56702
1.56809
0.0221065
-0.0220837
-1.30397
1.30395
0.0218123
-0.021152
-1.08693
1.08627
0.0201736
-0.0187346
-0.9072
0.905761
0.017137
-0.0150986
-0.757767
0.755729
0.0129985
-0.0105563
-0.631089
0.628646
0.00836146
-0.00618333
-0.508956
0.506778
0.00451967
-0.00302107
-0.359565
0.358066
0.00189762
-0.000910105
-0.183905
0.182917
0.000288446
-0.0312755
0.0309871
-0.0367456
0.0371372
-0.000391588
0.00248323
-0.00371313
-0.266318
0.267548
0.00495871
-0.00584969
-0.417437
0.418328
0.00647545
-0.00690282
-0.53631
0.536737
0.00739564
-0.00795321
-0.648297
0.648854
0.00879446
-0.00983444
-0.775513
0.776552
0.0112815
-0.0128296
-0.926886
0.928434
0.0147225
-0.0165727
-1.10691
1.10876
0.0186664
-0.0205425
-1.32104
1.32292
0.022421
-0.0238282
-1.57635
1.57775
0.0247049
-0.0249898
-1.56879
1.56908
0.0247299
-0.0240178
-1.3036
1.30289
0.0230806
-0.0217398
-1.08508
1.08373
0.0202868
-0.0185152
-0.904027
0.902255
0.0167717
-0.0147529
-0.753618
0.7516
0.0128328
-0.0107025
-0.626439
0.624309
0.00881005
-0.00686458
-0.504915
0.50297
0.0052495
-0.00363066
-0.356682
0.355063
0.00231622
-0.00111656
-0.1819
0.1807
0.000353031
-0.0307065
0.0303534
-0.037623
0.0381319
-0.000508861
0.00319591
-0.00481101
-0.269074
0.27069
0.00653897
-0.00794006
-0.419616
0.421017
0.00919165
-0.0102141
-0.537678
0.5387
0.0113328
-0.0125418
-0.649825
0.651034
0.014066
-0.015646
-0.777724
0.779304
0.0175736
-0.0194478
-0.929853
0.931727
0.0215736
-0.0235207
-1.11044
1.11238
0.0255864
-0.0273078
-1.32457
1.3263
0.0288561
-0.0297877
-1.57883
1.57977
0.0300618
-0.0296303
-1.56897
1.56854
0.0287241
-0.0273483
-1.30185
1.30047
0.0258111
-0.0239271
-1.08205
1.08016
0.0220799
-0.0199962
-0.900201
0.898117
0.0180742
-0.0159759
-0.749428
0.74733
0.0140684
-0.0119965
-0.622283
0.620211
0.0101329
-0.00813023
-0.501242
0.499239
0.0063556
-0.00447735
-0.353511
0.351633
0.00288971
-0.00139636
-0.179454
0.17796
0.000441249
-0.0300052
0.0295639
-0.0387422
0.0394203
-0.000678102
0.00419743
-0.00632539
-0.272647
0.274775
0.00864048
-0.0105739
-0.422851
0.424785
0.0124014
-0.0139592
-0.540313
0.541871
0.0157262
-0.017529
-0.652606
0.654409
0.0197386
-0.0219233
-0.780951
0.783136
0.0244257
-0.026737
-0.933532
0.935843
0.0292459
-0.0314464
-1.11424
1.11644
0.0336618
-0.0353743
-1.32785
1.32957
0.036728
-0.0372898
-1.58041
1.58097
0.0370463
-0.0359922
-1.56775
1.56669
0.0344975
-0.0324537
-1.29873
1.29669
0.0303446
-0.0278928
-1.07794
1.07549
0.025611
-0.0231313
-0.895707
0.893228
0.0209238
-0.0185892
-0.744958
0.742624
0.0165153
-0.0142793
-0.618103
0.615867
0.0122322
-0.00994934
-0.497383
0.4951
0.00785328
-0.00556257
-0.349783
0.347493
0.00359448
-0.00173721
-0.176418
0.174561
0.000548337
-0.0291335
0.0285851
-0.0402026
0.0411104
-0.000907783
0.00556187
-0.00836894
-0.277262
0.280069
0.0114195
-0.013963
-0.427187
0.42973
0.0164028
-0.0185331
-0.54414
0.54627
0.0209771
-0.0234529
-0.656623
0.659098
0.0264187
-0.0292655
-0.785361
0.788208
0.0324503
-0.0353332
-0.938155
0.941038
0.0383883
-0.0409808
-1.11862
1.12121
0.0434675
-0.0452566
-1.33115
1.33294
0.0464786
-0.0466996
-1.58125
1.58147
0.0459395
-0.0442286
-1.56526
1.56355
0.0421043
-0.0393711
-1.29428
1.29154
0.0366608
-0.0335905
-1.07268
1.06961
0.0307877
-0.0277947
-0.890348
0.887355
0.0251736
-0.0224436
-0.739884
0.737154
0.0200445
-0.017465
-0.613461
0.610881
0.0150731
-0.0123467
-0.492936
0.49021
0.00978641
-0.00693927
-0.345229
0.342382
0.00448085
-0.00216072
-0.172651
0.170331
0.00068112
-0.0280591
0.027378
-0.0421334
0.0433729
-0.0012395
0.0074724
-0.0111751
-0.283256
0.286958
0.0151353
-0.0183976
-0.432881
0.436143
0.0215372
-0.024323
-0.549299
0.552085
0.0275655
-0.0308375
-0.662023
0.665295
0.0347064
-0.0383665
-0.791111
0.794771
0.042401
-0.0459913
-0.943941
0.947532
0.0497103
-0.0527695
-1.12378
1.12684
0.0555837
-0.0574747
-1.33461
1.3365
0.0585618
-0.0584064
-1.5814
1.58125
0.0570693
-0.0546167
-1.56142
1.55897
0.0517747
-0.0482499
-1.28839
1.28486
0.0448353
-0.0410246
-1.06611
1.0623
0.0375842
-0.0339414
-0.883866
0.880223
0.0307755
-0.0275009
-0.733876
0.730601
0.0246393
-0.0215704
-0.607989
0.60492
0.0187039
-0.0153899
-0.48757
0.484256
0.0121954
-0.00865259
-0.339597
0.336054
0.00558241
-0.00268899
-0.167979
0.165086
0.000845073
-0.0267406
0.0258956
-0.0447218
0.0464839
-0.00176207
0.0103395
-0.015301
-0.291088
0.296049
0.0204671
-0.024642
-0.440293
0.444468
0.0286518
-0.0322589
-0.556048
0.559655
0.0365142
-0.0407751
-0.669077
0.673338
0.0457365
-0.0503517
-0.798484
0.803099
0.0553515
-0.0597095
-0.951133
0.955491
0.0641156
-0.0676331
-1.12987
1.13339
0.0707344
-0.0726603
-1.33823
1.34015
0.0735032
-0.0728462
-1.58073
1.58007
0.0707976
-0.0674614
-1.55602
1.55268
0.0637738
-0.0593153
-1.28084
1.27638
0.0550616
-0.0503596
-1.05797
1.05327
0.0461418
-0.0416959
-0.875972
0.871527
0.0378449
-0.0338735
-0.726623
0.722652
0.0304146
-0.0267142
-0.601372
0.597672
0.0232419
-0.0191959
-0.48096
0.476914
0.0152466
-0.0107746
-0.332624
0.328152
0.00692015
-0.00330195
-0.1622
0.158582
0.00102588
-0.025123
0.0240972
-0.0482986
0.0508939
-0.00259536
0.0147762
-0.0215227
-0.301456
0.308202
0.0282658
-0.0335736
-0.45002
0.455328
0.0386749
-0.0433628
-0.564878
0.569566
0.0489415
-0.0544437
-0.678187
0.683689
0.0607272
-0.0664428
-0.807775
0.81349
0.0724946
-0.0776428
-0.959852
0.965
0.0826935
-0.0865671
-1.13681
1.14068
0.0897771
-0.0915325
-1.3418
1.34355
0.0918797
-0.0904826
-1.57891
1.57752
0.0875034
-0.0830816
-1.54874
1.54432
0.078387
-0.0728338
-1.27135
1.26579
0.0676013
-0.0618578
-1.04797
1.04223
0.0567259
-0.0513249
-0.866362
0.860961
0.0466499
-0.041833
-0.717814
0.712997
0.0376482
-0.0331782
-0.593291
0.588821
0.0289544
-0.0239883
-0.472774
0.467808
0.0190739
-0.013462
-0.323875
0.318263
0.00858416
-0.00405527
-0.155051
0.150522
0.00124396
-0.0231605
0.0219165
-0.0534581
0.0575155
-0.00405742
0.0220298
-0.0313653
-0.315553
0.324888
0.0401937
-0.0470261
-0.462931
0.469763
0.0535907
-0.0597503
-0.576478
0.582637
0.0670577
-0.0740659
-0.689801
0.696809
0.0818017
-0.0886054
-0.819199
0.826002
0.0955748
-0.101301
-0.970013
0.975739
0.106696
-0.11061
-1.14427
1.14819
0.113548
-0.114774
-1.34484
1.34606
0.114235
-0.111758
-1.57543
1.57296
0.107554
-0.101792
-1.53915
1.53338
0.0959056
-0.0890893
-1.25956
1.25275
0.0827481
-0.0758373
-1.03582
1.02891
0.0696836
-0.0632068
-0.854748
0.848272
0.0575934
-0.0518056
-0.707149
0.701361
0.0467883
-0.0414213
-0.583397
0.57803
0.0362721
-0.0301471
-0.462581
0.456456
0.0240004
-0.0169273
-0.312903
0.30583
0.0107459
-0.00502391
-0.146179
0.140457
0.00151464
-0.0207886
0.0192739
-0.061301
0.0685134
-0.00721239
0.0355136
-0.0490541
-0.335691
0.349232
0.060897
-0.0695296
-0.480251
0.488884
0.0777567
-0.0856234
-0.59161
0.599476
0.0947654
-0.103116
-0.704184
0.712534
0.111904
-0.1193
-0.83254
0.839935
0.126579
-0.132288
-0.981037
0.986746
0.13737
-0.140719
-1.15149
1.15484
0.142781
-0.142938
-1.34652
1.34667
0.140996
-0.136998
-1.56955
1.56555
0.131214
-0.123839
-1.5267
1.51933
0.116565
-0.108338
-1.24516
1.23693
0.100782
-0.0926203
-1.02127
1.01311
0.0853843
-0.0777851
-0.840923
0.833323
0.07119
-0.0643665
-0.69439
0.687567
0.0584349
-0.0520743
-0.571374
0.565013
0.0458762
-0.0382693
-0.449807
0.4422
0.0305258
-0.0215633
-0.298951
0.289989
0.0136442
-0.00630509
-0.135126
0.127787
0.0018156
-0.0179359
0.0161203
-0.0754836
0.0789655
-0.0034818
0.0251106
-0.0368132
-0.365778
0.37748
0.0473431
-0.0555985
-0.502758
0.511013
0.0644364
-0.0740457
-0.60995
0.619559
0.0848395
-0.0944801
-0.720427
0.730068
0.105179
-0.114608
-0.846521
0.85595
0.124396
-0.132778
-0.991517
0.999898
0.141107
-0.147757
-1.15708
1.16373
0.153651
-0.157454
-1.34563
1.34944
0.159382
-0.158573
-1.56031
1.55951
0.154909
-0.148799
-1.51085
1.50474
0.141676
-0.132677
-1.22783
1.21883
0.123917
-0.113454
-1.00418
0.993715
0.103902
-0.0934507
-0.824835
0.814383
0.0841647
-0.0743719
-0.679502
0.669709
0.0654884
-0.0561218
-0.55695
0.547584
0.0473274
-0.0364545
-0.433818
0.422945
0.02636
-0.0161907
-0.280963
0.270794
0.00856505
-0.00301892
-0.121068
0.115522
0.000479816
-0.0145633
0.0140835
-0.0864196
0.0833746
0.00304502
0.00294761
-0.00957185
-0.392057
0.398681
0.0175289
-0.0241704
-0.523993
0.530635
0.0325513
-0.0409938
-0.629812
0.638254
0.0507583
-0.0596466
-0.739527
0.748415
0.0691055
-0.0776585
-0.864934
0.873487
0.0865495
-0.0938776
-1.00802
1.01535
0.10137
-0.107027
-1.17024
1.17589
0.112001
-0.114923
-1.35297
1.35589
0.11577
-0.114161
-1.55789
1.55628
0.109831
-0.103195
-1.49781
1.49118
0.0955505
-0.0861996
-1.20933
1.19998
0.0772169
-0.0669832
-0.982934
0.972701
0.0574291
-0.0468913
-0.803026
0.792489
0.0375104
-0.0279681
-0.657713
0.648171
0.0198515
-0.0115666
-0.535327
0.527042
0.00455856
0.00158962
-0.411153
0.405005
-0.00518301
0.00666424
-0.259437
0.257956
-0.00617271
0.00394442
-0.108709
0.110938
-0.00169094
-0.0124692
0.0141601
-0.0860337
0.082712
0.00332176
-0.00495314
0.00185901
-0.408898
0.411992
0.00300539
-0.00822648
-0.541294
0.546515
0.0151297
-0.0223817
-0.647105
0.654357
0.0307001
-0.0383105
-0.756713
0.764324
0.0466253
-0.0540149
-0.881375
0.888765
0.061504
-0.0680566
-1.02255
1.0291
0.0745913
-0.079647
-1.18121
1.18627
0.0837166
-0.085926
-1.35827
1.36048
0.0864766
-0.0846306
-1.55411
1.55227
0.0803129
-0.0739656
-1.48415
1.4778
0.0668577
-0.0584588
-1.19075
1.18236
0.0501405
-0.041007
-0.962427
0.953293
0.0325502
-0.0233132
-0.782314
0.773077
0.0153423
-0.00720977
-0.637801
0.629669
0.000523607
0.00608025
-0.516711
0.510107
-0.0109035
0.0140902
-0.396161
0.392974
-0.0146473
0.0124374
-0.252761
0.254971
-0.00917892
0.00506559
-0.110861
0.114974
-0.0018406
-0.0142651
0.0161057
-0.0839282
0.0807399
0.00318836
-0.00784657
0.00679585
-0.419404
0.420455
-0.00381134
-0.000333953
-0.554781
0.558926
0.00631892
-0.0123739
-0.661482
0.667537
0.0194782
-0.0259966
-0.771607
0.778126
0.0330799
-0.0394088
-0.895724
0.902053
0.0462225
-0.0518353
-1.03529
1.0409
0.0576562
-0.0617738
-1.19104
1.19516
0.0654106
-0.0674012
-1.36264
1.36463
0.067763
-0.0658146
-1.55023
1.54828
0.0620425
-0.0565513
-1.47123
1.46574
0.050407
-0.0429135
-1.17414
1.16664
0.0358979
-0.0282943
-0.944366
0.936762
0.0211998
-0.0138143
-0.76436
0.756975
0.00713758
-0.000553657
-0.621009
0.614425
-0.00479428
0.00959567
-0.502015
0.497213
-0.0127645
0.014506
-0.386468
0.384726
-0.0141404
0.0111321
-0.252276
0.255285
-0.0079547
0.00422023
-0.116184
0.119918
-0.0014846
-0.0165126
0.0179973
-0.0818124
0.0791703
0.00264212
-0.00823848
0.00841474
-0.426205
0.426029
-0.00611125
0.00288256
-0.565915
0.569144
0.00196562
-0.00740504
-0.673667
0.679106
0.0134057
-0.0191632
-0.784226
0.789983
0.025332
-0.0308728
-0.908063
0.913604
0.0367871
-0.0418765
-1.04644
1.05153
0.0469411
-0.0508987
-1.19924
1.20319
0.0542393
-0.0561024
-1.36645
1.36832
0.0565187
-0.0548674
-1.54643
1.54477
0.0516307
-0.046749
-1.45992
1.45504
0.0414931
-0.0352449
-1.15951
1.15326
0.0293435
-0.0228679
-0.929324
0.922849
0.017085
-0.0110178
-0.749789
0.743722
0.00579741
-0.000629714
-0.607731
0.602564
-0.00336181
0.00675786
-0.49098
0.487584
-0.0089806
0.00994739
-0.380129
0.379163
-0.00919426
0.00699924
-0.253122
0.255317
-0.00484008
0.00246789
-0.12024
0.122612
-0.000911258
-0.0181087
0.0190199
-0.0801135
0.0779232
0.0021903
-0.00761628
0.00799287
-0.430701
0.430324
-0.00669792
0.00392895
-0.574658
0.577426
0.000658753
-0.00530609
-0.684117
0.688765
0.0105142
-0.0155664
-0.795195
0.800247
0.0211107
-0.0261342
-0.918935
0.923959
0.0316439
-0.0362119
-1.05643
1.061
0.0409083
-0.0446345
-1.20696
1.21069
0.0477938
-0.0496186
-1.37006
1.37188
0.0501468
-0.0491349
-1.54326
1.54224
0.0463239
-0.0422182
-1.45
1.44589
0.0376226
-0.0321854
-1.14712
1.14168
0.0273039
-0.0216663
-0.916573
0.910936
0.0167394
-0.0117719
-0.737892
0.732924
0.00746669
-0.00322342
-0.597418
0.593174
-8.81168e-05
0.00305405
-0.482818
0.479852
-0.00469445
0.00552561
-0.375445
0.374614
-0.00536361
0.00407666
-0.252823
0.25411
-0.00280368
0.00152733
-0.121905
0.123181
-0.000624345
-0.0187012
0.0193255
-0.0789255
0.0772482
0.00167727
-0.00637401
0.00688728
-0.43401
0.433497
-0.00571173
0.0034981
-0.582426
0.584639
0.000695541
-0.00488812
-0.693289
0.697481
0.00986011
-0.0142737
-0.805105
0.809519
0.0192146
-0.0237461
-0.92907
0.933601
0.0290607
-0.0333127
-1.06568
1.06993
0.0376306
-0.0413014
-1.21433
1.218
0.0447648
-0.0466394
-1.37381
1.37569
0.0475018
-0.0467406
-1.54101
1.54025
0.0446564
-0.0408604
-1.44175
1.43796
0.0369513
-0.0322666
-1.13626
1.13158
0.0278372
-0.0230168
-0.905506
0.900685
0.0186178
-0.0140455
-0.72784
0.723267
0.0104425
-0.00657272
-0.58869
0.58482
0.00347151
-0.000886569
-0.475797
0.473212
-0.00084905
0.00202316
-0.371321
0.370147
-0.00227538
0.00190664
-0.251492
0.251861
-0.00144891
0.000892204
-0.121708
0.122265
-0.000441488
-0.0187456
0.0191871
-0.0783244
0.0770178
0.00130656
-0.0050929
0.00565613
-0.436681
0.436118
-0.0045089
0.00225361
-0.589224
0.59148
0.00163721
-0.00541012
-0.701609
0.705382
0.00972039
-0.0140172
-0.814041
0.818338
0.0186534
-0.0233748
-0.938052
0.942773
0.0280538
-0.0322008
-1.07436
1.07851
0.0367399
-0.0402825
-1.22164
1.22518
0.0434166
-0.0458385
-1.37756
1.37999
0.0470465
-0.0467474
-1.53965
1.53935
0.0449848
-0.0418738
-1.4344
1.43129
0.0383663
-0.0340722
-1.12663
1.12234
0.0300666
-0.0255868
-0.895753
0.891273
0.0215109
-0.0173879
-0.718727
0.714604
0.0137193
-0.0101184
-0.580671
0.57707
0.00723008
-0.00446676
-0.469545
0.466782
0.00250418
-0.0012266
-0.366807
0.36553
0.00042169
9.16455e-05
-0.248985
0.248472
-0.000390229
0.000443709
-0.120293
0.120239
-0.000329942
-0.01843
0.0187599
-0.0782915
0.0771934
0.00109815
-0.00369806
0.00400722
-0.439195
0.438886
-0.00297196
0.000653972
-0.595485
0.597803
0.00289278
-0.00653698
-0.709404
0.713048
0.0107028
-0.0146486
-0.82258
0.826525
0.0194401
-0.0234377
-0.947024
0.951022
0.0281377
-0.0321747
-1.08288
1.08692
0.0366765
-0.0404798
-1.22878
1.23258
0.0440039
-0.0463166
-1.38226
1.38457
0.0479608
-0.0481371
-1.53904
1.53921
0.0470487
-0.0442421
-1.42806
1.42525
0.0411012
-0.0370933
-1.11807
1.11407
0.0333374
-0.0289941
-0.886481
0.882138
0.0251384
-0.0209795
-0.710172
0.706013
0.0173549
-0.0136886
-0.573111
0.569445
0.0106211
-0.00790499
-0.463177
0.460461
0.00564806
-0.00393842
-0.361896
0.360187
0.00257428
-0.0014453
-0.245362
0.244233
0.000573637
8.70915e-05
-0.117874
0.117213
-0.000237967
-0.0178222
0.0180602
-0.0785361
0.0777523
0.000783861
-0.00249993
0.00231418
-0.441901
0.442087
-0.00139992
-0.000984715
-0.601053
0.603438
0.00417722
-0.0076949
-0.716713
0.720231
0.01171
-0.0158014
-0.830456
0.834548
0.0200293
-0.0242142
-0.955296
0.959481
0.0289171
-0.0327927
-1.09143
1.09531
0.0374373
-0.0412576
-1.23626
1.24008
0.0449172
-0.0478193
-1.38736
1.39026
0.0500245
-0.050543
-1.53948
1.54
0.0497127
-0.0475497
-1.42259
1.42043
0.0448224
-0.040971
-1.10983
1.10598
0.0372288
-0.0331345
-0.877515
0.873421
0.0289633
-0.0249106
-0.701499
0.697446
0.0212097
-0.0173398
-0.565624
0.561754
0.0142614
-0.0111953
-0.456614
0.453548
0.00873575
-0.00643755
-0.35656
0.354262
0.00471705
-0.00300368
-0.240803
0.239089
0.00148841
-0.000323092
-0.114657
0.113492
-0.000138205
-0.0169764
0.0171146
-0.079168
0.0785321
0.00063588
-0.00152406
0.00133471
-0.444869
0.445059
0.000150674
-0.00231186
-0.606709
0.60887
0.00562619
-0.00901071
-0.723542
0.726927
0.0128843
-0.0166047
-0.838417
0.842137
0.0209726
-0.024878
-0.963731
0.967637
0.0295573
-0.033886
-1.09968
1.104
0.0382235
-0.0424105
-1.24401
1.2482
0.0465405
-0.049602
-1.39313
1.39619
0.0522632
-0.0536009
-1.54079
1.54213
0.0532378
-0.0516404
-1.41814
1.41654
0.0490095
-0.0454095
-1.10206
1.09846
0.0418216
-0.0375933
-0.868716
0.864487
0.033518
-0.0292974
-0.692765
0.688544
0.0254822
-0.0213668
-0.557596
0.553481
0.0179653
-0.0146818
-0.44967
0.446387
0.0117365
-0.00900443
-0.350362
0.34763
0.00675841
-0.00446527
-0.235265
0.232972
0.00249635
-0.000833321
-0.110708
0.109045
3.35239e-05
-0.0159745
0.015941
-0.0800469
0.0795668
0.000480142
-0.000479346
4.00665e-05
-0.447981
0.44842
0.00134177
-0.00367481
-0.611975
0.614308
0.00687228
-0.0100958
-0.730133
0.733356
0.0140483
-0.0176328
-0.845911
0.849495
0.0218628
-0.0258976
-0.972055
0.976089
0.0305037
-0.0348182
-1.10824
1.11255
0.0393976
-0.0436495
-1.25237
1.25662
0.0480044
-0.0518451
-1.39959
1.40344
0.0550022
-0.0567028
-1.54346
1.54516
0.0570634
-0.0557965
-1.41483
1.41357
0.0536704
-0.0504757
-1.09473
1.09154
0.0467867
-0.0425269
-0.859825
0.855565
0.0383783
-0.0338615
-0.683788
0.679271
0.0299415
-0.0255563
-0.549299
0.544913
0.0219384
-0.0181616
-0.442246
0.43847
0.0149557
-0.0117528
-0.343381
0.340178
0.00885274
-0.00595957
-0.228752
0.225859