/*--------------------------------*- C++ -*----------------------------------*\
  =========                 |
  \\      /  F ield         | OpenFOAM: The Open Source CFD Toolbox
   \\    /   O peration     | Website:  https://openfoam.org
    \\  /    A nd           | Version:  6
     \\/     M anipulation  |
\*---------------------------------------------------------------------------*/
FoamFile
{
    version     2.0;
    format      ascii;
    class       surfaceScalarField;
    location    "70";
    object      phi;
}
// * * * * * * * * * * * * * * * * * * * * * * * * * * * * * * * * * * * * * //

dimensions      [0 3 -1 0 0 0 0];

internalField   nonuniform List<scalar> 
1300
(
3.75095
5.62643
-3.33405
3.75095
-7.76296
5.62643
-4.27075
4.27075
-0.401011
0.401011
1.87649
1.87446
-2.42713
2.42713
-1.80463
1.80463
-2.53039
2.53039
-5.24806
5.24806
-5.06993
5.06993
4.70107
-4.70107
-6.33502
6.33502
-0.963893
0.963893
-3.57394
3.57394
3.17249
-3.17249
-1.90497
1.90497
0.0374332
-0.0374332
-0.554085
4.30504
3.19687
3.19687
-1.98786
1.98786
-4.87451
4.87451
6.22256
-6.22256
5.25081
-5.25081
-1.91676
-2.49331
1.80177
-11.4988
-5.96119
-5.96119
-8.44099
8.44099
-2.81456
2.81187
2.94718
-2.94718
-1.72645
1.72645
-4.28655
0.0157997
-4.28655
4.24179
0.0289685
4.24179
-0.499697
0.0986862
-0.499697
3.94466
-3.94466
0.311889
0.0891217
0.311889
3.06727
-3.06727
-1.87686
3.75334
1.8741
-1.87209
6.17713
-1.87886
3.75332
-6.07592
6.07592
-2.67472
0.247586
-2.67472
2.19623
0.230901
2.19623
-6.88863
6.88863
-1.83661
0.0319718
-1.83661
1.80979
-0.00515182
1.80979
2.88799
-2.88799
-2.62895
0.0985617
-2.62895
2.38563
0.144756
2.38563
0.353375
5.27306
-5.9798
8.79167
-5.27306
0.0249958
5.21025
0.0378078
5.21025
-5.10528
0.0353498
-5.10528
5.01256
0.0573753
5.01256
4.79049
-0.0894207
4.79049
-4.82014
0.119076
-4.82014
-3.36129
-4.07469
-6.49527
0.160257
-6.49527
-1.03113
0.0672371
-1.03113
0.856289
0.107604
0.856289
-3.72489
3.72489
-3.93066
0.356714
-3.93066
3.12746
0.0450249
3.12746
1.86812
1.88283
5.61908
-5.61908
2.44659
-1.84539
-0.0595797
-1.84539
-1.97766
-3.27314
1.97766
-0.0726929
-0.179949
0.217382
-0.179949
3.15711
0.0397571
3.15711
2.22798
0.157649
-2.22798
0.240124
3.3001
-3.3001
1.321
0.666856
1.321
-5.55835
5.55835
4.96148
0.0510716
-4.96148
0.0869755
6.15722
0.0653459
6.15722
-6.20777
-0.0147963
-6.20777
2.48685
-4.98016
-2.64867
6.14813
0.186885
-6.14813
0.186947
2.91873
0.0284461
2.91873
-2.91952
2.91952
-2.98418
0.0369988
-2.98418
-2.14907
0.422618
-2.14907
1.41194
0.314513
1.41194
-4.20093
-0.0856247
-4.20093
-4.08881
0.158156
4.08881
0.152971
1.11684
-1.11684
-0.606239
0.106543
-0.606239
-4.04888
-0.15205
4.04888
-0.104218
-3.88593
-0.058729
-3.88593
-3.02188
0.0376995
3.02188
0.0453958
3.1121
0.0450161
-3.1121
0.0448234
-1.87099
3.75382
-1.87996
3.75406
-5.69626
-0.379664
-5.69626
6.36018
-0.284255
6.36018
3.10122
0.472726
-3.10122
0.426501
2.02182
0.174415
2.02182
-6.86175
-0.0268791
-6.86175
6.895
-0.00637451
6.895
1.90378
0.118033
-1.90378
0.0671774
1.82241
-0.0126204
1.82241
2.91563
-0.0276358
2.91563
-2.88176
-0.00622653
-2.88176
2.79155
-2.79155
2.71619
0.0753683
-2.71619
0.0872368
-11.124
11.1092
-0.036294
-11.0877
5.17396
5.17396
4.24442
0.546064
4.24442
-5.0153
0.195161
-5.0153
2.66498
-5.31365
3.09932
-6.46061
4.67665
-16.1755
4.29678
-8.37147
6.74549
-6.74549
6.6272
0.11829
-6.6272
0.131925
-1.13302
0.101891
-1.13302
-3.12336
-0.601537
-3.12336
4.36436
-0.639471
4.36436
-3.02771
3.02771
-3.07642
0.0487124
3.07642
0.0510438
1.8266
-0.00419305
-1.8266
-0.0187914
0.225756
0.0861325
-0.225756
0.0458072
3.52165
-0.221549
3.52165
-3.09601
-0.204098
-3.09601
-1.2234
0.0903793
1.2234
0.097601
-5.80763
0.249273
-5.80763
-11.1817
0.093999
-11.1439
-6.11377
-6.11377
2.32723
11.1189
-2.89709
0.0153241
2.89709
0.0216443
2.97528
0.0524303
-2.97528
0.0557592
-2.85866
0.0671082
2.85866
0.0608547
-2.51702
0.36795
-2.51702
-1.02623
1.02623
-1.17456
0.148326
1.17456
0.237378
1.41658
-0.299738
1.41658
0.739441
0.116848
-0.739441
0.133201
-3.83204
-0.0538963
-3.83204
6.59838
-0.238202
6.59838
-2.9671
-0.128906
2.9671
-0.0514733
-0.0349219
11.1441
-5.13904
0.0337554
5.13904
-11.2095
11.2432
-3.22255
0.705535
3.22255
1.02187
5.28393
0.274427
-5.28393
0.268623
6.83592
0.0590832
-6.83592
0.090429
-2.63302
-0.490333
-2.63302
-5.10459
-0.591666
5.10459
-0.740228
-11.482
-0.203562
11.6855
-11.4246
6.01119
0.146027
-6.01119
11.3892
-0.995129
-0.121713
0.995129
0.0311048
1.75569
-0.339115
1.75569
3.73792
-0.21627
-3.73792
-0.0941133
-6.75289
-0.10886
6.75289
-0.154511
-2.18418
-0.448841
2.18418
-0.428487
-4.26738
4.30713
1.90975
-2.33525
-2.64491
-5.60839
1.85525
1.89857
4.30184
-10.1647
-6.01073
-9.97779
7.21446
-6.94584
-9.32905
9.23963
7.9254
-7.98413
-5.7775
5.82855
6.48461
-6.43922
1.87942
1.87393
8.06238
-7.8148
-15.6801
15.3005
7.58272
-7.55075
15.8284
-15.8552
-17.8744
17.9334
-5.70019
5.79875
-6.74248
6.73625
-6.97916
6.92769
-2.79857
-3.66205
13.1351
-12.9748
8.58475
-8.64433
-8.67033
9.02704
3.3846
0.922535
3.42962
-1.88181
3.76123
-1.87152
3.78127
2.74833
-5.5469
2.56531
-5.21023
4.36786
4.21689
-4.29517
-1.31323
-5.92855
5.957
-5.80882
5.86968
9.17081
-9.15501
-1.88498
3.7589
-1.86908
3.76766
-3.42306
-2.35444
3.37804
0.9238
8.07839
5.05671
-8.26527
-1.71252
-8.02334
7.80707
-8.21548
8.01138
-0.437159
5.8386
-5.40144
4.43735
-1.65238
7.49098
5.56209
5.75725
5.8606
-5.58617
1.08524
-6.48668
-6.39971
-2.29781
2.40435
2.18952
-2.1004
6.13733
1.78807
6.03311
-5.8029
-2.18123
-5.85679
3.81989
2.00866
3.8686
4.08207
2.40254
4.11977
3.02966
-3.03668
0.00702366
-3.05924
6.0889
0.72222
-5.41368
-4.48988
4.98987
3.07251
5.22077
-5.59125
-2.22355
-5.16475
-9.60095
-6.07919
-10.1926
10.0907
5.20973
9.80649
-11.9622
11.8077
4.86751
2.71521
4.86236
-4.95847
-2.59228
-4.89129
11.6828
-2.64922
-9.03363
-10.3335
-7.54088
10.3399
5.4885
10.9797
6.95377
11.0701
4.4297
7.25314
-9.91821
2.37732
-3.86487
-1.83532
-3.77763
3.65414
2.14461
3.7989
-4.21879
-2.52369
-4.20346
-4.29488
-2.68428
4.32252
2.41373
-4.41672
-3.79876
4.54562
2.38207
4.0559
-10.0666
4.31557
-7.97761
-9.21101
-3.76383
-9.07908
3.54487
2.60062
-6.14549
-2.00203
8.52548
-4.30859
7.21226
-5.19956
-3.44477
-5.21836
-6.9607
-1.70964
-6.80254
-8.92592
8.43559
-9.20808
8.56861
12.528
-5.64038
-6.88765
-3.96699
-2.47223
3.92216
-0.492548
-3.71005
3.71707
0.0511802
3.83245
4.75498
4.26244
-3.88192
-1.92691
-3.82616
3.82086
2.04882
3.88797
6.84394
2.32687
6.87291
-6.60617
-2.54885
-6.69179
9.10495
-8.68233
2.79116
-2.70078
5.37389
2.63749
-5.15234
-2.871
6.23675
-3.20969
-3.02706
-12.3453
10.7987
1.54664
-4.85433
-0.416981
-0.454415
-5.57089
-3.75816
5.45182
0.305432
11.1041
7.34594
-5.51459
5.76386
6.17095
6.22202
-0.177683
5.89269
-5.18715
5.27165
-2.70996
-2.56169
5.47161
-5.62366
-1.22019
-5.54175
4.32156
0.409458
1.51681
-1.29943
-1.79192
-0.505888
-1.65872
1.21855
0.97097
1.30469
0.945594
1.45876
-2.92289
0.542955
2.37994
-1.9773
-1.55745
-3.79998
-1.15338
4.95337
5.72771
2.07937
-5.63359
-0.223202
2.57092
-2.46331
-0.819824
-2.98016
2.234
-3.05383
-3.47301
-1.9365
5.40952
-3.36862
-0.457541
3.31619
0.552412
-3.82811
-2.10044
3.79111
0.328667
-3.12888
6.19029
-3.06141
-5.05578
2.52896
3.55994
4.53762
-4.78999
2.44914
2.34085
-1.23005
4.25979
0.960978
4.4342
-7.06836
4.84481
5.73375
3.2933
-6.20647
1.04173
-6.02663
8.54577
-7.40859
-1.13718
4.08818
4.4576
7.04527
5.48276
-5.6984
12.7437
-1.15381
-6.25479
7.18044
-3.88714
4.86581
-8.75296
-10.3486
4.09379
-9.204
11.0672
-1.86321
-3.60707
-8.35511
12.8111
-1.21318
-11.5979
8.59332
-4.33734
-4.38882
8.72616
-6.98656
6.9811
-1.99864
-4.98246
-10.151
-5.70423
10.2599
1.54781
-9.9402
12.3175
-2.68706
4.16061
0.701751
4.14799
3.35921
-5.48205
2.12284
3.62734
-5.62599
2.05979
-7.54184
-6.75813
12.0994
-5.34129
-10.522
-9.55037
-0.971589
2.55285
9.76468
-9.50662
7.44107
2.06555
3.29739
0.590573
-3.37276
-0.404869
0.240312
4.5096
-4.74991
4.03921
4.19686
3.21655
1.29305
3.84929
2.10771
-3.87093
-0.33253
-4.16843
1.48415
-1.75469
-3.69365
5.17779
-4.06148
0.367836
-2.74593
-3.49214
6.23807
-4.58125
3.03639
3.1539
5.0852
-4.91298
1.42084
-2.39042
-2.52255
2.64064
-4.39534
2.00033
3.17747
4.38239
0.583637
5.90744
6.19198
-8.50807
0.530452
11.2487
-9.53617
2.47904
8.59106
-9.92011
0.369732
-8.70935
0.977411
-5.286
-5.16808
5.21931
-6.92894
-3.53365
6.24783
0.625083
-6.4008
-0.401744
-6.06663
-2.85929
-6.51547
-3.04908
-6.15899
-8.74748
-1.67506
-7.07242
6.76053
-6.69401
-3.49861
7.43423
1.13437
-7.48106
7.35935
-7.53933
7.20021
0.0949014
3.62217
4.35734
1.88511
-2.39212
4.27723
-5.07061
7.39748
-8.73742
3.66681
4.23097
-6.77981
-4.50646
5.06064
4.04431
5.37515
8.92371
-10.3782
1.45449
-10.6531
11.9917
-1.33861
-16.4335
5.78033
-7.50975
2.42588
0.365273
2.52777
0.54457
2.50752
-3.0521
-2.15621
-2.05861
-2.44104
-3.49586
5.9369
1.06441
-3.47009
2.40567
-3.57271
4.63713
-0.0669597
-3.40313
5.19843
-2.6909
5.5637
-3.63967
1.92403
3.54585
5.84417
-2.29832
4.42196
-1.78447
1.9449
-4.24322
-1.55096
-2.95457
5.09918
-3.2835
3.65133
-0.349273
4.00061
-4.04303
0.833345
-0.826483
3.37038
3.6105
4.33379
-3.04074
2.9365
-4.72097
-1.30672
-4.13733
-0.959868
-0.18487
-3.78535
3.97022
6.00619
-6.19106
-5.28338
9.52656
-4.24318
7.70506
-5.44047
-2.2646
-4.29314
-4.38919
3.92519
1.9675
9.67256
0.179752
-5.62022
-5.0074
-3.98553
3.09304
2.17861
-1.74767
3.29431
2.20208
-0.685274
0.393903
0.910783
1.76622
-1.37231
0.342836
1.42338
-0.95659
1.71098
0.859937
-1.82783
0.169105
-1.29326
3.52727
1.08667
-2.05764
0.68533
0.892319
-3.60228
5.07816
-2.72462
-2.35354
5.97048
1.14552
-3.87014
4.39623
-3.98677
2.4411
-3.59448
-1.42904
-5.41581
-3.62775
-2.48801
4.89368
-3.44889
5.52826
1.42067
-5.30506
6.72572
-3.6311
1.6946
-3.06175
3.92169
-1.00603
-2.05573
2.88135
2.52816
-3.12973
0.14957
-0.248376
2.42182
-2.67019
-0.632011
-2.60931
-4.57598
4.90464
-2.10379
4.55293
2.17344
-1.91755
6.47048
1.80772
-3.72528
-3.24806
-3.7056
-1.38443
3.15319
-0.594783
-4.29651
-5.57724
4.17847
0.255731
-7.05834
7.92673
-0.868398
-3.98582
-0.85899
4.94717
-6.09944
0.473449
-4.03965
3.88709
4.84806
5.1038
-11.3634
-0.234472
-6.1537
1.10315
-7.25685
5.56075
-3.57063
7.66442
-10.3074
6.8088
-9.17304
6.52724
-0.729614
6.25503
-4.13219
2.7786
-8.48282
-6.93502
5.54974
-2.83453
6.25149
-3.20457
9.45606
-5.89163
5.34232
4.11374
-1.04915
-4.16921
-5.31691
4.26776
0.0254151
4.1734
4.98704
-2.87933
4.65451
2.26452
-4.65495
-2.13082
-6.48784
1.8329
-3.33394
-1.9221
3.755
3.1631
3.75367
1.23245
-3.34881
7.23865
-8.21024
-1.89736
-3.27072
5.29366
-1.0259
3.43711
-6.70783
-1.84889
4.75016
-0.72924
-4.02092
0.890218
-4.42387
1.6718
-6.09567
5.25715
-5.65889
2.25431
-9.76406
-5.22675
-5.19565
-2.27924
-5.26009
-7.57985
5.30061
-1.79952
5.55982
-8.5192
7.78996
-3.47254
8.77315
-5.4623
-1.05317
5.89079
1.30942
10.0826
0.159606
-4.66606
-1.93921
3.73807
-1.79886
1.15383
-3.62574
0.112333
2.48846
3.48202
-6.81003
0.0302119
-4.63585
-3.91056
7.95486
5.616
11.6222
1.24399
9.14206
-1.18719
10.386
4.18796
4.42534
-3.00821
4.4627
0.962008
4.62882
-0.895636
2.81966
1.63214
1.69938
0.763936
2.30314
1.30736
3.13648
0.0843891
-1.97422
4.63485
-8.62038
-0.985375
-8.07431
1.16531
5.42889
-4.26357
2.88036
-0.701751
1.0815
-0.166642
-1.21992
1.38656
-2.72833
-1.90519
-0.481809
-1.65206
2.33739
1.87521
-1.85558
-0.872752
0.332438
-3.96019
3.26204
-3.11247
-0.584309
6.14141
-2.89213
0.221934
-1.19753
-2.38738
-2.89326
2.72416
6.17423
0.29625
3.11282
5.20089
3.10045
0.221122
3.81855
-5.68176
-3.72329
-5.91623
-0.355479
4.59169
1.75088
8.01379
5.86462
4.83872
-1.86911
-10.0793
6.50794
-2.04524
5.16933
-1.14841
-4.94725
5.07288
2.3246
-5.69797
0.0390767
-4.90818
-6.95342
-0.482096
8.27206
-9.60047
8.5473
5.68801
1.38441
-4.43889
-0.756757
4.29057
0.134773
10.5208
-0.910596
-7.06149
7.97209
-4.51829
3.53291
0.678017
2.61629
2.06458
1.36283
-5.69866
-9.96224
-2.06124
-1.54104
-4.41478
0.538589
-2.4138
6.07329
-2.54038
3.8087
5.43171
6.51321
-2.04855
-4.14251
6.29173
-2.48303
4.03018
)
;

boundaryField
{
    wall-4
    {
        type            calculated;
        value           uniform 0;
    }
    velocity-inlet-5
    {
        type            calculated;
        value           uniform -3.75095;
    }
    velocity-inlet-6
    {
        type            calculated;
        value           uniform -5.62643;
    }
    pressure-outlet-7
    {
        type            calculated;
        value           nonuniform List<scalar> 8(3.33405 7.76296 4.41007 9.69704 7.43598 5.13552 5.7643 8.97343);
    }
    wall-8
    {
        type            calculated;
        value           uniform 0;
    }
    frontAndBackPlanes
    {
        type            empty;
        value           nonuniform 0();
    }
}


// ************************************************************************* //
