/*--------------------------------*- C++ -*----------------------------------*\
  =========                 |
  \\      /  F ield         | OpenFOAM: The Open Source CFD Toolbox
   \\    /   O peration     | Website:  https://openfoam.org
    \\  /    A nd           | Version:  6
     \\/     M anipulation  |
\*---------------------------------------------------------------------------*/
FoamFile
{
    version     2.0;
    format      ascii;
    class       volScalarField;
    location    "91.2";
    object      p;
}
// * * * * * * * * * * * * * * * * * * * * * * * * * * * * * * * * * * * * * //

dimensions      [0 2 -2 0 0 0 0];

internalField   nonuniform List<scalar> 
8800
(
0.851946
0.802632
0.764668
0.736601
0.716442
0.701859
0.691267
0.683735
0.678861
0.676807
0.678194
0.682552
0.689356
0.698789
0.711533
0.728858
0.752739
0.785839
0.828778
0.881292
0.686435
0.692781
0.701932
0.705483
0.702877
0.696791
0.689856
0.683622
0.67883
0.675975
0.675761
0.678405
0.683062
0.689201
0.696309
0.70335
0.708233
0.708112
0.701441
0.692545
0.659942
0.666178
0.670681
0.674555
0.677507
0.678461
0.677379
0.675267
0.6733
0.672478
0.673531
0.676002
0.678904
0.681185
0.681716
0.679934
0.676574
0.672565
0.667787
0.664072
0.655627
0.658394
0.661002
0.663164
0.664906
0.666481
0.667592
0.667956
0.667858
0.667978
0.668807
0.669971
0.670731
0.670596
0.669632
0.668287
0.666625
0.664329
0.661922
0.660355
0.650552
0.651978
0.653821
0.655906
0.657624
0.658925
0.660034
0.661028
0.661856
0.662619
0.663359
0.663847
0.663893
0.663548
0.662896
0.661792
0.660146
0.65826
0.656911
0.656108
0.645537
0.64644
0.647691
0.649323
0.651024
0.652566
0.653864
0.655004
0.656093
0.657143
0.657965
0.658389
0.658428
0.658084
0.657301
0.656128
0.65478
0.653524
0.652708
0.652183
0.640597
0.641253
0.642218
0.643543
0.645
0.646529
0.648031
0.649418
0.650711
0.651956
0.652954
0.653492
0.653547
0.653141
0.652386
0.651465
0.65049
0.649598
0.649024
0.648639
0.635728
0.636233
0.637023
0.638173
0.639485
0.640918
0.642449
0.644018
0.645568
0.647075
0.648289
0.648953
0.649081
0.648799
0.648269
0.647608
0.646894
0.646246
0.645826
0.645525
0.630874
0.631276
0.631941
0.632973
0.634218
0.635603
0.637135
0.638811
0.640589
0.642398
0.643888
0.644765
0.645103
0.645066
0.644789
0.644358
0.643857
0.643408
0.6431
0.642855
0.625952
0.62628
0.626859
0.627815
0.62902
0.630401
0.631978
0.633768
0.635761
0.637892
0.639742
0.640952
0.641599
0.641848
0.641825
0.641637
0.641343
0.64106
0.640836
0.640631
0.620872
0.621143
0.621664
0.622578
0.623773
0.625191
0.626857
0.628807
0.631055
0.633565
0.635865
0.637502
0.638524
0.639096
0.639354
0.639411
0.639328
0.639195
0.639041
0.638862
0.615539
0.615767
0.616251
0.617153
0.61838
0.619878
0.621678
0.623846
0.626424
0.629402
0.632251
0.634399
0.635859
0.636805
0.637378
0.637689
0.637828
0.637837
0.63774
0.63758
0.609857
0.610051
0.610518
0.611438
0.612738
0.614361
0.616353
0.618809
0.621807
0.625366
0.62888
0.631636
0.633611
0.634987
0.63592
0.636529
0.636893
0.637032
0.636983
0.636835
0.603716
0.603883
0.604349
0.605317
0.60673
0.608531
0.610783
0.613614
0.617136
0.621407
0.625727
0.629213
0.631798
0.633674
0.635022
0.635967
0.636572
0.636843
0.636835
0.636694
0.596989
0.597133
0.597614
0.598658
0.600229
0.602271
0.604862
0.608167
0.612339
0.617481
0.622774
0.627132
0.630442
0.632908
0.63473
0.636056
0.636938
0.637346
0.637376
0.637237
0.589526
0.589646
0.590156
0.591307
0.593089
0.595441
0.598464
0.602362
0.607338
0.613541
0.620004
0.625403
0.629568
0.632734
0.635121
0.636891
0.638081
0.63863
0.638695
0.638554
0.581135
0.581239
0.581783
0.583073
0.585126
0.587872
0.591438
0.596076
0.602042
0.609534
0.617403
0.62404
0.629216
0.633203
0.63627
0.63856
0.640095
0.640794
0.640889
0.640742
0.57153
0.571635
0.572248
0.573711
0.576114
0.579358
0.583605
0.589164
0.59635
0.605407
0.614957
0.623059
0.629428
0.634383
0.638248
0.641146
0.643074
0.643928
0.644049
0.643893
0.560417
0.5605
0.561197
0.562915
0.565763
0.569641
0.574748
0.581458
0.590149
0.601106
0.612661
0.622483
0.630249
0.636342
0.641125
0.644742
0.647103
0.648114
0.648255
0.648085
0.547383
0.547453
0.548259
0.550289
0.553702
0.558394
0.564599
0.572761
0.583317
0.596579
0.610514
0.622342
0.631719
0.639132
0.644988
0.649418
0.652243
0.653402
0.653552
0.653365
0.531831
0.531892
0.53285
0.535301
0.539457
0.545212
0.552839
0.562856
0.575738
0.591795
0.608528
0.622669
0.63388
0.642799
0.649872
0.655204
0.658508
0.65979
0.659934
0.659728
0.512929
0.512986
0.514167
0.517212
0.522384
0.529576
0.539091
0.551514
0.567321
0.586752
0.606738
0.623498
0.636771
0.647371
0.65578
0.662092
0.665844
0.667202
0.66732
0.667094
0.489459
0.489521
0.491055
0.494992
0.501626
0.510834
0.52294
0.538543
0.558033
0.581508
0.605215
0.624875
0.64041
0.652844
0.662692
0.669989
0.674101
0.67546
0.67553
0.675287
0.459508
0.459601
0.461748
0.467136
0.47606
0.488244
0.504019
0.523858
0.547955
0.576194
0.60407
0.626871
0.644809
0.659175
0.670532
0.678716
0.683017
0.684275
0.684276
0.684021
0.419835
0.420066
0.42348
0.431548
0.444349
0.461162
0.482184
0.507601
0.53733
0.571033
0.603458
0.62957
0.649983
0.666308
0.679136
0.687983
0.692215
0.693256
0.693175
0.692919
0.364266
0.365433
0.372259
0.385923
0.405509
0.429494
0.457791
0.490252
0.526588
0.566335
0.603556
0.633056
0.655934
0.674147
0.688264
0.697403
0.701229
0.701964
0.701808
0.701562
0.283854
0.291752
0.30748
0.331427
0.361164
0.394751
0.431893
0.472395
0.515992
0.562248
0.604566
0.637682
0.66322
0.683448
0.698551
0.707569
0.710779
0.711202
0.711003
0.7108
0.19818
0.215488
0.241039
0.276029
0.316465
0.359773
0.405739
0.454348
0.505441
0.558668
0.606738
0.644061
0.672776
0.695197
0.71113
0.719338
0.721611
0.721744
0.721577
0.721451
0.124637
0.145815
0.179563
0.224012
0.273922
0.326381
0.380926
0.437474
0.495838
0.555664
0.608999
0.650042
0.681458
0.70559
0.721669
0.728798
0.730371
0.730404
0.730275
0.730183
0.0642614
0.087795
0.127167
0.1784
0.235694
0.295782
0.357872
0.421669
0.486783
0.552744
0.610886
0.655232
0.688885
0.714245
0.730255
0.736669
0.737909
0.737907
0.737799
0.737717
0.0141366
0.0390826
0.0825194
0.139021
0.202212
0.268549
0.337033
0.40719
0.478401
0.549984
0.612543
0.659859
0.695463
0.721808
0.737698
0.743574
0.74463
0.744618
0.744524
0.744443
-0.0283537
-0.00258215
0.0438532
0.104618
0.172758
0.244416
0.318418
0.394177
0.470887
0.547635
0.614267
0.66428
0.701572
0.72867
0.74435
0.749827
0.750796
0.750805
0.75073
0.750646
-0.0652862
-0.0389823
0.00978658
0.074084
0.146457
0.22276
0.301666
0.382487
0.46425
0.545825
0.616275
0.668767
0.707526
0.735146
0.75056
0.755744
0.756684
0.75674
0.7567
0.756615
-0.0981851
-0.0714751
-0.0207948
0.0465173
0.122571
0.202975
0.286313
0.371805
0.458314
0.544497
0.618624
0.673472
0.713566
0.741596
0.756749
0.761703
0.762632
0.762752
0.762766
0.762687
-0.128115
-0.101045
-0.048748
0.0212005
0.100509
0.184575
0.271947
0.361783
0.452829
0.543496
0.621277
0.678468
0.719885
0.748337
0.763292
0.76807
0.769014
0.769192
0.76926
0.769196
-0.155922
-0.128482
-0.0747425
-0.00240658
0.0798018
0.167162
0.25823
0.352133
0.447532
0.542651
0.624135
0.683774
0.726592
0.755559
0.770447
0.77513
0.77605
0.776253
0.776362
0.776314
-0.182039
-0.15426
-0.0992048
-0.0247309
0.0600843
0.150431
0.244896
0.342616
0.442213
0.54179
0.627118
0.689355
0.733713
0.763331
0.778233
0.782853
0.783723
0.783912
0.784033
0.783999
-0.206981
-0.178783
-0.122511
-0.0460919
0.0410793
0.134143
0.231743
0.333043
0.436692
0.540739
0.63011
0.695128
0.741139
0.771476
0.786473
0.791044
0.79183
0.791971
0.79208
0.792059
-0.230917
-0.202297
-0.144881
-0.0667023
0.0225939
0.118131
0.218616
0.323268
0.430812
0.539345
0.63297
0.701012
0.748783
0.779847
0.794924
0.799388
0.800072
0.800138
0.800212
0.800214
-0.254027
-0.224961
-0.166485
-0.0867008
0.004514
0.10229
0.205415
0.313183
0.424443
0.537442
0.635549
0.706926
0.756576
0.788292
0.803318
0.807593
0.808141
0.808121
0.808153
0.808156
-0.276442
-0.246899
-0.187416
-0.106168
-0.0132421
0.0865539
0.19208
0.302724
0.41749
0.534884
0.637689
0.712783
0.764539
0.796761
0.811448
0.815399
0.815779
0.815684
0.815679
0.815678
-0.298259
-0.268188
-0.207715
-0.125145
-0.0306958
0.0708958
0.17859
0.291855
0.409893
0.531545
0.639228
0.718488
0.772719
0.805403
0.819384
0.822685
0.822831
0.822688
0.822662
0.822651
-0.31938
-0.28881
-0.227393
-0.143658
-0.0478591
0.055331
0.164948
0.280583
0.401626
0.527343
0.639993
0.723914
0.781199
0.81451
0.82738
0.829519
0.829207
0.829063
0.829092
0.829079
-0.33981
-0.308763
-0.246471
-0.161701
-0.0647136
0.0398785
0.151197
0.268926
0.392697
0.522207
0.639825
0.728881
0.789982
0.824469
0.836105
0.836381
0.83502
0.834828
0.835168
0.835277
-0.359624
-0.328042
-0.264957
-0.179269
-0.0812255
0.0245885
0.137387
0.256941
0.383135
0.516116
0.638566
0.733164
0.798935
0.835557
0.84649
0.844537
0.841127
0.840403
0.841437
0.842288
-0.378703
-0.346636
-0.282817
-0.196316
-0.0973608
0.00952083
0.123588
0.244701
0.373005
0.509092
0.636085
0.73649
0.807759
0.84768
0.859238
0.855833
0.84991
0.847036
0.847202
0.847796
-0.397142
-0.364578
-0.300069
-0.212889
-0.113166
-0.00537308
0.10974
0.232142
0.36223
0.501058
0.632205
0.738578
0.816201
0.860511
0.874354
0.871435
0.863779
0.855915
0.847388
0.84965
-0.414878
-0.381931
-0.316856
-0.229183
-0.128934
-0.0204119
0.0954457
0.218806
0.35031
0.491451
0.626369
0.738805
0.824059
0.873896
0.891075
0.890555
0.881105
0.866537
0.845113
0.846611
-0.431799
-0.398684
-0.33303
-0.245023
-0.144412
-0.0353094
0.0808863
0.204984
0.337483
0.480416
0.618435
0.736173
0.830048
0.886283
0.905319
0.905323
0.894253
0.863803
0.807252
0.783562
-0.447804
-0.415824
-0.348199
-0.259976
-0.158804
-0.0495794
0.0663418
0.190948
0.324022
0.468099
0.608375
0.729905
0.832584
0.89596
0.911477
0.905917
0.881801
0.82463
0.762018
0.724195
-0.489681
-0.432707
-0.362062
-0.274992
-0.172877
-0.0642172
0.0519595
0.176564
0.309697
0.454096
0.595643
0.719111
0.827675
0.897774
0.905238
0.878814
0.819149
0.747149
0.676051
0.636816
-0.463718
-0.445088
-0.383109
-0.295372
-0.194739
-0.0862432
0.0293495
0.153515
0.286125
0.429836
0.571109
0.694421
0.796347
0.873962
0.846566
0.72406
0.624878
0.555992
0.48861
0.511147
-0.49362
-0.461886
-0.399035
-0.311758
-0.211492
-0.10311
0.0127492
0.13638
0.268171
0.410484
0.549672
0.669908
0.760576
0.80403
0.739882
0.588758
0.471597
0.392566
0.307255
0.347831
-0.516555
-0.482509
-0.417971
-0.33065
-0.230431
-0.122032
-0.00623206
0.116692
0.247259
0.3874
0.522959
0.637237
0.715773
0.72102
0.601701
0.437247
0.301252
0.203362
0.105122
0.131934
-0.538741
-0.503718
-0.437878
-0.349937
-0.24965
-0.141359
-0.0260515
0.0959579
0.225004
0.362432
0.493083
0.598202
0.659176
0.630567
0.46058
0.276168
0.110957
-0.0269175
-0.154063
-0.14612
-0.560575
-0.525231
-0.458547
-0.370061
-0.269665
-0.161604
-0.0469621
0.0739374
0.2011
0.335265
0.459903
0.555468
0.595132
0.51701
0.321258
0.118163
-0.0725119
-0.229276
-0.435551
-0.515522
-0.582747
-0.547524
-0.480375
-0.391528
-0.291019
-0.183172
-0.0691607
0.0505451
0.175619
0.306104
0.423998
0.510025
0.521558
0.392208
0.19368
-0.0202392
-0.215321
-0.37833
-0.502271
-0.617571
-0.606322
-0.571075
-0.503717
-0.414722
-0.314248
-0.206738
-0.0934854
0.0248025
0.147364
0.273458
0.383856
0.456593
0.438946
0.273533
0.0740285
-0.133573
-0.311957
-0.410464
-0.436545
-0.449802
-0.631434
-0.596178
-0.528701
-0.439731
-0.3395
-0.232528
-0.120318
-0.00381464
0.115701
0.236514
0.338951
0.392439
0.354701
0.159292
-0.0378703
-0.225134
-0.360059
-0.398502
-0.407147
-0.407481
-0.658368
-0.622962
-0.555369
-0.466545
-0.366726
-0.260556
-0.149693
-0.0353774
0.0805426
0.195269
0.288831
0.324567
0.252634
0.0544828
-0.135974
-0.298685
-0.374545
-0.388707
-0.389759
-0.389627
-0.687132
-0.651458
-0.583745
-0.495167
-0.39595
-0.290825
-0.181633
-0.069918
0.0418945
0.149842
0.233154
0.252891
0.141668
-0.0410034
-0.220555
-0.349392
-0.378814
-0.379527
-0.380161
-0.379765
-0.717474
-0.681512
-0.613738
-0.525526
-0.427097
-0.323293
-0.216126
-0.107428
-0.000193262
0.100359
0.173257
0.173249
0.0436285
-0.128257
-0.286734
-0.360969
-0.375928
-0.374275
-0.374087
-0.373739
-0.748845
-0.712775
-0.645088
-0.557398
-0.459987
-0.35781
-0.253032
-0.147794
-0.0455003
0.0472625
0.109558
0.0930787
-0.0461477
-0.204813
-0.331397
-0.370101
-0.369551
-0.369786
-0.369592
-0.369326
-0.7808
-0.744718
-0.677311
-0.590367
-0.494271
-0.394058
-0.292068
-0.19074
-0.0937321
-0.00847349
0.0408982
0.0176525
-0.126756
-0.265798
-0.358055
-0.366344
-0.367318
-0.367222
-0.366986
-0.36676
-0.812371
-0.776471
-0.709684
-0.623801
-0.529397
-0.431555
-0.332767
-0.23577
-0.144461
-0.0659782
-0.0276867
-0.0576784
-0.19486
-0.31034
-0.365378
-0.375223
-0.368729
-0.366935
-0.366276
-0.365915
-0.841829
-0.806756
-0.741169
-0.656812
-0.564583
-0.469589
-0.374449
-0.282137
-0.196897
-0.124812
-0.0910805
-0.135018
-0.249112
-0.345833
-0.368529
-0.369406
-0.368793
-0.367683
-0.367059
-0.366708
-0.868004
-0.834064
-0.770366
-0.688196
-0.598761
-0.507211
-0.416226
-0.328907
-0.24979
-0.184416
-0.152671
-0.201535
-0.287996
-0.363008
-0.385872
-0.372322
-0.368236
-0.367
-0.366567
-0.366403
-0.888235
-0.856296
-0.795519
-0.716428
-0.630611
-0.543228
-0.456984
-0.375004
-0.301839
-0.242985
-0.21402
-0.252529
-0.311025
-0.351501
-0.36053
-0.363791
-0.363983
-0.36427
-0.364532
-0.364566
-0.900477
-0.871343
-0.814554
-0.73976
-0.6586
-0.576246
-0.495396
-0.419176
-0.351907
-0.297989
-0.270292
-0.295803
-0.325624
-0.34098
-0.348674
-0.359081
-0.363633
-0.36507
-0.365587
-0.365668
-0.902039
-0.876826
-0.825371
-0.756341
-0.681091
-0.604793
-0.530035
-0.459926
-0.398793
-0.3489
-0.31751
-0.339003
-0.353302
-0.359733
-0.366262
-0.369369
-0.37097
-0.371377
-0.371455
-0.371465
-0.890581
-0.87015
-0.825837
-0.764427
-0.696601
-0.627488
-0.559563
-0.495717
-0.440796
-0.396718
-0.353452
-0.379075
-0.390321
-0.415395
-0.400386
-0.386822
-0.380962
-0.378771
-0.377878
-0.377614
-0.863831
-0.848888
-0.814087
-0.762787
-0.704077
-0.643331
-0.582929
-0.525489
-0.475954
-0.439157
-0.392832
-0.396409
-0.395632
-0.416482
-0.397647
-0.385141
-0.379187
-0.377064
-0.376348
-0.376119
-0.825237
-0.815709
-0.791295
-0.751683
-0.70354
-0.652056
-0.599585
-0.548624
-0.503577
-0.472414
-0.440778
-0.405526
-0.362384
-0.358062
-0.372593
-0.371492
-0.368124
-0.368457
-0.369715
-0.369975
-0.781841
-0.776413
-0.762389
-0.734206
-0.69707
-0.654546
-0.609656
-0.564727
-0.523653
-0.492905
-0.463711
-0.424419
-0.369701
-0.326318
-0.320193
-0.340452
-0.367242
-0.383343
-0.3885
-0.389138
-0.743527
-0.740217
-0.733552
-0.715678
-0.687566
-0.652646
-0.614159
-0.573932
-0.534761
-0.502488
-0.475205
-0.452341
-0.439362
-0.439777
-0.450375
-0.481225
-0.489759
-0.476142
-0.467622
-0.470965
-0.715935
-0.71397
-0.710568
-0.700036
-0.67874
-0.649418
-0.615124
-0.577114
-0.537836
-0.502452
-0.4749
-0.46925
-0.519581
-0.617588
-0.714333
-0.765058
-0.767925
-0.72688
-0.670335
-0.652144
-0.695716
-0.695017
-0.69386
-0.688669
-0.673155
-0.64751
-0.614518
-0.576517
-0.534713
-0.492696
-0.46325
-0.442847
-0.461814
-0.523487
-0.618666
-0.644399
-0.622373
-0.58551
-0.540992
-0.51841
-0.683983
-0.683751
-0.683131
-0.68071
-0.67019
-0.646712
-0.613328
-0.57345
-0.527185
-0.47629
-0.433187
-0.37864
-0.320727
-0.26333
-0.247985
-0.231075
-0.179499
-0.128242
-0.0859608
-0.065129
-0.67594
-0.67579
-0.675379
-0.674673
-0.66826
-0.647148
-0.61299
-0.569689
-0.518218
-0.455928
-0.391656
-0.310107
-0.173022
0.014679
0.208821
0.379485
0.479656
0.531715
0.552097
0.558868
-0.670749
-0.670703
-0.670575
-0.670419
-0.666582
-0.648912
-0.613717
-0.566549
-0.509
-0.43569
-0.353426
-0.257028
-0.0698719
0.200936
0.479655
0.724767
0.888389
0.965283
0.987199
0.992169
-0.666571
-0.666593
-0.666581
-0.666544
-0.665227
-0.651196
-0.615877
-0.565127
-0.501885
-0.421415
-0.32682
-0.223907
-0.0300642
0.250199
0.551117
0.819514
1.01157
1.11377
1.15859
1.17415
-0.662831
-0.662935
-0.66301
-0.663012
-0.662895
-0.652832
-0.61926
-0.566556
-0.499836
-0.415123
-0.315016
-0.211263
-0.0290574
0.245693
0.542851
0.816157
1.02719
1.15017
1.2049
1.22177
-0.659974
-0.660001
-0.659829
-0.6594
-0.659505
-0.652726
-0.623662
-0.572008
-0.503565
-0.416979
-0.318786
-0.221293
-0.0676171
0.183646
0.453226
0.697542
0.89998
1.02648
1.0789
1.09192
-0.658817
-0.658725
-0.658273
-0.657176
-0.655566
-0.652834
-0.630133
-0.582046
-0.512401
-0.426861
-0.336195
-0.24932
-0.132848
0.0791802
0.308667
0.505443
0.665091
0.764809
0.804913
0.813872
-0.661222
-0.66138
-0.661503
-0.661368
-0.660436
-0.660144
-0.643757
-0.595684
-0.524368
-0.444318
-0.361649
-0.284413
-0.195086
-0.0304419
0.148588
0.294789
0.410355
0.479599
0.505382
0.5099
-0.665742
-0.666765
-0.669783
-0.676714
-0.685671
-0.687665
-0.666874
-0.609462
-0.539231
-0.467657
-0.391836
-0.323375
-0.259202
-0.137825
-0.00465458
0.0985379
0.176015
0.219973
0.235442
0.237624
-0.669547
-0.671018
-0.676106
-0.689436
-0.709741
-0.715628
-0.684807
-0.617866
-0.557118
-0.494719
-0.422226
-0.362768
-0.313035
-0.227162
-0.132309
-0.0624855
-0.0150426
0.00986706
0.0185941
0.0202913
-0.681634
-0.68268
-0.685424
-0.687043
-0.684923
-0.686922
-0.655826
-0.61446
-0.577336
-0.519324
-0.451208
-0.400534
-0.362033
-0.296038
-0.228371
-0.182292
-0.152764
-0.137761
-0.132304
-0.131056
-0.703377
-0.703693
-0.703055
-0.680408
-0.623787
-0.578535
-0.590751
-0.608
-0.5952
-0.538814
-0.478032
-0.435491
-0.404642
-0.353606
-0.299095
-0.261894
-0.239007
-0.225976
-0.221211
-0.220334
-0.728286
-0.726973
-0.722592
-0.69399
-0.62909
-0.575414
-0.592225
-0.635291
-0.618703
-0.556865
-0.501948
-0.465648
-0.437902
-0.393027
-0.345518
-0.311302
-0.286552
-0.272231
-0.26733
-0.26712
-0.777064
-0.77468
-0.78575
-0.80264
-0.808993
-0.780963
-0.760121
-0.732646
-0.664861
-0.580132
-0.523788
-0.489002
-0.462968
-0.421217
-0.375242
-0.340864
-0.315062
-0.300426
-0.295943
-0.29629
-0.896241
-0.907218
-0.949955
-1.00662
-1.03394
-1.01828
-0.962385
-0.860027
-0.721172
-0.604831
-0.542408
-0.500479
-0.475128
-0.437321
-0.394288
-0.360897
-0.335916
-0.322008
-0.317656
-0.318254
-1.02293
-1.04148
-1.08538
-1.12946
-1.15333
-1.13798
-1.06855
-0.920579
-0.741584
-0.617613
-0.543983
-0.494965
-0.473495
-0.436284
-0.395513
-0.366964
-0.346967
-0.336322
-0.332934
-0.333518
-1.04955
-1.06577
-1.09502
-1.12615
-1.14625
-1.13357
-1.05843
-0.882936
-0.713142
-0.600099
-0.515335
-0.473418
-0.452631
-0.417195
-0.383938
-0.361901
-0.347002
-0.339218
-0.336661
-0.337162
-0.946839
-0.958644
-0.981278
-1.00738
-1.02635
-1.01642
-0.945444
-0.78588
-0.650771
-0.543808
-0.467049
-0.435659
-0.41234
-0.381306
-0.357069
-0.341726
-0.33154
-0.326393
-0.324689
-0.325121
-0.734813
-0.746927
-0.770383
-0.799669
-0.823326
-0.819508
-0.753985
-0.64845
-0.550562
-0.460335
-0.412679
-0.379754
-0.359739
-0.338085
-0.320025
-0.308267
-0.300828
-0.297154
-0.295992
-0.296538
-0.455882
-0.467122
-0.490466
-0.522686
-0.552514
-0.559351
-0.527041
-0.475905
-0.419362
-0.375087
-0.344049
-0.315753
-0.304053
-0.288136
-0.274204
-0.265597
-0.259583
-0.256223
-0.255421
-0.25611
-0.182921
-0.191012
-0.209767
-0.240086
-0.275389
-0.302977
-0.313801
-0.31207
-0.298597
-0.285125
-0.264683
-0.254498
-0.247721
-0.234072
-0.223679
-0.217481
-0.212658
-0.210075
-0.209616
-0.210341
0.00407815
-0.00118731
-0.0153337
-0.0418328
-0.0803748
-0.125498
-0.1648
-0.189593
-0.19897
-0.198324
-0.195492
-0.192461
-0.190273
-0.181196
-0.17392
-0.168123
-0.163606
-0.161625
-0.161567
-0.162288
0.0833939
0.0796651
0.0687824
0.0464185
0.0118845
-0.029342
-0.0710235
-0.10241
-0.11986
-0.128856
-0.132306
-0.132127
-0.135188
-0.127894
-0.121225
-0.116216
-0.113027
-0.112233
-0.112563
-0.113202
0.0797332
0.0770942
0.0696253
0.054613
0.0308973
0.00202206
-0.0249552
-0.0453835
-0.059274
-0.0654056
-0.0710155
-0.074822
-0.0784372
-0.0726416
-0.0678096
-0.0643921
-0.0618272
-0.0612998
-0.0619564
-0.0626337
0.0246869
0.0242462
0.023413
0.019898
0.0137735
0.00626393
-0.000871872
-0.0071818
-0.0103078
-0.011905
-0.0134916
-0.0149749
-0.0153852
-0.0158286
-0.0150605
-0.0157835
-0.0162188
-0.0163546
-0.0147491
-0.0140365
-0.0189747
0.166742
0.33673
0.480024
0.593605
0.682088
0.754923
0.813922
0.828289
0.825188
0.26375
0.382442
0.493394
0.589029
0.668939
0.734447
0.785863
0.820596
0.839243
0.856093
0.454863
0.533664
0.611448
0.679495
0.737265
0.785057
0.822735
0.851613
0.873423
0.892694
0.59624
0.652249
0.708554
0.758994
0.802485
0.839503
0.870639
0.896826
0.916809
0.935714
0.710552
0.752725
0.794557
0.833735
0.868771
0.899798
0.926977
0.950069
0.967862
0.985944
0.805875
0.840888
0.875358
0.908422
0.938939
0.966615
0.991103
1.01171
1.02734
1.04483
0.893052
0.924602
0.956403
0.987188
1.01584
1.04192
1.0648
1.08358
1.09738
1.11439
0.979254
1.01158
1.04373
1.0747
1.10327
1.12888
1.15086
1.16827
1.18057
1.19708
1.07321
1.10955
1.14417
1.17648
1.20552
1.23074
1.25174
1.26795
1.2795
1.29562
1.18609
1.2268
1.26369
1.29646
1.32481
1.34871
1.36825
1.38347
1.39532
1.41138
1.32754
1.36844
1.40361
1.43308
1.4582
1.47976
1.49822
1.51367
1.52675
1.54269
1.49888
1.53092
1.55786
1.5802
1.60026
1.61895
1.63667
1.65342
1.66832
1.68403
1.68499
1.70219
1.71928
1.73596
1.75205
1.76677
1.78067
1.79514
1.81036
1.82766
1.86837
1.87829
1.89146
1.90243
1.91184
1.92149
1.93209
1.94226
1.95155
1.97721
2.08618
2.08048
2.06753
2.05327
2.04697
2.05267
2.07081
2.09933
2.13309
2.16942
2.389
2.25306
2.17354
2.13099
2.11366
2.11765
2.14508
2.20294
2.3106
2.489
0.755638
0.749336
0.741608
0.730497
0.716932
0.704291
0.693907
0.685914
0.680223
0.67693
0.676629
0.67951
0.684783
0.69217
0.70174
0.713586
0.727158
0.740095
0.74909
0.756633
0.664693
0.670614
0.678689
0.684827
0.687902
0.6874
0.684327
0.680352
0.676793
0.674549
0.674469
0.676776
0.680573
0.685052
0.689177
0.69144
0.690379
0.685752
0.678702
0.670872
0.657921
0.660294
0.663565
0.666344
0.668803
0.671004
0.672199
0.672076
0.671171
0.67041
0.670686
0.672162
0.673993
0.67526
0.675213
0.673768
0.671625
0.669275
0.666301
0.663287
0.653101
0.65419
0.656111
0.658456
0.660339
0.661751
0.662989
0.664008
0.664646
0.665079
0.665704
0.666519
0.667044
0.666971
0.666377
0.665481
0.664169
0.662214
0.660117
0.658642
0.648036
0.64867
0.649803
0.651571
0.653427
0.655038
0.656312
0.657408
0.658436
0.659398
0.660269
0.660875
0.661083
0.66093
0.660435
0.659493
0.65809
0.656498
0.655173
0.654374
0.643059
0.643498
0.644291
0.645607
0.647145
0.648729
0.650236
0.65157
0.652779
0.653943
0.654997
0.655702
0.655966
0.655797
0.655184
0.654225
0.653102
0.651981
0.651092
0.650561
0.638159
0.638485
0.639103
0.640186
0.641502
0.642927
0.64444
0.64596
0.647417
0.648811
0.650079
0.650949
0.651279
0.651117
0.650584
0.649851
0.649044
0.648218
0.647573
0.647184
0.633307
0.63356
0.63406
0.634987
0.636183
0.637523
0.638986
0.640569
0.642226
0.643896
0.645438
0.646509
0.646979
0.646982
0.646681
0.646198
0.645614
0.645022
0.64456
0.644263
0.628431
0.628632
0.629049
0.629868
0.630992
0.632291
0.633749
0.635388
0.637202
0.639141
0.641008
0.642375
0.643111
0.643383
0.643343
0.643104
0.642738
0.642347
0.642029
0.641796
0.623442
0.623603
0.623962
0.624711
0.625794
0.627082
0.628581
0.630319
0.632311
0.634536
0.636789
0.638559
0.639659
0.640255
0.640497
0.640509
0.640374
0.64017
0.639969
0.639784
0.618247
0.618377
0.618695
0.619403
0.620475
0.621798
0.623378
0.625262
0.62749
0.630067
0.63279
0.635058
0.636596
0.637567
0.63813
0.638416
0.638512
0.638491
0.638394
0.638244
0.612753
0.612857
0.613148
0.61384
0.614938
0.61634
0.618047
0.620134
0.622671
0.625692
0.628993
0.631859
0.633911
0.635318
0.636248
0.636835
0.637188
0.637348
0.63734
0.637218
0.606856
0.606938
0.607213
0.607915
0.609075
0.610597
0.612488
0.614849
0.61778
0.621355
0.625362
0.628947
0.631612
0.633527
0.634878
0.635825
0.63645
0.63679
0.636865
0.636763
0.600439
0.600501
0.600771
0.601505
0.602762
0.604454
0.606594
0.609311
0.612741
0.616997
0.621863
0.626313
0.629709
0.632225
0.634062
0.63541
0.636347
0.636884
0.637039
0.636952
0.593362
0.593405
0.593678
0.594466
0.595861
0.597779
0.600243
0.603412
0.607464
0.612558
0.618464
0.623952
0.628217
0.631445
0.633858
0.635666
0.636963
0.637714
0.637947
0.637872
0.585469
0.585486
0.585762
0.586628
0.588204
0.590412
0.593289
0.597026
0.601849
0.607969
0.615133
0.621864
0.627158
0.631225
0.634324
0.636686
0.638391
0.639374
0.639683
0.639616
0.576491
0.576503
0.576805
0.577774
0.579584
0.582159
0.585556
0.590003
0.595782
0.603157
0.611839
0.620049
0.626563
0.631617
0.635522
0.638547
0.640721
0.641958
0.642344
0.64228
0.566167
0.566152
0.566497
0.567619
0.569731
0.572775
0.576829
0.582166
0.58913
0.598041
0.60855
0.618514
0.626462
0.632681
0.637536
0.641326
0.644046
0.645556
0.646015
0.64595
0.554143
0.554107
0.554502
0.555811
0.558303
0.561951
0.56684
0.573301
0.581741
0.592534
0.60524
0.617271
0.626891
0.634466
0.640437
0.645108
0.648444
0.65024
0.650763
0.650691
0.539908
0.539849
0.540326
0.541888
0.544867
0.549293
0.55526
0.563156
0.573453
0.586558
0.601893
0.616344
0.627886
0.637014
0.644279
0.649954
0.653962
0.656042
0.656613
0.656526
0.522756
0.522676
0.523281
0.525199
0.528832
0.534295
0.541684
0.551445
0.564101
0.580055
0.598514
0.615759
0.629488
0.640372
0.649075
0.655878
0.6606
0.662933
0.663524
0.663414
0.501681
0.501585
0.502396
0.504832
0.509387
0.516289
0.525616
0.537861
0.553549
0.573013
0.595151
0.615564
0.631731
0.644557
0.654834
0.662862
0.668281
0.670798
0.671368
0.671228
0.475148
0.475051
0.476214
0.479459
0.485415
0.494416
0.506502
0.522134
0.541744
0.565496
0.591899
0.615837
0.634648
0.649566
0.661534
0.670817
0.676831
0.679412
0.679908
0.679734
0.44067
0.440628
0.442421
0.447058
0.455375
0.467696
0.483852
0.50415
0.528788
0.557685
0.58892
0.616682
0.638283
0.655383
0.669087
0.679563
0.685957
0.688429
0.688799
0.688592
0.393834
0.394019
0.397213
0.404788
0.417512
0.435299
0.457517
0.484126
0.51502
0.549894
0.586431
0.618227
0.642689
0.661969
0.677376
0.688839
0.695252
0.6974
0.697604
0.697375
0.326378
0.327833
0.33562
0.349985
0.370851
0.397357
0.428132
0.462768
0.501027
0.542536
0.584678
0.620576
0.64788
0.669246
0.686118
0.698156
0.70415
0.705775
0.705815
0.705593
0.245839
0.248679
0.263849
0.28868
0.320713
0.357503
0.397515
0.440578
0.486579
0.535225
0.583653
0.624398
0.655232
0.679227
0.697653
0.709786
0.715077
0.716251
0.716233
0.7161
0.163335
0.170733
0.193537
0.228816
0.271632
0.31848
0.367717
0.419236
0.47299
0.528738
0.583386
0.628879
0.663107
0.689633
0.709501
0.721237
0.725338
0.725943
0.725876
0.725799
0.0958097
0.105284
0.132931
0.175598
0.226852
0.282197
0.339725
0.399144
0.460252
0.522711
0.583123
0.63288
0.670022
0.698549
0.719142
0.730255
0.733646
0.73408
0.734021
0.733969
0.0404257
0.0506483
0.0819818
0.130116
0.187726
0.249834
0.314298
0.380621
0.44837
0.516998
0.582717
0.636339
0.676051
0.706189
0.727278
0.73792
0.740861
0.741196
0.74115
0.74111
-0.00596026
0.00460449
0.0384618
0.0908463
0.153637
0.221345
0.291644
0.363925
0.43757
0.511807
0.582404
0.639561
0.681558
0.713073
0.734487
0.744688
0.747342
0.747642
0.747613
0.747583
-0.0458054
-0.0350982
0.000634207
0.0564159
0.123526
0.196034
0.271418
0.348964
0.427915
0.507301
0.582431
0.64285
0.686886
0.719519
0.741069
0.750882
0.753363
0.753671
0.753677
0.753664
-0.0808259
-0.0700796
-0.0328871
0.0257051
0.0964938
0.173175
0.253077
0.335393
0.419241
0.503447
0.582886
0.646379
0.69228
0.72584
0.747408
0.756879
0.759247
0.759585
0.759651
0.759667
-0.112298
-0.101545
-0.0631923
-0.00218271
0.0718072
0.152169
0.236123
0.322816
0.411256
0.50008
0.583704
0.650206
0.697896
0.732317
0.753896
0.763092
0.765354
0.765736
0.765882
0.765941
-0.14125
-0.130469
-0.0910957
-0.0279418
0.0488994
0.132537
0.220152
0.310886
0.403665
0.49698
0.584759
0.654316
0.703836
0.739168
0.760829
0.769838
0.772054
0.772466
0.772664
0.772763
-0.168266
-0.157445
-0.117156
-0.0520722
0.0273133
0.113893
0.204843
0.299324
0.396219
0.493929
0.585927
0.658658
0.710135
0.746497
0.768387
0.777288
0.779444
0.779842
0.780061
0.780193
-0.193838
-0.182956
-0.141809
-0.0749724
0.00670301
0.0959432
0.189944
0.287904
0.388719
0.49074
0.587068
0.66316
0.716743
0.754235
0.776439
0.785317
0.787414
0.787757
0.787957
0.7881
-0.218351
-0.20732
-0.165367
-0.0969171
-0.0131751
0.0784695
0.175269
0.27646
0.380989
0.487255
0.588028
0.667716
0.723566
0.762263
0.784826
0.793677
0.795686
0.795944
0.7961
0.796223
-0.241944
-0.230738
-0.188016
-0.118097
-0.0324884
0.0613375
0.160686
0.264867
0.372901
0.483307
0.588647
0.672218
0.730535
0.770447
0.79332
0.802068
0.803946
0.804098
0.804184
0.804285
-0.264813
-0.25338
-0.20992
-0.138625
-0.0513361
0.0444501
0.146113
0.25304
0.364359
0.478769
0.588761
0.676541
0.737609
0.778755
0.801742
0.810222
0.811902
0.811941
0.811955
0.812029
-0.286961
-0.27532
-0.231147
-0.158566
-0.069772
0.0277642
0.131515
0.240941
0.355302
0.473531
0.588213
0.680545
0.744767
0.787232
0.810058
0.817986
0.819337
0.819271
0.819233
0.819281
-0.308485
-0.296605
-0.251699
-0.177944
-0.0878243
0.0112641
0.116879
0.228563
0.345706
0.467524
0.586858
0.684075
0.751977
0.796063
0.818504
0.825397
0.82617
0.825969
0.825929
0.825968
-0.329271
-0.317216
-0.271593
-0.196783
-0.105488
-0.00502026
0.102225
0.21592
0.335576
0.460718
0.584566
0.686955
0.759175
0.805451
0.827519
0.832845
0.832449
0.831982
0.832071
0.832203
-0.349453
-0.337152
-0.290833
-0.21509
-0.122761
-0.0210833
0.0876083
0.203049
0.324941
0.453117
0.58124
0.688984
0.766192
0.815518
0.83773
0.841217
0.838839
0.8375
0.837866
0.838485
-0.368906
-0.356372
-0.309431
-0.232842
-0.139588
-0.0368662
0.0730818
0.190036
0.313862
0.444726
0.576818
0.689954
0.772778
0.826168
0.84962
0.851872
0.847074
0.843777
0.844002
0.845661
-0.387736
-0.374943
-0.32735
-0.250001
-0.155953
-0.0523223
0.0587111
0.176934
0.302412
0.435628
0.571282
0.689631
0.778599
0.837003
0.863047
0.865702
0.859428
0.85326
0.848942
0.842669
-0.405842
-0.392862
-0.344681
-0.266737
-0.172079
-0.0677243
0.0441778
0.163368
0.290189
0.425392
0.564227
0.687616
0.783496
0.848121
0.878012
0.88305
0.877038
0.867261
0.854548
0.854385
-0.423201
-0.410214
-0.36144
-0.283002
-0.187961
-0.0830452
0.0294992
0.149302
0.277133
0.413851
0.555386
0.683263
0.786494
0.858637
0.892681
0.900542
0.894759
0.883706
0.847715
0.80998
-0.43963
-0.42686
-0.377597
-0.298678
-0.203611
-0.0983006
0.0146598
0.134851
0.263284