/*--------------------------------*- C++ -*----------------------------------*\
  =========                 |
  \\      /  F ield         | OpenFOAM: The Open Source CFD Toolbox
   \\    /   O peration     | Website:  https://openfoam.org
    \\  /    A nd           | Version:  6
     \\/     M anipulation  |
\*---------------------------------------------------------------------------*/
FoamFile
{
    version     2.0;
    format      ascii;
    class       surfaceScalarField;
    location    "107";
    object      phi;
}
// * * * * * * * * * * * * * * * * * * * * * * * * * * * * * * * * * * * * * //

dimensions      [0 3 -1 0 0 0 0];

internalField   nonuniform List<scalar> 
17370
(
-0.0899999
0.0898488
0.289162
-0.0714621
0.0537522
0.364485
-0.038119
0.0276899
0.426597
-0.0196382
0.0146055
0.504284
-0.0107642
0.00827438
0.601892
-0.00627529
0.00489904
0.720434
-0.00373496
0.00289393
0.863748
-0.00215176
0.00159203
1.03601
-0.00107485
0.000661872
1.24292
-0.000253904
-0.00014525
1.49159
0.000525636
-0.000935869
1.4916
0.0013316
-0.00181384
1.24317
0.00233494
-0.00303837
1.03634
0.00385344
-0.00499956
0.864053
0.00636674
-0.0083604
0.721051
0.0108462
-0.0146826
0.603051
0.0197096
-0.0277539
0.507484
0.0381753
-0.0537997
0.431793
0.0715014
-0.0898754
0.36515
0.0900164
0.198994
-0.128139
0.0882309
0.0399078
-0.364601
0.353384
-0.0746671
0.0858847
-0.446478
0.454323
-0.0843797
0.0765338
-0.521192
0.529905
-0.0684355
0.0597229
-0.612791
0.621572
-0.051533
0.0427525
-0.726897
0.734168
-0.0352906
0.0280196
-0.867477
0.872596
-0.0224165
0.0172976
-1.03848
1.04193
-0.0134843
0.0100307
-1.2446
1.24704
-0.00741664
0.00498029
-1.49262
1.49461
-0.00302806
0.00104131
-1.49251
1.49423
0.000630322
-0.00235385
-1.24397
1.24586
0.00426408
-0.00614781
-1.03751
1.04002
0.0084922
-0.0110069
-0.866097
0.869825
0.0143532
-0.0180819
-0.724388
0.729931
0.0231229
-0.0286655
-0.608696
0.616108
0.0358783
-0.0432904
-0.514895
0.523037
0.052019
-0.0601617
-0.439854
0.447912
0.0688228
-0.0768799
-0.375293
0.376736
0.0846734
-0.0861161
-0.257328
0.222472
0.0748237
-0.0399678
-0.068527
0.058704
0.00982305
-0.0517935
0.0583708
-0.374136
0.367558
-0.0574501
0.0536943
-0.453601
0.457357
-0.0486014
0.044646
-0.527955
0.53191
-0.0408028
0.0371605
-0.621573
0.625215
-0.0330544
0.0289736
-0.735358
0.739439
-0.0243965
0.0202302
-0.87435
0.878516
-0.0158765
0.0121756
-1.0435
1.0472
-0.00843101
0.00525256
-1.24857
1.25175
-0.00191949
-0.00115854
-1.49666
1.49974
0.00421016
-0.00747881
-1.4972
1.50047
0.0105552
-0.0141453
-1.25006
1.25365
0.017685
-0.0218639
-1.04591
1.05009
0.0258863
-0.0303233
-0.877749
0.882186
0.0342903
-0.0382832
-0.73989
0.743883
0.0418291
-0.0455731
-0.626764
0.630508
0.0494433
-0.0544551
-0.534802
0.539814
0.0581197
-0.0589263
-0.457466
0.458273
0.0522129
-0.0320005
-0.335737
0.315525
0.00989109
-0.0683347
0.0584436
-0.0529572
0.0489659
0.00399124
-0.0331324
0.0436645
-0.358135
0.347603
-0.0473523
0.0467177
-0.459302
0.459937
-0.0436554
0.0402973
-0.53582
0.539178
-0.0365188
0.033209
-0.628549
0.631859
-0.0297637
0.0267238
-0.74267
0.74571
-0.0234547
0.0203378
-0.882042
0.885159
-0.016796
0.0134066
-1.0508
1.05418
-0.00960329
0.00605659
-1.25519
1.25873
-0.00207956
-0.00172411
-1.50325
1.50705
0.00549512
-0.00937142
-1.50413
1.508
0.0127733
-0.016364
-1.2574
1.26099
0.0195315
-0.0228293
-1.05389
1.05719
0.0257406
-0.0288048
-0.885662
0.888727
0.0316758
-0.0349524
-0.747133
0.75041
0.0381198
-0.0417541
-0.634284
0.637918
0.0449888
-0.0479094
-0.544115
0.547036
0.0483936
-0.0444933
-0.456548
0.452647
0.0337063
-0.0162376
-0.296143
0.278674
0.00407643
-0.0526192
0.0485427
-0.0458936
0.0434038
0.00248981
-0.022766
0.033124
-0.336932
0.326574
-0.0389272
0.0399322
-0.459632
0.458627
-0.0387316
0.0364373
-0.541906
0.544201
-0.0337617
0.0311573
-0.634921
0.637525
-0.0280835
0.0251728
-0.748767
0.751677
-0.0218938
0.0188861
-0.888122
0.89113
-0.0155656
0.0124526
-1.05733
1.06044
-0.00891289
0.00549308
-1.2622
1.26562
-0.00151987
-0.0023721
-1.51094
1.51483
0.0062199
-0.0100579
-1.51188
1.51572
0.0132855
-0.0165467
-1.26443
1.2677
0.0193699
-0.0223707
-1.06029
1.06329
0.0251048
-0.0281077
-0.891761
0.894764
0.0307878
-0.0336297
-0.753603
0.756445
0.0360382
-0.0385183
-0.640972
0.643452
0.0406457
-0.0416248
-0.548826
0.549805
0.0403863
-0.0342402
-0.447347
0.441201
0.0235054
-0.0102594
-0.26343
0.250184
0.00259536
-0.0453729
0.0427775
-0.0413356
0.0395758
0.0017599
-0.0166936
0.0259153
-0.316747
0.307526
-0.0324927
0.0346134
-0.457045
0.454925
-0.0341772
0.0324954
-0.546191
0.547873
-0.0303035
0.0281972
-0.639845
0.641952
-0.0257516
0.0233387
-0.754336
0.756749
-0.020461
0.017653
-0.894038
0.896846
-0.014396
0.0113084
-1.0635
1.06659
-0.00779954
0.00445879
-1.26895
1.27229
-0.000612487
-0.00313083
-1.51862
1.52236
0.0068176
-0.0104911
-1.51944
1.52311
0.0135867
-0.0167416
-1.27094
1.2741
0.0194611
-0.0223099
-1.0663
1.06915
0.0247655
-0.0272851
-0.897553
0.900072
0.0293984
-0.0315436
-0.758877
0.761022
0.0333985
-0.0353377
-0.64559
0.647529
0.0367763
-0.0369111
-0.550303
0.550438
0.034431
-0.0273496
-0.434502
0.427421
0.0176186
-0.00743726
-0.238617
0.228436
0.00188903
-0.0405898
0.0387008
-0.0380623
0.0367421
0.00132023
-0.0127183
0.0206238
-0.298969
0.291064
-0.0273329
0.0302259
-0.452392
0.449499
-0.0304074
0.0292694
-0.549322
0.55046
-0.0272617
0.0253297
-0.644006
0.645938
-0.02311
0.0209515
-0.759006
0.761165
-0.0184103
0.0159013
-0.899438
0.901947
-0.0129303
0.0100252
-1.06954
1.07245
-0.00663663
0.00337367
-1.27557
1.27883
0.00039293
-0.0040357
-1.52602
1.52966
0.00760728
-0.0111558
-1.52669
1.53024
0.0141109
-0.0170569
-1.27723
1.28018
0.0195029
-0.0219643
-1.07187
1.07433
0.0240315
-0.0261215
-0.902328
0.904418
0.0279008
-0.0297391
-0.762984
0.764822
0.0313529
-0.0330526
-0.64933
0.65103
0.0338354
-0.0332308
-0.5502
0.549595
0.0298219
-0.0224206
-0.420118
0.412717
0.0138589
-0.00578122
-0.219405
0.211327
0.0014775
-0.0370416
0.0355641
-0.0355919
0.0345787
0.00101319
-0.00990436
0.0165668
-0.283808
0.277145
-0.022993
0.0263234
-0.446373
0.443042
-0.0270706
0.0263465
-0.551392
0.552116
-0.0245662
0.0227614
-0.647858
0.649663
-0.0206647
0.0186196
-0.763261
0.765306
-0.0162126
0.0138509
-0.904308
0.90667
-0.0110737
0.00835402
-1.07519
1.07791
-0.00516029
0.0020456
-1.28198
1.28509
0.00159193
-0.00512438
-1.53322
1.53675
0.00856835
-0.0119348
-1.53367
1.53704
0.0146683
-0.0173166
-1.28304
1.28569
0.0194715
-0.0216212
-1.07669
1.07884
0.0234367
-0.0252836
-0.906358
0.908205
0.0268576
-0.0284804
-0.766543
0.768165
0.0298899
-0.0312413
-0.652585
0.653937
0.0315248
-0.0301759
-0.548623
0.547274
0.0261326
-0.0187926
-0.405315
0.397975
0.011304
-0.00468839
-0.204047
0.197431
0.0012046
-0.0342368
0.0330322
-0.0336929
0.0329088
0.000784097
-0.0078108
0.0133867
-0.271059
0.265483
-0.0193093
0.0228199
-0.439618
0.436107
-0.0240297
0.0235448
-0.552764
0.553249
-0.0220236
0.0203221
-0.651476
0.653177
-0.0183125
0.0163447
-0.767304
0.769272
-0.0140198
0.0117367
-0.90892
0.911203
-0.00905317
0.00643535
-1.0805
1.08311
-0.00337436
0.000395901
-1.28809
1.29106
0.00307694
-0.00644061
-1.54017
1.54353
0.00969557
-0.0128355
-1.54025
1.54339
0.0153469
-0.0177417
-1.28829
1.29068
0.0196705
-0.0215874
-1.08094
1.08286
0.0232004
-0.0248361
-0.909922
0.911558
0.0262244
-0.0276505
-0.769678
0.771104
0.028857
-0.0298168
-0.655091
0.656051
0.0297203
-0.0276889
-0.54557
0.543539
0.0232241
-0.0161271
-0.390745
0.383648
0.00952321
-0.00393784
-0.191377
0.185792
0.00101686
-0.0319313
0.0309145
-0.0322248
0.0316194
0.000605402
-0.00618719
0.0108315
-0.260405
0.255761
-0.0161435
0.0196351
-0.432614
0.429122
-0.0211508
0.0208817
-0.553676
0.553945
-0.0195823
0.0179339
-0.654912
0.65656
-0.015971
0.0140431
-0.771207
0.773135
-0.0117658
0.00953051
-0.913378
0.915613
-0.00690392
0.00434619
-1.08562
1.08818
-0.00136525
-0.00151687
-1.29394
1.29682
0.00484789
-0.00804246
-1.54676
1.54996
0.0111044
-0.0140294
-1.54636
1.54929
0.0163427
-0.0185143
-1.29306
1.29523
0.0202358
-0.0219307
-1.08475
1.08644
0.0233483
-0.0247812
-0.913061
0.914494
0.0259975
-0.0272431
-0.772427
0.773673
0.0283049
-0.0288399
-0.656806
0.657341
0.0283435
-0.0257276
-0.541205
0.53859
0.0209895
-0.0141929
-0.376703
0.369906
0.00827822
-0.00342038
-0.180604
0.175746
0.000888189
-0.0299696
0.0290814
-0.0310967
0.0306372
0.000459502
-0.00487182
0.00870881
-0.251551
0.247714
-0.0133641
0.0166862
-0.425733
0.422411
-0.0183655
0.0182742
-0.554185
0.554276
-0.017156
0.0155347
-0.658274
0.659895
-0.0135829
0.011658
-0.775042
0.776966
-0.00938576
0.00716202
-0.917745
0.919969
-0.00455884
0.00203408
-1.09063
1.09316
0.000894966
-0.00370894
-1.29961
1.30242
0.00693332
-0.00999156
-1.55303
1.55609
0.0128884
-0.015619
-1.55205
1.55478
0.0177424
-0.0196915
-1.2974
1.29935
0.0212053
-0.0226814
-1.08813
1.08961
0.0239132
-0.0251598
-0.915795
0.917041
0.026222
-0.0273043
-0.774818
0.775901
0.028153
-0.0283161
-0.657674
0.657837
0.0273875
-0.024261
-0.535711
0.532584
0.0193378
-0.0128247
-0.363264
0.356751
0.00742335
-0.00307183
-0.17117
0.166818
0.00080317
-0.0282426
0.0274394
-0.0302491
0.0299142
0.000334913
-0.00376106
0.00688438
-0.244264
0.241141
-0.0108689
0.0139093
-0.419257
0.416217
-0.0156227
0.0156697
-0.554372
0.554325
-0.0146205
0.0130589
-0.661576
0.663137
-0.0110876
0.00913097
-0.778879
0.780836
-0.00682265
0.00457253
-0.922094
0.924344
-0.00195213
-0.000574316
-1.09558
1.09811
0.00348574
-0.00626117
-1.30514
1.30792
0.00941145
-0.0123631
-1.55903
1.56198
0.0151191
-0.0176714
-1.55734
1.55989
0.0196114
-0.0213401
-1.30132
1.30305
0.0226485
-0.0239106
-1.09109
1.09235
0.0249622
-0.0260287
-0.918153
0.919219
0.0269442
-0.0278667
-0.77687
0.777793
0.0284521
-0.0283095
-0.657846
0.657703
0.0268959
-0.0232873
-0.529218
0.525609
0.0182119
-0.0119177
-0.350366
0.344072
0.00687253
-0.00285434
-0.162658
0.15864
0.00075242
-0.0266678
0.0259154
-0.0296439
0.0294214
0.000222535
-0.00277821
0.00525269
-0.23837
0.235896
-0.00856411
0.0112376
-0.413395
0.410722
-0.0128685
0.0129777
-0.554334
0.554225
-0.0119566
0.0104216
-0.664786
0.666321
-0.0084045
0.00638418
-0.782784
0.784805
-0.00400112
0.00168705
-0.926499
0.928813
0.000993824
-0.00356204
-1.10054
1.10311
0.00649882
-0.009272
-1.31062
1.31339
0.0123827
-0.0152539
-1.56482
1.5677
0.0178891
-0.0202782
-1.56227
1.56466
0.0220441
-0.0235563
-1.30482
1.30633
0.0246586
-0.0257042
-1.09364
1.09469
0.0265702
-0.0274457
-0.920144
0.92102
0.0281992
-0.028953
-0.77854
0.779294
0.0292513
-0.0287543
-0.657429
0.656932
0.0268704
-0.0227997
-0.521792
0.517721
0.0175647
-0.011396
-0.337865
0.331696
0.00656607
-0.00274087
-0.15474
0.150915
0.000728764
-0.0251805
0.0244518
-0.0292606
0.029146
0.000114605
-0.00185868
0.00371966
-0.233756
0.231895
-0.00635018
0.00858423
-0.408311
0.406077
-0.0100227
0.0101133
-0.554234
0.554143
-0.00908334
0.00753286
-0.66798
0.66953
-0.00543809
0.00332042
-0.786818
0.788936
-0.000822718
-0.00159323
-0.931032
0.933448
0.00437768
-0.00702783
-1.1056
1.10825
0.0100337
-0.0128422
-1.31609
1.3189
0.0159498
-0.0187677
-1.57046
1.57328
0.0213013
-0.0235402
-1.56687
1.56911
0.0251376
-0.0264344
-1.30791
1.3092
0.0273312
-0.0281564
-1.09577
1.0966
0.0288279
-0.0295042
-0.921748
0.922424
0.0301002
-0.0307026
-0.779864
0.780466
0.0306308
-0.0297139
-0.656263
0.655346
0.0273316
-0.0227862
-0.513448
0.508902
0.0173522
-0.0112015
-0.325565
0.319415
0.00646091
-0.00271229
-0.147149
0.1434
0.000727219
-0.0237294
0.0230022
-0.0290937
0.0290874
6.29776e-06
-0.000953582
0.00221177
-0.230361
0.229103
-0.00414361
0.00587195
-0.404145
0.402417
-0.00701341
0.00700213
-0.55424
0.554251
-0.00591343
0.00430468
-0.671246
0.672855
-0.002089
-0.000163523
-0.791046
0.793299
0.00282032
-0.00538059
-0.93577
0.93833
0.00831628
-0.0110919
-1.11082
1.1136
0.0142134
-0.0170975
-1.32165
1.32454
0.0202413
-0.0230358
-1.576
1.57879
0.0254885
-0.0275885
-1.57115
1.57325
0.0290207
-0.0301077
-1.31059
1.31168
0.0307995
-0.0314016
-1.09747
1.09807
0.0318722
-0.0323346
-0.922947
0.923409
0.0327409
-0.0330647
-0.780793
0.781117
0.0326865
-0.0312652
-0.654248
0.652826
0.0283417
-0.0232735
-0.504142
0.499074
0.0175667
-0.0113092
-0.313243
0.306986
0.00653635
-0.00275902
-0.139658
0.13588
0.00074523
-0.0222716
0.0215264
-0.0291467
0.0292552
-0.000108434
-1.33764e-05
0.000659318
-0.228172
0.227526
-0.00185971
0.00301487
-0.401028
0.399873
-0.00375759
0.00355902
-0.554532
0.55473
-0.00235125
0.000623901
-0.674679
0.676406
0.00175433
-0.00418718
-0.795543
0.797976
0.0070547
-0.00980747
-0.940798
0.943551
0.0129481
-0.0158981
-1.11631
1.11926
0.0191866
-0.0221894
-1.32737
1.33037
0.0254106
-0.0282122
-1.58149
1.5843
0.030605
-0.0325775
-1.57513
1.57711
0.0338503
-0.0347255
-1.31285
1.31372
0.0352054
-0.035572
-1.09872
1.09908
0.0358324
-0.0360732
-0.923709
0.92395
0.036269
-0.0362443
-0.781142
0.781117
0.035509
-0.0334976
-0.651203
0.649191
0.0299601
-0.0242858
-0.493763
0.488089
0.018204
-0.0117011
-0.300643
0.29414
0.00677649
-0.00287291
-0.132061
0.128157
0.000780289
-0.0207693
0.019989
-0.0294352
0.029682
-0.000246831
0.000966296
-0.000997316
-0.227223
0.227254
0.000588034
-8.02715e-05
-0.3991
0.398592
-0.000161215
-0.000319361
-0.555299
0.555779
0.00171678
-0.00362535
-0.678401
0.680309
0.00622828
-0.00889474
-0.800397
0.803064
0.0120323
-0.015033
-0.946215
0.949215
0.0184398
-0.0216192
-1.12216
1.12533
0.025132
-0.0283005
-1.33334
1.33651
0.0316415
-0.0344769
-1.58701
1.58984
0.0368223
-0.0386765
-1.57884
1.58069
0.0397996
-0.0404613
-1.31467
1.31533
0.0407149
-0.0408264
-1.09948
1.09959
0.0408571
-0.0408599
-0.924007
0.92401
0.0408649
-0.040381
-0.780788
0.780304
0.0392045
-0.0365003
-0.646967
0.644263
0.0322476
-0.0258476
-0.482126
0.475725
0.0192613
-0.0123616
-0.28748
0.28058
0.00716667
-0.00304576
-0.124166
0.120045
0.000829666
-0.0191894
0.0183598
-0.0299984
0.0303912
-0.000392865
0.00208358
-0.00275294
-0.227599
0.228268
0.00322278
-0.00348664
-0.398504
0.398768
0.00390177
-0.00476837
-0.556772
0.557638
0.00642463
-0.00858699
-0.682543
0.684706
0.0114906
-0.0144587
-0.805714
0.808682
0.0179387
-0.0212531
-0.952134
0.955449
0.0249973
-0.0284681
-1.12847
1.13194
0.0322678
-0.0356514
-1.33965
1.34303
0.0391549
-0.042049
-1.59259
1.59548
0.0443535
-0.046081
-1.58226
1.58399
0.0470422
-0.0474957
-1.31603
1.31648
0.0475145
-0.0473532
-1.09972
1.09956
0.0471395
-0.0468908
-0.923788
0.923539
0.0466489
-0.0456511
-0.779548
0.77855
0.0439268
-0.0403874
-0.641336
0.637797
0.0352759
-0.0279853
-0.468971
0.46168
0.0207362
-0.0132748
-0.273445
0.265984
0.00769111
-0.00326836
-0.115793
0.111371
0.000890199
-0.017505
0.0166148
-0.0308696
0.031441
-0.000571326
0.00335951
-0.0048402
-0.229371
0.230852
0.00623526
-0.00732855
-0.399449
0.400542
0.00851023
-0.00989697
-0.559174
0.560561
0.0119539
-0.0144553
-0.687248
0.689749
0.0177501
-0.0210984
-0.811629
0.814977
0.0250052
-0.0287097
-0.958692
0.962397
0.0328724
-0.0367036
-1.13539
1.13922
0.0408567
-0.0445051
-1.3464
1.35005
0.0482106
-0.0511829
-1.59828
1.60125
0.0534496
-0.0550416
-1.58539
1.58698
0.0558392
-0.0560631
-1.31692
1.31714
0.055822
-0.0553692
-1.09939
1.09894
0.0549012
-0.0543718
-0.923025
0.922496
0.0537318
-0.0522425
-0.77737
0.775881
0.0498046
-0.0452544
-0.634011
0.629461
0.039099
-0.0307081
-0.45395
0.445559
0.0226102
-0.0144116
-0.258203
0.250004
0.00832469
-0.00352661
-0.10678
0.101982
0.000957129
-0.0156956
0.0147385
-0.0321109
0.0329164
-0.000805445
0.00493794
-0.00733251
-0.232792
0.235187
0.00980779
-0.0118356
-0.402136
0.404164
0.0139148
-0.0159491
-0.562755
0.564789
0.0185428
-0.0214821
-0.692694
0.695633
0.0252836
-0.0291035
-0.818305
0.822125
0.0335381
-0.0377225
-0.966047
0.970231
0.0423953
-0.0466605
-1.14304
1.14731
0.0512326
-0.0551881
-1.35368
1.35764
0.05912
-0.062172
-1.60412
1.60717
0.0643851
-0.0658149
-1.58818
1.58961
0.0664157
-0.0663726
-1.31724
1.31719
0.065867
-0.0650997
-1.09846
1.0977
0.0643636
-0.0635695
-0.921662
0.920867
0.0624139
-0.0603216
-0.774262
0.77217
0.0570058
-0.0511959
-0.624605
0.618795
0.0437473
-0.0339911
-0.436618
0.426861
0.0248317
-0.0157168
-0.241399
0.232284
0.00902506
-0.0037984
-0.0969856
0.0917589
0.00102336
-0.0137517
0.0127284
-0.0338219
0.0349334
-0.0011115
0.00691953
-0.0104195
-0.238075
0.241575
0.014172
-0.0172896
-0.406871
0.409989
0.0203936
-0.0232007
-0.567809
0.570616
0.026489
-0.0299955
-0.699105
0.702612
0.0344524
-0.0388657
-0.825936
0.830349
0.0439501
-0.0487152
-0.974381
0.979146
0.053995
-0.058765
-1.15157
1.15634
0.0638092
-0.0680942
-1.36158
1.36586
0.0722465
-0.0753473
-1.6101
1.6132
0.0774643
-0.0786878
-1.5906
1.59182
0.0790547
-0.0787094
-1.31689
1.31654
0.0779154
-0.0768001
-1.09687
1.09575
0.0757894
-0.0746952
-0.919724
0.91863
0.0729721
-0.0701008
-0.770003
0.767132
0.0656553
-0.0582388
-0.612602
0.605185
0.0491731
-0.0377339
-0.416425
0.404986
0.0272856
-0.0170908
-0.222682
0.212487
0.00972271
-0.00405005
-0.0863209
0.0806483
0.00107876
-0.0116792
0.0106005
-0.036136
0.0376678
-0.00153177
0.00952238
-0.0143974
-0.245578
0.250454
0.0196682
-0.024043
-0.414014
0.418389
0.0283285
-0.0320626
-0.574666
0.5784
0.0362253
-0.0404926
-0.706755
0.711023
0.0457731
-0.0509278
-0.834762
0.839917
0.0568046
-0.0622593
-0.9839
0.989354
0.0682368
-0.0735624
-1.16112
1.16645
0.0790958
-0.0836901
-1.37011
1.3747
0.0880034
-0.0910693
-1.61612
1.61918
0.0929989
-0.0939246
-1.59251
1.59344
0.0939965
-0.0933499
-1.31581
1.31516
0.0921812
-0.0907099
-1.09456
1.09309
0.0894258
-0.087842
-0.917051
0.915467
0.0856007
-0.0816621
-0.764173
0.760235
0.0757618
-0.066294
-0.59728
0.587813
0.055207
-0.041722
-0.392722
0.379237
0.0297647
-0.0183733
-0.201744
0.190353
0.0103145
-0.00423522
-0.0747764
0.068697
0.00111031
-0.00950572
0.00839542
-0.0392627
0.0414031
-0.00214038
0.0131107
-0.0197452
-0.255808
0.262442
0.0268432
-0.0326844
-0.42405
0.429892
0.0383393
-0.0432023
-0.583713
0.588576
0.048455
-0.0536904
-0.716045
0.72128
0.0600467
-0.0661201
-0.845077
0.85115
0.0729312
-0.0791599
-0.994817
1.00105
0.0858785
-0.0917508
-1.17176
1.17763
0.0977113
-0.102516
-1.37919
1.38399
0.106844
-0.109719
-1.62198
1.62486
0.111309
-0.111799
-1.59372
1.59421
0.111492
-0.110468
-1.31394
1.31292
0.10891
-0.107051
-1.09154
1.08968
0.105473
-0.103341
-0.913263
0.911131
0.100445
-0.0950588
-0.75617
0.750783
0.0872091
-0.0750861
-0.577707
0.565584
0.0614844
-0.0455738
-0.364788
0.348877
0.0319396
-0.0193348
-0.178399
0.165795
0.0106647
-0.00429757
-0.0624677
0.0561007
0.00110339
-0.00728559
0.0061822
-0.0435429
0.0466219
-0.00307908
0.0183227
-0.0272599
-0.269515
0.278453
0.0365892
-0.0442034
-0.43766
0.445275
0.0515108
-0.057728
-0.595457
0.601674
0.0644083
-0.0709871
-0.727395
0.733974
0.0786078
-0.085705
-0.857205
0.864302
0.0935119
-0.100511
-1.00727
1.01427
0.107892
-0.114176
-1.18341
1.1897
0.120358
-0.125151
-1.38857
1.39336
0.129229
-0.131668
-1.62733
1.62977
0.132696
-0.132557
-1.59392
1.59378
0.131728
-0.130223
-1.3111
1.30959
0.128277
-0.125995
-1.08774
1.08545
0.123984
-0.12134
-0.908216
0.905572
0.117401
-0.110024
-0.745148
0.737771
0.0995689
-0.0840392
-0.552638
0.537109
0.0673695
-0.0487042
-0.331912
0.313246
0.0333545
-0.019692
-0.152699
0.139036
0.010621
-0.00418036
-0.0496801
0.0432394
0.0010448
-0.00510113
0.00405633
-0.0495721
0.0542389
-0.00466679
0.0264019
-0.038446
-0.287888
0.299932
0.0506493
-0.0606194
-0.45596
0.46593
0.0699748
-0.0778251
-0.610475
0.618326
0.0862616
-0.0943848
-0.741332
0.749455
0.103388
-0.111495
-0.871355
0.879463
0.120161
-0.127708
-1.02116
1.02871
0.135423
-0.141773
-1.19571
1.20206
0.147765
-0.152163
-1.39773
1.40212
0.155578
-0.157227
-1.63162
1.63327
0.157398
-0.156387
-1.59271
1.5917
0.154875
-0.152773
-1.30706
1.30496
0.150384
-0.147597
-1.08302
1.08023
0.145141
-0.14175
-0.901747
0.898355
0.136278
-0.126009
-0.729873
0.719603
0.11202
-0.0921821
-0.520519
0.500682
0.0719108
-0.0503498
-0.293573
0.272012
0.0334859
-0.0191675
-0.125094
0.110776
0.0100553
-0.00384305
-0.0368911
0.0306788
0.000925263
-0.00305614
0.00213088
-0.0584847
0.0664537
-0.007969
0.0405571
-0.0571868
-0.313135
0.329765
0.073438
-0.0865181
-0.480542
0.493623
0.0980038
-0.107459
-0.629293
0.638748
0.117645
-0.127202
-0.758066
0.767623
0.137297
-0.145941
-0.887289
0.895934
0.154827
-0.162288
-1.03588
1.04334
0.169656
-0.175441
-1.20783
1.21362
0.180603
-0.184021
-1.40579
1.4092
0.186217
-0.18661
-1.63409
1.63448
0.185541
-0.183371
-1.58961
1.58744
0.180977
-0.178161
-1.30155
1.29874
0.175237
-0.171872
-1.07719
1.07382
0.168806
-0.1642
-0.893158
0.888552
0.156347
-0.141835
-0.708372
0.69386
0.123026
-0.0980125
-0.479467
0.454453
0.0739352
-0.049798
-0.249785
0.225647
0.0319753
-0.0176538
-0.0965991
0.0822776
0.0089466
-0.00328566
-0.0247428
0.0190818
0.000741661
-0.00125994
0.000518279
-0.0738504
0.0783673
-0.00451689
0.031193
-0.0457968
-0.349301
0.363905
0.0604199
-0.0724816
-0.512676
0.524738
0.0835644
-0.0941764
-0.651778
0.66239
0.106346
-0.11752
-0.776486
0.787661
0.130013
-0.141226
-0.90359
0.914803
0.153338
-0.164283
-1.04992
1.06087
0.175995
-0.186322
-1.21839
1.22872
0.19702
-0.206034
-1.41155
1.42057
0.214794
-0.221454
-1.63378
1.64044
0.226065
-0.229355
-1.58397
1.58726
0.231309
-0.232782
-1.29426
1.29573
0.233579
-0.233111
-1.06979
1.06932
0.231649
-0.226046
-0.880947
0.875344
0.213478
-0.189619
-0.677754
0.653895
0.159057
-0.120926
-0.427906
0.389775
0.0870988
-0.0555779
-0.201599
0.170078
0.034058
-0.0179292
-0.0688464
0.0527176
0.00863144
-0.00295067
-0.0139159
0.00823511
0.000586248
0.000235853
-0.000822102
-0.0862292
0.0843683
0.00186092
0.00892486
-0.0186288
-0.38149
0.391194
0.0299058
-0.038785
-0.5418
0.55068
0.0478996
-0.0569028
-0.675747
0.684751
0.0680316
-0.0784946
-0.798274
0.808737
0.0898045
-0.100212
-0.925462
0.93587
0.111447
-0.12127
-1.07159
1.08141
0.132008
-0.141146
-1.23893
1.24807
0.150655
-0.158502
-1.42941
1.43726
0.16585
-0.171411
-1.64662
1.65218
0.175108
-0.177567
-1.5899
1.59236
0.17864
-0.179402
-1.29543
1.29619
0.179715
-0.178878
-1.06715
1.06631
0.175944
-0.167751
-0.864215
0.856022
0.153017
-0.129089
-0.625489
0.601561
0.102236
-0.0724507
-0.349316
0.319531
0.0490601
-0.0295892
-0.139921
0.12045
0.0172751
-0.00866389
-0.0379692
0.029358
0.00394545
-0.00125408
-0.00288492
0.000193549
0.000202101
0.00158972
-0.00179182
-0.0880529
0.0850803
0.00297257
-0.000403258
-0.00537937
-0.403698
0.409481
0.0130099
-0.0197273
-0.563783
0.570501
0.0267126
-0.0344946
-0.696296
0.704078
0.0442171
-0.053349
-0.818107
0.827239
0.0634483
-0.0726018
-0.94548
0.954633
0.0822685
-0.0911505
-1.09112
1.10001
0.100688
-0.108958
-1.25687
1.26514
0.117184
-0.123909
-1.44461
1.45134
0.130401
-0.135078
-1.65737
1.66205
0.137983
-0.139729
-1.5943
1.59605
0.140248
-0.140568
-1.29543
1.29575
0.140204
-0.138889
-1.06257
1.06125
0.134996
-0.125449
-0.843624
0.834076
0.110433
-0.088378
-0.574273
0.552218
0.0662735
-0.0443272
-0.28798
0.266034
0.028992
-0.0171609
-0.101469
0.0896375
0.00994166
-0.00499986
-0.0209981
0.0160563
0.00229481
-0.000737149
0.0026621
-0.00421976
0.000123852
0.00219064
-0.00231449
-0.0868996
0.0840283
0.00287128
-0.00455697
0.00149721
-0.41884
0.4219
0.00358762
-0.00877612
-0.580517
0.585705
0.0147578
-0.0213271
-0.713293
0.719862
0.0296967
-0.0375754
-0.835584
0.843463
0.0462655
-0.0541807
-0.963225
0.971141
0.0629537
-0.0706073
-1.10846
1.11611
0.0790457
-0.0859377
-1.27304
1.27993
0.0931971
-0.0991065
-1.45793
1.46384
0.104595
-0.108273
-1.66653
1.67021
0.110711
-0.112117
-1.59737
1.59877
0.112343
-0.111897
-1.29486
1.29441
0.111113
-0.109317
-1.05655
1.05476
0.104768
-0.095121
-0.820676
0.811029
0.0808657
-0.0620552
-0.527551
0.50874
0.0449078
-0.0294452
-0.243081
0.227618
0.0192075
-0.0115345
-0.077261
0.069588
0.00682087
-0.0035357
-0.0107247
0.00743954
0.00168988
-0.000573698
0.00605
-0.00716618
0.000107309
0.00256551
-0.00267282
-0.0854053
0.0827944
0.00261085
-0.00618013
0.00484233
-0.429177
0.430515
-0.00097264
-0.00297796
-0.594045
0.597996
0.00781701
-0.013728
-0.727636
0.733547
0.0207681
-0.0276831
-0.850521
0.857436
0.0352236
-0.0421193
-0.978575
0.98547
0.0496874
-0.0564936
-1.12362
1.13043
0.0637223
-0.0699864
-1.28668
1.29294
0.0762933
-0.0813882
-1.46942
1.47451
0.08605
-0.0890654
-1.67387
1.67688
0.0909811
-0.0917793
-1.59958
1.60038
0.0917158
-0.0910663
-1.29324
1.2926
0.089868
-0.0873914
-1.04965
1.04717
0.0828005
-0.0735134
-0.797738
0.78845
0.0609646
-0.0454225
-0.487778
0.472235
0.0323958
-0.0213217
-0.21084
0.199766
0.0140991
-0.00872106
-0.0610853
0.0557072
0.00534707
-0.0028816
-0.00362748
0.00116201
0.00143763
-0.000512517
0.00854309
-0.0094682
0.000109701
0.00286301
-0.00297271
-0.0838881
0.0815851
0.00230297
-0.00650243
0.00581316
-0.436358
0.437047
-0.00343207
0.000207297
-0.604561
0.607786
0.00441781
-0.00945133
-0.739791
0.744824
0.0154698
-0.0214362
-0.863441
0.869408
0.0280808
-0.0341907
-0.99197
0.99808
0.0410266
-0.0469529
-1.13691
1.14284
0.0533641
-0.0589036
-1.29888
1.30442
0.0643827
-0.0687493
-1.47931
1.48368
0.0726317
-0.075392
-1.67987
1.68263
0.076762
-0.0773162
-1.60078
1.60133
0.0769645
-0.0760093
-1.2913
1.29035
0.0747111
-0.0717042
-1.0421
1.03909
0.0670366
-0.0585419
-0.775784
0.76729
0.0476553
-0.0349772
-0.454719
0.442041
0.0249847
-0.0167446
-0.187284
0.179043
0.0114427
-0.00735879
-0.0493841
0.0453003
0.0046668
-0.00260622
0.00182205
-0.00388264
0.00133939
-0.000499591
0.010585
-0.0114248
0.000113643
0.00311631
-0.00322996
-0.0825834
0.0807111
0.00187227
-0.00599712
0.00581383
-0.441605
0.441788
-0.00389684
0.00147381
-0.613644
0.616067
0.00274211
-0.00724199
-0.750247
0.754747
0.012838
-0.0179201
-0.874889
0.879971
0.0236773
-0.0290098
-1.00411
1.00944
0.0353236
-0.0405703
-1.14874
1.15399
0.0461332
-0.0511351
-1.30971
1.31471
0.0563418
-0.0601023
-1.488
1.49176
0.0634939
-0.0656231
-1.68498
1.68711
0.0668588
-0.0668052
-1.60168
1.60162
0.066391
-0.0653782
-1.28888
1.28787
0.0637205
-0.0606817
-1.03421
1.03117
0.0560161
-0.048132
-0.7554
0.747516
0.0389549
-0.0285287
-0.427331
0.416905
0.0206798
-0.0144102
-0.16943
0.16316
0.0102278
-0.00686909
-0.0402715
0.0369128
0.00453164
-0.00262625
0.00644317
-0.00834855
0.00139198
-0.000536247
0.0124266
-0.0132824
0.000129478
0.00334447
-0.00347395
-0.0816822
0.0801514
0.00153084
-0.00521884
0.00534047
-0.44555
0.445428
-0.00368187
0.00147887
-0.621393
0.623596
0.00238496
-0.00635989
-0.75948
0.763455
0.0110773
-0.0158393
-0.884935
0.889697
0.0210222
-0.0263113
-1.0145
1.01979
0.0316212
-0.0364131
-1.15927
1.16406
0.0417754
-0.0461768
-1.31949
1.32389
0.0504293
-0.0541267
-1.49533
1.49902
0.057086
-0.0588846
-1.68924
1.69104
0.0596393
-0.0595342
-1.60172
1.60161
0.0589189
-0.0576915
-1.28626
1.28503
0.0559457
-0.0527515
-1.0265
1.0233
0.048221
-0.0412104
-0.736714
0.729703
0.0330859
-0.0245769
-0.404559
0.39605
0.0183798
-0.0133529
-0.155518
0.150491
0.00990672
-0.00699837
-0.0326363
0.029728
0.00480178
-0.00289964
0.0107248
-0.0126269
0.00159536
-0.000635942
0.0142845
-0.0152439
0.000162445
0.00358552
-0.00374796
-0.0812507
0.0799125
0.0013382
-0.00415728
0.00417261
-0.448794
0.448779
-0.00284347
0.000765599
-0.62829
0.630368
0.00269724
-0.00643918
-0.767871
0.771613
0.0108308
-0.0150309
-0.894189
0.898389
0.0201589
-0.0244337
-1.0244
1.02868
0.0294714
-0.0338264
-1.16893
1.17328
0.0387338
-0.0429697
-1.32815
1.33239
0.0470585
-0.0500236
-1.50233
1.5053
0.0526809
-0.0541897
-1.69263
1.69414
0.05489
-0.0543618
-1.60127
1.60074
0.0535764
-0.0521373
-1.28366
1.28222
0.0502744
-0.0469152
-1.01869
1.01533
0.042612
-0.0361154
-0.719794
0.713298
0.0291362
-0.0220844
-0.385703
0.378651
0.0170498
-0.0130379
-0.144222
0.14021
0.0101015
-0.00745962
-0.0258927
0.0232508
0.00532443
-0.00335269
0.0149594
-0.0169312
0.0019096
-0.000800623
0.0163166
-0.0174256
0.000212606
0.00387313
-0.00408573
-0.0810431
0.0800337
0.00100945
-0.00316684
0.00280497
-0.451844
0.452206
-0.00175538
-0.000288443
-0.634204
0.636248
0.0033163
-0.00682801
-0.775486
0.778998
0.0109107
-0.0151116
-0.902396
0.906596
0.0194329
-0.0237035
-1.0331
1.03737
0.0284765
-0.0323685
-1.17799
1.18188
0.0370584
-0.0409042
-1.33629
1.34014
0.0445911
-0.0476064
-1.50853
1.51155
0.0501051
-0.0511768
-1.6955
1.69657
0.0513349
-0.0507474
-1.60021
1.59962
0.0498491
-0.0481016
-1.2804
1.27865
0.0459378
-0.0426673
-1.01094
1.00767
0.0380823
-0.0322656
-0.704184
0.698368
0.0262172
-0.0203091
-0.370002
0.364094
0.0162547
-0.0128879
-0.134902
0.131535
0.0103381
-0.00789241
-0.0197622
0.0173165
0.00581142
-0.00378816
0.0192714
-0.0212946
0.0022455
-0.000982541
0.018626
-0.0198889
0.000276604
0.00424395
-0.00452056
-0.0812105
0.0803751
0.000835394
-0.00230851
0.00206714
-0.454883
0.455124
-0.000573124
-0.00122748
-0.639989
0.641789
0.00434974
-0.00764268
-0.782376
0.785669
0.0114517
-0.0151208
-0.910407
0.914076
0.0194284
-0.0232177
-1.04157
1.04536
0.027734
-0.0318644
-1.18615
1.19028
0.0358886
-0.0397562
-1.3439
1.34777
0.0434593
-0.0460867
-1.51427
1.5169
0.0483182
-0.049459
-1.69763
1.69878
0.0492714
-0.0484665
-1.59864
1.59784
0.0470348
-0.0450221
-1.27667
1.27465
0.0427013
-0.0390916
-1.00318
0.999566
0.0346555
-0.0291269
-0.689964
0.684436
0.0237944
-0.0187477
-0.356605
0.351558
0.0153207
-0.0124801
-0.127034
0.124194
0.0102188
-0.00798648
-0.0141228
0.0118904
0.00602734
-0.00404994
0.0235857
-0.0255632
0.00247241
-0.00112353
0.0211812
-0.0225301
0.000330835
0.00471965
-0.00505048
-0.0816599
0.0809983
0.000661622
-0.00130225
0.000937377
-0.457905
0.45827
0.000336285
-0.00238126
-0.645196
0.647241
0.0053707
-0.00843239
-0.788837
0.791899
0.0122323
-0.0156513
-0.917677
0.921096
0.0196721
-0.0234538
-1.04957
1.05336
0.0277002
-0.031601
-1.19416
1.19806
0.0356006
-0.0392136
-1.35142
1.35503
0.0427202
-0.0456854
-1.51964
1.5226
0.0477571
-0.0484813
-1.69958
1.7003
0.0481773
-0.0467841
-1.59658
1.59519
0.045128
-0.042867
-1.27226
1.27
0.0399519
-0.0360334
-0.994987
0.991068
0.0315108
-0.0260822
-0.676707
0.671278
0.0213545
-0.0169489
-0.345201
0.340795
0.0140328
-0.0115383
-0.120256
0.117762
0.009574
-0.00759273
-0.00899813
0.00701686
0.00584589
-0.00402729
0.0277218
-0.0295404
0.00252317
-0.00119011
0.0238269
-0.0251599
0.000374046
0.00527721
-0.00565125
-0.0823399
0.0818004
0.000539506
-0.000471615
3.24866e-05
-0.460969
0.461409