/*--------------------------------*- C++ -*----------------------------------*\
  =========                 |
  \\      /  F ield         | OpenFOAM: The Open Source CFD Toolbox
   \\    /   O peration     | Website:  https://openfoam.org
    \\  /    A nd           | Version:  6
     \\/     M anipulation  |
\*---------------------------------------------------------------------------*/
FoamFile
{
    version     2.0;
    format      ascii;
    class       volVectorField;
    location    "90.4";
    object      U;
}
// * * * * * * * * * * * * * * * * * * * * * * * * * * * * * * * * * * * * * //

dimensions      [0 1 -1 0 0 0 0];

internalField   nonuniform List<vector> 
8800
(
(0.987184 -0.0766653 0)
(1.00189 -0.05519 0)
(0.999723 -0.0285478 0)
(1.00003 -0.0151422 0)
(1.0001 -0.00854269 0)
(1.00012 -0.00504413 0)
(1.00008 -0.00299843 0)
(1.00002 -0.00169804 0)
(0.999992 -0.000791921 0)
(1.00006 -7.65423e-05 0)
(0.999958 0.000655924 0)
(0.999994 0.00142438 0)
(1.00005 0.00243411 0)
(1.00007 0.00400144 0)
(1.00005 0.00663443 0)
(1.00004 0.0113732 0)
(0.999946 0.0208163 0)
(0.99917 0.0386709 0)
(1.0071 0.0724575 0)
(0.771214 0.0366616 0)
(0.363078 -0.0160166 0)
(1.04332 -0.0768124 0)
(1.0846 -0.0704412 0)
(1.04519 -0.0535349 0)
(1.02329 -0.0388848 0)
(1.01203 -0.0262053 0)
(1.00643 -0.0168419 0)
(1.00359 -0.0103076 0)
(1.00215 -0.00564456 0)
(1.00144 -0.0019829 0)
(1.00128 0.00133878 0)
(1.00166 0.00472662 0)
(1.00268 0.00865406 0)
(1.00468 0.0139729 0)
(1.00861 0.0216805 0)
(1.01657 0.0326472 0)
(1.03251 0.0465589 0)
(1.06268 0.0616749 0)
(1.09187 0.0761045 0)
(0.838665 0.0565638 0)
(0.216866 -0.0024289 0)
(1.07592 -0.0501256 0)
(1.09989 -0.0482954 0)
(1.06465 -0.0404441 0)
(1.04005 -0.0335813 0)
(1.02393 -0.0260543 0)
(1.01413 -0.0184645 0)
(1.00856 -0.0116369 0)
(1.00558 -0.00576117 0)
(1.00431 -0.00033757 0)
(1.00463 0.00491118 0)
(1.00659 0.0103048 0)
(1.01063 0.0163726 0)
(1.01794 0.0233875 0)
(1.03053 0.03085 0)
(1.05062 0.0378745 0)
(1.08036 0.0445549 0)
(1.10627 0.0513645 0)
(0.942501 0.0416274 0)
(0.216122 0.0024627 0)
(0.175208 -0.000815392 0)
(1.01774 -0.0354686 0)
(1.10522 -0.0413538 0)
(1.07828 -0.0360311 0)
(1.05349 -0.0300892 0)
(1.03623 -0.0245044 0)
(1.02402 -0.0187649 0)
(1.01589 -0.0126724 0)
(1.01101 -0.00647263 0)
(1.00879 -0.000128133 0)
(1.00934 0.00613206 0)
(1.01264 0.0121309 0)
(1.01888 0.0179325 0)
(1.02876 0.0234943 0)
(1.04318 0.02879 0)
(1.0637 0.0342643 0)
(1.09356 0.0402429 0)
(1.09339 0.0419952 0)
(0.827058 0.0229291 0)
(0.173953 0.000854587 0)
(0.154027 -0.000609101 0)
(0.956291 -0.0254356 0)
(1.10351 -0.0350885 0)
(1.08771 -0.0326009 0)
(1.06176 -0.0279374 0)
(1.04415 -0.0229004 0)
(1.03167 -0.0176375 0)
(1.02281 -0.0120883 0)
(1.01697 -0.00613567 0)
(1.0141 0.000346405 0)
(1.01475 0.00681473 0)
(1.01876 0.0126985 0)
(1.0258 0.0179504 0)
(1.03607 0.0228511 0)
(1.05061 0.0276018 0)
(1.07185 0.0321195 0)
(1.10005 0.0360435 0)
(1.06801 0.0340843 0)
(0.739351 0.0143363 0)
(0.152134 0.000653617 0)
(0.139683 -0.000465071 0)
(0.899478 -0.019045 0)
(1.09588 -0.0300211 0)
(1.09581 -0.0291129 0)
(1.06932 -0.0253663 0)
(1.05088 -0.021209 0)
(1.03794 -0.0164144 0)
(1.02881 -0.0111039 0)
(1.02266 -0.00533765 0)
(1.01949 0.00100646 0)
(1.02007 0.00732634 0)
(1.0242 0.0129602 0)
(1.03136 0.0178724 0)
(1.04183 0.0223178 0)
(1.05694 0.0262723 0)
(1.07913 0.0297166 0)
(1.10221 0.032327 0)
(1.03581 0.0281952 0)
(0.672645 0.0102423 0)
(0.137004 0.000516425 0)
(0.129177 -0.000359329 0)
(0.850013 -0.0146722 0)
(1.08357 -0.0258667 0)
(1.10153 -0.0261328 0)
(1.07621 -0.0228264 0)
(1.05724 -0.019159 0)
(1.04384 -0.0148846 0)
(1.03434 -0.00992955 0)
(1.02795 -0.00436691 0)
(1.02457 0.0018043 0)
(1.02499 0.00791449 0)
(1.02907 0.0132709 0)
(1.03633 0.0177599 0)
(1.04706 0.0215968 0)
(1.06257 0.0248828 0)
(1.0852 0.0278017 0)
(1.10125 0.0295341 0)
(1.00073 0.0237077 0)
(0.620621 0.00788825 0)
(0.125543 0.000419753 0)
(0.12118 -0.000278228 0)
(0.808041 -0.011502 0)
(1.06841 -0.0222306 0)
(1.10513 -0.0234588 0)
(1.08251 -0.0205587 0)
(1.06313 -0.0170996 0)
(1.04944 -0.0131246 0)
(1.03966 -0.00849872 0)
(1.03297 -0.00319957 0)
(1.02933 0.0027598 0)
(1.02955 0.00862588 0)
(1.03357 0.013634 0)
(1.04088 0.0176385 0)
(1.0517 0.0209645 0)
(1.06742 0.0238354 0)
(1.09038 0.026449 0)
(1.09737 0.0272755 0)
(0.965234 0.020202 0)
(0.578717 0.00636623 0)
(0.116382 0.000350105 0)
(0.115004 -0.000214492 0)
(0.772789 -0.00912513 0)
(1.05181 -0.0190215 0)
(1.10759 -0.0209737 0)
(1.08845 -0.0184361 0)
(1.06867 -0.0151137 0)
(1.05474 -0.0112911 0)
(1.04476 -0.00686503 0)
(1.0378 -0.00179672 0)
(1.03386 0.00391717 0)
(1.03384 0.00948782 0)
(1.03773 0.0141207 0)
(1.04495 0.0176924 0)
(1.05574 0.0206273 0)
(1.07165 0.0231679 0)
(1.09426 0.0254283 0)
(1.0906 0.0254269 0)
(0.930593 0.0175144 0)
(0.543904 0.00533425 0)
(0.108792 0.000300461 0)
(0.110216 -0.000162978 0)
(0.743325 -0.00727398 0)
(1.03484 -0.0161674 0)
(1.10915 -0.0186198 0)
(1.09411 -0.0163785 0)
(1.07405 -0.0131385 0)
(1.05985 -0.0093937 0)
(1.04966 -0.00507624 0)
(1.04246 -0.000168548 0)
(1.0382 0.00531433 0)
(1.03786 0.0105761 0)
(1.0415 0.014848 0)
(1.04856 0.0180317 0)
(1.05929 0.0206191 0)
(1.07538 0.0228638 0)
(1.09682 0.0247364 0)
(1.08133 0.0239453 0)
(0.897353 0.0154958 0)
(0.514117 0.00462331 0)
(0.102288 0.000266129 0)
(0.106537 -0.000119903 0)
(0.718837 -0.0057742 0)
(1.01834 -0.0135959 0)
(1.10991 -0.0163329 0)
(1.09969 -0.0143517 0)
(1.07936 -0.0111116 0)
(1.06486 -0.00738289 0)
(1.05444 -0.00311245 0)
(1.04697 0.0016953 0)
(1.04235 0.0069915 0)
(1.0416 0.0119719 0)
(1.04492 0.0159085 0)
(1.05176 0.0187203 0)
(1.0624 0.0209702 0)
(1.07866 0.0229397 0)
(1.098 0.0243867 0)
(1.06991 0.0228316 0)
(0.865607 0.0140305 0)
(0.487886 0.00414344 0)
(0.0965245 0.000244105 0)
(0.10378 -8.22743e-05 0)
(0.698693 -0.00450918 0)
(1.00292 -0.0112387 0)
(1.11004 -0.0140762 0)
(1.10514 -0.0122691 0)
(1.08471 -0.00897819 0)
(1.06988 -0.00520386 0)
(1.05918 -0.000917398 0)
(1.05138 0.00385043 0)
(1.04631 0.00901117 0)
(1.04507 0.0137435 0)
(1.048 0.0173623 0)
(1.05457 0.0198059 0)
(1.06509 0.0217257 0)
(1.08146 0.0234241 0)
(1.09809 0.0245137 0)
(1.05658 0.0221024 0)
(0.835154 0.0130356 0)
(0.464096 0.00384071 0)
(0.0912361 0.000232044 0)
(0.101829 -4.73705e-05 0)
(0.682433 -0.0033911 0)
(0.989058 -0.00902363 0)
(1.10978 -0.0117608 0)
(1.11045 -0.0100465 0)
(1.09016 -0.00667511 0)
(1.07498 -0.00279243 0)
(1.06394 0.00157817 0)
(1.05573 0.00637038 0)
(1.05013 0.0114504 0)
(1.04829 0.0159696 0)
(1.05076 0.0192859 0)
(1.05699 0.0213589 0)
(1.06736 0.0229453 0)
(1.08375 0.0243519 0)
(1.09725 0.0249956 0)
(1.04146 0.0217669 0)
(0.805619 0.012436 0)
(0.44186 0.00367667 0)
(0.0862138 0.000227828 0)
(0.100626 -1.29008e-05 0)
(0.669768 -0.00234969 0)
(0.977115 -0.00687515 0)
(1.10944 -0.00932901 0)
(1.11577 -0.00762308 0)
(1.09581 -0.00412562 0)
(1.08024 -6.67824e-05 0)
(1.06881 0.00445957 0)
(1.0601 0.00934455 0)
(1.05384 0.0143988 0)
(1.05129 0.0187351 0)
(1.05318 0.0217593 0)
(1.05903 0.0234553 0)
(1.06921 0.0247027 0)
(1.08558 0.0258154 0)
(1.0951 0.0259456 0)
(1.02457 0.0218298 0)
(0.776532 0.0121848 0)
(0.420455 0.00362698 0)
(0.0812909 0.000230142 0)
(0.100163 2.38154e-05 0)
(0.660556 -0.0013285 0)
(0.967418 -0.00471997 0)
(1.10936 -0.006719 0)
(1.12123 -0.00492385 0)
(1.10174 -0.00123956 0)
(1.08575 0.00306791 0)
(1.07384 0.00782539 0)
(1.06453 0.0128778 0)
(1.05749 0.0179664 0)
(1.05407 0.0221523 0)
(1.05528 0.0248938 0)
(1.06067 0.026213 0)
(1.07061 0.0270965 0)
(1.08685 0.027877 0)
(1.09153 0.0274 0)
(1.00581 0.022335 0)
(0.747356 0.012258 0)
(0.399261 0.00367837 0)
(0.0763267 0.000238319 0)
(0.100451 5.62045e-05 0)
(0.654784 -0.000270163 0)
(0.960276 -0.00248241 0)
(1.1099 -0.00386229 0)
(1.127 -0.00186466 0)
(1.10807 0.0020821 0)
(1.09161 0.00672023 0)
(1.07914 0.0117936 0)
(1.06909 0.0170932 0)
(1.0611 0.0222813 0)
(1.05664 0.0263476 0)
(1.05704 0.0288074 0)
(1.06188 0.0297488 0)
(1.07153 0.0302453 0)
(1.08728 0.0306472 0)
(1.08624 0.0294451 0)
(0.984959 0.0233183 0)
(0.717486 0.0126394 0)
(0.377708 0.00382119 0)
(0.0711952 0.000251469 0)
(0.101585 0.000111367 0)
(0.652604 0.000870681 0)
(0.95601 -8.396e-05 0)
(1.11143 -0.00067828 0)
(1.13329 0.00165663 0)
(1.11491 0.0059621 0)
(1.09794 0.011027 0)
(1.08479 0.0165121 0)
(1.07386 0.0221479 0)
(1.06471 0.0274989 0)
(1.05901 0.0314737 0)
(1.05843 0.0336432 0)
(1.06264 0.0341938 0)
(1.07191 0.0342803 0)
(1.08672 0.0342608 0)
(1.07898 0.032162 0)
(0.961635 0.0248155 0)
(0.68625 0.0133196 0)
(0.355261 0.00404609 0)
(0.0657866 0.000268668 0)
(0.103705 0.000163604 0)
(0.654229 0.00198903 0)
(0.954983 0.00256322 0)
(1.11442 0.00293597 0)
(1.14032 0.00574808 0)
(1.12242 0.0105422 0)
(1.10486 0.0161448 0)
(1.0909 0.0221522 0)
(1.07889 0.0282202 0)
(1.06835 0.0338016 0)
(1.06117 0.0377038 0)
(1.05946 0.0395485 0)
(1.06289 0.0397044 0)
(1.0717 0.0393501 0)
(1.08494 0.0388183 0)
(1.0694 0.0356508 0)
(0.935327 0.0268733 0)
(0.652924 0.0142899 0)
(0.331419 0.00434348 0)
(0.0600096 0.000288788 0)
(0.106912 0.000227648 0)
(0.660268 0.00347375 0)
(0.957566 0.00549772 0)
(1.11934 0.00712508 0)
(1.14834 0.0105623 0)
(1.1308 0.0160046 0)
(1.11254 0.0222803 0)
(1.09759 0.0289376 0)
(1.08427 0.0355404 0)
(1.07205 0.0414084 0)
(1.06312 0.0452337 0)
(1.06009 0.0467347 0)
(1.06258 0.0464621 0)
(1.07085 0.0456244 0)
(1.08192 0.0445016 0)
(1.05703 0.0400318 0)
(0.905353 0.0295275 0)
(0.616719 0.0155321 0)
(0.305722 0.00469857 0)
(0.0537954 0.000310101 0)
(0.111491 0.000314825 0)
(0.671073 0.00521835 0)
(0.964376 0.00901777 0)
(1.12669 0.0120502 0)
(1.15767 0.0163129 0)
(1.14026 0.0225968 0)
(1.12116 0.0297017 0)
(1.10499 0.0371474 0)
(1.09005 0.0443848 0)
(1.07581 0.0505772 0)
(1.06481 0.0542949 0)
(1.06021 0.0554118 0)
(1.06166 0.0546658 0)
(1.06928 0.0532891 0)
(1.07756 0.0514581 0)
(1.04125 0.0454114 0)
(0.870843 0.0327852 0)
(0.576806 0.0170062 0)
(0.277775 0.0050864 0)
(0.0471098 0.00033013 0)
(0.117807 0.000429836 0)
(0.687394 0.00738807 0)
(0.976101 0.0132756 0)
(1.13705 0.0179365 0)
(1.16868 0.0232548 0)
(1.15109 0.0306338 0)
(1.13092 0.0387533 0)
(1.11322 0.0471359 0)
(1.09628 0.0550901 0)
(1.0796 0.0616094 0)
(1.06619 0.0651465 0)
(1.05969 0.0657733 0)
(1.06009 0.0645173 0)
(1.06704 0.0625498 0)
(1.07157 0.0598827 0)
(1.02123 0.0518595 0)
(0.830739 0.036609 0)
(0.532362 0.0186296 0)
(0.247318 0.00546759 0)
(0.0399715 0.000345443 0)
(0.126373 0.000591614 0)
(0.710275 0.0102269 0)
(0.993572 0.0185729 0)
(1.15109 0.0251352 0)
(1.18187 0.0317815 0)
(1.16362 0.0405796 0)
(1.14204 0.0499264 0)
(1.12238 0.0593854 0)
(1.10294 0.0680886 0)
(1.08335 0.0748449 0)
(1.06715 0.0780444 0)
(1.05853 0.0780498 0)
(1.05778 0.0762134 0)
(1.06388 0.0735547 0)
(1.06338 0.0697972 0)
(0.995833 0.0593991 0)
(0.783802 0.0408678 0)
(0.482671 0.0202598 0)
(0.214317 0.00578545 0)
(0.0324718 0.00035185 0)
(0.137983 0.000827737 0)
(0.741066 0.0141085 0)
(1.01795 0.025375 0)
(1.16959 0.0341933 0)
(1.19789 0.0424986 0)
(1.17826 0.0531192 0)
(1.15474 0.0639063 0)
(1.13249 0.0745172 0)
(1.10994 0.0838826 0)
(1.08689 0.0906551 0)
(1.06755 0.0932542 0)
(1.05665 0.0924528 0)
(1.05477 0.0900083 0)
(1.05946 0.0865196 0)
(1.05217 0.0813977 0)
(0.963607 0.0679156 0)
(0.72869 0.0452909 0)
(0.4273 0.0216754 0)
(0.179087 0.00596617 0)
(0.0247938 0.000344899 0)
(0.153935 0.00119777 0)
(0.781784 0.0196853 0)
(1.0509 0.0344852 0)
(1.19352 0.0460569 0)
(1.21761 0.0567553 0)
(1.19535 0.0693091 0)
(1.16906 0.0816703 0)
(1.1434 0.0933359 0)
(1.11702 0.103061 0)
(1.08996 0.109423 0)
(1.06717 0.111008 0)
(1.05389 0.109148 0)
(1.05093 0.105998 0)
(1.05358 0.101749 0)
(1.03681 0.0946447 0)
(0.922654 0.077075 0)
(0.664145 0.0494172 0)
(0.366395 0.0225737 0)
(0.142428 0.0059285 0)
(0.01722 0.000320775 0)
(0.176457 0.00183817 0)
(0.835646 0.028097 0)
(1.09529 0.0474715 0)
(1.22399 0.0626141 0)
(1.24149 0.0762551 0)
(1.21499 0.0908247 0)
(1.18476 0.104584 0)
(1.15469 0.116817 0)
(1.12372 0.126236 0)
(1.09219 0.131471 0)
(1.06575 0.131472 0)
(1.05007 0.128226 0)
(1.04608 0.124218 0)
(1.04616 0.118953 0)
(1.01566 0.109283 0)
(0.87064 0.0862406 0)
(0.589451 0.0525734 0)
(0.301131 0.0226123 0)
(0.105746 0.00560405 0)
(0.0101258 0.000276781 0)
(0.20901 0.00325274 0)
(0.908498 0.0420802 0)
(1.15422 0.06822 0)
(1.26133 0.0873925 0)
(1.26935 0.104048 0)
(1.23656 0.120092 0)
(1.20099 0.134294 0)
(1.16552 0.145951 0)
(1.12936 0.153934 0)
(1.09309 0.157044 0)
(1.063 0.154731 0)
(1.04503 0.149692 0)
(1.04007 0.144689 0)
(1.03638 0.138189 0)
(0.986283 0.124715 0)
(0.804915 0.0943332 0)
(0.505407 0.0539409 0)
(0.234453 0.0215777 0)
(0.0712047 0.00498151 0)
(0.00399941 0.000211229 0)
(0.253424 0.0096523 8.42811e-21)
(1.00417 0.069772 7.25392e-21)
(1.22529 0.103496 -2.54707e-21)
(1.30262 0.124282 0)
(1.29823 0.14386 -6.62916e-35)
(1.2578 0.159494 9.72745e-22)
(1.21614 0.172315 -1.77414e-21)
(1.17483 0.181943 0)
(1.13319 0.187419 3.70829e-35)
(1.09195 0.187641 -2.25386e-21)
(1.05805 0.182619 0)
(1.03784 0.175782 -2.71469e-21)
(1.0326 0.170361 -8.03892e-21)
(1.02224 0.162937 -3.81602e-21)
(0.942956 0.142978 -1.15216e-21)
(0.717752 0.101694 -6.84921e-22)
(0.407169 0.0533065 0)
(0.165811 0.0197489 4.79271e-22)
(0.0389705 0.00420798 5.67572e-22)
(-0.00122926 9.78222e-05 1.03764e-20)
(0.284399 0.0253086 5.68309e-21)
(1.08365 0.113587 1.16963e-22)
(1.28389 0.153746 6.56138e-22)
(1.34014 0.174496 0)
(1.32378 0.194166 -3.27427e-21)
(1.27631 0.207736 -3.75367e-21)
(1.2287 0.218373 -1.76688e-21)
(1.18158 0.225706 -6.36394e-21)
(1.13441 0.228727 0)
(1.08801 0.226301 9.51814e-21)
(1.05011 0.218889 9.49986e-21)
(1.02734 0.210444 2.83035e-21)
(1.01922 0.203776 1.0414e-20)
(0.995142 0.192974 1.47433e-20)
(0.871364 0.162585 0)
(0.59627 0.107172 2.08071e-20)
(0.293486 0.051104 2.98396e-20)
(0.0967186 0.0167911 3.32007e-20)
(0.00844996 0.00227481 -3.80808e-20)
(-0.00597569 -0.000471913 -7.26552e-22)
(0.286226 0.0429266 0)
(1.13484 0.170169 8.61556e-22)
(1.32422 0.215173 0)
(1.36968 0.235649 -3.95414e-21)
(1.34417 0.252311 0)
(1.2908 0.261982 -7.20059e-21)
(1.23764 0.268918 3.55889e-21)
(1.18507 0.272771 -1.26305e-20)
(1.13273 0.27242 -3.28336e-22)
(1.08161 0.266644 4.86869e-21)
(1.04017 0.256418 2.08114e-20)
(1.0152 0.246184 -2.70066e-23)
(1.00362 0.237735 -7.54469e-21)
(0.964363 0.222484 -1.37858e-20)
(0.802654 0.179905 1.63542e-20)
(0.502657 0.110326 -2.89467e-20)
(0.222573 0.048417 -3.812e-21)
(0.0580764 0.0137145 0)
(-0.00768458 -0.00010882 -3.53409e-24)
(-0.00835407 -0.00116449 0)
(0.279665 0.0576709 8.18446e-21)
(1.16322 0.230505 -4.43665e-21)
(1.34979 0.281274 -3.98194e-21)
(1.38959 0.302089 1.77589e-21)
(1.35785 0.314733 -3.00175e-21)
(1.30012 0.319814 1.48936e-20)
(1.24246 0.322296 7.32774e-21)
(1.18526 0.321925 0)
(1.12842 0.317532 -2.39897e-20)
(1.07317 0.307838 0)
(1.02869 0.294406 -1.08088e-20)
(1.00185 0.282117 -1.34977e-20)
(0.986623 0.271449 -8.16535e-21)
(0.932932 0.250647 -9.96528e-21)
(0.743104 0.195509 0)
(0.435584 0.113805 0)
(0.177337 0.0472127 -2.46721e-20)
(0.0331842 0.0109108 4.86915e-21)
(-0.0187152 -0.00278097 -2.86987e-21)
(-0.0100894 -0.00194906 -3.39966e-21)
(0.271588 0.0705432 -7.87604e-22)
(1.1762 0.290704 0)
(1.36431 0.348323 6.78884e-21)
(1.40092 0.369784 4.64137e-21)
(1.36491 0.378455 7.07312e-21)
(1.30404 0.378918 0)
(1.24295 0.37679 6.98593e-21)
(1.18204 0.371935 1.37278e-20)
(1.12147 0.363151 1.21369e-20)
(1.06272 0.349183 2.2666e-20)
(1.01564 0.332216 0)
(0.987199 0.317598 -2.8881e-20)
(0.968405 0.304277 -1.74754e-20)
(0.902355 0.277189 -1.03498e-20)
(0.693474 0.210271 6.35846e-20)
(0.388263 0.118141 7.54e-21)
(0.147452 0.0468554 3.55129e-20)
(0.0153038 0.00795102 -1.6787e-19)
(-0.0278477 -0.00590569 9.94216e-20)
(-0.0117536 -0.00285954 -1.21361e-19)
(0.263567 0.0820292 2.75183e-21)
(1.17917 0.348771 4.41401e-23)
(1.37072 0.414368 -4.11293e-22)
(1.40534 0.436802 -3.70268e-21)
(1.36631 0.441732 -5.3672e-21)
(1.30311 0.437724 3.58323e-22)
(1.23938 0.431086 -7.55207e-21)
(1.17552 0.421755 1.39885e-20)
(1.11187 0.40849 -2.59698e-20)
(1.05016 0.39006 0)
(1.0009 0.369336 -1.30076e-20)
(0.971083 0.352118 -3.02503e-22)
(0.949085 0.335858 -1.90558e-20)
(0.873151 0.302176 0)
(0.652996 0.224307 -1.37007e-20)
(0.354914 0.123225 -3.24356e-20)
(0.126658 0.0469259 8.62479e-20)
(0.00125631 0.00467744 -8.49225e-20)
(-0.0362091 -0.00955582 1.20717e-19)
(-0.0135154 -0.00393068 -1.27021e-19)
(0.25649 0.0925071 -1.1346e-22)
(1.1757 0.403958 9.27743e-22)
(1.37118 0.478348 5.09521e-22)
(1.40433 0.502026 1.00708e-21)
(1.36311 0.503551 -2.584e-21)
(1.29818 0.495307 0)
(1.23234 0.484356 -6.76728e-21)
(1.16606 0.470674 -1.45255e-20)
(1.09982 0.452973 -1.33876e-20)
(1.03556 0.430015 0)
(0.984413 0.405367 -1.33022e-20)
(0.953449 0.385298 -1.66105e-20)
(0.928705 0.365764 2.05473e-20)
(0.845511 0.325449 -1.25175e-20)
(0.620224 0.237655 -5.9231e-20)
(0.331346 0.128748 3.50488e-20)
(0.111916 0.0470563 1.03612e-20)
(-0.0101649 0.000972332 0)
(-0.0442002 -0.0137838 -1.15757e-19)
(-0.0154912 -0.0052084 -4.29245e-21)
(0.250554 0.102324 1.11766e-21)
(1.16811 0.456073 -1.60067e-21)
(1.36719 0.539706 -5.77553e-22)
(1.39911 0.564789 4.17781e-21)
(1.35625 0.563277 -8.58728e-21)
(1.29003 0.551112 1.24703e-20)
(1.22251 0.536106 1.45292e-20)
(1.15418 0.518271 -2.31231e-20)
(1.08567 0.496248 8.39514e-21)
(1.01915 0.468783 -5.50529e-20)
(0.966312 0.440079 -1.50915e-20)
(0.934337 0.416911 0)
(0.907344 0.393838 2.22001e-20)
(0.819163 0.346918 2.66077e-20)
(0.593397 0.250254 3.17912e-20)
(0.3145 0.134284 -3.7804e-20)
(0.101565 0.0469499 -1.11671e-20)
(-0.0190767 -0.00311647 1.3147e-20)
(-0.0514266 -0.018482 0)
(-0.0176209 -0.00669805 -9.25488e-21)
(0.245688 0.11156 -1.69475e-20)
(1.15816 0.505169 9.35255e-21)
(1.36007 0.598363 1.0044e-21)
(1.39069 0.624755 1.83767e-21)
(1.34657 0.620531 -3.29355e-21)
(1.27938 0.604776 -8.45913e-22)
(1.21049 0.586035 -1.59381e-20)
(1.1404 0.564309 -8.37638e-21)
(1.06986 0.538131 -2.31988e-20)
(1.00123 0.506231 5.2934e-23)
(0.946786 0.473383 -4.69518e-20)
(0.913849 0.446889 3.99834e-20)
(0.884954 0.420046 -2.43153e-20)
(0.793694 0.366608 2.91825e-20)
(0.570628 0.262098 0)
(0.302014 0.139628 -2.0434e-20)
(0.0945464 0.0466635 4.13383e-23)
(-0.0251011 -0.00723718 -5.69493e-20)
(-0.0570731 -0.0232721 -8.40652e-21)
(-0.0196082 -0.00830167 0)
(0.241855 0.120486 0)
(1.14691 0.551487 1.07458e-20)
(1.35068 0.654443 4.57833e-21)
(1.37991 0.681768 -9.61924e-22)
(1.33478 0.675112 -4.8835e-21)
(1.26685 0.656109 0)
(1.19681 0.633967 -6.89801e-21)
(1.12518 0.608642 -2.22084e-22)
(1.05277 0.578552 4.96794e-20)
(0.982107 0.542317 -7.50701e-21)
(0.926064 0.505304 -3.39272e-20)
(0.892099 0.475288 2.07279e-20)
(0.861518 0.444493 -4.19002e-22)
(0.768507 0.384646 3.10615e-20)
(0.550267 0.273084 1.88357e-20)
(0.291949 0.144728 -4.39691e-20)
(0.0900419 0.046521 5.19524e-20)
(-0.0282673 -0.0108946 1.54003e-20)
(-0.0606284 -0.0276473 6.3729e-20)
(-0.021172 -0.00985883 -1.72395e-19)
(0.23897 0.129258 -5.56976e-21)
(1.13517 0.595202 7.45359e-21)
(1.3397 0.707534 -5.02021e-21)
(1.36744 0.735777 -6.68096e-22)
(1.32146 0.726933 0)
(1.25296 0.705008 -4.92639e-21)
(1.18196 0.67981 2.35643e-20)
(1.10894 0.651203 1.82322e-20)
(1.03476 0.61747 0)
(0.962069 0.577074 -1.08658e-19)
(0.904326 0.535886 9.19191e-20)
(0.86923 0.502242 0)
(0.837028 0.467346 2.83959e-20)
(0.742863 0.401321 -3.83675e-22)
(0.531118 0.283139 -6.06656e-20)
(0.283032 0.149568 2.36983e-20)
(0.0872836 0.0467075 0)
(-0.0290518 -0.0137738 8.31005e-20)
(-0.0619673 -0.0312197 0)
(-0.0221159 -0.0112214 -8.15313e-20)
(0.236947 0.137896 6.64266e-21)
(1.12341 0.636559 9.64416e-21)
(1.32758 0.75771 -4.98675e-21)
(1.35381 0.786807 0)
(1.3071 0.775999 -3.0549e-21)
(1.23816 0.75146 0)
(1.16633 0.723526 -2.27025e-20)
(1.09203 0.691966 -8.22448e-21)
(1.01615 0.654892 8.68177e-21)
(0.941382 0.61056 -5.38339e-20)
(0.881784 0.565237 9.48028e-21)
(0.84542 0.527869 0)
(0.811646 0.488768 -6.07998e-20)
(0.716815 0.416682 3.41157e-22)
(0.51206 0.29239 0)
(0.274222 0.154214 7.19273e-23)
(0.0852447 0.047189 7.59605e-20)
(-0.0282026 -0.0157381 -7.18314e-20)
(-0.0613585 -0.033833 2.12696e-20)
(-0.0224003 -0.0122707 0)
(0.235442 0.146368 0)
(1.11188 0.675755 1.15887e-20)
(1.3148 0.805092 7.26262e-21)
(1.33944 0.834937 -5.30159e-22)
(1.2921 0.822354 -1.45981e-22)
(1.22281 0.795487 -1.11194e-20)
(1.15026 0.765125 8.70213e-21)
(1.07478 0.730932 -9.96301e-21)
(0.997224 0.690844 3.91221e-20)
(0.920289 0.642848 -8.64035e-20)
(0.858642 0.59348 -8.9654e-22)
(0.820834 0.552277 -2.66139e-20)
(0.785486 0.508862 9.89205e-20)
(0.690319 0.430789 -4.57565e-22)
(0.492558 0.300715 -4.73367e-20)
(0.26499 0.158355 -8.35343e-20)
(0.0833407 0.0479597 0)
(-0.0264133 -0.0168722 0)
(-0.0593008 -0.0354397 2.29996e-20)
(-0.0221003 -0.0129806 -1.36603e-20)
(0.23461 0.154855 9.26826e-21)
(1.10079 0.712756 -2.6239e-20)
(1.30168 0.84979 -7.78391e-21)
(1.32468 0.880261 0)
(1.27677 0.866064 -3.07969e-22)
(1.20721 0.837134 -9.18801e-21)
(1.13403 0.804637 2.03968e-20)
(1.05745 0.768123 3.86626e-20)
(0.978241 0.725367 5.08318e-20)
(0.899035 0.674025 -7.07652e-20)
(0.835093 0.620741 -7.98195e-20)
(0.795622 0.575578 7.14167e-20)
(0.758696 0.527635 0)
(0.663343 0.443539 -2.17414e-20)
(0.472531 0.307862 -5.11544e-20)
(0.254887 0.161777 -6.02432e-20)
(0.0809975 0.0487408 -7.10063e-20)
(-0.024351 -0.017327 2.10334e-20)
(-0.0564598 -0.0361843 -1.23991e-20)
(-0.0213797 -0.0133697 7.03717e-23)
(0.234032 0.163173 0)
(1.09045 0.747763 0)
(1.28845 0.891917 5.08152e-22)
(1.30977 0.922883 0)
(1.26138 0.907227 -2.28702e-21)
(1.19161 0.876475 5.40407e-21)
(1.11789 0.842107 0)
(1.04027 0.803573 4.48814e-21)
(0.959427 0.758496 8.49856e-20)
(0.877842 0.704173 -1.63369e-19)
(0.811319 0.647158 0)
(0.769896 0.597888 -4.63051e-20)
(0.731319 0.545018 -5.51724e-22)
(0.636016 0.454663 -3.5345e-22)
(0.452004 0.313575 5.51726e-20)
(0.244101 0.164182 5.06803e-23)
(0.078111 0.0493294 -1.53327e-19)
(-0.0224057 -0.0173557 4.53184e-20)
(-0.0533351 -0.0363272 1.3455e-20)
(-0.0204078 -0.0134996 0)
(0.233688 0.171276 -3.70268e-20)
(1.0806 0.781082 -1.76251e-20)
(1.27522 0.931553 -2.28048e-20)
(1.29492 0.962906 2.22458e-20)
(1.24611 0.945923 -7.11024e-21)
(1.17621 0.913582 0)
(1.102 0.877593 1.20012e-20)
(1.02343 0.837325 -1.01763e-20)
(0.940973 0.790272 8.02786e-22)
(0.856914 0.733364 1.21449e-20)
(0.787491 0.672872 1.04398e-19)
(0.743739 0.619355 -1.62944e-20)
(0.703352 0.560977 -6.16614e-20)
(0.60827 0.463796 -2.55027e-20)
(0.430884 0.317258 2.98581e-20)
(0.233093 0.165197 6.83432e-23)
(0.0750504 0.0495351 4.13946e-20)
(-0.0206678 -0.0170725 -9.77363e-20)
(-0.0503334 -0.0360723 1.16037e-19)
(-0.0193802 -0.0134833 1.71228e-20)
(0.233392 0.179146 1.40416e-20)
(1.07126 0.812779 -9.90482e-21)
(1.26216 0.96883 1.31421e-21)
(1.28029 1.00046 1.42459e-20)
(1.23114 0.982269 2.90102e-21)
(1.16114 0.948533 -8.76898e-21)
(1.08654 0.911151 3.17354e-21)
(1.00707 0.869411 -4.24018e-20)
(0.923049 0.820715 -9.42311e-20)
(0.836432 0.761641 -9.81191e-20)
(0.76379 0.698019 0)
(0.717205 0.640161 -7.22028e-20)
(0.674651 0.575536 8.93667e-20)
(0.579945 0.470529 0)
(0.40973 0.318183 -6.42486e-20)
(0.222591 0.164123 3.79669e-20)
(0.0728753 0.049011 -4.46133e-20)
(-0.0186623 -0.0163119 -5.27407e-20)
(-0.0479633 -0.0355187 -9.36527e-20)
(-0.0186314 -0.0134918 -7.39708e-20)
(0.233409 0.186877 -1.58949e-20)
(1.0623 0.842862 1.06117e-20)
(1.24936 1.00382 2.3949e-20)
(1.26599 1.03563 2.08454e-20)
(1.21656 1.01636 -5.26788e-21)
(1.14653 0.981419 -3.72726e-21)
(1.07161 0.942838 1.09284e-20)
(0.991317 0.899884 -4.34641e-20)
(0.905777 0.849857 -5.61186e-20)
(0.816563 0.789046 1.03392e-19)
(0.740378 0.722717 2.31858e-19)
(0.690356 0.660529 0)
(0.645045 0.588848 0)
(0.550587 0.474553 -2.94663e-20)
(0.388355 0.315313 0)
(0.213607 0.15936 8.16561e-20)
(0.0741699 0.0466806 9.60942e-20)
(-0.013778 -0.0157912 0)
(-0.0456535 -0.0351301 0)
(-0.0187994 -0.0139703 7.9691e-20)
(0.233267 0.19417 1.80619e-20)
(1.05373 0.871347 1.42881e-20)
(1.23692 1.03665 1.74114e-20)
(1.25211 1.06857 -2.00642e-20)
(1.20248 1.04831 -7.06517e-21)
(1.13245 1.01232 2.29371e-21)
(1.05728 0.972716 -1.49109e-20)
(0.976262 0.928772 -2.33018e-22)
(0.889272 0.877712 -1.05962e-21)
(0.797447 0.815596 -7.00621e-22)
(0.717438 0.747063 1.20036e-19)
(0.66329 0.680685 0)
(0.61435 0.60121 9.17223e-20)
(0.519519 0.475825 6.34927e-20)
(0.365788 0.307675 1.51007e-19)
(0.205964 0.148079 4.4211e-20)
(0.0816353 0.0367296 -5.18096e-20)
(0.0023345 -0.0229735 -3.05571e-20)
(-0.0329418 -0.0376673 0)
(-0.017904 -0.0146969 8.59967e-20)
(0.233513 0.201504 -4.08573e-20)
(1.04553 0.898341 0)
(1.22482 1.06737 2.04989e-20)
(1.23868 1.09936 -1.70107e-20)
(1.18894 1.07822 9.7726e-21)
(1.11896 1.04132 3.16138e-22)
(1.04364 1.00084 2.78402e-20)
(0.961964 0.956113 -3.56845e-21)
(0.873607 0.90429 0)
(0.779206 0.841271 -1.15179e-19)
(0.695152 0.771119 -2.62951e-19)
(0.636144 0.700856 1.08588e-20)
(0.582489 0.613029 1.28093e-19)
(0.486069 0.474825 0)
(0.340082 0.295182 1.02633e-19)
(0.195998 0.126982 0)
(0.092294 0.00737324 0)
(0.0376805 -0.0597482 -3.30647e-20)
(0.0262725 -0.0561244 0)
(0.0192054 -0.00179358 2.31359e-20)
(0.233406 0.208306 -4.56348e-20)
(1.03768 0.924147 0)
(1.21307 1.09619 3.42282e-20)
(1.22567 1.12825 0)
(1.17593 1.10636 -6.00286e-21)
(1.106 1.0687 0)
(1.03061 1.02752 1.13551e-21)
(0.948335 0.982236 6.06644e-21)
(0.858664 0.929944 7.16695e-21)
(0.76167 0.866434 -1.2701e-19)
(0.673329 0.79533 7.90865e-21)
(0.608595 0.721743 8.82144e-20)
(0.548857 0.625171 1.2574e-19)
(0.448965 0.472315 1.68641e-20)
(0.308483 0.279133 8.10983e-20)
(0.176352 0.0965138 0)
(0.088581 -0.0444464 1.09473e-19)
(0.0524588 -0.0893818 -6.42715e-20)
(0.0247634 0.0377342 7.52157e-20)
(-0.0388996 0.460746 -8.93545e-20)
(0.233312 0.214951 3.78111e-20)
(1.02993 0.9486 5.70682e-20)
(1.20159 1.12343 0)
(1.21292 1.15567 1.00122e-21)
(1.16323 1.1333 1.78905e-20)
(1.0933 1.09516 -8.17493e-21)
(1.01787 1.05354 8.96814e-21)
(0.934949 1.00807 0)
(0.843894 0.955751 4.70029e-20)
(0.744135 0.892361 -6.57943e-21)
(0.650996 0.82114 0)
(0.579205 0.744944 0)
(0.51105 0.638716 1.13671e-19)
(0.405116 0.468514 -5.23405e-20)
(0.267337 0.261253 -8.3032e-20)
(0.14123 0.0597005 0)
(0.054004 -0.0136707 5.58831e-20)
(0.00321355 0.453478 -6.46897e-20)
(0.0284137 1.94194 -3.62586e-20)
(0.054577 2.83206 -4.45816e-20)
(0.23295 0.221088 -2.84529e-20)
(1.02236 0.971878 -7.33575e-20)
(1.1904 1.1491 2.03695e-20)
(1.20046 1.1815 1.66566e-20)
(1.15093 1.15886 0)
(1.08097 1.12041 -7.86955e-21)
(1.00565 1.0786 1.10886e-20)
(0.922014 1.03319 -2.90397e-21)
(0.829601 0.981207 7.10529e-21)
(0.727027 0.918479 1.21734e-19)
(0.628837 0.847975 1.35206e-19)
(0.549016 0.770482 1.00734e-19)
(0.4698 0.654275 1.15566e-19)
(0.355286 0.46311 -1.24703e-19)
(0.221643 0.24603 -1.2675e-19)
(0.0948082 0.120864 0)
(0.0348693 0.910546 0)
(0.0807414 2.59383 3.10851e-20)
(0.0839372 3.21798 0)
(0.0859026 3.3913 8.08941e-20)
(0.235416 0.226881 0)
(1.0153 0.994384 0)
(1.17919 1.17306 0)
(1.18809 1.20562 5.04787e-21)
(1.13868 1.18279 1.63905e-20)
(1.06881 1.14431 -8.32615e-21)
(0.993872 1.1026 6.71809e-21)
(0.909466 1.05746 -2.8124e-21)
(0.815724 1.00613 5.86596e-20)
(0.710346 0.944623 -1.58419e-21)
(0.606962 0.875639 2.68961e-19)
(0.518418 0.798499 -1.17424e-20)
(0.42502 0.673082 1.41807e-20)
(0.300894 0.454777 1.82299e-20)
(0.164042 0.263157 -7.65362e-22)
(0.0810067 1.02981 3.47393e-22)
(0.115605 2.77683 -1.67616e-19)
(0.120069 3.3027 -6.29614e-20)
(0.112248 3.423 3.30909e-20)
(0.103092 3.44244 -3.73934e-20)
(0.158533 0.172415 1.73842e-20)
(1.00393 1.01887 0)
(1.16774 1.19552 -4.17401e-20)
(1.17623 1.22845 -4.54686e-20)
(1.12693 1.20556 3.86279e-20)
(1.0575 1.16735 9.72359e-21)
(0.982323 1.12556 -6.36898e-21)
(0.897337 1.08094 2.96646e-20)
(0.802345 1.03062 -4.80847e-20)
(0.694329 0.970909 0)
(0.585707 0.904218 1.333e-19)
(0.487976 0.828837 -8.31491e-20)
(0.380735 0.702976 0)
(0.238392 0.449163 1.7895e-20)
(0.117255 0.716116 4.1994e-20)
(0.130266 2.58706 -4.70652e-20)
(0.176369 3.32694 5.32307e-20)
(0.160788 3.43092 2.85522e-20)
(0.134232 3.44982 3.22233e-20)
(0.11602 3.45875 5.1203e-20)
(0.269801 0.264144 -3.35462e-20)
(0.985541 1.02837 0)
(1.14873 1.22114 4.49793e-20)
(1.16095 1.2596 4.99657e-20)
(1.10887 1.23914 -4.32617e-20)
(1.03885 1.20126 -1.45471e-20)
(0.962453 1.16101 2.71558e-21)
(0.876787 1.11764 2.37971e-21)
(0.780106 1.06951 4.54475e-20)
(0.668571 1.01388 1.06045e-19)
(0.55299 0.95334 7.4797e-21)
(0.440605 0.879057 7.47473e-20)
(0.296739 0.727528 1.36208e-20)
(0.197003 0.869999 -1.73309e-20)
(0.20331 2.47048 -3.85525e-20)
(0.254337 3.32882 3.76627e-20)
(0.237134 3.45347 -4.11345e-20)
(0.203723 3.4729 -2.35701e-20)
(0.17107 3.49777 -2.11614e-20)
(0.126457 3.4936 -3.06388e-21)
(0.259784 0.262901 0)
(0.982189 1.05099 1.30479e-20)
(1.13954 1.24464 -9.25036e-21)
(1.14944 1.28318 -5.94285e-21)
(1.09733 1.26245 -2.98075e-20)
(1.02728 1.22475 1.50875e-20)
(0.950508 1.18469 -1.59356e-22)
(0.864479 1.14215 2.09103e-21)
(0.766954 1.09552 -4.71593e-20)
(0.653487 1.04288 -2.64999e-21)
(0.533796 0.987228 -2.42483e-19)
(0.413222 0.914926 1.07607e-20)
(0.274746 0.801148 -1.29433e-20)
(0.233016 1.52954 -1.59604e-20)
(0.297149 3.14474 3.66191e-21)
(0.308828 3.45392 1.20069e-22)
(0.268147 3.50094 6.08613e-20)
(0.234864 3.52558 3.06291e-20)
(0.189557 3.54618 -9.56795e-21)
(0.140161 3.54352 -1.5142e-20)
(0.245706 0.260772 3.33504e-20)
(0.977896 1.07611 8.83654e-20)
(1.12998 1.27024 -2.6353e-20)
(1.13754 1.30839 -2.23175e-20)
(1.08532 1.28724 0)
(1.01532 1.24955 2.73158e-20)
(0.938455 1.20975 2.82058e-21)
(0.852322 1.16801 1.77647e-21)
(0.754276 1.12303 -5.3243e-21)
(0.639448 1.07373 -9.58516e-20)
(0.516652 1.02367 -1.11999e-19)
(0.389037 0.952197 -8.8027e-20)
(0.276364 0.953729 -9.76049e-20)
(0.300058 2.32415 1.00522e-19)
(0.379118 3.38218 8.42842e-20)
(0.349044 3.50846 0)
(0.301932 3.54689 0)
(0.265685 3.58135 -7.59324e-21)
(0.222909 3.62634 0)
(0.153734 3.61241 -1.13947e-20)
(0.23581 0.26256 -4.96556e-20)
(0.971669 1.10206 -7.47466e-20)
(1.11902 1.29706 0)
(1.12438 1.33442 1.21759e-21)
(1.07204 1.31268 -3.21668e-20)
(1.00227 1.27494 4.43369e-20)
(0.925634 1.23545 3.56998e-21)
(0.83963 1.19446 7.28122e-22)
(0.741331 1.15112 -3.245e-20)
(0.625607 1.10524 4.6991e-21)
(0.500714 1.06089 0)
(0.366992 0.992931 0)
(0.298273 1.25884 -8.86027e-20)