/*--------------------------------*- C++ -*----------------------------------*\
  =========                 |
  \\      /  F ield         | OpenFOAM: The Open Source CFD Toolbox
   \\    /   O peration     | Website:  https://openfoam.org
    \\  /    A nd           | Version:  6
     \\/     M anipulation  |
\*---------------------------------------------------------------------------*/
FoamFile
{
    version     2.0;
    format      ascii;
    class       volVectorField;
    location    "101.3";
    object      U;
}
// * * * * * * * * * * * * * * * * * * * * * * * * * * * * * * * * * * * * * //

dimensions      [0 1 -1 0 0 0 0];

internalField   nonuniform List<vector> 
8800
(
(0.987183 -0.0766651 0)
(1.00189 -0.05519 0)
(0.999722 -0.0285478 0)
(1.00003 -0.0151428 0)
(1.0001 -0.00854416 0)
(1.00012 -0.00504633 0)
(1.00008 -0.00300043 0)
(1.00002 -0.00169919 0)
(0.99999 -0.000792393 0)
(1.00006 -7.54817e-05 0)
(0.99996 0.00065762 0)
(1.00001 0.00142508 0)
(1.00006 0.00242848 0)
(1.00007 0.00399829 0)
(1.00006 0.00663244 0)
(1.00005 0.011372 0)
(0.999958 0.0208157 0)
(0.999175 0.0386704 0)
(1.0071 0.0724575 0)
(0.771215 0.0366617 0)
(0.363081 -0.0160162 0)
(1.04332 -0.0768105 0)
(1.0846 -0.0704381 0)
(1.0452 -0.0535313 0)
(1.02329 -0.0388814 0)
(1.01203 -0.026202 0)
(1.00644 -0.0168378 0)
(1.0036 -0.0103013 0)
(1.00215 -0.00563609 0)
(1.00143 -0.00197247 0)
(1.00128 0.00135045 0)
(1.00167 0.00473983 0)
(1.0027 0.00865928 0)
(1.00468 0.013977 0)
(1.00861 0.0216852 0)
(1.01657 0.0326514 0)
(1.03252 0.0465627 0)
(1.06269 0.0616788 0)
(1.09187 0.076106 0)
(0.838664 0.0565646 0)
(0.216876 -0.00242848 0)
(1.07592 -0.0501205 0)
(1.09989 -0.0482882 0)
(1.06466 -0.040436 0)
(1.04006 -0.0335726 0)
(1.02394 -0.0260444 0)
(1.01413 -0.0184516 0)
(1.00856 -0.0116203 0)
(1.00558 -0.00574123 0)
(1.0043 -0.00031531 0)
(1.00464 0.00493623 0)
(1.00661 0.0103266 0)
(1.01064 0.0163829 0)
(1.01794 0.0234002 0)
(1.03053 0.0308616 0)
(1.05062 0.037884 0)
(1.08037 0.0445636 0)
(1.10627 0.0513715 0)
(0.942493 0.0416312 0)
(0.216111 0.00246309 0)
(0.175225 -0.000814881 0)
(1.01776 -0.035461 0)
(1.10524 -0.041342 0)
(1.0783 -0.0360173 0)
(1.0535 -0.030074 0)
(1.03624 -0.024487 0)
(1.02403 -0.018743 0)
(1.0159 -0.0126453 0)
(1.01102 -0.00644119 0)
(1.00879 -9.36657e-05 0)
(1.00935 0.00616977 0)
(1.01266 0.0121655 0)
(1.01889 0.0179537 0)
(1.02875 0.0235172 0)
(1.04318 0.0288102 0)
(1.0637 0.0342808 0)
(1.09356 0.0402574 0)
(1.09339 0.0420064 0)
(0.827029 0.0229343 0)
(0.173935 0.000855129 0)
(0.154053 -0.000608519 0)
(0.956338 -0.0254252 0)
(1.10353 -0.0350712 0)
(1.08774 -0.0325801 0)
(1.06179 -0.0279146 0)
(1.04417 -0.0228742 0)
(1.03169 -0.0176051 0)
(1.02282 -0.0120488 0)
(1.01698 -0.00609028 0)
(1.0141 0.000396583 0)
(1.01475 0.00686908 0)
(1.01878 0.0127474 0)
(1.0258 0.0179829 0)
(1.03605 0.0228853 0)
(1.0506 0.0276322 0)
(1.07184 0.0321447 0)
(1.10004 0.0360652 0)
(1.06798 0.0341005 0)
(0.739291 0.0143432 0)
(0.152106 0.000654268 0)
(0.139719 -0.000464409 0)
(0.899561 -0.0190316 0)
(1.09593 -0.0299976 0)
(1.09584 -0.0290842 0)
(1.06935 -0.0253345 0)
(1.05091 -0.0211724 0)
(1.03797 -0.0163694 0)
(1.02883 -0.0110498 0)
(1.02267 -0.00527609 0)
(1.01949 0.00107459 0)
(1.02007 0.00740025 0)
(1.02422 0.0130269 0)
(1.03135 0.0179191 0)
(1.0418 0.0223662 0)
(1.05691 0.0263155 0)
(1.07911 0.0297528 0)
(1.1022 0.0323583 0)
(1.03576 0.0282175 0)
(0.672546 0.0102512 0)
(0.136964 0.000517204 0)
(0.129228 -0.000358559 0)
(0.850143 -0.0146556 0)
(1.08364 -0.025836 0)
(1.10158 -0.0260944 0)
(1.07626 -0.0227838 0)
(1.05729 -0.01911 0)
(1.04387 -0.0148247 0)
(1.03437 -0.00985808 0)
(1.02797 -0.0042862 0)
(1.02457 0.00189242 0)
(1.02499 0.00800978 0)
(1.02909 0.0133584 0)
(1.03631 0.0178245 0)
(1.04703 0.0216629 0)
(1.06253 0.0249418 0)
(1.08516 0.027852 0)
(1.10121 0.0295772 0)
(1.00064 0.023737 0)
(0.620471 0.00789953 0)
(0.125487 0.000420682 0)
(0.121246 -0.000277319 0)
(0.808231 -0.0114815 0)
(1.06853 -0.0221914 0)
(1.1052 -0.0234088 0)
(1.08258 -0.020503 0)
(1.06319 -0.0170354 0)
(1.0495 -0.0130465 0)
(1.03971 -0.00840609 0)
(1.033 -0.00309475 0)
(1.02933 0.00287422 0)
(1.02955 0.0087489 0)
(1.0336 0.0137477 0)
(1.04086 0.0177249 0)
(1.05165 0.0210527 0)
(1.06736 0.0239143 0)
(1.09033 0.0265169 0)
(1.0973 0.0273332 0)
(0.965074 0.0202398 0)
(0.578502 0.00638038 0)
(0.116307 0.000351226 0)
(0.11509 -0.000213416 0)
(0.773054 -0.00910006 0)
(1.05198 -0.0189724 0)
(1.10769 -0.0209094 0)
(1.08853 -0.0183645 0)
(1.06875 -0.0150309 0)
(1.05481 -0.0111913 0)
(1.04482 -0.00674751 0)
(1.03784 -0.00166367 0)
(1.03387 0.00406313 0)
(1.03384 0.00964483 0)
(1.03775 0.0142665 0)
(1.04491 0.0178053 0)
(1.05568 0.0207422 0)
(1.07158 0.0232711 0)
(1.09419 0.0255178 0)
(1.09049 0.0255023 0)
(0.93035 0.0175626 0)
(0.543608 0.00535185 0)
(0.108694 0.000301813 0)
(0.110326 -0.000161706 0)
(0.743681 -0.00724364 0)
(1.03508 -0.0161068 0)
(1.10928 -0.018539 0)
(1.09422 -0.016288 0)
(1.07415 -0.0130335 0)
(1.05994 -0.00926776 0)
(1.04973 -0.00492874 0)
(1.04251 -2.1432e-06 0)
(1.03822 0.00549647 0)
(1.03786 0.0107728 0)
(1.04153 0.0150336 0)
(1.04851 0.0181798 0)
(1.0592 0.0207689 0)
(1.07529 0.0229985 0)
(1.09672 0.0248532 0)
(1.08116 0.0240432 0)
(0.897002 0.0155567 0)
(0.51372 0.00464505 0)
(0.102161 0.000267763 0)
(0.106675 -0.000118392 0)
(0.719305 -0.00573767 0)
(1.01867 -0.0135221 0)
(1.11009 -0.0162328 0)
(1.09983 -0.0142384 0)
(1.0795 -0.01098 0)
(1.06499 -0.0072256 0)
(1.05454 -0.00292865 0)
(1.04704 0.0019033 0)
(1.04237 0.0072193 0)
(1.0416 0.0122169 0)
(1.04495 0.0161406 0)
(1.05168 0.0189091 0)
(1.06229 0.0211618 0)
(1.07853 0.0231138 0)
(1.09785 0.0245365 0)
(1.06966 0.0229565 0)
(0.865114 0.0141069 0)
(0.487362 0.00417021 0)
(0.0963623 0.000246075 0)
(0.103952 -8.04701e-05 0)
(0.699295 -0.00446532 0)
(1.00336 -0.0111492 0)
(1.11028 -0.0139536 0)
(1.10532 -0.0121294 0)
(1.08488 -0.00881509 0)
(1.07004 -0.00500972 0)
(1.05931 -0.000691063 0)
(1.05146 0.00410686 0)
(1.04635 0.00929347 0)
(1.04508 0.0140485 0)
(1.04802 0.0176526 0)
(1.05447 0.0200483 0)
(1.06495 0.0219713 0)
(1.08131 0.0236484 0)
(1.09788 0.0247245 0)
(1.05621 0.0222621 0)
(0.83448 0.0131314 0)
(0.463414 0.00387351 0)
(0.091031 0.000234405 0)
(0.102041 -4.52103e-05 0)
(0.683195 -0.00333866 0)
(0.989639 -0.00891591 0)
(1.11009 -0.0116123 0)
(1.11068 -0.00987619 0)
(1.09038 -0.00647485 0)
(1.07518 -0.00255422 0)
(1.06411 0.00185563 0)
(1.05585 0.00668505 0)
(1.05018 0.0117974 0)
(1.0483 0.0163449 0)
(1.05077 0.0196431 0)
(1.05687 0.0216657 0)
(1.06719 0.0232563 0)
(1.08355 0.0246377 0)
(1.09699 0.0252508 0)
(1.04094 0.0219674 0)
(0.804714 0.0125541 0)
(0.440984 0.00371633 0)
(0.0859569 0.000230584 0)
(0.100885 -1.03087e-05 0)
(0.67072 -0.00228718 0)
(0.977865 -0.0067462 0)
(1.10985 -0.00915113 0)
(1.11606 -0.00741693 0)
(1.09608 -0.00388125 0)
(1.08049 0.000223189 0)
(1.06902 0.0047972 0)
(1.06025 0.00972894 0)
(1.05391 0.0148246 0)
(1.0513 0.0191978 0)
(1.0532 0.022201 0)
(1.05889 0.0238485 0)
(1.069 0.0250989 0)
(1.08534 0.0261834 0)
(1.09476 0.0262689 0)
(1.02385 0.0220808 0)
(0.775336 0.0123304 0)
(0.419341 0.00367471 0)
(0.0809725 0.00023336 0)
(0.100479 2.66346e-05 0)
(0.66173 -0.00125381 0)
(0.968368 -0.00456609 0)
(1.1099 -0.00650818 0)
(1.12159 -0.00467709 0)
(1.10207 -0.000944649 0)
(1.08606 0.00341789 0)
(1.07411 0.00823367 0)
(1.06472 0.0133441 0)
(1.05758 0.0184861 0)
(1.05409 0.0227198 0)
(1.0553 0.0254358 0)
(1.06051 0.0267119 0)
(1.07037 0.027599 0)
(1.08656 0.0283465 0)
(1.09108 0.0278073 0)
(1.00482 0.022648 0)
(0.745794 0.0124363 0)
(0.397856 0.00373549 0)
(0.0759352 0.000242019 0)
(0.100836 6.07518e-05 0)
(0.65622 -0.000180143 0)
(0.961462 -0.00229968 0)
(1.11059 -0.00361488 0)
(1.12745 -0.00157102 0)
(1.10848 0.00243661 0)
(1.092 0.00714126 0)
(1.07947 0.0122854 0)
(1.06934 0.0176571 0)
(1.06123 0.0229124 0)
(1.05668 0.0270399 0)
(1.05706 0.0294801 0)
(1.0617 0.0303767 0)
(1.07124 0.0308786 0)
(1.08693 0.0312457 0)
(1.08563 0.0299569 0)
(0.983616 0.0237069 0)
(0.715463 0.0128567 0)
(0.37595 0.00388858 0)
(0.0707185 0.000255645 0)
(0.102044 0.000116421 0)
(0.654358 0.00098022 0)
(0.957475 0.000133249 0)
(1.1123 -0.000390628 0)
(1.13385 0.00200246 0)
(1.11542 0.00638366 0)
(1.09842 0.0115282 0)
(1.08521 0.0170998 0)
(1.07418 0.0228249 0)
(1.06489 0.0282623 0)
(1.05907 0.0323163 0)
(1.05847 0.0344886 0)
(1.06244 0.0349798 0)
(1.07158 0.035075 0)
(1.08628 0.0350192 0)
(1.07815 0.0328026 0)
(0.959831 0.0252961 0)
(0.683651 0.0135804 0)
(0.35308 0.00412408 0)
(0.0652128 0.000273198 0)
(0.104249 0.000168508 0)
(0.656297 0.00211454 0)
(0.956774 0.00282647 0)
(1.11552 0.00326948 0)
(1.14101 0.00615756 0)
(1.12304 0.0110406 0)
(1.10545 0.0167399 0)
(1.09142 0.0228529 0)
(1.0793 0.0290316 0)
(1.06859 0.0347204 0)
(1.06127 0.0387226 0)
(1.05953 0.0405945 0)
(1.06267 0.0406805 0)
(1.07132 0.0403407 0)
(1.08439 0.0397638 0)
(1.06829 0.036448 0)
(0.932924 0.02746 0)
(0.649613 0.0145974 0)
(0.328741 0.00443105 0)
(0.0593287 0.000293425 0)
(0.107561 0.000232132 0)
(0.662679 0.00360564 0)
(0.959698 0.00578775 0)
(1.1207 0.00750402 0)
(1.14919 0.0110363 0)
(1.13156 0.0165915 0)
(1.11327 0.0229834 0)
(1.09824 0.0297689 0)
(1.08478 0.0365074 0)
(1.07237 0.0425094 0)
(1.06326 0.0464603 0)
(1.0602 0.048013 0)
(1.06235 0.0476654 0)
(1.07043 0.0468514 0)
(1.08126 0.0456437 0)
(1.05554 0.0410148 0)
(0.902173 0.0302319 0)
(0.612538 0.0158857 0)
(0.302474 0.00479274 0)
(0.0530017 0.000314455 0)
(0.112268 0.000320519 0)
(0.673868 0.00536583 0)
(0.966814 0.00929921 0)
(1.12836 0.0124782 0)
(1.15872 0.0168566 0)
(1.14119 0.0232804 0)
(1.12205 0.0305257 0)
(1.10579 0.0381286 0)
(1.0907 0.0455336 0)
(1.07622 0.0518942 0)
(1.06501 0.0557682 0)
(1.06036 0.0569692 0)
(1.06145 0.0561398 0)
(1.06882 0.0548053 0)
(1.07679 0.0528587 0)
(1.03924 0.0466088 0)
(0.86666 0.0336152 0)
(0.571576 0.0173974 0)
(0.273898 0.00518123 0)
(0.0462059 0.000333565 0)
(0.118734 0.000437571 0)
(0.690678 0.00755603 0)
(0.979018 0.0135965 0)
(1.13907 0.0184257 0)
(1.17 0.0238858 0)
(1.15223 0.0314308 0)
(1.13202 0.0397205 0)
(1.11421 0.0482947 0)
(1.09709 0.0564539 0)
(1.08014 0.0631766 0)
(1.06646 0.0669033 0)
(1.0599 0.0676617 0)
(1.0599 0.0663103 0)
(1.06657 0.0644042 0)
(1.07063 0.0615894 0)
(1.01849 0.0532949 0)
(0.825269 0.0375557 0)
(0.525901 0.0190383 0)
(0.242783 0.00555286 0)
(0.0389729 0.000347109 0)
(0.127487 0.000601106 0)
(0.714132 0.0104208 0)
(0.997032 0.0189341 0)
(1.15349 0.0256915 0)
(1.18349 0.0325048 0)
(1.16503 0.0415059 0)
(1.1434 0.0510581 0)
(1.12361 0.0607496 0)
(1.10395 0.0696995 0)
(1.08404 0.0767048 0)
(1.06752 0.080135 0)
(1.05883 0.0803232 0)
(1.05765 0.0783772 0)
(1.06336 0.0758044 0)
(1.06219 0.0718444 0)
(0.992102 0.0610807 0)
(0.7767 0.041897 0)
(0.474815 0.0206472 0)
(0.209153 0.00584594 0)
(0.0314122 0.00035075 0)
(0.13934 0.000841068 0)
(0.74561 0.0143434 0)
(1.02203 0.0257919 0)
(1.17244 0.0348265 0)
(1.19986 0.0433274 0)
(1.17998 0.0541913 0)
(1.1564 0.0652292 0)
(1.134 0.0761228 0)
(1.11119 0.085786 0)
(1.08776 0.092858 0)
(1.06804 0.0957307 0)
(1.05705 0.0951662 0)
(1.05474 0.0925882 0)
(1.05887 0.0892384 0)
(1.05056 0.0838242 0)
(0.958496 0.0698122 0)
(0.719557 0.0463256 0)
(0.417959 0.0219788 0)
(0.173418 0.00598243 0)
(0.023729 0.000340036 0)
(0.155605 0.00121632 0)
(0.787117 0.0199729 0)
(1.05566 0.0349604 0)
(1.19687 0.0467963 0)
(1.22002 0.0577717 0)
(1.19746 0.0705629 0)
(1.1711 0.083231 0)
(1.14525 0.0952334 0)
(1.11856 0.10531 0)
(1.09106 0.112016 0)
(1.06782 0.113919 0)
(1.05444 0.112361 0)
(1.05107 0.109059 0)
(1.05295 0.104964 0)
(1.03453 0.0974567 0)
(0.915636 0.0791041 0)
(0.652564 0.050321 0)
(0.355626 0.0227083 0)
(0.136503 0.00588073 0)
(0.0162279 0.000311601 0)
(0.178541 0.00186738 0)
(0.841894 0.0284727 0)
(1.10086 0.0480431 0)
(1.22787 0.0634618 0)
(1.24439 0.0774384 0)
(1.21758 0.0923064 0)
(1.18724 0.106434 0)
(1.15694 0.119063 0)
(1.1256 0.128891 0)
(1.09354 0.134525 0)
(1.06658 0.134882 0)
(1.05076 0.13199 0)
(1.04644 0.127827 0)
(1.04541 0.122731 0)
(1.01227 0.112432 0)
(0.861028 0.088225 0)
(0.575079 0.0531352 0)
(0.289239 0.0224831 0)
(0.0999454 0.00547873 0)
(0.00929749 0.000263523 0)
(0.211652 0.0033084 0)
(0.915821 0.0426175 0)
(1.16061 0.0689509 0)
(1.26577 0.0883361 0)
(1.27285 0.10547 0)
(1.23971 0.12187 0)
(1.20398 0.136499 0)
(1.16823 0.148613 0)
(1.13163 0.157069 0)
(1.09474 0.16063 0)
(1.06402 0.158708 0)
(1.04587 0.154066 0)
(1.04068 0.148914 0)
(1.03535 0.142556 0)
(0.981071 0.128078 0)
(0.791899 0.095968 0)
(0.488184 0.0539011 0)
(0.222064 0.0211095 0)
(0.0659883 0.00477742 0)
(0.00341685 0.000195367 0)
(0.256835 0.00978916 1.03062e-20)
(1.01267 0.0706326 8.83166e-21)
(1.23246 0.104539 -3.07785e-21)
(1.30776 0.125455 0)
(1.3024 0.145648 -7.77225e-35)
(1.2616 0.161674 1.13449e-21)
(1.21973 0.174972 -2.03381e-21)
(1.17805 0.185114 0)
(1.13591 0.191121 4.17695e-35)
(1.09395 0.191862 -2.51448e-21)
(1.05933 0.187281 0)
(1.03899 0.180949 -2.99952e-21)
(1.03375 0.175639 -8.86255e-21)
(1.02046 0.167973 -4.20042e-21)
(0.934708 0.146231 -1.26473e-21)
(0.700051 0.102361 -7.50894e-22)
(0.387217 0.0523185 0)
(0.153781 0.018868 5.25017e-22)
(0.0347693 0.00390134 6.21749e-22)
(-0.00150932 7.53561e-05 1.13738e-20)
(0.288525 0.0256068 7.45676e-21)
(1.09329 0.114984 1.19489e-22)
(1.29173 0.15522 8.15732e-22)
(1.34611 0.176184 0)
(1.32863 0.196381 -3.90602e-21)
(1.28079 0.210389 -4.43252e-21)
(1.23293 0.221558 -2.04131e-21)
(1.18541 0.229481 -7.2398e-21)
(1.13768 0.233143 0)
(1.0905 0.231363 1.0622e-20)
(1.05177 0.224499 1.05467e-20)
(1.02867 0.216598 3.1299e-21)
(1.02046 0.210286 1.14639e-20)
(0.991456 0.19854 1.61793e-20)
(0.857298 0.165007 0)
(0.571692 0.106087 2.27652e-20)
(0.271911 0.0487372 3.26327e-20)
(0.0862034 0.0153896 3.63052e-20)
(0.00590381 0.0018883 -4.16407e-20)
(-0.00582455 -0.000472173 -7.94663e-22)
(0.290681 0.0436274 0)
(1.14559 0.172213 1.26235e-21)
(1.33284 0.217171 0)
(1.37644 0.237975 -5.03986e-21)
(1.34971 0.254998 0)
(1.29596 0.265122 -8.62685e-21)
(1.24252 0.272635 4.13634e-21)
(1.18953 0.277151 -1.44732e-20)
(1.1366 0.277547 -3.32793e-22)
(1.08465 0.272573 5.44762e-21)
(1.04229 0.263049 2.30355e-20)
(1.01681 0.253403 -2.39088e-23)
(1.00471 0.245351 -8.29117e-21)
(0.957972 0.228208 -1.50899e-20)
(0.781813 0.180838 1.78736e-20)
(0.472023 0.106865 -3.16116e-20)
(0.200296 0.0447521 -4.15774e-21)
(0.0486775 0.0119116 0)
(-0.00903848 -0.000457583 -3.28056e-24)
(-0.00788464 -0.00110927 0)
(0.284318 0.0586905 1.58906e-20)
(1.175 0.233277 -7.79462e-21)
(1.35924 0.283902 -6.05972e-21)
(1.39704 0.304993 2.34759e-21)
(1.36405 0.317891 -3.9194e-21)
(1.30595 0.323436 1.78978e-20)
(1.24802 0.326531 8.53956e-21)
(1.1904 0.326893 0)
(1.13296 0.323359 -2.70772e-20)
(1.07686 0.314645 0)
(1.03137 0.302125 -1.19736e-20)
(1.00381 0.290547 -1.48562e-20)
(0.987344 0.280054 -8.95746e-21)
(0.923114 0.256237 -1.08897e-20)
(0.71501 0.19436 0)
(0.399657 0.107718 0)
(0.153895 0.0420344 -2.68677e-20)
(0.024865 0.00865766 5.29978e-21)
(-0.0186476 -0.0029978 -3.12674e-21)
(-0.00922427 -0.00179688 -3.70365e-21)
(0.276342 0.0718207 -5.6082e-21)
(1.18889 0.294237 0)
(1.37453 0.351602 1.18688e-20)
(1.40898 0.373189 6.43241e-21)
(1.37173 0.382056 9.02104e-21)
(1.31051 0.382986 0)
(1.24918 0.381505 8.24978e-21)
(1.18788 0.377444 1.57725e-20)
(1.12675 0.369639 1.37543e-20)
(1.06716 0.356845 2.52295e-20)
(1.01904 0.341076 0)
(0.989666 0.32738 -3.17383e-20)
(0.968607 0.313959 -1.91417e-20)
(0.888613 0.282477 -1.13247e-20)
(0.657946 0.206543 6.92557e-20)
(0.347199 0.109197 8.19626e-21)
(0.122449 0.040012 3.86042e-20)
(0.00796724 0.0053052 -1.82447e-19)
(-0.0259709 -0.00579381 1.08057e-19)
(-0.0103142 -0.00253416 -1.31905e-19)
(0.268324 0.0835415 -1.73106e-21)
(1.19262 0.353049 9.69533e-22)
(1.3816 0.418269 -1.16967e-21)
(1.41396 0.440662 -6.19775e-21)
(1.3737 0.445726 -7.40272e-21)
(1.31021 0.442181 3.55204e-22)
(1.24627 0.436212 -8.88906e-21)
(1.18208 0.427728 1.61164e-20)
(1.11796 0.415553 -2.93622e-20)
(1.0555 0.398529 0)
(1.0052 0.379351 -1.43344e-20)
(0.974244 0.363372 -3.02372e-22)
(0.948707 0.346721 -2.08267e-20)
(0.855177 0.307067 0)
(0.609879 0.217831 -1.49024e-20)
(0.308343 0.111327 -3.52183e-20)
(0.0993509 0.0383715 9.35499e-20)
(-0.00534981 0.00177796 -9.21083e-20)
(-0.0321837 -0.00883517 1.30927e-19)
(-0.0112707 -0.0033148 -1.37768e-19)
(0.261157 0.0942085 -1.17118e-22)
(1.18971 0.408929 -3.40366e-23)
(1.3826 0.482816 -2.68014e-21)
(1.41344 0.50628 2.31945e-21)
(1.37102 0.507872 -3.6525e-21)
(1.30584 0.500079 0)
(1.23987 0.489805 -8.16555e-21)
(1.17336 0.47701 -1.67607e-20)
(1.10676 0.460498 -1.51692e-20)
(1.04192 0.43919 0)
(0.989853 0.416499 -1.46468e-20)
(0.957621 0.398105 -1.81737e-20)
(0.928002 0.377997 2.24065e-20)
(0.823343 0.329977 -1.3618e-20)
(0.569535 0.228411 -6.42459e-20)
(0.278662 0.113973 3.79461e-20)
(0.0811868 0.0368949 1.11967e-20)
(-0.0169536 -0.00204622 0)
(-0.0381527 -0.0122041 -1.25229e-19)
(-0.0122539 -0.00416539 -4.64014e-21)
(0.255052 0.10417 4.9723e-22)
(1.18247 0.46166 -5.88339e-22)
(1.37905 0.544674 1.11348e-21)
(1.40864 0.569378 8.34525e-21)
(1.36463 0.567856 -1.30921e-20)
(1.29822 0.556119 1.61353e-20)
(1.23064 0.541785 1.74693e-20)
(1.1622 0.524855 -2.66567e-20)
(1.09352 0.504099 9.33827e-21)
(1.02664 0.478497 -6.0968e-20)
(0.973151 0.452199 -1.65231e-20)
(0.939937 0.431218 0)
(0.906761 0.407457 2.41347e-20)
(0.793288 0.351095 2.8853e-20)
(0.535609 0.238312 3.4425e-20)
(0.255318 0.116866 -4.08027e-20)
(0.0661108 0.0352992 -1.20365e-20)
(-0.0277542 -0.00633586 1.41892e-20)
(-0.0444201 -0.0160566 0)
(-0.0134336 -0.00514707 -9.96942e-21)
(0.249943 0.113492 -1.04432e-20)
(1.17267 0.511273 5.0826e-21)
(1.37225 0.603804 -7.78888e-22)
(1.40058 0.629616 4.76812e-21)
(1.35536 0.625301 -5.67175e-21)
(1.28804 0.60994 -8.55846e-22)
(1.21917 0.591852 -1.90469e-20)
(1.1491 0.571021 -9.62136e-21)
(1.0786 0.546153 -2.61683e-20)
(1.00994 0.516271 3.59225e-23)
(0.955265 0.486254 -5.13166e-20)
(0.921308 0.462474 4.34042e-20)
(0.885147 0.434854 -2.62959e-20)
(0.765 0.370292 3.14742e-20)
(0.506897 0.247394 0)
(0.236572 0.119636 -2.19403e-20)
(0.0532934 0.0332954 2.41314e-23)
(-0.0378955 -0.0112234 -6.11131e-20)
(-0.051067 -0.0205182 -9.03518e-21)
(-0.0148849 -0.00631747 0)
(0.245813 0.122449 0)
(1.16139 0.558006 6.19875e-21)
(1.36306 0.660214 8.0585e-22)
(1.39008 0.68684 -4.06897e-21)
(1.34391 0.680013 -7.42447e-21)
(1.2759 0.661362 0)
(1.20598 0.639831 -8.53976e-21)
(1.13452 0.615365 -2.37379e-22)
(1.06237 0.586574 5.59135e-20)
(0.992076 0.552449 -8.31727e-21)
(0.936341 0.518585 -3.69897e-20)
(0.901808 0.491759 2.24965e-20)
(0.863192 0.460026 -3.96294e-22)
(0.738293 0.387434 3.3389e-20)
(0.482343 0.255451 2.01458e-20)
(0.221257 0.121859 -4.7076e-20)
(0.0425111 0.0306604 5.55438e-20)
(-0.0470329 -0.0166896 1.64258e-20)
(-0.057755 -0.0255379 6.80488e-20)
(-0.0165748 -0.00769561 -1.84143e-19)
(0.242592 0.131207 -4.11453e-21)
(1.14944 0.602032 5.05424e-21)
(1.35216 0.713569 -3.04467e-21)
(1.3778 0.741016 2.61905e-21)
(1.33085 0.731915 0)
(1.26234 0.710289 -7.08963e-21)
(1.19155 0.685642 2.87926e-20)
(1.11884 0.657826 2.10083e-20)
(1.04517 0.625332 0)
(0.973266 0.587045 -1.19716e-19)
(0.916492 0.549193 9.97926e-20)
(0.881465 0.519054 0)
(0.840841 0.482915 3.04339e-20)
(0.712862 0.402471 -3.26534e-22)
(0.460955 0.262305 -6.45294e-20)
(0.208563 0.123266 2.52465e-20)
(0.0338207 0.0274394 0)
(-0.0545961 -0.0225089 8.82281e-20)
(-0.0638547 -0.0308845 0)
(-0.0183549 -0.0092448 -8.66001e-20)
(0.240207 0.139777 5.0938e-21)
(1.13735 0.643597 7.10586e-21)
(1.34004 0.763946 -2.86702e-21)
(1.36429 0.792173 0)
(1.31669 0.781019 -5.9067e-21)
(1.2478 0.756717 0)
(1.17625 0.729258 -2.82674e-20)
(1.10241 0.698393 -9.69985e-21)
(1.02727 0.662451 9.84377e-21)
(0.953724 0.620128 -5.92477e-20)
(0.895812 0.57816 1.03126e-20)
(0.860281 0.54441 0)
(0.818016 0.503553 -6.49102e-20)
(0.688335 0.415402 2.64326e-22)
(0.441838 0.267897 0)
(0.197843 0.123825 4.77039e-23)
(0.0270633 0.0238259 8.02331e-20)
(-0.0602137 -0.0282845 -7.58651e-20)
(-0.0687768 -0.036169 2.24662e-20)
(-0.0200211 -0.0108542 0)
(0.238326 0.14814 0)
(1.12539 0.682905 8.88651e-21)
(1.32716 0.811472 5.02019e-21)
(1.34997 0.840394 -5.34077e-22)
(1.30183 0.827376 -1.66079e-21)
(1.23263 0.800679 -1.60395e-20)
(1.16044 0.770703 1.06815e-20)
(1.08553 0.737089 -1.15369e-20)
(1.00894 0.697981 4.40711e-20)
(0.93364 0.651802 -9.49734e-20)
(0.87439 0.605618 -8.4304e-22)
(0.838253 0.567923 -2.85339e-20)
(0.794631 0.522031 1.05221e-19)
(0.664358 0.426341 -3.80825e-22)
(0.424258 0.272211 -4.97897e-20)
(0.188547 0.123627 -8.78114e-20)
(0.0220768 0.0201445 0)
(-0.0637375 -0.033616 0)
(-0.072151 -0.0410059 2.41731e-20)
(-0.0213915 -0.0124076 -1.43384e-20)
(0.237117 0.156485 7.50806e-21)
(1.11373 0.720005 -2.04511e-20)
(1.31387 0.856265 -5.38047e-21)
(1.3352 0.885771 0)
(1.28658 0.871063 -3.09769e-22)
(1.21716 0.84223 -1.44415e-20)
(1.14439 0.81002 2.56831e-20)
(1.06849 0.773954 4.53947e-20)
(0.990419 0.731993 5.74417e-20)
(0.913215 0.682193 -7.79049e-20)
(0.852339 0.631751 -8.62942e-20)
(0.815376 0.589733 7.64895e-20)
(0.770607 0.53845 0)
(0.640429 0.43535 -2.28521e-20)
(0.407751 0.275249 -5.35894e-20)
(0.180307 0.122844 -6.30296e-20)
(0.0185605 0.0166588 -7.43079e-20)
(-0.0653623 -0.0381901 2.19959e-20)
(-0.0739062 -0.0450975 -1.29894e-20)
(-0.0223571 -0.0138 4.72135e-23)
(0.236167 0.164638 0)
(1.10281 0.754939 0)
(1.30042 0.89844 5.08784e-22)
(1.32022 0.928413 0)
(1.2712 0.912184 2.90234e-21)
(1.20162 0.881454 9.62183e-21)
(1.12835 0.847269 0)
(1.05149 0.809042 5.38941e-21)
(0.971939 0.764554 9.63412e-20)
(0.892654 0.711434 -1.79772e-19)
(0.829776 0.656772 0)
(0.791649 0.610038 -4.95481e-20)
(0.745846 0.552834 -4.97468e-22)
(0.616625 0.44239 -2.79921e-22)
(0.391956 0.276998 5.76815e-20)
(0.172973 0.12163 4.09228e-23)
(0.0162693 0.0136932 -1.59959e-19)
(-0.0655218 -0.0417374 4.72927e-20)
(-0.0742996 -0.048334 1.40314e-20)
(-0.0228763 -0.0149468 0)
(0.235475 0.172557 -3.09878e-20)
(1.09236 0.788148 -1.43167e-20)
(1.28691 0.938088 -1.73118e-20)
(1.30527 0.968433 1.31852e-20)
(1.25591 0.950824 2.16449e-21)
(1.18621 0.91843 0)
(1.1125 0.88252 1.56564e-20)
(1.03474 0.842415 -1.21157e-20)
(0.953689 0.795731 8.01104e-22)
(0.872159 0.739651 1.33172e-20)
(0.806844 0.680906 1.13017e-19)
(0.76707 0.629085 -1.74687e-20)
(0.720198 0.56524 -6.53624e-20)
(0.592773 0.447221 -2.66762e-20)
(0.376884 0.277176 3.11041e-20)
(0.166822 0.120022 5.59411e-23)
(0.0152192 0.0117718 4.30815e-20)
(-0.0650307 -0.0437197 -1.01785e-19)
(-0.0742616 -0.0505998 1.20783e-19)
(-0.0231499 -0.0158906 1.78361e-20)
(0.234837 0.180238 1.18846e-20)
(1.0824 0.819687 -8.12557e-21)
(1.27356 0.975348 1.32571e-21)
(1.2905 1.00596 9.38367e-21)
(1.24087 0.987104 9.17927e-22)
(1.1711 0.953245 -1.68631e-20)
(1.09702 0.915841 4.47645e-21)
(1.0184 0.874122 -5.07452e-20)
(0.935851 0.825567 -1.07427e-19)
(0.851914 0.766929 -1.08312e-19)
(0.783708 0.704374 0)
(0.741634 0.64717 -7.72829e-20)
(0.693435 0.575774 9.46263e-20)
(0.568546 0.449451 0)
(0.362759 0.275001 -6.69041e-20)
(0.162972 0.117404 3.94059e-20)
(0.0169304 0.01123 -4.63841e-20)
(-0.0638135 -0.0436644 -5.48437e-20)
(-0.0756917 -0.052472 -9.74106e-20)
(-0.0240948 -0.0171133 -7.69241e-20)
(0.234541 0.187767 -1.35803e-20)
(1.07283 0.849577 8.70954e-21)
(1.26044 1.0103 1.9225e-20)
(1.27604 1.04111 1.43409e-20)
(1.22619 1.02113 -1.00089e-21)
(1.1564 0.985994 -8.96258e-21)
(1.08201 0.947295 1.51345e-20)
(1.00259 0.904223 -5.24573e-20)
(0.918559 0.854117 -6.41662e-20)
(0.832099 0.793349 1.14553e-19)
(0.760536 0.727371 2.51685e-19)
(0.715385 0.664648 0)
(0.665262 0.584671 0)
(0.543333 0.448672 -3.08134e-20)
(0.349409 0.269161 0)
(0.162979 0.111942 8.46993e-20)
(0.0249678 0.00947022 9.97623e-20)
(-0.0574512 -0.0440283 0)
(-0.0777853 -0.0555585 0)
(-0.0270486 -0.0196087 8.28884e-20)
(0.234121 0.194881 1.55774e-20)
(1.06366 0.877842 1.22533e-20)
(1.24766 1.04307 1.40319e-20)
(1.26197 1.074 -1.44641e-20)
(1.21198 1.05301 -2.4795e-21)
(1.14221 1.01676 8.85491e-21)
(1.06757 0.976951 -2.09575e-20)
(0.987427 0.932759 -2.8253e-22)
(0.901944 0.88141 -1.06255e-21)
(0.812877 0.818957 -5.9092e-22)
(0.737534 0.750058 1.30499e-19)
(0.688407 0.681869 0)
(0.635386 0.592347 9.73208e-20)
(0.516091 0.444767 6.66356e-20)
(0.335121 0.257933 1.57184e-19)
(0.165889 0.0985568 4.58729e-20)
(0.0431995 -0.00353654 -5.37812e-20)
(-0.032737 -0.0564999 -3.17945e-20)
(-0.0623295 -0.0624259 0)
(-0.0284121 -0.0225869 8.96179e-20)
(0.234043 0.20202 -3.55373e-20)
(1.05489 0.904588 0)
(1.23523 1.07372 1.68634e-20)
(1.24834 1.10474 -1.2492e-20)
(1.1983 1.08285 4.83166e-21)
(1.12857 1.04563 -8.74711e-21)
(1.05378 1.00487 4.08878e-20)
(0.972974 0.959772 -4.17427e-21)
(0.886095 0.907466 0)
(0.794391 0.843756 -1.28436e-19)
(0.714914 0.772546 -2.86963e-19)
(0.660853 0.699185 1.17285e-20)
(0.60363 0.59938 1.36471e-19)
(0.485779 0.438311 0)
(0.317096 0.241017 1.07068e-19)
(0.16639 0.0728127 0)
(0.0645281 -0.0410779 0)
(0.0154383 -0.103182 -3.43956e-20)
(0.0121602 -0.0841145 0)
(0.0149515 -0.00711289 2.41677e-20)
(0.23372 0.208625 -3.99107e-20)
(1.04648 0.930153 0)
(1.22314 1.10246 2.84714e-20)
(1.23511 1.13358 0)
(1.18512 1.11092 -3.4124e-21)
(1.11546 1.0729 0)
(1.04058 1.03135 1.97448e-21)
(0.959149 0.985592 7.41808e-21)
(0.870905 0.932639 8.23741e-21)
(0.776491 0.868112 -1.4216e-19)
(0.692504 0.795296 8.69517e-21)
(0.632419 0.717373 9.52293e-20)
(0.569352 0.606751 1.34223e-19)
(0.450861 0.430171 1.78626e-20)
(0.291922 0.219794 8.48619e-20)
(0.155387 0.0363282 0)
(0.0694102 -0.103056 1.13703e-19)
(0.0405628 -0.127726 -6.66915e-20)
(0.0198134 0.0266106 7.83307e-20)
(-0.0390783 0.463869 -9.30367e-20)
(0.233441 0.215071 3.31997e-20)
(1.0382 0.954355 4.95975e-20)
(1.21132 1.12962 0)
(1.22215 1.16094 9.85487e-22)
(1.17225 1.1378 1.10666e-20)
(1.10258 1.09924 8.34634e-21)
(1.02764 1.05719 1.42579e-20)
(0.94553 1.01114 0)
(0.855825 0.957994 5.47654e-20)
(0.758475 0.893281 -7.44884e-21)
(0.669333 0.819716 0)
(0.601626 0.737962 0)
(0.529987 0.615415 1.21869e-19)
(0.407977 0.420507 -5.54714e-20)
(0.255754 0.196039 -8.73069e-20)
(0.127221 -0.00701479 0)
(0.045593 -0.0650916 5.81161e-20)
(0.00130111 0.445039 -6.7233e-20)
(0.0268415 1.95129 -3.77405e-20)
(0.0526231 2.83665 -4.64131e-20)
(0.232902 0.221031 -2.51461e-20)
(1.03014 0.977382 -6.40433e-20)
(1.19981 1.1552 1.70998e-20)
(1.20946 1.18672 1.30987e-20)
(1.15976 1.1633 0)
(1.09005 1.12439 3.69951e-21)
(1.01521 1.08208 1.93993e-20)
(0.932332 1.036 -3.64193e-21)
(0.841172 0.983041 8.27061e-21)
(0.740788 0.918718 1.37153e-19)
(0.646119 0.845306 1.4899e-19)
(0.569567 0.761191 1.09868e-19)
(0.486223 0.626397 1.24479e-19)
(0.357429 0.409441 -1.33001e-19)
(0.212659 0.175215 -1.33946e-19)
(0.0857772 0.0552273 0)
(0.0320781 0.927339 0)
(0.0767117 2.60221 3.25008e-20)
(0.0800464 3.22226 0)
(0.0824128 3.3926 8.47697e-20)
(0.235227 0.226692 0)
(1.02265 0.999647 0)
(1.18827 1.17906 0)
(1.19687 1.21077 4.11085e-21)
(1.14731 1.18716 1.03076e-20)
(1.07768 1.14819 2.1195e-22)
(1.00319 1.10592 1.25095e-20)
(0.919493 1.06003 -3.5821e-21)
(0.826888 1.0076 6.9478e-20)
(0.723441 0.944262 -1.44167e-21)
(0.623001 0.871901 2.98028e-19)
(0.536684 0.787307 -1.28157e-20)
(0.438079 0.641322 1.54032e-20)
(0.300094 0.396097 1.95195e-20)
(0.156568 0.189057 -9.31653e-22)
(0.0749236 1.04405 3.38625e-22)
(0.109769 2.78642 -1.76443e-19)
(0.114107 3.30372 -6.62006e-20)
(0.107442 3.42259 3.49136e-20)
(0.0991479 3.44177 -3.96107e-20)
(0.157883 0.171867 1.54942e-20)
(1.01069 1.02386 0)
(1.17649 1.20144 -3.56147e-20)
(1.1848 1.23354 -3.65057e-20)
(1.13535 1.20988 2.66074e-20)
(1.06616 1.17114 7.87645e-22)
(0.991389 1.12874 -1.29893e-20)
(0.907047 1.0833 4.02152e-20)
(0.813062 1.03176 -5.75632e-20)
(0.706689 0.970032 0)
(0.600363 0.899605 1.48688e-19)
(0.50361 0.816256 -9.14056e-20)
(0.390487 0.671558 0)
(0.234746 0.387429 1.93714e-20)
(0.108839 0.692039 4.49729e-20)
(0.124308 2.60155 -5.01107e-20)
(0.169201 3.32599 5.66113e-20)
(0.154848 3.42871 3.04771e-20)
(0.129766 3.44766 3.42871e-20)
(0.112253 3.45672 5.49282e-20)
(0.269433 0.263586 -2.97484e-20)
(0.991534 1.03281 0)
(1.15687 1.22679 3.8768e-20)
(1.16924 1.26469 4.09219e-20)
(1.117 1.24336 -3.11715e-20)
(1.04722 1.20491 -5.5151e-21)
(0.971215 1.16401 1.19105e-20)
(0.886121 1.11974 3.19177e-21)
(0.790296 1.07028 5.56505e-20)
(0.680035 1.01244 1.22097e-19)
(0.565841 0.947852 8.44246e-21)
(0.452064 0.863178 8.30368e-20)
(0.299815 0.69007 1.50131e-20)
(0.191762 0.833301 -1.89e-20)
(0.198281 2.49175 -4.16906e-20)
(0.249157 3.32545 4.09839e-20)
(0.231946 3.4489 -4.4904e-20)
(0.19917 3.46887 -2.5666e-20)
(0.167241 3.49405 -2.35908e-20)
(0.123042 3.49063 -3.38041e-21)
(0.2592 0.2622 0)
(0.987781 1.05516 1.16023e-20)
(1.14738 1.25016 -8.07823e-21)
(1.15748 1.28819 -4.99073e-21)
(1.10524 1.26661 -2.20578e-20)
(1.03543 1.22831 6.40448e-21)
(0.959005 1.18757 -6.12154e-21)
(0.873479 1.14408 2.88609e-21)
(0.776675 1.09607 -5.84855e-20)
(0.664176 1.04114 -2.54037e-21)
(0.54523 0.981299 -2.74014e-19)
(0.421764 0.898176 1.19752e-20)
(0.274193 0.763683 -1.43529e-20)
(0.228282 1.52149 -1.752e-20)
(0.293085 3.14577 3.63592e-21)
(0.30384 3.44801 2.04334e-23)
(0.263927 3.49503 6.85933e-20)
(0.231145 3.52083 3.50774e-20)
(0.186181 3.54192 -1.20827e-20)
(0.137285 3.53989 -1.74849e-20)
(0.244933 0.259857 2.9941e-20)
(0.983065 1.08002 7.8774e-20)
(1.1375 1.27562 -2.29853e-20)
(1.14532 1.31332 -1.86627e-20)
(1.09299 1.29133 0)
(1.02322 1.25304 1.53291e-20)
(0.946673 1.21253 -5.84651e-21)
(0.860973 1.16981 2.55335e-21)
(0.763517 1.12341 -6.57241e-21)
(0.64937 1.07183 -1.12843e-19)
(0.526735 1.0175 -1.27822e-19)
(0.394738 0.934702 -9.87255e-20)
(0.273888 0.923051 -1.09009e-19)
(0.296466 2.33494 1.11649e-19)
(0.376077 3.3766 9.42747e-20)
(0.344754 3.50077 0)
(0.298433 3.54072 0)
(0.262534 3.57585 -9.82841e-21)
(0.220777 3.62072 0)
(0.151956 3.60804 -1.57681e-20)
(0.234871 0.261452 -4.48231e-20)
(0.976393 1.10565 -6.69672e-20)
(1.12619 1.30229 0)
(1.13188 1.33928 1.1958e-21)
(1.07946 1.31672 -2.50769e-20)
(1.0099 1.27835 2.70435e-20)
(0.933556 1.23812 -2.03832e-21)
(0.847918 1.19613 1.47353e-21)
(0.750078 1.15137 -4.21717e-20)
(0.634771 1.10325 5.66998e-21)
(0.509512 1.05462 0)
(0.368347 0.974451 0)
(0.295482 1.23855 -9.99089e-20)
(0.379253 2.98638 4.06054e-20)