/*--------------------------------*- C++ -*----------------------------------*\
  =========                 |
  \\      /  F ield         | OpenFOAM: The Open Source CFD Toolbox
   \\    /   O peration     | Website:  https://openfoam.org
    \\  /    A nd           | Version:  6
     \\/     M anipulation  |
\*---------------------------------------------------------------------------*/
FoamFile
{
    version     2.0;
    format      ascii;
    class       volScalarField;
    location    "38";
    object      p;
}
// * * * * * * * * * * * * * * * * * * * * * * * * * * * * * * * * * * * * * //

dimensions      [0 2 -2 0 0 0 0];

internalField   nonuniform List<scalar> 
8800
(
0.910265
0.860946
0.822972
0.79489
0.774708
0.760088
0.749444
0.741843
0.736877
0.734694
0.735933
0.740164
0.746873
0.756233
0.768924
0.786213
0.81007
0.843154
0.886083
0.938594
0.744777
0.751118
0.760258
0.763795
0.761169
0.755055
0.748079
0.741784
0.736906
0.733933
0.733573
0.736072
0.74061
0.746662
0.753709
0.760705
0.765556
0.765414
0.758726
0.74982
0.718331
0.724562
0.729051
0.732905
0.735829
0.736745
0.735609
0.73342
0.731343
0.730376
0.731264
0.733591
0.736383
0.738581
0.739049
0.737222
0.733827
0.729793
0.724999
0.721281
0.714091
0.716852
0.719446
0.721584
0.723294
0.724823
0.725873
0.726149
0.725926
0.725877
0.726526
0.727535
0.728168
0.727934
0.726895
0.725493
0.723788
0.72146
0.719034
0.717467
0.709117
0.710539
0.712364
0.714422
0.716103
0.717351
0.718386
0.719277
0.719957
0.720525
0.721056
0.721364
0.721265
0.720802
0.72006
0.718887
0.717186
0.715259
0.713889
0.713087
0.704232
0.705133
0.706365
0.707966
0.709624
0.711106
0.712319
0.713339
0.714259
0.715082
0.715656
0.71586
0.715721
0.715234
0.714339
0.713077
0.711658
0.71035
0.70951
0.708987
0.699461
0.700115
0.70106
0.702351
0.703758
0.705217
0.706617
0.707864
0.70896
0.70994
0.710637
0.710908
0.710743
0.710161
0.709266
0.708231
0.707163
0.706207
0.705606
0.705225
0.694802
0.695305
0.696076
0.697188
0.698446
0.699803
0.701223
0.702636
0.703971
0.705176
0.706023
0.706342
0.706185
0.705674
0.704959
0.70415
0.703315
0.702586
0.702136
0.70184
0.690208
0.690607
0.691253
0.692248
0.693434
0.694736
0.696147
0.697646
0.699167
0.700602
0.701656
0.702122
0.702104
0.701771
0.701254
0.700631
0.699973
0.699421
0.699079
0.698842
0.685611
0.685936
0.686496
0.687412
0.688552
0.689835
0.69127
0.692851
0.694536
0.69623
0.697547
0.69825
0.698461
0.698341
0.698019
0.697585
0.697091
0.696682
0.696422
0.696226
0.680928
0.681195
0.681695
0.682567
0.683689
0.684993
0.686481
0.688169
0.69004
0.692013
0.693676
0.69471
0.695208
0.69534
0.695227
0.694971
0.694635
0.694349
0.694154
0.69399
0.676091
0.676314
0.676774
0.677628
0.678773
0.680139
0.68173
0.683583
0.685708
0.688044
0.690126
0.691545
0.692374
0.692777
0.692888
0.692813
0.692631
0.692454
0.692313
0.692172
0.671025
0.671213
0.671655
0.672527
0.673737
0.675214
0.676981
0.679092
0.68157
0.684371
0.686969
0.688836
0.690019
0.690702
0.691045
0.691157
0.691121
0.691038
0.690942
0.690819
0.665648
0.665805
0.666243
0.667159
0.668474
0.670109
0.672097
0.674527
0.677442
0.680828
0.68405
0.686462
0.688079
0.689107
0.689722
0.690041
0.690154
0.690164
0.690108
0.689999
0.659865
0.659994
0.66044
0.661424
0.662883
0.664723
0.666986
0.669796
0.673255
0.677354
0.681354
0.684425
0.686587
0.688043
0.688985
0.689543
0.689824
0.68993
0.689914
0.689816
0.653575
0.653676
0.654145
0.65522
0.656857
0.658967
0.661616
0.664937
0.669044
0.673997
0.678961
0.682889
0.685702
0.687637
0.688937
0.68977
0.690254
0.690466
0.690488
0.690397
0.646622
0.646705
0.647195
0.648392
0.650275
0.652741
0.655871
0.659867
0.664896
0.67099
0.677091
0.681938
0.685469
0.687984
0.689732
0.690878
0.69157
0.69189
0.691951
0.691865
0.638744
0.63882
0.639366
0.640714
0.642897
0.645781
0.649489
0.654252
0.660285
0.667708
0.675245
0.681336
0.685837
0.689082
0.691398
0.692963
0.693923
0.694378
0.694481
0.694398
0.629737
0.629787
0.630409
0.631954
0.634512
0.637949
0.642429
0.648244
0.655652
0.664759
0.674016
0.681515
0.687093
0.691181
0.694167
0.696224
0.697512
0.698122
0.698266
0.69818
0.61919
0.619228
0.61994
0.621748
0.624778
0.628926
0.634388
0.641517
0.650625
0.661824
0.673169
0.682361
0.689258
0.694368
0.698149
0.700803
0.702491
0.70328
0.703464
0.703369
0.606488
0.606522
0.607361
0.609516
0.613182
0.618269
0.625016
0.63384
0.645076
0.658816
0.67271
0.683935
0.692374
0.698692
0.703442
0.706818
0.708969
0.709956
0.710171
0.710058
0.590779
0.590818
0.591867
0.594562
0.59916
0.605586
0.614113
0.62522
0.639232
0.656144
0.67299
0.686513
0.696695
0.704361
0.710159
0.714345
0.716996
0.718179
0.718419
0.718282
0.570866
0.570921
0.57232
0.575866
0.581839
0.590169
0.601149
0.61527
0.632768
0.6535
0.673838
0.690019
0.702178
0.71138
0.718367
0.723439
0.72661
0.727978
0.728232
0.728066
0.544933
0.545034
0.54705
0.55202
0.560192
0.571392
0.585899
0.604106
0.62605
0.651354
0.675644
0.694722
0.709026
0.719886
0.728153
0.734166
0.737845
0.73937
0.739625
0.739427
0.509973
0.510228
0.513492
0.521082
0.533005
0.548664
0.568236
0.59182
0.619209
0.649804
0.678472
0.700697
0.717296
0.729927
0.739594
0.746576
0.750715
0.752345
0.752573
0.752342
0.460268
0.461423
0.467985
0.480958
0.499407
0.521968
0.548544
0.578929
0.61273
0.649226
0.682575
0.708077
0.727054
0.741517
0.752614
0.76058
0.765126
0.766773
0.76694
0.766669
0.387442
0.394947
0.410044
0.432845
0.460979
0.492728
0.527823
0.566033
0.606977
0.649956
0.688458
0.717607
0.739299
0.755926
0.768769
0.777827
0.782842
0.784598
0.78477
0.78454
0.309861
0.326045
0.350551
0.383895
0.422248
0.46335
0.507054
0.553335
0.601921
0.652235
0.697033
0.730954
0.756269
0.775809
0.790971
0.801504
0.807114
0.808976
0.809195
0.809106
0.243509
0.263338
0.295696
0.338016
0.385351
0.435239
0.487314
0.541523
0.597594
0.655005
0.705761
0.744139
0.772833
0.795044
0.812166
0.823735
0.829739
0.831833
0.832091
0.832068
0.189303
0.211316
0.248963
0.297737
0.352124
0.409354
0.468827
0.530297
0.593388
0.657474
0.713822
0.756284
0.788006
0.812371
0.830919
0.843604
0.850488
0.8527
0.853005
0.853039
0.144191
0.167456
0.208898
0.262702
0.32277
0.386071
0.451846
0.519735
0.589201
0.659473
0.720985
0.767154
0.801448
0.827595
0.847298
0.860888
0.868456
0.870991
0.871441
0.871512
0.10554
0.129547
0.17378
0.231679
0.296542
0.365036
0.436265
0.509838
0.585063
0.661004
0.727265
0.776773
0.813268
0.840826
0.861414
0.875638
0.883688
0.886661
0.887295
0.88739
0.0714304
0.0959295
0.142348
0.203631
0.272591
0.345609
0.421698
0.500392
0.580886
0.662091
0.732736
0.785249
0.823647
0.852325
0.873642
0.888375
0.896822
0.900128
0.900869
0.900956
0.0404753
0.0653755
0.113585
0.177755
0.250243
0.327237
0.407694
0.491087
0.576496
0.662642
0.737432
0.792696
0.832762
0.86238
0.884238
0.899317
0.908009
0.911524
0.912331
0.912402
0.0117565
0.03706
0.0867622
0.153418
0.228989
0.309504
0.393916
0.481642
0.571671
0.662547
0.741326
0.799235
0.840856
0.871334
0.893642
0.908964
0.917798
0.921435
0.922263
0.922291
-0.0154638
0.010297
0.0613715
0.130193
0.208444
0.292099
0.380102
0.471833
0.566227
0.661677
0.74439
0.804933
0.848112
0.879466
0.902224
0.917765
0.926676
0.930352
0.931211
0.931209
-0.0415317
-0.0153333
0.0369812
0.107728
0.188349
0.274812
0.36608
0.461518
0.560028
0.659925
0.746584
0.809842
0.854684
0.88698
0.910226
0.925971
0.934901
0.938509
0.939349
0.939345
-0.0668561
-0.040106
0.0133474
0.0857976
0.168513
0.257496
0.351741
0.4506
0.552985
0.657204
0.747876
0.814029
0.860694
0.894058
0.917852
0.933804
0.942746
0.946287
0.94702
0.946957
-0.0915573
-0.0642291
-0.00970043
0.0642722
0.148839
0.24008
0.337027
0.439033
0.545053
0.653467
0.748243
0.817512
0.866231
0.900807
0.925231
0.941399
0.950289
0.953692
0.954316
0.954184
-0.115754
-0.0878295
-0.0322719
0.0430828
0.129292
0.222547
0.321928
0.426806
0.536211
0.648673
0.747619
0.820271
0.871324
0.907311
0.932436
0.948791
0.957537
0.960718
0.961199
0.961013
-0.13953
-0.110968
-0.0543925
0.0222082
0.109862
0.204915
0.306476
0.413951
0.526472
0.642784
0.745924
0.822221
0.875973
0.913643
0.939548
0.95602
0.9645
0.96736
0.967688
0.967463
-0.162923
-0.13364
-0.0760687
0.00165505
0.0905932
0.187229
0.290728
0.400518
0.515867
0.635776
0.743074
0.823254
0.880135
0.919881
0.946705
0.963149
0.971138
0.973565
0.973726
0.973473
-0.185762
-0.155803
-0.0972803
-0.0185484
0.0715334
0.169566
0.274754
0.386592
0.504457
0.62767
0.738999
0.823248
0.883687
0.926067
0.954127
0.970386
0.977505
0.979283
0.979251
0.978988
-0.208007
-0.177404
-0.117988
-0.0383417
0.0527483
0.151993
0.258653
0.372256
0.492333
0.618501
0.733655
0.822054
0.886431
0.932129
0.962097
0.978219
0.983892
0.984531
0.984206
0.983976
-0.229711
-0.198402
-0.138155
-0.0576794
0.0343079
0.134603
0.242521
0.357624
0.479595
0.608342
0.726997
0.819534
0.888108
0.937786
0.970762
0.987501
0.991328
0.989775
0.988596
0.988556
-0.250698
-0.218762
-0.157717
-0.0764898
0.0162774
0.117484
0.226463
0.342811
0.466367
0.5973
0.719019
0.815551
0.888436
0.942506
0.979753
0.998981
1.00205
0.997499
0.993311
0.991359
-0.271058
-0.238476
-0.176678
-0.0948011
-0.00137655
0.100591
0.210421
0.327756
0.452574
0.585307
0.709573
0.809839
0.887112
0.94563
0.98798
1.01224
1.01794
1.01259
1.00103
0.99929
-0.290695
-0.257616
-0.19517
-0.11281
-0.0189574
0.0835716
0.193964
0.311947
0.437637
0.571688
0.697948
0.80156
0.883499
0.946184
0.993061
1.02355
1.03322
1.02479
1.00699
1.00136
-0.309461
-0.276135
-0.213014
-0.13031
-0.0362123
0.066737
0.177313
0.295722
0.421877
0.556728
0.684278
0.790241
0.877001
0.943065
0.990246
1.02039
1.03423
1.01317
0.953812
0.92716
-0.327228
-0.294796
-0.229806
-0.146775
-0.0524593
0.0505769
0.160741
0.279357
0.405577
0.540613
0.668663
0.775456
0.866849
0.935756
0.975307
0.998465
0.996461
0.950109
0.888291
0.850077
-0.371656
-0.312754
-0.245485
-0.162775
-0.0684772
0.0341764
0.144379
0.262736
0.388545
0.523027
0.650764
0.756808
0.84978
0.923209
0.948327
0.946406
0.910403
0.851859
0.784861
0.747895
-0.346823
-0.328584
-0.269069
-0.186536
-0.0927721
0.00959985
0.119042
0.236602
0.361254
0.49392
0.61952
0.722671
0.807153
0.884639
0.877894
0.781662
0.698562
0.64069
0.579325
0.609681
-0.378883
-0.347017
-0.286701
-0.204684
-0.111009
-0.00900646
0.100517
0.217359
0.340874
0.471582
0.594324
0.69374
0.768789
0.810985
0.769074
0.639305
0.536839
0.467764
0.388127
0.437378
-0.403938
-0.369547
-0.307365
-0.225161
-0.131555
-0.0296638
0.0797044
0.195689
0.317753
0.445935
0.564813
0.6585
0.721924
0.728958
0.631854
0.483286
0.359376
0.27096
0.177351
0.212376
-0.428426
-0.392866
-0.329207
-0.246312
-0.152571
-0.050811
0.0580452
0.173021
0.293424
0.418723
0.532882
0.619954
0.666982
0.642424
0.492478
0.32055
0.164388
0.0330949
-0.0896413
-0.0727798
-0.452679
-0.416641
-0.352001
-0.268485
-0.174526
-0.0729488
0.0352649
0.149103
0.26759
0.389643
0.498418
0.578322
0.605855
0.540749
0.355929
0.162373
-0.0224961
-0.174715
-0.380775
-0.460573
-0.477375
-0.441335
-0.376084
-0.292084
-0.197881
-0.0964287
0.0112148
0.123899
0.24037
0.358964
0.462034
0.533004
0.537995
0.420674
0.231526
0.02453
-0.166201
-0.327202
-0.451141
-0.574648
-0.503596
-0.467433
-0.401814
-0.317504
-0.223184
-0.121944
-0.014963
0.0963996
0.210529
0.325142
0.422049
0.481615
0.460519
0.305628
0.114869
-0.0860976
-0.260021
-0.356579
-0.382658
-0.396532
-0.531484
-0.49522
-0.429325
-0.344853
-0.250588
-0.149721
-0.043642
0.0660919
0.177448
0.287363
0.377609
0.421307
0.380687
0.195314
0.00607166
-0.174801
-0.305728
-0.34323
-0.352485
-0.352695
-0.561328
-0.524823
-0.458654
-0.374114
-0.28004
-0.179762
-0.0748393
0.032921
0.141059
0.245568
0.328143
0.356129
0.286837
0.0938249
-0.0890022
-0.246051
-0.319362
-0.33327
-0.334684
-0.334608
-0.593134
-0.556283
-0.489816
-0.405277
-0.311548
-0.212051
-0.108554
-0.00313006
0.101366
0.199863
0.273358
0.287683
0.179481
0.000498436
-0.171637
-0.295946
-0.32411
-0.324757
-0.325334
-0.325
-0.626643
-0.589418
-0.52269
-0.438248
-0.345011
-0.246522
-0.144745
-0.042028
0.0583933
0.150391
0.214181
0.209187
0.081318
-0.0877379
-0.238138
-0.307495
-0.322714
-0.320815
-0.320271
-0.319756
-0.661271
-0.62387
-0.557003
-0.472782
-0.380221
-0.282997
-0.183238
-0.0836177
0.0123219
0.0975531
0.151277
0.128897
-0.0114235
-0.168147
-0.284562
-0.316868
-0.31748
-0.319732
-0.319784
-0.319135
-0.696587
-0.6591
-0.592262
-0.508438
-0.416796
-0.32112
-0.22372
-0.127566
-0.0365796
0.0422256
0.0831435
0.0501813
-0.0990774
-0.237316
-0.320036
-0.324023
-0.322013
-0.318707
-0.317071
-0.316754
-0.731545
-0.694196
-0.627701
-0.544546
-0.45414
-0.360368
-0.265691
-0.173322
-0.0878306
-0.0148515
0.013798
-0.0305055
-0.179961
-0.299203
-0.347168
-0.350627
-0.330016
-0.314531
-0.30962
-0.30878
-0.764441
-0.727889
-0.662277
-0.580184
-0.491417
-0.399966
-0.30841
-0.220135
-0.140418
-0.0735266
-0.050474
-0.117751
-0.254974
-0.36399
-0.376994
-0.361217
-0.34915
-0.338064
-0.328163
-0.323599
-0.794108
-0.758681
-0.694585
-0.614128
-0.527502
-0.438867
-0.350881
-0.267093
-0.192759
-0.133518
-0.110618
-0.194875
-0.324024
-0.430748
-0.453646
-0.416083
-0.399128
-0.394116
-0.387398
-0.383369
-0.817927
-0.784491
-0.722872
-0.644823
-0.561032
-0.475725
-0.391849
-0.3129
-0.243646
-0.1923
-0.170263
-0.246117
-0.371938
-0.459281
-0.480136
-0.478905
-0.471139
-0.471928
-0.469662
-0.466003
-0.833878
-0.803228
-0.745074
-0.670478
-0.590422
-0.509016
-0.429724
-0.355794
-0.292735
-0.24555
-0.227436
-0.280399
-0.361871
-0.456643
-0.509847
-0.554803
-0.591797
-0.597519
-0.590801
-0.588954
-0.839298
-0.812532
-0.759128
-0.689195
-0.613849
-0.537285
-0.462593
-0.394125
-0.337451
-0.293724
-0.27397
-0.336136
-0.329138
-0.306111
-0.399354
-0.580905
-0.665603
-0.665108
-0.664157
-0.664661
-0.832243
-0.810159
-0.762967
-0.699147
-0.629569
-0.558882
-0.489124
-0.42578
-0.373442
-0.34264
-0.315959
-0.438377
-0.424046
-0.260316
-0.375128
-0.618728
-0.729765
-0.728254
-0.728876
-0.729034
-0.809819
-0.793196
-0.754683
-0.699076
-0.636486
-0.571986
-0.508361
-0.448365
-0.401009
-0.377086
-0.388956
-0.57906
-0.822392
-0.980596
-1.13329
-1.216
-1.08352
-0.903866
-0.831174
-0.838187
-0.77494
-0.763959
-0.734941
-0.689143
-0.634324
-0.576149
-0.517705
-0.462133
-0.416673
-0.394119
-0.428098
-0.698817
-1.20259
-1.74677
-1.97564
-2.04933
-1.89172
-1.62372
-1.38361
-1.30291
-0.733282
-0.727005
-0.708041
-0.671772
-0.624744
-0.571863
-0.516758
-0.463511
-0.419174
-0.393018
-0.428152
-0.630919
-1.01532
-1.48864
-1.66968
-1.64305
-1.53498
-1.39595
-1.24738
-1.16109
-0.693408
-0.689917
-0.679469
-0.652069
-0.610668
-0.560958
-0.507293
-0.45104
-0.396802
-0.364711
-0.348341
-0.382738
-0.379115
-0.360405
-0.33201
-0.332214
-0.26079
-0.178568
-0.111664
-0.0671684
-0.661771
-0.65977
-0.65453
-0.634575
-0.597185
-0.547148
-0.489582
-0.427601
-0.357954
-0.282741
-0.213255
-0.0910125
0.142105
0.445132
0.745356
1.04586
1.31724
1.46109
1.53632
1.56777
-0.63564
-0.63486
-0.633475
-0.621346
-0.587423
-0.535208
-0.470511
-0.395439
-0.313818
-0.207888
-0.102723
0.0796001
0.422361
0.851382
1.35019
1.78233
2.05761
2.23125
2.33705
2.37427
-0.617966
-0.617501
-0.617461
-0.611126
-0.581532
-0.526145
-0.454492
-0.367556
-0.273148
-0.16611
-0.0335195
0.0809865
0.427911
0.846262
1.31128
1.74264
2.08898
2.32337
2.43898
2.47216
-0.605287
-0.604332
-0.604064
-0.602686
-0.578693
-0.520755
-0.44043
-0.350321
-0.245846
-0.139273
-0.0160634
0.0971535
0.26701
0.686487
1.11452
1.51537
1.8207
2.01242
2.10183
2.12727
-0.602256
-0.600663
-0.601113
-0.602174
-0.579935
-0.51569
-0.426315
-0.33147
-0.230868
-0.119366
-0.00991454
0.117963
0.240065
0.509981
0.883419
1.19947
1.43404
1.57443
1.6334
1.64916
-0.606698
-0.607762
-0.612766
-0.613448
-0.582117
-0.503007
-0.405431
-0.308336
-0.211692
-0.108472
-0.0052714
0.0987898
0.202033
0.356195
0.609079
0.847938
1.02673
1.13089
1.17579
1.18569
-0.585234
-0.591751
-0.600344
-0.596542
-0.55322
-0.465177
-0.368208
-0.277181
-0.188062
-0.0980759
-0.0117906
0.0647641
0.138229
0.250704
0.427589
0.582815
0.695039
0.761543
0.788695
0.794462
-0.485526
-0.492795
-0.501081
-0.49548
-0.455238
-0.382855
-0.307701
-0.233019
-0.161898
-0.0898734
-0.0254501
0.0328807
0.0702589
0.133916
0.260331
0.367786
0.442317
0.48386
0.500409
0.502033
-0.312158
-0.317622
-0.324238
-0.323124
-0.302546
-0.266416
-0.224718
-0.177772
-0.128912
-0.0770284
-0.0351317
-0.000762989
0.0206147
0.0510532
0.133103
0.206099
0.256195
0.282157
0.292002
0.292395
-0.135191
-0.137878
-0.143248
-0.149879
-0.152596
-0.150142
-0.139232
-0.12077
-0.0946337
-0.0615717
-0.0377856
-0.022222
-0.0116632
0.0132345
0.0670454
0.10872
0.136612
0.150326
0.155272
0.154655
-0.0152309
-0.0166318
-0.0218074
-0.0337658
-0.0504594
-0.0649032
-0.0725104
-0.0722643
-0.0626437
-0.0451693
-0.0317806
-0.0282915
-0.025721
-0.00305091
0.0372695
0.0601871
0.0708804
0.0746041
0.0749265
0.0740414
0.042749
0.0418162
0.0372811
0.0253962
0.00699181
-0.0121808
-0.0270355
-0.0357973
-0.0357586
-0.0291719
-0.0214925
-0.0226577
-0.0248219
-0.00848576
0.0190757
0.0311835
0.0368497
0.0383119
0.0381857
0.037422
0.06141
0.0607203
0.0572973
0.0480126
0.032853
0.0158206
0.000704026
-0.0100341
-0.015417
-0.0134726
-0.00904678
-0.00731584
-0.00442884
0.00937735
0.022505
0.0263346
0.0283312
0.0286279
0.0284953
0.0277213
0.0613
0.0607965
0.0584576
0.0521286
0.0414249
0.0283914
0.0159197
0.00599673
-0.000468018
-0.000750247
0.00591556
0.0120122
0.0229948
0.0310115
0.0365866
0.0361667
0.0356678
0.0349505
0.0344892
0.0336342
0.0542192
0.0538563
0.0523581
0.0484018
0.0413903
0.0324533
0.0229871
0.0149566
0.00940781
0.00936291
0.0182191
0.0301297
0.0483379
0.0542968
0.0509191
0.0481521
0.0477797
0.048486
0.048451
0.047253
0.0457737
0.045494
0.0445468
0.0422059
0.037896
0.0321935
0.0254158
0.0197408
0.0148692
0.0148591
0.0221196
0.0370031
0.0580991
0.0588155
0.0534373
0.0524453
0.0539978
0.0562006
0.0572185
0.0560577
0.0384207
0.0381784
0.0375378
0.0361523
0.0336213
0.0299501
0.02562
0.0210179
0.0167094
0.0150019
0.017295
0.027023
0.0431986
0.0414728
0.0388161
0.0418443
0.0487472
0.0536402
0.0546612
0.0531523
0.033045
0.0328393
0.0323755
0.0314993
0.0299544
0.0275338
0.0244677
0.0206953
0.0164424
0.011294
0.00449457
0.00262086
0.00333847
0.000876478
0.0072128
0.016937
0.0266972
0.0323369
0.033328
0.0320252
0.0294648
0.0292942
0.0289347
0.0282821
0.0272745
0.0256499
0.0234327
0.0202159
0.0159809
0.00646504
-0.00734065
-0.0287545
-0.0515389
-0.052125
-0.033422
-0.0156227
-0.00430297
-2.65802e-05
0.000697564
0.000125414
0.0271105
0.0269747
0.02669
0.0261175
0.0253152
0.0242417
0.0226416
0.0199136
0.0160075
0.00634002
-0.0108817
-0.0437642
-0.0784289
-0.0750753
-0.0499282
-0.0318621
-0.0242938
-0.0225368
-0.0221142
-0.0219578
0.0253869
0.0252798
0.0250945
0.024649
0.0241089
0.0233961
0.0224092
0.0210539
0.0180348
0.0115793
8.86665e-06
-0.0235832
-0.0492731
-0.0417662
-0.0260699
-0.0178274
-0.0162356
-0.0171696
-0.0170591
-0.0171258
0.0238763
0.0238199
0.0237715
0.0235146
0.0231823
0.022768
0.0227479
0.022749
0.0225509
0.0219367
0.0207796
0.0188017
0.0125071
0.0184896
0.0196191
0.0155254
0.0102889
0.00793793
0.00753062
0.00762375
0.0217184
0.0216956
0.0217687
0.0218193
0.0217271
0.0220127
0.0227348
0.0246664
0.027416
0.0330057
0.0436499
0.0659399
0.0783098
0.0820726
0.0702498
0.0570982
0.0500166
0.0472867
0.0459958
0.0454235
0.0182705
0.0182628
0.0184682
0.0188591
0.0192448
0.0199597
0.0214137
0.0238417
0.0292264
0.03961
0.0612886
0.103895
0.143456
0.135165
0.108504
0.0891548
0.0816038
0.0788847
0.0771554
0.0765692
0.0135248
0.0135177
0.013788
0.0143147
0.0152405
0.0163913
0.0179143
0.0207469
0.0254713
0.0372559
0.063056
0.108804
0.149687
0.139853
0.114305
0.103774
0.0982685
0.0976783
0.0948004
0.093489
0.00777207
0.00768376
0.00781156
0.00832007
0.00892699
0.00963447
0.0112629
0.0140231
0.0171804
0.0244236
0.0466164
0.0795012
0.108741
0.0994214
0.0841687
0.0797763
0.0828623
0.0844963
0.0813969
0.0792592
0.00190012
0.00175557
0.00153084
0.00126907
0.00102135
0.00112938
0.00182762
0.00276203
0.00359106
0.00323937
0.00645428
0.012811
0.0193238
0.0242344
0.0271388
0.0303865
0.0235027
0.0162514
0.0165685
0.0163754
0.0637068
0.256338
0.434133
0.585302
0.708116
0.806847
0.889887
0.957153
0.97446
0.970469
0.362875
0.487487
0.604537
0.706898
0.793801
0.866105
0.92323
0.961826
0.982401
0.9988
0.566497
0.649663
0.732099
0.804931
0.867389
0.919294
0.960123
0.991085
1.01418
1.03341
0.716437
0.774952
0.834775
0.888651
0.9352
0.974709
1.00773
1.03528
1.05598
1.07491
0.834809
0.879473
0.92443
0.965975
1.00288
1.03541
1.06379
1.08776
1.10597
1.12404
0.935984
0.972138
1.00771
1.04211
1.07377
1.10236
1.12757
1.14869
1.16464
1.18214
1.02495
1.05757
1.09018
1.12167
1.15099
1.17762
1.20096
1.22006
1.2341
1.25114
1.11263
1.14547
1.17816
1.20957
1.23852
1.26448
1.28676
1.30441
1.31688
1.33343
1.20744
1.24395
1.27886
1.31146
1.34077
1.36625
1.38748
1.40385
1.41553
1.4317
1.32069
1.36124
1.3984
1.43151
1.46012
1.4842
1.5039
1.51923
1.53118
1.54727
1.46208
1.5033
1.53864
1.56833
1.5936
1.61527
1.63382
1.64934
1.66248
1.67844
1.63381
1.66642
1.69329
1.71561
1.73573
1.75448
1.77224
1.78903
1.80396
1.81969
1.82029
1.8376
1.85475
1.87144
1.88755
1.9023
1.91622
1.93071
1.94596
1.96326
2.00368
2.0137
2.02692
2.03792
2.04733
2.05699
2.06761
2.0778
2.0871
2.11277
2.22166
2.21595
2.20301
2.18875
2.18246
2.18818
2.20633
2.23486
2.26862
2.30495
2.52446
2.3885
2.30901
2.26652
2.24921
2.25318
2.28061
2.33848
2.44615
2.62455
0.813962
0.807657
0.799922
0.788797
0.775213
0.762545
0.75212
0.744065
0.73829
0.734886
0.734441
0.73718
0.742338
0.74964
0.75915
0.770953
0.784497
0.797413
0.806394
0.81393
0.723051
0.728968
0.737036
0.743158
0.746213
0.745682
0.742568
0.738531
0.734882
0.732517
0.732285
0.734441
0.738115
0.742503
0.746562
0.748776
0.74768
0.743027
0.735961
0.728122
0.716344
0.718715
0.721975
0.724736
0.72717
0.729336
0.730483
0.73029
0.729286
0.728388
0.728494
0.729806
0.731506
0.73267
0.732544
0.73104
0.728855
0.726473
0.723477
0.720452
0.71161
0.712699
0.714608
0.716933
0.718787
0.72016
0.721341
0.722281
0.722805
0.723082
0.723516
0.724144
0.724517
0.724324
0.723634
0.722666
0.7213
0.719303
0.717176
0.715693
0.706662
0.707296
0.708418
0.71016
0.711982
0.713546
0.714754
0.715756
0.71665
0.717425
0.71807
0.718462
0.718492
0.718194
0.717586
0.716555
0.715084
0.713439
0.712079
0.711271
0.701834
0.702273
0.703056
0.704345
0.705844
0.707374
0.708801
0.710025
0.711078
0.712032
0.712822
0.713259
0.713303
0.712957
0.712205
0.711135
0.709923
0.708733
0.707801
0.707262
0.697122
0.69745
0.698057
0.699113
0.700385
0.70175
0.703174
0.704567
0.70585
0.707001
0.707954
0.708497
0.708548
0.708162
0.707451
0.706573
0.70565
0.704737
0.70404
0.703642
0.692504
0.692758
0.693247
0.694146
0.695294
0.696566
0.697933
0.699379
0.700837
0.702225
0.703388
0.70406
0.704181
0.703897
0.703361
0.702688
0.701955
0.701249
0.700725
0.700421
0.687919
0.688121
0.688528
0.689319
0.690394
0.691619
0.69297
0.694453
0.696037
0.697645
0.699059
0.699938
0.70024
0.700149
0.699811
0.699326
0.698764
0.698225
0.697832
0.697592
0.68329
0.683452
0.683801
0.68452
0.685546
0.686747
0.688114
0.68966
0.691367
0.693176
0.694881
0.696072
0.696661
0.696818
0.696696
0.696402
0.69602
0.695634
0.695347
0.695155
0.678538
0.678668
0.678973
0.679649
0.680661
0.681884
0.683306
0.684951
0.686834
0.688924
0.690992
0.692551
0.693462
0.693909
0.694025
0.693925
0.693709
0.693459
0.693261
0.693109
0.673598
0.673701
0.673978
0.674636
0.675668
0.676958
0.678491
0.680309
0.682438
0.684866
0.687377
0.689407
0.690706
0.691457
0.691823
0.691931
0.69188
0.691757
0.691634
0.691511
0.668384
0.668463
0.668722
0.669389
0.670479
0.67188
0.673578
0.675645
0.678123
0.681026
0.684103
0.686657
0.688385
0.689473
0.690114
0.690447
0.690565
0.690566
0.690509
0.690411
0.662815
0.662873
0.663123
0.663819
0.665002
0.666555
0.668459
0.670809
0.673698
0.677154
0.68092
0.684152
0.686426
0.687957
0.68894
0.689531
0.68983
0.689955
0.689963
0.689889
0.656793
0.65683
0.657078
0.657816
0.659114
0.660857
0.663041
0.66577
0.669164
0.673308
0.677919
0.681978
0.684928
0.686992
0.688357
0.68924
0.689787
0.690056
0.69013
0.690075
0.650198
0.650206
0.650451
0.651257
0.652721
0.654728
0.657281
0.660525
0.664605
0.669619
0.675276
0.680344
0.684077
0.68672
0.688544
0.689757
0.690557
0.690977
0.691118
0.691081
0.642808
0.64281
0.643074
0.643963
0.645625
0.647954
0.650956
0.654813
0.659739
0.665882
0.672833
0.679064
0.683732
0.687123
0.689516
0.69117
0.692271
0.692864
0.69308
0.69306
0.634393
0.634364
0.634656
0.635665
0.63759
0.640313
0.643877
0.648504
0.654432
0.661857
0.670383
0.678164
0.684022
0.688313
0.69141
0.693621
0.695096
0.695907
0.696206
0.696201
0.624669
0.624619
0.624954
0.626126
0.62836
0.631602
0.635919
0.64158
0.648897
0.658087
0.668554
0.678027
0.685211
0.690534
0.694433
0.697279
0.699209
0.700282
0.700673
0.700677
0.613103
0.613032
0.613436
0.614816
0.61746
0.621367
0.626629
0.633567
0.642539
0.653789
0.666634
0.678284
0.687133
0.693732
0.698631
0.702257
0.70475
0.706129
0.706617
0.706622
0.598974
0.598887
0.599412
0.601107
0.604324
0.609161
0.615735
0.62442
0.635622
0.649551
0.665264
0.679385
0.690084
0.698123
0.704178
0.708676
0.711795
0.713508
0.71409
0.714089
0.581272
0.581174
0.581906
0.584096
0.588171
0.594346
0.602744
0.613774
0.627839
0.645075
0.664224
0.681255
0.694102
0.70377
0.711106
0.716597
0.720404
0.722457
0.723125
0.723109
0.558524
0.558432
0.559511
0.562484
0.567904
0.576082
0.587118
0.60139
0.61921
0.640545
0.663744
0.684054
0.699292
0.710765
0.719505
0.726078
0.730612
0.732993
0.733731
0.733696
0.528391
0.528353
0.530051
0.534405
0.542122
0.553513
0.568468
0.587245
0.609917
0.636227
0.664067
0.688
0.705812
0.719228
0.72948
0.737213
0.742468
0.745136
0.745916
0.745854
0.486785
0.486954
0.490021
0.497239
0.509218
0.52588
0.546675
0.571534
0.60026
0.632365
0.665362
0.69319
0.713733
0.729192
0.741067
0.750021
0.75595
0.758818
0.759586
0.759487
0.426124
0.427463
0.434915
0.448646
0.468383
0.493403
0.52241
0.554993
0.590855
0.629437
0.667935
0.69979
0.723112
0.740644
0.754095
0.76423
0.770805
0.77373
0.774387
0.77425
0.35314
0.355854
0.370307
0.39405
0.42447
0.459323
0.497253
0.538089
0.581661
0.627501
0.672562
0.709606
0.736754
0.757293
0.773098
0.784862
0.792261
0.795487
0.796285
0.796282
0.27843
0.285481
0.307133
0.340792
0.381483
0.425948
0.472798
0.521968
0.573363
0.626608
0.678447
0.720915
0.752049
0.775735
0.79416
0.807731
0.815986
0.819154
0.819847
0.819963
0.217792
0.22658
0.252904
0.293604
0.342279
0.394841
0.449714
0.506695
0.565558
0.625896
0.684147
0.731664
0.766509
0.792993
0.813469
0.82833
0.837082
0.840696
0.841891
0.8421
0.167985
0.177465
0.207227
0.253104
0.307863
0.366932
0.428567
0.492396
0.558057
0.624968
0.689226
0.7414
0.779533
0.808404
0.830487
0.846523
0.856173
0.860516
0.861926
0.862159
0.126042
0.135789
0.167874
0.217793
0.277536
0.342035
0.409391
0.479165
0.550891
0.623818
0.69359
0.750051
0.791069
0.821888
0.845253
0.862166
0.872655
0.877502
0.879112
0.879383
0.0895264
0.0993837
0.133208
0.186365
0.250276
0.319442
0.391787
0.466835
0.544013
0.622437
0.697317
0.757659
0.801255
0.833672
0.858044
0.875626
0.886764
0.892046
0.893826
0.894113
0.0568964
0.0667814
0.101964
0.157796
0.225248
0.298449
0.375221
0.455031
0.537217
0.620755
0.700407
0.764338
0.810198
0.843972
0.869142
0.887295
0.898825
0.90449
0.906356
0.906642
0.0269959
0.0369083
0.0731636
0.131307
0.201804
0.278535
0.359252
0.443406
0.530248
0.618605
0.702806
0.770144
0.818084
0.853063
0.878878
0.897398
0.909192
0.91505
0.916996
0.917291
-0.00103511
0.00893319
0.0461931
0.106332
0.179459
0.259292
0.343555
0.431685
0.522865
0.615824
0.704434
0.775101
0.825076
0.861218
0.887657
0.906521
0.918466
0.924443
0.926368
0.92663
-0.0277121
-0.0176603
0.0205159
0.0824257
0.157863
0.240435
0.327896
0.41967
0.514905
0.612258
0.705212
0.779224
0.831277
0.868631
0.895731
0.914932
0.927026
0.932994
0.93491
0.935077
-0.0534672
-0.0432489
-0.00420923
0.0592867
0.136755
0.221767
0.312118
0.407234
0.506253
0.607807
0.705059
0.782522
0.8368
0.875483
0.90332
0.922861
0.935067
0.94099
0.942838
0.943
-0.0785631
-0.0680912
-0.0282083
0.0367254
0.115984
0.203161
0.296128
0.394305
0.496836
0.602405
0.70393
0.785002
0.841717
0.881899
0.910573
0.930504
0.942811
0.948665
0.950392
0.950501
-0.103074
-0.0923437
-0.0516373
0.0146139
0.0954672
0.184572
0.279889
0.38085
0.486631
0.596004
0.701775
0.786647
0.846062
0.887958
0.917591
0.937943
0.950295
0.955989
0.957561
0.957596
-0.127129
-0.116106
-0.0745982
-0.0070915
0.0751727
0.165987
0.263407
0.366883
0.475643
0.588595
0.698532
0.787381
0.849809
0.89371
0.924454
0.945227
0.957547
0.962999
0.96435
0.964299
-0.150742
-0.139409
-0.0970663
-0.0284103
0.0551071
0.147435
0.246731
0.352451
0.463907
0.58017
0.694146
0.7871
0.852892
0.899189
0.931262
0.952443
0.964557
0.969602
0.970695
0.970573
-0.17394
-0.16224
-0.119044
-0.0493323
0.035303
0.128967
0.229915
0.337626
0.451484
0.570755
0.688572
0.785701
0.855201
0.904382
0.938155
0.959752
0.971396
0.975796
0.976557
0.976367
-0.19649
-0.184531
-0.140499
-0.0698202
0.0158196
0.110666
0.213039
0.322488
0.438456
0.560416
0.681794
0.783092
0.856573
0.909182
0.945271
0.967491
0.978307
0.981609
0.981873
0.981624
-0.218542
-0.206222
-0.161385
-0.0898316
-0.00329917
0.0925801
0.196203
0.30713
0.424921
0.549244
0.673827
0.779169
0.856812
0.91335
0.952619
0.976166
0.985987
0.987404
0.986658
0.986318
-0.239902
-0.227266
-0.181676
-0.109308
-0.0219651
0.0748028
0.179499
0.29168
0.410997
0.53732
0.664714
0.773846
0.855723
0.916524
0.959879
0.986167
0.99582
0.994716
0.991561
0.990561
-0.260659
-0.247674
-0.201305
-0.128187
-0.0401342
0.0574082
0.163017
0.276229
0.396801
0.52479
0.65454
0.767046
0.853122
0.918271
0.966255
0.99706
1.00906
1.00707
1.0001
0.989983
-0.280688
-0.267436
-0.220365
-0.146636
-0.0580349
0.0400964
0.146401
0.260345
0.381852
0.511113
0.64274
0.758128
0.848455
0.91809
0.970693
1.00731
1.02499
1.02491
1.01439
1.0104
-0.29994
-0.286625
-0.238841
-0.164582
-0.0756395
0.0228925
0.129688
0.244016
0.366126
0.49618
0.62916
0.746684
0.841084
0.915197
0.970887
1.01132
1.03238
1.03733
1.00412
0.964175
-0.318167
-0.305099
-0.256671
-0.181898
-0.0929192
0.00577764
0.112896
0.227381
0.349704
0.480048
0.613765
0.732473
0.830091
0.908974
0.964993
0.998974
1.02049
1.00832
0.956899
0.900524
-0.338098