/*--------------------------------*- C++ -*----------------------------------*\
  =========                 |
  \\      /  F ield         | OpenFOAM: The Open Source CFD Toolbox
   \\    /   O peration     | Website:  https://openfoam.org
    \\  /    A nd           | Version:  6
     \\/     M anipulation  |
\*---------------------------------------------------------------------------*/
FoamFile
{
    version     2.0;
    format      ascii;
    class       surfaceScalarField;
    location    "38";
    object      phi;
}
// * * * * * * * * * * * * * * * * * * * * * * * * * * * * * * * * * * * * * //

dimensions      [0 3 -1 0 0 0 0];

internalField   nonuniform List<scalar> 
17370
(
-0.0900015
0.0898506
0.289162
-0.0714644
0.0537545
0.364485
-0.0381213
0.0276919
0.426597
-0.0196385
0.014603
0.504287
-0.0107574
0.0082635
0.601896
-0.00626164
0.00488715
0.720432
-0.00373118
0.00290144
0.863736
-0.0021724
0.0016223
1.036
-0.00111188
0.000702
1.24291
-0.000295732
-9.40399e-05
1.49158
0.000470237
-0.000874802
1.4916
0.00126925
-0.00175967
1.24318
0.00229377
-0.00300966
1.03635
0.00383187
-0.00498255
0.864057
0.00635197
-0.00834668
0.721052
0.0108332
-0.014671
0.603052
0.0197001
-0.027747
0.507486
0.0381707
-0.0537961
0.431794
0.071498
-0.0898727
0.36515
0.0900141
0.198997
-0.12813
0.0882154
0.0399143
-0.364592
0.353365
-0.0746857
0.0859128
-0.446473
0.454311
-0.0844145
0.0765767
-0.521186
0.529893
-0.0684829
0.0597756
-0.612781
0.621559
-0.0515896
0.042812
-0.726886
0.73415
-0.0353537
0.0280903
-0.86747
0.872566
-0.022501
0.0174052
-1.03847
1.0419
-0.0136141
0.0101811
-1.24459
1.24702
-0.00757918
0.00515228
-1.49263
1.4946
-0.00321098
0.00124409
-1.4925
1.49421
0.000431577
-0.00214617
-1.24398
1.24587
0.00404525
-0.00592945
-1.03751
1.04005
0.00829375
-0.0108378
-0.866102
0.869848
0.0142122
-0.0179581
-0.724395
0.729948
0.0230125
-0.0285656
-0.608705
0.616123
0.0357873
-0.0432053
-0.514904
0.523052
0.0519386
-0.0600866
-0.439861
0.447925
0.0687549
-0.0768189
-0.375301
0.376753
0.0846248
-0.0860766
-0.257339
0.2225
0.0747975
-0.0399583
-0.0684991
0.058668
0.00983107
-0.0518458
0.0584413
-0.374107
0.367511
-0.0575337
0.0537873
-0.453581
0.457327
-0.0486995
0.0447486
-0.527927
0.531878
-0.0409088
0.0372703
-0.62154
0.625179
-0.0331729
0.0291103
-0.735325
0.739388
-0.0245664
0.0204368
-0.874316
0.878445
-0.0161249
0.0124562
-1.04346
1.04713
-0.00874324
0.00558593
-1.24854
1.2517
-0.00227069
-0.000801559
-1.49665
1.49973
0.00384789
-0.0071019
-1.49722
1.50047
0.0101755
-0.0137807
-1.25009
1.25369
0.0173498
-0.021558
-1.04594
1.05015
0.025603
-0.0300642
-0.877783
0.882244
0.0340544
-0.0380725
-0.739925
0.743943
0.041638
-0.0453994
-0.6268
0.630561
0.0492843
-0.0543097
-0.534832
0.539858
0.057993
-0.0588211
-0.457497
0.458325
0.0521361
-0.0319605
-0.335789
0.315614
0.00987926
-0.0683723
0.0584931
-0.0529101
0.0489083
0.00400174
-0.0332069
0.0437724
-0.358059
0.347494
-0.0474874
0.0468724
-0.459252
0.459867
-0.0438274
0.0404834
-0.535766
0.53911
-0.0367211
0.0334299
-0.628486
0.631777
-0.0300129
0.0270072
-0.742603
0.745609
-0.0237801
0.0206973
-0.881962
0.885045
-0.0171865
0.0138221
-1.05071
1.05407
-0.0100507
0.00653418
-1.25511
1.25863
-0.00259545
-0.00117516
-1.50321
1.50698
0.00491948
-0.00878163
-1.50414
1.508
0.012191
-0.0158192
-1.25745
1.26108
0.0190393
-0.0223927
-1.05396
1.05732
0.0253453
-0.0284471
-0.885747
0.888848
0.0313482
-0.0346534
-0.747218
0.750523
0.0378418
-0.0414935
-0.634367
0.638019
0.0447435
-0.0476846
-0.544185
0.547126
0.0481935
-0.044331
-0.456634
0.452771
0.0335926
-0.0161827
-0.296284
0.278874
0.00406026
-0.0526847
0.0486245
-0.0458224
0.04332
0.00250237
-0.0228581
0.0332634
-0.336777
0.326372
-0.0391071
0.0401376
-0.45953
0.458499
-0.0389582
0.0366776
-0.541804
0.544085
-0.0340159
0.0314284
-0.634799
0.637386
-0.0283834
0.0255137
-0.74864
0.751509
-0.0222966
0.0193526
-0.887991
0.890935
-0.0161031
0.013049
-1.05718
1.06024
-0.00956534
0.00618855
-1.26207
1.26544
-0.00225116
-0.00161479
-1.51085
1.51472
0.0054482
-0.00928121
-1.5119
1.51573
0.0125161
-0.0158069
-1.26453
1.26782
0.0186682
-0.0217071
-1.06043
1.06347
0.0244721
-0.027514
-0.891919
0.89496
0.0302382
-0.0331313
-0.753746
0.756639
0.0355814
-0.0380969
-0.641105
0.64362
0.040253
-0.0412735
-0.548953
0.549974
0.0400814
-0.0340049
-0.447529
0.441453
0.0233491
-0.0101861
-0.263704
0.250541
0.00257391
-0.0454761
0.0429022
-0.0412357
0.0394603
0.00177538
-0.016806
0.0260917
-0.316484
0.307198
-0.0327336
0.0349001
-0.456873
0.454706
-0.0345007
0.032846
-0.546042
0.547697
-0.0306803
0.0286046
-0.639667
0.641742
-0.0262057
0.0238491
-0.754131
0.756488
-0.0210427
0.0182975
-0.893799
0.896544
-0.0151048
0.0120757
-1.06325
1.06627
-0.00863181
0.00535373
-1.26873
1.27201
-0.00156939
-0.00212436
-1.51848
1.52218
0.00577159
-0.00942095
-1.51947
1.52312
0.0125213
-0.0157262
-1.27108
1.27429
0.018514
-0.0214338
-1.0665
1.06942
0.0239423
-0.026513
-0.897788
0.900359
0.0286753
-0.0308773
-0.759115
0.761317
0.0327801
-0.0347613
-0.645813
0.647795
0.036238
-0.0364219
-0.550531
0.550715
0.0340098
-0.0270324
-0.434846
0.427869
0.0174133
-0.0073428
-0.239075
0.229005
0.00186212
-0.0407414
0.0388793
-0.0379289
0.0365909
0.001338
-0.0128492
0.0208317
-0.298567
0.290585
-0.0276218
0.0305757
-0.452106
0.449152
-0.0308096
0.0297186
-0.549083
0.550174
-0.0277554
0.0258724
-0.64373
0.645613
-0.023718
0.0216316
-0.758696
0.760782
-0.0191794
0.0167539
-0.899095
0.901521
-0.0138743
0.0110542
-1.06917
1.07199
-0.00775579
0.00456676
-1.27522
1.27841
-0.000862943
-0.00273979
-1.5258
1.5294
0.00628532
-0.00981904
-1.52671
1.53025
0.0127768
-0.0157658
-1.27744
1.28043
0.0182744
-0.0208038
-1.07219
1.07472
0.0229243
-0.0250744
-0.902684
0.904834
0.0269149
-0.0288219
-0.763318
0.765225
0.0304892
-0.0322327
-0.649633
0.651376
0.0330718
-0.0325436
-0.550548
0.55002
0.0292443
-0.022
-0.420703
0.413458
0.0135926
-0.00565997
-0.220107
0.212175
0.00144317
-0.0372547
0.0358115
-0.0354201
0.0343863
0.00103379
-0.0100534
0.0168069
-0.28324
0.276487
-0.0233374
0.0267502
-0.445945
0.442533
-0.0275631
0.0268851
-0.551046
0.551724
-0.0251453
0.0233872
-0.647473
0.649231
-0.0213674
0.0194167
-0.76281
0.76476
-0.0171315
0.0148857
-0.903787
0.906033
-0.0122322
0.0096191
-1.07463
1.07724
-0.00653743
0.00352075
-1.28148
1.2845
1.73469e-05
-0.00346841
-1.53293
1.53638
0.00684924
-0.0101761
-1.53371
1.53703
0.0129067
-0.0156083
-1.2833
1.286
0.0178397
-0.0200629
-1.07708
1.0793
0.0219301
-0.023836
-0.906825
0.90873
0.0254755
-0.0271861
-0.767008
0.768718
0.0286807
-0.0301247
-0.653009
0.654453
0.0304862
-0.0292605
-0.549165
0.547939
0.0253723
-0.0182464
-0.406254
0.399128
0.0109618
-0.0045344
-0.205068
0.19864
0.00116166
-0.0345279
0.0333662
-0.0334775
0.0326705
0.00080696
-0.00797311
0.0136493
-0.270299
0.264623
-0.0196937
0.023314
-0.438997
0.435377
-0.0246326
0.0242398
-0.552282
0.552674
-0.022817
0.0212089
-0.650958
0.652566
-0.0193098
0.0174464
-0.766681
0.768544
-0.0152355
0.0130539
-0.908196
0.910378
-0.0104902
0.00799277
-1.07973
1.08223
-0.00507494
0.0022303
-1.28738
1.29022
0.00110098
-0.00434889
-1.53969
1.54294
0.00751018
-0.0105831
-1.54023
1.54331
0.0130829
-0.0155414
-1.28862
1.29108
0.0175774
-0.0196162
-1.08147
1.0835
0.0213257
-0.0230473
-0.910548
0.91227
0.024505
-0.0260095
-0.7703
0.771804
0.027289
-0.0283396
-0.655672
0.656722
0.0283313
-0.0264577
-0.546399
0.544526
0.0222132
-0.0154119
-0.392165
0.385363
0.00907942
-0.00373948
-0.19281
0.18747
0.000961771
-0.0323198
0.031358
-0.0319618
0.0313315
0.000630286
-0.00636023
0.0111124
-0.259436
0.254684
-0.0165591
0.020171
-0.43176
0.428149
-0.0217972
0.0216104
-0.55299
0.553177
-0.0203963
0.0188319
-0.654186
0.655751
-0.0169973
0.0152188
-0.770373
0.772152
-0.0131313
0.0110776
-0.912426
0.914479
-0.00865234
0.00627539
-1.08458
1.08696
-0.0034878
0.000771973
-1.29295
1.29566
0.00238838
-0.00544316
-1.54608
1.54913
0.00839332
-0.0112355
-1.54627
1.54912
0.0135244
-0.0157401
-1.29344
1.29566
0.0175412
-0.0193114
-1.08543
1.0872
0.0207783
-0.0222628
-0.913879
0.915364
0.0235458
-0.0248994
-0.77321
0.774564
0.0260734
-0.0267697
-0.657583
0.65828
0.026418
-0.0240568
-0.542427
0.540066
0.019643
-0.0132551
-0.378782
0.372395
0.00770141
-0.00316422
-0.182573
0.178036
0.000817207
-0.0304811
0.0296639
-0.0307817
0.0302939
0.000487814
-0.00505567
0.00900621
-0.250359
0.246408
-0.0138131
0.0172886
-0.424615
0.42114
-0.0191321
0.0191747
-0.553302
0.55326
-0.0181937
0.0166929
-0.65736
0.65886
-0.0148983
0.0131377
-0.773916
0.775677
-0.0110626
0.00902848
-0.916421
0.918455
-0.00664535
0.00433242
-1.0892
1.09152
-0.00164792
-0.000935321
-1.29825
1.30084
0.00390899
-0.00675107
-1.55204
1.55488
0.00946378
-0.0120508
-1.55184
1.55443
0.0141188
-0.0161204
-1.29781
1.29981
0.017744
-0.0193355
-1.0889
1.09049
0.0206523
-0.021983
-0.916762
0.918093
0.0231214
-0.0243
-0.775817
0.776996
0.025277
-0.0256106
-0.65878
0.659114
0.0249038
-0.0221101
-0.537518
0.534724
0.0176131
-0.0116344
-0.36623
0.360252
0.00669894
-0.00275543
-0.173831
0.169887
0.000717853
-0.02891
0.0281922
-0.0298765
0.0295112
0.000365282
-0.00394914
0.007185
-0.242844
0.239608
-0.0113217
0.0145225
-0.417823
0.414622
-0.016424
0.0166459
-0.553173
0.552951
-0.0157894
0.0144134
-0.660358
0.661734
-0.0126598
0.0109131
-0.777421
0.779167
-0.00884421
0.00682389
-0.920387
0.922408
-0.0044775
0.00222392
-1.09371
1.09596
0.000371548
-0.00285354
-1.3033
1.30578
0.00569643
-0.00839004
-1.5576
1.5603
0.0109252
-0.0132908
-1.5569
1.55927
0.0151323
-0.0168774
-1.30172
1.30347
0.0182789
-0.0196458
-1.09202
1.09338
0.0207719
-0.0219043
-0.919359
0.920491
0.0228779
-0.0238834
-0.778076
0.779082
0.0246063
-0.0246662
-0.65929
0.65935
0.0235711
-0.0204541
-0.53179
0.528673
0.0159717
-0.0103903
-0.354504
0.348922
0.00595059
-0.00245434
-0.166203
0.162707
0.000644857
-0.0275259
0.0268811
-0.0292092
0.0289534
0.000255841
-0.00296885
0.00555284
-0.236724
0.23414
-0.0090203
0.0118684
-0.411636
0.408787
-0.0137065
0.0140008
-0.552776
0.552481
-0.0131767
0.0118355
-0.663172
0.664513
-0.0100711
0.00832321
-0.780875
0.782622
-0.00627865
0.00429859
-0.92427
0.92625
-0.00200561
-0.000196536
-1.09807
1.10027
0.00272765
-0.00513516
-1.30815
1.31056
0.00785247
-0.0103732
-1.56287
1.56539
0.012706
-0.0148532
-1.56153
1.56368
0.0164942
-0.0180057
-1.30515
1.30666
0.0191784
-0.0202853
-1.09467
1.09578
0.0211772
-0.0220786
-0.921532
0.922433
0.0228661
-0.0236869
-0.779959
0.78078
0.0241848
-0.023987
-0.659253
0.659056
0.0225452
-0.0191594
-0.525458
0.522073
0.0147149
-0.00947233
-0.343549
0.338306
0.00541618
-0.00224811
-0.15941
0.156242
0.000598319
-0.0262755
0.0256771
-0.0287574
0.0286091
0.000148364
-0.0020386
0.00399678
-0.231894
0.229936
-0.00677312
0.0091919
-0.406196
0.403777
-0.0108825
0.0112237
-0.55226
0.551919
-0.0104725
0.00918963
-0.665926
0.667209
-0.00741786
0.00562878
-0.784342
0.786131
-0.00352671
0.00149659
-0.928104
0.930134
0.000838304
-0.00305736
-1.10236
1.10457
0.00556611
-0.00790358
-1.31284
1.31518
0.0104812
-0.0128186
-1.56775
1.57009
0.0149223
-0.0168024
-1.56568
1.56756
0.0181961
-0.0194452
-1.30809
1.30934
0.0204056
-0.0213056
-1.09681
1.09771
0.0220255
-0.0227342
-0.92327
0.923979
0.0233356
-0.0239415
-0.78152
0.782126
0.0240969
-0.0236213
-0.658651
0.658175
0.0218337
-0.0181833
-0.518608
0.514957
0.0137724
-0.00880829
-0.333255
0.328291
0.00504513
-0.00211382
-0.153232
0.150301
0.000571737
-0.0251121
0.0245403
-0.0285172
0.0284773
3.98601e-05
-0.00111355
0.0024477
-0.228312
0.226978
-0.00450106
0.00640367
-0.401662
0.399759
-0.00781515
0.00810594
-0.551717
0.551426
-0.00738534
0.00614687
-0.66857
0.669809
-0.00436338
0.00252651
-0.787873
0.78971
-0.000349004
-0.0017457
-0.932041
0.934135
0.00412773
-0.00635473
-1.10667
1.10889
0.0088385
-0.0111244
-1.3174
1.31968
0.013622
-0.0158423
-1.57232
1.57454
0.0177807
-0.0194156
-1.56931
1.57094
0.0205561
-0.0215178
-1.31052
1.31148
0.0222048
-0.0228129
-1.09853
1.09914
0.0232687
-0.0237041
-0.924598
0.925033
0.0240766
-0.0244411
-0.782577
0.782941
0.0242869
-0.0234351
-0.657379
0.656527
0.0212796
-0.0174148
-0.511267
0.507402
0.0130584
-0.0083301
-0.323513
0.318785
0.00479219
-0.00203026
-0.147501
0.144739
0.000558193
-0.023997
0.0234388
-0.0284949
0.0285654
-7.05104e-05
-0.000148744
0.000851425
-0.225978
0.225276
-0.00215929
0.00348645
-0.398207
0.39688
-0.00450612
0.0046222
-0.551381
0.551265
-0.00380622
0.00248675
-0.6712
0.67252
-0.000612077
-0.0013009
-0.791488
0.793401
0.00353286
-0.00565529
-0.936062
0.938185
0.00806049
-0.0103112
-1.11098
1.11324
0.0128125
-0.0150792
-1.32185
1.32412
0.0174819
-0.0195367
-1.57661
1.57866
0.0212302
-0.0225881
-1.57242
1.57378
0.0234487
-0.0240842
-1.31233
1.31297
0.0244708
-0.0247276
-1.09963
1.09989
0.0248662
-0.0249924
-0.925386
0.925512
0.025147
-0.0252434
-0.783074
0.78317
0.0248537
-0.0235845
-0.655327
0.654058
0.0210911
-0.0170121
-0.503559
0.49948
0.0126635
-0.00808275
-0.314224
0.309643
0.00468303
-0.00201069
-0.142079
0.139406
0.000562649
-0.0229045
0.0223419
-0.0287011
0.0289109
-0.000209766
0.000847311
-0.000847192
-0.224921
0.22492
0.000352469
0.000328858
-0.395938
0.395257
-0.000885887
0.000788138
-0.551467
0.551565
0.000126769
-0.00152615
-0.674036
0.675435
0.00349078
-0.00550953
-0.795245
0.797263
0.00787506
-0.0101286
-0.940147
0.942401
0.0126726
-0.0150233
-1.11536
1.11771
0.0175852
-0.0198579
-1.32627
1.32854
0.0221933
-0.0240954
-1.58056
1.58246
0.0255729
-0.0266333
-1.57497
1.57603
0.0271911
-0.0274661
-1.31348
1.31376
0.0275194
-0.0274368
-1.10002
1.09994
0.0272741
-0.0270771
-0.925526
0.925329
0.0269216
-0.026637
-0.78292
0.782636
0.0259281
-0.0241634
-0.652523
0.650758
0.0212654
-0.0169167
-0.495424
0.491075
0.0125302
-0.00802823
-0.305209
0.300707
0.00469532
-0.00204589
-0.136809
0.134159
0.000583135
-0.0217972
0.0212141
-0.0291852
0.0295276
-0.000342376
0.00195288
-0.00263119
-0.225214
0.225892
0.003044
-0.00313414
-0.395009
0.395099
0.00319476
-0.00360577
-0.552081
0.552492
0.00462503
-0.00610959
-0.67704
0.678525
0.00820508
-0.0103978
-0.799227
0.801419
0.0129965
-0.0154634
-0.944536
0.947003
0.0182143
-0.0207133
-1.11995
1.12245
0.0233792
-0.0256775
-1.33069
1.33299
0.0279573
-0.0297063
-1.58419
1.58594
0.0309306
-0.0316319
-1.57687
1.57758
0.0318507
-0.0317388
-1.3139
1.31378
0.0314401
-0.0309861
-1.0997
1.09925
0.0305019
-0.0299391
-0.924954
0.924391
0.0294178
-0.0286605
-0.781929
0.781171
0.0274761
-0.0251105
-0.648774
0.646408
0.0217862
-0.0171651
-0.48679
0.482169
0.0126939
-0.00817948
-0.296336
0.291822
0.00482921
-0.00213151
-0.131563
0.128865
0.000616501
-0.0206466
0.0200301
-0.0299565
0.0304801
-0.000523555
0.00322004
-0.00467941
-0.226981
0.228441
0.00602025
-0.00696117
-0.395618
0.396559
0.00779711
-0.00869532
-0.553464
0.554362
0.010037
-0.0117578
-0.680308
0.682028
0.0140974
-0.0165068
-0.803547
0.805956
0.0193295
-0.0219861
-0.9493
0.951957
0.0249301
-0.0275843
-1.12481
1.12747
0.0303867
-0.0327514
-1.33517
1.33754
0.035007
-0.0366175
-1.58754
1.58915
0.0375803
-0.0379044
-1.57805
1.57837
0.0377312
-0.0371536
-1.31346
1.31288
0.0364058
-0.0354642
-1.09854
1.0976
0.034552
-0.0335513
-0.923556
0.922555
0.0326648
-0.0313707
-0.779938
0.778644
0.029655
-0.0267106
-0.643918
0.640974
0.0229293
-0.0179404
-0.477628
0.472639
0.013264
-0.00859908
-0.2874
0.282735
0.00511863
-0.00227922
-0.126191
0.123351
0.000664392
-0.0194275
0.0187631
-0.0311009
0.03185
-0.000749014
0.00472944
-0.00706564
-0.230353
0.232689
0.00944122
-0.0112742
-0.397929
0.399762
0.012949
-0.0144189
-0.55595
0.557419
0.0162072
-0.0182691
-0.684138
0.6862
0.0209737
-0.0237095
-0.808312
0.811048
0.0268807
-0.0298442
-0.954464
0.957428
0.0331046
-0.0360131
-1.13
1.13291
0.0390201
-0.0414724
-1.33977
1.34222
0.0436665
-0.0450545
-1.59053
1.59192
0.045662
-0.0455414
-1.57841
1.57829
0.0449105
-0.0438383
-1.31205
1.31098
0.0426162
-0.041147
-1.09634
1.09487
0.0397622
-0.038267
-0.921206
0.919711
0.0369606
-0.0351255
-0.776867
0.775032
0.0328624
-0.0292476
-0.637943
0.634328
0.024888
-0.0193911
-0.467718
0.462221
0.0143672
-0.00937768
-0.278115
0.273126
0.00561514
-0.00250738
-0.120492
0.117385
0.00072995
-0.0181098
0.0173799
-0.0326911
0.0337248
-0.00103362
0.00654058
-0.00989257
-0.235496
0.238848
0.0134566
-0.0162981
-0.402162
0.405003
0.0189007
-0.0210094
-0.559713
0.561822
0.0233179
-0.0257902
-0.688717
0.691189
0.0289578
-0.0321367
-0.81374
0.816919
0.0358033
-0.0392041
-0.960275
0.963676
0.0429047
-0.04615
-1.13572
1.13897
0.0494336
-0.0520285
-1.34454
1.34713
0.0542377
-0.055467
-1.59309
1.59432
0.055751
-0.0551418
-1.57786
1.57725
0.053991
-0.0523094
-1.30953
1.30785
0.0505489
-0.0485092
-1.093
1.09096
0.0466202
-0.0445897
-0.917773
0.915743
0.0427259
-0.0402699
-0.772691
0.770235
0.0373272
-0.0329301
-0.630641
0.626244
0.0278959
-0.0217473
-0.456807
0.450658
0.0161839
-0.0106232
-0.268113
0.262552
0.00637628
-0.00284035
-0.1142
0.110664
0.000820623
-0.0166562
0.0158356
-0.0348325
0.0362451
-0.0014126
0.00885393
-0.0134315
-0.242646
0.247223
0.0183736
-0.0223726
-0.408587
0.412586
0.0260421
-0.0289455
-0.565003
0.567906
0.0319714
-0.0350485
-0.694241
0.697318
0.0388889
-0.0426801
-0.820079
0.82387
0.0470071
-0.0509666
-0.966993
0.970952
0.0552017
-0.0588315
-1.14213
1.14576
0.0623924
-0.065084
-1.34957
1.35226
0.0672038
-0.068135
-1.59527
1.5962
0.0679452
-0.0666965
-1.57624
1.575
0.0649174
-0.0625384
-1.30574
1.30336
0.0601717
-0.0575166
-1.08841
1.08575
0.0551085
-0.0524989
-0.913137
0.910528
0.0500182
-0.0468568
-0.767299
0.764137
0.0431813
-0.0379408
-0.621806
0.616566
0.0321184
-0.0250995
-0.444591
0.437572
0.0187338
-0.0123153
-0.256883
0.250464
0.00737855
-0.00326679
-0.106997
0.102885
0.000934225
-0.0150156
0.0140814
-0.0377018
0.0396598
-0.00195804
0.0120534
-0.0181961
-0.25219
0.258332
0.0247656
-0.0300866
-0.41763
0.422951
0.0349991
-0.0389475
-0.572268
0.576216
0.0429874
-0.0469665
-0.701156
0.705135
0.0517856
-0.0563956
-0.827667
0.832277
0.0615191
-0.0661015
-0.974827
0.979409
0.0708798
-0.0748571
-1.14925
1.15323
0.0785985
-0.0812423
-1.3547
1.35734
0.0830412
-0.0834402
-1.5967
1.5971
0.0825446
-0.080477
-1.57324
1.57118
0.0779516
-0.0747683
-1.30047
1.29728
0.0716843
-0.0682857
-1.08247
1.07907
0.065269
-0.0621107
-0.907237
0.904079
0.0590238
-0.0551687
-0.76046
0.756605
0.0507108
-0.044472
-0.611284
0.605045
0.0376281
-0.0294085
-0.430601
0.422381
0.0219285
-0.0143643
-0.243872
0.236308
0.00855717
-0.00375609
-0.0986131
0.0938121
0.0010624
-0.0131476
0.0120852
-0.0416059
0.044409
-0.00280313
0.0167567
-0.0249675
-0.264793
0.273004
0.0335209
-0.0404022
-0.429877
0.436758
0.0468089
-0.0520271
-0.582055
0.587273
0.0574189
-0.0626595
-0.710049
0.71529
0.0686856
-0.0742346
-0.836879
0.842428
0.0802199
-0.0854203
-0.983883
0.989084
0.0906776
-0.094877
-1.15699
1.16119
0.0986078
-0.100992
-1.3596
1.36198
0.102218
-0.101819
-1.59691
1.59651
0.0999798
-0.0968614
-1.56845
1.56534
0.0933968
-0.0892547
-1.29349
1.28935
0.0853875
-0.0812325
-1.07498
1.07083
0.0776055
-0.0738015
-0.900078
0.896274
0.0700916
-0.0654427
-0.752127
0.747478
0.0599919
-0.0524353
-0.598674
0.591118
0.0442408
-0.0344615
-0.414161
0.404381
0.0255652
-0.0166041
-0.228557
0.219596
0.00979566
-0.00424912
-0.0888629
0.0833163
0.0011858
-0.0110325
0.00984672
-0.0470957
0.0513479
-0.00425222
0.0241885
-0.0352606
-0.281585
0.292657
0.0464297
-0.0554224
-0.446313
0.455306
0.0635935
-0.0702588
-0.594867
0.601533
0.0772272
-0.0838433
-0.721394
0.72801
0.0911162
-0.0975686
-0.847906
0.854358
0.104292
-0.10993
-0.994096
0.999733
0.115402
-0.11956
-1.16503
1.16919
0.122973
-0.124832
-1.36381
1.36567
0.125224
-0.123834
-1.59539
1.594
0.120894
-0.116575
-1.56146
1.55714
0.11206
-0.106811
-1.28447
1.27922
0.101987
-0.0968717
-1.06583
1.06072
0.0924641
-0.087855
-0.89136
0.886751
0.083376
-0.0776104
-0.741942
0.736176
0.0708529
-0.061601
-0.58328
0.574028
0.0517313
-0.0400596
-0.394568
0.382897
0.0294577
-0.0188853
-0.210522
0.19995
0.0109866
-0.00468772
-0.0776957
0.0713968
0.00128287
-0.00869197
0.0074091
-0.0552398
0.0625252
-0.00728543
0.0374766
-0.0529076
-0.304712
0.320143
0.0678543
-0.0796489
-0.468418
0.480212
0.0896693
-0.0976784
-0.611034
0.619043
0.106162
-0.113991
-0.73518
0.743009
0.122155
-0.129026
-0.860492
0.867362
0.135889
-0.14141
-1.00493
1.01045
0.146513
-0.150079
-1.17272
1.17628
0.152611
-0.15342
-1.36673
1.36753
0.152463
-0.149642
-1.59168
1.58886
0.145207
-0.139382
-1.55195
1.54613
0.133594
-0.127097
-1.27321
1.26671
0.121218
-0.115022
-1.05462
1.04842
0.109682
-0.104028
-0.880678
0.875025
0.0985446
-0.0913508
-0.729107
0.721913
0.0830518
-0.0718412
-0.564289
0.553079
0.0599227
-0.0459471
-0.371087
0.357111
0.0334158
-0.02113
-0.189474
0.177189
0.0120921
-0.00504871
-0.0652188
0.0581754
0.00133653
-0.00619054
0.00485402
-0.069381
0.0733744
-0.00399337
0.0282698
-0.0417121
-0.338202
0.351644
0.0551166
-0.0658712
-0.49741
0.508165
0.0754975
-0.0845886
-0.630357
0.639448
0.0949654
-0.104262
-0.750286
0.759583
0.11457
-0.123699
-0.87327
0.882399
0.13336
-0.141842
-1.01505
1.02354
0.150519
-0.157688
-1.17876
1.18593
0.164402
-0.169188
-1.36712
1.3719
0.17252
-0.173306
-1.58471
1.5855
0.171439
-0.167427
-1.53911
1.53509
0.162377
-0.155894
-1.25931
1.25282
0.149711
-0.142355
-1.04123
1.03387
0.135846
-0.128693
-0.867564
0.860412
0.121755
-0.112481
-0.713167
0.703893
0.100766
-0.0850979
-0.541017
0.525349
0.068891
-0.0504612
-0.342779
0.324349
0.0349883
-0.0208682
-0.165298
0.151178
0.0111849
-0.00431109
-0.0517684
0.0448946
0.000984699
-0.00363023
0.00264553
-0.0806878
0.0785903
0.00209741
0.00679474
-0.0152699
-0.367867
0.376342
0.025386
-0.0332265
-0.523458
0.531299
0.0411062
-0.0489344
-0.651143
0.658972
0.058484
-0.0672775
-0.768512
0.777305
0.0766332
-0.0851456
-0.891028
0.89954
0.0941197
-0.101631
-1.03175
1.03926
0.109456
-0.115524
-1.19286
1.19893
0.12108
-0.124642
-1.37624
1.3798
0.12635
-0.125688
-1.58514
1.58447
0.122452
-0.117084
-1.5299
1.52453
0.11067
-0.102805
-1.24545
1.23758
0.0953969
-0.0872274
-1.02571
1.01754
0.0798373
-0.0717066
-0.851112
0.842981
0.0640622
-0.0552383
-0.690283
0.681459
0.0455844
-0.0340069
-0.507197
0.49562
0.0236663
-0.0143599
-0.305393
0.296087
0.0081869
-0.00382816
-0.137536
0.133177
0.00144084
-0.000252946
-0.0383396
0.0371517
-9.4865e-05
-0.00136541
0.00146028
-0.0817901
0.0788798
0.0029103
-0.00190966
-0.00274865
-0.38779
0.392449
0.00930361
-0.0151972
-0.542929
0.548822
0.0213568
-0.0282135
-0.669061
0.675918
0.0366144
-0.0443515
-0.785243
0.792981
0.0527885
-0.0602863
-0.907346
0.914844
0.0679128
-0.0746352
-1.0466
1.05332
0.0814284
-0.0867845
-1.20454
1.2099
0.0912652
-0.0939583
-1.38268
1.38538
0.0952023
-0.0941667
-1.58319
1.58216
0.0908101
-0.0855674
-1.51875
1.51351
0.0794679
-0.0721514
-1.22977
1.22246
0.0647011
-0.0563369
-1.00882
1.00045
0.0482129
-0.0387201
-0.833267
0.823774
0.0298484
-0.0202978
-0.668042
0.658491
0.011916
-0.00358257
-0.481765
0.473431
-0.00167167
0.00448179
-0.285622
0.282811
-0.00513721
0.00445617
-0.127485
0.128166
-0.00322051
0.00169237
-0.0353153
0.0368434
-0.000611679
-0.00101043
0.00162211
-0.0804449
0.0776264
0.00281853
-0.00553103
0.0033695
-0.400805
0.402967
0.000743175
-0.00522817
-0.557733
0.562218
0.0105986
-0.0164526
-0.684022
0.689876
0.023762
-0.0305277
-0.800185
0.806951
0.037849
-0.0443366
-0.921854
0.928342
0.0512844
-0.0570175
-1.0596
1.06534
0.0630188
-0.0673571
-1.21487
1.21921
0.0713603
-0.0738158
-1.38796
1.39042
0.0748915
-0.0738152
-1.58099
1.57992
0.0710378
-0.0665417
-1.50817
1.50367
0.0610728
-0.0539436
-1.2152
1.20807
0.046743
-0.0381918
-0.99146
0.982908
0.0293362
-0.0191947
-0.812696
0.802554
0.00959568
-0.000221598
-0.64533
0.635956
-0.00677036
0.0117392
-0.463162
0.458193
-0.01352
0.0127887
-0.277089
0.27782
-0.0108811
0.00792162
-0.127431
0.130391
-0.0052479
0.0025227
-0.037508
0.0402332
-0.00081077
-0.00166263
0.0024734
-0.0788741
0.0764146
0.00245953
-0.00662862
0.006022
-0.40939
0.409997
-0.00301603
-0.000323441
-0.569673
0.573013
0.00469762
-0.0100327
-0.696766
0.702101
0.0162385
-0.0222491
-0.813088
0.819099
0.028646
-0.034325
-0.934414
0.940093
0.0403484
-0.0455419
-1.07096
1.07615
0.050761
-0.0549332
-1.22348
1.22765
0.0586293
-0.0609682
-1.39268
1.39502
0.0620918
-0.0612101
-1.57893
1.57804
0.0586997
-0.0542949
-1.49871
1.4943
0.0490341
-0.0421808
-1.20091
1.19406
0.0350347
-0.0263341
-0.973738
0.965037
0.0177258
-0.00800926
-0.791391
0.781674
-0.000515611
0.00844618
-0.624681
0.616751
-0.013682
0.0168762
-0.450523
0.447329
-0.0174396
0.015438
-0.274676
0.276677
-0.0124886
0.008918
-0.131628
0.135199
-0.005772
0.0026886
-0.0420249
0.0451083
-0.000835485
-0.00285288
0.00368836
-0.0774631
0.0753811
0.00208197
-0.00646242
0.00633391
-0.415137
0.415265
-0.00467707
0.00198632
-0.578868
0.581559
0.00222393
-0.00678196
-0.707635
0.712193
0.0121219
-0.0173494
-0.824356
0.829584
0.0230484
-0.0281648
-0.945451
0.950567
0.0337668
-0.0384482
-1.08112
1.0858
0.0433331
-0.0473074
-1.23164
1.23561
0.0508369
-0.0531068
-1.39722
1.39949
0.0542045
-0.0537045
-1.57718
1.57668
0.0511821
-0.0469411
-1.48945
1.48521
0.0417064
-0.0349382
-1.18692
1.18015
0.028219
-0.0198669
-0.956092
0.94774
0.0119452
-0.00346776
-0.771663
0.763186
-0.00380163
0.0103768
-0.607677
0.601102
-0.0144882
0.016849
-0.441486
0.439125
-0.0168861
0.0148738
-0.274788
0.2768
-0.0120905
0.00859153
-0.136955
0.140454
-0.00547539
0.00256509
-0.047032
0.0499423
-0.000794704
-0.00409334
0.00488805
-0.0764298
0.0748304
0.00159945
-0.00547334
0.00563857
-0.4193
0.419135
-0.00430249
0.00235908
-0.586822
0.588765
0.00147826
-0.00554057
-0.717007
0.721069
0.0105395
-0.0150209
-0.834432
0.838913
0.0200359
-0.0246243
-0.95568
0.960269
0.0300415
-0.0344313
-1.09057
1.09496
0.038973
-0.0429193
-1.2395
1.24345
0.0467689
-0.0490223
-1.40186
1.40411
0.0502589
-0.0496908
-1.57579
1.57522
0.0474908
-0.043091
-1.48067
1.47627
0.0381828
-0.0319036
-1.17317
1.16689
0.0255611
-0.0182185
-0.939499
0.932156
0.0112524
-0.0038518
-0.75445
0.747049
-0.0020017
0.0075605
-0.593458
0.587899
-0.0111826
0.0130893
-0.434357
0.43245
-0.0133177
0.0119709
-0.27555
0.276896
-0.00973214
0.0068793
-0.141941
0.144794
-0.00436567
0.00206772
-0.0514955
0.0537934
-0.000660042
-0.00521184
0.00587188
-0.075941
0.074715
0.00122597
-0.00425386
0.0045007
-0.422564
0.422317
-0.00325817
0.00144996
-0.593601
0.595409
0.00203491
-0.00559835
-0.725277
0.728841
0.00981366
-0.0140862
-0.843354
0.847626
0.0187257
-0.023497
-0.964696
0.969467
0.0282779
-0.0325855
-1.09951
1.10382
0.0373778
-0.0412031
-1.24734
1.25117
0.0446774
-0.0473762
-1.40631
1.40901
0.0487713
-0.0484257
-1.57468
1.57434
0.0462888
-0.0423805
-1.47198
1.46807
0.0378118
-0.0320119
-1.16032
1.15452
0.0263512
-0.0198445
-0.924824
0.918317
0.0138343
-0.00769761
-0.739782
0.733646
0.00248706
0.00219061
-0.581548
0.57687
-0.0052931
0.0073027
-0.428041
0.426032
-0.00791475
0.00717521
-0.275453
0.276192
-0.00587715
0.00411064
-0.145338
0.147104
-0.0026174
0.00125585
-0.0546364
0.055998
-0.000421995
-0.00603644
0.00645844
-0.0760312
0.0750261
0.00100505
-0.00281531
0.00274623
-0.425533
0.425602
-0.00164945
-0.00015452
-0.599717
0.601521
0.00324026
-0.00659968
-0.732802
0.736161
0.0105662
-0.0144016
-0.851706
0.855542
0.0191611
-0.0231862
-0.973696
0.977721
0.0280082
-0.0322222
-1.10833
1.11255
0.0369798
-0.0410476
-1.25502
1.25909
0.044843
-0.0473257
-1.41149
1.41397
0.0490096
-0.0489745
-1.57387
1.57384
0.0473975
-0.043761
-1.46401
1.46037
0.0396555
-0.0343877
-1.14883
1.14357
0.0293388
-0.0235029
-0.911713
0.905877
0.018299
-0.0127788
-0.72729
0.72177
0.00814166
-0.00378648
-0.571368
0.567013
0.000641748
0.00139901
-0.421871
0.41983
-0.00239567
0.00245982
-0.274115
0.27405
-0.00220888
0.00156475
-0.146667
0.147311
-0.00102642
0.000553829
-0.0559902
0.0564628
-0.000214061
-0.00643196
0.00664602
-0.076451
0.0757701
0.000680885
-0.00153509
0.000939244
-0.428721
0.429317
-9.23637e-06
-0.00192746
-0.605047
0.606983
0.00467445
-0.00787534
-0.739662
0.742863
0.011625
-0.0155654
-0.85926
0.8632
0.0197248
-0.0239453
-0.981987
0.986207
0.0287801
-0.032832
-1.11722
1.12127
0.0377248
-0.0417728
-1.26299
1.26704
0.0456185
-0.0485985
-1.41686
1.41984
0.0507135
-0.050904
-1.5738
1.57399
0.049517
-0.0465761
-1.45687
1.45393
0.0430461
-0.0382449
-1.13819
1.13339
0.033596
-0.0285085
-0.900023
0.894935
0.0234824
-0.0186233
-0.715994
0.711134
0.0143712
-0.0101747
-0.562148
0.557951
0.00713748
-0.00461066
-0.415567
0.41304
0.00308689
-0.00206057
-0.271519
0.270493
0.00138318
-0.000789579
-0.145903
0.145309
0.00028309
5.15468e-05
-0.0557003
0.0553657
-0.000111346
-0.00638631
0.00649765
-0.0773132
0.0768012
0.000512044
-0.000461614
-0.000138771
-0.432277
0.432877
0.00168389
-0.00349259
-0.610473
0.612282
0.00642014
-0.00948383
-0.745958
0.749021
0.013062
-0.0166035
-0.866842
0.870384
0.0209039
-0.0248413
-0.990458
0.994395
0.0296556
-0.034164
-1.1258
1.13031
0.0387132
-0.0430795
-1.27115
1.27551
0.0473216
-0.0503614
-1.42271
1.42575
0.0527996
-0.053715
-1.57437
1.57529
0.0527527
-0.0504244
-1.45084
1.44851
0.0471318
-0.042847
-1.12862
1.12434
0.0386912
-0.0338997
-0.889471
0.88468
0.0293773
-0.0247728
-0.705764
0.701159
0.0207362
-0.0165553
-0.553183
0.549002
0.0132862
-0.0104086
-0.408876
0.405999
0.00811675
-0.00615421
-0.267203
0.265241
0.00446381
-0.00277517
-0.142967
0.141279
0.0014605
-0.000459485
-0.0538689
0.0528679
2.5263e-05
-0.00601692
0.00599166
-0.0784738
0.0781449
0.00032882
0.000668203
-0.00151956
-0.436095
0.436947
0.00299743
-0.00513455
-0.615571
0.617708
0.00802846
-0.0109533
-0.751999
0.754924
0.0146208
-0.0180266
-0.873933
0.877339
0.0221902
-0.0262655
-0.998831
1.00291
0.0310026
-0.0354784
-1.13469
1.13916
0.0402363
-0.0446108
-1.27981
1.28418
0.0490025
-0.0527463
-1.42906
1.43281
0.0555829
-0.0567697
-1.57613
1.57731
0.0564684
-0.0544625
-1.44605
1.44405
0.0517318
-0.0479984
-1.11997
1.11624
0.0439536
-0.0394464
-0.879608
0.8751
0.0351644
-0.0305968
-0.696144
0.691576
0.0267114
-0.0224309
-0.54452
0.54024
0.0189702
-0.015471
-0.401565
0.398065
0.0126127
-0.0097446
-0.261173
0.258305
0.00707497
-0.00447159
-0.13801
0.135406
0.00246663
-0.000911768
-0.0508015
0.0492467
0.000157703
-0.00542241
0.00526471
-0.0798724
0.0796659
0.000206523
0.00153837
-0.00254711