/*--------------------------------*- C++ -*----------------------------------*\
  =========                 |
  \\      /  F ield         | OpenFOAM: The Open Source CFD Toolbox
   \\    /   O peration     | Website:  https://openfoam.org
    \\  /    A nd           | Version:  6
     \\/     M anipulation  |
\*---------------------------------------------------------------------------*/
FoamFile
{
    version     2.0;
    format      ascii;
    class       volVectorField;
    location    "38";
    object      U;
}
// * * * * * * * * * * * * * * * * * * * * * * * * * * * * * * * * * * * * * //

dimensions      [0 1 -1 0 0 0 0];

internalField   nonuniform List<vector> 
8800
(
(0.987188 -0.0766667 0)
(1.0019 -0.0551917 0)
(0.999748 -0.0285505 0)
(1.00004 -0.0151426 0)
(1.00006 -0.00853743 0)
(1.00005 -0.0050352 0)
(1.00003 -0.00300341 0)
(0.999998 -0.00172336 0)
(0.999983 -0.000827392 0)
(1.00005 -0.0001133 0)
(0.999987 0.000610434 0)
(0.999999 0.00137037 0)
(1.00001 0.00239797 0)
(1.00002 0.00398119 0)
(1.00002 0.00661973 0)
(1.00001 0.011361 0)
(0.999909 0.0208085 0)
(0.999154 0.0386673 0)
(1.00709 0.0724553 0)
(0.771213 0.0366605 0)
(0.363046 -0.0160198 0)
(1.04329 -0.0768293 0)
(1.0846 -0.070471 0)
(1.04521 -0.0535742 0)
(1.02327 -0.038931 0)
(1.01194 -0.0262594 0)
(1.00635 -0.0169197 0)
(1.00355 -0.0104156 0)
(1.00213 -0.00576609 0)
(1.00144 -0.00211835 0)
(1.00131 0.00118342 0)
(1.00169 0.00455047 0)
(1.00267 0.00849651 0)
(1.00464 0.0138629 0)
(1.00858 0.0215978 0)
(1.01655 0.0325786 0)
(1.03247 0.0464971 0)
(1.06265 0.061622 0)
(1.09188 0.0760708 0)
(0.838715 0.0565498 0)
(0.216776 -0.00243235 0)
(1.07585 -0.0501703 0)
(1.09987 -0.0483618 0)
(1.06461 -0.0405202 0)
(1.03994 -0.0336631 0)
(1.02379 -0.0261526 0)
(1.01402 -0.0186163 0)
(1.00849 -0.0118456 0)
(1.00555 -0.00600494 0)
(1.00432 -0.000605989 0)
(1.00467 0.00462818 0)
(1.00661 0.010009 0)
(1.01059 0.0161173 0)
(1.01792 0.0231751 0)
(1.03054 0.0306748 0)
(1.05063 0.0377309 0)
(1.08035 0.0444348 0)
(1.1063 0.0512728 0)
(0.942654 0.0415817 0)
(0.216251 0.00245714 0)
(0.175058 -0.000819605 0)
(1.01755 -0.0355357 0)
(1.10514 -0.0414639 0)
(1.07819 -0.0361676 0)
(1.05332 -0.0302511 0)
(1.03603 -0.0247097 0)
(1.02387 -0.0190399 0)
(1.01579 -0.0129906 0)
(1.01097 -0.00682953 0)
(1.0088 -0.000535473 0)
(1.0094 0.00568934 0)
(1.01268 0.011692 0)
(1.01889 0.0175713 0)
(1.02878 0.0232039 0)
(1.04326 0.0285474 0)
(1.06379 0.0340559 0)
(1.09362 0.0400596 0)
(1.09354 0.0418543 0)
(0.827457 0.0228653 0)
(0.174173 0.000847376 0)
(0.153804 -0.000613681 0)
(0.955896 -0.0255204 0)
(1.10332 -0.0352332 0)
(1.08753 -0.0327761 0)
(1.0615 -0.0281325 0)
(1.04387 -0.0231383 0)
(1.03146 -0.0179702 0)
(1.02266 -0.0125276 0)
(1.0169 -0.00665635 0)
(1.01411 -0.00022437 0)
(1.01484 0.0062319 0)
(1.01885 0.0121118 0)
(1.02586 0.0174111 0)
(1.03617 0.022366 0)
(1.05077 0.0271887 0)
(1.07201 0.0317768 0)
(1.1002 0.0357549 0)
(1.06837 0.0338748 0)
(0.740115 0.0142483 0)
(0.152476 0.00064499 0)
(0.139371 -0.000470368 0)
(0.898798 -0.01915 0)
(1.09554 -0.0302187 0)
(1.09555 -0.0293659 0)
(1.06896 -0.0256613 0)
(1.05049 -0.0215734 0)
(1.0376 -0.0168828 0)
(1.02855 -0.0116657 0)
(1.02251 -0.00599496 0)
(1.01947 0.000256597 0)
(1.02017 0.00651897 0)
(1.02431 0.0121434 0)
(1.03144 0.0171527 0)
(1.04199 0.0216936 0)
(1.0572 0.025729 0)
(1.07944 0.029255 0)
(1.10254 0.0319271 0)
(1.03653 0.0279085 0)
(0.673903 0.010126 0)
(0.137503 0.00050632 0)
(0.128765 -0.000365156 0)
(0.848985 -0.0147948 0)
(1.08297 -0.0261019 0)
(1.10108 -0.0264473 0)
(1.07568 -0.0232166 0)
(1.05671 -0.0196481 0)
(1.04341 -0.0155023 0)
(1.03401 -0.0106874 0)
(1.02772 -0.00525242 0)
(1.02451 0.000829573 0)
(1.02511 0.00690299 0)
(1.02924 0.0122501 0)
(1.03653 0.0168201 0)
(1.04737 0.020754 0)
(1.06295 0.0241394 0)
(1.0856 0.0271475 0)
(1.10179 0.0289653 0)
(1.002 0.0233192 0)
(0.622541 0.00773734 0)
(0.126241 0.000407424 0)
(0.120653 -0.000284823 0)
(0.806598 -0.0116405 0)
(1.06751 -0.0225127 0)
(1.10449 -0.0238358 0)
(1.08182 -0.0209989 0)
(1.06239 -0.0176582 0)
(1.04878 -0.0138659 0)
(1.03912 -0.00942208 0)
(1.03258 -0.00428717 0)
(1.02914 0.00152945 0)
(1.02961 0.00729842 0)
(1.03374 0.012281 0)
(1.0411 0.0163889 0)
(1.05207 0.0198096 0)
(1.06796 0.02278 0)
(1.09102 0.0255379 0)
(1.09825 0.0265058 0)
(0.967286 0.0196917 0)
(0.581499 0.0061726 0)
(0.117334 0.000335219 0)
(0.11435 -0.000221671 0)
(0.770878 -0.00927238 0)
(1.05047 -0.0193345 0)
(1.10666 -0.0214496 0)
(1.0875 -0.0190614 0)
(1.06769 -0.0159098 0)
(1.05386 -0.0122503 0)
(1.04401 -0.00799589 0)
(1.03724 -0.00314052 0)
(1.03356 0.00236584 0)
(1.03385 0.00779459 0)
(1.03791 0.0123714 0)
(1.04527 0.0161003 0)
(1.05628 0.0192068 0)
(1.07236 0.0218499 0)
(1.0951 0.0242373 0)
(1.09197 0.0243935 0)
(0.933731 0.016836 0)
(0.547814 0.00508308 0)
(0.110063 0.000281816 0)
(0.109427 -0.000170754 0)
(0.740924 -0.00742555 0)
(1.03302 -0.0164984 0)
(1.10784 -0.0191088 0)
(1.09282 -0.0169878 0)
(1.07276 -0.013939 0)
(1.05867 -0.0104767 0)
(1.04863 -0.0064637 0)
(1.04166 -0.00184426 0)
(1.03775 0.00338423 0)
(1.03781 0.00848007 0)
(1.04169 0.0126625 0)
(1.04894 0.0159493 0)
(1.06 0.0186229 0)
(1.07629 0.0209547 0)
(1.09801 0.0230585 0)
(1.08344 0.0225202 0)
(0.902008 0.0145929 0)
(0.51951 0.00429767 0)
(0.103966 0.000242625 0)
(0.105601 -0.000128913 0)
(0.715928 -0.00592732 0)
(1.01595 -0.0139494 0)
(1.10822 -0.0169254 0)
(1.09809 -0.015143 0)
(1.07768 -0.0121373 0)
(1.06328 -0.00869057 0)
(1.05308 -0.00474752 0)
(1.04592 -0.000312081 0)
(1.04175 0.0046052 0)
(1.04152 0.00929414 0)
(1.04515 0.0130791 0)
(1.05222 0.016041 0)
(1.06323 0.0184499 0)
(1.07981 0.0205326 0)
(1.0997 0.0222234 0)
(1.07308 0.0209987 0)
(0.872265 0.0128717 0)
(0.495176 0.00373778 0)
(0.0987084 0.00021678 0)
(0.102687 -9.19896e-05 0)
(0.695309 -0.00465492 0)
(0.999907 -0.0115759 0)
(1.10773 -0.0146806 0)
(1.103 -0.0131623 0)
(1.08259 -0.0102056 0)
(1.06792 -0.00678195 0)
(1.05744 -0.00289724 0)
(1.04998 0.00138927 0)
(1.04547 0.00608501 0)
(1.04487 0.0104621 0)
(1.04822 0.013848 0)
(1.05515 0.0164185 0)
(1.06617 0.0184725 0)
(1.08285 0.020246 0)
(1.10035 0.0215479 0)
(1.06117 0.0196642 0)
(0.844498 0.0115295 0)
(0.473828 0.00332656 0)
(0.0940487 0.000198239 0)
(0.100572 -5.81422e-05 0)
(0.678616 -0.00352383 0)
(0.985435 -0.00934439 0)
(1.10684 -0.0123683 0)
(1.10768 -0.0109391 0)
(1.08739 -0.00794922 0)
(1.07237 -0.00457628 0)
(1.06157 -0.000789383 0)
(1.05378 0.00338592 0)
(1.04886 0.00786917 0)
(1.04781 0.0119107 0)
(1.0508 0.0149302 0)
(1.05753 0.0170919 0)
(1.06854 0.0187156 0)
(1.08531 0.02015 0)
(1.10006 0.0210933 0)
(1.04813 0.0186054 0)
(0.818512 0.0105197 0)
(0.454698 0.00304016 0)
(0.0898015 0.000187795 0)
(0.0991981 -2.38282e-05 0)
(0.665615 -0.00245283 0)
(0.972857 -0.00713709 0)
(1.10573 -0.00993943 0)
(1.11225 -0.00864521 0)
(1.09226 -0.00563582 0)
(1.07684 -0.00216288 0)
(1.0657 0.00167912 0)
(1.05751 0.00581116 0)
(1.05203 0.0100552 0)
(1.05047 0.0137098 0)
(1.05303 0.0162927 0)
(1.05947 0.0180542 0)
(1.07045 0.0193715 0)
(1.08737 0.0204901 0)
(1.09878 0.0209539 0)
(1.03405 0.017817 0)
(0.794029 0.00977826 0)
(0.437198 0.00284975 0)
(0.0858179 0.000183869 0)
(0.098558 1.1638e-05 0)
(0.656224 -0.00138916 0)
(0.962572 -0.00488081 0)
(1.10464 -0.00724564 0)
(1.11664 -0.00599737 0)
(1.09724 -0.00298012 0)
(1.0815 0.000614273 0)
(1.06994 0.00453849 0)
(1.06119 0.00861321 0)
(1.05508 0.0127148 0)
(1.05284 0.0160747 0)
(1.05492 0.018204 0)
(1.06105 0.0194845 0)
(1.07188 0.0203427 0)
(1.08865 0.0210499 0)
(1.09626 0.0209753 0)
(1.01904 0.0171763 0)
(0.770833 0.00923343 0)
(0.420888 0.00272937 0)
(0.0819796 0.000183926 0)
(0.0986751 4.14794e-05 0)
(0.650425 -0.000283424 0)
(0.954952 -0.00254963 0)
(1.10411 -0.00428663 0)
(1.12113 -0.00286761 0)
(1.10239 0.000310612 0)
(1.08621 0.00398455 0)
(1.07413 0.00794085 0)
(1.06483 0.012037 0)
(1.05801 0.0159732 0)
(1.05492 0.0189409 0)
(1.05624 0.0205693 0)
(1.06193 0.0213137 0)
(1.07267 0.021575 0)
(1.08926 0.0218555 0)
(1.09243 0.0212849 0)
(1.00335 0.0168647 0)
(0.748634 0.00893641 0)
(0.405352 0.00269403 0)
(0.0781871 0.000190099 0)
(0.0996134 0.000102275 0)
(0.648401 0.000907727 0)
(0.950276 -3.99061e-05 0)
(1.10447 -0.00103705 0)
(1.12598 0.000569228 0)
(1.10769 0.00390435 0)
(1.09098 0.00780162 0)
(1.07833 0.0119732 0)
(1.0682 0.0161549 0)
(1.06033 0.0199716 0)
(1.05627 0.0225703 0)
(1.05688 0.0236653 0)
(1.06206 0.0237993 0)
(1.07265 0.0235308 0)
(1.08881 0.0232362 0)
(1.08734 0.0219924 0)
(0.986747 0.0168338 0)
(0.727022 0.00884456 0)
(0.390164 0.00273209 0)
(0.0743154 0.000201547 0)
(0.101521 0.000144618 0)
(0.65011 0.00205898 0)
(0.948892 0.00270711 0)
(1.10593 0.00265713 0)
(1.13111 0.00450717 0)
(1.11342 0.00804823 0)
(1.09628 0.012322 0)
(1.08297 0.0168336 0)
(1.07198 0.0211755 0)
(1.06296 0.0248759 0)
(1.05765 0.0270459 0)
(1.05718 0.0275451 0)
(1.06164 0.0270445 0)
(1.07187 0.0261878 0)
(1.08721 0.0251757 0)
(1.08064 0.0230602 0)
(0.969176 0.0170994 0)
(0.705677 0.00898124 0)
(0.374959 0.00284175 0)
(0.0702745 0.000216888 0)
(0.104532 0.000210635 0)
(0.656509 0.00352544 0)
(0.95126 0.00568733 0)
(1.1091 0.00687924 0)
(1.13682 0.00928649 0)
(1.11964 0.0132423 0)
(1.10193 0.017886 0)
(1.08769 0.0226963 0)
(1.0755 0.0272386 0)
(1.06502 0.0308972 0)
(1.05817 0.0326533 0)
(1.05654 0.0324455 0)
(1.06024 0.0311389 0)
(1.07003 0.0295209 0)
(1.08421 0.0277633 0)
(1.07212 0.0246565 0)
(0.950505 0.0178727 0)
(0.684041 0.00941584 0)
(0.359278 0.00304172 0)
(0.0659755 0.000236176 0)
(0.108943 0.0002958 0)
(0.667743 0.00520995 0)
(0.95761 0.00904597 0)
(1.11456 0.0116347 0)
(1.14359 0.0147555 0)
(1.12654 0.0193376 0)
(1.1081 0.0245461 0)
(1.09281 0.0298637 0)
(1.07919 0.0347373 0)
(1.06687 0.0382768 0)
(1.0582 0.0394366 0)
(1.05515 0.0384585 0)
(1.05777 0.0362999 0)
(1.06702 0.0338373 0)
(1.07972 0.0312931 0)
(1.06173 0.0271044 0)
(0.930234 0.0192988 0)
(0.661403 0.010247 0)
(0.342501 0.00335875 0)
(0.0613105 0.000259939 0)
(0.11503 0.00040599 0)
(0.684348 0.00721351 0)
(0.968762 0.013016 0)
(1.12269 0.0171113 0)
(1.15174 0.0210485 0)
(1.13453 0.0264373 0)
(1.11519 0.0324442 0)
(1.09858 0.0384663 0)
(1.08318 0.04378 0)
(1.06865 0.0473464 0)
(1.05773 0.0479649 0)
(1.0529 0.0460692 0)
(1.05427 0.0429232 0)
(1.06277 0.0395713 0)
(1.07366 0.0361212 0)
(1.04905 0.0305955 0)
(0.907895 0.0215866 0)
(0.636807 0.0116025 0)
(0.323802 0.00382196 0)
(0.0561355 0.000290844 0)
(0.12321 0.000555602 0)
(0.706961 0.0097629 0)
(0.985244 0.0178219 0)
(1.13399 0.0236693 0)
(1.16161 0.0287349 0)
(1.14384 0.0352945 0)
(1.12328 0.0423599 0)
(1.10485 0.049247 0)
(1.0871 0.0550128 0)
(1.0698 0.058448 0)
(1.05628 0.0582707 0)
(1.04945 0.0552478 0)
(1.04944 0.0510066 0)
(1.05704 0.0466922 0)
(1.06586 0.0422077 0)
(1.0338 0.0352603 0)
(0.882864 0.0248701 0)
(0.609002 0.0134681 0)
(0.302291 0.00441449 0)
(0.0502769 0.000328109 0)
(0.134182 0.000773583 0)
(0.736604 0.0132729 0)
(1.00799 0.0239505 0)
(1.14948 0.0318828 0)
(1.17411 0.0385486 0)
(1.15508 0.0468089 0)
(1.13278 0.0551524 0)
(1.11194 0.062939 0)
(1.09125 0.0690182 0)
(1.07065 0.0719699 0)
(1.05403 0.0706194 0)
(1.04489 0.066207 0)
(1.04334 0.0606797 0)
(1.04998 0.055232 0)
(1.05605 0.0498173 0)
(1.01571 0.0413216 0)
(0.854161 0.029156 0)
(0.576711 0.0157601 0)
(0.277259 0.00509448 0)
(0.0436128 0.000368795 0)
(0.149127 0.00111583 0)
(0.775003 0.0183742 0)
(1.03844 0.0321822 0)
(1.17016 0.0426578 0)
(1.19025 0.0516353 0)
(1.1686 0.0618076 0)
(1.14359 0.0715654 0)
(1.11943 0.0801708 0)
(1.09498 0.0862868 0)
(1.07041 0.0883388 0)
(1.05037 0.0853586 0)
(1.0388 0.0792188 0)
(1.03567 0.0722279 0)
(1.04137 0.0655496 0)
(1.04416 0.0589803 0)
(0.994065 0.0487928 0)
(0.820493 0.0342529 0)
(0.538854 0.0183131 0)
(0.248322 0.00578732 0)
(0.0361205 0.000405276 0)
(0.170159 0.00171817 0)
(0.82535 0.0262327 0)
(1.07932 0.0442191 0)
(1.19687 0.0578296 0)
(1.21039 0.0695437 0)
(1.18451 0.0815639 0)
(1.15559 0.0926205 0)
(1.12712 0.101651 0)
(1.09814 0.107327 0)
(1.06906 0.108029 0)
(1.04527 0.103102 0)
(1.03104 0.0949789 0)
(1.0263 0.0862211 0)
(1.03084 0.078063 0)
(1.02959 0.069939 0)
(0.967719 0.0574918 0)
(0.780689 0.0399864 0)
(0.494785 0.0209811 0)
(0.215592 0.00642028 0)
(0.0279487 0.000428723 0)
(0.200622 0.00305886 0)
(0.893473 0.0396327 0)
(1.13327 0.0639115 0)
(1.22961 0.0809641 0)
(1.2341 0.0954183 0)
(1.20221 0.108717 0)
(1.16808 0.120147 0)
(1.13432 0.128631 0)
(1.10018 0.132854 0)
(1.06621 0.131304 0)
(1.03846 0.12369 0)
(1.0215 0.113177 0)
(1.01487 0.102462 0)
(1.01779 0.0925917 0)
(1.01121 0.0824317 0)
(0.935598 0.0672385 0)
(0.733704 0.04617 0)
(0.444748 0.0236507 0)
(0.180151 0.00696933 0)
(0.0195371 0.000431198 0)
(0.242397 0.00923652 1.17421e-20)
(0.983373 0.0664531 1.00215e-20)
(1.19806 0.0978758 -3.46834e-21)
(1.26584 0.116161 0)
(1.25861 0.133491 -8.5133e-35)
(1.21953 0.14626 1.23653e-21)
(1.17956 0.156329 -2.18658e-21)
(1.13996 0.162846 0)
(1.10017 0.164424 4.39851e-35)
(1.06084 0.159521 -2.62219e-21)
(1.0287 0.148326 0)
(1.00872 0.134868 -3.07543e-21)
(0.999879 0.122013 -9.04773e-21)
(1.00021 0.110619 -4.26816e-21)
(0.987963 0.0991356 -1.28264e-21)
(0.894177 0.0811353 -7.61798e-22)
(0.674301 0.0544572 0)
(0.386134 0.0273427 5.35166e-22)
(0.142863 0.00834949 6.34139e-22)
(0.0116171 0.000623633 1.15502e-20)
(0.270802 0.024478 9.14501e-21)
(1.0575 0.108802 1.05529e-22)
(1.25088 0.146422 9.51293e-22)
(1.29926 0.165001 0)
(1.28025 0.18227 -4.41099e-21)
(1.23449 0.193228 -4.95395e-21)
(1.18861 0.201239 -2.22836e-21)
(1.14289 0.205419 -7.80424e-21)
(1.09691 0.204214 0)
(1.05131 0.195925 1.11906e-20)
(1.01359 0.181295 1.10306e-20)
(0.989487 0.165057 3.26802e-21)
(0.977999 0.150225 1.1839e-20)
(0.975111 0.137475 1.65626e-20)
(0.952399 0.123298 0)
(0.837426 0.099879 2.33929e-20)
(0.604604 0.0659221 3.36647e-20)
(0.32725 0.0333789 3.7505e-20)
(0.110183 0.010462 -4.30619e-20)
(0.00521924 0.000524665 -8.17927e-22)
(0.271574 0.0407452 0)
(1.10408 0.163739 1.71216e-21)
(1.28706 0.20587 0)
(1.32561 0.224868 -6.11235e-21)
(1.29754 0.239025 0)
(1.24596 0.246495 -9.89257e-21)
(1.19432 0.25099 4.59301e-21)
(1.1427 0.251692 -1.58672e-20)
(1.09082 0.247067 -3.1582e-22)
(1.03938 0.235506 5.83064e-21)
(0.996582 0.218356 2.42798e-20)
(0.968523 0.200571 -6.08873e-23)
(0.954079 0.184662 -8.61424e-21)
(0.946785 0.169733 -1.56652e-20)
(0.914228 0.150524 1.85683e-20)
(0.792957 0.120955 -3.29568e-20)
(0.566965 0.0808785 -4.37694e-21)
(0.306701 0.0422178 0)
(0.105212 0.0140365 6.85595e-25)
(0.00491837 0.000653965 0)
(0.264781 0.0545609 2.57752e-20)
(1.1286 0.222243 -1.19904e-20)
(1.30991 0.270107 -8.537e-21)
(1.34327 0.289574 2.97007e-21)
(1.30899 0.299945 -4.94286e-21)
(1.25281 0.303182 2.08379e-20)
(1.19625 0.303447 9.64306e-21)
(1.1396 0.300122 0)
(1.08265 0.291877 -2.95816e-20)
(1.02623 0.277144 0)
(0.978959 0.257624 -1.28041e-20)
(0.947075 0.238124 -1.56898e-20)
(0.928399 0.220224 -9.4029e-21)
(0.914748 0.202071 -1.13981e-20)
(0.876012 0.178506 0)
(0.759956 0.144896 0)
(0.550454 0.100301 -2.86804e-20)
(0.308483 0.0557139 5.68263e-21)
(0.113245 0.0202213 -3.33242e-21)
(0.00756752 0.00139482 -3.9462e-21)
(0.257091 0.0668119 -1.25096e-20)
(1.1387 0.280532 0)
(1.3226 0.335328 1.85513e-20)
(1.35317 0.355449 8.62477e-21)
(1.31458 0.362019 1.12519e-20)
(1.2548 0.360861 0)
(1.19441 0.356809 9.57186e-21)
(1.13376 0.349501 1.76958e-20)
(1.07268 0.337612 1.52488e-20)
(1.01198 0.319539 2.75029e-20)
(0.960697 0.29691 0)
(0.924907 0.27461 -3.3893e-20)
(0.901491 0.253895 -2.03512e-20)
(0.881734 0.232751 -1.20151e-20)
(0.84041 0.207096 7.36951e-20)
(0.734203 0.171687 8.81545e-21)
(0.542693 0.123276 4.16508e-20)
(0.316796 0.072109 -1.97661e-19)
(0.125679 0.0287161 1.17292e-19)
(0.0116079 0.00278027 -1.43175e-19)
(0.249907 0.0778438 -8.70601e-21)
(1.13964 0.336781 2.32596e-21)
(1.32769 0.399663 -2.26469e-21)
(1.35669 0.420692 -9.59157e-21)
(1.31504 0.423567 -1.00049e-20)
(1.2525 0.4181 3.53517e-22)
(1.18922 0.409981 -1.03562e-20)
(1.12543 0.39895 1.83973e-20)
(1.06092 0.383477 -3.28212e-20)
(0.996485 0.361701 0)
(0.941396 0.33529 -1.5407e-20)
(0.90185 0.309496 -3.24446e-22)
(0.874061 0.285846 -2.22439e-20)
(0.849874 0.262639 0)
(0.808492 0.236107 -1.59574e-20)
(0.712069 0.199513 -3.80779e-20)
(0.537016 0.147563 1.02366e-19)
(0.325571 0.0900472 -1.0098e-19)
(0.137672 0.0384558 1.43772e-19)
(0.0154795 0.0045005 -1.51308e-19)
(0.244017 0.0881062 -1.03953e-22)
(1.13493 0.390419 -1.58574e-21)
(1.32711 0.462128 -7.56791e-21)
(1.35502 0.484258 4.22317e-21)
(1.31126 0.483707 -5.10099e-21)
(1.24676 0.474216 0)
(1.18128 0.46241 -9.84794e-21)
(1.11494 0.447911 -1.93173e-20)
(1.04748 0.428902 -1.71181e-20)
(0.97958 0.403155 0)
(0.920941 0.372621 -1.60297e-20)
(0.877972 0.343323 -1.9722e-20)
(0.846691 0.317066 2.41022e-20)
(0.819617 0.292499 -1.46025e-20)
(0.778974 0.265322 -6.95197e-20)
(0.691209 0.227634 4.16212e-20)
(0.530271 0.172246 1.25286e-20)
(0.331233 0.108228 0)
(0.146591 0.0484352 -1.38835e-19)
(0.0186138 0.00633609 -5.15445e-21)
(0.239523 0.0979232 -5.71542e-22)
(1.12695 0.441341 1.12162e-21)
(1.32235 0.522382 3.76682e-21)
(1.34921 0.545534 1.44909e-20)
(1.30408 0.541933 -1.94895e-20)
(1.23831 0.528874 2.09779e-20)
(1.1712 0.513776 2.11633e-20)
(1.1027 0.496035 -3.08721e-20)
(1.03254 0.473534 1.04054e-20)
(0.961401 0.44371 -6.7644e-20)
(0.899434 0.409019 -1.80469e-20)
(0.853549 0.376407 0)
(0.819709 0.347842 2.60953e-20)
(0.79096 0.322147 3.11898e-20)
(0.75138 0.294387 3.73391e-20)
(0.669483 0.255251 -4.50813e-20)
(0.520543 0.196431 -1.33952e-20)
(0.331554 0.125654 1.58006e-20)
(0.150735 0.057587 0)
(0.0204755 0.00797352 -1.11602e-20)
(0.236288 0.10742 1.32311e-21)
(1.11741 0.489642 -2.41224e-21)
(1.31467 0.580412 -3.65267e-21)
(1.34023 0.604206 9.23208e-21)
(1.29425 0.597963 -9.17456e-21)
(1.22778 0.581823 -8.19996e-22)
(1.15943 0.563824 -2.30219e-20)
(1.08905 0.543063 -1.11445e-20)
(1.01638 0.517134 -2.96928e-20)
(0.942156 0.48328 5.18548e-23)
(0.877115 0.444544 -5.6579e-20)
(0.828739 0.408722 4.73279e-20)
(0.793047 0.377959 -2.85664e-20)
(0.763344 0.350899 3.42477e-20)
(0.72475 0.321988 0)
(0.647499 0.280782 -2.4357e-20)
(0.507705 0.218359 -1.22894e-22)
(0.326864 0.14083 -6.86081e-20)
(0.15009 0.0648636 -1.01343e-20)
(0.0210065 0.00914549 0)
(0.234201 0.11681 0)
(1.10732 0.535593 -1.80434e-21)
(1.30483 0.635555 -5.4599e-21)
(1.32894 0.66008 -8.88734e-21)
(1.28245 0.651631 -1.11011e-20)
(1.21569 0.632896 0)
(1.14638 0.612331 -1.07225e-20)
(1.07434 0.588758 -2.34581e-22)
(0.999296 0.559553 6.35733e-20)
(0.922136 0.521809 -9.31741e-21)
(0.854205 0.479171 -4.08032e-20)
(0.803661 0.440185 2.46674e-20)
(0.766574 0.407129 -4.17787e-22)
(0.736254 0.378423 3.64027e-20)
(0.698368 0.348 2.24217e-20)
(0.624542 0.304251 -5.25544e-20)
(0.491859 0.23764 6.25337e-20)
(0.317236 0.15308 1.85558e-20)
(0.145562 0.0697984 7.68708e-20)
(0.0203603 0.00975006 -2.08033e-19)
(0.233158 0.126228 -1.37353e-21)
(1.09736 0.579374 7.11604e-22)
(1.29367 0.687928 4.04345e-22)
(1.31607 0.713121 7.80013e-21)
(1.26926 0.702824 0)
(1.20247 0.681928 -1.01624e-20)
(1.13241 0.659105 3.56663e-20)
(1.05885 0.63294 2.44945e-20)
(0.9816 0.600667 0)
(0.901613 0.559258 -1.33646e-19)
(0.830917 0.512854 1.10136e-19)
(0.778403 0.470687 0)
(0.740153 0.435147 3.32499e-20)
(0.709426 0.404519 -4.1199e-22)
(0.672037 0.372167 -7.15141e-20)
(0.600574 0.325326 2.80622e-20)
(0.472798 0.253679 0)
(0.303345 0.161986 9.99549e-20)
(0.13734 0.0723092 0)
(0.0186783 0.00976884 -9.82336e-20)
(0.232935 0.135697 2.17232e-21)
(1.08788 0.621133 2.4204e-21)
(1.28171 0.737539 7.8002e-22)
(1.30222 0.763328 0)
(1.25519 0.751502 -1.00958e-20)
(1.18852 0.728812 0)
(1.11784 0.70399 -3.56148e-20)
(1.04289 0.675468 -1.15721e-20)
(0.963564 0.640392 1.12831e-20)
(0.880847 0.595599 -6.60763e-20)
(0.807413 0.545579 1.14004e-20)
(0.752953 0.500157 0)
(0.713666 0.461918 -7.09824e-20)
(0.682592 0.429029 4.17576e-22)
(0.645492 0.394254 0)
(0.575474 0.343708 4.19122e-22)
(0.450871 0.266172 9.08013e-20)
(0.285631 0.167181 -8.62908e-20)
(0.126248 0.0725261 2.55518e-20)
(0.0163507 0.00926375 0)
(0.233147 0.14506 0)
(1.07907 0.660863 3.8953e-21)
(1.26942 0.784487 1.09362e-21)
(1.28786 0.810745 -4.83615e-22)
(1.24063 0.797648 -3.95234e-21)
(1.17415 0.773468 -2.27152e-20)
(1.10294 0.746892 1.32062e-20)
(1.02673 0.716255 -1.34639e-20)
(0.945441 0.678667 5.00904e-20)
(0.860046 0.630814 -1.05479e-19)
(0.783817 0.577354 -7.17781e-22)
(0.727345 0.528609 -3.125e-20)
(0.68699 0.487409 1.15004e-19)
(0.655581 0.451935 -4.88942e-22)
(0.618535 0.41426 -5.53474e-20)
(0.549094 0.359324 -9.90867e-20)
(0.42641 0.275153 0)
(0.264797 0.168805 0)
(0.112981 0.0703884 2.7561e-20)
(0.0136078 0.00829581 -1.63519e-20)
(0.234005 0.154435 4.22008e-21)
(1.07097 0.698657 -9.94432e-21)
(1.25707 0.828868 -1.25751e-21)
(1.27335 0.855446 0)
(1.22591 0.841277 -3.25506e-22)
(1.15963 0.815857 -2.14664e-20)
(1.08797 0.78775 3.23481e-20)
(1.01061 0.755249 5.34986e-20)
(0.927455 0.715465 6.52053e-20)
(0.839411 0.664903 -8.62109e-20)
(0.760278 0.608228 -9.43969e-20)
(0.701601 0.556117 8.3557e-20)
(0.660067 0.511687 0)
(0.628257 0.473251 -2.51166e-20)
(0.591053 0.432155 -5.98707e-20)
(0.521486 0.372057 -7.11262e-20)
(0.399604 0.28039 -8.46617e-20)
(0.241548 0.16688 2.51099e-20)
(0.0981271 0.0659582 -1.48254e-20)
(0.0105367 0.006899 6.01046e-23)
(0.235047 0.163649 0)
(1.06357 0.734847 0)
(1.24485 0.870776 5.39483e-22)
(1.25893 0.897522 0)
(1.21127 0.882446 1.038e-20)
(1.14519 0.855984 1.51157e-20)
(1.07312 0.826547 0)
(0.994713 0.792433 6.43518e-21)
(0.909804 0.750772 1.08907e-19)
(0.819138 0.69788 -1.9804e-19)
(0.736952 0.638278 0)
(0.675806 0.582809 -5.36997e-20)
(0.632843 0.534877 -5.91558e-22)
(0.600482 0.493008 -4.78016e-22)
(0.562947 0.44786 6.39539e-20)
(0.492674 0.381742 -7.35234e-23)
(0.370562 0.281782 -1.82216e-19)
(0.216237 0.161358 5.40223e-20)
(0.0827205 0.0597603 1.60252e-20)
(0.00747757 0.00525538 0)
(0.236077 0.172744 -2.00024e-20)
(1.0566 0.769422 -8.43319e-21)
(1.23282 0.910279 -8.16576e-21)
(1.24481 0.937078 -6.90834e-22)
(1.1969 0.921203 1.50877e-20)
(1.13099 0.893875 0)
(1.05858 0.863296 1.98245e-20)
(0.979218 0.827811 -1.423e-20)
(0.892656 0.784593 7.87628e-22)
(0.799407 0.72977 1.45345e-20)
(0.714006 0.667582 1.22108e-19)
(0.650049 0.608854 -1.88547e-20)
(0.605253 0.557159 -7.07885e-20)
(0.572074 0.511265 -2.92349e-20)
(0.534043 0.461207 3.479e-20)
(0.462742 0.388046 -3.76245e-23)
(0.340218 0.279171 4.91329e-20)
(0.190248 0.152705 -1.16218e-19)
(0.0674834 0.0522734 1.37926e-19)
(0.00459047 0.0034998 2.03629e-20)
(0.23687 0.181594 8.04271e-21)
(1.05002 0.80245 -5.07195e-21)
(1.22113 0.947499 1.27769e-21)
(1.23109 0.974242 2.18919e-21)
(1.18292 0.957645 -1.81904e-21)
(1.11716 0.929577 -2.67611e-20)
(1.04447 0.898026 5.95879e-21)
(0.964257 0.861396 -5.94344e-20)
(0.876157 0.816925 -1.20154e-19)
(0.780368 0.760575 -1.18066e-19)
(0.691602 0.696207 0)
(0.624424 0.634419 -8.25031e-20)
(0.577281 0.578793 1.01866e-19)
(0.54279 0.528155 0)
(0.504035 0.471946 -7.44737e-20)
(0.431704 0.390425 4.46148e-20)
(0.309224 0.272263 -5.2794e-20)
(0.16479 0.141282 -6.25829e-20)
(0.0533282 0.0440685 -1.11134e-19)
(0.0020508 0.0017774 -8.77435e-20)
(0.237968 0.190281 -9.55697e-21)
(1.04367 0.83389 5.44174e-21)
(1.20979 0.982496 1.16759e-20)
(1.21785 1.0091 4.81449e-21)
(1.16943 0.991856 4.59498e-21)
(1.10381 0.963162 -1.4945e-20)
(1.03089 0.93078 1.9689e-20)
(0.949928 0.893223 -6.12532e-20)
(0.860403 0.847784 -7.11425e-20)
(0.762154 0.790303 1.23545e-19)
(0.669885 0.724205 2.67946e-19)
(0.599079 0.659662 0)
(0.548965 0.60009 0)
(0.512338 0.543976 -3.36656e-20)
(0.472341 0.479857 0)
(0.399303 0.387951 9.60675e-20)
(0.278518 0.260238 1.13694e-19)
(0.141713 0.127176 0)
(0.0415318 0.0357371 0)
(1.7913e-05 0.000241059 9.43448e-20)
(0.23867 0.19847 1.13771e-20)
(1.03754 0.863719 8.89097e-21)
(1.19885 1.01538 8.74533e-21)
(1.20512 1.04178 -6.64343e-21)
(1.15649 1.02393 3.32644e-21)
(1.091 0.994698 1.60801e-20)
(1.01792 0.961613 -2.70973e-20)
(0.936306 0.923322 3.16571e-23)
(0.845481 0.877174 -1.02563e-21)
(0.744869 0.818947 -1.11943e-21)
(0.649025 0.751614 1.37974e-19)
(0.574189 0.684706 0)
(0.520412 0.621357 1.0285e-19)
(0.480481 0.559214 7.17759e-20)
(0.438066 0.485067 1.73903e-19)
(0.364549 0.379427 5.17075e-20)
(0.248872 0.240846 -6.13447e-20)
(0.124692 0.108411 -3.61116e-20)
(0.0366165 0.0265332 0)
(-0.000501303 -0.000892388 1.01424e-19)
(0.239669 0.206648 -2.67905e-20)
(1.03161 0.892105 0)
(1.18827 1.0462 1.1403e-20)
(1.19292 1.07237 -6.44786e-21)
(1.14413 1.05397 -1.0896e-21)
(1.07877 1.02427 -1.83878e-20)
(1.00559 0.990583 5.32527e-20)
(0.923436 0.951727 -5.01402e-21)
(0.831438 0.905105 0)
(0.728598 0.84647 -1.36435e-19)
(0.629184 0.778443 -2.9984e-19)
(0.549949 0.709651 1.21662e-20)
(0.49184 0.642842 1.41458e-19)
(0.447154 0.574488 0)
(0.400169 0.488421 1.17258e-19)
(0.325033 0.364333 0)
(0.218179 0.209825 0)
(0.117681 0.073093 -3.91554e-20)
(0.0613149 0.0028349 0)
(0.0253268 0.00601891 2.71983e-20)
(0.24019 0.21421 -3.0825e-20)
(1.02581 0.919191 0)
(1.17804 1.07516 1.99143e-20)
(1.18119 1.10109 0)
(1.1323 1.08222 -4.5881e-22)
(1.06705 1.05215 0)
(0.993859 1.018 2.75139e-21)
(0.911233 0.978786 8.43102e-21)
(0.818169 0.931952 8.91202e-21)
(0.713194 0.873267 -1.49872e-19)
(0.610219 0.805146 9.0349e-21)
(0.526169 0.735098 9.77009e-20)
(0.462951 0.665181 1.37969e-19)
(0.411733 0.590656 1.85682e-20)
(0.357065 0.491878 9.18048e-20)
(0.276345 0.344468 0)
(0.175957 0.16623 1.29689e-19)
(0.0925348 0.0180727 -7.63673e-20)
(0.0328826 0.0570639 8.9104e-20)
(-0.0382238 0.448972 -1.05802e-19)
(0.240619 0.221577 2.60652e-20)
(1.01995 0.944896 3.82032e-20)
(1.16807 1.10258 0)
(1.16978 1.12838 1.10495e-21)
(1.12082 1.10926 3.42664e-21)
(1.05561 1.07906 2.44837e-20)
(0.98242 1.04469 1.88033e-20)
(0.899306 1.00546 0)
(0.80516 0.958832 5.94309e-20)
(0.697997 0.900655 -7.86116e-21)
(0.591236 0.833213 0)
(0.501684 0.762825 0)
(0.432195 0.690146 1.23131e-19)
(0.372403 0.609013 -5.72114e-20)
(0.306117 0.498208 -9.26218e-20)
(0.214484 0.324869 0)
(0.0989964 0.159333 6.58981e-20)
(0.00920301 0.462866 -7.69323e-20)
(0.0336585 1.91193 -4.3418e-20)
(0.0608759 2.81669 -5.29761e-20)
(0.240634 0.228336 -2.02683e-20)
(1.01407 0.969392 -5.02932e-20)
(1.15836 1.12843 1.25605e-20)
(1.15869 1.15411 8.69327e-21)
(1.10975 1.1349 0)
(1.04452 1.1047 1.45468e-20)
(0.971476 1.07032 2.61083e-20)
(0.887841 1.03131 -4.10511e-21)
(0.792684 0.98522 8.82933e-21)
(0.683387 0.928018 1.42724e-19)
(0.572853 0.861957 1.51263e-19)
(0.47749 0.792507 1.0885e-19)
(0.400598 0.717497 1.23428e-19)
(0.331064 0.628244 -1.33579e-19)
(0.254325 0.510136 -1.39305e-19)
(0.137962 0.359507 0)
(0.047068 0.867485 0)
(0.0943888 2.571 3.67129e-20)
(0.0966176 3.20442 0)
(0.0972679 3.38654 9.64997e-20)
(0.24341 0.234576 0)
(1.0084 0.993016 0)
(1.14862 1.15259 0)
(1.14768 1.17808 2.95322e-21)
(1.0988 1.15891 4.07883e-21)
(1.03356 1.12894 7.59617e-21)
(0.960956 1.09481 1.69089e-20)
(0.876772 1.05621 -4.02145e-21)
(0.780679 1.01095 7.44484e-20)
(0.669358 0.955193 -2.02433e-21)
(0.555168 0.891166 2.98524e-19)
(0.454027 0.82418 -1.24922e-20)
(0.368388 0.747728 1.49491e-20)
(0.290162 0.646073 1.92704e-20)
(0.193788 0.531055 -2.03913e-22)
(0.104039 1.00833 3.31081e-22)
(0.13464 2.7428 -1.90062e-19)
(0.140312 3.29768 -7.26485e-20)
(0.128936 3.42453 3.91092e-20)
(0.116509 3.44485 -4.43123e-20)
(0.165501 0.179355 1.28848e-20)
(0.998696 1.01846 0)
(1.13879 1.17533 -2.77105e-20)
(1.13708 1.20058 -2.59732e-20)
(1.0884 1.18178 1.47674e-20)
(1.0234 1.15222 -6.77702e-21)
(0.950645 1.11817 -1.76426e-20)
(0.866141 1.0802 4.58721e-20)
(0.76927 1.03603 -6.13536e-20)
(0.656178 0.982214 0)
(0.538506 0.920841 1.4705e-19)
(0.431875 0.857654 -8.8664e-20)
(0.336111 0.783617 0)
(0.24416 0.66828 1.84593e-20)
(0.147795 0.838594 4.45471e-20)
(0.149132 2.53578 -5.15008e-20)
(0.20026 3.33044 5.91311e-20)
(0.180641 3.43878 3.23214e-20)
(0.149149 3.4573 3.74187e-20)
(0.128589 3.46568 6.03926e-20)
(0.279115 0.274021 -2.46003e-20)
(0.982851 1.02995 0)
(1.12139 1.20148 3.1215e-20)
(1.12268 1.23389 3.11735e-20)
(1.07214 1.21592 -1.99845e-20)
(1.00664 1.18699 1.36871e-21)
(0.93285 1.15436 1.76869e-20)
(0.847659 1.11759 3.55288e-21)
(0.749359 1.07549 5.86356e-20)
(0.633394 1.02546 1.23653e-19)
(0.510504 0.969823 8.31407e-21)
(0.395401 0.914391 7.85155e-20)
(0.280402 0.845897 1.4018e-20)
(0.212069 1.01357 -1.76665e-20)
(0.21869 2.40324 -4.07348e-20)
(0.269944 3.33847 4.13549e-20)
(0.253562 3.46901 -4.59964e-20)
(0.21836 3.48658 -2.68735e-20)
(0.183526 3.51007 -2.51975e-20)
(0.137743 3.50351 -3.68969e-21)
(0.269639 0.273127 0)
(0.980657 1.05332 9.76332e-21)
(1.11343 1.22525 -6.6561e-21)
(1.11257 1.25742 -3.95496e-21)
(1.06173 1.23939 -1.52738e-20)
(0.996344 1.21079 -5.88148e-23)
(0.922238 1.17843 -9.55376e-21)
(0.836857 1.14248 3.20048e-21)
(0.738078 1.10182 -6.11755e-20)
(0.620913 1.05454 -2.97502e-21)
(0.495491 1.0034 -2.65249e-19)
(0.376114 0.953195 1.11548e-20)
(0.269879 0.921592 -1.32745e-20)
(0.247589 1.57065 -1.63259e-20)
(0.307846 3.13883 3.60976e-21)
(0.323384 3.47328 4.25969e-22)
(0.281392 3.52062 7.02948e-20)
(0.246609 3.54116 3.65612e-20)
(0.200259 3.5602 -1.33906e-20)
(0.149509 3.55529 -1.91655e-20)
(0.255537 0.271235 2.57144e-20)
(0.977586 1.07933 6.70528e-20)
(1.10512 1.25114 -1.9208e-20)
(1.10206 1.28252 -1.49744e-20)
(1.05097 1.26436 0)
(0.985712 1.23587 7.05775e-21)
(0.911535 1.20381 -1.05535e-20)
(0.826222 1.16862 2.82569e-21)
(0.727273 1.12947 -6.76733e-21)
(0.609431 1.08516 -1.12044e-19)
(0.482327 1.03899 -1.22478e-19)
(0.359954 0.995175 -9.21123e-20)
(0.274042 1.06354 -9.95044e-20)
(0.310121 2.29414 1.02699e-19)
(0.386561 3.39907 8.95301e-20)
(0.3618 3.5325 0)
(0.312468 3.56687 0)
(0.275461 3.5992 -1.05496e-20)
(0.229549 3.64442 0)
(0.159659 3.62629 -1.82931e-20)
(0.245504 0.273234 -3.92267e-20)
(0.972544 1.10627 -5.7851e-20)
(1.09547 1.27831 0)
(1.0904 1.30856 1.33835e-21)
(1.03909 1.29002 -1.92307e-20)
(0.974059 1.26153 1.56614e-20)
(0.900118 1.22977 -4.80193e-21)
(0.815095 1.19526 1.76323e-21)
(0.716225 1.15755 -4.36648e-20)
(0.598118 1.11618 5.65869e-21)
(0.470131 1.07513 0)
(0.349472 1.04201 0)
(0.3016 1.3399 -9.07388e-20)
(0.385754 2.95927 3.73666e-20)
(0.451521 3.50281 4.89924e-20)
(0.39979 3.56803 0)
(0.357259 3.62198 -8.09552e-21)
(0.314957 3.66707 1.06965e-22)