/*--------------------------------*- C++ -*----------------------------------*\
  =========                 |
  \\      /  F ield         | OpenFOAM: The Open Source CFD Toolbox
   \\    /   O peration     | Website:  https://openfoam.org
    \\  /    A nd           | Version:  6
     \\/     M anipulation  |
\*---------------------------------------------------------------------------*/
FoamFile
{
    version     2.0;
    format      ascii;
    class       surfaceScalarField;
    location    "82.8";
    object      phi;
}
// * * * * * * * * * * * * * * * * * * * * * * * * * * * * * * * * * * * * * //

dimensions      [0 3 -1 0 0 0 0];

internalField   nonuniform List<scalar> 
17370
(
-0.0900002
0.0898492
0.289162
-0.0714626
0.0537526
0.364486
-0.0381193
0.02769
0.426597
-0.019638
0.0146048
0.504285
-0.0107625
0.00827185
0.601893
-0.00627189
0.00489524
0.720434
-0.00373133
0.00289092
0.863747
-0.00214969
0.00159081
1.03601
-0.00107445
0.000662264
1.24292
-0.00025534
-0.000139765
1.49159
0.000518859
-0.000929217
1.4916
0.00132788
-0.00181745
1.24318
0.00234439
-0.00304903
1.03634
0.00386213
-0.00500582
0.86405
0.00637153
-0.0083641
0.72105
0.010849
-0.0146846
0.60305
0.019711
-0.027755
0.507483
0.0381765
-0.0538007
0.431792
0.071502
-0.0898756
0.365149
0.0900162
0.198995
-0.128137
0.0882275
0.0399093
-0.364599
0.35338
-0.0746713
0.085891
-0.446476
0.454321
-0.0843874
0.0765428
-0.521191
0.529903
-0.0684452
0.0597332
-0.612789
0.62157
-0.0515436
0.042763
-0.726895
0.734165
-0.0353012
0.0280305
-0.867476
0.872592
-0.0224286
0.0173118
-1.03847
1.04193
-0.0135011
0.0100505
-1.2446
1.24703
-0.00743904
0.00500511
-1.49262
1.4946
-0.00305581
0.00107461
-1.4925
1.49423
0.000600004
-0.00232471
-1.24398
1.24586
0.00422946
-0.00611477
-1.03751
1.04003
0.00847035
-0.0109961
-0.8661
0.869826
0.0143452
-0.0180711
-0.72439
0.729933
0.02311
-0.0286527
-0.608697
0.61611
0.0358665
-0.0432796
-0.514896
0.523039
0.0520086
-0.0601517
-0.439856
0.447913
0.0688135
-0.0768713
-0.375295
0.376738
0.0846675
-0.0861111
-0.25733
0.222476
0.0748206
-0.0399669
-0.068521
0.0586961
0.00982488
-0.0518053
0.0583866
-0.374129
0.367548
-0.0574688
0.0537149
-0.453596
0.45735
-0.0486232
0.0446689
-0.527949
0.531904
-0.0408268
0.0371856
-0.621566
0.625207
-0.0330813
0.0290031
-0.735352
0.73943
-0.0244301
0.0202684
-0.874344
0.878506
-0.01592
0.0122237
-1.04349
1.04719
-0.00848345
0.00530805
-1.24856
1.25174
-0.00197738
-0.00109731
-1.49666
1.49973
0.00414592
-0.00741327
-1.4972
1.50047
0.0104943
-0.0140992
-1.25007
1.25367
0.017652
-0.0218346
-1.04592
1.0501
0.025855
-0.030291
-0.877758
0.882194
0.0342591
-0.0382543
-0.739897
0.743892
0.0418026
-0.0455484
-0.62677
0.630516
0.04942
-0.0544327
-0.534808
0.53982
0.0581001
-0.0589096
-0.457471
0.458281
0.0522011
-0.0319944
-0.335746
0.315539
0.0098893
-0.0683416
0.0584523
-0.0529468
0.0489531
0.00399365
-0.0331494
0.0436888
-0.358119
0.347579
-0.0473822
0.0467511
-0.459291
0.459922
-0.0436916
0.0403354
-0.535808
0.539164
-0.0365589
0.0332513
-0.628535
0.631843
-0.0298094
0.0267739
-0.742656
0.745692
-0.0235112
0.0204009
-0.882027
0.885138
-0.0168666
0.0134835
-1.05078
1.05416
-0.00968619
0.00614419
-1.25518
1.25872
-0.00217177
-0.00162741
-1.50325
1.50704
0.00539383
-0.00926836
-1.50413
1.50801
0.0126767
-0.0162865
-1.25741
1.26102
0.0194701
-0.0227725
-1.05391
1.05721
0.0256827
-0.0287477
-0.88568
0.888745
0.0316217
-0.0349026
-0.747148
0.750429
0.0380741
-0.0417118
-0.634298
0.637936
0.044949
-0.0478728
-0.544127
0.547051
0.0483609
-0.0444667
-0.456563
0.452668
0.0336876
-0.0162287
-0.296167
0.278708
0.00407387
-0.0526306
0.0485567
-0.0458776
0.0433848
0.00249283
-0.0227882
0.0331573
-0.336897
0.326528
-0.03897
0.0399807
-0.459611
0.4586
-0.0387848
0.0364935
-0.541886
0.544177
-0.0338209
0.0312199
-0.634897
0.637498
-0.0281512
0.0252468
-0.748741
0.751645
-0.0219765
0.0189777
-0.888096
0.891094
-0.0156671
0.0125626
-1.0573
1.06041
-0.00903115
0.00561791
-1.26218
1.26559
-0.00165102
-0.00223522
-1.51093
1.51482
0.00607746
-0.00991341
-1.5119
1.51573
0.0131494
-0.0164346
-1.26445
1.26774
0.0192776
-0.0222837
-1.06032
1.06332
0.025017
-0.0280219
-0.891792
0.894797
0.0307066
-0.0335546
-0.75363
0.756478
0.0359692
-0.0384546
-0.640997
0.643482
0.0405855
-0.0415702
-0.548849
0.549834
0.0403383
-0.0342027
-0.447379
0.441243
0.0234805
-0.0102478
-0.263476
0.250244
0.00259202
-0.0453905
0.0427985
-0.0413127
0.0395491
0.0017636
-0.0167215
0.0259586
-0.316687
0.30745
-0.0325503
0.0346803
-0.457007
0.454877
-0.0342509
0.0325738
-0.546159
0.547836
-0.030386
0.0282844
-0.639807
0.641909
-0.0258457
0.0234415
-0.754295
0.756699
-0.0205754
0.017779
-0.893996
0.896792
-0.0145346
0.0114579
-1.06346
1.06653
-0.00795974
0.00462744
-1.26892
1.27225
-0.000788871
-0.00294784
-1.51861
1.52234
0.00662825
-0.0102989
-1.51946
1.52313
0.0134036
-0.0165862
-1.27097
1.27416
0.0193283
-0.0221833
-1.06635
1.06921
0.0246389
-0.0271624
-0.897601
0.900125
0.0292825
-0.0314362
-0.758921
0.761075
0.0332994
-0.0352463
-0.645629
0.647576
0.036691
-0.0368336
-0.550343
0.550485
0.0343644
-0.0272996
-0.434561
0.427496
0.0175863
-0.00742243
-0.238694
0.228531
0.00188479
-0.0406154
0.0387306
-0.0380308
0.0367061
0.00132473
-0.0127527
0.0206781
-0.298874
0.290948
-0.0274072
0.030314
-0.452329
0.449422
-0.0305053
0.029375
-0.549274
0.550404
-0.0273722
0.0254464
-0.643951
0.645877
-0.023236
0.0210888
-0.758946
0.761093
-0.0185623
0.016068
-0.899375
0.901869
-0.0131131
0.010222
-1.06948
1.07237
-0.00684744
0.00359572
-1.27552
1.27877
0.000160362
-0.00379428
-1.526
1.52963
0.00735789
-0.0109035
-1.52672
1.53027
0.0138706
-0.0168511
-1.27728
1.28026
0.0193237
-0.0217913
-1.07194
1.07441
0.0238587
-0.0259545
-0.902399
0.904495
0.0277426
-0.0295916
-0.763048
0.764897
0.0312161
-0.0329262
-0.649386
0.651096
0.0337182
-0.0331253
-0.550262
0.54967
0.029733
-0.0223558
-0.420217
0.41284
0.0138179
-0.00576251
-0.219521
0.211465
0.00147216
-0.037077
0.0356048
-0.0355501
0.0345315
0.00101864
-0.00994638
0.0166338
-0.283668
0.27698
-0.0230866
0.0264366
-0.446274
0.442924
-0.0271983
0.0264838
-0.55132
0.552034
-0.0247112
0.0229143
-0.647781
0.649578
-0.0208295
0.0187989
-0.763176
0.765206
-0.0164107
0.0140674
-0.904218
0.906561
-0.0113102
0.00860779
-1.0751
1.0778
-0.00543157
0.0023313
-1.28191
1.28501
0.00129232
-0.00481286
-1.53319
1.53671
0.00824609
-0.0116081
-1.53371
1.53707
0.0143562
-0.0170461
-1.2831
1.28579
0.0192319
-0.0213876
-1.07678
1.07894
0.0232037
-0.025059
-0.906457
0.908312
0.0266447
-0.0282812
-0.766633
0.768269
0.0297045
-0.0310718
-0.652663
0.65403
0.0313671
-0.0300355
-0.548719
0.547387
0.0260164
-0.0187097
-0.40547
0.398163
0.0112521
-0.00466493
-0.204212
0.197625
0.00119793
-0.0342844
0.0330864
-0.0336388
0.0328481
0.000790689
-0.00786173
0.0134684
-0.270863
0.265257
-0.0194253
0.0229624
-0.439471
0.435934
-0.0241926
0.0237207
-0.552662
0.553134
-0.0222101
0.0205188
-0.651373
0.653064
-0.0185243
0.0165746
-0.767189
0.769139
-0.0142729
0.0120121
-0.908796
0.911057
-0.00935303
0.00675668
-1.08038
1.08297
-0.00371761
0.000757175
-1.28799
1.29095
0.0026984
-0.00604744
-1.54013
1.54348
0.00928911
-0.0124232
-1.54029
1.54343
0.0149521
-0.0173962
-1.28837
1.29081
0.0193598
-0.0212819
-1.08107
1.08299
0.0228958
-0.0245421
-0.910055
0.911701
0.0259446
-0.0273874
-0.7698
0.771243
0.0286116
-0.0295934
-0.655198
0.65618
0.0295121
-0.0275055
-0.545714
0.543708
0.0230747
-0.0160221
-0.390975
0.383923
0.00945825
-0.00390864
-0.191604
0.186054
0.00100861
-0.0319938
0.0309852
-0.032156
0.0315426
0.000613341
-0.00624858
0.0109305
-0.260141
0.255459
-0.0162855
0.019812
-0.432404
0.428877
-0.0213555
0.0211035
-0.553535
0.553787
-0.0198188
0.0181825
-0.654776
0.656412
-0.0162389
0.0143336
-0.771055
0.77296
-0.0120851
0.00987728
-0.913214
0.915421
-0.00728067
0.00474921
-1.08546
1.08799
-0.00179531
-0.00106419
-1.2938
1.29666
0.00437292
-0.00754846
-1.5467
1.54988
0.010593
-0.0135096
-1.54642
1.54933
0.0158434
-0.0180728
-1.29317
1.2954
0.0198326
-0.021531
-1.08492
1.08662
0.0229499
-0.0243973
-0.913234
0.914681
0.0256317
-0.0268976
-0.772586
0.773852
0.0279779
-0.0285367
-0.656957
0.657516
0.0280706
-0.0254906
-0.541417
0.538837
0.0207993
-0.0140613
-0.377032
0.370294
0.00819736
-0.00338426
-0.180909
0.176095
0.000878033
-0.0300504
0.0291724
-0.0310103
0.0305413
0.000469028
-0.00494542
0.00882796
-0.251204
0.247322
-0.0135364
0.016903
-0.425442
0.422075
-0.0186189
0.0185501
-0.553993
0.554062
-0.0174512
0.0158455
-0.6581
0.659706
-0.0139181
0.0120217
-0.774844
0.77674
-0.00978483
0.00759454
-0.91753
0.91972
-0.00502789
0.00253562
-1.09042
1.09291
0.00035926
-0.00314421
-1.29942
1.30221
0.00633977
-0.00937349
-1.55294
1.55598
0.0122483
-0.0149684
-1.55211
1.55483
0.0171175
-0.0191362
-1.29754
1.29956
0.0206937
-0.0221711
-1.08835
1.08983
0.0234037
-0.0246669
-0.916016
0.91728
0.0257494
-0.0268546
-0.775023
0.776129
0.02773
-0.0279245
-0.657881
0.658076
0.027031
-0.0239583
-0.53601
0.532937
0.0190988
-0.0126614
-0.363721
0.357284
0.00732385
-0.00302769
-0.171571
0.167274
0.000790837
-0.0283457
0.0275549
-0.0301417
0.0297954
0.000346336
-0.00384911
0.00702728
-0.243817
0.240639
-0.0110768
0.0141726
-0.418864
0.415768
-0.0159327
0.0160088
-0.554114
0.554038
-0.0149823
0.0134423
-0.661354
0.662894
-0.0115018
0.00958011
-0.778626
0.780548
-0.00731458
0.00510493
-0.921817
0.924026
-0.0025291
4.25223e-05
-1.0953
1.09779
0.00282695
-0.00556639
-1.30491
1.30765
0.0086799
-0.0115991
-1.55891
1.56183
0.0143252
-0.016861
-1.55741
1.55995
0.0188297
-0.0206389
-1.30149
1.30329
0.0219947
-0.0232544
-1.09136
1.09262
0.0243073
-0.0253953
-0.91843
0.919518
0.0263341
-0.027277
-0.777129
0.778072
0.027891
-0.0277866
-0.658125
0.65802
0.0264343
-0.0229036
-0.52964
0.52611
0.0179123
-0.0117146
-0.350988
0.34479
0.00674956
-0.00280013
-0.163178
0.159229
0.000737377
-0.0267982
0.0260608
-0.0295117
0.0292754
0.000236261
-0.00288363
0.0054239
-0.237804
0.235264
-0.00881381
0.0115548
-0.412876
0.410135
-0.0132435
0.0133894
-0.553991
0.553845
-0.0123971
0.0108903
-0.664502
0.666009
-0.0089127
0.00693589
-0.782465
0.784442
-0.00460542
0.00234078
-0.926145
0.928409
0.000285684
-0.00280481
-1.10018
1.1027
0.00568927
-0.00841723
-1.3103
1.31303
0.0114823
-0.0143138
-1.56466
1.56749
0.0169122
-0.0192794
-1.56235
1.56472
0.021078
-0.0226846
-1.30502
1.30663
0.0238393
-0.0248763
-1.09398
1.09501
0.0257429
-0.0266461
-0.920486
0.921389
0.0274302
-0.0282075
-0.778868
0.779646
0.0285362
-0.0281084
-0.657775
0.657347
0.0262926
-0.0223208
-0.52238
0.518409
0.0171937
-0.0111467
-0.338696
0.332649
0.00641629
-0.00267546
-0.155408
0.151667
0.000710805
-0.0253439
0.0246331
-0.0290989
0.0289677
0.000131183
-0.00198529
0.00392453
-0.233048
0.231109
-0.00664839
0.00896312
-0.407638
0.405323
-0.0104715
0.0106079
-0.553783
0.553647
-0.009615
0.00810162
-0.667621
0.669134
-0.00605709
0.00399241
-0.786417
0.788482
-0.00155749
-0.000799441
-0.930584
0.932941
0.00351785
-0.00610719
-1.10514
1.10773
0.00904719
-0.0117981
-1.31569
1.31844
0.0148463
-0.017612
-1.57024
1.573
0.0200967
-0.0223042
-1.56694
1.56915
0.0239376
-0.0253416
-1.30815
1.30955
0.0262894
-0.0270984
-1.09618
1.09699
0.027769
-0.0284753
-0.922165
0.922871
0.029104
-0.0297413
-0.780252
0.780889
0.0297285
-0.0288932
-0.656734
0.655898
0.026604
-0.0221889
-0.514256
0.509841
0.0168936
-0.0108963
-0.326661
0.320664
0.00627912
-0.00263364
-0.147998
0.144352
0.000705846
-0.0239321
0.0232262
-0.0288968
0.0288719
2.48633e-05
-0.00110588
0.00245654
-0.229486
0.228135
-0.00449838
0.00632179
-0.403288
0.401465
-0.00754581
0.00759007
-0.553656
0.553611
-0.00654774
0.0049873
-0.670792
0.672353
-0.00283344
0.000645598
-0.790548
0.792735
0.00193482
-0.00442298
-0.935209
0.937697
0.00727792
-0.00997938
-1.11024
1.11294
0.0130202
-0.0158324
-1.32113
1.32394
0.0189005
-0.0216271
-1.57569
1.57842
0.0240155
-0.0260721
-1.57121
1.57327
0.0275422
-0.0287416
-1.31086
1.31206
0.0294829
-0.0300592
-1.09796
1.09853
0.0305278
-0.0310249
-0.923446
0.923943
0.0314737
-0.0318585
-0.781267
0.781652
0.0315536
-0.0302335
-0.65487
0.65355
0.0274296
-0.0225306
-0.505242
0.500342
0.0170013
-0.0109366
-0.314673
0.308608
0.0063164
-0.00266486
-0.140729
0.137077
0.000719933
-0.022521
0.0218011
-0.0289079
0.0289926
-8.47609e-05
-0.00019809
0.000950833
-0.227102
0.226349
-0.0022805
0.00354632
-0.399954
0.398689
-0.00438468
0.00425267
-0.553783
0.553915
-0.00310362
0.00143854
-0.674108
0.675773
0.000860803
-0.00321386
-0.794925
0.797278
0.00598884
-0.00865461
-0.940096
0.942762
0.0116971
-0.0145557
-1.11558
1.11843
0.0177438
-0.0206572
-1.3267
1.32962
0.0237845
-0.0265016
-1.58107
1.58379
0.0288128
-0.0307241
-1.57517
1.57708
0.0320274
-0.0330162
-1.31316
1.31415
0.0335454
-0.0338835
-1.09928
1.09962
0.0341402
-0.0344172
-0.924299
0.924576
0.0346629
-0.0347247
-0.781716
0.781778
0.0340883
-0.0322008
-0.652033
0.650146
0.0288202
-0.0233673
-0.495242
0.489789
0.0175124
-0.0112511
-0.302491
0.29623
0.00651415
-0.00276229
-0.133401
0.129649
0.000751089
-0.0210734
0.0203223
-0.0291498
0.0293654
-0.000215661
0.000758017
-0.000654209
-0.225922
0.225818
8.78069e-05
0.000545051
-0.397767
0.397134
-0.000891641
0.000490897
-0.55435
0.55475
0.000837442
-0.00266799
-0.677687
0.679518
0.00517064
-0.0077399
-0.799633
0.802203
0.0107667
-0.0136626
-0.945343
0.948239
0.0169496
-0.0200163
-1.12124
1.1243
0.0234043
-0.0264598
-1.33249
1.33554
0.0296796
-0.0324053
-1.58644
1.58916
0.0346456
-0.0364131
-1.57882
1.58059
0.0375503
-0.0383256
-1.315
1.31578
0.0386338
-0.0387129
-1.10012
1.1002
0.0387384
-0.0387816
-0.924691
0.924734
0.038836
-0.0384768
-0.7815
0.781141
0.0374216
-0.0348793
-0.648071
0.645528
0.0308342
-0.0247225
-0.484101
0.477989
0.018425
-0.0118258
-0.28985
0.283251
0.00685903
-0.00291842
-0.125829
0.121889
0.00079678
-0.0195563
0.0187595
-0.0296556
0.0300167
-0.000361083
0.00182087
-0.0023474
-0.226045
0.226572
0.00263976
-0.0027553
-0.396871
0.396986
0.00304904
-0.00382961
-0.555576
0.556357
0.00540042
-0.00746209
-0.681658
0.68372
0.0102421
-0.0130919
-0.804773
0.807623
0.0164375
-0.0196242
-0.951054
0.95424
0.0232222
-0.026555
-1.12732
1.13065
0.0302006
-0.0334439
-1.33856
1.34181
0.0367967
-0.0395541
-1.59182
1.59458
0.0417282
-0.0433397
-1.58216
1.58377
0.0442923
-0.0448467
-1.31637
1.31693
0.0449266
-0.0447259
-1.10043
1.10023
0.0445001
-0.0442944
-0.924567
0.924361
0.0441211
-0.043252
-0.780437
0.779568
0.0416882
-0.0383715
-0.642801
0.639484
0.0335394
-0.0266246
-0.471591
0.464676
0.0197408
-0.0126496
-0.276462
0.269371
0.00733935
-0.00312638
-0.117839
0.113626
0.000854669
-0.0179418
0.0170871
-0.0304515
0.0309913
-0.000539769
0.00311257
-0.00442408
-0.227522
0.228833
0.00561395
-0.00653029
-0.397469
0.398385
0.00756534
-0.00883717
-0.5577
0.558972
0.0107707
-0.0131425
-0.686157
0.688529
0.0162837
-0.0194887
-0.81047
0.813675
0.0232347
-0.0267855
-0.957356
0.960907
0.0307703
-0.0344321
-1.13395
1.13762
0.0383951
-0.0418698
-1.34502
1.3485
0.0453875
-0.0481889
-1.59727
1.60007
0.0502913
-0.0517283
-1.58516
1.5866
0.0524753
-0.0527961
-1.31723
1.31755
0.0526272
-0.0521247
-1.10017
1.09967
0.0516339
-0.0511624
-0.923887
0.923415
0.0506276
-0.0492953
-0.77844
0.777108
0.0470456
-0.0427859
-0.635971
0.631711
0.0369996
-0.0290937
-0.457406
0.4495
0.0214528
-0.0137035
-0.262014
0.254265
0.00793707
-0.00337557
-0.109266
0.104704
0.000921043
-0.0162072
0.0152861
-0.0316114
0.0323792
-0.000767862
0.00465247
-0.0068591
-0.230584
0.23279
0.00913568
-0.0109782
-0.399779
0.401622
0.012867
-0.0147495
-0.560967
0.562849
0.017185
-0.0199641
-0.691349
0.694128
0.0235817
-0.0272306
-0.81688
0.820529
0.0314707
-0.0354671
-0.964398
0.968395
0.0399219
-0.0439793
-1.14126
1.14531
0.0483173
-0.0520569
-1.35195
1.35569
0.0557528
-0.0585885
-1.60279
1.60563
0.0605946
-0.0618245
-1.58779
1.58902
0.0623322
-0.0623954
-1.31751
1.31757
0.0619563
-0.06112
-1.09928
1.09845
0.0603377
-0.0595853
-0.922597
0.921844
0.0585897
-0.0566878
-0.775546
0.773644
0.053619
-0.0482059
-0.627236
0.621823
0.0412503
-0.0321187
-0.441152
0.43202
0.023526
-0.0149466
-0.246169
0.23759
0.0086197
-0.00364845
-0.0999642
0.094993
0.000990123
-0.0143378
0.0133477
-0.0332244
0.0342886
-0.00106411
0.00658048
-0.00988166
-0.23546
0.238762
0.0134196
-0.0163358
-0.404073
0.406989
0.0192154
-0.021836
-0.565663
0.568284
0.0249197
-0.0282445
-0.697445
0.70077
0.0324727
-0.0366785
-0.824184
0.82839
0.0415269
-0.0460639
-0.972348
0.976885
0.0510786
-0.0555956
-1.14936
1.15388
0.0603549
-0.0643777
-1.3594
1.36342
0.0682451
-0.0710851
-1.60836
1.6112
0.0729486
-0.0739147
-1.58997
1.59093
0.0741211
-0.0738759
-1.31709
1.31685
0.0731514
-0.0719451
-1.0977
1.09649
0.0708532
-0.0698076
-0.920686
0.91964
0.0682503
-0.0656548
-0.771555
0.76896
0.0615538
-0.0546918
-0.616147
0.609285
0.046284
-0.0356415
-0.422342
0.411699
0.0258823
-0.0163061
-0.228587
0.219011
0.00933414
-0.00391827
-0.0898236
0.0844077
0.00105351
-0.0123323
0.0112788
-0.0354185
0.0368957
-0.00147716
0.00911317
-0.0137775
-0.242505
0.247169
0.0188165
-0.0229752
-0.410717
0.414875
0.0270052
-0.0305189
-0.572114
0.575628
0.034436
-0.0384694
-0.704737
0.70877
0.0434831
-0.0483894
-0.832606
0.837512
0.0539794
-0.0591557
-0.981398
0.986574
0.0648107
-0.0698301
-1.15838
1.1634
0.07502
-0.0792977
-1.36738
1.37166
0.0832649
-0.0860136
-1.61388
1.61663
0.0876348
-0.0882433
-1.59156
1.59217
0.0880948
-0.0874875
-1.3159
1.31529
0.0864248
-0.084836
-1.09535
1.09376
0.0834296
-0.0819236
-0.918074
0.916568
0.079863
-0.0763066
-0.766145
0.762588
0.0708993
-0.0622095
-0.602094
0.593404
0.051997
-0.0395125
-0.400394
0.38791
0.0283687
-0.0176584
-0.208948
0.198238
0.00999806
-0.00414664
-0.0787939
0.0729425
0.00110005
-0.0102069
0.00910681
-0.0383995
0.0404621
-0.00206261
0.0126309
-0.0190236
-0.252222
0.258615
0.0258618
-0.0314659
-0.420205
0.425809
0.036852
-0.0414586
-0.580714
0.585321
0.0464203
-0.0513754
-0.713575
0.71853
0.0574053
-0.0631743
-0.842426
0.848195
0.0696356
-0.075527
-0.99174
0.997631
0.0818564
-0.0873595
-1.16838
1.17389
0.0929053
-0.0973284
-1.37581
1.38023
0.101242
-0.103741
-1.61913
1.62162
0.104968
-0.10508
-1.59235
1.59246
0.104491
-0.103398
-1.31384
1.31275
0.101962
-0.0999976
-1.0922
1.09024
0.0982525
-0.0961736
-0.914406
0.912327
0.093541
-0.0887268
-0.758749
0.753934
0.0816132
-0.0705906
-0.584281
0.573258
0.0581387
-0.0434511
-0.374654
0.359966
0.0307314
-0.0188172
-0.187012
0.175098
0.0104958
-0.00428303
-0.0669241
0.0607113
0.00111578
-0.00800143
0.00688565
-0.0424932
0.045468
-0.00297482
0.0177257
-0.026395
-0.265346
0.274016
0.0354539
-0.0427953
-0.43321
0.440552
0.0497965
-0.0557166
-0.591961
0.597881
0.0620494
-0.0682444
-0.724401
0.730596
0.0754986
-0.0822456
-0.85394
0.860687
0.0896382
-0.0962331
-1.0035
1.01009
0.10315
-0.108997
-1.17927
1.18512
0.114691
-0.119037
-1.3844
1.38875
0.122631
-0.124633
-1.62374
1.62574
0.125242
-0.124663
-1.59203
1.59145
0.123486
-0.121806
-1.31072
1.30904
0.119977
-0.117596
-1.08817
1.08579
0.115427
-0.112777
-0.909445
0.906795
0.109288
-0.102774
-0.748713
0.742198
0.0934164
-0.0794307
-0.56166
0.547675
0.0642435
-0.0470072
-0.344438
0.327202
0.0326007
-0.0195376
-0.162707
0.149644
0.0106877
-0.00427158
-0.0544039
0.0479878
0.00108656
-0.00578318
0.00469661
-0.0482867
0.0527953
-0.00450856
0.0256064
-0.0373541
-0.283055
0.294803
0.0492871
-0.0589611
-0.450793
0.460467
0.0680093
-0.075521
-0.606437
0.613949
0.0835028
-0.0912153
-0.737648
0.74536
0.0997567
-0.107426
-0.867355
0.875024
0.115588
-0.122656
-1.01656
1.02362
0.129826
-0.135665
-1.19067
1.19651
0.14109
-0.144967
-1.39263
1.39651
0.147818
-0.148961
-1.62717
1.62831
0.148653
-0.147143
-1.59021
1.5887
0.145211
-0.142849
-1.3063
1.30394
0.140558
-0.137732
-1.08313
1.0803
0.135057
-0.131761
-0.903111
0.899815
0.126984
-0.118071
-0.735029
0.726115
0.105715
-0.0880064
-0.532911
0.515202
0.0695762
-0.0495557
-0.309164
0.289144
0.0335162
-0.0195495
-0.136264
0.122298
0.010434
-0.00406148
-0.0416003
0.0352277
0.000999401
-0.00364411
0.00264471
-0.0568772
0.0645572
-0.00767997
0.0393619
-0.0556385
-0.307523
0.3238
0.071627
-0.0844945
-0.474587
0.487454
0.0957086
-0.104696
-0.624638
0.633625
0.114289
-0.123367
-0.753619
0.762697
0.132942
-0.141088
-0.882392
0.890538
0.149393
-0.156302
-1.03028
1.03719
0.163042
-0.168242
-1.20174
1.20694
0.172753
-0.175577
-1.39961
1.40244
0.177126
-0.176938
-1.62862
1.62843
0.175326
-0.172598
-1.58637
1.58364
0.169705
-0.166516
-1.30037
1.29718
0.163661
-0.160333
-1.07694
1.07361
0.15709
-0.152762
-0.894978
0.890649
0.146089
-0.133751
-0.716146
0.703809
0.117346
-0.0950799
-0.496383
0.474117
0.0731407
-0.0504363
-0.268588
0.245884
0.0330982
-0.0186994
-0.108379
0.0939805
0.00967571
-0.00363387
-0.0290617
0.0230198
0.000843342
-0.00169139
0.000848051
-0.0716884
0.0759875
-0.00429912
0.0300554
-0.0443029
-0.342746
0.356993
0.058623
-0.0704917
-0.505986
0.517854
0.0812135
-0.0913277
-0.64631
0.656424
0.102771
-0.113399
-0.771151
0.78178
0.125274
-0.135852
-0.897649
0.908227
0.147187
-0.157354
-1.0432
1.05336
0.168135
-0.177537
-1.2111
1.2205
0.187132
-0.195056
-1.40415
1.41208
0.202536
-0.207948
-1.62713
1.63254
0.211301
-0.213241
-1.57988
1.58182
0.21393
-0.214151
-1.29261
1.29283
0.214358
-0.213715
-1.06921
1.06857
0.212206
-0.20753
-0.883863
0.879188
0.197469
-0.177823
-0.689799
0.670153
0.151793
-0.118298
-0.450617
0.417121
0.087466
-0.0575349
-0.223206
0.193275
0.03622
-0.0196063
-0.080343
0.0637293
0.00969162
-0.00341956
-0.0174513
0.0111792
0.00071312
8.88181e-06
-0.000722001
-0.0835858
0.0816486
0.00193715
0.00812529
-0.017405
-0.374031
0.38331
0.0283283
-0.0369654
-0.534457
0.543094
0.0457295
-0.0541695
-0.669318
0.677758
0.0645992
-0.0744593
-0.791847
0.801707
0.0850919
-0.0948239
-0.918177
0.927909
0.10524
-0.11424
-1.06325
1.07225
0.12398
-0.132113
-1.22971
1.23784
0.140401
-0.147015
-1.41972
1.42633
0.152873
-0.15695
-1.63732
1.6414
0.159138
-0.160007
-1.58333
1.5842
0.15959
-0.158699
-1.292
1.29111
0.157907
-0.156744
-1.06552
1.06436
0.154355
-0.148014
-0.869617
0.863277
0.136752
-0.117923
-0.64645
0.62762
0.0959631
-0.0705345
-0.38165
0.356221
0.0495184
-0.0311801
-0.16419
0.145851
0.0189903
-0.0100066
-0.048279
0.0392954
0.00481043
-0.00164723
-0.00514234
0.00197914
0.00031334
0.00164557
-0.00195891
-0.0851201
0.0821608
0.00295926
-0.00102823
-0.00432502
-0.395356
0.40071
0.0116118
-0.0179977
-0.555704
0.56209
0.0245183
-0.0317912
-0.688836
0.696109
0.0408646
-0.0494246
-0.810547
0.819107
0.0588669
-0.0673506
-0.936795
0.945279
0.07619
-0.0842191
-1.08108
1.08911
0.0927056
-0.0998961
-1.24555
1.25274
0.10679
-0.112145
-1.43233
1.43768
0.116944
-0.119893
-1.64492
1.64786
0.121026
-0.120927
-1.5846
1.5845
0.119787
-0.118289
-1.28956
1.28806
0.116531
-0.114564
-1.06016
1.0582
0.111492
-0.104686
-0.85304
0.846234
0.0939894
-0.0776498
-0.605882
0.589542
0.0605284
-0.0425424
-0.329238
0.311252
0.0292372
-0.0184236
-0.127514
0.116701
0.011407
-0.00622638
-0.0304095
0.0252289
0.00311648
-0.0011262
0.00140482
-0.0033951
0.000235283
0.00248398
-0.00271926
-0.0838487
0.0809651
0.0028836
-0.00504657
0.00236282
-0.4096
0.412283
0.00238264
-0.00722377
-0.571591
0.576432
0.0127014
-0.0187892
-0.704883
0.71097
0.0265738
-0.0339092
-0.826914
0.83425
0.0419576
-0.0492148
-0.95316
0.960417
0.0571666
-0.0639682
-1.09667
1.10347
0.0713377
-0.0771166
-1.25949
1.26527
0.0829719
-0.0874065
-1.44279
1.44722
0.0910366
-0.0927609
-1.65041
1.65214
0.0931529
-0.0924103
-1.58391
1.58317
0.0907417
-0.0882847
-1.28598
1.28352
0.0858995
-0.0831233
-1.05353
1.05076
0.0794285
-0.0731501
-0.835443
0.829165
0.063697
-0.0508766
-0.570799
0.557979
0.0386388
-0.0270768
-0.29237
0.280808
0.0190536
-0.012684
-0.105254
0.0988846
0.00840058
-0.00500985
-0.0194625
0.0160718
0.00273491
-0.00109907
0.00584153
-0.00747737
0.000268297
0.00313794
-0.00340624
-0.0822456
0.0796556
0.00258999
-0.00649945
0.00550312
-0.419133
0.420129
-0.00195322
-0.00165039
-0.584303
0.587906
0.00600059
-0.0114766
-0.718334
0.72381
0.0179971
-0.0244049
-0.840779
0.847187
0.031335
-0.0376002
-0.967162
0.973428
0.0443773
-0.0503522
-1.11009
1.11606
0.0565297
-0.0616779
-1.27085
1.27599
0.0665545
-0.0701131
-1.45121
1.45477
0.0727935
-0.0736678
-1.65364
1.65452
0.0732751
-0.0715884
-1.58167
1.57999
0.0693218
-0.0663808
-1.28071
1.27777
0.0633897
-0.0597334
-1.04582
1.04217
0.0557636
-0.0499584
-0.818768
0.812963
0.0423912
-0.0328766
-0.543086
0.533571
0.0247051
-0.0176648
-0.268019
0.260979
0.0129929
-0.00935983
-0.0916657
0.0880327
0.00673601
-0.00438484
-0.0120117
0.00966058
0.00261116
-0.0011427
0.00952668
-0.0109951
0.000315409
0.00381433
-0.00412974
-0.0806788
0.0784252
0.00225366
-0.00665277
0.00624807
-0.425601
0.426006
-0.0041509
0.00124913
-0.594069
0.596971
0.00293125
-0.00758641
-0.729666
0.734321
0.0131389
-0.0186445
-0.852707
0.858213
0.0247304
-0.0302595
-0.979282
0.984811
0.0363582
-0.0415036
-1.1217
1.12685
0.0469118
-0.0513706
-1.28077
1.28523
0.0554413
-0.0582623
-1.45795
1.46077
0.0600966
-0.0605728
-1.65518
1.65566
0.059414
-0.0571638
-1.57771
1.57546
0.0542682
-0.0506553
-1.27432
1.2707
0.047292
-0.0428607
-1.03698
1.03254
0.0384723
-0.033202
-0.803406
0.798136
0.0270792
-0.0201503
-0.522097
0.515168
0.0149053
-0.0109181
-0.252634
0.248647
0.00863292
-0.00683641
-0.0834545
0.081658
0.00534478
-0.00382047
-0.00669739
0.00517309
0.00246157
-0.00117901
0.0127751
-0.0140577
0.000357833
0.00453229
-0.00489013
-0.0793877
0.0775875
0.00180026
-0.00597658
0.00600061
-0.43027
0.430246
-0.00432658
0.00218507
-0.602494
0.604636
0.00165953
-0.00583333
-0.739388
0.743562
0.0110123
-0.0156897
-0.863257
0.867934
0.0209546
-0.0257725
-0.99025
0.995068
0.0314236
-0.0359639
-1.13196
1.1365
0.0406079
-0.0446
-1.28942
1.29341
0.048464
-0.0507267
-1.46348
1.46574
0.0520794
-0.051868
-1.65557
1.65536
0.0504219
-0.0473135
-1.57279
1.56968
0.044055
-0.0400118
-1.26658
1.26254
0.0359658
-0.0311833
-1.02708
1.0223
0.026386
-0.0212016
-0.789264
0.784079
0.016283
-0.0110375
-0.506249
0.501004
0.00769253
-0.00582135
-0.243187
0.241316
0.00493754
-0.004314
-0.0788076
0.078184
0.00370817
-0.00291657
-0.00312312
0.00233152
0.00202893
-0.00105714
0.0155044
-0.0164762
0.000356106
0.00526316
-0.00561926
-0.0785572
0.0771161
0.00144106
-0.00503304
0.00528078
-0.433794
0.433546
-0.00382102
0.0018464
-0.609692
0.611666
0.0017288
-0.00543334
-0.74799
0.751695
0.00979623
-0.0142118
-0.872521
0.876937
0.018977
-0.0238204
-0.999625
1.00447
0.0285656
-0.0327437
-1.14108
1.14525
0.0372934
-0.0407953
-1.29718
1.30068
0.0438337
-0.0461351
-1.46778
1.47008
0.0471535
-0.0466571
-1.65503
1.65454
0.0447011
-0.0414014
-1.56653
1.56323
0.0377368
-0.0331941
-1.25782
1.25328
0.028762
-0.0234673
-1.01652
1.01122
0.0183447
-0.0132671
-0.775827
0.77075
0.00868088
-0.00464027
-0.493806
0.489765
0.00250681
-0.00167101
-0.237603
0.236767
0.00159873
-0.00179342
-0.0766071
0.0768018
0.00183478
-0.00170376
-0.0011779
0.00104688
0.00133623
-0.000778643
0.0174553
-0.0180129
0.000297998
0.00591419
-0.00621219
-0.0782445
0.0770155
0.00122901
-0.00382244
0.00388816
-0.436777
0.436711
-0.00269916
0.000805811
-0.616152
0.618045
0.00246156
-0.00598541
-0.755861
0.759385
0.0100839
-0.0140051
-0.881118
0.885039
0.0187894
-0.0227091
-1.00866
1.01258
0.0272819
-0.0311305
-1.14953
1.15337
0.035359
-0.0388302
-1.30406
1.30754
0.0418699
-0.0436126
-1.472
1.47374
0.0445185
-0.0438962
-1.65378
1.65316
0.0419954
-0.0383121
-1.55957
1.55589
0.0344226
-0.0295396
-1.24852
1.24363
0.0248111
-0.0190967
-1.00502
0.999302
0.0138197
-0.00847034
-0.762792
0.757443
0.0042216
-0.000719097
-0.483606
0.480104
-0.00102507
0.00130547
-0.233986
0.233705
-0.00101175
0.000410605
-0.0760412
0.0766423
8.22868e-05
-0.000496517
-0.000624212
0.00103844
0.000590892
-0.000455196
0.0184513
-0.018587
0.000205046
0.00637153
-0.00657658
-0.0782059
0.0773122
0.000893769
-0.00270543
0.00232505
-0.439716
0.440096
-0.00134609
-0.000575464
-0.621758
0.62368
0.00347158
-0.0068112
-0.763072
0.766412
0.0106689
-0.0146538
-0.888804
0.892789
0.0187184
-0.0227131
-1.01666
1.02065
0.027127
-0.0306299
-1.15759
1.1611
0.0347862
-0.0380279
-1.31071
1.31395
0.0408721
-0.0428766
-1.47579
1.47779
0.0438943
-0.0431143
-1.6524
1.65162
0.040935
-0.0374126
-1.55217
1.54864
0.0335463
-0.028443
-1.23835
1.23324
0.0234337
-0.0177388
-0.992996
0.987301
0.0119259
-0.00649712
-0.749721
0.744293
0.00232244
0.00099439
-0.474516
0.471199
-0.00260477
0.00300903
-0.231315
0.23091
-0.00265864
0.00196788
-0.0763398
0.0770306
-0.00125622
0.000534161
-0.00112939
0.00185145
-9.77634e-05
-0.000115801
0.0185861
-0.0183726
9.88823e-05
0.00660269
-0.00670157
-0.0785779
0.0778613
0.000716538
-0.00174419
0.00141557
-0.442785
0.443114
5.47932e-05
-0.00179952
-0.627353
0.629097
0.00483588
-0.00800602
-0.769671
0.772841
0.0116615
-0.0151836
-0.89642
0.899942
0.0193078
-0.0229072
-1.0246
1.0282
0.0271714
-0.0310215
-1.165
1.16885
0.0346732
-0.0381008
-1.31716
1.32059
0.0411803
-0.0430505
-1.47957
1.48144
0.0441348
-0.04378
-1.65091
1.65056
0.0416493
-0.0383022
-1.54479
1.54144
0.034243
-0.0291797
-1.22796
1.2229
0.0242345
-0.0183368
-0.980806
0.974909
0.0126029
-0.00686084
-0.736804
0.731062
0.0025519
0.000891625
-0.465522
0.462078
-0.00270307
0.00339943
-0.228699
0.228003
-0.00336644
0.00279772
-0.0768313
0.0774001
-0.00209329
0.00125756
-0.00223847
0.0030742
-0.00063612
0.00017892
0.0180389
-0.0175817
-4.78597e-06
0.00662514
-0.00662035
-0.0792537
0.0787166
0.000537169
-0.000666341
0.000165216
-0.445965
0.446466
0.00114758
-0.00318209
-0.632485
0.63452
0.00612964
-0.00911634
-0.775944
0.778931
0.0128269
-0.0161597
-0.903424
0.906756
0.0200704
-0.0237367
-1.03224
1.03591
0.0278343
-0.0315686
-1.1725
1.17623
0.0353434
-0.0386869
-1.32386
1.32721
0.0417992
-0.0442573
-1.48351
1.48597
0.0455441
-0.0452056
-1.64999
1.64966
0.0434413
-0.040058
-1.53781
1.53443
0.0362491
-0.0314385
-1.21761
1.2128
0.0263109
-0.0204324
-0.968465
0.962586
0.0147168
-0.00872028
-0.723865
0.717868
0.00418765
-0.000370346
-0.456549
0.452731
-0.00171702
0.0028849
-0.225581
0.224413
-0.00317257
0.00289289
-0.0770239
0.0773036
-0.00235956
0.00158658
-0.00353076
0.00430375
-0.000928269
0.000360002
0.017057
-0.0164888
-6.73133e-05
0.00646417
-0.00639686
-0.0801756
0.0797662
0.000409373