/*--------------------------------*- C++ -*----------------------------------*\
  =========                 |
  \\      /  F ield         | OpenFOAM: The Open Source CFD Toolbox
   \\    /   O peration     | Website:  https://openfoam.org
    \\  /    A nd           | Version:  6
     \\/     M anipulation  |
\*---------------------------------------------------------------------------*/
FoamFile
{
    version     2.0;
    format      ascii;
    class       surfaceScalarField;
    location    "73";
    object      phi;
}
// * * * * * * * * * * * * * * * * * * * * * * * * * * * * * * * * * * * * * //

dimensions      [0 3 -1 0 0 0 0];

internalField   nonuniform List<scalar> 
17370
(
-0.0900006
0.0898499
0.289162
-0.0714636
0.0537539
0.364485
-0.038121
0.027692
0.426597
-0.0196404
0.0146077
0.504284
-0.010766
0.00827593
0.601892
-0.00627652
0.00490026
0.720434
-0.00373662
0.00289628
0.863747
-0.00215491
0.00159574
1.03601
-0.00107891
0.000666155
1.24292
-0.000258123
-0.000135555
1.49158
0.000515318
-0.000925754
1.4916
0.00132401
-0.00181406
1.24318
0.00234275
-0.00304919
1.03634
0.00386254
-0.00500566
0.86405
0.00637095
-0.00836337
0.72105
0.0108482
-0.0146837
0.60305
0.0197103
-0.0277545
0.507484
0.0381764
-0.0538007
0.431792
0.071502
-0.0898755
0.365149
0.090016
0.198995
-0.128136
0.0882251
0.0399105
-0.364598
0.353377
-0.0746744
0.0858955
-0.446476
0.454319
-0.0843932
0.0765496
-0.52119
0.529901
-0.0684529
0.0597421
-0.612788
0.621567
-0.0515537
0.0427747
-0.726894
0.734163
-0.0353143
0.0280452
-0.867475
0.87259
-0.0224446
0.0173292
-1.03847
1.04192
-0.0135194
0.0100696
-1.2446
1.24703
-0.00745876
0.00502557
-1.49262
1.4946
-0.00307751
0.00109875
-1.4925
1.49423
0.000579091
-0.00230411
-1.24398
1.24586
0.00420791
-0.00609312
-1.03751
1.04004
0.00845042
-0.01098
-0.866101
0.869828
0.0143331
-0.01806
-0.724391
0.729934
0.0230984
-0.0286412
-0.608698
0.616112
0.0358561
-0.0432702
-0.514897
0.523041
0.0519999
-0.0601437
-0.439856
0.447915
0.0688067
-0.0768653
-0.375296
0.37674
0.0846635
-0.0861077
-0.257331
0.222479
0.0748186
-0.0399663
-0.0685177
0.0586915
0.00982618
-0.0518133
0.058397
-0.374126
0.367542
-0.0574814
0.0537294
-0.453594
0.457346
-0.0486395
0.0446872
-0.527946
0.531899
-0.0408475
0.0372087
-0.621563
0.625202
-0.033107
0.0290311
-0.735348
0.739424
-0.0244604
0.0203006
-0.87434
0.8785
-0.015954
0.0122593
-1.04349
1.04718
-0.00852083
0.00534673
-1.24856
1.25174
-0.00201675
-0.00105757
-1.49666
1.49973
0.00410582
-0.00737268
-1.4972
1.50047
0.010454
-0.0140615
-1.25007
1.25368
0.0176197
-0.0218079
-1.04593
1.05011
0.0258302
-0.0302665
-0.877763
0.882199
0.0342358
-0.0382332
-0.739901
0.743898
0.0417835
-0.045531
-0.626774
0.630522
0.0494039
-0.0544179
-0.534811
0.539825
0.0580874
-0.0588992
-0.457475
0.458286
0.0521938
-0.0319907
-0.335751
0.315548
0.00988821
-0.0683457
0.0584575
-0.0529407
0.0489455
0.00399525
-0.0331602
0.0437044
-0.358109
0.347565
-0.0474018
0.0467737
-0.459285
0.459913
-0.043717
0.0403634
-0.535801
0.539155
-0.03659
0.0332852
-0.628527
0.631832
-0.0298466
0.0268141
-0.742647
0.74568
-0.0235548
0.0204477
-0.882018
0.885126
-0.0169167
0.0135364
-1.05077
1.05415
-0.00974166
0.00620144
-1.25517
1.25871
-0.00223041
-0.00156806
-1.50324
1.50704
0.00533394
-0.00920838
-1.50414
1.50801
0.0126181
-0.0162323
-1.25742
1.26103
0.0194236
-0.0227333
-1.05392
1.05723
0.0256451
-0.0287098
-0.885692
0.888756
0.0315852
-0.0348693
-0.747158
0.750442
0.038044
-0.0416842
-0.634307
0.637947
0.0449233
-0.0478496
-0.544134
0.547061
0.0483406
-0.0444504
-0.456572
0.452681
0.0336762
-0.0162234
-0.296181
0.278728
0.00407233
-0.0526374
0.0485651
-0.0458681
0.0433734
0.00249478
-0.0228021
0.0331784
-0.336877
0.326501
-0.0389976
0.0400128
-0.459598
0.458583
-0.0388213
0.0365333
-0.541875
0.544163
-0.0338647
0.0312675
-0.634883
0.63748
-0.028203
0.0253027
-0.748725
0.751625
-0.022037
0.0190425
-0.888079
0.891074
-0.0157364
0.012636
-1.05729
1.06039
-0.00910859
0.00569824
-1.26217
1.26558
-0.00173327
-0.00215242
-1.51092
1.51481
0.00599474
-0.0098309
-1.5119
1.51574
0.0130673
-0.0163561
-1.26446
1.26775
0.0192077
-0.0222228
-1.06033
1.06335
0.024959
-0.0279652
-0.891811
0.894817
0.030653
-0.033506
-0.753647
0.7565
0.0359252
-0.0384141
-0.641012
0.643501
0.0405475
-0.0415362
-0.548863
0.549852
0.0403088
-0.03418
-0.447398
0.441269
0.0234654
-0.0102408
-0.263504
0.25028
0.00259002
-0.0454012
0.0428111
-0.0412991
0.0395332
0.00176596
-0.0167389
0.0259855
-0.316651
0.307405
-0.0325868
0.0347235
-0.456985
0.454848
-0.0342998
0.0326272
-0.546141
0.547813
-0.0304443
0.0283471
-0.639785
0.641882
-0.0259137
0.0235145
-0.75427
0.756669
-0.0206544
0.0178639
-0.89397
0.89676
-0.0146261
0.0115552
-1.06343
1.0665
-0.00806269
0.00473466
-1.2689
1.27223
-0.00089948
-0.00283547
-1.5186
1.52233
0.00651532
-0.010187
-1.51947
1.52314
0.0132944
-0.0164845
-1.27099
1.27418
0.0192387
-0.0221043
-1.06638
1.06924
0.0245621
-0.0270862
-0.897632
0.900156
0.0292093
-0.0313688
-0.758947
0.761107
0.033238
-0.0351896
-0.645652
0.647604
0.0366381
-0.0367861
-0.550366
0.550514
0.0343239
-0.0272695
-0.434597
0.427542
0.017567
-0.00741358
-0.238741
0.228587
0.00188229
-0.0406308
0.0387485
-0.0380123
0.0366847
0.00132757
-0.0127739
0.0207117
-0.298818
0.29088
-0.0274538
0.0303702
-0.452292
0.449376
-0.0305694
0.0294455
-0.549246
0.550369
-0.0274482
0.025528
-0.643919
0.645839
-0.0233242
0.0211839
-0.758909
0.761049
-0.0186655
0.0161788
-0.899336
0.901822
-0.0132323
0.0103485
-1.06944
1.07233
-0.00698138
0.00373558
-1.27549
1.27873
1.59623e-05
-0.00364758
-1.52599
1.52962
0.00721031
-0.0107563
-1.52674
1.53028
0.0137257
-0.0167149
-1.27731
1.28029
0.0192029
-0.0216841
-1.07198
1.07446
0.0237549
-0.0258522
-0.902443
0.904541
0.0276447
-0.029501
-0.763087
0.764943
0.0311332
-0.03285
-0.64942
0.651137
0.0336472
-0.0330621
-0.5503
0.549715
0.0296801
-0.0223173
-0.420277
0.412914
0.0137936
-0.00575153
-0.219591
0.211548
0.0014691
-0.0370984
0.0356293
-0.0355255
0.0345035
0.00102202
-0.00997209
0.0166749
-0.283586
0.276883
-0.0231448
0.0265078
-0.446216
0.442853
-0.0272802
0.0265734
-0.551277
0.551984
-0.0248079
0.0230176
-0.647736
0.649526
-0.0209407
0.0189181
-0.763124
0.765146
-0.0165396
0.0142059
-0.904163
0.906497
-0.0114598
0.0087674
-1.07504
1.07774
-0.00560116
0.00250866
-1.28186
1.28496
0.00110849
-0.00462487
-1.53318
1.53669
0.00805579
-0.0114178
-1.53373
1.53709
0.0141688
-0.01687
-1.28315
1.28585
0.0190755
-0.0212478
-1.07683
1.07901
0.0230678
-0.0249256
-0.906517
0.908375
0.0265166
-0.0281615
-0.766687
0.768332
0.0295938
-0.0309713
-0.652709
0.654087
0.0312731
-0.0299524
-0.548776
0.547455
0.0259478
-0.0186608
-0.405563
0.398276
0.0112217
-0.00465123
-0.204311
0.197741
0.00119412
-0.0343131
0.033119
-0.033607
0.0328122
0.000794711
-0.00789268
0.0135184
-0.270748
0.265123
-0.0194968
0.0230511
-0.439385
0.435831
-0.0242956
0.0238335
-0.552602
0.553064
-0.0223317
0.0206485
-0.651312
0.652995
-0.0186638
0.0167246
-0.767119
0.769058
-0.0144359
0.0121878
-0.908721
0.910969
-0.00954234
0.00695771
-1.0803
1.08289
-0.00393032
0.00097931
-1.28793
1.29088
0.00246792
-0.00581156
-1.5401
1.54344
0.00905016
-0.0121834
-1.54032
1.54345
0.0147145
-0.0171722
-1.28843
1.29088
0.0191606
-0.0211022
-1.08114
1.08308
0.0227194
-0.024368
-0.910137
0.911785
0.025777
-0.0272299
-0.769873
0.771326
0.0284663
-0.0294635
-0.655262
0.656259
0.0293897
-0.0273978
-0.545801
0.543809
0.0229868
-0.0159602
-0.391114
0.384088
0.00941996
-0.00389149
-0.191741
0.186212
0.00100383
-0.0320317
0.0310278
-0.0321154
0.0314973
0.000618109
-0.00628555
0.0109904
-0.259986
0.255281
-0.016372
0.0199202
-0.43228
0.428732
-0.0214824
0.0212433
-0.553452
0.553691
-0.019971
0.0183444
-0.654696
0.656322
-0.016413
0.0145204
-0.770962
0.772855
-0.0122871
0.0100942
-0.913113
0.915306
-0.00751471
0.00499904
-1.08536
1.08787
-0.0020615
-0.000785163
-1.29372
1.29657
0.00408324
-0.00725237
-1.54666
1.54983
0.0102935
-0.0132089
-1.54645
1.54936
0.0155444
-0.017789
-1.29324
1.29548
0.0195782
-0.0212995
-1.08501
1.08673
0.0227228
-0.0241747
-0.913339
0.914791
0.0254175
-0.0266941
-0.772682
0.773959
0.0277847
-0.0283585
-0.657046
0.65762
0.0279106
-0.0253502
-0.541545
0.538984
0.020686
-0.0139825
-0.377231
0.370528
0.00814899
-0.00336271
-0.181092
0.176306
0.00087203
-0.0300994
0.0292274
-0.0309595
0.0304848
0.000474707
-0.00498949
0.00889952
-0.251001
0.247091
-0.0136402
0.0170337
-0.42527
0.421877
-0.0187733
0.0187208
-0.553881
0.553933
-0.017637
0.0160427
-0.657997
0.659591
-0.0141296
0.0122486
-0.774724
0.776605
-0.010031
0.00785994
-0.917399
0.91957
-0.00531477
0.00284151
-1.09028
1.09276
3.37611e-05
-0.0028021
-1.29931
1.30208
0.00598139
-0.00900283
-1.55289
1.55591
0.0118692
-0.0145853
-1.55215
1.55486
0.0167358
-0.0187737
-1.29763
1.29966
0.0203661
-0.0218676
-1.08847
1.08997
0.0231039
-0.0243745
-0.916152
0.917422
0.0254696
-0.0265882
-0.775147
0.776266
0.0274784
-0.0276889
-0.658008
0.658219
0.026821
-0.0237779
-0.536192
0.533149
0.0189556
-0.0125632
-0.363997
0.357605
0.00726406
-0.00300123
-0.171813
0.16755
0.000783509
-0.0284083
0.0276248
-0.0300787
0.0297256
0.000353133
-0.00390144
0.00711213
-0.243556
0.240345
-0.0112001
0.0143291
-0.418633
0.415504
-0.01612
0.0162181
-0.553963
0.553864
-0.0152108
0.0136865
-0.661222
0.662746
-0.0117649
0.00986318
-0.778473
0.780375
-0.00762183
0.00543516
-0.921647
0.923834
-0.00288486
0.00042183
-1.09513
1.09759
0.00242221
-0.00514027
-1.30476
1.30748
0.00823448
-0.0111406
-1.55883
1.56174
0.0138582
-0.0163896
-1.55745
1.55998
0.018359
-0.0201914
-1.3016
1.30343
0.0215896
-0.0228773
-1.09151
1.0928
0.023933
-0.025028
-0.918598
0.919693
0.0259773
-0.0269278
-0.777286
0.778237
0.027556
-0.0274716
-0.658293
0.658209
0.0261571
-0.0226729
-0.529895
0.52641
0.0177318
-0.011592
-0.351363
0.345224
0.00667533
-0.00276744
-0.163493
0.159585
0.00072835
-0.0268773
0.0261489
-0.0294343
0.0291899
0.000244418
-0.00294548
0.00552392
-0.237474
0.234895
-0.00895938
0.0117409
-0.412571
0.40979
-0.0134677
0.0136407
-0.553789
0.553616
-0.0126709
0.0111825
-0.664333
0.665821
-0.00922653
0.00727243
-0.782271
0.784225
-0.00497024
0.00273381
-0.92593
0.928167
-0.000139943
-0.00234916
-1.09996
1.10245
0.0052019
-0.00790276
-1.31011
1.31281
0.0109408
-0.0137509
-1.56455
1.56736
0.016333
-0.0186898
-1.56239
1.56474
0.020485
-0.0221156
-1.30515
1.30678
0.023316
-0.0243817
-1.09416
1.09523
0.025251
-0.0261678
-0.920693
0.921609
0.0269725
-0.0277627
-0.779066
0.779856
0.028104
-0.0277195
-0.65798
0.657595
0.0259439
-0.022031
-0.522736
0.518823
0.0169687
-0.0109952
-0.339199
0.333226
0.00632519
-0.00263568
-0.155813
0.152123
0.000699933
-0.0254433
0.0247433
-0.0290045
0.0288636
0.000140954
-0.00205797
0.00404193
-0.232636
0.230652
-0.00682027
0.00918468
-0.407246
0.404881
-0.0107404
0.01091
-0.553519
0.55335
-0.00994388
0.00845325
-0.667407
0.668897
-0.00643597
0.00440119
-0.786176
0.788211
-0.0020035
-0.000317656
-0.930313
0.932634
0.00299675
-0.00555049
-1.10486
1.10741
0.00845191
-0.0111688
-1.31544
1.31815
0.0141834
-0.0169232
-1.57008
1.57282
0.0193885
-0.0215823
-1.56697
1.56917
0.023211
-0.0246442
-1.3083
1.30973
0.0256448
-0.0264792
-1.0964
1.09724
0.0271502
-0.0278702
-0.922415
0.923135
0.0285166
-0.0291611
-0.780493
0.781138
0.0291827
-0.0283949
-0.657013
0.656225
0.0261611
-0.0218245
-0.514744
0.510408
0.0166134
-0.0107094
-0.327325
0.321421
0.00616766
-0.0025854
-0.148514
0.144932
0.00069277
-0.0240557
0.0233629
-0.0287822
0.0287459
3.62776e-05
-0.00119204
0.00259559
-0.228979
0.227576
-0.00470226
0.00658465
-0.40279
0.400908
-0.00786418
0.00794773
-0.553312
0.553229
-0.00693846
0.00540839
-0.67052
0.67205
-0.00328973
0.00113854
-0.790245
0.792396
0.00139825
-0.00384443
-0.934867
0.937313
0.00665102
-0.00930655
-1.10988
1.11254
0.0122969
-0.0150654
-1.32081
1.32358
0.0180903
-0.0207828
-1.57549
1.57818
0.023144
-0.0251805
-1.57123
1.57326
0.0266412
-0.0278706
-1.31104
1.31226
0.0286629
-0.0292608
-1.09822
1.09882
0.0297285
-0.0302434
-0.923744
0.924259
0.0307202
-0.0311377
-0.781547
0.781964
0.0308706
-0.0296073
-0.655244
0.653981
0.0268743
-0.022077
-0.505905
0.501108
0.0166553
-0.010708
-0.315541
0.309594
0.00618133
-0.00260703
-0.141382
0.137807
0.000704449
-0.0226736
0.0219691
-0.028771
0.0288413
-7.02759e-05
-0.000309223
0.00112315
-0.226484
0.22567
-0.0025258
0.00385839
-0.399332
0.397999
-0.00475822
0.00466927
-0.553343
0.553432
-0.00355659
0.00192649
-0.673763
0.675393
0.000331596
-0.00264089
-0.79455
0.796859
0.00536219
-0.00797538
-0.939671
0.942284
0.0109579
-0.0137608
-1.11512
1.11793
0.0168874
-0.0197443
-1.32629
1.32914
0.022811
-0.0254762
-1.58079
1.58346
0.0277437
-0.0296223
-1.57516
1.57704
0.0309105
-0.0319307
-1.31334
1.31436
0.0325133
-0.0328677
-1.09959
1.09995
0.03312
-0.0334139
-0.924652
0.924946
0.0336911
-0.0338023
-0.782057
0.782168
0.0332218
-0.0314095
-0.652532
0.65072
0.0281235
-0.022804
-0.496137
0.490818
0.017087
-0.0109733
-0.303616
0.297502
0.0063518
-0.00269369
-0.134221
0.130563
0.000733
-0.0212601
0.0205271
-0.0289868
0.0291801
-0.000193354
0.000626807
-0.00043969
-0.225177
0.22499
-0.000208915
0.000912774
-0.396995
0.396291
-0.00132467
0.000974655
-0.553794
0.554144
0.000305535
-0.00208871
-0.67726
0.679043
0.00453414
-0.00704691
-0.799171
0.801684
0.0100076
-0.0128407
-0.944811
0.947644
0.0160564
-0.0190553
-1.12067
1.12367
0.0223671
-0.0253541
-1.33195
1.33494
0.0285041
-0.0311723
-1.58606
1.58872
0.0333622
-0.0350829
-1.57877
1.58049
0.0361927
-0.0369861
-1.31521
1.316
0.0373432
-0.0374403
-1.10047
1.10057
0.0374622
-0.037522
-0.925097
0.925157
0.0376036
-0.037315
-0.781921
0.781632
0.0363322
-0.0338876
-0.648732
0.646287
0.0299677
-0.0240299
-0.485297
0.479359
0.017908
-0.011493
-0.291296
0.284881
0.00666725
-0.00283881
-0.12685
0.123022
0.00077623
-0.0197826
0.0190064
-0.0294575
0.0298
-0.000342539
0.00168044
-0.00213414
-0.22515
0.225604
0.00232893
-0.00234711
-0.395936
0.395954
0.00255738
-0.00327945
-0.554878
0.5556
0.00479651
-0.00680013
-0.681124
0.683128
0.00951023
-0.0122921
-0.804201
0.806983
0.0155589
-0.0186687
-0.950396
0.953505
0.0221767
-0.0254235
-1.12661
1.12986
0.0289727
-0.0321275
-1.33788
1.34104
0.0353853
-0.0380607
-1.59132
1.594
0.0401643
-0.0417125
-1.58205
1.5836
0.0426265
-0.0431902
-1.31657
1.31713
0.043317
-0.0431323
-1.10082
1.10064
0.0428991
-0.0427086
-0.925029
0.924839
0.0425721
-0.0417943
-0.780958
0.78018
0.0403221
-0.0371349
-0.643682
0.640495
0.0324689
-0.0257806
-0.47318
0.466491
0.0191198
-0.012257
-0.278308
0.271446
0.00711722
-0.00303625
-0.119099
0.115018
0.000832048
-0.0182126
0.0173806
-0.030214
0.0307342
-0.000520174
0.00297028
-0.00419342
-0.226467
0.22769
0.00526143
-0.00608283
-0.396341
0.397162
0.00702446
-0.00822268
-0.55684
0.558038
0.0100847
-0.0123842
-0.6855
0.6878
0.0154409
-0.0185631
-0.809768
0.81289
0.0222117
-0.0256678
-0.956539
0.959996
0.0295436
-0.0331015
-1.13306
1.13662
0.0369461
-0.0403092
-1.34416
1.34752
0.0437045
-0.0463972
-1.5966
1.59929
0.0484044
-0.049757
-1.58496
1.58631
0.0504426
-0.0507607
-1.31741
1.31773
0.0506348
-0.0501453
-1.10058
1.10009
0.0496382
-0.0491775
-0.924398
0.923937
0.0486954
-0.0474559
-0.779073
0.777833
0.0453326
-0.041253
-0.637143
0.633063
0.0356907
-0.0280799
-0.459504
0.451893
0.0207205
-0.0132513
-0.264354
0.256885
0.00768754
-0.00327744
-0.110806
0.106396
0.0008974
-0.0165265
0.0156291
-0.0313307
0.032074
-0.00074331
0.00448116
-0.00658932
-0.229338
0.231446
0.00874867
-0.0104827
-0.398434
0.400168
0.0122595
-0.0140509
-0.559924
0.561715
0.0163925
-0.0190838
-0.690541
0.693232
0.0225912
-0.0261387
-0.816015
0.819562
0.0302621
-0.0341457
-0.96339
0.967273
0.0384687
-0.042399
-1.14015
1.14408
0.0465929
-0.0502001
-1.35085
1.35445
0.0537536
-0.0564634
-1.6019
1.60461
0.0583545
-0.0594724
-1.58746
1.58858
0.0598862
-0.0599122
-1.31765
1.31768
0.0595045
-0.0586844
-1.0997
1.09888
0.0578793
-0.0571263
-0.923146
0.922393
0.0562184
-0.0544283
-0.7763
0.77451
0.0515099
-0.0463365
-0.628808
0.623634
0.039679
-0.0309286
-0.44391
0.43516
0.022687
-0.0144449
-0.249112
0.24087
0.00835217
-0.00354789
-0.101823
0.0970188
0.000967369
-0.0147072
0.0137398
-0.0328894
0.0339275
-0.00103801
0.00639519
-0.00957184
-0.234007
0.237184
0.0129845
-0.0157869
-0.402483
0.405285
0.0185456
-0.0210657
-0.564407
0.566927
0.0240407
-0.0272589
-0.696454
0.699672
0.0313595
-0.0354443
-0.823121
0.827205
0.0401516
-0.0445497
-0.971107
0.975505
0.0494014
-0.0537616
-1.14799
1.15235
0.0583424
-0.0621969
-1.35801
1.36187
0.0658757
-0.0685435
-1.6072
1.60987
0.0702521
-0.0710725
-1.58946
1.59028
0.0711571
-0.0708441
-1.31717
1.31686
0.0701415
-0.068954
-1.0981
1.09691
0.0678164
-0.0667648
-0.921241
0.920189
0.0653088
-0.0628666
-0.772453
0.770011
0.0589744
-0.0524457
-0.618267
0.611738
0.0444379
-0.0342856
-0.42595
0.415797
0.0249584
-0.0157787
-0.232251
0.223072
0.00906715
-0.00382496
-0.0920292
0.086787
0.00103474
-0.0127487
0.0117139
-0.0350228
0.0364649
-0.00144213
0.00888351
-0.0134284
-0.240802
0.245347
0.0183336
-0.0223696
-0.40886
0.412896
0.0262639
-0.0296604
-0.570631
0.574028
0.0334476
-0.0373541
-0.703532
0.707438
0.0422156
-0.0469754
-0.831304
0.836064
0.052394
-0.0574026
-0.97987
0.984878
0.0628615
-0.0676908
-1.15668
1.16151
0.0726615
-0.076733
-1.36564
1.36971
0.0804728
-0.0830145
-1.61236
1.61491
0.0844444
-0.0848678
-1.5908
1.59123
0.0845604
-0.083813
-1.31588
1.31513
0.0827516
-0.0811803
-1.09569
1.09412
0.0797206
-0.0782226
-0.918634
0.917136
0.0762572
-0.072917
-0.767268
0.763928
0.0678041
-0.0595826
-0.604966
0.596745
0.0499041
-0.0380408
-0.405089
0.393226
0.0274151
-0.0171518
-0.213453
0.20319
0.00976323
-0.00407535
-0.0813538
0.0756659
0.00108948
-0.0106608
0.00957129
-0.037926
0.0399489
-0.00202292
0.0123616
-0.0186248
-0.250254
0.256518
0.0253256
-0.0308013
-0.418054
0.42353
0.0360362
-0.0405037
-0.578978
0.583445
0.0453122
-0.0501112
-0.712108
0.716907
0.0559464
-0.0615344
-0.840832
0.84642
0.06779
-0.0734822
-0.989867
0.995559
0.0795783
-0.0848557
-1.16629
1.17157
0.0901437
-0.0943248
-1.37364
1.37782
0.0979695
-0.100221
-1.61719
1.61944
0.101213
-0.101094
-1.59126
1.59115
0.100308
-0.0990174
-1.31363
1.31234
0.0975473
-0.0955734
-1.09242
1.09044
0.0937537
-0.0916947
-0.914991
0.912932
0.0891669
-0.084674
-0.760219
0.755726
0.077994
-0.067631
-0.5882
0.577837
0.0558872
-0.0419709
-0.380718
0.366802
0.0298484
-0.0184065
-0.192454
0.181012
0.0103398
-0.0042538
-0.0698079
0.0637219
0.0011187
-0.00847438
0.00735568
-0.0419276
0.0448462
-0.00291863
0.0174105
-0.0259368
-0.263082
0.271608
0.0348507
-0.0420534
-0.430742
0.437944
0.0489016
-0.0546682
-0.589944
0.595711
0.0608176
-0.066804
-0.72262
0.728606
0.0738451
-0.080387
-0.851988
0.85853
0.0875361
-0.093891
-1.00121
1.00756
0.100527
-0.106104
-1.17671
1.18229
0.111488
-0.115539
-1.38172
1.38577
0.1188
-0.120493
-1.62128
1.62297
0.120815
-0.11996
-1.59054
1.58968
0.118541
-0.116625
-1.31024
1.30832
0.114696
-0.112293
-1.08818
1.08578
0.110075
-0.107378
-0.910075
0.907377
0.104093
-0.0980529
-0.750716
0.744676
0.0893384
-0.0762816
-0.567035
0.553978
0.0620196
-0.0457074
-0.35219
0.335878
0.0319457
-0.0193272
-0.169123
0.156505
0.0106691
-0.004307
-0.0575242
0.0511621
0.00110824
-0.00624608
0.00513783
-0.0476026
0.0520329
-0.00443032
0.0252111
-0.0368056
-0.280461
0.292056
0.0485912
-0.058114
-0.447959
0.457481
0.0670096
-0.0743469
-0.604131
0.611469
0.0820938
-0.0895883
-0.735486
0.742981
0.0978733
-0.105294
-0.864979
0.872399
0.113166
-0.119951
-1.01377
1.02056
0.126795
-0.132319
-1.18755
1.19307
0.13738
-0.140913
-1.38933
1.39287
0.143374
-0.144152
-1.62406
1.62484
0.143496
-0.141644
-1.5882
1.58635
0.139411
-0.136747
-1.30549
1.30283
0.134271
-0.131412
-1.08287
1.08001
0.128664
-0.12534
-0.903761
0.900437
0.120911
-0.112751
-0.737892
0.729732
0.101358
-0.0849432
-0.540302
0.523887
0.0676926
-0.048719
-0.318915
0.299941
0.0332996
-0.0196606
-0.143574
0.129935
0.010612
-0.00418069
-0.0447966
0.0383653
0.00104354
-0.00405816
0.00301463
-0.0560377
0.0635816
-0.00754386
0.0387959
-0.054899
-0.304553
0.320656
0.0707471
-0.0834924
-0.471367
0.484112
0.0945655
-0.103317
-0.622002
0.630753
0.112619
-0.121439
-0.751041
0.759861
0.13072
-0.138583
-0.879511
0.887374
0.14656
-0.15315
-1.02692
1.03351
0.159521
-0.164365
-1.19796
1.20281
0.168467
-0.1709
-1.39561
1.39804
0.171997
-0.171378
-1.62475
1.62413
0.16935
-0.166212
-1.58371
1.58057
0.16296
-0.159381
-1.29913
1.29555
0.156267
-0.152894
-1.07634
1.07297
0.149597
-0.14532
-0.895756
0.891478
0.139219
-0.128076
-0.72045
0.709307
0.113099
-0.0925571
-0.506527
0.485985
0.0720495
-0.050418
-0.280548
0.258917
0.0335527
-0.0192466
-0.116314
0.102008
0.0100969
-0.00384803
-0.0321017
0.0258528
0.000909064
-0.00201299
0.00110393
-0.0705883
0.0747957
-0.0042073
0.0295613
-0.0436437
-0.339332
0.353414
0.0578109
-0.0695791
-0.502393
0.514161
0.0801257
-0.0900049
-0.643246
0.653125
0.101096
-0.111436
-0.76809
0.77843
0.122973
-0.133206
-0.894191
0.904424
0.144119
-0.153854
-1.03918
1.04892
0.164107
-0.172966
-1.20659
1.21545
0.181889
-0.18912
-1.39932
1.40655
0.195748
-0.200291
-1.62236
1.6269
0.202749
-0.203741
-1.57643
1.57743
0.203563
-0.202828
-1.2908
1.29007
0.202266
-0.201157
-1.06827
1.06716
0.199476
-0.194985
-0.885062
0.880571
0.186134
-0.168893
-0.696453
0.679211
0.145618
-0.11516
-0.464379
0.433921
0.0865485
-0.0580716
-0.23732
0.208844
0.0372212
-0.0205345
-0.0883989
0.0717122
0.0103325
-0.0037219
-0.0200654
0.0134548
0.00079838
-0.000182988
-0.000615392
-0.0822737
0.0803264
0.00194729
0.00783924
-0.0169423
-0.370211
0.379314
0.0277018
-0.0362265
-0.530556
0.539081
0.0448348
-0.0530262
-0.665786
0.673977
0.0631242
-0.0726828
-0.788225
0.797784
0.0829665
-0.0923466
-0.914004
0.923384
0.102333
-0.110893
-1.05835
1.06691
0.120087
-0.127652
-1.22408
1.23165
0.135229
-0.141095
-1.41345
1.41931
0.146001
-0.149068
-1.63069
1.63376
0.150174
-0.149874
-1.5779
1.5776
0.148379
-0.146266
-1.28851
1.28639
0.144415
-0.142383
-1.06354
1.0615
0.139759
-0.134078
-0.871661
0.865979
0.124422
-0.10846
-0.658029
0.642067
0.0895571
-0.0672105
-0.401719
0.379372
0.0482023
-0.0311816
-0.18096
0.163939
0.0195189
-0.0106315
-0.0560977
0.0472103
0.00529677
-0.00189752
-0.00702301
0.00362376
0.000391497
0.00165072
-0.00204222
-0.0837216
0.0807923
0.00292923
-0.00119412
-0.00399855
-0.39117
0.396363
0.0111345
-0.017371
-0.551487
0.557724
0.0237198
-0.0307878
-0.684811
0.691879
0.0395482
-0.0478254
-0.806373
0.814651
0.0569424
-0.0650958
-0.93191
0.940063
0.0735251
-0.0811244
-1.07528
1.08288
0.0890694
-0.0956882
-1.23876
1.24537
0.101851
-0.106417
-1.4245
1.42906
0.11019
-0.112017
-1.63615
1.63797
0.111924
-0.110476
-1.57673
1.57528
0.108081
-0.105178
-1.28382
1.28092
0.102147
-0.0989445
-1.05683
1.05363
0.0953591
-0.0894872
-0.856326
0.850454
0.0806026
-0.0672467
-0.623258
0.609903
0.0531914
-0.0381853
-0.355604
0.340598
0.0268653
-0.0175345
-0.146748
0.137418
0.0113204
-0.00654783
-0.0383399
0.0335673
0.0034968
-0.00138148
4.32721e-05
-0.00215859
0.000331862
0.00267352
-0.00300538
-0.0824458
0.0795894
0.00285639
-0.00511587
0.00255235
-0.405075
0.407639
0.0020594
-0.00675144
-0.567032
0.571724
0.0120714
-0.0179777
-0.700423
0.706329
0.025471
-0.0325475
-0.822224
0.8293
0.0403016
-0.0472602
-0.947611
0.954569
0.054836
-0.0612409
-1.09
1.09641
0.0681023
-0.0733384
-1.25153
1.25677
0.0784842
-0.082139
-1.43334
1.43699
0.0847323
-0.0852891
-1.63931
1.63987
0.0843588
-0.0821109
-1.57321
1.57096
0.0790196
-0.0749651
-1.27747
1.27341
0.0711416
-0.0669124
-1.0483
1.04407
0.0623424
-0.0566219
-0.840315
0.834594
0.0488488
-0.0387745
-0.594029
0.583955
0.0292846
-0.02046
-0.32466
0.315835
0.0144937
-0.00992542
-0.127424
0.122856
0.006868
-0.00438701
-0.0282506
0.0257696
0.00257792
-0.00113945
0.0047217
-0.00616017
0.00031318
0.00354395
-0.00385713
-0.080854
0.0783073
0.00254665
-0.00646823
0.00555232
-0.414344
0.41526
-0.00211509
-0.00135658
-0.57943
0.582902
0.00557439
-0.01089
-0.713497
0.718813
0.0171589
-0.0233438
-0.835622
0.841806
0.0300203
-0.0360267
-0.961018
0.967024
0.0424764
-0.0481016
-1.10263
1.10826
0.0538265
-0.0584807
-1.2618
1.26645
0.0627054
-0.0655375
-1.44019
1.44302
0.0672303
-0.0669657
-1.64015
1.63988
0.0652551
-0.062031
-1.56788
1.56465
0.0582735
-0.0536316
-1.269
1.26436
0.0491022
-0.0438878
-1.03821
1.03299
0.038838
-0.0330715
-0.824564
0.818797
0.0266612
-0.0192114
-0.571614
0.564164
0.0133048
-0.0087921
-0.305737
0.301224
0.00627701
-0.00470604
-0.117311
0.11574
0.00367379
-0.00269713
-0.0226254
0.0216488
0.00179698
-0.000896329
0.0079854
-0.00888605
0.00028355
0.00432257
-0.00460612
-0.0793308
0.0771325
0.00219829
-0.00652899
0.0061703
-0.420626
0.420985
-0.00414667
0.00135078
-0.588942
0.591738
0.002729
-0.00725611
-0.724511
0.729038
0.0125998
-0.0179228
-0.847151
0.852474
0.0237996
-0.0291136
-0.972627
0.977941
0.0349376
-0.0397893
-1.11355
1.11841
0.044814
-0.0488509
-1.27075
1.27478
0.0523585
-0.0545423
-1.44547
1.44766
0.0554994
-0.0549471
-1.63939
1.63884
0.0525767
-0.0488753
-1.5608
1.5571
0.0445511
-0.0392936
-1.25923
1.25397
0.0344286
-0.0284796
-1.02664
1.0207
0.0229497
-0.0172667
-0.809501
0.803818
0.0117629
-0.00621683
-0.554772
0.549226
0.00268213
-0.00082359
-0.294831
0.292972
0.000514047
-0.000723068
-0.112832
0.113041
0.000906061
-0.00102148
-0.0201364
0.0202518
0.000887529
-0.000550669
0.00997463
-0.0103115
0.00020852
0.00495308
-0.0051616
-0.0781126
0.0763749
0.00173775
-0.00577216
0.0058003
-0.425187
0.425159
-0.0041691
0.00210028
-0.597176
0.599244
0.0016818
-0.00575836
-0.733983
0.738059
0.0107679
-0.015304
-0.857378
0.861914
0.0204069
-0.0250573
-0.983173
0.987823
0.0304914
-0.0348016
-1.12324
1.12755
0.039145
-0.0428034
-1.27857
1.28223
0.0462151
-0.0479614
-1.44975
1.4515
0.0485919
-0.0475244
-1.63775
1.63668
0.0450504
-0.0406963
-1.553
1.54865
0.0361894
-0.0307022
-1.24829
1.2428
0.0253391
-0.0192189
-1.01403
1.0079
0.0133743
-0.00743362
-0.795008
0.789067
0.0028019
0.00156963
-0.541494
0.537122
-0.0038756
0.00426225
-0.288736
0.288349
-0.00361877
0.00256143
-0.1121
0.113157
-0.00155647
0.000619275
-0.0199719
0.0209091
-9.00853e-05
-0.000129725
0.0106955
-0.0104757
9.72097e-05
0.00534963
-0.00544684
-0.077378
0.0760023
0.00137564
-0.00476188
0.0049728
-0.428686
0.428475
-0.00352725
0.00159487
-0.604249
0.606182
0.00194994
-0.00558774
-0.742401
0.746039
0.00982564
-0.0141381
-0.866398
0.870711
0.018787
-0.0235068
-0.992226
0.996946
0.0280991
-0.0321121
-1.13191
1.13593
0.0364439
-0.0397071
-1.28569
1.28896
0.0424224
-0.044346
-1.45306
1.45498
0.0448321
-0.0436872
-1.63555
1.6344
0.0409414
-0.0366808
-1.54434
1.54008
0.0320499
-0.0263834
-1.23677
1.23111
0.0209387
-0.0146421
-1.00109
0.994795
0.00872989
-0.0029102
-0.780948
0.775128
-0.00158591
0.00524487
-0.53034
0.526681
-0.0069895
0.00704363
-0.285315
0.285261
-0.0060502
0.00453907
-0.113072
0.114584
-0.00318558
0.00180761
-0.0214445
0.0228225
-0.000874063
0.0002489
0.0102501
-0.00962494
-1.52287e-05
0.00546815
-0.00545292
-0.0771758
0.0760163
0.0011595
-0.00349972
0.00349762
-0.431724
0.431726
-0.00229406
0.00041895
-0.610649
0.612525
0.00284963
-0.00633489
-0.750148
0.753633
0.0103471
-0.0142023
-0.874822
0.878677
0.0189099
-0.022756
-1.00103
1.00487
0.0272337
-0.0309824
-1.14005
1.1438
0.035079
-0.0384046
-1.29213
1.29546
0.0412459
-0.0427578
-1.45658
1.45809
0.0433249
-0.0422777
-1.63307
1.63203
0.0398458
-0.0355191
-1.53556
1.53124
0.0309846
-0.0253616
-1.22539
1.21977
0.0199842
-0.0136579
-0.987883
0.981556
0.00788262
-0.00188854
-0.767433
0.761439
-0.00253612
0.00592358
-0.52046
0.517073
-0.00769022
0.00777966
-0.282772
0.282682
-0.00693542
0.00545813
-0.114792
0.11627
-0.00405452
0.00251286
-0.0237524
0.025294
-0.00137578
0.000506933
0.00902491
-0.00815606
-0.000103891
0.00535325
-0.00524936
-0.0772631
0.0764342
0.000828865
-0.00235043
0.00187901
-0.434782
0.435254
-0.000864345
-0.0010766
-0.616253
0.618194
0.00399591
-0.00732057
-0.757292
0.760616
0.0111268
-0.0150756
-0.882405
0.886353
0.0191063
-0.0230675
-1.00889
1.01286
0.0274414
-0.0309063
-1.14794
1.15141
0.0350082
-0.0381907
-1.29852
1.30171
0.0409525
-0.0428533
-1.45995
1.46185
0.0437114
-0.0427271
-1.63093
1.62994
0.0402838
-0.0364237
-1.52699
1.52313
0.0322113
-0.0267242
-1.21392
1.20843
0.0214071
-0.0154648
-0.974899
0.968956
0.00948231
-0.00369776
-0.754054
0.748269
-0.000825655
0.00435197
-0.511204
0.507678
-0.00614344
0.00680788
-0.280158
0.279493
-0.00644702
0.0054388
-0.116457
0.117465
-0.00421803
0.00278128
-0.026283
0.0277198
-0.00163079
0.000672816
0.00737495
-0.00641697
-0.000168096
0.00506452
-0.00489642
-0.077769
0.0771125
0.000656555
-0.00136755
0.000930533
-0.438025
0.438463
0.000600041
-0.00238659
-0.621896
0.623683
0.00546197
-0.00863859
-0.763872
0.767049
0.0122741
-0.0157908
-0.889974
0.893491
0.0199136
-0.0235179
-1.01678
1.02039
0.0277894
-0.0316486
-1.15529
1.15915
0.035316
-0.0387552
-1.30489
1.30833
0.0418492
-0.0437334
-1.46358
1.46546
0.044823
-0.0444569
-1.62911
1.62874
0.0422943
-0.0388727
-1.51906
1.51564
0.0347288
-0.0295857
-1.20293
1.19778
0.0246188
-0.0187851
-0.962441
0.956607
0.0131549
-0.00736096
-0.741151
0.735357
0.00265041
0.00124785
-0.50169
0.497791
-0.00347
0.00458113
-0.2768
0.275689
-0.00486475
0.00439363
-0.117248
0.117719
-0.00359795
0.00251424
-0.0285068
0.0295906
-0.00155631
0.000689701
0.00563296
-0.00476636
-0.000191795
0.0046737
-0.00448191
-0.0785756
0.0780992
0.000476447
-0.000280791
-0.000343505
-0.441418
0.442042
0.00173814
-0.00383
-0.62712
0.629212
0.00682947
-0.00984036
-0.77017
0.773181
0.0135561
-0.0169073
-0.896986
0.900337
0.0208453
-0.0245447
-1.02445
1.02815
0.0286881
-0.0324734
-1.16283
1.16661
0.0363176
-0.0397354
-1.31164
1.31506
0.042947
-0.0455113
-1.46758
1.47015
0.046942
-0.0467604
-1.62825
1.62807
0.045154
-0.0419222
-1.51204
1.50881
0.0382439
-0.033596
-1.19255
1.18791
0.0286705
-0.0230759
-0.950399
0.944805
0.017641
-0.0117817
-0.728544
0.722685
0.00699324
-0.00259168
-0.49202
0.487619
-8.78049e-05
0.00188409
-0.272491
0.270695
-0.00267706
0.00279869
-0.116928
0.116807
-0.00252916
0.00190284
-0.0299904
0.0306167
-0.00124872
0.000589173
0.00413726
-0.00347771
-0.000171865
0.00426467
-0.0040928
-0.079627
0.0792786
0.000348395
0.00059396
-0.00134416
-0.444989