/*--------------------------------*- C++ -*----------------------------------*\
  =========                 |
  \\      /  F ield         | OpenFOAM: The Open Source CFD Toolbox
   \\    /   O peration     | Website:  https://openfoam.org
    \\  /    A nd           | Version:  6
     \\/     M anipulation  |
\*---------------------------------------------------------------------------*/
FoamFile
{
    version     2.0;
    format      ascii;
    class       volScalarField;
    location    "11.1";
    object      p;
}
// * * * * * * * * * * * * * * * * * * * * * * * * * * * * * * * * * * * * * //

dimensions      [0 2 -2 0 0 0 0];

internalField   nonuniform List<scalar> 
8800
(
0.469217
0.419944
0.382031
0.354029
0.333958
0.319508
0.309088
0.301722
0.296956
0.29484
0.295857
0.299692
0.305996
0.31498
0.327377
0.344466
0.368185
0.401171
0.444025
0.496504
0.303546
0.309947
0.319244
0.322959
0.320553
0.314664
0.307929
0.301822
0.297073
0.294163
0.293715
0.295922
0.300149
0.305875
0.312578
0.319258
0.32382
0.323442
0.316557
0.307516
0.276764
0.283103
0.287814
0.292007
0.295322
0.296637
0.295795
0.293835
0.291812
0.290678
0.291444
0.293568
0.295982
0.297758
0.297776
0.295447
0.291625
0.287244
0.282269
0.278501
0.272105
0.274961
0.277947
0.280493
0.282556
0.284397
0.285777
0.286276
0.286178
0.28609
0.286517
0.287164
0.287399
0.286698
0.285195
0.283367
0.281204
0.278397
0.275647
0.274092
0.266936
0.268443
0.270752
0.273387
0.275512
0.276975
0.278106
0.27917
0.280065
0.280732
0.280922
0.280694
0.280128
0.27934
0.27831
0.276678
0.274346
0.271769
0.270026
0.269259
0.262624
0.263444
0.265542
0.268133
0.270612
0.272941
0.274793
0.276023
0.276834
0.277384
0.277764
0.277765
0.277264
0.276075
0.27419
0.271957
0.269531
0.267109
0.265737
0.265429
0.261174
0.261558
0.262707
0.264214
0.265783
0.267255
0.268729
0.270219
0.271485
0.272403
0.272742
0.272482
0.27171
0.270689
0.269538
0.268199
0.266777
0.265454
0.264752
0.264621
0.259953
0.260171
0.260795
0.261685
0.262682
0.263959
0.265219
0.266431
0.267556
0.268484
0.269
0.268999
0.268586
0.267841
0.266966
0.266126
0.265355
0.26467
0.26431
0.264231
0.257782
0.257901
0.258257
0.258824
0.259547
0.2604
0.261493
0.262708
0.263926
0.265017
0.265672
0.265787
0.26553
0.265088
0.264596
0.264116
0.263701
0.263354
0.263178
0.263134
0.254833
0.254898
0.255171
0.255659
0.256244
0.256856
0.257758
0.25879
0.25993
0.261093
0.262001
0.262472
0.262592
0.262479
0.262439
0.262203
0.261913
0.261668
0.26157
0.26155
0.251592
0.251628
0.251833
0.25224
0.252781
0.253494
0.254333
0.255375
0.256608
0.25797
0.259145
0.259897
0.260296
0.26048
0.260381
0.260323
0.260184
0.260061
0.260025
0.260016
0.248084
0.248112
0.24827
0.248596
0.249068
0.249706
0.250547
0.251641
0.253012
0.254626
0.256147
0.257249
0.257955
0.258374
0.258591
0.258676
0.258678
0.258663
0.258666
0.258658
0.24418
0.24421
0.244348
0.244643
0.245099
0.245757
0.246674
0.247913
0.24952
0.251491
0.253441
0.254927
0.255943
0.256611
0.257021
0.257259
0.257386
0.257454
0.257484
0.257478
0.239792
0.239817
0.239972
0.240275
0.240761
0.241488
0.242535
0.243992
0.245931
0.248371
0.250848
0.252797
0.254177
0.255119
0.255737
0.256126
0.256362
0.256495
0.256549
0.256542
0.234854
0.234882
0.235058
0.235408
0.235972
0.236829
0.238083
0.239852
0.242241
0.245288
0.248425
0.250933
0.252748
0.253993
0.254826
0.255366
0.255703
0.255895
0.25597
0.255963
0.229258
0.229292
0.229506
0.22993
0.230617
0.231668
0.233214
0.235409
0.23839
0.242218
0.246187
0.249381
0.251689
0.253296
0.254377
0.255084
0.255528
0.255782
0.255881
0.255872
0.222846
0.222889
0.223159
0.223689
0.224552
0.225871
0.227813
0.230572
0.234324
0.239147
0.244152
0.248182
0.251102
0.253138
0.254512
0.255412
0.255979
0.256303
0.256428
0.256418
0.215407
0.215464
0.215811
0.216489
0.217591
0.219273
0.22174
0.225237
0.229985
0.236071
0.24237
0.247431
0.251096
0.25365
0.255376
0.256506
0.257218
0.257625
0.257781
0.257768
0.206642
0.206717
0.207165
0.20805
0.20949
0.211666
0.214827
0.21928
0.22531
0.232995
0.240905
0.247233
0.251806
0.254992
0.257144
0.258553
0.259439
0.259943
0.260137
0.260121
0.196145
0.196243
0.196834
0.198
0.199888
0.2027
0.206796
0.212548
0.220229
0.229934
0.23984
0.247719
0.253399
0.257353
0.260026
0.261776
0.262874
0.263494
0.263732
0.263712
0.183357
0.183491
0.184277
0.185834
0.188337
0.192065
0.197429
0.204848
0.214666
0.226915
0.239278
0.249041
0.25606
0.260949
0.264261
0.266436
0.2678
0.268567
0.268858
0.268828
0.167497
0.167687
0.168752
0.17088
0.174268
0.179245
0.186321
0.195996
0.208581
0.224005
0.239347
0.251369
0.259999
0.266023
0.270122
0.27283
0.274536
0.275486
0.275843
0.275802
0.147377
0.147647
0.149151
0.15216
0.156856
0.163656
0.173176
0.185892
0.202018
0.221333
0.240216
0.254894
0.265436
0.272833
0.277905
0.28129
0.283445
0.284648
0.285083
0.285029
0.121083
0.121493
0.123775
0.128275
0.135075
0.144694
0.157719
0.174511
0.195112
0.219093
0.242074
0.2598
0.272569
0.281617
0.287906
0.292168
0.29493
0.29649
0.297058
0.296982
0.0853622
0.0861161
0.08998
0.0972665
0.107693
0.121724
0.139777
0.161971
0.188091
0.217503
0.245081
0.2662
0.281499
0.292506
0.300331
0.305784
0.309423
0.311512
0.312271
0.312168
0.0339974
0.0361618
0.044094
0.0570875
0.0738757
0.0947054
0.119707
0.148725
0.181341
0.216811
0.249344
0.274095
0.292156
0.305405
0.315122
0.322204
0.327188
0.330253
0.331407
0.331264
-0.0427535
-0.032205
-0.0141973
0.00898071
0.035318
0.0651707
0.0986005
0.135424
0.175227
0.217309
0.255261
0.284089
0.305394
0.321428
0.333676
0.343201
0.350489
0.355531
0.357889
0.358176
-0.123414
-0.101999
-0.0731225
-0.0395024
-0.00338081
0.0355425
0.0774299
0.1222
0.16957
0.218986
0.263382
0.297336
0.322862
0.342574
0.358186
0.37078
0.381139
0.389703
0.393999
0.394518
-0.188562
-0.163315
-0.126411
-0.0844341
-0.0398498
0.00743464
0.0573431
0.109757
0.164382
0.220709
0.270965
0.309338
0.338232
0.360642
0.378449
0.392888
0.404574
0.41373
0.418157
0.41884
-0.240032
-0.212588
-0.170942
-0.12321
-0.0721581
-0.0180922
0.0386741
0.0978933
0.159119
0.221744
0.277138
0.31903
0.350262
0.374188
0.392902
0.40781
0.419802
0.428989
0.433634
0.434364
-0.281667
-0.253331
-0.208384
-0.156318
-0.100344
-0.040974
0.0215149
0.086602
0.153684
0.221904
0.281772
0.326601
0.359597
0.384518
0.403746
0.418851
0.430808
0.439836
0.444532
0.445299
-0.316865
-0.288165
-0.240871
-0.185359
-0.125364
-0.061511
0.0058012
0.0759825
0.148294
0.221683
0.285711
0.333161
0.367655
0.393362
0.412908
0.428038
0.439874
0.448686
0.45337
0.454156
-0.347815
-0.318967
-0.269826
-0.211555
-0.148221
-0.0805201
-0.00896544
0.0658231
0.142938
0.221092
0.288975
0.338891
0.374801
0.401235
0.421094
0.436288
0.448054
0.456731
0.461352
0.462146
-0.375905
-0.346921
-0.296368
-0.235778
-0.169607
-0.0985882
-0.0232676
0.0556394
0.13716
0.219871
0.291618
0.344082
0.381486
0.408733
0.428973
0.444289
0.456031
0.464598
0.469137
0.469939
-0.402021
-0.372866
-0.321118
-0.258542
-0.18995
-0.116072
-0.0374563
0.0452018
0.130906
0.218098
0.293771
0.348934
0.387992
0.416181
0.436901
0.452412
0.464179
0.472664
0.477105
0.477924
-0.426829
-0.397436
-0.344631
-0.280336
-0.209647
-0.133245
-0.0516502
0.034458
0.124095
0.215653
0.295381
0.353488
0.394445
0.42377
0.445112
0.460909
0.472755
0.481176
0.485505
0.486331
-0.45057
-0.420944
-0.367211
-0.30142
-0.228876
-0.150249
-0.0660085
0.0232251
0.116553
0.212432
0.296376
0.357725
0.400887
0.431596
0.453741
0.46995
0.481943
0.490343
0.49455
0.495337
-0.473583
-0.443611
-0.389063
-0.321983
-0.247835
-0.167265
-0.0806655
0.0114274
0.108225
0.208328
0.296639
0.361546
0.40727
0.439681
0.462859
0.479639
0.491895
0.500324
0.504393
0.505096
-0.495915
-0.465605
-0.410311
-0.342104
-0.266569
-0.1843
-0.0956112
-0.00095226
0.099057
0.203231
0.296012
0.364794
0.413487
0.447974
0.472477
0.490022
0.502657
0.51118
0.515137
0.515693
-0.51764
-0.486963
-0.430995
-0.361817
-0.285078
-0.20134
-0.110842
-0.0139051
0.0890279
0.197077
0.294335
0.367267
0.419358
0.456364
0.482539
0.501089
0.514243
0.522929
0.5268
0.527184
-0.538793
-0.507768
-0.451145
-0.381117
-0.303368
-0.21837
-0.126312
-0.0273878
0.0781673
0.189828
0.291471
0.368745
0.424616
0.464624
0.492916
0.512799
0.526677
0.535596
0.539359
0.539547
-0.559402
-0.527953
-0.470735
-0.399974
-0.321364
-0.235322
-0.14195
-0.041329
0.0665213
0.18146
0.28731
0.368957
0.428895
0.472417
0.503409
0.525009
0.539793
0.548973
0.552576
0.552584
-0.579298
-0.547472
-0.489712
-0.418337
-0.339011
-0.252109
-0.157673
-0.0556359
0.0541667
0.172014
0.28174
0.367669
0.431865
0.479407
0.513793
0.537688
0.553607
0.56299
0.566301
0.566071
-0.598451
-0.566289
-0.508037
-0.436148
-0.356245
-0.268662
-0.17338
-0.0702163
0.0412079
0.161538
0.274754
0.364733
0.433196
0.485099
0.523619
0.550761
0.568209
0.577479
0.580135
0.579622
-0.616909
-0.584368
-0.525669
-0.453369
-0.37299
-0.284891
-0.18897
-0.0849476
0.0277573
0.150123
0.26637
0.359991
0.432443
0.488756
0.532126
0.563993
0.584256
0.592956
0.593649
0.592667
-0.634529
-0.601692
-0.542578
-0.469933
-0.38919
-0.300712
-0.204347
-0.09971
0.0139672
0.137898
0.256621
0.353427
0.4294
0.489681
0.538174
0.576335
0.602337
0.612161
0.608331
0.603731
-0.651392
-0.618254
-0.558782
-0.48586
-0.404876
-0.316172
-0.219561
-0.114572
-0.000248802
0.124814
0.245401
0.344794
0.42383
0.487115
0.540199
0.585533
0.62061
0.63842
0.6327
0.623179
-0.66744
-0.634129
-0.574391
-0.501314
-0.420317
-0.33159
-0.235013
-0.130019
-0.015461
0.110188
0.231963
0.333254
0.414975
0.479792
0.53488
0.585908
0.628287
0.648582
0.642459
0.62466
-0.682583
-0.64927
-0.589246
-0.516115
-0.435304
-0.346682
-0.250477
-0.145713
-0.0313276
0.0943824
0.216563
0.318697
0.402509
0.467687
0.518271
0.567667
0.605012
0.609935
0.551602
0.513856
-0.696727
-0.664102
-0.60289
-0.529772
-0.449301
-0.361027
-0.265714
-0.161407
-0.0475685
0.0776537
0.1993
0.301123
0.386006
0.451937
0.490859
0.521871
0.542059
0.506301
0.437094
0.391919
-0.736664
-0.6773
-0.61531
-0.542953
-0.462971
-0.375398
-0.280641
-0.177212
-0.0643855
0.05972
0.179924
0.280362
0.363573
0.433649
0.451124
0.451056
0.429122
0.370543
0.291079
0.247993
-0.706412
-0.689025
-0.633716
-0.562988
-0.483153
-0.396579
-0.303291
-0.201479
-0.0906548
0.0308504
0.147169
0.244156
0.31932
0.379972
0.383768
0.268175
0.162007
0.0924036
0.0178814
0.0616121
-0.733908
-0.703713
-0.648093
-0.577268
-0.49818
-0.412467
-0.319744
-0.219238
-0.110234
0.00869795
0.121219
0.214076
0.282327
0.311637
0.254696
0.0929985
-0.0470283
-0.138959
-0.239718
-0.167121
-0.753946
-0.721431
-0.6643
-0.593397
-0.514853
-0.42975
-0.337837
-0.238845
-0.132153
-0.0163168
0.0922115
0.178653
0.237779
0.234181
0.104421
-0.109122
-0.281196
-0.408499
-0.540087
-0.470085
-0.772545
-0.739106
-0.680931
-0.609791
-0.531547
-0.44709
-0.356326
-0.259099
-0.154813
-0.0420879
0.0622834
0.141045
0.18596
0.140258
-0.0694233
-0.326875
-0.551747
-0.746195
-0.928003
-0.857063
-0.790063
-0.756524
-0.697877
-0.626575
-0.548622
-0.464916
-0.375507
-0.28017
-0.178265
-0.0688466
0.0303094
0.100785
0.126927
0.0310556
-0.245107
-0.544249
-0.832534
-1.07669
-1.38391
-1.48619
-0.807166
-0.774019
-0.715291
-0.643999
-0.566379
-0.483451
-0.395401
-0.301977
-0.202586
-0.0973592
-0.00479825
0.0575607
0.0633079
-0.0925789
-0.409626
-0.740126
-1.06272
-1.3322
-1.55057
-1.82756
-0.824491
-0.791835
-0.7333
-0.662224
-0.585092
-0.503108
-0.416545
-0.325343
-0.22894
-0.129108
-0.0427674
0.00875352
-0.0113443
-0.237065
-0.564608
-0.905886
-1.2108
-1.39791
-1.45004
-1.47635
-0.842261
-0.810049
-0.751849
-0.681146
-0.604678
-0.523859
-0.439121
-0.350699
-0.257698
-0.163409
-0.0828006
-0.0445969
-0.105508
-0.382947
-0.707359
-1.03235
-1.29099
-1.38634
-1.40442
-1.40499
-0.86064
-0.828656
-0.770788
-0.700538
-0.624881
-0.54547
-0.462943
-0.377659
-0.288712
-0.199968
-0.126458
-0.104457
-0.209961
-0.525425
-0.837347
-1.13395
-1.35516
-1.38499
-1.37937
-1.37527
-0.879255
-0.847499
-0.78991
-0.720144
-0.645453
-0.567663
-0.487818
-0.405834
-0.322323
-0.238842
-0.174697
-0.171894
-0.324269
-0.668106
-0.959356
-1.19759
-1.35255
-1.37114
-1.36391
-1.36086
-0.897826
-0.866178
-0.808843
-0.739586
-0.665972
-0.590117
-0.513227
-0.435479
-0.35866
-0.281492
-0.225132
-0.244662
-0.458015
-0.821648
-1.08238
-1.19582
-1.26672
-1.33596
-1.37267
-1.37826
-0.915483
-0.884094
-0.827049
-0.758293
-0.685868
-0.612241
-0.538647
-0.466541
-0.396254
-0.326141
-0.275121
-0.314116
-0.610647
-1.01658
-1.27398
-1.25774
-1.30542
-1.4189
-1.48287
-1.49731
-0.931665
-0.900502
-0.843723
-0.775495
-0.704396
-0.633184
-0.563726
-0.497876
-0.434154
-0.368992
-0.324362
-0.378259
-0.768707
-1.29129
-1.67429
-1.69514
-1.65924
-1.69692
-1.73706
-1.75362
-0.945487
-0.914495
-0.857927
-0.790233
-0.720567
-0.652049
-0.587497
-0.52882
-0.473923
-0.411305
-0.369734
-0.432517
-0.908716
-1.59872
-2.21613
-2.42481
-2.30686
-2.18496
-2.13656
-2.13728
-0.95558
-0.924788
-0.868454
-0.801338
-0.733176
-0.667641
-0.608453
-0.558375
-0.517667
-0.460002
-0.419559
-0.50841
-1.00845
-1.77177
-2.57678
-2.98689
-2.98657
-2.8042
-2.63045
-2.57931
-0.960467
-0.929982
-0.873952
-0.807478
-0.74087
-0.67845
-0.625179
-0.587276
-0.568572
-0.530622
-0.501933
-0.616677
-1.03278
-1.7519
-2.5703
-3.13043
-3.2599
-3.1349
-2.90691
-2.78302
-0.958746
-0.928541
-0.872974
-0.807274
-0.74219
-0.682938
-0.636493
-0.614041
-0.62989
-0.652353
-0.679458
-0.792487
-1.01203
-1.46228
-1.99639
-2.45035
-2.62496
-2.58491
-2.4078
-2.29797
-0.949185
-0.919158
-0.864166
-0.799384
-0.735755
-0.679427
-0.640156
-0.636728
-0.706042
-0.866271
-1.07139
-1.08188
-0.903475
-0.986849
-1.03466
-1.19325
-1.18238
-1.03383
-0.825233
-0.714187
-0.930214
-0.900539
-0.846381
-0.782698
-0.72029
-0.666209
-0.633256
-0.650464
-0.796855
-1.20019
-1.644
-1.39028
-0.779444
-0.356565
0.186509
0.586549
0.864256
1.07304
1.21954
1.28505
-0.901048
-0.871753
-0.818802
-0.756397
-0.694811
-0.641629
-0.611842
-0.643615
-0.860297
-1.5568
-2.33042
-1.60752
-0.626633
0.29057
1.08935
1.69122
2.09012
2.27184
2.35125
2.3729
-0.861371
-0.832747
-0.781028
-0.719968
-0.658784
-0.604629
-0.572126
-0.600056
-0.820397
-1.61468
-2.362
-1.45297
-0.416738
0.589991
1.32509
1.80256
2.08839
2.22198
2.27988
2.29379
-0.810208
-0.78244
-0.732905
-0.673585
-0.612605
-0.555757
-0.51446
-0.516859
-0.649135
-1.12823
-1.42963
-0.748203
0.0647237
0.768757
1.2418
1.53246
1.70719
1.80606
1.85732
1.86545
-0.746805
-0.721209
-0.674929
-0.618029
-0.557722
-0.498017
-0.445503
-0.413843
-0.43416
-0.544164
-0.501375
-0.0470235
0.446865
0.828539
1.08916
1.26028
1.37374
1.44837
1.48529
1.49111
-0.67254
-0.649667
-0.607923
-0.55468
-0.496232
-0.435355
-0.374245
-0.316404
-0.263992
-0.197543
-0.0348639
0.250568
0.539757
0.75313
0.907805
1.01866
1.09858
1.15364
1.18537
1.19536
-0.587271
-0.571314
-0.533728
-0.484368
-0.429941
-0.370764
-0.306578
-0.236266
-0.154348
-0.0406105
0.123963
0.316116
0.489425
0.621514
0.719811
0.792963
0.847993
0.887289
0.909402
0.915791
-0.479322
-0.471254
-0.444067
-0.404233
-0.358148
-0.305795
-0.246212
-0.177344
-0.0938409
0.0178344
0.158792
0.301882
0.424076
0.518032
0.58749
0.637646
0.673494
0.699323
0.714995
0.718969
-0.371656
-0.367848
-0.349124
-0.319506
-0.283944
-0.241587
-0.191027
-0.130093
-0.0542508
0.0448022
0.161393
0.271069
0.361269
0.429637
0.47907
0.513625
0.536627
0.551199
0.558846
0.56049
-0.267815
-0.266199
-0.254789
-0.235266
-0.210222
-0.178612
-0.138989
-0.0885632
-0.0242253
0.0595022
0.153883
0.2386
0.305764
0.355673
0.390728
0.414265
0.429257
0.438079
0.442197
0.442695
-0.17291
-0.172738
-0.167139
-0.156363
-0.140872
-0.119622
-0.090538
-0.0514468
0.000368096
0.0683331
0.143643
0.209348
0.260017
0.29659
0.321637
0.337882
0.347574
0.352614
0.354633
0.354657
-0.0943697
-0.0950772
-0.0943238
-0.0905272
-0.0827205
-0.0694632
-0.0491384
-0.0200209
0.0204726
0.0742604
0.133469
0.183981
0.222069
0.249078
0.267043
0.278012
0.284195
0.287174
0.288178
0.288051
-0.0374759
-0.0384923
-0.0400285
-0.0405585
-0.0377408
-0.0303029
-0.0167336
0.00455821
0.0352858
0.0770121
0.122868
0.161575
0.190254
0.210002
0.22278
0.230518
0.234646
0.236401
0.236905
0.236746
-0.000249493
-0.00116735
-0.00325763
-0.00498553
-0.00465111
-0.000894233
0.00772519
0.0228678
0.0459239
0.0779359
0.113124
0.142435
0.163848
0.178516
0.187847
0.193191
0.195831
0.196812
0.197009
0.196847
0.0223499
0.0216932
0.0199245
0.0182176
0.0179458
0.0201189
0.0258062
0.0364023
0.053347
0.0775233
0.104359
0.126645
0.142727
0.153413
0.159967
0.163636
0.16532
0.165782
0.165786
0.165643
0.0355782
0.0351558
0.033961
0.0326974
0.0323377
0.0337153
0.0377891
0.0455761
0.0581606
0.0763147
0.0965084
0.113134
0.124964
0.132806
0.137591
0.14014
0.141183
0.141353
0.141276
0.141161
0.0434227
0.0431539
0.0424071
0.0415952
0.0413767
0.0423116
0.0451353
0.0507607
0.0600975
0.0737187
0.0889221
0.101424
0.110304
0.116083
0.119493
0.121248
0.121911
0.121952
0.121859
0.121767
0.0479909
0.0478131
0.0473221
0.0467908
0.0466906
0.0474404
0.0495637
0.0537124
0.0606128
0.0707877
0.0821845
0.091494
0.0980164
0.102217
0.104669
0.105894
0.106312
0.106288
0.106196
0.106122
0.0501966
0.0500738
0.0497197
0.0493309
0.0492572
0.0498029
0.051366
0.0544517
0.0595946
0.0671785
0.07567
0.0825953
0.0874355
0.090526
0.0922961
0.0931522
0.0934154
0.0933636
0.0932802
0.0932208
0.0505563
0.0504704
0.0502168
0.0499357
0.0498911
0.0503064
0.0514687
0.0537506
0.0575678
0.0632246
0.0695629
0.0747056
0.0782727
0.0805212
0.0817899
0.082383
0.0825405
0.0824738
0.0824
0.0823525
0.0495253
0.0494629
0.0492821
0.0490812
0.0490558
0.0493711
0.0502415
0.0519438
0.0547836
0.0589881
0.0636961
0.067503
0.0701281
0.0717687
0.0726797
0.0730896
0.0731794
0.0731102
0.0730467
0.0730086
0.0474766
0.0474296
0.0473002
0.0471588
0.0471477
0.047388
0.0480379
0.0493034
0.0514137
0.0545387
0.0580338
0.0608502
0.0627777
0.0639707
0.0646221
0.0649037
0.064951
0.0648856
0.0648316
0.064801
0.044689
0.0446529
0.0445581
0.044457
0.0444531
0.0446356
0.0451214
0.0460627
0.0476291
0.0499469
0.0525348
0.0546099
0.0560213
0.0568874
0.0573519
0.0575438
0.0575645
0.0575051
0.0574596
0.0574351
0.0413558
0.0413276
0.041256
0.0411809
0.0411782
0.0413139
0.0416741
0.0423715
0.0435314
0.0452471
0.047158
0.0486818
0.0497135
0.0503401
0.0506697
0.0507987
0.0508026
0.0507499
0.0507118
0.0506922
0.0376146
0.0375924
0.037537
0.0374788
0.0374745
0.0375728
0.0378375
0.0383515
0.0392071
0.0404724
0.0418781
0.0429937
0.043745
0.0441957
0.0444274
0.0445121
0.0445057
0.0444596
0.0444279
0.0444122
0.0335664
0.0335487
0.033505
0.0334585
0.0334517
0.0335208
0.0337128
0.0340885
0.0347157
0.035644
0.0366736
0.037487
0.0380308
0.0383522
0.0385128
0.038566
0.0385534
0.0385135
0.0384871
0.0384748
0.0292872
0.029273
0.0292381
0.0292002
0.0291911
0.0292376
0.0293743
0.0296458
0.0301018
0.0307775
0.0315259
0.0321151
0.0325051
0.0327319
0.0328412
0.0328725
0.0328565
0.0328221
0.0328004
0.0327907
0.0248363
0.024825
0.0247968
0.0247651
0.024754
0.0247831
0.0248778
0.0250708
0.0253978
0.0258843
0.0264224
0.0268441
0.0271199
0.0272773
0.0273498
0.0273662
0.027349
0.0273196
0.0273017
0.027294
0.020258
0.0202489
0.020226
0.0201994
0.0201869
0.0202032
0.0202665
0.0204002
0.0206301
0.0209737
0.0213533
0.0216491
0.0218401
0.0219464
0.0219922
0.0219982
0.0219807
0.0219559
0.0219412
0.0219352
0.0155848
0.0155776
0.0155593
0.015537
0.0155241
0.0155312
0.015571
0.0156597
0.0158152
0.0160496
0.0163076
0.0165077
0.0166355
0.0167043
0.0167309
0.01673
0.0167133
0.0166924
0.0166804
0.0166759
0.0108431
0.0108378
0.0108231
0.0108045
0.0107922
0.0107931
0.0108154
0.0108697
0.0109672
0.011116
0.0112798
0.0114056
0.0114845
0.0115251
0.0115384
0.0115339
0.0115188
0.0115016
0.0114923
0.0114891
0.00604994
0.00604622
0.00603536
0.00602208
0.00601291
0.00601104
0.00602086
0.00604819
0.00609889
0.00617738
0.00626367
0.00632948
0.00636982
0.00638954
0.0063943
0.00638931
0.00637796
0.00636536
0.00635846
0.0063564
0.00121756
0.00121723
0.00121591
0.00121087
0.00120668
0.00120447
0.00120509
0.00120847
0.00121561
0.00122748
0.00124369
0.00125874
0.00126864
0.00127418
0.00127646
0.00127597
0.00127306
0.00126842
0.00126451
0.00126393
-0.676101
-0.41036
-0.163706
0.0365367
0.20181
0.337299
0.454978
0.552646
0.586983
0.582281
-0.260403
-0.0902211
0.0662417
0.202302
0.319234
0.418073
0.498063
0.554273
0.58488
0.600446
0.0177383
0.126371
0.233968
0.329462
0.412215
0.481683
0.536801
0.578058
0.606988
0.626102
0.209433
0.285329
0.361935
0.430923
0.490747
0.541441
0.583167
0.616894
0.641758
0.660863
0.355974
0.41088
0.467086
0.518678
0.564072
0.603644
0.637638
0.665762
0.686453
0.704811
0.474727
0.517175
0.560071
0.600923
0.638095
0.671187
0.699916
0.723674
0.741372
0.759101
0.574996
0.61187
0.648667
0.684132
0.716858
0.746354
0.772042
0.792906
0.808097
0.825368
0.669491
0.704843
0.740302
0.774129
0.805297
0.833097
0.856796
0.875579
0.888932
0.905707
0.768465
0.806519
0.843188
0.877313
0.90793
0.934612
0.956878
0.97401
0.986179
1.00251
0.88438
0.925781
0.964009
0.99814
1.02761
1.05242
1.07275
1.08859
1.10086
1.11707
1.02753
1.06918
1.10509
1.13534
1.16117
1.18334
1.20227
1.2181
1.2315
1.24755
1.20017
1.23307
1.26029
1.283
1.30339
1.3224
1.34045
1.35745
1.37249
1.38824
1.3874
1.40484
1.42207
1.43897
1.45529
1.47011
1.48411
1.49875
1.51413
1.53151
1.57058
1.58098
1.59428
1.6053
1.61488
1.62477
1.63553
1.64573
1.65505
1.68077
1.78869
1.78318
1.77057
1.7563
1.75003
1.75585
1.77409
1.80271
1.83651
1.87285
2.0922
1.95585
1.87642
1.83418
1.81691
1.8209
1.84838
1.90625
2.01395
2.19238
0.372818
0.366538
0.358886
0.347904
0.334479
0.321967
0.311716
0.30388
0.298312
0.295056
0.294545
0.296929
0.301694
0.308622
0.317813
0.32938
0.342704
0.35543
0.364266
0.371744
0.281763
0.287724
0.295922
0.30221
0.305513
0.305297
0.302553
0.298812
0.295304
0.292893
0.292522
0.294504
0.297898
0.301879
0.305476
0.307236
0.305804
0.300893
0.293647
0.285697
0.27445
0.27684
0.280418
0.283649
0.286537
0.289187
0.290702
0.290682
0.289718
0.288721
0.288648
0.289826
0.291282
0.292165
0.29162
0.28956
0.286825
0.283912
0.280445
0.277244
0.269591
0.270657
0.272772
0.275418
0.277581
0.279122
0.280405
0.281617
0.282524
0.283103
0.283461
0.283541
0.283283
0.282526
0.281505
0.280307
0.278584
0.276176
0.273717
0.272128
0.264443
0.264967
0.266614
0.269338
0.27203
0.274288
0.275984
0.277156
0.278009
0.278655
0.279103
0.279247
0.279028
0.278417
0.277271
0.275468
0.273096
0.270396
0.268139
0.267172
0.26166
0.261839
0.262888
0.264842
0.266916
0.268945
0.27095
0.272684
0.274008
0.274925
0.275483
0.275584
0.275112
0.274051
0.272482
0.270707
0.268811
0.266856
0.265294
0.264816
0.260673
0.260776
0.261311
0.262347
0.263523
0.264784
0.265984
0.267223
0.26845
0.269527
0.270224
0.270353
0.270004
0.269347
0.268574
0.267554
0.266552
0.265552
0.264786
0.264538
0.258991
0.259048
0.259346
0.259952
0.260748
0.261706
0.262933
0.264257
0.265515
0.266646
0.267471
0.267753
0.267544
0.266982
0.266188
0.265505
0.264872
0.264313
0.263924
0.263793
0.256369
0.256397
0.256578
0.256997
0.257575
0.258179
0.258969
0.259968
0.261101
0.262253
0.263231
0.263783
0.263897
0.263756
0.263537
0.263297
0.262969
0.262647
0.262437
0.262375
0.253236
0.253242
0.253367
0.253713
0.254174
0.254868
0.255741
0.25664
0.257744
0.258975
0.26016
0.260988
0.261404
0.261554
0.261465
0.261279
0.261136
0.260916
0.26079
0.260765
0.249883
0.249884
0.249978
0.250252
0.250688
0.251257
0.251989
0.252934
0.254113
0.255509
0.256965
0.258116
0.258836
0.259242
0.259446
0.259483
0.259446
0.259367
0.259328
0.259322
0.246187
0.24619
0.246265
0.246494
0.246876
0.247422
0.248173
0.249182
0.250497
0.252133
0.253943
0.255478
0.256544
0.257226
0.257642
0.25787
0.257978
0.258019
0.258043
0.258049
0.242052
0.242051
0.242136
0.242352
0.242726
0.243292
0.244112
0.245259
0.246802
0.248783
0.251047
0.253054
0.254485
0.255469
0.25611
0.256514
0.256756
0.256894
0.256966
0.25698
0.237398
0.237395
0.237487
0.23773
0.238145
0.238786
0.239736
0.241094
0.242959
0.245398
0.248244
0.250811
0.252685
0.254015
0.254907
0.255488
0.255854
0.256074
0.256186
0.256209
0.232151
0.232146
0.232257
0.232543
0.233036
0.233805
0.234955
0.236615
0.238918
0.24196
0.245544
0.24881
0.251239
0.252944
0.25411
0.254882
0.255376
0.255677
0.255828
0.255859
0.22617
0.226163
0.226303
0.226657
0.227268
0.228221
0.229651
0.231722
0.234606
0.238427
0.242943
0.247074
0.250146
0.252324
0.253815
0.254807
0.255446
0.255836
0.256031
0.256071
0.219274
0.219264
0.219443
0.219893
0.220667
0.221872
0.223679
0.226298
0.229941
0.234764
0.240457
0.245659
0.249526
0.252269
0.25415
0.255404
0.256214
0.256709
0.256956
0.257005
0.21121
0.211199
0.211433
0.212019
0.21301
0.214545
0.216853
0.220195
0.224831
0.230936
0.23811
0.24464
0.249481
0.252913
0.255266
0.256836
0.257854
0.258478
0.258788
0.258848
0.201638
0.201626
0.201936
0.202698
0.203986
0.205974
0.208975
0.213279
0.219178
0.226913
0.235944
0.244114
0.250147
0.254417
0.257345
0.259301
0.260574
0.261359
0.261748
0.261821
0.190085
0.190072
0.190494
0.191507
0.193199
0.195821
0.19972
0.205268
0.212856
0.222682
0.234026
0.244205
0.251688
0.256977
0.260604
0.26303
0.264614
0.265599
0.266089
0.266179
0.175864
0.175852
0.176442
0.177822
0.180091
0.183581
0.188735
0.196008
0.205786
0.218259
0.232456
0.245065
0.254293
0.260815
0.265293
0.268292
0.270255
0.271481
0.27209
0.272205
0.157979
0.157978
0.158841
0.160771
0.163901
0.168673
0.17562
0.185217
0.197867
0.213684
0.231354
0.24686
0.258163
0.266166
0.271688
0.2754
0.277836
0.279364
0.280137
0.280282
0.134935
0.13498
0.136296
0.139086
0.143552
0.150266
0.159792
0.172619
0.18906
0.209047
0.230864
0.249749
0.263479
0.27325
0.280056
0.284681
0.287743
0.289677
0.290661
0.290849
0.1043
0.104473
0.1066
0.110899
0.11764
0.127456
0.140852
0.158177
0.17951
0.204553
0.231174
0.25389
0.270385
0.282229
0.290611
0.296425
0.300351
0.302871
0.30415
0.304389
0.0615597
0.062077
0.0660506
0.0735579
0.0845946
0.0996131
0.118802
0.14219
0.169604
0.20055
0.232524
0.259418
0.278952
0.293151
0.303426
0.310781
0.31593
0.319377
0.321146
0.321454
-0.00146457
0.00069356
0.0100308
0.0245658
0.0436299
0.0669337
0.0941978
0.125277
0.159868
0.19739
0.235075
0.266336
0.289063
0.30581
0.318251
0.327524
0.334362
0.339182
0.341842
0.342219
-0.0776624
-0.0733234
-0.0554995
-0.0297952
-0.000199045
0.032576
0.0686063
0.107898
0.150188
0.195
0.239388
0.276188
0.303302
0.323784
0.339572
0.351901
0.361746
0.368987
0.372448
0.373855
-0.15456
-0.144161
-0.117581
-0.0818868
-0.0426741
-0.000730243
0.0439438
0.0913019
0.141226
0.193319
0.244442
0.286761
0.318126
0.34213
0.360983
0.376108
0.388338
0.397843
0.403683
0.405965
-0.212736
-0.201254
-0.169746
-0.127444
-0.0809719
-0.0314561
0.0207815
0.0755623
0.132619
0.191504
0.248792
0.295896
0.33061
0.357034
0.377647
0.393984
0.407045
0.417116
0.423417
0.425817
-0.259507
-0.247461
-0.212677
-0.165781
-0.113943
-0.0585923
-0.000246404
0.0608407
0.124177
0.189179
0.251905
0.302971
0.340195
0.368157
0.389646
0.406448
0.41971
0.429922
0.436285
0.438665
-0.297923
-0.285907
-0.249115
-0.198724
-0.142676
-0.0827256
-0.0192943
0.0471529
0.116005
0.186455
0.254116
0.308755
0.348113
0.377284
0.399399
0.416453
0.429722
0.43984
0.446132
0.448424
-0.331129
-0.319216
-0.28099
-0.227835
-0.168356
-0.104494
-0.0367296
0.0343787
0.108173
0.183663
0.25591
0.3138
0.355066
0.385275
0.407876
0.425084
0.438338
0.448381
0.454644
0.456861
-0.360781
-0.348993
-0.309722
-0.25433
-0.192016
-0.124828
-0.0532669
0.0220612
0.100352
0.180469
0.257041
0.318126
0.36131
0.392586
0.415717
0.433141
0.446434
0.456435
0.462681
0.464814
-0.387966
-0.376267
-0.336158
-0.278887
-0.214176
-0.144135
-0.0692767
0.00975655
0.0921517
0.176712
0.257607
0.321988
0.36721
0.399663
0.423419
0.441119
0.454496
0.464475
0.47073
0.472779
-0.413529
-0.401863
-0.360984
-0.302092
-0.235327
-0.162833
-0.0850794
-0.00266799
0.0835658
0.172392
0.257609
0.325434
0.372902
0.406719
0.431236
0.449318
0.462848
0.47284
0.479069
0.481019
-0.437871
-0.426219
-0.384648
-0.324354
-0.255798
-0.18112
-0.100782
-0.0153323
0.0744416
0.167337
0.256929
0.328439
0.378435
0.413873
0.439342
0.457932
0.471689
0.481747
0.487936
0.489819
-0.461316
-0.44961
-0.407406
-0.345886
-0.275777
-0.199203
-0.116578
-0.0284043
0.0646475
0.161462
0.255451
0.330922
0.383787
0.421157
0.447825
0.467091
0.481178
0.491341
0.497504
0.499335
-0.484083
-0.472227
-0.429447
-0.366855
-0.295402
-0.217185
-0.132546
-0.0419082
0.0541448
0.154691
0.253062
0.332741
0.38885
0.428521
0.456691
0.476851
0.491413
0.501772
0.507903
0.509691
-0.5062
-0.494172
-0.450857
-0.387316
-0.314698
-0.23505
-0.148655
-0.0558518
0.0429243
0.146955
0.249663
0.333729
0.393447
0.435826
0.465865
0.487199
0.502438
0.513095
0.519228
0.520939
-0.527761
-0.51552
-0.471684
-0.407297
-0.333674
-0.252806
-0.164902
-0.0702072
0.0309921
0.138244
0.24513
0.33368
0.397334
0.442884
0.475236
0.498077
0.514199
0.525284
0.531464
0.53305
-0.548685
-0.536262
-0.491935
-0.426792
-0.352313
-0.270406
-0.181222
-0.0849125
0.0184013
0.128554
0.239373
0.33239
0.400252
0.449472
0.48465
0.509406
0.526642
0.538251
0.54449
0.545904
-0.569016
-0.556353
-0.511546
-0.445751
-0.370555
-0.287785
-0.197542
-0.0998783
0.00523658
0.117929
0.232379
0.329723
0.401912
0.455206
0.493804
0.521031
0.539734
0.551967
0.55821
0.55938
-0.58855
-0.575759
-0.530489
-0.464126
-0.388334
-0.304857
-0.213778
-0.115017
-0.00840355
0.106457
0.224132
0.325551
0.401963
0.459516
0.502179
0.532715
0.553417
0.56626
0.572248
0.573074
-0.607425
-0.594448
-0.548718
-0.481878
-0.40561
-0.321568
-0.229829
-0.130228
-0.0224139
0.0942375
0.214667
0.319746
0.400174
0.461953
0.509173
0.544101
0.567935
0.581527
0.586492
0.586569
-0.62548
-0.612346
-0.566212
-0.498963
-0.422295
-0.337835
-0.245605
-0.145385
-0.036677
0.0813755
0.204088
0.312312
0.396389
0.462131
0.514005
0.554369
0.583332
0.599054
0.601643
0.5992
-0.642794
-0.629499
-0.582933
-0.51534
-0.438349
-0.353588
-0.261025
-0.160402
-0.0510615
0.068038
0.1925
0.303294
0.390534
0.459608
0.5156
0.561863
0.598317
0.620462
0.623231
0.610881
-0.65926
-0.645882
-0.598985
-0.531141
-0.453971
-0.369103
-0.27642
-0.175692
-0.0660546
0.0536821
0.1793
0.292025
0.381939
0.453647
0.51233
0.563858
0.608915
0.640806
0.648082
0.644649
-0.67488
-0.66157
-0.61434
-0.546294
-0.469138
-0.38436
-0.291745
-0.191247
-0.0816572
0.0382349
0.164364
0.27824
0.370092
0.443827