/*--------------------------------*- C++ -*----------------------------------*\
  =========                 |
  \\      /  F ield         | OpenFOAM: The Open Source CFD Toolbox
   \\    /   O peration     | Website:  https://openfoam.org
    \\  /    A nd           | Version:  6
     \\/     M anipulation  |
\*---------------------------------------------------------------------------*/
FoamFile
{
    version     2.0;
    format      ascii;
    class       volVectorField;
    location    "15.2";
    object      U;
}
// * * * * * * * * * * * * * * * * * * * * * * * * * * * * * * * * * * * * * //

dimensions      [0 1 -1 0 0 0 0];

internalField   nonuniform List<vector> 
8800
(
(0.987176 -0.076659 0)
(1.00188 -0.055183 0)
(0.999777 -0.0285316 0)
(1.00007 -0.0150594 0)
(1.00006 -0.00844052 0)
(1.00008 -0.00497118 0)
(1.00004 -0.0029319 0)
(0.999997 -0.0016849 0)
(0.999959 -0.000829512 0)
(1.00004 -0.000152789 0)
(0.999949 0.000553137 0)
(0.999978 0.00131305 0)
(1.00003 0.00232006 0)
(1.00007 0.00389231 0)
(1.00007 0.00651076 0)
(1.00007 0.0112355 0)
(1.00001 0.0207361 0)
(0.999168 0.0386419 0)
(1.00705 0.0724437 0)
(0.771214 0.0366561 0)
(0.36323 -0.0160005 0)
(1.04342 -0.0767139 0)
(1.08456 -0.0702834 0)
(1.04511 -0.0534548 0)
(1.02329 -0.0389431 0)
(1.01198 -0.0261616 0)
(1.00616 -0.0166847 0)
(1.00325 -0.010212 0)
(1.0019 -0.00563174 0)
(1.00132 -0.00211805 0)
(1.00123 0.000980146 0)
(1.00152 0.00420888 0)
(1.00241 0.00812809 0)
(1.0044 0.0134423 0)
(1.00856 0.0212533 0)
(1.01672 0.0324328 0)
(1.03251 0.0463352 0)
(1.06263 0.0613497 0)
(1.09193 0.0758339 0)
(0.839029 0.0564575 0)
(0.217213 -0.00239951 0)
(1.07624 -0.0499008 0)
(1.10013 -0.0479146 0)
(1.06461 -0.0398126 0)
(1.03957 -0.0328456 0)
(1.02336 -0.0255769 0)
(1.0136 -0.0183239 0)
(1.00818 -0.0117341 0)
(1.00545 -0.00601256 0)
(1.00436 -0.000789629 0)
(1.00468 0.00425431 0)
(1.00644 0.00957658 0)
(1.01031 0.01561 0)
(1.01762 0.0224572 0)
(1.0302 0.0296532 0)
(1.05061 0.0367098 0)
(1.08073 0.0436839 0)
(1.10685 0.0507784 0)
(0.943483 0.0413169 0)
(0.216885 0.00241392 0)
(0.176032 -0.000761663 0)
(1.01873 -0.0349344 0)
(1.10553 -0.0407203 0)
(1.07856 -0.0355823 0)
(1.05337 -0.0296584 0)
(1.03573 -0.0239827 0)
(1.02354 -0.0183396 0)
(1.01556 -0.0124985 0)
(1.01082 -0.00670814 0)
(1.00882 -0.00079973 0)
(1.00938 0.00501385 0)
(1.01257 0.0107235 0)
(1.01879 0.0163841 0)
(1.02862 0.0220129 0)
(1.04334 0.0274869 0)
(1.06428 0.0331333 0)
(1.09429 0.0390837 0)
(1.09455 0.0408968 0)
(0.830012 0.0223799 0)
(0.175489 0.000778122 0)
(0.155558 -0.000547445 0)
(0.958951 -0.0243802 0)
(1.10378 -0.0334162 0)
(1.08716 -0.0307544 0)
(1.0613 -0.026378 0)
(1.04359 -0.021627 0)
(1.0311 -0.0168084 0)
(1.02228 -0.0118851 0)
(1.01652 -0.00659263 0)
(1.01382 -0.000632844 0)
(1.01458 0.00548658 0)
(1.01864 0.0108665 0)
(1.0257 0.0157087 0)
(1.03617 0.0203398 0)
(1.05096 0.0249601 0)
(1.07217 0.0293148 0)
(1.10072 0.0333439 0)
(1.07073 0.0320451 0)
(0.745634 0.0134012 0)
(0.154754 0.000565259 0)
(0.142277 -0.000374519 0)
(0.905568 -0.017371 0)
(1.09733 -0.0275105 0)
(1.09558 -0.0264519 0)
(1.06836 -0.0229172 0)
(1.04966 -0.0192962 0)
(1.03666 -0.0151344 0)
(1.0276 -0.0105359 0)
(1.0217 -0.00558788 0)
(1.01882 -0.000188251 0)
(1.01954 0.00520508 0)
(1.02367 0.010181 0)
(1.03088 0.01471 0)
(1.04159 0.0188031 0)
(1.057 0.0223833 0)
(1.07971 0.0257007 0)
(1.10409 0.0284717 0)
(1.0418 0.0251239 0)
(0.684475 0.00888236 0)
(0.141153 0.000395864 0)
(0.133328 -0.000255469 0)
(0.861909 -0.011913 0)
(1.08605 -0.0214202 0)
(1.10009 -0.0216285 0)
(1.07386 -0.0191614 0)
(1.05404 -0.0164518 0)
(1.04017 -0.0132659 0)
(1.03071 -0.00942419 0)
(1.02472 -0.00488235 0)
(1.02189 0.000235971 0)
(1.02246 0.00532459 0)
(1.02642 0.00988129 0)
(1.03374 0.0137143 0)
(1.04503 0.0168435 0)
(1.06151 0.0194391 0)
(1.08496 0.0216944 0)
(1.10333 0.0231829 0)
(1.01202 0.0188302 0)
(0.640696 0.00581287 0)
(0.131818 0.000281175 0)
(0.127741 -0.000132704 0)
(0.829901 -0.00687517 0)
(1.07366 -0.0149732 0)
(1.10232 -0.0163692 0)
(1.07815 -0.0150595 0)
(1.05911 -0.0131236 0)
(1.04596 -0.0106482 0)
(1.03653 -0.00757708 0)
(1.03013 -0.00383026 0)
(1.02685 0.000776211 0)
(1.02748 0.00550728 0)
(1.03172 0.00931514 0)
(1.03915 0.0122776 0)
(1.04992 0.0145326 0)
(1.0654 0.016245 0)
(1.08844 0.0174613 0)
(1.1004 0.0175936 0)
(0.985481 0.0124592 0)
(0.612046 0.00322066 0)
(0.125756 0.000163317 0)
(0.125428 -1.08006e-05 0)
(0.809779 -0.00300124 0)
(1.06054 -0.00876154 0)
(1.10145 -0.0109467 0)
(1.08024 -0.0104067 0)
(1.06098 -0.00946777 0)
(1.04785 -0.00800663 0)
(1.03883 -0.00570974 0)
(1.03294 -0.00255932 0)
(1.03 0.00140783 0)
(1.03021 0.00543767 0)
(1.0338 0.00857973 0)
(1.04056 0.0106843 0)
(1.05097 0.011828 0)
(1.06667 0.0123659 0)
(1.08915 0.012799 0)
(1.09411 0.0119211 0)
(0.96391 0.00694456 0)
(0.596316 0.00140706 0)
(0.122877 4.80171e-05 0)
(0.125149 3.36524e-05 0)
(0.798628 -0.0013786 0)
(1.05015 -0.00522727 0)
(1.09979 -0.00721797 0)
(1.08124 -0.00746056 0)
(1.06241 -0.00669209 0)
(1.04996 -0.00569276 0)
(1.04143 -0.00391767 0)
(1.03567 -0.00127437 0)
(1.03266 0.00216827 0)
(1.03265 0.00560421 0)
(1.03586 0.00815358 0)
(1.04207 0.0096361 0)
(1.05176 0.010341 0)
(1.06676 0.0106257 0)
(1.08831 0.0100012 0)
(1.08736 0.00855217 0)
(0.948702 0.00442205 0)
(0.587934 0.000788878 0)
(0.121873 1.20754e-05 0)
(0.125332 2.94898e-05 0)
(0.790872 -0.000994247 0)
(1.04132 -0.00446249 0)
(1.0974 -0.00697427 0)
(1.08143 -0.0073433 0)
(1.06386 -0.00704369 0)
(1.05199 -0.00568544 0)
(1.0441 -0.00361592 0)
(1.03886 -0.00066166 0)
(1.03588 0.00296977 0)
(1.03559 0.00644324 0)
(1.03814 0.0091022 0)
(1.04348 0.0107297 0)
(1.05239 0.0113691 0)
(1.0662 0.0111277 0)
(1.08621 0.0104896 0)
(1.08032 0.00842075 0)
(0.936118 0.00399907 0)
(0.581561 0.000760449 0)
(0.121176 2.70531e-05 0)
(0.125532 2.41565e-05 0)
(0.78433 -0.00058656 0)
(1.0311 -0.00394742 0)
(1.09306 -0.00783208 0)
(1.08115 -0.00926393 0)
(1.06523 -0.00887067 0)
(1.05421 -0.00719012 0)
(1.04684 -0.00440347 0)
(1.04173 -0.000629714 0)
(1.03852 0.00385618 0)
(1.03795 0.0081901 0)
(1.04007 0.0115269 0)
(1.04473 0.0136425 0)
(1.05264 0.0147205 0)
(1.06513 0.0144389 0)
(1.08266 0.012951 0)
(1.07013 0.00908009 0)
(0.923207 0.0037138 0)
(0.575707 0.000750325 0)
(0.120273 4.45806e-05 0)
(0.125886 3.66963e-05 0)
(0.779823 3.38288e-06 0)
(1.02006 -0.00250292 0)
(1.08514 -0.00699215 0)
(1.07997 -0.00983061 0)
(1.06677 -0.00968665 0)
(1.05751 -0.00785651 0)
(1.05094 -0.00447763 0)
(1.04599 -7.65938e-05 0)
(1.04261 0.00508134 0)
(1.0416 0.010035 0)
(1.04314 0.013681 0)
(1.04685 0.0160851 0)
(1.05323 0.0169774 0)
(1.06352 0.0166376 0)
(1.07529 0.0138054 0)
(1.05631 0.00832314 0)
(0.911036 0.00304213 0)
(0.570737 0.000686289 0)
(0.119263 5.21079e-05 0)
(0.126585 5.95982e-05 0)
(0.77827 0.000671115 0)
(1.01156 -0.000515632 0)
(1.07616 -0.00391295 0)
(1.07663 -0.00677921 0)
(1.06792 -0.00733361 0)
(1.06088 -0.00564811 0)
(1.05499 -0.00243438 0)
(1.05011 0.00183792 0)
(1.04648 0.00684702 0)
(1.04493 0.0114862 0)
(1.04573 0.0147602 0)
(1.04848 0.0165323 0)
(1.05307 0.0169895 0)
(1.06021 0.0156372 0)
(1.06562 0.0118662 0)
(1.04268 0.00656603 0)
(0.901451 0.00242563 0)
(0.566684 0.000658194 0)
(0.118235 5.71468e-05 0)
(0.127683 7.68879e-05 0)
(0.779071 0.0011439 0)
(1.00743 0.001246 0)
(1.07009 -0.000362676 0)
(1.0736 -0.00207168 0)
(1.06881 -0.00246577 0)
(1.06363 -0.00124362 0)
(1.05861 0.00134205 0)
(1.05393 0.00494799 0)
(1.04997 0.00912434 0)
(1.04769 0.0126909 0)
(1.04766 0.0147509 0)
(1.04914 0.0154411 0)
(1.0518 0.0148036 0)
(1.05528 0.0126393 0)
(1.05681 0.0091782 0)
(1.03219 0.00513984 0)
(0.89447 0.00219736 0)
(0.563027 0.000721241 0)
(0.117142 6.6829e-05 0)
(0.12917 9.81993e-05 0)
(0.782043 0.00161756 0)
(1.00717 0.00254232 0)
(1.06764 0.00238904 0)
(1.07253 0.00194462 0)
(1.06969 0.00221207 0)
(1.06585 0.00350735 0)
(1.06152 0.00574246 0)
(1.05696 0.00869978 0)
(1.05255 0.0119212 0)
(1.04943 0.0143277 0)
(1.04822 0.0152314 0)
(1.04838 0.0147191 0)
(1.04928 0.0131268 0)
(1.05054 0.0107225 0)
(1.04982 0.00772942 0)
(1.02466 0.00467462 0)
(0.888846 0.00237929 0)
(0.559098 0.000879731 0)
(0.115848 8.44067e-05 0)
(0.131084 0.00012297 0)
(0.786638 0.00207056 0)
(1.00928 0.00360063 0)
(1.06825 0.00444416 0)
(1.07344 0.00506626 0)
(1.07138 0.0061871 0)
(1.06817 0.00796231 0)
(1.06415 0.0102569 0)
(1.05945 0.0128658 0)
(1.05438 0.0153409 0)
(1.05019 0.0166755 0)
(1.04769 0.0163794 0)
(1.04647 0.0150761 0)
(1.04604 0.0129102 0)
(1.04596 0.0103558 0)
(1.04411 0.00763858 0)
(1.01866 0.00502752 0)
(0.883343 0.00285323 0)
(0.554383 0.00111077 0)
(0.114228 0.000108578 0)
(0.133517 0.000154832 0)
(0.792859 0.00262425 0)
(1.01353 0.00470126 0)
(1.07105 0.00624808 0)
(1.07617 0.00782556 0)
(1.07419 0.00980658 0)
(1.07103 0.0122168 0)
(1.06689 0.0149079 0)
(1.06169 0.0175519 0)
(1.05564 0.0195708 0)
(1.05011 0.020064 0)
(1.04628 0.0188628 0)
(1.04384 0.016709 0)
(1.04232 0.0140677 0)
(1.04133 0.0112978 0)
(1.03883 0.00857915 0)
(1.01296 0.0059803 0)
(0.877212 0.0035567 0)
(0.548535 0.00139822 0)
(0.112192 0.000137145 0)
(0.136636 0.000198723 0)
(0.80097 0.00333791 0)
(1.01973 0.00605909 0)
(1.07574 0.00834635 0)
(1.08039 0.0106996 0)
(1.07818 0.0135565 0)
(1.07472 0.0168185 0)
(1.07002 0.0201342 0)
(1.06392 0.0230325 0)
(1.05652 0.0248197 0)
(1.04939 0.0246241 0)
(1.04408 0.0226172 0)
(1.04043 0.0196495 0)
(1.03798 0.0163928 0)
(1.03629 0.0132271 0)
(1.03328 0.010248 0)
(1.0068 0.00735753 0)
(0.870036 0.0044512 0)
(0.541276 0.00175398 0)
(0.109639 0.000170211 0)
(0.140711 0.000265744 0)
(0.811545 0.00435635 0)
(1.02788 0.00792868 0)
(1.08216 0.0109667 0)
(1.08618 0.0141173 0)
(1.08351 0.0179879 0)
(1.07938 0.0222284 0)
(1.0737 0.0263016 0)
(1.06624 0.02962 0)
(1.05705 0.0313346 0)
(1.048 0.0305127 0)
(1.04106 0.0276286 0)
(1.03617 0.023784 0)
(1.03281 0.0197546 0)
(1.03046 0.0159706 0)
(1.02697 0.0124966 0)
(0.999667 0.00908626 0)
(0.86117 0.00555427 0)
(0.532309 0.00219857 0)
(0.106474 0.000211067 0)
(0.146101 0.000362869 0)
(0.82534 0.00580635 0)
(1.0385 0.010509 0)
(1.09063 0.014455 0)
(1.09386 0.0186268 0)
(1.09037 0.0236512 0)
(1.08513 0.0289569 0)
(1.07795 0.0339122 0)
(1.06862 0.0377913 0)
(1.05717 0.0394789 0)
(1.04583 0.0379809 0)
(1.03704 0.0340982 0)
(1.0308 0.0292085 0)
(1.02648 0.024204 0)
(1.02348 0.019575 0)
(1.01947 0.0153964 0)
(0.991064 0.0112952 0)
(0.850199 0.00692799 0)
(0.521147 0.00273059 0)
(0.10257 0.000261286 0)
(0.153309 0.000501142 0)
(0.8432 0.00787615 0)
(1.05214 0.0140425 0)
(1.10161 0.0190903 0)
(1.10381 0.0245989 0)
(1.09912 0.0310135 0)
(1.09226 0.0376116 0)
(1.08304 0.0436438 0)
(1.07121 0.0481163 0)
(1.05687 0.0496847 0)
(1.04277 0.0473303 0)
(1.03185 0.0422376 0)
(1.02408 0.0360846 0)
(1.01867 0.0298859 0)
(1.01493 0.0241903 0)
(1.01033 0.0190953 0)
(0.980533 0.014103 0)
(0.836565 0.00869295 0)
(0.507264 0.00340926 0)
(0.0977709 0.000325539 0)
(0.163119 0.000710472 0)
(0.866414 0.0108604 0)
(1.06975 0.0188182 0)
(1.11588 0.0252375 0)
(1.11661 0.0324896 0)
(1.11024 0.0406761 0)
(1.1012 0.0488869 0)
(1.08919 0.0561123 0)
(1.07408 0.0611221 0)
(1.05613 0.0623752 0)
(1.03874 0.0588725 0)
(1.02534 0.0522759 0)
(1.01577 0.044593 0)
(1.00908 0.0369539 0)
(1.00442 0.0299651 0)
(0.999059 0.0237352 0)
(0.967518 0.0176466 0)
(0.81981 0.0109222 0)
(0.490165 0.0042406 0)
(0.0919282 0.00039793 0)
(0.176828 0.00106613 0)
(0.897254 0.0155284 0)
(1.09275 0.0258743 0)
(1.13448 0.0341622 0)
(1.1329 0.0436844 0)
(1.12404 0.054002 0)
(1.11185 0.0639156 0)
(1.09612 0.0721955 0)
(1.07689 0.0774612 0)
(1.05465 0.0780001 0)
(1.03348 0.0729394 0)
(1.01725 0.0645026 0)
(1.00562 0.0550078 0)
(0.997394 0.0456655 0)
(0.991597 0.0371391 0)
(0.985219 0.0295366 0)
(0.951441 0.0221188 0)
(0.799195 0.0137426 0)
(0.469339 0.00528426 0)
(0.0848852 0.000482044 0)
(0.196676 0.00170663 0)
(0.93893 0.0230982 0)
(1.12342 0.0366873 0)
(1.1589 0.0475326 0)
(1.15336 0.0598751 0)
(1.14051 0.072566 0)
(1.12384 0.0840545 0)
(1.10331 0.0929845 0)
(1.07912 0.0978681 0)
(1.05194 0.0970056 0)
(1.02658 0.0898369 0)
(1.00725 0.0792012 0)
(0.993312 0.0676498 0)
(0.983299 0.0563936 0)
(0.976087 0.046107 0)
(0.968342 0.0369002 0)
(0.931532 0.0279041 0)
(0.773693 0.0174433 0)
(0.443885 0.00666218 0)
(0.0764134 0.000589747 0)
(0.226094 0.00314701 0)
(0.997311 0.0365618 0)
(1.1639 0.0549968 0)
(1.19019 0.0691587 0)
(1.17817 0.0843974 0)
(1.15932 0.0989156 0)
(1.13659 0.111042 0)
(1.11011 0.119539 0)
(1.08019 0.122974 0)
(1.04759 0.11976 0)
(1.01775 0.109812 0)
(0.995121 0.0966125 0)
(0.978653 0.0828243 0)
(0.966594 0.0695675 0)
(0.957621 0.0574345 0)
(0.947954 0.0465243 0)
(0.906802 0.0356673 0)
(0.742007 0.022477 0)
(0.413319 0.00857884 0)
(0.0667392 0.000704831 0)
(0.267161 0.00992852 -2.62443e-21)
(1.07524 0.0640264 -1.96739e-21)
(1.21258 0.0872593 5.37267e-22)
(1.22563 0.104838 0)
(1.20481 0.12116 1.72367e-37)
(1.17842 0.135433 3.01686e-23)
(1.14857 0.146413 -2.52085e-22)
(1.11541 0.153058 0)
(1.07927 0.154054 9.5608e-36)
(1.04078 0.147816 -7.27144e-22)
(1.00596 0.134739 0)
(0.979489 0.118892 -1.04666e-21)
(0.959917 0.102928 -3.20584e-21)
(0.945159 0.087846 -1.55318e-21)
(0.933644 0.0742324 -4.90031e-22)
(0.920996 0.0619647 -2.97348e-22)
(0.875102 0.0496213 0)
(0.701064 0.0325424 2.1496e-22)
(0.37613 0.0145725 2.55884e-22)
(0.0575772 0.00204261 4.58581e-21)
(0.292628 0.0265163 -4.88101e-21)
(1.13765 0.109273 1.03719e-22)
(1.25522 0.135349 -2.70003e-22)
(1.2576 0.153899 0)
(1.22864 0.168696 4.06675e-22)
(1.19488 0.181124 2.10068e-22)
(1.15802 0.190177 -1.60279e-22)
(1.1181 0.194677 -1.22675e-21)
(1.07537 0.19327 0)
(1.03027 0.184321 3.07696e-21)
(0.989327 0.16858 3.41044e-21)
(0.957692 0.150615 1.09846e-21)
(0.933674 0.133073 4.34784e-21)
(0.914912 0.116728 6.41833e-21)
(0.899573 0.1021 0)
(0.882436 0.0892529 9.58356e-21)
(0.831716 0.0752847 1.40842e-20)
(0.657914 0.0540495 1.5829e-20)
(0.350799 0.0291519 -1.83856e-20)
(0.0540439 0.00463686 -3.41981e-22)
(0.288497 0.0435146 0)
(1.17364 0.167378 -1.49593e-21)
(1.28777 0.196551 0)
(1.2827 0.213018 2.33465e-21)
(1.24739 0.224154 0)
(1.20725 0.233141 1.14756e-21)
(1.16405 0.238925 1.67383e-22)
(1.11793 0.240254 -1.80005e-21)
(1.06905 0.235726 -3.10726e-22)
(1.01783 0.223707 1.48811e-21)
(0.971299 0.205325 7.95945e-21)
(0.935104 0.185619 -5.59185e-23)
(0.907263 0.167144 -3.26862e-21)
(0.885149 0.150509 -6.35785e-21)
(0.866801 0.135933 7.73044e-21)
(0.847293 0.123257 -1.39211e-20)
(0.798474 0.109259 -1.9174e-21)
(0.642621 0.0840945 0)
(0.359318 0.0487021 3.57038e-23)
(0.0611887 0.00875875 0)
(0.278513 0.0576442 -3.79e-20)
(1.19023 0.228793 1.54182e-20)
(1.30826 0.262601 8.12157e-21)
(1.29903 0.276739 -1.53861e-21)
(1.25934 0.283927 2.34368e-21)
(1.21444 0.288909 -2.79459e-21)
(1.16623 0.290841 1.68342e-22)
(1.11491 0.288452 0)
(1.06076 0.280368 -5.80008e-21)
(1.00416 0.264918 0)
(0.952871 0.243829 -4.05324e-21)
(0.912961 0.222511 -5.72233e-21)
(0.882263 0.203345 -3.6633e-21)
(0.8579 0.186651 -4.73738e-21)
(0.837869 0.172479 0)
(0.817734 0.160277 0)
(0.773309 0.146412 -1.28699e-20)
(0.63509 0.117803 2.58301e-21)
(0.368314 0.0706961 -1.51367e-21)
(0.0672056 0.0133526 -1.79214e-21)
(0.268854 0.070289 2.8057e-20)
(1.19448 0.289657 0)
(1.31936 0.329413 -2.27672e-20)
(1.30775 0.341506 -5.80576e-21)
(1.265 0.344987 -4.3876e-21)
(1.21667 0.346039 0)
(1.16459 0.344073 -5.50815e-22)
(1.10901 0.337927 1.57352e-21)
(1.05049 0.326074 2.52032e-21)
(0.989417 0.307038 7.51462e-21)
(0.934242 0.283052 0)
(0.891602 0.259897 -1.24504e-20)
(0.859066 0.239795 -7.97709e-21)
(0.833526 0.222803 -4.81133e-21)
(0.812814 0.208763 3.16167e-20)
(0.792949 0.197006 3.88736e-21)
(0.752638 0.182984 1.8645e-20)
(0.626048 0.150754 -9.05306e-20)
(0.370027 0.0912006 5.41148e-20)
(0.0696972 0.017519 -6.61398e-20)
(0.260499 0.0815519 2.9664e-20)
(1.19112 0.34808 -5.41869e-21)
(1.3234 0.395021 4.01265e-21)
(1.31041 0.405548 1.08438e-20)
(1.26542 0.405606 6.62067e-21)
(1.21449 0.402922 3.30491e-22)
(1.15944 0.397252 4.87039e-22)
(1.10052 0.387412 1.12872e-21)
(1.0383 0.371913 -5.52168e-21)
(0.973562 0.349206 0)
(0.91521 0.322068 -5.33505e-21)
(0.870361 0.296786 -2.99117e-22)
(0.836496 0.275385 -8.92443e-21)
(0.810253 0.257718 0)
(0.789352 0.243356 -6.89339e-21)
(0.770138 0.231381 -1.67936e-20)
(0.733178 0.216524 4.65937e-20)
(0.614025 0.179984 -4.66646e-20)
(0.365977 0.108796 6.67015e-20)
(0.0695543 0.0209382 -7.02889e-20)
(0.253825 0.0920176 -1.13129e-22)
(1.18321 0.403498 6.63918e-21)
(1.32224 0.458413 1.92181e-20)
(1.30851 0.467799 -6.65566e-21)
(1.26189 0.46477 3.79039e-21)
(1.20898 0.458661 0)
(1.15146 0.449557 1.71624e-21)
(1.08978 0.43618 -8.26118e-22)
(1.02441 0.417152 -2.5026e-21)
(0.956322 0.390786 0)
(0.895213 0.360352 -5.19561e-21)
(0.848652 0.33262 -7.32035e-21)
(0.813918 0.309515 9.75946e-21)
(0.787396 0.290655 -6.25791e-21)
(0.766649 0.275449 -3.0342e-20)
(0.748138 0.262792 1.8689e-20)
(0.713526 0.246661 5.92933e-21)
(0.599244 0.205555 0)
(0.357919 0.123665 -6.47204e-20)
(0.0680364 0.0237297 -2.40593e-21)
(0.248676 0.101982 4.87083e-21)
(1.17272 0.45577 -7.64384e-21)
(1.31738 0.518974 -1.0513e-20)
(1.30313 0.527614 -2.05029e-20)
(1.25526 0.521857 1.84388e-20)
(1.20076 0.512722 -9.79257e-21)
(1.14129 0.500449 -3.63105e-21)
(1.07725 0.483799 -1.15082e-21)
(1.00917 0.461379 2.52586e-21)
(0.938107 0.431433 -1.8303e-20)
(0.874702 0.39762 -6.40078e-21)
(0.826705 0.367171 0)
(0.791269 0.341941 1.06721e-20)
(0.764578 0.321446 1.321e-20)
(0.74405 0.304998 1.62876e-20)
(0.726164 0.291303 -2.03882e-20)
(0.693084 0.27347 -6.15387e-21)
(0.582193 0.227738 7.33691e-21)
(0.347046 0.135901 0)
(0.0655828 0.0258829 -5.2456e-21)
(0.244748 0.111528 -5.65811e-20)
(1.16097 0.504994 3.50697e-20)
(1.30978 0.576471 1.15755e-20)
(1.29516 0.584694 -1.56773e-20)
(1.24639 0.576539 1.10511e-20)
(1.19065 0.564739 -7.79961e-22)
(1.12956 0.549638 3.57248e-21)
(1.0635 0.530013 -5.19594e-22)
(0.993105 0.504406 -4.48855e-21)
(0.919404 0.470965 3.1044e-23)
(0.853612 0.433724 -1.90552e-20)
(0.804194 0.400309 1.86576e-20)
(0.76808 0.372615 -1.19652e-20)
(0.74127 0.350113 1.49018e-20)
(0.721044 0.332087 0)
(0.703751 0.317026 -1.10754e-20)
(0.67172 0.297208 -2.60171e-22)
(0.56332 0.246764 -3.208e-20)
(0.334151 0.1459 -4.7703e-21)
(0.062412 0.0273304 0)
(0.241856 0.120845 0)
(1.1487 0.551446 3.80494e-20)
(1.30023 0.630864 2.70399e-20)
(1.28537 0.638916 1.77161e-20)
(1.23588 0.628634 1.06546e-20)
(1.17913 0.614495 0)
(1.11672 0.596877 3.44127e-21)
(1.04895 0.574592 -2.50032e-22)
(0.976368 0.546076 9.47841e-21)
(0.900146 0.509371 -2.22878e-21)
(0.831938 0.468662 -1.39775e-20)
(0.781056 0.432045 9.33699e-21)
(0.74423 0.401615 -3.90856e-22)
(0.717302 0.376803 1.57074e-20)
(0.697399 0.356848 1.02789e-20)
(0.680706 0.34015 -2.41354e-20)
(0.649371 0.318046 2.92875e-20)
(0.542859 0.262721 8.79375e-21)
(0.319482 0.153578 3.66063e-20)
(0.0585976 0.028173 -9.90674e-20)
(0.239839 0.130025 -1.45344e-20)
(1.13643 0.59529 2.19918e-20)
(1.28932 0.682428 -1.68941e-20)
(1.27427 0.690242 -2.05972e-20)
(1.22421 0.678068 0)
(1.16665 0.661866 8.60853e-21)
(1.10315 0.642021 -9.96714e-21)
(1.03384 0.617389 8.48178e-23)
(0.959239 0.586283 0)
(0.880524 0.546556 -3.46097e-20)
(0.809925 0.502454 3.81136e-20)
(0.757339 0.462488 0)
(0.719707 0.429056 1.41914e-20)
(0.692607 0.401673 -3.95645e-22)
(0.672982 0.379452 -3.25785e-20)
(0.656791 0.360837 1.28248e-20)
(0.625813 0.336156 0)
(0.520782 0.275745 4.76708e-20)
(0.303107 0.158956 0)
(0.0542289 0.0283562 -4.72518e-20)
(0.238512 0.139068 1.62036e-20)
(1.12447 0.636707 2.51579e-20)
(1.27752 0.731067 -1.77168e-20)
(1.26232 0.738669 0)
(1.21184 0.724848 1.47278e-20)
(1.15361 0.70683 0)
(1.08915 0.68504 1.31314e-20)
(1.0185 0.658355 1.43263e-21)
(0.942064 0.625025 9.38944e-22)
(0.860873 0.582575 -1.70862e-20)
(0.787662 0.535213 3.69268e-21)
(0.733131 0.49186 0)
(0.694536 0.455156 -3.02266e-20)
(0.667089 0.424919 4.10942e-22)
(0.647565 0.400275 0)
(0.631639 0.379353 4.88963e-22)
(0.6008 0.351677 4.32123e-20)
(0.496914 0.285735 -4.18086e-20)
(0.284977 0.16192 1.24226e-20)
(0.0493141 0.0278393 0)
(0.237519 0.147871 0)
(1.11296 0.675867 2.81543e-20)
(1.26526 0.776777 2.08157e-20)
(1.24987 0.784253 -4.38172e-22)
(1.19905 0.768985 9.22824e-21)
(1.14028 0.749383 2.03954e-20)
(1.07504 0.725914 -4.24579e-21)
(1.00321 0.697475 5.38445e-22)
(0.925035 0.662236 5.65678e-21)
(0.841333 0.617469 -2.65562e-20)
(0.765241 0.567191 -6.24001e-22)
(0.708393 0.520513 -1.23442e-20)
(0.668404 0.480369 4.96099e-20)
(0.640438 0.446885 -4.95207e-22)
(0.620935 0.419381 -2.5781e-20)
(0.605224 0.395819 -4.71724e-20)
(0.574317 0.364623 0)
(0.471185 0.292688 0)
(0.265104 0.162329 1.36491e-20)
(0.0439487 0.0266096 -8.086e-21)
(0.236996 0.156588 2.01741e-20)
(1.102 0.712673 -6.16451e-20)
(1.25279 0.819737 -2.23148e-20)
(1.23717 0.827092 0)
(1.18611 0.810537 -3.08842e-22)
(1.12694 0.789559 2.45292e-20)
(1.06105 0.764655 -1.42361e-20)
(0.988165 0.734736 -6.31938e-21)
(0.908338 0.69793 5.6933e-21)
(0.822155 0.651198 -2.03722e-20)
(0.742967 0.598301 -3.22251e-20)
(0.68329 0.548446 3.29297e-20)
(0.641239 0.504731 0)
(0.612514 0.467664 -1.16125e-20)
(0.592997 0.436945 -2.83561e-20)
(0.57747 0.410432 -3.42605e-20)
(0.546193 0.375174 -4.17131e-20)
(0.443332 0.296549 1.25313e-20)
(0.24331 0.159792 -7.38257e-21)
(0.0380854 0.0246286 9.37971e-23)
(0.23652 0.165009 0)
(1.09172 0.747427 0)
(1.24029 0.860065 5.0921e-22)
(1.22443 0.867278 0)
(1.17321 0.849588 -3.47837e-20)
(1.11374 0.827412 -2.16995e-20)
(1.04733 0.801286 0)
(0.97353 0.770158 -1.5419e-21)
(0.892191 0.732105 6.83172e-21)
(0.803528 0.683879 -4.67466e-20)
(0.721067 0.628792 0)
(0.658228 0.575894 -2.11003e-20)
(0.613542 0.528432 -6.07113e-22)
(0.583408 0.487517 -5.00927e-22)
(0.563611 0.453267 3.03415e-20)
(0.548123 0.42316 -7.76083e-23)
(0.516111 0.383225 -9.08192e-20)
(0.412823 0.297119 2.73851e-20)
(0.219637 0.154374 8.16605e-21)
(0.0317974 0.0219043 0)
(0.236093 0.173081 -7.44261e-20)
(1.08186 0.780329 -3.78671e-20)
(1.22787 0.897857 -5.60746e-20)
(1.21179 0.904906 7.78068e-20)
(1.16049 0.886204 -6.53192e-20)
(1.10083 0.863003 0)
(1.03402 0.835854 -1.21574e-20)
(0.959449 0.803753 2.91036e-21)
(0.876713 0.76477 7.45852e-22)
(0.785611 0.715448 3.70011e-21)
(0.699702 0.658709 4.03173e-20)
(0.633256 0.603234 -7.21064e-21)
(0.585531 0.552301 -3.07032e-20)
(0.553242 0.507231 -1.38477e-20)
(0.532693 0.468632 1.6932e-20)
(0.517006 0.43442 -6.50787e-23)
(0.483921 0.388661 2.49977e-20)
(0.379618 0.294008 -5.95152e-20)
(0.193541 0.145502 7.12579e-20)
(0.02518 0.0184606 1.04572e-20)
(0.235529 0.180785 2.73653e-20)
(1.0724 0.811419 -2.07347e-20)
(1.21566 0.933219 1.21003e-21)
(1.19938 0.940093 4.40242e-20)
(1.14807 0.920499 1.52801e-20)
(1.08832 0.89641 4.34567e-20)
(1.02124 0.868406 -5.37479e-21)
(0.946019 0.835548 1.39566e-20)
(0.862023 0.795928 -2.90483e-21)
(0.768578 0.745959 -2.53231e-20)
(0.679111 0.688057 0)
(0.608664 0.630449 -3.24752e-20)
(0.557237 0.576221 4.46161e-20)
(0.521947 0.526953 0)
(0.49995 0.483464 -3.62899e-20)
(0.483757 0.44377 2.25711e-20)
(0.44942 0.391142 -2.7068e-20)
(0.343978 0.286904 -3.27287e-20)
(0.165992 0.133492 -5.81573e-20)
(0.0184601 0.0144285 -4.59796e-20)
(0.235135 0.188201 -3.01292e-20)
(1.06319 0.840693 2.2197e-20)
(1.20373 0.966242 5.24694e-20)
(1.18728 0.972935 6.06066e-20)
(1.13604 0.952564 -3.20554e-20)
(1.07628 0.927716 3.0031e-20)
(1.00903 0.898996 -1.6768e-20)
(0.933305 0.865583 1.72717e-20)
(0.848195 0.825599 -4.0935e-22)
(0.752542 0.775367 2.39665e-20)
(0.659472 0.716887 8.5469e-20)
(0.584679 0.657736 0)
(0.528747 0.600786 0)
(0.489486 0.547272 -1.60422e-20)
(0.46499 0.498127 0)
(0.447639 0.451489 4.92598e-20)
(0.411964 0.389583 5.9341e-20)
(0.306167 0.274713 0)
(0.138126 0.118386 0)
(0.0122249 0.0101744 5.02162e-20)
(0.234461 0.195061 3.32787e-20)
(1.05427 0.868165 2.66295e-20)
(1.19214 0.997053 3.77721e-20)
(1.17557 1.00357 -5.41968e-20)
(1.12444 0.982507 -3.57946e-20)
(1.06475 0.956997 -3.98728e-20)
(0.997453 0.927688 2.49126e-20)
(0.921354 0.893885 1.15422e-22)
(0.835287 0.853779 -9.60264e-22)
(0.737569 0.803671 -1.24526e-21)
(0.64099 0.745177 4.326e-20)
(0.561638 0.685107 0)
(0.5007 0.625931 4.50526e-20)
(0.456146 0.568901 3.38051e-20)
(0.427421 0.513898 8.66511e-20)
(0.407363 0.4574 2.6597e-20)
(0.37023 0.382183 -3.29231e-20)
(0.267153 0.254846 -1.94375e-20)
(0.113469 0.0998183 0)
(0.00764278 0.00615184 5.47567e-20)
(0.233988 0.201804 -7.33576e-20)
(1.04559 0.893971 0)
(1.18091 1.02574 4.22754e-20)
(1.16426 1.03209 -4.4485e-20)
(1.11332 1.01043 4.05859e-20)
(1.05377 0.984339 5.83052e-20)
(0.98653 0.954541 -5.78158e-20)
(0.910183 0.920496 5.90368e-22)
(0.823323 0.880472 0)
(0.723739 0.830808 -2.19276e-20)
(0.623776 0.77283 -8.93606e-20)
(0.539768 0.712481 4.40843e-21)
(0.473418 0.65201 6.11368e-20)
(0.422487 0.59239 0)
(0.38718 0.531896 5.84288e-20)
(0.361073 0.463377 0)
(0.319863 0.367177 0)
(0.225632 0.219018 -2.17536e-20)
(0.106637 0.0675129 0)
(0.0239715 0.00771486 1.48126e-20)
(0.233161 0.207894 -8.02685e-20)
(1.03714 0.918404 0)
(1.17001 1.05252 6.86214e-20)
(1.15334 1.05873 0)
(1.10264 1.03657 -2.20806e-20)
(1.04327 1.01002 0)
(0.976189 0.979854 -4.32136e-21)
(0.899695 0.945742 -3.03097e-21)
(0.812192 0.906023 -1.99103e-22)
(0.710906 0.857151 -2.11953e-20)
(0.607723 0.800305 2.32118e-21)
(0.518957 0.740487 3.65038e-20)
(0.446862 0.679243 5.91989e-20)
(0.388468 0.618633 8.47868e-21)
(0.34359 0.554703 4.5647e-20)
(0.306238 0.473106 0)
(0.250269 0.348157 7.20825e-20)
(0.159145 0.15603 -4.3139e-20)
(0.0533411 0.0784401 5.00583e-20)
(-0.0326339 0.408956 -5.93904e-20)
(0.232286 0.213709 6.55364e-20)
(1.02871 0.941337 1.01667e-19)
(1.15938 1.0777 0)
(1.14267 1.0839 9.9289e-22)
(1.09224 1.06149 6.00323e-20)
(1.03302 1.03468 -1.13179e-19)
(0.966164 1.00438 -2.55525e-20)
(0.889555 0.970521 0)
(0.80145 0.931492 -5.98351e-21)
(0.698526 0.88399 -5.72402e-22)
(0.592076 0.82903 0)
(0.49827 0.770779 0)
(0.419909 0.709633 5.17463e-20)
(0.353426 0.649664 -2.64027e-20)
(0.295148 0.586258 -4.53e-20)
(0.240314 0.495264 0)
(0.138432 0.336981 3.69535e-20)
(0.0322525 0.46356 -4.40337e-20)
(0.0473277 1.7889 -2.40792e-20)
(0.0787802 2.75496 -2.94253e-20)
(0.231095 0.218927 -4.81401e-20)
(1.02042 0.962959 -1.28576e-19)
(1.14901 1.10127 3.97098e-20)
(1.13229 1.10748 3.79879e-20)
(1.08219 1.085 0)
(1.0231 1.05808 -8.11512e-20)
(0.956624 1.02782 -4.28333e-20)
(0.879911 0.994421 2.01519e-21)
(0.791326 0.956366 -8.15745e-22)
(0.686927 0.910689 1.5387e-20)
(0.57738 0.858258 3.91924e-20)
(0.478631 0.802901 3.71125e-20)
(0.393732 0.742484 5.05952e-20)
(0.319901 0.68361 -5.98871e-20)
(0.247832 0.628024 -6.66344e-20)
(0.167223 0.538594 0)
(0.0749678 0.839468 0)
(0.123992 2.48115 1.92674e-20)
(0.13087 3.16577 0)
(0.130385 3.37163 4.82819e-20)
(0.232695 0.223863 0)
(1.01248 0.983538 0)
(1.13863 1.12312 0)
(1.122 1.1293 1.06002e-20)
(1.07224 1.10691 5.3848e-20)
(1.01329 1.08007 -6.20571e-20)
(0.947493 1.0501 -3.07183e-20)
(0.870695 1.01733 2.29007e-21)
(0.781752 0.980484 -1.42434e-20)
(0.676099 0.937073 -2.11071e-21)
(0.563722 0.887797 6.99021e-20)
(0.460405 0.836587 -4.35641e-21)
(0.36879 0.778292 5.65968e-21)
(0.289341 0.717308 8.50324e-21)
(0.209094 0.67725 5.29989e-22)
(0.136315 0.944222 3.28383e-22)
(0.17284 2.62171 -9.37241e-20)
(0.190678 3.2729 -3.56969e-20)
(0.17341 3.42352 1.73648e-20)
(0.15566 3.44843 -1.81944e-20)
(0.154892 0.168946 2.84553e-20)
(0.999077 1.00597 0)
(1.12823 1.14346 -7.80401e-20)
(1.11227 1.14973 -9.87143e-20)
(1.06278 1.1277 1.1196e-19)
(1.00419 1.10107 6.58155e-20)
(0.93857 1.07122 3.61779e-20)
(0.861917 1.03927 -3.93807e-20)
(0.772826 1.00386 1.53014e-20)
(0.666346 0.963003 0)
(0.551655 0.91737 2.96523e-20)
(0.444333 0.871034 -2.74141e-20)
(0.345725 0.818891 0)
(0.262871 0.756433 7.6042e-21)
(0.191655 0.87574 1.8624e-20)
(0.182379 2.30665 -2.23538e-20)
(0.257468 3.31131 2.55529e-20)
(0.234925 3.44517 1.24371e-20)
(0.195773 3.46882 1.45139e-20)
(0.169759 3.47909 1.85541e-20)
(0.264988 0.258037 -5.56488e-20)
(0.978548 1.01162 0)
(1.10899 1.16579 8.07779e-20)
(1.09886 1.1804 1.03111e-19)
(1.04778 1.15835 -1.16311e-19)
(0.989356 1.13228 -7.05358e-20)
(0.923448 1.10382 -5.56415e-20)
(0.846865 1.07332 -2.92157e-21)
(0.757243 1.04045 -2.19163e-20)
(0.649086 1.00428 -1.38116e-21)
(0.53052 0.966017 1.05689e-21)
(0.417354 0.928811 2.04643e-20)
(0.307887 0.893564 4.50619e-21)
(0.23756 1.00828 -6.56947e-21)
(0.263337 2.19677 -1.54014e-20)
(0.330483 3.31464 1.13057e-20)
(0.317582 3.48405 -1.00914e-20)
(0.276866 3.50693 -5.90283e-21)
(0.236267 3.53427 4.87844e-22)
(0.180053 3.52587 -2.30659e-22)
(0.25348 0.255489 0)
(0.97425 1.03153 2.13042e-20)
(1.10031 1.18685 -1.59561e-20)
(1.08883 1.20131 -1.14634e-20)
(1.03822 1.17936 -7.62223e-20)
(0.980244 1.15352 6.87468e-20)
(0.91445 1.12536 3.74114e-20)
(0.838252 1.0958 -3.06374e-21)
(0.748883 1.06472 2.71038e-20)
(0.64056 1.03178 -2.92848e-21)
(0.520653 0.999059 -3.45147e-20)
(0.405094 0.96858 2.88977e-21)
(0.298879 0.958836 -3.8351e-21)
(0.283584 1.41957 -5.26164e-21)
(0.367835 3.02052 3.94576e-21)
(0.403607 3.47909 4.89126e-22)
(0.351538 3.55054 -5.63563e-21)
(0.311032 3.57178 -9.02189e-21)
(0.25602 3.59395 1.48133e-20)
(0.193351 3.5874 6.75833e-21)
(0.238133 0.251675 5.26968e-20)
(0.968674 1.05352 1.42564e-19)
(1.091 1.20955 -4.53969e-20)
(1.07846 1.22361 -4.34268e-20)
(1.02835 1.20155 0)
(0.970806 1.17573 1.00409e-19)
(0.905419 1.14788 5.69914e-20)
(0.829893 1.11921 -3.22117e-21)
(0.741149 1.09 2.82692e-21)
(0.633136 1.06038 1.55144e-20)
(0.51275 1.03357 -8.77011e-21)
(0.396763 1.01097 -1.89004e-20)
(0.308124 1.07028 -2.42322e-20)
(0.362229 2.01586 2.5996e-20)
(0.463186 3.36577 1.06905e-20)
(0.455552 3.55602 0)
(0.394447 3.60143 0)
(0.34885 3.645 1.38189e-20)
(0.280406 3.70323 0)
(0.203881 3.67282 3.23932e-20)
(0.226819 0.251522 -7.65738e-20)
(0.960891 1.07585 -1.18191e-19)
(1.0803 1.23319 0)
(1.067 1.24658 1.12957e-21)
(1.01739 1.22416 -7.3885e-20)
(0.960429 1.19825 1.48959e-19)
(0.895789 1.17069 3.82952e-20)
(0.821206 1.14284 -3.98102e-21)
(0.733374 1.11539 3.02341e-20)
(0.626084 1.08897 -1.61693e-21)
(0.505968 1.06819 0)
(0.391953 1.05587 0)
(0.340416 1.26095 -1.62707e-20)
(0.459941 2.68038 4.26247e-21)
(0.55056 3.50433 -5.05972e-21)
(0.502306 3.60417 0)
(0.456168 3.6618 3.65267e-20)
(0.390725 3.73501 -5.52683e-20)
(0.337639 3.71735 -4.85416e-20)