/*--------------------------------*- C++ -*----------------------------------*\
  =========                 |
  \\      /  F ield         | OpenFOAM: The Open Source CFD Toolbox
   \\    /   O peration     | Website:  https://openfoam.org
    \\  /    A nd           | Version:  6
     \\/     M anipulation  |
\*---------------------------------------------------------------------------*/
FoamFile
{
    version     2.0;
    format      ascii;
    class       volScalarField;
    location    "38";
    object      p;
}
// * * * * * * * * * * * * * * * * * * * * * * * * * * * * * * * * * * * * * //

dimensions      [0 2 -2 0 0 0 0];

internalField   nonuniform List<scalar> 
8800
(
0.926193
0.87688
0.83891
0.810827
0.790642
0.776019
0.765372
0.757771
0.752805
0.750621
0.75186
0.756091
0.7628
0.772161
0.784855
0.802147
0.826006
0.859092
0.902012
0.954541
0.760681
0.767024
0.776167
0.7797
0.777075
0.770966
0.763994
0.757703
0.752828
0.749857
0.749497
0.751994
0.75653
0.762579
0.769621
0.776612
0.781461
0.781319
0.774633
0.765728
0.734267
0.7405
0.744989
0.748842
0.751763
0.752674
0.751536
0.749345
0.747268
0.746301
0.747189
0.749516
0.752307
0.754507
0.754978
0.753156
0.749764
0.745729
0.740935
0.737215
0.730023
0.732784
0.735379
0.737519
0.73923
0.740759
0.741807
0.74208
0.741855
0.741806
0.742455
0.743464
0.744099
0.743867
0.74283
0.741427
0.73972
0.73739
0.734964
0.733396
0.725048
0.72647
0.728295
0.730353
0.732034
0.733283
0.734319
0.73521
0.735889
0.736457
0.736987
0.737296
0.737197
0.736733
0.735989
0.734816
0.733115
0.731188
0.729818
0.729015
0.720164
0.721064
0.722296
0.723898
0.725556
0.727037
0.72825
0.72927
0.73019
0.731013
0.731586
0.73179
0.731651
0.731163
0.730268
0.729006
0.727587
0.726278
0.725438
0.724916
0.715392
0.716046
0.716991
0.718282
0.719689
0.721148
0.722549
0.723797
0.724894
0.725874
0.72657
0.72684
0.726673
0.72609
0.725195
0.724159
0.723092
0.722134
0.721534
0.721152
0.710733
0.711236
0.712007
0.713119
0.714378
0.715735
0.717156
0.718568
0.719903
0.721105
0.721952
0.722273
0.722115
0.721604
0.720889
0.720078
0.719242
0.718513
0.718063
0.717767
0.70614
0.70654
0.707186
0.70818
0.709367
0.71067
0.712081
0.713581
0.715103
0.716539
0.717592
0.718055
0.718036
0.717701
0.717183
0.716559
0.715901
0.715348
0.715006
0.714769
0.701543
0.701868
0.702428
0.703345
0.704485
0.705769
0.707205
0.708786
0.710469
0.712162
0.713479
0.714183
0.714393
0.714272
0.713948
0.713512
0.713017
0.712608
0.712347
0.712152
0.696862
0.697129
0.697629
0.698501
0.699624
0.700928
0.702416
0.704104
0.705976
0.707949
0.709611
0.710643
0.71114
0.711271
0.711157
0.710901
0.710563
0.710276
0.710082
0.709917
0.692027
0.692249
0.69271
0.693565
0.69471
0.696076
0.697669
0.699522
0.701647
0.703983
0.706064
0.707482
0.708309
0.70871
0.708819
0.708744
0.708561
0.708382
0.708241
0.7081
0.686963
0.687149
0.687592
0.688465
0.689675
0.691154
0.692921
0.695033
0.697511
0.700311
0.702908
0.704774
0.705955
0.706636
0.706977
0.707086
0.707049
0.706965
0.706869
0.706746
0.68159
0.681746
0.682185
0.683102
0.684418
0.686053
0.688041
0.690471
0.693385
0.69677
0.699993
0.702403
0.704019
0.705046
0.70566
0.705977
0.706087
0.706096
0.70604
0.705931
0.675813
0.675941
0.676387
0.677371
0.678829
0.680668
0.682931
0.685739
0.689195
0.693293
0.697293
0.700365
0.702529
0.703984
0.704924
0.705483
0.705764
0.705868
0.705852
0.705754
0.669527
0.669628
0.670097
0.671171
0.672809
0.674919
0.677568
0.680889
0.684998
0.689952
0.694914
0.698841
0.701649
0.703584
0.704882
0.705713
0.706195
0.706407
0.706429
0.706339
0.662581
0.662664
0.663153
0.664349
0.666232
0.668696
0.671824
0.675817
0.680841
0.686934
0.693035
0.697884
0.70142
0.703935
0.70568
0.706827
0.70752
0.70784
0.707902
0.707816
0.654713
0.654789
0.655335
0.656681
0.65886
0.66174
0.665445
0.670206
0.676239
0.68366
0.691198
0.69729
0.701791
0.705038
0.707357
0.708924
0.709887
0.710342
0.710445
0.710362
0.645712
0.645763
0.646383
0.647925
0.650479
0.653911
0.658388
0.664201
0.671608
0.680716
0.689973
0.697472
0.70305
0.707142
0.710134
0.712194
0.713485
0.714097
0.714242
0.714156
0.635166
0.635205
0.635915
0.637719
0.640744
0.644887
0.650344
0.657469
0.666574
0.677771
0.689118
0.698315
0.705214
0.710328
0.714115
0.716775
0.718468
0.71926
0.719443
0.719348
0.622455
0.62249
0.623329
0.625482
0.629146
0.634231
0.640976
0.6498
0.661036
0.674778
0.688671
0.699895
0.708337
0.714655
0.719403
0.722782
0.724937
0.725924
0.726139
0.726026
0.606729
0.606769
0.60782
0.610517
0.615113
0.621536
0.630061
0.641167
0.655178
0.672093
0.688942
0.702468
0.71265
0.720318
0.726114
0.730298
0.732949
0.734132
0.734372
0.734234
0.586798
0.586855
0.588256
0.591805
0.597781
0.606112
0.617094
0.631218
0.648722
0.669457
0.689798
0.705979
0.718136
0.727333
0.734318
0.739385
0.742553
0.74392
0.744176
0.744009
0.560853
0.560955
0.562973
0.567946
0.576123
0.587329
0.601839
0.62005
0.641997
0.667306
0.6916
0.710682
0.724987
0.735843
0.744108
0.750115
0.753792
0.755317
0.755573
0.755375
0.525892
0.526147
0.529413
0.537006
0.548934
0.564599
0.584176
0.607765
0.635159
0.66576
0.694434
0.716663
0.733264
0.745895
0.755557
0.762537
0.766678
0.768307
0.768536
0.768305
0.476197
0.477355
0.483918
0.496891
0.51534
0.537902
0.56448
0.59487
0.628677
0.665182
0.698541
0.724049
0.743029
0.757493
0.768592
0.77656
0.781105
0.782753
0.782921
0.78265
0.403358
0.410869
0.425968
0.448771
0.476901
0.508648
0.543744
0.581961
0.622917
0.665914
0.704431
0.733592
0.755287
0.771915
0.784759
0.793817
0.798836
0.800595
0.800768
0.800537
0.325765
0.341943
0.36645
0.399797
0.438149
0.47925
0.522957
0.569249
0.617853
0.66819
0.713007
0.746943
0.772271
0.79182
0.806984
0.817519
0.823132
0.824998
0.825218
0.825129
0.259392
0.279214
0.311568
0.353892
0.401235
0.451128
0.503211
0.557433
0.613524
0.670958
0.721739
0.760138
0.788848
0.811061
0.828177
0.839752
0.845772
0.847873
0.848133
0.84811
0.205186
0.227188
0.264829
0.313603
0.368001
0.425242
0.484727
0.546216
0.609329
0.673444
0.72982
0.772305
0.804038
0.828402
0.84695
0.859645
0.866542
0.868761
0.869069
0.869104
0.160092
0.183345
0.224776
0.278574
0.338651
0.401965
0.467755
0.535666
0.605159
0.675463
0.737009
0.783198
0.817501
0.843652
0.863365
0.876969
0.884549
0.887091
0.887544
0.887615
0.121475
0.14547
0.189688
0.247568
0.31243
0.380934
0.452181
0.525778
0.601033
0.677012
0.743306
0.792835
0.829341
0.856911
0.877515
0.891753
0.899813
0.902793
0.903427
0.903522
0.0874014
0.111892
0.158289
0.219538
0.288481
0.361504
0.437612
0.516332
0.59686
0.678105
0.748787
0.801324
0.839738
0.868432
0.889764
0.90451
0.912964
0.916276
0.91702
0.917107
0.0564711
0.0813697
0.129553
0.193673
0.266129
0.343121
0.423597
0.507018
0.592463
0.678656
0.753489
0.808785
0.848873
0.878511
0.900384
0.915474
0.924173
0.927694
0.928502
0.928574
0.0277581
0.0530644
0.102743
0.169339
0.244862
0.325369
0.409797
0.497552
0.587624
0.678557
0.757389
0.815339
0.856989
0.887491
0.909815
0.925147
0.933988
0.93763
0.938461
0.938489
0.000521621
0.026289
0.0773421
0.146102
0.224299
0.307939
0.395956
0.487719
0.582162
0.677679
0.760459
0.821055
0.864272
0.895652
0.918427
0.933978
0.942896
0.946577
0.947439
0.947438
-0.0255817
0.000627028
0.0529256
0.123615
0.204178
0.290623
0.381903
0.477374
0.575942
0.67592
0.762663
0.825986
0.870874
0.903202
0.926468
0.942223
0.951161
0.954774
0.955617
0.955613
-0.0509555
-0.0241937
0.0292495
0.101651
0.184313
0.273276
0.367532
0.466426
0.568877
0.673192
0.763966
0.830198
0.87692
0.910321
0.934137
0.950103
0.959053
0.9626
0.963336
0.963274
-0.0757137
-0.0483749
0.00614953
0.0800856
0.164606
0.255827
0.352783
0.454829
0.560924
0.669451
0.764345
0.833711
0.882496
0.917117
0.941568
0.957751
0.96665
0.97006
0.970688
0.970556
-0.0999701
-0.0720363
-0.0164791
0.0588523
0.145024
0.23826
0.337651
0.442572
0.552063
0.664652
0.763736
0.836501
0.887633
0.923673
0.948829
0.965202
0.97396
0.977149
0.977633
0.977448
-0.123803
-0.0952376
-0.0386582
0.0379318
0.125557
0.220594
0.322167
0.429689
0.542305
0.65876
0.762058
0.838484
0.892329
0.93006
0.956003
0.972497
0.980991
0.983859
0.984191
0.983966
-0.147248
-0.117967
-0.0603905
0.0173326
0.106251
0.202875
0.306387
0.416229
0.531681
0.651749
0.759225
0.839552
0.89654
0.936358
0.963225
0.979695
0.9877
0.990136
0.990301
0.990048
-0.170135
-0.140182
-0.0816547
-0.00291625
0.0871538
0.185178
0.290382
0.402276
0.520256
0.643642
0.755168
0.839582
0.900143
0.942604
0.970715
0.987004
0.994142
0.995928
0.995898
0.995635
-0.192424
-0.16183
-0.102411
-0.0227539
0.0683311
0.167572
0.27425
0.387916
0.508115
0.634472
0.749841
0.838426
0.902939
0.948729
0.978755
0.994912
1.0006
1.00125
1.00092
1.00069
-0.214165
-0.18287
-0.122624
-0.0421345
0.0498535
0.150148
0.258089
0.373259
0.495362
0.624311
0.743201
0.835942
0.904669
0.95445
0.98749
1.00427
1.00812
1.00656
1.00538
1.00534
-0.235185
-0.203268
-0.142229
-0.060986
0.0317863
0.132996
0.242001
0.358422
0.482119
0.613268
0.735241
0.831995
0.905051
0.959236
0.996551
1.01582
1.01891
1.01436
1.01016
1.0082
-0.255573
-0.223017
-0.161229
-0.0793374
0.0140964
0.116071
0.22593
0.343344
0.468311
0.601273
0.725811
0.82632
0.903782
0.962428
1.00485
1.02915
1.03486
1.02951
1.01793
1.01618
-0.275234
-0.242186
-0.179758
-0.0973872
-0.00352022
0.0990188
0.209442
0.32751
0.453358
0.587653
0.714203
0.818079
0.900227
0.963058
1.01002
1.04054
1.05023
1.04179
1.02398
1.01819
-0.294026
-0.260725
-0.197641
-0.114926
-0.0208089
0.0821514
0.192761
0.31126
0.437582
0.572691
0.70055
0.806803
0.89379
0.960029
1.0073
1.0375
1.05133
1.03029
0.970844
0.944046
-0.311808
-0.279375
-0.21448
-0.131427
-0.0370851
0.0659599
0.176161
0.294872
0.421268
0.556577
0.684953
0.792061
0.883705
0.952828
0.992472
1.01567
1.01374
0.967307
0.905206
0.867127
-0.35617
-0.297639
-0.230182
-0.14744
-0.0531183
0.0495368
0.159772
0.278226
0.40422
0.538988
0.667071
0.773451
0.866738
0.940387
0.965626
0.963722
0.927739
0.869304
0.80197
0.764815
-0.331507
-0.313192
-0.253726
-0.171169
-0.0774523
0.0249217
0.134419
0.252083
0.37693
0.509903
0.635875
0.739384
0.824197
0.90198
0.895448
0.799092
0.715686
0.657381
0.596141
0.62785
-0.363554
-0.331691
-0.271438
-0.189438
-0.0957605
0.00625404
0.115821
0.232775
0.356503
0.48754
0.610676
0.710474
0.785907
0.828459
0.786718
0.656565
0.553657
0.484147
0.40434
0.454995
-0.388628
-0.354278
-0.292143
-0.209964
-0.116354
-0.0144519
0.0949558
0.211058
0.333347
0.461878
0.581175
0.675267
0.739123
0.746553
0.649372
0.500431
0.376049
0.28713
0.19365
0.230465
-0.413123
-0.377613
-0.314005
-0.231136
-0.137405
-0.0356409
0.0732562
0.188355
0.308999
0.434671
0.549269
0.636764
0.68423
0.659915
0.509756
0.337519
0.181036
0.0488852
-0.0748823
-0.0563664
-0.437389
-0.401408
-0.336827
-0.253344
-0.159402
-0.0578265
0.05043
0.164397
0.283141
0.405593
0.514832
0.595175
0.623026
0.558327
0.372977
0.179073
-0.0060921
-0.158677
-0.365633
-0.446568
-0.462106
-0.42613
-0.360946
-0.276987
-0.182809
-0.081363
0.0263233
0.139142
0.255889
0.374914
0.478479
0.5499
0.55527
0.438068
0.248371
0.0409239
-0.150339
-0.311578
-0.435965
-0.560639
-0.488345
-0.452258
-0.386714
-0.302457
-0.20817
-0.106943
7.94157e-05
0.111582
0.226011
0.341096
0.438538
0.498621
0.477827
0.322883
0.131598
-0.0699584
-0.244464
-0.341487
-0.367636
-0.381537
-0.516256
-0.480075
-0.414263
-0.329857
-0.235638
-0.134792
-0.0286761
0.0812009
0.192884
0.303323
0.39415
0.438171
0.397966
0.212581
0.0228442
-0.158787
-0.290176
-0.327845
-0.337141
-0.337317
-0.546123
-0.50971
-0.443636
-0.359176
-0.265161
-0.164916
-0.0599639
0.0479407
0.156433
0.261536
0.344786
0.37371
0.304503
0.111101
-0.0722703
-0.229853
-0.303633
-0.317495
-0.318892
-0.318801
-0.577953
-0.541205
-0.474845
-0.390403
-0.29675
-0.197302
-0.0937884
0.0117799
0.116644
0.21585
0.290078
0.305379
0.197681
0.0179238
-0.155159
-0.279993
-0.308146
-0.308574
-0.309075
-0.308711
-0.611487
-0.574375
-0.50777
-0.423444
-0.330305
-0.231887
-0.130113
-0.0272533
0.0735304
0.166419
0.231012
0.227585
0.100675
-0.0698295
-0.221754
-0.291982
-0.306466
-0.303933
-0.303112
-0.302554
-0.646138
-0.608862
-0.542135
-0.458054
-0.365619
-0.268493
-0.168769
-0.0690159
0.0272614
0.113595
0.168157
0.148308
0.00992702
-0.14908
-0.268155
-0.300986
-0.300427
-0.301719
-0.301303
-0.300475
-0.681468
-0.644122
-0.577448
-0.493791
-0.402308
-0.306771
-0.209451
-0.113197
-0.0218917
0.058156
0.100184
0.0705816
-0.073406
-0.214853
-0.302727
-0.306425
-0.303015
-0.298891
-0.296869
-0.296366
-0.716418
-0.67924
-0.61294
-0.529982
-0.439776
-0.346199
-0.25166
-0.159286
-0.0734348
0.000720107
0.0312094
-0.00942433
-0.147377
-0.267417
-0.327721
-0.329627
-0.307346
-0.291712
-0.286869
-0.28599
-0.749325
-0.712952
-0.647563
-0.565702
-0.47718
-0.385998
-0.294662
-0.206556
-0.126404
-0.0587944
-0.0324229
-0.0974536
-0.215511
-0.310228
-0.334149
-0.32798
-0.320246
-0.312225
-0.304053
-0.300058
-0.778966
-0.74375
-0.679903
-0.599718
-0.513392
-0.425101
-0.337488
-0.254024
-0.179501
-0.120027
-0.0930541
-0.176911
-0.289201
-0.340645
-0.371923
-0.367046
-0.373521
-0.378095
-0.373699
-0.370092
-0.802757
-0.76954
-0.708195
-0.630457
-0.547034
-0.46214
-0.378858
-0.300355
-0.23183
-0.180251
-0.155868
-0.237717
-0.366508
-0.400879
-0.415244
-0.449464
-0.466313
-0.477239
-0.477203
-0.474102
-0.81865
-0.788228
-0.730367
-0.656113
-0.576475
-0.495605
-0.417001
-0.34404
-0.282387
-0.235542
-0.220852
-0.297489
-0.423715
-0.540562
-0.561489
-0.587904
-0.61869
-0.622651
-0.614759
-0.612618
-0.823962
-0.797434
-0.744331
-0.674751
-0.599848
-0.523953
-0.449999
-0.383201
-0.327785
-0.289098
-0.272454
-0.38093
-0.468547
-0.497916
-0.517997
-0.643693
-0.700215
-0.6929
-0.69138
-0.691507
-0.816724
-0.794862
-0.747986
-0.684511
-0.615396
-0.545317
-0.476693
-0.414631
-0.365396
-0.339654
-0.327154
-0.488464
-0.529416
-0.440625
-0.470431
-0.649768
-0.748423
-0.742942
-0.740349
-0.739017
-0.794123
-0.777677
-0.739422
-0.68412
-0.621903
-0.558007
-0.49538
-0.436964
-0.392908
-0.374101
-0.393041
-0.573568
-0.763333
-0.93543
-1.05318
-1.15694
-1.03965
-0.86992
-0.802129
-0.808607
-0.75899
-0.748138
-0.719303
-0.673692
-0.619109
-0.561424
-0.503596
-0.449679
-0.407323
-0.388843
-0.434315
-0.651305
-1.0273
-1.44848
-1.72052
-1.85262
-1.74606
-1.50629
-1.28489
-1.2103
-0.716932
-0.710741
-0.691856
-0.655631
-0.608663
-0.555879
-0.501391
-0.448955
-0.405486
-0.384699
-0.427327
-0.571457
-0.880066
-1.2604
-1.3916
-1.43928
-1.39602
-1.30163
-1.17053
-1.09059
-0.676402
-0.672954
-0.662499
-0.635009
-0.593452
-0.543639
-0.489681
-0.433384
-0.380086
-0.348645
-0.327341
-0.349152
-0.317601
-0.351895
-0.392906
-0.428724
-0.348843
-0.254407
-0.167789
-0.116501
-0.643766
-0.641771
-0.636501
-0.616408
-0.578692
-0.528132
-0.469948
-0.407138
-0.335175
-0.25323
-0.179934
-0.037839
0.142841
0.392326
0.671288
0.968973
1.25077
1.44182
1.5447
1.58409
-0.616394
-0.615617
-0.614224
-0.601939
-0.567559
-0.514688
-0.449067
-0.37211
-0.288182
-0.175823
-0.0550388
0.143903
0.512036
0.919585
1.39816
1.81884
2.12972
2.3437
2.46872
2.51165
-0.597386
-0.596937
-0.596903
-0.590434
-0.560392
-0.504312
-0.431683
-0.343557
-0.245781
-0.133496
0.0112998
0.14956
0.453793
0.865659
1.36251
1.83824
2.21976
2.4718
2.59282
2.62723
-0.583242
-0.582284
-0.582008
-0.580506
-0.556122
-0.497642
-0.416604
-0.325576
-0.219298
-0.107354
0.0237834
0.152331
0.316644
0.709811
1.17326
1.59114
1.90814
2.10634
2.19479
2.21874
-0.578816
-0.577225
-0.577654
-0.578516
-0.555853
-0.49128
-0.401713
-0.306126
-0.204546
-0.0910722
0.0217617
0.151078
0.262406
0.501801
0.874467
1.20305
1.44777
1.58614
1.64272
1.65712
-0.581885
-0.582985
-0.58788
-0.58824
-0.556541
-0.477435
-0.380073
-0.283047
-0.185873
-0.0824695
0.0191783
0.116218
0.21345
0.355557
0.600896
0.832112
1.00156
1.09677
1.13735
1.14482
-0.558693
-0.565204
-0.573679
-0.569627
-0.526196
-0.438598
-0.342376
-0.251819
-0.163263
-0.0743108
0.0073371
0.074733
0.134299
0.240854
0.412939
0.55801
0.658625
0.715903
0.739374
0.742713
-0.457725
-0.464914
-0.47304
-0.467315
-0.42734
-0.355966
-0.281678
-0.207889
-0.137431
-0.0668009
-0.00706091
0.0424932
0.0682405
0.132573
0.253943
0.351323
0.415964
0.449061
0.460995
0.46255
-0.284733
-0.29006
-0.296521
-0.295411
-0.275315
-0.240063
-0.198947
-0.152655
-0.104607
-0.053767
-0.0143787
0.0144669
0.0300709
0.0664551
0.146458
0.209359
0.249636
0.270621
0.277934
0.278113
-0.109853
-0.112422
-0.117621
-0.124223
-0.127168
-0.125027
-0.114454
-0.0959677
-0.0699818
-0.0368196
-0.0128465
0.00303348
0.0154178
0.0482373
0.0980095
0.13209
0.153086
0.162861
0.16621
0.165763
0.00766467
0.00633728
0.00132861
-0.0104008
-0.0269383
-0.0411363
-0.0487288
-0.0478552
-0.0377281
-0.0186921
-0.00222119
0.00636634
0.0151051
0.0417165
0.0795179
0.0978848
0.105166
0.107946
0.108304
0.107431
0.0640444
0.0631574
0.0587841
0.047208
0.0291984
0.0104557
-0.00390056
-0.0120325
-0.0106839
-0.00217447
0.0111297
0.0188407
0.0270619
0.0446444
0.0685742
0.076673
0.0813549
0.0833688
0.0836555
0.0828118
0.081865
0.0812023
0.0778989
0.0688829
0.0541158
0.0374841
0.0230439
0.0126959
0.0091279
0.0127335
0.023171
0.034586
0.0481918
0.0600205
0.0691173
0.0724588
0.0752642
0.0767021
0.0769809
0.0760144
0.0812535
0.0807631
0.0784982
0.0723564
0.0619351
0.0492804
0.0371968
0.0277491
0.0222229
0.0232202
0.0334594
0.0472668
0.0669106
0.0730624
0.0738151
0.0739599
0.0758791
0.0772082
0.0775246
0.0764701
0.0737538
0.0733937
0.0719244
0.0680625
0.0612077
0.0524627
0.0432085
0.0353813
0.0299497
0.0296316
0.0376741
0.0516102
0.0700127
0.0721584
0.0704931
0.0720973
0.0753213
0.0784299
0.0789296
0.0775335
0.0648904
0.0646092
0.0636617
0.0613476
0.0570824
0.051423
0.0446232
0.0387964
0.0330986
0.0313277
0.0329604
0.0414616
0.0541965
0.0525034
0.0522335
0.0566349
0.0635216
0.0684011
0.0697935
0.0684566
0.0570752
0.0568358
0.0561927
0.0547942
0.0522592
0.0485542
0.0440518
0.0391742
0.0334701
0.0289644
0.0234698
0.0187374
0.0178677
0.0154409
0.0221097
0.0323461
0.0417169
0.0469375
0.0482588
0.0471973
0.0511156
0.050917
0.0504577
0.0495767
0.0480273
0.0456173
0.0426001
0.0385588
0.0335282
0.0257631
0.0129727
-0.00726608
-0.0251427
-0.0263672
-0.00898594
0.00660127
0.0169067
0.0209917
0.0217243
0.0210494
0.0468111
0.0466555
0.0463242
0.0457003
0.0447614
0.0432479
0.0412431
0.0380755
0.0340037
0.0249466
0.00965537
-0.0184715
-0.0463991
-0.0430349
-0.0221225
-0.00605155
0.00112154
0.00333632
0.00374545
0.00357894
0.0435335
0.0434225
0.0431954
0.042711
0.0420083
0.04123
0.0400234
0.0381909
0.0353014
0.0292552
0.0185872
-0.00321308
-0.0247987
-0.0173395
-0.00205514
0.00584373
0.00822266
0.00781677
0.00795108
0.00795864
0.0406078
0.0405344
0.0404275
0.0401232
0.0398183
0.0393896
0.0390821
0.0390727
0.0383592
0.037679
0.035595
0.0330287
0.0276874
0.0344557
0.0375323
0.0364342
0.034192
0.0328308
0.0325627
0.0322391
0.0375222
0.0375046
0.0375452
0.0374615
0.0374043
0.037259
0.038019
0.039425
0.041866
0.0469576
0.0555513
0.0745731
0.0849083
0.0888572
0.0810404
0.0729518
0.0679085
0.0662979
0.0653412
0.0648029
0.0333878
0.0333979
0.0335435
0.0337281
0.0338971
0.0346756
0.0358778
0.0385088
0.0434912
0.053601
0.0708248
0.106805
0.136881
0.133323
0.11651
0.103073
0.0978965
0.0964699
0.0949762
0.0941942
0.0276456
0.0276663
0.0279428
0.0284702
0.029123
0.0301001
0.0320841
0.0351531
0.0406942
0.0527127
0.0753764
0.115291
0.151223
0.147694
0.127041
0.116757
0.112969
0.11198
0.109724
0.108707
0.0203005
0.0203161
0.0206125
0.0211877
0.0223028
0.0237497
0.0255786
0.0285502
0.0327889
0.0429999
0.0647719
0.0969562
0.125796
0.119545
0.107384
0.104055
0.104457
0.104526
0.102197
0.100857
0.0117529
0.0116925
0.0118705
0.0124986
0.0132452
0.0141369
0.0158604
0.0186725
0.0209522
0.0251616
0.0428853
0.0606982
0.0720996
0.0667244
0.0647514
0.0667684
0.0676447
0.0671416
0.065186
0.0637825
0.0026951
0.00255782
0.00234055
0.00208324
0.0018433
0.00193515
0.00263525
0.0037191
0.00403107
0.00370184
0.00635144
0.0131685
0.0157289
0.013226
0.0164647
0.0145068
0.00943381
0.00375659
0.0059329
0.00797846
0.0799067
0.272724
0.45055
0.601976
0.724917
0.823643
0.906655
0.97397
0.991251
0.987441
0.379001
0.503739
0.620958
0.723487
0.81051
0.882892
0.940093
0.978836
0.999531
1.01594
0.582865
0.666103
0.748615
0.821576
0.884142
0.936144
0.977078
1.00814
1.0313
1.05052
0.732855
0.791503
0.851429
0.905383
0.952019
0.991609
1.0247
1.0523
1.07305
1.09199
0.851383
0.896117
0.941166
0.982783
1.01975
1.05234
1.08075
1.10477
1.12301
1.14108
0.952708
0.988896
1.02452
1.05897
1.09067
1.1193
1.14454
1.16569
1.18165
1.19916
1.04176
1.0744
1.10704
1.13857
1.16791
1.19457
1.21793
1.23705
1.25109
1.26814
1.12948
1.16234
1.19505
1.22648
1.25546
1.28143
1.30372
1.32137
1.33385
1.35041
1.22432
1.26084
1.29576
1.32838
1.3577
1.38318
1.40442
1.4208
1.43249
1.44867
1.33759
1.37814
1.4153
1.44841
1.47703
1.50112
1.52083
1.53617
1.54811
1.56423
1.47899
1.52021
1.55555
1.58524
1.61054
1.63221
1.65077
1.66629
1.67943
1.69542
1.65076
1.68339
1.71027
1.73262
1.75274
1.7715
1.78926
1.80603
1.82096
1.83678
1.83731
1.85463
1.87179
1.88849
1.9046
1.91934
1.93324
1.94771
1.96296
1.98038
2.02054
2.03052
2.04371
2.05468
2.06408
2.07373
2.08434
2.09455
2.10389
2.12929
2.23806
2.23229
2.21929
2.20504
2.19876
2.20447
2.22258
2.25108
2.28487
2.32117
2.54133
2.40547
2.32601
2.28349
2.2661
2.27011
2.29761
2.35553
2.46318
2.6414
0.829854
0.823553
0.815815
0.804693
0.791115
0.778456
0.768036
0.759986
0.754213
0.75081
0.750365
0.753103
0.758259
0.765557
0.775063
0.786859
0.800394
0.813306
0.822287
0.82982
0.738983
0.744908
0.752969
0.759086
0.762136
0.761602
0.758488
0.754452
0.750804
0.748441
0.748209
0.750363
0.754036
0.758423
0.762481
0.764697
0.763604
0.758956
0.751897
0.744058
0.732277
0.734648
0.73791
0.740674
0.743109
0.745273
0.746416
0.74622
0.745215
0.744316
0.744422
0.745735
0.747435
0.748601
0.748478
0.746977
0.744793
0.742408
0.739408
0.736384
0.727542
0.72863
0.730539
0.732865
0.734719
0.736093
0.737275
0.738213
0.738735
0.739011
0.739444
0.740073
0.740448
0.740255
0.739566
0.738597
0.73723
0.735232
0.733105
0.731622
0.722593
0.723227
0.724349
0.726092
0.727914
0.729477
0.730686
0.731689
0.732583
0.733358
0.734002
0.734394
0.734423
0.734125
0.733515
0.732484
0.731013
0.729368
0.728007
0.727199
0.717765
0.718205
0.718987
0.720276
0.721775
0.723305
0.724732
0.725957
0.72701
0.727963
0.728752
0.72919
0.729233
0.728886
0.728134
0.727063
0.725851
0.724662
0.72373
0.72319
0.713053
0.713381
0.713988
0.715044
0.716316
0.717681
0.719105
0.720498
0.721782
0.722934
0.723887
0.724428
0.724478
0.724092
0.72338
0.722501
0.721577
0.720663
0.719966
0.719569
0.708436
0.70869
0.709179
0.710078
0.711227
0.7125
0.713867
0.715313
0.716771
0.718159
0.719322
0.719993
0.720113
0.719828
0.719292
0.718618
0.717883
0.717177
0.716652
0.716348
0.703851
0.704053
0.70446
0.705251
0.706326
0.707551
0.708902
0.710387
0.711971
0.713577
0.714991
0.715869
0.716172
0.71608
0.71574
0.715253
0.714692
0.714153
0.713759
0.71352
0.699222
0.699384
0.699732
0.700452
0.701481
0.702683
0.70405
0.705596
0.707304
0.709113
0.710818
0.712008
0.712594
0.71275
0.712627
0.712332
0.711947
0.711559
0.711271
0.71108
0.694473
0.694603
0.694908
0.695585
0.696597
0.69782
0.699243
0.700887
0.70277
0.704858
0.706925
0.708484
0.709395
0.709841
0.709957
0.709857
0.709639
0.709388
0.70919
0.709037
0.689534
0.689637
0.689913
0.690572
0.691605
0.692896
0.69443
0.696249
0.698379
0.700809
0.70332
0.705346
0.706644
0.707392
0.707756
0.70786
0.707808
0.707684
0.707561
0.707438
0.684323
0.684403
0.684662
0.685329
0.68642
0.687822
0.68952
0.691587
0.694065
0.696964
0.700041
0.702597
0.704323
0.70541
0.706051
0.70638
0.706495
0.706494
0.706437
0.70634
0.678759
0.678817
0.679068
0.679764
0.680947
0.682499
0.684403
0.686752
0.689641
0.693098
0.696864
0.700093
0.702366
0.703895
0.704878
0.70547
0.705767
0.705892
0.7059
0.705825
0.672743
0.67278
0.673028
0.673766
0.675064
0.676806
0.678989
0.681719
0.685111
0.689251
0.693862
0.697922
0.700874
0.702936
0.7043
0.705182
0.705727
0.705995
0.706069
0.706014
0.666153
0.666161
0.666406
0.667211
0.668675
0.670682
0.673234
0.676478
0.680559
0.685576
0.691233
0.696297
0.700026
0.702669
0.704492
0.705705
0.706503
0.706922
0.707063
0.707027
0.658773
0.658774
0.659038
0.659926
0.661586
0.663912
0.666911
0.670764
0.675685
0.681821
0.688771
0.695009
0.699682
0.703075
0.705468
0.707124
0.708227
0.708822
0.709037
0.709018
0.650367
0.650338
0.650629
0.651638
0.653559
0.656277
0.659837
0.664463
0.670393
0.677822
0.686348
0.694125
0.699981
0.704272
0.70737
0.709584
0.711063
0.711877
0.712176
0.712172
0.640645
0.640596
0.640931
0.642099
0.644329
0.647566
0.651877
0.657534
0.664845
0.674031
0.684498
0.693977
0.701165
0.706493
0.710397
0.713248
0.715184
0.716261
0.716653
0.716657
0.629076
0.629006
0.62941
0.630788
0.633427
0.637329
0.642588
0.649525
0.658497
0.669749
0.682595
0.694243
0.703092
0.709692
0.714595
0.718225
0.720721
0.722103
0.722592
0.722597
0.614934
0.614847
0.615374
0.617069
0.620284
0.625119
0.631691
0.640374
0.651573
0.665502
0.681216
0.695342
0.706042
0.714083
0.720137
0.724634
0.727755
0.729468
0.730051
0.73005
0.597214
0.597116
0.597849
0.600041
0.604117
0.610292
0.61869
0.629721
0.643788
0.661028
0.68018
0.697211
0.710059
0.719725
0.72706
0.732544
0.73635
0.738402
0.73907
0.739055
0.574449
0.574357
0.575436
0.578413
0.583838
0.592019
0.603058
0.617334
0.635157
0.656498
0.6797
0.700014
0.715252
0.726721
0.73546
0.742028
0.746557
0.748936
0.749675
0.749641
0.544309
0.54427
0.545969
0.550326
0.558048
0.569446
0.584406
0.603188
0.625864
0.652178
0.680023
0.70396
0.721775
0.73519
0.745442
0.753171
0.758422
0.76109
0.761871
0.761809
0.502709
0.502879
0.505947
0.513167
0.525148
0.541814
0.562614
0.587476
0.616206
0.648317
0.681321
0.709156
0.729703
0.745163
0.757036
0.765989
0.771921
0.774788
0.775557
0.775459
0.44205
0.443392
0.450845
0.464578
0.484313
0.50933
0.538338
0.570925
0.606793
0.645386
0.683898
0.715764
0.739091
0.756625
0.770081
0.780222
0.786792
0.789718
0.790377
0.790239
0.369047
0.371766
0.386219
0.409963
0.440384
0.475234
0.513163
0.554004
0.59759
0.643448
0.688529
0.72559
0.752747
0.773291
0.789096
0.800854
0.808258
0.811491
0.812293
0.812291
0.294322
0.301374
0.323017
0.356677
0.397372
0.44184
0.488692
0.537871
0.589283
0.642548
0.694409
0.736897
0.768051
0.791749
0.810176
0.82375
0.832011
0.835184
0.835879
0.835995
0.233673
0.242459
0.268772
0.30947
0.358153
0.410725
0.465607
0.522599
0.581482
0.641842
0.700121
0.747662
0.782526
0.809017
0.829488
0.844352
0.853114
0.85674
0.857939
0.85815
0.183873
0.193351
0.223101
0.26897
0.323735
0.382816
0.444463
0.508309
0.573993
0.640932
0.705221
0.757424
0.795573
0.824447
0.846532
0.862577
0.87224
0.876592
0.878007
0.878241
0.141957
0.1517
0.183772
0.233676
0.293416
0.357926
0.425295
0.495089
0.566841
0.639799
0.709608
0.766096
0.807129
0.837955
0.861331
0.878258
0.888762
0.893618
0.895232
0.895503
0.105479
0.115333
0.149144
0.202274
0.266166
0.335334
0.407692
0.482763
0.55997
0.638429
0.713347
0.773719
0.81733
0.849761
0.874149
0.891746
0.902895
0.908185
0.909968
0.910256
0.0728817
0.0827661
0.117935
0.17373
0.241145
0.314336
0.391119
0.470954
0.55317
0.636747
0.716443
0.780408
0.826289
0.860082
0.885269
0.903435
0.914974
0.920645
0.922515
0.922802
0.0429976
0.0529126
0.0891588
0.147257
0.217701
0.294408
0.375135
0.459312
0.546187
0.634591
0.718842
0.786224
0.834193
0.869196
0.895031
0.913564
0.925365
0.931231
0.93318
0.933475
0.0149624
0.0249345
0.0621897
0.12228
0.195346
0.275146
0.359413
0.447567
0.538785
0.631797
0.720471
0.791193
0.841207
0.877378
0.903838
0.922714
0.934667
0.94065
0.942578
0.942842
-0.0117415
-0.00168264
0.0364934
0.0983574
0.17373
0.256264
0.343726
0.435523
0.530799
0.628218
0.721248
0.795329
0.847433
0.884822
0.911945
0.931159
0.943261
0.949236
0.951156
0.951324
-0.0375404
-0.0273135
0.0117304
0.075188
0.152595
0.237567
0.327916
0.423055
0.52212
0.623752
0.721097
0.798645
0.852984
0.89171
0.919574
0.939131
0.951345
0.957276
0.959128
0.959291
-0.0626905
-0.0522108
-0.0123205
0.0525842
0.131791
0.218929
0.311893
0.410093
0.512677
0.618335
0.719971
0.801146
0.857935
0.898167
0.926873
0.946822
0.95914
0.965002
0.966734
0.966845
-0.087262
-0.0765225
-0.0358084
0.0304238
0.111237
0.200308
0.29562
0.396605
0.502446
0.611921
0.717821
0.802813
0.862316
0.904272
0.933943
0.954316
0.966682
0.972385
0.973962
0.973999
-0.111378
-0.100345
-0.0588314
0.00866649
0.0909027
0.181688
0.279105
0.382607
0.491434
0.6045
0.714584
0.803572
0.866102
0.910074
0.940862
0.961662
0.973998
0.97946
0.980817
0.980767
-0.135044
-0.123706
-0.0813606
-0.0127043
0.0707963
0.163102
0.262395
0.368145
0.479674
0.596063
0.710204
0.803316
0.869227
0.915606
0.947732
0.968943
0.981076
0.986133
0.987233
0.987112
-0.158291
-0.14659
-0.103394
-0.0336767
0.050951
0.144599
0.245547
0.353291
0.467228
0.586638
0.704637
0.801945
0.87158
0.920855
0.954689
0.976322
0.987988
0.992401
0.993167
0.992978
-0.180887
-0.168928
-0.124901
-0.054213
0.0314265
0.126262
0.228639
0.338124
0.454179
0.576289
0.697868
0.799363
0.872996
0.925712
0.961871
0.984133
0.994973
0.998288
0.998556
0.998307
-0.202979
-0.190662
-0.145834
-0.0742704
0.0122672
0.108142
0.211771
0.322738
0.440623
0.565108
0.689908
0.795468
0.87328
0.929939
0.969285
0.992879
1.00273
1.00416
1.00341
1.00307
-0.224375
-0.211743
-0.166168
-0.0937905
-0.00643826
0.0903296
0.195035
0.307261
0.426679
0.553175
0.680803
0.790172
0.872237
0.933173
0.976613
1.00295
1.01264
1.01154
1.00838
1.00737
-0.245161
-0.232185
-0.185837
-0.112711
-0.024646
0.0729008
0.178523
0.291783
0.412464
0.540636
0.670637
0.783399
0.869682
0.93498
0.983059
1.01392
1.02594
1.02396
1.01698
1.00685
-0.265216
-0.251976
-0.204932
-0.131199
-0.0425851
0.0555548
0.161875
0.275871
0.397494
0.52695
0.658843
0.774509
0.865062
0.934865
0.987573
1.02424
1.04194
1.04188
1.03136
1.02728
-0.284491
-0.271186
-0.223438
-0.149186
-0.0602271
0.0383175
0.14513
0.259514
0.381747
0.512006
0.64527
0.763094
0.857741
0.932045
0.987853
1.02835
1.04944
1.05438
1.0212
0.980947
-0.302751
-0.289686
-0.241305
-0.166542
-0.0775417
0.0211712
0.128305
0.242851
0.365303
0.495864
0.629881
0.748909
0.846804
0.925896
0.982072
1.01612
1.03766
1.0255
0.973973
0.917544
-0.322662
-0.306161
-0.258197
-0.18279
-0.0943339
0.00437743
0.11107
0.225935
0.348263
0.478646
0.612638