/*--------------------------------*- C++ -*----------------------------------*\
  =========                 |
  \\      /  F ield         | OpenFOAM: The Open Source CFD Toolbox
   \\    /   O peration     | Website:  https://openfoam.org
    \\  /    A nd           | Version:  6
     \\/     M anipulation  |
\*---------------------------------------------------------------------------*/
FoamFile
{
    version     2.0;
    format      ascii;
    class       volVectorField;
    location    "38";
    object      U;
}
// * * * * * * * * * * * * * * * * * * * * * * * * * * * * * * * * * * * * * //

dimensions      [0 1 -1 0 0 0 0];

internalField   nonuniform List<vector> 
8800
(
(0.987198 -0.0767057 0)
(1.0019 -0.0551763 0)
(0.999747 -0.0285491 0)
(1.00004 -0.0151493 0)
(1.00006 -0.00854506 0)
(1.00005 -0.00504107 0)
(1.00003 -0.00300694 0)
(0.999998 -0.00172421 0)
(0.999982 -0.000827063 0)
(1.00005 -0.000114061 0)
(0.999986 0.000609495 0)
(0.999998 0.0013703 0)
(1.00001 0.00240019 0)
(1.00002 0.00398559 0)
(1.00003 0.0066264 0)
(1.00001 0.0113689 0)
(0.999909 0.0208124 0)
(0.999154 0.0386548 0)
(1.0071 0.072456 0)
(0.771226 0.0366891 0)
(0.363025 -0.0160172 0)
(1.0433 -0.0768359 0)
(1.08463 -0.0704608 0)
(1.04524 -0.0535686 0)
(1.02329 -0.0389207 0)
(1.01197 -0.0262491 0)
(1.00637 -0.0169112 0)
(1.00356 -0.0104104 0)
(1.00213 -0.00576602 0)
(1.00145 -0.00212064 0)
(1.00131 0.00118463 0)
(1.00169 0.00455421 0)
(1.00267 0.00849565 0)
(1.00465 0.0138563 0)
(1.0086 0.0215879 0)
(1.01657 0.0325674 0)
(1.0325 0.0464882 0)
(1.06268 0.061618 0)
(1.0919 0.0760594 0)
(0.838711 0.0565674 0)
(0.21677 -0.00242343 0)
(1.07585 -0.0501772 0)
(1.09987 -0.0483727 0)
(1.06461 -0.0405265 0)
(1.03994 -0.0336679 0)
(1.0238 -0.0261594 0)
(1.01403 -0.0186212 0)
(1.0085 -0.0118436 0)
(1.00556 -0.00599963 0)
(1.00432 -0.000606237 0)
(1.00468 0.00462097 0)
(1.00661 0.010006 0)
(1.0106 0.0161199 0)
(1.01792 0.0231806 0)
(1.03054 0.0306803 0)
(1.05063 0.0377349 0)
(1.08035 0.0444431 0)
(1.1063 0.0512817 0)
(0.942647 0.0415814 0)
(0.216246 0.00244821 0)
(0.17506 -0.000817018 0)
(1.01755 -0.0355351 0)
(1.10515 -0.041463 0)
(1.07819 -0.0361647 0)
(1.05332 -0.0302448 0)
(1.03603 -0.0246981 0)
(1.02387 -0.0190273 0)
(1.01579 -0.0129874 0)
(1.01096 -0.00683379 0)
(1.0088 -0.000536254 0)
(1.0094 0.00569552 0)
(1.01268 0.0116946 0)
(1.01888 0.0175644 0)
(1.02878 0.0231901 0)
(1.04325 0.0285373 0)
(1.06378 0.0340502 0)
(1.09362 0.0400571 0)
(1.09354 0.0418526 0)
(0.82746 0.0228629 0)
(0.174176 0.000844791 0)
(0.153805 -0.000612386 0)
(0.955896 -0.0255202 0)
(1.10333 -0.035235 0)
(1.08755 -0.0327811 0)
(1.06151 -0.0281421 0)
(1.04387 -0.0231534 0)
(1.03145 -0.0179813 0)
(1.02265 -0.0125256 0)
(1.01689 -0.00664711 0)
(1.01411 -0.000222529 0)
(1.01484 0.00622135 0)
(1.01884 0.0121047 0)
(1.02585 0.0174175 0)
(1.03616 0.0223799 0)
(1.05077 0.0272002 0)
(1.07202 0.0317824 0)
(1.10021 0.0357567 0)
(1.06838 0.0338736 0)
(0.74012 0.0142472 0)
(0.152479 0.000643678 0)
(0.139372 -0.00046953 0)
(0.898801 -0.0191493 0)
(1.09554 -0.0302155 0)
(1.09554 -0.0293625 0)
(1.06896 -0.0256597 0)
(1.05049 -0.021572 0)
(1.03761 -0.0168829 0)
(1.02855 -0.0116736 0)
(1.02251 -0.00600595 0)
(1.01946 0.000253546 0)
(1.02016 0.00652838 0)
(1.02431 0.0121543 0)
(1.03145 0.0171524 0)
(1.042 0.0216856 0)
(1.0572 0.0257232 0)
(1.07943 0.0292484 0)
(1.10254 0.0319202 0)
(1.03654 0.0279052 0)
(0.673912 0.010125 0)
(0.137506 0.000505461 0)
(0.128766 -0.000364632 0)
(0.848989 -0.0147945 0)
(1.08298 -0.0261034 0)
(1.1011 -0.0264469 0)
(1.0757 -0.0232077 0)
(1.05671 -0.0196373 0)
(1.04339 -0.0154942 0)
(1.03399 -0.0106804 0)
(1.02772 -0.00524568 0)
(1.02451 0.000829562 0)
(1.0251 0.00689343 0)
(1.02923 0.0122418 0)
(1.03651 0.0168144 0)
(1.04735 0.020745 0)
(1.06296 0.0241284 0)
(1.08563 0.027143 0)
(1.1018 0.0289665 0)
(1.00201 0.0233188 0)
(0.622552 0.00773678 0)
(0.126245 0.000406907 0)
(0.120655 -0.000284363 0)
(0.806604 -0.0116389 0)
(1.0675 -0.0225098 0)
(1.10448 -0.0238424 0)
(1.08182 -0.0210236 0)
(1.06239 -0.0176882 0)
(1.04878 -0.0138801 0)
(1.03912 -0.00942317 0)
(1.03258 -0.00428835 0)
(1.02914 0.0015261 0)
(1.0296 0.0072963 0)
(1.03374 0.012279 0)
(1.04111 0.0163931 0)
(1.05208 0.0198289 0)
(1.06796 0.0228028 0)
(1.09101 0.0255444 0)
(1.09825 0.0265008 0)
(0.967298 0.0196867 0)
(0.581517 0.00617083 0)
(0.117339 0.000334648 0)
(0.114354 -0.000221307 0)
(0.77089 -0.00927099 0)
(1.05048 -0.0193321 0)
(1.10666 -0.0214356 0)
(1.0875 -0.019027 0)
(1.06769 -0.0158698 0)
(1.05385 -0.0122311 0)
(1.044 -0.00799952 0)
(1.03723 -0.00314848 0)
(1.03355 0.00236338 0)
(1.03384 0.00780064 0)
(1.0379 0.0123777 0)
(1.04525 0.0160886 0)
(1.05627 0.0191669 0)
(1.07236 0.0218066 0)
(1.09511 0.0242121 0)
(1.09199 0.0243803 0)
(0.933755 0.0168302 0)
(0.547841 0.00508106 0)
(0.11007 0.000281355 0)
(0.109432 -0.000170472 0)
(0.740942 -0.00742324 0)
(1.03303 -0.0164971 0)
(1.10785 -0.0191221 0)
(1.09284 -0.0170179 0)
(1.07275 -0.0139693 0)
(1.05866 -0.0104839 0)
(1.04862 -0.00645165 0)
(1.04166 -0.00183137 0)
(1.03774 0.00338188 0)
(1.0378 0.00845922 0)
(1.04169 0.0126381 0)
(1.04893 0.0159404 0)
(1.05998 0.0186381 0)
(1.0763 0.0209793 0)
(1.09802 0.023068 0)
(1.08345 0.0225237 0)
(0.902036 0.0145901 0)
(0.519543 0.00429684 0)
(0.103975 0.000242488 0)
(0.105607 -0.000128468 0)
(0.715962 -0.00592261 0)
(1.01597 -0.013938 0)
(1.1082 -0.0169059 0)
(1.09807 -0.0151285 0)
(1.07768 -0.0121298 0)
(1.0633 -0.00868731 0)
(1.05308 -0.00475141 0)
(1.04591 -0.00032255 0)
(1.04174 0.00460248 0)
(1.04151 0.00930348 0)
(1.04514 0.0130839 0)
(1.05223 0.0160324 0)
(1.06325 0.0184307 0)
(1.0798 0.0205053 0)
(1.09968 0.0221968 0)
(1.07308 0.0209721 0)
(0.872314 0.0128591 0)
(0.495227 0.00373333 0)
(0.0987205 0.000216146 0)
(0.102697 -9.17592e-05 0)
(0.695357 -0.00465079 0)
(0.999946 -0.0115699 0)
(1.10775 -0.0146708 0)
(1.10301 -0.0131346 0)
(1.08257 -0.0101681 0)
(1.0679 -0.00676104 0)
(1.05741 -0.00289258 0)
(1.04997 0.00139186 0)
(1.04546 0.0060807 0)
(1.04487 0.0104476 0)
(1.04821 0.013839 0)
(1.05513 0.0164092 0)
(1.06615 0.0184478 0)
(1.08285 0.0202153 0)
(1.10037 0.0215245 0)
(1.06121 0.019652 0)
(0.844568 0.0115211 0)
(0.473896 0.00332424 0)
(0.0940651 0.000198066 0)
(0.100583 -5.78122e-05 0)
(0.678683 -0.00351695 0)
(0.98547 -0.00932985 0)
(1.10684 -0.0123625 0)
(1.10768 -0.0109587 0)
(1.08738 -0.0079771 0)
(1.07235 -0.00458783 0)
(1.06155 -0.000785178 0)
(1.05376 0.00339315 0)
(1.04884 0.00786566 0)
(1.04779 0.0118987 0)
(1.05079 0.0149078 0)
(1.05751 0.0170786 0)
(1.06853 0.0187207 0)
(1.08532 0.0201577 0)
(1.10008 0.0210827 0)
(1.04816 0.0185918 0)
(0.818601 0.0105077 0)
(0.454785 0.00303677 0)
(0.0898204 0.000187588 0)
(0.099214 -2.35509e-05 0)
(0.665707 -0.00244508 0)
(0.972915 -0.00711905 0)
(1.10571 -0.0099097 0)
(1.11221 -0.00861821 0)
(1.09225 -0.00561773 0)
(1.07684 -0.00214919 0)
(1.06569 0.00168183 0)
(1.05749 0.00579917 0)
(1.05202 0.0100491 0)
(1.05045 0.0137157 0)
(1.05302 0.0162959 0)
(1.05947 0.0180456 0)
(1.07045 0.0193464 0)
(1.08732 0.0204472 0)
(1.09876 0.0209179 0)
(1.0341 0.0177749 0)
(0.794161 0.00975837 0)
(0.437314 0.00284376 0)
(0.0858419 0.000183345 0)
(0.0985787 1.20361e-05 0)
(0.656344 -0.00138039 0)
(0.962662 -0.00486337 0)
(1.10467 -0.00721816 0)
(1.11662 -0.00594976 0)
(1.09722 -0.00291905 0)
(1.08147 0.000652077 0)
(1.06991 0.00455299 0)
(1.06117 0.00862291 0)
(1.05507 0.0127104 0)
(1.05283 0.0160495 0)
(1.0549 0.0181726 0)
(1.06102 0.0194401 0)
(1.07186 0.0202848 0)
(1.08865 0.0209947 0)
(1.09626 0.0209294 0)
(1.01914 0.0171527 0)
(0.771008 0.00921857 0)
(0.421036 0.00272564 0)
(0.0820108 0.000183778 0)
(0.0986992 4.1453e-05 0)
(0.650574 -0.000275002 0)
(0.955051 -0.00252987 0)
(1.10414 -0.00427544 0)
(1.12113 -0.00287807 0)
(1.10235 0.00028491 0)
(1.08615 0.00396364 0)
(1.07409 0.00793538 0)
(1.0648 0.0120353 0)
(1.05797 0.0159684 0)
(1.05488 0.0189351 0)
(1.05621 0.0205664 0)
(1.06189 0.0213103 0)
(1.07264 0.0215818 0)
(1.08924 0.02185 0)
(1.09246 0.0212619 0)
(1.00345 0.0168312 0)
(0.748849 0.00891691 0)
(0.405529 0.0026895 0)
(0.0782208 0.000189934 0)
(0.0996426 0.000102644 0)
(0.648585 0.00091772 0)
(0.950397 -1.52337e-05 0)
(1.10445 -0.00100288 0)
(1.12591 0.000581853 0)
(1.10765 0.00389962 0)
(1.09097 0.00780645 0)
(1.0783 0.0119774 0)
(1.06817 0.0161516 0)
(1.06031 0.0199645 0)
(1.05625 0.0225603 0)
(1.05685 0.0236443 0)
(1.06204 0.0237748 0)
(1.07261 0.0235078 0)
(1.08874 0.0232051 0)
(1.08733 0.0219393 0)
(0.986878 0.0167874 0)
(0.727298 0.00882332 0)
(0.390378 0.00272663 0)
(0.0743547 0.000201222 0)
(0.101557 0.000145013 0)
(0.650328 0.00206851 0)
(0.94906 0.00272516 0)
(1.10595 0.002691 0)
(1.13105 0.00457211 0)
(1.11337 0.00812091 0)
(1.09624 0.0123635 0)
(1.08292 0.0168462 0)
(1.07194 0.0211762 0)
(1.06293 0.024869 0)
(1.05761 0.0270309 0)
(1.05714 0.0275247 0)
(1.0616 0.027006 0)
(1.07183 0.026127 0)
(1.08715 0.0251167 0)
(1.08062 0.023007 0)
(0.969366 0.0170681 0)
(0.706002 0.00896363 0)
(0.375209 0.00283678 0)
(0.0703224 0.000216395 0)
(0.104575 0.00021096 0)
(0.656744 0.00352841 0)
(0.951435 0.00569321 0)
(1.10915 0.0068778 0)
(1.1368 0.00927565 0)
(1.11957 0.0132283 0)
(1.10186 0.01787 0)
(1.08763 0.0226845 0)
(1.07545 0.0272314 0)
(1.06497 0.0308875 0)
(1.05813 0.032637 0)
(1.05649 0.032429 0)
(1.06017 0.0311252 0)
(1.06997 0.0295011 0)
(1.08416 0.0277333 0)
(1.07214 0.024641 0)
(0.950706 0.0178529 0)
(0.684401 0.00940927 0)
(0.359549 0.00303984 0)
(0.066032 0.000235639 0)
(0.108989 0.000295976 0)
(0.667978 0.00520441 0)
(0.957779 0.00904028 0)
(1.11456 0.0116228 0)
(1.14352 0.0147162 0)
(1.12647 0.0192804 0)
(1.10805 0.0244971 0)
(1.09277 0.0298269 0)
(1.07916 0.0347094 0)
(1.06685 0.0382681 0)
(1.05818 0.0394512 0)
(1.05511 0.03848 0)
(1.05771 0.0363251 0)
(1.06694 0.0338651 0)
(1.07967 0.0313 0)
(1.06173 0.0270999 0)
(0.93046 0.0193069 0)
(0.661773 0.0102622 0)
(0.342761 0.00336324 0)
(0.0613715 0.000259853 0)
(0.115069 0.000405486 0)
(0.684545 0.00719571 0)
(0.968931 0.0129867 0)
(1.12268 0.0170902 0)
(1.15164 0.0210339 0)
(1.13445 0.0264295 0)
(1.11514 0.0324416 0)
(1.09854 0.0384635 0)
(1.08314 0.0437743 0)
(1.06861 0.0473382 0)
(1.0577 0.0479522 0)
(1.05286 0.0460531 0)
(1.05422 0.0429166 0)
(1.06269 0.0395716 0)
(1.0736 0.0361235 0)
(1.04907 0.0306072 0)
(0.908153 0.0216221 0)
(0.63714 0.0116293 0)
(0.324019 0.00383 0)
(0.0561899 0.000291257 0)
(0.123234 0.000554848 0)
(0.707091 0.00974183 0)
(0.9854 0.0177769 0)
(1.13403 0.0236304 0)
(1.16156 0.0287381 0)
(1.14379 0.035328 0)
(1.12323 0.0423959 0)
(1.10481 0.049273 0)
(1.08707 0.055025 0)
(1.06977 0.0584362 0)
(1.05624 0.058241 0)
(1.04941 0.055215 0)
(1.0494 0.05097 0)
(1.057 0.0466625 0)
(1.06581 0.0422153 0)
(1.03388 0.0353032 0)
(0.883118 0.0249153 0)
(0.609275 0.0134928 0)
(0.302462 0.00442252 0)
(0.0503193 0.000328844 0)
(0.13419 0.000772903 0)
(0.736666 0.013253 0)
(1.00809 0.0239013 0)
(1.14955 0.0318167 0)
(1.17412 0.0384997 0)
(1.15504 0.0467734 0)
(1.13272 0.055122 0)
(1.11188 0.0629139 0)
(1.0912 0.0689988 0)
(1.0706 0.0719589 0)
(1.05398 0.0706123 0)
(1.04484 0.0662048 0)
(1.0433 0.0606894 0)
(1.04996 0.055254 0)
(1.05605 0.0498517 0)
(1.01581 0.0413588 0)
(0.854375 0.0291757 0)
(0.576941 0.0157692 0)
(0.277405 0.00509767 0)
(0.0436429 0.00036926 0)
(0.14912 0.00111564 0)
(0.775018 0.0183628 0)
(1.03847 0.0321516 0)
(1.17017 0.0425878 0)
(1.19024 0.051527 0)
(1.16856 0.0616728 0)
(1.14356 0.0714402 0)
(1.1194 0.0800721 0)
(1.09496 0.0862316 0)
(1.0704 0.0883422 0)
(1.05035 0.0854219 0)
(1.03877 0.0793085 0)
(1.03563 0.07231 0)
(1.04132 0.0656093 0)
(1.04415 0.0590082 0)
(0.994125 0.0487922 0)
(0.820698 0.03425 0)
(0.539077 0.0183081 0)
(0.248473 0.00578672 0)
(0.0361466 0.000405318 0)
(0.170147 0.00171856 0)
(0.825335 0.0262342 0)
(1.0793 0.0442153 0)
(1.19678 0.0578031 0)
(1.2103 0.0694762 0)
(1.18447 0.0814717 0)
(1.15559 0.0925327 0)
(1.12713 0.101593 0)
(1.09816 0.107297 0)
(1.06909 0.10802 0)
(1.04528 0.103101 0)
(1.03104 0.0949866 0)
(1.02624 0.08624 0)
(1.03071 0.0780608 0)
(1.0295 0.0698905 0)
(0.96778 0.0574604 0)
(0.780913 0.0399811 0)
(0.495024 0.0209715 0)
(0.215761 0.00641957 0)
(0.0279761 0.000428571 0)
(0.200616 0.00306169 0)
(0.89345 0.0396383 0)
(1.13326 0.0639191 0)
(1.2295 0.0809969 0)
(1.23398 0.0954794 0)
(1.20215 0.108778 0)
(1.16808 0.120212 0)
(1.13434 0.128685 0)
(1.10019 0.132872 0)
(1.06621 0.131262 0)
(1.03845 0.123579 0)
(1.02148 0.113018 0)
(1.01484 0.102293 0)
(1.01768 0.0924528 0)
(1.01119 0.0823563 0)
(0.935726 0.0672477 0)
(0.733898 0.0461513 0)
(0.445026 0.023648 0)
(0.180332 0.00697134 0)
(0.0195659 0.000431047 0)
(0.242376 0.00924513 5.91744e-20)
(0.983331 0.066434 5.14393e-20)
(1.19809 0.0978497 -1.78364e-20)
(1.26585 0.116178 0)
(1.25856 0.133573 -4.38431e-34)
(1.21951 0.146389 6.36698e-21)
(1.17954 0.15645 -1.12283e-20)
(1.13993 0.162918 0)
(1.10012 0.164443 2.25145e-34)
(1.06078 0.159509 -1.33927e-20)
(1.02863 0.148316 0)
(1.00864 0.134861 -1.56622e-20)
(0.999857 0.122006 -4.60312e-20)
(1.00031 0.110684 -2.16923e-20)
(0.988027 0.0992541 -6.5062e-21)
(0.89424 0.0811581 -3.85746e-21)
(0.67449 0.0544546 0)
(0.386437 0.0273587 2.70275e-21)
(0.143031 0.00835808 3.19317e-21)
(0.011642 0.000624522 5.74492e-20)
(0.270748 0.0244803 4.66931e-20)
(1.0574 0.108758 5.19778e-22)
(1.25093 0.146358 4.90793e-21)
(1.29938 0.164957 0)
(1.28032 0.182258 -2.27741e-20)
(1.23449 0.19324 -2.55647e-20)
(1.18856 0.201217 -1.14649e-20)
(1.14283 0.205371 -4.0062e-20)
(1.09687 0.204188 0)
(1.05131 0.19599 5.72569e-20)
(1.01362 0.18149 5.63713e-20)
(0.989503 0.165368 1.66823e-20)
(0.977991 0.150586 6.03516e-20)
(0.974999 0.137712 8.43271e-20)
(0.952127 0.123291 0)
(0.837324 0.0998157 1.18665e-19)
(0.604898 0.0659356 1.70442e-19)
(0.32757 0.0334049 1.89409e-19)
(0.110348 0.0104741 -2.16726e-19)
(0.00524478 0.000526658 -4.06646e-21)
(0.271492 0.0407382 0)
(1.10387 0.163678 8.9385e-21)
(1.28704 0.205769 0)
(1.32574 0.224734 -3.17818e-20)
(1.29766 0.238873 0)
(1.24596 0.246305 -5.11642e-20)
(1.19426 0.25078 2.36542e-20)
(1.14267 0.251524 -8.1557e-20)
(1.09086 0.246989 -1.57778e-21)
(1.03948 0.23553 2.98485e-20)
(0.996698 0.218427 1.23997e-19)
(0.968616 0.200623 -3.04423e-22)
(0.954004 0.184625 -4.38937e-20)
(0.94641 0.169569 -7.97076e-20)
(0.913831 0.150366 9.4372e-20)
(0.793 0.120947 -1.67071e-19)
(0.567317 0.0809416 -2.20945e-20)
(0.306999 0.0422604 0)
(0.105381 0.0140599 3.47236e-24)
(0.00494638 0.000658038 0)
(0.264681 0.0545497 1.35202e-19)
(1.12828 0.222171 -6.33135e-20)
(1.30974 0.269978 -4.5048e-20)
(1.3433 0.289382 1.55145e-20)
(1.30906 0.299676 -2.58365e-20)
(1.2528 0.302848 1.07816e-19)
(1.19625 0.303145 4.96847e-20)
(1.13966 0.299919 0)
(1.08276 0.291763 -1.51678e-19)
(1.02636 0.277061 0)
(0.97906 0.257468 -6.54069e-20)
(0.947113 0.237852 -8.00055e-20)
(0.928292 0.219862 -4.78909e-20)
(0.914501 0.201746 -5.79708e-20)
(0.875923 0.178382 0)
(0.760155 0.144946 0)
(0.55076 0.100365 -1.44631e-19)
(0.308762 0.0557632 2.85757e-20)
(0.113423 0.0202523 -1.67636e-20)
(0.00759644 0.00140059 -1.95997e-20)
(0.256991 0.0667979 -6.72187e-20)
(1.13831 0.280464 0)
(1.32224 0.33519 9.88219e-20)
(1.35302 0.355233 4.5287e-20)
(1.31455 0.361704 5.86363e-20)
(1.25479 0.360512 0)
(1.19448 0.356543 4.94323e-20)
(1.13389 0.349338 9.10007e-20)
(1.07282 0.337494 7.82549e-20)
(1.01209 0.319386 1.40673e-19)
(0.960736 0.296671 0)
(0.924881 0.274307 -1.72784e-19)
(0.901425 0.253601 -1.03624e-19)
(0.881714 0.232596 -6.11245e-20)
(0.840553 0.207115 3.74253e-19)
(0.734447 0.171764 4.46207e-20)
(0.54296 0.12334 2.10166e-19)
(0.317066 0.0721711 -9.93207e-19)
(0.125877 0.0287607 5.89717e-19)
(0.0116479 0.00278976 -7.10742e-19)
(0.249828 0.0778338 -4.84702e-20)
(1.13925 0.336734 1.2693e-20)
(1.32718 0.399534 -1.22831e-20)
(1.35633 0.420486 -5.11309e-20)
(1.31488 0.423289 -5.26036e-20)
(1.25249 0.417847 1.76151e-21)
(1.18933 0.40983 -5.34535e-20)
(1.12558 0.398862 9.46751e-20)
(1.06106 0.383379 -1.68385e-19)
(0.996553 0.361551 0)
(0.941404 0.335104 -7.86051e-20)
(0.901804 0.309331 -1.62055e-21)
(0.874058 0.285768 -1.13205e-19)
(0.849978 0.262689 0)
(0.808672 0.236223 -8.10143e-20)
(0.712272 0.199619 -1.92843e-19)
(0.537235 0.147651 5.1659e-19)
(0.325815 0.0901258 -5.07525e-19)
(0.137869 0.0385157 7.22577e-19)
(0.0155289 0.00451548 -7.50819e-19)
(0.24397 0.0881052 -5.02518e-22)
(1.1346 0.390403 -9.16292e-21)
(1.3265 0.462018 -4.20749e-20)
(1.35447 0.484085 2.28417e-20)
(1.31099 0.483524 -2.68845e-20)
(1.24674 0.474114 0)
(1.1814 0.462391 -5.10331e-20)
(1.11507 0.447896 -9.94465e-20)
(1.04758 0.428838 -8.78673e-20)
(0.979623 0.403053 0)
(0.920944 0.372533 -8.18208e-20)
(0.87795 0.343301 -1.00487e-19)
(0.846735 0.317134 1.22619e-19)
(0.819759 0.292642 -7.41905e-20)
(0.779137 0.265469 -3.52802e-19)
(0.691331 0.227749 2.10885e-19)
(0.530431 0.172341 6.32134e-20)
(0.331425 0.108314 0)
(0.146759 0.0484994 -6.97514e-19)
(0.0186589 0.00635246 -2.55665e-20)
(0.239508 0.0979334 -3.67269e-21)
(1.12673 0.441356 6.9908e-21)
(1.32174 0.522307 2.11211e-20)
(1.34855 0.545402 7.79332e-20)
(1.30372 0.54186 -1.03379e-19)
(1.23826 0.528915 1.09643e-19)
(1.17127 0.513859 1.09623e-19)
(1.10278 0.49607 -1.58913e-19)
(1.0326 0.473503 5.3225e-20)
(0.96143 0.443663 -3.45796e-19)
(0.899451 0.409011 -9.20036e-20)
(0.853559 0.376463 0)
(0.819779 0.347969 1.32712e-19)
(0.791094 0.322301 1.58452e-19)
(0.751502 0.294509 1.89453e-19)
(0.669574 0.255341 -2.28341e-19)
(0.520662 0.196513 -6.7613e-20)
(0.331705 0.125732 7.95574e-20)
(0.150869 0.0576473 0)
(0.0205127 0.00798878 -5.53395e-20)
(0.236296 0.10744 1.6147e-20)
(1.1173 0.489685 -1.8233e-20)
(1.31412 0.580346 -2.07187e-20)
(1.33955 0.604107 5.00882e-20)
(1.29384 0.59798 -4.90623e-20)
(1.22768 0.581964 -4.08315e-21)
(1.15944 0.563961 -1.19135e-19)
(1.08908 0.543118 -5.7328e-20)
(1.01641 0.517126 -1.523e-19)
(0.942184 0.483273 2.58432e-22)
(0.877148 0.444582 -2.88526e-19)
(0.828777 0.408809 2.40845e-19)
(0.79313 0.378091 -1.45197e-19)
(0.763458 0.351034 1.73882e-19)
(0.724839 0.322096 0)
(0.647559 0.280866 -1.23334e-19)
(0.507792 0.218439 -6.09594e-22)
(0.326977 0.140901 -3.45368e-19)
(0.1502 0.0649178 -5.07749e-20)
(0.0210361 0.00915905 0)
(0.234221 0.116833 0)
(1.10732 0.535652 -1.5694e-20)
(1.3044 0.635497 -3.2656e-20)
(1.3283 0.660007 -4.86544e-20)
(1.28202 0.6517 -5.88527e-20)
(1.21554 0.633078 0)
(1.14633 0.612474 -5.57712e-20)
(1.0743 0.588807 -1.17245e-21)
(0.999308 0.559556 3.25974e-19)
(0.922166 0.521825 -4.76496e-20)
(0.854255 0.479227 -2.07982e-19)
(0.803723 0.440277 1.25565e-19)
(0.766664 0.407244 -2.08642e-21)
(0.73636 0.378536 1.84812e-19)
(0.698448 0.348087 1.13636e-19)
(0.624594 0.304315 -2.66031e-19)
(0.491921 0.2377 3.15743e-19)
(0.31732 0.153135 9.33614e-20)
(0.145647 0.0698435 3.85205e-19)
(0.020379 0.0097599 -1.03055e-18)
(0.233174 0.126249 -4.40511e-21)
(1.09744 0.579435 -1.82926e-22)
(1.29338 0.687876 5.0141e-21)
(1.31553 0.713059 4.35553e-20)
(1.26885 0.702905 0)
(1.20228 0.6821 -5.37047e-20)
(1.1323 0.659215 1.85149e-19)
(1.05878 0.632964 1.26063e-19)
(0.981597 0.600669 0)
(0.901648 0.559281 -6.82768e-19)
(0.830979 0.512912 5.61131e-19)
(0.778479 0.470768 0)
(0.740251 0.435245 1.68886e-19)
(0.709528 0.404609 -2.05684e-21)
(0.67211 0.372231 -3.62418e-19)
(0.600621 0.32537 1.42028e-19)
(0.472851 0.25372 0)
(0.303419 0.162031 5.02962e-19)
(0.137413 0.0723516 0)
(0.0186902 0.00977589 -4.864e-19)
(0.232935 0.135706 8.10776e-21)
(1.088 0.621184 7.93382e-21)
(1.28156 0.737491 7.07145e-21)
(1.3018 0.763267 0)
(1.25482 0.751564 -5.43194e-20)
(1.1883 0.728934 0)
(1.11768 0.704045 -1.85325e-19)
(1.04279 0.675458 -5.97777e-20)
(0.963554 0.640384 5.79265e-20)
(0.880888 0.595618 -3.37445e-19)
(0.807486 0.545629 5.81048e-20)
(0.753043 0.500228 0)
(0.713768 0.461997 -3.60472e-19)
(0.682692 0.4291 2.08447e-21)
(0.645563 0.394301 0)
(0.575519 0.343736 2.08556e-21)
(0.450924 0.266201 4.58257e-19)
(0.285707 0.167223 -4.34205e-19)
(0.126319 0.0725683 1.28e-19)
(0.0163566 0.00926803 0)
(0.233125 0.145057 0)
(1.07919 0.6609 1.4896e-20)
(1.26939 0.78444 1.96908e-21)
(1.28757 0.81068 -2.39095e-21)
(1.24031 0.797671 -2.1854e-20)
(1.17392 0.77352 -1.20051e-19)
(1.10276 0.74688 6.8563e-20)
(1.02662 0.716205 -6.93153e-20)
(0.945431 0.678641 2.56779e-19)
(0.860096 0.630821 -5.38523e-19)
(0.7839 0.577394 -3.58736e-21)
(0.727443 0.528669 -1.58845e-19)
(0.687097 0.487476 5.83763e-19)
(0.655681 0.451993 -2.44084e-21)
(0.618603 0.414291 -2.80297e-19)
(0.54914 0.359336 -5.01053e-19)
(0.426472 0.275175 0)
(0.264886 0.168852 0)
(0.113056 0.0704342 1.38198e-19)
(0.0136091 0.00829752 -8.093e-20)
(0.233946 0.154418 1.76293e-20)
(1.07107 0.69866 -3.97969e-20)
(1.25713 0.82882 -2.5479e-21)
(1.27317 0.855373 0)
(1.22565 0.841251 -1.61592e-21)
(1.15941 0.815831 -1.14255e-19)
(1.08778 0.787671 1.68473e-19)
(1.0105 0.75516 2.7595e-19)
(0.927451 0.715418 3.34338e-19)
(0.839472 0.664897 -4.4013e-19)
(0.760372 0.608258 -4.80439e-19)
(0.701708 0.556167 4.24569e-19)
(0.660178 0.511747 0)
(0.628355 0.473297 -1.27281e-19)
(0.591119 0.432172 -3.03059e-19)
(0.521534 0.372058 -3.59531e-19)
(0.399682 0.280415 -4.2711e-19)
(0.241656 0.166939 1.26338e-19)
(0.0982099 0.0660114 -7.43172e-20)
(0.0105341 0.00689823 2.95261e-22)
(0.23495 0.163616 0)
(1.06364 0.734809 0)
(1.24497 0.870725 2.66321e-21)
(1.25886 0.897439 0)
(1.21107 0.882367 5.90714e-20)
(1.14498 0.855882 8.11308e-20)
(1.07295 0.826405 0)
(0.994614 0.792305 3.32982e-20)
(0.909812 0.750702 5.58463e-19)
(0.819212 0.69786 -1.01047e-18)
(0.73706 0.638299 0)
(0.675923 0.582855 -2.72747e-19)
(0.632956 0.534931 -2.95031e-21)
(0.600577 0.493046 -2.3826e-21)
(0.563008 0.447869 3.23634e-19)
(0.492725 0.381739 -3.62936e-22)
(0.370657 0.281817 -9.18889e-19)
(0.216366 0.161437 2.71702e-19)
(0.0828079 0.0598203 8.02979e-20)
(0.00747081 0.00525185 0)
(0.235949 0.172686 -8.66796e-20)
(1.05661 0.769338 -3.6189e-20)
(1.23299 0.910219 -3.18836e-20)
(1.24482 0.936982 -1.68812e-20)
(1.19676 0.921074 8.8263e-20)
(1.1308 0.893703 0)
(1.05842 0.863097 1.03628e-19)
(0.979137 0.827648 -7.34827e-20)
(0.892679 0.7845 3.92131e-21)
(0.799497 0.729736 7.40698e-20)
(0.714128 0.667596 6.20998e-19)
(0.650176 0.608898 -9.57443e-20)
(0.60537 0.557211 -3.58876e-19)
(0.572164 0.511303 -1.48003e-19)
(0.534096 0.461212 1.75935e-19)
(0.462794 0.388046 -1.84041e-22)
(0.340329 0.279227 2.47651e-19)
(0.190391 0.152803 -5.84255e-19)
(0.0675714 0.0523387 6.90813e-19)
(0.00457923 0.003493 1.00703e-19)
(0.23672 0.181508 3.52771e-20)
(1.04998 0.802315 -2.20943e-20)
(1.22131 0.947425 6.27786e-21)
(1.23116 0.97413 3.62852e-21)
(1.18283 0.95747 -1.18909e-20)
(1.11701 0.929344 -1.44158e-19)
(1.04433 0.897778 3.14076e-20)
(0.964197 0.8612 -3.06916e-19)
(0.876198 0.816808 -6.15891e-19)
(0.780477 0.760526 -6.01972e-19)
(0.691742 0.696216 0)
(0.624564 0.634464 -4.18557e-19)
(0.577401 0.578851 5.16089e-19)
(0.542874 0.528197 0)
(0.504078 0.471954 -3.7644e-19)
(0.431755 0.390439 2.25186e-19)
(0.309347 0.272346 -2.65975e-19)
(0.164936 0.141397 -3.14461e-19)
(0.053411 0.0441352 -5.56361e-19)
(0.0020346 0.00176672 -4.33745e-19)
(0.237788 0.190171 -4.21648e-20)
(1.04357 0.833702 2.36849e-20)
(1.20997 0.982404 5.0216e-20)
(1.21796 1.00897 1.41592e-20)
(1.16938 0.991639 2.88612e-20)
(1.10368 0.962877 -8.13566e-20)
(1.03078 0.93049 1.03478e-19)
(0.949892 0.892998 -3.16439e-19)
(0.860464 0.847645 -3.6452e-19)
(0.762284 0.79024 6.29739e-19)
(0.670045 0.72421 1.36116e-18)
(0.599235 0.659712 0)
(0.54909 0.600156 0)
(0.512417 0.544026 -1.70228e-19)
(0.472373 0.479876 0)
(0.39935 0.387987 4.84585e-19)
(0.278642 0.260348 5.72449e-19)
(0.141851 0.127302 0)
(0.0416044 0.0358 0)
(-2.69725e-06 0.000226285 4.66134e-19)
(0.23847 0.198334 5.05888e-20)
(1.03739 0.863478 4.03003e-20)
(1.19902 1.01527 3.78023e-20)
(1.20526 1.04163 -2.45396e-20)
(1.15647 1.02368 2.29819e-20)
(1.0909 0.994368 8.86702e-20)
(1.01783 0.961288 -1.42514e-19)
(0.936294 0.923069 1.62049e-22)
(0.845563 0.877013 -5.09344e-21)
(0.74502 0.818869 -5.55735e-21)
(0.649208 0.751617 7.004e-19)
(0.574363 0.684763 0)
(0.520547 0.621435 5.2034e-19)
(0.480557 0.559279 3.62718e-19)
(0.438087 0.485105 8.77761e-19)
(0.36459 0.379496 2.60647e-19)
(0.248983 0.240987 -3.08664e-19)
(0.124805 0.108541 -1.81244e-19)
(0.0366702 0.0265893 0)
(-0.000524079 -0.000910082 5.00823e-19)
(0.239443 0.206486 -1.194e-19)
(1.03139 0.891805 0)
(1.18842 1.04606 5.03769e-20)
(1.19307 1.0722 -2.51599e-20)
(1.14413 1.05368 -1.23706e-20)
(1.07869 1.0239 -1.03349e-19)
(1.00553 0.990227 2.81087e-19)
(0.923448 0.95145 -2.57132e-20)
(0.831542 0.904922 0)
(0.728773 0.846379 -6.94692e-19)
(0.62939 0.778443 -1.52122e-18)
(0.550146 0.709718 6.16254e-20)
(0.491988 0.642938 7.15125e-19)
(0.44723 0.574572 0)
(0.400182 0.488486 5.91342e-19)
(0.325065 0.364448 0)
(0.218258 0.210009 0)
(0.117736 0.0732468 -1.9638e-19)
(0.0613118 0.0028965 0)
(0.0252878 0.00599428 1.34197e-19)
(0.239944 0.214021 -1.3805e-19)
(1.02554 0.918837 0)
(1.17817 1.07499 8.86243e-20)
(1.18135 1.1009 0)
(1.13233 1.0819 1.37848e-21)
(1.067 1.05176 0)
(0.993821 1.01762 1.47079e-20)
(0.911268 0.978484 4.34362e-20)
(0.818293 0.931747 4.54925e-20)
(0.713393 0.873161 -7.62007e-19)
(0.610451 0.805142 4.58123e-20)
(0.52639 0.735174 4.93945e-19)
(0.463116 0.665299 6.96571e-19)
(0.411812 0.590768 9.36657e-20)
(0.357071 0.49198 4.62482e-19)
(0.276369 0.344643 0)
(0.175985 0.166484 6.51759e-19)
(0.0924968 0.0181886 -3.81778e-19)
(0.0329299 0.0569306 4.4216e-19)
(-0.0382153 0.448609 -5.26877e-19)
(0.240359 0.221362 1.17037e-19)
(1.01964 0.944485 1.74212e-19)
(1.16817 1.10238 0)
(1.16994 1.12817 5.41344e-21)
(1.12087 1.10892 7.28713e-21)
(1.05558 1.07863 1.43021e-19)
(0.982405 1.04428 9.97894e-20)
(0.899363 1.00513 0)
(0.805306 0.958603 3.04145e-19)
(0.698219 0.900532 -4.00658e-20)
(0.591494 0.833206 0)
(0.501933 0.76291 0)
(0.432382 0.69029 6.22023e-19)
(0.37249 0.609161 -2.88647e-19)
(0.306111 0.498357 -4.6677e-19)
(0.214485 0.325119 0)
(0.0990258 0.159464 3.27844e-19)
(0.00923038 0.462009 -3.80438e-19)
(0.0337918 1.9108 -2.13931e-19)
(0.060885 2.81625 -2.69031e-19)
(0.240369 0.2281 -9.10907e-20)
(1.01371 0.968918 -2.29551e-19)
(1.15844 1.1282 5.62452e-20)
(1.15885 1.15387 3.74148e-20)
(1.10981 1.13454 0)
(1.04451 1.10425 8.71423e-20)
(0.971485 1.06989 1.39592e-19)
(0.88792 1.03096 -2.12116e-20)
(0.79285 0.984967 4.51403e-20)
(0.68363 0.927874 7.26267e-19)
(0.573138 0.861939 7.66954e-19)
(0.477767 0.792595 5.50868e-19)
(0.400817 0.717666 6.23536e-19)
(0.331161 0.628441 -6.73974e-19)
(0.254281 0.510355 -7.02029e-19)
(0.137988 0.359603 0)
(0.047087 0.866321 0)
(0.0945581 2.57013 1.8285e-19)
(0.0967742 3.20405 0)
(0.097561 3.38645 4.48517e-19)
(0.243073 0.234316 0)
(1.00797 0.992467 0)
(1.14868 1.15232 0)
(1.14783 1.17782 1.30637e-20)
(1.09886 1.15852 1.15975e-20)
(1.03357 1.12846 4.86766e-20)
(0.960983 1.09435 9.07732e-20)
(0.87687 1.05584 -2.08089e-20)
(0.780863 1.01067 3.81463e-19)
(0.669621 0.955024 -1.00105e-20)
(0.555478 0.89113 1.51407e-18)
(0.454327 0.82427 -6.31888e-20)
(0.368642 0.747909 7.55665e-20)
(0.290258 0.646338 9.72239e-20)
(0.193855 0.531269 -9.96572e-22)
(0.104191 1.00681 1.61554e-21)
(0.134842 2.74152 -9.46696e-19)
(0.14062 3.29732 -3.58879e-19)
(0.129379 3.42452 1.8918e-19)
(0.116868 3.44486 -2.12033e-19)
(0.165394 0.179119 5.60882e-20)
(0.998404 1.01799 0)
(1.13881 1.17502 -1.23792e-19)
(1.13721 1.20028 -1.12387e-19)
(1.08846 1.18136 5.58529e-20)
(1.02342 1.15172 -4.52014e-20)
(0.950687 1.11769 -9.47378e-20)
(0.866252 1.0798 2.38135e-19)
(0.769466 1.03572 -3.13502e-19)
(0.656455 0.982028 0)
(0.538834 0.920792 7.44686e-19)
(0.432202 0.857745 -4.48274e-19)
(0.336386 0.783769 0)
(0.244189 0.66858 9.05653e-20)
(0.147982 0.837709 2.20283e-19)
(0.149256 2.53365 -2.57017e-19)
(0.200767 3.33004 2.90972e-19)
(0.181233 3.43867 1.60149e-19)
(0.14942 3.45728 1.8275e-19)
(0.128865 3.46575 2.98688e-19)
(0.278801 0.273662 -1.05662e-19)
(0.982349 1.02927 0)
(1.12132 1.2011 1.40732e-19)
(1.12275 1.23352 1.37983e-19)
(1.0722 1.21544 -8.06906e-20)
(1.00668 1.18644 1.84715e-20)
(0.932918 1.15384 9.83197e-20)
(0.847806 1.11714 1.8463e-20)
(0.749599 1.07515 3.01446e-19)
(0.633727 1.02524 6.30196e-19)
(0.510915 0.969749 4.22634e-20)
(0.395837 0.914485 3.97901e-19)
(0.280842 0.846214 7.08898e-20)
(0.212395 1.01285 -8.86905e-20)
(0.218975 2.40076 -2.0267e-19)
(0.270528 3.33803 2.0219e-19)
(0.254251 3.46893 -2.29435e-19)
(0.218846 3.48668 -1.34493e-19)
(0.184046 3.51016 -1.22699e-19)
(0.138254 3.50325 -1.43572e-20)
(0.269236 0.272759 0)
(0.980142 1.05262 4.46279e-20)
(1.11336 1.22485 -3.03221e-20)
(1.11267 1.25706 -1.78274e-20)
(1.06181 1.2389 -6.39354e-20)
(0.996404 1.21023 -1.16096e-20)
(0.922344 1.17791 -5.43592e-20)
(0.837046 1.14204 1.67148e-20)
(0.738359 1.10147 -3.15358e-19)
(0.621289 1.05431 -1.47116e-20)
(0.495968 1.00333 -1.34847e-18)
(0.376668 0.953305 5.65407e-20)
(0.270373 0.921642 -6.68855e-20)
(0.248005 1.56844 -8.25098e-20)
(0.308369 3.13737 1.74221e-20)
(0.324251 3.47314 2.06067e-21)
(0.282178 3.52077 3.55555e-19)
(0.247318 3.54128 1.84812e-19)
(0.201001 3.56036 -6.63626e-20)
(0.150178 3.55515 -7.60821e-20)
(0.25515 0.270857 1.17122e-19)
(0.977054 1.0786 3.08369e-19)
(1.10503 1.25069 -8.78713e-20)
(1.10215 1.28212 -6.76708e-20)
(1.05106 1.26385 0)
(0.985789 1.23529 1.90238e-20)
(0.911669 1.20327 -6.26852e-20)
(0.826442 1.16816 1.4854e-20)
(0.727589 1.1291 -3.48789e-20)
(0.609847 1.08491 -5.7371e-19)
(0.482862 1.03889 -6.23914e-19)
(0.360631 0.995264 -4.66865e-19)
(0.274616 1.06293 -5.04566e-19)
(0.310638 2.2909 5.16242e-19)
(0.387446 3.39855 4.4424e-19)
(0.362805 3.5325 0)
(0.313348 3.56702 0)
(0.276277 3.59947 -5.41859e-20)
(0.229992 3.64481 0)
(0.160041 3.62607 -8.87017e-20)
(0.245112 0.272825 -1.79884e-19)
(0.971978 1.10548 -2.67672e-19)
(1.09535 1.27781 0)
(1.09047 1.30811 6.50907e-21)
(1.03917 1.28948 -8.44721e-20)
(0.974149 1.26092 5.44556e-20)
(0.900273 1.2292 -3.05827e-20)
(0.815338 1.19476 9.6e-21)
(0.716569 1.15715 -2.2713e-19)
(0.598565 1.1159 2.91207e-20)
(0.470709 1.075 0)
(0.350203 1.04199 0)
(0.302212 1.3382 -4.61101e-19)
(0.386518 2.95662 1.87171e-19)
(0.452725 3.50266 2.46685e-19)
(0.400852 3.56814 0)
(0.358256 3.62203 -4.4666e-20)
(0.315636 3.66762 6.00172e-21)
(0.265886 3.63268 -6.01207e-20)
(0.172364 3.61022 2.13899e-21)