/*--------------------------------*- C++ -*----------------------------------*\
  =========                 |
  \\      /  F ield         | OpenFOAM: The Open Source CFD Toolbox
   \\    /   O peration     | Website:  https://openfoam.org
    \\  /    A nd           | Version:  6
     \\/     M anipulation  |
\*---------------------------------------------------------------------------*/
FoamFile
{
    version     2.0;
    format      ascii;
    class       volVectorField;
    location    "82.6";
    object      U;
}
// * * * * * * * * * * * * * * * * * * * * * * * * * * * * * * * * * * * * * //

dimensions      [0 1 -1 0 0 0 0];

internalField   nonuniform List<vector> 
8800
(
(0.987184 -0.0766655 0)
(1.00189 -0.0551904 0)
(0.999724 -0.0285483 0)
(1.00003 -0.015143 0)
(1.0001 -0.00854353 0)
(1.00012 -0.00504481 0)
(1.00008 -0.00299913 0)
(1.00003 -0.001699 0)
(0.999994 -0.000793107 0)
(1.00006 -7.79261e-05 0)
(0.999962 0.000653594 0)
(0.999985 0.00142275 0)
(1.00004 0.00243743 0)
(1.00006 0.0040034 0)
(1.00005 0.00663552 0)
(1.00004 0.0113739 0)
(0.999932 0.0208166 0)
(0.999164 0.0386714 0)
(1.0071 0.0724576 0)
(0.771214 0.0366615 0)
(0.363074 -0.0160169 0)
(1.04332 -0.0768143 0)
(1.0846 -0.0704443 0)
(1.04519 -0.053539 0)
(1.02329 -0.0388897 0)
(1.01203 -0.0262109 0)
(1.00643 -0.0168483 0)
(1.00359 -0.0103154 0)
(1.00215 -0.00565373 0)
(1.00144 -0.00199297 0)
(1.00129 0.00132989 0)
(1.00165 0.00471625 0)
(1.00266 0.00864746 0)
(1.00467 0.01397 0)
(1.0086 0.0216763 0)
(1.01656 0.0326437 0)
(1.03249 0.0465556 0)
(1.06266 0.0616714 0)
(1.09187 0.0761034 0)
(0.838667 0.0565632 0)
(0.216857 -0.00242928 0)
(1.07591 -0.0501304 0)
(1.09988 -0.0483026 0)
(1.06465 -0.0404528 0)
(1.04004 -0.0335914 0)
(1.02392 -0.0260659 0)
(1.01412 -0.0184787 0)
(1.00856 -0.011654 0)
(1.00558 -0.00578055 0)
(1.00431 -0.000357952 0)
(1.00464 0.00489112 0)
(1.00658 0.0102852 0)
(1.01062 0.0163636 0)
(1.01794 0.0233773 0)
(1.03052 0.0308404 0)
(1.05061 0.0378665 0)
(1.08035 0.0445473 0)
(1.10626 0.0513585 0)
(0.942508 0.0416241 0)
(0.216131 0.00246241 0)
(0.175193 -0.000815866 0)
(1.01772 -0.0354758 0)
(1.10521 -0.0413652 0)
(1.07827 -0.0360448 0)
(1.05348 -0.0301049 0)
(1.03622 -0.0245228 0)
(1.02401 -0.0187873 0)
(1.01589 -0.0126992 0)
(1.01101 -0.00650292 0)
(1.00879 -0.00016122 0)
(1.00935 0.00609799 0)
(1.01263 0.0120988 0)
(1.01888 0.0179146 0)
(1.02876 0.0234758 0)
(1.04318 0.0287733 0)
(1.0637 0.0342504 0)
(1.09355 0.0402304 0)
(1.09339 0.0419854 0)
(0.827083 0.0229246 0)
(0.173969 0.00085412 0)
(0.154004 -0.000609632 0)
(0.956249 -0.0254451 0)
(1.10349 -0.0351047 0)
(1.0877 -0.0326205 0)
(1.06174 -0.0279597 0)
(1.04413 -0.0229266 0)
(1.03166 -0.0176692 0)
(1.0228 -0.012126 0)
(1.01697 -0.00617792 0)
(1.0141 0.000300865 0)
(1.01475 0.00676736 0)
(1.01874 0.012653 0)
(1.0258 0.0179228 0)
(1.03608 0.0228227 0)
(1.05062 0.0275764 0)
(1.07186 0.0320982 0)
(1.10005 0.0360248 0)
(1.06802 0.0340701 0)
(0.739401 0.0143304 0)
(0.152158 0.000653061 0)
(0.13965 -0.000465685 0)
(0.899405 -0.0190572 0)
(1.09585 -0.0300429 0)
(1.09578 -0.0291397 0)
(1.06929 -0.0253969 0)
(1.05085 -0.0212447 0)
(1.03792 -0.0164573 0)
(1.02879 -0.0111545 0)
(1.02265 -0.00539439 0)
(1.01949 0.000946209 0)
(1.02008 0.00726475 0)
(1.02418 0.0128993 0)
(1.03136 0.0178316 0)
(1.04184 0.0222766 0)
(1.05695 0.0262359 0)
(1.07915 0.0296859 0)
(1.10223 0.0323002 0)
(1.03585 0.0281761 0)
(0.67273 0.0102346 0)
(0.13704 0.000515766 0)
(0.129133 -0.000360047 0)
(0.849899 -0.0146874 0)
(1.08351 -0.0258949 0)
(1.10149 -0.0261683 0)
(1.07617 -0.022867 0)
(1.0572 -0.0192061 0)
(1.0438 -0.0149409 0)
(1.03432 -0.00999581 0)
(1.02793 -0.00444172 0)
(1.02457 0.00172357 0)
(1.025 0.00783119 0)
(1.02906 0.0131901 0)
(1.03634 0.0177034 0)
(1.04709 0.0215399 0)
(1.0626 0.0248324 0)
(1.08523 0.0277587 0)
(1.10128 0.0294968 0)
(1.00082 0.0236823 0)
(0.620752 0.00787841 0)
(0.125592 0.00041895 0)
(0.121121 -0.000279072 0)
(0.807874 -0.0115208 0)
(1.06832 -0.0222662 0)
(1.10507 -0.0235048 0)
(1.08246 -0.0206116 0)
(1.06307 -0.0171606 0)
(1.0494 -0.0131974 0)
(1.03963 -0.00858383 0)
(1.03295 -0.00329544 0)
(1.02932 0.00265578 0)
(1.02956 0.00851727 0)
(1.03356 0.0135289 0)
(1.0409 0.0175623 0)
(1.05174 0.0208878 0)
(1.06746 0.0237672 0)
(1.09042 0.0263901 0)
(1.09742 0.0272251 0)
(0.965372 0.0201688 0)
(0.578906 0.00635376 0)
(0.116449 0.000349119 0)
(0.114927 -0.000215496 0)
(0.772556 -0.00914789 0)
(1.05166 -0.0190656 0)
(1.10751 -0.0210325 0)
(1.08837 -0.0185037 0)
(1.0686 -0.0151913 0)
(1.05468 -0.0113831 0)
(1.04471 -0.00697234 0)
(1.03777 -0.0019174 0)
(1.03385 0.00378722 0)
(1.03385 0.00935203 0)
(1.03772 0.0139873 0)
(1.04498 0.017591 0)
(1.0558 0.020526 0)
(1.07171 0.0230771 0)
(1.09432 0.025349 0)
(1.09069 0.0253601 0)
(0.930804 0.0174716 0)
(0.544166 0.00531858 0)
(0.10888 0.000299262 0)
(0.110119 -0.00016418 0)
(0.743009 -0.00730147 0)
(1.03463 -0.0162218 0)
(1.10903 -0.0186941 0)
(1.09401 -0.0164636 0)
(1.07395 -0.0132359 0)
(1.05976 -0.00950907 0)
(1.04959 -0.00521055 0)
(1.04242 -0.000319874 0)
(1.03819 0.00515043 0)
(1.03787 0.010405 0)
(1.0415 0.0146801 0)
(1.0486 0.0179001 0)
(1.05937 0.0204866 0)
(1.07547 0.0227438 0)
(1.09691 0.0246314 0)
(1.08147 0.0238578 0)
(0.897662 0.0154415 0)
(0.51447 0.00460391 0)
(0.102402 0.000264679 0)
(0.106414 -0.000121333 0)
(0.71842 -0.00580711 0)
(1.01804 -0.0136625 0)
(1.10975 -0.0164255 0)
(1.09956 -0.0144578 0)
(1.07924 -0.0112332 0)
(1.06476 -0.00752649 0)
(1.05435 -0.00327901 0)
(1.04691 0.00150699 0)
(1.04233 0.00678569 0)
(1.04161 0.011755 0)
(1.04492 0.015696 0)
(1.05182 0.0185514 0)
(1.0625 0.0208007 0)
(1.07877 0.0227842 0)
(1.09813 0.0242523 0)
(1.07012 0.0227202 0)
(0.866039 0.0139628 0)
(0.488351 0.00411981 0)
(0.0966692 0.000242379 0)
(0.103627 -8.3972e-05 0)
(0.698155 -0.00454845 0)
(1.00252 -0.0113195 0)
(1.10983 -0.0141891 0)
(1.10498 -0.0123985 0)
(1.08455 -0.00912727 0)
(1.06975 -0.00537993 0)
(1.05907 -0.00112175 0)
(1.0513 0.00361987 0)
(1.04629 0.00875834 0)
(1.04508 0.0134741 0)
(1.048 0.017096 0)
(1.05465 0.0195897 0)
(1.06522 0.0215075 0)
(1.0816 0.0232248 0)
(1.09828 0.0243234 0)
(1.0569 0.0219604 0)
(0.835747 0.0129501 0)
(0.464701 0.00381147 0)
(0.0914192 0.000229957 0)
(0.10164 -4.93921e-05 0)
(0.681751 -0.00343813 0)
(0.988533 -0.00912121 0)
(1.10949 -0.011897 0)
(1.11025 -0.0102037 0)
(1.08997 -0.00685824 0)
(1.07481 -0.00300893 0)
(1.0638 0.00132728 0)
(1.05563 0.00608646 0)
(1.05009 0.0111392 0)
(1.0483 0.0156381 0)
(1.05076 0.0189555 0)
(1.05709 0.0210877 0)
(1.06752 0.0226696 0)
(1.08393 0.0240997 0)
(1.09747 0.0247657 0)
(1.04191 0.0215888 0)
(0.806418 0.0123307 0)
(0.442639 0.00364127 0)
(0.0864435 0.000225374 0)
(0.100395 -1.53276e-05 0)
(0.668917 -0.00240649 0)
(0.976442 -0.00699212 0)
(1.10906 -0.0094913 0)
(1.11551 -0.00781237 0)
(1.09557 -0.00434755 0)
(1.08002 -0.000328239 0)
(1.06862 0.00415571 0)
(1.05996 0.00899872 0)
(1.05378 0.0140161 0)
(1.05129 0.0183236 0)
(1.05319 0.0213465 0)
(1.05914 0.023107 0)
(1.06939 0.0243471 0)
(1.08578 0.0254893 0)
(1.09538 0.0256574 0)
(1.0252 0.0216073 0)
(0.777591 0.0120548 0)
(0.421448 0.00358414 0)
(0.0815762 0.000227262 0)
(0.0998812 2.10012e-05 0)
(0.659508 -0.00139778 0)
(0.966567 -0.00485933 0)
(1.10888 -0.00691099 0)
(1.1209 -0.00514956 0)
(1.10144 -0.00150595 0)
(1.08548 0.00275285 0)
(1.07361 0.00745838 0)
(1.06435 0.0124594 0)
(1.0574 0.017501 0)
(1.05407 0.0216484 0)
(1.05528 0.0243829 0)
(1.0608 0.0257703 0)
(1.07083 0.0266469 0)
(1.0871 0.027458 0)
(1.09193 0.0270402 0)
(1.00669 0.0220549 0)
(0.748746 0.012097 0)
(0.400517 0.00362675 0)
(0.0766784 0.000234929 0)
(0.100115 5.29857e-05 0)
(0.653509 -0.000356336 0)
(0.959215 -0.00264764 0)
(1.10928 -0.00408692 0)
(1.12659 -0.00213252 0)
(1.1077 0.00176212 0)
(1.09127 0.00634172 0)
(1.07884 0.0113517 0)
(1.06887 0.016587 0)
(1.06098 0.0217173 0)
(1.05663 0.0257348 0)
(1.05703 0.0281774 0)
(1.06203 0.0291889 0)
(1.07179 0.0296779 0)
(1.08759 0.0301124 0)
(1.08678 0.0289918 0)
(0.986147 0.0229667 0)
(0.719291 0.0124435 0)
(0.379284 0.00375991 0)
(0.0716246 0.000247658 0)
(0.101178 0.000105338 0)
(0.65105 0.000762697 0)
(0.954708 -0.000278657 0)
(1.11065 -0.000937578 0)
(1.13279 0.00134353 0)
(1.11446 0.00558573 0)
(1.09751 0.0105796 0)
(1.08442 0.0159865 0)
(1.07357 0.021541 0)
(1.06455 0.0268153 0)
(1.05898 0.0307249 0)
(1.05842 0.0328672 0)
(1.0628 0.0334912 0)
(1.07221 0.0335662 0)
(1.08712 0.0335775 0)
(1.0797 0.0315879 0)
(0.963235 0.0243823 0)
(0.688574 0.013083 0)
(0.35722 0.00397484 0)
(0.0663052 0.000264481 0)
(0.103219 0.000158705 0)
(0.652403 0.00188822 0)
(0.953403 0.00233028 0)
(1.11345 0.00263744 0)
(1.1397 0.00538131 0)
(1.12187 0.0100972 0)
(1.10433 0.0156131 0)
(1.09043 0.0215257 0)
(1.07852 0.027494 0)
(1.06814 0.0329793 0)
(1.06111 0.0367999 0)
(1.05943 0.0386001 0)
(1.06306 0.0388291 0)
(1.07204 0.0384576 0)
(1.08544 0.0379624 0)
(1.07037 0.0349358 0)
(0.937465 0.0263416 0)
(0.65589 0.0140095 0)
(0.333832 0.00426292 0)
(0.0606273 0.000284426 0)
(0.10633 0.000222905 0)
(0.658105 0.0033615 0)
(0.95571 0.00525872 0)
(1.11813 0.00678801 0)
(1.14757 0.0101417 0)
(1.13011 0.015484 0)
(1.11189 0.0216557 0)
(1.09701 0.028196 0)
(1.0838 0.034675 0)
(1.07176 0.0404226 0)
(1.06302 0.0441438 0)
(1.06002 0.0455791 0)
(1.06276 0.0453782 0)
(1.07123 0.044517 0)
(1.08249 0.0434616 0)
(1.05835 0.039145 0)
(0.908189 0.0288882 0)
(0.620475 0.0152089 0)
(0.308658 0.00461122 0)
(0.0545188 0.000305963 0)
(0.1108 0.000309108 0)
(0.66853 0.00508592 0)
(0.962203 0.00876109 0)
(1.12522 0.0116688 0)
(1.15673 0.0158331 0)
(1.13942 0.0219937 0)
(1.12035 0.0289728 0)
(1.10426 0.0362755 0)
(1.08946 0.0433589 0)
(1.07543 0.0493976 0)
(1.06465 0.0529814 0)
(1.0601 0.0540051 0)
(1.06183 0.0533313 0)
(1.06969 0.0519175 0)
(1.07824 0.050185 0)
(1.04304 0.0443212 0)
(0.87458 0.0320281 0)
(0.581514 0.0166439 0)
(0.281293 0.00499679 0)
(0.0479379 0.000326708 0)
(0.116983 0.000423113 0)
(0.684471 0.00723765 0)
(0.973528 0.0129904 0)
(1.13528 0.0175053 0)
(1.16751 0.0227016 0)
(1.15006 0.0299315 0)
(1.12993 0.0378991 0)
(1.11232 0.0461089 0)
(1.09553 0.0538751 0)
(1.0791 0.060207 0)
(1.06596 0.0635782 0)
(1.05953 0.0640698 0)
(1.06022 0.0628894 0)
(1.06746 0.060865 0)
(1.0724 0.0583287 0)
(1.02365 0.0505452 0)
(0.835635 0.035738 0)
(0.538201 0.0182449 0)
(0.251457 0.00538449 0)
(0.0408933 0.000343487 0)
(0.125404 0.000584666 0)
(0.706891 0.0100501 0)
(0.990542 0.0182526 0)
(1.14897 0.0246489 0)
(1.18044 0.0311555 0)
(1.16237 0.0397714 0)
(1.14083 0.0489342 0)
(1.12126 0.0581823 0)
(1.10201 0.066657 0)
(1.0827 0.0731822 0)
(1.06682 0.076174 0)
(1.05831 0.0760009 0)
(1.05786 0.0742412 0)
(1.06435 0.0715041 0)
(1.06444 0.0679173 0)
(0.999138 0.0578537 0)
(0.790172 0.039905 0)
(0.489802 0.0198854 0)
(0.219063 0.00572223 0)
(0.0334596 0.000352352 0)
(0.136809 0.000815529 0)
(0.737116 0.0139078 0)
(1.01441 0.0250173 0)
(1.16709 0.0336454 0)
(1.19614 0.0417934 0)
(1.17672 0.0521907 0)
(1.15324 0.0627532 0)
(1.13112 0.0731094 0)
(1.10878 0.0821984 0)
(1.08606 0.0886918 0)
(1.06709 0.0910393 0)
(1.05634 0.0900196 0)
(1.05473 0.0876332 0)
(1.05996 0.0840329 0)
(1.05358 0.0791598 0)
(0.968139 0.0661455 0)
(0.736908 0.044302 0)
(0.435837 0.021364 0)
(0.184348 0.00594024 0)
(0.0257997 0.000348733 0)
(0.152496 0.00118215 0)
(0.777174 0.0194394 0)
(1.04679 0.034078 0)
(1.1906 0.0454374 0)
(1.21548 0.0558914 0)
(1.19346 0.0682327 0)
(1.16724 0.080322 0)
(1.14173 0.0916837 0)
(1.11559 0.101082 0)
(1.08892 0.107112 0)
(1.06656 0.108402 0)
(1.05346 0.10627 0)
(1.05072 0.103162 0)
(1.05412 0.0987684 0)
(1.03881 0.0920177 0)
(0.928884 0.0751516 0)
(0.674617 0.0485174 0)
(0.376327 0.0224026 0)
(0.148 0.00595934 0)
(0.0181752 0.000328616 0)
(0.174684 0.00181443 0)
(0.830292 0.0277917 0)
(1.09047 0.0469969 0)
(1.22061 0.0619087 0)
(1.23891 0.0752657 0)
(1.21269 0.0895717 0)
(1.18254 0.103006 0)
(1.15265 0.114879 0)
(1.12198 0.123915 0)
(1.0909 0.128759 0)
(1.06496 0.128415 0)
(1.0495 0.124846 0)
(1.04566 0.120839 0)
(1.04677 0.115437 0)
(1.01862 0.106297 0)
(0.879185 0.0843152 0)
(0.602532 0.0519458 0)
(0.312236 0.0226735 0)
(0.111296 0.00570715 0)
(0.0109459 0.000288708 0)
(0.20679 0.00320802 0)
(0.902278 0.041648 0)
(1.14872 0.0676224 0)
(1.25748 0.086619 0)
(1.26627 0.10288 0)
(1.23377 0.11861 0)
(1.19831 0.132437 0)
(1.16307 0.14368 0)
(1.12725 0.151218 0)
(1.09148 0.153871 0)
(1.06198 0.151163 0)
(1.04428 0.145753 0)
(1.03942 0.140655 0)
(1.03718 0.134104 0)
(0.990789 0.121475 0)
(0.816531 0.0926471 0)
(0.521238 0.0538239 0)
(0.246222 0.0219516 0)
(0.0763102 0.00516237 0)
(0.00460303 0.000226084 0)
(0.250591 0.00954 9.01822e-21)
(0.997012 0.0690885 7.74509e-21)
(1.21916 0.102655 -2.71001e-21)
(1.29821 0.123346 0)
(1.29459 0.142416 -6.96327e-35)
(1.25445 0.157707 1.0196e-21)
(1.21294 0.170112 -1.84769e-21)
(1.17188 0.179275 0)
(1.13065 0.184244 3.83191e-35)
(1.08997 0.183932 -2.31933e-21)
(1.05673 0.17844 0)
(1.03681 0.171141 -2.77899e-21)
(1.03148 0.165349 -8.21968e-21)
(1.02361 0.158146 -3.8977e-21)
(0.950075 0.139751 -1.17563e-21)
(0.733654 0.100763 -6.98754e-22)
(0.425813 0.0540435 0)
(0.177529 0.0205298 4.89079e-22)
(0.0432302 0.00449818 5.79201e-22)
(-0.000898717 0.000120975 1.05871e-20)
(0.281033 0.0250523 6.30101e-21)
(1.07559 0.112486 1.14899e-22)
(1.27723 0.152568 7.08147e-22)
(1.33504 0.173198 0)
(1.31956 0.192407 -3.47474e-21)
(1.27238 0.205604 -3.96575e-21)
(1.22494 0.215779 -1.84857e-21)
(1.17809 0.222583 -6.6187e-21)
(1.13133 0.225 0)
(1.08552 0.221899 9.81024e-21)
(1.04834 0.213863 9.76494e-21)
(1.02599 0.204867 2.90461e-21)
(1.01796 0.197657 1.06548e-20)
(0.997969 0.187641 1.50537e-20)
(0.883587 0.159821 0)
(0.61869 0.107732 2.12388e-20)
(0.314317 0.0531171 3.04658e-20)
(0.107467 0.0181228 3.38994e-20)
(0.0112885 0.00267199 -3.88835e-20)
(-0.00604042 -0.00046484 -7.41814e-22)
(0.282658 0.04237 0)
(1.12597 0.168566 1.0129e-21)
(1.31696 0.213593 0)
(1.36394 0.233905 -4.33343e-21)
(1.33938 0.250215 0)
(1.28629 0.259504 -7.67649e-21)
(1.2333 0.265949 3.74203e-21)
(1.181 0.269217 -1.32028e-20)
(1.12905 0.268168 -3.24989e-22)
(1.07852 0.261575 5.0356e-21)
(1.0378 0.250521 2.1397e-20)
(1.01338 0.239575 -3.07313e-23)
(1.0023 0.230574 -7.71956e-21)
(0.969279 0.21671 -1.40825e-20)
(0.82086 0.178163 1.67015e-20)
(0.531214 0.112896 -2.95677e-20)
(0.244893 0.0517589 -3.89615e-21)
(0.0681064 0.015554 0)
(-0.00598503 0.000309945 -3.72119e-24)
(-0.00876016 -0.00120689 0)
(0.27602 0.0568829 1.1349e-20)
(1.15361 0.228353 -5.78819e-21)
(1.34192 0.279226 -4.78917e-21)
(1.38331 0.299896 1.98622e-21)
(1.35253 0.31231 -3.34508e-21)
(1.29505 0.317013 1.59512e-20)
(1.23754 0.318985 7.74e-21)
(1.18058 0.317983 0)
(1.1241 0.312807 -2.49744e-20)
(1.06938 0.302137 0)
(1.0256 0.28764 -1.11466e-20)
(0.999351 0.274406 -1.38552e-20)
(0.985237 0.263196 -8.36128e-21)
(0.940439 0.244354 -1.01832e-20)
(0.767678 0.19518 0)
(0.470009 0.118501 0)
(0.202044 0.051979 -2.5237e-20)
(0.0430113 0.013256 4.98256e-21)
(-0.0183429 -0.00247475 -2.9351e-21)
(-0.0110163 -0.00210543 -3.4771e-21)
(0.267953 0.0695776 -2.91114e-21)
(1.166 0.287997 0)
(1.3559 0.345803 8.8852e-21)
(1.39416 0.367246 5.35052e-21)
(1.35911 0.375743 7.82019e-21)
(1.29845 0.375836 0)
(1.23747 0.37319 7.45267e-21)
(1.17675 0.367671 1.44381e-20)
(1.11644 0.358035 1.26922e-20)
(1.05812 0.342927 2.35146e-20)
(1.01164 0.324638 0)
(0.983818 0.308772 -2.97025e-20)
(0.966882 0.2949 -1.79311e-20)
(0.912484 0.270551 -1.06111e-20)
(0.724552 0.211417 6.50715e-20)
(0.428655 0.12495 7.72268e-21)
(0.175442 0.0529903 3.63694e-20)
(0.0258724 0.0107069 -1.71967e-19)
(-0.0285198 -0.00586603 1.01854e-19)
(-0.013303 -0.00320985 -1.24328e-19)
(0.260024 0.0809143 6.57707e-22)
(1.16853 0.345541 4.57002e-22)
(1.36187 0.411415 -7.45304e-22)
(1.39818 0.433978 -4.75952e-21)
(1.36007 0.43878 -6.20294e-21)
(1.29704 0.434419 3.60698e-22)
(1.23336 0.427266 -8.0635e-21)
(1.16961 0.417261 1.47955e-20)
(1.10611 0.403086 -2.72146e-20)
(1.04466 0.383387 0)
(0.995788 0.361044 -1.34074e-20)
(0.966492 0.342241 -3.06578e-22)
(0.946986 0.325324 -1.95661e-20)
(0.885572 0.295294 0)
(0.690198 0.226986 -1.40384e-20)
(0.401363 0.132116 -3.32669e-20)
(0.158974 0.0544285 8.85194e-20)
(0.0139318 0.00797376 -8.71727e-20)
(-0.0371369 -0.00976404 1.23929e-19)
(-0.0156427 -0.00452473 -1.304e-19)
(0.253107 0.0912843 -1.10821e-22)
(1.16479 0.400264 4.66112e-22)
(1.36199 0.475017 -9.60163e-22)
(1.39682 0.498971 1.58869e-21)
(1.35648 0.500413 -3.04558e-21)
(1.29168 0.491843 0)
(1.22584 0.480392 -7.33718e-21)
(1.15957 0.466049 -1.54186e-20)
(1.09332 0.447413 -1.40781e-20)
(1.02909 0.423082 0)
(0.978027 0.396576 -1.3794e-20)
(0.947326 0.374554 -1.71579e-20)
(0.925661 0.354394 2.11412e-20)
(0.859528 0.318583 -1.28404e-20)
(0.662352 0.242155 -6.08913e-20)
(0.383377 0.139792 3.60527e-20)
(0.149262 0.0562844 1.06756e-20)
(0.00642834 0.00521027 0)
(-0.0437188 -0.0138987 -1.19181e-19)
(-0.0178489 -0.00599863 -4.42327e-21)
(0.247387 0.101033 8.035e-22)
(1.15712 0.451982 -1.0954e-21)
(1.35777 0.536056 2.18054e-22)
(1.39132 0.561548 6.07289e-21)
(1.34931 0.560004 -1.06074e-20)
(1.28317 0.54755 1.40558e-20)
(1.21558 0.53208 1.57832e-20)
(1.14715 0.513612 -2.45927e-20)
(1.07848 0.49067 8.77447e-21)
(1.0117 0.461779 -5.74223e-20)
(0.958564 0.431054 -1.56303e-20)
(0.92646 0.405658 0)
(0.902825 0.382056 2.28959e-20)
(0.833582 0.340647 2.74377e-20)
(0.638898 0.256955 3.27521e-20)
(0.371002 0.148001 -3.90281e-20)
(0.14449 0.0586399 -1.15427e-20)
(0.00313114 0.00294733 1.35704e-20)
(-0.0476324 -0.0177329 0)
(-0.0195959 -0.00748157 -9.57283e-21)
(0.242781 0.110249 -1.3505e-20)
(1.14724 0.500767 7.14788e-21)
(1.35051 0.594412 1.38344e-22)
(1.3827 0.621352 3.21477e-21)
(1.33938 0.61717 -4.39409e-21)
(1.27223 0.601171 -8.39797e-22)
(1.20319 0.582019 -1.73011e-20)
(1.1329 0.559709 -8.90996e-21)
(1.06203 0.532661 -2.44448e-20)
(0.992856 0.49936 6.16778e-23)
(0.937669 0.464427 -4.88266e-20)
(0.904117 0.43559 4.13899e-20)
(0.87865 0.408422 -2.51458e-20)
(0.807343 0.361664 3.01852e-20)
(0.617625 0.271593 0)
(0.361354 0.156646 -2.11966e-20)
(0.142586 0.0616753 6.30298e-23)
(0.00304937 0.00162712 -5.90852e-20)
(-0.0487591 -0.0207265 -8.70968e-21)
(-0.0205757 -0.00877572 0)
(0.239236 0.119195 0)
(1.1362 0.54686 8.38116e-21)
(1.3411 0.650299 2.69661e-21)
(1.37179 0.678225 -2.45074e-21)
(1.3274 0.671703 -6.06087e-21)
(1.25947 0.652508 0)
(1.18923 0.630016 -7.63908e-21)
(1.11729 0.604184 -2.15133e-22)
(1.04438 0.5733 5.24116e-20)
(0.972897 0.535765 -7.86598e-21)
(0.915644 0.49671 -3.5295e-20)
(0.880559 0.4644 2.15069e-20)
(0.853281 0.433682 -4.3766e-22)
(0.780629 0.381797 3.2195e-20)
(0.597152 0.285781 1.95863e-20)
(0.352433 0.165559 -4.57063e-20)
(0.141733 0.0653655 5.40629e-20)
(0.00500964 0.00136941 1.6035e-20)
(-0.0476243 -0.0227219 6.63048e-20)
(-0.020777 -0.00976099 -1.79349e-19)
(0.236663 0.128021 -4.76357e-21)
(1.12477 0.590438 6.16962e-21)
(1.33017 0.70325 -3.98776e-21)
(1.35926 0.732125 9.43871e-22)
(1.31395 0.72351 0)
(1.24541 0.701449 -5.94283e-21)
(1.17416 0.675968 2.59558e-20)
(1.10075 0.646949 1.9486e-20)
(1.02592 0.612537 0)
(0.952136 0.570985 -1.13747e-19)
(0.892767 0.527918 9.57126e-20)
(0.856062 0.492157 0)
(0.827021 0.45794 2.94707e-20)
(0.753417 0.401055 -4.20074e-22)
(0.576349 0.299444 -6.3183e-20)
(0.34288 0.174409 2.46841e-20)
(0.140767 0.0694527 0)
(0.00791949 0.00202949 8.66924e-20)
(-0.0448405 -0.023703 0)
(-0.0203054 -0.0104064 -8.50401e-20)
(0.234957 0.136753 5.77778e-21)
(1.11343 0.631732 8.25488e-21)
(1.31818 0.753331 -3.88812e-21)
(1.34562 0.783075 0)
(1.29952 0.772583 -4.42761e-21)
(1.2305 0.74797 0)
(1.15837 0.719828 -2.52719e-20)
(1.08362 0.687956 -8.89837e-21)
(1.00696 0.650352 9.21151e-21)
(0.930874 0.605048 -5.6358e-20)
(0.869288 0.558094 9.88517e-21)
(0.8309 0.518903 0)
(0.800101 0.481171 -6.3142e-20)
(0.725589 0.419353 3.87502e-22)
(0.554721 0.312193 0)
(0.332136 0.182697 1.08139e-22)
(0.138758 0.0735354 7.93805e-20)
(0.0107172 0.00332942 -7.50457e-20)
(-0.0412725 -0.0238129 2.22171e-20)
(-0.0193533 -0.0107007 0)
(0.233768 0.145344 0)
(1.10237 0.670931 1.00983e-20)
(1.30558 0.800658 6.075e-21)
(1.33131 0.831149 -5.26018e-22)
(1.2845 0.818962 -8.87026e-22)
(1.2151 0.792083 -1.34401e-20)
(1.14222 0.761593 9.61421e-21)
(1.06623 0.727196 -1.06807e-20)
(0.987801 0.686736 4.13865e-20)
(0.909369 0.637998 -9.04405e-20)
(0.84542 0.587296 -8.95594e-22)
(0.80526 0.544661 -2.76561e-20)
(0.772734 0.503304 1.02734e-19)
(0.697403 0.436503 -4.92693e-22)
(0.532174 0.32377 -4.93683e-20)
(0.319729 0.18999 -8.73075e-20)
(0.135247 0.0772768 0)
(0.0127312 0.00485888 0)
(-0.0376889 -0.0234031 2.40323e-20)
(-0.0181618 -0.0107478 -1.42772e-20)
(0.233241 0.153969 8.27795e-21)
(1.09183 0.707932 -2.30678e-20)
(1.29269 0.845333 -6.52172e-21)
(1.31664 0.876434 0)
(1.2692 0.862709 -3.08384e-22)
(1.19951 0.833828 -1.16653e-20)
(1.12597 0.801285 2.28321e-20)
(1.04884 0.764676 4.1721e-20)
(0.968682 0.721707 5.38353e-20)
(0.887841 0.669876 -7.40729e-20)
(0.821364 0.615605 -8.304e-20)
(0.779287 0.569459 7.41778e-20)
(0.745029 0.524224 0)
(0.66886 0.452177 -2.26077e-20)
(0.508498 0.333821 -5.33763e-20)
(0.305913 0.195793 -6.29427e-20)
(0.130232 0.0801654 -7.42474e-20)
(0.0136694 0.00616326 2.19871e-20)
(-0.0345094 -0.0228058 -1.29591e-20)
(-0.0169281 -0.0106498 7.1325e-23)
(0.232951 0.162437 0)
(1.08203 0.743067 0)
(1.27972 0.887464 5.1015e-22)
(1.30186 0.919039 0)
(1.25387 0.903918 2.36614e-22)
(1.18395 0.873274 7.38023e-21)
(1.10986 0.838939 0)
(1.03166 0.800419 4.89308e-21)
(0.949821 0.755287 9.00437e-20)
(0.866509 0.700731 -1.70858e-19)
(0.797291 0.643114 0)
(0.753071 0.593354 -4.80161e-20)
(0.717013 0.54382 -5.80601e-22)
(0.640039 0.466041 -4.00115e-22)
(0.484144 0.341879 5.74434e-20)
(0.290963 0.199836 3.38246e-23)
(0.123976 0.081902 -1.60244e-19)
(0.0136303 0.0069934 4.73496e-20)
(-0.0318573 -0.0222144 1.40527e-20)
(-0.0157393 -0.0104607 0)
(0.232877 0.170697 -3.36499e-20)
(1.07272 0.776535 -1.58168e-20)
(1.26677 0.927127 -1.99331e-20)
(1.28717 0.959071 1.77123e-20)
(1.2387 0.942665 -2.64508e-21)
(1.16863 0.910486 0)
(1.09405 0.874606 1.36322e-20)
(1.01487 0.834455 -1.10292e-20)
(0.931399 0.787503 8.02147e-22)
(0.845571 0.730619 1.26689e-20)
(0.773353 0.669922 1.0838e-19)
(0.726674 0.616445 -1.68867e-20)
(0.688625 0.562041 -6.38883e-20)
(0.610876 0.477751 -2.64681e-20)
(0.459402 0.34739 3.11134e-20)
(0.2754 0.201646 5.64858e-23)
(0.117086 0.0822789 4.32229e-20)
(0.0129386 0.00727478 -1.02055e-19)
(-0.0297318 -0.0217244 1.2111e-19)
(-0.0146756 -0.010251 1.78764e-20)
(0.232824 0.178707 1.28449e-20)
(1.0639 0.808411 -8.94907e-21)
(1.25402 0.964448 1.30658e-21)
(1.27271 0.996656 1.18424e-20)
(1.22385 0.979063 1.94846e-21)
(1.15367 0.945541 -1.24791e-20)
(1.07869 0.908339 3.75449e-21)
(0.998611 0.866813 -4.60065e-20)
(0.913576 0.818363 -9.98017e-20)
(0.825185 0.75956 -1.02487e-19)
(0.749712 0.696132 0)
(0.700131 0.638882 -7.46325e-20)
(0.659717 0.578922 9.24569e-20)
(0.581135 0.486975 0)
(0.434444 0.349753 -6.68633e-20)
(0.259782 0.200634 3.95857e-20)
(0.110573 0.0810604 -4.65765e-20)
(0.0123357 0.00717992 -5.50055e-20)
(-0.0280282 -0.0212408 -9.76812e-20)
(-0.0138307 -0.0100705 -7.71428e-20)
(0.233112 0.186599 -1.46223e-20)
(1.05545 0.83869 9.58904e-21)
(1.24153 0.999497 2.1513e-20)
(1.2586 1.03187 1.76413e-20)
(1.20941 1.01321 -3.25764e-21)
(1.13918 0.978526 -6.06656e-21)
(1.06389 0.940191 1.27688e-20)
(0.982998 0.897538 -4.72545e-20)
(0.89646 0.847893 -5.93745e-20)
(0.805499 0.787584 1.07843e-19)
(0.726513 0.721836 2.40059e-19)
(0.673499 0.660862 0)
(0.630121 0.594621 0)
(0.550411 0.493507 -3.05533e-20)
(0.409035 0.348188 0)
(0.245075 0.195597 8.51086e-20)
(0.106363 0.0771011 1.00196e-19)
(0.0141132 0.00636019 0)
(-0.0259249 -0.0208267 0)
(-0.0134809 -0.0101191 8.30425e-20)
(0.233142 0.194045 1.67144e-20)
(1.04737 0.867379 1.32039e-20)
(1.22939 1.03239 1.56865e-20)
(1.24491 1.06485 -1.73587e-20)
(1.19547 1.04521 -4.934e-21)
(1.12525 1.00952 5.1831e-21)
(1.04972 0.970221 -1.74912e-20)
(0.968109 0.926658 -1.9015e-22)
(0.880151 0.876101 -1.05497e-21)
(0.78664 0.814697 -7.83111e-22)
(0.703917 0.747111 1.24128e-19)
(0.64686 0.682574 0)
(0.599693 0.609421 9.45184e-20)
(0.518125 0.497411 6.5631e-20)
(0.382333 0.342039 1.56705e-19)
(0.231089 0.184273 4.59999e-20)
(0.10708 0.0664678 -5.39616e-20)
(0.0247343 -0.00055726 -3.18023e-20)
(-0.0154489 -0.0227288 0)
(-0.0120226 -0.0102031 8.94197e-20)
(0.233594 0.20153 -3.79965e-20)
(1.03964 0.894599 0)
(1.21759 1.06318 1.86759e-20)
(1.23168 1.09569 -1.48674e-20)
(1.1821 1.07517 7.52649e-21)
(1.11192 1.0386 -3.62028e-21)
(1.03623 0.998485 3.32596e-20)
(0.953998 0.954207 -3.86916e-21)
(0.864714 0.902996 0)
(0.768714 0.840876 -1.19916e-19)
(0.682087 0.772006 -2.71405e-19)
(0.620339 0.70421 1.11686e-20)
(0.568387 0.623681 1.31504e-19)
(0.483743 0.499184 0)
(0.352722 0.331435 1.06243e-19)
(0.214847 0.164308 0)
(0.110365 0.0393103 0)
(0.0521074 -0.0335425 -3.4383e-20)
(0.0357715 -0.0402331 0)
(0.0222942 0.00144709 2.40166e-20)
(0.233649 0.208473 -4.26108e-20)
(1.03221 0.920617 0)
(1.20613 1.09208 3.13521e-20)
(1.21886 1.12462 0)
(1.16925 1.10336 -4.84883e-21)
(1.09913 1.06607 0)
(1.02338 1.02529 1.48079e-21)
(0.940571 0.980518 6.58071e-21)
(0.850028 0.928933 7.55151e-21)
(0.751544 0.866487 -1.32124e-19)
(0.660826 0.796972 8.16568e-21)
(0.593613 0.72645 9.05051e-20)
(0.535626 0.638236 1.28889e-19)
(0.446117 0.499576 1.7312e-20)
(0.317809 0.317745 8.37108e-20)
(0.189865 0.136153 0)
(0.100663 -0.00864255 1.13805e-19)
(0.0590524 -0.0660085 -6.68296e-20)
(0.0275702 0.0452219 7.81736e-20)
(-0.0386707 0.458974 -9.28772e-20)
(0.233688 0.215267 3.54067e-20)
(1.02487 0.945285 5.324e-20)
(1.19493 1.1194 0)
(1.20632 1.1521 1.01612e-21)
(1.15672 1.13035 1.48749e-20)
(1.0866 1.0926 -1.23585e-21)
(1.01083 1.05143 1.10841e-20)
(0.927406 1.00652 0)
(0.835543 0.954999 4.97422e-20)
(0.734429 0.892821 -6.86564e-21)
(0.639174 0.823483 0)
(0.565284 0.750933 0)
(0.499131 0.654268 1.16163e-19)
(0.402349 0.498869 -5.36287e-20)
(0.274089 0.302647 -8.53805e-20)
(0.15081 0.102664 0)
(0.0599106 0.0176838 5.79698e-20)
(0.00430976 0.457798 -6.7242e-20)
(0.0294375 1.936 -3.77829e-20)
(0.0557785 2.82924 -4.63628e-20)
(0.233429 0.221536 -2.67693e-20)
(1.01768 0.968778 -6.86595e-20)
(1.18401 1.14515 1.8789e-20)
(1.19405 1.17798 1.5024e-20)
(1.1446 1.15595 0)
(1.07444 1.11792 -3.0872e-21)
(0.998808 1.0766 1.43356e-20)
(0.914705 1.0318 -3.16761e-21)
(0.821557 0.980686 7.48846e-21)
(0.717782 0.919293 1.26461e-19)
(0.61779 0.850928 1.38935e-19)
(0.536359 0.777585 1.0276e-19)
(0.459648 0.672184 1.17721e-19)
(0.353433 0.496531 -1.272e-19)
(0.226977 0.290231 -1.29861e-19)
(0.101424 0.161739 0)
(0.0366056 0.900228 0)
(0.0832451 2.58889 3.22678e-20)
(0.0863243 3.21554 0)
(0.0880335 3.39056 8.41688e-20)
(0.235982 0.227428 0)
(1.01094 0.99149 0)
(1.17307 1.16919 0)
(1.18188 1.20215 4.61904e-21)
(1.13252 1.17992 1.37943e-20)
(1.06246 1.14189 -4.90371e-21)
(0.987235 1.1007 8.93102e-21)
(0.902403 1.05621 -3.07895e-21)
(0.808007 1.00581 6.21706e-20)
(0.701597 0.945738 -1.67455e-21)
(0.596772 0.879106 2.75881e-19)
(0.507209 0.806507 -1.1941e-20)
(0.417057 0.693025 1.43991e-20)
(0.301051 0.491006 1.85366e-20)
(0.168762 0.308117 -6.70235e-22)
(0.084866 1.02255 3.49549e-22)
(0.119114 2.77118 -1.72602e-19)
(0.12367 3.30218 -6.50557e-20)
(0.115163 3.42336 3.43789e-20)
(0.105477 3.44296 -3.88754e-20)
(0.159294 0.173118 1.64502e-20)
(0.999982 1.01617 0)
(1.16189 1.19173 -3.88597e-20)
(1.1702 1.22505 -4.14745e-20)
(1.12094 1.20273 3.35722e-20)
(1.05135 1.16499 6.17083e-21)
(0.975907 1.12374 -8.83181e-21)
(0.890531 1.07981 3.32507e-20)
(0.794972 1.03047 -5.10467e-20)
(0.686102 0.972275 0)
(0.57643 0.908089 1.36539e-19)
(0.478376 0.837503 -8.45671e-20)
(0.374869 0.722593 0)
(0.240386 0.487213 1.80996e-20)
(0.122254 0.732697 4.27153e-20)
(0.133775 2.57843 -4.81607e-20)
(0.180652 3.32769 5.46267e-20)
(0.164314 3.43241 2.94211e-20)
(0.136879 3.45126 3.33701e-20)
(0.118253 3.46009 5.32316e-20)
(0.270533 0.265011 -3.17001e-20)
(0.982163 1.0261 0)
(1.14333 1.21756 4.21489e-20)
(1.15518 1.25623 4.60504e-20)
(1.10314 1.23639 -3.83027e-20)
(1.03294 1.19899 -1.10927e-20)
(0.956298 1.15929 6.00696e-21)
(0.870291 1.11665 2.64097e-21)
(0.773145 1.06955 4.8414e-20)
(0.660982 1.01549 1.10069e-19)
(0.544817 0.957546 7.67628e-21)
(0.433639 0.889392 7.57731e-20)
(0.294914 0.750949 1.37523e-20)
(0.200044 0.893384 -1.74911e-20)
(0.206146 2.45842 -3.91946e-20)
(0.257235 3.33073 3.8602e-20)
(0.240091 3.45636 -4.23264e-20)
(0.20634 3.47544 -2.43478e-20)
(0.173278 3.5001 -2.20953e-20)
(0.128447 3.4955 -3.20542e-21)
(0.26066 0.263864 0)
(0.979097 1.04889 1.23683e-20)
(1.13437 1.24117 -8.71553e-21)
(1.14387 1.27987 -5.52972e-21)
(1.09178 1.25975 -2.67012e-20)
(1.02157 1.22253 1.17943e-20)
(0.944567 1.18304 -2.23573e-21)
(0.858241 1.14126 2.33917e-21)
(0.760333 1.09568 -5.03258e-20)
(0.646419 1.04462 -2.71696e-21)
(0.526498 0.991579 -2.47972e-19)
(0.407973 0.925667 1.08801e-20)
(0.274992 0.824415 -1.30574e-20)
(0.235685 1.53571 -1.61215e-20)
(0.299274 3.14429 3.66945e-21)
(0.311548 3.45755 1.77771e-22)
(0.270522 3.50456 6.31624e-20)
(0.236965 3.52852 3.20468e-20)
(0.191466 3.54882 -1.04534e-20)
(0.14182 3.54579 -1.60561e-20)
(0.246685 0.261863 3.1754e-20)
(0.975107 1.07422 8.39409e-20)
(1.12506 1.26688 -2.48715e-20)
(1.13219 1.30514 -2.07791e-20)
(1.07996 1.28458 0)
(1.0098 1.24739 2.28878e-20)
(0.932736 1.20818 -1.44697e-22)
(0.846348 1.1672 2.01212e-21)
(0.747995 1.12328 -5.65233e-21)
(0.632886 1.07553 -9.9594e-20)
(0.510186 1.02805 -1.14544e-19)
(0.385266 0.963282 -8.9159e-20)
(0.277423 0.973513 -9.84155e-20)
(0.30196 2.31855 1.01491e-19)
(0.380593 3.38564 8.58508e-20)
(0.351322 3.51307 0)
(0.303823 3.55065 0)
(0.267424 3.58467 -8.29471e-21)
(0.224123 3.62969 0)
(0.154793 3.61509 -1.29766e-20)
(0.23687 0.263769 -4.74579e-20)
(0.969193 1.10041 -7.12207e-20)
(1.11437 1.29382 0)
(1.11925 1.33123 1.23628e-21)
(1.06688 1.31007 -2.93908e-20)
(0.996954 1.27283 3.80476e-20)
(0.920147 1.23393 1.70413e-21)
(0.83393 1.1937 9.60403e-22)
(0.735393 1.15142 -3.50049e-20)
(0.619543 1.10704 4.92031e-21)
(0.495055 1.06523 0)
(0.364798 1.00477 0)
(0.299499 1.27297 -8.94397e-20)
(0.382121 2.97779 3.64436e-20)
(0.445842 3.48351 4.65178e-20)
(0.392273 3.54731 0)