/*--------------------------------*- C++ -*----------------------------------*\
  =========                 |
  \\      /  F ield         | OpenFOAM: The Open Source CFD Toolbox
   \\    /   O peration     | Website:  https://openfoam.org
    \\  /    A nd           | Version:  6
     \\/     M anipulation  |
\*---------------------------------------------------------------------------*/
FoamFile
{
    version     2.0;
    format      ascii;
    class       volVectorField;
    location    "50";
    object      U;
}
// * * * * * * * * * * * * * * * * * * * * * * * * * * * * * * * * * * * * * //

dimensions      [0 1 -1 0 0 0 0];

internalField   nonuniform List<vector> 
2200
(
(0.877608 -0.020182 0)
(1.00469 -0.0399912 0)
(1.0028 -0.034286 0)
(1.00028 -0.0232259 0)
(0.999867 -0.0155216 0)
(1.00005 -0.0101645 0)
(1.00005 -0.0064519 0)
(1.00004 -0.00395378 0)
(1.00001 -0.00217833 0)
(1.00012 -0.000671108 0)
(0.999966 0.000943233 0)
(0.99998 0.0024976 0)
(1.00002 0.00422045 0)
(1.00003 0.00664011 0)
(1.00011 0.010349 0)
(1.00007 0.0156733 0)
(1.00055 0.0232907 0)
(1.00305 0.0341801 0)
(1.00471 0.040045 0)
(0.877645 0.0201943 0)
(0.700806 -0.0265876 0)
(0.993596 -0.0586162 0)
(1.02972 -0.0596854 0)
(1.02176 -0.0487833 0)
(1.01388 -0.0360231 0)
(1.00826 -0.0249658 0)
(1.00501 -0.0166756 0)
(1.00316 -0.010556 0)
(1.00215 -0.00571972 0)
(1.0017 -0.00151985 0)
(1.00176 0.00254152 0)
(1.00216 0.00660565 0)
(1.00305 0.0113675 0)
(1.00486 0.0174227 0)
(1.00807 0.0256274 0)
(1.01346 0.0365562 0)
(1.02127 0.0493462 0)
(1.02924 0.0603458 0)
(0.993486 0.0587355 0)
(0.700533 0.0266224 0)
(0.530461 -0.0214142 0)
(0.966267 -0.0552596 0)
(1.05275 -0.0605727 0)
(1.04846 -0.0532974 0)
(1.03232 -0.0415841 0)
(1.02128 -0.0316465 0)
(1.0138 -0.0228634 0)
(1.00912 -0.0153054 0)
(1.00637 -0.00862728 0)
(1.00498 -0.00234397 0)
(1.00487 0.00391868 0)
(1.00609 0.0101398 0)
(1.00886 0.0167031 0)
(1.01356 0.0241247 0)
(1.02098 0.0326872 0)
(1.03215 0.0424658 0)
(1.04835 0.0539066 0)
(1.0527 0.0605906 0)
(0.965551 0.0555796 0)
(0.529438 0.0215458 0)
(0.393046 -0.0132694 0)
(0.909761 -0.0454025 0)
(1.05577 -0.0514355 0)
(1.06645 -0.0472833 0)
(1.05117 -0.0389947 0)
(1.03579 -0.0312188 0)
(1.02473 -0.0240232 0)
(1.01707 -0.0169464 0)
(1.01212 -0.00984893 0)
(1.00946 -0.00251963 0)
(1.00948 0.00503104 0)
(1.01189 0.0122141 0)
(1.01654 0.0190766 0)
(1.02405 0.0259344 0)
(1.035 0.0328606 0)
(1.05019 0.0403781 0)
(1.06522 0.0482679 0)
(1.05423 0.0522022 0)
(0.907721 0.0458726 0)
(0.390569 0.0134355 0)
(0.309141 -0.00618008 0)
(0.846338 -0.0330298 0)
(1.04827 -0.042842 0)
(1.0773 -0.0391319 0)
(1.06519 -0.0330713 0)
(1.04854 -0.0271585 0)
(1.03576 -0.0219217 0)
(1.02623 -0.0161656 0)
(1.01967 -0.00953642 0)
(1.01586 -0.00216761 0)
(1.01556 0.00540561 0)
(1.01901 0.0126675 0)
(1.02544 0.0190248 0)
(1.03469 0.0244434 0)
(1.04725 0.0293307 0)
(1.06391 0.034881 0)
(1.07581 0.040484 0)
(1.0461 0.0439288 0)
(0.842699 0.0335719 0)
(0.305395 0.00634683 0)
(0.265285 -0.00193121 0)
(0.788692 -0.0219109 0)
(1.03186 -0.0337613 0)
(1.08136 -0.032145 0)
(1.07499 -0.027605 0)
(1.05868 -0.0226083 0)
(1.04554 -0.0185629 0)
(1.03525 -0.0139885 0)
(1.02772 -0.00834264 0)
(1.0233 -0.00149888 0)
(1.02307 0.00576411 0)
(1.02684 0.0124678 0)
(1.0337 0.0177827 0)
(1.04368 0.0219583 0)
(1.05662 0.0255007 0)
(1.0727 0.0300251 0)
(1.07851 0.0340589 0)
(1.0279 0.0351145 0)
(0.782808 0.0225742 0)
(0.260283 0.00214725 0)
(0.240991 -0.000356899 0)
(0.738469 -0.0140605 0)
(1.01292 -0.0267578 0)
(1.0826 -0.0266137 0)
(1.0813 -0.0231583 0)
(1.06626 -0.0188291 0)
(1.0533 -0.0153231 0)
(1.04301 -0.0114452 0)
(1.03517 -0.0064826 0)
(1.03043 -0.000372412 0)
(1.02993 0.00614931 0)
(1.03386 0.0118503 0)
(1.04122 0.0163148 0)
(1.05091 0.0196787 0)
(1.06352 0.0227641 0)
(1.07813 0.0264761 0)
(1.07873 0.0290843 0)
(1.00712 0.0285327 0)
(0.729802 0.0149115 0)
(0.23448 0.000651675 0)
(0.226026 -4.77103e-05 0)
(0.69504 -0.00924028 0)
(0.991573 -0.0218963 0)
(1.08041 -0.0231561 0)
(1.0854 -0.0202839 0)
(1.07232 -0.0163223 0)
(1.05954 -0.012868 0)
(1.04965 -0.00909503 0)
(1.04212 -0.00471865 0)
(1.03727 0.000619119 0)
(1.03654 0.0064154 0)
(1.04011 0.0115078 0)
(1.04654 0.0153265 0)
(1.05581 0.0183901 0)
(1.06829 0.0210319 0)
(1.08071 0.0241417 0)
(1.07429 0.0261935 0)
(0.982578 0.0239391 0)
(0.682829 0.010294 0)
(0.217651 0.000419687 0)
(0.216321 -6.63226e-05 0)
(0.659923 -0.00640457 0)
(0.971818 -0.0182943 0)
(1.07825 -0.0204394 0)
(1.08899 -0.0179091 0)
(1.07739 -0.0144431 0)
(1.06497 -0.0111632 0)
(1.05554 -0.00766134 0)
(1.04845 -0.00328648 0)
(1.04391 0.00191245 0)
(1.04309 0.00726393 0)
(1.04618 0.0118833 0)
(1.05207 0.0155073 0)
(1.06058 0.0182003 0)
(1.07227 0.0206466 0)
(1.08273 0.0231496 0)
(1.07063 0.0245225 0)
(0.959798 0.0210393 0)
(0.64346 0.007789 0)
(0.20564 0.000531689 0)
(0.208876 -0.000118254 0)
(0.630705 -0.00470101 0)
(0.952357 -0.0157623 0)
(1.07475 -0.0188434 0)
(1.09201 -0.0167849 0)
(1.08225 -0.0132107 0)
(1.06995 -0.00979537 0)
(1.06033 -0.00616804 0)
(1.05302 -0.00192762 0)
(1.04806 0.00293695 0)
(1.04668 0.00803694 0)
(1.04926 0.0125566 0)
(1.05495 0.0159114 0)
(1.06347 0.0183365 0)
(1.07514 0.0207124 0)
(1.08371 0.0230822 0)
(1.06326 0.023787 0)
(0.934873 0.0189805 0)
(0.608559 0.00642372 0)
(0.195271 0.000676789 0)
(0.202962 -0.00010678 0)
(0.60738 -0.00349036 0)
(0.934794 -0.0131955 0)
(1.07204 -0.0167332 0)
(1.0953 -0.015071 0)
(1.08654 -0.0118239 0)
(1.07416 -0.00799905 0)
(1.06438 -0.00444042 0)
(1.05695 -0.000374456 0)
(1.05219 0.00451397 0)
(1.0509 0.00958724 0)
(1.05319 0.013616 0)
(1.05845 0.0166155 0)
(1.0667 0.0190032 0)
(1.07786 0.0214074 0)
(1.08443 0.0231058 0)
(1.05757 0.0228479 0)
(0.91249 0.0173314 0)
(0.579208 0.00567384 0)
(0.185926 0.000789014 0)
(0.19807 -1.42939e-05 0)
(0.588652 -0.00252159 0)
(0.918685 -0.0109725 0)
(1.06854 -0.0146351 0)
(1.09841 -0.0133453 0)
(1.09129 -0.0102686 0)
(1.07872 -0.00656675 0)
(1.06877 -0.00274633 0)
(1.0609 0.00138211 0)
(1.05522 0.0060252 0)
(1.05303 0.0109927 0)
(1.05511 0.0150933 0)
(1.06039 0.017837 0)
(1.06846 0.0200844 0)
(1.07976 0.022151 0)
(1.08426 0.0231732 0)
(1.04832 0.0221918 0)
(0.887712 0.0160205 0)
(0.551612 0.00520326 0)
(0.176486 0.000843878 0)
(0.194331 0.000138931 0)
(0.573638 -0.0016138 0)
(0.904185 -0.00874228 0)
(1.06596 -0.0122713 0)
(1.102 -0.0109707 0)
(1.09598 -0.008487 0)
(1.0831 -0.00483063 0)
(1.07258 -0.000739885 0)
(1.06423 0.00372144 0)
(1.05821 0.00849187 0)
(1.05604 0.0129553 0)
(1.05795 0.0164378 0)
(1.06292 0.0194535 0)
(1.07092 0.0216793 0)
(1.08165 0.0231657 0)
(1.08358 0.0233822 0)
(1.04002 0.0217809 0)
(0.865037 0.0150697 0)
(0.527555 0.00498929 0)
(0.16769 0.000878523 0)
(0.192004 0.000298458 0)
(0.562701 -0.000643014 0)
(0.891995 -0.0066528 0)
(1.06274 -0.0101756 0)
(1.10513 -0.0088116 0)
(1.10078 -0.00582762 0)
(1.08742 -0.00226749 0)
(1.07638 0.00192259 0)
(1.06746 0.00660959 0)
(1.06061 0.0109534 0)
(1.05744 0.0149485 0)
(1.0586 0.0186332 0)
(1.06337 0.021264 0)
(1.07159 0.0229698 0)
(1.08206 0.0237821 0)
(1.08178 0.0237198 0)
(1.02829 0.0216479 0)
(0.840035 0.0143754 0)
(0.503621 0.00482397 0)
(0.158646 0.000881354 0)
(0.191057 0.000470208 0)
(0.554758 0.00013186 0)
(0.881775 -0.00434489 0)
(1.06111 -0.00712918 0)
(1.10872 -0.00528507 0)
(1.10554 -0.00237649 0)
(1.09228 0.00112133 0)
(1.08063 0.00516847 0)
(1.07134 0.00975409 0)
(1.06469 0.0142575 0)
(1.06137 0.0180809 0)
(1.06182 0.0209013 0)
(1.06581 0.0232391 0)
(1.07356 0.0246009 0)
(1.08262 0.0249913 0)
(1.07936 0.0244532 0)
(1.01703 0.0218143 0)
(0.816606 0.0140156 0)
(0.481929 0.00478916 0)
(0.150137 0.0009372 0)
(0.191773 0.000505084 0)
(0.551002 0.00133816 0)
(0.875213 -0.0019627 0)
(1.06002 -0.00458929 0)
(1.11298 -0.00252493 0)
(1.11145 0.00131777 0)
(1.098 0.00508791 0)
(1.08616 0.00895259 0)
(1.07638 0.0131984 0)
(1.06823 0.0175234 0)
(1.06274 0.0212439 0)
(1.06202 0.0243755 0)
(1.06578 0.0259057 0)
(1.0736 0.0264332 0)
(1.08186 0.0263009 0)
(1.07522 0.0253797 0)
(1.00274 0.0220693 0)
(0.790923 0.0137758 0)
(0.459655 0.00484516 0)
(0.141208 0.00102194 0)
(0.194158 0.000668862 0)
(0.551513 0.00204485 0)
(0.870834 0.000214323 0)
(1.06106 -0.000990576 0)
(1.11801 0.00171139 0)
(1.11745 0.00560444 0)
(1.10418 0.00947239 0)
(1.09175 0.0133198 0)
(1.0809 0.0178185 0)
(1.07158 0.022426 0)
(1.06646 0.0261835 0)
(1.06597 0.0283792 0)
(1.06863 0.0297515 0)
(1.07528 0.0298432 0)
(1.08113 0.0288178 0)
(1.07022 0.0273364 0)
(0.988488 0.0230813 0)
(0.7662 0.0139942 0)
(0.438509 0.00521957 0)
(0.132428 0.00115414 0)
(0.198403 0.0010058 0)
(0.554482 0.00290083 0)
(0.871308 0.00312386 0)
(1.06321 0.00199644 0)
(1.1238 0.00490794 0)
(1.12461 0.00975669 0)
(1.11097 0.0143902 0)
(1.09797 0.0187845 0)
(1.08613 0.0237233 0)
(1.07509 0.0280606 0)
(1.06755 0.0309765 0)
(1.06472 0.0329626 0)
(1.06662 0.0336138 0)
(1.07305 0.0328364 0)
(1.07887 0.0319276 0)
(1.06345 0.0297757 0)
(0.970408 0.0243184 0)
(0.738247 0.0146421 0)
(0.415316 0.00571837 0)
(0.122652 0.00127746 0)
(0.204999 0.00143517 0)
(0.56181 0.00419599 0)
(0.875343 0.00565754 0)
(1.06814 0.00617049 0)
(1.13057 0.0097564 0)
(1.1319 0.0148156 0)
(1.11805 0.0199048 0)
(1.10416 0.024824 0)
(1.0916 0.0303055 0)
(1.08003 0.03494 0)
(1.07152 0.0377547 0)
(1.06782 0.0395653 0)
(1.06845 0.0404348 0)
(1.0735 0.0387321 0)
(1.0754 0.036459 0)
(1.05496 0.0328728 0)
(0.951774 0.0264006 0)
(0.710306 0.0157649 0)
(0.391901 0.00632239 0)
(0.112505 0.00142479 0)
(0.213366 0.00191606 0)
(0.573168 0.00566161 0)
(0.883592 0.00864477 0)
(1.07511 0.0106367 0)
(1.13836 0.015011 0)
(1.14045 0.0209108 0)
(1.12557 0.0269482 0)
(1.11049 0.0324706 0)
(1.09627 0.0383598 0)
(1.08247 0.0433301 0)
(1.0708 0.0461013 0)
(1.06425 0.047308 0)
(1.06308 0.0461748 0)
(1.06809 0.0434467 0)
(1.07056 0.0411343 0)
(1.04403 0.0366829 0)
(0.928112 0.0285841 0)
(0.677702 0.017133 0)
(0.36516 0.0069727 0)
(0.100935 0.00158725 0)
(0.225947 0.00255306 0)
(0.59174 0.00811705 0)
(0.898814 0.0129609 0)
(1.08623 0.0166622 0)
(1.14831 0.0223494 0)
(1.15003 0.0287517 0)
(1.13407 0.0353457 0)
(1.11728 0.0414085 0)
(1.10115 0.0477073 0)
(1.0857 0.05323 0)
(1.07234 0.0562517 0)
(1.06479 0.0564572 0)
(1.06354 0.0548819 0)
(1.06662 0.0514572 0)
(1.06391 0.0472786 0)
(1.03086 0.0405956 0)
(0.903668 0.0315233 0)
(0.644605 0.0186702 0)
(0.337677 0.0076933 0)
(0.0888936 0.00175528 0)
(0.242039 0.00316998 0)
(0.615927 0.0101188 0)
(0.920102 0.0174792 0)
(1.10096 0.0236045 0)
(1.15998 0.0308664 0)
(1.1617 0.039059 0)
(1.1439 0.0470891 0)
(1.12471 0.054174 0)
(1.10495 0.0608405 0)
(1.08485 0.0658856 0)
(1.0677 0.0678461 0)
(1.05896 0.0668722 0)
(1.05555 0.063455 0)
(1.05827 0.0583759 0)
(1.05547 0.0531043 0)
(1.01411 0.0459089 0)
(0.872317 0.0344977 0)
(0.605145 0.0203981 0)
(0.305923 0.00848636 0)
(0.0753623 0.00191012 0)
(0.26433 0.00437987 0)
(0.649625 0.0143179 0)
(0.94947 0.0246187 0)
(1.12121 0.0332677 0)
(1.17548 0.0421196 0)
(1.17571 0.0518096 0)
(1.15593 0.0609194 0)
(1.13433 0.0691369 0)
(1.11187 0.0761248 0)
(1.08946 0.0810166 0)
(1.07006 0.0823622 0)
(1.05767 0.0796298 0)
(1.05333 0.074919 0)
(1.05364 0.0687494 0)
(1.04487 0.0614334 0)
(0.994423 0.0510793 0)
(0.839596 0.0384269 0)
(0.564772 0.0225431 0)
(0.273138 0.00939228 0)
(0.0615544 0.0020394 0)
(0.296089 0.00548755 0)
(0.696709 0.0174549 0)
(0.989709 0.0321688 0)
(1.1477 0.0445662 0)
(1.19432 0.0554736 0)
(1.19272 0.0676437 0)
(1.16936 0.0787351 0)
(1.14419 0.0885902 0)
(1.11726 0.0962679 0)
(1.08908 0.100141 0)
(1.06418 0.0989659 0)
(1.05045 0.0936916 0)
(1.04401 0.0867443 0)
(1.04251 0.0785769 0)
(1.03134 0.0692984 0)
(0.969843 0.0581684 0)
(0.79799 0.0423466 0)
(0.515801 0.0249266 0)
(0.234554 0.0100905 0)
(0.0462095 0.00206318 0)
(0.331748 0.00875088 0)
(0.753792 0.0258931 0)
(1.03778 0.044302 0)
(1.18005 0.0603933 0)
(1.21763 0.0738253 0)
(1.21126 0.0890685 0)
(1.18307 0.101824 0)
(1.15326 0.112441 0)
(1.12185 0.119556 0)
(1.09021 0.12199 0)
(1.06345 0.119614 0)
(1.04581 0.112223 0)
(1.0378 0.10246 0)
(1.03457 0.091973 0)
(1.01532 0.0804736 0)
(0.940882 0.0651322 0)
(0.754053 0.0477959 0)
(0.46543 0.0276887 0)
(0.195527 0.0106838 0)
(0.0317775 0.00202594 0)
(0.40951 0.0135806 0)
(0.839141 0.0361986 0)
(1.10329 0.0619868 0)
(1.2203 0.0839232 0)
(1.24415 0.100044 6.66159e-34)
(1.23115 0.118226 -2.98246e-34)
(1.1959 0.132184 0)
(1.16004 0.142923 0)
(1.12262 0.149068 0)
(1.08489 0.149335 0)
(1.05255 0.14211 0)
(1.0338 0.129792 0)
(1.02464 0.117535 0)
(1.01784 0.10495 0)
(0.994037 0.0907948 0)
(0.905068 0.0743734 0)
(0.697156 0.0522979 0)
(0.401374 0.0294479 0)
(0.147076 0.0103093 0)
(0.015287 0.00187385 0)
(0.475071 0.0281619 5.11882e-20)
(0.938788 0.0563036 -3.86404e-20)
(1.17303 0.091647 0)
(1.26108 0.11911 2.90647e-20)
(1.27274 0.136999 -2.35614e-20)
(1.24949 0.158103 3.14684e-34)
(1.20656 0.172227 0)
(1.16454 0.182129 1.67725e-20)
(1.12132 0.185704 -5.51988e-20)
(1.07855 0.181207 1.12746e-20)
(1.04463 0.169854 0)
(1.02319 0.155384 -2.86471e-20)
(1.01144 0.139635 -3.42398e-20)
(1.00257 0.123998 5.98286e-20)
(0.96499 0.107161 -4.72183e-20)
(0.852877 0.0832868 0)
(0.623569 0.0580984 -1.69674e-20)
(0.325688 0.0304903 0)
(0.0972099 0.0100233 -9.35867e-20)
(-0.00149181 0.00118587 1.10295e-19)
(0.510915 0.0531994 -6.63251e-21)
(1.00154 0.0942601 1.18963e-19)
(1.22234 0.133722 -8.20165e-21)
(1.29393 0.16313 -7.36601e-20)
(1.29691 0.18441 -4.96197e-20)
(1.26455 0.205944 8.06106e-20)
(1.21464 0.219623 0)
(1.16629 0.227913 0)
(1.11714 0.22856 8.80428e-20)
(1.06921 0.220787 0)
(1.02964 0.205524 1.03697e-19)
(1.00367 0.185182 3.07376e-20)
(0.988431 0.166373 3.78217e-22)
(0.970176 0.147808 -6.5371e-20)
(0.92488 0.12489 0)
(0.799859 0.0998581 0)
(0.558916 0.0669395 -2.77213e-19)
(0.271059 0.0355888 6.9662e-19)
(0.0708104 0.00993134 -4.11974e-19)
(-0.0108712 -0.000460117 -4.85752e-19)
(0.522533 0.0771652 -7.31381e-20)
(1.0391 0.141278 2.72933e-20)
(1.25838 0.187694 1.4025e-20)
(1.3204 0.217251 1.27914e-19)
(1.31598 0.238524 1.36819e-20)
(1.27605 0.258952 -2.10684e-19)
(1.21989 0.270948 7.16498e-20)
(1.16611 0.276271 0)
(1.11181 0.27331 -1.86832e-19)
(1.05925 0.261523 1.6602e-19)
(1.01584 0.240861 -2.79835e-19)
(0.986734 0.218477 1.3109e-19)
(0.968057 0.197707 -8.45973e-20)
(0.949017 0.175414 1.90793e-19)
(0.895789 0.150603 0)
(0.762266 0.115715 -6.93731e-20)
(0.523351 0.0800055 0)
(0.25919 0.0402374 3.83095e-19)
(0.068878 0.0116781 -9.05841e-19)
(-0.0116904 -0.00133356 5.67892e-19)
(0.522249 0.102329 2.14109e-19)
(1.06146 0.193517 -9.34391e-20)
(1.28205 0.24649 -1.85559e-20)
(1.33831 0.277457 0)
(1.3283 0.298283 -9.35667e-20)
(1.28212 0.316465 1.15322e-19)
(1.22026 0.325656 -7.7435e-20)
(1.16064 0.327608 0)
(1.10065 0.320839 1.32927e-19)
(1.04244 0.304303 -1.16711e-19)
(0.995567 0.279151 2.42498e-19)
(0.964364 0.253887 0)
(0.942129 0.230247 -1.79833e-19)
(0.918042 0.204943 1.01429e-19)
(0.864217 0.173123 2.54649e-19)
(0.734529 0.138629 -2.24127e-19)
(0.507067 0.0956672 3.5538e-19)
(0.257384 0.0506977 -7.88159e-19)
(0.0754168 0.0158232 4.97616e-19)
(-0.00797408 -0.00144208 -6.22305e-19)
(0.512295 0.130215 -8.18582e-20)
(1.07135 0.244549 5.89649e-20)
(1.29574 0.306995 -6.06778e-20)
(1.34832 0.340375 1.17883e-19)
(1.33393 0.360265 -1.09077e-19)
(1.28285 0.375991 3.70618e-20)
(1.21655 0.382087 3.33183e-21)
(1.15297 0.379443 -1.51928e-19)
(1.09033 0.367121 -1.40218e-19)
(1.0312 0.344158 -2.51276e-19)
(0.981946 0.315369 -5.21599e-19)
(0.944403 0.287781 -1.60267e-19)
(0.919544 0.262361 2.26595e-21)
(0.895724 0.235874 -3.46697e-19)
(0.840085 0.204696 -5.60577e-21)
(0.711398 0.159964 3.26181e-19)
(0.496649 0.111695 -9.82909e-20)
(0.263041 0.062919 -5.69713e-20)
(0.088101 0.0217848 0)
(-0.0010912 -0.000311703 1.32424e-18)
(0.497425 0.154551 0)
(1.06985 0.292802 -8.11369e-21)
(1.30051 0.365692 -1.1682e-20)
(1.35116 0.402762 -1.24384e-20)
(1.33351 0.422721 1.06434e-19)
(1.27885 0.436041 -8.55751e-20)
(1.20963 0.438443 8.50813e-20)
(1.14342 0.430965 2.49442e-19)
(1.07706 0.413915 -7.80696e-20)
(1.01126 0.387124 1.24441e-19)
(0.953465 0.353735 2.80471e-19)
(0.917304 0.322216 3.49135e-19)
(0.892868 0.296015 -2.09967e-19)
(0.863914 0.267835 3.75363e-19)
(0.810514 0.22946 -2.9724e-19)
(0.691303 0.187605 0)
(0.492314 0.132756 -7.46519e-19)
(0.274018 0.0778078 1.0047e-18)
(0.103477 0.0303509 7.50073e-20)
(0.00722017 0.0021737 -1.40058e-18)
(0.482521 0.176865 -6.52654e-21)
(1.06358 0.339715 2.88209e-20)
(1.29982 0.423513 8.52469e-20)
(1.349 0.464155 -1.05785e-19)
(1.32874 0.483678 8.71576e-20)
(1.27145 0.494617 -8.39719e-20)
(1.20001 0.493739 1.69826e-19)
(1.13135 0.481974 -7.53449e-20)
(1.06222 0.460059 -3.15402e-19)
(0.99579 0.428347 1.01644e-22)
(0.940766 0.390922 -3.04564e-19)
(0.89839 0.358091 -3.75558e-19)
(0.867258 0.330074 2.3153e-19)
(0.841652 0.299439 -1.35e-19)
(0.787649 0.263935 3.22944e-19)
(0.671083 0.210791 0)
(0.483628 0.153466 -4.63301e-19)
(0.280095 0.092654 6.84226e-19)
(0.115491 0.0396018 1.29557e-18)
(0.0145009 0.00523137 -1.52395e-18)
(0.469046 0.197656 -1.80502e-20)
(1.05376 0.384263 1.07277e-21)
(1.29467 0.478404 -6.16054e-20)
(1.34287 0.522718 1.09525e-19)
(1.32063 0.542569 1.16102e-20)
(1.2612 0.551686 -1.65264e-19)
(1.18803 0.54764 -9.84146e-20)
(1.11795 0.531604 -9.59674e-20)
(1.04735 0.505542 -1.77197e-19)
(0.977147 0.469644 2.85721e-19)
(0.913316 0.42777 3.08421e-19)
(0.869116 0.391128 5.96166e-19)
(0.841442 0.362326 0)
(0.811463 0.330808 6.269e-21)
(0.759962 0.287186 -8.85776e-19)
(0.652156 0.238903 2.06983e-19)
(0.479662 0.17443 1.00177e-18)
(0.287486 0.108979 -2.95494e-19)
(0.126119 0.0500022 6.14977e-19)
(0.0206023 0.00863362 -5.13655e-20)
(0.457657 0.217062 7.96132e-21)
(1.04319 0.427331 2.69675e-20)
(1.28698 0.531732 -3.09134e-20)
(1.33408 0.579256 1.29594e-19)
(1.30997 0.598765 -1.83576e-19)
(1.24877 0.605975 1.65108e-19)
(1.1745 0.599096 1.02013e-19)
(1.10331 0.579306 2.87226e-19)
(1.03088 0.549204 3.57162e-19)
(0.958555 0.50949 -3.28415e-19)
(0.89621 0.465668 0)
(0.850666 0.426593 -2.24754e-19)
(0.816994 0.393127 2.58042e-19)
(0.790021 0.359258 3.24405e-19)
(0.73903 0.319709 -1.87603e-19)
(0.633294 0.259691 -4.56864e-19)
(0.469457 0.19482 -1.36285e-19)
(0.288511 0.124577 -1.67008e-21)
(0.131804 0.0591475 0)
(0.0245218 0.0115093 0)
(0.448773 0.235851 -5.61877e-20)
(1.03208 0.468379 0)
(1.2771 0.582173 -1.70831e-20)
(1.32303 0.632649 -6.10499e-21)
(1.29742 0.652296 2.06911e-19)
(1.23477 0.65789 -5.25655e-20)
(1.15957 0.648342 1.03902e-19)
(1.08732 0.625019 -1.94662e-19)
(1.01319 0.591659 2.70879e-19)
(0.938163 0.548775 -1.06777e-19)
(0.870595 0.499839 1.76303e-19)
(0.823172 0.456705 7.11847e-19)
(0.792893 0.423115 1.40706e-20)
(0.763044 0.388152 -3.3819e-19)
(0.711312 0.340079 6.25148e-19)
(0.613211 0.286071 4.07004e-21)
(0.459952 0.213487 1.45805e-19)
(0.284824 0.138211 -6.9542e-19)
(0.132006 0.0663895 7.17166e-19)
(0.0261856 0.0134756 -8.45038e-19)
(0.442249 0.253975 6.25343e-23)
(1.02122 0.507814 0)
(1.26603 0.63076 0)
(1.31063 0.683845 -8.92797e-21)
(1.28355 0.702996 -6.28854e-20)
(1.21967 0.70677 7.8921e-20)
(1.14395 0.69479 -1.94718e-19)
(1.07099 0.668627 0)
(0.995726 0.632079 -3.99018e-19)
(0.91931 0.585827 4.74922e-19)
(0.852118 0.53552 5.00811e-19)
(0.803678 0.490661 -2.61137e-19)
(0.770232 0.451254 -3.14588e-19)
(0.740999 0.412509 7.37036e-19)
(0.689822 0.370368 -2.22044e-19)
(0.592604 0.303268 -2.65025e-19)
(0.444336 0.230969 -1.58562e-19)
(0.278638 0.148765 -7.49781e-19)
(0.128816 0.0710542 1.09588e-19)
(0.0262055 0.0144003 9.11682e-19)
(0.437347 0.272818 -3.08621e-20)
(1.01077 0.545552 -3.67336e-20)
(1.25404 0.676612 2.28136e-20)
(1.29709 0.731913 1.54041e-22)
(1.26881 0.750997 -6.00864e-20)
(1.20399 0.753149 1.32042e-19)
(1.12784 0.738849 0)
(1.05437 0.709956 1.17093e-19)
(0.977637 0.670988 -9.23285e-20)
(0.898148 0.622451 7.91495e-19)
(0.82659 0.567974 -1.14107e-19)
(0.776821 0.517518 1.29488e-19)
(0.745291 0.477746 0)
(0.712066 0.4386 -3.98755e-19)
(0.661257 0.385557 4.82381e-19)
(0.570086 0.326316 0)
(0.431285 0.244902 -3.41771e-19)
(0.268688 0.158104 1.00452e-18)
(0.123549 0.073222 1.18597e-19)
(0.0245116 0.0146891 -1.12088e-18)
(0.433652 0.291186 -8.08252e-20)
(1.00073 0.581601 1.01632e-19)
(1.24167 0.72045 0)
(1.28309 0.777796 -4.95328e-22)
(1.25357 0.796258 0)
(1.18792 0.796567 -1.67064e-19)
(1.11167 0.780061 0)
(1.03786 0.749166 0)
(0.96009 0.708169 -1.21027e-19)
(0.879422 0.657108 -7.52087e-19)
(0.807573 0.599979 -9.24474e-19)
(0.755853 0.547362 1.50711e-19)
(0.72045 0.500921 5.42529e-19)
(0.688934 0.457392 4.38422e-19)
(0.638606 0.411516 -1.54719e-18)
(0.548593 0.337268 -6.2087e-19)
(0.411457 0.257212 3.63546e-19)
(0.256188 0.163289 0)
(0.115873 0.0738965 1.01876e-18)
(0.0218453 0.0142381 -1.20691e-18)
(0.431169 0.308664 9.97227e-20)
(0.991514 0.616236 -1.20758e-19)
(1.22915 0.761844 0)
(1.26863 0.820756 -1.10977e-20)
(1.23809 0.839001 6.3742e-21)
(1.17186 0.837644 0)
(1.09559 0.818995 5.99243e-20)
(1.0217 0.786035 8.02192e-20)
(0.94286 0.743501 -2.28397e-19)
(0.859129 0.690849 9.98786e-20)
(0.781927 0.630237 0)
(0.727908 0.572253 6.25537e-19)
(0.693159 0.524009 5.6051e-21)
(0.65781 0.479627 2.36394e-19)
(0.609246 0.419841 2.80788e-19)
(0.524764 0.354824 0)
(0.395437 0.264518 -5.93982e-19)
(0.242022 0.166447 1.16468e-18)
(0.107286 0.0731475 -1.23374e-18)
(0.0189185 0.0132462 2.59773e-18)
(0.429662 0.325225 0)
(0.982775 0.649043 0)
(1.2167 0.801227 -5.86962e-20)
(1.25426 0.861688 0)
(1.22263 0.879199 0)
(1.15591 0.875989 -1.45419e-19)
(1.07996 0.855311 6.14982e-20)
(1.00601 0.820851 1.77224e-20)
(0.926237 0.777383 -5.24776e-20)
(0.840778 0.72332 0)
(0.762649 0.660163 -1.4027e-19)
(0.705394 0.598843 -5.09985e-19)
(0.665839 0.543686 -6.12513e-19)
(0.633199 0.49235 -2.4591e-19)
(0.585869 0.44063 3.03921e-19)
(0.502964 0.358156 -7.16298e-19)
(0.37306 0.270674 1.27744e-18)
(0.226325 0.165852 2.68752e-21)
(0.0981159 0.0708579 -1.18316e-18)
(0.0163064 0.0119634 -1.75093e-19)
(0.428981 0.340898 0)
(0.975072 0.68075 -1.00974e-19)
(1.20452 0.83854 7.23312e-20)
(1.23987 0.900002 0)
(1.20737 0.917155 0)
(1.14043 0.912258 2.94914e-19)
(1.06482 0.88962 0)
(0.991006 0.853534 0)
(0.910291 0.809208 -4.98419e-19)
(0.822154 0.754482 1.36879e-19)
(0.738568 0.689373 -1.24416e-18)
(0.676979 0.622933 0)
(0.636968 0.563977 -6.65939e-19)
(0.598749 0.510415 1.02816e-20)
(0.55561 0.440223 -9.7659e-19)
(0.477814 0.369029 3.85355e-19)
(0.357003 0.269793 1.79343e-21)
(0.212387 0.163242 -1.34898e-18)
(0.0897804 0.0668547 6.36744e-19)
(0.0143171 0.0103881 1.87309e-19)
(0.428769 0.355849 0)
(0.967605 0.710488 -1.44611e-19)
(1.19257 0.87385 7.78688e-20)
(1.2259 0.936452 8.66399e-20)
(1.19247 0.952764 -1.95884e-20)
(1.12534 0.946024 3.17959e-20)
(1.05036 0.921574 -3.92073e-20)
(0.976631 0.884349 4.87047e-19)
(0.895003 0.839688 5.33171e-19)
(0.805054 0.784732 1.04093e-18)
(0.719781 0.717709 1.03379e-18)
(0.654764 0.647781 1.81377e-19)
(0.606787 0.582076 9.57451e-19)
(0.571917 0.517327 5.90105e-19)
(0.529481 0.454502 7.00489e-19)
(0.455492 0.361731 -4.21592e-19)
(0.336722 0.266922 -4.92835e-19)
(0.202831 0.154453 5.79171e-19)
(0.0887209 0.0613455 -3.42434e-19)
(0.0149004 0.0089212 6.04951e-19)
(0.428897 0.370138 2.08992e-19)
(0.961122 0.739403 2.26552e-19)
(1.18106 0.907407 4.68894e-20)
(1.2121 0.970552 1.66173e-20)
(1.17796 0.986394 2.846e-20)
(1.11094 0.977984 -8.19567e-20)
(1.03661 0.951778 3.83474e-20)
(0.963104 0.913292 -2.09223e-20)
(0.880532 0.868191 -6.18249e-19)
(0.788175 0.813179 -1.12931e-18)
(0.698055 0.745881 7.16382e-20)
(0.627155 0.673392 0)
(0.577016 0.602783 0)
(0.533885 0.534442 -3.08073e-19)
(0.492422 0.444419 -1.14702e-18)
(0.426174 0.361408 9.07775e-19)
(0.326017 0.250985 5.37692e-19)
(0.204255 0.139759 0)
(0.100015 0.0536078 1.09879e-18)
(0.024677 0.00903384 -6.5052e-19)
(0.429082 0.383815 -1.09808e-19)
(0.954568 0.766165 9.86042e-20)
(1.1698 0.93894 -1.12882e-19)
(1.19884 1.00291 -8.47657e-20)
(1.16397 1.01783 -6.07492e-21)
(1.09712 1.00764 -2.53705e-20)
(1.02367 0.979884 0)
(0.95025 0.94059 -6.11528e-19)
(0.866746 0.895459 7.6908e-20)
(0.772754 0.840911 0)
(0.680914 0.773239 0)
(0.606235 0.698049 1.15311e-19)
(0.546181 0.622723 1.54662e-19)
(0.503331 0.539444 -3.32367e-19)
(0.459657 0.455657 8.23881e-19)
(0.392733 0.334972 -9.88921e-19)
(0.306042 0.22643 -1.14887e-18)
(0.222303 0.111084 1.01639e-18)
(0.161161 0.0409541 -3.94091e-19)
(0.0897808 0.0243834 2.28914e-19)
(0.429274 0.396677 1.41385e-19)
(0.948877 0.792292 0)
(1.15898 0.968961 0)
(1.18581 1.03314 -2.19126e-20)
(1.15048 1.04753 1.77431e-20)
(1.08417 1.03577 -2.08847e-20)
(1.01158 1.00651 1.67503e-19)
(0.938314 0.966262 6.27113e-19)
(0.85378 0.920881 1.11962e-18)
(0.757662 0.866619 -8.45315e-20)
(0.661282 0.799534 1.746e-19)
(0.580537 0.724721 -1.02874e-18)
(0.517754 0.646589 -1.02458e-18)
(0.462226 0.562599 -1.7808e-19)
(0.408651 0.44143 0)
(0.351628 0.329772 -5.88606e-21)
(0.282648 0.168153 6.3083e-19)
(0.223647 0.0356017 -1.08378e-18)
(0.172333 -0.0676868 8.32016e-19)
(0.0746877 -0.0417616 7.08417e-19)
(0.429302 0.409194 -3.13544e-19)
(0.942583 0.81597 -1.41935e-19)
(1.14817 0.996915 8.51396e-21)
(1.17331 1.06194 5.33649e-20)
(1.13755 1.07546 0)
(1.07168 1.06214 -1.0156e-19)
(0.999951 1.03168 -2.38265e-19)
(0.926476 0.990957 -1.45653e-21)
(0.840725 0.945711 -5.86794e-19)
(0.742762 0.892097 -8.28704e-20)
(0.645026 0.825913 7.6969e-20)
(0.561401 0.750529 9.03631e-19)
(0.486736 0.67104 1.0002e-18)
(0.427271 0.570731 1.73123e-19)
(0.369142 0.465351 8.81633e-19)
(0.279996 0.288751 0)
(0.17655 0.155038 0)
(0.0274265 0.234813 7.18056e-19)
(-0.0419872 0.703544 -1.738e-20)
(0.0031713 1.6731 -8.11546e-19)
(0.42932 0.421088 1.74001e-19)
(0.937229 0.839584 3.96222e-19)
(1.13778 1.02395 -5.40904e-19)
(1.16094 1.08916 2.6043e-19)
(1.12508 1.10243 -2.7054e-21)
(1.06004 1.08799 -5.64887e-20)
(0.989101 1.05656 0)
(0.915416 1.01538 -5.22713e-19)
(0.828241 0.970201 0)
(0.727987 0.917081 1.16992e-18)
(0.625644 0.85217 -9.34605e-20)
(0.534945 0.779798 1.04794e-19)
(0.457541 0.700875 1.14192e-18)
(0.382269 0.611772 -3.741e-19)
(0.280328 0.456815 -4.49042e-19)
(0.196481 0.353323 0)
(0.0826028 0.553305 0)
(0.0233372 1.45128 0)
(0.0562115 2.50985 -4.16709e-19)
(0.069531 2.92648 -2.51278e-19)
(0.4289 0.432401 0)
(0.931238 0.860692 0)
(1.1275 1.04903 1.98523e-19)
(1.14924 1.11509 -2.10047e-19)
(1.11333 1.12777 8.32726e-20)
(1.04899 1.11233 6.13168e-20)
(0.978758 1.08034 2.98714e-20)
(0.904433 1.03925 -2.32572e-20)
(0.815712 0.994569 8.24807e-20)
(0.7135 0.942548 -1.34278e-18)
(0.610056 0.879684 1.69654e-19)
(0.516925 0.808886 9.01134e-19)
(0.426121 0.733097 -1.13794e-18)
(0.340378 0.622024 -1.24602e-18)
(0.252557 0.527835 4.20043e-19)
(0.156166 0.715329 0)
(0.085181 1.6949 5.82833e-19)
(0.0972932 2.72542 6.51279e-19)
(0.102413 3.08558 -7.34692e-19)
(0.0908603 3.20933 8.01055e-19)
(0.42838 0.443279 0)
(0.926277 0.881964 3.5696e-19)
(1.11777 1.07336 -4.93982e-20)
(1.13777 1.13948 3.02333e-19)
(1.10208 1.15217 -8.74084e-20)
(1.03877 1.13614 0)
(0.969115 1.10376 0)
(0.894233 1.0627 0)
(0.803994 1.01847 4.66974e-19)
(0.699911 0.967239 6.22876e-20)
(0.591807 0.905619 0)
(0.491294 0.839387 -8.96298e-19)
(0.401048 0.766205 0)
(0.293769 0.677231 8.86917e-19)
(0.203719 0.762311 -6.01449e-19)
(0.143675 1.56518 -4.80543e-19)
(0.139322 2.72311 -1.12611e-18)
(0.154507 3.12545 -6.0587e-19)
(0.132755 3.25175 -8.616e-19)
(0.11678 3.28692 7.61733e-19)
(0.426794 0.452801 -1.26538e-19)
(0.920527 0.900415 1.70082e-20)
(1.10816 1.09572 -5.54201e-20)
(1.12704 1.16273 -2.3162e-19)
(1.09164 1.17501 0)
(1.02911 1.15844 0)
(0.959851 1.1261 0)
(0.884006 1.08563 3.59655e-20)
(0.792271 1.04231 -5.90126e-19)
(0.686361 0.992611 0)
(0.577991 0.934122 0)
(0.478202 0.871235 0)
(0.364923 0.796374 0)
(0.306444 0.785952 6.47449e-19)
(0.241592 1.26323 1.60169e-18)
(0.199064 2.50583 4.74015e-19)
(0.209058 3.09926 9.67026e-19)
(0.197246 3.2713 -7.43721e-19)
(0.160466 3.32427 2.66012e-19)
(0.141305 3.33525 0)
(0.424935 0.461436 1.30884e-19)
(0.915065 0.919122 -7.98656e-19)
(1.09875 1.11796 -2.15704e-19)
(1.11642 1.18528 -4.64209e-20)
(1.08156 1.19774 2.09204e-20)
(1.01995 1.18091 -6.01435e-20)
(0.950904 1.14854 -4.73294e-21)
(0.874332 1.10851 -4.01533e-19)
(0.781351 1.06609 0)
(0.674408 1.0176 -7.88636e-20)
(0.562522 0.960322 7.17387e-20)
(0.454831 0.901086 0)
(0.365668 0.856482 0)
(0.299822 1.03124 -8.12916e-19)
(0.235987 1.96793 1.03786e-19)
(0.228932 2.99003 -3.63198e-19)
(0.254717 3.27648 7.75115e-19)
(0.235003 3.35769 5.8725e-19)
(0.181665 3.37766 -8.85236e-19)
(0.162452 3.38677 4.44913e-19)
(0.422042 0.469565 2.59272e-19)
(0.90787 0.935881 7.81167e-19)
(1.08862 1.13979 2.57833e-19)
(1.10601 1.20866 0)
(1.07171 1.22065 0)
(1.01064 1.20322 4.76011e-20)
(0.941589 1.17098 7.59953e-20)
(0.864045 1.13182 3.58165e-19)
(0.770124 1.09071 2.31636e-20)
(0.661999 1.04417 1.01283e-18)
(0.551413 0.990928 -1.19157e-18)
(0.444031 0.934917 0)
(0.368016 0.942338 0)
(0.321582 1.39546 -5.50347e-19)
(0.288334 2.62893 -6.7224e-19)
(0.325243 3.20955 0)
(0.342888 3.34549 -8.66077e-19)
(0.269461 3.39631 -1.21432e-20)
(0.20278 3.42914 5.86896e-19)
(0.178398 3.44627 -2.49726e-19)
(0.418958 0.478334 -4.94542e-19)
(0.901167 0.955663 -3.75602e-19)
(1.07823 1.16371 0)
(1.09482 1.23304 0)
(1.06122 1.24523 0)
(1.00081 1.22724 0)
(0.931702 1.19467 -8.8785e-20)
(0.853687 1.15596 3.11109e-19)
(0.759249 1.11601 0)
(0.651468 1.07099 -9.22351e-19)
(0.539106 1.01833 2.13556e-18)
(0.439483 0.976653 8.6656e-20)
(0.379127 1.08878 1.12942e-19)
(0.346699 1.90319 8.89867e-19)
(0.339999 2.9785 -4.90483e-19)
(0.377102 3.31185 0)
(0.351003 3.40983 2.56651e-19)
(0.269987 3.48139 7.28106e-20)
(0.220853 3.5229 4.72594e-20)
(0.18663 3.51686 9.7507e-20)
(0.415048 0.488084 2.34955e-19)
(0.892547 0.973673 -3.85434e-19)
(1.06686 1.18727 0)
(1.08343 1.25857 -6.85879e-20)
(1.05032 1.27012 2.35816e-19)
(0.990178 1.25116 0)
(0.921024 1.21847 0)
(0.842436 1.18063 -5.37407e-19)
(0.747957 1.14219 -5.89652e-20)
(0.640088 1.09945 9.01273e-19)
(0.5271 1.0503 -1.01617e-18)
(0.44787 1.03132 5.80961e-19)
(0.402061 1.3189 0)
(0.384317 2.34433 -4.7042e-19)
(0.404887 3.191 3.06276e-19)
(0.451647 3.40604 2.12786e-19)
(0.424809 3.4818 0)
(0.366805 3.53171 1.74649e-20)
(0.317597 3.5448 -2.16804e-19)
(0.237594 3.48244 -3.65849e-20)
(0.411428 0.498576 -4.67522e-19)
(0.885065 0.9962 5.53115e-19)
(1.05532 1.21345 3.86585e-19)