/*--------------------------------*- C++ -*----------------------------------*\
  =========                 |
  \\      /  F ield         | OpenFOAM: The Open Source CFD Toolbox
   \\    /   O peration     | Website:  https://openfoam.org
    \\  /    A nd           | Version:  6
     \\/     M anipulation  |
\*---------------------------------------------------------------------------*/
FoamFile
{
    version     2.0;
    format      ascii;
    class       volScalarField;
    location    "15";
    object      p;
}
// * * * * * * * * * * * * * * * * * * * * * * * * * * * * * * * * * * * * * //

dimensions      [0 2 -2 0 0 0 0];

internalField   nonuniform List<scalar> 
8800
(
0.410323
0.361031
0.323094
0.295051
0.274912
0.26034
0.249751
0.242222
0.237335
0.235175
0.236225
0.240198
0.246674
0.255859
0.268418
0.285609
0.309388
0.342411
0.385288
0.437799
0.244759
0.251119
0.260296
0.263878
0.261327
0.2553
0.248423
0.24226
0.237467
0.234514
0.234053
0.236347
0.240649
0.246447
0.253275
0.260109
0.264832
0.264593
0.257847
0.248901
0.21816
0.224443
0.229049
0.23304
0.236128
0.237234
0.236272
0.234139
0.232007
0.230929
0.231678
0.233878
0.236485
0.238433
0.238607
0.236537
0.232941
0.22874
0.22383
0.220093
0.213776
0.216583
0.219307
0.221617
0.223509
0.225224
0.226386
0.226766
0.226578
0.226407
0.226915
0.227703
0.228052
0.22757
0.226268
0.22459
0.222644
0.220111
0.217561
0.215985
0.208591
0.21004
0.212081
0.214393
0.216278
0.217646
0.218788
0.219795
0.220591
0.221159
0.221442
0.221376
0.22094
0.220182
0.219204
0.217766
0.215749
0.213513
0.211971
0.211189
0.203728
0.204646
0.206146
0.208124
0.210157
0.211957
0.213395
0.214542
0.215502
0.216269
0.216586
0.216446
0.215951
0.215078
0.21374
0.211995
0.210089
0.208364
0.207326
0.206841
0.199224
0.199849
0.201223
0.203118
0.205076
0.207094
0.209022
0.210584
0.211716
0.212503
0.212977
0.21293
0.212256
0.210973
0.209303
0.207567
0.205787
0.204172
0.203312
0.203019
0.195742
0.196093
0.197205
0.198802
0.200402
0.201888
0.203325
0.204833
0.206273
0.207423
0.207906
0.207715
0.207066
0.206213
0.2052
0.203931
0.202495
0.201172
0.200553
0.200421
0.193654
0.193846
0.194587
0.195789
0.197124
0.198546
0.200028
0.201415
0.202706
0.203851
0.204576
0.204733
0.204429
0.203723
0.202803
0.201816
0.200781
0.199913
0.199551
0.199487
0.191797
0.191925
0.192318
0.192997
0.19387
0.194919
0.196096
0.197479
0.198937
0.200301
0.201235
0.201561
0.20145
0.20114
0.200619
0.200124
0.199663
0.199304
0.199134
0.199083
0.189142
0.189234
0.189491
0.189923
0.190531
0.191367
0.192436
0.193698
0.195133
0.19665
0.197884
0.1986
0.198891
0.198892
0.198835
0.198707
0.198559
0.198423
0.198333
0.198292
0.185717
0.185779
0.186022
0.186463
0.187056
0.187853
0.188954
0.190338
0.191978
0.193789
0.195371
0.1964
0.196961
0.197224
0.197348
0.197382
0.197342
0.197265
0.19722
0.197195
0.181831
0.181864
0.182095
0.182576
0.183245
0.184005
0.185166
0.186642
0.188472
0.190625
0.192655
0.194138
0.195104
0.195724
0.196088
0.196258
0.196275
0.196246
0.196243
0.19623
0.177618
0.177641
0.177854
0.178337
0.179024
0.180089
0.181329
0.18301
0.185167
0.18779
0.190372
0.192352
0.193722
0.194594
0.195138
0.195479
0.195601
0.195655
0.19569
0.195682
0.173012
0.173047
0.173257
0.173756
0.17453
0.175616
0.177094
0.179085
0.181688
0.184927
0.188202
0.190777
0.192625
0.193877
0.194674
0.195167
0.195438
0.195588
0.195654
0.195644
0.167788
0.167818
0.168064
0.168597
0.169462
0.170717
0.172478
0.174892
0.178091
0.182124
0.186249
0.189547
0.1919
0.193572
0.194681
0.195389
0.195821
0.196066
0.19616
0.196148
0.161729
0.161764
0.162064
0.162687
0.163695
0.165194
0.167338
0.170316
0.174293
0.179336
0.184521
0.188678
0.191745
0.19386
0.195301
0.196245
0.196838
0.197173
0.197297
0.197281
0.154589
0.154632
0.154997
0.155781
0.15702
0.158855
0.161529
0.165251
0.170232
0.17656
0.183074
0.188323
0.192145
0.19483
0.196659
0.197871
0.198639
0.199073
0.199226
0.199204
0.146088
0.146147
0.146613
0.147582
0.149161
0.151501
0.154871
0.159561
0.165838
0.173791
0.181958
0.188511
0.193275
0.196621
0.198913
0.200437
0.201403
0.201945
0.202138
0.202111
0.135855
0.135937
0.136538
0.137785
0.139811
0.142819
0.147117
0.153092
0.161045
0.171045
0.181238
0.189369
0.195266
0.199414
0.202259
0.204159
0.205367
0.206038
0.206273
0.206237
0.123333
0.123444
0.124233
0.125877
0.128536
0.132441
0.138021
0.145705
0.155807
0.168363
0.181028
0.19106
0.198318
0.203422
0.206931
0.209283
0.210781
0.211608
0.211897
0.211851
0.107727
0.107875
0.108941
0.111177
0.114744
0.119939
0.127273
0.137215
0.15008
0.165813
0.18146
0.193753
0.202627
0.208878
0.213189
0.216093
0.217952
0.218967
0.219317
0.219259
0.0878846
0.0880961
0.0895947
0.0927279
0.097636
0.104689
0.114464
0.127451
0.143872
0.163501
0.18268
0.197616
0.208393
0.216016
0.221309
0.224902
0.227223
0.228494
0.228915
0.228838
0.062006
0.0623394
0.0645655
0.0691538
0.0761845
0.0860367
0.0993196
0.116403
0.13731
0.161603
0.184862
0.202815
0.215789
0.225042
0.231543
0.236018
0.238938
0.240545
0.24107
0.240965
0.0268966
0.0275057
0.0312224
0.0385617
0.0492234
0.0634839
0.0817937
0.104264
0.130673
0.160377
0.188195
0.209488
0.22493
0.236082
0.244064
0.249692
0.253438
0.255511
0.256165
0.25602
-0.0234716
-0.0216365
-0.0140523
-0.00107647
0.0159249
0.0369748
0.0622112
0.0914826
0.124366
0.160097
0.19282
0.217673
0.235792
0.249081
0.258847
0.265967
0.270913
0.27376
0.274645
0.274441
-0.0983598
-0.0888459
-0.0717001
-0.0486547
-0.022162
0.00787661
0.0415387
0.0786282
0.118701
0.161031
0.19914
0.228006
0.249273
0.265218
0.277358
0.286738
0.293654
0.298028
0.299643
0.299689
-0.177325
-0.157723
-0.13006
-0.0966272
-0.0603878
-0.0212869
0.0208434
0.0659059
0.113569
0.163246
0.207791
0.241762
0.267185
0.286714
0.302058
0.314318
0.324109
0.331175
0.334044
0.33427
-0.242147
-0.218862
-0.183187
-0.141334
-0.0965512
-0.0490113
0.00121928
0.0539713
0.108942
0.165571
0.216011
0.254421
0.283271
0.305565
0.323223
0.337407
0.348675
0.356812
0.359718
0.360144
-0.293831
-0.268274
-0.227703
-0.180009
-0.128703
-0.0742907
-0.0170903
0.0425609
0.104214
0.167199
0.222852
0.264933
0.296299
0.320344
0.339172
0.354179
0.365997
0.374352
0.377694
0.378194
-0.335906
-0.309349
-0.265416
-0.21326
-0.156852
-0.0969203
-0.0338985
0.0317478
0.0993175
0.167986
0.228171
0.2732
0.306377
0.33149
0.350921
0.366224
0.37816
0.386485
0.389984
0.390472
-0.371685
-0.344606
-0.298238
-0.242474
-0.181872
-0.117333
-0.0493519
0.0214872
0.0943374
0.168099
0.232376
0.280047
0.314768
0.340713
0.360506
0.375854
0.387677
0.39588
0.399483
0.399985
-0.403205
-0.375856
-0.32759
-0.268914
-0.204788
-0.136263
-0.0638809
0.0116056
0.0892871
0.167842
0.235992
0.28609
0.322175
0.348798
0.368847
0.38421
0.39594
0.404016
0.407624
0.408132
-0.431928
-0.404366
-0.354553
-0.293377
-0.226207
-0.154191
-0.0779201
0.00180783
0.0839583
0.167019
0.238848
0.291356
0.328845
0.356214
0.376601
0.392052
0.403746
0.411673
0.415268
0.415792
-0.458713
-0.430936
-0.379792
-0.316455
-0.24667
-0.171599
-0.0918484
-0.00826392
0.0780281
0.165438
0.241062
0.296142
0.335183
0.363423
0.384239
0.39985
0.411546
0.419379
0.422897
0.423461
-0.484219
-0.456168
-0.403831
-0.338563
-0.266474
-0.188696
-0.105846
-0.0187562
0.0714769
0.163181
0.242691
0.30053
0.341334
0.370619
0.392001
0.407876
0.419639
0.427396
0.430814
0.431369
-0.508703
-0.480381
-0.426974
-0.359991
-0.285855
-0.20567
-0.120022
-0.0296876
0.0642451
0.160124
0.243624
0.304498
0.347349
0.377917
0.400041
0.416297
0.428205
0.435925
0.43921
0.439717
-0.532497
-0.503772
-0.449429
-0.380937
-0.304981
-0.222638
-0.13446
-0.0411887
0.0561791
0.156129
0.243767
0.307973
0.353193
0.385332
0.408415
0.425199
0.437338
0.445065
0.448208
0.448617
-0.555646
-0.526537
-0.471305
-0.401462
-0.323895
-0.239647
-0.149232
-0.0533067
0.0472542
0.151135
0.242991
0.310819
0.358775
0.392815
0.417123
0.434624
0.447103
0.454875
0.457885
0.458143
-0.578212
-0.548704
-0.492655
-0.421604
-0.342624
-0.25671
-0.164313
-0.066009
0.0374693
0.145067
0.241147
0.312869
0.36397
0.4003
0.426122
0.444535
0.457459
0.465293
0.468171
0.468279
-0.600226
-0.570304
-0.513476
-0.44136
-0.361151
-0.273773
-0.179645
-0.0792574
0.0268277
0.137874
0.238098
0.313896
0.368554
0.407639
0.435339
0.45489
0.468373
0.476276
0.478983
0.478938
-0.621706
-0.591316
-0.533746
-0.460691
-0.379411
-0.290782
-0.195172
-0.0929925
0.0153809
0.129547
0.233732
0.313677
0.37221
0.414577
0.444654
0.465634
0.479744
0.487649
0.490092
0.489898
-0.642495
-0.611677
-0.553422
-0.479559
-0.397358
-0.307667
-0.210815
-0.107117
0.00320624
0.120118
0.227965
0.312013
0.374638
0.420816
0.453944
0.476781
0.491544
0.499263
0.50132
0.50096
-0.662562
-0.631349
-0.572472
-0.497906
-0.414924
-0.324349
-0.226469
-0.121535
-0.00959858
0.109639
0.220763
0.308713
0.375497
0.425919
0.462947
0.488467
0.503984
0.510985
0.512302
0.511769
-0.681952
-0.650297
-0.590866
-0.515688
-0.432038
-0.340738
-0.242038
-0.13613
-0.0229187
0.0982087
0.212116
0.303654
0.374429
0.429272
0.471093
0.500777
0.517886
0.523292
0.522687
0.521909
-0.700524
-0.668499
-0.608554
-0.532842
-0.448642
-0.356754
-0.257423
-0.150784
-0.0366164
0.0859594
0.202088
0.296766
0.371165
0.430158
0.477332
0.513112
0.534485
0.539064
0.533872
0.530049
-0.718355
-0.685967
-0.625544
-0.549398
-0.464769
-0.372444
-0.272677
-0.165557
-0.0507602
0.0728248
0.190558
0.287815
0.365432
0.427781
0.480057
0.523519
0.552947
0.562787
0.553389
0.545485
-0.73539
-0.702759
-0.641976
-0.565532
-0.480697
-0.388132
-0.288202
-0.180937
-0.065911
0.0581136
0.176791
0.275886
0.356442
0.420836
0.476066
0.52663
0.563392
0.57379
0.564311
0.548247
-0.75153
-0.718861
-0.657705
-0.581045
-0.496213
-0.403532
-0.303779
-0.196592
-0.0817298
0.0421627
0.161035
0.260781
0.343925
0.409039
0.461004
0.51153
0.546419
0.543727
0.482852
0.447517
-0.766672
-0.734916
-0.672287
-0.595443
-0.510746
-0.4182
-0.319163
-0.212267
-0.0979445
0.0251908
0.143419
0.242395
0.327276
0.393569
0.434375
0.468419
0.486094
0.448192
0.380508
0.337252
-0.807266
-0.750128
-0.685675
-0.609467
-0.524971
-0.432944
-0.334251
-0.228061
-0.114723
0.00696387
0.123639
0.220647
0.304269
0.375754
0.392447
0.397336
0.376017
0.31989
0.244761
0.203575
-0.779755
-0.762097
-0.705404
-0.630642
-0.546098
-0.454792
-0.357246
-0.252451
-0.141108
-0.0224783
0.0900982
0.182887
0.257936
0.324711
0.328511
0.221537
0.124339
0.0590407
-0.0108377
0.0318774
-0.808211
-0.777921
-0.720718
-0.645865
-0.561928
-0.471277
-0.37401
-0.270348
-0.160753
-0.0448335
0.0636652
0.152089
0.218433
0.25294
0.203571
0.0537341
-0.0715749
-0.154344
-0.248814
-0.181434
-0.82951
-0.796999
-0.738195
-0.663188
-0.579632
-0.489326
-0.392574
-0.290182
-0.182657
-0.0698775
0.0336816
0.116047
0.171768
0.172587
0.0541892
-0.135535
-0.291819
-0.400827
-0.515653
-0.462609
-0.84964
-0.816248
-0.756336
-0.680951
-0.597492
-0.507542
-0.41162
-0.310662
-0.205349
-0.096064
0.00181563
0.0769016
0.117395
0.0766532
-0.109801
-0.33561
-0.538851
-0.714375
-0.867028
-0.815689
-0.868991
-0.835479
-0.775
-0.699311
-0.615903
-0.526388
-0.431411
-0.332022
-0.229095
-0.123793
-0.0321827
0.0348909
0.055943
-0.0293495
-0.274775
-0.535537
-0.785355
-1.00116
-1.27554
-1.3713
-0.888239
-0.855073
-0.794416
-0.718572
-0.635227
-0.546123
-0.452051
-0.35422
-0.253761
-0.152747
-0.0675788
-0.00946415
-0.00880197
-0.154784
-0.428034
-0.713481
-0.986296
-1.21399
-1.39929
-1.62639
-0.90812
-0.875358
-0.814797
-0.738993
-0.655839
-0.567238
-0.474189
-0.378032
-0.280458
-0.184161
-0.105987
-0.0582146
-0.0869685
-0.293072
-0.572817
-0.861663
-1.11661
-1.26852
-1.31037
-1.33149
-0.928855
-0.896493
-0.836162
-0.760563
-0.677756
-0.58981
-0.497998
-0.403787
-0.309651
-0.218459
-0.148162
-0.112863
-0.177295
-0.426047
-0.708425
-0.977107
-1.18293
-1.25288
-1.26937
-1.27039
-0.950652
-0.918528
-0.858452
-0.78315
-0.700814
-0.613713
-0.523322
-0.431421
-0.341131
-0.255551
-0.19374
-0.174746
-0.272622
-0.553902
-0.832593
-1.07754
-1.22584
-1.24567
-1.2473
-1.24643
-0.97326
-0.941392
-0.881573
-0.806618
-0.724879
-0.638772
-0.549985
-0.460737
-0.374515
-0.295508
-0.242013
-0.243859
-0.37337
-0.674314
-0.945222
-1.16222
-1.23165
-1.23948
-1.23692
-1.23544
-0.996417
-0.964779
-0.905294
-0.83075
-0.749689
-0.664744
-0.57774
-0.491329
-0.409619
-0.338012
-0.292705
-0.316456
-0.48816
-0.783482
-1.05058
-1.22388
-1.24566
-1.23939
-1.23505
-1.23254
-1.01938
-0.98825
-0.929236
-0.855188
-0.774869
-0.691248
-0.606162
-0.522692
-0.44603
-0.382233
-0.344963
-0.397592
-0.616223
-0.877758
-1.12827
-1.25859
-1.27221
-1.25926
-1.25047
-1.24787
-1.04163
-1.01124
-0.952865
-0.879375
-0.799921
-0.717658
-0.634689
-0.55431
-0.482481
-0.427274
-0.396616
-0.481652
-0.770829
-0.98376
-1.14648
-1.2535
-1.32608
-1.36848
-1.37387
-1.36779
-1.06267
-1.03302
-0.975464
-0.902585
-0.824133
-0.743206
-0.662558
-0.585379
-0.517155
-0.471659
-0.446765
-0.557042
-0.949969
-1.19907
-1.16754
-1.13221
-1.42228
-1.71775
-1.75856
-1.72641
-1.08115
-1.05259
-0.99611
-0.923972
-0.846489
-0.767083
-0.688615
-0.614355
-0.549349
-0.511371
-0.496626
-0.625348
-1.12427
-1.57943
-1.61702
-1.6066
-1.8026
-1.99183
-1.95363
-1.95128
-1.09588
-1.06882
-1.01367
-0.942421
-0.865857
-0.788119
-0.711444
-0.639855
-0.57844
-0.541593
-0.546122
-0.673437
-1.28256
-2.11075
-2.77938
-3.11118
-3.13486
-2.79357
-2.38446
-2.30791
-1.10554
-1.08033
-1.02686
-0.956479
-0.881009
-0.804692
-0.729937
-0.660442
-0.601395
-0.56141
-0.578797
-0.71986
-1.36014
-2.42013
-3.45568
-3.88099
-3.90926
-3.64671
-3.24328
-2.99797
-1.10878
-1.08565
-1.0342
-0.964711
-0.890276
-0.815429
-0.742697
-0.674707
-0.614827
-0.568391
-0.589248
-0.688655
-1.23234
-1.96196
-2.87144
-3.26018
-3.32384
-3.1746
-2.92576
-2.74582
-1.10387
-1.08327
-1.03369
-0.965248
-0.891933
-0.819119
-0.748622
-0.682064
-0.618311
-0.56093
-0.551865
-0.5056
-0.789029
-1.14232
-1.5045
-1.68404
-1.46952
-1.14003
-0.849867
-0.713013
-1.08776
-1.06968
-1.02284
-0.955876
-0.884446
-0.814238
-0.74709
-0.683182
-0.616163
-0.534984
-0.465756
-0.390998
-0.193688
0.0145035
0.397703
0.849448
1.26806
1.61768
1.81765
1.89208
-1.05857
-1.043
-0.999257
-0.934837
-0.866367
-0.800144
-0.738358
-0.680379
-0.619298
-0.518767
-0.399316
-0.252746
0.0766011
0.630351
1.3248
2.00092
2.51146
2.80027
2.93655
2.97053
-1.01457
-1.00145
-0.961115
-0.900782
-0.837017
-0.777103
-0.724263
-0.681262
-0.634911
-0.535996
-0.393044
-0.187268
0.119082
0.60552
1.21811
1.79888
2.204
2.44718
2.55395
2.58368
-0.952056
-0.941213
-0.906338
-0.853327
-0.797086
-0.74638
-0.706768
-0.685234
-0.681218
-0.652475
-0.566887
-0.337235
0.0227027
0.357984
0.861184
1.291
1.60754
1.7973
1.89039
1.9181
-0.874308
-0.86566
-0.838269
-0.794604
-0.748625
-0.70976
-0.687648
-0.700519
-0.778968
-0.951731
-1.10027
-0.80595
-0.306593
0.0265375
0.441706
0.786172
1.05164
1.21269
1.29188
1.30478
-0.786299
-0.779796
-0.759069
-0.726268
-0.69203
-0.665703
-0.661276
-0.713169
-0.914259
-1.40756
-1.88956
-1.54119
-0.909929
-0.455753
-0.0232899
0.317063
0.542275
0.663148
0.715836
0.728173
-0.680714
-0.677679
-0.66496
-0.643599
-0.621164
-0.605786
-0.612259
-0.679459
-0.917934
-1.51425
-2.04899
-1.72069
-1.12625
-0.630315
-0.215729
0.0733501
0.24226
0.329661
0.372767
0.382136
-0.569494
-0.568516
-0.560595
-0.547007
-0.532832
-0.523695
-0.531297
-0.587268
-0.778705
-1.24228
-1.63494
-1.39212
-0.926917
-0.496106
-0.192356
-0.0163829
0.0700919
0.111746
0.129617
0.133242
-0.457089
-0.456591
-0.451138
-0.4416
-0.431469
-0.423722
-0.425388
-0.454747
-0.559482
-0.806897
-0.988024
-0.809294
-0.512858
-0.257806
-0.0994452
-0.0260785
0.00537285
0.0196505
0.0256214
0.0266643
-0.345472
-0.345415
-0.341679
-0.33479
-0.326606
-0.31824
-0.312519
-0.316732
-0.348293
-0.424798
-0.446594
-0.34087
-0.164046
-0.0595011
-0.00847038
0.00897476
0.0129101
0.0128675
0.0122612
0.0117057
-0.241154
-0.241403
-0.239495
-0.235168
-0.22897
-0.220717
-0.210615
-0.200036
-0.191713
-0.181795
-0.134536
-0.0657867
0.00371879
0.0391821
0.0477441
0.045691
0.0402471
0.0354155
0.0327405
0.031669
-0.151426
-0.151887
-0.151756
-0.150162
-0.146362
-0.139495
-0.128742
-0.113167
-0.0908928
-0.0570765
-0.00609314
0.0392572
0.0667497
0.0787309
0.0769099
0.0707289
0.0640282
0.0589638
0.056241
0.055158
-0.081132
-0.0816899
-0.0826877
-0.0830441
-0.0814989
-0.0768704
-0.0678898
-0.0529464
-0.0297465
0.00434245
0.0447338
0.0747604
0.0880264
0.0920032
0.0889674
0.083508
0.0779945
0.0738813
0.071685
0.0707785
-0.0305074
-0.0310466
-0.0325028
-0.0338602
-0.0337393
-0.0311041
-0.0246788
-0.0128407
0.00630051
0.03395
0.0633884
0.0834092
0.0917835
0.0934691
0.0911114
0.0870211
0.0828152
0.0796953
0.0780424
0.0773419
0.00355263
0.00310738
0.00164181
-7.23646e-05
-0.000737958
0.000587057
0.00489453
0.0135225
0.0278114
0.048273
0.0690634
0.0826351
0.0885539
0.0895474
0.0877296
0.0846811
0.0815134
0.0791164
0.0778715
0.0773523
0.025
0.0246622
0.0234144
0.0217498
0.0206943
0.0211027
0.0238354
0.0298413
0.0399851
0.0544774
0.0689564
0.0782119
0.0822721
0.0828603
0.0815341
0.0792743
0.0768418
0.0749709
0.0740293
0.0736524
0.0375253
0.037278
0.0363152
0.0349108
0.0338442
0.0337254
0.0352248
0.0391385
0.0461127
0.0561417
0.0660527
0.0723065
0.0751145
0.0755114
0.0744576
0.0726968
0.0707952
0.0693135
0.0685928
0.0683218
0.044143
0.0439588
0.0432537
0.0421428
0.041217
0.0409196
0.0417195
0.0441259
0.048661
0.055414
0.0621907
0.0664484
0.06826
0.0683464
0.0674365
0.0660333
0.0645183
0.0633363
0.0627817
0.062586
0.0470106
0.046865
0.0463326
0.0454496
0.0446455
0.0442317
0.0445773
0.0460647
0.0490131
0.0534488
0.0578968
0.060624
0.0616983
0.0616202
0.0608392
0.059704
0.0584992
0.0575679
0.0571447
0.0570024
0.0474522
0.0473333
0.0469081
0.0461809
0.0454731
0.0450028
0.0450135
0.0457817
0.0475702
0.0504187
0.053312
0.0550577
0.0556599
0.0554513
0.0547624
0.0538428
0.052891
0.0521669
0.0518469
0.0517421
0.0462438
0.0461465
0.0457975
0.0451886
0.0445644
0.0440867
0.0439286
0.044274
0.0452927
0.0470297
0.0488204
0.0498408
0.050088
0.0497985
0.049195
0.0484454
0.0476918
0.0471291
0.0468855
0.0468072
0.0438797
0.043801
0.0435114
0.0429945
0.0424401
0.0419664
0.0416932
0.0417528
0.0422674
0.0432615
0.0442998
0.0448413
0.0448749
0.0445532
0.0440293
0.0434203
0.0428261
0.0423895
0.0422031
0.0421441
0.0407024
0.04064
0.0404051
0.0399742
0.0394946
0.0390538
0.0387338
0.0386228
0.038806
0.0393089
0.0398536
0.0400775
0.0399718
0.0396406
0.0391873
0.0386905
0.0382187
0.0378773
0.0377335
0.037689
0.0369698
0.0369206
0.0367342
0.0363826
0.0359779
0.0355843
0.0352576
0.0350584
0.0350447
0.0352335
0.0354522
0.0354727
0.0352904
0.034971
0.0345825
0.034177
0.0338016
0.0335343
0.0334235
0.0333898
0.032873
0.0328342
0.0326888
0.0324088
0.0320762
0.0317378
0.0314301
0.0311941
0.0310686
0.0310676
0.03109
0.0309932
0.0307762
0.0304812
0.0301518
0.0298218
0.0295234
0.0293145
0.0292292
0.0292037
0.0285509
0.0285204
0.0284085
0.0281898
0.0279231
0.0276418
0.0273688
0.0271312
0.0269552
0.0268495
0.0267592
0.0266022
0.0263809
0.0261181
0.0258427
0.0255766
0.0253414
0.0251795
0.025114
0.0250946
0.0240975
0.0240736
0.023988
0.0238196
0.02361
0.0233823
0.0231506
0.0229322
0.0227448
0.0225941
0.0224517
0.0222758
0.0220686
0.021843
0.0216179
0.0214063
0.0212226
0.0210977
0.0210475
0.0210328
0.0195711
0.0195527
0.0194878
0.01936
0.0191987
0.0190197
0.0188316
0.0186451
0.0184711
0.0183138
0.0181616
0.017994
0.0178132
0.0176275
0.0174484
0.0172837
0.0171426
0.0170472
0.0170091
0.016998
0.0150041
0.0149903
0.014942
0.0148471
0.0147265
0.0145913
0.0144466
0.0142991
0.0141552
0.0140171
0.0138812
0.0137398
0.0135953
0.0134518
0.0133154
0.0131911
0.0130852
0.0130138
0.0129854
0.0129773
0.0104115
0.0104016
0.0103673
0.0103002
0.0102155
0.0101212
0.0100202
0.00991582
0.00981227
0.00971057
0.00960894
0.00950602
0.0094035
0.00930273
0.00920724
0.00911977
0.00904454
0.00899345
0.00897313
0.00896732
0.00579837
0.00579185
0.00577048
0.00572947
0.00567983
0.00562658
0.00557042
0.00551247
0.00545403
0.00539702
0.00533955
0.00528141
0.00522395
0.00516748
0.00511397
0.00506385
0.00501883
0.00498725
0.00497447
0.00497028
0.00117283
0.00117352
0.00117713
0.00117216
0.0011607
0.00114785
0.00113422
0.00111985
0.00110478
0.00108834
0.00107185
0.00105608
0.00104095
0.0010264
0.00101286
0.000999953
0.000987853
0.000978847
0.000978748
0.000981527
-0.651697
-0.409572
-0.181072
0.00563714
0.15924
0.285167
0.39353
0.482932
0.512273
0.508352
-0.27026
-0.113194
0.0323497
0.159411
0.268237
0.360099
0.433991
0.485512
0.513569
0.529442
-0.0131555
0.0882544
0.189082
0.278685
0.356098
0.420921
0.472275
0.51093
0.538419
0.557582
0.16664
0.23798
0.310325
0.375379
0.431788
0.479563
0.519082
0.551225
0.575114
0.594205
0.305898
0.358073
0.411506
0.46051
0.503778
0.541556
0.574052
0.601143
0.621255
0.639593
0.420312
0.461178
0.502181
0.541363
0.577028
0.608956
0.636849
0.659996
0.677253
0.694944
0.517852
0.553647
0.589254
0.623615
0.655494
0.684288
0.709366
0.7298
0.744742
0.761967
0.610363
0.645106
0.679882
0.713162
0.743754
0.771107
0.794512
0.813017
0.826111
0.842835
0.708303
0.746038
0.782304
0.816143
0.846477
0.872793
0.894728
0.911681
0.923732
0.940034
0.823667
0.8653
0.903148
0.936811
0.965984
0.990585
1.01076
1.02647
1.03864
1.05483
0.966741
1.00811
1.04386
1.07385
1.09951
1.12154
1.14039
1.15614
1.16944
1.18549
1.13899
1.17124
1.19862
1.22134
1.24173
1.26071
1.27865
1.29556
1.31059
1.32644
1.32566
1.34303
1.36039
1.37729
1.39356
1.40844
1.42245
1.43699
1.45231
1.46979
1.50926
1.5192
1.53243
1.54347
1.55294
1.56268
1.57341
1.5837
1.5931
1.61853
1.72688
1.72114
1.70815
1.69391
1.6877
1.69348
1.71163
1.74018
1.774
1.81032
2.03009
1.89424
1.81487
1.7725
1.75515
1.75915
1.78672
1.84464
1.95229
2.13052
0.313959
0.307672
0.299965
0.288885
0.275361
0.262766
0.252434
0.244475
0.238769
0.235401
0.234878
0.237384
0.242307
0.249393
0.25871
0.27036
0.283792
0.296624
0.305547
0.313047
0.22298
0.228922
0.237041
0.243252
0.24641
0.246002
0.243003
0.23906
0.235464
0.233092
0.232756
0.234715
0.238175
0.242346
0.246191
0.248209
0.246942
0.242155
0.234988
0.227095
0.216107
0.218486
0.221835
0.224725
0.227326
0.229682
0.231029
0.230999
0.230077
0.229076
0.229036
0.230237
0.231725
0.232585
0.23216
0.230369
0.227936
0.225356
0.222213
0.219127
0.211171
0.212254
0.2143
0.216858
0.218939
0.220497
0.221816
0.222835
0.22339
0.223651
0.223938
0.224344
0.224456
0.224032
0.223091
0.221851
0.220197
0.217894
0.215527
0.213973
0.20612
0.206725
0.207977
0.20996
0.212033
0.213783
0.215099
0.216245
0.217316
0.218233
0.218772
0.218737
0.218319
0.217645
0.216751
0.215453
0.213652
0.211674
0.210061
0.209203
0.201413
0.2018
0.202797
0.204585
0.206628
0.208708
0.210659
0.212181
0.21326
0.214046
0.214622
0.214868
0.214648
0.213871
0.212479
0.21069
0.208809
0.206972
0.2056
0.205
0.19729
0.197491
0.198283
0.199879
0.201668
0.203401
0.205129
0.206861
0.20844
0.20967
0.210423
0.210535
0.209992
0.208964
0.207689
0.206286
0.204742
0.203135
0.201959
0.201576
0.194576
0.19466
0.195204
0.196461
0.197949
0.199422
0.20083
0.202185
0.203507
0.204751
0.205656
0.205953
0.205758
0.205216
0.204404
0.203349
0.202134
0.200887
0.200041
0.19983
0.192787
0.192836
0.193151
0.193916
0.194958
0.196132
0.197509
0.19896
0.200409
0.201759
0.202833
0.203351
0.203281
0.202804
0.202076
0.201336
0.200574
0.199872
0.19944
0.199322
0.190583
0.190623
0.19081
0.191212
0.191797
0.192658
0.193568
0.194725
0.196074
0.197521
0.198816
0.19962
0.199933
0.199965
0.199824
0.199468
0.199238
0.199007
0.198839
0.198766
0.187506
0.187532
0.187686
0.188035
0.188559
0.189175
0.190185
0.191423
0.192869
0.194481
0.196059
0.197204
0.197814
0.198037
0.198047
0.198088
0.198004
0.197907
0.197815
0.197771
0.183816
0.183823
0.183952
0.18431
0.184866
0.185533
0.186465
0.187716
0.189289
0.191151
0.193095
0.194643
0.195629
0.196226
0.196561
0.196732
0.196789
0.196741
0.196698
0.196684
0.179757
0.179754
0.179862
0.18022
0.1808
0.1816
0.182678
0.184031
0.185797
0.18798
0.190389
0.192438
0.193853
0.194748
0.195402
0.195736
0.195867
0.195886
0.1959
0.195906
0.175373
0.175366
0.175474
0.175833
0.176458
0.177341
0.178517
0.180103
0.182193
0.18484
0.187843
0.190486
0.192401
0.193738
0.19454
0.195093
0.195375
0.195515
0.195594
0.195612
0.170493
0.170481
0.170609
0.170978
0.171635
0.172599
0.173963
0.175847
0.178374
0.181628
0.185385
0.188773
0.191259
0.193008
0.194184
0.194948
0.195415
0.195685
0.195824
0.195849
0.164891
0.164879
0.165027
0.165444
0.166169
0.167283
0.16891
0.171201
0.174311
0.178354
0.18307
0.187355
0.190484
0.192775
0.194334
0.195368
0.196033
0.196437
0.196634
0.196666
0.158333
0.158318
0.1585
0.159008
0.159875
0.16122
0.163213
0.166041
0.16991
0.174967
0.180884
0.186272
0.190304
0.193156
0.195139
0.196473
0.197351
0.197891
0.198148
0.198189
0.150562
0.150542
0.150773
0.151397
0.152494
0.154193
0.156676
0.160223
0.165089
0.171443
0.178866
0.185621
0.190659
0.194245
0.196727
0.198409
0.199522
0.200208
0.200529
0.200585
0.141241
0.141214
0.141519
0.142334
0.143734
0.145894
0.149068
0.153586
0.159744
0.167745
0.177048
0.185472
0.191725
0.196183
0.199272
0.201366
0.202758
0.203622
0.204026
0.204091
0.129911
0.129877
0.130289
0.131367
0.133194
0.135995
0.14011
0.145905
0.15374
0.163843
0.175481
0.185935
0.193658
0.199162
0.20298
0.205569
0.207291
0.208363
0.208864
0.208944
0.115921
0.115885
0.116461
0.117911
0.120333
0.124032
0.129411
0.136915
0.146962
0.159736
0.174247
0.187147
0.19663
0.203386
0.208081
0.211275
0.213404
0.214734
0.215358
0.215453
0.0983272
0.0982998
0.0991296
0.101119
0.104411
0.109392
0.116554
0.126412
0.139356
0.155483
0.173474
0.189273
0.200831
0.209073
0.214825
0.218761
0.221396
0.223045
0.223824
0.223938
0.0756294
0.0756292
0.076883
0.0797348
0.0843913
0.0913255
0.101099
0.114199
0.130922
0.151209
0.173333
0.19249
0.206452
0.216442
0.223468
0.22832
0.231595
0.233657
0.234626
0.234768
0.0454514
0.0455479
0.047578
0.0519266
0.0588678
0.0689196
0.0825751
0.100165
0.121778
0.147114
0.174014
0.196959
0.213637
0.225653
0.234212
0.240216
0.244331
0.246946
0.248166
0.248338
0.00351263
0.00390867
0.00764522
0.0150992
0.0262588
0.0414751
0.0609014
0.0845621
0.112267
0.143498
0.175722
0.202794
0.222445
0.23674
0.247117
0.25458
0.259846
0.263256
0.264825
0.265028
-0.0581865
-0.0563193
-0.047523
-0.0332417
-0.0141753
0.00927486
0.0367601
0.0680969
0.102959
0.140747
0.178649
0.210028
0.232792
0.249534
0.261953
0.271198
0.277957
0.282487
0.284638
0.284919
-0.132746
-0.129006
-0.112137
-0.0870603
-0.0574999
-0.0245381
0.0117046
0.0512293
0.0937896
0.138874
0.183472
0.220351
0.247422
0.267783
0.283371
0.295458
0.304952
0.311321
0.314007
0.314865
-0.208308
-0.198976
-0.17389
-0.138914
-0.0996308
-0.0575078
-0.0125904
0.0350941
0.0853414
0.137739
0.189101
0.231515
0.262843
0.286704
0.305348
0.320155
0.331938
0.340229
0.344739
0.34629
-0.266496
-0.256017
-0.226016
-0.184312
-0.137675
-0.0879004
-0.0353227
0.019824
0.0772596
0.136503
0.194059
0.241304
0.27609
0.302542
0.32315
0.339484
0.352407
0.361798
0.367045
0.368776
-0.313567
-0.302451
-0.269156
-0.222734
-0.170656
-0.114932
-0.0560894
0.00548671
0.0693335
0.134763
0.197856
0.249199
0.286612
0.314742
0.336398
0.353358
0.366704
0.376479
0.382009
0.383787
-0.352494
-0.341318
-0.305972
-0.255909
-0.199446
-0.138882
-0.0748532
-0.00779994
0.0616142
0.132564
0.200555
0.255403
0.294959
0.324339
0.346684
0.363971
0.377391
0.38716
0.392623
0.394382
-0.386289
-0.375144
-0.338272
-0.285311
-0.225275
-0.160663
-0.0921598
-0.0202981
0.0541014
0.130048
0.202608
0.260747
0.302229
0.33266
0.355485
0.372902
0.386274
0.395995
0.401445
0.403129
-0.416515
-0.405443
-0.367434
-0.312124
-0.249054
-0.180939
-0.108474
-0.0323361
0.0466364
0.127258
0.204129
0.26534
0.308634
0.34005
0.363342
0.380925
0.394304
0.403993
0.409442
0.411002
-0.444351
-0.43332
-0.394412
-0.337072
-0.271389
-0.200242
-0.124303
-0.0442913
0.0388752
0.123865
0.204876
0.269238
0.314467
0.34699
0.370852
0.388676
0.402113
0.411775
0.417202
0.418665
-0.470594
-0.459565
-0.419819
-0.36072
-0.292755
-0.218952
-0.139935
-0.0564398
0.0305706
0.119773
0.204987
0.272649
0.319987
0.353769
0.378326
0.396486
0.410045
0.419704
0.425112
0.426482
-0.49565
-0.48462
-0.444125
-0.383411
-0.313441
-0.237279
-0.15552
-0.0688773
0.0217365
0.114986
0.204396
0.275528
0.325222
0.360496
0.385937
0.40457
0.418346
0.428045
0.433408
0.434716
-0.519858
-0.508752
-0.467562
-0.405422
-0.333688
-0.255425
-0.171195
-0.0816688
0.0122666
0.109338
0.202954
0.277805
0.330172
0.367228
0.393774
0.413048
0.427148
0.436939
0.442221
0.443495
-0.54342
-0.532157
-0.49029
-0.426897
-0.35359
-0.273461
-0.187028
-0.0949254
0.00204385
0.102763
0.200575
0.27937
0.33476
0.373944
0.401858
0.421954
0.436501
0.44646
0.451665
0.452893
-0.566366
-0.554925
-0.512432
-0.447901
-0.373192
-0.29142
-0.203056
-0.108655
-0.00891579
0.0952134
0.197141
0.280061
0.338813
0.38052
0.410134
0.431284
0.446419
0.456612
0.461759
0.46288
-0.588776
-0.577109
-0.534015
-0.468439
-0.392509
-0.309303
-0.219237
-0.122803
-0.0205902
0.0866669
0.192552
0.279696
0.342127
0.386767
0.418491
0.440983
0.456882
0.467375
0.472453
0.473428
-0.610565
-0.598695
-0.555022
-0.488507
-0.411503
-0.327046
-0.235506
-0.13732
-0.0329437
0.0771268
0.186743
0.278108
0.3445
0.392519
0.426816
0.450986
0.467809
0.478626
0.483613
0.484395
-0.631766
-0.61966
-0.575407
-0.50806
-0.430129
-0.344601
-0.251809
-0.152128
-0.0458973
0.0666365
0.17966
0.27513
0.34564
0.397493
0.434938
0.461252
0.479176
0.490247
0.494991
0.495542
-0.652207
-0.639949
-0.595136
-0.527059
-0.448328
-0.361887
-0.268063
-0.167134
-0.0593562
0.0552751
0.171303
0.270635
0.345254
0.40126
0.442525
0.471729
0.49108
0.502195
0.506385
0.50661
-0.672002
-0.659529
-0.614172
-0.545467
-0.466053
-0.378846
-0.28416
-0.18224
-0.0732117
0.0431463
0.161716
0.264542
0.343109
0.403354
0.449073
0.482283
0.503919
0.514785
0.517566
0.517184
-0.691002
-0.678324
-0.632505
-0.563232
-0.483222
-0.395391
-0.300018
-0.197321
-0.0873376
0.0303483
0.150978
0.256818
0.339028
0.40331
0.453799
0.49233
0.5182
0.529539
0.529268
0.526834
-0.709272
-0.696402
-0.65008
-0.580304
-0.499798
-0.411459
-0.31555
-0.212287
-0.10161
0.0170448
0.139226
0.247459
0.332902
0.400694
0.455634
0.500435
0.533279
0.548938
0.546857
0.534548
-0.726717
-0.713728
-0.666986
-0.596842
-0.515988
-0.42733
-0.331093
-0.227553
-0.116505
0.00268189
0.125843
0.235763