/*--------------------------------*- C++ -*----------------------------------*\
  =========                 |
  \\      /  F ield         | OpenFOAM: The Open Source CFD Toolbox
   \\    /   O peration     | Website:  https://openfoam.org
    \\  /    A nd           | Version:  6
     \\/     M anipulation  |
\*---------------------------------------------------------------------------*/
FoamFile
{
    version     2.0;
    format      ascii;
    class       volVectorField;
    location    "15";
    object      U;
}
// * * * * * * * * * * * * * * * * * * * * * * * * * * * * * * * * * * * * * //

dimensions      [0 1 -1 0 0 0 0];

internalField   nonuniform List<vector> 
8800
(
(0.987182 -0.0766984 0)
(1.00187 -0.0551696 0)
(0.999792 -0.02854 0)
(1.00008 -0.0150928 0)
(1.00006 -0.0084722 0)
(1.00007 -0.00498437 0)
(1.00005 -0.00293763 0)
(1.00001 -0.00168221 0)
(0.999977 -0.000824978 0)
(1.00004 -0.000149176 0)
(0.999967 0.000549642 0)
(0.999997 0.00131031 0)
(1.00004 0.00232268 0)
(1.00007 0.00389944 0)
(1.00006 0.00653444 0)
(1.00007 0.0112739 0)
(1.00003 0.0207583 0)
(0.999167 0.0386334 0)
(1.00705 0.0724442 0)
(0.771224 0.036684 0)
(0.363223 -0.0159972 0)
(1.04344 -0.0767163 0)
(1.08459 -0.0702696 0)
(1.04512 -0.0533796 0)
(1.0233 -0.0388121 0)
(1.01202 -0.0260871 0)
(1.00622 -0.0166593 0)
(1.00329 -0.0101869 0)
(1.0019 -0.005626 0)
(1.00129 -0.00212042 0)
(1.0012 0.000982029 0)
(1.00151 0.00419869 0)
(1.00243 0.00810911 0)
(1.00446 0.0134131 0)
(1.00862 0.0212114 0)
(1.01674 0.0323117 0)
(1.03253 0.0462191 0)
(1.06267 0.061323 0)
(1.09197 0.0758229 0)
(0.839047 0.0564765 0)
(0.217246 -0.0023863 0)
(1.07625 -0.0498579 0)
(1.10017 -0.0479184 0)
(1.06469 -0.0399049 0)
(1.03959 -0.0329253 0)
(1.02327 -0.0255516 0)
(1.0135 -0.0182975 0)
(1.00809 -0.0117281 0)
(1.00539 -0.00600978 0)
(1.00434 -0.000788202 0)
(1.00464 0.00424574 0)
(1.00636 0.00957177 0)
(1.0102 0.0155944 0)
(1.0175 0.0224137 0)
(1.03018 0.0296839 0)
(1.05067 0.0368153 0)
(1.08081 0.0437387 0)
(1.10685 0.0507418 0)
(0.943529 0.0412806 0)
(0.216921 0.00240049 0)
(0.176108 -0.000755858 0)
(1.01881 -0.0349069 0)
(1.10543 -0.0406217 0)
(1.07841 -0.0354306 0)
(1.05333 -0.0295508 0)
(1.03575 -0.0239443 0)
(1.02354 -0.0182949 0)
(1.01557 -0.0124474 0)
(1.01083 -0.00667884 0)
(1.00883 -0.000803236 0)
(1.00938 0.00499847 0)
(1.01259 0.0106701 0)
(1.0188 0.0163222 0)
(1.02864 0.0219675 0)
(1.04334 0.0273993 0)
(1.0642 0.03299 0)
(1.09414 0.0389455 0)
(1.09455 0.0408436 0)
(0.830151 0.0223584 0)
(0.175569 0.000772382 0)
(0.155691 -0.000540071 0)
(0.959217 -0.0242757 0)
(1.10397 -0.033297 0)
(1.08729 -0.0306139 0)
(1.06131 -0.0261858 0)
(1.04363 -0.021467 0)
(1.03113 -0.0167193 0)
(1.02228 -0.0118505 0)
(1.01653 -0.00658701 0)
(1.01384 -0.000636491 0)
(1.01459 0.00547728 0)
(1.01864 0.0108451 0)
(1.02573 0.0156536 0)
(1.03621 0.0202254 0)
(1.05097 0.0247776 0)
(1.07223 0.029139 0)
(1.10091 0.0332192 0)
(1.07094 0.0319181 0)
(0.746017 0.0133384 0)
(0.154892 0.000557646 0)
(0.142491 -0.000368453 0)
(0.906067 -0.0172614 0)
(1.09732 -0.0273205 0)
(1.09547 -0.0263244 0)
(1.06828 -0.0229011 0)
(1.04947 -0.0193037 0)
(1.03647 -0.0151253 0)
(1.02746 -0.0105056 0)
(1.02159 -0.00554576 0)
(1.01874 -0.00017932 0)
(1.01945 0.00516108 0)
(1.02355 0.010125 0)
(1.03071 0.0146697 0)
(1.04138 0.0187776 0)
(1.05687 0.0223702 0)
(1.07964 0.0256269 0)
(1.10399 0.0282822 0)
(1.04203 0.0249584 0)
(0.685146 0.00880927 0)
(0.141374 0.000389808 0)
(0.133644 -0.000248149 0)
(0.862912 -0.0116338 0)
(1.08626 -0.0210291 0)
(1.0999 -0.0212573 0)
(1.07364 -0.0188909 0)
(1.05394 -0.0162868 0)
(1.04012 -0.0131816 0)
(1.03064 -0.0094046 0)
(1.02462 -0.0049076 0)
(1.02177 0.000221982 0)
(1.02235 0.00535028 0)
(1.02633 0.00988158 0)
(1.03369 0.0136657 0)
(1.04498 0.0167234 0)
(1.06135 0.0192242 0)
(1.08471 0.0213654 0)
(1.1033 0.0227846 0)
(1.01263 0.0184674 0)
(0.641954 0.00565013 0)
(0.132144 0.00027369 0)
(0.128338 -0.000117084 0)
(0.831736 -0.0065315 0)
(1.07382 -0.0144245 0)
(1.10191 -0.0159015 0)
(1.07778 -0.0146428 0)
(1.0588 -0.0127743 0)
(1.04573 -0.0104145 0)
(1.0364 -0.00745096 0)
(1.03009 -0.003783 0)
(1.02689 0.000769286 0)
(1.02748 0.00545133 0)
(1.03164 0.0091961 0)
(1.03897 0.0120617 0)
(1.04963 0.0142135 0)
(1.06506 0.0158198 0)
(1.08802 0.0170018 0)
(1.10013 0.0170566 0)
(0.986463 0.0119541 0)
(0.614318 0.00304012 0)
(0.126367 0.000147503 0)
(0.126243 -5.73804e-06 0)
(0.812329 -0.00291555 0)
(1.06101 -0.00850812 0)
(1.10094 -0.0106354 0)
(1.07971 -0.0101965 0)
(1.06049 -0.00934664 0)
(1.04743 -0.00792543 0)
(1.0385 -0.00566753 0)
(1.03268 -0.00254513 0)
(1.02978 0.00139461 0)
(1.02998 0.00539299 0)
(1.03352 0.00851437 0)
(1.04021 0.0105937 0)
(1.05053 0.0117145 0)
(1.06618 0.012207 0)
(1.0886 0.0125217 0)
(1.0939 0.0116123 0)
(0.965532 0.00677357 0)
(0.599192 0.00136544 0)
(0.123708 4.27634e-05 0)
(0.125969 3.04505e-05 0)
(0.801172 -0.00144171 0)
(1.05072 -0.00539098 0)
(1.0992 -0.00749214 0)
(1.08058 -0.00780277 0)
(1.062 -0.00703343 0)
(1.0497 -0.00594822 0)
(1.04129 -0.00410144 0)
(1.03563 -0.00137554 0)
(1.03268 0.00214046 0)
(1.03267 0.00562992 0)
(1.0358 0.00827237 0)
(1.0419 0.00984603 0)
(1.05146 0.0106079 0)
(1.06619 0.0109583 0)
(1.0876 0.0102844 0)
(1.0872 0.0087619 0)
(0.950405 0.0045223 0)
(0.590777 0.00081734 0)
(0.122712 1.51778e-05 0)
(0.126092 2.68938e-05 0)
(0.79318 -0.00100847 0)
(1.04132 -0.00460461 0)
(1.09644 -0.00743996 0)
(1.08072 -0.00791876 0)
(1.06341 -0.00769689 0)
(1.05175 -0.00627022 0)
(1.04397 -0.00404273 0)
(1.03879 -0.000898061 0)
(1.03582 0.00292485 0)
(1.03553 0.00660695 0)
(1.03805 0.00943314 0)
(1.04331 0.011223 0)
(1.05206 0.0120518 0)
(1.06573 0.011724 0)
(1.08539 0.0110803 0)
(1.07958 0.00870846 0)
(0.937414 0.00403673 0)
(0.584291 0.00076782 0)
(0.121958 2.96115e-05 0)
(0.126276 2.36986e-05 0)
(0.786698 -0.000542186 0)
(1.03063 -0.00384808 0)
(1.0913 -0.00792099 0)
(1.08021 -0.00964703 0)
(1.06487 -0.00930822 0)
(1.05419 -0.00760162 0)
(1.04697 -0.00470863 0)
(1.04192 -0.000825888 0)
(1.03873 0.00381023 0)
(1.03815 0.00830512 0)
(1.04022 0.0117626 0)
(1.04482 0.0139804 0)
(1.05251 0.0150975 0)
(1.06453 0.0148339 0)
(1.08119 0.0131379 0)
(1.06865 0.0089965 0)
(0.924431 0.00361187 0)
(0.578538 0.000728696 0)
(0.121048 4.39595e-05 0)
(0.12665 3.84105e-05 0)
(0.782467 4.77555e-05 0)
(1.01986 -0.00229595 0)
(1.08311 -0.00662297 0)
(1.07879 -0.00956339 0)
(1.06622 -0.0095448 0)
(1.05749 -0.00773162 0)
(1.05106 -0.00442227 0)
(1.04616 -0.000100527 0)
(1.04283 0.00504365 0)
(1.04181 0.00998195 0)
(1.04329 0.0136313 0)
(1.04691 0.0159532 0)
(1.05297 0.0167652 0)
(1.06285 0.0163953 0)
(1.07345 0.0133878 0)
(1.05489 0.00798994 0)
(0.912654 0.00291573 0)
(0.573755 0.000662232 0)
(0.120068 5.05155e-05 0)
(0.127373 6.00015e-05 0)
(0.78117 0.000691462 0)
(1.012 -0.000359107 0)
(1.07469 -0.00345051 0)
(1.07523 -0.00605609 0)
(1.06738 -0.00659721 0)
(1.06065 -0.00511751 0)
(1.05495 -0.00211715 0)
(1.05019 0.00196212 0)
(1.04667 0.00681799 0)
(1.04509 0.011313 0)
(1.04583 0.0144579 0)
(1.04839 0.016094 0)
(1.05276 0.0164448 0)
(1.05914 0.0148678 0)
(1.06409 0.0112587 0)
(1.04192 0.00625562 0)
(0.903531 0.00234109 0)
(0.569848 0.000642389 0)
(0.119072 5.58523e-05 0)
(0.128478 7.6685e-05 0)
(0.782061 0.00114136 0)
(1.00832 0.00129351 0)
(1.06923 -0.000132578 0)
(1.07259 -0.0016445 0)
(1.06809 -0.00194629 0)
(1.0632 -0.000774958 0)
(1.05838 0.00167842 0)
(1.05384 0.00512027 0)
(1.05002 0.00910892 0)
(1.04772 0.0125043 0)
(1.04761 0.0144137 0)
(1.04885 0.0149407 0)
(1.05129 0.0141934 0)
(1.05444 0.0120737 0)
(1.05577 0.00877308 0)
(1.03204 0.0049619 0)
(0.896849 0.00215611 0)
(0.566269 0.000713659 0)
(0.117996 6.62705e-05 0)
(0.129957 9.79263e-05 0)
(0.785045 0.00160539 0)
(1.00824 0.00253548 0)
(1.06713 0.00247196 0)
(1.07175 0.00214754 0)
(1.06901 0.00249479 0)
(1.06535 0.00379802 0)
(1.06117 0.00597992 0)
(1.05674 0.00884699 0)
(1.05247 0.0119125 0)
(1.04933 0.0141606 0)
(1.04803 0.0149258 0)
(1.048 0.0143563 0)
(1.04875 0.0127383 0)
(1.04986 0.0103844 0)
(1.04912 0.00750416 0)
(1.02486 0.00457927 0)
(0.89138 0.00235376 0)
(0.562384 0.000873822 0)
(0.11671 8.40127e-05 0)
(0.13186 0.000122773 0)
(0.78961 0.00205855 0)
(1.0104 0.00358595 0)
(1.06788 0.00446717 0)
(1.07278 0.00514981 0)
(1.07078 0.00631944 0)
(1.06766 0.00811235 0)
(1.06374 0.0103862 0)
(1.05914 0.012956 0)
(1.05417 0.0153226 0)
(1.04998 0.0165349 0)
(1.04742 0.0161457 0)
(1.04606 0.0148002 0)
(1.04555 0.0126529 0)
(1.0454 0.0101453 0)
(1.04361 0.00749815 0)
(1.01905 0.00495886 0)
(0.885972 0.00282706 0)
(0.55771 0.0011034 0)
(0.115097 0.000108057 0)
(0.134282 0.000154943 0)
(0.795785 0.00261383 0)
(1.01463 0.00468347 0)
(1.07073 0.00624827 0)
(1.07558 0.00783641 0)
(1.07363 0.00984871 0)
(1.07052 0.0122822 0)
(1.06644 0.0149706 0)
(1.06131 0.0175835 0)
(1.05534 0.0195329 0)
(1.04981 0.0199448 0)
(1.04595 0.0186955 0)
(1.04343 0.0165195 0)
(1.04187 0.0138888 0)
(1.04086 0.0111491 0)
(1.03844 0.00846883 0)
(1.01346 0.00590962 0)
(0.8799 0.00352525 0)
(0.551902 0.00139137 0)
(0.113067 0.000136924 0)
(0.137386 0.000198835 0)
(0.803838 0.00332702 0)
(1.02081 0.00603537 0)
(1.07545 0.00831959 0)
(1.07986 0.0106753 0)
(1.07765 0.0135538 0)
(1.07422 0.0168186 0)
(1.06956 0.0201317 0)
(1.06351 0.0230181 0)
(1.05616 0.0247646 0)
(1.04904 0.0245172 0)
(1.04372 0.0224782 0)
(1.04004 0.019505 0)
(1.03757 0.01626 0)
(1.03587 0.0131123 0)
(1.03296 0.0101558 0)
(1.00736 0.0072962 0)
(0.872774 0.00441924 0)
(0.544686 0.00174278 0)
(0.110525 0.000169859 0)
(0.141443 0.000264986 0)
(0.814332 0.00433418 0)
(1.02892 0.00788484 0)
(1.08189 0.0109144 0)
(1.08569 0.0140738 0)
(1.08301 0.0179494 0)
(1.0789 0.0221984 0)
(1.07325 0.0262748 0)
(1.06582 0.0295842 0)
(1.05667 0.0312716 0)
(1.04763 0.030417 0)
(1.04068 0.0275136 0)
(1.03578 0.0236668 0)
(1.03241 0.0196464 0)
(1.03007 0.0158748 0)
(1.02668 0.0124148 0)
(1.00027 0.00902649 0)
(0.863996 0.00552142 0)
(0.535765 0.00218894 0)
(0.107369 0.000210739 0)
(0.146813 0.000361544 0)
(0.828019 0.00577089 0)
(1.03947 0.0104374 0)
(1.09036 0.0143619 0)
(1.09338 0.0185367 0)
(1.0899 0.0235723 0)
(1.08468 0.0288909 0)
(1.07753 0.0338528 0)
(1.06822 0.0377297 0)
(1.05679 0.0394029 0)
(1.04545 0.0378852 0)
(1.03667 0.0339902 0)
(1.03042 0.0290982 0)
(1.02609 0.0240987 0)
(1.0231 0.019478 0)
(1.0192 0.0153095 0)
(0.991722 0.0112271 0)
(0.853108 0.00688898 0)
(0.52468 0.00271921 0)
(0.103477 0.000260969 0)
(0.154002 0.0005005 0)
(0.845782 0.00783587 0)
(1.05304 0.0139568 0)
(1.10134 0.0189767 0)
(1.10334 0.0244882 0)
(1.09865 0.0309104 0)
(1.09181 0.037515 0)
(1.08262 0.0435515 0)
(1.07081 0.0480259 0)
(1.05649 0.0495905 0)
(1.0424 0.0472268 0)
(1.03148 0.0421263 0)
(1.0237 0.0359693 0)
(1.0183 0.0297696 0)
(1.01456 0.0240757 0)
(1.01007 0.0189871 0)
(0.98125 0.0140158 0)
(0.839589 0.00864241 0)
(0.510877 0.00339485 0)
(0.0986915 0.000325089 0)
(0.163788 0.000710045 0)
(0.868887 0.0108221 0)
(1.07056 0.0187344 0)
(1.11561 0.0251289 0)
(1.11614 0.0323801 0)
(1.10976 0.0405716 0)
(1.10073 0.0487835 0)
(1.08874 0.0560095 0)
(1.07365 0.0610195 0)
(1.05573 0.0622705 0)
(1.03835 0.0587639 0)
(1.02496 0.0521634 0)
(1.01539 0.0444768 0)
(1.00871 0.036833 0)
(1.00406 0.0298391 0)
(0.998823 0.0236115 0)
(0.968306 0.0175447 0)
(0.822962 0.0108664 0)
(0.493871 0.00422647 0)
(0.0928605 0.000398069 0)
(0.177471 0.00106449 0)
(0.89957 0.0154655 0)
(1.09345 0.0257413 0)
(1.13421 0.0340077 0)
(1.13245 0.0435338 0)
(1.12358 0.0538619 0)
(1.1114 0.0637869 0)
(1.09568 0.0720798 0)
(1.07647 0.0773503 0)
(1.05424 0.0778886 0)
(1.03308 0.0728264 0)
(1.01686 0.064387 0)
(1.00523 0.0548886 0)
(0.997011 0.0455403 0)
(0.991226 0.0370055 0)
(0.984988 0.0294029 0)
(0.952304 0.0220094 0)
(0.802491 0.0136877 0)
(0.473144 0.00527474 0)
(0.0858272 0.000483005 0)
(0.197296 0.00170776 0)
(0.941084 0.023033 0)
(1.12395 0.0365495 0)
(1.15863 0.0473949 0)
(1.15293 0.0597326 0)
(1.14009 0.0724257 0)
(1.12343 0.0839148 0)
(1.1029 0.0928496 0)
(1.07872 0.0977439 0)
(1.05155 0.0968893 0)
(1.02619 0.0897229 0)
(1.00686 0.0790855 0)
(0.992919 0.067529 0)
(0.982905 0.0562638 0)
(0.9757 0.0459657 0)
(0.968104 0.036754 0)
(0.932492 0.0277857 0)
(0.777155 0.0173888 0)
(0.447798 0.00665821 0)
(0.0773573 0.000591996 0)
(0.226694 0.00315317 0)
(0.999256 0.0364986 0)
(1.16428 0.05485 0)
(1.18989 0.0690229 0)
(1.17774 0.0842376 0)
(1.1589 0.0987602 0)
(1.13618 0.11089 0)
(1.1097 0.119391 0)
(1.07979 0.122836 0)
(1.04721 0.119636 0)
(1.01737 0.109697 0)
(0.994733 0.0965008 0)
(0.978256 0.0827089 0)
(0.966189 0.0694413 0)
(0.957217 0.0572927 0)
(0.947718 0.0463714 0)
(0.907871 0.0355596 0)
(0.745656 0.0224469 0)
(0.417319 0.00858637 0)
(0.0676766 0.000708778 0)
(0.267736 0.00995705 -1.44647e-20)
(1.0769 0.0639825 -1.12047e-20)
(1.21281 0.0870821 3.16663e-21)
(1.22531 0.104682 0)
(1.20439 0.120996 1.1694e-35)
(1.17801 0.135274 -2.74777e-24)
(1.14817 0.146264 -1.01202e-21)
(1.11501 0.152916 0)
(1.07888 0.153914 4.33281e-35)
(1.0404 0.147688 -3.38587e-21)
(1.00557 0.134626 0)
(0.979099 0.118789 -4.9583e-21)
(0.959513 0.102827 -1.52269e-20)
(0.944735 0.0877377 -7.38746e-21)
(0.933212 0.0741114 -2.33679e-21)
(0.920739 0.0618364 -1.41823e-21)
(0.876331 0.0495721 0)
(0.704929 0.032603 1.02176e-21)
(0.380171 0.0146689 1.21299e-21)
(0.0584912 0.00207297 2.14708e-20)
(0.293144 0.0265547 -2.54716e-20)
(1.13903 0.109277 5.09495e-22)
(1.25542 0.135233 -1.49237e-21)
(1.25726 0.153736 0)
(1.22824 0.168511 2.63761e-21)
(1.19449 0.180948 1.70384e-21)
(1.15765 0.190009 -5.36931e-22)
(1.11773 0.194519 -5.28883e-21)
(1.07501 0.193126 0)
(1.02991 0.184196 1.43375e-20)
(0.988962 0.168477 1.60642e-20)
(0.957312 0.150534 5.20861e-21)
(0.933272 0.133008 2.07482e-20)
(0.914483 0.116678 3.07301e-20)
(0.899129 0.102051 0)
(0.882202 0.0892299 4.59541e-20)
(0.832834 0.075423 6.74297e-20)
(0.661905 0.0543248 7.53125e-20)
(0.354918 0.0294911 -8.73119e-20)
(0.0550294 0.00472874 -1.60719e-21)
(0.288906 0.0435898 0)
(1.17484 0.16743 -7.73646e-21)
(1.28792 0.196452 0)
(1.28235 0.212846 1.26805e-20)
(1.24699 0.223962 0)
(1.20685 0.23295 7.1239e-21)
(1.16367 0.238745 2.7281e-22)
(1.11756 0.240086 -7.19705e-21)
(1.06871 0.235576 -1.55065e-21)
(1.01749 0.223578 6.87931e-21)
(0.970964 0.20523 3.76703e-20)
(0.93476 0.185562 -2.78061e-22)
(0.906898 0.167124 -1.56324e-20)
(0.884752 0.150521 -3.05283e-20)
(0.866382 0.135986 3.71481e-20)
(0.847057 0.123369 -6.68702e-20)
(0.799514 0.109597 -9.20464e-21)
(0.64636 0.0846494 0)
(0.363274 0.0493127 1.80395e-22)
(0.0622327 0.00891743 0)
(0.278839 0.0577268 -1.9136e-19)
(1.1913 0.228903 7.89755e-20)
(1.30837 0.262525 4.23814e-20)
(1.29868 0.276559 -8.22109e-21)
(1.25894 0.283729 1.25972e-20)
(1.21407 0.28871 -1.69342e-20)
(1.16588 0.290636 -3.65561e-22)
(1.11456 0.288267 0)
(1.06043 0.280198 -2.59306e-20)
(1.00386 0.264785 0)
(0.952574 0.243741 -1.91245e-20)
(0.912663 0.222467 -2.72967e-20)
(0.881959 0.203346 -1.75498e-20)
(0.857589 0.1867 -2.27793e-20)
(0.837566 0.172582 0)
(0.817617 0.160476 0)
(0.774286 0.146868 -6.18862e-20)
(0.638398 0.118574 1.23779e-20)
(0.371854 0.0714636 -7.21623e-21)
(0.0681426 0.0135458 -8.45997e-21)
(0.269119 0.0703711 1.40655e-19)
(1.19545 0.289806 0)
(1.31943 0.329345 -1.18106e-19)
(1.30738 0.341317 -3.0685e-20)
(1.26459 0.344777 -2.38271e-20)
(1.21627 0.345819 0)
(1.16423 0.343853 -4.03463e-21)
(1.10869 0.337708 5.80017e-21)
(1.05019 0.325886 1.09604e-20)
(0.989144 0.306891 3.49737e-20)
(0.933994 0.282955 0)
(0.891368 0.259847 -5.94179e-20)
(0.858843 0.239798 -3.82306e-20)
(0.833314 0.222857 -2.30804e-20)
(0.812625 0.208866 1.52203e-19)
(0.792927 0.197184 1.87199e-20)
(0.753575 0.183399 8.96815e-20)
(0.629009 0.151564 -4.34131e-19)
(0.373247 0.0920333 2.57902e-19)
(0.0705111 0.0177305 -3.12243e-19)
(0.260717 0.0816354 1.48109e-19)
(1.192 0.34826 -2.75137e-20)
(1.32345 0.394971 2.06828e-20)
(1.31002 0.405348 5.64739e-20)
(1.26501 0.40537 3.50636e-20)
(1.21412 0.402671 1.64502e-21)
(1.15909 0.397008 3.80773e-21)
(1.10021 0.387172 3.43367e-21)
(1.03804 0.371696 -2.4084e-20)
(0.973324 0.349032 0)
(0.914993 0.321951 -2.53511e-20)
(0.870164 0.296726 -1.49128e-21)
(0.836321 0.275377 -4.28386e-20)
(0.810098 0.257751 0)
(0.789225 0.243423 -3.32005e-20)
(0.770156 0.23151 -8.08819e-20)
(0.73405 0.216898 2.24339e-19)
(0.616767 0.180827 -2.23858e-19)
(0.368982 0.109703 3.18372e-19)
(0.0703059 0.0211697 -3.3197e-19)
(0.254004 0.0920979 -5.47379e-22)
(1.18402 0.403694 3.35432e-20)
(1.32227 0.458353 9.86095e-20)
(1.3081 0.467553 -3.44422e-20)
(1.26146 0.464486 1.99864e-20)
(1.20858 0.458375 0)
(1.1511 0.449281 1.0025e-20)
(1.08947 0.435916 -1.76977e-21)
(1.02416 0.416908 -1.0629e-20)
(0.956119 0.390585 0)
(0.895034 0.360211 -2.45578e-20)
(0.8485 0.332537 -3.49605e-20)
(0.813793 0.309478 4.68754e-20)
(0.787299 0.29065 -3.01501e-20)
(0.766579 0.275469 -1.46242e-19)
(0.748193 0.262872 9.01082e-20)
(0.71436 0.247004 2.86056e-20)
(0.60186 0.206451 0)
(0.360801 0.12465 -3.09211e-19)
(0.0687488 0.023983 -1.1368e-20)
(0.248819 0.102058 2.41812e-20)
(1.17345 0.455973 -3.85168e-20)
(1.31737 0.518895 -5.38769e-20)
(1.3027 0.527332 -1.06236e-19)
(1.25483 0.521532 9.65187e-20)
(1.20037 0.512395 -5.26665e-20)
(1.14095 0.500131 -2.12431e-20)
(1.07695 0.483504 -1.96333e-21)
(1.00894 0.461111 1.16e-20)
(0.937943 0.431211 -8.50704e-20)
(0.874565 0.397456 -3.04674e-20)
(0.826585 0.367053 0)
(0.791178 0.341865 5.12905e-20)
(0.764522 0.321401 6.36003e-20)
(0.744018 0.304977 7.84983e-20)
(0.726249 0.291341 -9.8345e-20)
(0.693912 0.2738 -2.96544e-20)
(0.584745 0.2287 3.52117e-20)
(0.349863 0.13699 0)
(0.0662755 0.0261601 -2.47999e-20)
(0.24486 0.111598 -2.80173e-19)
(1.16161 0.505203 1.76318e-19)
(1.30972 0.576392 5.923e-20)
(1.29472 0.584373 -8.09604e-20)
(1.24595 0.576174 5.75065e-20)
(1.19026 0.564371 -3.87648e-21)
(1.12923 0.549271 2.1168e-20)
(1.06323 0.529672 -1.2417e-21)
(0.992892 0.5041 -1.91863e-20)
(0.919246 0.470727 1.52567e-22)
(0.853502 0.43354 -9.03286e-20)
(0.804101 0.400155 8.94662e-20)
(0.768019 0.372504 -5.75905e-20)
(0.741249 0.350036 7.18613e-20)
(0.721042 0.332035 0)
(0.703856 0.317036 -5.34402e-20)
(0.672547 0.297545 -1.29567e-21)
(0.56585 0.247817 -1.54056e-19)
(0.336936 0.147096 -2.27866e-20)
(0.0630925 0.0276321 0)
(0.241944 0.120908 0)
(1.14926 0.551663 1.91129e-19)
(1.30011 0.630766 1.37885e-19)
(1.2849 0.638554 9.12465e-20)
(1.23542 0.628227 5.56977e-20)
(1.17873 0.614077 0)
(1.11639 0.596458 1.89307e-20)
(1.0487 0.574196 -1.24566e-21)
(0.976185 0.545731 4.0403e-20)
(0.900011 0.509086 -1.02188e-20)
(0.831864 0.468445 -6.6334e-20)
(0.781004 0.431869 4.46364e-20)
(0.744202 0.401477 -1.94831e-21)
(0.717302 0.376702 7.56925e-20)
(0.697408 0.356783 4.96744e-20)
(0.680805 0.340146 -1.165e-19)
(0.650197 0.318404 1.41252e-19)
(0.545398 0.263869 4.22765e-20)
(0.322251 0.154879 1.74908e-19)
(0.0592688 0.028497 -4.6817e-19)
(0.239903 0.130079 -7.17031e-20)
(1.13693 0.595498 1.10211e-19)
(1.28915 0.682266 -8.56943e-20)
(1.27377 0.689832 -1.05696e-19)
(1.22374 0.677609 0)
(1.16625 0.66139 4.51808e-20)
(1.10282 0.64155 -5.53773e-20)
(1.03359 0.616944 -2.66435e-21)
(0.95908 0.5859 0)
(0.88044 0.546251 -1.60042e-19)
(0.809873 0.502227 1.8098e-19)
(0.757323 0.462314 0)
(0.719686 0.428918 6.83581e-20)
(0.69259 0.401563 -1.97157e-21)
(0.672985 0.379381 -1.57348e-19)
(0.656903 0.360831 6.18802e-20)
(0.62668 0.336548 0)
(0.523341 0.276995 2.29316e-19)
(0.305865 0.160363 0)
(0.0548883 0.0287014 -2.23424e-19)
(0.238546 0.139107 7.97961e-20)
(1.12492 0.63689 1.25866e-19)
(1.27731 0.73083 -8.98357e-20)
(1.2618 0.738195 0)
(1.21135 0.724319 7.62248e-20)
(1.1532 0.706291 0)
(1.08884 0.68451 7.14807e-20)
(1.01829 0.65786 8.77552e-21)
(0.941937 0.624589 3.37048e-21)
(0.860824 0.582231 -7.8973e-20)
(0.787648 0.534971 1.74359e-20)
(0.733135 0.491689 0)
(0.694512 0.455026 -1.4553e-19)
(0.667072 0.424798 2.04809e-21)
(0.647593 0.400158 0)
(0.631815 0.379336 2.43162e-21)
(0.601742 0.352105 2.08513e-19)
(0.499508 0.287091 -2.01259e-19)
(0.287728 0.16343 5.94561e-20)
(0.0499571 0.0282008 0)
(0.23752 0.14789 0)
(1.11335 0.67602 1.40664e-19)
(1.26502 0.776493 1.0518e-19)
(1.24932 0.783713 -2.16743e-21)
(1.19855 0.768384 4.74316e-20)
(1.13987 0.748777 1.06716e-19)
(1.07475 0.725324 -2.33083e-20)
(1.00303 0.696926 4.44566e-21)
(0.924949 0.661762 2.25592e-20)
(0.841336 0.617091 -1.22345e-19)
(0.765297 0.566906 -3.09927e-21)
(0.708464 0.520305 -5.91368e-20)
(0.668471 0.480205 2.38967e-19)
(0.640483 0.446749 -2.46793e-21)
(0.620981 0.419269 -1.24598e-19)
(0.605405 0.395792 -2.27973e-19)
(0.575287 0.365114 0)
(0.473823 0.294177 0)
(0.267848 0.163945 6.54841e-20)
(0.0445677 0.0269832 -3.8281e-20)
(0.236965 0.156587 9.90496e-20)
(1.10232 0.712797 -3.07866e-19)
(1.2525 0.819403 -1.12617e-19)
(1.23659 0.82648 0)
(1.18559 0.809862 -1.52548e-21)
(1.12654 0.788882 1.27505e-19)
(1.06077 0.763999 -7.65915e-20)
(0.988006 0.73413 -3.89617e-20)
(0.908301 0.697406 2.08303e-20)
(0.822201 0.650805 -9.31393e-20)
(0.743065 0.59805 -1.52681e-19)
(0.68341 0.548286 1.57663e-19)
(0.641386 0.504621 0)
(0.612604 0.467582 -5.61205e-20)
(0.593053 0.43685 -1.37117e-19)
(0.577658 0.410406 -1.65619e-19)
(0.547199 0.375686 -2.01499e-19)
(0.446032 0.298161 6.04039e-20)
(0.246048 0.16151 -3.5437e-20)
(0.038678 0.0250091 4.58901e-22)
(0.236458 0.164987 0)
(1.09199 0.74752 0)
(1.23995 0.859665 2.49347e-21)
(1.22382 0.866583 0)
(1.17268 0.848833 -1.77875e-19)
(1.11334 0.826661 -1.12208e-19)
(1.04707 0.800561 0)
(0.973406 0.769489 -8.66541e-21)
(0.892196 0.731533 2.11199e-20)
(0.803632 0.683445 -2.13576e-19)
(0.721207 0.628515 0)
(0.658354 0.575755 -1.00956e-19)
(0.613656 0.528378 -3.02661e-21)
(0.583485 0.487472 -2.49736e-21)
(0.563662 0.453188 1.46669e-19)
(0.548305 0.423187 -3.84737e-22)
(0.51718 0.383865 -4.38796e-19)
(0.415541 0.298876 1.3207e-19)
(0.222332 0.156185 3.92436e-20)
(0.0323502 0.0222833 0)
(0.236 0.173034 -3.64109e-19)
(1.08207 0.780372 -1.88698e-19)
(1.22749 0.897373 -2.81591e-19)
(1.21116 0.90412 3.93818e-19)
(1.15995 0.885368 -3.3309e-19)
(1.10044 0.862176 0)
(1.03378 0.835056 -6.4306e-20)
(0.95936 0.803022 1.6604e-20)
(0.876766 0.764151 3.70138e-21)
(0.785778 0.715002 1.70382e-20)
(0.699905 0.658436 1.90299e-19)
(0.63344 0.603094 -3.44171e-20)
(0.585626 0.552204 -1.47742e-19)
(0.553284 0.507141 -6.69488e-20)
(0.532714 0.468573 8.19198e-20)
(0.517173 0.434414 -3.22712e-22)
(0.485029 0.389363 1.20843e-19)
(0.382395 0.29594 -2.87049e-19)
(0.196178 0.147391 3.42541e-19)
(0.025677 0.0188222 4.95728e-20)
(0.235401 0.18071 1.33589e-19)
(1.07255 0.811398 -1.03163e-19)
(1.21524 0.932644 5.9239e-21)
(1.19873 0.939214 2.22197e-19)
(1.14753 0.91958 7.76117e-20)
(1.08794 0.895503 2.23787e-19)
(1.02101 0.867533 -2.80485e-20)
(0.945966 0.834751 7.8442e-20)
(0.862128 0.795261 3.26718e-22)
(0.768801 0.745476 -1.14168e-19)
(0.67938 0.687785 0)
(0.608892 0.630342 -1.55221e-19)
(0.557359 0.576222 2.14695e-19)
(0.521978 0.526958 0)
(0.499923 0.483425 -1.75497e-19)
(0.48387 0.443896 1.09228e-19)
(0.450532 0.392006 -1.30841e-19)
(0.346743 0.289002 -1.57938e-19)
(0.168488 0.135415 -2.79612e-19)
(0.0188797 0.0147535 -2.1823e-19)
(0.23497 0.18809 -1.46684e-19)
(1.06329 0.840599 1.10293e-19)
(1.20327 0.965576 2.62132e-19)
(1.18662 0.971965 3.05216e-19)
(1.13549 0.951563 -1.62678e-19)
(1.0759 0.926727 1.53993e-19)
(1.00883 0.898047 -8.75374e-20)
(0.933292 0.864719 9.54282e-20)
(0.848354 0.82488 6.86657e-21)
(0.752827 0.774863 1.06451e-19)
(0.659806 0.716616 4.01664e-19)
(0.584971 0.657663 0)
(0.528952 0.600804 0)
(0.48953 0.547356 -7.74958e-20)
(0.464918 0.498235 0)
(0.447697 0.451654 2.38393e-19)
(0.413066 0.390624 2.86917e-19)
(0.308861 0.277005 0)
(0.140395 0.120288 0)
(0.0125472 0.0104414 2.38461e-19)
(0.234257 0.194913 1.61636e-19)
(1.0543 0.867997 1.31847e-19)
(1.19165 0.996298 1.88298e-19)
(1.17489 1.00251 -2.7216e-19)
(1.12389 0.981422 -1.81131e-19)
(1.06438 0.955923 -2.03682e-19)
(0.997278 0.92666 1.29606e-19)
(0.92138 0.892955 5.80708e-22)
(0.835505 0.853008 -4.74892e-21)
(0.737927 0.803135 -6.20696e-21)
(0.641397 0.744898 2.02818e-19)
(0.561997 0.685048 0)
(0.500928 0.626059 2.16513e-19)
(0.456211 0.569081 1.63093e-19)
(0.427325 0.514067 4.18998e-19)
(0.407331 0.457839 1.28657e-19)
(0.371235 0.383517 -1.59286e-19)
(0.269627 0.257311 -9.38266e-20)
(0.11538 0.101616 0)
(0.00786148 0.00634502 2.5997e-19)
(0.233746 0.201614 -3.55204e-19)
(1.04555 0.893728 0)
(1.18038 1.0249 2.10092e-19)
(1.16357 1.03094 -2.22826e-19)
(1.11277 1.00926 2.04656e-19)
(1.05341 0.983181 2.96694e-19)
(0.986379 0.953436 -2.99098e-19)
(0.91025 0.919499 3.62125e-21)
(0.823599 0.879649 0)
(0.72417 0.830244 -9.41971e-20)
(0.624265 0.772569 -4.16605e-19)
(0.540197 0.712495 2.08965e-20)
(0.473714 0.652196 2.93353e-19)
(0.422565 0.592684 0)
(0.38705 0.532343 2.82337e-19)
(0.360968 0.464092 0)
(0.320707 0.368931 0)
(0.22765 0.221687 -1.05084e-19)
(0.107859 0.0691871 0)
(0.023978 0.00777832 7.02131e-20)
(0.23288 0.207663 -3.87686e-19)
(1.03703 0.918077 0)
(1.16944 1.05159 3.39926e-19)
(1.15263 1.0575 0)
(1.10209 1.03532 -1.10908e-19)
(1.04292 1.00877 0)
(0.976064 0.978671 -2.21457e-20)
(0.899804 0.944678 -1.63751e-20)
(0.812524 0.905149 -2.12829e-21)
(0.711418 0.856561 -8.85621e-20)
(0.608307 0.800037 1.06426e-20)
(0.519502 0.74052 1.73163e-19)
(0.447248 0.679535 2.83564e-19)
(0.388601 0.619055 4.07637e-20)
(0.343521 0.555324 2.20356e-19)
(0.306119 0.4743 0)
(0.250916 0.350543 3.48779e-19)
(0.16076 0.158917 -2.07762e-19)
(0.0539782 0.0792651 2.38983e-19)
(-0.0325101 0.407812 -2.84716e-19)
(0.231968 0.213435 3.15821e-19)
(1.02854 0.940922 4.99771e-19)
(1.15878 1.07669 0)
(1.14195 1.08259 4.81489e-21)
(1.09168 1.06014 3.00902e-19)
(1.03269 1.03335 -5.72508e-19)
(0.966064 1.00312 -1.31199e-19)
(0.889707 0.969387 0)
(0.801845 0.930561 -3.77739e-20)
(0.699126 0.883366 -1.90958e-21)
(0.592762 0.828761 0)
(0.498921 0.770885 0)
(0.420398 0.710029 2.47673e-19)
(0.353635 0.65023 -1.27101e-19)
(0.295191 0.587194 -2.18633e-19)
(0.240284 0.497062 0)
(0.138768 0.339887 1.76687e-19)
(0.032867 0.463678 -2.09615e-19)
(0.0475853 1.78386 -1.14017e-19)
(0.0790615 2.75269 -1.43787e-19)
(0.230749 0.218608 -2.30567e-19)
(1.02018 0.962448 -6.29978e-19)
(1.14838 1.10018 1.95667e-19)
(1.13155 1.10609 1.88639e-19)
(1.08163 1.08356 0)
(1.02277 1.05666 -4.09474e-19)
(0.956549 1.02648 -2.18973e-19)
(0.880107 0.993214 1.06881e-20)
(0.791782 0.955375 -5.24184e-21)
(0.687615 0.910026 5.99183e-20)
(0.578176 0.857984 1.79804e-19)
(0.479407 0.803024 1.74849e-19)
(0.39435 0.742987 2.41764e-19)
(0.320259 0.684303 -2.87883e-19)
(0.248129 0.629214 -3.21302e-19)
(0.167639 0.540868 0)
(0.0754977 0.838017 0)
(0.124719 2.47714 9.21829e-20)
(0.131762 3.16454 0)
(0.131424 3.37111 2.17165e-19)
(0.23226 0.223504 0)
(1.01216 0.982918 0)
(1.13798 1.12195 0)
(1.12125 1.12781 5.24412e-20)
(1.07167 1.10539 2.68693e-19)
(1.01297 1.07856 -3.12141e-19)
(0.947443 1.04867 -1.56605e-19)
(0.870934 1.01604 1.20543e-20)
(0.782272 0.979428 -8.13984e-20)
(0.67687 0.936355 -1.04668e-20)
(0.564629 0.887506 3.16501e-19)
(0.461308 0.836704 -2.05469e-20)
(0.369555 0.778888 2.68826e-20)
(0.289807 0.718198 4.07734e-20)
(0.209784 0.678549 2.57285e-21)
(0.136953 0.942767 1.59131e-21)
(0.173728 2.61744 -4.48085e-19)
(0.19201 3.27183 -1.69799e-19)
(0.174806 3.4234 8.03321e-20)
(0.156906 3.44845 -8.29555e-20)
(0.15461 0.168556 1.31359e-19)
(0.998836 1.00536 0)
(1.12754 1.1422 -3.8376e-19)
(1.11149 1.14815 -4.87932e-19)
(1.06221 1.12608 5.58504e-19)
(1.00388 1.09947 3.31158e-19)
(0.938553 1.06971 1.82713e-19)
(0.862208 1.03791 -2.02803e-19)
(0.773418 1.00274 8.45526e-20)
(0.667209 0.962228 0)
(0.552665 0.917053 1.30996e-19)
(0.445362 0.871141 -1.27534e-19)
(0.34666 0.819534 0)
(0.263402 0.757547 3.54999e-20)
(0.19278 0.875382 8.71466e-20)
(0.182605 2.29617 -1.06608e-19)
(0.25916 3.31012 1.19523e-19)
(0.236603 3.44504 5.80523e-20)
(0.196971 3.46893 6.69119e-20)
(0.170999 3.47933 8.47999e-20)
(0.264575 0.257542 -2.5593e-19)
(0.97803 1.01072 0)
(1.10822 1.16437 3.91831e-19)
(1.09808 1.17869 5.04848e-19)
(1.04722 1.15658 -5.74305e-19)
(0.989075 1.13053 -3.51566e-19)
(0.923472 1.10216 -2.80594e-19)
(0.847224 1.0718 -1.51235e-20)
(0.757938 1.03921 -1.17973e-19)
(0.650099 1.00339 -2.28433e-20)
(0.531748 0.96564 4.28276e-21)
(0.418583 0.9289 9.3811e-20)
(0.309183 0.894164 2.11172e-20)
(0.238431 1.00732 -3.1082e-20)
(0.265141 2.18961 -7.24812e-20)
(0.332624 3.31322 5.06625e-20)
(0.319809 3.48419 -4.49491e-20)
(0.278574 3.5075 -2.63083e-20)
(0.237913 3.53495 5.55985e-21)
(0.181592 3.52588 -5.77692e-22)
(0.252965 0.25494 0)
(0.973701 1.03056 1.02865e-19)
(1.09956 1.18535 -7.75979e-20)
(1.08804 1.19951 -5.62264e-20)
(1.03766 1.17749 -3.76914e-19)
(0.979985 1.15169 3.43096e-19)
(0.914523 1.12361 1.88618e-19)
(0.838684 1.09422 -1.58102e-20)
(0.749685 1.06342 1.44615e-19)
(0.641692 1.03084 -1.45026e-20)
(0.52203 0.998678 -1.40257e-19)
(0.406606 0.96862 1.32393e-20)
(0.300633 0.959258 -1.77709e-20)
(0.283933 1.41708 -2.46965e-20)
(0.370078 3.0153 1.92354e-20)
(0.406015 3.47896 2.39549e-21)
(0.354166 3.55143 -3.69375e-20)
(0.313314 3.57281 -4.9857e-20)
(0.257716 3.59512 7.35866e-20)
(0.19515 3.58794 2.84288e-20)
(0.237575 0.251076 2.52424e-19)
(0.968083 1.05244 6.91468e-19)
(1.09022 1.20794 -2.21372e-19)
(1.07766 1.22168 -2.1352e-19)
(1.02779 1.19957 0)
(0.970569 1.17379 5.01007e-19)
(0.905535 1.14602 2.87179e-19)
(0.830394 1.11753 -1.65715e-20)
(0.742041 1.08861 1.5151e-20)
(0.634374 1.05933 9.32524e-20)
(0.514225 1.03306 -2.81743e-20)
(0.398399 1.01099 -8.39177e-20)
(0.310235 1.06922 -1.09939e-19)
(0.36292 2.01018 1.19085e-19)
(0.466478 3.36389 4.2346e-20)
(0.458126 3.55645 0)
(0.397468 3.60228 0)
(0.351415 3.64643 7.01349e-20)
(0.281688 3.70512 0)
(0.205642 3.67355 1.50463e-19)
(0.226218 0.25085 -3.67835e-19)
(0.960228 1.07463 -5.74987e-19)
(1.07948 1.23143 0)
(1.06618 1.24453 5.42232e-21)
(1.01683 1.22206 -3.66233e-19)
(0.96021 1.19618 7.43715e-19)
(0.895943 1.16871 1.92897e-19)
(0.821776 1.14106 -2.02745e-20)
(0.734349 1.11387 1.58393e-19)
(0.627441 1.08786 -8.93655e-21)
(0.507672 1.06758 0)
(0.394072 1.05574 0)
(0.342415 1.25746 -7.06922e-20)
(0.461181 2.67231 1.67409e-20)
(0.554942 3.50396 -3.12e-20)
(0.505174 3.60508 0)
(0.45997 3.6624 1.84636e-19)
(0.393244 3.73763 -2.73864e-19)