/*--------------------------------*- C++ -*----------------------------------*\
  =========                 |
  \\      /  F ield         | OpenFOAM: The Open Source CFD Toolbox
   \\    /   O peration     | Website:  https://openfoam.org
    \\  /    A nd           | Version:  6
     \\/     M anipulation  |
\*---------------------------------------------------------------------------*/
FoamFile
{
    version     2.0;
    format      ascii;
    class       surfaceScalarField;
    location    "113.6";
    object      phi;
}
// * * * * * * * * * * * * * * * * * * * * * * * * * * * * * * * * * * * * * //

dimensions      [0 3 -1 0 0 0 0];

internalField   nonuniform List<scalar> 
17370
(
-0.0899999
0.0898489
0.289162
-0.0714623
0.0537525
0.364485
-0.0381194
0.0276904
0.426597
-0.0196391
0.0146067
0.504284
-0.0107658
0.00827647
0.601891
-0.00627778
0.0049017
0.720434
-0.00373757
0.00289631
0.863748
-0.00215379
0.00159374
1.03601
-0.00107621
0.000662852
1.24292
-0.000254236
-0.00014561
1.49159
0.000526471
-0.000937162
1.4916
0.00133166
-0.00181186
1.24317
0.00233234
-0.00303645
1.03634
0.00385229
-0.00499897
0.864053
0.00636644
-0.0083603
0.721051
0.0108462
-0.0146827
0.603051
0.0197097
-0.027754
0.507484
0.0381754
-0.0537997
0.431793
0.0715014
-0.0898754
0.36515
0.0900164
0.198994
-0.128139
0.0882314
0.0399076
-0.364602
0.353384
-0.0746666
0.0858839
-0.446478
0.454324
-0.0843788
0.0765327
-0.521193
0.529905
-0.0684345
0.0597221
-0.612792
0.621572
-0.0515324
0.0427523
-0.726897
0.734168
-0.0352908
0.02802
-0.867477
0.872597
-0.0224169
0.0172975
-1.03848
1.04193
-0.0134835
0.0100291
-1.2446
1.24704
-0.0074145
0.00497764
-1.49262
1.49461
-0.00302488
0.00103703
-1.49251
1.49423
0.000634863
-0.0023597
-1.24397
1.24585
0.00427073
-0.00615275
-1.03751
1.04002
0.00849356
-0.0110071
-0.866096
0.869826
0.0143547
-0.0180844
-0.724388
0.72993
0.0231257
-0.0286682
-0.608696
0.616108
0.0358808
-0.0432928
-0.514894
0.523037
0.0520212
-0.0601638
-0.439854
0.447911
0.0688246
-0.0768815
-0.375293
0.376735
0.0846746
-0.0861171
-0.257327
0.222471
0.0748244
-0.039968
-0.0685281
0.0587053
0.0098228
-0.0517918
0.0583684
-0.374137
0.36756
-0.0574474
0.0536914
-0.453601
0.457358
-0.0485986
0.0446433
-0.527956
0.531911
-0.0408005
0.0371584
-0.621574
0.625216
-0.0330524
0.0289712
-0.735359
0.739441
-0.0243932
0.020226
-0.874351
0.878518
-0.0158712
0.0121693
-1.0435
1.0472
-0.00842369
0.00524436
-1.24857
1.25175
-0.00191024
-0.00116916
-1.49666
1.49974
0.00422211
-0.00749097
-1.4972
1.50047
0.0105647
-0.0141505
-1.25006
1.25365
0.017689
-0.0218691
-1.04591
1.05009
0.0258924
-0.0303296
-0.877748
0.882185
0.0342963
-0.0382887
-0.739889
0.743881
0.0418342
-0.0455779
-0.626763
0.630506
0.0494478
-0.0544592
-0.534801
0.539813
0.0581234
-0.0589293
-0.457465
0.458271
0.0522151
-0.0320017
-0.335736
0.315522
0.00989145
-0.0683336
0.0584422
-0.0529589
0.0489681
0.00399088
-0.0331296
0.0436606
-0.358138
0.347607
-0.0473477
0.0467127
-0.459304
0.459939
-0.0436503
0.0402923
-0.535822
0.53918
-0.036514
0.0332042
-0.628551
0.631861
-0.0297586
0.026718
-0.742673
0.745713
-0.0234477
0.0203295
-0.882044
0.885162
-0.0167863
0.0133956
-1.0508
1.05419
-0.00959104
0.00604323
-1.25519
1.25874
-0.00206485
-0.00174039
-1.50325
1.50705
0.00551296
-0.00938922
-1.50412
1.508
0.0127876
-0.0163735
-1.2574
1.26099
0.0195399
-0.022839
-1.05389
1.05719
0.0257511
-0.0288153
-0.88566
0.888724
0.0316858
-0.0349616
-0.74713
0.750406
0.0381284
-0.0417621
-0.634281
0.637915
0.0449963
-0.0479163
-0.544113
0.547033
0.0483996
-0.0444982
-0.456545
0.452644
0.0337097
-0.0162393
-0.296138
0.278668
0.00407692
-0.0526172
0.0485403
-0.0458964
0.043407
0.00248935
-0.0227624
0.0331186
-0.336938
0.326582
-0.0389204
0.0399246
-0.459636
0.458632
-0.0387236
0.0364293
-0.54191
0.544204
-0.0337537
0.0311492
-0.634925
0.63753
-0.0280749
0.0251631
-0.748771
0.751683
-0.0218824
0.018873
-0.888126
0.891136
-0.0155505
0.012436
-1.05733
1.06044
-0.00889473
0.00547359
-1.2622
1.26562
-0.0014988
-0.00239499
-1.51094
1.51483
0.00624456
-0.0100824
-1.51188
1.51572
0.0133058
-0.0165615
-1.26443
1.26769
0.0193837
-0.0223862
-1.06028
1.06328
0.0251211
-0.0281237
-0.891756
0.894758
0.0308029
-0.0336436
-0.753598
0.756439
0.0360511
-0.0385304
-0.640967
0.643447
0.040657
-0.0416349
-0.548822
0.5498
0.0403952
-0.0342471
-0.447341
0.441193
0.0235099
-0.0102616
-0.263421
0.250173
0.00259599
-0.0453698
0.0427739
-0.0413396
0.0395803
0.00175932
-0.016689
0.0259081
-0.316758
0.307539
-0.0324833
0.0346027
-0.457052
0.454933
-0.0341658
0.0324837
-0.546197
0.547879
-0.0302918
0.0281851
-0.639852
0.641958
-0.0257386
0.0233242
-0.754343
0.756757
-0.0204443
0.0176341
-0.894045
0.896855
-0.0143746
0.011285
-1.06351
1.0666
-0.00777406
0.00443148
-1.26896
1.2723
-0.000583075
-0.00316249
-1.51862
1.52237
0.00685129
-0.0105241
-1.51944
1.52311
0.013614
-0.0167622
-1.27094
1.27409
0.0194808
-0.0223318
-1.06629
1.06914
0.0247883
-0.0273073
-0.897545
0.900064
0.0294195
-0.0315633
-0.75887
0.761014
0.0334169
-0.035355
-0.645583
0.647521
0.0367923
-0.0369255
-0.550296
0.550429
0.0344432
-0.0273588
-0.434492
0.427408
0.0176244
-0.00743998
-0.238604
0.22842
0.00188982
-0.0405854
0.0386956
-0.0380678
0.0367482
0.00131953
-0.0127125
0.0206147
-0.298986
0.291084
-0.0273205
0.0302114
-0.452403
0.449512
-0.0303918
0.0292531
-0.549331
0.550469
-0.0272453
0.0253127
-0.644015
0.645948
-0.0230917
0.0209312
-0.759016
0.761177
-0.0183871
0.0158754
-0.899448
0.90196
-0.0129015
0.00999385
-1.06955
1.07246
-0.00660267
0.00333747
-1.27557
1.27884
0.000431647
-0.0040771
-1.52602
1.52967
0.00765122
-0.011199
-1.52669
1.53024
0.0141472
-0.0170858
-1.27722
1.28016
0.0195312
-0.0219952
-1.07186
1.07432
0.0240632
-0.0261521
-0.902317
0.904406
0.0279298
-0.0297662
-0.762973
0.764809
0.0313785
-0.0330766
-0.64932
0.651018
0.0338574
-0.0332503
-0.550189
0.549582
0.0298382
-0.0224325
-0.420101
0.412695
0.0138664
-0.00578463
-0.219385
0.211303
0.00147848
-0.0370354
0.035557
-0.0355991
0.0345868
0.00101233
-0.00989733
0.0165555
-0.283832
0.277174
-0.0229773
0.0263047
-0.44639
0.443062
-0.02705
0.0263249
-0.551405
0.55213
-0.0245441
0.0227385
-0.647871
0.649676
-0.02064
0.0185923
-0.763275
0.765322
-0.0161818
0.0138167
-0.904323
0.906688
-0.0110359
0.00831307
-1.0752
1.07792
-0.0051161
0.00199862
-1.28199
1.28511
0.00164199
-0.00517764
-1.53323
1.53676
0.00862453
-0.0119898
-1.53367
1.53703
0.014715
-0.0173545
-1.28303
1.28567
0.0195092
-0.0216621
-1.07667
1.07882
0.0234783
-0.0253239
-0.906341
0.908187
0.026896
-0.0285166
-0.766527
0.768148
0.0299244
-0.0312734
-0.652572
0.653921
0.0315543
-0.0302018
-0.548607
0.547254
0.0261538
-0.0188077
-0.405288
0.397942
0.0113133
-0.00469262
-0.204018
0.197397
0.0012058
-0.0342286
0.0330228
-0.0337023
0.0329192
0.000783057
-0.00780224
0.0133728
-0.271093
0.265523
-0.0192897
0.0227961
-0.439644
0.436137
-0.0240031
0.0235168
-0.552782
0.553268
-0.0219947
0.020292
-0.651493
0.653196
-0.0182798
0.0163088
-0.767324
0.769295
-0.0139796
0.0116924
-0.90894
0.911227
-0.00900441
0.00638273
-1.08052
1.08314
-0.00331769
0.000335698
-1.2881
1.29109
0.00314109
-0.00650881
-1.54017
1.54354
0.00976743
-0.0129063
-1.54024
1.54338
0.0154079
-0.0177925
-1.28827
1.29066
0.0197212
-0.0216418
-1.08092
1.08284
0.0232551
-0.0248888
-0.9099
0.911534
0.0262749
-0.0276986
-0.769658
0.771081
0.0289029
-0.0298595
-0.655073
0.656029
0.0297592
-0.0277224
-0.545546
0.543509
0.0232511
-0.0161459
-0.390705
0.3836
0.00953485
-0.00394306
-0.191337
0.185745
0.00101833
-0.0319205
0.0309021
-0.0322368
0.0316326
0.000604137
-0.00617682
0.0108146
-0.260452
0.255814
-0.0161194
0.0196055
-0.432651
0.429164
-0.0211173
0.020846
-0.5537
0.553971
-0.0195451
0.0178952
-0.654935
0.656585
-0.0159289
0.0139969
-0.771232
0.773165
-0.0117143
0.00947416
-0.913406
0.915646
-0.00684222
0.00427975
-1.08565
1.08821
-0.00129377
-0.00159282
-1.29396
1.29685
0.00492881
-0.00812841
-1.54677
1.54997
0.0111948
-0.0141185
-1.54635
1.54928
0.0164201
-0.0185796
-1.29304
1.2952
0.0203015
-0.0220012
-1.08472
1.08642
0.0234189
-0.024849
-0.913032
0.914462
0.0260626
-0.0273057
-0.7724
0.773643
0.0283652
-0.0288955
-0.65678
0.657311
0.0283936
-0.0257704
-0.54117
0.538546
0.0210235
-0.0142164
-0.376645
0.369838
0.00829258
-0.00342677
-0.180551
0.175685
0.000889973
-0.0299556
0.0290656
-0.0311118
0.0306538
0.000457967
-0.00485932
0.00868846
-0.251613
0.247783
-0.0133348
0.0166498
-0.425784
0.422469
-0.0183237
0.0182295
-0.554218
0.554312
-0.0171089
0.0154854
-0.658303
0.659926
-0.0135294
0.0115995
-0.775074
0.777004
-0.00932086
0.00709118
-0.917781
0.920011
-0.00448154
0.00195102
-1.09067
1.0932
0.000984131
-0.00380356
-1.29964
1.30246
0.00703409
-0.0100986
-1.55304
1.55611
0.0130012
-0.0157309
-1.55204
1.55477
0.0178405
-0.0197756
-1.29738
1.29931
0.0212905
-0.0227723
-1.08809
1.08957
0.024004
-0.0252469
-0.915758
0.917001
0.0263057
-0.0273851
-0.774784
0.775863
0.0282306
-0.0283883
-0.657639
0.657797
0.0274518
-0.0243149
-0.535659
0.532522
0.0193802
-0.0128537
-0.363183
0.356657
0.00744097
-0.00307961
-0.171099
0.166738
0.000805326
-0.0282246
0.0274193
-0.0302678
0.0299348
0.000333044
-0.00374602
0.00685992
-0.244343
0.241229
-0.0108336
0.013865
-0.419326
0.416295
-0.0155712
0.0156142
-0.554416
0.554373
-0.0145621
0.0129972
-0.661613
0.663178
-0.0110206
0.0090577
-0.778921
0.780884
-0.00674171
0.00448443
-0.922141
0.924398
-0.00185617
-0.000677329
-1.09563
1.09816
0.00359635
-0.00637858
-1.30518
1.30797
0.00953646
-0.0124957
-1.55905
1.56201
0.0152589
-0.0178104
-1.55733
1.55988
0.0197341
-0.0214467
-1.30129
1.303
0.0227572
-0.0240266
-1.09104
1.09231
0.0250779
-0.0261398
-0.918107
0.919169
0.027051
-0.02797
-0.776826
0.777745
0.0285516
-0.0284002
-0.657801
0.657649
0.0269773
-0.0233552
-0.529145
0.525522
0.0182648
-0.0119535
-0.350256
0.343945
0.00689413
-0.0028638
-0.162566
0.158536
0.000755024
-0.0266451
0.0258901
-0.029667
0.0294467
0.000220239
-0.00276014
0.00522338
-0.238471
0.236007
-0.00852165
0.011184
-0.413487
0.410824
-0.0128059
0.0129097
-0.554393
0.554289
-0.0118847
0.0103455
-0.664833
0.666372
-0.0083216
0.00629364
-0.782837
0.784865
-0.00390137
0.00157876
-0.926558
0.928881
0.00111155
-0.00368831
-1.1006
1.10318
0.00663442
-0.0094161
-1.31067
1.31345
0.0125365
-0.0154175
-1.56485
1.56773
0.0180621
-0.0204514
-1.56226
1.56465
0.022198
-0.0236916
-1.30478
1.30628
0.0247976
-0.0258522
-1.09358
1.09464
0.0267175
-0.0275871
-0.920088
0.920958
0.0283353
-0.0290843
-0.778486
0.779235
0.0293754
-0.0288688
-0.657368
0.656862
0.026973
-0.0228848
-0.521689
0.5176
0.0176306
-0.0114401
-0.337718
0.331527
0.00659248
-0.00275234
-0.154622
0.150782
0.00073189
-0.0251522
0.0244203
-0.0292887
0.029177
0.000111762
-0.00183689
0.00368445
-0.233881
0.232034
-0.00629904
0.00851957
-0.408429
0.406209
-0.00994696
0.010031
-0.554312
0.554228
-0.00899597
0.00743987
-0.66804
0.669596
-0.00533652
0.00320947
-0.786885
0.789012
-0.000700632
-0.00172565
-0.931107
0.933533
0.00452158
-0.00718222
-1.10567
1.10833
0.0101995
-0.0130185
-1.31616
1.31898
0.0161379
-0.018968
-1.5705
1.57333
0.0215133
-0.0237535
-1.56686
1.5691
0.0253282
-0.0266059
-1.30787
1.30915
0.0275084
-0.0283444
-1.0957
1.09654
0.0290152
-0.0296848
-0.92168
0.92235
0.0302753
-0.0308717
-0.779799
0.780396
0.0307902
-0.0298594
-0.656183
0.655252
0.0274608
-0.0228922
-0.513306
0.508737
0.0174334
-0.0112553
-0.325371
0.319193
0.00649285
-0.002726
-0.146999
0.143232
0.00073091
-0.0236943
0.0229634
-0.0291279
0.0291249
2.97026e-06
-0.00092696
0.00216916
-0.230516
0.229274
-0.00408188
0.00579438
-0.404296
0.402584
-0.00692308
0.00690389
-0.554341
0.55436
-0.00580865
0.00419219
-0.671322
0.672938
-0.00196573
-0.000298229
-0.791129
0.793393
0.0029683
-0.00554087
-0.935864
0.938437
0.0084904
-0.011279
-1.11092
1.11371
0.0144147
-0.0173119
-1.32174
1.32464
0.0204705
-0.02328
-1.57605
1.57886
0.0257475
-0.0278512
-1.57114
1.57325
0.0292602
-0.0303258
-1.31055
1.31161
0.0310251
-0.0316395
-1.09739
1.098
0.0321094
-0.032564
-0.922866
0.92332
0.0329629
-0.0332763
-0.780715
0.781029
0.0328866
-0.0314479
-0.654142
0.652703
0.0285033
-0.0234049
-0.503949
0.49885
0.0176664
-0.0113745
-0.31299
0.306698
0.00657468
-0.00277527
-0.139469
0.135669
0.00074954
-0.0222285
0.021479
-0.0291881
0.029301
-0.000112909
1.74974e-05
0.000608824
-0.228361
0.227735
-0.00178611
0.00292321
-0.401218
0.400081
-0.00365166
0.00344358
-0.554661
0.554869
-0.0022269
0.000489255
-0.674774
0.676512
0.00190265
-0.00434926
-0.795646
0.798093
0.00723257
-0.01
-0.940915
0.943683
0.0131573
-0.0161228
-1.11643
1.1194
0.0194286
-0.0224475
-1.32748
1.3305
0.025687
-0.0285073
-1.58156
1.58439
0.0309189
-0.0328985
-1.57513
1.57711
0.0341487
-0.0350022
-1.3128
1.31366
0.0354903
-0.035871
-1.09862
1.099
0.036131
-0.0363629
-0.923614
0.923846
0.0365505
-0.0365118
-0.781048
0.781009
0.0357605
-0.0337267
-0.651061
0.649027
0.0301612
-0.0244475
-0.493502
0.487789
0.0183252
-0.0117795
-0.300316
0.29377
0.00682186
-0.00289184
-0.131825
0.127895
0.00078521
-0.020717
0.0199318
-0.0294847
0.0297368
-0.000252081
0.00100754
-0.00106014
-0.227453
0.227506
0.000677027
-0.000188497
-0.399336
0.398847
-3.77673e-05
-0.000455287
-0.555463
0.555957
0.00186313
-0.00378515
-0.67852
0.680442
0.00640515
-0.00908844
-0.800524
0.803208
0.0122451
-0.0152636
-0.946361
0.949379
0.0186908
-0.0218893
-1.12231
1.12551
0.0254235
-0.0286118
-1.33348
1.33667
0.0319753
-0.0348334
-1.5871
1.58996
0.0372015
-0.0390668
-1.57885
1.58071
0.0401686
-0.0408083
-1.31462
1.31526
0.0410712
-0.0411982
-1.09937
1.0995
0.0412278
-0.0412213
-0.923898
0.923892
0.0412196
-0.0407159
-0.78067
0.780167
0.0395186
-0.0367853
-0.646779
0.644045
0.0324957
-0.0260443
-0.481777
0.475326
0.0194068
-0.0124541
-0.28706
0.280108
0.00721927
-0.00306724
-0.123874
0.119722
0.000835104
-0.0191266
0.0182915
-0.0300584
0.0304546
-0.000396155
0.0021237
-0.00282849
-0.227867
0.228572
0.00332898
-0.00361365
-0.398796
0.39908
0.00404583
-0.00492541
-0.556979
0.557859
0.00659605
-0.00877548
-0.682691
0.684871
0.0117001
-0.0146884
-0.805871
0.808859
0.0181909
-0.0215265
-0.952315
0.955651
0.0252952
-0.0287893
-1.12867
1.13216
0.0326152
-0.0360234
-1.33983
1.34324
0.0395552
-0.0424777
-1.59271
1.59564
0.0448108
-0.0465554
-1.58228
1.58403
0.0474954
-0.0479272
-1.31598
1.31641
0.0479568
-0.0478142
-1.0996
1.09946
0.0475999
-0.047339
-0.923666
0.923405
0.0470823
-0.0460638
-0.779402
0.778384
0.0443153
-0.0407391
-0.641083
0.637507
0.0355788
-0.0282216
-0.468509
0.461151
0.0209079
-0.0133815
-0.272911
0.265385
0.00775044
-0.00329188
-0.115436
0.110977
0.000895937
-0.0174307
0.0165348
-0.030941
0.031518
-0.000577034
0.0034036
-0.00491104
-0.229705
0.231212
0.00634045
-0.0074629
-0.399799
0.400921
0.00867137
-0.0100776
-0.559427
0.560834
0.0121547
-0.0146769
-0.68743
0.689952
0.0179969
-0.0213691
-0.811821
0.815193
0.0253028
-0.029033
-0.958915
0.962645
0.0332255
-0.0370852
-1.13563
1.13949
0.0412702
-0.0449483
-1.34663
1.35031
0.0486877
-0.0516946
-1.59845
1.60146
0.0539978
-0.0556174
-1.58543
1.58705
0.0563967
-0.056598
-1.31688
1.31708
0.0563684
-0.0559377
-1.09926
1.09883
0.0554709
-0.0549286
-0.922892
0.92235
0.0542692
-0.0527534
-0.777198
0.775682
0.0502846
-0.0456843
-0.633672
0.629071
0.0394636
-0.0309865
-0.45334
0.444863
0.0228078
-0.0145308
-0.257531
0.249253
0.00838886
-0.00355102
-0.106347
0.10151
0.000962754
-0.0156096
0.0146468
-0.032198
0.0330094
-0.000811435
0.00498554
-0.00740937
-0.233187
0.235611
0.0099211
-0.0119863
-0.402555
0.40462
0.0140954
-0.0161531
-0.563063
0.565121
0.0187731
-0.0217397
-0.692917
0.695884
0.0255713
-0.0294207
-0.818541
0.82239
0.0338879
-0.0381034
-0.966321
0.970536
0.0428125
-0.0471123
-1.14334
1.14764
0.0517237
-0.0557158
-1.35397
1.35797
0.059689
-0.062782
-1.60435
1.60744
0.0650394
-0.0665112
-1.58826
1.58973
0.0671151
-0.0670397
-1.31721
1.31713
0.066537
-0.0657923
-1.09833
1.09759
0.0650597
-0.0642561
-0.921519
0.920716
0.0630729
-0.0609486
-0.774055
0.77193
0.0575905
-0.0517114
-0.624148
0.618269
0.0441758
-0.034309
-0.435817
0.425951
0.0250504
-0.0158432
-0.24056
0.231353
0.0090899
-0.00382149
-0.0964715
0.0912031
0.00102817
-0.0136543
0.0126261
-0.0339265
0.0350454
-0.00111893
0.00697616
-0.0105092
-0.238542
0.242075
0.0142983
-0.0174497
-0.407365
0.410516
0.0205918
-0.0234303
-0.568177
0.571016
0.0267522
-0.030292
-0.69938
0.70292
0.0347867
-0.0392345
-0.826225
0.830673
0.044358
-0.0491611
-0.974717
0.97952
0.0544849
-0.0592968
-1.15194
1.15675
0.0643885
-0.0687181
-1.36194
1.36627
0.0729211
-0.0760712
-1.61039
1.61354
0.0782404
-0.0795149
-1.59071
1.59199
0.0799008
-0.0795218
-1.31687
1.31649
0.078724
-0.0776367
-1.09674
1.09565
0.0766348
-0.0755284
-0.919582
0.918475
0.0737805
-0.0708617
-0.769751
0.766833
0.0663564
-0.0588428
-0.611983
0.60447
0.049661
-0.0380815
-0.415381
0.403802
0.0275139
-0.0172143
-0.221649
0.21135
0.00978122
-0.00406849
-0.0857224
0.0800096
0.00108177
-0.0115725
0.0104907
-0.0362617
0.0378029
-0.00154112
0.00958892
-0.014501
-0.246127
0.251039
0.0198125
-0.0242246
-0.414596
0.419008
0.0285525
-0.0323256
-0.575102
0.578875
0.0365306
-0.0408343
-0.707095
0.711399
0.0461616
-0.0513582
-0.835118
0.840315
0.0572826
-0.0627835
-0.984314
0.989815
0.0688143
-0.0741902
-1.16158
1.16695
0.0797802
-0.0844268
-1.37056
1.3752
0.0887995
-0.0919244
-1.61649
1.61961
0.0939168
-0.0949057
-1.59268
1.59367
0.0950072
-0.0943227
-1.31582
1.31513
0.0931521
-0.0917153
-1.09444
1.093
0.0904441
-0.0888462
-0.9169
0.915302
0.0865777
-0.0825715
-0.763851
0.759845
0.0765829
-0.0669772
-0.596438
0.586832
0.0557364
-0.0420767
-0.391371
0.377711
0.0299807
-0.0184771
-0.200494
0.188991
0.0103562
-0.00424441
-0.0740992
0.0679873
0.00111029
-0.00939387
0.00828358
-0.0394143
0.0415672
-0.00215289
0.0131919
-0.0198679
-0.256448
0.263124
0.0270105
-0.032894
-0.424729
0.430613
0.0385934
-0.0434999
-0.584226
0.589133
0.0488071
-0.0540931
-0.716457
0.721743
0.0605009
-0.0666233
-0.845515
0.851638
0.0734922
-0.0797769
-0.995325
1.00161
0.0865596
-0.0924922
-1.17232
1.17825
0.0985197
-0.103385
-1.37975
1.38461
0.107782
-0.110726
-1.62245
1.62539
0.112388
-0.112955
-1.59395
1.59451
0.112682
-0.111624
-1.31398
1.31292
0.110062
-0.108247
-1.09144
1.08963
0.106687
-0.104541
-0.913096
0.91095
0.101596
-0.096114
-0.755735
0.750254
0.0881347
-0.0758173
-0.576551
0.564234
0.0620149
-0.0458938
-0.363057
0.346936
0.032108
-0.0193951
-0.17692
0.164208
0.0106757
-0.00429209
-0.0617307
0.0553471
0.00109904
-0.00717522
0.00607618
-0.043727
0.0468242
-0.00309712
0.0184268
-0.0274102
-0.270261
0.279244
0.036786
-0.0444498
-0.438449
0.446113
0.051813
-0.0580809
-0.596054
0.602322
0.0648213
-0.0714636
-0.727894
0.734536
0.0791429
-0.0862977
-0.857746
0.864901
0.0941736
-0.101239
-1.00789
1.01496
0.108696
-0.115051
-1.18409
1.19045
0.121312
-0.126176
-1.38925
1.39412
0.130332
-0.132846
-1.62792
1.63043
0.133955
-0.133906
-1.59423
1.59418
0.133135
-0.131629
-1.31119
1.30968
0.129667
-0.127412
-1.08767
1.08541
0.125425
-0.122766
-0.908042
0.905383
0.118741
-0.111208
-0.744539
0.737006
0.100557
-0.0847544
-0.551048
0.535245
0.06783
-0.0489252
-0.329728
0.310823
0.0334267
-0.01968
-0.151006
0.13726
0.010587
-0.00415532
-0.0489193
0.0424876
0.00103518
-0.00500136
0.00396619
-0.049799
0.0544948
-0.00469574
0.026547
-0.0386432
-0.288755
0.300851
0.0508908
-0.0609116
-0.456875
0.466896
0.0703224
-0.0782323
-0.611165
0.619075
0.0867476
-0.0949406
-0.741946
0.750139
0.104022
-0.112202
-0.872018
0.880199
0.120952
-0.128578
-1.02192
1.02955
0.136382
-0.142813
-1.19654
1.20297
0.148894
-0.153372
-1.39855
1.40303
0.156873
-0.158604
-1.63234
1.63407
0.158861
-0.157948
-1.59312
1.59221
0.156509
-0.154427
-1.30721
1.30513
0.152011
-0.149241
-1.08301
1.08024
0.146812
-0.143387
-0.901548
0.898122
0.137784
-0.127265
-0.728973
0.718454
0.112983
-0.092773
-0.518331
0.498121
0.0721951
-0.0503878
-0.290881
0.269074
0.0334077
-0.0190574
-0.123246
0.108896
0.00996637
-0.00379639
-0.0361609
0.0299909
0.000910408
-0.00297753
0.00206712
-0.0587711
0.0667945
-0.00802345
0.0407807
-0.0574735
-0.314146
0.330839
0.0737674
-0.0868822
-0.481598
0.494713
0.0984162
-0.107957
-0.630088
0.639629
0.118252
-0.127891
-0.75881
0.768449
0.138071
-0.146798
-0.888103
0.89683
0.15578
-0.163331
-1.0368
1.04435
0.1708
-0.176677
-1.20882
1.2147
0.181938
-0.185446
-1.40677
1.41028
0.187737
-0.188217
-1.63495
1.63543
0.187236
-0.18517
-1.59011
1.58805
0.182867
-0.180094
-1.30176
1.29899
0.177125
-0.173761
-1.07724
1.07387
0.170711
-0.166011
-0.892876
0.888176
0.15793
-0.143041
-0.706986
0.692098
0.123809
-0.0983247
-0.476488
0.451004
0.0739091
-0.0495666
-0.246588
0.222246
0.0317022
-0.0174316
-0.094711
0.0804403
0.00880115
-0.00321913
-0.0241099
0.0185278
0.000722832
-0.0012122
0.000489367
-0.0742411
0.0788015
-0.00456032
0.0314159
-0.0460855
-0.350489
0.365159
0.0607598
-0.0728536
-0.513863
0.525956
0.0840035
-0.0947106
-0.652716
0.663424
0.107012
-0.118278
-0.777383
0.788649
0.130874
-0.142194
-0.904578
0.915898
0.154435
-0.165509
-1.05103
1.0621
0.177372
-0.187846
-1.21957
1.23005
0.198715
-0.207892
-1.41272
1.4219
0.216841
-0.223687
-1.63479
1.64164
0.228497
-0.232025
-1.58458
1.58811
0.234201
-0.235837
-1.29454
1.29618
0.23664
-0.236192
-1.06989
1.06944
0.234735
-0.22887
-0.880468
0.874603
0.215827
-0.19122
-0.675585
0.650979
0.159871
-0.12097
-0.423938
0.385037
0.0866943
-0.055012
-0.198018
0.166336
0.0335435
-0.0175653
-0.0670864
0.0511082
0.00841135
-0.00285653
-0.0134447
0.00788984
0.000561044
0.000246282
-0.000807326
-0.0867139
0.0848729
0.00184104
0.00909512
-0.0188827
-0.38285
0.392638
0.0302232
-0.0391453
-0.543105
0.552027
0.0483268
-0.0574417
-0.67686
0.685974
0.0686976
-0.0792646
-0.799361
0.809928
0.0906905
-0.101214
-0.926679
0.937203
0.112588
-0.122549
-1.07296
1.08292
0.133449
-0.142748
-1.24041
1.24971
0.152445
-0.160477
-1.43092
1.43895
0.16804
-0.173809
-1.64801
1.65378
0.17772
-0.180421
-1.59086
1.59356
0.181745
-0.182762
-1.29595
1.29697
0.183164
-0.182292
-1.06743
1.06656
0.179265
-0.170621
-0.86322
0.854576
0.155199
-0.130376
-0.62168
0.596857
0.102712
-0.0722831
-0.343765
0.313336
0.0486039
-0.0290831
-0.136111
0.11659
0.0168443
-0.00836637
-0.0365407
0.0280627
0.00376791
-0.00117688
-0.0026739
8.28616e-05
0.000181099
0.00154711
-0.00172821
-0.088603
0.085634
0.00296908
-0.000253623
-0.00561884
-0.405235
0.411108
0.013313
-0.0200923
-0.565231
0.57201
0.0271811
-0.0350676
-0.697595
0.705481
0.0449044
-0.0541351
-0.819396
0.828627
0.0643499
-0.0736218
-0.946941
0.956213
0.0834326
-0.0924598
-1.09278
1.10181
0.102172
-0.110615
-1.25868
1.26713
0.119047
-0.125977
-1.44651
1.45344
0.132709
-0.137623
-1.6592
1.66411
0.140767
-0.142769
-1.59565
1.59765
0.143527
-0.14411
-1.29627
1.29685
0.143899
-0.142572
-1.06288
1.06156
0.138434
-0.128259
-0.841774
0.831599
0.112399
-0.0893599
-0.568553
0.545513
0.0664924
-0.0440526
-0.281129
0.258689
0.028537
-0.0167016
-0.0976314
0.085796
0.00955829
-0.00473259
-0.019861
0.0150353
0.00213251
-0.000665367
0.00266207
-0.00412922
0.000103791
0.00210325
-0.00220704
-0.0874852
0.0846253
0.00285992
-0.00442025
0.0012722
-0.420567
0.423715
0.00387869
-0.00913569
-0.582134
0.587391
0.0152346
-0.0219051
-0.714771
0.721442
0.0303768
-0.0383536
-0.837081
0.845058
0.0471621
-0.055198
-0.964933
0.972969
0.0641184
-0.0719214
-1.11041
1.11822
0.0805419
-0.0876168
-1.27521
1.28229
0.0950978
-0.10123
-1.46026
1.46639
0.106984
-0.110923
-1.66885
1.67279
0.113622
-0.115296
-1.59917
1.60084
0.115764
-0.115574
-1.29601
1.29582
0.114945
-0.113097
-1.05681
1.05496
0.108154
-0.0977766
-0.817672
0.807294
0.0826157
-0.0628102
-0.5198
0.499994
0.0449741
-0.0290947
-0.235233
0.219354
0.0187111
-0.0110307
-0.0734742
0.0657938
0.00639446
-0.00323419
-0.00986045
0.00670019
0.00150456
-0.000491052
0.00585123
-0.00686474
8.40378e-05
0.0024355
-0.00251954
-0.0860295
0.0834259
0.00260365
-0.00606261
0.00463866
-0.431091
0.432515
-0.000698745
-0.00332393
-0.595835
0.599858
0.00827707
-0.014286
-0.729292
0.735301
0.0214246
-0.0284355
-0.852221
0.859232
0.0360927
-0.0431085
-0.980531
0.987547
0.050825
-0.0577836
-1.12588
1.13284
0.0651998
-0.0716558
-1.28924
1.29569
0.0781981
-0.0835327
-1.4722
1.47754
0.0884841
-0.0917884
-1.67673
1.68003
0.0939922
-0.0950792
-1.60188
1.60297
0.0952604
-0.0948531
-1.29474
1.29433
0.0938185
-0.0913478
-1.04971
1.04724
0.0862539
-0.0760701
-0.79334
0.783156
0.0625536
-0.0460238
-0.477979
0.461449
0.0323658
-0.0209119
-0.202163
0.190709
0.0135456
-0.00816185
-0.0573156
0.0519318
0.00487167
-0.00254618
-0.00304986
0.000724377
0.00123076
-0.000421265
0.0081205
-0.00893
8.42952e-05
0.00268438
-0.00276867
-0.0845442
0.0822442
0.00230008
-0.00640614
0.00563572
-0.438449
0.439219
-0.00318562
-0.000110597
-0.606521
0.609817
0.00484502
-0.00996932
-0.741621
0.746746
0.0160809
-0.0221403
-0.86534
0.871399
0.0288992
-0.0351273
-0.994174
1.0004
0.0421106
-0.0481893
-1.13949
1.14557
0.0547905
-0.060528
-1.30183
1.30757
0.0662536
-0.0708752
-1.4826
1.48722
0.075073
-0.078157
-1.68334
1.68642
0.0798525
-0.0807344
-1.60365
1.60454
0.0806471
-0.0799295
-1.29314
1.29243
0.0787646
-0.0757272
-1.04185
1.03881
0.0705004
-0.0610061
-0.769811
0.760317
0.0490847
-0.0354111
-0.442905
0.429231
0.0248054
-0.0161834
-0.17784
0.169218
0.0107241
-0.00663674
-0.045637
0.0415497
0.00405378
-0.00217514
0.00207283
-0.00395147
0.00107613
-0.000385681
0.00990986
-0.0106003
8.32362e-05
0.00288754
-0.00297077
-0.0832623
0.0813888
0.00187346
-0.00592554
0.00567047
-0.443858
0.444113
-0.00368719
0.00119687
-0.615764
0.618255
0.00312015
-0.0077039
-0.752242
0.756826
0.0133876
-0.0185576
-0.876979
0.882149
0.024424
-0.0298704
-1.00655
1.012
0.036328
-0.0417242
-1.15163
1.15703
0.0474758
-0.0526776
-1.31306
1.31827
0.0581389
-0.0621682
-1.49182
1.49585
0.0659012
-0.0683904
-1.68913
1.69162
0.0699976
-0.07032
-1.60521
1.60553
0.0702098
-0.0694496
-1.29112
1.29036
0.0678955
-0.064761
-1.03353
1.03039
0.0595171
-0.0505429
-0.747604
0.73863
0.040247
-0.0287761
-0.413484
0.402013
0.0202753
-0.0135688
-0.159196
0.152489
0.00920315
-0.005845
-0.036552
0.0331939
0.00365131
-0.00199901
0.00626424
-0.00791654
0.00100365
-0.000366268
0.0114149
-0.0120523
8.38184e-05
0.00305343
-0.00313725
-0.0823744
0.0808382
0.00153621
-0.00517485
0.00523577
-0.447946
0.447885
-0.00351325
0.00124903
-0.62366
0.625924
0.00270531
-0.00675519
-0.761629
0.765679
0.0115512
-0.0163953
-0.887205
0.892049
0.0216806
-0.0270779
-1.01718
1.02258
0.0325234
-0.0374592
-1.16246
1.16739
0.043006
-0.0476047
-1.32326
1.32785
0.0521132
-0.0560905
-1.4997
1.50367
0.0594143
-0.0616086
-1.69414
1.69633
0.0627877
-0.0631228
-1.60603
1.60636
0.0628609
-0.0619209
-1.28895
1.28801
0.0602703
-0.0569165
-1.0253
1.02194
0.0518008
-0.0436376
-0.726841
0.718678
0.0343223
-0.0246827
-0.38858
0.378941
0.0177441
-0.012197
-0.144369
0.138822
0.00852244
-0.005607
-0.0289522
0.0260368
0.00359159
-0.00201199
0.00996682
-0.0115464
0.00102679
-0.000376794
0.0127823
-0.0134323
8.88653e-05
0.00319711
-0.00328598
-0.0819468
0.0805988
0.00134804
-0.00414128
0.00410855
-0.451309
0.451341
-0.00272153
0.000583308
-0.63069
0.632829
0.00295338
-0.00676025
-0.770161
0.773968
0.0112218
-0.0154961
-0.896626
0.9009
0.0207187
-0.0250914
-1.0273
1.03167
0.0302551
-0.0347448
-1.17241
1.1769
0.0398275
-0.0442547
-1.33232
1.33675
0.0485964
-0.0518439
-1.50728
1.51053
0.0548828
-0.056821
-1.69835
1.70029
0.0580003
-0.0579896
-1.60649
1.60648
0.0576341
-0.0565585
-1.28692
1.28585
0.0548343
-0.0512989
-1.01696
1.01343
0.0464079
-0.0387372
-0.707644
0.699973
0.0305095
-0.0222401
-0.367416
0.359147
0.0163703
-0.0117395
-0.131984
0.127353
0.00851549
-0.00582568
-0.0222261
0.0195363
0.0038603
-0.00223477
0.0134965
-0.0151221
0.00116947
-0.000446375
0.0141448
-0.0148679
0.000105748
0.00333012
-0.00343587
-0.0817332
0.08071
0.00102312
-0.00317961
0.00278323
-0.454453
0.454849
-0.00169049
-0.000410979
-0.636716
0.638817
0.00350266
-0.0070714
-0.777899
0.781468
0.0112147
-0.0154821
-0.904983
0.90925
0.0198861
-0.0242449
-1.03619
1.04055
0.0291314
-0.0331458
-1.18174
1.18575
0.0379983
-0.0420236
-1.34084
1.34487
0.0459523
-0.049245
-1.51405
1.51735
0.0521303
-0.053655
-1.70211
1.70364
0.0543414
-0.0543557
-1.60652
1.60653
0.0539901
-0.0527259
-1.28442
1.28315
0.0507989
-0.047423
-1.00875
1.00537
0.042286
-0.0353224
-0.689692
0.682728
0.0280134
-0.0208493
-0.349245
0.34208
0.0158939
-0.0118437
-0.121397
0.117347
0.00893502
-0.00634753
-0.0160114
0.0134239
0.00434901
-0.00260991
0.017093
-0.0188321
0.00142437
-0.000565385
0.0156574
-0.0165164
0.000142004
0.0034844
-0.00362641
-0.0818863
0.081034
0.000852304
-0.00234661
0.00208743
-0.457562
0.457821
-0.00055503
-0.0012928
-0.642596
0.644444
0.00447026
-0.00780983
-0.784897
0.788236
0.0116693
-0.0153946
-0.913127
0.916852
0.0197743
-0.0236392
-1.04483
1.0487
0.0282546
-0.032494
-1.19014
1.19438
0.0366623
-0.0406938
-1.34881
1.35284
0.0446208
-0.0475091
-1.52035
1.52324
0.0501163
-0.0517196
-1.70518
1.70678
0.0520946
-0.0519669
-1.6062
1.60608
0.0511662
-0.0497736
-1.28171
1.28031
0.0478234
-0.0442512
-1.00071
0.997138
0.0393743
-0.0328083
-0.673205
0.666639
0.026288
-0.0200376
-0.333343
0.327092
0.0157292
-0.0121798
-0.112146
0.108597
0.00948799
-0.00696703
-0.0100751
0.00755413
0.00492642
-0.00306976
0.0208659
-0.0227225
0.00173471
-0.000716633
0.0174271
-0.0184452
0.00018891
0.00370191
-0.00389082
-0.0823128
0.0816326
0.00068014
-0.00136086
0.000989171
-0.460626
0.460998
0.000311315
-0.00239509
-0.647878
0.649962
0.00542918
-0.00852647
-0.791447
0.794545
0.0123679
-0.0158333
-0.920509
0.923974
0.0199139
-0.0237592
-1.05299
1.05684
0.0280885
-0.0320812
-1.19837
1.20236
0.0362042
-0.0399594
-1.35665
1.36041
0.0436644
-0.0468676
-1.52624
1.52945
0.0492889
-0.0504587
-1.70806
1.70923
0.0507258
-0.0500519
-1.60555
1.60487
0.0491084
-0.0475945
-1.27861
1.2771
0.0451986
-0.0414978
-0.992575
0.988874
0.0367076
-0.0304421
-0.657929
0.651664
0.0246933
-0.0192411
-0.319578
0.314126
0.0155278
-0.0123403
-0.103948
0.10076
0.00985859
-0.00742294
-0.00434997
0.00191432
0.00539486
-0.0034702
0.0248246
-0.0267493
0.00202372
-0.000870755
0.0194801
-0.0206331
0.000246502
0.0040055
-0.004252
-0.0829641
0.082404
0.00056008
-0.000547325
0.00011191
-0.463708
0.464144