/*--------------------------------*- C++ -*----------------------------------*\
  =========                 |
  \\      /  F ield         | OpenFOAM: The Open Source CFD Toolbox
   \\    /   O peration     | Website:  https://openfoam.org
    \\  /    A nd           | Version:  6
     \\/     M anipulation  |
\*---------------------------------------------------------------------------*/
FoamFile
{
    version     2.0;
    format      ascii;
    class       volScalarField;
    location    "65.1";
    object      p;
}
// * * * * * * * * * * * * * * * * * * * * * * * * * * * * * * * * * * * * * //

dimensions      [0 2 -2 0 0 0 0];

internalField   nonuniform List<scalar> 
8800
(
0.858868
0.809551
0.771584
0.743511
0.723344
0.708748
0.698138
0.69058
0.685671
0.683571
0.684907
0.689223
0.695996
0.705404
0.71813
0.735445
0.759318
0.792413
0.835348
0.887862
0.693366
0.69971
0.708858
0.712403
0.709789
0.703693
0.696742
0.690484
0.685661
0.682763
0.682497
0.685094
0.689712
0.695823
0.702911
0.709937
0.71481
0.714682
0.708005
0.699105
0.666891
0.673125
0.677622
0.681488
0.684429
0.685368
0.684265
0.682124
0.680117
0.679244
0.68024
0.682664
0.685529
0.687784
0.688294
0.686499
0.683128
0.679111
0.674328
0.670612
0.662605
0.665369
0.667971
0.670123
0.671852
0.673409
0.674496
0.674828
0.674685
0.674747
0.675513
0.676623
0.677341
0.677174
0.676187
0.674825
0.67315
0.670843
0.668431
0.666864
0.657568
0.658992
0.660827
0.662901
0.664604
0.665883
0.666964
0.66792
0.668696
0.669392
0.670059
0.670484
0.670482
0.670099
0.669418
0.668294
0.666631
0.664732
0.663377
0.662574
0.652603
0.653505
0.654746
0.656365
0.658047
0.659564
0.660828
0.661923
0.662951
0.663921
0.664658
0.665008
0.664988
0.664598
0.663781
0.662581
0.661212
0.659941
0.659118
0.658594
0.647725
0.648381
0.649336
0.650644
0.652078
0.653578
0.65504
0.656372
0.657593
0.658744
0.659639
0.660088
0.660071
0.65961
0.658811
0.657856
0.656855
0.655945
0.655363
0.654979
0.642934
0.643439
0.644218
0.645348
0.646633
0.648031
0.649513
0.651019
0.652483
0.653877
0.654966
0.655522
0.655561
0.65521
0.654626
0.653923
0.653175
0.652505
0.652076
0.651777
0.638176
0.638577
0.63923
0.640239
0.641452
0.642795
0.64427
0.64587
0.647546
0.649219
0.650559
0.651303
0.651532
0.651408
0.651063
0.650579
0.650035
0.649559
0.649242
0.648999
0.633369
0.633697
0.634263
0.635193
0.636359
0.63769
0.639199
0.640899
0.642771
0.644741
0.646408
0.647454
0.647966
0.648106
0.647998
0.647741
0.647393
0.647079
0.646846
0.646642
0.628428
0.6287
0.629206
0.63009
0.63124
0.632599
0.634185
0.636028
0.638131
0.640446
0.642526
0.643963
0.644819
0.645256
0.645406
0.645377
0.645226
0.645055
0.644889
0.644714
0.623263
0.623492
0.62396
0.624828
0.626003
0.627431
0.629138
0.631179
0.633584
0.636328
0.638911
0.640816
0.642072
0.642851
0.643289
0.643499
0.643548
0.643506
0.643397
0.64324
0.617783
0.617978
0.618428
0.61931
0.620549
0.622091
0.623973
0.62628
0.629071
0.632351
0.635544
0.638005
0.63973
0.640899
0.641663
0.642129
0.642392
0.642474
0.642412
0.642269
0.611884
0.612053
0.6125
0.613425
0.614769
0.616477
0.618603
0.621258
0.624538
0.628476
0.63241
0.635538
0.637814
0.639433
0.640568
0.64134
0.641817
0.642019
0.641996
0.641861
0.605447
0.605593
0.606055
0.607051
0.608545
0.61048
0.612926
0.616028
0.619919
0.624669
0.629499
0.633421
0.636351
0.6385
0.640059
0.641168
0.641887
0.642214
0.642228
0.642097
0.598331
0.598454
0.598944
0.600043
0.601738
0.603972
0.60683
0.610496
0.615143
0.620884
0.626797
0.63167
0.635374
0.638147
0.640206
0.6417
0.642692
0.643148
0.643196
0.643066
0.590345
0.590452
0.590988
0.592223
0.59418
0.596795
0.600175
0.604547
0.610132
0.617082
0.624299
0.630306
0.634923
0.63843
0.641086
0.643036
0.644331
0.644923
0.645002
0.644868
0.581266
0.58137
0.581957
0.583366
0.585663
0.588762
0.5928
0.598052
0.604795
0.613218
0.622002
0.629359
0.635056
0.639427
0.642787
0.645265
0.646905
0.647641
0.647749
0.647608
0.570774
0.570864
0.571541
0.573185
0.575918
0.579635
0.584507
0.59087
0.599052
0.609273
0.619929
0.628871
0.635835
0.641221
0.645391
0.648495
0.650522
0.651406
0.651539
0.651387
0.558494
0.55857
0.559349
0.561306
0.5646
0.569115
0.575056
0.582825
0.592799
0.605212
0.618098
0.628892
0.637323
0.643891
0.649004
0.652824
0.655272
0.656306
0.656457
0.656291
0.543866
0.543935
0.544861
0.547231
0.551261
0.556826
0.564159
0.57373
0.585947
0.601028
0.616549
0.629484
0.63959
0.647508
0.653706
0.658327
0.661223
0.662396
0.662555
0.662372
0.526112
0.526174
0.527314
0.530271
0.53531
0.542289
0.551473
0.563383
0.578422
0.596734
0.615335
0.630708
0.642704
0.652141
0.659537
0.665048
0.668394
0.66968
0.669832
0.669629
0.504071
0.504137
0.505621
0.509453
0.515944
0.524914
0.536636
0.551641
0.570244
0.592434
0.614567
0.632657
0.646728
0.657835
0.666536
0.672975
0.67673
0.678083
0.67821
0.677986
0.475955
0.476051
0.478133
0.483382
0.492116
0.50402
0.519326
0.538458
0.56153
0.588303
0.614393
0.635424
0.651711
0.664591
0.674677
0.682015
0.686082
0.687427
0.687505
0.687263
0.438706
0.438927
0.442225
0.450086
0.462603
0.479023
0.499453
0.524017
0.55255
0.584584
0.614995
0.639124
0.65771
0.672391
0.68387
0.691977
0.696179
0.697417
0.697425
0.697169
0.386465
0.387556
0.39411
0.407368
0.426493
0.449895
0.477405
0.508818
0.543755
0.581616
0.616588
0.643876
0.664744
0.681153
0.693909
0.702553
0.70663
0.707657
0.707585
0.707321
0.310768
0.318192
0.333222
0.356378
0.385372
0.418121
0.45425
0.493505
0.535523
0.579704
0.619569
0.65022
0.673548
0.691817
0.705708
0.714612
0.718407
0.719205
0.71908
0.718846
0.230285
0.246499
0.270903
0.304716
0.344093
0.38635
0.431149
0.478415
0.52789
0.579031
0.624625
0.659393
0.685677
0.706092
0.721145
0.729913
0.73312
0.733652
0.733553
0.733406
0.161335
0.181147
0.213383
0.256384
0.305015
0.356226
0.409468
0.464608
0.521368
0.579213
0.630213
0.668783
0.69775
0.719946
0.735645
0.743996
0.746677
0.747106
0.747068
0.746973
0.104911
0.126948
0.164574
0.214162
0.270044
0.328771
0.389487
0.451888
0.51553
0.579764
0.635869
0.677988
0.70939
0.733117
0.749439
0.757754
0.760278
0.760665
0.76066
0.760594
0.0581665
0.0815247
0.123056
0.177794
0.239485
0.30442
0.371541
0.440385
0.510308
0.58051
0.641516
0.68705
0.720808
0.746134
0.763236
0.771697
0.77426
0.774645
0.774662
0.774618
0.0184754
0.042626
0.0870414
0.145973
0.212564
0.282802
0.355464
0.430012
0.505672
0.581485
0.647175
0.696052
0.732119
0.759015
0.777023
0.785946
0.788635
0.789029
0.789057
0.78903
-0.016199
0.00848271
0.0551577
0.117565
0.188346
0.26321
0.340812
0.420552
0.501536
0.582611
0.652768
0.704872
0.743234
0.771703
0.790705
0.800115
0.803016
0.803443
0.803473
0.80346
-0.0473569
-0.022238
0.0263002
0.0916703
0.16609
0.245039
0.327101
0.411597
0.497525
0.583622
0.658083
0.713309
0.753884
0.783888
0.803814
0.813756
0.816915
0.817402
0.817437
0.817429
-0.0760158
-0.0504929
-0.000359523
0.0675949
0.145216
0.227787
0.313869
0.402751
0.493362
0.584305
0.662953
0.721208
0.763894
0.795353
0.816167
0.826596
0.829994
0.830572
0.830585
0.830574
-0.102981
-0.0770202
-0.0254545
0.0448226
0.125272
0.211076
0.300816
0.393774
0.48882
0.584418
0.667205
0.728425
0.773161
0.805972
0.827575
0.838417
0.842002
0.842626
0.842617
0.842594
-0.128645
-0.10226
-0.0493712
0.0229704
0.105944
0.194661
0.287732
0.38445
0.483677
0.583823
0.670726
0.734933
0.781652
0.815724
0.837971
0.849067
0.852778
0.853422
0.853387
0.853345
-0.153443
-0.126551
-0.0724387
0.00177326
0.0870128
0.178347
0.274447
0.374638
0.477823
0.582411
0.673454
0.740702
0.789406
0.824622
0.847367
0.858621
0.862333
0.862963
0.862893
0.862832
-0.177511
-0.150106
-0.0948357
-0.0189359
0.0683285
0.16202
0.260873
0.364272
0.471182
0.580085
0.675337
0.745751
0.796499
0.832802
0.855886
0.867104
0.870761
0.871357
0.871264
0.871183
-0.200978
-0.173028
-0.116682
-0.0392486
0.0498286
0.145633
0.246978
0.353306
0.463694
0.576779
0.676314
0.750099
0.803038
0.840404
0.86367
0.874705
0.878209
0.878732
0.878617
0.87852
-0.223942
-0.195433
-0.138026
-0.0592009
0.0314812
0.129176
0.232756
0.341743
0.455351
0.572447
0.676323
0.753746
0.809138
0.847622
0.870925
0.881572
0.884797
0.885213
0.885061
0.884951
-0.24646
-0.217313
-0.158881
-0.0787972
0.0133086
0.112666
0.21824
0.329615
0.446166
0.567051
0.675293
0.756657
0.814891
0.854675
0.877864
0.88786
0.890618
0.890864
0.890685
0.890569
-0.26839
-0.23864
-0.179231
-0.0980252
-0.00466182
0.0961635
0.203484
0.316985
0.436183
0.560596
0.673151
0.758751
0.820318
0.861797
0.884843
0.893831
0.895815
0.89579
0.895585
0.895478
-0.289708
-0.259379
-0.199064
-0.116848
-0.0223805
0.0797212
0.188571
0.303918
0.425468
0.55309
0.669833
0.75991
0.825355
0.86916
0.892354
0.900051
0.900719
0.900107
0.899859
0.899812
-0.310467
-0.279502
-0.218355
-0.135237
-0.0397902
0.0634182
0.173584
0.290511
0.414104
0.544581
0.66527
0.759995
0.829828
0.876739
0.900877
0.907497
0.906223
0.904216
0.90364
0.903871
-0.330517
-0.298982
-0.237051
-0.153129
-0.0568355
0.0473368
0.158617
0.276869
0.402201
0.535154
0.659423
0.75884
0.833476
0.8842
0.910495
0.9173
0.914379
0.909845
0.907106
0.905977
-0.349949
-0.317824
-0.255159
-0.170556
-0.073551
0.0314377
0.14362
0.262936
0.389686
0.524745
0.652135
0.756189
0.836052
0.891042
0.920638
0.929796
0.927386
0.920246
0.91071
0.911101
-0.368679
-0.336095
-0.272812
-0.187714
-0.0902298
0.0153916
0.128178
0.248229
0.376019
0.512731
0.642755
0.751291
0.837123
0.896677
0.929791
0.942942
0.941801
0.930635
0.912146
0.910258
-0.386572
-0.353756
-0.289845
-0.204415
-0.106608
-0.000500569
0.112498
0.233067
0.361488
0.499345
0.631315
0.743448
0.83583
0.899906
0.933862
0.947458
0.948306
0.922953
0.865205
0.840257
-0.403506
-0.371676
-0.305856
-0.220213
-0.121915
-0.0157587
0.0968597
0.217726
0.346371
0.484754
0.617875
0.73205
0.831088
0.899775
0.928005
0.936422
0.922955
0.871421
0.809443
0.771679
-0.446499
-0.389127
-0.320583
-0.23599
-0.136897
-0.0313399
0.0814036
0.202082
0.330466
0.468606
0.602026
0.716448
0.818989
0.893023
0.909915
0.89661
0.848789
0.783463
0.714469
0.676552
-0.421677
-0.40349
-0.343026
-0.257759
-0.160055
-0.0547449
0.0572927
0.177293
0.304736
0.441452
0.573499
0.685982
0.780205
0.861458
0.844666
0.735722
0.644834
0.581691
0.517522
0.544252
-0.452617
-0.421118
-0.359817
-0.275039
-0.177692
-0.0725479
0.0396461
0.158969
0.285367
0.420295
0.549759
0.658756
0.742327
0.787766
0.735929
0.596105
0.486805
0.413125
0.330892
0.37609
-0.476649
-0.442715
-0.379657
-0.294808
-0.197522
-0.0924025
0.0196567
0.138166
0.263176
0.395688
0.521335
0.624396
0.696297
0.703859
0.597112
0.441669
0.312401
0.219786
0.124218
0.155419
-0.500063
-0.46505
-0.400593
-0.315071
-0.217708
-0.112714
-0.00118308
0.116342
0.239725
0.369398
0.490188
0.585157
0.639977
0.614891
0.456518
0.279308
0.11932
-0.0146028
-0.13898
-0.126358
-0.523219
-0.487793
-0.422403
-0.336272
-0.238766
-0.133993
-0.0231325
0.0932518
0.214707
0.341105
0.456169
0.543022
0.577169
0.506776
0.318229
0.120999
-0.0660753
-0.219962
-0.425398
-0.504516
-0.546803
-0.511405
-0.445453
-0.35888
-0.261206
-0.156612
-0.0463615
0.0688385
0.188228
0.311057
0.419919
0.497481
0.506098
0.384163
0.192117
-0.0171066
-0.209217
-0.370976
-0.49478
-0.613109
-0.571895
-0.536375
-0.470101
-0.383281
-0.285571
-0.181257
-0.0717192
0.042108
0.15907
0.277739
0.37997
0.444825
0.426093
0.267725
0.0741127
-0.129097
-0.304494
-0.4018
-0.427987
-0.441483
-0.598621
-0.562996
-0.496483
-0.409572
-0.31201
-0.208156
-0.0995844
0.0125439
0.126609
0.24035
0.335469
0.382784
0.344778
0.155816
-0.0358929
-0.218861
-0.351305
-0.389236
-0.398157
-0.398485
-0.627261
-0.591393
-0.524637
-0.43774
-0.340475
-0.237317
-0.129984
-0.0199138
0.090769
0.198852
0.285802
0.31693
0.247534
0.0535298
-0.132042
-0.290959
-0.365314
-0.379415
-0.380515
-0.380403
-0.657827
-0.621599
-0.55458
-0.467784
-0.370983
-0.268735
-0.16293
-0.0552883
0.051553
0.153346
0.230792
0.247328
0.139633
-0.0391607
-0.214843
-0.340886
-0.369663
-0.370316
-0.370795
-0.370368
-0.690063
-0.653443
-0.586211
-0.499621
-0.403449
-0.302358
-0.198402
-0.0935601
0.00900928
0.103957
0.171665
0.169277
0.0438503
-0.124564
-0.280314
-0.352151
-0.367056
-0.365144
-0.364858
-0.364421
-0.723402
-0.686577
-0.619263
-0.533017
-0.43768
-0.338025
-0.236249
-0.134607
-0.0366463
0.0510758
0.108852
0.0902147
-0.0444974
-0.199408
-0.323296
-0.360541
-0.360098
-0.360968
-0.36094
-0.360629
-0.757399
-0.720462
-0.653241
-0.567543
-0.473315
-0.375403
-0.276175
-0.178152
-0.0851218
-0.00438865
0.0409804
0.0155925
-0.124999
-0.257838
-0.346825
-0.355548
-0.357443
-0.358122
-0.357971
-0.357851
-0.791097
-0.7542
-0.687392
-0.602546
-0.509783
-0.413999
-0.317704
-0.223702
-0.135989
-0.0616029
-0.0270154
-0.0594131
-0.194413
-0.302296
-0.351173
-0.362149
-0.357509
-0.355491
-0.354818
-0.354708
-0.822575
-0.786476
-0.720661
-0.637112
-0.546281
-0.453088
-0.360148
-0.27051
-0.188466
-0.120188
-0.0902066
-0.138115
-0.252727
-0.34298
-0.365098
-0.363864
-0.357782
-0.352667
-0.351174
-0.350746
-0.850792
-0.815755
-0.751617
-0.670012
-0.58172
-0.491699
-0.402607
-0.317648
-0.241281
-0.179639
-0.151764
-0.207084
-0.299795
-0.370111
-0.393786
-0.378725
-0.364003
-0.356731
-0.354232
-0.353072
-0.872967
-0.839887
-0.778463
-0.699686
-0.614744
-0.528615
-0.443947
-0.364029
-0.29315
-0.238011
-0.213114
-0.261336
-0.333719
-0.37809
-0.381639
-0.388454
-0.391144
-0.387715
-0.38329
-0.381004
-0.886946
-0.856672
-0.799069
-0.72434
-0.643789
-0.562399
-0.482842
-0.408299
-0.343096
-0.292211
-0.269104
-0.305866
-0.359229
-0.387442
-0.385864
-0.401701
-0.411515
-0.409663
-0.406107
-0.4055
-0.889991
-0.863659
-0.811266
-0.74207
-0.667186
-0.591533
-0.517839
-0.448901
-0.389847
-0.341313
-0.315604
-0.343055
-0.381904
-0.415682
-0.406418
-0.396984
-0.391637
-0.390156
-0.390569
-0.390945
-0.879807
-0.858354
-0.812903
-0.751074
-0.683407
-0.614669
-0.547446
-0.484506
-0.430994
-0.387238
-0.346387
-0.373075
-0.376228
-0.428362
-0.412063
-0.386206
-0.376862
-0.37675
-0.376963
-0.376408
-0.853658
-0.837858
-0.801976
-0.7501
-0.691346
-0.630855
-0.570593
-0.514061
-0.464536
-0.428649
-0.378545
-0.362355
-0.314576
-0.310392
-0.340486
-0.355296
-0.366146
-0.373968
-0.377154
-0.377739
-0.81501
-0.804892
-0.779509
-0.73936
-0.691031
-0.639656
-0.587263
-0.536293
-0.491546
-0.459181
-0.42352
-0.370864
-0.268287
-0.188601
-0.234059
-0.328032
-0.387021
-0.411481
-0.420596
-0.423379
-0.771033
-0.765287
-0.750578
-0.721916
-0.684609
-0.64196
-0.597331
-0.551903
-0.510952
-0.478764
-0.456065
-0.433586
-0.418377
-0.34696
-0.404953
-0.49356
-0.557125
-0.570213
-0.571951
-0.574083
-0.732098
-0.728647
-0.721699
-0.703394
-0.675024
-0.640056
-0.601229
-0.561325
-0.521738
-0.492355
-0.468566
-0.550265
-0.797382
-1.15156
-1.26121
-1.1958
-1.0717
-0.905634
-0.809328
-0.798006
-0.704594
-0.702587
-0.69907
-0.688083
-0.666316
-0.636504
-0.601996
-0.563306
-0.524995
-0.490347
-0.471108
-0.524009
-0.677218
-0.841639
-0.994605
-0.980623
-0.929048
-0.837159
-0.745619
-0.702747
-0.684685
-0.684006
-0.682862
-0.677329
-0.660963
-0.634506
-0.60049
-0.562146
-0.519462
-0.474363
-0.45228
-0.42647
-0.36131
-0.267471
-0.164132
-0.0841994
-0.0351434
-0.00905926
0.0176349
0.036531
-0.673133
-0.6729
-0.67228
-0.669557
-0.658169
-0.633711
-0.598811
-0.558173
-0.508207
-0.457842
-0.411863
-0.340262
-0.158001
0.112255
0.354798
0.541474
0.639441
0.677404
0.694023
0.699085
-0.665398
-0.665197
-0.664653
-0.663693
-0.656828
-0.634622
-0.598434
-0.550812
-0.497513
-0.431494
-0.352175
-0.266122
-0.0156353
0.317671
0.666036
0.955832
1.07368
1.10126
1.08615
1.07422
-0.661527
-0.661318
-0.660812
-0.660545
-0.657203
-0.638513
-0.598793
-0.545518
-0.484449
-0.402797
-0.31584
-0.197517
0.0277297
0.33679
0.611316
0.822492
0.923077
0.96215
0.986252
0.99544
-0.659738
-0.660206
-0.661409
-0.662812
-0.662319
-0.645028
-0.600204
-0.542976
-0.471949
-0.387062
-0.286898
-0.174256
0.050126
0.294057
0.507206
0.670411
0.761709
0.8481
0.922258
0.954801
-0.65419
-0.655887
-0.659895
-0.665797
-0.66826
-0.647009
-0.601235
-0.545723
-0.473485
-0.377591
-0.272232
-0.174919
0.0255305
0.256915
0.504611
0.724479
0.891375
1.01576
1.08875
1.11293
-0.656748
-0.657877
-0.656036
-0.647023
-0.638397
-0.62587
-0.601585
-0.559371
-0.482823
-0.376224
-0.269607
-0.174837
-0.00921015
0.232092
0.481809
0.709964
0.898216
1.02612
1.08305
1.09823
-0.690612
-0.689092
-0.674547
-0.636042
-0.597281
-0.603035
-0.618628
-0.583454
-0.495775
-0.383078
-0.279738
-0.187775
-0.0723333
0.144388
0.380048
0.585488
0.746187
0.84544
0.885557
0.894949
-0.751532
-0.748687
-0.745595
-0.732726
-0.719411
-0.712596
-0.706391
-0.627562
-0.510075
-0.395692
-0.290802
-0.198918
-0.108307
0.0470578
0.250324
0.412334
0.540614
0.612296
0.640735
0.644754
-0.872081
-0.88335
-0.922241
-0.968171
-0.97776
-0.944141
-0.85344
-0.692217
-0.532087
-0.409399
-0.299084
-0.22073
-0.14896
-0.0318645
0.126371
0.24874
0.343997
0.393823
0.412397
0.412861
-0.998492
-1.02114
-1.06761
-1.10601
-1.11353
-1.07346
-0.939481
-0.721479
-0.54824
-0.413966
-0.308693
-0.236979
-0.195757
-0.105769
0.0107195
0.103354
0.172672
0.207256
0.218607
0.219604
-0.996843
-1.01544
-1.04854
-1.07775
-1.08399
-1.03928
-0.881758
-0.678187
-0.525265
-0.397046
-0.303503
-0.246975
-0.21322
-0.158343
-0.0794884
-0.0163115
0.0260368
0.0471914
0.054886
0.0537115
-0.808371
-0.828229
-0.862917
-0.898802
-0.91163
-0.861097
-0.718706
-0.574836
-0.45053
-0.350298
-0.292629
-0.244477
-0.223751
-0.184037
-0.144449
-0.116943
-0.099559
-0.0928415
-0.0905566
-0.0910919
-0.473569
-0.490283
-0.522201
-0.56018
-0.583066
-0.561166
-0.495311
-0.420601
-0.34297
-0.29607
-0.258893
-0.231393
-0.221643
-0.201597
-0.186767
-0.184449
-0.188802
-0.194959
-0.195713
-0.195517
-0.133507
-0.142881
-0.16411
-0.197326
-0.230196
-0.249151
-0.259614
-0.256975
-0.246767
-0.232116
-0.220234
-0.214016
-0.208198
-0.201998
-0.208733
-0.219743
-0.235942
-0.244195
-0.246016
-0.245907
0.0843418
0.0795005
0.0650489
0.0362268
-0.00846636
-0.0603165
-0.104211
-0.138247
-0.160808
-0.171832
-0.186536
-0.195178
-0.201796
-0.196895
-0.204139
-0.224653
-0.245787
-0.251989
-0.251058
-0.24951
0.170907
0.168009
0.157494
0.133266
0.0930766
0.0410914
-0.0130155
-0.0603325
-0.0963299
-0.125031
-0.15276
-0.184441
-0.202764
-0.188412
-0.18457
-0.189265
-0.194034
-0.193701
-0.192223
-0.192015
0.181628
0.179729
0.172331
0.154529
0.123496
0.082231
0.0360485
-0.00907972
-0.0486769
-0.0798606
-0.114418
-0.152858
-0.172444
-0.147386
-0.129768
-0.125741
-0.121317
-0.12036
-0.119733
-0.120278
0.162652
0.161494
0.156651
0.144639
0.123125
0.0928812
0.0570356
0.0208596
-0.0122247
-0.0405288
-0.0654202
-0.085858
-0.0927547
-0.0780901
-0.0671689
-0.0627244
-0.0577052
-0.0549636
-0.0557962
-0.0568445
0.135907
0.13528
0.132335
0.124741
0.110685
0.0902284
0.0647674
0.0380098
0.0130404
-0.00440656
-0.012677
-0.00914734
0.000551699
-0.00378211
-0.00983051
-0.013808
-0.014201
-0.0147956
-0.0156882
-0.0165746
0.109072
0.10886
0.107212
0.102692
0.0939702
0.0808152
0.0640171
0.0464983
0.0310687
0.0243725
0.0310417
0.0523569
0.0703427
0.0567132
0.0375646
0.0245766
0.0169339
0.0131698
0.0112041
0.0105087
0.0846623
0.0845767
0.0837459
0.0812218
0.0761007
0.068155
0.0578733
0.0474899
0.0400478
0.0423209
0.0604004
0.089563
0.108275
0.0904503
0.0671112
0.0509761
0.0415387
0.0353676
0.0328654
0.0323838
0.0622311
0.0622904
0.0619657
0.0607457
0.0580192
0.0536116
0.0479313
0.0426682
0.0408912
0.0489679
0.0725224
0.103699
0.122084
0.103487
0.0807534
0.0666743
0.059069
0.0546416
0.0521814
0.0515837
0.0415494
0.0416557
0.0416082
0.0412016
0.039956
0.0378269
0.0351111
0.0330924
0.0342507
0.0441851
0.0679482
0.0971099
0.11011
0.0930952
0.0767136
0.0682068
0.0649348
0.0626401
0.0607849
0.0599357
0.0222477
0.02236
0.0224213
0.022373
0.0220095
0.0211976
0.0201381
0.0196129
0.0212952
0.0290092
0.0476562
0.0690551
0.0766651
0.0629209
0.0521993
0.050313
0.0498649
0.0509071
0.0494406
0.0484055
0.00401308
0.00406343
0.00403833
0.00417487
0.00435956
0.00441534
0.00422826
0.00398451
0.00407013
0.0046713
0.00712287
0.0131147
0.015895
0.0260306
0.0181598
0.0168333
0.0153229
0.0112811
0.0109026
0.0106665
0.0058844
0.195197
0.369248
0.516794
0.635361
0.729343
0.807716
0.871418
0.88772
0.884067
0.297326
0.419169
0.533462
0.63282
0.71653
0.785716
0.840256
0.877136
0.89687
0.913444
0.495205
0.576603
0.65709
0.727705
0.787897
0.837839
0.877163
0.907114
0.929634
0.948866
0.641919
0.699496
0.757444
0.809518
0.854495
0.892754
0.924863
0.951796
0.97208
0.990969
0.758927
0.802196
0.845121
0.885376
0.921382
0.953192
0.981004
1.00457
1.02252
1.04055
0.855836
0.891598
0.926931
0.960705
0.991833
1.02001
1.04488
1.06574
1.08152
1.09899
0.944309
0.976302
1.00863
1.03986
1.06888
1.09525
1.11837
1.13731
1.15122
1.16824
1.03133
1.06391
1.09634
1.12755
1.15634
1.18213
1.20426
1.2218
1.23418
1.25071
1.12574
1.16215
1.19692
1.22938
1.25856
1.28392
1.30505
1.32134
1.33296
1.3491
1.2388
1.27939
1.31642
1.34939
1.37788
1.40188
1.42151
1.43679
1.44869
1.46476
1.38021
1.42127
1.45652
1.48612
1.51133
1.53295
1.55145
1.56694
1.58006
1.596
1.55174
1.58414
1.61102
1.63333
1.65342
1.67215
1.68989
1.70666
1.72158
1.7373
1.73807
1.75534
1.77246
1.78914
1.80524
1.81997
1.83388
1.84836
1.8636
1.88089
1.92145
1.93143
1.94463
1.95562
1.96502
1.97468
1.98529
1.99547
2.00476
2.03042
2.13936
2.13365
2.12071
2.10645
2.10015
2.10587
2.12401
2.15253
2.18629
2.22262
2.44217
2.30621
2.22671
2.1842
2.16687
2.17085
2.19828
2.25615
2.36381
2.54222
0.762563
0.75626
0.748529
0.737413
0.723841
0.711189
0.700789
0.692774
0.687052
0.683717
0.683365
0.6862
0.691435
0.698795
0.708346
0.720177
0.73374
0.74667
0.75566
0.763202
0.671632
0.677552
0.685623
0.691754
0.694821
0.694307
0.691218
0.687219
0.683626
0.681339
0.681206
0.683462
0.68722
0.691669
0.695774
0.698021
0.696949
0.692314
0.68526
0.677427
0.664883
0.667256
0.670523
0.673294
0.675743
0.67793
0.679106
0.678956
0.678015
0.677207
0.677424
0.678843
0.68063
0.681863
0.681792
0.680328
0.678172
0.675812
0.672831
0.669813
0.660096
0.661185
0.663101
0.665438
0.667307
0.668704
0.669919
0.670908
0.671505
0.671882
0.672441
0.673192
0.673665
0.673553
0.672929
0.672011
0.670683
0.668715
0.666609
0.665132
0.655076
0.65571
0.656838
0.658594
0.660436
0.662027
0.663275
0.664335
0.665314
0.666212
0.667005
0.667536
0.667682
0.667483
0.666953
0.665983
0.66456
0.662952
0.661616
0.660815
0.650155
0.650594
0.651382
0.652685
0.654204
0.655765
0.65724
0.658532
0.659684
0.660772
0.661733
0.662348
0.662539
0.662313
0.661657
0.660663
0.659514
0.658374
0.657472
0.656939
0.645324
0.645652
0.646264
0.647332
0.648626
0.650023
0.651498
0.652968
0.654356
0.655659
0.656817
0.657578
0.65782
0.657588
0.657
0.656224
0.655384
0.654534
0.653874
0.653483
0.640559
0.640813
0.641306
0.642217
0.643387
0.644693
0.646112
0.647635
0.64921
0.650773
0.652182
0.65312
0.65348
0.653397
0.653027
0.652491
0.651865
0.651243
0.650764
0.650465
0.635787
0.635989
0.6364
0.637201
0.638294
0.639553
0.640958
0.642526
0.644243
0.646054
0.64776
0.648965
0.649567
0.649732
0.649605
0.649297
0.64888
0.648451
0.648112
0.647877
0.630925
0.631088
0.63144
0.632168
0.633215
0.634457
0.635892
0.637546
0.639424
0.641495
0.643554
0.645128
0.646062
0.646525
0.646658
0.646584
0.646383
0.64613
0.645907
0.645719
0.625883
0.626015
0.626326
0.62701
0.628041
0.629309
0.630815
0.632599
0.634691
0.637084
0.639574
0.641603
0.642937
0.643744
0.644172
0.64435
0.644362
0.64428
0.644156
0.644004
0.620573
0.62068
0.620963
0.621628
0.622679
0.624017
0.625638
0.627607
0.629981
0.632781
0.635802
0.638379
0.640184
0.641389
0.642151
0.642604
0.642843
0.642931
0.642894
0.64277
0.614897
0.614982
0.61525
0.615921
0.617027
0.618476
0.620267
0.622489
0.625231
0.628543
0.632214
0.63545
0.637812
0.639477
0.640617
0.64139
0.64188
0.642131
0.642171
0.642068
0.608745
0.608811
0.609072
0.609772
0.61097
0.612579
0.614603
0.61716
0.620367
0.624315
0.628779
0.632808
0.635834
0.638041
0.639617
0.64075
0.641517
0.641944
0.642057
0.641971
0.601985
0.602033
0.602297
0.603049
0.604378
0.606201
0.608535
0.611521
0.615316
0.620049
0.625479
0.63046
0.634275
0.637121
0.639209
0.640746
0.64183
0.642449
0.642635
0.642562
0.594465
0.594492
0.594763
0.595588
0.597093
0.599197
0.601927
0.605454
0.60998
0.615679
0.622282
0.628406
0.633156
0.636757
0.639451
0.641474
0.642919
0.643743
0.644001
0.643937
0.585963
0.58598
0.586259
0.587187
0.588923
0.591386
0.594619
0.598828
0.604264
0.611146
0.619168
0.626661
0.632522
0.63701
0.64042
0.643021
0.644876
0.645926
0.646257
0.6462
0.576196
0.576189
0.576518
0.57759
0.579623
0.582544
0.586412
0.59148
0.598049
0.606389
0.616126
0.625244
0.632417
0.637952
0.642202
0.645475
0.647806
0.649105
0.649509
0.649454
0.564854
0.564825
0.565204
0.566468
0.568873
0.572384
0.577068
0.583224
0.591216
0.60135
0.613156
0.624198
0.632899
0.639656
0.64489
0.64894
0.651816
0.653378
0.653852
0.653794
0.55145
0.551399
0.551856
0.553371
0.556262
0.560541
0.566281
0.573834
0.583621
0.595973
0.610267
0.623561
0.634027
0.642188
0.648569
0.65351
0.656988
0.658823
0.659357
0.659291
0.535324
0.53525
0.535833
0.537699
0.54124
0.546543
0.553682
0.563055
0.575124
0.590212
0.607477
0.623389
0.635869
0.645623
0.653298
0.659241
0.663375
0.665477
0.666054
0.665973
0.515523
0.515432
0.516216
0.518594
0.52305
0.529775
0.538819
0.550618
0.565628
0.584094
0.604868
0.623765
0.638497
0.650025
0.659115
0.666173
0.670981
0.673314
0.673907
0.673804
0.490611
0.49052
0.491641
0.49481
0.500644
0.509449
0.5212
0.536303
0.555124
0.577728
0.602577
0.624799
0.641985
0.655433
0.66606
0.674281
0.679725
0.682218
0.682788
0.682655
0.458248
0.458203
0.459931
0.464466
0.472602
0.484647
0.500382
0.52004
0.543753
0.571334
0.600802
0.626626
0.64641
0.661866
0.674087
0.683471
0.689425
0.691956
0.692452
0.692284
0.414249
0.414406
0.417451
0.424821
0.437263
0.454636
0.476278
0.502083
0.531869
0.565228
0.599777
0.629405
0.65185
0.669323
0.683117
0.693549
0.69977
0.702159
0.702532
0.702331
0.350814
0.352145
0.359531
0.373422
0.393745
0.419581
0.44955
0.483161
0.520102
0.559882
0.599809
0.633294
0.658354
0.677752
0.692915
0.704105
0.710269
0.712293
0.712504
0.71229
0.275104
0.277721
0.292063
0.315969
0.347064
0.382945
0.421948
0.463826
0.508391
0.555218
0.60133
0.639515
0.667893
0.689725
0.706486
0.718221
0.724137
0.725897
0.726063
0.725945
0.197626
0.204562
0.22609
0.260024
0.301594
0.347279
0.395322
0.44554
0.497811
0.551752
0.604141
0.647106
0.678809
0.703061
0.721446
0.733412
0.738667
0.739937
0.74004
0.739993
0.134455
0.143255
0.169413
0.210451
0.260282
0.3143
0.370498
0.428538
0.488176
0.548956
0.607326
0.654753
0.689512
0.715842
0.735291
0.747316
0.752234
0.753399
0.75354
0.753547
0.0827262
0.0922416
0.121926
0.168252
0.224302
0.284992
0.348075
0.413033
0.479423
0.546607
0.61064
0.662311
0.699932
0.728238
0.748833
0.761216
0.766004
0.767111
0.767313
0.767361
0.0394463
0.0492685
0.0813603
0.131821
0.192975
0.259222
0.328139
0.399109
0.471533
0.544614
0.614024
0.669816
0.710236
0.740509
0.762316
0.775136
0.780061
0.781352
0.78158
0.781655
0.00214376
0.0121003
0.0459969
0.0997702
0.165196
0.23621
0.310212
0.38651
0.464432
0.543018
0.617516
0.677256
0.720433
0.752623
0.775705
0.78923
0.794519
0.795888
0.796114
0.796192
-0.030861
-0.0208553
0.0144611
0.0709777
0.140038
0.215192
0.29372
0.374864
0.457852
0.541581
0.620909
0.684463
0.730313
0.764406
0.788746
0.803026
0.808711
0.810191
0.810419
0.81048
-0.060828
-0.0507853
-0.0143121
0.0445663
0.116783
0.195578
0.278148
0.363698
0.451376
0.539997
0.624015
0.691256
0.739672
0.775592
0.801151
0.816127
0.822217
0.82382
0.824036
0.82408
-0.0887059
-0.0786076
-0.0411084
0.0198697
0.0948776
0.176888
0.263076
0.352662
0.444754
0.538047
0.626626
0.697462
0.74838
0.78601
0.812686
0.828319
0.834807
0.836494
0.836684
0.836698
-0.115057
-0.104894
-0.0664405
-0.00357428
0.073898
0.158777
0.248241
0.341537
0.437744
0.535507
0.628547
0.702991
0.75635
0.795631
0.823331
0.839452
0.846179
0.847944
0.848116
0.848098
-0.140341
-0.130046
-0.090698
-0.0261177
0.0535561
0.14101
0.233439
0.330126
0.430173
0.532232
0.629699
0.707775
0.763588
0.804429
0.832998
0.849493
0.856337
0.858117
0.85827
0.858222
-0.164854
-0.154349
-0.114148
-0.0479914
0.0336585
0.123414
0.218526
0.318321
0.421954
0.528131
0.629994
0.711782
0.770119
0.812497
0.841805
0.858524
0.86534
0.867073
0.867203
0.867131
-0.188699
-0.177958
-0.136935
-0.0693397
0.0140834
0.105907
0.203437
0.30607
0.413025
0.523116
0.62935
0.715001
0.776003
0.819951
0.84988
0.866622
0.87332
0.87497
0.875054
0.874959
-0.212003
-0.200993
-0.159179
-0.0902267
-0.00522004
0.0884468
0.18815
0.293352
0.403358
0.517151
0.627707
0.717396
0.781309
0.826938
0.857405
0.874004
0.880433
0.881929
0.881961
0.881845
-0.234762
-0.223507
-0.180896
-0.110681
-0.0242626
0.0710393
0.17268
0.280185
0.39297
0.510217
0.625003
0.718912
0.786078
0.833629
0.864599
0.880823
0.886797
0.88806
0.888013
0.887876
-0.257057
-0.245487
-0.202067
-0.130696
-0.0430308
0.0537107
0.157062
0.266621
0.381903
0.50232
0.621188
0.719474
0.790297
0.840173
0.871732
0.887328
0.892529
0.893409
0.893275
0.893133
-0.278683
-0.266897
-0.222682
-0.150261
-0.0614827
0.0365276
0.14136
0.252723
0.370218
0.493505
0.616227
0.718991
0.79389
0.84666
0.879151
0.893964
0.897957
0.898142
0.897851
0.897727
-0.299792
-0.287687
-0.242713
-0.169356
-0.0795936
0.0195254
0.125661
0.238568
0.357994
0.48384
0.610105
0.717356
0.796716
0.853038
0.887155
0.901424
0.903771
0.9026
0.901853
0.901803
-0.320204
-0.307822
-0.262145
-0.18793
-0.0972865
0.00278647
0.110047
0.224272
0.345333
0.473387
0.602839
0.714458
0.798588
0.859078
0.895767
0.910458
0.911364
0.908008
0.905795
0.905514
-0.340022
-0.327325
-0.280922
-0.20593
-0.114526
-0.013622
0.0946023
0.209916
0.332342
0.462274
0.594483
0.71017
0.79929
0.864386
0.904491
0.921215
0.922358
0.91724
0.911258
0.902669
-0.35913
-0.346191
-0.299133
-0.223521
-0.131533
-0.0299797
0.078995
0.195098
0.318577
0.450009
0.58454
0.703944
0.798456
0.868737
0.912747
0.933109
0.937032
0.931317
0.920282
0.919075
-0.377488
-0.364494
-0.316773
-0.240646
-0.148294
-0.04625
0.0632538
0.179799
0.304003
0.436466
0.572822
0.695271
0.795318
0.87134
0.918613
0.94205
0.948227
0.944934
0.910895
0.872418
-0.394864
-0.382098
-0.333774
-0.257187
-0.1648
-0.0624392
0.04738
0.164152
0.288687
0.421673
0.559245
0.683777
0.788703
0.871287
0.920121
0.939424