/*--------------------------------*- C++ -*----------------------------------*\
  =========                 |
  \\      /  F ield         | OpenFOAM: The Open Source CFD Toolbox
   \\    /   O peration     | Website:  https://openfoam.org
    \\  /    A nd           | Version:  6
     \\/     M anipulation  |
\*---------------------------------------------------------------------------*/
FoamFile
{
    version     2.0;
    format      ascii;
    class       volVectorField;
    location    "9";
    object      U;
}
// * * * * * * * * * * * * * * * * * * * * * * * * * * * * * * * * * * * * * //

dimensions      [0 1 -1 0 0 0 0];

internalField   nonuniform List<vector> 
2200
(
(0.880972 -0.0197084 0)
(1.00651 -0.0399557 0)
(1.00024 -0.0339172 0)
(0.996515 -0.0225417 0)
(0.998247 -0.0149452 0)
(0.999807 -0.00927426 0)
(1.00061 -0.00549037 0)
(1.00105 -0.00317236 0)
(1.00079 -0.00167074 0)
(1.00018 -0.000417153 0)
(1.00027 0.000535002 0)
(1.00087 0.00191008 0)
(1.00111 0.00339095 0)
(1.00065 0.00564102 0)
(0.999819 0.00939702 0)
(0.998258 0.0150389 0)
(0.996572 0.0226099 0)
(1.00028 0.0339605 0)
(1.00651 0.0399689 0)
(0.880966 0.0197248 0)
(0.698112 -0.0277286 0)
(0.993913 -0.0588772 0)
(1.03435 -0.0610067 0)
(1.02617 -0.0497783 0)
(1.01495 -0.0357634 0)
(1.00712 -0.0243019 0)
(1.00335 -0.016494 0)
(1.00159 -0.0101615 0)
(1.00083 -0.00539245 0)
(1.00096 -0.001777 0)
(1.00085 0.0021624 0)
(1.00071 0.00559238 0)
(1.00144 0.0103816 0)
(1.00322 0.016728 0)
(1.00701 0.0245276 0)
(1.01483 0.0359675 0)
(1.02601 0.0499394 0)
(1.03422 0.061116 0)
(0.99383 0.0589612 0)
(0.697978 0.0277431 0)
(0.526114 -0.0191024 0)
(0.961638 -0.0541645 0)
(1.05169 -0.0565372 0)
(1.04721 -0.0486096 0)
(1.02829 -0.0372001 0)
(1.01692 -0.029452 0)
(1.00991 -0.0221716 0)
(1.00565 -0.0148037 0)
(1.00337 -0.00828719 0)
(1.00316 -0.00241069 0)
(1.00301 0.00328271 0)
(1.00307 0.00911864 0)
(1.00531 0.0155769 0)
(1.00966 0.022817 0)
(1.01673 0.0299434 0)
(1.02808 0.0376147 0)
(1.04696 0.0489719 0)
(1.05144 0.0567139 0)
(0.961268 0.0543098 0)
(0.525643 0.0191425 0)
(0.425096 -0.00838474 0)
(0.917172 -0.0344752 0)
(1.05632 -0.0385368 0)
(1.06622 -0.0337271 0)
(1.05078 -0.0303671 0)
(1.03523 -0.027689 0)
(1.02254 -0.022638 0)
(1.01345 -0.0165567 0)
(1.00926 -0.00994769 0)
(1.00768 -0.002938 0)
(1.00754 0.00405288 0)
(1.00887 0.0109608 0)
(1.01302 0.0174059 0)
(1.02223 0.0233746 0)
(1.03496 0.0282772 0)
(1.05051 0.0308238 0)
(1.06588 0.0340813 0)
(1.0558 0.0388949 0)
(0.9164 0.0346384 0)
(0.424276 0.00843274 0)
(0.369446 -0.00368828 0)
(0.883129 -0.0207112 0)
(1.05199 -0.0233867 0)
(1.07454 -0.0208735 0)
(1.06479 -0.0204906 0)
(1.05134 -0.0193545 0)
(1.03962 -0.0166923 0)
(1.02955 -0.0130951 0)
(1.02237 -0.00816206 0)
(1.01833 -0.00218989 0)
(1.01826 0.00366086 0)
(1.02211 0.00946531 0)
(1.02912 0.0142843 0)
(1.03891 0.0177299 0)
(1.05053 0.020248 0)
(1.06395 0.0212488 0)
(1.07368 0.0214083 0)
(1.05096 0.0237416 0)
(0.881804 0.0208559 0)
(0.368235 0.00374714 0)
(0.338286 -0.000584363 0)
(0.854287 -0.0117229 0)
(1.04331 -0.0146642 0)
(1.07227 -0.0141053 0)
(1.06455 -0.0145642 0)
(1.05239 -0.0140277 0)
(1.042 -0.0123476 0)
(1.03436 -0.00984746 0)
(1.02904 -0.00619666 0)
(1.02591 -0.0016286 0)
(1.02561 0.00375931 0)
(1.02833 0.0085033 0)
(1.03337 0.0119171 0)
(1.04076 0.0140142 0)
(1.05104 0.0152417 0)
(1.06322 0.0153948 0)
(1.07095 0.0147758 0)
(1.04182 0.0151074 0)
(0.852319 0.0120019 0)
(0.336575 0.000711031 0)
(0.329649 0.00123319 0)
(0.833006 -0.00382183 0)
(1.02965 -0.00738008 0)
(1.06415 -0.00978542 0)
(1.05914 -0.0118145 0)
(1.04898 -0.0123772 0)
(1.04044 -0.0115434 0)
(1.03367 -0.00911804 0)
(1.02898 -0.00557682 0)
(1.02627 -0.000956299 0)
(1.02612 0.00422331 0)
(1.02836 0.00833601 0)
(1.03249 0.011385 0)
(1.03898 0.0133461 0)
(1.04733 0.013836 0)
(1.05747 0.0130228 0)
(1.06237 0.0107381 0)
(1.0275 0.0080605 0)
(0.830388 0.00418474 0)
(0.327075 -0.00112326 0)
(0.331089 0.00130052 0)
(0.823669 0.000517672 0)
(1.01758 -0.00161839 0)
(1.05387 -0.00480571 0)
(1.05206 -0.00767506 0)
(1.04472 -0.00907285 0)
(1.03906 -0.00863509 0)
(1.0341 -0.00732762 0)
(1.03001 -0.00444178 0)
(1.0275 -0.000290997 0)
(1.02725 0.00419942 0)
(1.02926 0.00786155 0)
(1.03278 0.0102597 0)
(1.03725 0.011117 0)
(1.04259 0.0113175 0)
(1.04972 0.00935357 0)
(1.05123 0.00603004 0)
(1.01439 0.00242733 0)
(0.819529 -9.77525e-05 0)
(0.327941 -0.00119554 0)
(0.33526 0.000496574 0)
(0.823047 0.00086327 0)
(1.01259 0.000109501 0)
(1.04902 -0.00229703 0)
(1.05002 -0.00443325 0)
(1.04591 -0.00577005 0)
(1.04141 -0.00612397 0)
(1.03724 -0.00518111 0)
(1.03363 -0.00294445 0)
(1.03096 0.000343516 0)
(1.03045 0.00398109 0)
(1.03227 0.00732309 0)
(1.03526 0.00915045 0)
(1.03881 0.0096169 0)
(1.04275 0.0084279 0)
(1.04633 0.00650864 0)
(1.0451 0.00370986 0)
(1.00822 0.000790124 0)
(0.817518 -0.000493653 0)
(0.33104 -0.000328558 0)
(0.336595 -1.20912e-05 0)
(0.823445 0.000348968 0)
(1.0111 -0.000292852 0)
(1.04695 -0.00160291 0)
(1.04923 -0.00282105 0)
(1.04713 -0.00346032 0)
(1.04444 -0.00349925 0)
(1.0415 -0.00269208 0)
(1.0386 -0.00106984 0)
(1.03624 0.0014236 0)
(1.03535 0.00428039 0)
(1.03601 0.00640292 0)
(1.03767 0.00721745 0)
(1.03995 0.00713901 0)
(1.04243 0.00630401 0)
(1.0445 0.00494554 0)
(1.04192 0.00313123 0)
(1.00548 0.00123157 0)
(0.816848 0.000275335 0)
(0.331404 0.000143164 0)
(0.336943 6.28401e-05 0)
(0.823777 0.000260861 0)
(1.00931 9.31839e-05 0)
(1.04448 -0.000538095 0)
(1.04718 -0.0011838 0)
(1.04583 -0.00158477 0)
(1.04388 -0.00150488 0)
(1.04175 -0.000792856 0)
(1.03954 0.000559795 0)
(1.03754 0.00256416 0)
(1.03653 0.00487305 0)
(1.0364 0.00613308 0)
(1.03748 0.00641984 0)
(1.03888 0.00615508 0)
(1.04025 0.00530169 0)
(1.04109 0.00404194 0)
(1.03799 0.00264256 0)
(1.00211 0.00126847 0)
(0.815399 0.000452982 0)
(0.330423 0.000155319 0)
(0.337692 0.000212839 0)
(0.824332 0.000518879 0)
(1.00882 0.00081563 0)
(1.04317 0.000634107 0)
(1.0459 0.000441169 0)
(1.04487 0.000294833 0)
(1.04337 0.000509609 0)
(1.04162 0.00113391 0)
(1.03969 0.00225228 0)
(1.03781 0.00378056 0)
(1.03664 0.00542348 0)
(1.03626 0.00622268 0)
(1.03645 0.00611669 0)
(1.0369 0.00559367 0)
(1.03751 0.004624 0)
(1.0378 0.00340604 0)
(1.03441 0.00218742 0)
(0.998828 0.00107309 0)
(0.81328 0.000376798 0)
(0.329247 0.000103895 0)
(0.339274 0.000265802 0)
(0.825559 0.000702389 0)
(1.00914 0.00103083 0)
(1.04334 0.00125191 0)
(1.04607 0.00142724 0)
(1.04544 0.0017639 0)
(1.0443 0.002294 0)
(1.0428 0.0030381 0)
(1.04095 0.00403493 0)
(1.03897 0.00521505 0)
(1.0373 0.00611525 0)
(1.0363 0.00656089 0)
(1.03585 0.00622318 0)
(1.03577 0.00540944 0)
(1.03583 0.00436331 0)
(1.0357 0.00322402 0)
(1.03205 0.00214892 0)
(0.996531 0.00118645 0)
(0.811515 0.000506734 0)
(0.328413 0.00016227 0)
(0.341009 0.000277435 0)
(0.82757 0.000822071 0)
(1.0102 0.00130129 0)
(1.04427 0.00176181 0)
(1.04728 0.00235417 0)
(1.04678 0.00306403 0)
(1.04574 0.00391299 0)
(1.04427 0.00488219 0)
(1.04235 0.00591579 0)
(1.04006 0.00691739 0)
(1.03788 0.00744797 0)
(1.03627 0.00736964 0)
(1.03526 0.00679083 0)
(1.03466 0.00575753 0)
(1.03428 0.00462138 0)
(1.03383 0.00348247 0)
(1.03001 0.00243113 0)
(0.994429 0.00148785 0)
(0.809525 0.000737787 0)
(0.327114 0.000242672 0)
(0.343021 0.000344537 0)
(0.830055 0.00102056 0)
(1.01215 0.00177937 0)
(1.04596 0.0025951 0)
(1.04891 0.00350263 0)
(1.04836 0.00452337 0)
(1.04723 0.00565849 0)
(1.0456 0.00687012 0)
(1.04341 0.0080353 0)
(1.04065 0.00897962 0)
(1.03782 0.00930227 0)
(1.03559 0.00885117 0)
(1.03401 0.00792432 0)
(1.03295 0.00664476 0)
(1.03225 0.00532076 0)
(1.03159 0.00404621 0)
(1.02763 0.00287816 0)
(0.991928 0.00182382 0)
(0.806953 0.000941444 0)
(0.325291 0.000304566 0)
(0.34563 0.000454661 0)
(0.833285 0.00132943 0)
(1.01483 0.00236797 0)
(1.04837 0.00349475 0)
(1.0512 0.00473125 0)
(1.05051 0.00610963 0)
(1.04917 0.00760664 0)
(1.04724 0.0091469 0)
(1.04459 0.0105447 0)
(1.04117 0.0115384 0)
(1.03751 0.0117139 0)
(1.03451 0.0109629 0)
(1.03235 0.00962224 0)
(1.03084 0.00800644 0)
(1.02982 0.0063803 0)
(1.02895 0.00485508 0)
(1.02484 0.00347434 0)
(0.988917 0.00222734 0)
(0.803774 0.00116477 0)
(0.323025 0.000377065 0)
(0.349092 0.000585951 0)
(0.837558 0.00173268 0)
(1.01829 0.0031131 0)
(1.05143 0.00465167 0)
(1.0541 0.0062873 0)
(1.05322 0.00808938 0)
(1.0516 0.0100067 0)
(1.04923 0.0119364 0)
(1.04595 0.0136335 0)
(1.04166 0.0147337 0)
(1.03697 0.0147744 0)
(1.03303 0.0136936 0)
(1.03018 0.0119262 0)
(1.0282 0.00989763 0)
(1.02688 0.00788766 0)
(1.02581 0.00602414 0)
(1.02152 0.00433501 0)
(0.985284 0.00279667 0)
(0.799831 0.00146822 0)
(0.320197 0.000474794 0)
(0.353444 0.000761628 0)
(0.843004 0.00217468 0)
(1.02309 0.00392063 0)
(1.05582 0.00582068 0)
(1.05824 0.00795694 0)
(1.05702 0.0103335 0)
(1.05494 0.0128589 0)
(1.05193 0.015369 0)
(1.04776 0.0175213 0)
(1.04231 0.0188309 0)
(1.03632 0.0187431 0)
(1.03127 0.0172486 0)
(1.0276 0.0149338 0)
(1.02504 0.012334 0)
(1.02332 0.00978234 0)
(1.02196 0.00743753 0)
(1.01741 0.00533928 0)
(0.98076 0.00344123 0)
(0.794943 0.00181998 0)
(0.316696 0.000594479 0)
(0.359437 0.000985711 0)
(0.850271 0.00298375 0)
(1.0289 0.00531312 0)
(1.061 0.00787601 0)
(1.06318 0.0106319 0)
(1.0616 0.0135782 0)
(1.05895 0.0167081 0)
(1.05511 0.0198023 0)
(1.04978 0.02243 0)
(1.04281 0.0239479 0)
(1.03515 0.0236827 0)
(1.02869 0.0216858 0)
(1.02403 0.018723 0)
(1.02082 0.015465 0)
(1.01868 0.0123085 0)
(1.01708 0.00942813 0)
(1.01232 0.0068257 0)
(0.975162 0.00444732 0)
(0.788789 0.00233692 0)
(0.312235 0.000743796 0)
(0.366591 0.00132302 0)
(0.859333 0.00351533 0)
(1.03697 0.00643366 0)
(1.06837 0.00962291 0)
(1.07002 0.0132446 0)
(1.06778 0.0172346 0)
(1.06428 0.0214207 0)
(1.05926 0.0254798 0)
(1.05238 0.028842 0)
(1.04348 0.0306744 0)
(1.03383 0.0301588 0)
(1.02575 0.0274613 0)
(1.01992 0.0235997 0)
(1.0159 0.0193909 0)
(1.01319 0.0153119 0)
(1.01116 0.0115839 0)
(1.00594 0.00826145 0)
(0.96803 0.00526161 0)
(0.781004 0.00278098 0)
(0.306809 0.000922965 0)
(0.377383 0.00174259 0)
(0.871461 0.00545365 0)
(1.04679 0.00930502 0)
(1.07725 0.0133972 0)
(1.07848 0.0179471 0)
(1.07555 0.0227561 0)
(1.07092 0.0278335 0)
(1.0643 0.0328096 0)
(1.05534 0.0368569 0)
(1.04393 0.0389093 0)
(1.03169 0.0380023 0)
(1.02151 0.0344261 0)
(1.01423 0.0294976 0)
(1.00919 0.0242501 0)
(1.00583 0.0192675 0)
(1.0034 0.0147804 0)
(0.997875 0.0107631 0)
(0.9594 0.00710048 0)
(0.77176 0.0037324 0)
(0.299917 0.00115321 0)
(0.390011 0.00234915 0)
(0.887938 0.00583657 0)
(1.06029 0.0110894 0)
(1.08932 0.0166784 0)
(1.08956 0.0229944 0)
(1.08535 0.0295142 0)
(1.07906 0.0363256 0)
(1.07029 0.0426449 0)
(1.05866 0.0475541 0)
(1.04422 0.0497545 0)
(1.02905 0.0481809 0)
(1.0166 0.0433976 0)
(1.0077 0.0370801 0)
(1.00154 0.0303921 0)
(0.997406 0.023962 0)
(0.994402 0.0180968 0)
(0.988121 0.0128174 0)
(0.947925 0.00803876 0)
(0.758723 0.00419328 0)
(0.291382 0.00141605 0)
(0.409295 0.00347479 0)
(0.90752 0.0102645 0)
(1.07767 0.016547 0)
(1.10494 0.0234155 0)
(1.10404 0.030887 0)
(1.09802 0.0391688 0)
(1.08939 0.0474978 0)
(1.07755 0.0551889 0)
(1.06243 0.0608519 0)
(1.0442 0.0629283 0)
(1.02545 0.0603966 0)
(1.01018 0.0541207 0)
(0.999199 0.046157 0)
(0.99147 0.0378924 0)
(0.986154 0.0300873 0)
(0.982288 0.0230302 0)
(0.975449 0.0167977 0)
(0.935065 0.0111212 0)
(0.745805 0.00591509 0)
(0.281268 0.00182866 0)
(0.435994 0.00449382 0)
(0.939884 0.0112632 0)
(1.10091 0.0213167 0)
(1.12547 0.0307651 0)
(1.12202 0.0421972 0)
(1.11339 0.0528837 0)
(1.10109 0.0632962 0)
(1.08513 0.0723115 0)
(1.06574 0.0781714 0)
(1.04313 0.0795695 0)
(1.02041 0.0755115 0)
(1.00213 0.0672889 0)
(0.989 0.0574255 0)
(0.97968 0.0473202 0)
(0.973187 0.037662 0)
(0.968464 0.0287688 0)
(0.960211 0.0204835 0)
(0.91623 0.012907 0)
(0.723466 0.00661717 0)
(0.267092 0.00221765 0)
(0.469575 0.00817794 0)
(0.973172 0.0209175 0)
(1.13118 0.0322682 0)
(1.15147 0.0451888 0)
(1.14487 0.0589353 0)
(1.13163 0.0720896 0)
(1.11414 0.0847644 0)
(1.09331 0.094164 0)
(1.06896 0.0995353 0)
(1.04145 0.0996007 0)
(1.01447 0.0934668 0)
(0.99289 0.0829724 0)
(0.97723 0.0709617 0)
(0.965869 0.0588686 0)
(0.957558 0.0472363 0)
(0.951171 0.0365269 0)
(0.941801 0.0268486 0)
(0.897055 0.0177155 0)
(0.705171 0.00957615 0)
(0.254225 0.00304515 0)
(0.552892 0.0141918 0)
(1.03763 0.0281364 0)
(1.17167 0.0479239 0)
(1.18597 0.0651218 0)
(1.17191 0.0844447 1.55304e-34)
(1.15119 0.101372 -8.39463e-35)
(1.12754 0.114084 0)
(1.10084 0.122305 0)
(1.0707 0.126183 0)
(1.03777 0.123896 0)
(1.00616 0.114872 0)
(0.981035 0.1016 0)
(0.962619 0.087285 0)
(0.948994 0.0733636 0)
(0.938822 0.0602103 0)
(0.930454 0.0472963 0)
(0.918084 0.0349443 0)
(0.867994 0.0228764 0)
(0.661103 0.0121858 0)
(0.226445 0.00367288 0)
(0.60234 0.0283425 4.59456e-22)
(1.10911 0.052342 -9.22102e-22)
(1.21827 0.0733034 0)
(1.22246 0.101653 4.71619e-21)
(1.19764 0.125289 -3.80984e-21)
(1.16966 0.141512 8.85647e-35)
(1.13998 0.151249 0)
(1.10684 0.157645 6.42335e-21)
(1.07052 0.159283 -2.22892e-20)
(1.03177 0.154138 4.80573e-21)
(0.995054 0.142071 0)
(0.965808 0.126071 -1.46163e-20)
(0.943946 0.109526 -1.81219e-20)
(0.927237 0.0935565 3.18398e-20)
(0.914266 0.0788227 -2.54917e-20)
(0.903137 0.0650181 0)
(0.886188 0.0490598 -9.71053e-21)
(0.826148 0.0329281 0)
(0.622267 0.0247295 -5.28503e-20)
(0.209626 0.00808758 6.29997e-20)
(0.623297 0.0546365 -1.24672e-21)
(1.15098 0.0922273 -2.40275e-20)
(1.25978 0.122011 9.45866e-21)
(1.25392 0.153355 5.63595e-21)
(1.22025 0.176067 -7.40836e-21)
(1.18646 0.187822 1.26067e-20)
(1.15054 0.195012 0)
(1.11068 0.199939 0)
(1.06805 0.199282 3.48343e-20)
(1.02298 0.1916 0)
(0.980264 0.177093 5.06344e-20)
(0.945696 0.159312 1.568e-20)
(0.919074 0.141828 4.44201e-22)
(0.897848 0.125479 -3.54041e-20)
(0.880387 0.110733 0)
(0.865169 0.0984432 0)
(0.846061 0.0863998 -1.63766e-19)
(0.792026 0.0673234 4.14025e-19)
(0.60531 0.0477883 -2.4413e-19)
(0.209361 0.0194656 -2.94164e-19)
(0.625018 0.0787692 6.0337e-20)
(1.17585 0.143999 -1.66034e-20)
(1.29139 0.184677 -3.5709e-21)
(1.27852 0.21674 -1.24496e-20)
(1.23918 0.234058 1.38517e-20)
(1.20037 0.239488 -2.78183e-20)
(1.15772 0.244066 1.28741e-20)
(1.11152 0.246256 0)
(1.06297 0.242453 -7.20499e-20)
(1.01185 0.231864 7.51108e-20)
(0.963487 0.214859 -1.3783e-19)
(0.924084 0.195609 6.65578e-20)
(0.893427 0.177758 -4.77081e-20)
(0.868759 0.161945 1.05224e-19)
(0.848341 0.148128 0)
(0.830789 0.136486 -4.06618e-20)
(0.811496 0.126543 0)
(0.763802 0.110036 2.34821e-19)
(0.596859 0.0752472 -5.55626e-19)
(0.217809 0.0342468 3.50876e-19)
(0.614196 0.111078 -3.01357e-19)
(1.19143 0.20014 1.18782e-19)
(1.31159 0.251477 1.88582e-20)
(1.2943 0.285058 0)
(1.25239 0.295561 4.05099e-21)
(1.20917 0.295453 -2.77651e-21)
(1.16062 0.296896 -1.30484e-20)
(1.10931 0.295016 0)
(1.05563 0.287506 5.08076e-20)
(0.999364 0.273663 -5.18212e-20)
(0.946415 0.253949 1.19561e-19)
(0.903507 0.233079 0)
(0.870429 0.214603 -1.00165e-19)
(0.844215 0.198888 5.56813e-20)
(0.823007 0.185673 1.48392e-19)
(0.80527 0.174395 -1.30375e-19)
(0.786825 0.164207 2.15662e-19)
(0.743612 0.147761 -4.80493e-19)
(0.587812 0.10811 3.05537e-19)
(0.220916 0.0468331 -3.86088e-19)
(0.594778 0.139545 1.91813e-19)
(1.19235 0.253685 -1.41391e-19)
(1.32116 0.317266 5.81891e-20)
(1.30152 0.352462 -7.59036e-20)
(1.25858 0.357278 4.72092e-20)
(1.21185 0.353446 -5.94648e-21)
(1.15944 0.351286 4.02732e-21)
(1.10457 0.344841 -3.94535e-20)
(1.0468 0.333431 -5.03795e-20)
(0.98643 0.316025 -1.09656e-19)
(0.929928 0.293301 -2.56936e-19)
(0.884607 0.270416 -8.46228e-20)
(0.850218 0.250786 2.83349e-21)
(0.823475 0.234462 -1.95929e-19)
(0.80228 0.221087 -6.23553e-21)
(0.78495 0.209986 1.89958e-19)
(0.767432 0.199445 -5.87308e-20)
(0.726808 0.181607 -3.46837e-20)
(0.576879 0.137392 0)
(0.218501 0.0582645 8.14653e-19)
(0.574489 0.166451 0)
(1.18513 0.306008 4.44863e-20)
(1.32221 0.380894 3.04607e-20)
(1.30169 0.416807 -1.17671e-20)
(1.25816 0.417055 -6.04694e-20)
(1.20897 0.410749 5.81323e-21)
(1.15456 0.404967 1.06286e-20)
(1.09722 0.394356 6.82594e-20)
(1.03634 0.379226 -2.92573e-20)
(0.972716 0.358202 5.01402e-20)
(0.913318 0.332261 1.38036e-19)
(0.866077 0.306953 1.86563e-19)
(0.830681 0.285665 -1.15286e-19)
(0.803518 0.268215 2.11935e-19)
(0.782307 0.254105 -1.69728e-19)
(0.76523 0.242646 0)
(0.748372 0.23167 -4.49225e-19)
(0.709561 0.212187 6.0412e-19)
(0.56388 0.163332 4.59212e-20)
(0.21438 0.0663707 -8.54738e-19)
(0.556782 0.191966 -8.38986e-21)
(1.17371 0.35734 -3.09635e-19)
(1.31757 0.442974 -2.2883e-19)
(1.29671 0.47801 1.85457e-19)
(1.25266 0.474109 -3.35223e-20)
(1.20183 0.465717 1.40325e-20)
(1.14631 0.456601 9.10695e-21)
(1.0871 0.442591 -1.08093e-20)
(1.02387 0.424124 -1.05975e-19)
(0.957574 0.399572 1.30932e-21)
(0.895606 0.370242 -1.49313e-19)
(0.846604 0.342221 -1.98652e-19)
(0.810335 0.318974 1.295e-19)
(0.782914 0.300045 -7.59924e-20)
(0.761688 0.284785 1.84658e-19)
(0.74483 0.272537 0)
(0.728616 0.260905 -2.78418e-19)
(0.691435 0.23969 4.11969e-19)
(0.54973 0.185731 7.94767e-19)
(0.208863 0.0742612 -9.26515e-19)
(0.543133 0.216183 -6.03748e-19)
(1.16205 0.408119 3.01618e-19)
(1.30861 0.502951 2.25257e-19)
(1.28832 0.536054 -2.02143e-19)
(1.24387 0.528485 1.01864e-20)
(1.1919 0.518022 4.56651e-20)
(1.1355 0.505835 -1.09721e-20)
(1.07476 0.488938 -2.44317e-20)
(1.00973 0.467432 -6.31488e-20)
(0.941281 0.439639 1.0964e-19)
(0.87722 0.407103 1.42681e-19)
(0.826762 0.376235 3.12071e-19)
(0.789631 0.350622 0)
(0.761718 0.329874 5.65804e-21)
(0.740652 0.313234 -5.13275e-19)
(0.724151 0.299846 1.18233e-19)
(0.708332 0.287185 5.99103e-19)
(0.672473 0.26425 -1.74989e-19)
(0.534748 0.205255 3.81175e-19)
(0.202421 0.0812797 -2.93278e-20)
(0.534419 0.239541 1.00443e-20)
(1.1499 0.456936 2.82941e-19)
(1.29698 0.559583 1.72948e-19)
(1.27779 0.590641 -3.69456e-19)
(1.23297 0.580268 2.25823e-19)
(1.1803 0.567755 -6.15441e-20)
(1.1231 0.552709 7.93961e-21)
(1.06113 0.533206 5.92955e-20)
(0.994578 0.50901 1.15968e-19)
(0.924091 0.478332 -1.37229e-19)
(0.857672 0.442572 0)
(0.805299 0.408727 -1.22522e-19)
(0.767477 0.380756 1.40666e-19)
(0.739942 0.357894 1.87453e-19)
(0.718954 0.339432 -1.07827e-19)
(0.702813 0.324593 -2.70585e-19)
(0.687924 0.310982 -8.22449e-20)
(0.653597 0.286436 -1.62027e-21)
(0.51928 0.222566 0)
(0.195187 0.087142 0)
(0.528408 0.261776 -3.04891e-19)
(1.13755 0.502672 0)
(1.28404 0.612107 2.00899e-19)
(1.2658 0.641588 -9.44367e-20)
(1.2207 0.629306 -2.36971e-19)
(1.16769 0.614899 6.54122e-20)
(1.10989 0.597328 1.1125e-21)
(1.04701 0.575528 -3.22454e-20)
(0.979141 0.548993 7.46103e-20)
(0.906955 0.515742 -5.41774e-20)
(0.838824 0.477123 8.01254e-20)
(0.785351 0.440192 3.84405e-19)
(0.74632 0.409149 1.38063e-20)
(0.717306 0.383969 -1.92611e-19)
(0.696729 0.363606 3.70148e-19)
(0.680974 0.347509 4.60696e-21)
(0.666063 0.33227 8.79925e-20)
(0.632577 0.30577 -4.30378e-19)
(0.502437 0.236985 4.41427e-19)
(0.187033 0.0917761 -5.20638e-19)
(0.523837 0.283422 1.39566e-22)
(1.1256 0.545545 0)
(1.27055 0.660704 0)
(1.25275 0.688981 8.66877e-20)
(1.20744 0.675358 9.5172e-20)
(1.15433 0.659276 -5.32156e-20)
(1.09621 0.639585 2.09173e-20)
(1.03266 0.615812 0)
(0.963611 0.587253 -1.19136e-19)
(0.889511 0.551759 1.99749e-19)
(0.818275 0.510299 2.42104e-19)
(0.761305 0.47054 -1.44556e-19)
(0.721527 0.436921 -1.80864e-19)
(0.694216 0.408681 4.27823e-19)
(0.673404 0.386095 -1.31217e-19)
(0.658456 0.367043 -1.59011e-19)
(0.644888 0.350485 -9.76273e-20)
(0.612787 0.322446 -4.68832e-19)
(0.484676 0.2499 6.48196e-20)
(0.178135 0.0949762 5.66837e-19)
(0.519695 0.303907 -1.24524e-19)
(1.11394 0.585798 -1.8951e-19)
(1.2567 0.705756 2.25618e-20)
(1.23892 0.733054 6.97121e-22)
(1.19353 0.71837 2.93238e-20)
(1.14048 0.700815 -1.51167e-19)
(1.08227 0.679381 0)
(1.01825 0.653983 2.17179e-20)
(0.948209 0.623819 -1.71254e-20)
(0.872527 0.586664 3.14935e-19)
(0.799651 0.543234 -6.02229e-20)
(0.742357 0.500066 6.69451e-20)
(0.700021 0.462432 0)
(0.669016 0.431649 -2.33622e-19)
(0.648764 0.405653 2.91675e-19)
(0.633396 0.386619 0)
(0.620221 0.367957 -2.14538e-19)
(0.589294 0.337426 6.27334e-19)
(0.465964 0.259132 7.59188e-20)
(0.1681 0.0969279 -7.06073e-19)
(0.515762 0.323322 -2.79302e-19)
(1.1026 0.623718 3.48688e-19)
(1.24269 0.747711 0)
(1.22473 0.77406 2.19551e-19)
(1.17931 0.758414 0)
(1.12637 0.73953 1.38064e-19)
(1.06826 0.716617 0)
(1.00396 0.689897 0)
(0.933321 0.658573 -3.93824e-20)
(0.856254 0.620267 -3.06118e-19)
(0.779889 0.574449 -4.50108e-19)
(0.716632 0.528918 8.44894e-20)
(0.673245 0.488784 3.16039e-19)
(0.644462 0.453609 2.6411e-19)
(0.624039 0.426215 -9.38411e-19)
(0.610896 0.400669 -3.87053e-19)
(0.597607 0.380206 2.25028e-19)
(0.567338 0.347608 0)
(0.446117 0.266984 6.58752e-19)
(0.157499 0.0974592 -7.68806e-19)
(0.51198 0.341749 3.12562e-19)
(1.09145 0.659295 -3.84835e-19)
(1.22859 0.786747 0)
(1.21042 0.812216 -8.94244e-21)
(1.16502 0.795693 -9.06967e-20)
(1.11229 0.775577 0)
(1.05439 0.751382 -8.87451e-21)
(0.989958 0.723624 2.38686e-20)
(0.918812 0.691531 -5.29393e-20)
(0.839922 0.652609 3.10508e-20)
(0.760453 0.606252 0)
(0.696558 0.558521 3.39752e-19)
(0.648946 0.513902 5.85692e-21)
(0.616379 0.475115 1.44104e-19)
(0.59482 0.440442 1.72703e-19)
(0.58032 0.417761 0)
(0.571064 0.393969 -3.82868e-19)
(0.542161 0.359184 7.50927e-19)
(0.424888 0.271828 -8.06562e-19)
(0.1456 0.0963207 1.67893e-18)
(0.508373 0.359161 0)
(1.08057 0.692704 0)
(1.21469 0.823148 -2.10845e-19)
(1.19626 0.847715 0)
(1.15083 0.830348 0)
(1.0984 0.809072 2.12438e-19)
(1.04079 0.783752 -1.27408e-20)
(0.976421 0.755157 1.68246e-20)
(0.905238 0.722646 -5.28977e-21)
(0.825715 0.68408 0)
(0.744217 0.63695 -7.235e-20)
(0.674497 0.586582 -2.81349e-19)
(0.624409 0.539136 -3.5237e-19)
(0.588847 0.495008 -1.46564e-19)
(0.56898 0.461194 1.91776e-19)
(0.556949 0.427118 -4.55968e-19)
(0.543083 0.40147 8.32819e-19)
(0.516258 0.362812 1.12184e-20)
(0.40268 0.273422 -7.81208e-19)
(0.132989 0.0939558 -1.15884e-19)
(0.504908 0.375562 0)
(1.06989 0.723989 -3.00383e-19)
(1.20092 0.857 2.35489e-19)
(1.18223 0.880716 0)
(1.13679 0.862558 0)
(1.08481 0.840167 -4.7327e-19)
(1.02759 0.813857 0)
(0.963541 0.784557 0)
(0.892536 0.751854 -8.77387e-20)
(0.811651 0.713689 5.78155e-20)
(0.725472 0.666248 -5.81384e-19)
(0.651231 0.61543 0)
(0.595837 0.565588 -3.85089e-19)
(0.559382 0.519184 1.26529e-20)
(0.534363 0.471117 -6.16149e-19)
(0.522611 0.437911 2.47352e-19)
(0.518997 0.407873 5.74441e-21)
(0.491024 0.36734 -8.98156e-19)
(0.378764 0.27389 4.27698e-19)
(0.120007 0.0896265 1.2398e-19)
(0.501608 0.390911 0)
(1.05948 0.75333 -3.57189e-19)
(1.18752 0.888551 2.51792e-19)
(1.16847 0.911376 5.26252e-19)
(1.12301 0.892411 1.06712e-19)
(1.07158 0.868942 -7.55313e-20)
(1.01486 0.841759 4.47034e-20)
(0.951314 0.811858 -6.9231e-20)
(0.880587 0.779158 9.38537e-20)
(0.798777 0.742516 3.51937e-19)
(0.710484 0.697688 4.82279e-19)
(0.632309 0.645585 9.26597e-20)
(0.573746 0.594246 5.58766e-19)
(0.529122 0.539135 3.62076e-19)
(0.503214 0.489828 4.45015e-19)
(0.489837 0.446116 -2.78606e-19)
(0.479819 0.411583 -3.32758e-19)
(0.460414 0.368232 3.92622e-19)
(0.354947 0.268998 -2.37056e-19)
(0.10852 0.0843412 4.08731e-19)
(0.498388 0.405306 4.93618e-19)
(1.04926 0.78083 5.67251e-19)
(1.17429 0.917876 1.39161e-19)
(1.15484 0.939842 1.63441e-20)
(1.1095 0.920067 -3.69754e-19)
(1.05872 0.895529 1.37388e-19)
(1.0026 0.867568 -5.19054e-20)
(0.939786 0.837196 -2.50431e-20)
(0.869627 0.804702 -8.18454e-20)
(0.787469 0.769941 -3.93017e-19)
(0.696771 0.726561 2.8841e-20)
(0.611611 0.674896 0)
(0.54562 0.620854 0)
(0.496834 0.564633 -1.84236e-19)
(0.463386 0.510543 -7.30452e-19)
(0.449315 0.456053 6.03861e-19)
(0.450384 0.405901 3.71095e-19)
(0.430858 0.355977 0)
(0.329367 0.259571 7.6092e-19)
(0.103567 0.0781495 -4.48838e-19)
(0.495379 0.41872 -2.61199e-19)
(1.03933 0.806616 2.20177e-19)
(1.16147 0.945203 -3.10766e-19)
(1.1415 0.966241 -3.32374e-19)
(1.09631 0.945607 -1.46989e-19)
(1.04628 0.920022 3.13304e-20)
(0.990912 0.891374 0)
(0.92913 0.860628 1.09991e-19)
(0.85968 0.828372 1.70883e-20)
(0.77703 0.795272 0)
(0.684076 0.754994 0)
(0.593084 0.703686 6.49254e-20)
(0.522667 0.647439 9.72657e-20)
(0.468085 0.597644 -1.98909e-19)
(0.431107 0.533543 5.28096e-19)
(0.408294 0.45626 -6.61711e-19)
(0.39845 0.399484 -8.02214e-19)
(0.395632 0.337403 7.19775e-19)
(0.326056 0.23746 -2.80673e-19)
(0.13278 0.0815731 1.6106e-19)
(0.492465 0.431186 3.03274e-19)
(1.02963 0.830805 0)
(1.14875 0.970598 0)
(1.12832 0.990739 -1.12578e-19)
(1.08349 0.969215 9.09719e-20)
(1.03429 0.942583 -2.15056e-20)
(0.979817 0.913263 -2.03374e-19)
(0.919214 0.882261 -1.94405e-19)
(0.850387 0.85038 8.65172e-20)
(0.767586 0.819098 -3.20217e-20)
(0.673152 0.783991 7.75302e-20)
(0.576933 0.734468 -5.44859e-19)
(0.496379 0.682579 -5.90943e-19)
(0.429486 0.624258 -1.06168e-19)
(0.377307 0.54966 0)
(0.352076 0.486102 -1.38552e-20)
(0.346755 0.384566 4.34314e-19)
(0.324819 0.268289 -7.78407e-19)
(0.287254 0.144005 5.8869e-19)
(0.0906051 0.0313585 5.09214e-19)
(0.489684 0.443243 -6.5625e-19)
(1.02 0.853378 -2.76217e-19)
(1.13635 0.994357 5.79854e-21)
(1.1154 1.0136 1.43955e-19)
(1.07094 0.991215 0)
(1.02258 0.963625 4.26622e-19)
(0.969095 0.933742 2.52704e-19)
(0.90979 0.902698 -4.88145e-20)
(0.841592 0.871202 -2.95082e-20)
(0.758769 0.842375 -3.02187e-20)
(0.662985 0.812627 2.80696e-20)
(0.562397 0.767607 4.81941e-19)
(0.474565 0.711155 5.77239e-19)
(0.407922 0.646436 1.02716e-19)
(0.355017 0.596269 5.49686e-19)
(0.298651 0.50392 0)
(0.21708 0.40689 0)
(0.120986 0.408914 5.40098e-19)
(0.016803 0.723066 -1.76042e-20)
(-0.00386609 1.58505 -6.19147e-19)
(0.48724 0.45477 3.54547e-19)
(1.01062 0.87483 8.25982e-19)
(1.12396 1.01664 -1.23928e-18)
(1.10258 1.03514 7.43227e-19)
(1.05864 1.01196 -8.71081e-20)
(1.0112 0.983554 5.62296e-19)
(0.958808 0.953209 0)
(0.900856 0.922278 2.11608e-19)
(0.833584 0.891648 0)
(0.751974 0.865568 2.79581e-19)
(0.654997 0.841065 -4.5284e-20)
(0.546588 0.80185 5.07732e-20)
(0.445646 0.744991 6.54888e-19)
(0.361803 0.690078 -2.28794e-19)
(0.270698 0.624442 -2.85104e-19)
(0.214439 0.577393 0)
(0.117871 0.685114 0)
(0.0688409 1.26026 0)
(0.0834941 2.41729 -3.11869e-19)
(0.0939275 2.88423 -1.86916e-19)
(0.484682 0.465769 0)
(1.00143 0.894894 0)
(1.11196 1.03751 4.43469e-19)
(1.09007 1.05525 -6.19131e-19)
(1.04666 1.03136 4.26487e-19)
(1.00019 1.00228 -5.15626e-19)
(0.948924 0.971559 -3.03188e-20)
(0.892277 0.940844 2.36081e-20)
(0.826084 0.911053 7.37242e-21)
(0.745537 0.887873 -3.18919e-19)
(0.648168 0.870341 6.95187e-20)
(0.533751 0.840552 4.75118e-19)
(0.422773 0.787693 -6.478e-19)
(0.32674 0.730957 -7.34026e-19)
(0.271907 0.692569 2.52174e-19)
(0.197991 0.831674 0)
(0.135766 1.53021 3.53179e-19)
(0.153133 2.66031 4.20773e-19)
(0.148963 3.06401 -4.73673e-19)
(0.137742 3.20162 5.31303e-19)
(0.482584 0.476554 0)
(0.992554 0.914022 6.73093e-19)
(1.1 1.05706 -1.14663e-19)
(1.07774 1.07413 7.7921e-19)
(1.0351 1.04959 -4.47645e-19)
(0.989649 1.01994 0)
(0.939528 0.98892 0)
(0.884125 0.958329 0)
(0.819228 0.929531 -8.39766e-20)
(0.741181 0.910047 2.93715e-21)
(0.64302 0.901476 0)
(0.521063 0.878446 -4.64477e-19)
(0.40374 0.830856 0)
(0.297518 0.787617 5.22133e-19)
(0.236976 0.869762 -3.36038e-19)
(0.179678 1.47547 -2.72483e-19)
(0.196163 2.65854 -6.61348e-19)
(0.21286 3.11647 -3.41211e-19)
(0.188332 3.26097 -4.24906e-19)
(0.166907 3.29964 3.93737e-19)
(0.480065 0.486346 -2.30996e-19)
(0.983946 0.931923 1.40683e-20)
(1.08844 1.07544 -1.23506e-19)
(1.06582 1.09174 -6.23139e-19)
(1.02397 1.06664 0)
(0.979518 1.03658 0)
(0.930436 1.00529 0)
(0.876126 0.974768 -1.60802e-20)
(0.813076 0.947054 9.44328e-20)
(0.738389 0.932212 0)
(0.639701 0.931991 0)
(0.513242 0.916586 0)
(0.375885 0.8814 0)
(0.323724 0.874596 3.57099e-19)
(0.291488 1.2398 8.7687e-19)
(0.27349 2.34908 2.65392e-19)
(0.284116 3.08194 4.90465e-19)
(0.266095 3.28806 -3.18121e-19)
(0.214319 3.35097 1.19794e-19)
(0.187143 3.36266 0)
(0.475875 0.49427 2.33964e-19)
(0.974695 0.94865 -1.45197e-18)
(1.07669 1.09325 -4.09095e-19)
(1.05405 1.10887 -9.95583e-20)
(1.01318 1.08318 1.15362e-19)
(0.969611 1.05266 -8.23041e-19)
(0.921472 1.02107 5.63741e-20)
(0.868349 0.990436 4.19171e-19)
(0.807985 0.963591 0)
(0.737559 0.95329 -1.967e-20)
(0.639184 0.962423 1.78955e-20)
(0.503986 0.961743 0)
(0.376977 0.935685 0)
(0.337789 1.04232 -4.42878e-19)
(0.307773 1.84014 1.65514e-20)
(0.298906 2.92062 -1.47693e-19)
(0.317343 3.28775 2.52618e-19)
(0.294742 3.39044 1.07192e-19)
(0.232556 3.41809 1.9503e-20)
(0.209375 3.42739 -6.42998e-21)
(0.470751 0.50166 4.49838e-19)
(0.964722 0.965441 1.38762e-18)
(1.06461 1.11163 5.02688e-19)
(1.04201 1.12634 0)
(1.00199 1.09989 0)
(0.959234 1.06879 6.30894e-19)
(0.912065 1.03667 -4.05345e-19)
(0.860282 1.00559 -3.84736e-19)
(0.803089 0.979676 -1.58707e-20)
(0.73838 0.973915 2.23354e-20)
(0.641548 0.995062 -3.85394e-19)
(0.499309 1.00831 0)
(0.386769 1.01579 0)
(0.370653 1.36839 -2.64829e-19)
(0.368378 2.41695 -3.1962e-19)
(0.405353 3.18974 0)
(0.436592 3.3782 -6.21653e-21)
(0.363212 3.44676 2.03354e-19)
(0.271669 3.48741 -4.26763e-19)
(0.234294 3.50574 2.67862e-19)
(0.465696 0.50972 -8.52272e-19)
(0.953744 0.982941 -6.59683e-19)
(1.05136 1.1308 0)
(1.02914 1.14484 0)
(0.990114 1.11731 0)
(0.94806 1.08522 0)
(0.901818 1.05222 4.34019e-19)
(0.851674 1.02046 -5.06763e-19)
(0.798882 0.994704 0)
(0.74038 0.994116 -1.04646e-20)
(0.64801 1.02985 6.5743e-19)
(0.499567 1.06263 3.63718e-20)
(0.415315 1.13128 5.48265e-20)
(0.426658 1.69027 4.02193e-19)
(0.447006 2.85457 -1.33922e-19)
(0.481204 3.31841 0)
(0.460222 3.45021 -4.30377e-20)
(0.358143 3.53273 9.87607e-20)
(0.270015 3.60209 2.92507e-19)
(0.231984 3.60902 -2.9585e-19)
(0.460556 0.518653 4.03482e-19)
(0.942129 1.00133 -6.45274e-19)
(1.03733 1.15074 0)
(1.01517 1.16384 -1.60442e-19)
(0.976976 1.13514 6.11573e-19)
(0.935623 1.10186 0)
(0.890556 1.06762 0)
(0.842689 1.03456 9.5531e-19)
(0.796238 1.00862 1.90608e-20)
(0.744672 1.01173 -1.39538e-19)
(0.659347 1.06515 -2.86964e-19)
(0.522357 1.1149 2.97219e-19)
(0.459337 1.27954 0)
(0.475564 2.10892 -1.99274e-19)
(0.514835 3.10864 1.47379e-19)
(0.568679 3.41904 -1.68011e-20)
(0.563756 3.53004 0)
(0.467162 3.65118 -1.88972e-19)
(0.402032 3.688 -7.61071e-19)
(0.301995 3.6423 -2.03398e-19)
(0.455075 0.528849 -7.75909e-19)