/*--------------------------------*- C++ -*----------------------------------*\
  =========                 |
  \\      /  F ield         | OpenFOAM: The Open Source CFD Toolbox
   \\    /   O peration     | Website:  https://openfoam.org
    \\  /    A nd           | Version:  6
     \\/     M anipulation  |
\*---------------------------------------------------------------------------*/
FoamFile
{
    version     2.0;
    format      ascii;
    class       surfaceScalarField;
    location    "50.3";
    object      phi;
}
// * * * * * * * * * * * * * * * * * * * * * * * * * * * * * * * * * * * * * //

dimensions      [0 3 -1 0 0 0 0];

internalField   nonuniform List<scalar> 
17370
(
-0.0900017
0.0898518
0.289161
-0.0714666
0.0537577
0.364484
-0.0381255
0.027697
0.426597
-0.0196457
0.0146131
0.504284
-0.0107715
0.00828165
0.601892
-0.00628303
0.00490823
0.720432
-0.00374677
0.00290814
0.863745
-0.0021679
0.00160921
1.03601
-0.00109271
0.00068028
1.24292
-0.000272416
-0.000118155
1.49158
0.000495893
-0.000901909
1.4916
0.00129647
-0.00178561
1.24318
0.00231736
-0.00303011
1.03635
0.00384917
-0.00499673
0.864054
0.0063645
-0.00835816
0.721051
0.0108432
-0.0146788
0.60305
0.019706
-0.0277514
0.507485
0.0381745
-0.0537995
0.431793
0.0715009
-0.0898747
0.365149
0.0900152
0.198996
-0.128132
0.0882176
0.0399143
-0.364594
0.353368
-0.074684
0.0859096
-0.446473
0.454314
-0.0844117
0.0765712
-0.521188
0.529895
-0.0684775
0.0597709
-0.612786
0.621561
-0.0515862
0.042811
-0.726891
0.734155
-0.035354
0.0280893
-0.867472
0.872581
-0.0224939
0.017385
-1.03847
1.04192
-0.0135799
0.0101334
-1.2446
1.24703
-0.00752435
0.00509359
-1.49263
1.4946
-0.00314922
0.00117653
-1.4925
1.49422
0.000502443
-0.00222464
-1.24398
1.24586
0.00412579
-0.00600831
-1.03751
1.04005
0.00836581
-0.0109009
-0.866103
0.86984
0.0142647
-0.0180018
-0.724394
0.729943
0.0230491
-0.0285981
-0.608702
0.616119
0.0358181
-0.0432352
-0.514901
0.523047
0.0519674
-0.060114
-0.439859
0.44792
0.0687807
-0.0768425
-0.375299
0.376746
0.0846466
-0.086094
-0.257335
0.222489
0.0748097
-0.0399633
-0.0685071
0.0586762
0.00983088
-0.0518405
0.0584324
-0.374115
0.367523
-0.0575246
0.0537789
-0.453586
0.457332
-0.0486955
0.0447496
-0.527937
0.531883
-0.0409169
0.0372842
-0.621552
0.625184
-0.0331892
0.0291196
-0.735334
0.739404
-0.0245561
0.0204026
-0.874325
0.878478
-0.0160637
0.0123761
-1.04348
1.04716
-0.00864651
0.00547908
-1.24855
1.25172
-0.00215505
-0.000917738
-1.49666
1.49973
0.00396562
-0.00722815
-1.49721
1.50047
0.0103063
-0.0139149
-1.25008
1.25369
0.0174825
-0.0216871
-1.04594
1.05014
0.0257241
-0.0301728
-0.877776
0.882225
0.0341515
-0.0381586
-0.739914
0.743921
0.0417161
-0.0454698
-0.626788
0.630541
0.0493475
-0.054366
-0.534822
0.539841
0.0580421
-0.0588617
-0.457486
0.458305
0.0521669
-0.0319769
-0.335771
0.315581
0.00988418
-0.0683599
0.0584757
-0.0529212
0.0489208
0.0040004
-0.0331951
0.0437554
-0.358079
0.347519
-0.0474669
0.046849
-0.459265
0.459883
-0.0438022
0.0404572
-0.535781
0.539126
-0.0366931
0.033397
-0.628503
0.631799
-0.0299686
0.0269465
-0.742619
0.745642
-0.0236989
0.0206016
-0.881985
0.885083
-0.0170807
0.0137092
-1.05074
1.05411
-0.00992518
0.00639473
-1.25514
1.25867
-0.00243501
-0.00135476
-1.50323
1.50702
0.0051143
-0.00898458
-1.50414
1.50802
0.0123943
-0.0160156
-1.25744
1.26106
0.0192223
-0.0225548
-1.05395
1.05728
0.0254845
-0.0285627
-0.885727
0.888805
0.0314484
-0.0347447
-0.74719
0.750487
0.0379301
-0.0415808
-0.634336
0.637986
0.0448288
-0.047765
-0.544159
0.547096
0.0482668
-0.0443914
-0.456603
0.452728
0.0336351
-0.0162036
-0.296233
0.278801
0.00406648
-0.0526615
0.0485951
-0.0458382
0.0433372
0.00250098
-0.022846
0.033245
-0.336813
0.326414
-0.0390858
0.0401167
-0.459559
0.458528
-0.0389407
0.0366654
-0.541838
0.544114
-0.0340113
0.0314279
-0.634839
0.637422
-0.0283791
0.025493
-0.748673
0.751559
-0.0222426
0.0192615
-0.888022
0.891004
-0.0159709
0.0128852
-1.05723
1.06032
-0.00937402
0.00597658
-1.26212
1.26552
-0.00202217
-0.00185742
-1.5109
1.51478
0.00569737
-0.00953297
-1.51191
1.51575
0.0127704
-0.0160675
-1.26451
1.26781
0.0189375
-0.0219816
-1.06039
1.06343
0.024742
-0.0277665
-0.891872
0.894896
0.0304666
-0.0333331
-0.753705
0.756571
0.0357644
-0.0382649
-0.641064
0.643565
0.0404081
-0.0414105
-0.548912
0.549914
0.0401994
-0.0340956
-0.447465
0.441361
0.0234095
-0.0102147
-0.263604
0.25041
0.00258239
-0.0454387
0.0428564
-0.0412564
0.039483
0.00177347
-0.0167932
0.0260702
-0.31654
0.307263
-0.0327022
0.0348612
-0.456914
0.454755
-0.0344565
0.0327985
-0.546081
0.547739
-0.0306309
0.028548
-0.639714
0.641797
-0.0261317
0.0237499
-0.754189
0.75657
-0.0209115
0.0181425
-0.893879
0.896648
-0.01493
0.0118822
-1.06334
1.06639
-0.00841299
0.0051039
-1.26882
1.27213
-0.00128457
-0.0024397
-1.51856
1.52228
0.00611365
-0.00978266
-1.51949
1.52316
0.0128906
-0.0160914
-1.27106
1.27426
0.0188679
-0.0217665
-1.06646
1.06936
0.0242499
-0.0267925
-0.89773
0.900273
0.0289308
-0.0311112
-0.759039
0.761219
0.0330013
-0.0349736
-0.645732
0.647705
0.0364404
-0.0366098
-0.550449
0.550618
0.0341739
-0.0271575
-0.434722
0.427706
0.0174949
-0.00738044
-0.238906
0.228792
0.00187281
-0.0406857
0.0388129
-0.0379543
0.0366178
0.00133642
-0.0128391
0.0208152
-0.298643
0.290667
-0.027599
0.0305482
-0.452176
0.449226
-0.0307765
0.029677
-0.549156
0.550255
-0.027703
0.0258061
-0.643816
0.645712
-0.0236297
0.0215143
-0.758786
0.760901
-0.0190221
0.0165578
-0.899197
0.901661
-0.0136356
0.0107753
-1.06931
1.07217
-0.00743498
0.00421267
-1.27537
1.27859
-0.000481489
-0.00313834
-1.52592
1.52954
0.00669608
-0.0102406
-1.52676
1.53031
0.0132105
-0.0162125
-1.2774
1.28041
0.0187309
-0.0212596
-1.0721
1.07462
0.0233668
-0.0254877
-0.902584
0.904704
0.027295
-0.0291696
-0.763223
0.765097
0.0308205
-0.0325569
-0.649539
0.651275
0.0333772
-0.0328211
-0.550431
0.549875
0.029478
-0.0221702
-0.420489
0.413181
0.0137006
-0.00570907
-0.219841
0.21185
0.00145697
-0.0371749
0.0357179
-0.0354494
0.0344171
0.00103223
-0.0100487
0.016798
-0.283332
0.276583
-0.0233203
0.0267248
-0.446034
0.44263
-0.0275334
0.0268536
-0.551138
0.551818
-0.025115
0.0233495
-0.647585
0.649351
-0.0213018
0.0193077
-0.762949
0.764943
-0.0169638
0.0146652
-0.90397
0.906269
-0.0119605
0.00930626
-1.07485
1.0775
-0.00617882
0.00311687
-1.28169
1.28476
0.00047531
-0.00397759
-1.53309
1.53659
0.00740281
-0.010763
-1.53377
1.53713
0.0135132
-0.0162238
-1.28328
1.28599
0.0184559
-0.0206742
-1.077
1.07922
0.0225307
-0.0244133
-0.906714
0.908596
0.0260227
-0.0276929
-0.766872
0.768542
0.0291539
-0.0305665
-0.652867
0.65428
0.0308992
-0.0296276
-0.548972
0.5477
0.0256804
-0.0184704
-0.405898
0.398688
0.0111028
-0.00459752
-0.204672
0.198167
0.00117895
-0.0344167
0.0332378
-0.0335094
0.032703
0.00080641
-0.00798137
0.0136621
-0.270399
0.264718
-0.0197051
0.0233134
-0.439117
0.435509
-0.0246066
0.0241808
-0.55241
0.552836
-0.0227158
0.0210675
-0.651114
0.652762
-0.0191252
0.0172267
-0.766883
0.768782
-0.0149826
0.0127732
-0.908449
0.910659
-0.0101684
0.00762119
-1.08002
1.08257
-0.00463687
0.00172692
-1.28769
1.2906
0.00167718
-0.00498775
-1.53997
1.54328
0.00820563
-0.0113292
-1.54036
1.54349
0.0138617
-0.0163381
-1.28859
1.29107
0.0183696
-0.0203788
-1.08136
1.08337
0.0220441
-0.0237206
-0.910396
0.912073
0.025147
-0.0266257
-0.770128
0.771606
0.0278952
-0.0289384
-0.655487
0.65653
0.0289038
-0.026976
-0.546104
0.544176
0.0226444
-0.0157198
-0.391617
0.384692
0.0092713
-0.00382497
-0.192242
0.186795
0.000985271
-0.0321692
0.0311839
-0.0319931
0.0313614
0.000631664
-0.00638735
0.0111554
-0.259523
0.254755
-0.0166118
0.0202245
-0.431898
0.428286
-0.0218484
0.0216588
-0.553182
0.553372
-0.0204408
0.0188615
-0.654427
0.656006
-0.0169841
0.01514
-0.770644
0.772489
-0.0129598
0.0108172
-0.912758
0.9149
-0.00829593
0.00583559
-1.08499
1.08745
-0.00295811
0.000161332
-1.29339
1.29619
0.00309067
-0.00623001
-1.54646
1.5496
0.00925408
-0.0121598
-1.54649
1.54939
0.0144924
-0.0167467
-1.29346
1.29572
0.0185741
-0.0203627
-1.08531
1.0871
0.0218363
-0.0233185
-0.913679
0.915161
0.0245826
-0.0258893
-0.773003
0.774309
0.0270157
-0.0276556
-0.657347
0.657987
0.0272607
-0.0247934
-0.541988
0.539521
0.0202405
-0.0136738
-0.377957
0.37139
0.00795947
-0.00327832
-0.181771
0.17709
0.000848543
-0.0302788
0.0294302
-0.0308089
0.0303182
0.000490753
-0.00510726
0.00909045
-0.250406
0.246423
-0.0139203
0.0173934
-0.424753
0.42128
-0.019209
0.0192133
-0.553519
0.553514
-0.018187
0.0166384
-0.657649
0.659197
-0.0147822
0.0129591
-0.77431
0.776133
-0.010812
0.00870951
-0.916925
0.919027
-0.00624205
0.00383943
-1.08979
1.09219
-0.00104074
-0.00165954
-1.29887
1.30157
0.00476784
-0.00773336
-1.55262
1.55558
0.0105597
-0.0132518
-1.55217
1.55487
0.0153937
-0.0174433
-1.29788
1.29993
0.0190847
-0.0206695
-1.08882
1.0904
0.0219604
-0.0232575
-0.916582
0.917879
0.0243729
-0.0255277
-0.775565
0.776719
0.0264674
-0.026757
-0.658431
0.658721
0.0259829
-0.0230649
-0.53684
0.533922
0.0183899
-0.0121745
-0.36502
0.358805
0.00702722
-0.00289683
-0.172719
0.168589
0.000754857
-0.0286402
0.0278853
-0.0298952
0.0295238
0.000371435
-0.00403437
0.00732776
-0.242809
0.239516
-0.0115187
0.0147447
-0.417947
0.414721
-0.0166369
0.0168196
-0.553483
0.5533
-0.0158977
0.0144465
-0.66078
0.662231
-0.0126044
0.0107736
-0.777938
0.779769
-0.00860861
0.00649268
-0.921031
0.923147
-0.00402499
0.00164451
-1.09448
1.09686
0.00110281
-0.00373205
-1.30416
1.30679
0.00673627
-0.00957231
-1.55843
1.56126
0.0122382
-0.0147334
-1.55743
1.55993
0.0166824
-0.0185171
-1.3019
1.30374
0.0199682
-0.0213549
-1.09195
1.09334
0.022478
-0.023609
-0.919127
0.920259
0.0245803
-0.0255627
-0.777804
0.778786
0.0262497
-0.0262383
-0.658865
0.658854
0.0250674
-0.0217559
-0.530815
0.527504
0.0170112
-0.011102
-0.352771
0.346862
0.00637928
-0.00263818
-0.164686
0.160945
0.000693317
-0.0271735
0.0264802
-0.029213
0.0289479
0.000265085
-0.00309497
0.00576694
-0.236556
0.233884
-0.0093204
0.0122134
-0.411689
0.408796
-0.0140553
0.0143211
-0.553148
0.552883
-0.0134415
0.0120307
-0.663747
0.665158
-0.0101639
0.00829891
-0.781585
0.78345
-0.00610552
0.00397773
-0.925148
0.927275
-0.00150976
-0.000861899
-1.09912
1.10149
0.00358821
-0.00617924
-1.30931
1.31191
0.0091076
-0.0118304
-1.564
1.56672
0.0143489
-0.0166634
-1.56231
1.56463
0.0184331
-0.0200593
-1.30548
1.30711
0.021312
-0.0224758
-1.09468
1.09584
0.0233954
-0.0243273
-0.921342
0.922274
0.0251462
-0.0259706
-0.779693
0.780517
0.0264019
-0.02614
-0.658706
0.658444
0.02454
-0.0208626
-0.524032
0.520355
0.0160592
-0.0103817
-0.34111
0.335432
0.0059571
-0.00247617
-0.157368
0.153887
0.000656958
-0.0258187
0.0251618
-0.02874
0.0285756
0.000164374
-0.00222647
0.00431565
-0.231526
0.229437
-0.0072278
0.00972323
-0.406136
0.40364
-0.0114214
0.0117094
-0.552697
0.552409
-0.0108568
0.00946289
-0.666668
0.668062
-0.00755203
0.0056229
-0.785303
0.787233
-0.00334957
0.00114999
-0.929295
0.931494
0.00138693
-0.00380261
-1.10376
1.10618
0.00654543
-0.00911364
-1.31439
1.31696
0.0119676
-0.0145701
-1.56932
1.57192
0.0169254
-0.0190371
-1.56681
1.56892
0.0206133
-0.0220267
-1.30865
1.31006
0.023089
-0.0240474
-1.09698
1.09794
0.0247858
-0.0255307
-0.923172
0.923917
0.0261948
-0.0268646
-0.781254
0.781923
0.0269948
-0.0263901
-0.657959
0.657355
0.0243798
-0.0203515
-0.516549
0.512521
0.0154745
-0.00994806
-0.32988
0.324354
0.005715
-0.00239156
-0.150521
0.147197
0.000641383
-0.024527
0.0238857
-0.0284681
0.0284057
6.24052e-05
-0.00137728
0.00289544
-0.227655
0.226137
-0.00514678
0.0071741
-0.401415
0.399388
-0.0086185
0.00884746
-0.552252
0.552023
-0.0079862
0.0065879
-0.669573
0.670971
-0.00461044
0.0025929
-0.789148
0.791166
-0.000208747
-0.00208977
-0.93359
0.935888
0.00472166
-0.00720549
-1.10849
1.11097
0.00999685
-0.0125811
-1.31944
1.32202
0.0154109
-0.017941
-1.57442
1.57695
0.0201683
-0.0220957
-1.5709
1.57283
0.0234801
-0.0246673
-1.31138
1.31256
0.0255146
-0.0262232
-1.09889
1.0996
0.0267317
-0.0272539
-0.924629
0.925152
0.0277443
-0.0282075
-0.782427
0.78289
0.028053
-0.0270424
-0.656487
0.655476
0.0245997
-0.0202116
-0.508382
0.503994
0.015227
-0.00976325
-0.318923
0.313459
0.00562493
-0.00237137
-0.14395
0.140696
0.000642695
-0.0232603
0.0226176
-0.0284012
0.0284475
-4.62113e-05
-0.000500031
0.00144125
-0.224929
0.223987
-0.0030064
0.00450361
-0.397667
0.39617
-0.00559042
0.00566208
-0.552004
0.551932
-0.00470801
0.00322
-0.672549
0.674037
-0.00112159
-0.00102362
-0.793169
0.795314
0.00354517
-0.00595883
-0.93806
0.940474
0.00870561
-0.0112817
-1.11335
1.11592
0.0141528
-0.0167749
-1.32452
1.32714
0.0195883
-0.0220321
-1.57937
1.58181
0.0241114
-0.0258341
-1.57462
1.57635
0.0270076
-0.0279435
-1.31363
1.31457
0.0285546
-0.0290065
-1.1003
1.10075
0.0292784
-0.0295565
-0.925649
0.925927
0.0298591
-0.0300666
-0.783088
0.783295
0.0296572
-0.0281716
-0.654189
0.652704
0.0252608
-0.0204744
-0.499516
0.494729
0.0153188
-0.00981703
-0.308053
0.302551
0.00567893
-0.00241304
-0.137482
0.134216
0.000660882
-0.0219844
0.0213235
-0.0285502
0.0287141
-0.000163934
0.000431096
-0.000105576
-0.223371
0.223045
-0.000721972
0.00161241
-0.395012
0.394122
-0.0022438
0.00208844
-0.552137
0.552292
-0.00100398
-0.000607034
-0.675748
0.677359
0.00285415
-0.00517029
-0.797446
0.799762
0.00789569
-0.0104962
-0.942775
0.945376
0.0134381
-0.016169
-1.11841
1.12114
0.0191679
-0.0218543
-1.32967
1.33235
0.0246655
-0.0270284
-1.58414
1.5865
0.0289489
-0.0304403
-1.57791
1.5794
0.0313821
-0.0320513
-1.31537
1.31604
0.0324151
-0.0325992
-1.10119
1.10138
0.0326239
-0.032642
-0.92618
0.926198
0.0327289
-0.0326022
-0.783142
0.783015
0.0318602
-0.0298076
-0.650973
0.64892
0.0263782
-0.0211362
-0.48986
0.484617
0.0157359
-0.0100927
-0.297069
0.291426
0.00586403
-0.00250972
-0.130957
0.127603
0.000693525
-0.020667
0.0199735
-0.0289571
0.0292613
-0.000304293
0.00143508
-0.00175997
-0.223079
0.223403
0.00177647
-0.00160078
-0.393594
0.393418
0.00156146
-0.00205924
-0.552822
0.55332
0.00334538
-0.00513124
-0.679232
0.681018
0.00758782
-0.0101201
-0.802059
0.804591
0.0130976
-0.0159249
-0.947869
0.950696
0.0190975
-0.0220126
-1.12378
1.1267
0.0251745
-0.0279635
-1.33495
1.33774
0.0308197
-0.0331328
-1.58875
1.59106
0.0349125
-0.0361655
-1.58072
1.58198
0.0368479
-0.0371859
-1.31654
1.31688
0.037252
-0.0371242
-1.1015
1.10137
0.0368689
-0.0365963
-0.926163
0.925891
0.0364549
-0.0358862
-0.782429
0.78186
0.034711
-0.0320167
-0.646681
0.643986
0.0280027
-0.0222277
-0.479298
0.473523
0.0164891
-0.0105898
-0.285762
0.279863
0.00617763
-0.00265978
-0.124225
0.120707
0.00074007
-0.0192798
0.0185397
-0.0296373
0.030113
-0.000475729
0.00269745
-0.00376211
-0.22411
0.225175
0.00466251
-0.00529329
-0.393624
0.394255
0.0059732
-0.0069264
-0.554341
0.555294
0.00853208
-0.0105893
-0.683139
0.685196
0.0133546
-0.0161801
-0.807104
0.809929
0.0194688
-0.022564
-0.953407
0.956502
0.0260127
-0.0291571
-1.12952
1.13266
0.032528
-0.0354407
-1.34044
1.34335
0.0383236
-0.0405406
-1.59323
1.59544
0.0421123
-0.0430695
-1.58302
1.58398
0.0434421
-0.0434364
-1.31704
1.31704
0.043171
-0.0426829
-1.10111
1.10062
0.0421015
-0.0415011
-0.925503
0.924902
0.0410445
-0.0400268
-0.780802
0.779785
0.0383258
-0.0349038
-0.641161
0.637739
0.0302076
-0.023782
-0.467658
0.461232
0.01759
-0.01131
-0.273899
0.267619
0.00661842
-0.00286183
-0.117135
0.113379
0.000800038
-0.017795
0.0169949
-0.0306678
0.0313611
-0.000693242
0.00418362
-0.00613169
-0.226682
0.22863
0.00808245
-0.00959979
-0.395309
0.396826
0.0111111
-0.0126396
-0.556933
0.558462
0.0146876
-0.0170884
-0.687658
0.690059
0.0202486
-0.0234378
-0.812732
0.815921
0.0271316
-0.0305908
-0.959496
0.962955
0.0344164
-0.0378592
-1.13573
1.13917
0.0414789
-0.0445276
-1.34616
1.34921
0.0474398
-0.0495496
-1.59749
1.5996
0.0508839
-0.051484
-1.58469
1.58529
0.0514616
-0.0510456
-1.31679
1.31637
0.050401
-0.0495076
-1.09994
1.09904
0.0485614
-0.0475765
-0.924113
0.923128
0.046695
-0.0451819
-0.778253
0.77674
0.0428159
-0.038536
-0.634215
0.629935
0.033036
-0.0258248
-0.454702
0.44749
0.0190492
-0.0122525
-0.261228
0.254431
0.00718149
-0.00311136
-0.109539
0.105468
0.000871234
-0.016187
0.0153158
-0.0321317
0.0331078
-0.000976094
0.00604842
-0.0090728
-0.231041
0.234065
0.0122603
-0.0148348
-0.39893
0.401504
0.0173177
-0.0195458
-0.560847
0.563075
0.0221665
-0.0250228
-0.692929
0.695785
0.0286842
-0.0323439
-0.819093
0.822753
0.0365578
-0.0404697
-0.966336
0.970248
0.0447397
-0.0485203
-1.14254
1.14632
0.052415
-0.0556026
-1.35214
1.35533
0.0585172
-0.0604597
-1.60151
1.60345
0.0614734
-0.0616263
-1.5856
1.58575
0.0611558
-0.0602429
-1.31562
1.31471
0.0591588
-0.0578081
-1.09785
1.0965
0.0564593
-0.0550501
-0.921871
0.920462
0.0536298
-0.0515044
-0.774664
0.772538
0.0483425
-0.0430407
-0.625571
0.620269
0.0365782
-0.0284
-0.440156
0.431977
0.0208806
-0.0134147
-0.247477
0.240011
0.00785946
-0.00340224
-0.101288
0.0968312
0.000951071
-0.0144354
0.0134843
-0.0341536
0.0355247
-0.00137108
0.00852126
-0.0128719
-0.237539
0.24189
0.0175385
-0.0213409
-0.404857
0.40866
0.0249624
-0.0280675
-0.566432
0.569537
0.031487
-0.0349974
-0.699223
0.702734
0.0393507
-0.043604
-0.8264
0.830654
0.0484204
-0.0528315
-0.974074
0.978485
0.0575836
-0.0617211
-1.15001
1.15415
0.0658836
-0.0691679
-1.35837
1.36165
0.0719857
-0.0736327
-1.60513
1.60678
0.0741956
-0.0737759
-1.58555
1.58513
0.0727702
-0.0712336
-1.31333
1.31179
0.0696218
-0.0677251
-1.09471
1.09281
0.0659181
-0.0640387
-0.918674
0.916795
0.0619993
-0.0591511
-0.769808
0.766959
0.0550388
-0.0485042
-0.614896
0.608361
0.0408711
-0.0315074
-0.423656
0.414292
0.0230652
-0.014769
-0.232344
0.224048
0.00862718
-0.00371956
-0.0922438
0.0873362
0.00103434
-0.0125251
0.0114907
-0.0369365
0.038877
-0.00194048
0.0119402
-0.0179944
-0.246659
0.252713
0.0244463
-0.0296768
-0.413567
0.418798
0.0346218
-0.0387686
-0.574108
0.578255
0.0431835
-0.0475412
-0.706939
0.711296
0.0527819
-0.0577748
-0.834897
0.83989
0.0633298
-0.0683365
-0.982829
0.987836
0.0736286
-0.078117
-1.15818
1.16267
0.0824701
-0.0857261
-1.3647
1.36796
0.0882726
-0.0894441
-1.60803
1.6092
0.0893778
-0.0882122
-1.58425
1.58308
0.086513
-0.0842432
-1.30972
1.30745
0.082009
-0.0795019
-1.09036
1.08785
0.0771798
-0.0746821
-0.914389
0.911891
0.0720264
-0.0682467
-0.763407
0.759627
0.0629722
-0.0549503
-0.601747
0.593726
0.045909
-0.0351105
-0.40478
0.393981
0.0255453
-0.0162533
-0.215522
0.20623
0.00943429
-0.00403506
-0.082292
0.0768928
0.00111124
-0.0104535
0.00934221
-0.0408004
0.0436194
-0.00281894
0.016898
-0.0251954
-0.259128
0.267426
0.0338491
-0.0407896
-0.425717
0.432658
0.0473285
-0.0527393
-0.584301
0.589711
0.0583759
-0.0638023
-0.716453
0.72188
0.0701555
-0.0760323
-0.844865
0.850742
0.0824122
-0.0880137
-0.992769
0.998371
0.0937559
-0.0984438
-1.16696
1.17165
0.102771
-0.105779
-1.37085
1.37386
0.107805
-0.108269
-1.60986
1.61032
0.107348
-0.105213
-1.58133
1.5792
0.102653
-0.0995005
-1.30453
1.30138
0.096547
-0.0933594
-1.08461
1.08143
0.0904716
-0.0872455
-0.908668
0.905442
0.0838837
-0.078942
-0.755013
0.750071
0.0722406
-0.0624137
-0.585586
0.575759
0.0516715
-0.0391379
-0.38304
0.370506
0.0282243
-0.0177711
-0.196708
0.186255
0.0102053
-0.00430804
-0.071375
0.0654777
0.0011681
-0.00823948
0.00707138
-0.0463071
0.0506052
-0.00429814
0.0245788
-0.0359134
-0.276104
0.287439
0.0474042
-0.0566405
-0.442326
0.451563
0.065183
-0.0721283
-0.597603
0.604549
0.0793101
-0.0861916
-0.728163
0.735044
0.0937204
-0.100408
-0.856519
0.863207
0.107427
-0.113375
-1.00379
1.00974
0.119226
-0.123766
-1.17597
1.18051
0.127653
-0.130009
-1.3763
1.37866
0.131043
-0.130372
-1.61005
1.60938
0.128236
-0.124853
-1.57634
1.57296
0.121244
-0.117056
-1.29751
1.29332
0.113291
-0.109371
-1.07729
1.07337
0.105893
-0.101885
-0.901251
0.897243
0.0976581
-0.091251
-0.744118
0.737711
0.0827981
-0.0707799
-0.565722
0.553704
0.0580048
-0.0434235
-0.357862
0.34328
0.0309351
-0.0191766
-0.175643
0.163884
0.0108322
-0.00448278
-0.059527
0.0531776
0.00118597
-0.00593064
0.00474468
-0.054518
0.0618577
-0.00733967
0.0379525
-0.0537501
-0.299703
0.315501
0.0692484
-0.0816515
-0.465051
0.477454
0.0923419
-0.100673
-0.614515
0.622846
0.109413
-0.117586
-0.742475
0.750648
0.126045
-0.133102
-0.869582
0.87664
0.140142
-0.145819
-1.01521
1.02089
0.151114
-0.154893
-1.18436
1.18814
0.157716
-0.158857
-1.38014
1.38128
0.158376
-0.156135
-1.60772
1.60548
0.152433
-0.147518
-1.5687
1.56378
0.142633
-0.137203
-1.28829
1.28286
0.132436
-0.127612
-1.06829
1.06346
0.123456
-0.118653
-0.891986
0.887183
0.113241
-0.105
-0.730066
0.721826
0.0943671
-0.0796745
-0.541245
0.526552
0.0645118
-0.0476614
-0.328637
0.311787
0.033449
-0.0203293
-0.152189
0.139069
0.0112249
-0.00451351
-0.046937
0.0402256
0.0011391
-0.00360858
0.00246948
-0.0687043
0.0728004
-0.00409617
0.0289207
-0.0427156
-0.333852
0.347647
0.0565317
-0.0679438
-0.495284
0.506697
0.0780752
-0.0875144
-0.634693
0.644132
0.098014
-0.107672
-0.758221
0.767878
0.118321
-0.127662
-0.882684
0.892025
0.137497
-0.14613
-1.02563
1.03427
0.15501
-0.162432
-1.19081
1.19824
0.169533
-0.17482
-1.3812
1.38648
0.178931
-0.180734
-1.60195
1.60375
0.180179
-0.177814
-1.55773
1.55536
0.174441
-0.169965
-1.27651
1.27203
0.165808
-0.16091
-1.0573
1.0524
0.156688
-0.15147
-0.880477
0.87526
0.144525
-0.132843
-0.711896
0.700213
0.117379
-0.0967893
-0.511207
0.490617
0.0763779
-0.0543627
-0.294762
0.272747
0.0367257
-0.0213395
-0.126484
0.111097
0.0112228
-0.00425508
-0.0340423
0.0270746
0.000968101
-0.00136467
0.00039657
-0.0801131
0.0782025
0.00191063
0.00761276
-0.0164826
-0.364149
0.373018
0.0269342
-0.0351386
-0.522686
0.530891
0.0433042
-0.0511022
-0.656149
0.663947
0.0606643
-0.0695893
-0.777001
0.785926
0.079082
-0.0876661
-0.900757
0.909341
0.0966837
-0.104246
-1.0426
1.05016
0.112178
-0.118411
-1.20541
1.21164
0.12427
-0.128267
-1.39136
1.39536
0.130691
-0.130963
-1.60459
1.60486
0.128902
-0.125008
-1.55211
1.54821
0.120101
-0.114062
-1.2669
1.26086
0.108452
-0.102252
-1.04609
1.03989
0.0964963
-0.089836
-0.865691
0.859031
0.0826693
-0.0725554
-0.684684
0.674571
0.0610202
-0.0472185
-0.468524
0.454722
0.034831
-0.0230898
-0.250824
0.239082
0.0146515
-0.00804618
-0.0963819
0.0897766
0.00402343
-0.00144734
-0.0203326
0.0177565
0.00029023
0.000832218
-0.00112245
-0.0815338
0.0787022
0.00283152
-0.00114588
-0.00390357
-0.384671
0.38972
0.010803
-0.0167917
-0.542929
0.548918
0.0228464
-0.0295597
-0.674217
0.68093
0.0378461
-0.0455805
-0.793915
0.801649
0.0540218
-0.0614967
-0.917121
0.924596
0.0690983
-0.0758308
-1.05754
1.06427
0.0826731
-0.0881054
-1.21741
1.22285
0.0927172
-0.0955659
-1.39862
1.40147
0.0970273
-0.0962436
-1.60431
1.60353
0.0931974
-0.0883685
-1.54358
1.53875
0.082733
-0.0760847
-1.25449
1.24784
0.0694769
-0.062334
-1.03249
1.02535
0.0556473
-0.0481696
-0.849525
0.842047
0.0412605
-0.032759
-0.660999
0.652497
0.0243607
-0.0156516
-0.439145
0.430435
0.00943292
-0.004914
-0.226575
0.222056
0.00242343
-0.00100203
-0.0828859
0.0814645
0.000346466
-7.694e-05
-0.014831
0.0145615
-2.28725e-05
0.00172583
-0.00170296
-0.0803661
0.0776383
0.00272781
-0.00481691
0.00228696
-0.398304
0.400834
0.00217504
-0.0066875
-0.558002
0.562514
0.0118011
-0.0174414
-0.689076
0.694717
0.0245861
-0.0312436
-0.808715
0.815373
0.0384626
-0.0448758
-0.931516
0.937929
0.051775
-0.057474
-1.07056
1.07626
0.0634251
-0.0676821
-1.22785
1.2321
0.0715354
-0.0737598
-1.40405
1.40628
0.0744463
-0.0728517
-1.60229
1.6007
0.0694459
-0.0642787
-1.53334
1.52818
0.0583248
-0.0509433
-1.24082
1.23343
0.0439523
-0.0363281
-1.0172
1.00957
0.0291246
-0.0216314
-0.832288
0.824795
0.0148009
-0.00775631
-0.640938
0.633893
0.00184601
0.00269756
-0.420302
0.415759
-0.00469362
0.00501403
-0.215421
0.2151
-0.00441398
0.00308687
-0.0790756
0.0804027
-0.00196493
0.000887184
-0.0137251
0.0148029
-0.000274332
0.00204018
-0.00176585
-0.078955
0.0765646
0.00239037
-0.00595461
0.00496752
-0.407501
0.408488
-0.00159796
-0.00177996
-0.570107
0.573484
0.00588957
-0.0110263
-0.701593
0.70673
0.0170679
-0.0229476
-0.821304
0.827184
0.0292242
-0.0348173
-0.943888
0.949482
0.0407537
-0.0458387
-1.08182
1.08691
0.0508729
-0.0547836
-1.23621
1.24012
0.0580397
-0.0598019
-1.40813
1.40989
0.060048
-0.0580811
-1.5989
1.59693
0.0543326
-0.0486658
-1.52222
1.51656
0.0425173
-0.0351656
-1.22589
1.21854
0.0281762
-0.0204272
-1.0013
0.993548
0.01336
-0.00588009
-0.815482
0.808002
-0.000419976
0.00611665
-0.624129
0.618433
-0.0101757
0.0123562
-0.408585
0.406404
-0.0123062
0.0105713
-0.212129
0.213864
-0.00837798
0.00572223
-0.0807989
0.0834546
-0.00352253
0.00154237
-0.0154493
0.0174294
-0.000442491
0.00175892
-0.00131643
-0.0776792
0.0756524
0.00202685
-0.00583972
0.00531377
-0.413903
0.414429
-0.00327237
0.000495682
-0.579516
0.582292
0.00355058
-0.00798177
-0.712252
0.716683
0.0132113
-0.0183371
-0.832248
0.837374
0.0239371
-0.0289637
-0.954725
0.959752
0.0344329
-0.0389221
-1.09172
1.09621
0.0434879
-0.0470362
-1.24375
1.2473
0.0499087
-0.0513794
-1.41139
1.41286
0.0513316
-0.0495415
-1.59483
1.59304
0.0456952
-0.0402698
-1.51044
1.50501
0.0343277
-0.0272971
-1.21107
1.20404
0.0208532
-0.0133004
-0.985539
0.977986
0.00641484
0.000751703
-0.799341
0.792174
-0.00670885
0.0117078
-0.610005
0.605006
-0.0148622
0.0162896
-0.401153
0.399726
-0.0153231
0.0127459
-0.212849
0.215426
-0.0100682
0.00689271
-0.0851991
0.0883746
-0.00422297
0.00187924
-0.0189566
0.0213003
-0.000543334
0.00103208
-0.000488749
-0.0767566
0.0751948
0.00156185
-0.00494467
0.00472321
-0.418763
0.418985
-0.00300465
0.00088786
-0.587799
0.589916
0.00291843
-0.00697211
-0.721546
0.7256
0.0119619
-0.0163986
-0.842092
0.846529
0.0213426
-0.0258309
-0.964749
0.969237
0.0310662
-0.0351887
-1.10074
1.10486
0.0393055
-0.0427214
-1.25069
1.2541
0.0458055
-0.0471746
-1.41435
1.41572
0.0472432
-0.045508
-1.59089
1.58915
0.04227
-0.0370755
-1.49952
1.49432
0.0317885
-0.0254288
-1.19702
1.19066
0.0192445
-0.0122188
-0.970365
0.96334
0.00557311
0.00142645
-0.783964
0.776965
-0.00679134
0.011542
-0.597234
0.592483
-0.0143864
0.0155739
-0.395477
0.39429
-0.0149176
0.0126918
-0.215065
0.217291
-0.0101003
0.00694965
-0.0905579
0.0937085
-0.00428855
0.0019422
-0.0230446
0.025391
-0.000575511
0.000124815
0.000450696
-0.0763492
0.0751464
0.0012028
-0.00383474
0.00371913
-0.422716
0.422831
-0.00209301
8.13802e-05
-0.595056
0.597068
0.0035277
-0.00719688
-0.729937
0.733606
0.0114982
-0.0157888
-0.850912
0.855202
0.0203867
-0.0250528
-0.973536
0.978202
0.0296079
-0.0335969
-1.1091
1.11309
0.037906
-0.0411521
-1.25742
1.26066
0.0438334
-0.0456797
-1.41701
1.41886
0.0460409
-0.0447714
-1.58756
1.58629
0.0418995
-0.0374657
-1.48946
1.48502
0.0325978
-0.0265841
-1.18405
1.17804
0.0207781
-0.0141204
-0.956084
0.949426
0.00798016
-0.00174649
-0.769537
0.763303
-0.00349319
0.00796133
-0.585511
0.581043
-0.010581
0.0120999
-0.390359
0.38884
-0.0120332
0.0103905
-0.216919
0.218561
-0.00839343
0.00584188
-0.0954267
0.0979783
-0.00365786
0.00168606
-0.0269272
0.028899
-0.000515098
-0.000795797
0.0013109
-0.0764934
0.0754931
0.00100033
-0.00252796
0.00215026
-0.426328
0.426706
-0.000692897
-0.00135313
-0.601764
0.60381
0.00467298
-0.00823693
-0.73777
0.741334
0.0123829
-0.016293
-0.859295
0.863205
0.0210397
-0.02495
-0.982296
0.986206
0.0295236
-0.0333925
-1.11726
1.12113
0.0376438
-0.0411296
-1.2639
1.26739
0.0441654
-0.0458773
-1.4205
1.42221
0.0466999
-0.0459387
-1.58501
1.58425
0.0437654
-0.0396166
-1.48049
1.47635
0.035105
-0.0294324
-1.17211
1.16644
0.0240714
-0.0179669
-0.942577
0.936472
0.0125826
-0.00685354
-0.75658
0.750851
0.00193005
0.00267596
-0.574732
0.570126
-0.00570207
0.00728643
-0.384806
0.383221
-0.00775738
0.00694879
-0.217726
0.218535
-0.00574988
0.00406523
-0.0990085
0.100693
-0.002592
0.0012454
-0.0299427
0.0312893
-0.000397762
-0.0015671
0.00196486
-0.0769384
0.0762465
0.00069186
-0.00137196
0.000518222
-0.430062
0.430916
0.000751337
-0.00294987
-0.607748
0.609946
0.00598919
-0.00945142
-0.745101
0.748564
0.0134413
-0.0174982
-0.866988
0.871045
0.021659
-0.0257671
-0.990337
0.994445
0.0303458
-0.0340472
-1.12544
1.12914
0.0384387
-0.0419273
-1.27069
1.27418
0.045075
-0.0473849
-1.42435
1.42666
0.048784
-0.0483527
-1.58355
1.58312
0.0463882
-0.0428814
-1.47233
1.46883
0.0388988
-0.0337136
-1.16069
1.15551
0.0288623
-0.0237073
-0.930453
0.925298
0.0186024
-0.0134603
-0.744675
0.739533
0.00864917
-0.0037414
-0.564204
0.559296
0.000399478
0.00185646
-0.378772
0.376516
-0.00279766
0.00292897
-0.217231
0.2171
-0.00255242
0.00187431
-0.100844
0.101522
-0.00126961
0.000657602
-0.0317188
0.0323308
-0.000232041
-0.00209752
0.00232956
-0.0777903
0.0772626
0.00052772
-0.000400219
-0.000400063
-0.434061
0.434861
0.00224082
-0.00430784
-0.613847
0.615914
0.00755929
-0.0109196
-0.751964
0.755325
0.0147721
-0.0184509
-0.874787
0.878465
0.0227671
-0.0265934
-0.998563
1.00239
0.0311546
-0.035324
-1.1333
1.13747
0.0393914
-0.0432411
-1.27773
1.28158
0.0468631
-0.0493255
-1.42889
1.43135
0.051153
-0.0515037
-1.5829
1.58325
0.0499878
-0.0471459
-1.46519
1.46235
0.0435342
-0.0391202
-1.15052
1.14611
0.0350339
-0.0303721
-0.919914
0.915252
0.0257734
-0.0206427
-0.733625
0.728494
0.0157033
-0.0104296
-0.553186
0.547912
0.00654683
-0.00370139
-0.371922
0.369077
0.00191701
-0.000871814
-0.214967
0.213922
0.000302148
2.2281e-05
-0.100704
0.10038
-0.00018329
0.0002033
-0.0321204
0.0321004
-0.000114567
-0.00231168
0.00242624
-0.0789228
0.0785728
0.000350023
0.000653266
-0.00165056
-0.438216
0.439213
0.00337547
-0.00575784
-0.619586
0.621969
0.00897971
-0.0122088
-0.758622
0.761851
0.0161563
-0.0197073
-0.882136
0.885687
0.0238922
-0.0278622
-1.0067
1.01067
0.0323561
-0.0365097
-1.1415
1.14566
0.0408205
-0.0447298
-1.28536
1.28927
0.0485815
-0.0518354
-1.43412
1.43737
0.0541419
-0.0548232
-1.58355
1.58423
0.0540601
-0.0517289
-1.45948
1.45715
0.04894
-0.0453923
-1.14184
1.13829
0.0416051
-0.0372422
-0.910384
0.906022
0.032678
-0.0272031
-0.722615
0.71714
0.0220891
-0.0164726
-0.541837
0.536221
0.0122601
-0.00867837
-0.364125
0.360543
0.00626463
-0.00431028
-0.21095
0.208996
0.00277188
-0.00150888
-0.0987123
0.0974493
0.000674966
-0.000135389
-0.031285
0.0307454
-4.03189e-05
-0.0022367
0.00227701
-0.0802812