/*--------------------------------*- C++ -*----------------------------------*\
  =========                 |
  \\      /  F ield         | OpenFOAM: The Open Source CFD Toolbox
   \\    /   O peration     | Website:  https://openfoam.org
    \\  /    A nd           | Version:  6
     \\/     M anipulation  |
\*---------------------------------------------------------------------------*/
FoamFile
{
    version     2.0;
    format      ascii;
    class       volVectorField;
    location    "21";
    object      U;
}
// * * * * * * * * * * * * * * * * * * * * * * * * * * * * * * * * * * * * * //

dimensions      [0 1 -1 0 0 0 0];

internalField   nonuniform List<vector> 
8800
(
(0.987199 -0.0767025 0)
(1.0019 -0.0551702 0)
(0.999756 -0.0285405 0)
(1.00005 -0.0151417 0)
(1.00006 -0.00854053 0)
(1.00004 -0.00502848 0)
(1.00002 -0.00297137 0)
(1.00002 -0.00167799 0)
(1.00002 -0.000810644 0)
(1.00004 -0.000132623 0)
(1.00001 0.000553951 0)
(1.00002 0.00129982 0)
(1.00002 0.00233395 0)
(1.00003 0.00394889 0)
(1.00006 0.00660216 0)
(1.00007 0.0113462 0)
(0.99998 0.0207878 0)
(0.999176 0.0386346 0)
(1.00709 0.0724478 0)
(0.77123 0.0366871 0)
(0.363067 -0.0160118 0)
(1.04333 -0.0768091 0)
(1.08464 -0.0704156 0)
(1.04527 -0.0535119 0)
(1.02329 -0.0388442 0)
(1.01188 -0.0261525 0)
(1.00628 -0.0168228 0)
(1.00351 -0.0103651 0)
(1.00207 -0.00579561 0)
(1.00138 -0.00221237 0)
(1.00125 0.00108187 0)
(1.00164 0.00443921 0)
(1.00264 0.00835762 0)
(1.00462 0.0136738 0)
(1.00855 0.0213851 0)
(1.0166 0.0323906 0)
(1.03263 0.0463477 0)
(1.06279 0.0615078 0)
(1.09194 0.0759694 0)
(0.838836 0.0565321 0)
(0.21688 -0.00241513 0)
(1.07592 -0.0501044 0)
(1.0999 -0.0482871 0)
(1.0646 -0.0404647 0)
(1.0399 -0.0336308 0)
(1.02368 -0.026093 0)
(1.0138 -0.0185237 0)
(1.00829 -0.0117828 0)
(1.00547 -0.00599331 0)
(1.00432 -0.000758371 0)
(1.00467 0.00429352 0)
(1.0065 0.00965859 0)
(1.01044 0.0157947 0)
(1.01784 0.0228818 0)
(1.03058 0.0304529 0)
(1.05075 0.037527 0)
(1.08055 0.0442356 0)
(1.10652 0.0510948 0)
(0.943002 0.0414805 0)
(0.216497 0.00243235 0)
(0.175307 -0.000802688 0)
(1.01788 -0.0353805 0)
(1.10525 -0.0412144 0)
(1.07819 -0.0358276 0)
(1.05324 -0.0298536 0)
(1.03589 -0.0243432 0)
(1.02373 -0.0187805 0)
(1.01568 -0.0129294 0)
(1.01093 -0.00693737 0)
(1.00885 -0.00077191 0)
(1.00945 0.00535732 0)
(1.01271 0.0112779 0)
(1.01889 0.0170385 0)
(1.02882 0.0225756 0)
(1.04334 0.027857 0)
(1.06397 0.0334162 0)
(1.09394 0.0395546 0)
(1.09406 0.0414937 0)
(0.828442 0.0226923 0)
(0.174668 0.000822133 0)
(0.154254 -0.000593858 0)
(0.956686 -0.0252275 0)
(1.10356 -0.0348213 0)
(1.08765 -0.0323891 0)
(1.06144 -0.0277839 0)
(1.04362 -0.0227966 0)
(1.03117 -0.0176796 0)
(1.02241 -0.0123982 0)
(1.0167 -0.00673299 0)
(1.01402 -0.000532002 0)
(1.01475 0.0056728 0)
(1.01874 0.0114216 0)
(1.02581 0.0166506 0)
(1.03614 0.021584 0)
(1.05089 0.0264245 0)
(1.0724 0.0310496 0)
(1.10081 0.035042 0)
(1.06941 0.033275 0)
(0.742107 0.0139728 0)
(0.153299 0.000615719 0)
(0.140131 -0.00044583 0)
(0.900551 -0.0186701 0)
(1.09591 -0.029443 0)
(1.09536 -0.0285188 0)
(1.06874 -0.0249125 0)
(1.05025 -0.0209456 0)
(1.03734 -0.0164061 0)
(1.02828 -0.0114143 0)
(1.02227 -0.00609129 0)
(1.01926 -0.000165017 0)
(1.02002 0.00582366 0)
(1.02425 0.0111808 0)
(1.03147 0.0160335 0)
(1.04213 0.0204996 0)
(1.05742 0.0244645 0)
(1.0797 0.027923 0)
(1.10322 0.0306604 0)
(1.03855 0.0269654 0)
(0.677508 0.00971974 0)
(0.138793 0.000471139 0)
(0.129983 -0.000331773 0)
(0.852449 -0.0140525 0)
(1.08405 -0.0248749 0)
(1.10104 -0.0250229 0)
(1.07524 -0.0217959 0)
(1.05601 -0.0184531 0)
(1.04257 -0.0146987 0)
(1.03307 -0.0103011 0)
(1.02679 -0.00527912 0)
(1.02366 0.000317836 0)
(1.02433 0.00593449 0)
(1.02858 0.010963 0)
(1.03605 0.0152981 0)
(1.04714 0.0189547 0)
(1.06298 0.0220887 0)
(1.08601 0.0250377 0)
(1.1031 0.0270443 0)
(1.00583 0.0219169 0)
(0.628591 0.00715421 0)
(0.128181 0.000361614 0)
(0.122505 -0.000242039 0)
(0.812669 -0.0104577 0)
(1.06944 -0.0205663 0)
(1.10423 -0.0217622 0)
(1.08086 -0.0191526 0)
(1.06096 -0.0160921 0)
(1.04707 -0.0126991 0)
(1.03736 -0.00879949 0)
(1.03092 -0.00425961 0)
(1.02768 0.00089188 0)
(1.02822 0.0060156 0)
(1.0324 0.0105053 0)
(1.03992 0.014217 0)
(1.05121 0.0173372 0)
(1.06758 0.0200675 0)
(1.09113 0.0226232 0)
(1.10007 0.023648 0)
(0.973792 0.0175617 0)
(0.591061 0.0053145 0)
(0.120141 0.000277996 0)
(0.117185 -0.000166468 0)
(0.781308 -0.00752295 0)
(1.05413 -0.0162542 0)
(1.10604 -0.0180145 0)
(1.08589 -0.0160018 0)
(1.06598 -0.0133643 0)
(1.05212 -0.0103556 0)
(1.04221 -0.00696486 0)
(1.03537 -0.00305352 0)
(1.03177 0.00159157 0)
(1.03226 0.00627285 0)
(1.03662 0.0100417 0)
(1.04426 0.0130633 0)
(1.05548 0.0156208 0)
(1.07173 0.0178242 0)
(1.09483 0.0197628 0)
(1.09475 0.0200106 0)
(0.944633 0.0136983 0)
(0.562701 0.00390554 0)
(0.114132 0.000210709 0)
(0.113475 -0.000108934 0)
(0.757536 -0.00508382 0)
(1.03954 -0.0122563 0)
(1.10683 -0.0143754 0)
(1.09003 -0.0127819 0)
(1.06975 -0.0105964 0)
(1.05553 -0.00813104 0)
(1.04565 -0.00512813 0)
(1.03908 -0.00158103 0)
(1.0356 0.00247324 0)
(1.03573 0.0064022 0)
(1.03955 0.00961096 0)
(1.04679 0.0121034 0)
(1.05801 0.0139571 0)
(1.07463 0.0155074 0)
(1.0971 0.0169478 0)
(1.08788 0.0165537 0)
(0.919363 0.0103886 0)
(0.541538 0.0027908 0)
(0.109576 0.000163556 0)
(0.111355 -3.73584e-05 0)
(0.7411 -0.00270403 0)
(1.0265 -0.00805873 0)
(1.10648 -0.0104445 0)
(1.09329 -0.00958191 0)
(1.07283 -0.00789701 0)
(1.05845 -0.00587633 0)
(1.04837 -0.00333165 0)
(1.04146 -0.000190296 0)
(1.03766 0.00348412 0)
(1.0376 0.0069562 0)
(1.04138 0.00961429 0)
(1.04857 0.0114363 0)
(1.05976 0.0127321 0)
(1.07653 0.0136524 0)
(1.09778 0.0141883 0)
(1.0798 0.012893 0)
(0.89846 0.00713141 0)
(0.526964 0.0017408 0)
(0.106415 0.000104851 0)
(0.11076 1.84982e-05 0)
(0.731345 -0.00100022 0)
(1.01555 -0.00456858 0)
(1.10477 -0.00705568 0)
(1.09541 -0.00691018 0)
(1.07568 -0.00571916 0)
(1.06171 -0.0039781 0)
(1.05194 -0.00154583 0)
(1.04521 0.00137429 0)
(1.04126 0.00471929 0)
(1.04086 0.00780435 0)
(1.04405 0.00994311 0)
(1.05062 0.0114008 0)
(1.0611 0.0121264 0)
(1.07714 0.0123703 0)
(1.09635 0.0120265 0)
(1.07063 0.00989121 0)
(0.882056 0.00477858 0)
(0.517708 0.001102 0)
(0.10453 6.36794e-05 0)
(0.111107 4.95538e-05 0)
(0.726398 -0.000132525 0)
(1.00744 -0.00220795 0)
(1.10241 -0.00414403 0)
(1.09662 -0.00407957 0)
(1.07755 -0.00310591 0)
(1.0638 -0.00169864 0)
(1.05407 0.000412959 0)
(1.04719 0.00310763 0)
(1.04304 0.00621495 0)
(1.04215 0.00899355 0)
(1.04485 0.0106392 0)
(1.05102 0.0113187 0)
(1.06107 0.0113115 0)
(1.07672 0.0110889 0)
(1.09368 0.0104326 0)
(1.06142 0.00800607 0)
(0.869495 0.00376844 0)
(0.511137 0.000937439 0)
(0.103264 5.46576e-05 0)
(0.111879 6.08886e-05 0)
(0.724037 0.000240082 0)
(1.00246 -0.00100069 0)
(1.10099 -0.00213732 0)
(1.09786 -0.00173177 0)
(1.07965 -0.000663007 0)
(1.06623 0.000808842 0)
(1.0568 0.00283875 0)
(1.04998 0.00532195 0)
(1.04555 0.00805446 0)
(1.04402 0.0102908 0)
(1.046 0.0114122 0)
(1.05129 0.0117519 0)
(1.06053 0.0114938 0)
(1.07563 0.0108503 0)
(1.09065 0.00982561 0)
(1.05319 0.00750781 0)
(0.859071 0.00377039 0)
(0.505044 0.00103078 0)
(0.102025 6.69084e-05 0)
(0.112874 7.29505e-05 0)
(0.722826 0.000532412 0)
(0.999135 -0.000477808 0)
(1.10063 -0.00130358 0)
(1.09986 -0.000549772 0)
(1.0819 0.000768222 0)
(1.06853 0.00252025 0)
(1.05914 0.00480664 0)
(1.05223 0.00752472 0)
(1.04737 0.0102961 0)
(1.04516 0.0123707 0)
(1.04634 0.0132665 0)
(1.05103 0.0131907 0)
(1.05965 0.0126081 0)
(1.07401 0.0119224 0)
(1.08753 0.0108237 0)
(1.04535 0.00830745 0)
(0.848608 0.00420755 0)
(0.498396 0.00120085 0)
(0.100516 8.86692e-05 0)
(0.11409 8.9343e-05 0)
(0.722669 0.00104342 0)
(0.995803 0.000233178 0)
(1.10015 -0.00108325 0)
(1.10204 -0.000684268 0)
(1.08481 0.000692301 0)
(1.07152 0.00299003 0)
(1.06212 0.00602796 0)
(1.05497 0.00947953 0)
(1.04945 0.0129603 0)
(1.04644 0.0155468 0)
(1.04672 0.0167475 0)
(1.05041 0.0168652 0)
(1.05849 0.0163487 0)
(1.07221 0.0151092 0)
(1.08352 0.0134233 0)
(1.03556 0.00949767 0)
(0.836963 0.00453693 0)
(0.491155 0.00134859 0)
(0.0986676 0.00010998 0)
(0.115748 0.000116527 0)
(0.724109 0.00170305 0)
(0.992425 0.00159323 0)
(1.098 -0.0003075 0)
(1.10337 -0.000476628 0)
(1.08805 0.000550896 0)
(1.07534 0.00327327 0)
(1.06607 0.00724536 0)
(1.05855 0.0117527 0)
(1.05223 0.0162842 0)
(1.04822 0.0197118 0)
(1.04748 0.0214896 0)
(1.05018 0.0219278 0)
(1.05677 0.0212004 0)
(1.06919 0.0195392 0)
(1.07619 0.0160647 0)
(1.02239 0.0102355 0)
(0.824569 0.00472021 0)
(0.483525 0.00150613 0)
(0.0964985 0.000131882 0)
(0.118088 0.000154953 0)
(0.728183 0.00254593 0)
(0.99062 0.00368857 0)
(1.09408 0.00212766 0)
(1.10398 0.00107045 0)
(1.0913 0.00208329 0)
(1.08006 0.00537958 0)
(1.07101 0.0100888 0)
(1.06292 0.0153772 0)
(1.05558 0.0205719 0)
(1.05034 0.0243615 0)
(1.04841 0.0261136 0)
(1.0497 0.0262318 0)
(1.05451 0.0250608 0)
(1.06369 0.0222776 0)
(1.06502 0.0171134 0)
(1.00733 0.0104021 0)
(0.812343 0.00498448 0)
(0.475427 0.00171478 0)
(0.0940071 0.000154948 0)
(0.121312 0.000211088 0)
(0.735855 0.00367135 0)
(0.992264 0.00603213 0)
(1.09127 0.00597238 0)
(1.10394 0.00526797 0)
(1.09497 0.00664442 0)
(1.08552 0.0103807 0)
(1.07658 0.0154243 0)
(1.06775 0.0209442 0)
(1.0591 0.026087 0)
(1.05225 0.0293883 0)
(1.04877 0.0302931 0)
(1.04833 0.0293718 0)
(1.05094 0.0271826 0)
(1.05569 0.0231344 0)
(1.05207 0.0172352 0)
(0.99271 0.0106762 0)
(0.80044 0.00555601 0)
(0.466419 0.00201407 0)
(0.09111 0.000183044 0)
(0.125678 0.000283196 0)
(0.747242 0.00489358 0)
(0.997931 0.00866105 0)
(1.09206 0.0104094 0)
(1.10529 0.0113573 0)
(1.09932 0.0137932 0)
(1.0912 0.0179249 0)
(1.08227 0.0230927 0)
(1.07247 0.0284671 0)
(1.06213 0.0330107 0)
(1.05332 0.0351921 0)
(1.04786 0.034705 0)
(1.04546 0.0322649 0)
(1.04542 0.0285846 0)
(1.04652 0.0236694 0)
(1.03946 0.0177651 0)
(0.979296 0.0116968 0)
(0.78805 0.0065564 0)
(0.455845 0.0024391 0)
(0.0876694 0.000220961 0)
(0.131427 0.000381771 0)
(0.762638 0.00649219 0)
(1.0081 0.0117685 0)
(1.0973 0.0153263 0)
(1.10978 0.018059 0)
(1.10499 0.0220237 0)
(1.09734 0.0270539 0)
(1.08793 0.0325885 0)
(1.07677 0.0378332 0)
(1.06431 0.0415736 0)
(1.05308 0.0422708 0)
(1.04535 0.0400028 0)
(1.04074 0.0360201 0)
(1.03834 0.0309473 0)
(1.03685 0.0254034 0)
(1.0276 0.0195445 0)
(0.966325 0.0136288 0)
(0.774048 0.00796349 0)
(0.44301 0.00299924 0)
(0.0834961 0.00026955 0)
(0.139049 0.000522308 0)
(0.782738 0.00869994 0)
(1.02302 0.0157035 0)
(1.10679 0.0209169 0)
(1.11775 0.025556 0)
(1.11268 0.0312736 0)
(1.10447 0.0376145 0)
(1.0938 0.0439041 0)
(1.08066 0.0492081 0)
(1.06548 0.0521374 0)
(1.05136 0.0512626 0)
(1.04113 0.0471978 0)
(1.03432 0.0415172 0)
(1.02988 0.035206 0)
(1.02654 0.0289208 0)
(1.01573 0.0227694 0)
(0.95251 0.0164655 0)
(0.757349 0.00983714 0)
(0.427295 0.00369837 0)
(0.0784395 0.000329211 0)
(0.149326 0.000732421 0)
(0.80876 0.0118445 0)
(1.04295 0.020903 0)
(1.12064 0.0278774 0)
(1.12938 0.0346049 0)
(1.12299 0.0423371 0)
(1.11313 0.0502915 0)
(1.10022 0.0575695 0)
(1.08423 0.0630309 0)
(1.06565 0.0651222 0)
(1.04817 0.0625781 0)
(1.03519 0.0566357 0)
(1.02613 0.0492209 0)
(1.01987 0.0415442 0)
(1.01507 0.0342672 0)
(1.00281 0.027393 0)
(0.936632 0.0201877 0)
(0.737335 0.0121482 0)
(0.408284 0.00448462 0)
(0.0723784 0.000386798 0)
(0.1635 0.00107834 0)
(0.842741 0.0166381 0)
(1.06922 0.0283169 0)
(1.13941 0.0373427 0)
(1.14505 0.0465514 0)
(1.1362 0.0565312 0)
(1.12347 0.0662341 0)
(1.10717 0.0744835 0)
(1.08737 0.0799609 0)
(1.06468 0.0809763 0)
(1.04342 0.0765099 0)
(1.02744 0.0685044 0)
(1.01608 0.059233 0)
(1.00804 0.0499879 0)
(1.00184 0.0414296 0)
(0.987918 0.0334485 0)
(0.917616 0.0248985 0)
(0.712954 0.0149924 0)
(0.385264 0.00546796 0)
(0.0651875 0.000459656 0)
(0.183779 0.00169811 0)
(0.88795 0.0242569 0)
(1.10376 0.0394996 0)
(1.16399 0.0509653 0)
(1.16517 0.0633878 0)
(1.15231 0.0757557 0)
(1.13524 0.0870118 0)
(1.1143 0.095822 0)
(1.08974 0.100764 0)
(1.06228 0.10014 0)
(1.03686 0.0933094 0)
(1.01772 0.0829629 0)
(1.00397 0.0716437 0)
(0.994071 0.0606241 0)
(0.986337 0.0505407 0)
(0.970241 0.0411471 0)
(0.894387 0.0307969 0)
(0.683121 0.0185426 0)
(0.357583 0.0066561 0)
(0.0567613 0.000535301 0)
(0.213509 0.00308761 0)
(0.950099 0.0375929 0)
(1.14883 0.0582073 0)
(1.19562 0.0725731 0)
(1.18965 0.0883327 0)
(1.17074 0.102557 0)
(1.14772 0.114433 0)
(1.12093 0.122733 0)
(1.09078 0.126104 0)
(1.05805 0.122959 0)
(1.02824 0.113161 0)
(1.00582 0.100141 0)
(0.989596 0.0865856 0)
(0.977711 0.073646 0)
(0.96816 0.0618814 0)
(0.949199 0.0508927 0)
(0.865824 0.0382478 0)
(0.646726 0.0229761 0)
(0.325334 0.00815605 0)
(0.0473901 0.000606572 0)
(0.254688 0.00957535 -1.0145e-20)
(1.03291 0.06489 -7.63413e-21)
(1.20233 0.0908414 1.993e-21)
(1.23207 0.108256 0)
(1.21591 0.125365 -1.30107e-35)
(1.18942 0.139399 3.4831e-22)
(1.15935 0.150126 -1.58783e-21)
(1.12596 0.156531 0)
(1.08968 0.157335 5.38223e-35)
(1.05118 0.150998 -3.97632e-21)
(1.0165 0.137894 0)
(0.990346 0.122099 -5.599e-21)
(0.971164 0.106309 -1.70725e-20)
(0.956781 0.0915609 -8.24317e-21)
(0.944751 0.0783478 -2.58524e-21)
(0.921971 0.066105 -1.56231e-21)
(0.829001 0.0508206 0)
(0.60046 0.0309797 1.11649e-21)
(0.287568 0.0122384 1.32292e-21)
(0.0386796 0.00144198 2.34711e-20)
(0.281253 0.0255719 -2.10299e-20)
(1.1008 0.108807 5.08262e-22)
(1.24764 0.138668 -1.1326e-21)
(1.26476 0.157414 0)
(1.23937 0.172975 1.22302e-21)
(1.20558 0.185242 1.80212e-22)
(1.16853 0.194068 -1.15581e-21)
(1.12838 0.198353 -7.30387e-21)
(1.0855 0.196673 0)
(1.04045 0.187427 1.69027e-20)
(0.999726 0.171367 1.84954e-20)
(0.968527 0.153173 5.90817e-21)
(0.945101 0.135517 2.31568e-20)
(0.926979 0.119169 3.39436e-20)
(0.911043 0.104594 0)
(0.882209 0.0907138 5.02143e-20)
(0.782796 0.0726036 7.31163e-20)
(0.553186 0.0474531 8.1523e-20)
(0.259299 0.0218769 -9.40477e-20)
(0.0336431 0.00286749 -1.74221e-21)
(0.2794 0.0420897 0)
(1.14145 0.165585 -6.76517e-21)
(1.28048 0.198264 0)
(1.29012 0.216546 1.0218e-20)
(1.25778 0.228511 0)
(1.21761 0.237378 3.84659e-21)
(1.17427 0.242965 1.61021e-21)
(1.1279 0.244075 -1.15259e-20)
(1.07883 0.239231 -1.56961e-21)
(1.02762 0.226721 8.27109e-21)
(0.981378 0.207744 4.29956e-20)
(0.945622 0.187443 -2.99727e-22)
(0.918403 0.168466 -1.73772e-20)
(0.896981 0.151346 -3.35668e-20)
(0.878086 0.136167 4.06221e-20)
(0.847311 0.121632 -7.29631e-20)
(0.753294 0.100873 -9.94945e-21)
(0.539664 0.0708841 0)
(0.266549 0.035535 8.25642e-23)
(0.038663 0.00542608 0)
(0.270972 0.0559996 -1.71499e-19)
(1.16128 0.225683 7.06152e-20)
(1.30158 0.263207 3.74794e-20)
(1.30675 0.280337 -6.91116e-21)
(1.26962 0.28839 1.04723e-20)
(1.22462 0.293314 -9.85841e-21)
(1.17617 0.29508 2.54243e-21)
(1.12457 0.292442 0)
(1.07013 0.283968 -3.35581e-20)
(1.01339 0.267921 0)
(0.962281 0.245994 -2.20438e-20)
(0.922704 0.223755 -3.06472e-20)
(0.892419 0.203659 -1.94855e-20)
(0.868532 0.186061 -2.50188e-20)
(0.847756 0.170668 0)
(0.81714 0.155623 0)
(0.732872 0.133277 -6.69699e-20)
(0.539925 0.0982667 1.33604e-20)
(0.281054 0.0522258 -7.78021e-21)
(0.0451429 0.0088439 -9.08904e-21)
(0.262442 0.0684769 1.28389e-19)
(1.16797 0.285428 0)
(1.31345 0.32959 -1.06259e-19)
(1.31571 0.345328 -2.65315e-20)
(1.2752 0.349705 -1.92367e-20)
(1.22664 0.350712 0)
(1.17424 0.348593 -9.21294e-22)
(1.11836 0.342128 1.08835e-20)
(1.05942 0.329868 1.50764e-20)
(0.998053 0.310127 4.17072e-20)
(0.942837 0.285128 0)
(0.900215 0.260909 -6.6865e-20)
(0.86768 0.239711 -4.25904e-20)
(0.842101 0.221595 -2.56452e-20)
(0.820303 0.206161 1.67324e-19)
(0.790785 0.191004 2.0516e-20)
(0.714545 0.168053 9.78581e-20)
(0.539875 0.127207 -4.70903e-19)
(0.290984 0.0702219 2.80047e-19)
(0.0500345 0.0124468 -3.37825e-19)
(0.25492 0.0796761 1.36756e-19)
(1.16666 0.342995 -2.52647e-20)
(1.31821 0.395053 1.89291e-20)
(1.31861 0.40965 5.07158e-20)
(1.27558 0.410679 3.02725e-20)
(1.22432 0.407999 1.68041e-21)
(1.16884 0.402148 4.38473e-22)
(1.10949 0.391964 8.9528e-21)
(1.0468 0.375966 -3.30695e-20)
(0.98156 0.35249 0)
(0.922938 0.324312 -2.88495e-20)
(0.877971 0.297903 -1.53121e-21)
(0.843875 0.275418 -4.76344e-20)
(0.817296 0.256631 0)
(0.795072 0.240951 -3.6531e-20)
(0.766975 0.225637 -8.88091e-20)
(0.697498 0.201612 2.44932e-19)
(0.535282 0.155074 -2.43299e-19)
(0.29351 0.0865557 3.45041e-19)
(0.0521578 0.0156205 -3.59872e-19)
(0.248921 0.0901259 -5.24018e-22)
(1.16056 0.397767 3.12352e-20)
(1.31773 0.458371 9.12047e-20)
(1.31687 0.47232 -3.14319e-20)
(1.27198 0.470313 1.74365e-20)
(1.21861 0.464225 0)
(1.16062 0.454898 6.483e-21)
(1.09837 0.441179 -7.71513e-21)
(1.0325 0.421551 -1.54547e-20)
(0.963874 0.394365 0)
(0.902423 0.36287 -2.83714e-20)
(0.855529 0.334035 -3.94238e-20)
(0.820307 0.30994 5.21255e-20)
(0.793202 0.29012 -3.32426e-20)
(0.77105 0.273765 -1.60991e-19)
(0.744459 0.257897 9.88268e-20)
(0.680082 0.232188 3.10521e-20)
(0.525955 0.17946 0)
(0.290461 0.100101 -3.35554e-19)
(0.0520228 0.0180844 -1.23446e-20)
(0.24435 0.100108 2.26498e-20)
(1.15171 0.44959 -3.61169e-20)
(1.31346 0.519025 -5.00135e-20)
(1.31163 0.532663 -9.6582e-20)
(1.2653 0.52798 8.57934e-20)
(1.21025 0.518837 -4.35869e-20)
(1.15019 0.506315 -1.35769e-20)
(1.08549 0.489282 -1.15862e-20)
(1.01684 0.466198 1.43151e-20)
(0.945182 0.43536 -1.02262e-19)
(0.881098 0.400461 -3.4651e-20)
(0.832591 0.368949 0)
(0.796651 0.342827 5.70152e-20)
(0.769406 0.321566 7.03488e-20)
(0.747572 0.304136 8.64659e-20)
(0.72224 0.287296 -1.0781e-19)
(0.661329 0.259323 -3.24221e-20)
(0.512602 0.200425 3.83468e-20)
(0.28302 0.11094 0)
(0.0505774 0.0199141 -2.68956e-20)
(0.24097 0.10972 -2.64457e-19)
(1.14151 0.498576 1.66143e-19)
(1.30648 0.57682 5.52328e-20)
(1.30377 0.590351 -7.41922e-20)
(1.25633 0.583312 5.18793e-20)
(1.19994 0.571445 -3.94824e-21)
(1.13815 0.556053 1.28547e-20)
(1.07133 0.535981 -4.72016e-21)
(1.00016 0.509666 -2.76715e-20)
(0.925753 0.475265 1.84453e-22)
(0.859288 0.436903 -1.03917e-19)
(0.809321 0.402484 1.00083e-19)
(0.772747 0.374019 -6.38205e-20)
(0.745439 0.350968 7.91944e-20)
(0.723952 0.332128 0)
(0.699648 0.313866 -5.85418e-20)
(0.641104 0.283146 -1.17069e-21)
(0.49612 0.218034 -1.67705e-19)
(0.272287 0.119145 -2.47442e-20)
(0.048039 0.021019 0)
(0.238603 0.119146 0)
(1.13076 0.544955 1.80829e-19)
(1.29757 0.631696 1.29523e-19)
(1.29405 0.645233 8.41187e-20)
(1.2457 0.636109 4.9548e-20)
(1.1882 0.621843 0)
(1.12496 0.603892 1.46141e-20)
(1.05631 0.581076 -1.23249e-21)
(0.98287 0.551799 5.8826e-20)
(0.905901 0.514029 -1.27092e-20)
(0.837107 0.472157 -7.60968e-20)
(0.785546 0.434581 5.02888e-20)
(0.74824 0.403477 -1.97962e-21)
(0.720924 0.378289 8.35107e-20)
(0.699807 0.357693 5.43484e-20)
(0.676323 0.33769 -1.27421e-19)
(0.619206 0.303724 1.53905e-19)
(0.476958 0.232244 4.58903e-20)
(0.258969 0.124946 1.89509e-19)
(0.0446594 0.0214776 -5.07382e-19)
(0.237118 0.128477 -6.83957e-20)
(1.11997 0.588887 1.04836e-19)
(1.28737 0.683671 -8.14361e-20)
(1.28302 0.697255 -9.82901e-20)
(1.23393 0.686282 0)
(1.17551 0.669907 3.98195e-20)
(1.11104 0.649698 -4.12893e-20)
(1.04077 0.624445 5.37563e-21)
(0.965254 0.592484 0)
(0.885714 0.551565 -1.95341e-19)
(0.814463 0.50625 2.07434e-19)
(0.761315 0.4654 0)
(0.723205 0.431395 7.55303e-20)
(0.695785 0.403712 -1.98843e-21)
(0.675002 0.381046 -1.72184e-19)
(0.652067 0.358918 6.77022e-20)
(0.595624 0.321238 0)
(0.455492 0.243139 2.48768e-19)
(0.243552 0.128422 0)
(0.0407302 0.021325 -2.41671e-19)
(0.236321 0.137732 7.64223e-20)
(1.10946 0.630533 1.20294e-19)
(1.27632 0.732781 -8.5337e-20)
(1.27114 0.746438 0)
(1.22143 0.733822 6.94716e-20)
(1.16226 0.715602 0)
(1.09671 0.693404 5.66342e-20)
(1.02498 0.666007 4.60781e-21)
(0.947484 0.631669 6.87766e-21)
(0.865393 0.587897 -9.65208e-20)
(0.791592 0.539255 2.026e-20)
(0.736657 0.495064 0)
(0.697612 0.45796 -1.60816e-19)
(0.669897 0.427515 2.05491e-21)
(0.649342 0.402417 0)
(0.626688 0.377764 2.42387e-21)
(0.57025 0.335787 2.26542e-19)
(0.431727 0.25071 -2.17484e-19)
(0.226275 0.129482 6.42339e-20)
(0.0362906 0.0205313 0)
(0.235863 0.146793 0)
(1.09933 0.67004 1.34976e-19)
(1.26477 0.779133 1.006e-19)
(1.25875 0.792835 -2.21551e-21)
(1.20854 0.778756 4.39957e-20)
(1.14871 0.758925 9.4464e-20)
(1.08224 0.734988 -1.79187e-20)
(1.00917 0.705736 -1.71201e-22)
(0.929829 0.669341 3.78636e-20)
(0.845233 0.623052 -1.50878e-19)
(0.768673 0.571311 -3.23146e-21)
(0.711577 0.523749 -6.6203e-20)
(0.671328 0.483246 2.63468e-19)
(0.643198 0.449761 -2.452e-21)
(0.622746 0.421965 -1.35684e-19)
(0.600112 0.394357 -2.47554e-19)
(0.543102 0.347466 0)
(0.405791 0.255084 0)
(0.207316 0.128021 7.03049e-20)
(0.0315232 0.0191392 -4.11606e-20)
(0.235876 0.155816 9.55666e-20)
(1.08973 0.707226 -2.96539e-19)
(1.25297 0.822812 -1.07875e-19)
(1.24613 0.83652 0)
(1.19548 0.821142 -1.5731e-21)
(1.13512 0.799907 1.1474e-19)
(1.06787 0.774469 -6.24663e-20)
(0.993608 0.743635 -1.95391e-20)
(0.912528 0.705509 4.1324e-20)
(0.82539 0.657063 -1.17033e-19)
(0.745851 0.602516 -1.75902e-19)
(0.686251 0.551638 1.76634e-19)
(0.644351 0.507594 0)
(0.615573 0.470721 -6.11337e-20)
(0.59511 0.439883 -1.48845e-19)
(0.572226 0.40884 -1.79324e-19)
(0.514014 0.356307 -2.17168e-19)
(0.377654 0.256147 6.48328e-20)
(0.186673 0.12385 -3.80379e-20)
(0.0264107 0.0171454 4.04987e-22)
(0.235941 0.164582 0)
(1.08075 0.742581 0)
(1.24112 0.863923 2.61194e-21)
(1.23346 0.877584 0)
(1.18247 0.861064 -1.66625e-19)
(1.12167 0.838604 -1.02254e-19)
(1.05377 0.81187 0)
(0.978445 0.779713 -6.13309e-21)
(0.895721 0.740169 5.63267e-20)
(0.806039 0.689961 -2.68806e-19)
(0.72333 0.632989 0)
(0.660824 0.578962 -1.1328e-19)
(0.616824 0.531229 -2.99816e-21)
(0.586984 0.490675 -2.46289e-21)
(0.566336 0.456365 1.58998e-19)
(0.542969 0.421274 -4.06827e-22)
(0.483023 0.362178 -4.71487e-19)
(0.347152 0.253648 1.41066e-19)
(0.164469 0.116963 4.18362e-20)
(0.0210221 0.0145567 0)
(0.236071 0.17304 -3.53275e-19)
(1.0721 0.776143 -1.82744e-19)
(1.22933 0.902555 -2.71909e-19)
(1.22091 0.91613 3.76565e-19)
(1.16965 0.898586 -3.13675e-19)
(1.10851 0.875067 0)
(1.04006 0.847231 -5.48222e-20)
(0.963805 0.813985 1.10898e-20)
(0.87954 0.77333 3.78937e-21)
(0.787372 0.721771 2.10485e-20)
(0.701305 0.662811 2.21279e-19)
(0.635448 0.605898 -3.88386e-20)
(0.58878 0.554499 -1.62807e-19)
(0.557367 0.509888 -7.2594e-20)
(0.536281 0.471504 8.83727e-20)
(0.512183 0.431517 -3.13433e-22)
(0.450098 0.364846 1.29099e-19)
(0.314277 0.247282 -3.0585e-19)
(0.141041 0.107374 3.63638e-19)
(0.0156438 0.0115581 5.27462e-20)
(0.236043 0.181178 1.30062e-19)
(1.06381 0.807982 -1.00246e-19)
(1.21771 0.93882 6.09856e-21)
(1.20858 0.952276 2.1355e-19)
(1.15713 0.933814 7.37039e-20)
(1.09573 0.909365 2.05161e-19)
(1.02685 0.880597 -2.48225e-20)
(0.949787 0.846473 5.49039e-20)
(0.864124 0.804995 -4.02495e-20)
(0.769525 0.752493 -1.48319e-19)
(0.679969 0.69203 0)
(0.610362 0.632648 -1.74458e-19)
(0.56035 0.57771 2.36319e-19)
(0.526612 0.528741 0)
(0.504622 0.485443 -1.8924e-19)
(0.479585 0.439322 1.16855e-19)
(0.415226 0.363745 -1.39483e-19)
(0.279991 0.236924 -1.67091e-19)
(0.117497 0.0956302 -2.95582e-19)
(0.0105291 0.00832947 -2.3059e-19)
(0.236195 0.189066 -1.43217e-19)
(1.05574 0.838091 1.07174e-19)
(1.20633 0.972799 2.54924e-19)
(1.19655 0.986109 2.94072e-19)
(1.14499 0.966834 -1.54294e-19)
(1.08342 0.941579 1.42429e-19)
(1.01422 0.91202 -7.70929e-20)
(0.936476 0.877221 7.04076e-20)
(0.84954 0.835177 -1.76995e-20)
(0.75262 0.782126 1.43411e-19)
(0.659497 0.720679 4.71924e-19)
(0.585785 0.659314 0)
(0.531775 0.601198 0)
(0.494695 0.547762 -8.39785e-20)
(0.470909 0.498478 0)
(0.444543 0.444112 2.54195e-19)
(0.378318 0.357735 3.04279e-19)
(0.245285 0.221906 0)
(0.0951736 0.0820513 0)
(0.00607727 0.0051709 2.50525e-19)
(0.236062 0.196424 1.58272e-19)
(1.04789 0.866479 1.29123e-19)
(1.19525 1.00461 1.8336e-19)
(1.1849 1.01776 -2.63321e-19)
(1.13328 0.997746 -1.72516e-19)
(1.07162 0.971781 -1.89732e-19)
(1.0022 0.94156 1.14838e-19)
(0.923917 0.906253 4.97942e-22)
(0.835852 0.863878 -4.88562e-21)
(0.73675 0.81065 -6.05832e-21)
(0.640072 0.748758 2.39559e-19)
(0.561963 0.685964 0)
(0.503336 0.625209 2.38901e-19)
(0.46171 0.567574 1.77421e-19)
(0.434518 0.511291 4.50688e-19)
(0.405691 0.445481 1.37268e-19)
(0.338613 0.344501 -1.67363e-19)
(0.212337 0.199943 -9.81765e-20)
(0.0781472 0.0665833 0)
(0.00330228 0.00242556 2.71744e-19)
(0.236145 0.203702 -3.48597e-19)
(1.04026 0.893244 0)
(1.18449 1.03432 2.0541e-19)
(1.17364 1.0473 -2.16122e-19)
(1.12204 1.02664 1.96033e-19)
(1.06035 1.00005 2.78248e-19)
(0.990843 0.96927 -2.68243e-19)
(0.912131 0.933604 1.79328e-21)
(0.823089 0.891104 0)
(0.721982 0.838018 -1.37046e-19)
(0.62184 0.776231 -4.99232e-19)
(0.539146 0.712626 2.39902e-20)
(0.475446 0.649865 3.25442e-19)
(0.427983 0.588834 0)
(0.394911 0.525139 3.04523e-19)
(0.360806 0.444126 0)
(0.292421 0.32124 0)
(0.181787 0.162322 -1.08951e-19)
(0.0843035 0.0377032 0)
(0.0234292 0.0060963 7.32622e-20)
(0.23584 0.210355 -3.81676e-19)
(1.03283 0.918714 0)
(1.17403 1.06214 3.3296e-19)
(1.16275 1.07498 0)
(1.11125 1.05377 -1.0669e-19)
(1.04958 1.02667 0)
(0.980066 0.995454 -2.02845e-20)
(0.901026 0.959605 -1.27447e-20)
(0.811142 0.917217 1.07045e-21)
(0.708169 0.86461 -1.36814e-19)
(0.604683 0.803527 1.32705e-20)
(0.517215 0.739837 1.97933e-19)
(0.447953 0.675682 3.1543e-19)
(0.393301 0.612531 4.48353e-20)
(0.35101 0.54213 2.38679e-19)
(0.306587 0.44321 0)
(0.228823 0.290508 3.64181e-19)
(0.126918 0.0997822 -2.14687e-19)
(0.0420789 0.0645138 2.46582e-19)
(-0.0348349 0.424082 -2.93461e-19)
(0.235485 0.216751 3.11416e-19)
(1.02539 0.942731 4.92409e-19)
(1.16381 1.08838 0)
(1.1521 1.1012 5.15096e-21)
(1.10072 1.07968 2.90371e-19)
(1.03905 1.05231 -5.41257e-19)
(0.969591 1.02089 -1.1929e-19)
(0.890241 0.985179 0)
(0.79954 0.943297 -1.5261e-20)
(0.694717 0.891721 -4.5946e-21)
(0.587784 0.832121 0)
(0.495136 0.769409 0)
(0.419642 0.704477 2.77376e-19)
(0.356585 0.640677 -1.40015e-19)
(0.300561 0.566054 -2.38765e-19)
(0.239489 0.449633 0)
(0.127829 0.272306 1.85776e-19)
(0.0221031 0.449889 -2.15972e-19)
(0.0432861 1.84544 -1.17786e-19)
(0.0719166 2.78218 -1.49402e-19)
(0.234794 0.222561 -2.27917e-19)
(1.01802 0.965473 -6.2205e-19)
(1.15383 1.11303 1.92369e-19)
(1.14171 1.12584 1.84469e-19)
(1.09054 1.1042 0)
(1.02883 1.07669 -3.88339e-19)
(0.959601 1.04527 -2.01025e-19)
(0.879938 1.0099 8.79221e-21)
(0.788525 0.968825 -1.87684e-21)
(0.681972 0.918729 1.07996e-19)
(0.571719 0.861268 2.25024e-19)
(0.473881 0.800863 2.05278e-19)
(0.391716 0.735749 2.73031e-19)
(0.320215 0.671638 -3.19974e-19)
(0.249817 0.599364 -3.54157e-19)
(0.160302 0.482386 0)
(0.0644721 0.842021 0)
(0.113181 2.52234 9.72724e-20)
(0.117388 3.17893 0)
(0.117715 3.37744 2.3055e-19)
(0.236793 0.227997 0)
(1.01096 0.987235 0)
(1.14381 1.13597 0)
(1.13139 1.1487 5.15115e-20)
(1.08044 1.12712 2.59912e-19)
(1.01873 1.09968 -2.97517e-19)
(0.950018 1.06849 -1.44435e-19)
(0.870047 1.03364 1.01264e-20)
(0.778035 0.993634 -5.13112e-20)
(0.669928 0.945465 -1.04081e-20)
(0.556579 0.890761 4.09941e-19)
(0.453826 0.834055 -2.40942e-20)
(0.36468 0.770011 3.10107e-20)
(0.285919 0.702238 4.56129e-20)
(0.199425 0.64069 2.22786e-21)
(0.125317 0.972015 1.60747e-21)
(0.158207 2.66759 -4.88871e-19)
(0.171444 3.28214 -1.84571e-19)
(0.156657 3.42377 8.83751e-20)
(0.14059 3.4469 -9.33818e-20)
(0.159344 0.173051 1.30335e-19)
(0.99918 1.01103 0)
(1.13368 1.15742 -3.76395e-19)
(1.12156 1.17014 -4.76398e-19)
(1.07082 1.14891 5.43026e-19)
(1.00935 1.12169 3.16194e-19)
(0.940635 1.09059 1.69426e-19)
(0.860584 1.05646 -1.78461e-19)
(0.768183 1.01773 5.90786e-20)
(0.658881 0.971882 0)
(0.542814 0.920452 1.79364e-19)
(0.435614 0.868385 -1.54091e-19)
(0.339272 0.809564 0)
(0.254853 0.73759 4.03304e-20)
(0.175297 0.865475 9.92698e-20)
(0.173154 2.41135 -1.20481e-19)
(0.236913 3.31937 1.35117e-19)
(0.214385 3.4427 6.76323e-20)
(0.17762 3.46417 7.74049e-20)
(0.153742 3.47372 1.05794e-19)
(0.270339 0.264102 -2.53703e-19)
(0.980314 1.01891 0)
(1.11515 1.18143 3.88569e-19)
(1.10807 1.2022 4.97753e-19)
(1.05554 1.18121 -5.60619e-19)
(0.993925 1.15454 -3.38218e-19)
(0.924524 1.12475 -2.63698e-19)
(0.844187 1.0919 -1.32357e-20)
(0.750912 1.0555 -9.16307e-20)
(0.639554 1.01396 2.40926e-20)
(0.51936 0.969257 7.23791e-21)
(0.405128 0.926099 1.19605e-19)
(0.294021 0.882249 2.54847e-20)
(0.230602 1.01024 -3.6457e-20)
(0.246032 2.27271 -8.49138e-20)
(0.306077 3.32615 6.6775e-20)
(0.29284 3.47893 -6.53899e-20)
(0.254209 3.49923 -3.81684e-20)
(0.215799 3.52464 -1.03688e-20)
(0.163747 3.51664 -2.19493e-21)
(0.259561 0.262266 0)
(0.976861 1.04032 1.02557e-19)
(1.10687 1.20377 -7.71556e-20)
(1.09815 1.22439 -5.56587e-20)
(1.04583 1.20342 -3.69098e-19)
(0.984475 1.17697 3.30632e-19)
(0.914966 1.14743 1.78212e-19)
(0.834751 1.11544 -1.40214e-20)
(0.741432 1.08061 1.16026e-19)
(0.629523 1.04211 -1.47157e-20)
(0.507632 1.00245 -2.37104e-19)
(0.390475 0.965729 1.69901e-20)
(0.283642 0.951542 -2.21344e-20)
(0.270769 1.46815 -3.01833e-20)
(0.34502 3.0707 1.83796e-20)
(0.370948 3.47814 2.44764e-21)
(0.324096 3.53938 1.37836e-20)
(0.285662 3.55949 -1.79529e-20)
(0.234917 3.58081 5.22664e-20)
(0.176448 3.57458 1.41385e-20)
(0.244788 0.25927 2.52197e-19)
(0.972285 1.06399 6.90905e-19)
(1.09802 1.22793 -2.2059e-19)
(1.08786 1.24806 -2.11577e-19)
(1.03578 1.22695 0)
(0.974681 1.2005 4.86042e-19)
(0.905331 1.17122 2.72991e-19)
(0.825514 1.14002 -1.48929e-20)
(0.73249 1.10681 1.1992e-20)
(0.620578 1.07153 4.6177e-20)
(0.497836 1.03729 -7.59929e-20)
(0.379972 1.00833 -1.16925e-19)
(0.291408 1.07528 -1.45049e-19)
(0.341194 2.11807 1.56701e-19)
(0.434214 3.38229 8.60131e-20)
(0.417527 3.54873 0)
(0.361139 3.58702 0)
(0.320566 3.62618 5.09353e-20)
(0.260305 3.68062 0)
(0.186761 3.65412 1.14196e-19)
(0.234053 0.260025 -3.688e-19)
(0.965586 1.08823 -5.75753e-19)
(1.08779 1.25318 0)
(1.07645 1.27254 5.96893e-21)
(1.02463 1.25104 -3.60861e-19)
(0.963901 1.22448 7.24022e-19)
(0.895037 1.19543 1.84397e-19)
(0.815858 1.16492 -1.8881e-20)
(0.723412 1.13325 1.3559e-19)
(0.611929 1.10111 -6.3835e-21)
(0.489108 1.07247 0)
(0.373306 1.05401 0)
(0.322814 1.29361 -1.057e-19)
(0.428694 2.79101 3.39376e-20)
(0.512556 3.50597 1.63902e-21)
(0.461185 3.59147 0)
(0.415339 3.64498 1.43934e-19)
(0.360659 3.70654 -2.19506e-19)
(0.308423 3.68258 -1.8819e-19)