/*--------------------------------*- C++ -*----------------------------------*\
  =========                 |
  \\      /  F ield         | OpenFOAM: The Open Source CFD Toolbox
   \\    /   O peration     | Website:  https://openfoam.org
    \\  /    A nd           | Version:  6
     \\/     M anipulation  |
\*---------------------------------------------------------------------------*/
FoamFile
{
    version     2.0;
    format      ascii;
    class       volScalarField;
    location    "48.9";
    object      p;
}
// * * * * * * * * * * * * * * * * * * * * * * * * * * * * * * * * * * * * * //

dimensions      [0 2 -2 0 0 0 0];

internalField   nonuniform List<scalar> 
8800
(
0.780588
0.73127
0.693298
0.66522
0.645044
0.630435
0.619807
0.612226
0.607284
0.605139
0.606424
0.610697
0.617439
0.626823
0.639532
0.656833
0.680698
0.713788
0.75672
0.809232
0.615095
0.621437
0.630582
0.634122
0.631501
0.625395
0.618429
0.612149
0.607295
0.604357
0.60404
0.606588
0.611165
0.617246
0.624313
0.631325
0.636188
0.636053
0.62937
0.620466
0.588637
0.594869
0.59936
0.603219
0.60615
0.607076
0.605954
0.603785
0.601739
0.600815
0.601755
0.60413
0.606957
0.609184
0.609674
0.607864
0.604482
0.600457
0.595669
0.591952
0.584378
0.58714
0.589736
0.59188
0.593597
0.595138
0.596202
0.596502
0.596316
0.596321
0.597023
0.598079
0.598755
0.598555
0.597544
0.596163
0.594473
0.592157
0.589738
0.588171
0.579378
0.5808
0.582628
0.584691
0.58638
0.587641
0.588695
0.589614
0.590339
0.590967
0.591562
0.591925
0.591873
0.591452
0.590741
0.589594
0.587913
0.586001
0.584639
0.583837
0.574459
0.57536
0.576594
0.5782
0.579866
0.581361
0.582593
0.583644
0.584612
0.585503
0.586154
0.586431
0.586351
0.585914
0.585059
0.583832
0.58244
0.581152
0.580322
0.579798
0.569642
0.570296
0.571244
0.572538
0.573952
0.575425
0.576851
0.578132
0.579283
0.580341
0.581133
0.581491
0.581401
0.58088
0.580035
0.579044
0.578013
0.577083
0.576493
0.57611
0.564925
0.565429
0.5662
0.567313
0.568576
0.569943
0.571383
0.572831
0.574214
0.575497
0.576462
0.576906
0.576852
0.576426
0.575782
0.575033
0.574247
0.573552
0.573114
0.572816
0.560258
0.560659
0.561303
0.562294
0.563482
0.56479
0.566216
0.567749
0.569334
0.570881
0.572067
0.572668
0.57278
0.57256
0.572139
0.571595
0.571002
0.570494
0.570166
0.569926
0.555564
0.555891
0.556447
0.557357
0.558494
0.559784
0.561238
0.56286
0.56462
0.566433
0.567918
0.568794
0.569161
0.569181
0.568976
0.568642
0.568233
0.567879
0.567635
0.567434
0.550757
0.551028
0.551524
0.552387
0.553505
0.554817
0.556339
0.558088
0.560058
0.562186
0.564045
0.565274
0.565953
0.566241
0.566269
0.56614
0.565911
0.565691
0.565513
0.565342
0.545758
0.545987
0.546444
0.547288
0.548426
0.5498
0.551428
0.553353
0.555596
0.558113
0.560431
0.562087
0.56313
0.563728
0.564016
0.564103
0.56405
0.563951
0.563827
0.563676
0.540478
0.540673
0.541111
0.541967
0.543164
0.544645
0.546437
0.548612
0.551214
0.554225
0.557099
0.559257
0.560718
0.561661
0.562235
0.562543
0.562679
0.562693
0.562614
0.562478
0.534824
0.534992
0.535427
0.536325
0.537624
0.539264
0.541289
0.543796
0.54686
0.550486
0.554038
0.556793
0.558741
0.560076
0.56097
0.561542
0.561861
0.561979
0.56194
0.561814
0.528686
0.528831
0.52928
0.530247
0.531692
0.533552
0.535886
0.538821
0.542461
0.546843
0.55122
0.554695
0.557222
0.559016
0.560274
0.56113
0.561655
0.561883
0.56188
0.561761
0.52193
0.522051
0.522528
0.523597
0.525239
0.527387
0.530114
0.53358
0.537936
0.54325
0.548628
0.552967
0.556189
0.558537
0.560223
0.561401
0.562156
0.562498
0.56253
0.562413
0.514395
0.514492
0.515011
0.516213
0.51811
0.520628
0.523856
0.527997
0.533236
0.539683
0.546281
0.551671
0.555719
0.558708
0.560904
0.562464
0.563475
0.563938
0.564002
0.563886
0.505845
0.505946
0.506514
0.507885
0.510115
0.513105
0.516977
0.521979
0.528346
0.536202
0.544266
0.550884
0.555895
0.559634
0.562434
0.564432
0.565732
0.566324
0.566421
0.566301
0.495993
0.496078
0.496732
0.498337
0.501
0.504597
0.509282
0.515363
0.523122
0.532704
0.542534
0.550621
0.556778
0.561412
0.564913
0.56743
0.569059
0.569792
0.56992
0.569794
0.484486
0.484554
0.485312
0.487222
0.49043
0.494806
0.500536
0.507981
0.517473
0.529174
0.541132
0.550952
0.558461
0.564151
0.568468
0.571599
0.5736
0.574482
0.574639
0.574503
0.470776
0.470834
0.471738
0.474057
0.477989
0.483391
0.490483
0.499691
0.511367
0.525649
0.54016
0.552021
0.561072
0.567977
0.573244
0.577072
0.579482
0.580519
0.580701
0.580551
0.454125
0.454177
0.455291
0.458185
0.463105
0.469898
0.478814
0.490336
0.504815
0.522284
0.539758
0.553926
0.564737
0.57302
0.579361
0.583975
0.586823
0.588009
0.588207
0.588039
0.433405
0.433459
0.434906
0.438652
0.444989
0.453732
0.465137
0.479689
0.497642
0.518907
0.539871
0.556704
0.569517
0.57936
0.586904
0.592395
0.595697
0.597013
0.597212
0.597023
0.406842
0.406925
0.408955
0.414085
0.422609
0.434238
0.449175
0.467814
0.490214
0.516032
0.540896
0.560588
0.575546
0.587095
0.595947
0.602363
0.606096
0.607502
0.60768
0.607466
0.371414
0.371618
0.374843
0.382545
0.394785
0.410859
0.430852
0.454852
0.482651
0.513691
0.542874
0.565676
0.58291
0.596226
0.606486
0.613815
0.617893
0.619314
0.61944
0.6192
0.321365
0.32242
0.328848
0.34185
0.360574
0.383513
0.410474
0.441242
0.475398
0.512261
0.546038
0.57204
0.591588
0.606702
0.618374
0.626529
0.630791
0.632118
0.632159
0.631891
0.248284
0.255553
0.270336
0.293081
0.321523
0.353678
0.389161
0.427713
0.468946
0.51218
0.550938
0.580434
0.602555
0.619705
0.632843
0.641739
0.646135
0.647379
0.647369
0.647127
0.170312
0.186245
0.210299
0.243558
0.282246
0.323791
0.367873
0.414423
0.463175
0.513551
0.558345
0.592317
0.617798
0.637503
0.652444
0.662097
0.666465
0.667547
0.667566
0.667435
0.103552
0.123057
0.154879
0.197185
0.244992
0.29538
0.34785
0.402293
0.45843
0.515704
0.566211
0.604335
0.632881
0.654899
0.671302
0.681431
0.685691
0.686685
0.686762
0.686698
0.0489018
0.0706295
0.107813
0.156631
0.211579
0.269399
0.329296
0.390994
0.454069
0.517885
0.573792
0.61582
0.647145
0.671193
0.688931
0.699772
0.704423
0.705504
0.705591
0.705569
0.00349431
0.0265628
0.0676363
0.121561
0.182245
0.246195
0.312442
0.38057
0.449996
0.519937
0.580923
0.626606
0.660574
0.686522
0.705652
0.717449
0.722547
0.72371
0.723843
0.723855
-0.0352669
-0.0113693
0.0325988
0.0906883
0.156201
0.225393
0.297142
0.370968
0.446143
0.521747
0.587476
0.63657
0.672998
0.700773
0.721186
0.733819
0.739404
0.740756
0.740949
0.740975
-0.0693752
-0.0448908
0.0013566
0.0628927
0.132533
0.206291
0.282922
0.361885
0.442332
0.523181
0.593376
0.645628
0.684287
0.713635
0.735121
0.748436
0.75442
0.756067
0.756344
0.756375
-0.100286
-0.0753039
-0.0271621
0.037308
0.11052
0.188284
0.269302
0.352965
0.438317
0.524106
0.598509
0.653749
0.694402
0.725128
0.747502
0.761347
0.76767
0.769551
0.769871
0.769896
-0.12898
-0.103526
-0.053769
0.0132827
0.0896226
0.170931
0.255906
0.343885
0.433841
0.524368
0.602829
0.660913
0.703432
0.7354
0.75851
0.772673
0.779247
0.781268
0.78159
0.781591
-0.156231
-0.130247
-0.0790047
-0.00966279
0.0694329
0.153904
0.242462
0.334428
0.42872
0.523832
0.606289
0.667152
0.711482
0.744572
0.768199
0.782545
0.789231
0.791328
0.791638
0.791606
-0.182372
-0.1559
-0.103284
-0.0318864
0.0496753
0.136988
0.2288
0.324445
0.422834
0.522392
0.608833
0.672517
0.718682
0.752801
0.776812
0.791246
0.797978
0.800114
0.800422
0.800362
-0.207812
-0.180759
-0.126869
-0.0536098
0.0301675
0.120035
0.21481
0.313848
0.416098
0.519967
0.610433
0.677066
0.725151
0.760293
0.784636
0.799124
0.80584
0.807919
0.80821
0.808136
-0.23265
-0.205007
-0.149914
-0.0749593
0.0108058
0.102974
0.200439
0.302598
0.408465
0.516518
0.611074
0.680854
0.730996
0.767174
0.791832
0.806328
0.812974
0.814975
0.815194
0.815079
-0.256983
-0.228738
-0.172509
-0.0959935
-0.00844511
0.0857861
0.185679
0.290688
0.399923
0.512005
0.610728
0.683902
0.736293
0.773584
0.798556
0.812997
0.819452
0.821305
0.821444
0.82129
-0.280879
-0.252001
-0.194664
-0.116728
-0.0275949
0.0684861
0.170559
0.278151
0.390489
0.506411
0.609353
0.686181
0.741107
0.779672
0.804961
0.819224
0.82536
0.82698
0.827029
0.826851
-0.304368
-0.274779
-0.216371
-0.137149
-0.0465992
0.0511174
0.155135
0.265041
0.380201
0.499732
0.606892
0.687619
0.745453
0.785602
0.811253
0.825142
0.830747
0.832049
0.832004
0.83181
-0.327277
-0.297021
-0.237592
-0.157225
-0.0654118
0.0337549
0.139478
0.251438
0.369123
0.491995
0.603281
0.68811
0.749286
0.791522
0.81773
0.830996
0.835719
0.836542
0.836393
0.836201
-0.349566
-0.318675
-0.258296
-0.176898
-0.0839669
0.0164659
0.123684
0.237425
0.357343
0.483231
0.598471
0.687528
0.752477
0.797484
0.824777
0.837313
0.840592
0.840542
0.840226
0.840077
-0.371285
-0.339701
-0.278448
-0.196122
-0.102194
-0.000660537
0.107847
0.223111
0.344956
0.473505
0.592413
0.685742
0.754814
0.803327
0.832701
0.845012
0.846347
0.844493
0.843576
0.843639
-0.392266
-0.360065
-0.297983
-0.214823
-0.120029
-0.0175352
0.0920685
0.208608
0.332082
0.462922
0.585088
0.682606
0.756035
0.80862
0.841347
0.855046
0.855156
0.850572
0.847072
0.845389
-0.412602
-0.379766
-0.316903
-0.233031
-0.137505
-0.0342005
0.0762939
0.193856
0.318646
0.451408
0.576338
0.677856
0.755861
0.812777
0.849855
0.867373
0.869114
0.862999
0.852514
0.851953
-0.432202
-0.398876
-0.335345
-0.25094
-0.154924
-0.0510032
0.0600958
0.17835
0.30408
0.438305
0.56547
0.670681
0.753722
0.814966
0.856222
0.879025
0.88363
0.874027
0.856031
0.85238
-0.450922
-0.417356
-0.353133
-0.268343
-0.172025
-0.0676345
0.0436924
0.162422
0.288693
0.423873
0.552582
0.66053
0.748954
0.814033
0.85605
0.878709
0.886863
0.864189
0.805712
0.78003
-0.468639
-0.436016
-0.369856
-0.284717
-0.188104
-0.083603
0.0273575
0.146347
0.272765
0.40829
0.537759
0.646902
0.740686
0.809302
0.844727
0.861725
0.854443
0.806213
0.744921
0.707277
-0.513124
-0.454029
-0.385387
-0.300686
-0.203951
-0.0998325
0.0112233
0.130005
0.256102
0.391227
0.520627
0.62932
0.725348
0.799012
0.821128
0.815018
0.774227
0.713081
0.645763
0.608775
-0.487965
-0.469489
-0.408913
-0.324202
-0.228065
-0.124159
-0.013836
0.104254
0.229353
0.36289
0.490434
0.596612
0.683552
0.763599
0.752626
0.651894
0.566548
0.507104
0.445192
0.474007
-0.52001
-0.487859
-0.42641
-0.342244
-0.246225
-0.142618
-0.0321494
0.0852727
0.209319
0.341038
0.465842
0.568299
0.645311
0.6899
0.644234
0.511537
0.40747
0.337268
0.257204
0.304689
-0.545016
-0.510346
-0.44701
-0.362665
-0.266706
-0.163151
-0.0527731
0.0638561
0.186543
0.315864
0.436823
0.533249
0.59941
0.606919
0.506893
0.357347
0.232719
0.14358
0.0501084
0.0831845
-0.569444
-0.533615
-0.4688
-0.383744
-0.287633
-0.184171
-0.0742551
0.0414291
0.162548
0.289091
0.405277
0.494436
0.544068
0.519852
0.368156
0.196163
0.0401984
-0.0904199
-0.212491
-0.198483
-0.59363
-0.557325
-0.491523
-0.405828
-0.309485
-0.206183
-0.0968676
0.0177382
0.137024
0.260414
0.371099
0.452933
0.482474
0.415356
0.231998
0.0395275
-0.143881
-0.294668
-0.497908
-0.57634
-0.618255
-0.581946
-0.515525
-0.429339
-0.332744
-0.229548
-0.120764
-0.00725671
0.110089
0.230098
0.334976
0.407581
0.413396
0.29516
0.108092
-0.096688
-0.285069
-0.444287
-0.566494
-0.68453
-0.644409
-0.607969
-0.541175
-0.454679
-0.357968
-0.254968
-0.146805
-0.0345626
0.0805133
0.196615
0.295237
0.355788
0.335429
0.181007
-0.00765635
-0.206619
-0.378487
-0.473504
-0.499285
-0.512803
-0.672234
-0.635685
-0.56861
-0.481961
-0.385315
-0.282675
-0.175377
-0.0647013
0.0476656
0.159141
0.251035
0.294874
0.256328
0.071541
-0.11531
-0.29399
-0.423626
-0.460617
-0.469317
-0.469648
-0.70202
-0.665225
-0.597872
-0.511169
-0.414732
-0.312681
-0.206506
-0.097737
0.0114633
0.117614
0.201832
0.230185
0.161333
-0.028464
-0.209237
-0.364413
-0.436601
-0.450551
-0.451387
-0.451131
-0.73378
-0.696629
-0.628974
-0.542298
-0.446235
-0.344979
-0.240211
-0.133699
-0.0280944
0.0721041
0.147398
0.161613
0.0554942
-0.119106
-0.289799
-0.411958
-0.439634
-0.440612
-0.441319
-0.440826
-0.767254
-0.729716
-0.661808
-0.575262
-0.479732
-0.379516
-0.276472
-0.172582
-0.07097
0.0226999
0.088842
0.0846719
-0.0391001
-0.203382
-0.353307
-0.420968
-0.435942
-0.434817
-0.434805
-0.434513
-0.801857
-0.764132
-0.6961
-0.609819
-0.515026
-0.416129
-0.315144
-0.214282
-0.116984
-0.0302013
0.0262147
0.00683649
-0.126908
-0.278901
-0.39615
-0.431204
-0.430221
-0.429903
-0.429493
-0.429247
-0.83714
-0.799325
-0.73135
-0.645533
-0.551743
-0.454481
-0.355944
-0.258543
-0.165918
-0.0856969
-0.0420161
-0.0662623
-0.206573
-0.338385
-0.422651
-0.4288
-0.429085
-0.427949
-0.427048
-0.42649
-0.872084
-0.834368
-0.766778
-0.681731
-0.589303
-0.494066
-0.398397
-0.304903
-0.217411
-0.143073
-0.110369
-0.141805
-0.27454
-0.385106
-0.431549
-0.439549
-0.433004
-0.430304
-0.42866
-0.427746
-0.90482
-0.867937
-0.801312
-0.717477
-0.626878
-0.534138
-0.4418
-0.352666
-0.270741
-0.202071
-0.174508
-0.221914
-0.331008
-0.426177
-0.449602
-0.444075
-0.436707
-0.431167
-0.429371
-0.428642
-0.934206
-0.898458
-0.833487
-0.751508
-0.663346
-0.573695
-0.485206
-0.400915
-0.324818
-0.26214
-0.238663
-0.294896
-0.375143
-0.44303
-0.471888
-0.456797
-0.442744
-0.435557
-0.434607
-0.434074
-0.957455
-0.923744
-0.86146
-0.782207
-0.697301
-0.611463
-0.527408
-0.448488
-0.378504
-0.32186
-0.302919
-0.361212
-0.410529
-0.432325
-0.448809
-0.470585
-0.478286
-0.48015
-0.478964
-0.47732
-0.972376
-0.941548
-0.883042
-0.807706
-0.727076
-0.645922
-0.566958
-0.493892
-0.430587
-0.380074
-0.360735
-0.431925
-0.469732
-0.444083
-0.481773
-0.542524
-0.58523
-0.590517
-0.582177
-0.579039
-0.976092
-0.949313
-0.895988
-0.825998
-0.750829
-0.675405
-0.602248
-0.535242
-0.47953
-0.436615
-0.413683
-0.511007
-0.621145
-0.613516
-0.625065
-0.647135
-0.657116
-0.658537
-0.653089
-0.652278
-0.966379
-0.944484
-0.898013
-0.835138
-0.766839
-0.6982
-0.631649
-0.570584
-0.522512
-0.490857
-0.469941
-0.578059
-0.796969
-0.943727
-0.835984
-0.732119
-0.683999
-0.669217
-0.666139
-0.665677
-0.940273
-0.924055
-0.887013
-0.833704
-0.773842
-0.712871
-0.653445
-0.598408
-0.556038
-0.535185
-0.529627
-0.626114
-0.713882
-0.855044
-0.719251
-0.673028
-0.664871
-0.648944
-0.642255
-0.639319
-0.900906
-0.890464
-0.863745
-0.821675
-0.771546
-0.71878
-0.666318
-0.617313
-0.577302
-0.561865
-0.557232
-0.560609
-0.453321
-0.338133
-0.286909
-0.419251
-0.518071
-0.542521
-0.548712
-0.550623
-0.854991
-0.849087
-0.832963
-0.801916
-0.761742
-0.716662
-0.669998
-0.624932
-0.587129
-0.564964
-0.564665
-0.534812
-0.443201
-0.41828
-0.639969
-0.799924
-0.827806
-0.73159
-0.657127
-0.657274
-0.812345
-0.808879
-0.800868
-0.779783
-0.747487
-0.708517
-0.665693
-0.622303
-0.581993
-0.555472
-0.569736
-0.588971
-0.766615
-0.968295
-1.09485
-1.26558
-1.3267
-1.27755
-1.16714
-1.10329
-0.779857
-0.777768
-0.773605
-0.759989
-0.733729
-0.69763
-0.656281
-0.60949
-0.562245
-0.525837
-0.501217
-0.522274
-0.654807
-0.963759
-1.24177
-1.33523
-1.27173
-1.16784
-1.05862
-0.997549
-0.754293
-0.753454
-0.752085
-0.744831
-0.723301
-0.688356
-0.643557
-0.592114
-0.534069
-0.46549
-0.39481
-0.34813
-0.440612
-0.571406
-0.62287
-0.486095
-0.273478
-0.0476174
0.12491
0.190225
-0.738613
-0.738213
-0.73769
-0.734287
-0.717258
-0.681253
-0.631401
-0.571053
-0.494561
-0.402805
-0.28683
-0.107744
0.0551065
0.267335
0.566962
0.850175
1.15643
1.40547
1.53551
1.58179
-0.727882
-0.727826
-0.727628
-0.726587
-0.713322
-0.677407
-0.622657
-0.552153
-0.464184
-0.347125
-0.216726
-0.0465488
0.216433
0.56399
1.06014
1.5494
1.93347
2.16556
2.26474
2.29147
-0.719635
-0.71925
-0.717655
-0.715957
-0.708034
-0.678777
-0.622682
-0.541647
-0.443768
-0.319739
-0.187352
-0.0456283
0.18758
0.568661
1.07525
1.5387
1.87484
2.06677
2.1485
2.16662
-0.725177
-0.722086
-0.71392
-0.706984
-0.708633
-0.692393
-0.633337
-0.539473
-0.432586
-0.313943
-0.177593
-0.0552859
0.119079
0.450523
0.848837
1.19635
1.45756
1.60413
1.66149
1.67514
-0.767044
-0.762769
-0.75676
-0.756509
-0.759863
-0.735756
-0.653026
-0.542493
-0.422416
-0.307822
-0.187628
-0.0846531
0.0166064
0.24639
0.55979
0.82145
1.00394
1.10136
1.14088
1.14994
-0.845213
-0.849307
-0.866941
-0.878026
-0.869836
-0.804862
-0.673627
-0.538279
-0.413358
-0.297853
-0.200589
-0.11942
-0.0421156
0.125642
0.3355
0.501169
0.622007
0.688019
0.714444
0.719766
-0.890346
-0.906178
-0.932686
-0.946969
-0.925143
-0.821952
-0.658598
-0.5151
-0.395781
-0.289157
-0.211588
-0.155694
-0.115356
0.0119745
0.163088
0.281506
0.356586
0.394385
0.409715
0.412853
-0.788167
-0.804663
-0.828988
-0.842086
-0.814767
-0.711939
-0.579362
-0.461553
-0.35755
-0.273709
-0.214649
-0.179114
-0.158648
-0.0729949
0.0294766
0.111861
0.163106
0.191977
0.202242
0.204218
-0.532763
-0.545057
-0.564193
-0.57816
-0.564229
-0.508542
-0.441455
-0.370177
-0.301949
-0.244199
-0.20312
-0.175044
-0.169706
-0.0885549
-0.0042563
0.0355794
0.0608517
0.0724207
0.0765376
0.0769437
-0.250928
-0.256604
-0.268437
-0.285004
-0.295698
-0.297893
-0.288198
-0.267272
-0.239539
-0.200939
-0.174112
-0.151511
-0.127305
-0.0850444
-0.0384587
-0.0141081
-0.00157315
0.00526433
0.00800565
0.0082453
-0.0615651
-0.0642461
-0.0732885
-0.0930369
-0.122496
-0.151899
-0.172421
-0.181845
-0.179454
-0.159295
-0.139759
-0.116042
-0.0908549
-0.0577184
-0.0399362
-0.0297052
-0.0226892
-0.0177947
-0.0155688
-0.015901
0.0228172
0.0210537
0.0135514
-0.00522411
-0.0354846
-0.0702863
-0.100793
-0.122559
-0.131501
-0.126181
-0.108076
-0.0830363
-0.0594232
-0.0418745
-0.0293164
-0.0250793
-0.0224463
-0.0216125
-0.0210075
-0.0216549
0.0435562
0.0422545
0.036588
0.0220722
-0.00230396
-0.0315886
-0.0605057
-0.0840253
-0.0981683
-0.098901
-0.0845418
-0.0588049
-0.0353783
-0.0289744
-0.027778
-0.0275561
-0.0226016
-0.017636
-0.0165308
-0.01773
0.0366007
0.0356907
0.0317577
0.0216255
0.00413938
-0.0181442
-0.0417738
-0.0632839
-0.0785736
-0.0828341
-0.0719993
-0.0474451
-0.0251658
-0.0276073
-0.0297658
-0.028252
-0.0249451
-0.0228591
-0.0231892
-0.0245914
0.0206818
0.0200753
0.0174309
0.0105753
-0.00152947
-0.0178607
-0.036441
-0.0546844
-0.07006
-0.0779191
-0.0729858
-0.0564852
-0.039741
-0.0490114
-0.0548865
-0.0528523
-0.0465279
-0.0417505
-0.0409476
-0.042615
0.00374659
0.00334755
0.00156263
-0.00306098
-0.0114779
-0.0233411
-0.0378497
-0.0536208
-0.0693774
-0.0828663
-0.089016
-0.0876397
-0.0840622
-0.0942218
-0.098368
-0.0920009
-0.0843161
-0.0806716
-0.0802247
-0.0816772
-0.0110646
-0.0113578
-0.0125897
-0.015774
-0.0217204
-0.0306035
-0.0422075
-0.056372
-0.0732104
-0.0931851
-0.11527
-0.137518
-0.156389
-0.166119
-0.158503
-0.146532
-0.137489
-0.134746
-0.134691
-0.135586
-0.0224571
-0.0227134
-0.0236105
-0.0258328
-0.030104
-0.0368144
-0.046439
-0.0594013
-0.0772925
-0.103387
-0.141864
-0.192874
-0.234069
-0.238243
-0.217043
-0.198909
-0.19063
-0.188947
-0.189218
-0.18938
-0.02991
-0.0301345
-0.0308209
-0.0323729
-0.0354329
-0.0405228
-0.0484473
-0.0600039
-0.0779634
-0.107277
-0.155423
-0.224296
-0.275645
-0.267394
-0.240939
-0.225037
-0.221871
-0.223577
-0.223797
-0.223279
-0.0332081
-0.0334224
-0.0339363
-0.0349878
-0.0371013
-0.0408549
-0.0471814
-0.0570742
-0.0732763
-0.100761
-0.146661
-0.209671
-0.24793
-0.233603
-0.218022
-0.214254
-0.217641
-0.221763
-0.222123
-0.22153
-0.0324506
-0.0326533
-0.0330491
-0.0337229
-0.035099
-0.0377345
-0.0424129
-0.0499939
-0.0626936
-0.0842643
-0.117168
-0.159713
-0.177784
-0.168595
-0.165668
-0.173957
-0.182628
-0.187834
-0.18836
-0.188037
-0.0280977
-0.0282826
-0.0285661
-0.0289894
-0.0298065
-0.0315457
-0.0346138
-0.0397802
-0.048158
-0.0612609
-0.0770199
-0.093749
-0.097269
-0.0929405
-0.10344
-0.119564
-0.131546
-0.136177
-0.136584
-0.136408
-0.0210437
-0.0211744
-0.0213725
-0.0216171
-0.0220301
-0.0230336
-0.0248264
-0.027928
-0.0322383
-0.0373362
-0.0369486
-0.0284834
-0.00596727
-0.014352
-0.0401209
-0.0615997
-0.0731428
-0.0755782
-0.0766423
-0.0768468
-0.0122035
-0.0122974
-0.0124141
-0.012517
-0.012668
-0.0131206
-0.0139846
-0.0154927
-0.0170196
-0.0175272
-0.00867973
0.0181521
0.0454689
0.0306491
0.00324941
-0.0170567
-0.0216768
-0.0224954
-0.0227037
-0.0238565
-0.00235943
-0.00237919
-0.0023855
-0.00243679
-0.0025068
-0.00255741
-0.00262001
-0.00271739
-0.00303533
-0.0032222
-0.00231787
0.00526604
0.0167785
0.0207547
0.0079075
0.00644549
0.00630206
0.00558022
0.000629507
-0.000913174
-0.0641651
0.12555
0.30016
0.448727
0.568894
0.664968
0.745523
0.810995
0.82783
0.823957
0.229584
0.352026
0.466999
0.567356
0.652339
0.722893
0.778616
0.816275
0.836359
0.852854
0.429234
0.511097
0.592193
0.663636
0.724789
0.775589
0.81557
0.845946
0.868692
0.88792
0.576916
0.634676
0.693448
0.74632
0.79198
0.830772
0.863255
0.890435
0.91087
0.929768
0.694493
0.738202
0.782061
0.822875
0.859243
0.891342
0.919374
0.943089
0.961128
0.97917
0.79321
0.829216
0.864543
0.898564
0.929897
0.95823
0.983223
1.00417
1.02001
1.03749
0.881888
0.914193
0.9466
0.977899
1.00702
1.03348
1.05668
1.07567
1.08962
1.10665
0.969187
1.00187
1.0344
1.06568
1.09451
1.12036
1.14254
1.16011
1.17252
1.18906
1.06376
1.1002
1.13501
1.16752
1.19675
1.22215
1.2433
1.25962
1.27126
1.28741
1.17689
1.21746
1.25453
1.28754
1.31608
1.3401
1.35975
1.37505
1.38696
1.40304
1.31827
1.3594
1.39468
1.42431
1.44954
1.47118
1.48969
1.50519
1.51831
1.53427
1.48988
1.52237
1.54924
1.57156
1.59165
1.61038
1.62813
1.64491
1.65982
1.67555
1.67627
1.69356
1.71069
1.72737
1.74347
1.75821
1.77211
1.7866
1.80184
1.81914
1.85966
1.86965
1.88285
1.89384
1.90325
1.91291
1.92352
1.9337
1.943
1.96866
2.07758
2.07188
2.05894
2.04468
2.03838
2.0441
2.06224
2.09077
2.12453
2.16086
2.3804
2.24444
2.16494
2.12243
2.10511
2.10909
2.13652
2.19438
2.30205
2.48045
0.684286
0.677982
0.670249
0.659128
0.645549
0.632888
0.622472
0.614435
0.608684
0.60531
0.604908
0.607694
0.61289
0.620221
0.629752
0.641569
0.655123
0.668046
0.677032
0.684571
0.593369
0.599287
0.607355
0.61348
0.616539
0.616015
0.612911
0.608889
0.605265
0.602936
0.60275
0.604954
0.60867
0.613088
0.61717
0.619402
0.618319
0.613675
0.606616
0.598781
0.586642
0.589014
0.592277
0.595042
0.597481
0.599655
0.600813
0.600638
0.599662
0.598807
0.598966
0.600329
0.60207
0.603269
0.603172
0.601688
0.599518
0.597147
0.594159
0.591138
0.581887
0.582975
0.584887
0.587216
0.589074
0.590455
0.591649
0.592609
0.593166
0.593489
0.593981
0.594668
0.59509
0.594938
0.594283
0.59334
0.591995
0.590014
0.587899
0.586419
0.576908
0.577541
0.578665
0.580412
0.582241
0.583814
0.585038
0.586064
0.586996
0.58783
0.588545
0.589001
0.589087
0.588839
0.58827
0.587272
0.585826
0.584201
0.582854
0.58205
0.57204
0.572479
0.573263
0.574555
0.576059
0.577599
0.579045
0.580297
0.581392
0.582404
0.583272
0.583799
0.583916
0.583631
0.582929
0.581899
0.580722
0.579559
0.578645
0.578109
0.567276
0.567604
0.568212
0.569268
0.570544
0.571917
0.573358
0.574782
0.576107
0.577323
0.578371
0.579021
0.57917
0.578863
0.578218
0.577395
0.576517
0.575639
0.574964
0.57457
0.562593
0.562848
0.563336
0.564234
0.565384
0.566662
0.568042
0.569511
0.571012
0.572474
0.573752
0.574554
0.574798
0.574622
0.574177
0.573581
0.572906
0.572249
0.571751
0.57145
0.557922
0.558125
0.558531
0.559318
0.560389
0.561616
0.562977
0.564483
0.566116
0.567807
0.569356
0.570395
0.570852
0.570898
0.570677
0.570291
0.569813
0.569339
0.568977
0.56874
0.553183
0.553347
0.553694
0.554408
0.55543
0.556633
0.558019
0.559601
0.561377
0.563305
0.565174
0.566546
0.567304
0.567619
0.567633
0.567461
0.56718
0.566871
0.566621
0.566432
0.548292
0.548425
0.548731
0.549398
0.550401
0.551626
0.553072
0.554769
0.556736
0.558951
0.561211
0.563002
0.564126
0.564754
0.565035
0.565089
0.565002
0.564849
0.564693
0.56454
0.543164
0.543272
0.54355
0.544198
0.545216
0.546505
0.548055
0.549922
0.552149
0.554743
0.55749
0.559774
0.561321
0.562306
0.562886
0.563181
0.563293
0.563296
0.563222
0.563097
0.537709
0.537795
0.538057
0.538709
0.53978
0.541176
0.542887
0.544993
0.547565
0.550631
0.553974
0.55686
0.558908
0.560301
0.56121
0.561785
0.562111
0.562256
0.562254
0.562151
0.531827
0.531894
0.532149
0.53283
0.533991
0.535541
0.537479
0.539907
0.542925
0.546595
0.550675
0.554275
0.55691
0.558775
0.56006
0.560943
0.561504
0.561802
0.561867
0.561782
0.525397
0.525445
0.525703
0.526434
0.527723
0.529481
0.531715
0.534551
0.538123
0.542527
0.547503
0.551981
0.555328
0.557763
0.55949
0.560715
0.561546
0.562006
0.562138
0.562068
0.518272
0.518301
0.518565
0.519368
0.520829
0.52286
0.525476
0.528829
0.533093
0.538408
0.544481
0.55001
0.554209
0.557316
0.559569
0.561201
0.562339
0.562976
0.563176
0.563119
0.510267
0.510285
0.51055
0.511453
0.513136
0.515518
0.518623
0.522635
0.527774
0.534212
0.54162
0.548424
0.553633
0.557528
0.560396
0.562515
0.563999
0.564829
0.565098
0.565051
0.501081
0.501073
0.501393
0.502436
0.504413
0.507245
0.510973
0.515827
0.522074
0.529926
0.538961
0.547273
0.553666
0.558481
0.562074
0.564763
0.566646
0.56769
0.568032
0.567993
0.490447
0.490416
0.490783
0.492011
0.494356
0.497767
0.502291
0.508198
0.51582
0.525407
0.536425
0.546541
0.554348
0.560264
0.56472
0.568075
0.570419
0.571702
0.572119
0.572084
0.477889
0.477836
0.478277
0.479749
0.482571
0.486732
0.492288
0.499564
0.508926
0.520648
0.534066
0.546343
0.555803
0.563001
0.568459
0.572585
0.575458
0.577001
0.577492
0.577457
0.462775
0.4627
0.46326
0.465076
0.468536
0.473702
0.480631
0.489695
0.501312
0.515734
0.532041
0.546816
0.558156
0.566813
0.573426
0.578427
0.581888
0.583704
0.584265
0.584226
0.44419
0.444095
0.444848
0.44716
0.451515
0.458078
0.466884
0.478336
0.492844
0.510584
0.530326
0.547994
0.561489
0.571796
0.579718
0.58571
0.589814
0.591905
0.592522
0.592471
0.420713
0.420614
0.421696
0.424778
0.430474
0.439074
0.450529
0.465225
0.483482
0.505293
0.529062
0.550014
0.565899
0.578037
0.587406
0.594508
0.599286
0.60163
0.602278
0.602205
0.39003
0.389975
0.391654
0.396077
0.404033
0.415814
0.431205
0.450409
0.473524
0.500289
0.528637
0.553142
0.571567
0.585662
0.596568
0.604837
0.61026
0.612796
0.613434
0.613327
0.348024
0.348166
0.351146
0.358351
0.370533
0.38755
0.408748
0.434005
0.463109
0.495596
0.52903
0.557383
0.578502
0.594623
0.607141
0.616597
0.622553
0.62515
0.625716
0.625566
0.287026
0.288317
0.29557
0.309183
0.329096
0.35444
0.38384
0.41681
0.453023
0.491931
0.530764
0.563015
0.586802
0.604897
0.618945
0.629428
0.635737
0.63818
0.638578
0.638394
0.213829
0.216378
0.230506
0.254006
0.284538
0.319793
0.358129
0.399313
0.443143
0.489169
0.534365
0.57157
0.598967
0.619803
0.635825
0.647498
0.654155
0.656614
0.65703
0.656951
0.13875
0.145561
0.166795
0.20019
0.241066
0.285985
0.333264
0.382752
0.434335
0.487616
0.539355
0.581681
0.612776
0.636485
0.654673
0.667429
0.674177
0.676388
0.676712
0.676709
0.0775713
0.0862208
0.112089
0.152528
0.20152
0.254653
0.310016
0.367309
0.426307
0.486541
0.544494
0.591633
0.62613
0.652343
0.672313
0.686034
0.69292
0.695065
0.695577
0.695661
0.0274083
0.0367673
0.0661516
0.111848
0.166979
0.2267
0.28888
0.353051
0.418812
0.485561
0.549384
0.601059
0.638748
0.667261
0.688905
0.703627
0.711054
0.713674
0.71431
0.714432
-0.0147345
-0.00505959
0.0267446
0.076565
0.136739
0.20194
0.269895
0.340052
0.411875
0.484609
0.553923
0.609837
0.650515
0.681246
0.70451
0.720403
0.728566
0.731528
0.732249
0.73237
-0.0512867
-0.0414558
-0.00781646
0.0453175
0.109703
0.17961
0.252598
0.328049
0.405337
0.483556
0.557986
0.617863
0.661305
0.69404
0.718744
0.73562
0.744523
0.747769
0.748584
0.748697
-0.0838845
-0.0739753
-0.0388713
0.017007
0.0849691
0.158951
0.236393
0.31662
0.398923
0.482245
0.561462
0.625075
0.671048
0.70554
0.731474
0.749146
0.758607
0.762199
0.763074
0.763181
-0.113738
-0.103765
-0.0674781
-0.0092107
0.0618561
0.139399
0.220808
0.305381
0.392321
0.48046
0.564244
0.63141
0.679743
0.715818
0.742825
0.761099
0.770972
0.774791
0.775714
0.775806
-0.14176
-0.131712
-0.0943258
-0.0339447
0.0398493
0.120531
0.20549
0.294028
0.385284
0.478007
0.566248
0.636849
0.687455
0.725009
0.752919
0.771623
0.781686
0.78566
0.78661
0.786675
-0.1685
-0.158326
-0.11993
-0.0576522
0.0185626
0.102042
0.190204
0.282367
0.37765
0.474756
0.567366
0.641397
0.694258
0.733237
0.761877
0.780834
0.790984
0.794996
0.795967
0.796024
-0.194354
-0.184001
-0.14465
-0.080637
-0.00225812
0.0837332
0.17479
0.270271
0.369314
0.47061
0.567522
0.645055
0.700255
0.740668
0.769957
0.789099
0.799293
0.803299
0.80423
0.804227
-0.219582
-0.208971
-0.168704
-0.103092
-0.0227615
0.0654768
0.159156
0.257673
0.360205
0.465505
0.566679
0.64784
0.705533
0.747437
0.777346
0.796633
0.806819
0.810756
0.811631
0.81161
-0.244243
-0.233362
-0.19222
-0.12513
-0.0430323
0.0472264
0.143267
0.244547
0.350307
0.459396
0.564796
0.649766
0.710163
0.75365
0.784194
0.803599
0.813711
0.817513
0.818292
0.818228
-0.268434
-0.257267
-0.21527
-0.146781
-0.0630984
0.0289651
0.127127
0.230907
0.339629
0.45228
0.561839
0.650805
0.714176
0.759424
0.790657
0.810123
0.820042
0.823623
0.824265
0.82415
-0.292151
-0.280691
-0.237835
-0.168053
-0.0829503
0.0107223
0.11078
0.2168
0.328209
0.444163
0.557779
0.650895
0.717558
0.764863
0.796913
0.816353
0.82589
0.829115
0.829588
0.829433
-0.315434
-0.303613
-0.259884
-0.188922
-0.102554
-0.00745432
0.094282
0.202297
0.316109
0.435079
0.552589
0.649953
0.720239
0.770044
0.803188
0.822512
0.831376
0.834046
0.834309
0.834122
-0.338038
-0.325972
-0.281387
-0.209351
-0.12185
-0.0254827
0.0777099
0.187478
0.30341
0.425094
0.546251
0.647887
0.722105
0.774963
0.809729
0.828991
0.83678
0.838513
0.83845
0.838246
-0.360117
-0.347702
-0.3023
-0.229301
-0.140795
-0.0433147
0.0611629
0.172431
0.290208
0.414296
0.538772
0.6446
0.722992
0.779473
0.816682
0.836388
0.842807
0.842886
0.842087
0.841864
-0.381479
-0.368757
-0.322599
-0.248714
-0.1593
-0.0608583
0.0447305
0.157282
0.276615
0.40276
0.530189
0.640001
0.722717
0.783281
0.823891
0.845274
0.850857
0.848564
0.845826
0.845124
-0.402219
-0.389157
-0.342218
-0.267526
-0.17732
-0.0780401
0.028504
0.142119
0.262744
0.390628
0.520572
0.633991
0.721091
0.785985
0.830705
0.855498
0.862401
0.85883
0.852436
0.84301
-0.422216
-0.408894
-0.361251
-0.285902
-0.195083
-0.095155
0.012132
0.126518
0.248124
0.37737
0.509376
0.625954
0.717619
0.787179
0.836257
0.865931
0.877247
0.874403
0.86387
0.861431
-0.441425
-0.428046
-0.379689
-0.303775
-0.212561
-0.112174
-0.00434907
0.110464
0.232728
0.36287
0.496432
0.615446