/*--------------------------------*- C++ -*----------------------------------*\
  =========                 |
  \\      /  F ield         | OpenFOAM: The Open Source CFD Toolbox
   \\    /   O peration     | Website:  https://openfoam.org
    \\  /    A nd           | Version:  6
     \\/     M anipulation  |
\*---------------------------------------------------------------------------*/
FoamFile
{
    version     2.0;
    format      ascii;
    class       volVectorField;
    location    "23.1";
    object      U;
}
// * * * * * * * * * * * * * * * * * * * * * * * * * * * * * * * * * * * * * //

dimensions      [0 1 -1 0 0 0 0];

internalField   nonuniform List<vector> 
8800
(
(0.987189 -0.0766642 0)
(1.0019 -0.0551859 0)
(0.999749 -0.0285409 0)
(1.00005 -0.0151289 0)
(1.00004 -0.00851576 0)
(1.00001 -0.00501263 0)
(1 -0.00298243 0)
(0.999988 -0.00171708 0)
(0.999975 -0.000844332 0)
(1.00005 -0.000141399 0)
(0.999975 0.000584661 0)
(0.999986 0.001353 0)
(0.999999 0.00237184 0)
(1.00001 0.00394743 0)
(1.00002 0.00658239 0)
(1.00006 0.0113319 0)
(0.999977 0.0207856 0)
(0.999171 0.038647 0)
(1.00709 0.0724472 0)
(0.771217 0.0366587 0)
(0.363062 -0.0160173 0)
(1.04331 -0.0768208 0)
(1.08462 -0.0704639 0)
(1.04524 -0.0535792 0)
(1.02326 -0.0389487 0)
(1.01192 -0.0262852 0)
(1.00628 -0.0168967 0)
(1.00346 -0.0103778 0)
(1.00207 -0.00574367 0)
(1.00146 -0.0021394 0)
(1.00135 0.00104244 0)
(1.00167 0.00438188 0)
(1.00261 0.00835171 0)
(1.00459 0.0137448 0)
(1.00859 0.021531 0)
(1.0166 0.0325243 0)
(1.03259 0.0464443 0)
(1.06278 0.0615717 0)
(1.09191 0.0760153 0)
(0.8388 0.0565281 0)
(0.216842 -0.00242682 0)
(1.07591 -0.0501257 0)
(1.09989 -0.0482925 0)
(1.0646 -0.0404098 0)
(1.03989 -0.033525 0)
(1.02371 -0.0260439 0)
(1.01399 -0.0185878 0)
(1.0085 -0.0118749 0)
(1.00561 -0.00607645 0)
(1.00437 -0.000747331 0)
(1.00475 0.00443638 0)
(1.00669 0.0098196 0)
(1.01066 0.01593 0)
(1.01795 0.022929 0)
(1.03057 0.0303691 0)
(1.05074 0.0374607 0)
(1.08052 0.0442295 0)
(1.1065 0.0511309 0)
(0.942945 0.0415086 0)
(0.21644 0.00244477 0)
(0.175193 -0.000811058 0)
(1.01771 -0.0354312 0)
(1.10521 -0.0413355 0)
(1.07825 -0.0360779 0)
(1.05328 -0.0301844 0)
(1.03587 -0.0245942 0)
(1.02365 -0.0188921 0)
(1.0156 -0.0129301 0)
(1.01084 -0.00690022 0)
(1.00874 -0.000749326 0)
(1.00933 0.00533419 0)
(1.01258 0.0112768 0)
(1.01879 0.0171196 0)
(1.02873 0.0227853 0)
(1.04332 0.0282108 0)
(1.06401 0.0337601 0)
(1.09393 0.0397576 0)
(1.09392 0.041587 0)
(0.828157 0.0227388 0)
(0.17452 0.000831585 0)
(0.154068 -0.000602879 0)
(0.956359 -0.0253511 0)
(1.10337 -0.0349527 0)
(1.08738 -0.0324324 0)
(1.06136 -0.027787 0)
(1.04373 -0.0228466 0)
(1.03129 -0.0177593 0)
(1.02249 -0.0124986 0)
(1.01678 -0.00679863 0)
(1.0141 -0.000517258 0)
(1.01483 0.00582348 0)
(1.01881 0.0116081 0)
(1.02585 0.0168124 0)
(1.03625 0.0217169 0)
(1.05091 0.0264983 0)
(1.07217 0.0310978 0)
(1.10055 0.0351771 0)
(1.06914 0.0334597 0)
(0.741528 0.0140642 0)
(0.153062 0.000626174 0)
(0.139823 -0.000455532 0)
(0.899858 -0.0188736 0)
(1.09591 -0.0297951 0)
(1.09565 -0.0288741 0)
(1.06884 -0.0251244 0)
(1.05018 -0.0210896 0)
(1.03732 -0.0165866 0)
(1.02833 -0.0115926 0)
(1.02231 -0.00616159 0)
(1.01933 -0.000112791 0)
(1.02008 0.005958 0)
(1.02429 0.0114458 0)
(1.03149 0.0163526 0)
(1.04204 0.0207744 0)
(1.05736 0.0247329 0)
(1.07989 0.0283113 0)
(1.10335 0.031109 0)
(1.03809 0.0272937 0)
(0.676416 0.00985458 0)
(0.138411 0.000482222 0)
(0.129482 -0.000344885 0)
(0.850997 -0.0143139 0)
(1.08347 -0.0253343 0)
(1.10092 -0.0257069 0)
(1.07537 -0.0226651 0)
(1.05622 -0.0191802 0)
(1.04275 -0.0151119 0)
(1.03332 -0.0104561 0)
(1.02709 -0.00531219 0)
(1.02394 0.000360807 0)
(1.02463 0.00604134 0)
(1.02887 0.0111514 0)
(1.03625 0.0156452 0)
(1.04729 0.0196122 0)
(1.06312 0.0229939 0)
(1.08594 0.0259027 0)
(1.10267 0.0276798 0)
(1.00462 0.0223348 0)
(0.626677 0.00733406 0)
(0.127579 0.000376486 0)
(0.121796 -0.000256795 0)
(0.810345 -0.010934 0)
(1.06871 -0.0212817 0)
(1.10419 -0.0223538 0)
(1.08109 -0.0195415 0)
(1.06157 -0.0164608 0)
(1.04781 -0.01304 0)
(1.03797 -0.00904741 0)
(1.03141 -0.00439711 0)
(1.0281 0.000953381 0)
(1.02867 0.00631486 0)
(1.03295 0.0109317 0)
(1.04057 0.014738 0)
(1.05186 0.0179059 0)
(1.06791 0.0206221 0)
(1.09113 0.0232706 0)
(1.09966 0.0244736 0)
(0.971914 0.0182836 0)
(0.588037 0.00561212 0)
(0.119296 0.000295086 0)
(0.116066 -0.000186999 0)
(0.777194 -0.00817149 0)
(1.05287 -0.017448 0)
(1.10648 -0.0193149 0)
(1.08644 -0.0169896 0)
(1.06628 -0.0140784 0)
(1.05225 -0.0109986 0)
(1.04232 -0.00743048 0)
(1.03557 -0.00320155 0)
(1.03207 0.00166888 0)
(1.03249 0.00646237 0)
(1.03673 0.0105258 0)
(1.04432 0.0137817 0)
(1.05557 0.0163991 0)
(1.07202 0.0187893 0)
(1.09531 0.0211073 0)
(1.09436 0.0214733 0)
(0.941277 0.0147513 0)
(0.557773 0.00428847 0)
(0.11284 0.000233403 0)
(0.11197 -0.000127736 0)
(0.751191 -0.00592564 0)
(1.03712 -0.0137745 0)
(1.10739 -0.0161073 0)
(1.09121 -0.0144505 0)
(1.07087 -0.0120053 0)
(1.05674 -0.00908531 0)
(1.04682 -0.0056531 0)
(1.04 -0.00179069 0)
(1.03624 0.0025642 0)
(1.03653 0.00681803 0)
(1.04061 0.0102484 0)
(1.04793 0.0130869 0)
(1.05906 0.0154799 0)
(1.07567 0.017404 0)
(1.098 0.0189568 0)
(1.08695 0.018475 0)
(0.913876 0.0117461 0)
(0.534324 0.00328031 0)
(0.107854 0.000185103 0)
(0.109141 -7.91618e-05 0)
(0.731597 -0.00393678 0)
(1.02277 -0.0102003 0)
(1.10718 -0.0126245 0)
(1.09489 -0.0112924 0)
(1.07452 -0.00906886 0)
(1.05996 -0.00662564 0)
(1.04966 -0.00378311 0)
(1.04268 -0.000357722 0)
(1.03889 0.00361294 0)
(1.0388 0.00740811 0)
(1.04251 0.0102838 0)
(1.04984 0.0123684 0)
(1.06119 0.0139181 0)
(1.0779 0.01529 0)
(1.09882 0.0164078 0)
(1.07828 0.0153843 0)
(0.890284 0.00906821 0)
(0.516318 0.00243024 0)
(0.103926 0.000149878 0)
(0.107623 -1.94532e-05 0)
(0.71835 -0.00199048 0)
(1.01071 -0.0065297 0)
(1.10655 -0.00886851 0)
(1.09845 -0.00791825 0)
(1.07807 -0.00611922 0)
(1.0635 -0.00408364 0)
(1.05325 -0.0014992 0)
(1.04609 0.00152195 0)
(1.04192 0.00491947 0)
(1.04152 0.00800589 0)
(1.045 0.0102053 0)
(1.05196 0.0116419 0)
(1.06299 0.0126035 0)
(1.07983 0.0134144 0)
(1.09891 0.0139163 0)
(1.06919 0.0122878 0)
(0.870835 0.00651194 0)
(0.503454 0.00164453 0)
(0.101055 0.000107634 0)
(0.107377 2.39196e-05 0)
(0.710748 -0.000537827 0)
(1.00103 -0.0034899 0)
(1.10504 -0.00577755 0)
(1.10081 -0.00546078 0)
(1.08083 -0.00409117 0)
(1.06629 -0.00221289 0)
(1.05605 0.00032411 0)
(1.04893 0.0032624 0)
(1.04453 0.00646002 0)
(1.04365 0.0092226 0)
(1.0465 0.0110578 0)
(1.05298 0.012212 0)
(1.06368 0.0127056 0)
(1.08015 0.0128014 0)
(1.09723 0.0123658 0)
(1.05943 0.00988939 0)
(0.855214 0.00469459 0)
(0.494657 0.00116687 0)
(0.0991218 7.75722e-05 0)
(0.107996 6.56286e-05 0)
(0.707518 0.000326019 0)
(0.993999 -0.00121301 0)
(1.1028 -0.00300507 0)
(1.10227 -0.00284404 0)
(1.0832 -0.00173809 0)
(1.06898 -2.40103e-05 0)
(1.05873 0.00240513 0)
(1.05129 0.0052741 0)
(1.04643 0.00833518 0)
(1.04503 0.0108899 0)
(1.04745 0.0122765 0)
(1.0535 0.0127108 0)
(1.0636 0.0126232 0)
(1.07937 0.0122818 0)
(1.09397 0.0113288 0)
(1.04944 0.0084061 0)
(0.842791 0.00391348 0)
(0.487946 0.00106051 0)
(0.0976475 7.13972e-05 0)
(0.109095 8.24978e-05 0)
(0.707054 0.000805186 0)
(0.990155 0.000243309 0)
(1.10136 -0.00065408 0)
(1.10373 -0.00026807 0)
(1.08562 0.000900812 0)
(1.07175 0.00264461 0)
(1.0617 0.00506342 0)
(1.05421 0.00781697 0)
(1.049 0.0106558 0)
(1.04682 0.0128402 0)
(1.04828 0.0137364 0)
(1.0534 0.0137108 0)
(1.06284 0.0130765 0)
(1.07801 0.0122046 0)
(1.09011 0.0108735 0)
(1.0401 0.0079545 0)
(0.832284 0.00402512 0)
(0.481457 0.00119564 0)
(0.0961363 8.41736e-05 0)
(0.110509 9.95645e-05 0)
(0.707877 0.00115355 0)
(0.988822 0.00108525 0)
(1.10152 0.0010392 0)
(1.10585 0.00218257 0)
(1.08824 0.00376528 0)
(1.0743 0.00586207 0)
(1.06414 0.00828911 0)
(1.05629 0.0109753 0)
(1.05049 0.0135446 0)
(1.04747 0.0152077 0)
(1.04816 0.0155863 0)
(1.05263 0.015085 0)
(1.06124 0.0141105 0)
(1.07585 0.0129247 0)
(1.08609 0.011393 0)
(1.03164 0.00866031 0)
(0.821795 0.00463425 0)
(0.474124 0.00142421 0)
(0.0943172 0.000107865 0)
(0.112288 0.000122679 0)
(0.709846 0.00165144 0)
(0.988571 0.00186026 0)
(1.10298 0.00200182 0)
(1.10932 0.00341981 0)
(1.09168 0.00545968 0)
(1.07752 0.00815017 0)
(1.06709 0.0111317 0)
(1.05885 0.0142383 0)
(1.05225 0.0170689 0)
(1.0482 0.0186915 0)
(1.04784 0.0188437 0)
(1.05139 0.0178697 0)
(1.05958 0.0165605 0)
(1.07348 0.0152079 0)
(1.08202 0.013683 0)
(1.02237 0.0102208 0)
(0.809746 0.00529727 0)
(0.465706 0.00166269 0)
(0.0920831 0.000135591 0)
(0.114619 0.000155762 0)
(0.713493 0.00238265 0)
(0.98848 0.00316554 0)
(1.10424 0.00293051 0)
(1.11286 0.00392966 0)
(1.0959 0.00608918 0)
(1.08154 0.00940488 0)
(1.07078 0.0133571 0)
(1.06192 0.0175581 0)
(1.05422 0.0213787 0)
(1.04892 0.0237314 0)
(1.04736 0.0243192 0)
(1.04978 0.0236455 0)
(1.05708 0.0221454 0)
(1.07065 0.0201163 0)
(1.07606 0.0172276 0)
(1.00979 0.0117879 0)
(0.795992 0.00581999 0)
(0.456352 0.00190506 0)
(0.0894108 0.000163795 0)
(0.117734 0.000204962 0)
(0.720003 0.00344955 0)
(0.989239 0.00533351 0)
(1.10411 0.0046981 0)
(1.11575 0.00522554 0)
(1.10052 0.00724555 0)
(1.08665 0.0112183 0)
(1.07583 0.0163771 0)
(1.06614 0.0218443 0)
(1.05707 0.0267851 0)
(1.05028 0.029932 0)
(1.04733 0.0308683 0)
(1.04832 0.0302238 0)
(1.05395 0.028362 0)
(1.06545 0.0253092 0)
(1.06547 0.0201236 0)
(0.993644 0.0128312 0)
(0.781307 0.00637764 0)
(0.446032 0.00220026 0)
(0.0862732 0.000194672 0)
(0.121962 0.00028041 0)
(0.730383 0.00486261 0)
(0.992708 0.00813964 0)
(1.10323 0.0086201 0)
(1.11803 0.00867378 0)
(1.1054 0.0108112 0)
(1.09306 0.0156915 0)
(1.08203 0.0218274 0)
(1.0712 0.0281488 0)
(1.06041 0.0336457 0)
(1.05172 0.0367961 0)
(1.04704 0.0372864 0)
(1.04624 0.0359056 0)
(1.04976 0.0331916 0)
(1.05679 0.0285906 0)
(1.05091 0.0216839 0)
(0.976148 0.013685 0)
(0.766162 0.00718701 0)
(0.434379 0.00257787 0)
(0.0826048 0.000228679 0)
(0.127693 0.000381377 0)
(0.745427 0.0065917 0)
(1.00063 0.0116353 0)
(1.10481 0.0139449 0)
(1.12049 0.0150261 0)
(1.11146 0.0183488 0)
(1.10035 0.0238521 0)
(1.08888 0.0304639 0)
(1.07658 0.0370325 0)
(1.0636 0.0422736 0)
(1.05254 0.044539 0)
(1.04572 0.0437356 0)
(1.04282 0.0408063 0)
(1.04343 0.0365057 0)
(1.04569 0.0305173 0)
(1.03519 0.0230104 0)
(0.959032 0.0151803 0)
(0.749995 0.00847391 0)
(0.420727 0.00310222 0)
(0.0782844 0.000273309 0)
(0.135377 0.00052187 0)
(0.765712 0.00884939 0)
(1.01409 0.0158696 0)
(1.11139 0.0203362 0)
(1.12597 0.0236802 0)
(1.11892 0.0286982 0)
(1.10835 0.0351001 0)
(1.09598 0.0420957 0)
(1.08173 0.0485388 0)
(1.06604 0.0529415 0)
(1.05212 0.0535997 0)
(1.04266 0.0508247 0)
(1.0373 0.0459982 0)
(1.03487 0.0399083 0)
(1.03344 0.0329717 0)
(1.01977 0.0253854 0)
(0.942087 0.0176697 0)
(0.731718 0.0102731 0)
(0.404375 0.00377497 0)
(0.0731392 0.000327123 0)
(0.14575 0.000738205 0)
(0.792397 0.0121058 0)
(1.03386 0.0214067 0)
(1.12354 0.0281406 0)
(1.13582 0.0340344 0)
(1.12859 0.0411438 0)
(1.11731 0.0489311 0)
(1.10317 0.0565418 0)
(1.08629 0.0627851 0)
(1.06727 0.066027 0)
(1.04997 0.0646782 0)
(1.03761 0.0596572 0)
(1.0296 0.0527873 0)
(1.02449 0.045097 0)
(1.02041 0.0372759 0)
(1.00439 0.0294111 0)
(0.924 0.0212143 0)
(0.710368 0.0125379 0)
(0.384724 0.00455281 0)
(0.0670064 0.000383298 0)
(0.16006 0.00108059 0)
(0.8273 0.0169335 0)
(1.06077 0.0289872 0)
(1.14147 0.0381104 0)
(1.15034 0.0468335 0)
(1.14115 0.0563913 0)
(1.12761 0.0658875 0)
(1.11052 0.0742644 0)
(1.09009 0.0801986 0)
(1.06706 0.0819836 0)
(1.04592 0.0783507 0)
(1.03042 0.0709557 0)
(1.01973 0.0619817 0)
(1.01231 0.0527 0)
(1.00619 0.0438209 0)
(0.987924 0.0352303 0)
(0.903235 0.0258968 0)
(0.684537 0.0153678 0)
(0.36102 0.00550075 0)
(0.0597971 0.000450187 0)
(0.180493 0.00169397 0)
(0.873563 0.0245834 0)
(1.09656 0.0402816 0)
(1.16578 0.0520893 0)
(1.16981 0.0641913 0)
(1.15685 0.0762775 0)
(1.13932 0.087384 0)
(1.11788 0.0962128 0)
(1.09288 0.101384 0)
(1.06516 0.101228 0)
(1.03983 0.0949442 0)
(1.02103 0.0849915 0)
(1.00769 0.0738506 0)
(0.998124 0.0628416 0)
(0.99014 0.0526232 0)
(0.969254 0.0428507 0)
(0.878415 0.0317701 0)
(0.653163 0.0188411 0)
(0.332691 0.00661922 0)
(0.0514156 0.000517163 0)
(0.210345 0.00307499 0)
(0.936991 0.0379856 0)
(1.14322 0.0592363 0)
(1.19716 0.0737093 0)
(1.1939 0.0895157 0)
(1.17501 0.103498 0)
(1.15169 0.115242 0)
(1.12457 0.123505 0)
(1.09414 0.126983 0)
(1.06126 0.124099 0)
(1.03153 0.114629 0)
(1.00936 0.101859 0)
(0.993405 0.0884419 0)
(0.981728 0.0755708 0)
(0.971754 0.0638077 0)
(0.947307 0.0525644 0)
(0.848146 0.0391319 0)
(0.615173 0.02307 0)
(0.299915 0.00796145 0)
(0.0421586 0.000576822 0)
(0.25158 0.00948062 -2.12118e-21)
(1.02086 0.0650668 -1.57453e-21)
(1.19834 0.0919079 4.13292e-22)
(1.23385 0.109416 0)
(1.21989 0.126742 -2.36384e-36)
(1.19342 0.140609 6.65251e-23)
(1.1632 0.151199 -3.14138e-22)
(1.1296 0.157553 0)
(1.09312 0.158385 1.07328e-35)
(1.05457 0.152163 -7.94785e-22)
(1.01999 0.139211 0)
(0.994039 0.12355 -1.12134e-21)
(0.975075 0.107873 -3.4215e-21)
(0.960858 0.093244 -1.65331e-21)
(0.94829 0.0801234 -5.18956e-22)
(0.919732 0.0676625 -3.139e-22)
(0.809168 0.0512206 0)
(0.567185 0.0304469 2.25038e-22)
(0.262142 0.0115529 2.67205e-22)
(0.0335881 0.00128587 4.79911e-21)
(0.278416 0.0253394 -4.33937e-21)
(1.08995 0.1086 1.03295e-22)
(1.24478 0.13967 -2.32193e-22)
(1.26688 0.158558 0)
(1.2432 0.174427 2.58795e-22)
(1.20939 0.186592 4.95579e-23)
(1.17228 0.195325 -2.26954e-22)
(1.13204 0.199525 -1.45145e-21)
(1.089 0.197823 0)
(1.04388 0.18857 3.37384e-21)
(1.00332 0.172528 3.69439e-21)
(0.972335 0.154324 1.18094e-21)
(0.949136 0.136667 4.63095e-21)
(0.931216 0.120375 6.79046e-21)
(0.914534 0.10572 0)
(0.879164 0.0912845 1.00562e-20)
(0.761194 0.0716327 1.46793e-20)
(0.518487 0.0453323 1.64392e-20)
(0.232908 0.0197763 -1.89832e-20)
(0.0281712 0.00241298 -3.55576e-22)
(0.277155 0.0417232 0)
(1.13196 0.165011 -1.38602e-21)
(1.27821 0.199152 0)
(1.29238 0.217682 2.08204e-21)
(1.26145 0.230004 0)
(1.22127 0.238805 7.995e-22)
(1.17786 0.244338 3.1362e-22)
(1.13146 0.245357 -2.28481e-21)
(1.08235 0.240419 -3.15267e-22)
(1.03106 0.227831 1.65146e-21)
(0.984937 0.208754 8.59529e-21)
(0.94942 0.188327 -6.09501e-23)
(0.922435 0.169221 -3.47636e-21)
(0.901186 0.151969 -6.7184e-21)
(0.881493 0.136622 8.13264e-21)
(0.844231 0.121213 -1.46231e-20)
(0.731776 0.0981648 -2.0007e-21)
(0.504629 0.0665014 0)
(0.239002 0.0317179 1.27997e-23)
(0.032365 0.00451423 0)
(0.269193 0.0556144 -3.55017e-20)
(1.15291 0.22483 1.4468e-20)
(1.29949 0.263778 7.60844e-21)
(1.3091 0.281522 -1.40527e-21)
(1.27322 0.289953 2.12628e-21)
(1.2282 0.294838 -2.03419e-21)
(1.17967 0.296522 4.92415e-22)
(1.12797 0.293818 0)
(1.07351 0.285217 -6.69714e-21)
(1.01677 0.269022 0)
(0.965711 0.246858 -4.41031e-21)
(0.926319 0.224393 -6.13432e-21)
(0.896236 0.204055 -3.90164e-21)
(0.872518 0.186182 -5.01115e-21)
(0.850986 0.170299 0)
(0.814396 0.154087 0)
(0.71288 0.128877 -1.34605e-20)
(0.50647 0.0920707 2.69409e-21)
(0.253685 0.0468092 -1.56782e-21)
(0.0385959 0.00753194 -1.85528e-21)
(0.261006 0.0680601 2.6617e-20)
(1.16059 0.284301 0)
(1.31151 0.329846 -2.15815e-20)
(1.31815 0.346529 -5.38787e-21)
(1.27872 0.351326 -3.90911e-21)
(1.2301 0.352331 0)
(1.17762 0.350126 -2.02793e-22)
(1.12164 0.343562 2.16016e-21)
(1.0626 0.331172 3.00939e-21)
(1.00122 0.311211 8.35018e-21)
(0.946015 0.285907 0)
(0.903504 0.261342 -1.33999e-20)
(0.871096 0.239825 -8.54083e-21)
(0.845578 0.221335 -5.14779e-21)
(0.822969 0.205267 3.36062e-20)
(0.78798 0.188509 4.12582e-21)
(0.69723 0.161807 1.97036e-20)
(0.509253 0.119035 -9.50248e-20)
(0.265803 0.0634533 5.66224e-20)
(0.0437906 0.0108454 -6.91266e-20)
(0.253719 0.0792602 2.8371e-20)
(1.16004 0.341646 -5.18213e-21)
(1.31652 0.395197 3.84445e-21)
(1.32112 0.410977 1.02869e-20)
(1.2791 0.412419 6.13818e-21)
(1.22774 0.409733 3.39739e-22)
(1.17211 0.403812 1.04546e-22)
(1.11263 0.393493 1.77753e-21)
(1.04981 0.377332 -6.61305e-21)
(0.984471 0.353591 0)
(0.925837 0.325054 -5.78135e-21)
(0.880858 0.298248 -3.09362e-22)
(0.846798 0.27538 -9.56173e-21)
(0.820185 0.256185 0)
(0.797127 0.239853 -7.34528e-21)
(0.763998 0.222813 -1.78835e-20)
(0.681241 0.195004 4.93777e-20)
(0.507396 0.14602 -4.9188e-20)
(0.270765 0.0793727 7.01351e-20)
(0.0467037 0.0139428 -7.38784e-20)
(0.247907 0.0897201 -1.07437e-22)
(1.15458 0.396288 6.4092e-21)
(1.3163 0.458497 1.85188e-20)
(1.31943 0.47376 -6.37344e-21)
(1.27543 0.472203 3.53319e-21)
(1.22193 0.466105 0)
(1.16378 0.456689 1.32077e-21)
(1.10137 0.442828 -1.53221e-21)
(1.03533 0.423007 -3.09237e-21)
(0.966566 0.395522 0)
(0.905 0.36366 -5.6934e-21)
(0.85805 0.334431 -7.91586e-21)
(0.822822 0.309924 1.04723e-20)
(0.795632 0.289761 -6.68331e-21)
(0.772621 0.272808 -3.2409e-20)
(0.741337 0.255141 1.99173e-20)
(0.664811 0.225522 6.25715e-21)
(0.500319 0.170154 0)
(0.269548 0.0926941 -6.82196e-20)
(0.0472084 0.0163893 -2.53777e-21)
(0.243503 0.0997271 4.70717e-21)
(1.14628 0.448053 -7.41368e-21)
(1.31226 0.519185 -1.01613e-20)
(1.31423 0.534275 -1.95924e-20)
(1.26872 0.530059 1.73787e-20)
(1.21351 0.520882 -8.82892e-21)
(1.15325 0.508255 -2.75982e-21)
(1.08835 0.491065 -2.30675e-21)
(1.01949 0.46776 2.87363e-21)
(0.947696 0.436593 -2.05268e-20)
(0.883477 0.401296 -6.95746e-21)
(0.834763 0.369417 0)
(0.798697 0.342967 1.14619e-20)
(0.771301 0.321423 1.41544e-20)
(0.748621 0.303468 1.74148e-20)
(0.718938 0.2848 -2.17404e-20)
(0.646856 0.252836 -6.5472e-21)
(0.488586 0.190755 7.77166e-21)
(0.263617 0.103289 0)
(0.0461972 0.0181702 -5.53149e-21)
(0.240282 0.109379 -5.49855e-20)
(1.13661 0.497026 3.41014e-20)
(1.30551 0.577049 1.12292e-20)
(1.30641 0.592151 -1.50511e-20)
(1.25969 0.585593 1.05072e-20)
(1.2031 0.573675 -7.96594e-22)
(1.14109 0.558158 2.60946e-21)
(1.07405 0.53791 -9.43757e-22)
(1.00267 0.511333 -5.55199e-21)
(0.928049 0.476602 3.91807e-23)
(0.861418 0.437832 -2.08834e-20)
(0.811244 0.403024 2.01191e-20)
(0.774463 0.37426 -1.28371e-20)
(0.746992 0.350927 1.59409e-20)
(0.724701 0.331625 0)
(0.696341 0.311584 -1.18084e-20)
(0.627214 0.276652 -2.25095e-22)
(0.47316 0.207993 -3.40048e-20)
(0.253857 0.111093 -5.03826e-21)
(0.0439533 0.0192222 0)
(0.238079 0.118855 0)
(1.12635 0.543448 3.71503e-20)
(1.29682 0.632033 2.63391e-20)
(1.29671 0.647243 1.70675e-20)
(1.249 0.638605 1.00374e-20)
(1.19127 0.624273 0)
(1.12779 0.606176 2.95556e-21)
(1.05886 0.583159 -2.45194e-22)
(0.985183 0.55358 1.18234e-20)
(0.907973 0.515452 -2.55544e-21)
(0.839025 0.473165 -1.52991e-20)
(0.787381 0.435305 1.01119e-20)
(0.749864 0.403961 -3.98337e-22)
(0.722289 0.378493 1.68095e-20)
(0.700417 0.357457 1.09515e-20)
(0.67304 0.335581 -2.57015e-20)
(0.605738 0.297112 3.10761e-20)
(0.454702 0.221714 9.29831e-21)
(0.241187 0.116453 3.85968e-20)
(0.0407887 0.0196158 -1.04442e-19)
(0.23676 0.128259 -1.42336e-20)
(1.11602 0.58748 2.15392e-20)
(1.28683 0.684169 -1.65645e-20)
(1.28571 0.699501 -1.99476e-20)
(1.23717 0.689006 0)
(1.17849 0.672553 8.05417e-21)
(1.11373 0.652177 -8.34161e-21)
(1.04315 0.62669 1.08245e-21)
(0.967362 0.5944 0)
(0.887621 0.553069 -3.93069e-20)
(0.816208 0.50735 4.17223e-20)
(0.762948 0.466194 0)
(0.724729 0.43201 1.51949e-20)
(0.697041 0.404201 -3.99054e-22)
(0.675505 0.381105 -3.4688e-20)
(0.648749 0.356995 1.36575e-20)
(0.58237 0.314427 0)
(0.433706 0.232037 5.03775e-20)
(0.226265 0.119477 0)
(0.0370512 0.0194046 -4.97326e-20)
(0.236135 0.137607 1.59176e-20)
(1.10597 0.629275 2.47072e-20)
(1.27599 0.733475 -1.73759e-20)
(1.27384 0.74893 0)
(1.2246 0.736787 1.40743e-20)
(1.16513 0.718473 0)
(1.09927 0.696085 1.14387e-20)
(1.0272 0.668424 9.28486e-22)
(0.949412 0.633723 1.38717e-21)
(0.867101 0.589487 -1.94334e-20)
(0.793153 0.540407 4.07746e-21)
(0.738097 0.495931 0)
(0.698993 0.458631 -3.23507e-20)
(0.671116 0.428126 4.11652e-22)
(0.649808 0.402711 0)
(0.623337 0.375949 4.83724e-22)
(0.55704 0.328643 4.57401e-20)
(0.410182 0.238924 -4.40069e-20)
(0.209402 0.120069 1.30558e-20)
(0.0328187 0.0185752 0)
(0.235859 0.14678 0)
(1.09629 0.668983 2.77292e-20)
(1.26463 0.780049 2.04982e-20)
(1.26145 0.795588 -4.5099e-22)
(1.21163 0.781972 8.91883e-21)
(1.15149 0.762031 1.91069e-20)
(1.08466 0.737885 -3.61612e-21)
(1.01123 0.70833 -3.90439e-23)
(0.931549 0.67153 7.64603e-21)
(0.846698 0.624709 -3.04153e-20)
(0.770059 0.5725 -6.50707e-22)
(0.712945 0.524608 -1.3321e-20)
(0.672625 0.484033 5.30026e-20)
(0.6444 0.450557 -4.89734e-22)
(0.623226 0.422454 -2.73195e-20)
(0.596704 0.392555 -4.98986e-20)
(0.529793 0.339874 0)
(0.38438 0.242535 0)
(0.190856 0.11815 1.42553e-20)
(0.0282669 0.0171758 -8.46027e-21)
(0.236051 0.155914 1.99292e-20)
(1.08717 0.706353 -6.08956e-20)
(1.25303 0.823979 -2.20074e-20)
(1.24882 0.839542 0)
(1.19851 0.824614 -3.18518e-22)
(1.13779 0.803253 2.32193e-20)
(1.07013 0.777583 -1.26113e-20)
(0.995476 0.746411 -3.91592e-21)
(0.914017 0.707832 8.36841e-21)
(0.826639 0.658792 -2.36195e-20)
(0.747051 0.603697 -3.5436e-20)
(0.687519 0.5525 3.55544e-20)
(0.64571 0.508412 0)
(0.616861 0.471629 -1.22973e-20)
(0.595686 0.440506 -2.99638e-20)
(0.568782 0.406922 -3.61323e-20)
(0.500571 0.34802 -4.37898e-20)
(0.356387 0.242741 1.30981e-20)
(0.170747 0.113607 -7.71237e-21)
(0.0234004 0.015207 7.90544e-23)
(0.236344 0.164788 0)
(1.07863 0.741993 0)
(1.24137 0.865358 5.33847e-22)
(1.23615 0.880881 0)
(1.18542 0.864795 -3.38189e-20)
(1.12423 0.842193 -2.07053e-20)
(1.05588 0.815208 0)
(0.980118 0.782681 -1.23347e-21)
(0.896991 0.742627 1.14531e-20)
(0.807052 0.691756 -5.42977e-20)
(0.724327 0.634136 0)
(0.661977 0.579749 -2.28128e-20)
(0.618201 0.531997 -5.99482e-22)
(0.588438 0.491576 -4.92259e-22)
(0.567096 0.456982 3.19997e-20)
(0.539486 0.419057 -8.32874e-23)
(0.469357 0.35307 -9.50397e-20)
(0.326106 0.239364 2.84696e-20)
(0.149233 0.106475 8.47143e-21)
(0.0183624 0.0127317 0)
(0.236686 0.173417 -7.38489e-20)
(1.07041 0.775859 -3.75682e-20)
(1.22975 0.904274 -5.56107e-20)
(1.22359 0.919708 7.66912e-20)
(1.17253 0.902582 -6.37221e-20)
(1.11096 0.878907 0)
(1.04202 0.850804 -1.10742e-20)
(0.965286 0.817155 2.22612e-21)
(0.880585 0.775927 7.65089e-22)
(0.788125 0.723616 4.25453e-21)
(0.702076 0.663899 4.4651e-20)
(0.636508 0.606577 -7.82751e-21)
(0.590188 0.555114 -3.27779e-20)
(0.559021 0.510647 -1.46007e-20)
(0.537298 0.471977 1.77806e-20)
(0.508742 0.428853 -6.20144e-23)
(0.436303 0.354735 2.59977e-20)
(0.293706 0.232181 -6.17132e-20)
(0.126866 0.0969293 7.35903e-20)
(0.0133844 0.00991309 1.08193e-20)
(0.236791 0.181729 2.72247e-20)
(1.06253 0.80803 -2.06317e-20)
(1.2183 0.940836 1.24902e-21)
(1.21126 0.956139 4.35462e-20)
(1.15994 0.938076 1.49908e-20)
(1.09807 0.913459 4.16137e-20)
(1.02867 0.884409 -5.02239e-21)
(0.951074 0.849847 1.10305e-20)
(0.864924 0.807732 -8.28404e-21)
(0.770009 0.754381 -3.00428e-20)
(0.680493 0.693037 0)
(0.611272 0.633157 -3.51796e-20)
(0.561807 0.578063 4.7599e-20)
(0.528522 0.529223 0)
(0.505988 0.485558 -3.80857e-20)
(0.476285 0.435911 2.35109e-20)
(0.401497 0.352435 -2.80886e-20)
(0.26026 0.221086 -3.36752e-20)
(0.104714 0.0854982 -5.97865e-20)
(0.0087352 0.00694163 -4.72331e-20)
(0.237173 0.189804 -3.00372e-20)
(1.05485 0.838494 2.20856e-20)
(1.20709 0.975118 5.23016e-20)
(1.19923 0.990258 6.00523e-20)
(1.14773 0.971363 -3.14193e-20)
(1.08565 0.945932 2.8921e-20)
(1.01588 0.916075 -1.5609e-20)
(0.937562 0.880802 1.41628e-20)
(0.850091 0.838063 -3.68834e-21)
(0.752821 0.784062 2.9117e-20)
(0.659745 0.721602 9.54336e-20)
(0.58652 0.659593 0)
(0.533208 0.601191 0)
(0.496838 0.547777 -1.69092e-20)
(0.47265 0.497906 0)
(0.441514 0.439598 5.11342e-20)
(0.364995 0.345004 6.12327e-20)
(0.226978 0.205585 0)
(0.08416 0.0726212 0)
(0.00475267 0.00409058 5.12773e-20)
(0.237182 0.197347 3.32635e-20)
(1.04739 0.86725 2.66464e-20)
(1.19618 1.00724 3.76938e-20)
(1.18757 1.02219 -5.38638e-20)
(1.13595 1.00254 -3.51848e-20)
(1.07375 0.976396 -3.85836e-20)
(1.00372 0.94586 2.32761e-20)
(0.924801 0.910046 9.33421e-23)
(0.836152 0.86692 -9.8971e-22)
(0.736651 0.812639 -1.2127e-21)
(0.640015 0.749596 4.85048e-20)
(0.562466 0.685984 0)
(0.504692 0.624753 4.82059e-20)
(0.464004 0.566957 3.57685e-20)
(0.43658 0.509659 9.07886e-20)
(0.403071 0.439295 2.76368e-20)
(0.32628 0.330125 -3.36293e-20)
(0.196356 0.183535 -1.97618e-20)
(0.0693421 0.0582207 0)
(0.00242419 0.00167121 5.56001e-20)
(0.23749 0.204836 -7.34732e-20)
(1.04012 0.894411 0)
(1.18557 1.03727 4.23198e-20)
(1.1763 1.05203 -4.42942e-20)
(1.12466 1.03171 4.00541e-20)
(1.06238 1.00493 5.66823e-20)
(0.992218 0.97382 -5.44524e-20)
(0.912817 0.937615 3.60947e-22)
(0.823131 0.894311 0)
(0.721573 0.840068 -2.79603e-20)
(0.621455 0.776989 -1.01273e-19)
(0.539362 0.712365 4.85701e-21)
(0.476613 0.648912 6.57795e-20)
(0.430292 0.587407 0)
(0.397147 0.521989 6.1442e-20)
(0.358658 0.43547 0)
(0.281891 0.304747 0)
(0.169636 0.145906 -2.19023e-20)
(0.079221 0.0303631 0)
(0.02365 0.0059585 1.49898e-20)
(0.237331 0.21169 -8.06043e-20)
(1.03304 0.920277 0)
(1.17525 1.0654 6.87858e-20)
(1.16541 1.07998 0)
(1.11381 1.0591 -2.18587e-20)
(1.05151 1.03182 0)
(0.981301 1.00026 -4.13042e-21)
(0.901515 0.963841 -2.57375e-21)
(0.810923 0.9206 2.36188e-22)
(0.707438 0.866735 -2.80225e-20)
(0.603943 0.804221 2.70107e-21)
(0.517076 0.739272 4.01372e-20)
(0.448812 0.674218 6.38683e-20)
(0.395425 0.61011 9.07485e-21)
(0.353165 0.536992 4.82646e-20)
(0.304727 0.431032 0)
(0.22079 0.271079 7.31957e-20)
(0.119207 0.084304 -4.33597e-20)
(0.039625 0.0621705 5.00668e-20)
(-0.0356394 0.42955 -5.9391e-20)
(0.237137 0.218302 6.59059e-20)
(1.02594 0.944705 1.02253e-19)
(1.16516 1.09195 0)
(1.15476 1.1065 1.06507e-21)
(1.10323 1.08529 5.95664e-20)
(1.04088 1.05773 -1.10647e-19)
(0.970686 1.02596 -2.42895e-20)
(0.890528 0.989657 0)
(0.799048 0.946876 -2.95924e-21)
(0.693635 0.893947 -9.48362e-22)
(0.586642 0.832777 0)
(0.494541 0.768514 0)
(0.420088 0.702433 5.61899e-20)
(0.358225 0.637 -2.83575e-20)
(0.302436 0.558333 -4.83571e-20)
(0.237664 0.432554 0)
(0.123398 0.25316 3.76494e-20)
(0.0186319 0.450927 -4.40907e-20)
(0.04128 1.86249 -2.40735e-20)
(0.069677 2.7906 -2.9629e-20)
(0.236597 0.224315 -4.85376e-20)
(1.01889 0.967871 -1.29563e-19)
(1.1553 1.11692 3.99335e-20)
(1.14436 1.13142 3.80596e-20)
(1.093 1.11009 0)
(1.03058 1.08239 -7.95133e-20)
(0.960557 1.05061 -4.09903e-20)
(0.880022 1.01463 1.77963e-21)
(0.787751 0.972619 -3.58675e-22)
(0.680521 0.921079 2.22188e-20)
(0.570133 0.861908 4.58343e-20)
(0.472743 0.79966 4.17097e-20)
(0.391644 0.733047 5.53775e-20)
(0.321007 0.666499 -6.49239e-20)
(0.251563 0.588337 -7.18813e-20)
(0.158487 0.464923 0)
(0.0609967 0.847526 0)
(0.10919 2.53486 1.97826e-20)
(0.112881 3.18425 0)
(0.11321 3.37942 4.98669e-20)
(0.238807 0.22992 0)
(1.01213 0.990078 0)
(1.1454 1.14018 0)
(1.13403 1.15457 1.06563e-20)
(1.08285 1.13329 5.35282e-20)
(1.02038 1.10566 -6.10256e-20)
(0.950841 1.07411 -2.94905e-20)
(0.869927 1.03865 2.05271e-21)
(0.776968 0.997656 -1.02272e-20)
(0.668084 0.947962 -2.10247e-21)
(0.554499 0.891395 8.36923e-20)
(0.452079 0.832606 -4.90078e-21)
(0.36387 0.766566 6.30273e-21)
(0.285697 0.695509 9.2936e-21)
(0.198076 0.625675 3.74125e-22)
(0.122229 0.986516 3.21345e-22)
(0.153448 2.68462 -1.00168e-19)
(0.164931 3.28592 -3.78821e-20)
(0.150692 3.42407 1.86118e-20)
(0.135316 3.44652 -1.99043e-20)
(0.160923 0.174771 2.87985e-20)
(1.00061 1.01418 0)
(1.1354 1.16195 -7.86455e-20)
(1.12419 1.17629 -9.90872e-20)
(1.0732 1.15535 1.11723e-19)
(1.01092 1.12797 6.48033e-20)
(0.941327 1.0965 3.48585e-20)
(0.860267 1.06173 -3.64945e-20)
(0.766825 1.02197 1.18997e-20)
(0.656621 0.974522 0)
(0.540198 0.921058 3.68271e-20)
(0.433149 0.866777 -3.14613e-20)
(0.337447 0.805551 0)
(0.253298 0.729347 8.42623e-21)
(0.170693 0.864782 2.08138e-20)
(0.168854 2.44642 -2.47353e-20)
(0.22947 3.32277 2.82155e-20)
(0.207163 3.44238 1.41007e-20)
(0.171519 3.46301 1.63121e-20)
(0.148205 3.47216 2.2304e-20)
(0.272777 0.266807 -5.63692e-20)
(0.982461 1.02289 0)
(1.11717 1.18648 8.18266e-20)
(1.11061 1.20875 1.03989e-19)
(1.05784 1.18813 -1.16445e-19)
(0.995337 1.16128 -6.98512e-20)
(0.924945 1.13114 -5.41503e-20)
(0.843477 1.09763 -2.69698e-21)
(0.749001 1.06016 -1.84874e-20)
(0.636514 1.01688 5.25773e-21)
(0.515559 0.969872 1.49037e-21)
(0.401491 0.924233 2.44063e-20)
(0.290309 0.877412 5.19451e-21)
(0.227907 1.01472 -7.46167e-21)
(0.240431 2.30429 -1.75178e-20)
(0.298167 3.33074 1.42937e-20)
(0.283948 3.47782 -1.39286e-20)
(0.24617 3.49708 -8.11529e-21)
(0.208339 3.52174 -2.75037e-21)
(0.157676 3.51434 -6.38674e-22)
(0.2623 0.265194 0)
(0.979268 1.04473 2.16483e-20)
(1.10897 1.20916 -1.61943e-20)
(1.10071 1.23127 -1.15978e-20)
(1.04807 1.21065 -7.65037e-20)
(0.985782 1.18403 6.81675e-20)
(0.915214 1.15413 3.65532e-20)
(0.833789 1.12148 -2.85549e-21)
(0.739162 1.08556 2.34241e-20)
(0.62597 1.04527 -2.98375e-21)
(0.503156 1.00316 -4.8817e-20)
(0.386029 0.963656 3.46737e-21)
(0.280009 0.948926 -4.51894e-21)
(0.266402 1.49399 -6.15945e-21)
(0.337085 3.08932 3.74632e-21)
(0.359556 3.47905 5.1386e-22)
(0.314144 3.53655 4.37649e-21)
(0.276429 3.55584 -2.56985e-21)
(0.226629 3.57665 1.01613e-20)
(0.169834 3.57084 3.03775e-21)
(0.247652 0.262404 5.36445e-20)
(0.974996 1.06892 1.45146e-19)
(1.10026 1.23374 -4.61785e-20)
(1.09046 1.25531 -4.39822e-20)
(1.03797 1.23455 0)
(0.97589 1.20794 1.00083e-19)
(0.905412 1.17829 5.59416e-20)
(0.824297 1.14642 -3.03184e-21)
(0.729843 1.1121 2.41708e-21)
(0.616481 1.07495 8.98845e-21)
(0.49265 1.03818 -1.57714e-20)
(0.374856 1.00618 -2.39159e-20)
(0.287573 1.07838 -2.96696e-20)
(0.334512 2.16259 3.20937e-20)
(0.423396 3.38865 1.86239e-20)
(0.403513 3.54724 0)
(0.349272 3.58375 0)
(0.309612 3.62075 9.69325e-21)
(0.25319 3.67293 0)
(0.179941 3.64817 2.35994e-20)
(0.237038 0.263412 -7.82062e-20)
(0.968643 1.09378 -1.206e-19)
(1.09018 1.25946 0)
(1.07908 1.2802 1.25042e-21)
(1.02677 1.25905 -7.45288e-20)
(0.965009 1.23232 1.48889e-19)
(0.894948 1.20292 3.77542e-20)
(0.814384 1.17174 -3.84839e-21)
(0.720376 1.13895 2.74321e-20)
(0.60728 1.10489 -1.27568e-21)
(0.483217 1.0736 0)
(0.367467 1.05226 0)
(0.318325 1.30748 -2.15272e-20)
(0.418442 2.83688 7.13192e-21)
(0.498097 3.5073 1.06189e-21)
(0.445651 3.58789 0)
(0.400513 3.64147 2.7687e-20)
(0.34925 3.69847 -4.30097e-20)
(0.296831 3.67095 -4.02947e-20)