/*--------------------------------*- C++ -*----------------------------------*\
  =========                 |
  \\      /  F ield         | OpenFOAM: The Open Source CFD Toolbox
   \\    /   O peration     | Website:  https://openfoam.org
    \\  /    A nd           | Version:  6
     \\/     M anipulation  |
\*---------------------------------------------------------------------------*/
FoamFile
{
    version     2.0;
    format      ascii;
    class       surfaceScalarField;
    location    "32";
    object      phi;
}
// * * * * * * * * * * * * * * * * * * * * * * * * * * * * * * * * * * * * * //

dimensions      [0 3 -1 0 0 0 0];

internalField   nonuniform List<scalar> 
17370
(
-0.0900002
0.0898528
0.289158
-0.0714596
0.0537541
0.364481
-0.0381213
0.0276952
0.426594
-0.0196446
0.0146102
0.504286
-0.0107638
0.00826799
0.601898
-0.00626322
0.00488583
0.720435
-0.00372691
0.00289512
0.863738
-0.00216614
0.0016187
1.036
-0.00111325
0.000709063
1.24291
-0.000309166
-7.23119e-05
1.49157
0.000443631
-0.000848723
1.4916
0.0012482
-0.00174458
1.24319
0.00228279
-0.00300151
1.03636
0.00382507
-0.00497619
0.864058
0.00634634
-0.00834305
0.721054
0.0108319
-0.0146712
0.603054
0.0196997
-0.0277441
0.507484
0.0381645
-0.0537902
0.431794
0.0714887
-0.0898721
0.365159
0.0900114
0.198999
-0.128127
0.0882057
0.0399213
-0.364586
0.353395
-0.0746949
0.0858854
-0.446475
0.454312
-0.0843928
0.0765554
-0.521181
0.529892
-0.0684654
0.0597548
-0.612777
0.621559
-0.0515654
0.0427836
-0.726883
0.73415
-0.0353218
0.0280552
-0.867468
0.872559
-0.0224653
0.0173747
-1.03847
1.04188
-0.013595
0.0101809
-1.2446
1.24701
-0.00759744
0.00518859
-1.49264
1.4946
-0.0032594
0.00130204
-1.49249
1.49421
0.000379177
-0.00209642
-1.24398
1.24587
0.00399768
-0.00588476
-1.03751
1.04005
0.0082489
-0.0107891
-0.866101
0.86984
0.0141571
-0.0178969
-0.724398
0.729948
0.0229443
-0.028494
-0.608705
0.616129
0.0357164
-0.0431396
-0.514902
0.523058
0.051882
-0.0600378
-0.439861
0.447924
0.0687131
-0.0767756
-0.375307
0.376758
0.0845818
-0.0860326
-0.257341
0.222507
0.074795
-0.0399604
-0.0684949
0.0586677
0.00982722
-0.0518477
0.0584448
-0.374107
0.36751
-0.0575383
0.0537924
-0.453581
0.457327
-0.0487054
0.0447549
-0.527925
0.531876
-0.0409165
0.0372809
-0.621536
0.625172
-0.0331857
0.0291261
-0.735319
0.739378
-0.0245835
0.0204533
-0.874305
0.878436
-0.016144
0.0124816
-1.04345
1.04711
-0.00878376
0.00564299
-1.24854
1.25168
-0.00234745
-0.000714284
-1.49664
1.4997
0.00375106
-0.00699409
-1.49721
1.50046
0.0100663
-0.0136777
-1.25008
1.2537
0.0172607
-0.0214837
-1.04594
1.05016
0.0255373
-0.0300006
-0.877787
0.882251
0.0339903
-0.0380094
-0.739932
0.743951
0.0415775
-0.0453461
-0.626806
0.630574
0.0492383
-0.0542699
-0.53484
0.539871
0.0579576
-0.0587914
-0.45751
0.458344
0.0521114
-0.0319396
-0.335814
0.315642
0.00987096
-0.0683785
0.0585075
-0.0529113
0.04891
0.00400132
-0.0332019
0.0437653
-0.358058
0.347494
-0.0474779
0.0468592
-0.459249
0.459867
-0.0438086
0.0404581
-0.535759
0.53911
-0.0366879
0.0333887
-0.628476
0.631776
-0.0299642
0.0269551
-0.742591
0.7456
-0.0237355
0.020675
-0.881949
0.885009
-0.0172016
0.0138714
-1.05069
1.05402
-0.0101291
0.00662524
-1.25509
1.25859
-0.00269598
-0.00106711
-1.50319
1.50696
0.00480345
-0.00865704
-1.50412
1.50797
0.0120575
-0.0156754
-1.25744
1.26105
0.0188869
-0.0222314
-1.05396
1.05731
0.0251805
-0.0282828
-0.885762
0.888864
0.0311872
-0.0345
-0.74724
0.750553
0.0377015
-0.0413723
-0.634381
0.638052
0.0446396
-0.0475973
-0.5442
0.547158
0.0481198
-0.044273
-0.456658
0.452811
0.0335522
-0.0161627
-0.296327
0.278938
0.00405434
-0.0527053
0.048651
-0.0458251
0.0433243
0.00250077
-0.0228442
0.0332441
-0.33678
0.32638
-0.0390873
0.0401227
-0.45953
0.458494
-0.0389524
0.0366835
-0.541805
0.544074
-0.0340357
0.0314602
-0.634795
0.63737
-0.0284267
0.0255643
-0.748624
0.751486
-0.0223513
0.0194067
-0.887955
0.8909
-0.0161532
0.0130959
-1.05713
1.06019
-0.0096178
0.00626043
-1.26201
1.26537
-0.00235726
-0.00146735
-1.51079
1.51462
0.00525848
-0.00905947
-1.51185
1.51566
0.0122846
-0.0155946
-1.2645
1.26781
0.0184875
-0.0215612
-1.06042
1.0635
0.0243495
-0.0274038
-0.891943
0.894997
0.0301286
-0.0330143
-0.753789
0.756674
0.0354579
-0.0379703
-0.641148
0.64366
0.040126
-0.041153
-0.548993
0.55002
0.0399707
-0.0339164
-0.447584
0.441529
0.0232893
-0.0101579
-0.263793
0.250662
0.00256578
-0.0455093
0.0429435
-0.0412428
0.0394709
0.00177196
-0.0167783
0.02605
-0.316502
0.30723
-0.0326792
0.0348372
-0.456866
0.454708
-0.0344316
0.032773
-0.546018
0.547677
-0.0306044
0.0285276
-0.639633
0.64171
-0.0261349
0.0237984
-0.754097
0.756434
-0.021032
0.0183343
-0.893766
0.896464
-0.0151962
0.0122108
-1.06318
1.06617
-0.00879916
0.00553854
-1.26863
1.27189
-0.00175663
-0.0019424
-1.51837
1.52207
0.00559736
-0.00924519
-1.51939
1.52303
0.0123327
-0.0155182
-1.27106
1.27424
0.0182843
-0.021181
-1.06653
1.06942
0.0236716
-0.026232
-0.897833
0.900394
0.0283932
-0.0305996
-0.759157
0.761363
0.0325109
-0.0345064
-0.64585
0.647846
0.036003
-0.0362146
-0.550581
0.550793
0.0338344
-0.0269016
-0.434953
0.428021
0.0173284
-0.00730371
-0.239234
0.22921
0.00185101
-0.0407926
0.0389416
-0.0379429
0.0366108
0.00133211
-0.0128011
0.02076
-0.298615
0.290656
-0.0275345
0.0304853
-0.452117
0.449166
-0.0307224
0.029634
-0.549074
0.550163
-0.027672
0.0257907
-0.643701
0.645582
-0.0236443
0.0215751
-0.758625
0.760695
-0.0191516
0.0167577
-0.898978
0.901372
-0.0139097
0.0111151
-1.06903
1.07182
-0.00784441
0.00469163
-1.27507
1.27822
-0.00104413
-0.00249812
-1.52567
1.52921
0.00598628
-0.00947017
-1.52662
1.5301
0.0124039
-0.0153902
-1.27737
1.28036
0.0179063
-0.0204468
-1.07215
1.07469
0.022579
-0.0247441
-0.902691
0.904856
0.0265934
-0.0285069
-0.763386
0.7653
0.0301795
-0.0319278
-0.64972
0.651468
0.0327796
-0.0322701
-0.550656
0.550147
0.0290038
-0.0218178
-0.420904
0.413718
0.0134751
-0.00560678
-0.220366
0.212497
0.00142845
-0.0373297
0.0359013
-0.0354453
0.0344212
0.00102406
-0.00997211
0.0166797
-0.283342
0.276634
-0.0231674
0.0265583
-0.44596
0.442569
-0.0273703
0.0267077
-0.551001
0.551663
-0.0249982
0.0232695
-0.6474
0.649129
-0.0212836
0.0193648
-0.762723
0.764642
-0.0171146
0.0148975
-0.903662
0.90588
-0.0122807
0.00971208
-1.07445
1.07701
-0.00669132
0.00372874
-1.28124
1.28421
-0.00024176
-0.00316834
-1.53267
1.53608
0.00651351
-0.00980225
-1.53351
1.53679
0.0124979
-0.0151687
-1.28321
1.28588
0.0173864
-0.0196081
-1.07708
1.0793
0.0214832
-0.0234003
-0.90688
0.908797
0.0250446
-0.0267475
-0.76708
0.768783
0.0282227
-0.0296467
-0.653081
0.654505
0.0300169
-0.0288244
-0.549309
0.548116
0.0250046
-0.0179804
-0.406588
0.399563
0.0107944
-0.0044596
-0.205466
0.199131
0.00114112
-0.0346344
0.0334933
-0.0335216
0.0327289
0.000792692
-0.00785198
0.01346
-0.270499
0.264891
-0.0194404
0.0230173
-0.439067
0.43549
-0.0242966
0.0238708
-0.552221
0.552647
-0.0224126
0.0207883
-0.650832
0.652456
-0.0189111
0.0171127
-0.76653
0.768329
-0.01501
0.0129343
-0.907994
0.910069
-0.0104761
0.00805823
-1.07944
1.08186
-0.00521798
0.00244058
-1.28703
1.28981
0.000810732
-0.00397699
-1.53935
1.54252
0.00706523
-0.0100833
-1.53995
1.54297
0.0125431
-0.0149535
-1.28844
1.29085
0.0169367
-0.0189066
-1.08141
1.08338
0.0205574
-0.0222409
-0.910568
0.912252
0.0236978
-0.0252257
-0.770356
0.771884
0.0265346
-0.0276211
-0.655771
0.656858
0.0276523
-0.0258543
-0.546642
0.544844
0.0217095
-0.0150487
-0.392719
0.386059
0.00885247
-0.00363966
-0.193409
0.188196
0.000935075
-0.0324704
0.0315354
-0.0320323
0.0314216
0.000610666
-0.00618131
0.0108244
-0.259785
0.255142
-0.0161631
0.0197162
-0.431904
0.428351
-0.0213323
0.021175
-0.552943
0.5531
-0.0200118
0.0185011
-0.65405
0.65556
-0.01672
0.0149851
-0.770135
0.77187
-0.0129406
0.0109258
-0.912077
0.914092
-0.00855523
0.00624858
-1.08416
1.08646
-0.00356419
0.000965138
-1.29246
1.29506
0.0020517
-0.00497307
-1.54553
1.54845
0.00779677
-0.0105182
-1.54584
1.54856
0.0127218
-0.0148773
-1.29318
1.29533
0.0166493
-0.0184119
-1.08528
1.08705
0.0198929
-0.0213978
-0.913837
0.915341
0.0226901
-0.0240358
-0.773274
0.77462
0.0251772
-0.0258572
-0.657735
0.658415
0.025524
-0.0232322
-0.542817
0.540525
0.0189511
-0.0127634
-0.379646
0.373459
0.00739984
-0.00303503
-0.183449
0.179084
0.000784188
-0.0306892
0.029905
-0.0308906
0.0304288
0.000461811
-0.00480904
0.00860147
-0.250942
0.247149
-0.0132387
0.0165936
-0.424889
0.421534
-0.0183597
0.0183859
-0.553175
0.553148
-0.017426
0.0159891
-0.657074
0.658511
-0.0142887
0.0126339
-0.773596
0.775251
-0.0106863
0.0087732
-0.916005
0.917918
-0.00652784
0.00434712
-1.08864
1.09082
-0.00180666
-0.000648735
-1.29753
1.29999
0.0034902
-0.00621602
-1.55125
1.55397
0.0088186
-0.0112962
-1.55116
1.55363
0.0132627
-0.0151451
-1.29739
1.29927
0.0166603
-0.0181525
-1.08872
1.09021
0.0193973
-0.0206628
-0.916733
0.917998
0.0217624
-0.0229246
-0.775819
0.776981
0.023888
-0.0242291
-0.658904
0.659245
0.0235602
-0.0209214
-0.538086
0.535447
0.0166471
-0.0109626
-0.367544
0.36186
0.00629178
-0.00258211
-0.175083
0.171373
0.000673139
-0.0291908
0.0285176
-0.0300366
0.0297027
0.000333903
-0.00362993
0.00665341
-0.243757
0.240733
-0.0105647
0.0136139
-0.418335
0.415286
-0.0154235
0.0156158
-0.553072
0.55288
-0.014769
0.0134382
-0.659959
0.66129
-0.0117834
0.0101708
-0.776903
0.778516
-0.00828075
0.00643011
-0.91971
0.92156
-0.00426325
0.00216663
-1.09286
1.09495
0.000258232
-0.00257885
-1.30232
1.30464
0.00522653
-0.00771508
-1.55655
1.55904
0.0100554
-0.0122488
-1.55599
1.55818
0.0139619
-0.0155797
-1.30108
1.3027
0.0168634
-0.0180931
-1.09162
1.09285
0.0191008
-0.0201453
-0.919134
0.920179
0.02108
-0.0220652
-0.777976
0.778961
0.0227837
-0.0228658
-0.659462
0.659544
0.0218595
-0.0189414
-0.532711
0.529793
0.0147433
-0.00954361
-0.356453
0.351253
0.0054454
-0.00224474
-0.167955
0.164754
0.000593061
-0.0279015
0.0273085
-0.0294329
0.0292185
0.000214403
-0.00254671
0.00484605
-0.238083
0.235783
-0.00800311
0.01064
-0.412451
0.409814
-0.0123718
0.012679
-0.552668
0.552361
-0.0119542
0.0107547
-0.662635
0.663834
-0.00916846
0.00757852
-0.780132
0.781722
-0.00569417
0.00385417
-0.923302
0.925142
-0.00172708
-0.000308712
-1.09692
1.09896
0.00262906
-0.00482509
-1.30683
1.30903
0.00729472
-0.00959278
-1.56139
1.56369
0.0117008
-0.0136157
-1.56023
1.56215
0.0150603
-0.0163786
-1.30424
1.30555
0.0174137
-0.0184128
-1.09401
1.09501
0.0192347
-0.0200479
-0.921114
0.921927
0.0207457
-0.0214517
-0.779763
0.780469
0.0218569
-0.0216425
-0.659453
0.659238
0.0202793
-0.0171508
-0.526813
0.523685
0.0130963
-0.00836983
-0.34633
0.341603
0.00476427
-0.0019797
-0.161797
0.159013
0.000532392
-0.0267628
0.0262304
-0.0290664
0.0289699
9.65514e-05
-0.00150527
0.00309723
-0.233857
0.232265
-0.00546415
0.00758435
-0.407458
0.405337
-0.00909454
0.00941409
-0.552094
0.551774
-0.00876609
0.00766236
-0.665067
0.666171
-0.00612999
0.00456098
-0.783307
0.784876
-0.00268613
0.000860005
-0.926855
0.928681
0.00124007
-0.00322056
-1.10084
1.10282
0.00545254
-0.00752529
-1.31108
1.31316
0.00981922
-0.0118896
-1.56584
1.56791
0.0137335
-0.0153369
-1.56392
1.56552
0.0164914
-0.0174931
-1.30679
1.30779
0.0182354
-0.0189233
-1.0959
1.09659
0.0194751
-0.0200046
-0.922627
0.923157
0.0204417
-0.020905
-0.780986
0.781449
0.0209933
-0.0204607
-0.658794
0.658262
0.0188005
-0.0155519
-0.520544
0.517295
0.0116916
-0.00741454
-0.337153
0.332876
0.00423132
-0.00178236
-0.156438
0.153989
0.000490842
-0.025739
0.0252481
-0.0289325
0.0289476
-1.51353e-05
-0.00047735
0.00137938
-0.231032
0.23013
-0.00295533
0.00451156
-0.403541
0.401985
-0.00570638
0.00594409
-0.551588
0.551351
-0.00529269
0.00420904
-0.667374
0.668457
-0.00268542
0.0011338
-0.786416
0.787967
0.000702782
-0.00248351
-0.930326
0.932107
0.0045342
-0.0064792
-1.10465
1.10659
0.00866458
-0.0106804
-1.31511
1.31712
0.0128538
-0.014737
-1.56982
1.57171
0.0163462
-0.0176654
-1.56699
1.56831
0.018534
-0.0192192
-1.30869
1.30938
0.0196473
-0.0199558
-1.09715
1.09745
0.0201501
-0.0203268
-0.923519
0.923696
0.0204898
-0.0206173
-0.781705
0.781833
0.0204084
-0.0195663
-0.657463
0.656621
0.017647
-0.0142978
-0.514091
0.510742
0.010607
-0.00669891
-0.32886
0.324952
0.00384768
-0.00165087
-0.151717
0.14952
0.000468028
-0.0247946
0.0243266
-0.0290326
0.0291882
-0.000155572
0.000557161
-0.000385035
-0.229586
0.229414
-0.000364307
0.0013054
-0.400791
0.39985
-0.00211975
0.00224758
-0.551301
0.551173
-0.00161732
0.000571193
-0.66965
0.670696
0.000942805
-0.00253159
-0.789476
0.791065
0.00443761
-0.00628732
-0.933727
0.935577
0.0083975
-0.0103686
-1.10839
1.11036
0.0125483
-0.0145074
-1.31901
1.32097
0.0165563
-0.0182772
-1.57345
1.57517
0.0196355
-0.0206446
-1.56949
1.5705
0.0211995
-0.0215092
-1.30995
1.31026
0.0216206
-0.0215972
-1.09764
1.09762
0.0214865
-0.02133
-0.923735
0.923578
0.0211497
-0.0209282
-0.781686
0.781464
0.0204022
-0.0190859
-0.655477
0.65416
0.0168064
-0.0133088
-0.507437
0.50394
0.00975517
-0.00615622
-0.321291
0.317692
0.00356836
-0.00155908
-0.14748
0.14547
0.000453039
-0.0238936
0.0234405
-0.0294121
0.029693
-0.000280845
0.00160962
-0.00208357
-0.229571
0.230045
0.00219534
-0.00193542
-0.399339
0.39908
0.00161681
-0.00169556
-0.551327
0.551406
0.00235935
-0.00343086
-0.671878
0.67295
0.00500038
-0.00667582
-0.792597
0.794272
0.00869742
-0.0106463
-0.937264
0.939213
0.0128538
-0.0148963
-1.1122
1.11424
0.0171222
-0.0190835
-1.3228
1.32476
0.0210758
-0.0226607
-1.57674
1.57833
0.0238093
-0.0245077
-1.57134
1.57203
0.0247396
-0.0246705
-1.31046
1.31039
0.0244129
-0.0239978
-1.09744
1.09703
0.0235406
-0.0229951
-0.923189
0.922643
0.0225096
-0.0218845
-0.78089
0.780264
0.0208986
-0.0190634
-0.652592
0.650757
0.0164806
-0.0128701
-0.500553
0.496943
0.0094064
-0.00598637
-0.31431
0.31089
0.00351617
-0.00155769
-0.14357
0.141612
0.000457032
-0.0230228
0.0225658
-0.0300539
0.0304737
-0.000419827
0.00256522
-0.00368719
-0.230841
0.231963
0.00460726
-0.00511383
-0.399283
0.399789
0.0054622
-0.00591439
-0.551924
0.552376
0.00676543
-0.00799972
-0.674247
0.675481
0.00975852
-0.0116117
-0.795885
0.797738
0.0138211
-0.0159275
-0.940988
0.943095
0.0182862
-0.0204362
-1.11614
1.11829
0.022737
-0.0247126
-1.3266
1.32858
0.0266477
-0.0280694
-1.57976
1.58119
0.0289503
-0.029295
-1.57253
1.57288
0.0291787
-0.0286822
-1.31016
1.30966
0.0280223
-0.0271698
-1.09638
1.09553
0.0263411
-0.0254237
-0.921827
0.920909
0.0245878
-0.0235499
-0.779249
0.778211
0.0221606
-0.0199154
-0.648818
0.646573
0.0170534
-0.0132797
-0.493475
0.489702
0.00977395
-0.00632153
-0.307617
0.304164
0.00376993
-0.00168681
-0.139691
0.137608
0.000495273
-0.0221337
0.0216384
-0.0309819
0.0315517
-0.000569734
0.00356327
-0.0052844
-0.233425
0.235146
0.00697643
-0.00820428
-0.400682
0.40191
0.00924535
-0.0101833
-0.553404
0.554342
0.0114276
-0.0129758
-0.677031
0.678579
0.0150628
-0.0172075
-0.799536
0.80168
0.0197202
-0.0220873
-0.945052
0.947419
0.0247126
-0.0270781
-1.12033
1.1227
0.0295548
-0.0316152
-1.33043
1.33249
0.033511
-0.0347442
-1.5824
1.58364
0.0353427
-0.0353012
-1.57298
1.57294
0.0348094
-0.0339141
-1.30898
1.30809
0.0328756
-0.0315911
-1.09443
1.09315
0.030365
-0.029042
-0.919674
0.918351
0.0278558
-0.0263663
-0.776751
0.775261
0.0245793
-0.0219019
-0.644272
0.641594
0.0186976
-0.0146295
-0.48606
0.481992
0.0108951
-0.00716469
-0.300775
0.297045
0.00432445
-0.00194658
-0.13549
0.133112
0.000571029
-0.0211533
0.0205823
-0.0322085
0.0329576
-0.000749029
0.00472701
-0.00711835
-0.237237
0.239628
0.0096243
-0.0115939
-0.403559
0.405529
0.0133472
-0.0147855
-0.555926
0.557365
0.0164559
-0.0183631
-0.680477
0.682384
0.0208628
-0.0233983
-0.803768
0.806304
0.0263532
-0.0291235
-0.949677
0.952447
0.0321698
-0.0348787
-1.12499
1.1277
0.0376677
-0.0399243
-1.33447
1.33673
0.0418975
-0.0430683
-1.58472
1.58589
0.0434412
-0.0430437
-1.57267
1.57227
0.0421342
-0.0407516
-1.30691
1.30553
0.0392707
-0.0375313
-1.09157
1.08983
0.0359075
-0.0341518
-0.916648
0.914892
0.0325579
-0.0305312
-0.773364
0.771338
0.0282709
-0.0250411
-0.638841
0.635611
0.0213583
-0.016816
-0.478013
0.47347
0.0126501
-0.00840818
-0.2933
0.289058
0.00510508
-0.00230236
-0.130649
0.127846
0.000674469
-0.0200121
0.0193377
-0.0337997
0.0347985
-0.000998779
0.0062684
-0.00948802
-0.242426
0.245646
0.0129594
-0.0157811
-0.408034
0.410856
0.0183602
-0.0204121
-0.559584
0.561635
0.0226147
-0.0249635
-0.684679
0.687028
0.0279676
-0.031001
-0.808782
0.811816
0.0345267
-0.0378106
-0.95514
0.958424
0.0413942
-0.044534
-1.13037
1.13351
0.0476984
-0.0501708
-1.33891
1.34138
0.0522376
-0.0533253
-1.5869
1.58799
0.0534415
-0.0526131
-1.5716
1.57077
0.051258
-0.0493266
-1.30382
1.30189
0.0473126
-0.0449809
-1.08769
1.08535
0.0428424
-0.0405448
-0.91264
0.910342
0.0384492
-0.0358073
-0.768877
0.766235
0.0329793
-0.0291095
-0.63229
0.62842
0.0248605
-0.0196921
-0.469005
0.463837
0.0148977
-0.00993415
-0.284741
0.279777
0.00603358
-0.00271844
-0.124934
0.121619
0.000795458
-0.0186615
0.017866
-0.0358844
0.03724
-0.0013556
0.0084017
-0.0127019
-0.249293
0.253593
0.0173611
-0.0212048
-0.414416
0.418259
0.0247684
-0.0276486
-0.564713
0.567593
0.0306487
-0.0336939
-0.689903
0.692948
0.0374638
-0.0411726
-0.814824
0.818532
0.045397
-0.0492776
-0.961635
0.965516
0.0534375
-0.0570025
-1.13659
1.14016
0.0604728
-0.0630631
-1.34373
1.34632
0.0650465
-0.065825
-1.58881
1.58959
0.065449
-0.0639833
-1.56958
1.56811
0.0619949
-0.059378
-1.29958
1.29696
0.0567679
-0.0537913
-1.08253
1.07955
0.0510594
-0.0481241
-0.907402
0.904466
0.0454321
-0.0421821
-0.763113
0.759863
0.0387582
-0.0342196
-0.624472
0.619933
0.0292856
-0.023236
-0.458724
0.452674
0.017555
-0.0116607
-0.274698
0.268804
0.00705424
-0.00316446
-0.118196
0.114306
0.000921027
-0.0170764
0.0161554
-0.0386663
0.040555
-0.00188863
0.0114769
-0.0172296
-0.258315
0.264068
0.0233577
-0.0284025
-0.423146
0.428191
0.0331393
-0.0370649
-0.57183
0.575756
0.0412082
-0.0452981
-0.696721
0.70081
0.0501159
-0.0546933
-0.822246
0.826823
0.0597785
-0.0643229
-0.96932
0.973865
0.0690567
-0.0729706
-1.14359
1.1475
0.0766229
-0.0791592
-1.34866
1.3512
0.0807927
-0.0809837
-1.58992
1.59011
0.0798283
-0.0774355
-1.5661
1.56371
0.0745773
-0.0710192
-1.29382
1.29026
0.0675887
-0.0638304
-1.07603
1.07227
0.0605094
-0.0570101
-0.90087
0.89737
0.0538523
-0.0501144
-0.756094
0.752356
0.0461315
-0.0407582
-0.615295
0.609922
0.0348017
-0.0274559
-0.446583
0.439237
0.0206113
-0.0136098
-0.262788
0.255786
0.00819443
-0.00365504
-0.110313
0.105774
0.00105593
-0.0152455
0.0141896
-0.0424629
0.0451898
-0.00272691
0.0160938
-0.0238266
-0.270212
0.277945
0.0317852
-0.0382081
-0.434796
0.441219
0.0442267
-0.0493318
-0.581429
0.586534
0.0548388
-0.0601789
-0.705704
0.711044
0.0663043
-0.0719421
-0.831453
0.837091
0.077987
-0.0832104
-0.978322
0.983545
0.0884589
-0.0926452
-1.1512
1.15539
0.0963656
-0.0987282
-1.35338
1.35574
0.0999041
-0.0994242
-1.58977
1.58929
0.0974617
-0.0941422
-1.56071
1.5574
0.0904259
-0.085923
-1.28613
1.28162
0.0816408
-0.0769858
-1.06785
1.0632
0.0729154
-0.06874
-0.893117
0.888942
0.0649909
-0.0605962
-0.747969
0.743574
0.0556666
-0.0488333
-0.604194
0.597361
0.0413048
-0.0322605
-0.431747
0.422703
0.0240599
-0.0158066
-0.248723
0.24047
0.00946516
-0.00418586
-0.101155
0.0958753
0.00119474
-0.0131569
0.0119622
-0.0478229
0.0519871
-0.00416419
0.0234631
-0.0339959
-0.286123
0.296656
0.0444108
-0.0526803
-0.45016
0.458429
0.060213
-0.0665612
-0.593834
0.600182
0.0734925
-0.0801557
-0.717162
0.723825
0.0875436
-0.0940996
-0.84268
0.849236
0.100928
-0.106666
-0.988599
0.994337
0.112263
-0.116565
-1.15928
1.16358
0.120163
-0.122212
-1.35764
1.35969
0.122824
-0.12164
-1.58822
1.58704
0.11888
-0.114696
-1.55349
1.54931
0.110214
-0.104887
-1.2766
1.27127
0.0998516
-0.0943413
-1.05788
1.05237
0.0894626
-0.0842977
-0.883767
0.878603
0.0794428
-0.0735322
-0.737997
0.732087
0.0668486
-0.0578893
-0.589719
0.580759
0.0484937
-0.0376565
-0.413561
0.402724
0.0279978
-0.0183059
-0.232277
0.222585
0.0108705
-0.00474274
-0.0905729
0.0844452
0.00132871
-0.0108084
0.00947971
-0.0558034
0.0629771
-0.00717375
0.0366577
-0.0514619
-0.308212
0.323016
0.0654664
-0.0762811
-0.470687
0.481501
0.0854214
-0.0928935
-0.60921
0.616682
0.101077
-0.108722
-0.73092
0.738565
0.116823
-0.12376
-0.855451
0.862387
0.130817
-0.136591
-0.99968
1.00545
0.142049
-0.146001
-1.16735
1.17131
0.149019
-0.150331
-1.36106
1.36238
0.149993
-0.147788
-1.5851
1.5829
0.143967
-0.138712
-1.54444
1.53919
0.133306
-0.127019
-1.26538
1.25909
0.121102
-0.114578
-1.04615
1.03963
0.108621
-0.101972
-0.872098
0.865449
0.0954412
-0.0873827
-0.724332
0.716274
0.0785776
-0.0674914
-0.570705
0.559619
0.0563816
-0.043809
-0.391888
0.379315
0.0325397
-0.0211738
-0.213121
0.201755
0.0124341
-0.00532332
-0.0784617
0.0713509
0.00144659
-0.00822708
0.00678049
-0.0697194
0.073535
-0.00381567
0.0272251
-0.0400429
-0.340448
0.353266
0.0525325
-0.0622268
-0.497565
0.50726
0.0708611
-0.079281
-0.627247
0.635667
0.0890044
-0.0978064
-0.745608
0.75441
0.107831
-0.116919
-0.868423
0.877512
0.126709
-0.135437
-1.01037
1.0191
0.144533
-0.152223
-1.17429
1.18198
0.159673
-0.165307
-1.36264
1.36828
0.16979
-0.171863
-1.57959
1.58167
0.171385
-0.168748
-1.53293
1.5303
0.164687
-0.158831
-1.25196
1.2461
0.152658
-0.144542
-1.03216
1.02405
0.136461
-0.126592
-0.857126
0.847257
0.116594
-0.104552
-0.705944
0.693902
0.0919244
-0.0769104
-0.547474
0.53246
0.0626683
-0.0467848
-0.366574
0.350691
0.0330745
-0.0200338
-0.190652
0.177611
0.01077
-0.00411837
-0.0648885
0.0582368
0.000919195
-0.00550855
0.00458936
-0.080772
0.0784755
0.00229656
0.00580098
-0.0136411
-0.368866
0.376706
0.0228555
-0.0298026
-0.521398
0.528345
0.0367947
-0.0438573
-0.64629
0.653353
0.0525596
-0.0607117
-0.762853
0.771006
0.0696492
-0.0780144
-0.8861
0.894465
0.0870534
-0.0948144
-1.02758
1.03535
0.103112
-0.109786
-1.18953
1.1962
0.116215
-0.120778
-1.37363
1.37819
0.123803
-0.124503
-1.58281
1.58351
0.12258
-0.118365
-1.52658
1.52236
0.112633
-0.104988
-1.23923
1.23159
0.0971153
-0.0874755
-1.01474
1.0051
0.0777986
-0.0664507
-0.835025
0.823677
0.0559084
-0.0449945
-0.677884
0.66697
0.035461
-0.0254938
-0.515472
0.505505
0.0171139
-0.0097551
-0.334345
0.326987
0.00487192
-0.00152206
-0.164898
0.161548
-0.000123271
0.000586094
-0.0517483
0.0512854
-0.000393676
-0.00323987
0.00363354
-0.08154
0.0785982
0.00294175
-0.00246521
-0.00173892
-0.387748
0.391953
0.00749408
-0.012617
-0.539013
0.544136
0.0180862
-0.0241637
-0.66226
0.668337
0.0315942
-0.0385877
-0.778366
0.785359
0.0464923
-0.0537579
-0.902119
0.909384
0.0613894
-0.0683177
-1.04293
1.04986
0.0755202
-0.0813872
-1.20243
1.20829
0.0865624
-0.0899531
-1.38202
1.38541
0.0919551
-0.0914943
-1.58328
1.58282
0.0884231
-0.083071
-1.51713
1.51178
0.0764902
-0.0682669
-1.22333
1.2151
0.0597027
-0.0498941
-0.994623
0.984815
0.0404705
-0.0299575
-0.811929
0.801416
0.0208422
-0.011804
-0.653971
0.644933
0.00468366
0.00197915
-0.493727
0.487064
-0.00617865
0.0082182
-0.317672
0.315633
-0.00823218
0.00683363
-0.15626
0.157658
-0.00488421
0.00257917
-0.0499569
0.052262
-0.000915425
-0.00325829
0.00417371
-0.0801026
0.0773064
0.00279617
-0.0056098
0.00364938
-0.400067
0.402028
-0.000108215
-0.00378285
-0.55236
0.556251
0.00863323
-0.0137967
-0.675358
0.680521
0.0201991
-0.0262377
-0.791924
0.797962
0.0330087
-0.039241
-0.916189
0.922421
0.0461524
-0.0520131
-1.05634
1.0622
0.0582723
-0.062912
-1.21372
1.21836
0.0672454
-0.0699076
-1.38848
1.39114
0.0709903
-0.0695854
-1.58174
1.58034
0.0661026
-0.0605484
-1.50567
1.50011
0.0539762
-0.0456348
-1.20653
1.19819
0.0375204
-0.0284461
-0.974663
0.965589
0.0198012
-0.0106711
-0.790708
0.781578
0.00253275
0.00515063
-0.634058
0.626374
-0.0108033
0.0148434
-0.47843
0.47439
-0.0164621
0.0156632
-0.310045
0.310844
-0.0133341
0.00985717
-0.157087
0.160564
-0.00663766
0.00324819
-0.0534895
0.056879
-0.00104934
-0.0043699
0.00541924
-0.0785731
0.0761998
0.00237338
-0.00632082
0.00570083
-0.408385
0.409005
-0.00300885
2.29926e-05
-0.563275
0.566261
0.00405155
-0.00885608
-0.68652
0.691324
0.014324
-0.0197183
-0.803511
0.808905
0.0256409
-0.0310935
-0.928295
0.933748
0.0370499
-0.0422748
-1.06793
1.07316
0.0475731
-0.0517964
-1.22283
1.22705
0.0554423
-0.0575612
-1.39338
1.3955
0.0581691
-0.0564824
-1.57869
1.577
0.052922
-0.0473354
-1.49385
1.48826
0.0411459
-0.033599
-1.1899
1.18236
0.0262816
-0.0180729
-0.956396
0.948187
0.0106134
-0.00274163
-0.772219
0.764347
-0.00395204
0.0102627
-0.617586
0.611275
-0.0146882
0.0176928
-0.467449
0.464444
-0.0186017
0.0170493
-0.307549
0.309101
-0.0139815
0.0101683
-0.161692
0.165505
-0.00670416
0.00318513
-0.0589397
0.0624587
-0.00101602
-0.00588954
0.00690555
-0.0773163
0.0753443
0.00197198
-0.00591942
0.00559841
-0.41423
0.414551
-0.00399265
0.00144874
-0.571938
0.574482
0.0026787
-0.00690569
-0.696226
0.700452
0.011734
-0.0165194
-0.81371
0.818496
0.0218712
-0.0268073
-0.938949
0.943885
0.0323076
-0.0369228
-1.07813
1.08274
0.0417128
-0.045525
-1.23099
1.2348
0.0487315
-0.0505346
-1.39733
1.39913
0.050898
-0.0495348
-1.5752
1.57384
0.0461141
-0.0410669
-1.48232
1.47727
0.0353845
-0.0285621
-1.17478
1.16796
0.0222818
-0.0149773
-0.940079
0.932775
0.00846445
-0.00179416
-0.756448
0.749778
-0.00389824
0.00925721
-0.60416
0.598801
-0.0130067
0.0155386
-0.458915
0.456383
-0.0160077
0.0146489
-0.306821
0.30818
-0.0121643
0.00877023
-0.166809
0.170203
-0.00569354
0.00272653
-0.0642893
0.0672563
-0.000872786
-0.00730569
0.00817847
-0.07649
0.074992
0.00149795
-0.00486719
0.00472817
-0.418767
0.418906
-0.00322442
0.00118321
-0.579792
0.581833
0.00272251
-0.00664648
-0.704916
0.70884
0.0113704
-0.015598
-0.823064
0.827292
0.0203962
-0.0248462
-0.948882
0.953332
0.0301282
-0.0343699
-1.08742
1.09166
0.0386803
-0.0423193
-1.23845
1.24209
0.0456992
-0.0474006
-1.40096
1.40266
0.0479074
-0.0466248
-1.57211
1.57083
0.0438161
-0.0390355
-1.47209
1.46731
0.0340941
-0.0281569
-1.16114
1.1552
0.0224956
-0.0162695
-0.925683
0.919457
0.010565
-0.00461873
-0.742888
0.736942
-6.85289e-05
0.00476589
-0.592651
0.587954
-0.00814439
0.010339
-0.451712
0.449517
-0.0110078
0.0102862
-0.306352
0.307074
-0.00849953
0.00598586
-0.170863
0.173376
-0.00384226
0.00186913
-0.0684039
0.0703771
-0.000628771
-0.00841142
0.00904019
-0.0762032
0.0750566
0.00114655
-0.00369975
0.00359635
-0.42256
0.422663
-0.00203304
-4.62999e-05
-0.586856
0.588936
0.00371751
-0.00732539
-0.712966
0.716574
0.0114915
-0.0156737
-0.831617
0.8358
0.0202063
-0.0248674
-0.957678
0.96234
0.0294897
-0.0335891
-1.09604
1.10014
0.0380622
-0.0415054
-1.24562
1.24907
0.0444658
-0.046627
-1.40429
1.40645
0.0474019
-0.0465336
-1.56964
1.56877
0.0440511
-0.04005
-1.46277
1.45877
0.0356656
-0.0303557
-1.14906
1.14375
0.0253822
-0.0198379
-0.913222
0.907678
0.0148102
-0.00972169
-0.731061
0.725973
0.00531
-0.00119928
-0.582604
0.578493
-0.00174593
0.00398358
-0.445412
0.443175
-0.00489472
0.00467348
-0.304989
0.30521
-0.00393082
0.00272621
-0.172989
0.174194
-0.00174154
0.000856759
-0.0705821
0.0714669
-0.000320105
-0.00905261
0.00937271
-0.0764642
0.0755087
0.000955537
-0.00239619
0.00203048
-0.426133
0.426499
-0.000630462
-0.0016007
-0.593474
0.595705
0.00503537
-0.00860668
-0.720651
0.724222
0.0127038
-0.0165851
-0.839909
0.84379
0.0213208
-0.0252671
-0.966509
0.970456
0.0299157
-0.0338902
-1.10444
1.10841
0.0382925
-0.0419628
-1.25252
1.25619
0.0452636
-0.047274
-1.4084
1.41041
0.0484704
-0.0480854
-1.56785
1.56746
0.0463388
-0.0427599
-1.45468
1.4511
0.0389117
-0.034119
-1.13856
1.13377
0.0296464
-0.0245501
-0.90196
0.896864
0.0200692
-0.0153152
-0.72063
0.715876
0.0112682
-0.00735692
-0.57374
0.569829
0.00436632
-0.00215898
-0.439254
0.437046
0.000787316
-0.000248568
-0.302499
0.30196
-0.000111361
0.00018843
-0.17281
0.172733
-0.000238499
0.000274866
-0.0707755
0.0707391
-0.000180422
-0.00912818
0.00930861
-0.0770145
0.0763554
0.000659097
-0.00126775
0.000460104
-0.429896
0.430704
0.000822162
-0.00320529
-0.599474
0.601857
0.00639132
-0.00990762
-0.727973
0.731489
0.0139113
-0.017988
-0.84765
0.851727
0.0221924
-0.0263554
-0.974681
0.978844
0.0310192
-0.0348299
-1.11285
1.11666
0.0393721
-0.0430468
-1.25969
1.26337
0.0464555
-0.0490456
-1.41285
1.41544
0.0507955
-0.0507639
-1.56713
1.5671
0.0493159
-0.0464944
-1.44769
1.44487
0.0432083
-0.038794
-1.12884
1.12443
0.0345822
-0.030026
-0.891674
0.887117
0.0255001
-0.0211596
-0.710828
0.706488
0.017309
-0.013421
-0.565535
0.561646
0.0105019
-0.00787843
-0.432979
0.430356
0.00607698
-0.00458276
-0.298856
0.297361
0.00337021
-0.00210716
-0.17055
0.169287
0.00102355
-0.00021504
-0.0692382
0.0684297
-8.39151e-05
-0.0087489
0.00883282
-0.0779446
0.0774389
0.000505694
-0.000329079
-0.000436009
-0.433898
0.434663
0.00229609
-0.00453064
-0.605631
0.607866
0.00792582
-0.0113645
-0.734923
0.738361
0.0152733
-0.0190136
-0.855577
0.859318
0.0233986
-0.0273015
-0.98307
0.986973
0.0319599
-0.0362424
-1.12095
1.12523
0.0404747
-0.0445141
-1.26712
1.27116
0.0483908
-0.0511262
-1.41795
1.42069
0.0533043
-0.0540902
-1.5673
1.56808
0.0531323
-0.0509389
-1.44191
1.43971
0.0478533
-0.0438646
-1.12
1.11601
0.0400143
-0.0355662
-0.882114
0.877666
0.0313523
-0.0270651
-0.701596
0.697309
0.0232744
-0.0192825
-0.557266
0.553274
0.0160786
-0.0131235
-0.426304
0.423348
0.010604
-0.00828627
-0.293627
0.291309
0.00617966
-0.00397388
-0.166235
0.164029
0.00219172
-0.000776614
-0.0663429
0.0649278
9.94626e-05
-0.00813015
0.00803069
-0.07913
0.0787941
0.000335923
0.000690676
-0.00165239
-0.438056
0.439017
0.003392
-0.00591062
-0.611439
0.613958
0.00926543
-0.012584
-0.741717
0.745036
0.0166126
-0.0202496
-0.863115
0.866753
0.0245267
-0.0285862
-0.991398
0.995458
0.0331928
-0.0374735
-1.1294
1.13369
0.0419604
-0.0460648
-1.27515
1.27925
0.0501668
-0.0536843
-1.42373
1.42725
0.0563496
-0.0574776
-1.56882
1.56995
0.0572245
-0.0553592
-1.43739
1.43553
0.0528018
-0.0492848
-1.11191
1.10839
0.045438
-0.0411357
-0.872879
0.868577
0.0370276
-0.0326339
-0.69259
0.688196
0.0288911
-0.0247336
-0.549068
0.54491
0.0213278
-0.0177821
-0.419025
0.415479
0.0147605
-0.0116201
-0.286908
0.283768
0.00860291
-0.00556514
-0.160144
0.157106
0.00315546
-0.00121304
-0.0623286
0.0603861
0.000232563
-0.00728306
0.00705049
-0.0805215