/*--------------------------------*- C++ -*----------------------------------*\
  =========                 |
  \\      /  F ield         | OpenFOAM: The Open Source CFD Toolbox
   \\    /   O peration     | Website:  https://openfoam.org
    \\  /    A nd           | Version:  6
     \\/     M anipulation  |
\*---------------------------------------------------------------------------*/
FoamFile
{
    version     2.0;
    format      ascii;
    class       volVectorField;
    location    "32";
    object      U;
}
// * * * * * * * * * * * * * * * * * * * * * * * * * * * * * * * * * * * * * //

dimensions      [0 1 -1 0 0 0 0];

internalField   nonuniform List<vector> 
8800
(
(0.9872 -0.0767052 0)
(1.00191 -0.0551748 0)
(0.999758 -0.0285473 0)
(1.00005 -0.0151468 0)
(1.00005 -0.00854117 0)
(1.00002 -0.00503487 0)
(0.999994 -0.00299804 0)
(0.999981 -0.00171872 0)
(0.999979 -0.000831472 0)
(1.00005 -0.000127317 0)
(0.999991 0.000585256 0)
(1 0.00135558 0)
(1.00001 0.00238981 0)
(1.00002 0.00397565 0)
(1.00003 0.00661443 0)
(1.00005 0.0113592 0)
(0.999969 0.0208045 0)
(0.999175 0.0386474 0)
(1.0071 0.072453 0)
(0.771228 0.0366887 0)
(0.363026 -0.016017 0)
(1.0433 -0.0768347 0)
(1.08464 -0.0704592 0)
(1.04525 -0.0535642 0)
(1.02329 -0.0389107 0)
(1.01194 -0.0262325 0)
(1.00631 -0.0168883 0)
(1.0035 -0.0104006 0)
(1.00209 -0.00578067 0)
(1.00143 -0.00215547 0)
(1.00132 0.00113556 0)
(1.0017 0.00450123 0)
(1.00267 0.00844887 0)
(1.00464 0.0138097 0)
(1.0086 0.0215387 0)
(1.01661 0.0325209 0)
(1.03257 0.0464551 0)
(1.06274 0.0615973 0)
(1.09192 0.0760383 0)
(0.838745 0.05656 0)
(0.216768 -0.00242291 0)
(1.07585 -0.0501739 0)
(1.09987 -0.0483694 0)
(1.0646 -0.0405246 0)
(1.03991 -0.0336715 0)
(1.02374 -0.0261707 0)
(1.01396 -0.0186403 0)
(1.00843 -0.0118657 0)
(1.0055 -0.00604338 0)
(1.00428 -0.000674938 0)
(1.00465 0.00453516 0)
(1.00661 0.00991435 0)
(1.0106 0.0160551 0)
(1.01792 0.023129 0)
(1.03055 0.030621 0)
(1.05067 0.0376803 0)
(1.08044 0.0443994 0)
(1.10637 0.0512473 0)
(0.942729 0.0415648 0)
(0.21629 0.00244528 0)
(0.175064 -0.000816524 0)
(1.01756 -0.0355314 0)
(1.10515 -0.0414559 0)
(1.07818 -0.0361491 0)
(1.05328 -0.0302181 0)
(1.03596 -0.0246631 0)
(1.02378 -0.0190109 0)
(1.0157 -0.013033 0)
(1.01091 -0.00690875 0)
(1.00879 -0.000625822 0)
(1.00941 0.00558945 0)
(1.01267 0.0115833 0)
(1.01887 0.0174434 0)
(1.02878 0.0230603 0)
(1.04328 0.0284086 0)
(1.06384 0.0339415 0)
(1.09372 0.0399796 0)
(1.09367 0.0417993 0)
(0.827636 0.0228388 0)
(0.174259 0.000841694 0)
(0.153817 -0.00061144 0)
(0.955913 -0.0255062 0)
(1.10332 -0.0352185 0)
(1.08753 -0.0327765 0)
(1.06146 -0.0281568 0)
(1.04381 -0.0231767 0)
(1.03137 -0.0180149 0)
(1.02258 -0.0125728 0)
(1.01684 -0.00671166 0)
(1.01407 -0.000335263 0)
(1.01483 0.00605622 0)
(1.01885 0.0119204 0)
(1.02587 0.0172701 0)
(1.03619 0.0222632 0)
(1.05082 0.0270919 0)
(1.07209 0.0316684 0)
(1.10034 0.0356487 0)
(1.06857 0.0337886 0)
(0.740441 0.0142101 0)
(0.15261 0.000639888 0)
(0.139401 -0.000468021 0)
(0.898867 -0.0191207 0)
(1.09552 -0.0301693 0)
(1.09548 -0.029305 0)
(1.06887 -0.0255951 0)
(1.0504 -0.0215175 0)
(1.03753 -0.0168872 0)
(1.02847 -0.0117672 0)
(1.02243 -0.00615337 0)
(1.01942 9.8387e-05 0)
(1.02014 0.00636891 0)
(1.02431 0.0119784 0)
(1.03149 0.0169389 0)
(1.04205 0.0214497 0)
(1.05725 0.025487 0)
(1.07948 0.0290258 0)
(1.10269 0.0317352 0)
(1.03688 0.0277779 0)
(0.674449 0.010072 0)
(0.137704 0.000500813 0)
(0.128824 -0.000362177 0)
(0.849154 -0.0147424 0)
(1.08301 -0.026027 0)
(1.10107 -0.0263735 0)
(1.07561 -0.0231427 0)
(1.05658 -0.0195899 0)
(1.04325 -0.0154954 0)
(1.03387 -0.010729 0)
(1.02762 -0.00534042 0)
(1.02444 0.000649193 0)
(1.02506 0.00661839 0)
(1.02923 0.0119176 0)
(1.03652 0.0165079 0)
(1.04738 0.0204636 0)
(1.06306 0.0238636 0)
(1.08575 0.0268809 0)
(1.10205 0.0287187 0)
(1.00258 0.0231368 0)
(0.623396 0.00766273 0)
(0.12653 0.000400978 0)
(0.120757 -0.000280619 0)
(0.806958 -0.0115499 0)
(1.06757 -0.0223576 0)
(1.10437 -0.0236757 0)
(1.08163 -0.0208814 0)
(1.06223 -0.0175969 0)
(1.04862 -0.0138707 0)
(1.0389 -0.00948083 0)
(1.03233 -0.00444193 0)
(1.02892 0.00128069 0)
(1.02942 0.00699676 0)
(1.03363 0.0119079 0)
(1.0411 0.0159967 0)
(1.05215 0.0194299 0)
(1.06806 0.022402 0)
(1.09107 0.0251319 0)
(1.09859 0.0261146 0)
(0.968237 0.0194198 0)
(0.582797 0.00606702 0)
(0.117741 0.000326911 0)
(0.114527 -0.000216206 0)
(0.771561 -0.00913521 0)
(1.05073 -0.0191037 0)
(1.10659 -0.0211473 0)
(1.08726 -0.0186952 0)
(1.06741 -0.0155765 0)
(1.05353 -0.0121029 0)
(1.04363 -0.00802453 0)
(1.03689 -0.00329645 0)
(1.03327 0.0020804 0)
(1.03362 0.00738274 0)
(1.03771 0.0118911 0)
(1.04513 0.0155181 0)
(1.05624 0.0185098 0)
(1.07245 0.0211507 0)
(1.09527 0.0236035 0)
(1.09258 0.0238437 0)
(0.935254 0.0164616 0)
(0.549731 0.00494068 0)
(0.110632 0.000271819 0)
(0.109706 -0.000163873 0)
(0.742115 -0.00721995 0)
(1.03349 -0.0161314 0)
(1.10776 -0.0187225 0)
(1.09254 -0.0166768 0)
(1.07239 -0.0137178 0)
(1.05826 -0.0103201 0)
(1.0482 -0.00640076 0)
(1.04121 -0.0019676 0)
(1.03732 0.00303769 0)
(1.03747 0.00791066 0)
(1.04148 0.0119369 0)
(1.04882 0.0151612 0)
(1.05993 0.0178617 0)
(1.07638 0.0202127 0)
(1.0982 0.0222715 0)
(1.08432 0.021777 0)
(0.904331 0.0140777 0)
(0.52228 0.00411165 0)
(0.104742 0.000231119 0)
(0.106026 -0.000120529 0)
(0.717879 -0.00564098 0)
(1.01682 -0.0134034 0)
(1.10802 -0.0162466 0)
(1.09755 -0.0144921 0)
(1.07718 -0.011655 0)
(1.0628 -0.0084226 0)
(1.05254 -0.00469743 0)
(1.04537 -0.000505113 0)
(1.04127 0.0041905 0)
(1.04111 0.00868986 0)
(1.04484 0.0122819 0)
(1.05204 0.015059 0)
(1.06318 0.017339 0)
(1.07979 0.0193329 0)
(1.09983 0.0210192 0)
(1.07439 0.0199028 0)
(0.875776 0.0121585 0)
(0.499114 0.00348993 0)
(0.0997558 0.000201967 0)
(0.103299 -8.24768e-05 0)
(0.698285 -0.00428014 0)
(1.0014 -0.0108545 0)
(1.10765 -0.0138037 0)
(1.10234 -0.0122765 0)
(1.08178 -0.00949759 0)
(1.06703 -0.00637386 0)
(1.05653 -0.00278849 0)
(1.04911 0.00122663 0)
(1.04467 0.00558663 0)
(1.04418 0.0096303 0)
(1.04764 0.0127812 0)
(1.05468 0.0151338 0)
(1.06582 0.0169781 0)
(1.08267 0.0186718 0)
(1.10061 0.0199769 0)
(1.06327 0.0182697 0)
(0.849628 0.0106199 0)
(0.479284 0.00302391 0)
(0.0954336 0.00018196 0)
(0.101419 -4.60227e-05 0)
(0.682962 -0.00302822 0)
(0.987696 -0.0083636 0)
(1.10668 -0.0112096 0)
(1.10667 -0.00992131 0)
(1.0862 -0.00724298 0)
(1.07111 -0.00412255 0)
(1.06031 -0.000625199 0)
(1.05255 0.00320262 0)
(1.0477 0.00728507 0)
(1.04677 0.0109442 0)
(1.04989 0.0136144 0)
(1.05676 0.0155052 0)
(1.06791 0.0169952 0)
(1.08493 0.0182601 0)
(1.10031 0.0190807 0)
(1.05114 0.0167457 0)
(0.825786 0.00932477 0)
(0.462102 0.0026539 0)
(0.0915953 0.00016784 0)
(0.100359 -9.08765e-06 0)
(0.671824 -0.00182826 0)
(0.976287 -0.00585684 0)
(1.10548 -0.00835808 0)
(1.11069 -0.00721119 0)
(1.09069 -0.00463253 0)
(1.07536 -0.00153385 0)
(1.06427 0.00193408 0)
(1.05611 0.00559288 0)
(1.05075 0.00936103 0)
(1.04931 0.0125677 0)
(1.05205 0.0147021 0)
(1.05862 0.0160807 0)
(1.06966 0.0170999 0)
(1.08648 0.0178931 0)
(1.09893 0.0182402 0)
(1.03836 0.0153352 0)
(0.804193 0.00825328 0)
(0.447106 0.00237672 0)
(0.0881211 0.000160011 0)
(0.100094 2.12308e-05 0)
(0.664694 -0.000644436 0)
(0.967543 -0.00336693 0)
(1.10453 -0.00536625 0)
(1.11456 -0.00421637 0)
(1.09501 -0.001654 0)
(1.0793 0.00137795 0)
(1.06783 0.00474575 0)
(1.0593 0.00834192 0)
(1.05342 0.0119049 0)
(1.05127 0.0146953 0)
(1.05333 0.0163446 0)
(1.05954 0.0171617 0)
(1.07048 0.0175212 0)
(1.0873 0.0178264 0)
(1.0964 0.0175865 0)
(1.02527 0.0142144 0)
(0.784626 0.00744043 0)
(0.433813 0.00218786 0)
(0.0848852 0.00015823 0)
(0.100662 7.81115e-05 0)
(0.661551 0.000557289 0)
(0.961642 -0.000790451 0)
(1.10403 -0.00217268 0)
(1.11833 -0.00105575 0)
(1.09927 0.00149118 0)
(1.08325 0.0046406 0)
(1.07137 0.008108 0)
(1.06219 0.0116571 0)
(1.05545 0.01502 0)
(1.05257 0.0174225 0)
(1.05408 0.0184873 0)
(1.05979 0.0187163 0)
(1.07049 0.0185571 0)
(1.08704 0.0182044 0)
(1.09272 0.0173739 0)
(1.01172 0.013325 0)
(0.766737 0.00681285 0)
(0.421842 0.00206287 0)
(0.0817901 0.000157818 0)
(0.102193 0.000118948 0)
(0.662424 0.00168539 0)
(0.95894 0.00177862 0)
(1.10423 0.0011922 0)
(1.12212 0.00240155 0)
(1.10377 0.00503112 0)
(1.08753 0.00836421 0)
(1.07529 0.0119853 0)
(1.06558 0.0156111 0)
(1.05803 0.0188611 0)
(1.05404 0.0208839 0)
(1.05452 0.0213989 0)
(1.05952 0.0209911 0)
(1.0697 0.020167 0)
(1.08578 0.0192213 0)
(1.08743 0.0175356 0)
(0.997739 0.0129037 0)
(0.750105 0.00658862 0)
(0.410621 0.00206876 0)
(0.0787688 0.000162508 0)
(0.104662 0.000168825 0)
(0.666985 0.00278838 0)
(0.959693 0.00429858 0)
(1.10573 0.0047238 0)
(1.12619 0.00627722 0)
(1.10842 0.00922848 0)
(1.09185 0.0128702 0)
(1.07896 0.0167217 0)
(1.06834 0.0204596 0)
(1.05963 0.0235859 0)
(1.05441 0.0251812 0)
(1.05389 0.0250685 0)
(1.05815 0.0239182 0)
(1.06783 0.0224388 0)
(1.08327 0.0208716 0)
(1.0808 0.0184048 0)
(0.983352 0.0132612 0)
(0.733925 0.00691103 0)
(0.399228 0.00225143 0)
(0.0756234 0.000178026 0)
(0.108158 0.000225831 0)
(0.675373 0.00391004 0)
(0.963713 0.00665053 0)
(1.1091 0.00825376 0)
(1.13114 0.0104511 0)
(1.11377 0.0139533 0)
(1.09678 0.0180863 0)
(1.08321 0.0223628 0)
(1.0716 0.0263922 0)
(1.06151 0.0294297 0)
(1.0547 0.0305243 0)
(1.05285 0.029775 0)
(1.05605 0.0279406 0)
(1.0651 0.0257501 0)
(1.07953 0.0234916 0)
(1.07293 0.0202939 0)
(0.96823 0.014519 0)
(0.717139 0.00779273 0)
(0.386665 0.00260464 0)
(0.0720948 0.000206093 0)
(0.112754 0.000296141 0)
(0.687493 0.00519947 0)
(0.971264 0.00927572 0)
(1.11458 0.0120386 0)
(1.13726 0.0149328 0)
(1.11998 0.0191503 0)
(1.10238 0.0239905 0)
(1.08784 0.0289548 0)
(1.07485 0.0334655 0)
(1.06292 0.0366477 0)
(1.05427 0.0373805 0)
(1.05091 0.0359063 0)
(1.05299 0.033275 0)
(1.06131 0.0303781 0)
(1.0745 0.0273263 0)
(1.0635 0.0232218 0)
(0.951711 0.0165983 0)
(0.6986 0.0091239 0)
(0.372083 0.00308354 0)
(0.0679618 0.000243295 0)
(0.118759 0.000395416 0)
(0.703857 0.00689816 0)
(0.982751 0.0125476 0)
(1.12241 0.016669 0)
(1.1447 0.0204225 0)
(1.12735 0.0255065 0)
(1.10905 0.03127 0)
(1.09326 0.037106 0)
(1.07849 0.0422108 0)
(1.06434 0.0455464 0)
(1.05339 0.045867 0)
(1.04816 0.0435758 0)
(1.04895 0.0400004 0)
(1.05635 0.0361599 0)
(1.06793 0.0322167 0)
(1.05218 0.0269855 0)
(0.933199 0.0193675 0)
(0.67727 0.0107863 0)
(0.354881 0.00364175 0)
(0.0630776 0.00028635 0)
(0.126684 0.000538429 0)
(0.725396 0.00923705 0)
(0.999006 0.0168348 0)
(1.1334 0.0225767 0)
(1.15405 0.0276374 0)
(1.13627 0.0340097 0)
(1.11696 0.0409177 0)
(1.09948 0.0476805 0)
(1.08241 0.0533017 0)
(1.06551 0.0565018 0)
(1.05183 0.0560033 0)
(1.04448 0.0525943 0)
(1.04362 0.0479157 0)
(1.04991 0.043031 0)
(1.05963 0.0380839 0)
(1.0388 0.0316902 0)
(0.912037 0.0228641 0)
(0.652216 0.0126867 0)
(0.334689 0.00424815 0)
(0.0573856 0.0003301 0)
(0.137328 0.00075321 0)
(0.753424 0.012599 0)
(1.02097 0.022549 0)
(1.14856 0.0302843 0)
(1.1664 0.0373207 0)
(1.14721 0.0453113 0)
(1.12623 0.053623 0)
(1.10637 0.0613185 0)
(1.08631 0.0672545 0)
(1.06601 0.0699232 0)
(1.04915 0.0681152 0)
(1.03944 0.0631086 0)
(1.03697 0.0569416 0)
(1.04203 0.0509874 0)
(1.04973 0.0452763 0)
(1.02322 0.0377135 0)
(0.886948 0.0271392 0)
(0.622621 0.0148387 0)
(0.311181 0.0049216 0)
(0.0508427 0.000375713 0)
(0.151916 0.00109386 0)
(0.789854 0.017595 0)
(1.04995 0.0304248 0)
(1.16879 0.0403928 0)
(1.18253 0.0497138 0)
(1.16076 0.0597585 0)
(1.13701 0.0696333 0)
(1.11378 0.0782353 0)
(1.08998 0.0843223 0)
(1.06564 0.086285 0)
(1.0452 0.0830849 0)
(1.03284 0.0764789 0)
(1.02861 0.0687365 0)
(1.03269 0.0613913 0)
(1.03837 0.0546314 0)
(1.00415 0.0454522 0)
(0.856304 0.032007 0)
(0.587982 0.0172777 0)
(0.284044 0.00566248 0)
(0.0434336 0.000419873 0)
(0.172532 0.00169272 0)
(0.837816 0.0253849 0)
(1.08799 0.0421038 0)
(1.19452 0.0547734 0)
(1.20273 0.066487 0)
(1.17694 0.0785135 0)
(1.14909 0.0897067 0)
(1.12154 0.098983 0)
(1.09323 0.104956 0)
(1.06436 0.10602 0)
(1.04006 0.101398 0)
(1.02484 0.0933285 0)
(1.01855 0.0841899 0)
(1.02136 0.0753308 0)
(1.02395 0.0664365 0)
(0.978999 0.0542531 0)
(0.819286 0.0374047 0)
(0.548067 0.0200884 0)
(0.253048 0.00645745 0)
(0.0352063 0.000457526 0)
(0.202423 0.00302594 0)
(0.902936 0.0386754 0)
(1.13793 0.0613479 0)
(1.22549 0.077012 0)
(1.22619 0.0909395 0)
(1.19481 0.10411 0)
(1.1619 0.1158 0)
(1.12921 0.124894 0)
(1.09579 0.129936 0)
(1.06203 0.1294 0)
(1.03373 0.122841 0)
(1.0155 0.113012 0)
(1.0068 0.102241 0)
(1.00707 0.0913731 0)
(1.00388 0.0793694 0)
(0.946399 0.0634037 0)
(0.77626 0.0434782 0)
(0.502781 0.0233574 0)
(0.218611 0.00731066 0)
(0.0264734 0.000481797 0)
(0.243336 0.00923395 1.40151e-19)
(0.98917 0.0652817 1.206e-19)
(1.19761 0.0946087 -4.10932e-20)
(1.25927 0.111309 0)
(1.24988 0.12733 -9.35899e-34)
(1.21241 0.139856 1.33937e-20)
(1.17414 0.150434 -2.24404e-20)
(1.13586 0.157948 0)
(1.09691 0.160948 4.23986e-34)
(1.05788 0.15789 -2.43237e-20)
(1.02513 0.148655 0)
(1.00333 0.136439 -2.73423e-20)
(0.991275 0.123457 -7.96272e-20)
(0.98669 0.10997 -3.72733e-20)
(0.975085 0.0948824 -1.10548e-20)
(0.905229 0.0764142 -6.52104e-21)
(0.723638 0.05302 0)
(0.448185 0.0285143 4.55268e-21)
(0.18126 0.0094239 5.3795e-21)
(0.018338 0.000831089 9.70658e-20)
(0.270624 0.0246547 1.26089e-19)
(1.05976 0.107545 5.11688e-22)
(1.24543 0.14254 1.20188e-20)
(1.2895 0.159612 0)
(1.27026 0.174979 -5.08752e-20)
(1.22767 0.185551 -5.56559e-20)
(1.18423 0.194285 -2.34733e-20)
(1.14031 0.199728 -7.81607e-20)
(1.09551 0.200347 0)
(1.05043 0.194314 1.04167e-19)
(1.01196 0.181655 1.00419e-19)
(0.984892 0.166123 2.92285e-20)
(0.967152 0.150052 1.03674e-19)
(0.954488 0.133552 1.42924e-19)
(0.9319 0.115874 0)
(0.852681 0.0954111 1.9885e-19)
(0.664325 0.0677469 2.84944e-19)
(0.394018 0.0377816 3.16452e-19)
(0.149908 0.013352 -3.61586e-19)
(0.0122301 0.00111674 -6.80944e-21)
(0.270664 0.0406425 0)
(1.10344 0.162645 2.75106e-20)
(1.27746 0.201627 0)
(1.3122 0.21925 -8.14301e-20)
(1.28587 0.231333 0)
(1.23914 0.238527 -1.15591e-19)
(1.19091 0.243922 4.93603e-20)
(1.14158 0.246041 -1.63115e-19)
(1.09114 0.243101 -1.58097e-21)
(1.04012 0.233078 5.49567e-20)
(0.995947 0.216331 2.18334e-19)
(0.963639 0.197326 -3.13622e-22)
(0.940505 0.178554 -7.48133e-20)
(0.921869 0.160472 -1.33475e-19)
(0.893877 0.142015 1.57109e-19)
(0.814534 0.119936 -2.77429e-19)
(0.63208 0.0873892 -3.64742e-20)
(0.376685 0.0508088 0)
(0.148905 0.0197226 1.8133e-23)
(0.0132959 0.00182213 0)
(0.263666 0.054418 4.98444e-19)
(1.12623 0.221437 -2.22384e-19)
(1.29716 0.265768 -1.43326e-19)
(1.32634 0.28384 4.21188e-20)
(1.29532 0.292464 -6.88369e-20)
(1.24563 0.295856 2.4573e-19)
(1.19349 0.297248 1.04728e-19)
(1.13949 0.2953 0)
(1.0839 0.288147 -2.89217e-19)
(1.02739 0.273647 0)
(0.977917 0.252722 -1.15898e-19)
(0.940931 0.230593 -1.37516e-19)
(0.9135 0.2098 -8.09807e-20)
(0.890994 0.190536 -9.63175e-20)
(0.860993 0.171441 0)
(0.786352 0.147362 0)
(0.616354 0.111128 -2.37305e-19)
(0.379805 0.0686359 4.67143e-20)
(0.16032 0.0289538 -2.75563e-20)
(0.0173662 0.00331456 -3.22158e-20)
(0.256256 0.0667395 -3.00699e-19)
(1.13581 0.280089 0)
(1.3078 0.331013 3.44769e-19)
(1.33324 0.34971 1.30811e-19)
(1.29889 0.355128 1.5061e-19)
(1.24703 0.354802 0)
(1.19181 0.352154 1.08356e-19)
(1.13396 0.345966 1.84451e-19)
(1.07398 0.334403 1.51859e-19)
(1.01258 0.315359 2.55782e-19)
(0.958499 0.290402 0)
(0.917638 0.265424 -2.9586e-19)
(0.886972 0.24295 -1.74406e-19)
(0.861904 0.222829 -1.02153e-19)
(0.831057 0.203144 6.13501e-19)
(0.761477 0.177947 7.27925e-20)
(0.606973 0.137939 3.42158e-19)
(0.38771 0.0891377 -1.61396e-18)
(0.174292 0.040474 9.59262e-19)
(0.0222471 0.00542282 -1.15618e-18)
(0.249636 0.0779141 -2.70942e-19)
(1.13719 0.336803 5.83787e-20)
(1.31193 0.395442 -5.00086e-20)
(1.33454 0.414912 -1.73503e-19)
(1.29763 0.41739 -1.51211e-19)
(1.244 0.413579 1.7463e-21)
(1.18631 0.407076 -1.16509e-19)
(1.1253 0.39678 1.94705e-19)
(1.06157 0.380939 -3.25932e-19)
(0.996034 0.357462 0)
(0.938018 0.32865 -1.36425e-19)
(0.89405 0.300984 -1.59862e-21)
(0.860982 0.276832 -1.88876e-19)
(0.834269 0.255871 0)
(0.80343 0.23545 -1.32156e-19)
(0.738631 0.208939 -3.13042e-19)
(0.598201 0.165954 8.34593e-19)
(0.3945 0.110543 -8.2058e-19)
(0.185733 0.0527932 1.16693e-18)
(0.026331 0.00775461 -1.2125e-18)
(0.244385 0.0883788 -5.04085e-22)
(1.13363 0.390967 -5.81756e-20)
(1.3115 0.458384 -2.0381e-19)
(1.33158 0.478373 8.84268e-20)
(1.29261 0.478197 -7.9653e-20)
(1.23751 0.471151 0)
(1.17773 0.461067 -1.18523e-19)
(1.11404 0.446923 -2.06458e-19)
(1.04712 0.427023 -1.72144e-19)
(0.978012 0.399328 0)
(0.91668 0.366768 -1.43645e-19)
(0.870191 0.336454 -1.7084e-19)
(0.835359 0.310553 2.03485e-19)
(0.807523 0.288508 -1.21046e-19)
(0.776937 0.267302 -5.71341e-19)
(0.716377 0.23951 3.39185e-19)
(0.587727 0.193699 1.01144e-19)
(0.396374 0.131602 0)
(0.19216 0.0645994 -1.11938e-18)
(0.0290465 0.00998864 -4.09723e-20)
(0.24047 0.0984352 -3.55758e-20)
(1.12713 0.442436 5.95024e-20)
(1.30762 0.519093 1.07641e-19)
(1.32545 0.539472 2.88216e-19)
(1.28476 0.53693 -3.29355e-19)
(1.22837 0.526951 2.90692e-19)
(1.1668 0.513586 2.54014e-19)
(1.10078 0.495891 -3.30617e-19)
(1.03107 0.472198 9.82915e-20)
(0.958819 0.440475 -6.27527e-19)
(0.894604 0.404267 -1.58096e-19)
(0.846037 0.371204 0)
(0.809891 0.343431 2.19123e-19)
(0.781402 0.320104 2.58555e-19)
(0.751284 0.297997 3.06244e-19)
(0.694216 0.268567 -3.65395e-19)
(0.574535 0.219988 -1.07929e-19)
(0.392431 0.150995 1.27163e-19)
(0.192541 0.074672 0)
(0.0300248 0.0117601 -8.817e-20)
(0.237692 0.108165 3.57641e-19)
(1.11915 0.491271 -2.43114e-19)
(1.30122 0.57705 -1.13249e-19)
(1.31695 0.597901 2.00087e-19)
(1.27478 0.593244 -1.7003e-19)
(1.21728 0.580623 -4.04105e-21)
(1.15415 0.564312 -2.73542e-19)
(1.08608 0.543392 -1.18538e-19)
(1.01387 0.516181 -2.96908e-19)
(0.938751 0.480638 2.38995e-22)
(0.871913 0.440817 -5.00466e-19)
(0.821604 0.404893 4.01499e-19)
(0.784466 0.374991 -2.37495e-19)
(0.75564 0.350114 2.80818e-19)
(0.726073 0.32672 0)
(0.671813 0.295438 -1.96492e-19)
(0.558627 0.243299 -8.32785e-22)
(0.383279 0.167069 -5.4841e-19)
(0.188527 0.0821642 -8.08106e-20)
(0.0295588 0.0128997 0)
(0.23594 0.117749 0)
(1.11046 0.537713 -2.56313e-19)
(1.29299 0.632224 -2.30783e-19)
(1.30675 0.653543 -2.09114e-19)
(1.26329 0.646966 -1.88034e-19)
(1.20479 0.631993 0)
(1.14029 0.613055 -1.38387e-19)
(1.07041 0.589233 -1.19203e-21)
(0.995907 0.558815 6.35117e-19)
(0.918107 0.519672 -8.79065e-20)
(0.848819 0.47627 -3.59039e-19)
(0.796875 0.43734 2.11503e-19)
(0.758951 0.405059 -2.03611e-21)
(0.729924 0.378335 2.99164e-19)
(0.700839 0.353309 1.80323e-19)
(0.648599 0.319713 -4.22601e-19)
(0.53988 0.263406 5.00177e-19)
(0.369502 0.179841 1.47638e-19)
(0.180271 0.0868883 6.08781e-19)
(0.02776 0.0133303 -1.63049e-18)
(0.235054 0.127313 7.37974e-20)
(1.10163 0.581901 -1.28906e-19)
(1.28354 0.684652 1.11063e-19)
(1.29537 0.706364 2.15258e-19)
(1.25076 0.698035 0)
(1.19138 0.680971 -1.64574e-19)
(1.12566 0.659711 4.50058e-19)
(1.05413 0.63331 2.65974e-19)
(0.977515 0.599999 0)
(0.897144 0.557502 -1.24197e-18)
(0.82544 0.51058 9.64497e-19)
(0.771912 0.468513 0)
(0.733202 0.433597 2.74339e-19)
(0.704029 0.404719 -2.02006e-21)
(0.675345 0.377694 -5.76348e-19)
(0.624449 0.341303 2.25615e-19)
(0.5186 0.279969 0)
(0.35203 0.18892 7.93634e-19)
(0.168727 0.0892249 0)
(0.0251184 0.0131609 -7.67368e-19)
(0.234862 0.136857 -7.54997e-20)
(1.09297 0.623981 -1.29798e-19)
(1.27324 0.734345 1.20396e-19)
(1.28321 0.756378 0)
(1.23758 0.746462 -2.02129e-19)
(1.17742 0.727545 0)
(1.11061 0.704235 -4.68683e-19)
(1.03759 0.675561 -1.34616e-19)
(0.958973 0.639684 1.16813e-19)
(0.876082 0.59411 -6.13354e-19)
(0.801894 0.543764 1.0124e-19)
(0.746658 0.498441 0)
(0.707099 0.460641 -5.86046e-19)
(0.677772 0.429317 2.06497e-21)
(0.649346 0.399924 0)
(0.599128 0.360205 2.2466e-21)
(0.494792 0.293042 7.21786e-19)
(0.331191 0.194243 -6.83101e-19)
(0.154708 0.0890888 2.01456e-19)
(0.0219091 0.0124183 0)
(0.23502 0.14626 0)
(1.08467 0.663962 -1.32511e-19)
(1.26246 0.781388 -1.19159e-19)
(1.27059 0.803643 -2.29556e-21)
(1.22406 0.792278 -1.01017e-19)
(1.16319 0.771727 -3.73352e-19)
(1.09542 0.746623 1.69465e-19)
(1.02102 0.715966 -1.49253e-19)
(0.940513 0.677839 5.08439e-19)
(0.855098 0.629502 -9.80519e-19)
(0.778269 0.575889 -3.43145e-21)
(0.721131 0.527223 -2.63717e-19)
(0.680612 0.486306 9.45483e-19)
(0.651049 0.452246 -2.42863e-21)
(0.622731 0.420098 -4.43517e-19)
(0.572578 0.376411 -7.88513e-19)
(0.468743 0.302662 0)
(0.307622 0.19602 0)
(0.13884 0.0865071 2.16884e-19)
(0.0183489 0.0111818 -1.26912e-19)
(0.235696 0.155623 -7.78189e-20)
(1.07685 0.701868 2.7565e-19)
(1.25142 0.825864 1.26813e-19)
(1.25775 0.848228 0)
(1.21042 0.835544 -1.59733e-21)
(1.14895 0.813554 -3.85117e-19)
(1.08032 0.786892 4.38284e-19)
(1.00466 0.754526 6.17866e-19)
(0.922333 0.714468 6.70539e-19)
(0.834377 0.663707 -8.07562e-19)
(0.75473 0.607057 -8.24987e-19)
(0.695448 0.555028 7.04864e-19)
(0.653716 0.510754 0)
(0.623777 0.473625 -2.02054e-19)
(0.595391 0.438286 -4.77734e-19)
(0.544718 0.389915 -5.64594e-19)
(0.440289 0.308673 -6.68968e-19)
(0.281853 0.194242 1.97697e-19)
(0.121556 0.0815528 -1.16425e-19)
(0.0145162 0.00947859 3.228e-22)
(0.236527 0.164778 0)
(1.06951 0.738095 0)
(1.24029 0.867848 2.6796e-21)
(1.2449 0.890214 0)
(1.19687 0.876344 3.30282e-19)
(1.13488 0.853091 2.98339e-19)
(1.06549 0.825075 0)
(0.988667 0.791259 7.89756e-20)
(0.904614 0.749581 1.13319e-18)
(0.814113 0.696763 -1.85193e-18)
(0.731475 0.637378 0)
(0.669672 0.582032 -4.52428e-19)
(0.626373 0.534175 -2.95424e-21)
(0.59585 0.493577 -2.40492e-21)
(0.567236 0.454513 5.10482e-19)
(0.515558 0.400645 -3.97208e-22)
(0.409736 0.311058 -1.4367e-18)
(0.25394 0.188862 4.24571e-19)
(0.103555 0.0745928 1.25427e-19)
(0.0107228 0.00749138 0)
(0.237341 0.173761 2.38938e-19)
(1.06243 0.772626 1.44093e-19)
(1.22917 0.907409 2.63378e-19)
(1.23218 0.929697 -4.9659e-19)
(1.18355 0.914746 5.71453e-19)
(1.1211 0.890397 0)
(1.05106 0.861222 2.88489e-19)
(0.973193 0.826193 -1.71095e-19)
(0.887504 0.783199 3.88944e-21)
(0.794483 0.728709 1.33969e-19)
(0.70864 0.666944 1.07057e-18)
(0.643914 0.608433 -1.59751e-19)
(0.59859 0.556814 -5.79967e-19)
(0.56714 0.51225 -2.33585e-19)
(0.538119 0.468696 2.75988e-19)
(0.485105 0.408312 -2.41203e-22)
(0.377669 0.309563 3.86372e-19)
(0.224967 0.180056 -9.11587e-19)
(0.0855748 0.0660542 1.07746e-18)
(0.00710854 0.00534128 1.57162e-19)
(0.237903 0.182467 -8.08287e-20)
(1.05565 0.805535 7.4215e-20)
(1.21819 0.944654 6.22328e-21)
(1.21971 0.966795 -2.52695e-19)
(1.17056 0.950854 -1.15209e-19)
(1.10774 0.925541 -5.57544e-19)
(1.03714 0.89538 9.7303e-20)
(0.958342 0.859352 -7.24133e-19)
(0.871128 0.815325 -1.272e-18)
(0.775612 0.75955 -1.11415e-18)
(0.686389 0.695826 0)
(0.618333 0.634417 -6.91956e-19)
(0.570406 0.578967 8.31022e-19)
(0.537456 0.529866 0)
(0.507726 0.48069 -5.90373e-19)
(0.453279 0.412393 3.51063e-19)
(0.344547 0.30374 -4.14387e-19)
(0.196093 0.168036 -4.89798e-19)
(0.06856 0.056481 -8.66721e-19)
(0.00389088 0.00320262 -6.75657e-19)
(0.238758 0.190987 8.14818e-20)
(1.04901 0.836794 -7.91887e-20)
(1.20742 0.979644 -2.02204e-19)
(1.20755 1.00159 -3.28038e-19)
(1.15797 0.984756 2.49251e-19)
(1.09486 0.958606 -3.46328e-19)
(1.02382 0.9276 3.14599e-19)
(0.944193 0.890779 -7.62148e-19)
(0.85556 0.845979 -7.58734e-19)
(0.75762 0.7893 1.17651e-18)
(0.664894 0.724085 2.35494e-18)
(0.593101 0.66014 0)
(0.5419 0.600956 0)
(0.506579 0.546806 -2.68071e-19)
(0.475484 0.490401 0)
(0.419675 0.411973 7.54209e-19)
(0.311023 0.292588 8.90397e-19)
(0.169044 0.152722 0)
(0.0538604 0.0464695 0)
(0.00126625 0.00125764 7.25164e-19)
(0.239222 0.198984 -8.16505e-20)
(1.04255 0.866394 -6.95784e-20)
(1.19692 1.01249 -1.4179e-19)
(1.19577 1.0342 2.67769e-19)
(1.14585 1.01655 2.58507e-19)
(1.08252 0.989662 4.18845e-19)
(1.01113 0.957941 -4.43153e-19)
(0.930799 0.920501 2.91872e-22)
(0.840872 0.875167 -5.03846e-21)
(0.74061 0.817954 -5.77009e-21)
(0.644327 0.751754 1.21391e-18)
(0.568405 0.685707 0)
(0.513257 0.623081 8.34731e-19)
(0.474362 0.563622 5.71577e-19)
(0.440531 0.498098 1.36719e-18)
(0.383136 0.40597 4.04733e-19)
(0.277477 0.273821 -4.79178e-19)
(0.147185 0.132207 -2.81737e-19)
(0.0457962 0.0355861 0)
(0.000209102 -0.000250525 7.78174e-19)
(0.239985 0.206962 1.61807e-19)
(1.03624 0.894477 0)
(1.18669 1.04325 -1.41346e-19)
(1.18438 1.0647 2.08783e-19)
(1.13423 1.04632 -2.63971e-19)
(1.07074 1.01879 -5.56831e-19)
(0.999113 0.986458 9.23163e-19)
(0.91819 0.948554 -5.75576e-20)
(0.827102 0.9029 0)
(0.72466 0.845477 -1.31832e-18)
(0.624837 0.77883 -2.65438e-18)
(0.54447 0.711203 1.03235e-19)
(0.484752 0.64557 1.14616e-18)
(0.440846 0.580948 0)
(0.401934 0.504739 9.17883e-19)
(0.341235 0.39415 0)
(0.241401 0.243648 0)
(0.13369 0.0958174 -3.0418e-19)
(0.0660378 0.0105138 0)
(0.0245532 0.00580713 2.0839e-19)
(0.240277 0.214313 1.62402e-19)
(1.03007 0.921258 0)
(1.17673 1.07212 -2.13913e-19)
(1.17337 1.09334 0)
(1.12308 1.07432 1.32094e-19)
(1.05947 1.04627 0)
(0.987702 1.01346 5.5802e-20)
(0.906271 0.975279 1.07847e-19)
(0.814135 0.929551 9.56357e-20)
(0.709615 0.872261 -1.45952e-18)
(0.606289 0.805765 8.18339e-20)
(0.521122 0.737212 8.19611e-19)
(0.45613 0.669027 1.11624e-18)
(0.405482 0.599689 1.476e-19)
(0.358187 0.512327 7.14914e-19)
(0.289817 0.378694 0)
(0.192171 0.202494 1.00442e-18)
(0.100352 0.0378309 -5.88548e-19)
(0.0346281 0.0575048 6.84924e-19)
(-0.0375631 0.443492 -8.16068e-19)
(0.240483 0.221454 -1.23797e-19)
(1.02383 0.946628 -2.21399e-19)
(1.16696 1.09941 0)
(1.16259 1.12053 5.39556e-21)
(1.11221 1.10113 -3.35901e-19)
(1.04846 1.07279 9.57998e-19)
(0.976595 1.03974 3.56144e-19)
(0.894655 1.00162 0)
(0.801465 0.956224 6.65431e-19)
(0.694825 0.899621 -7.97194e-20)
(0.587811 0.834057 0)
(0.497225 0.765523 0)
(0.425989 0.695271 9.97921e-19)
(0.366646 0.62136 -4.51389e-19)
(0.3068 0.52394 -7.19822e-19)
(0.225034 0.365124 0)
(0.107902 0.190205 5.02854e-19)
(0.0114543 0.458666 -5.85054e-19)
(0.0357005 1.89844 -3.34502e-19)
(0.06314 2.80956 -4.17594e-19)
(0.24032 0.227991 7.9692e-20)
(1.01758 0.97076 2.59644e-19)
(1.15741 1.12513 -1.12835e-19)
(1.15206 1.14613 -1.43796e-19)
(1.1017 1.12654 0)
(1.03778 1.09807 6.54025e-19)
(0.965987 1.065 5.38832e-19)
(0.883517 1.02715 -5.56069e-20)
(0.789352 0.982399 9.80859e-20)
(0.680661 0.926937 1.41338e-18)
(0.570004 0.862994 1.36095e-18)
(0.473775 0.795768 9.24738e-19)
(0.395449 0.723951 1.00176e-18)
(0.326336 0.644523 -1.05451e-18)
(0.25463 0.541926 -1.08193e-18)
(0.146135 0.397471 0)
(0.0508346 0.861729 0)
(0.0983148 2.56187 2.85588e-19)
(0.100941 3.19906 0)
(0.101746 3.38461 7.14186e-19)
(0.24285 0.234025 0)
(1.01153 0.993967 0)
(1.14781 1.14913 0)
(1.14156 1.16997 -3.45723e-20)
(1.09127 1.15033 -2.89471e-19)
(1.02722 1.12196 4.62175e-19)
(0.955799 1.08912 3.66607e-19)
(0.872786 1.05174 -5.62814e-20)
(0.777731 1.0079 8.7027e-19)
(0.667115 0.954044 -1.01991e-20)
(0.552958 0.892353 2.71753e-18)
(0.451202 0.827966 -1.05094e-19)
(0.364844 0.755511 1.23079e-19)
(0.286749 0.666827 1.51484e-19)
(0.195996 0.566561 -1.03215e-22)
(0.109741 1.0034 1.6261e-21)
(0.139481 2.72678 -1.46463e-18)
(0.147215 3.2945 -5.61778e-19)
(0.135236 3.42453 3.05702e-19)
(0.121803 3.44535 -3.47899e-19)
(0.164855 0.178579 -3.69598e-20)
(1.00138 1.01917 0)
(1.13808 1.17167 1.87021e-19)
(1.13145 1.19232 3.32777e-19)
(1.08136 1.17298 -5.3745e-19)
(1.01742 1.14489 -4.77241e-19)
(0.945815 1.11213 -4.04734e-19)
(0.862494 1.07542 7.18351e-19)
(0.766726 1.03274 -7.34259e-19)
(0.654465 0.980951 0)
(0.537044 0.922071 1.35779e-18)
(0.430051 0.861872 -7.62965e-19)
(0.334775 0.792728 0)
(0.246544 0.694851 1.4331e-19)
(0.157119 0.85393 3.42809e-19)
(0.153641 2.51081 -4.03701e-19)
(0.208909 3.32869 4.59627e-19)
(0.188232 3.43999 2.6013e-19)
(0.15518 3.45897 2.99359e-19)
(0.133906 3.46757 5.08214e-19)
(0.278155 0.272776 7.79489e-20)
(0.984587 1.02963 0)
(1.12049 1.19742 -1.70096e-19)
(1.11742 1.22562 -3.08577e-19)
(1.06567 1.20679 5.05887e-19)
(1.00124 1.17921 4.46744e-19)
(0.928604 1.14779 5.2522e-19)
(0.84462 1.11231 5.48876e-20)
(0.747495 1.07181 7.4569e-19)
(0.632512 1.02396 1.30021e-18)
(0.510077 0.971053 8.03514e-20)
(0.395311 0.919137 6.9322e-19)
(0.281687 0.860304 1.18494e-19)
(0.216999 1.02085 -1.42649e-19)
(0.224613 2.37594 -3.26995e-19)
(0.277754 3.33681 3.433e-19)
(0.261918 3.4717 -3.98583e-19)
(0.225784 3.48987 -2.34631e-19)
(0.190139 3.51354 -2.35768e-19)
(0.143271 3.50617 -2.68674e-20)
(0.268279 0.271693 0)
(0.982098 1.05259 -2.87126e-20)
(1.11258 1.22098 2.86306e-20)
(1.10764 1.24898 2.94328e-20)
(1.05567 1.23004 3.10191e-19)
(0.991322 1.20271 -4.23015e-19)
(0.918383 1.17154 -3.29173e-19)
(0.834244 1.1369 5.20765e-20)
(0.736707 1.09788 -8.02985e-19)
(0.620655 1.05288 -1.47863e-20)
(0.495877 1.00459 -2.54772e-18)
(0.377208 0.958325 9.82027e-20)
(0.271184 0.934624 -1.14172e-19)
(0.253445 1.55487 -1.36424e-19)
(0.315657 3.12597 1.761e-20)
(0.333186 3.47573 2.28078e-21)
(0.290218 3.52545 6.94143e-19)
(0.254558 3.54551 3.82872e-19)
(0.207333 3.56477 -1.77537e-19)
(0.155178 3.55919 -1.64592e-19)
(0.253997 0.269504 -5.44395e-20)
(0.978661 1.0781 -1.76928e-19)
(1.10423 1.24656 7.98667e-20)
(1.09744 1.27386 1.12247e-19)
(1.04531 1.25476 0)
(0.981072 1.22744 -5.45548e-19)
(0.908071 1.19655 -4.60645e-19)
(0.824038 1.16269 4.91456e-20)
(0.726403 1.12521 -8.76539e-20)
(0.609806 1.08324 -1.25805e-18)
(0.483518 1.04005 -1.21429e-18)
(0.363241 1.00089 -8.3833e-19)
(0.277108 1.07533 -8.76622e-19)
(0.31693 2.26203 8.8867e-19)
(0.396181 3.39757 8.04934e-19)
(0.372908 3.5368 0)
(0.321952 3.57235 0)
(0.284336 3.60526 -1.51442e-19)
(0.235867 3.652 0)
(0.164796 3.63142 -2.75061e-19)
(0.243741 0.271169 6.19687e-20)
(0.973199 1.10443 1.25253e-19)
(1.09452 1.27338 0)
(1.08605 1.29964 6.42668e-21)
(1.03383 1.28014 2.5704e-19)
(0.969807 1.25272 -7.57726e-19)
(0.897057 1.2221 -2.86287e-19)
(0.813358 1.18893 4.28807e-20)
(0.715882 1.15293 -6.38826e-19)
(0.599158 1.11395 6.86177e-20)
(0.472134 1.07603 0)
(0.353715 1.04771 0)
(0.306114 1.33853 -8.31335e-19)
(0.394239 2.93075 3.44023e-19)
(0.463635 3.50528 4.88483e-19)
(0.411537 3.57393 0)
(0.368172 3.62768 -2.08648e-19)
(0.323454 3.67588 1.92089e-19)
(0.273055 3.6427 4.08013e-20)
(0.177393 3.61988 -1.25786e-20)