/*--------------------------------*- C++ -*----------------------------------*\
  =========                 |
  \\      /  F ield         | OpenFOAM: The Open Source CFD Toolbox
   \\    /   O peration     | Website:  https://openfoam.org
    \\  /    A nd           | Version:  6
     \\/     M anipulation  |
\*---------------------------------------------------------------------------*/
FoamFile
{
    version     2.0;
    format      ascii;
    class       volScalarField;
    location    "32";
    object      p;
}
// * * * * * * * * * * * * * * * * * * * * * * * * * * * * * * * * * * * * * //

dimensions      [0 2 -2 0 0 0 0];

internalField   nonuniform List<scalar> 
918
(
0.483048
1.21853
0.00366755
0.482944
-0.0337986
1.18642
-0.543448
0.654961
0.464117
-0.154971
-0.098289
0.459999
1.04333
0.809922
-1.2303
0.0572769
0.607814
-0.472397
0.462039
-0.160231
0.686099
0.470863
0.47334
0.464142
0.519616
0.768414
0.920612
-0.0769473
-0.00943338
-0.0316844
-0.0579485
-0.0794187
-0.0607595
1.06956
1.12149
1.14464
0.43146
0.263846
-0.432001
-0.486443
-0.466954
-0.567105
0.647029
0.647352
-0.231084
0.655426
0.66277
0.45009
0.463503
0.46435
0.46553
0.464387
0.465689
0.358765
-0.164151
-0.193975
-0.134737
-0.129111
0.0263424
-0.101105
-0.10743
-0.0930169
-0.0960816
0.383118
0.456062
0.4533
0.46468
0.47358
1.15871
1.13244
1.15849
1.06911
1.08672
1.0203
0.993192
0.831462
0.855379
0.794208
0.780043
-1.69629
-2.65597
-0.645373
-0.361346
-0.044642
0.0487654
0.039213
0.597222
0.597494
0.610282
0.620597
0.980832
-0.443666
-0.515359
0.46246
0.460995
0.470376
0.471285
0.466222
0.466242
-0.153785
-0.142479
-0.136128
-0.161036
-0.147963
0.676778
0.676217
0.463599
0.461061
0.482867
0.505973
0.494779
0.210967
0.527718
0.543003
0.625009
0.772978
0.762878
0.774277
0.896138
0.864566
0.951804
0.973564
-0.0548036
-0.0479271
0.0606546
-0.00871983
0.0278467
0.427256
0.420944
0.447223
0.43503
0.437979
0.167341
0.0145774
0.347269
0.371674
-0.347496
-0.392467
-0.497939
-0.49801
-0.604502
0.530104
0.640638
0.63918
-0.251881
-0.173976
-0.303264
-0.11398
-0.172755
0.441315
0.447356
0.443555
0.45864
0.452877
0.455267
0.467624
0.464763
0.466374
0.416774
0.547313
0.276996
0.249862
-0.316662
-0.209802
-0.301377
-0.119607
-0.117208
0.0295989
0.0557642
0.0248477
0.0151674
-0.115737
-0.111752
-0.118393
-0.0979984
-0.103223
0.374703
0.362769
0.393678
0.400713
0.445442
0.446763
0.450558
0.448894
0.94384
0.967144
0.973046
0.949059
-3.647
-6.30494
-0.00865085
0.15488
-0.0997134
-0.0984328
-0.05141
-0.0636768
-0.0462174
-0.0176323
0.00378901
0.000298406
0.00582814
0.0167062
0.588561
0.587389
0.938651
0.963521
0.93182
0.910616
0.451708
0.45368
0.458346
0.45522
-0.10954
-0.136501
-0.121343
0.662649
0.669211
0.670364
0.172467
0.0884936
0.258829
0.287963
0.577055
0.552364
0.570834
0.686353
0.726401
0.990765
1.01485
0.998833
1.0118
1.06276
1.0857
1.05073
0.406816
0.41716
0.411744
0.450483
0.448054
0.44916
0.444804
0.446258
0.444676
-0.0990111
-0.475825
0.434557
0.432822
0.41353
0.422724
0.610499
0.68754
0.619667
0.631525
0.629269
-0.0682111
-0.115481
0.207969
0.174998
0.316458
0.350093
0.332397
0.919641
0.879755
0.927779
0.903083
0.867355
0.891514
-0.413891
-2.19454
-1.18072
0.565238
0.364042
0.457844
-0.000571253
-0.0065993
-0.00524667
0.96465
1.0065
0.614663
0.798707
0.752536
0.750599
0.775467
0.839817
0.772
0.806459
0.837299
0.81133
0.488895
0.440962
0.448349
0.764488
0.823051
0.0546559
-0.0169624
-0.0407989
0.0765809
0.138396
0.111964
0.980929
0.882142
0.949706
0.461304
0.46219
-0.12841
-0.149457
0.466268
0.465986
-0.0879109
-0.0669817
0.47531
-1.00422
0.0688212
0.455574
0.445677
0.462209
-0.129225
0.288892
-0.0981318
0.00715468
-0.00287236
0.455686
0.394007
0.353751
-0.183641
0.0314603
-0.148313
-0.260241
0.459057
0.457438
0.461575
0.46246
0.463208
-0.230994
-0.179143
-0.176904
-0.197074
-0.188137
-0.184036
0.426444
0.444697
-0.2301
0.461876
0.463956
0.463682
0.457686
0.462731
0.461251
-0.0247565
-0.0445009
0.0135127
0.155852
0.283521
0.664817
0.745175
0.610227
0.439331
0.136519
0.597333
0.651853
0.574444
0.708255
0.631267
0.640462
0.129843
-0.0106263
0.1301
0.0676097
0.452587
0.451827
0.443207
0.440267
0.457015
0.45483
0.459875
0.457067
0.460161
0.461339
-0.0845892
-0.113979
-0.134696
-0.181628
0.252168
0.514673
0.185152
0.214778
0.124933
-0.0863135
-0.0905155
-0.0988751
-0.111255
-0.0444243
-0.0251901
0.00520218
0.0226306
0.0134464
-0.00826219
-0.0439044
-0.0418966
-0.0552043
0.449729
0.449148
0.454625
0.462936
0.402927
0.406834
0.373176
0.392638
0.378648
0.321333
0.351856
0.328388
-0.0923225
-0.155028
-0.0964201
0.0116905
0.00716676
-0.216829
-0.239013
-0.224034
-0.217805
-0.212235
-0.134606
-0.137851
-0.222901
-0.336765
0.910982
0.841734
0.0591757
0.449065
0.454657
0.451869
0.45633
0.459501
0.460215
0.457869
0.454442
0.445023
0.446576
0.44311
0.443862
-0.175701
-0.28307
-0.109678
-0.179608
0.0892154
0.565928
0.2932
0.242196
0.227286
0.444605
0.645607
0.583206
0.663097
0.666614
-0.455143
-0.038098
-0.380719
0.16576
0.150913
0.68871
0.730837
0.747346
0.705295
0.660714
-0.0917947
0.479233
-0.0984975
-0.0553547
0.130098
0.0254122
0.648178
0.609996
0.616155
0.628927
0.647417
0.626055
0.606993
0.598511
0.628662
0.636176
0.439908
0.186496
0.150114
0.102059
0.593465
0.477307
0.533841
0.454684
0.447771
0.450438
0.449193
0.431103
0.43816
0.434055
0.440368
0.443767
0.451801
0.4519
0.447934
0.44986
-0.105096
-0.11004
-0.112255
-0.172211
-0.168501
-0.208765
-0.138135
0.0481097
0.00336608
0.172977
0.307788
0.016844
-0.108156
-0.0933249
-0.0430217
0.127394
0.123421
0.00722594
0.12253
0.0837589
0.0717548
0.169127
0.191005
-0.0711454
-0.0728086
-0.0854544
-0.0856059
-0.0209515
0.0733369
0.0602972
-0.0410178
-0.0397436
-0.0828379
-0.0953233
-0.0614996
-0.0674272
-0.0577621
-0.0514479
-0.127434
-0.0420607
-0.0380632
-0.039208
-0.0318355
-0.0330124
0.443721
0.445749
0.445636
0.454561
0.468095
0.48217
0.448446
0.423939
0.415201
0.418292
0.391666
0.401151
0.397259
0.411219
0.432228
0.440501
0.438466
0.440952
0.423776
0.425366
0.411823
0.415841
0.388305
0.37051
0.360491
-0.1581
-0.141259
-0.167594
-0.120029
-0.112046
-0.099504
-0.00547949
-0.00941776
-0.0163532
-0.00689915
-0.00988154
-0.182256
-0.185812
-0.128022
-0.0520964
-0.232233
-0.277363
-0.328557
0.821697
0.954137
0.741516
0.533393
0.540175
0.772988
0.862648
0.503685
0.688157
0.71883
0.505132
0.778132
0.452959
0.452625
0.450514
0.449692
0.450695
-0.0734759
0.0248634
0.0487051
0.0982472
0.214281
0.321979
0.240386
0.125324
0.260363
0.285714
0.565261
0.576086
0.52116
0.544157
0.539964
0.364243
0.446626
0.489556
0.437691
0.50594
0.54161
0.489102
0.531248
0.450251
0.404325
0.398448
0.349569
0.383626
0.364935
0.33931
0.443577
0.421405
0.432097
0.422616
0.44285
0.467878
0.467631
0.488626
0.50386
0.42517
0.378043
0.393944
0.419191
0.37777
0.392538
0.412605
0.112196
0.0187899
0.186858
-0.14753
-0.0541306
-0.0181772
-0.0589852
-0.104928
0.203661
-0.445007
-0.387337
-1.07277
0.421598
0.809484
0.609723
0.622817
0.643802
0.625071
0.631369
0.647494
0.654995
0.584686
0.599355
0.602613
0.562256
0.594634
0.597055
0.604009
0.440217
0.352611
0.349121
0.290323
0.159101
0.196043
0.367552
0.307749
0.242244
0.239154
0.408626
0.279636
0.353593
0.408841
0.342381
0.273958
0.499929
0.552773
0.536521
0.511776
0.426019
0.445215
0.47104
0.511155
0.53458
0.561011
0.439522
0.445568
0.446558
0.443885
0.441902
0.444896
0.445032
0.447347
0.44799
0.450514
0.449764
-0.104816
-0.0900597
-0.0988694
-0.106839
-0.0425236
-0.0618596
-0.0423045
-0.0740433
-0.0610471
-0.060248
-0.0734246
-0.0909192
-0.0861539
-0.0745601
0.0347405
0.051322
0.0455235
0.00863685
0.19951
0.348337
0.411004
0.294474
0.150936
0.165144
0.240875
-0.0469209
-0.0136613
-0.032678
0.0148589
-0.0150739
-0.0788156
-0.0834434
-0.085591
-0.0598442
-0.0587333
-0.0899506
-0.116182
-0.0950934
-0.0940186
-0.0947464
-0.104315
0.425552
0.41892
0.421891
0.414717
0.413009
0.428937
0.433112
0.434278
0.439524
0.441706
0.432008
0.437786
0.441419
-0.0621717
-0.138277
-0.102041
-0.0927943
-0.122355
-0.141598
-0.125157
0.0565354
-0.0370155
-0.00626756
-0.0682518
-0.185066
-0.125733
0.429069
0.429029
0.433612
0.640199
0.485557
0.402409
0.49877
0.612649
0.199525
0.406949
0.237049
0.815439
0.713861
0.858758
0.487863
0.183399
0.346133
0.359806
0.194636
0.321661
0.285271
0.163848
0.203071
0.222798
0.306308
0.192088
0.170715
-0.0723247
0.104873
0.220268
0.2016
0.333586
0.392626
0.190823
0.10709
0.0558125
0.549494
0.568118
0.580577
0.549829
0.574725
0.506704
0.498861
0.51624
0.523198
0.517034
-0.712459
-0.301736
-1.50338
-0.909977
-0.460656
0.449338
0.439726
0.678247
0.58642
0.642896
0.62795
0.566235
0.530846
0.560731
0.589369
0.28214
0.38767
0.35164
0.366074
0.298667
0.225554
0.521929
0.521462
0.544284
0.569512
0.544443
0.572736
0.437963
0.437681
0.436871
0.433302
0.431648
0.434438
-0.013684
-0.0446122
-0.00391774
-0.0168208
-0.0303523
-0.0348825
-0.0404113
-0.0597038
-0.0693433
-0.0815778
-0.0573488
-0.0425814
0.101847
0.0446607
-0.0457682
-0.000737696
-0.0666526
-0.147081
-0.150896
-0.0634112
0.0358352
0.0176309
0.32038
0.595519
0.422208
0.586947
0.377811
0.483321
0.415699
0.386113
0.418639
0.308777
0.395569
-0.0481097
-0.245145
-0.303731
0.740425
0.698401
0.490069
0.235524
0.121002
0.420692
0.460073
0.420518
0.455427
0.505858
0.494882
-0.0647269
0.0361464
0.0978282
0.409144
0.210951
0.225445
0.220696
0.375974
0.353307
)
;

boundaryField
{
    wall-4
    {
        type            zeroGradient;
    }
    velocity-inlet-5
    {
        type            zeroGradient;
    }
    velocity-inlet-6
    {
        type            zeroGradient;
    }
    pressure-outlet-7
    {
        type            fixedValue;
        value           uniform 0;
    }
    wall-8
    {
        type            zeroGradient;
    }
    frontAndBackPlanes
    {
        type            empty;
    }
}


// ************************************************************************* //
