/*--------------------------------*- C++ -*----------------------------------*\
  =========                 |
  \\      /  F ield         | OpenFOAM: The Open Source CFD Toolbox
   \\    /   O peration     | Website:  https://openfoam.org
    \\  /    A nd           | Version:  6
     \\/     M anipulation  |
\*---------------------------------------------------------------------------*/
FoamFile
{
    version     2.0;
    format      ascii;
    class       volScalarField;
    location    "56.6";
    object      p;
}
// * * * * * * * * * * * * * * * * * * * * * * * * * * * * * * * * * * * * * //

dimensions      [0 2 -2 0 0 0 0];

internalField   nonuniform List<scalar> 
8800
(
0.881529
0.832211
0.794242
0.766166
0.745995
0.731394
0.720775
0.713206
0.708281
0.706158
0.707471
0.711766
0.718524
0.727921
0.740639
0.757947
0.781816
0.814909
0.857843
0.910356
0.716032
0.722375
0.731521
0.735064
0.732447
0.726346
0.719386
0.713118
0.70828
0.705363
0.705073
0.707646
0.712245
0.718342
0.72542
0.732439
0.737308
0.737177
0.730497
0.721595
0.689566
0.695798
0.700292
0.704155
0.707091
0.708023
0.706911
0.704756
0.702731
0.701833
0.702803
0.705203
0.70805
0.710292
0.710793
0.70899
0.705614
0.701594
0.696809
0.693092
0.685292
0.688056
0.690655
0.692802
0.694525
0.696074
0.69715
0.697466
0.697303
0.697337
0.698073
0.699157
0.699855
0.699673
0.698675
0.697304
0.695622
0.693311
0.690895
0.689329
0.680273
0.681697
0.683528
0.685596
0.687292
0.688562
0.68963
0.690567
0.69132
0.691983
0.692616
0.693011
0.692985
0.692585
0.69189
0.690755
0.689084
0.687179
0.685821
0.685018
0.675331
0.676232
0.67747
0.679082
0.680756
0.682262
0.68351
0.684584
0.685583
0.686516
0.687211
0.687526
0.687478
0.687066
0.686231
0.685019
0.683639
0.682361
0.681534
0.68101
0.670483
0.671138
0.672089
0.67339
0.674814
0.6763
0.677744
0.679051
0.680238
0.681343
0.682189
0.682595
0.682545
0.682055
0.681236
0.680264
0.679249
0.67833
0.677744
0.677361
0.665728
0.666232
0.667007
0.668128
0.669402
0.670784
0.672245
0.673721
0.675146
0.676486
0.677517
0.678019
0.678015
0.67763
0.677018
0.676294
0.675529
0.674848
0.674415
0.674116
0.661014
0.661415
0.662063
0.663062
0.664262
0.665586
0.667036
0.668601
0.670232
0.671843
0.67311
0.673788
0.673962
0.673795
0.673416
0.672905
0.672339
0.671849
0.671527
0.671285
0.656262
0.656589
0.65715
0.658068
0.659219
0.660528
0.662009
0.663668
0.665485
0.667379
0.668959
0.669925
0.67037
0.670455
0.670304
0.670012
0.669636
0.669305
0.669066
0.668864
0.651386
0.651657
0.652158
0.653029
0.654161
0.655495
0.657047
0.658843
0.660881
0.663106
0.66508
0.666418
0.667191
0.66756
0.667655
0.667581
0.667396
0.667203
0.667032
0.666858
0.6463
0.646529
0.646991
0.647845
0.648999
0.650398
0.652064
0.654048
0.656373
0.659006
0.661462
0.66325
0.664407
0.665102
0.665472
0.665627
0.665629
0.665564
0.665447
0.665293
0.640915
0.64111
0.641553
0.642419
0.643635
0.645143
0.646979
0.649219
0.651917
0.655066
0.658107
0.660425
0.662026
0.663091
0.663768
0.664163
0.66437
0.664422
0.664352
0.664211
0.63513
0.635299
0.63574
0.636648
0.637965
0.639636
0.641708
0.644286
0.647456
0.651242
0.654992
0.657945
0.66007
0.661559
0.662586
0.663269
0.663675
0.66384
0.66381
0.663679
0.628832
0.628979
0.629433
0.630411
0.631876
0.63377
0.636157
0.639173
0.642939
0.647508
0.65212
0.65583
0.658572
0.660558
0.661979
0.662973
0.663607
0.663891
0.663897
0.663771
0.621883
0.622006
0.622489
0.623569
0.625233
0.627419
0.63021
0.633775
0.638278
0.64381
0.649464
0.654082
0.657558
0.660131
0.66202
0.663373
0.664258
0.664663
0.664703
0.664578
0.614106
0.614207
0.614734
0.61595
0.617873
0.620436
0.623738
0.627994
0.633409
0.640112
0.647028
0.652736
0.657082
0.660345
0.66279
0.664561
0.665729
0.666262
0.666334
0.666207
0.605268
0.605373
0.605949
0.607336
0.609594
0.612635
0.616586
0.621709
0.62826
0.636401
0.644831
0.651833
0.657206
0.66128
0.664384
0.666643
0.668128
0.668799
0.668901
0.668769
0.595066
0.595156
0.595823
0.597445
0.600139
0.603794
0.608571
0.614793
0.622761
0.63266
0.642908
0.651433
0.658007
0.663036
0.666896
0.669726
0.671573
0.672389
0.672519
0.672378
0.583139
0.583214
0.583984
0.585919
0.589172
0.593619
0.599457
0.607068
0.616805
0.628862
0.641279
0.651585
0.659558
0.665703
0.670438
0.673936
0.676179
0.677142
0.677295
0.677141
0.568939
0.569007
0.569923
0.572269
0.576253
0.581743
0.58896
0.59835
0.610295
0.62497
0.639972
0.652362
0.661947
0.669365
0.67512
0.679365
0.682035
0.683144
0.683312
0.683143
0.551703
0.551763
0.552891
0.555819
0.560806
0.567702
0.576758
0.588473
0.603215
0.621082
0.639107
0.653867
0.665266
0.67413
0.681018
0.686092
0.689207
0.690446
0.690618
0.69043
0.53029
0.530355
0.531825
0.535622
0.542053
0.550931
0.562508
0.577297
0.59558
0.61729
0.638792
0.656205
0.669612
0.680069
0.688181
0.694156
0.697695
0.699031
0.69919
0.69898
0.502953
0.503046
0.505104
0.510304
0.518955
0.530747
0.545885
0.564771
0.587488
0.613746
0.639163
0.659471
0.675047
0.687206
0.696649
0.703514
0.707414
0.708788
0.708913
0.708681
0.466652
0.466865
0.470124
0.477913
0.490314
0.506583
0.526803
0.55108
0.579212
0.610697
0.640428
0.663811
0.681644
0.695573
0.706377
0.714049
0.718171
0.719496
0.719562
0.719311
0.415625
0.416689
0.423159
0.436285
0.45523
0.478426
0.505676
0.536767
0.571298
0.6086
0.642869
0.669388
0.689477
0.705126
0.71722
0.72553
0.729654
0.730823
0.730811
0.730545
0.341495
0.348787
0.363625
0.386527
0.415259
0.447726
0.483528
0.522407
0.563981
0.607607
0.646824
0.676779
0.699366
0.716939
0.730305
0.73908
0.743101
0.744096
0.74403
0.743795
0.262574
0.278535
0.302643
0.336103
0.375117
0.417013
0.461445
0.508334
0.557413
0.608108
0.653197
0.687452
0.713202
0.733129
0.748011
0.757148
0.760847
0.761599
0.761549
0.761409
0.194978
0.214488
0.246353
0.288923
0.337122
0.387914
0.440761
0.49553
0.551938
0.609439
0.660107
0.698367
0.727046
0.749078
0.765082
0.77427
0.777649
0.778283
0.778272
0.778189
0.139649
0.16137
0.198587
0.247693
0.303087
0.361348
0.421635
0.483654
0.546975
0.610968
0.666945
0.708966
0.74029
0.764167
0.78123
0.790711
0.794144
0.794815
0.794828
0.79478
0.0937578
0.116806
0.157905
0.212127
0.273288
0.337721
0.404389
0.472861
0.542518
0.612566
0.673555
0.719157
0.752994
0.778648
0.796833
0.806963
0.810658
0.811322
0.81137
0.81135
0.0546985
0.0785591
0.122537
0.180926
0.246953
0.316661
0.388853
0.463022
0.538429
0.614131
0.679868
0.728915
0.765202
0.792615
0.811972
0.822835
0.826843
0.827583
0.827663
0.827663
0.0204539
0.0448757
0.0911192
0.152962
0.223143
0.297444
0.374544
0.453875
0.534589
0.615589
0.685831
0.738107
0.77674
0.805817
0.826291
0.837817
0.842201
0.84309
0.843203
0.843212
-0.0104552
0.0144385
0.0625595
0.127346
0.201128
0.279469
0.360993
0.44506
0.530706
0.616708
0.691234
0.746601
0.787399
0.818003
0.839486
0.851614
0.856349
0.857424
0.857546
0.857553
-0.0390253
-0.0136897
0.0360394
0.103405
0.18035
0.262272
0.347783
0.436204
0.526494
0.617275
0.695951
0.754281
0.797095
0.829094
0.851439
0.864076
0.869101
0.870311
0.870435
0.870428
-0.0660417
-0.0402173
0.0109736
0.0806432
0.160379
0.245497
0.334621
0.427067
0.521744
0.617134
0.699881
0.761114
0.805869
0.839138
0.862198
0.875185
0.880394
0.881684
0.881799
0.881772
-0.091867
-0.0655785
-0.0130349
0.0586928
0.140919
0.228908
0.321319
0.417478
0.516289
0.616171
0.702967
0.767107
0.81378
0.848212
0.871861
0.885052
0.890328
0.891654
0.891741
0.891687
-0.116916
-0.0900766
-0.0362821
0.0373075
0.121768
0.212338
0.307741
0.407326
0.510028
0.614287
0.705167
0.772295
0.820922
0.856462
0.880562
0.893834
0.899114
0.90043
0.900504
0.900425
-0.14131
-0.113908
-0.0589314
0.0163414
0.102801
0.195694
0.293812
0.396553
0.502912
0.611417
0.706439
0.776717
0.827404
0.864065
0.888552
0.901788
0.906972
0.908222
0.908274
0.908177
-0.16516
-0.137182
-0.0810871
-0.00428036
0.0839696
0.178943
0.279512
0.385136
0.49491
0.607512
0.706744
0.780398
0.833338
0.871184
0.89598
0.909045
0.914047
0.915193
0.915187
0.915062
-0.188555
-0.15997
-0.102789
-0.0245781
0.0652553
0.162089
0.264858
0.373095
0.486021
0.60254
0.706032
0.783329
0.838814
0.877978
0.902986
0.91572
0.920394
0.921368
0.921299
0.921155
-0.211538
-0.182265
-0.124034
-0.044551
0.04669
0.145164
0.249895
0.360473
0.476274
0.596478
0.704241
0.785454
0.84389
0.884634
0.909769
0.921926
0.926086
0.926814
0.926685
0.92653
-0.233951
-0.20403
-0.144795
-0.0641807
0.0283099
0.128235
0.234686
0.347344
0.465725
0.589345
0.701302
0.786682
0.848554
0.891322
0.916638
0.927933
0.931252
0.931598
0.931401
0.93125
-0.255757
-0.225219
-0.165051
-0.0834161
0.0101748
0.111365
0.219322
0.333784
0.454451
0.581163
0.697162
0.786892
0.852706
0.89813
0.924017
0.934273
0.936208
0.935814
0.935498
0.935394
-0.277013
-0.245796
-0.184769
-0.102221
-0.00764985
0.0946386
0.203892
0.319898
0.442542
0.57199
0.691761
0.785953
0.856142
0.904937
0.932273
0.941869
0.941873
0.939871
0.93906
0.939178
-0.297553
-0.265732
-0.20389
-0.120526
-0.0251025
0.0781434
0.188496
0.305795
0.430113
0.56192
0.685071
0.783712
0.858587
0.91133
0.941351
0.951734
0.950326
0.945714
0.942487
0.940984
-0.317472
-0.285026
-0.222418
-0.138359
-0.042216
0.061839
0.173081
0.291417
0.41709
0.550886
0.676934
0.779913
0.859764
0.916754
0.950532
0.964011
0.963696
0.957083
0.947076
0.94695
-0.336679
-0.303746
-0.240488
-0.155915
-0.0592877
0.0453881
0.157228
0.27627
0.402921
0.538246
0.666676
0.773766
0.859152
0.920483
0.958062
0.976218
0.977998
0.967726
0.949652
0.946813
-0.355032
-0.321853
-0.257924
-0.172998
-0.0760542
0.0290961
0.141149
0.260681
0.387903
0.524248
0.654365
0.764643
0.855988
0.921348
0.959742
0.978045
0.982744
0.95887
0.900731
0.875408
-0.372407
-0.34017
-0.274318
-0.189129
-0.0917727
0.0134473
0.125123
0.244925
0.372317
0.509063
0.640079
0.751977
0.849303
0.918576
0.950898
0.963883
0.953659
0.903851
0.842168
0.804475
-0.416221
-0.357916
-0.289478
-0.205076
-0.107207
-0.00249776
0.109283
0.22888
0.355965
0.49235
0.623442
0.735186
0.835351
0.909733
0.929767
0.920407
0.876275
0.813065
0.744855
0.707402
-0.391284
-0.372983
-0.312563
-0.227742
-0.130904
-0.0264279
0.0846289
0.203533
0.329622
0.464444
0.593896
0.703287
0.794542
0.87591
0.862635
0.758037
0.669999
0.608738
0.545685
0.573572
-0.422856
-0.391029
-0.329759
-0.245436
-0.14886
-0.0446068
0.0665972
0.184822
0.309843
0.442822
0.56956
0.675329
0.756151
0.801938
0.75378
0.617716
0.511121
0.439226
0.358033
0.404528
-0.447462
-0.413139
-0.350029
-0.265578
-0.169072
-0.0648538
0.0462319
0.163651
0.287281
0.417819
0.540708
0.640439
0.710048
0.718276
0.615397
0.463086
0.336222
0.245399
0.150834
0.18308
-0.471489
-0.436031
-0.371464
-0.286311
-0.189691
-0.0855802
0.0250081
0.141461
0.263478
0.391183
0.509259
0.600964
0.65422
0.630043
0.475525
0.301048
0.143115
0.0108384
-0.112419
-0.0989344
-0.495278
-0.459362
-0.393821
-0.308032
-0.21122
-0.107296
0.00265815
0.118001
0.238131
0.362596
0.475029
0.558986
0.59185
0.523747
0.33812
0.143383
-0.0419082
-0.194278
-0.398759
-0.477578
-0.519516
-0.483598
-0.417451
-0.331182
-0.234155
-0.130368
-0.0209799
0.0932248
0.211345
0.332314
0.438703
0.513707
0.521576
0.402168
0.212982
0.006113
-0.184207
-0.34484
-0.467984
-0.586406
-0.545293
-0.509233
-0.442722
-0.35616
-0.259048
-0.155493
-0.0467636
0.0661295
0.181901
0.29883
0.398781
0.461506
0.442453
0.286754
0.0960213
-0.10491
-0.278534
-0.374809
-0.400851
-0.414364
-0.572746
-0.536561
-0.469773
-0.383073
-0.286056
-0.182902
-0.0750741
0.0361991
0.149174
0.261341
0.354421
0.399899
0.362236
0.176076
-0.0128061
-0.193471
-0.324404
-0.361883
-0.370759
-0.371081
-0.60216
-0.565713
-0.498647
-0.41191
-0.315132
-0.212608
-0.105942
0.00337078
0.113085
0.219809
0.305015
0.334833
0.266379
0.0750546
-0.107838
-0.264778
-0.337851
-0.351758
-0.35283
-0.352671
-0.633554
-0.596729
-0.529363
-0.442673
-0.346298
-0.244607
-0.139383
-0.032382
0.0736456
0.174326
0.250389
0.266004
0.159825
-0.0163372
-0.189491
-0.313753
-0.341678
-0.342201
-0.342695
-0.342273
-0.666673
-0.629439
-0.561819
-0.47528
-0.379469
-0.278854
-0.175378
-0.0710485
0.0309092
0.12498
0.191718
0.188668
0.0651413
-0.100662
-0.253722
-0.324096
-0.338588
-0.336195
-0.335746
-0.335312
-0.70095
-0.663497
-0.595753
-0.509502
-0.414458
-0.31519
-0.213782
-0.112517
-0.0149191
0.072161
0.129373
0.110547
-0.0225585
-0.174824
-0.295
-0.33185
-0.331044
-0.331232
-0.33078
-0.330338
-0.735943
-0.698367
-0.630674
-0.544912
-0.450905
-0.353293
-0.254315
-0.156518
-0.063586
0.0168042
0.0618815
0.0371894
-0.102569
-0.23216
-0.31705
-0.325314
-0.327703
-0.328522
-0.328323
-0.327987
-0.770682
-0.733146
-0.665823
-0.580859
-0.488244
-0.392676
-0.296517
-0.202578
-0.114696
-0.0403056
-0.00567491
-0.0373213
-0.172015
-0.277356
-0.321391
-0.331912
-0.327777
-0.326143
-0.325347
-0.325091
-0.803245
-0.766512
-0.700149
-0.616429
-0.525676
-0.43262
-0.339725
-0.249979
-0.167501
-0.0988467
-0.0684268
-0.115006
-0.231669
-0.322567
-0.339987
-0.335627
-0.327856
-0.321661
-0.319872
-0.319402
-0.832573
-0.796933
-0.732217
-0.650393
-0.562118
-0.472155
-0.383067
-0.297822
-0.220867
-0.158083
-0.130129
-0.180649
-0.278397
-0.357938
-0.376334
-0.352605
-0.331173
-0.319886
-0.316626
-0.315429
-0.855882
-0.822244
-0.760224
-0.681185
-0.596219
-0.510065
-0.425416
-0.345069
-0.273713
-0.215905
-0.192395
-0.229385
-0.304076
-0.368427
-0.367776
-0.363737
-0.356928
-0.350443
-0.344997
-0.34208
-0.871009
-0.840232
-0.782025
-0.706997
-0.626402
-0.544944
-0.465382
-0.390558
-0.324879
-0.270249
-0.247686
-0.270853
-0.293847
-0.358175
-0.360702
-0.384719
-0.407423
-0.406922
-0.399753
-0.397771
-0.87518
-0.848412
-0.795432
-0.725904
-0.650944
-0.57531
-0.501453
-0.432879
-0.372744
-0.322347
-0.292367
-0.310473
-0.268169
-0.265184
-0.311084
-0.367338
-0.399008
-0.406391
-0.407556
-0.409089
-0.866045
-0.844243
-0.798236
-0.736053
-0.668267
-0.59968
-0.532368
-0.47012
-0.416074
-0.37397
-0.325798
-0.359919
-0.314793
-0.222497
-0.315961
-0.37581
-0.402651
-0.419105
-0.427831
-0.430632
-0.840825
-0.824781
-0.788401
-0.736121
-0.677247
-0.616801
-0.557123
-0.50076
-0.454272
-0.419618
-0.383347
-0.444289
-0.551829
-0.572753
-0.562111
-0.544077
-0.53035
-0.523367
-0.520726
-0.520293
-0.80293
-0.79269
-0.766877
-0.726238
-0.677678
-0.626244
-0.574616
-0.524591
-0.483536
-0.458256
-0.455898
-0.550345
-0.756835
-0.93825
-0.800408
-0.672494
-0.62593
-0.600275
-0.585999
-0.581484
-0.759423
-0.753675
-0.738602
-0.709375
-0.67142
-0.628676
-0.58406
-0.541055
-0.502246
-0.483404
-0.474472
-0.552548
-0.577674
-0.638987
-0.534699
-0.495309
-0.503127
-0.493711
-0.481093
-0.481554
-0.72047
-0.717089
-0.709921
-0.690836
-0.661487
-0.625639
-0.587009
-0.546802
-0.511091
-0.484506
-0.475279
-0.456433
-0.370799
-0.340999
-0.467498
-0.576602
-0.615675
-0.558356
-0.478324
-0.465514
-0.692221
-0.690276
-0.686647
-0.674934
-0.652005
-0.620703
-0.584537
-0.545763
-0.506638
-0.474141
-0.479024
-0.427657
-0.373457
-0.351729
-0.312663
-0.399955
-0.462325
-0.477475
-0.446737
-0.429251
-0.670984
-0.670244
-0.669047
-0.663192
-0.645606
-0.616742
-0.580211
-0.538332
-0.492473
-0.453344
-0.42406
-0.394452
-0.287515
-0.227867
-0.220065
-0.227977
-0.266315
-0.305288
-0.307637
-0.302614
-0.658678
-0.658359
-0.657785
-0.655246
-0.642565
-0.61431
-0.574038
-0.526169
-0.475207
-0.411424
-0.34877
-0.277914
-0.210623
-0.196586
-0.267443
-0.299232
-0.277434
-0.165958
-0.0575161
-0.0102559
-0.650828
-0.65067
-0.650408
-0.650149
-0.642008
-0.613409
-0.568537
-0.514851
-0.446891
-0.364563
-0.274128
-0.117889
0.0183903
0.123799
0.229783
0.313683
0.457568
0.668678
0.816621
0.876365
-0.644938
-0.645438
-0.646529
-0.647929
-0.641572
-0.61302
-0.565107
-0.50352
-0.424627
-0.326808
-0.209569
-0.0567822
0.19415
0.461022
0.775286
1.10539
1.39473
1.6079
1.71829
1.75244
-0.635843
-0.6367
-0.63792
-0.638241
-0.632872
-0.609343
-0.565913
-0.502307
-0.415494
-0.298552
-0.177234
-0.0457352
0.188961
0.502
0.935991
1.32733
1.63268
1.82742
1.90965
1.93036
-0.639145
-0.637494
-0.628057
-0.612081
-0.605278
-0.604273
-0.578506
-0.510938
-0.41262
-0.292613
-0.163029
-0.0380508
0.143929
0.455798
0.823686
1.16212
1.41863
1.56126
1.61762
1.63018
-0.682126
-0.677106
-0.662046
-0.64091
-0.632845
-0.641597
-0.617065
-0.528471
-0.414766
-0.294944
-0.168836
-0.0540818
0.0638726
0.297907
0.606802
0.864618
1.05518
1.15245
1.18935
1.19433
-0.775634
-0.77735
-0.790876
-0.81046
-0.80631
-0.78275
-0.692258
-0.552282
-0.417605
-0.296
-0.177151
-0.0838223
0.00981607
0.168747
0.381531
0.561435
0.68996
0.753373
0.775044
0.778036
-0.894535
-0.912178
-0.95038
-0.978151
-0.972572
-0.913968
-0.754453
-0.567241
-0.418217
-0.291469
-0.192197
-0.113739
-0.0548742
0.0692199
0.208498
0.311617
0.381983
0.41283
0.424569
0.426425
-0.912317
-0.93231
-0.965614
-0.989994
-0.982328
-0.905662
-0.718741
-0.540965
-0.398658
-0.282553
-0.198331
-0.142126
-0.100374
-0.0310833
0.0571256
0.120104
0.151363
0.163614
0.169659
0.171922
-0.733665
-0.75423
-0.78778
-0.817603
-0.812859
-0.730339
-0.585788
-0.457344
-0.339929
-0.254625
-0.198561
-0.159845
-0.13495
-0.0764588
-0.0223683
0.0120133
0.02332
0.029417
0.0341161
0.0361469
-0.40307
-0.418071
-0.445196
-0.474091
-0.482594
-0.448786
-0.390553
-0.322768
-0.258867
-0.211155
-0.181875
-0.164219
-0.167165
-0.11224
-0.0572386
-0.0277156
-0.0156007
-0.00928485
-0.0062699
-0.00564881
-0.0835449
-0.090821
-0.108163
-0.135608
-0.164289
-0.182941
-0.191328
-0.188197
-0.177047
-0.155479
-0.149141
-0.15925
-0.164567
-0.120859
-0.0777882
-0.0491692
-0.0271229
-0.0135313
-0.00975731
-0.0100857
0.103533
0.100279
0.088698
0.062853
0.0228978
-0.0227708
-0.0605946
-0.0883298
-0.102177
-0.102084
-0.106803
-0.114992
-0.118238
-0.0739346
-0.0361133
-0.0220345
-0.0112488
-0.00716895
-0.00606215
-0.00655599
0.168573
0.166533
0.157946
0.13666
0.101131
0.0571657
0.0137868
-0.0209629
-0.0445581
-0.0545936
-0.0562721
-0.0521178
-0.041207
-0.0259682
-0.00910199
-0.00166549
0.00273875
0.00533642
0.0061032
0.00560108
0.171682
0.170306
0.164408
0.1494
0.123379
0.0897523
0.053766
0.0213701
-0.00230942
-0.0117829
-0.00695401
0.0109159
0.0328465
0.0400601
0.0354003
0.0297791
0.0287706
0.028778
0.0284651
0.0277737
0.15229
0.151463
0.147692
0.13787
0.120282
0.0963293
0.0693391
0.0438913
0.0246672
0.01907
0.0314926
0.060236
0.0856234
0.0834248
0.072411
0.0630643
0.058425
0.0567283
0.0555933
0.0545246
0.126982
0.126538
0.124227
0.118014
0.106532
0.0902855
0.0710935
0.0522423
0.0379145
0.036288
0.0538062
0.0867572
0.114117
0.104421
0.0864994
0.0773764
0.0755759
0.0756592
0.0748305
0.0734528
0.101658
0.101459
0.100101
0.0962634
0.0888796
0.0780873
0.0646794
0.051075
0.0403489
0.0392627
0.0558172
0.0862928
0.109735
0.0966179
0.0800799
0.07406
0.0730811
0.0736683
0.0725812
0.0711811
0.078567
0.0784441
0.0775913
0.075183
0.0703868
0.063058
0.0534788
0.0429613
0.0334946
0.0294291
0.037167
0.0554702
0.0688241
0.0553423
0.0451979
0.0454416
0.0478458
0.0485507
0.0475966
0.0463754
0.0581466
0.058091
0.0575489
0.0560142
0.0528367
0.0476914
0.0404707
0.0314966
0.0212137
0.0106495
0.00157596
-0.00445077
-0.0105603
-0.0193632
-0.0168946
-0.00627667
0.00195743
0.00509312
0.00454594
0.00349644
0.0407361
0.0406873
0.0403045
0.0393325
0.037197
0.0334849
0.0277726
0.0195324
0.00769041
-0.0106358
-0.0403976
-0.0785839
-0.117506
-0.115411
-0.0888627
-0.0660325
-0.0545374
-0.051851
-0.0518183
-0.0521601
0.0264956
0.0264474
0.0261857
0.0255286
0.0241283
0.0214753
0.016959
0.00966751
-0.00295311
-0.0264425
-0.0712134
-0.139652
-0.185404
-0.170655
-0.134085
-0.110102
-0.102633
-0.10129
-0.10004
-0.0993536
0.0152999
0.0152418
0.0150499
0.0147017
0.0138867
0.012172
0.0089003
0.00315808
-0.00768714
-0.0304934
-0.0748922
-0.140112
-0.173386
-0.151183
-0.12485
-0.114527
-0.113718
-0.114744
-0.113199
-0.112113
0.006999
0.00694735
0.00683897
0.00672505
0.00644266
0.00560954
0.00371946
3.92351e-05
-0.00667726
-0.0218173
-0.0513931
-0.0945716
-0.106231
-0.0893951
-0.0766784
-0.0787014
-0.0835762
-0.0858594
-0.0845476
-0.0834524
0.00107848
0.0010735
0.00104093
0.00105962
0.00119822
0.00124306
0.00106968
0.00059747
-0.000422165
-0.00235747
-0.00753887
-0.0150634
-0.0217988
-0.016523
-0.0221092
-0.0228235
-0.0236209
-0.0219698
-0.0201897
-0.0191578
0.0344014
0.224136
0.398845
0.547243
0.666903
0.762167
0.841818
0.906542
0.923162
0.919358
0.327373
0.449883
0.564887
0.665015
0.74953
0.819498
0.874698
0.912002
0.931923
0.948429
0.5269
0.608848
0.689835
0.760903
0.821577
0.871939
0.91159
0.941755
0.964394
0.983609
0.67489
0.732693
0.790813
0.843162
0.88841
0.926926
0.959218
0.986284
1.00664
1.02553
0.792037
0.835574
0.878705
0.919186
0.955383
0.987352
1.01529
1.03895
1.05694
1.07498
0.889227
0.925091
0.960674
0.994614
1.02588
1.05416
1.07911
1.10003
1.11585
1.13332
0.978001
1.01008
1.04251
1.07384
1.10294
1.12939
1.15256
1.17154
1.18548
1.2025
1.06516
1.09781
1.13031
1.16159
1.19042
1.21626
1.23843
1.25598
1.26839
1.28492
1.15969
1.19613
1.23094
1.26344
1.29266
1.31804
1.33919
1.3555
1.36713
1.38328
1.27282
1.31342
1.35047
1.38346
1.41198
1.436
1.45564
1.47093
1.48284
1.49892
1.41423
1.45533
1.4906
1.52021
1.54544
1.56706
1.58558
1.60107
1.61419
1.63015
1.58581
1.61823
1.64512
1.66744
1.68754
1.70627
1.72401
1.74079
1.7557
1.77143
1.77216
1.78944
1.80657
1.82325
1.83935
1.85409
1.868
1.88248
1.89772
1.91502
1.95555
1.96553
1.97874
1.98972
1.99913
2.00879
2.0194
2.02959
2.03888
2.06454
2.17346
2.16776
2.15482
2.14056
2.13426
2.13998
2.15812
2.18665
2.22041
2.25674
2.47628
2.34032
2.26082
2.21831
2.20099
2.20496
2.2324
2.29026
2.39793
2.57633
0.785226
0.778922
0.77119
0.760072
0.746496
0.73384
0.723432
0.715406
0.709671
0.706317
0.70594
0.708752
0.713969
0.721315
0.730857
0.742681
0.75624
0.769167
0.778155
0.785695
0.694302
0.700221
0.70829
0.714419
0.717482
0.716962
0.713865
0.709855
0.706247
0.70394
0.703782
0.706014
0.709751
0.714186
0.71828
0.72052
0.719443
0.714804
0.707748
0.699914
0.687564
0.689936
0.6932
0.695969
0.698413
0.700593
0.701761
0.701598
0.70064
0.699809
0.699999
0.701391
0.703156
0.704373
0.70429
0.702817
0.700654
0.69829
0.695305
0.692286
0.682792
0.68388
0.685794
0.688127
0.689991
0.69138
0.692585
0.69356
0.694137
0.694489
0.695016
0.695736
0.696185
0.696054
0.695416
0.694486
0.693149
0.691176
0.689066
0.687587
0.677792
0.678426
0.679552
0.681303
0.683138
0.68472
0.685956
0.686999
0.687955
0.688823
0.689579
0.690074
0.690192
0.68997
0.689421
0.688439
0.687005
0.685389
0.684048
0.683245
0.672897
0.673336
0.674122
0.675419
0.676931
0.678481
0.679942
0.681214
0.682339
0.68339
0.684307
0.68488
0.685036
0.684782
0.684104
0.683094
0.681932
0.680781
0.679874
0.679339
0.668099
0.668427
0.669037
0.670099
0.671383
0.672767
0.674225
0.675672
0.677029
0.678289
0.679394
0.680104
0.680302
0.680035
0.679421
0.678623
0.677766
0.676903
0.676237
0.675844
0.663374
0.663628
0.664119
0.665023
0.666182
0.667473
0.668872
0.670368
0.671906
0.673419
0.674764
0.675639
0.675945
0.675819
0.675415
0.674851
0.674204
0.673566
0.673078
0.672778
0.658652
0.658854
0.659262
0.660055
0.661136
0.662378
0.663759
0.665296
0.666971
0.668723
0.670353
0.67148
0.672014
0.672125
0.671955
0.671611
0.671167
0.670718
0.670369
0.670133
0.653848
0.654012
0.654362
0.655081
0.656114
0.657335
0.658743
0.66036
0.662186
0.664187
0.666154
0.667633
0.668485
0.668881
0.66896
0.668841
0.668606
0.668328
0.668093
0.667904
0.648879
0.649011
0.64932
0.649994
0.651009
0.652254
0.653728
0.655469
0.657499
0.659806
0.662185
0.664101
0.665336
0.666059
0.666419
0.666539
0.666511
0.666395
0.666257
0.666105
0.643655
0.643763
0.644043
0.644698
0.645731
0.647042
0.648625
0.650542
0.652843
0.655541
0.65843
0.660868
0.662552
0.663655
0.664334
0.664716
0.664896
0.664948
0.664894
0.66477
0.638083
0.63817
0.638434
0.639094
0.64018
0.641599
0.643347
0.645509
0.648164
0.651356
0.654868
0.657937
0.660152
0.661692
0.662727
0.663411
0.663828
0.664032
0.664053
0.66395
0.632058
0.632125
0.632383
0.633071
0.634247
0.635822
0.637798
0.640287
0.643398
0.647208
0.651486
0.655311
0.658153
0.660204
0.661647
0.662668
0.663342
0.663712
0.663804
0.663718
0.62545
0.625499
0.62576
0.626499
0.627804
0.62959
0.631871
0.63478
0.638463
0.643033
0.648242
0.652982
0.656576
0.65923
0.661151
0.662546
0.663519
0.664067
0.664229
0.664157
0.61811
0.61814
0.618409
0.619221
0.620699
0.622763
0.625434
0.628874
0.633271
0.638781
0.645125
0.650961
0.655446
0.658815
0.661302
0.663147
0.664454
0.665194
0.665426
0.665364
0.609841
0.60986
0.610131
0.611044
0.612748
0.615167
0.618332
0.622441
0.627725
0.634388
0.642107
0.649265
0.654814
0.659024
0.662182
0.664562
0.666251
0.6672
0.667503
0.667449
0.600337
0.600331
0.600657
0.601712
0.603713
0.606585
0.610381
0.615338
0.621743
0.629835
0.639224
0.64795
0.654748
0.659941
0.663884
0.666891
0.669016
0.6702
0.670575
0.670526
0.589317
0.589288
0.589662
0.590908
0.593283
0.596743
0.601348
0.607381
0.61519
0.625048
0.636459
0.647043
0.655303
0.661656
0.666519
0.670244
0.672875
0.67431
0.674756
0.674707
0.576303
0.576253
0.576703
0.578198
0.581057
0.585282
0.590934
0.598352
0.607931
0.619973
0.633822
0.646594
0.656554
0.664245
0.67018
0.674736
0.677931
0.679631
0.680143
0.68009
0.560649
0.560576
0.561149
0.562993
0.566498
0.571739
0.57878
0.588
0.599836
0.614574
0.631347
0.64668
0.65859
0.667797
0.674961
0.680452
0.684268
0.686237
0.686806
0.686742
0.541421
0.54133
0.542101
0.544451
0.548867
0.555525
0.564462
0.576094
0.590854
0.608941
0.629173
0.64743
0.661518
0.672422
0.680934
0.687465
0.691937
0.694157
0.69476
0.694678
0.517211
0.517118
0.518219
0.521354
0.527138
0.535863
0.547488
0.5624
0.580943
0.603145
0.627409
0.648931
0.66542
0.678175
0.688138
0.695798
0.700912
0.703333
0.703939
0.703832
0.485705
0.485656
0.487358
0.491844
0.499909
0.511846
0.527426
0.546862
0.570253
0.597382
0.626238
0.651343
0.670388
0.685108
0.696613
0.705406
0.711077
0.713606
0.71417
0.71403
0.442774
0.442921
0.445922
0.45321
0.465538
0.482759
0.504196
0.529732
0.559171
0.59206
0.625981
0.654867
0.676537
0.693251
0.706301
0.716166
0.722207
0.724681
0.72515
0.724975
0.380739
0.382038
0.389319
0.403047
0.423166
0.448778
0.478477
0.511766
0.548322
0.587614
0.626902
0.659656
0.683949
0.702576
0.717036
0.727752
0.733896
0.73609
0.736397
0.736204
0.306573
0.309123
0.323267
0.346896
0.377675
0.413245
0.451914
0.493426
0.537587
0.583953
0.629524
0.667112
0.694866
0.716067
0.732337
0.74389
0.750083
0.752148
0.752425
0.752331
0.230588
0.237404
0.258643
0.292198
0.333371
0.378659
0.426314
0.476158
0.528063
0.581632
0.633608
0.676145
0.707441
0.731296
0.749467
0.761806
0.767713
0.769364
0.769566
0.76954
0.168645
0.177298
0.20314
0.24374
0.293109
0.346672
0.402441
0.460086
0.519364
0.579824
0.637937
0.685155
0.719721
0.745953
0.765597
0.778462
0.78433
0.785858
0.786116
0.786149
0.117895
0.127258
0.156607
0.202461
0.258
0.318189
0.380805
0.445348
0.511401
0.578341
0.642249
0.693902
0.731517
0.759919
0.781089
0.794601
0.800576
0.802341
0.802697
0.80277
0.0753608
0.0850354
0.11679
0.166757
0.227364
0.293075
0.361501
0.43205
0.504161
0.577051
0.646402
0.70228
0.74284
0.773356
0.795964
0.810382
0.816869
0.818894
0.819291
0.819379
0.0385927
0.0484139
0.0819841
0.135253
0.200099
0.270545
0.344029
0.419885
0.497473
0.57588
0.650375
0.710249
0.75365
0.786199
0.810257
0.825632
0.832682
0.834899
0.83534
0.835422
0.00592888
0.0158167
0.0508272
0.106835
0.175283
0.249829
0.3278
0.408469
0.491102
0.574653
0.654
0.717678
0.763725
0.798199
0.8236
0.839846
0.847471
0.849905
0.85037
0.850435
-0.023866
-0.0139243
0.0222601
0.0806381
0.152213
0.230358
0.312331
0.397379
0.484685
0.573086
0.657078
0.724407
0.772956
0.80918
0.835766
0.852763
0.860915
0.863548
0.864033
0.864077
-0.0517173
-0.0417053
-0.00445771
0.0560269
0.130359
0.211681
0.297235
0.386277
0.47795
0.570975
0.659462
0.730344
0.781299
0.819148
0.846807
0.864378
0.8729
0.875681
0.87618
0.876199
-0.078175
-0.0680703
-0.0298328
0.032547
0.109317
0.193468
0.282256
0.374958
0.470698
0.568151
0.661039
0.735452
0.788771
0.828163
0.856748
0.874792
0.883463
0.886337
0.886845
0.886835
-0.103671
-0.0934049
-0.0542382
0.0098668
0.0888131
0.175503
0.267216
0.363268
0.462796
0.564482
0.661739
0.739716
0.795431
0.836332
0.865712
0.884068
0.8928
0.895666
0.896168
0.896144
-0.128477
-0.117971
-0.0779147
-0.0122243
0.0686771
0.157637
0.251996
0.351116
0.454168
0.559901
0.661494
0.74313
0.801351
0.843783
0.873895
0.89244
0.901144
0.903957
0.904417
0.904354
-0.15268
-0.141912
-0.100999
-0.0338519
0.0488056
0.139805
0.236546
0.338459
0.444777
0.554352
0.660239
0.745695
0.806606
0.850663
0.881496
0.900124
0.908677
0.911372
0.911773
0.911688
-0.176375
-0.165339
-0.123591
-0.0550665
0.029164
0.121979
0.220858
0.325298
0.434614
0.547814
0.657928
0.747387
0.811252
0.857112
0.88866
0.907228
0.915522
0.918021
0.918326
0.918203
-0.199583
-0.188269
-0.145692
-0.0758874
0.00975311
0.104177
0.204965
0.311669
0.423708
0.54028
0.654519
0.748147
0.815307
0.863266
0.895569
0.913893
0.921722
0.923922
0.924104
0.923951
-0.22236
-0.2107
-0.167273
-0.0962986
-0.00940982
0.0864373
0.188913
0.297633
0.412112
0.53177
0.649973
0.747896
0.81873
0.869238
0.902454
0.920346
0.927423
0.929145
0.929176
0.929003
-0.244473
-0.232577
-0.188314
-0.116276
-0.0282731
0.0688338
0.172772
0.283264
0.399901
0.52234
0.644267
0.746543
0.821426
0.875054
0.909589
0.927001
0.932919
0.933816
0.933597
0.93342
-0.266077
-0.25384
-0.208779
-0.13579
-0.0467996
0.0514112
0.156638
0.268643
0.387162
0.51207
0.6374
0.743988
0.823247
0.880598
0.91717
0.934482
0.938893
0.938284
0.937448
0.937284
-0.286986
-0.27445
-0.228647
-0.154785
-0.0649057
0.0342583
0.140598
0.253896
0.374003
0.501029
0.629397
0.740132
0.824005
0.885585
0.925102
0.943426
0.946712
0.943842
0.94128
0.940704
-0.307296
-0.294427
-0.247857
-0.173201
-0.0825495
0.017446
0.12474
0.239106
0.360535
0.489352
0.620323
0.734867
0.823493
0.889595
0.932797
0.953816
0.957893
0.953543
0.947327
0.938209
-0.326888
-0.31376
-0.2665
-0.191202
-0.0999545
0.000687496
0.108723
0.223862
0.3463
0.476529
0.609651
0.727608
0.821274
0.892291
0.939525
0.964797
0.972493
0.968242
0.95758
0.955778
-0.345718
-0.332528
-0.284566
-0.208727
-0.1171
-0.0159831
0.0925795
0.208148
0.331268
0.462439
0.597209
0.717875
0.81662
0.892871
0.943285
0.971912
0.982249
0.981459
0.947743
0.908923
-0.363542
-0.350591
-0.301986
-0.225649
-0.133969
-0.0325753
0.0763183
0.192096
0.315511
0.447121
0.582929
0.705337
0.808435