/*--------------------------------*- C++ -*----------------------------------*\
  =========                 |
  \\      /  F ield         | OpenFOAM: The Open Source CFD Toolbox
   \\    /   O peration     | Website:  https://openfoam.org
    \\  /    A nd           | Version:  6
     \\/     M anipulation  |
\*---------------------------------------------------------------------------*/
FoamFile
{
    version     2.0;
    format      ascii;
    class       volScalarField;
    location    "54";
    object      p;
}
// * * * * * * * * * * * * * * * * * * * * * * * * * * * * * * * * * * * * * //

dimensions      [0 2 -2 0 0 0 0];

internalField   nonuniform List<scalar> 
8800
(
0.781637
0.732319
0.694349
0.666273
0.6461
0.631496
0.620875
0.613301
0.60837
0.60624
0.607544
0.611832
0.618585
0.627977
0.640693
0.657999
0.681866
0.714958
0.757891
0.810404
0.616141
0.622484
0.63163
0.635172
0.632554
0.626451
0.619489
0.613217
0.608374
0.605449
0.605151
0.607715
0.612308
0.6184
0.625474
0.63249
0.637357
0.637225
0.630544
0.621642
0.589678
0.595911
0.600404
0.604265
0.607199
0.608129
0.607014
0.604854
0.602821
0.601915
0.602875
0.605268
0.608108
0.610345
0.610842
0.609037
0.60566
0.601638
0.596852
0.593135
0.585409
0.588172
0.59077
0.592916
0.594637
0.596184
0.597256
0.597567
0.597396
0.59742
0.598145
0.59922
0.599911
0.599723
0.598721
0.597346
0.595662
0.593349
0.590933
0.589366
0.580396
0.58182
0.58365
0.585716
0.58741
0.588677
0.58974
0.590671
0.591415
0.592067
0.592687
0.593071
0.593037
0.59263
0.59193
0.590791
0.589117
0.58721
0.585851
0.585048
0.575462
0.576364
0.5776
0.57921
0.580881
0.582383
0.583626
0.584692
0.585681
0.586599
0.58728
0.587583
0.587525
0.587105
0.586264
0.585047
0.583663
0.582382
0.581554
0.581031
0.570624
0.571279
0.572229
0.573527
0.574948
0.576429
0.577867
0.579166
0.580341
0.581431
0.582259
0.58265
0.582586
0.582087
0.581259
0.580282
0.579262
0.578339
0.577752
0.577368
0.565882
0.566386
0.567159
0.568277
0.569547
0.570924
0.572378
0.573844
0.575254
0.576576
0.577585
0.578069
0.57805
0.577652
0.577031
0.576299
0.575527
0.574841
0.574407
0.574109
0.561183
0.561584
0.56223
0.563227
0.564422
0.565741
0.567183
0.568737
0.570352
0.571941
0.573182
0.573836
0.57399
0.573807
0.573414
0.572893
0.57232
0.571824
0.5715
0.571258
0.55645
0.556777
0.557336
0.558251
0.559397
0.5607
0.562171
0.563816
0.565615
0.567484
0.569032
0.569968
0.570389
0.570454
0.570287
0.569981
0.569595
0.569257
0.569017
0.568815
0.551597
0.551868
0.552367
0.553235
0.554361
0.555687
0.557228
0.559008
0.561023
0.563214
0.565151
0.566456
0.5672
0.567544
0.567618
0.567527
0.56733
0.567129
0.566955
0.566782
0.546539
0.546767
0.547227
0.548078
0.549225
0.550615
0.552269
0.554234
0.556532
0.559129
0.561539
0.563283
0.564403
0.565067
0.565412
0.565545
0.565531
0.565455
0.565336
0.565183
0.541188
0.541383
0.541824
0.542686
0.543895
0.545393
0.547213
0.54943
0.552094
0.555195
0.558183
0.560451
0.562009
0.563037
0.563682
0.564051
0.564237
0.564277
0.564204
0.564065
0.535445
0.535614
0.536053
0.536956
0.538265
0.539924
0.541979
0.544534
0.547669
0.551403
0.555088
0.557976
0.560044
0.561485
0.562471
0.563119
0.563499
0.56365
0.563617
0.563487
0.529197
0.529343
0.529795
0.530769
0.532226
0.534107
0.536474
0.53946
0.543182
0.547689
0.552224
0.555859
0.558534
0.560459
0.56183
0.562782
0.563384
0.563651
0.563654
0.56353
0.52231
0.522432
0.522913
0.523988
0.525643
0.527815
0.530584
0.534117
0.538571
0.544029
0.549592
0.55412
0.557514
0.560014
0.561839
0.563137
0.563983
0.564369
0.564407
0.564284
0.514609
0.514708
0.515232
0.516442
0.518355
0.520901
0.524177
0.528392
0.533748
0.540367
0.547176
0.552778
0.557028
0.560206
0.562575
0.56428
0.565399
0.56591
0.56598
0.565856
0.50586
0.505964
0.506537
0.507918
0.510164
0.513188
0.517111
0.522192
0.528678
0.53672
0.545028
0.551906
0.557159
0.561129
0.564137
0.566315
0.567743
0.56839
0.56849
0.568361
0.495769
0.495858
0.496521
0.498136
0.500818
0.504453
0.509198
0.515371
0.523268
0.53306
0.543166
0.551544
0.557981
0.562879
0.566623
0.569357
0.571136
0.571927
0.572055
0.571919
0.483972
0.484046
0.484812
0.486739
0.489979
0.494403
0.500204
0.50776
0.517414
0.529344
0.541603
0.551745
0.559564
0.565554
0.570157
0.573536
0.575703
0.57664
0.576794
0.576645
0.469929
0.469994
0.470906
0.473243
0.477211
0.482672
0.489848
0.499174
0.511026
0.525567
0.540394
0.552594
0.562001
0.569252
0.574848
0.578958
0.581545
0.582631
0.582802
0.582638
0.452884
0.452942
0.454066
0.456983
0.46195
0.468814
0.477823
0.48947
0.50411
0.521826
0.539663
0.554223
0.565416
0.574083
0.580788
0.58571
0.588739
0.589961
0.59014
0.589958
0.431697
0.431759
0.433222
0.437006
0.44341
0.452246
0.463769
0.478481
0.496661
0.518218
0.539509
0.5567
0.56989
0.580128
0.588041
0.59385
0.59731
0.598639
0.59881
0.598606
0.404624
0.404714
0.406762
0.411943
0.42056
0.432304
0.447377
0.46617
0.488751
0.514832
0.540051
0.560142
0.575494
0.587433
0.596661
0.603362
0.607199
0.608581
0.608723
0.608497
0.368643
0.368853
0.372098
0.379857
0.392206
0.408414
0.428552
0.452732
0.480748
0.512066
0.541575
0.564721
0.58232
0.59603
0.606618
0.614151
0.618244
0.619596
0.619683
0.619435
0.317997
0.319055
0.325504
0.338589
0.357463
0.380577
0.40773
0.4387
0.47308
0.510196
0.544261
0.570571
0.590444
0.605886
0.61779
0.626014
0.630161
0.631377
0.631385
0.631119
0.244308
0.251575
0.266372
0.289204
0.317834
0.350183
0.385858
0.424598
0.466024
0.509481
0.548505
0.578272
0.600669
0.618082
0.631343
0.640134
0.644259
0.645325
0.645277
0.64504
0.16581
0.181732
0.205786
0.239155
0.278052
0.319824
0.364127
0.41088
0.459808
0.510339
0.555267
0.589381
0.615011
0.634836
0.649735
0.659041
0.66294
0.663779
0.663743
0.663605
0.0986027
0.118073
0.149877
0.19233
0.240383
0.291019
0.3437
0.398306
0.45456
0.511926
0.562487
0.600662
0.629273
0.651294
0.667436
0.676908
0.680556
0.681285
0.681288
0.68121
0.0436029
0.0652867
0.102436
0.151406
0.206624
0.264709
0.324829
0.386696
0.449876
0.51373
0.569609
0.61157
0.642857
0.666757
0.684027
0.693954
0.697753
0.698538
0.69857
0.69853
-0.00202622
0.0209908
0.0620238
0.116104
0.177076
0.241316
0.307793
0.376079
0.44557
0.515486
0.576388
0.621972
0.655805
0.681546
0.700029
0.710704
0.714828
0.715626
0.715696
0.715686
-0.0408852
-0.0170493
0.0268676
0.0851073
0.150926
0.220414
0.292393
0.366366
0.441605
0.517165
0.58281
0.631804
0.668112
0.695623
0.715341
0.726808
0.731308
0.732221
0.732326
0.732335
-0.0749803
-0.0505748
-0.00438792
0.0573006
0.12726
0.201325
0.2782
0.357314
0.437822
0.518639
0.588746
0.640956
0.679568
0.708743
0.729608
0.741737
0.746644
0.747741
0.747901
0.747917
-0.105778
-0.080891
-0.0328197
0.0318075
0.105356
0.18344
0.264708
0.348523
0.433926
0.519703
0.594066
0.649312
0.690031
0.720708
0.742528
0.755294
0.760555
0.761869
0.762036
0.762045
-0.134268
-0.108928
-0.059247
0.00795423
0.0846448
0.166288
0.251516
0.339656
0.429672
0.520183
0.598641
0.656789
0.699481
0.731492
0.754131
0.767352
0.772884
0.774333
0.774513
0.774507
-0.161233
-0.135389
-0.0842384
-0.0147454
0.0647152
0.149534
0.238351
0.33048
0.424837
0.519919
0.602376
0.663374
0.707951
0.741147
0.764449
0.777972
0.783672
0.785217
0.785395
0.785369
-0.187028
-0.16071
-0.1082
-0.0366538
0.0452781
0.132945
0.225019
0.320826
0.419272
0.518796
0.605239
0.6691
0.715544
0.749841
0.773697
0.787389
0.793161
0.794739
0.794887
0.794831
-0.212067
-0.185186
-0.131419
-0.0580161
0.0261315
0.116356
0.211395
0.310595
0.412893
0.516725
0.607196
0.674011
0.722359
0.757763
0.782087
0.795843
0.801587
0.803136
0.803274
0.803194
-0.236465
-0.209011
-0.154055
-0.0789713
0.0071596
0.0996878
0.197414
0.299736
0.405645
0.513655
0.608223
0.678144
0.728526
0.765074
0.789786
0.803482
0.80913
0.810608
0.810706
0.810604
-0.26033
-0.23229
-0.176211
-0.0995866
-0.0116802
0.0829081
0.183057
0.288225
0.3975
0.509546
0.60828
0.681527
0.734151
0.771919
0.796924
0.810456
0.815918
0.817278
0.817312
0.817178
-0.283745
-0.255086
-0.197914
-0.119888
-0.030406
0.0660217
0.168345
0.276089
0.388468
0.504369
0.607307
0.684142
0.739327
0.778445
0.803653
0.81688
0.822012
0.823178
0.82314
0.822985
-0.306747
-0.277392
-0.219163
-0.139864
-0.0489824
0.0490656
0.153327
0.263375
0.378577
0.498102
0.605236
0.685932
0.744095
0.784807
0.810161
0.822866
0.827478
0.828375
0.828266
0.828099
-0.329174
-0.299164
-0.239928
-0.159496
-0.0673716
0.03211
0.138065
0.250158
0.367886
0.490764
0.601999
0.686804
0.748415
0.791147
0.816756
0.82868
0.83244
0.832927
0.83274
0.832575
-0.350989
-0.320355
-0.260181
-0.178733
-0.0855129
0.0152181
0.122654
0.236515
0.356475
0.482375
0.597543
0.686638
0.75216
0.797531
0.823849
0.834849
0.837217
0.836928
0.836607
0.836488
-0.372247
-0.340928
-0.279892
-0.197534
-0.103338
-0.00152399
0.107183
0.222553
0.344437
0.472996
0.59182
0.685301
0.755109
0.803821
0.83179
0.842296
0.842749
0.840801
0.839957
0.840052
-0.392783
-0.360854
-0.298999
-0.215827
-0.120785
-0.0180292
0.0917544
0.208382
0.331887
0.462724
0.584808
0.682641
0.756984
0.809609
0.840495
0.852012
0.851142
0.846577
0.843277
0.841686
-0.41269
-0.380131
-0.317508
-0.233641
-0.137887
-0.0343376
0.0763143
0.193944
0.318753
0.451491
0.576356
0.678393
0.757504
0.814336
0.849197
0.86408
0.864514
0.858182
0.84805
0.847801
-0.431879
-0.39883
-0.33555
-0.25117
-0.15494
-0.0507871
0.0604435
0.178744
0.304477
0.438652
0.565781
0.671748
0.756125
0.817236
0.856047
0.875846
0.878684
0.86875
0.85081
0.847657
-0.450208
-0.41691
-0.352952
-0.268214
-0.171683
-0.0670727
0.0443558
0.163111
0.289363
0.42446
0.553166
0.662106
0.752131
0.817159
0.856798
0.876649
0.882666
0.859301
0.801008
0.77552
-0.467552
-0.435187
-0.369305
-0.284284
-0.187388
-0.0827092
0.0283271
0.147318
0.27369
0.409093
0.538595
0.648923
0.744598
0.813377
0.846786
0.86122
0.852057
0.802887
0.741353
0.703678
-0.511478
-0.452861
-0.384442
-0.300096
-0.202826
-0.0986271
0.0124921
0.131247
0.257263
0.392223
0.521696
0.631665
0.729872
0.80374
0.824387
0.816252
0.773351
0.710959
0.643108
0.605852
-0.486178
-0.467853
-0.407453
-0.32283
-0.226454
-0.122497
-0.0121413
0.105875
0.230824
0.364124
0.491778
0.59922
0.688284
0.768793
0.756221
0.653062
0.566112
0.505627
0.443079
0.471453
-0.51777
-0.48584
-0.424586
-0.340474
-0.244322
-0.140625
-0.0301459
0.0871635
0.211001
0.342399
0.467297
0.57099
0.649678
0.694624
0.647206
0.512446
0.406878
0.335728
0.255064
0.302118
-0.542343
-0.507896
-0.444779
-0.360523
-0.264447
-0.160806
-0.0504592
0.066014
0.188425
0.317337
0.438354
0.535865
0.603455
0.610938
0.508939
0.357703
0.231729
0.141656
0.0476334
0.0804334
-0.566315
-0.530716
-0.466127
-0.381169
-0.284977
-0.181456
-0.071621
0.0438551
0.164619
0.290658
0.406822
0.496357
0.547612
0.522883
0.369246
0.195711
0.0385129
-0.0930588
-0.215705
-0.201774
-0.590019
-0.553948
-0.488378
-0.402787
-0.306399
-0.203075
-0.0938926
0.0204426
0.13928
0.262054
0.372566
0.454491
0.485261
0.41692
0.232053
0.0381535
-0.146465
-0.298305
-0.502285
-0.580369
-0.614133
-0.578055
-0.511874
-0.425804
-0.329202
-0.226026
-0.117432
-0.00426707
0.112526
0.231796
0.336298
0.409115
0.415211
0.295673
0.107151
-0.0989742
-0.288618
-0.448938
-0.572044
-0.690212
-0.639744
-0.603524
-0.536976
-0.450613
-0.353929
-0.250998
-0.143089
-0.0312701
0.083136
0.198367
0.296423
0.356951
0.336342
0.180578
-0.00954799
-0.209842
-0.382914
-0.478919
-0.50506
-0.518592
-0.666981
-0.630641
-0.563814
-0.477314
-0.380731
-0.278215
-0.171238
-0.0610801
0.0504891
0.160951
0.252101
0.295542
0.256492
0.0701394
-0.118167
-0.298131
-0.428738
-0.466265
-0.475168
-0.475521
-0.696124
-0.659527
-0.592422
-0.505886
-0.409549
-0.30768
-0.201899
-0.0937524
0.0145121
0.119499
0.202813
0.230672
0.160657
-0.0307792
-0.213151
-0.369426
-0.442293
-0.456496
-0.457605
-0.457434
-0.72718
-0.690211
-0.622805
-0.536316
-0.440391
-0.339378
-0.235079
-0.129305
-0.0247902
0.0740862
0.148316
0.161662
0.0542062
-0.122265
-0.294921
-0.418278
-0.446329
-0.447351
-0.44809
-0.447705
-0.759879
-0.722506
-0.654846
-0.568508
-0.473155
-0.373244
-0.270746
-0.167716
-0.0673746
0.0248366
0.0897559
0.084645
-0.0406971
-0.20707
-0.35975
-0.429154
-0.444079
-0.442365
-0.442142
-0.441802
-0.793632
-0.756045
-0.68826
-0.602208
-0.507632
-0.409102
-0.308738
-0.20886
-0.11304
-0.0278603
0.0271088
0.00648899
-0.128616
-0.282419
-0.402755
-0.439465
-0.438795
-0.438767
-0.438369
-0.437992
-0.827969
-0.790268
-0.722534
-0.636967
-0.543435
-0.446598
-0.348749
-0.252449
-0.161529
-0.0831457
-0.0410509
-0.0672918
-0.208568
-0.340811
-0.427567
-0.435527
-0.437787
-0.438472
-0.438193
-0.437787
-0.861897
-0.824239
-0.756872
-0.672095
-0.579964
-0.485206
-0.390281
-0.297985
-0.212436
-0.140308
-0.109178
-0.143853
-0.277373
-0.385734
-0.433393
-0.444565
-0.440801
-0.439658
-0.439053
-0.43875
-0.893446
-0.856603
-0.790186
-0.706637
-0.616371
-0.524156
-0.432609
-0.344726
-0.264949
-0.199044
-0.173266
-0.2257
-0.336608
-0.426112
-0.450054
-0.448901
-0.444011
-0.439704
-0.4388
-0.438568
-0.921523
-0.885772
-0.82099
-0.739312
-0.651512
-0.562416
-0.474756
-0.39173
-0.317808
-0.258897
-0.237381
-0.301619
-0.38732
-0.448733
-0.475059
-0.464646
-0.452518
-0.4457
-0.444853
-0.444442
-0.943293
-0.90954
-0.847428
-0.768493
-0.683961
-0.598685
-0.515468
-0.437825
-0.369742
-0.318131
-0.301365
-0.371584
-0.435364
-0.455714
-0.466129
-0.485964
-0.494243
-0.494897
-0.491617
-0.489302
-0.956519
-0.925632
-0.867298
-0.792301
-0.712051
-0.63143
-0.553249
-0.48143
-0.419687
-0.374347
-0.359178
-0.44239
-0.512417
-0.492055
-0.507608
-0.551722
-0.581714
-0.582097
-0.573349
-0.57069
-0.958376
-0.931507
-0.878349
-0.808742
-0.733983
-0.658985
-0.586505
-0.520497
-0.466236
-0.425894
-0.410939
-0.504012
-0.657133
-0.697562
-0.665702
-0.634374
-0.614771
-0.601594
-0.593596
-0.592558
-0.946606
-0.924648
-0.878346
-0.815908
-0.748098
-0.679749
-0.613638
-0.553062
-0.506039
-0.473058
-0.457465
-0.536655
-0.747532
-0.984017
-0.85864
-0.66548
-0.571642
-0.548431
-0.543923
-0.542163
-0.918274
-0.90204
-0.865255
-0.812471
-0.753185
-0.692563
-0.633053
-0.578037
-0.534966
-0.509872
-0.483824
-0.503331
-0.49453
-0.619923
-0.568911
-0.496989
-0.465663
-0.451489
-0.4479
-0.445424
-0.876744
-0.866295
-0.839941
-0.798595
-0.749157
-0.69694
-0.644184
-0.594243
-0.55147
-0.530126
-0.497723
-0.369724
-0.0697526
0.176016
0.0864777
-0.156413
-0.321667
-0.368814
-0.37745
-0.376729
-0.829073
-0.823134
-0.807453
-0.777318
-0.738221
-0.693722
-0.647339
-0.60082
-0.559194
-0.526886
-0.495739
-0.379477
-0.182049
-0.0016474
-0.191297
-0.420459
-0.484227
-0.471013
-0.457453
-0.467284
-0.785595
-0.78204
-0.774356
-0.75435
-0.723566
-0.685752
-0.643622
-0.59963
-0.55547
-0.521124
-0.510334
-0.532604
-0.780614
-1.08077
-1.34323
-1.5227
-1.52972
-1.39765
-1.2514
-1.19703
-0.753335
-0.751142
-0.747171
-0.734662
-0.710095
-0.676274
-0.636694
-0.591469
-0.54378
-0.504185
-0.475124
-0.63201
-1.0888
-1.82177
-2.20984
-2.1891
-1.95717
-1.70377
-1.51088
-1.42148
-0.72908
-0.728271
-0.726949
-0.72038
-0.700828
-0.66908
-0.627942
-0.580109
-0.526934
-0.463065
-0.413452
-0.424877
-0.604438
-0.721128
-0.736656
-0.601337
-0.362104
-0.136724
0.0114727
0.0706147
-0.714397
-0.714025
-0.713373
-0.710316
-0.695815
-0.664325
-0.619719
-0.566757
-0.500103
-0.421145
-0.318635
-0.194254
-0.0491923
0.223309
0.590515
0.961351
1.2779
1.45771
1.53085
1.55148
-0.704879
-0.704672
-0.704216
-0.703354
-0.693308
-0.661871
-0.613476
-0.552211
-0.477459
-0.379914
-0.259322
-0.11314
0.120522
0.576642
1.12042
1.60092
1.93716
2.09272
2.13813
2.14292
-0.697852
-0.69832
-0.699083
-0.699579
-0.691397
-0.661322
-0.61179
-0.54679
-0.459898
-0.347272
-0.234728
-0.0908378
0.142793
0.578003
1.05658
1.47774
1.75817
1.88339
1.91604
1.91885
-0.691961
-0.691796
-0.689427
-0.68562
-0.680544
-0.66186
-0.619788
-0.548045
-0.454051
-0.339995
-0.223367
-0.112205
0.0875976
0.435122
0.784525
1.08345
1.28038
1.36719
1.39941
1.40891
-0.708699
-0.704965
-0.69171
-0.673666
-0.671249
-0.676713
-0.642269
-0.558165
-0.454813
-0.341512
-0.228548
-0.138996
-0.00035582
0.262137
0.522341
0.731151
0.860117
0.928605
0.964957
0.978134
-0.770733
-0.766376
-0.760367
-0.757947
-0.757909
-0.750093
-0.68668
-0.573869
-0.453206
-0.340787
-0.235546
-0.162402
-0.0525152
0.154642
0.350373
0.499367
0.612081
0.679177
0.711511
0.721349
-0.878609
-0.886802
-0.914973
-0.935449
-0.929061
-0.878154
-0.744676
-0.587478
-0.450123
-0.334597
-0.244244
-0.179886
-0.115303
0.0679631
0.227893
0.357243
0.449108
0.50291
0.526338
0.532118
-0.952151
-0.971512
-1.00522
-1.02685
-1.0156
-0.934209
-0.752142
-0.577408
-0.438915
-0.323494
-0.239453
-0.189374
-0.13789
-0.0188633
0.107241
0.216637
0.292599
0.34099
0.360996
0.365094
-0.863618
-0.883638
-0.915203
-0.938879
-0.925879
-0.829978
-0.664331
-0.522865
-0.397955
-0.298965
-0.227292
-0.171472
-0.131526
-0.0242725
0.0783529
0.142973
0.191449
0.220898
0.232614
0.234531
-0.588933
-0.605762
-0.633743
-0.659736
-0.654782
-0.592176
-0.504291
-0.413501
-0.328346
-0.258529
-0.197315
-0.142799
-0.105735
-0.0519529
0.0258559
0.0778383
0.114156
0.135478
0.143432
0.144326
-0.258259
-0.267117
-0.285407
-0.309274
-0.325237
-0.324891
-0.310546
-0.283703
-0.250188
-0.204051
-0.16266
-0.113261
-0.0723811
-0.0298377
0.0115663
0.0384813
0.0645401
0.0813096
0.0884337
0.0882518
-0.0261613
-0.0297599
-0.0414707
-0.0660503
-0.101233
-0.136631
-0.162748
-0.178117
-0.177366
-0.157318
-0.129924
-0.0919578
-0.0604671
-0.036759
-0.00350371
0.0155484
0.0312033
0.0402365
0.0420403
0.0406691
0.0741111
0.0719791
0.0629859
0.0408477
0.0044944
-0.0386309
-0.078627
-0.107244
-0.124343
-0.123788
-0.108306
-0.0824304
-0.0587464
-0.0568018
-0.0440584
-0.0276108
-0.011169
-0.0022042
-5.50011e-06
-0.00143962
0.0946026
0.0930215
0.0863274
0.0693658
0.0405529
0.00451142
-0.0327195
-0.0656388
-0.0900452
-0.101873
-0.100805
-0.0877905
-0.0778124
-0.0808179
-0.0765946
-0.0663598
-0.0558094
-0.0505278
-0.0497384
-0.0514278
0.0829207
0.0818004
0.0771398
0.0653439
0.0446895
0.0173289
-0.013365
-0.0436878
-0.0704563
-0.0913341
-0.106479
-0.114561
-0.121738
-0.131223
-0.124864
-0.113478
-0.106291
-0.105495
-0.105899
-0.107025
0.0624853
0.0617242
0.0585749
0.0505748
0.0361991
0.0161487
-0.00806494
-0.0342667
-0.0612799
-0.0889234
-0.120591
-0.154738
-0.190191
-0.193217
-0.179079
-0.165333
-0.158183
-0.156787
-0.157139
-0.157628
0.0425503
0.0420513
0.0399548
0.0346208
0.0247729
0.0104027
-0.00820008
-0.0299813
-0.0554557
-0.0869266
-0.130584
-0.190321
-0.233423
-0.226263
-0.203346
-0.191115
-0.189478
-0.191953
-0.192916
-0.192887
0.0262694
0.0259297
0.0245769
0.0210788
0.0144227
0.00424765
-0.00960043
-0.0270743
-0.0490595
-0.0793364
-0.123706
-0.181211
-0.216169
-0.204539
-0.191674
-0.190878
-0.195162
-0.199495
-0.200296
-0.199862
0.0144652
0.0142266
0.0133515
0.0111032
0.00674184
-0.00022405
-0.0101211
-0.0232179
-0.0404001
-0.0641349
-0.0985225
-0.138788
-0.156441
-0.149366
-0.148057
-0.157113
-0.167387
-0.173578
-0.174673
-0.174347
0.00652519
0.00638743
0.00586443
0.00454739
0.00187951
-0.00254664
-0.00906556
-0.0178471
-0.0292433
-0.0439235
-0.061967
-0.08125
-0.0866556
-0.0811447
-0.0904796
-0.106363
-0.119045
-0.124876
-0.12583
-0.125655
0.00170908
0.00164075
0.0013769
0.000725898
-0.000691415
-0.00317813
-0.00691095
-0.011818
-0.0173606
-0.0224991
-0.0229214
-0.0197336
-0.00721892
-0.0131094
-0.0321326
-0.0497634
-0.0605568
-0.0647982
-0.0658931
-0.0661329
-0.00083661
-0.000865452
-0.000940543
-0.00112627
-0.00166649
-0.00275223
-0.00445371
-0.00625877
-0.00727128
-0.00423087
0.00987171
0.0326661
0.0538944
0.0425706
0.0199647
0.00199534
-0.00725776
-0.00957901
-0.0109778
-0.0117613
-0.00175448
-0.00176239
-0.00174596
-0.00167243
-0.00168441
-0.00189372
-0.00234207
-0.00238088
-0.000592157
0.00675531
0.028639
0.0625002
0.0917253
0.0763427
0.0488249
0.0325479
0.0265278
0.0252339
0.0240687
0.0231341
-0.00153117
-0.0015353
-0.00150957
-0.00134216
-0.00112398
-0.000965934
-0.000892713
-0.000391271
0.00162752
0.00824485
0.0282428
0.0600958
0.0853063
0.0694064
0.0477508
0.0373355
0.035575
0.0352059
0.033836
0.0324244
-0.000461015
-0.000471773
-0.000495597
-0.000439603
-0.000322177
-0.000214518
-0.000190223
-0.000102169
0.000195197
0.00136735
0.00433785
0.01358
0.0224609
0.0231425
0.0169658
0.0165256
0.0151381
0.0121492
0.00917302
0.0086001
-0.0676498
0.122307
0.297059
0.445632
0.565618
0.661359
0.741559
0.806815
0.823729
0.819949
0.226119
0.348611
0.463586
0.563865
0.648695
0.719066
0.774654
0.81226
0.832344
0.848863
0.425665
0.507521
0.588597
0.659976
0.721031
0.771736
0.811651
0.841994
0.86472
0.883947
0.573254
0.631089
0.689822
0.742606
0.788185
0.826919
0.859359
0.886509
0.906922
0.925816
0.690956
0.734677
0.778381
0.819115
0.855426
0.887485
0.915487
0.939177
0.957199
0.975238
0.789574
0.825489
0.86079
0.894762
0.92606
0.954365
0.979337
1.00027
1.01609
1.03357
0.878152
0.910389
0.942779
0.974065
1.00317
1.02962
1.0528
1.07177
1.08572
1.10274
0.965386
0.998055
1.03056
1.06183
1.09066
1.11649
1.13866
1.15622
1.16863
1.18516
1.05992
1.09637
1.13118
1.16368
1.19289
1.21828
1.23943
1.25574
1.26737
1.28352
1.17305
1.21364
1.2507
1.28369
1.31222
1.33623
1.35588
1.37117
1.38308
1.39916
1.31444
1.35555
1.39083
1.42045
1.44567
1.4673
1.48581
1.50131
1.51443
1.53038
1.48604
1.51848
1.54536
1.56768
1.58777
1.6065
1.62425
1.64102
1.65594
1.67167
1.6724
1.68968
1.70681
1.72349
1.73959
1.75433
1.76823
1.78272
1.79796
1.81525
1.85579
1.86577
1.87897
1.88996
1.89937
1.90903
1.91964
1.92982
1.93912
1.96478
2.0737
2.068
2.05506
2.0408
2.0345
2.04022
2.05836
2.08688
2.12065
2.15697
2.37652
2.24056
2.16106
2.11855
2.10123
2.1052
2.13263
2.1905
2.29817
2.47657
0.685335
0.679031
0.671299
0.66018
0.646602
0.633944
0.623534
0.615504
0.609763
0.606403
0.606018
0.608822
0.614032
0.621373
0.630911
0.642733
0.65629
0.669216
0.678203
0.685743
0.594413
0.600332
0.6084
0.614528
0.61759
0.617069
0.613969
0.609955
0.606342
0.604027
0.60386
0.606083
0.609813
0.614242
0.618333
0.62057
0.619491
0.61485
0.607794
0.599959
0.587679
0.590051
0.593315
0.596081
0.598524
0.600702
0.601867
0.6017
0.600736
0.599897
0.600077
0.601459
0.603217
0.604428
0.60434
0.602864
0.600698
0.598332
0.595346
0.592326
0.582912
0.584
0.585914
0.588245
0.590107
0.591493
0.592694
0.593664
0.594235
0.594577
0.595093
0.595802
0.596242
0.596104
0.595461
0.594527
0.593188
0.591212
0.5891
0.587621
0.577919
0.578553
0.579678
0.581428
0.583261
0.58484
0.586071
0.587109
0.588057
0.588914
0.589656
0.590138
0.590246
0.590016
0.589461
0.588473
0.587035
0.585417
0.584074
0.583271
0.573033
0.573472
0.574257
0.575552
0.577062
0.578608
0.580064
0.58133
0.582445
0.583483
0.584384
0.584942
0.585085
0.584822
0.584136
0.583119
0.581952
0.580798
0.579888
0.579353
0.568246
0.568574
0.569183
0.570243
0.571525
0.572905
0.574357
0.575796
0.577142
0.578387
0.579473
0.580164
0.580347
0.580067
0.579443
0.578638
0.577774
0.576907
0.576238
0.575845
0.563535
0.56379
0.56428
0.565181
0.566337
0.567623
0.569015
0.570502
0.572029
0.573525
0.574849
0.575699
0.575985
0.575843
0.575426
0.574852
0.574197
0.573553
0.573063
0.572762
0.558829
0.559032
0.559439
0.56023
0.561307
0.562543
0.563917
0.565443
0.567102
0.568834
0.570437
0.571537
0.572047
0.572138
0.571952
0.571596
0.571141
0.570685
0.570332
0.570095
0.554047
0.554211
0.55456
0.555277
0.556305
0.557521
0.558921
0.560525
0.562335
0.564313
0.566248
0.567692
0.568514
0.568884
0.568943
0.568807
0.568558
0.56827
0.568031
0.567842
0.549103
0.549236
0.549543
0.550215
0.551224
0.552462
0.553926
0.555652
0.55766
0.559937
0.562277
0.564152
0.565352
0.566046
0.566381
0.566482
0.566434
0.566308
0.566165
0.566012
0.54391
0.544018
0.544298
0.544949
0.545977
0.54728
0.548852
0.550751
0.553028
0.55569
0.558532
0.560922
0.562563
0.563628
0.564275
0.564631
0.56479
0.564827
0.564767
0.564642
0.538377
0.538463
0.538727
0.539384
0.540463
0.541872
0.543606
0.545749
0.548375
0.551526
0.554984
0.557992
0.560153
0.561648
0.562644
0.563295
0.563685
0.563872
0.563885
0.563782
0.532396
0.532463
0.53272
0.533405
0.534574
0.536139
0.538102
0.54057
0.543648
0.547408
0.551619
0.555373
0.558151
0.560143
0.561538
0.562516
0.563156
0.563505
0.563588
0.563503
0.525845
0.525894
0.526154
0.526889
0.528187
0.529963
0.532227
0.53511
0.538756
0.543273
0.548406
0.553057
0.55657
0.559154
0.561014
0.562356
0.563286
0.563808
0.563961
0.563889
0.518572
0.518602
0.51887
0.519679
0.52115
0.523201
0.525852
0.529262
0.533612
0.539055
0.545307
0.551046
0.555441
0.558724
0.561138
0.562915
0.564171
0.56488
0.565101
0.565041
0.510386
0.510406
0.510674
0.511582
0.513278
0.515683
0.518826
0.522902
0.528137
0.534726
0.542342
0.549379
0.554816
0.558925
0.56199
0.564292
0.565917
0.566829
0.567121
0.567069
0.500982
0.500976
0.5013
0.50235
0.504342
0.5072
0.510972
0.515891
0.522239
0.530244
0.539512
0.548103
0.554771
0.559846
0.563676
0.566582
0.568633
0.569774
0.570138
0.570091
0.490083
0.490055
0.490427
0.491667
0.49403
0.497473
0.50205
0.508044
0.515792
0.52556
0.536836
0.547257
0.555362
0.56157
0.566297
0.569905
0.572447
0.573835
0.574271
0.574226
0.477212
0.477162
0.477609
0.479096
0.481943
0.486149
0.491771
0.499138
0.50864
0.520571
0.53427
0.546872
0.556662
0.564187
0.569969
0.574385
0.577478
0.579128
0.579633
0.579585
0.461733
0.46166
0.462229
0.464063
0.467554
0.472772
0.479777
0.488945
0.500703
0.515324
0.531932
0.547071
0.558783
0.567807
0.574788
0.580119
0.583819
0.585739
0.586303
0.586247
0.442714
0.442622
0.443388
0.445728
0.450126
0.456755
0.465649
0.477218
0.491891
0.509856
0.52991
0.547955
0.561831
0.572528
0.580835
0.587183
0.591534
0.593712
0.594318
0.594246
0.418747
0.418653
0.419747
0.422866
0.428628
0.437319
0.448894
0.463739
0.482183
0.504247
0.528323
0.549623
0.565888
0.578421
0.588167
0.595629
0.600625
0.603019
0.603638
0.60354
0.387532
0.387481
0.389174
0.393639
0.401674
0.413564
0.429078
0.448426
0.471702
0.498678
0.527345
0.552234
0.571053
0.585544
0.596829
0.60543
0.611003
0.613527
0.614115
0.613986
0.344953
0.345097
0.348087
0.355345
0.367625
0.384783
0.406144
0.431589
0.460918
0.493663
0.527381
0.556034
0.577476
0.593956
0.606795
0.616486
0.622472
0.624974
0.625475
0.62531
0.283333
0.284625
0.291886
0.305567
0.325615
0.351136
0.380725
0.413885
0.450289
0.489405
0.528506
0.561069
0.585165
0.603593
0.617873
0.628479
0.634649
0.636909
0.637243
0.637056
0.209591
0.212129
0.226241
0.249801
0.280482
0.315937
0.354481
0.395868
0.439901
0.486124
0.531514
0.568919
0.596513
0.617555
0.633721
0.645306
0.65164
0.653821
0.654136
0.654046
0.134019
0.140818
0.162016
0.195485
0.236543
0.2817
0.329214
0.378904
0.430645
0.484052
0.535888
0.57831
0.609506
0.633293
0.651447
0.663939
0.670103
0.671918
0.672159
0.672137
0.0724357
0.0810691
0.106876
0.147378
0.196593
0.249987
0.305586
0.363068
0.422201
0.482528
0.540523
0.587655
0.62216
0.648367
0.668133
0.681231
0.687418
0.689125
0.689447
0.689493
0.0219845
0.031328
0.0606401
0.10639
0.161761
0.221766
0.284203
0.348576
0.414467
0.481254
0.545044
0.596638
0.634218
0.66263
0.683928
0.697839
0.704262
0.706283
0.706718
0.706805
-0.0203186
-0.0106605
0.0210627
0.0709264
0.131354
0.19686
0.265077
0.335425
0.407354
0.480097
0.549341
0.605156
0.645725
0.676269
0.699079
0.714005
0.721024
0.723327
0.723811
0.723907
-0.0569122
-0.0471041
-0.0135593
0.0396066
0.104258
0.174479
0.247738
0.323385
0.400778
0.479015
0.553366
0.613157
0.656523
0.689114
0.713419
0.72931
0.736956
0.739491
0.740034
0.740123
-0.0894465
-0.0795674
-0.0445737
0.011332
0.0795769
0.153885
0.231613
0.312043
0.394446
0.477775
0.556948
0.620508
0.66648
0.700966
0.726572
0.743337
0.751595
0.754387
0.754969
0.755041
-0.119144
-0.109207
-0.0730356
-0.0147546
0.0566045
0.13449
0.216193
0.30097
0.388017
0.476161
0.559935
0.627093
0.675515
0.711693
0.738468
0.755948
0.764708
0.767709
0.76831
0.768362
-0.146926
-0.136917
-0.0996695
-0.0392835
0.0348136
0.115854
0.201116
0.289862
0.381236
0.473971
0.562177
0.632832
0.683604
0.721347
0.749105
0.767129
0.776204
0.779362
0.779994
0.780025
-0.173345
-0.163231
-0.124986
-0.0627057
0.0138135
0.0976638
0.186136
0.27851
0.373906
0.471024
0.563584
0.637701
0.690792
0.730009
0.758627
0.777072
0.786272
0.789528
0.790182
0.790187
-0.198822
-0.18854
-0.149356
-0.0853488
-0.00666696
0.0797001
0.171071
0.266764
0.365914
0.467215
0.564082
0.64171
0.697154
0.737833
0.767232
0.785973
0.795228
0.798453
0.799084
0.799072
-0.223626
-0.213098
-0.173014
-0.10742
-0.0267956
0.0618223
0.155816
0.254546
0.357185
0.462477
0.563611
0.64486
0.70277
0.744961
0.775124
0.794047
0.803248
0.806407
0.806989
0.806934
-0.247837
-0.237043
-0.196096
-0.129039
-0.0466643
0.0439747
0.140326
0.241818
0.34768
0.456758
0.562128
0.647158
0.707715
0.751544
0.782441
0.801421
0.810482
0.813522
0.814033
0.813952
-0.271549
-0.260481
-0.218691
-0.150254
-0.0663094
0.0261303
0.124594
0.228581
0.337401
0.450045
0.559588
0.648567
0.712046
0.757713
0.789331
0.808248
0.817062
0.819894
0.820296
0.820172
-0.294778
-0.283427
-0.240796
-0.171077
-0.0857282
0.00830767
0.108657
0.214879
0.326378
0.442334
0.555943
0.649023
0.715779
0.763587
0.795959
0.81466
0.823029
0.825542
0.825806
0.825649
-0.317574
-0.305872
-0.262382
-0.191492
-0.104896
-0.00945175
0.092565
0.200772
0.314667
0.43365
0.551154
0.648445
0.718864
0.769241
0.802536
0.820881
0.828525
0.830536
0.830631
0.830451
-0.339699
-0.327757
-0.283424
-0.211472
-0.123763
-0.0270705
0.076389
0.186335
0.302346
0.42405
0.545194
0.646745
0.721193
0.774673
0.809326
0.827321
0.833842
0.834998
0.834821
0.834632
-0.36131
-0.349023
-0.303884
-0.230983
-0.14229
-0.0445033
0.060225
0.171656
0.289502
0.413615
0.538065
0.643829
0.722602
0.779741
0.816507
0.834593
0.839669
0.839284
0.838457
0.838272
-0.382218
-0.369629
-0.323743
-0.249969
-0.160389
-0.0616608
0.0441604
0.156856
0.276247
0.402416
0.529799
0.639605
0.722896
0.784151
0.823972
0.843312
0.847382
0.844724
0.842115
0.841495
-0.40252
-0.389595
-0.342937
-0.268369
-0.178019
-0.0784716
0.0282853
0.142022
0.262691
0.390589
0.520468
0.633971
0.721869
0.787497
0.83112
0.853421
0.858483
0.854448
0.848239
0.839026
-0.422097
-0.408912
-0.361557
-0.286347
-0.195403
-0.0952229
0.0122575
0.126742
0.248375
0.377619
0.509539
0.626324
0.719051
0.789412
0.837169
0.863958
0.872945
0.869256
0.858774
0.856806
-0.440906
-0.427659
-0.379595
-0.303839
-0.212519
-0.111882
-0.00388863
0.110998
0.233271
0.363388