/*--------------------------------*- C++ -*----------------------------------*\
  =========                 |
  \\      /  F ield         | OpenFOAM: The Open Source CFD Toolbox
   \\    /   O peration     | Website:  https://openfoam.org
    \\  /    A nd           | Version:  6
     \\/     M anipulation  |
\*---------------------------------------------------------------------------*/
FoamFile
{
    version     2.0;
    format      ascii;
    class       surfaceScalarField;
    location    "54";
    object      phi;
}
// * * * * * * * * * * * * * * * * * * * * * * * * * * * * * * * * * * * * * //

dimensions      [0 3 -1 0 0 0 0];

internalField   nonuniform List<scalar> 
17370
(
-0.0900017
0.0898519
0.289161
-0.0714669
0.0537582
0.364484
-0.0381265
0.0276988
0.426596
-0.0196488
0.0146173
0.504283
-0.0107767
0.00828705
0.601892
-0.00628785
0.00491167
0.720434
-0.00374801
0.00290746
0.863747
-0.0021658
0.00160657
1.03601
-0.00109008
0.000677806
1.24292
-0.000269758
-0.000121343
1.49158
0.000500094
-0.000907422
1.4916
0.00130287
-0.00179234
1.24318
0.00232391
-0.00303578
1.03635
0.00385345
-0.00499939
0.864052
0.00636616
-0.00835949
0.721051
0.0108446
-0.0146803
0.60305
0.0197074
-0.0277525
0.507484
0.0381753
-0.0538
0.431793
0.0715013
-0.089875
0.365149
0.0900154
0.198995
-0.128133
0.0882189
0.0399137
-0.364595
0.35337
-0.0746825
0.0859073
-0.446474
0.454315
-0.0844087
0.0765679
-0.521188
0.529895
-0.0684741
0.0597672
-0.612786
0.621562
-0.0515822
0.0428067
-0.726891
0.734157
-0.035349
0.0280831
-0.867472
0.872583
-0.0224857
0.0173741
-1.03847
1.04192
-0.0135673
0.0101199
-1.2446
1.24703
-0.00751079
0.00507991
-1.49263
1.4946
-0.0031349
0.00116113
-1.4925
1.49422
0.000518938
-0.00224232
-1.24398
1.24586
0.00414446
-0.00602811
-1.03751
1.04005
0.00838695
-0.0109227
-0.866103
0.869837
0.0142857
-0.0180198
-0.724395
0.72994
0.0230626
-0.0286079
-0.608701
0.616117
0.0358254
-0.0432418
-0.5149
0.523046
0.0519739
-0.0601203
-0.439858
0.447919
0.0687867
-0.0768478
-0.375298
0.376745
0.0846508
-0.0860974
-0.257334
0.222486
0.074812
-0.0399642
-0.0685088
0.0586793
0.00982948
-0.0518337
0.058424
-0.374117
0.367526
-0.0575145
0.0537675
-0.453587
0.457334
-0.0486829
0.0447359
-0.527939
0.531886
-0.0409021
0.0372683
-0.621554
0.625187
-0.0331722
0.0291014
-0.735337
0.739408
-0.0245366
0.0203821
-0.874328
0.878483
-0.0160422
0.012354
-1.04348
1.04717
-0.00862296
0.00545415
-1.24855
1.25172
-0.00212819
-0.000945088
-1.49666
1.49973
0.00399316
-0.00725702
-1.49721
1.50047
0.0103361
-0.0139458
-1.25008
1.25369
0.0175135
-0.0217169
-1.04593
1.05014
0.0257513
-0.0301962
-0.877774
0.882219
0.0341709
-0.0381743
-0.739912
0.743916
0.0417298
-0.045482
-0.626785
0.630538
0.0493587
-0.0543762
-0.53482
0.539837
0.0580511
-0.0588691
-0.457484
0.458301
0.0521722
-0.0319795
-0.335767
0.315574
0.00988484
-0.0683569
0.0584721
-0.0529249
0.0489254
0.0039995
-0.0331885
0.0437455
-0.358084
0.347527
-0.0474541
0.0468341
-0.459268
0.459888
-0.0437854
0.0404388
-0.535784
0.539131
-0.0366731
0.0333756
-0.628507
0.631805
-0.0299455
0.0269212
-0.742625
0.745649
-0.0236711
0.0205719
-0.881993
0.885092
-0.0170493
0.0136764
-1.05075
1.05412
-0.00989014
0.00635731
-1.25515
1.25868
-0.00239441
-0.00139804
-1.50324
1.50703
0.00516015
-0.00903206
-1.50414
1.50802
0.0124422
-0.0160627
-1.25744
1.26106
0.0192672
-0.0225961
-1.05394
1.05727
0.025522
-0.0285961
-0.88572
0.888794
0.0314781
-0.0347706
-0.747184
0.750476
0.0379534
-0.041602
-0.63433
0.637978
0.0448482
-0.0477823
-0.544154
0.547088
0.0482818
-0.0444034
-0.456597
0.452718
0.0336435
-0.0162077
-0.296222
0.278786
0.00406772
-0.0526564
0.0485887
-0.0458437
0.0433438
0.00249983
-0.0228379
0.0332329
-0.336825
0.32643
-0.0390696
0.0400975
-0.459566
0.458538
-0.0389181
0.03664
-0.541845
0.544123
-0.0339828
0.0313968
-0.634847
0.637433
-0.0283453
0.0254565
-0.748683
0.751572
-0.022203
0.019219
-0.888034
0.891018
-0.015925
0.0128361
-1.05724
1.06033
-0.00932121
0.00592092
-1.26213
1.26553
-0.00196423
-0.00191716
-1.5109
1.51479
0.00575867
-0.00959497
-1.51191
1.51575
0.0128323
-0.0161279
-1.2645
1.2678
0.0189952
-0.022035
-1.06037
1.06341
0.0247907
-0.0278099
-0.89186
0.894879
0.0305053
-0.0333668
-0.753694
0.756555
0.0357949
-0.0382932
-0.641053
0.643552
0.0404351
-0.0414357
-0.548901
0.549902
0.0402218
-0.0341131
-0.447451
0.441342
0.0234211
-0.0102201
-0.263583
0.250382
0.00258394
-0.0454308
0.0428468
-0.0412641
0.0394922
0.00177192
-0.0167829
0.0260543
-0.31656
0.307288
-0.0326803
0.0348345
-0.456927
0.454773
-0.0344255
0.0327643
-0.546092
0.547753
-0.0305945
0.0285106
-0.639728
0.641812
-0.0260937
0.0237105
-0.754205
0.756589
-0.0208687
0.018095
-0.893898
0.896672
-0.0148752
0.0118199
-1.06336
1.06642
-0.00834337
0.00502902
-1.26884
1.27215
-0.00120648
-0.00251963
-1.51857
1.5223
0.00619465
-0.00986471
-1.51949
1.52316
0.0129735
-0.0161734
-1.27105
1.27425
0.0189474
-0.0218425
-1.06644
1.06934
0.0243224
-0.0268602
-0.897711
0.900249
0.0289929
-0.0311655
-0.759022
0.761194
0.0330493
-0.0350166
-0.645716
0.647683
0.0364793
-0.0366451
-0.550431
0.550597
0.0342043
-0.0271806
-0.434695
0.427672
0.0175099
-0.00738733
-0.238871
0.228748
0.00187475
-0.040674
0.0387993
-0.0379646
0.0366299
0.00133471
-0.0128271
0.020796
-0.298674
0.290705
-0.027571
0.0305123
-0.452196
0.449255
-0.0307327
0.0296273
-0.549172
0.550277
-0.0276493
0.02575
-0.643837
0.645736
-0.0235714
0.0214537
-0.758812
0.76093
-0.0189584
0.0164909
-0.899227
0.901694
-0.0135641
0.0106981
-1.06933
1.0722
-0.00735031
0.00412103
-1.27539
1.27862
-0.000382694
-0.00324233
-1.52594
1.52956
0.00680394
-0.010351
-1.52676
1.53031
0.0133221
-0.0163216
-1.27739
1.28039
0.0188333
-0.0213519
-1.07207
1.07459
0.0234499
-0.0255634
-0.902558
0.904671
0.0273661
-0.0292359
-0.763196
0.765066
0.0308836
-0.0326175
-0.649514
0.651248
0.0334332
-0.0328727
-0.550403
0.549843
0.029522
-0.0222026
-0.420444
0.413124
0.0137212
-0.00571863
-0.219787
0.211785
0.00145977
-0.0371586
0.0356989
-0.0354629
0.0344322
0.00103065
-0.0100362
0.0167773
-0.283376
0.276635
-0.0232892
0.0266847
-0.446067
0.442671
-0.0274854
0.0268009
-0.551165
0.55185
-0.0250591
0.0232919
-0.647617
0.649385
-0.0212418
0.019244
-0.762986
0.764984
-0.0168936
0.0145871
-0.90401
0.906317
-0.0118721
0.00920816
-1.07489
1.07755
-0.0060706
0.00300038
-1.28173
1.2848
0.000599107
-0.00410613
-1.53311
1.53662
0.00753432
-0.0108973
-1.53376
1.53713
0.0136502
-0.0163611
-1.28325
1.28597
0.0185907
-0.0208025
-1.07697
1.07918
0.0226511
-0.0245262
-0.906678
0.908553
0.0261301
-0.0277939
-0.766836
0.7685
0.0292489
-0.0306553
-0.652835
0.654242
0.0309818
-0.029699
-0.548932
0.547649
0.0257402
-0.0185133
-0.405826
0.398599
0.0111297
-0.00460968
-0.204594
0.198074
0.00118238
-0.0343945
0.0332121
-0.0335266
0.0327216
0.000804996
-0.00796873
0.0136406
-0.270459
0.264787
-0.0196724
0.0232711
-0.439165
0.435567
-0.0245559
0.0241247
-0.552447
0.552878
-0.0226548
0.0210016
-0.651154
0.652807
-0.0190522
0.0171457
-0.766932
0.768838
-0.0148921
0.0126741
-0.908507
0.910725
-0.0100602
0.00750395
-1.08008
1.08264
-0.00450829
0.00158653
-1.28774
1.29066
0.00183053
-0.00515201
-1.54
1.54332
0.0083774
-0.0115071
-1.54036
1.54349
0.0140425
-0.0165177
-1.28857
1.29104
0.018543
-0.0205404
-1.08132
1.08332
0.022195
-0.0238637
-0.910349
0.912018
0.0252859
-0.0267589
-0.770078
0.771551
0.0280214
-0.0290557
-0.655441
0.656475
0.029012
-0.0270705
-0.54604
0.544098
0.0227215
-0.0157742
-0.391508
0.384561
0.0093051
-0.00384013
-0.192132
0.186668
0.000989525
-0.0321395
0.03115
-0.0320141
0.0313842
0.000629931
-0.00637375
0.011133
-0.259601
0.254841
-0.0165791
0.0201829
-0.431967
0.428363
-0.0217978
0.0215997
-0.553235
0.553433
-0.0203708
0.0187804
-0.654481
0.656072
-0.0168898
0.0150339
-0.770708
0.772564
-0.0128413
0.0106876
-0.912831
0.914985
-0.00815415
0.0056821
-1.08507
1.08754
-0.0027912
-1.80972e-05
-1.29347
1.29628
0.00328381
-0.00643353
-1.54652
1.54967
0.0094651
-0.0123766
-1.54649
1.5494
0.0147117
-0.0169654
-1.29343
1.29568
0.0187872
-0.0205643
-1.08525
1.08703
0.0220256
-0.0234997
-0.913615
0.915089
0.0247613
-0.0260664
-0.772939
0.774244
0.0271893
-0.0278176
-0.657286
0.657914
0.0274109
-0.0249231
-0.541895
0.539407
0.0203446
-0.013746
-0.377799
0.371201
0.00800388
-0.00329815
-0.181622
0.176916
0.000854098
-0.0302399
0.0293858
-0.0308339
0.0303454
0.000488487
-0.0050918
0.00906568
-0.250502
0.246528
-0.0138843
0.0173472
-0.424842
0.42138
-0.0191525
0.019148
-0.553588
0.553593
-0.0181114
0.016553
-0.65772
0.659278
-0.014684
0.0128473
-0.774395
0.776232
-0.010683
0.00856309
-0.917025
0.919145
-0.0060755
0.00365488
-1.0899
1.09232
-0.000837027
-0.00187988
-1.29897
1.30169
0.00500522
-0.00798371
-1.55269
1.55567
0.0108206
-0.0135215
-1.55219
1.55489
0.0156698
-0.0177233
-1.29784
1.2999
0.0193635
-0.0209391
-1.08876
1.09033
0.022218
-0.0235064
-0.916506
0.917794
0.0246174
-0.025767
-0.775483
0.776633
0.0266994
-0.0269729
-0.658346
0.658619
0.0261792
-0.0232312
-0.536703
0.533755
0.0185218
-0.0122652
-0.364795
0.358538
0.0070824
-0.002921
-0.172517
0.168356
0.000761407
-0.0285892
0.0278278
-0.0299248
0.0295557
0.000369071
-0.00401932
0.00730393
-0.242925
0.23964
-0.0114832
0.0146962
-0.418062
0.414849
-0.0165715
0.0167373
-0.553572
0.553406
-0.0157961
0.0143281
-0.660869
0.662337
-0.0124684
0.0106228
-0.778049
0.779895
-0.00844233
0.00631217
-0.921165
0.923295
-0.00382738
0.0014285
-1.09463
1.09703
0.00134225
-0.00399472
-1.3043
1.30695
0.0070249
-0.00988388
-1.55854
1.56139
0.0125693
-0.0150795
-1.55747
1.55998
0.0170384
-0.018878
-1.30186
1.3037
0.0203251
-0.0216963
-1.09188
1.09325
0.0228025
-0.0239218
-0.919035
0.920154
0.0248878
-0.0258656
-0.777703
0.778681
0.0265469
-0.026517
-0.658751
0.658721
0.0253212
-0.0219699
-0.530618
0.527266
0.0171799
-0.0112168
-0.352457
0.346494
0.00644844
-0.00266806
-0.164417
0.160637
0.00070123
-0.0271077
0.0264065
-0.0292475
0.0289849
0.00026263
-0.00308053
0.00574391
-0.236691
0.234028
-0.00928482
0.0121636
-0.41183
0.408952
-0.0139876
0.0142362
-0.553268
0.553019
-0.0133371
0.0119081
-0.663868
0.665297
-0.0100198
0.00813336
-0.781729
0.783616
-0.00591364
0.00375987
-0.925315
0.927469
-0.00126247
-0.00113623
-1.09931
1.10171
0.00389156
-0.00650784
-1.30951
1.31212
0.00946236
-0.0122084
-1.56415
1.5669
0.0147444
-0.0170714
-1.56237
1.5647
0.018852
-0.0204865
-1.30545
1.30708
0.0217396
-0.0228925
-1.0946
1.09575
0.0238008
-0.0247318
-0.921227
0.922158
0.0255539
-0.0263737
-0.779578
0.780397
0.0267862
-0.0265029
-0.658557
0.658273
0.0248645
-0.0211367
-0.523749
0.520021
0.016274
-0.010527
-0.340678
0.334931
0.00604412
-0.00251361
-0.157014
0.153483
0.000666912
-0.0257347
0.0250678
-0.0287799
0.028618
0.000161846
-0.00221231
0.00429291
-0.23168
0.229599
-0.00719188
0.00967144
-0.406305
0.403826
-0.0113486
0.0116166
-0.552847
0.552579
-0.0107423
0.00932837
-0.666822
0.668236
-0.00739374
0.00544124
-0.785491
0.787444
-0.00313929
0.000910146
-0.929518
0.931748
0.00166235
-0.0041125
-1.10401
1.10646
0.00689475
-0.0095001
-1.31465
1.31725
0.0123953
-0.0150354
-1.56953
1.57217
0.0174208
-0.0195566
-1.5669
1.56904
0.0211529
-0.022583
-1.30862
1.31005
0.0236515
-0.0246034
-1.0969
1.09785
0.0253259
-0.0260612
-0.92305
0.923786
0.0267246
-0.0273894
-0.781118
0.781783
0.0274952
-0.0268553
-0.657767
0.657127
0.0247982
-0.0207008
-0.516151
0.512054
0.0157464
-0.0101303
-0.329297
0.323681
0.00582314
-0.00243748
-0.150059
0.146674
0.000653374
-0.024421
0.0237676
-0.0285136
0.028454
5.95437e-05
-0.00136373
0.00287516
-0.227826
0.226314
-0.00511589
0.00712814
-0.401615
0.399603
-0.00854853
0.00875052
-0.552442
0.55224
-0.00785635
0.00642568
-0.669768
0.671199
-0.00441184
0.00236399
-0.789385
0.791433
5.14624e-05
-0.00237909
-0.933875
0.936203
0.00504645
-0.00756792
-1.10881
1.11133
0.0104075
-0.0130408
-1.31977
1.3224
0.0159266
-0.0185056
-1.57472
1.5773
0.0207757
-0.0227403
-1.57105
1.57302
0.0241513
-0.0253563
-1.31138
1.31258
0.0262074
-0.0269044
-1.09881
1.09951
0.0273996
-0.0279182
-0.924493
0.925012
0.0284167
-0.0288786
-0.782274
0.782736
0.0287065
-0.0276514
-0.656234
0.655179
0.0251457
-0.0206631
-0.507833
0.503351
0.015574
-0.00999275
-0.318142
0.312561
0.00575968
-0.002428
-0.143353
0.140022
0.000657363
-0.0231276
0.0224702
-0.0284521
0.0285011
-4.90397e-05
-0.000489523
0.00142679
-0.225112
0.224175
-0.00298389
0.00446744
-0.397895
0.396411
-0.00553121
0.00557639
-0.552243
0.552197
-0.00458868
0.00306576
-0.672806
0.674329
-0.000925198
-0.00125969
-0.793471
0.795655
0.00382694
-0.0062858
-0.938417
0.940876
0.00908796
-0.0117193
-1.11376
1.11639
0.0146542
-0.0173357
-1.32495
1.32763
0.0202124
-0.0227122
-1.57977
1.58227
0.024842
-0.0266116
-1.57484
1.57661
0.0278184
-0.0287862
-1.31367
1.31464
0.0294175
-0.0298713
-1.10023
1.10068
0.0301385
-0.0304213
-0.925508
0.925791
0.0307314
-0.0309348
-0.782919
0.783122
0.0304999
-0.0289477
-0.653859
0.652307
0.0259511
-0.0210386
-0.49876
0.493847
0.0157483
-0.0100977
-0.307018
0.301367
0.00584148
-0.00248002
-0.136718
0.133356
0.000677715
-0.0218194
0.0211417
-0.0286068
0.0287731
-0.000166358
0.000438483
-0.000113769
-0.223562
0.223238
-0.000709547
0.00158814
-0.395264
0.394386
-0.00219435
0.00200746
-0.552423
0.55261
-0.000884139
-0.000764907
-0.676069
0.677718
0.003058
-0.00542083
-0.797831
0.800194
0.00820275
-0.0108594
-0.943237
0.945893
0.0138667
-0.0166608
-1.11894
1.12173
0.0197331
-0.0224924
-1.33023
1.33299
0.025393
-0.0278421
-1.58465
1.5871
0.0298445
-0.0314073
-1.57823
1.57979
0.0323972
-0.0331065
-1.31547
1.31618
0.0334941
-0.0336789
-1.10115
1.10134
0.0337043
-0.0337393
-0.926046
0.926081
0.0338433
-0.0337034
-0.78295
0.78281
0.0329224
-0.030783
-0.650531
0.648391
0.0272432
-0.0218385
-0.488829
0.483424
0.0162649
-0.0104334
-0.295711
0.289879
0.00605839
-0.00258839
-0.129987
0.126517
0.000712875
-0.0204646
0.0197517
-0.0290189
0.0293258
-0.000306907
0.00143866
-0.00176115
-0.223271
0.223594
0.00177628
-0.00160977
-0.393869
0.393702
0.00159996
-0.00213923
-0.553167
0.553707
0.00347906
-0.00531723
-0.679632
0.68147
0.00783453
-0.0104254
-0.802539
0.80513
0.0134662
-0.0163536
-0.948447
0.951334
0.0195992
-0.0225889
-1.12444
1.12743
0.0258419
-0.0287191
-1.33567
1.33855
0.0316741
-0.0340809
-1.58945
1.59185
0.0359482
-0.0372882
-1.58119
1.58253
0.0380419
-0.0384516
-1.31672
1.31713
0.0385632
-0.0384517
-1.1015
1.10139
0.0382047
-0.0379575
-0.926054
0.925807
0.0378445
-0.0372602
-0.782209
0.781624
0.0360355
-0.033239
-0.646082
0.643286
0.0290783
-0.0230886
-0.477906
0.471917
0.0171285
-0.0109947
-0.283995
0.277861
0.00640472
-0.00274974
-0.123007
0.119352
0.000761621
-0.0190347
0.0182731
-0.0297043
0.0301827
-0.000478348
0.00269734
-0.00375635
-0.224298
0.225357
0.00464479
-0.00527901
-0.393911
0.394545
0.0059872
-0.00698087
-0.554754
0.555747
0.00864087
-0.0107533
-0.683652
0.685764
0.0135897
-0.0164852
-0.807705
0.8106
0.0198556
-0.023032
-0.954116
0.957292
0.026578
-0.0298178
-1.13034
1.13358
0.0332971
-0.0363137
-1.34135
1.34436
0.0393177
-0.0416523
-1.59413
1.59647
0.0433371
-0.0443991
-1.58367
1.58474
0.0448591
-0.0449518
-1.31734
1.31743
0.0447604
-0.0443211
-1.10119
1.10075
0.0437706
-0.0432091
-0.925446
0.924885
0.0427771
-0.0417569
-0.780562
0.779542
0.0399854
-0.0364228
-0.640358
0.636795
0.0315292
-0.024825
-0.465792
0.459088
0.0183529
-0.0117833
-0.271625
0.265055
0.00687807
-0.00296175
-0.115625
0.111709
0.000823005
-0.017503
0.01668
-0.0307385
0.0314333
-0.000694765
0.00417531
-0.00611302
-0.226854
0.228791
0.00805793
-0.00958051
-0.395606
0.397128
0.0111155
-0.0126845
-0.557413
0.558982
0.0147911
-0.0172565
-0.688282
0.690747
0.0204891
-0.0237636
-0.813478
0.816753
0.0275599
-0.0311203
-0.960386
0.963946
0.0350618
-0.0386161
-1.13676
1.14032
0.0423671
-0.0455446
-1.34729
1.35047
0.0486093
-0.0508657
-1.59865
1.60091
0.05234
-0.0530764
-1.58557
1.5863
0.0531663
-0.0528711
-1.31727
1.31697
0.0523187
-0.0514971
-1.10014
1.09932
0.0506054
-0.0496816
-0.924149
0.923226
0.0488423
-0.04732
-0.778015
0.776493
0.0448605
-0.0403933
-0.633127
0.62866
0.0346331
-0.0270621
-0.452225
0.444654
0.0199356
-0.0127877
-0.25833
0.251182
0.00746667
-0.0032168
-0.10769
0.103441
0.000893993
-0.0158454
0.0149514
-0.0322047
0.0331851
-0.000980385
0.00604744
-0.00905266
-0.231187
0.234192
0.012232
-0.014811
-0.399231
0.40181
0.0173207
-0.0196027
-0.561409
0.563691
0.0223062
-0.0252447
-0.693689
0.696627
0.0290049
-0.0327544
-0.820016
0.823765
0.037069
-0.0410801
-0.967435
0.971446
0.0454712
-0.0493756
-1.1438
1.14771
0.0534228
-0.0567651
-1.35355
1.35689
0.0598601
-0.0619784
-1.60298
1.6051
0.0631691
-0.0635006
-1.58677
1.5871
0.0631783
-0.0624243
-1.31633
1.31558
0.0614614
-0.0601981
-1.09825
1.09698
0.0589126
-0.0576208
-0.92205
0.920758
0.0562444
-0.0541068
-0.774434
0.772296
0.0508258
-0.0452705
-0.624099
0.618544
0.0384608
-0.0298232
-0.436891
0.428253
0.0218743
-0.0139942
-0.243827
0.235946
0.00815631
-0.00350596
-0.0990628
0.0944124
0.000971372
-0.0140447
0.0130733
-0.0342302
0.0356058
-0.0013756
0.00850485
-0.0128442
-0.237646
0.241986
0.0175037
-0.0213099
-0.405156
0.408963
0.0249536
-0.0281066
-0.567101
0.570254
0.0316051
-0.0352042
-0.700154
0.703753
0.039668
-0.0440265
-0.827516
0.831874
0.0489658
-0.0534993
-0.975385
0.979918
0.0583994
-0.062685
-1.15154
1.15583
0.0670208
-0.0704724
-1.36009
1.36354
0.0734876
-0.0753321
-1.60696
1.6088
0.0761
-0.0758917
-1.58709
1.58688
0.0750716
-0.0737462
-1.31434
1.31301
0.0723243
-0.0705724
-1.09536
1.0936
0.0688634
-0.0671208
-0.919095
0.917352
0.065145
-0.0622704
-0.769602
0.766727
0.057982
-0.0510998
-0.612893
0.60601
0.0430179
-0.0330844
-0.419391
0.409458
0.0241301
-0.0153614
-0.227812
0.219043
0.0089138
-0.00381083
-0.0896162
0.0845132
0.00104886
-0.0120907
0.0110418
-0.0370124
0.0389543
-0.00194188
0.011925
-0.0179666
-0.246725
0.252766
0.0244136
-0.0296518
-0.413865
0.419103
0.0346187
-0.0388098
-0.57488
0.579072
0.043295
-0.0477356
-0.70805
0.71249
0.0530908
-0.0582027
-0.836234
0.841346
0.0639048
-0.0690567
-0.9844
0.989551
0.0745158
-0.0791651
-1.16002
1.16466
0.0837089
-0.0871584
-1.36678
1.37023
0.0899467
-0.0913666
-1.6103
1.61172
0.0915447
-0.0906206
-1.58624
1.58532
0.0891385
-0.0871126
-1.31111
1.30908
0.0851153
-0.0828221
-1.09132
1.08903
0.0806541
-0.0782978
-0.915102
0.912745
0.0757511
-0.071915
-0.763182
0.759346
0.0663916
-0.0578994
-0.599021
0.590529
0.0482797
-0.0367822
-0.399278
0.38778
0.0266236
-0.0168158
-0.209988
0.200181
0.00968488
-0.00410339
-0.0792621
0.0736806
0.00111733
-0.00998798
0.00887064
-0.0408717
0.043694
-0.00282237
0.0168943
-0.0251865
-0.259149
0.267442
0.0338456
-0.0408031
-0.426024
0.432981
0.0473847
-0.0528569
-0.585191
0.590664
0.0585839
-0.0641091
-0.717749
0.723274
0.0705991
-0.0766078
-0.84645
0.852458
0.0831389
-0.0888867
-0.994638
1.00039
0.0947981
-0.0996544
-1.16913
1.17399
0.104185
-0.107397
-1.37334
1.37655
0.109671
-0.110391
-1.61264
1.61336
0.10974
-0.107897
-1.58384
1.582
0.105602
-0.102747
-1.30641
1.30356
0.100061
-0.0971367
-1.08603
1.08311
0.0944521
-0.0913925
-0.909686
0.906627
0.0881634
-0.0831164
-0.754706
0.749659
0.0760607
-0.0656014
-0.581886
0.571427
0.054126
-0.040768
-0.376038
0.36268
0.0292054
-0.0182326
-0.190095
0.179122
0.0103826
-0.0043412
-0.0679764
0.061935
0.0011637
-0.00775997
0.00659627
-0.0463766
0.0506801
-0.00430351
0.0245931
-0.0359368
-0.276093
0.287437
0.0474507
-0.0567145
-0.442661
0.451925
0.0653191
-0.0723456
-0.598665
0.605691
0.079634
-0.0866234
-0.729689
0.736678
0.0942921
-0.101105
-0.85836
0.865173
0.10826
-0.114342
-1.00594
1.01202
0.120358
-0.125069
-1.17847
1.18318
0.129169
-0.131745
-1.3792
1.38178
0.133055
-0.132679
-1.61336
1.61299
0.130859
-0.127814
-1.57945
1.57641
0.124511
-0.120663
-1.29996
1.29612
0.117197
-0.113572
-1.07929
1.07567
0.110348
-0.106531
-0.902653
0.898837
0.102396
-0.0957639
-0.743635
0.737003
0.0868038
-0.0739565
-0.56071
0.547862
0.0602882
-0.0447821
-0.349122
0.333616
0.0316402
-0.0194294
-0.16796
0.155749
0.0108835
-0.0044652
-0.055844
0.0494257
0.00116933
-0.00545621
0.00428688
-0.0545879
0.0619317
-0.00734382
0.0379698
-0.0537878
-0.299682
0.3155
0.0693338
-0.0817902
-0.465449
0.477905
0.0925564
-0.10096
-0.615774
0.624178
0.109789
-0.118062
-0.744241
0.752515
0.126656
-0.133848
-0.87167
0.878862
0.141046
-0.14688
-1.01765
1.02348
0.152361
-0.156324
-1.18723
1.19119
0.159365
-0.160727
-1.38349
1.38486
0.160521
-0.15857
-1.61164
1.60969
0.155175
-0.150605
-1.57249
1.56792
0.146054
-0.141011
-1.29141
1.28637
0.136621
-0.132198
-1.07091
1.06649
0.128298
-0.123651
-0.893832
0.889185
0.118241
-0.109586
-0.729138
0.720483
0.0982058
-0.0824383
-0.534503
0.518735
0.0662434
-0.0484269
-0.318004
0.300187
0.0336427
-0.0202361
-0.143604
0.130198
0.0110813
-0.00442233
-0.0431231
0.0364641
0.00110628
-0.00316024
0.00205397
-0.0687728
0.072872
-0.00409912
0.0289473
-0.0427717
-0.333848
0.347672
0.0566349
-0.0681265
-0.495793
0.507284
0.0783161
-0.0878064
-0.636128
0.645618
0.0983458
-0.108093
-0.760216
0.769964
0.118882
-0.128367
-0.885035
0.89452
0.138373
-0.147179
-1.02839
1.03719
0.156269
-0.163911
-1.19405
1.20169
0.171295
-0.176892
-1.385
1.3906
0.181416
-0.183676
-1.60648
1.60874
0.183637
-0.181861
-1.56226
1.56048
0.179051
-0.175236
-1.28039
1.27657
0.171747
-0.167631
-1.06063
1.05651
0.164041
-0.159228
-0.882647
0.877834
0.151944
-0.139404
-0.710115
0.697575
0.122628
-0.100325
-0.502265
0.479962
0.0784488
-0.0552587
-0.282263
0.259073
0.0370231
-0.0213744
-0.117386
0.101738
0.0112036
-0.00424155
-0.0303156
0.0233535
0.000971655
-0.000965197
-6.45867e-06
-0.0801863
0.0782754
0.00191094
0.00762511
-0.0165162
-0.364178
0.373069
0.0270055
-0.0352702
-0.523342
0.531607
0.0435047
-0.051316
-0.657735
0.665546
0.060914
-0.0699172
-0.779176
0.788179
0.0795189
-0.0882132
-0.90337
0.912064
0.0973642
-0.105062
-1.04569
1.05338
0.113168
-0.119584
-1.20908
1.21549
0.125677
-0.129928
-1.39578
1.40003
0.132694
-0.133374
-1.61002
1.6107
0.131808
-0.128499
-1.55786
1.55455
0.124151
-0.118738
-1.2721
1.26669
0.113709
-0.108149
-1.05074
1.04518
0.102923
-0.0966774
-0.868265
0.862019
0.0892424
-0.0783125
-0.681282
0.670353
0.0657123
-0.0506867
-0.456221
0.441195
0.0373443
-0.0248206
-0.236125
0.223601
0.01587
-0.00882021
-0.0868642
0.0798144
0.00447392
-0.00164066
-0.0166475
0.0138143
0.000347044
0.0012121
-0.00155914
-0.0816067
0.0787673
0.0028394
-0.00115843
-0.00389886
-0.384722
0.389779
0.0108293
-0.0168426
-0.543705
0.549718
0.0229252
-0.0296704
-0.675897
0.682643
0.0379896
-0.0457882
-0.796253
0.804052
0.0543111
-0.0618602
-0.919934
0.927483
0.0695454
-0.0763658
-1.06089
1.06771
0.0833248
-0.0888903
-1.22143
1.227
0.093688
-0.0967595
-1.40355
1.40662
0.0985507
-0.098151
-1.61061
1.61021
0.0955212
-0.0911431
-1.55053
1.54615
0.0859237
-0.0797486
-1.2609
1.25473
0.0735995
-0.0669851
-1.03816
1.03155
0.0607764
-0.0537297
-0.852418
0.845371
0.0468201
-0.0378096
-0.656135
0.647124
0.0287726
-0.0193251
-0.424461
0.415014
0.0124626
-0.00727445
-0.210376
0.205187
0.00422537
-0.00224552
-0.0725611
0.0705812
0.00111342
-0.000418906
-0.0107219
0.0100274
7.83574e-05
0.00217653
-0.00225489
-0.0804249
0.0776799
0.00274502
-0.00486717
0.00234579
-0.398353
0.400874
0.00212956
-0.00664732
-0.558823
0.56334
0.0117709
-0.0174257
-0.690834
0.696489
0.024573
-0.0312616
-0.811178
0.817867
0.0385218
-0.0449711
-0.934453
0.940902
0.0519142
-0.0576644
-1.07407
1.07982
0.0636933
-0.068045
-1.23212
1.23647
0.0720357
-0.0744207
-1.40942
1.41181
0.0753102
-0.0739057
-1.60931
1.6079
0.0706935
-0.0657741
-1.5411
1.53618
0.0601029
-0.0531207
-1.24814
1.24116
0.0465968
-0.0395279
-1.0239
1.01683
0.0327652
-0.0256503
-0.835687
0.828573
0.0189622
-0.0117347
-0.635136
0.627909
0.00560172
-0.000788068
-0.404329
0.399515
-0.00154121
0.00234942
-0.198247
0.197439
-0.00227361
0.00155946
-0.0676178
0.068332
-0.00097473
0.000412568
-0.00878728
0.00934944
-0.000128897
0.00264824
-0.00251935
-0.0789826
0.0765698
0.00241279
-0.00603568
0.00507386
-0.407517
0.408479
-0.00171036
-0.00164891
-0.570924
0.574283
0.00574052
-0.0108682
-0.703389
0.708517
0.0168862
-0.0227726
-0.823828
0.829715
0.0290648
-0.0346744
-0.946881
0.952491
0.0406332
-0.0457473
-1.08542
1.09054
0.0508257
-0.0547881
-1.24066
1.24462
0.0581102
-0.0599339
-1.41378
1.41561
0.0602434
-0.0583746
-1.60625
1.60438
0.0548087
-0.0494453
-1.53052
1.52515
0.0436448
-0.036692
-1.23407
1.22712
0.0300138
-0.0225237
-1.00894
1.00145
0.0156325
-0.00834468
-0.819196
0.811908
0.00226496
0.0035029
-0.618098
0.61233
-0.00752137
0.00960232
-0.392235
0.390155
-0.00959744
0.00820369
-0.194288
0.195682
-0.00639894
0.00425218
-0.0682199
0.0703666
-0.00254942
0.00107228
-0.00949827
0.0109754
-0.00029583
0.00263645
-0.00234062
-0.0776642
0.0756137
0.00205051
-0.00593897
0.00545391
-0.413859
0.414344
-0.0034295
0.00068893
-0.580283
0.583024
0.00331791
-0.00771981
-0.714034
0.718436
0.0129025
-0.0180147
-0.834785
0.839897
0.0236142
-0.0286456
-0.957739
0.962771
0.0341238
-0.0386211
-1.09537
1.09987
0.0431967
-0.0467513
-1.24829
1.25184
0.0496242
-0.0510902
-1.41713
1.4186
0.0510646
-0.0493877
-1.6024
1.60072
0.0457475
-0.0405771
-1.51939
1.51422
0.0348171
-0.0278838
-1.21997
1.21303
0.0214391
-0.0138279
-0.993463
0.985851
0.00695663
2.19199e-05
-0.803128
0.796149
-0.00571691
0.0104922
-0.604003
0.599228
-0.0134928
0.0145945
-0.384954
0.383852
-0.0134431
0.0110547
-0.194781
0.19717
-0.00860966
0.00578625
-0.0717529
0.0745763
-0.00347476
0.00150077
-0.0121124
0.0140864
-0.000417992
0.00217168
-0.00175369
-0.0766936
0.0751079
0.00158567
-0.00505698
0.00488284
-0.418638
0.418812
-0.00319025
0.00111781
-0.588487
0.590559
0.00263913
-0.00664982
-0.723272
0.727283
0.0115794
-0.0159897
-0.844605
0.849016
0.0209218
-0.0254041
-0.967764
0.972246
0.0306327
-0.0347403
-1.1044
1.10851
0.0388283
-0.0422038
-1.25522
1.25859
0.0452317
-0.0465553
-1.42007
1.42139
0.0466192
-0.0449077
-1.59868
1.59696
0.0416646
-0.0363716
-1.50885
1.50356
0.0309028
-0.0243048
-1.20591
1.19932
0.0179755
-0.0109537
-0.978123
0.971101
0.00444684
0.00233348
-0.787977
0.781197
-0.00746269
0.011845
-0.591636
0.587254
-0.0144849
0.0152828
-0.379807
0.379009
-0.0142632
0.0118939
-0.197095
0.199465
-0.00934943
0.00634041
-0.0766138
0.0796228
-0.00385503
0.00170689
-0.0156334
0.0177815
-0.000488858
0.00145461
-0.000965748
-0.0762351
0.075009
0.00122612
-0.00395676
0.00389351
-0.422499
0.422563
-0.00230526
0.000333182
-0.595649
0.597621
0.00322699
-0.00684871
-0.731582
0.735204
0.0110849
-0.0153426
-0.85338
0.857637
0.0199162
-0.0245614
-0.976527
0.981173
0.0290817
-0.0330238
-1.11272
1.11666
0.0372596
-0.040419
-1.26184
1.265
0.0429947
-0.0447526
-1.42263
1.42439
0.0450217
-0.0436024
-1.59532
1.5939
0.0404731
-0.0356812
-1.49843
1.49364
0.0305304
-0.0243572
-1.19246
1.18629
0.0185831
-0.0121045
-0.963933
0.957454
0.0061097
8.39165e-05
-0.773813
0.76762
-0.00527789
0.00946643
-0.58018
0.575991
-0.0118097
0.0129218
-0.375537
0.374425
-0.0124444
0.0105362
-0.199389
0.201297
-0.00841347
0.00578287
-0.0814592
0.0840898
-0.00357716
0.00162212
-0.019318
0.021273
-0.000482934
0.000626708
-0.000143774
-0.0763255
0.0753057
0.00101984
-0.00265306
0.0023317
-0.426017
0.426338
-0.000920399
-0.001076
-0.602258
0.604254
0.00436286
-0.00788033
-0.739329
0.742846
0.0119618
-0.0158317
-0.861702
0.865571
0.020539
-0.0244034
-0.985229
0.989094
0.0289096
-0.0326956
-1.12076
1.12455
0.0368317
-0.0401969
-1.26814
1.2715
0.0430936
-0.0446701
-1.42591
1.42749
0.0452957
-0.0442589
-1.5924
1.59136
0.0417721
-0.0373657
-1.48876
1.48436
0.0327966
-0.0272525
-1.18036
1.17481
0.0220731
-0.0160753
-0.950791
0.944793
0.0105979
-0.00463592
-0.760699
0.754737
-0.000370164
0.00470719
-0.569568
0.565231
-0.00728272
0.00852305
-0.370843
0.369603
-0.00871633
0.00767315
-0.200791
0.201835
-0.00629347
0.00441548
-0.0853922
0.0872702
-0.00278022
0.00130315
-0.0224637
0.0239408
-0.000402413
-0.000146628
0.000549041
-0.076716
0.0760078
0.00070827
-0.00149717
0.000696218
-0.42965
0.43045
0.000533598
-0.00267701
-0.608149
0.610292
0.00567261
-0.00908435
-0.746574
0.749986
0.0130148
-0.0170257
-0.869316
0.873327
0.0211282
-0.0251679
-0.993164
0.997204
0.0296487
-0.0332372
-1.12876
1.13234
0.0374862
-0.0408334
-1.27467
1.27802
0.0438172
-0.0459543
-1.42948
1.43161
0.0470946
-0.0463852
-1.59037
1.58966
0.0442299
-0.0407298
-1.48023
1.47673
0.0369021
-0.0319012
-1.1693
1.1643
0.0270594
-0.0216344
-0.938698
0.933273
0.0161154
-0.0106212
-0.74815
0.742655
0.00581493
-0.00127933
-0.559388
0.554853
-0.0015919
0.00349227
-0.365517
0.363617
-0.00424909
0.00416848
-0.200849
0.20093
-0.00355308
0.00258451
-0.0877646
0.0887332
-0.00171287
0.000848157
-0.0246237
0.0254884
-0.000279894
-0.00073707
0.00101696
-0.0775176
0.0769728
0.000544813
-0.00052397
-0.000229113
-0.433539
0.434292
0.00202227
-0.00403342
-0.614159
0.61617
0.0072305
-0.0105402
-0.753349
0.756659
0.0143406
-0.0179654
-0.877019
0.880643
0.0222068
-0.0259442
-1.00124
1.00498
0.0303845
-0.0344255
-1.13638
1.14042
0.0383376
-0.042039
-1.28141
1.28512
0.0454829
-0.0477487
-1.43365
1.43592
0.0493127
-0.0494611
-1.5892
1.58935
0.0478936
-0.0451656
-1.47321
1.47048
0.0416443
-0.0371235
-1.1594
1.15488
0.03268
-0.0274317
-0.927399
0.922151
0.0223746
-0.0171005
-0.736391
0.731117
0.0124016
-0.00759327
-0.549015
0.544207
0.00412534
-0.00161563
-0.359281
0.356772
9.76487e-05
0.000622967
-0.199204
0.198484
-0.000850756
0.000789556
-0.0883765
0.0884377
-0.000620946
0.000369112
-0.0255903
0.0258422
-0.000147111
-0.00108803
0.00123514
-0.0786015
0.0782352
0.00036629
0.00053527
-0.00148332
-0.437587
0.438535
0.00315779
-0.00548112
-0.619807
0.62213
0.0086395
-0.0118182
-0.759915
0.763093
0.0157193
-0.0192091
-0.884252
0.887741
0.0233056
-0.0271736
-1.00919
1.01305
0.0315354
-0.0355569
-1.14431
1.14833
0.0397152
-0.0434769
-1.28874
1.2925
0.0471432
-0.0501934
-1.43847
1.44152
0.0522612
-0.0528018
-1.58948
1.59002
0.0520075
-0.049635
-1.46769
1.46531
0.0466278
-0.0425818
-1.1503
1.14625
0.0382032
-0.0333031
-0.91664
0.91174
0.0286101
-0.023453
-0.725272
0.720115
0.0188412
-0.0137055
-0.538533
0.533397
0.00977423
-0.0064471
-0.352077
0.34875
0.00428112
-0.0026649
-0.195901
0.194285
0.00151126
-0.000688124
-0.0872366
0.0864135
0.00020518
5.06162e-05
-0.0253927
0.0251369
-7.63231e-05