/*--------------------------------*- C++ -*----------------------------------*\
  =========                 |
  \\      /  F ield         | OpenFOAM: The Open Source CFD Toolbox
   \\    /   O peration     | Website:  https://openfoam.org
    \\  /    A nd           | Version:  6
     \\/     M anipulation  |
\*---------------------------------------------------------------------------*/
FoamFile
{
    version     2.0;
    format      ascii;
    class       volScalarField;
    location    "6";
    object      p;
}
// * * * * * * * * * * * * * * * * * * * * * * * * * * * * * * * * * * * * * //

dimensions      [0 2 -2 0 0 0 0];

internalField   nonuniform List<scalar> 
2200
(
0.532148
0.51712
0.500479
0.485391
0.472227
0.461457
0.452712
0.446023
0.441984
0.44032
0.440403
0.442291
0.446585
0.453495
0.462424
0.473305
0.486543
0.501668
0.518327
0.533365
0.476093
0.472906
0.468968
0.465269
0.461174
0.455952
0.450276
0.445425
0.442209
0.439994
0.440111
0.442416
0.446008
0.451221
0.457047
0.462359
0.466515
0.470249
0.474204
0.477394
0.433477
0.434183
0.437237
0.441009
0.442882
0.442506
0.440995
0.4389
0.436231
0.434392
0.434674
0.436998
0.43987
0.442116
0.443759
0.444219
0.4424
0.438681
0.435674
0.434982
0.410825
0.411974
0.414738
0.417747
0.419972
0.421791
0.422958
0.423016
0.422125
0.421595
0.421935
0.423119
0.424304
0.424364
0.423325
0.421609
0.419459
0.41649
0.413747
0.412606
0.402126
0.402983
0.404579
0.405931
0.406926
0.408123
0.409261
0.409958
0.410325
0.410647
0.411017
0.411349
0.411352
0.410876
0.409895
0.408821
0.407912
0.406608
0.405038
0.404194
0.401012
0.401785
0.403246
0.404956
0.406618
0.407947
0.409034
0.409846
0.410357
0.410751
0.411167
0.41139
0.41132
0.41087
0.410015
0.408844
0.407298
0.405674
0.404258
0.4035
0.402403
0.402851
0.403761
0.404907
0.406129
0.40744
0.408651
0.409741
0.410714
0.411189
0.411599
0.411892
0.411837
0.411067
0.410126
0.409022
0.407919
0.406821
0.405939
0.405486
0.400581
0.400694
0.400996
0.401401
0.402025
0.402777
0.403606
0.404433
0.405248
0.406037
0.40655
0.406765
0.406598
0.406395
0.40607
0.405585
0.405091
0.40476
0.404492
0.404377
0.395673
0.395644
0.395626
0.395685
0.395875
0.396241
0.39679
0.397478
0.398219
0.399079
0.399753
0.400206
0.40041
0.400476
0.400336
0.400266
0.400248
0.400288
0.400331
0.400369
0.39077
0.390744
0.390773
0.3909
0.39112
0.391411
0.39179
0.392303
0.39297
0.393881
0.394832
0.39558
0.396077
0.396401
0.396542
0.396602
0.396652
0.396692
0.396733
0.396766
0.38624
0.386277
0.386359
0.386493
0.386733
0.387078
0.387559
0.388192
0.389011
0.390073
0.391307
0.392244
0.392868
0.393305
0.393603
0.393761
0.393831
0.393856
0.393859
0.393857
0.38125
0.381287
0.381382
0.381523
0.381752
0.382126
0.382681
0.383457
0.384491
0.385803
0.3873
0.388572
0.389469
0.390068
0.390455
0.390694
0.390832
0.390907
0.390939
0.39094
0.375692
0.375718
0.375813
0.375994
0.376273
0.376699
0.377346
0.378281
0.379568
0.381236
0.383101
0.384743
0.385928
0.386732
0.38727
0.38762
0.387839
0.387969
0.388033
0.388048
0.369768
0.369793
0.369896
0.370105
0.370454
0.370994
0.371802
0.37297
0.374587
0.376713
0.379095
0.381169
0.382689
0.383749
0.384466
0.384933
0.385225
0.385395
0.385477
0.385496
0.363412
0.363447
0.363575
0.363832
0.364263
0.364939
0.365957
0.367433
0.369486
0.372192
0.37523
0.377866
0.379808
0.38117
0.38209
0.382688
0.383061
0.383277
0.383378
0.383402
0.356421
0.356467
0.35663
0.356955
0.357501
0.358359
0.359654
0.361534
0.364149
0.3676
0.371468
0.374818
0.377285
0.379015
0.380181
0.38094
0.381413
0.381688
0.381817
0.381848
0.3486
0.348658
0.348867
0.349285
0.349985
0.351088
0.352749
0.355159
0.358506
0.362916
0.367841
0.37209
0.375211
0.377396
0.378868
0.379824
0.380421
0.380767
0.38093
0.380968
0.339711
0.339789
0.340066
0.340612
0.341525
0.342952
0.345097
0.348199
0.352497
0.358138
0.364407
0.369785
0.373719
0.376464
0.378309
0.379507
0.380255
0.380688
0.380893
0.380941
0.329453
0.329554
0.329911
0.330623
0.331812
0.333673
0.336463
0.340483
0.346026
0.353253
0.36122
0.368004
0.372943
0.37638
0.378687
0.380183
0.381114
0.381651
0.381903
0.381961
0.317279
0.31743
0.317931
0.318896
0.320488
0.322948
0.326609
0.331852
0.339025
0.348283
0.358375
0.366892
0.373062
0.377345
0.380217
0.382079
0.38324
0.383915
0.384234
0.384308
0.302785
0.30296
0.303591
0.30487
0.306999
0.310291
0.315169
0.322085
0.331412
0.343256
0.355967
0.366585
0.374251
0.379576
0.383153
0.385475
0.386919
0.387748
0.388131
0.388214
0.284529
0.284869
0.285871
0.287713
0.290688
0.295214
0.301816
0.311022
0.323167
0.338245
0.354118
0.367237
0.376691
0.383284
0.38774
0.390651
0.392476
0.393546
0.394058
0.394182
0.262004
0.262374
0.263675
0.266285
0.2706
0.277024
0.286204
0.2986
0.31439
0.333419
0.353011
0.369026
0.380578
0.388714
0.394293
0.397988
0.400326
0.401676
0.402288
0.402415
0.232017
0.232896
0.235231
0.23937
0.245807
0.255195
0.268168
0.284829
0.305172
0.328881
0.3527
0.371973
0.385923
0.395885
0.402875
0.407627
0.410713
0.412585
0.413501
0.413713
0.192449
0.19391
0.197822
0.204616
0.215
0.229528
0.247926
0.270061
0.295881
0.324927
0.353407
0.376234
0.392841
0.404904
0.413633
0.41987
0.424099
0.426703
0.428003
0.428251
0.140099
0.142057
0.148952
0.161075
0.178753
0.200708
0.226002
0.254787
0.286891
0.321761
0.355146
0.381671
0.401094
0.415459
0.426127
0.434121
0.440035
0.443838
0.445522
0.445641
0.0680721
0.0745981
0.0902844
0.112914
0.140446
0.170461
0.203228
0.23921
0.278065
0.319293
0.358151
0.389033
0.412027
0.429524
0.443051
0.453724
0.462523
0.469394
0.473223
0.474124
-0.0139968
0.00238288
0.0306683
0.0653484
0.102288
0.140202
0.180716
0.223991
0.269694
0.317552
0.362452
0.398355
0.425471
0.446564
0.463372
0.476974
0.488248
0.498017
0.505203
0.508442
-0.0780498
-0.0580543
-0.0228038
0.0203499
0.0651832
0.111197
0.159539
0.209834
0.261996
0.315981
0.366344
0.406553
0.436894
0.460451
0.479148
0.494181
0.506282
0.516167
0.52383
0.527465
-0.124277
-0.104133
-0.0656018
-0.0178845
0.0323734
0.0849747
0.139838
0.196234
0.254136
0.313545
0.368634
0.412328
0.444985
0.469995
0.489492
0.504905
0.517165
0.526805
0.533896
0.537073
-0.160419
-0.139042
-0.0980323
-0.0477821
0.00576039
0.0626221
0.122053
0.18324
0.245939
0.31004
0.369269
0.415959
0.450499
0.476595
0.49663
0.512231
0.524537
0.534189
0.541008
0.543952
-0.189323
-0.166728
-0.123505
-0.0712775
-0.0154577
0.0440967
0.106611
0.171339
0.237823
0.305866
0.368813
0.418347
0.454752
0.481988
0.502666
0.518584
0.531007
0.540696
0.547436
0.550503
-0.213283
-0.189829
-0.145048
-0.0911719
-0.033408
0.0282755
0.0931541
0.160532
0.229918
0.301193
0.367548
0.419984
0.458443
0.487014
0.508494
0.524844
0.537458
0.547206
0.553909
0.556955
-0.234051
-0.21006
-0.16429
-0.109116
-0.0496507
0.0139523
0.0808327
0.15029
0.221914
0.295829
0.3654
0.420967
0.461813
0.492009
0.514496
0.531409
0.544291
0.554139
0.560852
0.563908
-0.252728
-0.228316
-0.181754
-0.125572
-0.064691
0.000542841
0.0690516
0.140135
0.213452
0.28948
0.362157
0.421241
0.46498
0.497236
0.52104
0.538723
0.552008
0.562027
0.568793
0.571923
-0.269819
-0.244967
-0.197605
-0.140601
-0.078546
-0.0120537
0.0576578
0.129904
0.204348
0.281926
0.357601
0.420736
0.46806
0.502949
0.528495
0.547221
0.561056
0.571329
0.578193
0.581352
-0.285671
-0.260195
-0.212065
-0.154327
-0.0912674
-0.0238446
0.0466872
0.11961
0.194537
0.27296
0.351388
0.419161
0.470967
0.509303
0.53713
0.557249
0.571888
0.582554
0.589559
0.592747
-0.300543
-0.274191
-0.225403
-0.166944
-0.102996
-0.0348636
0.0361919
0.109311
0.184019
0.262442
0.343238
0.416346
0.473756
0.516456
0.547264
0.569199
0.584791
0.595909
0.603098
0.606327
-0.314471
-0.28718
-0.237805
-0.178608
-0.113857
-0.0451465
0.0262055
0.0990748
0.17284
0.250243
0.332666
0.41161
0.475891
0.524376
0.55903
0.583254
0.600186
0.611987
0.619439
0.62272
-0.327466
-0.299308
-0.249365
-0.18942
-0.123924
-0.0547026
0.0167724
0.0889921
0.1611
0.236324
0.319333
0.40469
0.47736
0.533079
0.572742
0.599882
0.618297
0.63081
0.638533
0.641815
-0.339603
-0.310677
-0.260145
-0.199439
-0.133215
-0.0634996
0.007972
0.0791935
0.149001
0.220843
0.302972
0.394889
0.477351
0.542187
0.588524
0.619435
0.639591
0.652907
0.660956
0.664331
-0.35098
-0.321375
-0.270209
-0.208703
-0.141723
-0.0714939
-0.000118177
0.0697999
0.136745
0.203878
0.28295
0.381213
0.47512
0.551395
0.606195
0.64215
0.664498
0.678302
0.68636
0.689493
-0.361691
-0.331481
-0.279622
-0.217246
-0.149447
-0.078669
-0.00746437
0.0609007
0.124567
0.185822
0.259699
0.36387
0.471092
0.560015
0.625317
0.668437
0.693621
0.707548
0.714666
0.717247
-0.371822
-0.341082
-0.288447
-0.225101
-0.156398
-0.08503
-0.0140634
0.0526074
0.112756
0.167081
0.232735
0.340908
0.46345
0.567593
0.646019
0.69833
0.728374
0.741948
0.74625
0.746465
-0.381436
-0.350259
-0.296733
-0.232286
-0.162583
-0.0906003
-0.0199511
0.0450113
0.101467
0.147778
0.2022
0.311787
0.452218
0.575126
0.667306
0.730585
0.769054
0.78343
0.780678
0.773722
-0.390608
-0.359064
-0.3045
-0.238804
-0.168022
-0.0954466
-0.0252089
0.0381839
0.0908898
0.128295
0.168982
0.276954
0.436855
0.582214
0.688829
0.761457
0.810142
0.83349
0.821982
0.788048
-0.399384
-0.367504
-0.311769
-0.244703
-0.172822
-0.099756
-0.0300055
0.0320859
0.0809825
0.108221
0.131073
0.233225
0.413975
0.588805
0.711764
0.789452
0.843709
0.888733
0.918606
0.933125
-0.407847
-0.375641
-0.318586
-0.250069
-0.177191
-0.103828
-0.0345306
0.0266356
0.0715562
0.0870894
0.0869286
0.177858
0.383972
0.593939
0.734115
0.80649
0.84473
0.880409
0.887645
0.875903
-0.416068
-0.383512
-0.324864
-0.254861
-0.181251
-0.107817
-0.038738
0.0219
0.0627743
0.0655571
0.0371217
0.110673
0.342933
0.591704
0.745485
0.804736
0.807063
0.779474
0.738156
0.723949
-0.42412
-0.391062
-0.330493
-0.259138
-0.185208
-0.111866
-0.0425666
0.017869
0.0547974
0.0437046
-0.0177515
0.0262386
0.27509
0.567661
0.72326
0.754843
0.716631
0.642863
0.562712
0.545316
-0.432005
-0.398127
-0.335445
-0.263125
-0.18931
-0.116037
-0.0459432
0.0145417
0.0478368
0.0222787
-0.0784859
-0.0831973
0.16937
0.498837
0.645081
0.651008
0.591838
0.461535
0.357738
0.341024
-0.439725
-0.404692
-0.340205
-0.26742
-0.193866
-0.120353
-0.0488814
0.0118603
0.0421439
0.0026772
-0.144405
-0.229264
0.00128992
0.346286
0.495558
0.475678
0.351207
0.204858
0.0929455
0.0866763
-0.447399
-0.411125
-0.345654
-0.272683
-0.199059
-0.124719
-0.0513804
0.00987676
0.0379429
-0.0126708
-0.223252
-0.424314
-0.24071
0.0865232
0.231638
0.212169
0.0592478
-0.0963349
-0.230885
-0.234931
-0.455152
-0.417868
-0.352219
-0.279066
-0.204781
-0.128907
-0.0534054
0.00879112
0.0354207
-0.0230352
-0.313773
-0.661895
-0.56829
-0.252857
-0.108966
-0.116952
-0.26782
-0.459927
-0.656232
-0.644042
-0.463306
-0.425308
-0.3598
-0.286304
-0.210833
-0.132837
-0.0550493
0.0087401
0.035468
-0.0287748
-0.388772
-0.90033
-0.939825
-0.639519
-0.456083
-0.48049
-0.618605
-0.867509
-1.14751
-1.17195
-0.472308
-0.433695
-0.368248
-0.294139
-0.217097
-0.136602
-0.0564507
0.00970492
0.0390449
-0.03036
-0.431578
-1.07896
-1.23082
-0.982801
-0.78366
-0.84051
-0.973251
-1.25537
-1.76872
-2.16605
-0.4825
-0.443191
-0.377472
-0.302436
-0.22355
-0.140394
-0.0578024
0.0113878
0.0456351
-0.02832
-0.429813
-1.13609
-1.36769
-1.14347
-1.06684
-1.20042
-1.2984
-1.54614
-2.28321
-3.63029
-0.494025
-0.45386
-0.387544
-0.311284
-0.230335
-0.144508
-0.0593518
0.0134624
0.0536798
-0.0148478
-0.386348
-1.05904
-1.32842
-1.14463
-1.25504
-1.5046
-1.59056
-1.63963
-1.86104
-2.35144
-0.507042
-0.465915
-0.39878
-0.321076
-0.23794
-0.149508
-0.0616212
0.0154452
0.0632185
0.01215
-0.305871
-0.870656
-1.13868
-1.05387
-1.32896
-1.70028
-1.8169
-1.75169
-1.71939
-1.76565
-0.521769
-0.479641
-0.411532
-0.332253
-0.246903
-0.155885
-0.0651017
0.0166677
0.0732802
0.0452796
-0.196271
-0.626459
-0.87224
-0.921238
-1.34112
-1.82597
-2.04086
-1.96881
-1.92957
-1.91188
-0.53862
-0.495475
-0.426252
-0.345295
-0.257694
-0.163993
-0.0701072
0.0165893
0.0828745
0.0820333
-0.0717569
-0.365961
-0.56284
-0.74675
-1.26394
-1.87996
-2.27771
-2.29463
-2.19923
-2.12864
-0.5579
-0.513798
-0.443395
-0.360639
-0.270619
-0.174077
-0.0769846
0.0146355
0.0909559
0.119823
0.052611
-0.0906298
-0.270339
-0.557372
-1.0862
-1.75993
-2.30767
-2.43724
-2.31248
-2.19623
-0.580104
-0.535039
-0.46331
-0.378503
-0.285832
-0.186357
-0.0860925
0.0105929
0.0968508
0.154669
0.160942
0.145451
-0.00751409
-0.341879
-0.789923
-1.36586
-1.86191
-2.02114
-1.92748
-1.82621
-0.605385
-0.559388
-0.486166
-0.398969
-0.303334
-0.200843
-0.0974073
0.00468605
0.100324
0.183052
0.245501
0.296088
0.222344
-0.0792217
-0.39478
-0.728422
-1.01012
-1.1195
-1.08559
-1.03464
-0.633866
-0.586945
-0.512
-0.421904
-0.3228
-0.217405
-0.110741
-0.00310099
0.101392
0.204171
0.306291
0.400906
0.407414
0.234669
0.067574
-0.0613763
-0.155425
-0.194809
-0.183455
-0.163692
-0.664729
-0.617563
-0.540511
-0.446728
-0.34378
-0.235687
-0.125535
-0.0124454
0.101044
0.21976
0.347454
0.474121
0.547316
0.508192
0.4549
0.426708
0.414598
0.429069
0.450363
0.460939
-0.697319
-0.650417
-0.570403
-0.472266
-0.36566
-0.254862
-0.140843
-0.0225069
0.0995208
0.230382
0.373951
0.515332
0.622811
0.664063
0.681171
0.702396
0.734961
0.768723
0.788508
0.795549
-0.730503
-0.683576
-0.599677
-0.497271
-0.387579
-0.273984
-0.155901
-0.0326811
0.0955869
0.235328
0.389121
0.534631
0.653152
0.732053
0.789878
0.840247
0.883917
0.917682
0.937378
0.94491
-0.761347
-0.713664
-0.625929
-0.520357
-0.408386
-0.292165
-0.170234
-0.0429217
0.0901969
0.236791
0.396043
0.543136
0.664059
0.756248
0.828606
0.886983
0.932699
0.966479
0.987717
0.996945
-0.78905
-0.739309
-0.648225
-0.540085
-0.426199
-0.307703
-0.182782
-0.0523426
0.0853657
0.236779
0.396506
0.54246
0.661227
0.754566
0.828164
0.886157
0.931426
0.965931
0.988943
0.999294
-0.807897
-0.75757
-0.66444
-0.554495
-0.439243
-0.318778
-0.191964
-0.0596877
0.0797465
0.233361
0.392388
0.53311
0.647072
0.737512
0.809067
0.865407
0.909658
0.944269
0.968431
0.979244
-0.815277
-0.765517
-0.671201
-0.56041
-0.444642
-0.323468
-0.196673
-0.0645448
0.0749622
0.226724
0.381767
0.516836
0.625192
0.711542
0.780228
0.834747
0.877981
0.912192
0.936614
0.947655
-0.805131
-0.75762
-0.664464
-0.554765
-0.440221
-0.320703
-0.196285
-0.0667378
0.070101
0.217695
0.366123
0.494188
0.596177
0.677722
0.743082
0.795609
0.83796
0.871896
0.896338
0.907534
-0.773568
-0.72933
-0.639109
-0.53272
-0.422723
-0.308341
-0.189483
-0.0655176
0.0656461
0.206203
0.345568
0.464772
0.559299
0.635147
0.696483
0.74641
0.787301
0.820613
0.84493
0.85626
-0.713842
-0.674937
-0.591715
-0.492459
-0.390545
-0.285089
-0.175543
-0.0602928
0.0621155
0.192366
0.320052
0.428199
0.513477
0.581869
0.637483
0.683397
0.721907
0.754139
0.778258
0.789852
-0.623873
-0.591099
-0.517159
-0.42929
-0.340851
-0.249999
-0.153788
-0.0499547
0.0602964
0.176898
0.290326
0.385148
0.459004
0.517621
0.564835
0.603452
0.636
0.66386
0.685092
0.695893
-0.490609
-0.466178
-0.409898
-0.34191
-0.274423
-0.203086
-0.122252
-0.0329686
0.0618229
0.163123
0.262183
0.344398
0.407427
0.456389
0.494671
0.524377
0.547819
0.567722
0.583423
0.591807
-0.319309
-0.305592
-0.275405
-0.238254
-0.197397
-0.145965
-0.082294
-0.011233
0.0665234
0.15247
0.237634
0.308318
0.361978
0.402825
0.433887
0.456888
0.472941
0.485049
0.495065
0.500538
-0.167398
-0.161191
-0.149038
-0.135499
-0.115068
-0.0817988
-0.0380962
0.013267
0.0740982
0.144313
0.215048
0.273796
0.317772
0.350171
0.373588
0.389979
0.400098
0.406045
0.410738
0.413483
-0.0608306
-0.0581689
-0.0540644
-0.049786
-0.0390562
-0.0200333
0.00564418
0.0398824
0.0849761
0.139771
0.196606
0.24406
0.278991
0.303752
0.320592
0.331814
0.338586
0.341962
0.344331
0.345787
0.00330649
0.00374392
0.00436621
0.00630414
0.0135303
0.024836
0.0404376
0.0637095
0.0962693
0.13765
0.182106
0.219569
0.246843
0.26578
0.278328
0.286558
0.291801
0.294433
0.295882
0.296669
0.0371151
0.0365416
0.0357429
0.0368266
0.0418397
0.0496149
0.0613332
0.0790406
0.103491
0.135059
0.169647
0.199033
0.22046
0.235412
0.245407
0.251875
0.25595
0.257902
0.258624
0.258902
0.0555032
0.0548682
0.0540918
0.0547825
0.0578845
0.0633612
0.072636
0.0866781
0.105901
0.130771
0.158082
0.18136
0.198412
0.210366
0.218355
0.223364
0.226356
0.227755
0.228165
0.228254
0.0677083
0.0673514
0.0671009
0.0677501
0.0697226
0.0735087
0.0803217
0.090926
0.105897
0.1256
0.147342
0.165883
0.179422
0.188816
0.195
0.198793
0.200997
0.202087
0.202457
0.202538
0.0760615
0.0759108
0.0759614
0.0766055
0.0780818
0.0808798
0.0858185
0.0936092
0.104972
0.120302
0.137445
0.152094
0.162717
0.169999
0.174746
0.177656
0.179347
0.180221
0.18056
0.18064
0.0807237
0.0806493
0.080758
0.0812979
0.0824788
0.0846911
0.0884565
0.0943424
0.102992
0.114811
0.128182
0.139645
0.147937
0.153602
0.157295
0.159573
0.160893
0.161574
0.161845
0.161907
0.0823908
0.082347
0.0824449
0.082861
0.0837884
0.0855357
0.0884761
0.0930487
0.0997483
0.108918
0.119342
0.128299
0.134783
0.139218
0.142111
0.143896
0.144921
0.145442
0.145646
0.14569
0.081976
0.0819555
0.0820473
0.0823766
0.0831016
0.0844575
0.0867353
0.0902895
0.0955076
0.102665
0.110821
0.117836
0.122913
0.126383
0.12864
0.130028
0.130822
0.131221
0.131377
0.131409
0.080062
0.080056
0.0801408
0.0804081
0.0809808
0.0820329
0.0837899
0.0865371
0.090588
0.0961704
0.102553
0.108046
0.112015
0.114721
0.116477
0.117554
0.118169
0.118477
0.118597
0.11862
0.0769708
0.0769705
0.0770423
0.0772568
0.0777096
0.0785304
0.079893
0.0820205
0.0851622
0.0895067
0.0944906
0.0987819
0.101879
0.103988
0.105354
0.106191
0.106668
0.106905
0.106996
0.107013
0.0729415
0.0729426
0.0729997
0.0731684
0.0735229
0.0741626
0.0752223
0.0768748
0.0793144
0.0826935
0.0865788
0.0899263
0.0923408
0.0939837
0.0950468
0.0956976
0.0960665
0.0962487
0.0963177
0.0963299
0.068178
0.0681792
0.0682244
0.0683563
0.0686328
0.0691305
0.0699544
0.0712382
0.0731332
0.0757607
0.078787
0.0813961
0.0832771
0.0845559
0.085382
0.0858862
0.0861709
0.0863101
0.0863622
0.0863714
0.0628554
0.0628563
0.0628911
0.0629936
0.0632081
0.0635943
0.0642332
0.0652285
0.0666988
0.0687405
0.0710952
0.0731251
0.0745869
0.0755791
0.0762187
0.0766082
0.0768277
0.076935
0.0769743
0.0769802
0.0570843
0.0570852
0.0571121
0.0571912
0.0573569
0.0576552
0.0581489
0.0589184
0.0600561
0.0616375
0.0634642
0.065039
0.0661718
0.0669399
0.0674347
0.0677357
0.0679052
0.0679877
0.0680182
0.0680229
0.0509792
0.0509799
0.0510015
0.0510631
0.0511917
0.0514223
0.0518033
0.052397
0.0532753
0.054497
0.0559079
0.0571236
0.0579971
0.0585884
0.0589686
0.0591991
0.0593281
0.0593902
0.0594126
0.059416
0.0446135
0.0446134
0.0446278
0.0446726
0.044769
0.0449438
0.0452343
0.0456882
0.0463602
0.0472963
0.0483792
0.049311
0.0499799
0.0504326
0.0507237
0.0509003
0.0509987
0.0510457
0.0510623
0.051064
0.0380352
0.0380352
0.0380468
0.0380814
0.0381544
0.0382868
0.0385067
0.0388504
0.0393592
0.0400676
0.0408874
0.0415955
0.0421036
0.0424469
0.0426667
0.0427987
0.0428709
0.0429037
0.0429141
0.042915
0.03132
0.0313192
0.0313271
0.0313519
0.0314061
0.0315047
0.0316681
0.0319233
0.0323021
0.0328315
0.0334426
0.0339658
0.0343398
0.0345914
0.0347516
0.0348473
0.0348993
0.0349233
0.0349305
0.0349309
0.0244789
0.024478
0.0244817
0.0244972
0.0245337
0.0246013
0.0247155
0.0248955
0.025163
0.0255386
0.02598
0.0263547
0.0266227
0.0268033
0.0269188
0.0269881
0.0270254
0.0270413
0.0270475
0.0270486
0.0175447
0.017545
0.0175491
0.0175616
0.0175864
0.0176311
0.0177066
0.0178264
0.0180055
0.0182604
0.0185474
0.0187999
0.0189786
0.0190977
0.0191728
0.0192168
0.0192402
0.0192497
0.0192506
0.0192495
0.0105588
0.0105585
0.0105609
0.0105667
0.0105808
0.0106082
0.0106541
0.0107253
0.0108294
0.0109758
0.0111459
0.0112909
0.0113895
0.0114533
0.0114927
0.0115153
0.011527
0.0115314
0.0115317
0.0115312
0.00352627
0.00352239
0.00351777
0.00351707
0.00352124
0.00353093
0.00354751
0.00357285
0.00360944
0.00365295
0.00371966
0.0037712
0.00380622
0.0038283
0.00384164
0.00384898
0.00385195
0.00385123
0.00384718
0.00384433
-1.26719
-0.619739
-0.239958
0.050542
0.284872
0.479211
0.643368
0.789043
0.906334
0.940795
-0.36574
-0.0534968
0.131937
0.306018
0.462872
0.600164
0.711937
0.785717
0.801494
0.789422
0.0514051
0.218252
0.358628
0.484193
0.591474
0.681584
0.750931
0.792237
0.808091
0.828794
0.314752
0.428951
0.532285
0.62257
0.695958
0.755059
0.799805
0.828659
0.851376
0.872947
0.506924
0.593986
0.669127
0.731797
0.782142
0.821005
0.851442
0.875112
0.896476
0.917405
0.664104
0.718634
0.770404
0.813752
0.849982
0.878038
0.899762
0.921198
0.944764
0.965269
0.787704
0.822239
0.85283
0.881549
0.908779
0.931754
0.951453
0.972995
0.997912
1.02058
0.885224
0.910104
0.931984
0.952793
0.975006
0.996804
1.01781
1.03864
1.05892
1.07587
0.969903
0.991873
1.01623
1.03631
1.05375
1.0719
1.09157
1.10892
1.123
1.13501
1.05471
1.07326
1.0989
1.12152
1.13629
1.14746
1.16054
1.17565
1.18993
1.20089
1.15387
1.16275
1.17895
1.19662
1.21153
1.22128
1.23022
1.24339
1.25825
1.26928
1.2496
1.25395
1.26164
1.27397
1.28923
1.30223
1.31081
1.31833
1.32691
1.33494
1.34168
1.34567
1.35273
1.36048
1.36911
1.37931
1.38767
1.39213
1.39664
1.40287
1.43604
1.43627
1.4386
1.44182
1.44478
1.44912
1.45566
1.46289
1.46979
1.47545
1.53567
1.52687
1.51646
1.50911
1.50674
1.50867
1.51551
1.52769
1.54217
1.55488
1.6433
1.60581
1.57471
1.5542
1.54468
1.54488
1.55396
1.57328
1.60446
1.64398
)
;

boundaryField
{
    wall-4
    {
        type            zeroGradient;
    }
    pressure-outlet-7
    {
        type            fixedValue;
        value           uniform 0;
    }
    velocity-inlet-6
    {
        type            zeroGradient;
    }
    velocity-inlet-5
    {
        type            zeroGradient;
    }
    frontAndBackPlanes
    {
        type            empty;
    }
}


// ************************************************************************* //
