/*--------------------------------*- C++ -*----------------------------------*\
  =========                 |
  \\      /  F ield         | OpenFOAM: The Open Source CFD Toolbox
   \\    /   O peration     | Website:  https://openfoam.org
    \\  /    A nd           | Version:  6
     \\/     M anipulation  |
\*---------------------------------------------------------------------------*/
FoamFile
{
    version     2.0;
    format      ascii;
    class       surfaceScalarField;
    location    "71";
    object      phi;
}
// * * * * * * * * * * * * * * * * * * * * * * * * * * * * * * * * * * * * * //

dimensions      [0 3 -1 0 0 0 0];

internalField   nonuniform List<scalar> 
1300
(
3.75095
5.62643
-3.33335
3.75095
-7.76338
5.62643
-4.27177
4.27177
-0.394363
0.394363
1.87649
1.87446
-2.42771
2.42771
-1.79514
1.79514
-2.52913
2.52913
-5.24797
5.24797
-5.06913
5.06913
4.7001
-4.7001
-6.33629
6.33629
-0.963407
0.963407
-3.57461
3.57461
3.17248
-3.17248
-1.89945
1.89945
0.0443381
-0.0443381
-0.554084
4.30504
3.19687
3.19687
-1.9822
1.9822
-4.87399
4.87399
6.22199
-6.22199
5.24968
-5.24968
-1.91633
-2.49473
1.80133
-11.496
-5.96204
-5.96204
-8.44103
8.44103
-2.8146
2.81183
2.9472
-2.9472
-1.72616
1.72616
-4.28785
0.0160822
-4.28785
4.24263
0.0291381
4.24263
-0.495948
0.101586
-0.495948
3.94647
-3.94647
0.304807
0.0895558
0.304807
3.06728
-3.06728
-1.87686
3.75334
1.8741
-1.87209
6.17713
-1.87886
3.75332
-6.0781
6.0781
-2.67461
0.246904
-2.67461
2.19622
0.231493
2.19622
-6.88873
6.88873
-1.82493
0.0297887
-1.82493
1.79854
-0.00339852
1.79854
2.88808
-2.88808
-2.62986
0.100732
-2.62986
2.38366
0.145462
2.38366
0.353485
5.27295
-5.97991
8.79175
-5.27295
0.0249793
5.21035
0.0376167
5.21035
-5.10538
0.0362521
-5.10538
5.01379
0.055332
5.01379
4.78956
-0.0894537
4.78956
-4.8195
0.1194
-4.8195
-3.3612
-4.0746
-6.49666
0.160366
-6.49666
-1.02899
0.0655814
-1.02899
0.856233
0.107174
0.856233
-3.72742
3.72742
-3.93149
0.356888
-3.93149
3.12745
0.0450258
3.12745
1.86812
1.88283
5.61907
-5.61907
2.4466
-1.83943
-0.0600204
-1.83943
-1.97321
-3.27647
1.97321
-0.0737612
-0.172836
0.217174
-0.172836
3.15711
0.0397555
3.15711
2.23425
0.149419
-2.23425
0.25204
3.30049
-3.30049
1.32199
0.660217
1.32199
-5.55919
5.55919
4.96177
0.0520237
-4.96177
0.0877848
6.15708
0.0649041
6.15708
-6.20746
-0.0145271
-6.20746
2.48688
-4.98161
-2.65034
6.14924
0.18705
-6.14924
0.187199
2.91876
0.0284397
2.91876
-2.91942
2.91942
-2.98419
0.0369938
-2.98419
-2.14864
0.422478
-2.14864
1.41186
0.314294
1.41186
-4.20256
-0.0852938
-4.20256
-4.08941
0.157914
4.08941
0.153223
1.11732
-1.11732
-0.605058
0.10911
-0.605058
-4.05071
-0.151852
4.05071
-0.10424
-3.8873
-0.0591654
-3.8873
-3.02189
0.0376958
3.02189
0.0453917
3.1121
0.0450145
-3.1121
0.0448212
-1.87099
3.75382
-1.87996
3.75406
-5.69728
-0.380824
-5.69728
6.35866
-0.280555
6.35866
3.10095
0.473658
-3.10095
0.426333
2.01798
0.178238
2.01798
-6.86194
-0.0267846
-6.86194
6.89496
-0.00623552
6.89496
1.8954
0.122584
-1.8954
0.070463
1.81301
-0.0144643
1.81301
2.91574
-0.027663
2.91574
-2.88182
-0.00626048
-2.88182
2.79106
-2.79106
2.71619
0.0748769
-2.71619
0.0863291
-11.1242
11.1096
-0.0362518
-11.0879
5.1741
5.1741
4.24398
0.545579
4.24398
-5.01568
0.196179
-5.01568
2.66535
-5.31569
3.10058
-6.46178
4.6759
-16.1719
4.296
-8.3706
6.74604
-6.74604
6.62835
0.117694
-6.62835
0.131691
-1.13302
0.104029
-1.13302
-3.12555
-0.601876
-3.12555
4.36517
-0.637747
4.36517
-3.02769
3.02769
-3.07641
0.0487142
3.07641
0.0510436
1.81798
-0.00496964
-1.81798
-0.0214521
0.218079
0.0867277
-0.218079
0.0452432
3.52226
-0.221774
3.52226
-3.09629
-0.2042
-3.09629
-1.22596
0.0929461
1.22596
0.0960245
-5.80715
0.247962
-5.80715
-11.1814
0.0935401
-11.1438
-6.11392
-6.11392
2.3271
11.1189
-2.89712
0.0153032
2.89712
0.0216383
2.97525
0.0524457
-2.97525
0.055831
-2.85839
0.0673259
2.85839
0.0610268
-2.51664
0.368009
-2.51664
-1.02631
1.02631
-1.17457
0.148261
1.17457
0.237294
1.41726
-0.299942
1.41726
0.738895
0.117337
-0.738895
0.133837
-3.83313
-0.0541727
-3.83313
6.59806
-0.239405
6.59806
-2.96731
-0.128983
2.96731
-0.0515661
-0.0349235
11.1446
-5.13917
0.0337964
5.13917
-11.2095
11.2433
-3.22227
0.70563
3.22227
1.0217
5.28511
0.274078
-5.28511
0.269429
6.83598
0.0589815
-6.83598
0.089936
-2.63527
-0.490277
-2.63527
-5.09656
-0.600719
5.09656
-0.73139
-11.4815
-0.203268
11.6848
-11.4262
6.01042
0.146664
-6.01042
11.3899
-0.995369
-0.121952
0.995369
0.0309394
1.75665
-0.339387
1.75665
3.73879
-0.216523
-3.73879
-0.0943423
-6.75343
-0.108512
6.75343
-0.155367
-2.18547
-0.449798
2.18547
-0.428822
-4.26738
4.30714
1.90975
-2.33459
-2.64703
-5.61106
1.85525
1.89857
4.30185
-10.1627
-6.00923
-9.97552
7.21499
-6.94556
-9.32813
9.23868
7.92758
-7.98675
-5.77748
5.82853
6.48463
-6.43924
1.87942
1.87392
8.06211
-7.8152
-15.6726
15.2917
7.58329
-7.5535
15.8273
-15.8541
-17.8711
17.9301
-5.69838
5.79911
-6.74253
6.73627
-6.97938
6.92781
-2.79858
-3.6632
13.1324
-12.9721
8.58642
-8.64644
-8.67164
9.02853
3.3846
0.922533
3.42962
-1.8818
3.76123
-1.87152
3.78127
2.75012
-5.5487
2.56557
-5.2126
4.37004
4.21637
-4.29628
-1.31477
-5.92858
5.95702
-5.80878
5.86981
9.17237
-9.15629
-1.88498
3.7589
-1.86908
3.76765
-3.42305
-2.35443
3.37802
0.923828
8.07652
5.05592
-8.26357
-1.71195
-8.02415
7.80763
-8.21618
8.01198
-0.436883
5.83795
-5.40106
4.4371
-1.65357
7.49151
5.56142
5.7576
5.86074
-5.58666
1.08482
-6.48588
-6.3981
-2.28965
2.39876
2.18221
-2.09266
6.13941
1.78818
6.03517
-5.80389
-2.18286
-5.85806
3.81987
2.00866
3.86858
4.08209
2.40254
4.11979
3.02965
-3.0367
0.00705136
-3.05925
6.08889
0.722202
-5.41368
-4.48985
4.98992
3.07218
5.22142
-5.59174
-2.22346
-5.16541
-9.56333
-6.10923
-10.164
10.0891
5.20262
9.80856
-11.961
11.8056
4.86432
2.71897
4.86093
-4.96246
-2.59105
-4.89199
11.6835
-2.65101
-9.03246
-10.3324
-7.53867
10.3387
5.48862
10.9775
6.95258
11.0674
4.42857
7.2549
-9.91718
2.37851
-3.86402
-1.83436
-3.77769
3.6558
2.14331
3.80126
-4.2188
-2.52374
-4.20349
-4.29492
-2.68446
4.32258
2.41369
-4.41687
-3.79931
4.54586
2.38196
4.05565
-10.0649
4.31495
-7.97815
-9.20901
-3.76306
-9.07732
3.54715
2.60069
-6.14784
-2.00154
8.52892
-4.31254
7.21414
-5.19786
-3.44858
-5.21931
-6.96161
-1.71003
-6.8037
-8.92903
8.43875
-9.22327
8.58552
12.5215
-5.63773
-6.88375
-3.96699
-2.47224
3.92217
-0.492554
-3.71004
3.71709
0.0511854
3.83246
4.75499
4.26243
-3.88192
-1.92686
-3.82609
3.82094
2.04887
3.88826
6.8447
2.32767
6.87384
-6.60775
-2.54853
-6.69305
9.10394
-8.68146
2.79332
-2.70037
5.37455
2.63743
-5.15278
-2.87137
6.23711
-3.21246
-3.02465
-12.3456
10.7975
1.54814
-4.85413
-0.417023
-0.461361
-5.57038
-3.75775
5.45098
0.306624
11.1041
7.34636
-5.51532
5.76328
6.16946
6.22148
-0.176617
5.89194
-5.18631
5.27119
-2.71323
-2.55796
5.47306
-5.62491
-1.21999
-5.54366
4.32368
0.410259
1.51217
-1.295
-1.78753
-0.50212
-1.6537
1.21221
0.970004
1.29893
0.947559
1.45121
-2.92232
0.539864
2.38246
-1.97476
-1.55279
-3.80338
-1.15402
4.9574
5.72883
2.0788
-5.63449
-0.223574
2.56846
-2.46129
-0.822303
-2.98108
2.2347
-3.057
-3.47106
-1.93954
5.4106
-3.3686
-0.457494
3.31615
0.552429
-3.82812
-2.10046
3.79113
0.32866
-3.12892
6.19031
-3.06139
-5.05578
2.52896
3.55993
4.53762
-4.78998
2.44916
2.34082
-1.23005
4.25923
0.962186
4.43747
-7.06701
4.84355
5.73512
3.29341
-6.20878
1.04337
-6.02363
8.5471
-7.39395
-1.15315
4.08806
4.45904
7.01645
5.50503
-5.6836
12.7
-1.15871
-6.23524
7.18235
-3.88894
4.86551
-8.75444
-10.3705
4.13529
-9.20469
11.0672
-1.86253
-3.6079
-8.3531
12.8126
-1.21606
-11.5965
8.5925
-4.34245
-4.39299
8.73544
-6.99345
6.98404
-1.99648
-4.98756
-10.1505
-5.70359
10.259
1.54665
-9.9426
12.3211
-2.6877
4.16137
0.699556
4.14691
3.36093
-5.48311
2.12218
3.63252
-5.62901
2.06017
-7.54327
-6.75678
12.0984
-5.34158
-10.5198
-9.54777
-0.97207
2.55216
9.76895
-9.50474
7.43995
2.06478
3.29776
0.590501
-3.37264
-0.405046
0.239037
4.51035
-4.74939
4.0403
4.18972
3.21807
1.29229
3.84931
2.10771
-3.87095
-0.332547
-4.1685
1.48404
-1.75481
-3.69353
5.17757
-4.06134
0.367804
-2.74621
-3.49268
6.2389
-4.58057
3.03632
3.15399
5.08519
-4.9135
1.42082
-2.39045
-2.52305
2.64052
-4.39533
2.00033
3.17724
4.38229
0.58298
5.90746
6.19091
-8.50815
0.529999
11.2468
-9.53487
2.47794
8.58951
-9.91789
0.370117
-8.7072
0.977535
-5.29008
-5.17031
5.21947
-6.9295
-3.53498
6.24846
0.625378
-6.40168
-0.402016
-6.06625
-2.86277
-6.51605
-3.06008
-6.16318
-8.74368
-1.67369
-7.06999
6.76506
-6.68981
-3.47424
7.4212
1.16432
-7.481
7.35905
-7.5395
7.20011
0.0949158
3.62218
4.35735
1.88511
-2.39213
4.27724
-5.07091
7.39858
-8.73928
3.66837
4.23292
-6.78146
-4.50636
5.06029
4.04365
5.37458
8.92272
-10.3761
1.45334
-10.6513
11.9903
-1.33908
-16.4313
5.78007
-7.50863
2.42061
0.372712
2.52464
0.545089
2.50323
-3.04832
-2.15528
-2.05926
-2.44097
-3.4964
5.93737
1.0645
-3.47098
2.40648
-3.57323
4.63773
-0.067549
-3.40343
5.19407
-2.69084
5.56678
-3.64077
1.92601
3.54628
5.8444
-2.29813
4.42168
-1.78425
1.94609
-4.24422
-1.55031
-2.95535
5.09866
-3.28354
3.65134
-0.349272
4.00062
-4.04581
0.833347
-0.827743
3.36198
3.61402
4.33235
-3.04006
2.93652
-4.72077
-1.3077
-4.13779
-0.960553
-0.183963
-3.78491
3.96887
6.00533
-6.18929
-5.28265
9.52563
-4.24299
7.70416
-5.43999
-2.26417
-4.29262
-4.38885
3.92461
1.96733
9.67149
0.179576
-5.61957
-5.00673
-3.98503
3.09164
2.17955
-1.74442
3.29257
2.20578
-0.693612
0.39326
0.905674
1.76525
-1.37199
0.34408
1.42117
-0.950918
1.70738
0.861085
-1.82471
0.171015
-1.29617
3.53086
1.08629
-2.05629
0.684307
0.891531
-3.60476
5.08148
-2.72678
-2.3547
5.97301
1.14517
-3.87195
4.39849
-3.98823
2.44223
-3.59625
-1.42972
-5.41795
-3.62977
-2.48765
4.89413
-3.44972
5.52852
1.42307
-5.30494
6.72801
-3.63134
1.6918
-3.06133
3.92241
-1.00639
-2.05494
2.88042
2.53018
-3.13177
0.150696
-0.251349
2.42118
-2.67253
-0.635821
-2.61058
-4.576
4.90466
-2.10377
4.55293
2.17347
-1.91759
6.47052
1.80769
-3.72528
-3.24809
-3.70558
-1.38446
3.15315
-0.591327
-4.30067
-5.57888
4.17808
0.259384
-7.05823
7.92616
-0.867927
-3.98605
-0.857502
4.94556
-6.10052
0.471509
-4.04035
3.88581
4.84799
5.10738
-11.3661
-0.23048
-6.16344
1.0996
-7.26304
5.55864
-3.51948
7.65478
-10.3449
6.87065
-9.18056
6.50163
-0.761415
6.25454
-4.13236
2.77792
-8.4815
-6.93486
5.55684
-2.83787
6.25639
-3.20987
9.46626
-5.89757
5.34954
4.11672
-1.05145
-4.16786
-5.32361
4.27216
0.025925
4.17283
4.98705
-2.87934
4.6545
2.26457
-4.65502
-2.13076
-6.488
1.83298
-3.334
-1.92218
3.75516
3.16301
3.75351
1.23211
-3.34846
7.23972
-8.21179
-1.89813
-3.27218
5.29885
-1.02669
3.43981
-6.71198
-1.85027
4.74913
-0.728763
-4.02037
0.888602
-4.42358
1.6722
-6.09578
5.2573
-5.65931
2.25446
-9.76309
-5.22655
-5.19561
-2.27957
-5.25993
-7.57926
5.29969
-1.79918
5.55987
-8.51782
7.78906
-3.47253
8.77221
-5.46258
-1.05348
5.8914
1.30871
10.0809
0.160646
-4.667
-1.93987
3.73681
-1.79693
1.15177
-3.62426
0.112543
2.48894
3.48407
-6.81262
0.031161
-4.63584
-3.91064
7.95429
5.61499
11.6203
1.24427
9.1411
-1.18682
10.3854
4.18777
4.42506
-3.00796
4.4613
0.960912
4.62928
-0.89319
2.8192
1.63145
1.69703
0.764258
2.30121
1.31281
3.13455
0.086231
-1.97303
4.63427
-8.61929
-0.985301
-8.07372
1.16496
5.42871
-4.26375
2.87809
-0.69854
1.08115
-0.17047
-1.21223
1.3827
-2.72843
-1.90584
-0.484674
-1.65427
2.33858
1.87659
-1.85391
-0.874519
0.332078
-3.96185
3.26417
-3.11348
-0.583302
6.14471
-2.89156
0.219036
-1.19976
-2.39155
-2.89367
2.72265
6.17425
0.29627
3.11287
5.20093
3.10047
0.221139
3.82198
-5.6845
-3.7213
-5.91498
-0.35634
4.58922
1.75248
8.01647
5.86921
4.84252
-1.86947
-10.0813
6.50727
-2.04597
5.16819
-1.14783
-4.94795
5.07307
2.32551
-5.69845
0.0391391
-4.90881
-6.95479
-0.480865
8.26992
-9.60006
8.54659
5.68382
1.38617
-4.43871
-0.756891
4.29045
0.134607
10.52
-0.910603
-7.05934
7.96994
-4.51811
3.53281
0.677372
2.6152
2.06007
1.36153
-5.69781
-9.96156
-2.06326
-1.54151
-4.41796
0.539438
-2.41603
6.07246
-2.53965
3.80829
5.43029
6.51145
-2.04812
-4.14117
6.2911
-2.48282
4.02863
)
;

boundaryField
{
    wall-4
    {
        type            calculated;
        value           uniform 0;
    }
    velocity-inlet-5
    {
        type            calculated;
        value           uniform -3.75095;
    }
    velocity-inlet-6
    {
        type            calculated;
        value           uniform -5.62643;
    }
    pressure-outlet-7
    {
        type            calculated;
        value           nonuniform List<scalar> 8(3.33335 7.76338 4.41107 9.69471 7.4358 5.13722 5.76593 8.9719);
    }
    wall-8
    {
        type            calculated;
        value           uniform 0;
    }
    frontAndBackPlanes
    {
        type            empty;
        value           nonuniform 0();
    }
}


// ************************************************************************* //
