/*--------------------------------*- C++ -*----------------------------------*\
  =========                 |
  \\      /  F ield         | OpenFOAM: The Open Source CFD Toolbox
   \\    /   O peration     | Website:  https://openfoam.org
    \\  /    A nd           | Version:  6
     \\/     M anipulation  |
\*---------------------------------------------------------------------------*/
FoamFile
{
    version     2.0;
    format      ascii;
    class       volScalarField;
    location    "49";
    object      p;
}
// * * * * * * * * * * * * * * * * * * * * * * * * * * * * * * * * * * * * * //

dimensions      [0 2 -2 0 0 0 0];

internalField   nonuniform List<scalar> 
918
(
0.528439
1.25245
0.00510677
0.528344
-0.0105042
1.22026
-0.498184
0.663789
0.509569
-0.115404
-0.0490941
0.508419
1.07724
0.843546
-1.17614
-0.0127273
0.62815
-0.419263
0.507558
-0.0641124
0.692532
0.516262
0.518731
0.509522
0.567703
0.798252
0.954747
-0.00110789
0.00862898
0.00411444
-0.0114581
-0.0314582
-0.0271628
1.10338
1.15533
1.1785
0.476299
0.310409
-0.393792
-0.444458
-0.427664
-0.523656
0.658997
0.657229
-0.212085
0.666335
0.670838
0.495345
0.508961
0.509797
0.510939
0.509824
0.511111
0.396877
-0.119603
-0.149337
-0.0981616
-0.0949548
0.0485002
-0.0536295
-0.0575458
-0.0468565
-0.0471223
0.425828
0.504192
0.501206
0.513289
0.522781
1.19263
1.16635
1.19243
1.10299
1.12062
1.05421
1.02715
0.865228
0.889235
0.827629
0.81316
-1.63896
-2.59341
-0.594387
-0.313798
-0.0101686
-0.0110328
-0.0077954
0.621896
0.623037
0.628629
0.634157
1.03302
-0.392212
-0.461779
0.50806
0.506571
0.515782
0.516686
0.51164
0.511648
-0.056142
-0.0541284
-0.0505752
-0.0592616
-0.0525445
0.683844
0.681564
0.508964
0.506415
0.53186
0.553204
0.542859
0.246311
0.574842
0.589921
0.661262
0.805858
0.794536
0.806503
0.930302
0.898769
0.985874
1.00759
0.0141848
-0.000709726
-0.0163617
-0.01843
-0.0169599
0.472062
0.465668
0.493099
0.479902
0.482923
0.21465
0.0628393
0.393244
0.417235
-0.314347
-0.358889
-0.456095
-0.455483
-0.556139
0.585631
0.653001
0.649246
-0.226594
-0.153415
-0.278892
-0.0962164
-0.15231
0.48636
0.492561
0.488664
0.503972
0.498158
0.500575
0.513041
0.510215
0.511814
0.456738
0.585314
0.313828
0.287853
-0.277499
-0.167904
-0.2581
-0.0836808
-0.0772065
0.0591451
0.0864809
0.035849
0.0228777
-0.0675496
-0.0603417
-0.064057
-0.0472879
-0.0516128
0.417371
0.404465
0.43695
0.444393
0.492037
0.493432
0.497671
0.495703
0.977907
1.00118
1.00706
0.983095
-3.57936
-6.22777
0.0354982
0.196717
-0.00861642
-0.0102121
-0.000354477
-0.00748239
0.000688677
-0.00183369
-0.0131849
-0.0143133
-0.010958
-0.0108958
0.618155
0.619273
0.998895
1.02386
0.974968
0.95437
0.497377
0.499284
0.503909
0.500799
-0.0496187
-0.0519157
-0.0494807
0.67125
0.678004
0.676164
0.205887
0.118222
0.296687
0.327525
0.613261
0.597137
0.610827
0.721679
0.761409
1.0247
1.04873
1.03277
1.04569
1.09658
1.11951
1.08461
0.450783
0.461622
0.455942
0.496213
0.493881
0.494901
0.491042
0.492136
0.490676
-0.0496756
-0.424579
0.469297
0.471476
0.459326
0.46529
0.671167
0.753927
0.634951
0.643911
0.642321
-0.0481878
-0.0954905
0.246915
0.218718
0.357206
0.391369
0.373453
0.95372
0.913776
0.961843
0.93712
0.901421
0.925605
-0.361895
-2.13463
-1.12523
0.602139
0.403538
0.496152
0.00604576
-0.0115278
-0.00720629
1.01701
1.05787
0.654354
0.844926
0.798326
0.784711
0.809162
0.874055
0.806638
0.840895
0.871319
0.845078
0.538902
0.477353
0.491415
0.830655
0.887287
0.0822109
0.00612996
-0.0174929
0.109803
0.17788
0.146846
1.03308
0.942978
1.00848
0.506652
0.507587
-0.00939581
-0.0270753
0.511685
0.511402
-0.0166119
-0.00727271
0.513871
-0.948033
0.0886267
0.501134
0.490932
0.50768
-0.0820213
0.327729
-0.0540251
0.032546
-0.00323484
0.503631
0.437936
0.396008
0.00112606
-0.0203432
-0.0544446
-0.220004
0.504393
0.502758
0.50706
0.507888
0.508652
-0.0183528
-0.0178463
-0.0126486
-0.0509085
-0.0454607
-0.0571322
0.471172
0.49098
-0.195778
0.50735
0.509438
0.509153
0.503277
0.508267
0.50686
-0.014712
-0.0203455
-0.0217446
0.187211
0.323391
0.697988
0.773653
0.647424
0.47915
0.180488
0.633478
0.686032
0.611227
0.741519
0.646602
0.658473
0.154514
0.0134118
0.157951
0.0906676
0.498021
0.497396
0.48848
0.485387
0.502479
0.500169
0.505355
0.502532
0.505707
0.506877
-0.0398063
-0.0756607
-0.0900339
-0.145278
0.297139
0.552187
0.222444
0.249375
0.159015
-0.0457144
-0.0439098
-0.0530741
-0.0579917
-0.00832311
-0.0193127
0.027286
0.0338443
0.0158567
-0.0115804
-0.018053
-0.0184682
-0.0240304
0.496927
0.496239
0.502076
0.510555
0.447429
0.451121
0.417628
0.436341
0.42261
0.362644
0.392866
0.369955
-0.00965358
0.00173309
-0.00324727
-0.0188147
-0.0175022
-0.040059
-0.0327355
-0.0303411
-0.0270592
-0.0313596
-0.0481425
-0.0500383
-0.184019
-0.301141
0.95471
0.884086
0.121726
0.494323
0.499967
0.49715
0.501797
0.505
0.505654
0.503245
0.499749
0.491108
0.492501
0.489373
0.490394
-0.135496
-0.243202
-0.0760655
-0.147246
0.136956
0.603045
0.33144
0.277817
0.263024
0.485788
0.701613
0.621037
0.684128
0.677972
-0.401361
0.010425
-0.329775
0.21933
0.207173
0.723385
0.764604
0.78063
0.739026
0.695587
-0.040717
0.536634
-0.0693571
-0.0214341
0.167649
0.0541991
0.663408
0.627325
0.633161
0.650477
0.662824
0.64257
0.624257
0.619645
0.646728
0.651717
0.487119
0.216137
0.174887
0.128479
0.616347
0.513378
0.565724
0.486708
0.493547
0.496022
0.494922
0.475947
0.48328
0.478981
0.485993
0.489602
0.497025
0.497228
0.493155
0.495019
-0.068692
-0.0728486
-0.0724196
-0.131859
-0.132217
-0.176123
-0.0917867
0.0944614
0.0432609
0.228689
0.351442
0.0686998
-0.0567584
-0.0401675
0.0112618
0.170395
0.170557
0.0503728
0.165525
0.119562
0.112563
0.200919
0.225606
-0.0324667
-0.0327579
-0.0362652
-0.0424472
0.00970739
0.110067
0.0932443
-0.00748189
-0.015378
-0.0410882
-0.0432036
-0.0083164
-0.0222351
-0.0159756
-0.00155688
-0.0482443
-0.021439
-0.00962023
-0.00722399
-0.0113978
-0.00968163
0.490365
0.492489
0.492428
0.500581
0.515222
0.530185
0.493
0.468581
0.45962
0.46272
0.435805
0.445119
0.440179
0.455893
0.477678
0.486654
0.484006
0.486724
0.468868
0.470591
0.456063
0.460606
0.430032
0.411793
0.401574
-0.0460714
-0.0119673
-0.0253329
-0.0407736
-0.0143132
-0.0250516
-0.0143243
0.00207046
-0.0145957
-0.0132176
-0.0215893
-0.0300617
-0.0306979
-0.0860103
-0.00292405
-0.18651
-0.236231
-0.288623
0.870061
1.00632
0.787461
0.564277
0.577711
0.821245
0.918616
0.536122
0.740001
0.760592
0.556793
0.843687
0.498195
0.497828
0.495725
0.494917
0.495865
-0.0270675
0.0731848
0.0889748
0.145228
0.261411
0.368149
0.29252
0.179027
0.313323
0.337802
0.600449
0.607545
0.562654
0.584815
0.584126
0.399178
0.480273
0.520948
0.471683
0.545953
0.579228
0.52622
0.568717
0.489183
0.439158
0.430895
0.38795
0.421074
0.402929
0.377517
0.489915
0.466589
0.477601
0.467121
0.488626
0.510453
0.512882
0.536811
0.55112
0.468102
0.416043
0.432471
0.460327
0.417345
0.434159
0.455637
0.165253
0.0697118
0.234266
-0.0939997
-0.00519533
0.0319285
-0.00946496
-0.0538988
0.252943
-0.388217
-0.333651
-1.01536
0.479937
0.854945
0.623189
0.637069
0.661744
0.645711
0.655581
0.666738
0.671536
0.606851
0.619103
0.622479
0.592141
0.619842
0.622273
0.629705
0.489841
0.394137
0.391608
0.328161
0.191451
0.231513
0.420719
0.352205
0.278757
0.273114
0.443547
0.309983
0.38739
0.442905
0.368441
0.301458
0.532212
0.578837
0.569398
0.541825
0.433272
0.463697
0.474007
0.520797
0.558138
0.585517
0.484678
0.490979
0.49192
0.489169
0.487403
0.49052
0.490756
0.493036
0.49338
0.495926
0.495318
-0.0513566
-0.0399015
-0.0576175
-0.0610213
0.00746205
-0.0110706
-0.00146596
-0.0321658
-0.0169231
-0.018094
-0.0391574
-0.0524628
-0.0444157
-0.0311282
0.0691064
0.0863187
0.0986473
0.0604511
0.242958
0.401162
0.469928
0.342065
0.207235
0.235155
0.310401
0.00903736
0.0263381
0.0117263
0.0631449
0.0411332
-0.036904
-0.0410038
-0.0419998
-0.0316681
-0.0237152
-0.0459704
-0.0460786
-0.035492
-0.0432649
-0.044297
-0.0478126
0.470261
0.463192
0.466784
0.459224
0.45739
0.4742
0.478585
0.47993
0.485423
0.488008
0.477665
0.483676
0.48766
-0.0155712
-0.0346432
-0.0351812
-0.0288612
-0.0316128
-0.0316546
-0.0340056
0.109624
0.0173271
0.0515641
-0.0162038
-0.140956
-0.0816814
0.48103
0.477538
0.471441
0.700011
0.539036
0.456648
0.554028
0.672256
0.255741
0.458495
0.291195
0.869542
0.774056
0.919378
0.539435
0.237581
0.400808
0.414067
0.251774
0.37521
0.329191
0.206671
0.244917
0.272978
0.356834
0.239975
0.218643
-0.0227812
0.155724
0.268118
0.249899
0.379288
0.437084
0.243731
0.15922
0.107262
0.581222
0.599614
0.609674
0.582673
0.60434
0.552586
0.542539
0.559291
0.568456
0.563567
-0.651786
-0.240011
-1.44138
-0.849443
-0.397972
0.508761
0.499737
0.734437
0.64085
0.677212
0.659458
0.597318
0.562437
0.605119
0.625395
0.32141
0.410839
0.39343
0.37535
0.318331
0.25865
0.536726
0.54281
0.566934
0.591513
0.567519
0.593838
0.483319
0.483146
0.481943
0.478263
0.476784
0.479884
0.0260962
0.000924914
0.0389437
0.0321408
0.0110291
0.00962931
-0.014688
-0.0266498
-0.0264307
-0.0258167
-0.0157872
-0.0129184
0.153197
0.0933774
0.00667351
0.0473154
-0.0170491
-0.0993563
-0.100221
-0.012969
0.0850263
0.0672851
0.37326
0.644439
0.470611
0.635319
0.431093
0.531371
0.454671
0.428692
0.458203
0.356168
0.444376
0.0170724
-0.181799
-0.23878
0.804722
0.761596
0.548893
0.29742
0.183541
0.481551
0.510312
0.472332
0.496917
0.548498
0.52824
-0.00418089
0.0911397
0.163378
0.472836
0.260172
0.277783
0.268939
0.430743
0.403274
)
;

boundaryField
{
    wall-4
    {
        type            zeroGradient;
    }
    velocity-inlet-5
    {
        type            zeroGradient;
    }
    velocity-inlet-6
    {
        type            zeroGradient;
    }
    pressure-outlet-7
    {
        type            fixedValue;
        value           uniform 0;
    }
    wall-8
    {
        type            zeroGradient;
    }
    frontAndBackPlanes
    {
        type            empty;
    }
}


// ************************************************************************* //
