/*--------------------------------*- C++ -*----------------------------------*\
  =========                 |
  \\      /  F ield         | OpenFOAM: The Open Source CFD Toolbox
   \\    /   O peration     | Website:  https://openfoam.org
    \\  /    A nd           | Version:  6
     \\/     M anipulation  |
\*---------------------------------------------------------------------------*/
FoamFile
{
    version     2.0;
    format      ascii;
    class       volScalarField;
    location    "62.7";
    object      p;
}
// * * * * * * * * * * * * * * * * * * * * * * * * * * * * * * * * * * * * * //

dimensions      [0 2 -2 0 0 0 0];

internalField   nonuniform List<scalar> 
8800
(
0.885594
0.836277
0.798309
0.770235
0.750067
0.73547
0.724857
0.717297
0.712384
0.710277
0.711608
0.715918
0.722687
0.732092
0.744816
0.762129
0.786001
0.819096
0.862031
0.914544
0.720093
0.726437
0.735584
0.739129
0.736514
0.730417
0.723463
0.717203
0.712376
0.709472
0.709201
0.711791
0.716404
0.722512
0.729598
0.736622
0.741494
0.741365
0.734687
0.725786
0.69362
0.699854
0.70435
0.708215
0.711155
0.712092
0.710987
0.708842
0.706831
0.705951
0.70694
0.709358
0.712218
0.71447
0.714978
0.71318
0.709808
0.705791
0.701007
0.697291
0.689338
0.692102
0.694703
0.696853
0.698581
0.700136
0.70122
0.701548
0.7014
0.701454
0.702212
0.703316
0.704029
0.703857
0.702868
0.701503
0.699826
0.697519
0.695105
0.693539
0.684306
0.68573
0.687563
0.689636
0.691337
0.692614
0.693691
0.694642
0.695412
0.696099
0.696757
0.697174
0.697166
0.696779
0.696094
0.694967
0.693302
0.691402
0.690046
0.689243
0.679346
0.680248
0.681489
0.683105
0.684785
0.6863
0.687559
0.688649
0.689669
0.69063
0.691355
0.691696
0.691669
0.691274
0.690452
0.689249
0.687877
0.686604
0.68578
0.685256
0.674477
0.675132
0.676086
0.677392
0.678824
0.68032
0.681777
0.683103
0.684314
0.685453
0.686335
0.686773
0.686748
0.686279
0.685475
0.684516
0.683511
0.682598
0.682016
0.681632
0.669695
0.6702
0.670978
0.672105
0.673387
0.674781
0.676258
0.677755
0.679209
0.680588
0.681663
0.682205
0.682233
0.681873
0.681282
0.680573
0.67982
0.679148
0.678718
0.678419
0.664949
0.66535
0.666002
0.667008
0.668217
0.669555
0.671023
0.672613
0.674277
0.675935
0.677255
0.677982
0.678196
0.678061
0.677708
0.677217
0.676668
0.676188
0.675869
0.675627
0.660156
0.660484
0.661048
0.661975
0.663137
0.664462
0.665964
0.667653
0.669509
0.671459
0.673103
0.674129
0.674624
0.67475
0.67463
0.674364
0.674009
0.67369
0.673456
0.673253
0.655233
0.655504
0.656009
0.656889
0.658034
0.659386
0.660963
0.662793
0.66488
0.667171
0.669222
0.670634
0.671468
0.671888
0.672024
0.671983
0.671824
0.671647
0.67148
0.671305
0.650089
0.650318
0.650784
0.651648
0.652816
0.654237
0.655932
0.657958
0.660341
0.663056
0.665606
0.66748
0.66871
0.669468
0.669889
0.670085
0.670122
0.670074
0.669963
0.669807
0.644633
0.644828
0.645276
0.646153
0.647386
0.648919
0.650789
0.653078
0.655845
0.659089
0.662242
0.664667
0.666358
0.667501
0.668242
0.66869
0.668938
0.669014
0.668949
0.668807
0.638764
0.638933
0.639379
0.640299
0.641635
0.643333
0.645443
0.648077
0.651327
0.655226
0.659111
0.662193
0.66443
0.666016
0.667124
0.667873
0.668332
0.668525
0.6685
0.668366
0.632363
0.63251
0.632969
0.63396
0.635446
0.637369
0.639799
0.642878
0.646734
0.651436
0.656208
0.660076
0.662957
0.665064
0.666587
0.667667
0.668364
0.668681
0.668693
0.668563
0.625291
0.625414
0.625902
0.626995
0.628682
0.630902
0.633741
0.63738
0.641989
0.647674
0.653519
0.658325
0.661969
0.664691
0.666704
0.668163
0.669129
0.669572
0.669618
0.669489
0.61736
0.617464
0.617998
0.619228
0.621175
0.623775
0.627134
0.631474
0.637013
0.643897
0.651034
0.656964
0.66151
0.664954
0.667557
0.669459
0.670722
0.671299
0.671376
0.671244
0.608343
0.608447
0.60903
0.610433
0.612719
0.615802
0.619816
0.625034
0.631726
0.640074
0.648762
0.656025
0.661637
0.665931
0.669226
0.671647
0.673249
0.673968
0.674075
0.673936
0.597927
0.598017
0.598692
0.600329
0.60305
0.60675
0.611595
0.617919
0.626041
0.636175
0.646722
0.655556
0.662418
0.667712
0.671799
0.674835
0.676816
0.677684
0.677815
0.677666
0.585737
0.585813
0.58659
0.588541
0.591824
0.59632
0.602232
0.609959
0.619869
0.632186
0.644945
0.65561
0.663918
0.670377
0.67539
0.679127
0.681523
0.682539
0.682691
0.682528
0.571221
0.57129
0.572212
0.574576
0.578594
0.584139
0.591441
0.600962
0.613105
0.628076
0.643455
0.656243
0.666211
0.673996
0.680081
0.684604
0.687443
0.6886
0.688761
0.688581
0.553605
0.553667
0.554804
0.557752
0.562778
0.569735
0.578884
0.59074
0.605697
0.623886
0.642327
0.657536
0.66937
0.678657
0.685915
0.691319
0.694605
0.69588
0.696037
0.695837
0.531731
0.531797
0.533277
0.5371
0.543575
0.55252
0.564201
0.579146
0.597658
0.619714
0.641671
0.659578
0.673467
0.684404
0.69295
0.699267
0.70297
0.704318
0.704453
0.704233
0.503824
0.503919
0.505994
0.51123
0.519944
0.53182
0.547081
0.566146
0.58912
0.615745
0.641644
0.662471
0.678561
0.691244
0.701159
0.708376
0.712401
0.713754
0.713845
0.713604
0.466837
0.467056
0.470343
0.478184
0.490673
0.507053
0.527426
0.551908
0.580328
0.612205
0.642415
0.666329
0.684701
0.699177
0.710471
0.718464
0.722649
0.72391
0.723933
0.723677
0.414942
0.416026
0.422555
0.435774
0.454852
0.478196
0.505635
0.536955
0.571768
0.609461
0.644229
0.671291
0.691932
0.708115
0.720688
0.729243
0.733335
0.734401
0.734345
0.734079
0.339703
0.347085
0.362052
0.385132
0.414054
0.446724
0.48276
0.52191
0.563805
0.607824
0.647483
0.677912
0.701009
0.71906
0.732791
0.741643
0.745493
0.746344
0.746235
0.745999
0.259692
0.275819
0.300125
0.33383
0.373107
0.415269
0.459968
0.507125
0.556474
0.607468
0.652904
0.687501
0.713602
0.733847
0.748804
0.75764
0.760965
0.761554
0.761471
0.761326
0.191155
0.210861
0.242972
0.285841
0.33435
0.385441
0.438563
0.493591
0.550249
0.607998
0.658882
0.697342
0.726195
0.748304
0.764048
0.772594
0.775445
0.775927
0.775898
0.775806
0.13507
0.156993
0.194476
0.243914
0.299655
0.358253
0.418856
0.481159
0.544711
0.608863
0.664916
0.706987
0.738354
0.762111
0.778614
0.787236
0.789949
0.790413
0.790413
0.790351
0.0885925
0.111836
0.153216
0.207795
0.269337
0.334134
0.401125
0.469853
0.539689
0.609856
0.670865
0.716422
0.750192
0.775614
0.793019
0.80193
0.804773
0.805213
0.805232
0.805192
0.0491032
0.073142
0.117401
0.176165
0.242592
0.312676
0.385204
0.459657
0.535267
0.611058
0.676774
0.725702
0.76184
0.788895
0.807322
0.816745
0.81976
0.820229
0.820263
0.820243
0.0145747
0.0391494
0.0856657
0.147897
0.218509
0.29322
0.370692
0.450326
0.531234
0.612297
0.682498
0.73468
0.773143
0.8018
0.821241
0.831264
0.834536
0.835058
0.835106
0.835098
-0.0164848
0.00853507
0.0569167
0.122106
0.196349
0.275131
0.357039
0.441411
0.527268
0.613376
0.687884
0.743196
0.783862
0.81409
0.834492
0.845051
0.848622
0.84924
0.849291
0.849288
-0.0450861
-0.0196534
0.0303227
0.0980888
0.175516
0.257903
0.343826
0.432587
0.52313
0.614049
0.692752
0.751063
0.793843
0.825498
0.846813
0.857897
0.861723
0.862454
0.862486
0.862476
-0.0720313
-0.0461494
0.0052619
0.0753397
0.155583
0.241196
0.330767
0.423585
0.518533
0.614103
0.696931
0.758214
0.80301
0.836027
0.858108
0.869587
0.873619
0.874406
0.874423
0.874399
-0.0977105
-0.0713923
-0.0186526
0.0534841
0.13624
0.22475
0.317629
0.414189
0.513311
0.61342
0.700347
0.7646
0.811371
0.845621
0.868345
0.880083
0.88423
0.88504
0.88503
0.884984
-0.12255
-0.0957132
-0.0417448
0.032255
0.117261
0.208373
0.304268
0.40429
0.507357
0.611879
0.702937
0.770221
0.818973
0.854365
0.877582
0.889453
0.893595
0.8944
0.894359
0.894292
-0.146683
-0.119321
-0.0641903
0.0114927
0.0985127
0.191969
0.290608
0.393816
0.500582
0.609402
0.704653
0.775103
0.825912
0.862398
0.885962
0.897798
0.901884
0.902648
0.902587
0.902499
-0.170233
-0.142318
-0.0861013
-0.00888691
0.079937
0.175493
0.276606
0.382726
0.492947
0.605928
0.70544
0.779267
0.832287
0.869877
0.893666
0.905322
0.909238
0.909921
0.909832
0.909727
-0.193293
-0.164807
-0.107523
-0.0289183
0.0615025
0.158936
0.262268
0.371032
0.484449
0.601411
0.705238
0.782713
0.838218
0.876994
0.900868
0.912148
0.915771
0.916332
0.916202
0.916082
-0.215917
-0.186782
-0.128467
-0.0486014
0.0432361
0.142322
0.247635
0.358769
0.475102
0.595819
0.703986
0.785399
0.843787
0.883952
0.907788
0.918436
0.921576
0.921948
0.921782
0.921656
-0.237957
-0.208208
-0.148912
-0.0679216
0.0251682
0.125712
0.232759
0.346
0.464955
0.589163
0.70161
0.787241
0.849005
0.890975
0.914775
0.924451
0.926795
0.926864
0.92666
0.926541
-0.259385
-0.229049
-0.16884
-0.0868405
0.00734956
0.109162
0.217727
0.332796
0.454078
0.581455
0.698047
0.788122
0.8538
0.898206
0.922293
0.930745
0.931751
0.931186
0.930915
0.930852
-0.280257
-0.249274
-0.188228
-0.105326
-0.0101603
0.0927528
0.202624
0.319257
0.442558
0.572746
0.693233
0.787906
0.857984
0.905591
0.930786
0.938272
0.937342
0.935317
0.934661
0.934856
-0.300417
-0.268856
-0.207021
-0.123313
-0.0273034
0.0765686
0.187546
0.305489
0.430502
0.563125
0.687131
0.786431
0.861292
0.912775
0.94029
0.948121
0.945616
0.941039
0.938123
0.936886
-0.319957
-0.287798
-0.225223
-0.140833
-0.0441141
0.0605694
0.17244
0.291434
0.417841
0.552527
0.679582
0.78344
0.863469
0.919245
0.95019
0.960567
0.958749
0.951713
0.942063
0.942282
-0.338793
-0.306167
-0.242969
-0.158083
-0.0608863
0.044424
0.156893
0.276608
0.404031
0.540324
0.66993
0.77817
0.864059
0.924376
0.958901
0.973459
0.973136
0.962231
0.943879
0.94167
-0.356788
-0.323925
-0.26009
-0.174872
-0.0773561
0.0284342
0.141111
0.261332
0.389362
0.526753
0.658217
0.769941
0.862235
0.926984
0.962303
0.977258
0.979201
0.954248
0.896322
0.871195
-0.37382
-0.341928
-0.276186
-0.190748
-0.0927589
0.0130804
0.125375
0.24588
0.374112
0.511984
0.644507
0.758156
0.85695
0.926161
0.955651
0.965398
0.95282
0.901681
0.839668
0.801837
-0.416975
-0.359437
-0.291005
-0.206569
-0.107845
-0.00258945
0.109822
0.23013
0.35808
0.495666
0.628406
0.742179
0.844324
0.918811
0.936745
0.924555
0.877668
0.812819
0.743927
0.70606
-0.39216
-0.373976
-0.313596
-0.228539
-0.131129
-0.0261194
0.085578
0.205201
0.332186
0.468298
0.599557
0.71124
0.804961
0.88666
0.870951
0.763049
0.672782
0.610057
0.546116
0.573184
-0.423234
-0.391694
-0.330478
-0.24591
-0.148843
-0.0440117
0.0678371
0.18678
0.312708
0.447006
0.575624
0.683737
0.76689
0.812677
0.761924
0.622958
0.514253
0.440978
0.358949
0.404593
-0.44739
-0.4134
-0.350408
-0.265759
-0.168759
-0.0639563
0.0477594
0.165888
0.290425
0.42229
0.547067
0.649215
0.720632
0.728601
0.622914
0.468146
0.339375
0.247177
0.151794
0.183413
-0.470939
-0.435857
-0.371452
-0.286124
-0.189041
-0.0843627
0.0268311
0.143979
0.266895
0.395915
0.515823
0.609953
0.664263
0.639543
0.482229
0.305548
0.145896
0.0122486
-0.11191
-0.0987824
-0.494237
-0.45873
-0.393383
-0.307439
-0.210205
-0.105741
0.00479056
0.120806
0.241808
0.367555
0.481755
0.567788
0.601385
0.531803
0.343927
0.147122
-0.03983
-0.193608
-0.399086
-0.477975
-0.517967
-0.48248
-0.416561
-0.330168
-0.232756
-0.128463
-0.0185308
0.0963132
0.215269
0.337465
0.445535
0.522151
0.530512
0.409311
0.217907
0.00901991
-0.183075
-0.345037
-0.469039
-0.587748
-0.543213
-0.507599
-0.441347
-0.354697
-0.257239
-0.153216
-0.0439824
0.0695086
0.186065
0.304145
0.40564
0.469566
0.450697
0.293103
0.10012
-0.102826
-0.278245
-0.375777
-0.402056
-0.41553
-0.570103
-0.534378
-0.467877
-0.381125
-0.283804
-0.180227
-0.0719433
0.0398757
0.153572
0.266791
0.361216
0.407688
0.369717
0.181597
-0.00946189
-0.192242
-0.324832
-0.362882
-0.371797
-0.372082
-0.598917
-0.562944
-0.496192
-0.409441
-0.312404
-0.209509
-0.102442
0.00735296
0.117711
0.225358
0.31169
0.342147
0.273078
0.0798617
-0.105071
-0.263891
-0.338482
-0.352555
-0.353581
-0.353431
-0.629669
-0.593332
-0.526307
-0.439644
-0.343059
-0.241055
-0.135494
-0.0280845
0.0784911
0.179945
0.256902
0.272943
0.165821
-0.0120982
-0.187087
-0.313074
-0.342186
-0.342713
-0.343124
-0.342675
-0.662102
-0.62537
-0.558122
-0.471652
-0.375682
-0.274816
-0.171076
-0.0664236
0.0359625
0.130676
0.198079
0.195304
0.0706308
-0.0967088
-0.251533
-0.323473
-0.338616
-0.336598
-0.336259
-0.335803
-0.695649
-0.658709
-0.59137
-0.505232
-0.410085
-0.310635
-0.20904
-0.10755
-0.00965914
0.0779308
0.135621
0.116849
-0.0173779
-0.170812
-0.293045
-0.330735
-0.330663
-0.331697
-0.331664
-0.331321
-0.729864
-0.692812
-0.625558
-0.539958
-0.445905
-0.348184
-0.249101
-0.151188
-0.0581083
0.022608
0.0681374
0.0428172
-0.0977381
-0.228808
-0.315327
-0.324525
-0.327363
-0.328435
-0.328427
-0.328318
-0.763784
-0.726776
-0.65993
-0.575175
-0.482577
-0.386972
-0.290793
-0.196849
-0.10899
-0.0344381
0.000491765
-0.0317519
-0.167516
-0.274335
-0.319977
-0.331427
-0.327485
-0.325794
-0.325214
-0.325116
-0.795494
-0.759289
-0.693433
-0.609971
-0.519298
-0.426279
-0.333443
-0.243803
-0.161545
-0.0928439
-0.0621711
-0.109379
-0.227005
-0.319186
-0.338521
-0.335522
-0.328541
-0.322846
-0.321134
-0.320672
-0.823944
-0.78881
-0.724632
-0.643115
-0.554983
-0.465136
-0.376174
-0.291137
-0.214581
-0.15202
-0.123555
-0.175882
-0.273271
-0.352548
-0.373274
-0.35301
-0.334261
-0.324838
-0.321795
-0.320529
-0.846348
-0.813188
-0.751726
-0.673044
-0.588278
-0.502321
-0.417868
-0.337803
-0.266891
-0.210012
-0.18522
-0.225603
-0.29892
-0.358381
-0.361433
-0.361375
-0.360283
-0.355303
-0.350323
-0.347693
-0.860555
-0.830216
-0.772579
-0.697949
-0.617611
-0.536413
-0.457144
-0.382626
-0.31733
-0.264418
-0.241055
-0.266704
-0.298419
-0.342985
-0.346537
-0.368839
-0.385829
-0.385758
-0.381852
-0.380829
-0.863792
-0.837422
-0.785009
-0.715916
-0.641266
-0.565935
-0.492457
-0.424195
-0.364483
-0.315581
-0.286312
-0.308163
-0.288964
-0.297113
-0.320475
-0.348898
-0.363527
-0.36929
-0.37224
-0.373785
-0.853755
-0.832282
-0.786825
-0.725124
-0.657674
-0.589428
-0.522497
-0.460657
-0.407019
-0.364914
-0.32059
-0.355256
-0.329565
-0.264255
-0.317429
-0.356433
-0.373605
-0.382928
-0.387273
-0.388479
-0.827692
-0.811898
-0.776009
-0.724241
-0.665755
-0.605655
-0.546359
-0.490373
-0.443912
-0.409109
-0.369865
-0.411277
-0.479506
-0.485304
-0.498267
-0.472493
-0.450766
-0.443897
-0.441678
-0.441326
-0.789024
-0.778937
-0.753548
-0.713416
-0.66535
-0.614298
-0.563016
-0.513292
-0.471927
-0.445747
-0.432497
-0.482012
-0.630496
-0.800123
-0.713187
-0.568679
-0.503942
-0.472093
-0.461477
-0.458671
-0.744843
-0.739154
-0.724394
-0.695678
-0.658331
-0.616264
-0.571905
-0.528988
-0.490156
-0.468268
-0.451852
-0.477932
-0.461527
-0.468082
-0.355989
-0.318947
-0.349001
-0.367175
-0.36613
-0.362443
-0.705321
-0.701935
-0.694917
-0.676372
-0.647909
-0.612861
-0.574846
-0.535063
-0.498648
-0.469482
-0.450554
-0.39814
-0.241988
-0.121959
-0.157868
-0.263369
-0.328869
-0.301332
-0.279779
-0.285153
-0.676531
-0.674569
-0.67093
-0.659713
-0.637718
-0.607726
-0.5729
-0.53483
-0.495919
-0.460236
-0.45106
-0.396193
-0.344783
-0.300273
-0.313466
-0.442805
-0.538446
-0.558369
-0.525448
-0.515858
-0.65481
-0.654074
-0.652809
-0.647158
-0.630643
-0.60374
-0.569349
-0.530105
-0.485741
-0.448881
-0.417565
-0.393296
-0.355157
-0.434095
-0.534587
-0.6065
-0.726896
-0.772159
-0.749311
-0.723029
-0.641991
-0.641741
-0.641106
-0.638393
-0.626649
-0.601245
-0.56525
-0.521354
-0.473458
-0.41681
-0.366545
-0.325818
-0.360802
-0.495184
-0.738326
-0.881596
-0.864715
-0.696773
-0.540992
-0.471281
-0.633244
-0.633029
-0.632476
-0.631598
-0.624473
-0.60079
-0.561775
-0.513159
-0.454495
-0.377701
-0.300226
-0.172299
-0.0815342
-0.0543792
-0.0182508
0.0402689
0.208663
0.451407
0.615853
0.679126
-0.628653
-0.628454
-0.628002
-0.627779
-0.624045
-0.603104
-0.56056
-0.504599
-0.433928
-0.349628
-0.235347
-0.0877519
0.122998
0.386164
0.734599
1.09102
1.40969
1.64015
1.75058
1.78353
-0.625236
-0.62608
-0.628153
-0.630629
-0.629396
-0.607644
-0.560785
-0.500165
-0.42642
-0.324554
-0.20497
-0.0760797
0.160236
0.501664
0.966773
1.38449
1.71236
1.90769
1.98602
2.0038
-0.618474
-0.619983
-0.622635
-0.625948
-0.625628
-0.604096
-0.561613
-0.507477
-0.427056
-0.315618
-0.197445
-0.0723949
0.106664
0.445452
0.846813
1.20164
1.46627
1.60883
1.66245
1.67372
-0.629812
-0.629613
-0.621228
-0.600092
-0.582744
-0.58117
-0.568993
-0.524825
-0.436695
-0.322582
-0.207144
-0.0974136
0.0316695
0.29789
0.60686
0.874224
1.06957
1.16677
1.20255
1.20913
-0.674696
-0.671253
-0.65493
-0.620318
-0.592682
-0.600382
-0.609676
-0.553519
-0.449649
-0.336198
-0.225421
-0.13021
-0.0363926
0.154637
0.379117
0.562901
0.690078
0.752169
0.77494
0.778399
-0.761217
-0.762335
-0.776249
-0.796799
-0.794618
-0.779072
-0.723399
-0.599964
-0.465624
-0.348461
-0.243948
-0.168311
-0.0914369
0.0426939
0.184812
0.30029
0.378284
0.414055
0.426094
0.4275
-0.897957
-0.915709
-0.962672
-1.00422
-1.00852
-0.966086
-0.8409
-0.645854
-0.482391
-0.358157
-0.26134
-0.196485
-0.148712
-0.0478069
0.0423958
0.0964022
0.123386
0.135789
0.14041
0.141697
-0.968473
-0.990245
-1.0275
-1.05759
-1.05973
-1.01135
-0.850867
-0.638334
-0.479601
-0.353976
-0.265267
-0.219783
-0.176201
-0.11749
-0.0662104
-0.0522413
-0.0608849
-0.060954
-0.0542465
-0.0502963
-0.86603
-0.885605
-0.918542
-0.948985
-0.954437
-0.897134
-0.731103
-0.565123
-0.431759
-0.32142
-0.26434
-0.222415
-0.203338
-0.143637
-0.114059
-0.100254
-0.105808
-0.101852
-0.0954615
-0.0936487
-0.581384
-0.600598
-0.6356
-0.673779
-0.689428
-0.642007
-0.539347
-0.437103
-0.334936
-0.274307
-0.232823
-0.213731
-0.205737
-0.153085
-0.112653
-0.0846976
-0.0711895
-0.0618328
-0.0574216
-0.0564813
-0.223107
-0.235171
-0.260122
-0.294225
-0.319299
-0.319556
-0.304179
-0.271301
-0.237878
-0.206227
-0.183368
-0.178698
-0.16903
-0.115104
-0.0723448
-0.0487266
-0.0238008
-0.0103287
-0.00642045
-0.00756351
0.0489387
0.0430482
0.0268704
-0.0027597
-0.0438569
-0.0844741
-0.114091
-0.135994
-0.143415
-0.132892
-0.124879
-0.111483
-0.0976636
-0.0644779
-0.0332592
-0.0135893
0.00386271
0.0130925
0.0156848
0.0149226
0.178301
0.17525
0.164086
0.138649
0.0971219
0.0449164
-0.00524163
-0.0437313
-0.0664812
-0.0733141
-0.0657512
-0.0421696
-0.0203752
-0.0120439
-0.00132148
0.00833734
0.0191477
0.0254365
0.0265681
0.0255557
0.207158
0.20527
0.197482
0.178266
0.14511
0.10217
0.0562713
0.0153208
-0.0139281
-0.0237223
-0.0165007
0.00898959
0.0293373
0.0297473
0.027077
0.0269165
0.0304979
0.0330708
0.0331802
0.0318123
0.191223
0.190057
0.184904
0.171867
0.148548
0.116646
0.0806284
0.0464016
0.0200519
0.00893839
0.016657
0.0404533
0.0549197
0.046546
0.0383382
0.0336133
0.0319985
0.0297813
0.027672
0.0262919
0.161085
0.160415
0.157149
0.148685
0.133145
0.110978
0.0843067
0.0575156
0.0352251
0.0254127
0.0324476
0.0512329
0.0615777
0.0472687
0.0323885
0.0237888
0.0190461
0.0139951
0.0114743
0.0107616
0.128794
0.12854
0.126554
0.12119
0.111024
0.0959175
0.0768267
0.0565268
0.0381457
0.0279971
0.0312212
0.0454092
0.0495465
0.0327386
0.0202549
0.0120538
0.00605968
0.000716754
-0.0017686
-0.00234489
0.0990733
0.0988591
0.0976277
0.094225
0.0875473
0.0772356
0.0635198
0.0479224
0.0319881
0.0190433
0.0139729
0.0190529
0.0199945
0.00396759
-0.00686415
-0.00954884
-0.0114134
-0.0134797
-0.014872
-0.0155402
0.072808
0.0727297
0.071952
0.0697955
0.065389
0.0582578
0.0481664
0.0355248
0.0204586
0.00280466
-0.0172162
-0.0352283
-0.047869
-0.0531814
-0.0479718
-0.0405223
-0.0369331
-0.0355143
-0.0354724
-0.0360376
0.0502544
0.0502143
0.0497427
0.048456
0.0456584
0.040814
0.0334567
0.0231612
0.00869631
-0.0136101
-0.0506778
-0.101842
-0.132243
-0.115837
-0.0907358
-0.0729407
-0.0654966
-0.0635404
-0.062576
-0.0626121
0.0313377
0.0313122
0.0310534
0.0303613
0.0287425
0.0257005
0.0207689
0.0133544
0.000451811
-0.0225867
-0.0677175
-0.135962
-0.167164
-0.13509
-0.102371
-0.0875302
-0.0827418
-0.0808186
-0.0791783
-0.078534
0.0157496
0.0157583
0.0156734
0.015396
0.0146632
0.0131493
0.0103484
0.00561816
-0.00208205
-0.0186246
-0.0537507
-0.110099
-0.123578
-0.0952676
-0.073898
-0.0683142
-0.0686839
-0.0686634
-0.0670846
-0.0660916
0.0027155
0.00275034
0.00270233
0.00274024
0.00293592
0.00292745
0.00260788
0.00191249
0.000679455
-0.001667
-0.00782237
-0.0198464
-0.0288016
-0.0240414
-0.0252423
-0.0232653
-0.0215237
-0.0199721
-0.0183559
-0.0170557
0.0339936
0.223661
0.398064
0.545969
0.664929
0.759364
0.838212
0.902303
0.918753
0.915071
0.326189
0.448297
0.562799
0.662417
0.746475
0.815995
0.870846
0.907946
0.927783
0.944353
0.524514
0.605982
0.686665
0.757539
0.818068
0.868283
0.907783
0.937873
0.960464
0.979698
0.671195
0.728889
0.787332
0.839694
0.884859
0.923295
0.955517
0.982509
1.00285
1.02174
0.788843
0.832132
0.87535
0.915829
0.951906
0.983781
1.01166
1.03527
1.05324
1.07129
0.886333
0.922203
0.957392
0.991225
1.02243
1.05064
1.07554
1.09643
1.11222
1.1297
0.974785
1.00689
1.03922
1.07044
1.09949
1.12589
1.14903
1.16798
1.18191
1.19893
1.06185
1.09449
1.12695
1.15818
1.18697
1.21278
1.23493
1.25246
1.26485
1.28138
1.15633
1.19278
1.22756
1.26003
1.28921
1.31457
1.3357
1.352
1.36362
1.37977
1.26943
1.31003
1.34706
1.38002
1.40853
1.43253
1.45216
1.46744
1.47935
1.49542
1.41077
1.45187
1.48716
1.51676
1.54198
1.5636
1.5821
1.59759
1.61071
1.62666
1.58237
1.61479
1.64167
1.66399
1.68408
1.7028
1.72054
1.73732
1.75223
1.76796
1.76872
1.78599
1.80311
1.8198
1.83589
1.85063
1.86453
1.87901
1.89425
1.91155
1.95211
1.96208
1.97528
1.98627
1.99567
2.00533
2.01594
2.02612
2.03541
2.06108
2.17001
2.1643
2.15136
2.1371
2.13081
2.13652
2.15466
2.18318
2.21695
2.25327
2.47282
2.33687
2.25736
2.21485
2.19752
2.2015
2.22893
2.2868
2.39446
2.57287
0.789289
0.782986
0.775255
0.764138
0.750565
0.737912
0.72751
0.719492
0.713766
0.710427
0.710068
0.712897
0.718128
0.725484
0.735033
0.746862
0.760424
0.773353
0.782343
0.789884
0.69836
0.704279
0.71235
0.718481
0.721547
0.721031
0.71794
0.713938
0.710342
0.708049
0.70791
0.710159
0.713912
0.718357
0.722459
0.724704
0.723631
0.718995
0.711941
0.704107
0.691614
0.693987
0.697253
0.700023
0.702471
0.704656
0.70583
0.705676
0.704731
0.703917
0.704127
0.705539
0.70732
0.70855
0.708475
0.707009
0.704851
0.70249
0.699508
0.69649
0.686831
0.68792
0.689835
0.692171
0.694039
0.695434
0.696646
0.697632
0.698223
0.698594
0.699144
0.699887
0.700354
0.700237
0.69961
0.698688
0.697358
0.695389
0.693282
0.691804
0.681816
0.68245
0.683578
0.685333
0.687173
0.688761
0.690006
0.691062
0.692034
0.692925
0.693708
0.694229
0.694368
0.694163
0.693628
0.692655
0.691229
0.68962
0.688282
0.68748
0.676902
0.677341
0.678129
0.67943
0.680948
0.682506
0.683977
0.685264
0.686408
0.687486
0.688436
0.68904
0.689221
0.688989
0.688326
0.687329
0.686177
0.685033
0.68413
0.683597
0.67208
0.672408
0.673019
0.674086
0.675377
0.676771
0.678241
0.679705
0.681085
0.682377
0.68352
0.684268
0.684498
0.684257
0.683663
0.682881
0.682037
0.681183
0.680522
0.68013
0.667326
0.66758
0.668073
0.668981
0.670149
0.671451
0.672864
0.674379
0.675945
0.677494
0.678886
0.679808
0.680154
0.68006
0.679681
0.679138
0.678506
0.67788
0.677399
0.677099
0.662567
0.662769
0.663179
0.663978
0.665067
0.666321
0.66772
0.66928
0.670986
0.672781
0.674467
0.675652
0.676236
0.676387
0.676249
0.675932
0.675508
0.675074
0.674732
0.674497
0.65772
0.657883
0.658235
0.65896
0.660004
0.661239
0.662668
0.664311
0.666175
0.668228
0.670263
0.671812
0.672724
0.67317
0.67329
0.673204
0.672994
0.672734
0.672508
0.67232
0.652698
0.65283
0.65314
0.653821
0.654848
0.65611
0.657607
0.659379
0.661454
0.663824
0.666285
0.668285
0.669593
0.670378
0.670789
0.670952
0.670954
0.670863
0.670736
0.670584
0.64741
0.647517
0.6478
0.648462
0.649508
0.650838
0.652448
0.654403
0.656758
0.659532
0.662518
0.665058
0.666832
0.66801
0.66875
0.669185
0.669409
0.669488
0.669447
0.669322
0.641762
0.641847
0.642114
0.642782
0.643882
0.645323
0.647102
0.649308
0.652025
0.655305
0.658934
0.662126
0.664451
0.666083
0.667197
0.667948
0.668419
0.668658
0.668693
0.66859
0.635642
0.635709
0.635969
0.636666
0.637857
0.639456
0.641467
0.644005
0.647187
0.651098
0.655514
0.659489
0.662466
0.664633
0.666175
0.667279
0.668022
0.668435
0.668543
0.668457
0.628922
0.62897
0.629234
0.629981
0.631304
0.633117
0.635436
0.6384
0.642164
0.646853
0.652225
0.657143
0.660899
0.663697
0.665741
0.667243
0.668299
0.6689
0.66908
0.669007
0.621447
0.621476
0.621748
0.622569
0.624066
0.626158
0.628872
0.632376
0.636868
0.642516
0.64905
0.655098
0.659779
0.663319
0.66596
0.667937
0.669347
0.670149
0.6704
0.670337
0.613008
0.613026
0.613302
0.614225
0.615952
0.618403
0.621616
0.625798
0.631193
0.638017
0.645958
0.653362
0.659141
0.663558
0.666902
0.669447
0.67126
0.672284
0.672609
0.672552
0.603308
0.603302
0.60363
0.604697
0.606721
0.609629
0.613477
0.618514
0.625039
0.633311
0.642955
0.65197
0.659044
0.66449
0.66866
0.671866
0.674145
0.675414
0.675811
0.675757
0.592051
0.592022
0.5924
0.593659
0.596056
0.599551
0.604213
0.610335
0.618276
0.628336
0.640036
0.650955
0.65954
0.666192
0.67133
0.675294
0.678109
0.679639
0.680106
0.68005
0.578746
0.578695
0.579151
0.58066
0.583543
0.587808
0.593525
0.601041
0.610772
0.623039
0.637211
0.650366
0.660698
0.668734
0.674998
0.679838
0.683245
0.685046
0.685574
0.685511
0.562746
0.562672
0.563252
0.565113
0.568644
0.57393
0.581042
0.590374
0.60238
0.617374
0.634504
0.650257
0.662582
0.672193
0.679733
0.685559
0.689612
0.691679
0.692254
0.692178
0.543096
0.543006
0.543787
0.546158
0.550603
0.557311
0.566326
0.578078
0.593017
0.611375
0.631999
0.650722
0.665281
0.676642
0.685574
0.692503
0.697223
0.699528
0.700124
0.700026
0.518372
0.51828
0.519397
0.522557
0.528378
0.537161
0.548878
0.56393
0.582674
0.605166
0.62985
0.651875
0.668869
0.682127
0.692579
0.700653
0.706014
0.708489
0.709069
0.708942
0.486241
0.486195
0.487916
0.492439
0.500558
0.512577
0.528271
0.547868
0.57149
0.598943
0.628234
0.653852
0.673427
0.688679
0.700705
0.709934
0.715817
0.718348
0.718862
0.718701
0.442545
0.442699
0.44573
0.453077
0.46549
0.482821
0.504408
0.530139
0.559824
0.593046
0.62741
0.656819
0.679043
0.6963
0.709882
0.720163
0.72634
0.728753
0.729151
0.728955
0.379513
0.380833
0.388186
0.402029
0.422297
0.44807
0.477962
0.51148
0.548308
0.587942
0.62768
0.660946
0.685773
0.704947
0.719896
0.730952
0.737109
0.73918
0.739416
0.739207
0.30426
0.306854
0.321129
0.344948
0.375952
0.411748
0.450661
0.49244
0.536895
0.583587
0.629525
0.667514
0.695683
0.717309
0.733906
0.74555
0.751521
0.753358
0.753554
0.753445
0.227236
0.234132
0.255558
0.289373
0.330829
0.376406
0.42434
0.474445
0.526595
0.580414
0.632676
0.675505
0.707064
0.731165
0.749452
0.761488
0.766894
0.768252
0.76838
0.768341
0.164444
0.173192
0.199236
0.240132
0.289826
0.343712
0.399786
0.457717
0.517263
0.57796
0.636242
0.68358
0.718261
0.744534
0.763994
0.776222
0.781394
0.782639
0.782791
0.782808
0.113019
0.12248
0.15204
0.198211
0.254111
0.314663
0.377622
0.442467
0.508752
0.575852
0.639845
0.691511
0.729118
0.757454
0.778199
0.790894
0.795963
0.797223
0.797457
0.797511
0.069974
0.0797425
0.111707
0.162005
0.223
0.289095
0.357868
0.428712
0.501049
0.574091
0.643502
0.69932
0.739783
0.770117
0.792153
0.805426
0.810753
0.812222
0.812482
0.812558
0.032846
0.0427507
0.0765187
0.130123
0.195378
0.266229
0.340088
0.416276
0.494121
0.572667
0.647162
0.706964
0.75022
0.78253
0.805926
0.819954
0.825718
0.82729
0.827555
0.827631
-3.61754e-05
0.00992125
0.0451117
0.101456
0.170341
0.245329
0.323708
0.404718
0.487603
0.571291
0.650654
0.714281
0.760211
0.794452
0.819118
0.833981
0.840176
0.841898
0.842173
0.842232
-0.0299252
-0.019926
0.0164248
0.0751296
0.14716
0.225773
0.308172
0.393578
0.481165
0.569748
0.653802
0.721094
0.769601
0.805636
0.831544
0.847127
0.853797
0.855654
0.855925
0.855965
-0.0577624
-0.0477025
-0.0103204
0.0504785
0.125285
0.207099
0.293111
0.382553
0.474536
0.567773
0.656356
0.727263
0.778241
0.815997
0.84302
0.859259
0.866309
0.86828
0.868537
0.868548
-0.0841079
-0.0739803
-0.0356353
0.0270496
0.10431
0.188983
0.278257
0.371385
0.467461
0.565158
0.658201
0.732699
0.786104
0.825483
0.853512
0.870231
0.877531
0.87959
0.879837
0.879816
-0.109423
-0.099153
-0.0599053
0.0044932
0.0839433
0.171175
0.263396
0.359898
0.459809
0.561784
0.65924
0.737351
0.793203
0.834135
0.863019
0.880118
0.887511
0.889574
0.889812
0.889762
-0.13399
-0.123503
-0.0833937
-0.0174196
0.0639953
0.153515
0.248407
0.348007
0.451483
0.557553
0.659386
0.741202
0.799578
0.84205
0.871675
0.888979
0.896343
0.898365
0.898575
0.898507
-0.15791
-0.14718
-0.106241
-0.0388257
0.0443555
0.135932
0.233229
0.33565
0.442422
0.552385
0.658574
0.74424
0.805296
0.849354
0.879626
0.896975
0.904218
0.906144
0.906304
0.906208
-0.1813
-0.170302
-0.128559
-0.0597836
0.0249749
0.118384
0.217838
0.322811
0.432617
0.546258
0.656737
0.746436
0.810419
0.8562
0.887072
0.904298
0.911264
0.913027
0.913128
0.913009
-0.20416
-0.192909
-0.150362
-0.0803199
0.00584546
0.100879
0.202257
0.309519
0.422085
0.539151
0.653824
0.747734
0.814989
0.862753
0.894202
0.911092
0.917598
0.91911
0.919122
0.918981
-0.226565
-0.214991
-0.171628
-0.100426
-0.0130145
0.0834501
0.186528
0.295828
0.410868
0.531075
0.649793
0.74806
0.818982
0.869151
0.901291
0.917616
0.923348
0.92445
0.924358
0.924208
-0.248301
-0.236507
-0.192339
-0.120087
-0.0315623
0.0661639
0.170713
0.281802
0.399033
0.522079
0.644609
0.747321
0.82232
0.875464
0.908664
0.924299
0.928831
0.929199
0.928922
0.928783
-0.269523
-0.257404
-0.212468
-0.139277
-0.0497714
0.0490583
0.154903
0.267521
0.386663
0.512236
0.638263
0.745412
0.824859
0.881621
0.916586
0.931808
0.93473
0.933698
0.932914
0.932829
-0.290047
-0.277645
-0.231999
-0.157947
-0.0675617
0.0322178
0.13918
0.253105
0.373863
0.501608
0.630776
0.742226
0.826411
0.887373
0.925046
0.940854
0.942425
0.939187
0.936854
0.93647
-0.309975
-0.297254
-0.250872
-0.176042
-0.0848958
0.0157112
0.123631
0.238633
0.360737
0.490328
0.622202
0.737644
0.826763
0.892322
0.933518
0.95153
0.953495
0.948585
0.942535
0.933732
-0.329191
-0.316223
-0.269178
-0.193726
-0.101997
-0.000743257
0.10792
0.223702
0.346841
0.477898
0.612037
0.731103
0.825526
0.896217
0.941376
0.963178
0.96815
0.96285
0.951906
0.950541
-0.347653
-0.334629
-0.286911
-0.210941
-0.118848
-0.0171095
0.0920782
0.208295
0.33214
0.464194
0.600096
0.722106
0.821943
0.89827
0.946677
0.971624
0.978975
0.976397
0.942438
0.903821
-0.365129
-0.352333
-0.304002
-0.22757
-0.135439
-0.0333944
0.0761079
0.192543
0.316702
0.449248
0.586301