/*--------------------------------*- C++ -*----------------------------------*\
  =========                 |
  \\      /  F ield         | OpenFOAM: The Open Source CFD Toolbox
   \\    /   O peration     | Website:  https://openfoam.org
    \\  /    A nd           | Version:  6
     \\/     M anipulation  |
\*---------------------------------------------------------------------------*/
FoamFile
{
    version     2.0;
    format      ascii;
    class       surfaceScalarField;
    location    "8";
    object      phi;
}
// * * * * * * * * * * * * * * * * * * * * * * * * * * * * * * * * * * * * * //

dimensions      [1 0 -1 0 0 0 0];

internalField   nonuniform List<scalar> 
10325
(
0.00840003
1.79302e-11
0.00840003
1.3731e-10
0.00840003
4.27265e-10
0.00840003
1.27283e-09
0.00840002
3.02218e-09
0.00840002
7.8808e-09
0.0084
1.75985e-08
0.00839994
4.56399e-08
0.00839985
9.67604e-08
0.00839947
2.8212e-07
0.00839899
5.51945e-07
0.00839673
1.85934e-06
0.00839205
4.76631e-06
0.00837553
1.55881e-05
0.00830391
6.7811e-05
0.00785705
0.000435496
0.00718268
0.000668736
0.00641493
0.000767001
0.00563158
0.000783417
0.00482245
0.000809668
0.00401274
0.000809096
0.00314167
0.000870539
0.00217313
0.000968005
0.00110416
0.0010679
0.00110329
0.00840003
3.72301e-11
0.00840003
2.88221e-10
0.00840003
8.8986e-10
0.00840003
2.67165e-09
0.00840002
6.31975e-09
0.00840001
1.67143e-08
0.00839999
3.7431e-08
0.00839993
9.78938e-08
0.00839981
2.13681e-07
0.00839942
5.93817e-07
0.00839872
1.27054e-06
0.00839626
3.92069e-06
0.00839051
1.03142e-05
0.00836816
3.69139e-05
0.00829342
0.000139149
0.00778238
0.000935485
0.00710658
0.00133928
0.00640488
0.0014682
0.00567298
0.0015155
0.00489558
0.00158746
0.00405708
0.00164672
0.00314375
0.00178353
0.00215438
0.00195711
0.00110321
0.00211798
0.00220563
0.00840003
5.83506e-11
0.00840003
4.52453e-10
0.00840003
1.39686e-09
0.00840003
4.19964e-09
0.00840002
9.93433e-09
0.00840001
2.63274e-08
0.00839999
5.89822e-08
0.00839992
1.54841e-07
0.0083998
3.36574e-07
0.00839937
9.48085e-07
0.00839867
1.9988e-06
0.00839586
6.33009e-06
0.00838964
1.63765e-05
0.00836602
5.9426e-05
0.00827781
0.000223728
0.00775381
0.00145
0.00706818
0.00201973
0.00639357
0.00214288
0.00569541
0.0022143
0.00494699
0.00233613
0.00410144
0.00249122
0.00316937
0.00271505
0.00216657
0.00295952
0.001106
0.00317778
0.0033108
0.00840003
8.25962e-11
0.00840003
6.39737e-10
0.00840003
1.97036e-09
0.00840003
5.92735e-09
0.00840002
1.39978e-08
0.00840001
3.71658e-08
0.00839999
8.3104e-08
0.00839991
2.19292e-07
0.00839977
4.74393e-07
0.00839929
1.35231e-06
0.00839848
2.83402e-06
0.00839552
8.89513e-06
0.00838756
2.41708e-05
0.00836533
8.06508e-05
0.00826731
0.000317952
0.00775014
0.00195802
0.00706742
0.00269989
0.00641385
0.00279429
0.00574069
0.00288627
0.00500952
0.00306674
0.00418122
0.00331824
0.0032459
0.00365062
0.00222405
0.0039812
0.00112798
0.00427257
0.00443787
0.00840003
1.0871e-10
0.00840003
8.42647e-10
0.00840003
2.59783e-09
0.00840003
7.81201e-09
0.00840002
1.84647e-08
0.00840001
4.89452e-08
0.00839998
1.09561e-07
0.0083999
2.87888e-07
0.00839975
6.25132e-07
0.00839926
1.76281e-06
0.00839841
3.71424e-06
0.00839529
1.16234e-05
0.00838858
3.07315e-05
0.00836174
0.000106397
0.00827831
0.000398078
0.00776876
0.00245781
0.00709372
0.0033702
0.00646237
0.00342459
0.0058145
0.00353372
0.00510466
0.00377598
0.00428736
0.0041341
0.00335911
0.00457719
0.00233076
0.00500895
0.00120504
0.00539595
0.00564176
0.00840003
1.39123e-10
0.00840003
1.07814e-09
0.00840003
3.32791e-09
0.00840003
9.99814e-09
0.00840002
2.36418e-08
0.0084
6.25428e-08
0.00839997
1.40003e-07
0.00839988
3.66589e-07
0.00839971
7.97098e-07
0.00839917
2.23004e-06
0.00839819
4.71419e-06
0.00839482
1.45879e-05
0.0083869
3.84655e-05
0.00836029
0.000131892
0.00827138
0.000483922
0.00777504
0.00294421
0.0071251
0.00401477
0.00653584
0.0040123
0.00590868
0.00416038
0.00522584
0.0044583
0.00443294
0.00492774
0.00352346
0.0054866
0.00248087
0.00605109
0.00130468
0.00657214
0.00694543
0.00840003
1.77774e-10
0.00840003
1.37677e-09
0.00840003
4.25614e-09
0.00840002
1.2764e-08
0.00840002
3.01857e-08
0.0084
7.95547e-08
0.00839996
1.77944e-07
0.00839985
4.63283e-07
0.00839964
1.00696e-06
0.008399
2.79035e-06
0.00839783
5.89818e-06
0.00839387
1.81331e-05
0.00838508
4.70278e-05
0.00835369
0.000162115
0.00825562
0.000579104
0.00772371
0.00346576
0.00723281
0.00450102
0.00663703
0.00460915
0.00603146
0.00476607
0.00537835
0.0051106
0.00463037
0.00567407
0.0037458
0.00637079
0.00270808
0.0070875
0.00147645
0.00780259
0.00842115
0.00840003
2.30732e-10
0.00840003
1.79364e-09
0.00840003
5.59303e-09
0.00840002
1.67088e-08
0.00840001
3.96137e-08
0.00839999
1.03579e-07
0.00839993
2.31817e-07
0.00839978
5.98195e-07
0.0083995
1.28805e-06
0.00839862
3.58214e-06
0.00839723
7.29711e-06
0.00839174
2.31848e-05
0.00838265
5.58853e-05
0.00834286
0.000200669
0.00823782
0.000680554
0.00765883
0.00403431
0.00727416
0.00488073
0.00672527
0.00515715
0.00617771
0.00531422
0.00556889
0.00571974
0.00488929
0.00635255
0.00404975
0.00720905
0.00301568
0.00812071
0.00174213
0.00907504
0.0101626
0.00840003
3.49703e-10
0.00840003
2.48036e-09
0.00840003
8.46596e-09
0.00840002
2.29911e-08
0.0084
5.97966e-08
0.00839996
1.42887e-07
0.00839983
3.56034e-07
0.00839961
8.08378e-07
0.00839879
2.09858e-06
0.00839798
4.30702e-06
0.00839282
1.24511e-05
0.00839183
2.37049e-05
0.00836431
8.31106e-05
0.00835919
0.000204427
0.00823657
0.000799505
0.00775918
0.00450015
0.00727171
0.00536658
0.00683244
0.00559358
0.00638618
0.00575995
0.00582111
0.00628586
0.00522336
0.00695022
0.00447028
0.00796146
0.0035782
0.00901127
0.00226994
0.0103822
0.0124318
0.00840003
-3.79151e-10
0.00840003
5.37337e-09
0.00840003
2.59446e-09
0.00840001
4.37647e-08
0.00840005
2.33151e-08
0.00839991
2.75215e-07
0.00840014
1.2338e-07
0.00839918
1.75593e-06
0.00840124
3.66385e-08
0.00839302
1.24285e-05
0.00841317
-7.71396e-06
0.00834975
8.65963e-05
0.0084841
-5.14604e-05
0.00816028
0.000526507
0.00835307
0.000603054
0.00783911
0.0050011
0.00733126
0.00587417
0.00694386
0.00598042
0.00661252
0.00609105
0.00620206
0.00669587
0.00568307
0.00746904
0.00515472
0.00848968
0.00435624
0.0098089
0.00313148
0.0116056
0.0155628
0.00840003
3.83441e-10
0.00840003
2.02218e-09
0.00840003
7.93689e-09
0.00840005
1.96816e-08
0.00840002
5.63274e-08
0.00840017
1.23761e-07
0.00839994
3.41926e-07
0.00840099
7.05043e-07
0.00839888
2.10337e-06
0.00840726
4.05635e-06
0.00838593
1.33416e-05
0.00844601
2.64944e-05
0.00829177
0.000101653
0.0085637
0.000253681
0.00805513
0.00110742
0.0077032
0.00533794
0.0073441
0.00623476
0.00711802
0.00620781
0.0068586
0.00634979
0.0065819
0.00697118
0.00623645
0.00781378
0.00586441
0.00886132
0.00557427
0.0100988
0.00576954
0.0114101
0.0118356
0.00949676
0.00840003
9.43414e-10
0.00840003
-1.52527e-11
0.00840003
1.19954e-08
0.00840004
4.87389e-09
0.00840002
8.13821e-08
0.00840011
3.2696e-08
0.00839994
5.01425e-07
0.00840055
9.5602e-08
0.00839914
3.47196e-06
0.00840418
-9.90035e-07
0.0083897
2.75757e-05
0.00842654
-1.04541e-05
0.00833207
0.000195033
0.0084797
0.000105012
0.00832714
0.00125531
0.00826512
0.00538283
0.00780467
0.00669919
0.00743537
0.00658012
0.00716019
0.00662632
0.00693983
0.00718996
0.00671761
0.00803464
0.00658199
0.00899693
0.00662711
0.0100531
0.00717
0.0108669
0.010808
0.00819865
0.00840003
2.40287e-10
0.00840003
2.06418e-09
0.00840003
5.58935e-09
0.00840002
1.90999e-08
0.00840006
4.0429e-08
0.00839997
1.22034e-07
0.00840023
2.43463e-07
0.00839956
7.51034e-07
0.00840167
1.35562e-06
0.00839537
5.20839e-06
0.00841592
7.09052e-06
0.00836426
4.05675e-05
0.00849773
6.16018e-05
0.00825707
0.000343701
0.00865251
0.000857524
0.00955332
0.00446012
0.00873136
0.00752355
0.00797147
0.00734222
0.00760321
0.00699553
0.00740465
0.00738841
0.00728162
0.00815638
0.00727779
0.00900049
0.00751904
0.00981195
0.00805431
0.0103316
0.0102461
0.00861662
0.00840003
2.62851e-10
0.00840003
2.03261e-09
0.00840003
6.22692e-09
0.00840003
1.87985e-08
0.00840002
4.45337e-08
0.00840003
1.18786e-07
0.0084
2.67836e-07
0.00840004
7.00677e-07
0.00839983
1.56342e-06
0.00840083
4.14213e-06
0.00839857
9.30506e-06
0.00841287
2.59108e-05
0.00841209
6.21204e-05
0.00855454
0.000200008
0.00885019
0.000559644
0.0109059
0.00239894
0.00998404
0.00844168
0.00879393
0.00853077
0.00824701
0.00754161
0.00795073
0.00768398
0.00786061
0.00824556
0.00793945
0.00892014
0.00818868
0.009563
0.00863325
0.00988793
0.00980504
0.00907534
0.00840003
2.49831e-10
0.00840003
1.9411e-09
0.00840003
5.95476e-09
0.00840003
1.79823e-08
0.00840003
4.25449e-08
0.00840004
1.1342e-07
0.00840005
2.55193e-07
0.00840007
6.65724e-07
0.00840014
1.48757e-06
0.00840042
3.81447e-06
0.00840059
9.10005e-06
0.00840472
2.14948e-05
0.00840721
5.93619e-05
0.00845549
0.000150567
0.00853189
0.000482638
0.00908309
0.0018429
0.00967735
0.00783813
0.00962087
0.00858109
0.00879241
0.00836829
0.00841222
0.00806281
0.00832186
0.00833478
0.00843042
0.00881015
0.00869494
0.00929676
0.00906025
0.00952211
0.00943508
0.00943128
0.00840003
2.26196e-10
0.00840003
1.75413e-09
0.00840003
5.40725e-09
0.00840003
1.62675e-08
0.00840004
3.85815e-08
0.00840005
1.02129e-07
0.00840007
2.30068e-07
0.00840013
5.95363e-07
0.00840029
1.32466e-06
0.00840059
3.45993e-06
0.008402
7.65373e-06
0.00840212
2.11081e-05
0.00841318
4.79621e-05
0.00841378
0.000148809
0.00846383
0.00043107
0.00862313
0.00167896
0.009169
0.00727527
0.00927239
0.00847274
0.00899067
0.0086482
0.00876717
0.0082852
0.00869837
0.00840208
0.00879211
0.00871475
0.00904872
0.0090398
0.00937299
0.00919654
0.00909261
0.00971571
0.00840003
2.06042e-10
0.00840003
1.59595e-09
0.00840003
4.91705e-09
0.00840003
1.47898e-08
0.00840004
3.50739e-08
0.00840004
9.28576e-08
0.00840006
2.09073e-07
0.00840011
5.42345e-07
0.00840023
1.19807e-06
0.00840043
3.21612e-06
0.00840137
6.6995e-06
0.00840172
2.0473e-05
0.00840715
4.24312e-05
0.00840767
0.000147059
0.00845354
0.000383955
0.00858623
0.00154174
0.00916939
0.00667534
0.00915934
0.00848167
0.00916262
0.00864529
0.00902627
0.00842266
0.00901065
0.00841661
0.00909315
0.00863004
0.00930672
0.0088249
0.00959342
0.00890874
0.00879442
0.00989114
0.00840003
1.8547e-10
0.00840003
1.43722e-09
0.00840003
4.40579e-09
0.00840003
1.32928e-08
0.00840004
3.14312e-08
0.00840004
8.37647e-08
0.00840006
1.8792e-07
0.00840011
4.92513e-07
0.00840021
1.085e-06
0.00840045
2.93941e-06
0.00840094
6.18064e-06
0.00840212
1.90383e-05
0.00840616
3.82534e-05
0.00841591
0.000136084
0.00844735
0.000351369
0.00857645
0.00140774
0.010023
0.00521047
0.00977179
0.00873295
0.00949673
0.00892055
0.00931175
0.0086095
0.00931342
0.00841633
0.00940933
0.00853342
0.0095566
0.00867632
0.00977598
0.00868811
0.00855136
0.0100178
0.00840003
1.50921e-10
0.00840003
1.17e-09
0.00840003
3.61762e-09
0.00840003
1.08654e-08
0.00840004
2.58e-08
0.00840005
6.8068e-08
0.00840009
1.53321e-07
0.00840018
3.9486e-07
0.00840039
8.77311e-07
0.00840103
2.28284e-06
0.00840222
4.95237e-06
0.00840714
1.38749e-05
0.00841713
2.89953e-05
0.00846311
8.87964e-05
0.00858077
0.000235448
0.00923993
0.000743296
0.0118439
0.00260324
0.0108225
0.00974288
0.0105833
0.0091586
0.00983932
0.00935204
0.00969139
0.00856585
0.00972638
0.00849864
0.00983326
0.00856718
0.00996884
0.00855045
0.00837902
0.010139
0.00840003
1.26055e-10
0.00840003
9.78258e-10
0.00840003
3.00855e-09
0.00840003
9.06085e-09
0.00840004
2.14798e-08
0.00840005
5.68889e-08
0.00840007
1.28305e-07
0.00840013
3.31045e-07
0.00840027
7.38878e-07
0.00840063
1.89082e-06
0.00840127
4.29652e-06
0.00840421
1.07753e-05
0.00840768
2.5417e-05
0.00842891
6.67695e-05
0.00849213
0.000171573
0.00865159
0.000580716
0.00941522
0.00183242
0.010991
0.00814693
0.0107409
0.00940422
0.0106345
0.00945604
0.0101608
0.00903968
0.0100419
0.00861779
0.0100963
0.00851083
0.0101878
0.00845733
0.00828013
0.0102831
0.00840003
9.91629e-11
0.00840003
7.67302e-10
0.00840003
2.37845e-09
0.00840003
7.12392e-09
0.00840004
1.69315e-08
0.00840005
4.44555e-08
0.00840008
1.00123e-07
0.00840015
2.56289e-07
0.00840032
5.68382e-07
0.00840071
1.4749e-06
0.00840185
3.13396e-06
0.0084034
9.09717e-06
0.00841182
1.69149e-05
0.00841577
6.21259e-05
0.00846636
0.000120321
0.00852897
0.000515703
0.0089516
0.00140432
0.0106955
0.00638442
0.0108335
0.00926512
0.0107018
0.0095852
0.01045
0.00928932
0.0103133
0.00875361
0.0103135
0.00850995
0.0103894
0.00837864
0.00820861
0.0104592
0.00840003
8.13582e-11
0.00840003
6.31176e-10
0.00840003
1.94485e-09
0.00840003
5.84924e-09
0.00840003
1.38665e-08
0.00840004
3.66498e-08
0.00840006
8.25147e-08
0.0084001
2.12674e-07
0.00840019
4.72879e-07
0.00840043
1.21963e-06
0.00840085
2.69695e-06
0.00840273
7.1052e-06
0.0084039
1.56373e-05
0.00842074
4.46362e-05
0.00844087
9.96411e-05
0.00861183
0.000342054
0.00905649
0.000955127
0.0116049
0.00381247
0.0112891
0.00957913
0.0112498
0.00962573
0.0109873
0.00955174
0.0106696
0.00906868
0.0105563
0.00862218
0.0105685
0.0083633
0.00815063
0.010622
0.00840003
6.52363e-11
0.00840003
4.95541e-10
0.00840003
1.56883e-09
0.00840003
4.60141e-09
0.00840003
1.1146e-08
0.00840004
2.87646e-08
0.00840006
6.61306e-08
0.0084001
1.66421e-07
0.00840019
3.77861e-07
0.00840045
9.49311e-07
0.00840098
2.14843e-06
0.00840257
5.43062e-06
0.00840564
1.24765e-05
0.00841835
3.14831e-05
0.0084372
8.00817e-05
0.0085651
0.000211757
0.00886422
0.000658608
0.0102695
0.00239634
0.0115447
0.00829236
0.0115055
0.00966267
0.0113076
0.00974801
0.0110215
0.00935403
0.0108719
0.00876788
0.0107942
0.0084368
0.00813862
0.0107978
0.00840003
1.41233e-11
0.00840003
4.91764e-10
0.00840003
8.85479e-10
0.00840003
4.2588e-09
0.00840004
6.57997e-09
0.00840004
2.62668e-08
0.00840006
3.93857e-08
0.00840008
1.51486e-07
0.00840023
2.24085e-07
0.0084003
8.64977e-07
0.00840119
1.25072e-06
0.00840151
5.04416e-06
0.00840722
6.7007e-06
0.00840649
3.18628e-05
0.00845011
3.59966e-05
0.00844366
0.000216521
0.00872255
0.000377379
0.00938893
0.00172465
0.0114512
0.00620702
0.0116601
0.00945066
0.0116093
0.00979671
0.0113554
0.00960654
0.0111702
0.00895195
0.0110649
0.00853376
0.00819229
0.0110005
0.00840003
4.48466e-11
0.00840003
2.35701e-10
0.00840003
9.24085e-10
0.00840003
2.29414e-09
0.00840003
6.52233e-09
0.00840004
1.44489e-08
0.00840004
3.8618e-08
0.00840011
8.34039e-08
0.00840011
2.20506e-07
0.0084005
4.72598e-07
0.00840047
1.25606e-06
0.00840283
2.66999e-06
0.0084021
7.29172e-06
0.00841851
1.53248e-05
0.00840916
4.45449e-05
0.00852688
9.8143e-05
0.00858213
0.000318733
0.00940236
0.000899653
0.0122635
0.0033172
0.0122014
0.00950821
0.0121453
0.00985237
0.0118487
0.00990168
0.0114869
0.00931013
0.0113286
0.00868494
0.00827029
0.0112375
0.00840003
5.08888e-11
0.00840003
1.27236e-10
0.00840003
8.21895e-10
0.00840003
1.3757e-09
0.00840003
5.65881e-09
0.00840004
8.83524e-09
0.00840004
3.32976e-08
0.00840007
5.11971e-08
0.0084001
1.89859e-07
0.00840028
2.89105e-07
0.00840044
1.08062e-06
0.00840148
1.61561e-06
0.0084024
6.27405e-06
0.00840883
8.78831e-06
0.00841375
3.91544e-05
0.00846211
4.89542e-05
0.00851651
0.000261757
0.0089123
0.000506131
0.0101136
0.00210508
0.0121686
0.00743816
0.0122828
0.00973373
0.0121977
0.00998296
0.0117854
0.00971499
0.0115739
0.00888635
0.00838168
0.0114436
0.00840003
1.83674e-11
0.00840003
1.47209e-10
0.00840003
4.37863e-10
0.00840003
1.36578e-09
0.00840003
3.13724e-09
0.00840003
8.54207e-09
0.00840005
1.86429e-08
0.00840005
4.92853e-08
0.00840013
1.06313e-07
0.00840014
2.7953e-07
0.00840061
6.00348e-07
0.00840062
1.58663e-06
0.0084035
3.37374e-06
0.00840282
9.32877e-06
0.00842346
1.84736e-05
0.00841072
6.08115e-05
0.00855766
0.000114474
0.00860044
0.000460563
0.00950481
0.00119612
0.0120622
0.00486038
0.0123998
0.00938786
0.0124389
0.00993276
0.0123042
0.00983691
0.0119125
0.00926684
0.00856302
0.0116971
0.00840003
5.94865e-12
0.00840003
1.35773e-10
0.00840003
2.66057e-10
0.00840003
1.18102e-09
0.00840003
1.96011e-09
0.00840003
7.28656e-09
0.00840004
1.17434e-08
0.00840005
4.19523e-08
0.00840009
6.71919e-08
0.00840012
2.38595e-07
0.00840034
3.79973e-07
0.00840055
1.36133e-06
0.00840178
2.12564e-06
0.00840309
7.93773e-06
0.00840975
1.17106e-05
0.0084218
4.82927e-05
0.00846611
6.95705e-05
0.00861088
0.000313526
0.00915017
0.000656492
0.0115685
0.0024293
0.0126591
0.0082809
0.012475
0.0101001
0.0124931
0.0097961
0.0121977
0.00953343
0.00880433
0.0118936
0.00840003
1.7539e-11
0.00840003
4.49803e-11
0.00840003
2.96805e-10
0.00840003
4.95958e-10
0.00840003
2.04573e-09
0.00840003
3.18566e-09
0.00840003
1.2e-08
0.00840006
1.84474e-08
0.00840006
6.80703e-08
0.00840019
1.0402e-07
0.00840018
3.84024e-07
0.00840096
5.80419e-07
0.00840087
2.19334e-06
0.00840564
3.13394e-06
0.0084039
1.32809e-05
0.00843622
1.5868e-05
0.00841698
8.79134e-05
0.00862279
0.000106845
0.00866066
0.000615185
0.0095364
0.00154683
0.0125691
0.00521838
0.012832
0.00981106
0.0125212
0.0100807
0.0123219
0.0096911
0.00894811
0.0121238
0.00840003
2.44146e-12
0.00840003
6.06381e-11
0.00840003
1.13897e-10
0.00840003
5.29725e-10
0.00840003
8.48231e-10
0.00840003
3.26353e-09
0.00840004
5.0719e-09
0.00840004
1.86715e-08
0.00840008
2.88076e-08
0.00840007
1.05156e-07
0.0084003
1.61216e-07
0.00840027
5.91841e-07
0.00840156
8.95467e-07
0.00840126
3.37918e-06
0.00840965
4.8397e-06
0.00840464
2.05511e-05
0.00846775
2.45021e-05
0.00843799
0.000134912
0.00886295
0.000187759
0.00944971
0.000953194
0.0120696
0.00258136
0.013287
0.00855669
0.0130098
0.0102981
0.0128452
0.00978329
0.00891011
0.0127811
0.00840003
5.19965e-12
0.00840003
2.68425e-11
0.00840003
1.0775e-10
0.00840003
2.63365e-10
0.00840003
7.59182e-10
0.00840003
1.65685e-09
0.00840003
4.47088e-09
0.00840004
9.5222e-09
0.00840004
2.53078e-08
0.0084001
5.35614e-08
0.00840011
1.42009e-07
0.0084004
2.99513e-07
0.00840048
7.9763e-07
0.00840217
1.66993e-06
0.00840233
4.57456e-06
0.00841356
9.19712e-06
0.00840879
2.84715e-05
0.00849254
5.11144e-05
0.0084798
0.00019625
0.00899343
0.000436634
0.00965211
0.00190391
0.0127451
0.00541142
0.0131927
0.00978276
0.0132303
0.00964103
0.00870106
0.0133131
0.00840003
3.51909e-12
0.00840003
1.96069e-11
0.00840003
7.1111e-11
0.00840003
1.86197e-10
0.00840003
4.99296e-10
0.00840003
1.163e-09
0.00840003
2.9317e-09
0.00840004
6.65425e-09
0.00840004
1.65404e-08
0.00840006
3.73039e-08
0.0084001
9.24818e-08
0.00840019
2.08131e-07
0.00840045
5.16514e-07
0.00840093
1.16182e-06
0.00840252
2.88182e-06
0.00840495
6.60659e-06
0.008417
1.58414e-05
0.00842578
4.05005e-05
0.00852818
8.98109e-05
0.00867352
0.000280343
0.00980455
0.00076837
0.0127136
0.00245403
0.0136784
0.00871325
0.0137893
0.00936448
0.00844257
0.0138924
0.00840003
3.41344e-12
0.00840003
8.47035e-12
0.00840003
5.57178e-11
0.00840003
9.19834e-11
0.00840003
3.80851e-10
0.00840003
5.8236e-10
0.00840003
2.20963e-09
0.00840003
3.30335e-09
0.00840004
1.23552e-08
0.00840006
1.81869e-08
0.00840008
6.84561e-08
0.00840018
9.8782e-08
0.0084003
3.78875e-07
0.0084009
5.29324e-07
0.00840151
2.13333e-06
0.00840531
2.64897e-06
0.00840736
1.29901e-05
0.00843595
1.09551e-05
0.00843386
8.71429e-05
0.00863909
6.85945e-05
0.00879018
0.000594999
0.00979292
0.00140817
0.0133802
0.00495305
0.0138378
0.00864345
0.00802254
0.0141112
0.00840003
9.26526e-14
0.00840003
1.10825e-11
0.00840003
1.57684e-11
0.00840003
9.4516e-11
0.00840003
1.19132e-10
0.00840003
5.75558e-10
0.00840003
6.97775e-10
0.00840003
3.25431e-09
0.00840004
3.83223e-09
0.00840004
1.80981e-08
0.00840008
2.05807e-08
0.00840007
1.00349e-07
0.00840033
1.08315e-07
0.00840026
5.58291e-07
0.00840179
5.37459e-07
0.00840088
3.22852e-06
0.0084117
2.04264e-06
0.00839874
2.09996e-05
0.00848193
3.29188e-06
0.00840411
0.000134792
0.00889884
8.48466e-05
0.00950116
0.000750623
0.0120834
0.00221219
0.0131587
0.00717978
0.0071342
0.0139969
0.00840003
1.44685e-12
0.00840003
1.29392e-12
0.00840003
2.11134e-11
0.00840003
2.03317e-11
0.00840003
1.4353e-10
0.00840003
1.32728e-10
0.00840003
8.3417e-10
0.00840003
7.39754e-10
0.00840003
4.68516e-09
0.00840004
3.9289e-09
0.00840003
2.61698e-08
0.00840011
2.03014e-08
0.00840004
1.46873e-07
0.00840046
1.00721e-07
0.00839995
8.45892e-07
0.00840255
3.9857e-07
0.008398
5.39269e-06
0.00841722
-2.0602e-07
0.00837604
3.87034e-05
0.00850956
-1.1032e-05
0.00831079
0.000254453
0.00889136
0.000152549
0.0095175
0.0014198
0.0109064
0.00534886
0.00556822
0.01251
0.00840003
3.01079e-13
0.00840003
2.60545e-12
0.00840003
7.21764e-12
0.00840003
2.42277e-11
0.00840003
5.20679e-11
0.00840003
1.49754e-10
0.00840003
3.03836e-10
0.00840003
8.429e-10
0.00840003
1.67877e-09
0.00840003
4.6372e-09
0.00840005
9.13369e-09
0.00840003
2.54724e-08
0.00840011
4.97551e-08
0.00839999
1.41957e-07
0.00840047
2.72829e-07
0.00839951
8.30581e-07
0.00840288
1.48812e-06
0.00839424
5.25794e-06
0.00842053
8.76822e-06
0.00835714
3.51507e-05
0.00852117
6.96234e-05
0.00830905
0.000291027
0.00870194
0.000854846
0.00901133
0.0044639
0.00402491
0.0106306
0.00840003
2.68978e-13
0.00840003
1.95445e-12
0.00840003
6.58697e-12
0.00840003
1.83158e-11
0.00840003
4.68078e-11
0.00840003
1.15166e-10
0.00840003
2.79695e-10
0.00840003
6.72052e-10
0.00840003
1.61723e-09
0.00840003
3.86543e-09
0.00840003
9.30717e-09
0.00840002
2.21534e-08
0.00840001
5.34301e-08
0.00839997
1.26361e-07
0.00839987
3.06337e-07
0.0083996
7.16286e-07
0.00839877
1.7568e-06
0.00839698
4.11675e-06
0.00839251
1.02024e-05
0.00838425
2.60745e-05
0.00836106
6.80088e-05
0.00834333
0.000242264
0.0082818
0.000764628
0.00795501
0.00403006
0.00295053
0.00927615
0.00840003
-2.82763e-13
0.00840003
3.38168e-12
0.00840003
8.18173e-13
0.00840003
2.69489e-11
0.00840003
9.90607e-12
0.00840003
1.67392e-10
0.00840003
7.13287e-11
0.00840003
9.97428e-10
0.00840003
4.77602e-10
0.00840003
5.94737e-09
0.00840003
3.15358e-09
0.00840001
3.58288e-08
0.00840004
1.94605e-08
0.0083999
2.2242e-07
0.00840007
8.1559e-08
0.008399
1.47796e-06
0.00840044
-1.7855e-07
0.00839202
9.98461e-06
0.00840683
-7.11531e-06
0.00835005
6.73944e-05
0.00844802
-5.46036e-05
0.00821353
0.000410221
0.00835471
0.000439201
0.00810632
0.0033939
0.00241113
0.00902123
0.00840003
6.0279e-13
0.00840003
-9.74763e-13
0.00840003
7.06141e-12
0.00840003
-4.29679e-12
0.00840003
4.68184e-11
0.00840003
-2.22865e-11
0.00840003
2.75067e-10
0.00840003
-1.27553e-10
0.00840003
1.58186e-09
0.00840004
-7.85027e-10
0.00840003
9.07562e-09
0.00840007
-5.26112e-09
0.00840002
5.30983e-08
0.00840027
-4.43771e-08
0.0083999
3.54119e-07
0.00840184
-5.05531e-07
0.00839801
2.84542e-06
0.00841232
-4.81726e-06
0.00837765
2.16899e-05
0.00847346
-3.59052e-05
0.00823909
0.000139203
0.0087173
-0.000137705
0.00838804
0.000556468
0.00927235
0.0014836
0.00223926
0.00970551
0.00840003
-3.9867e-13
0.00840003
2.04969e-12
0.00840003
-2.83479e-12
0.00840003
1.48985e-11
0.00840003
-1.63999e-11
0.00840003
9.0719e-11
0.00840003
-9.00524e-11
0.00840003
5.35682e-10
0.00840003
-4.94827e-10
0.00840003
3.17966e-09
0.00840004
-2.76129e-09
0.00840001
1.91944e-08
0.00840008
-1.71667e-08
0.00839988
1.25396e-07
0.00840035
-1.55872e-07
0.00839867
9.55627e-07
0.00840305
-1.73426e-06
0.00838942
7.23543e-06
0.00842458
-1.48446e-05
0.00832565
5.18417e-05
0.0085526
-0.000105126
0.00807775
0.000272418
0.0086206
-8.67352e-05
0.00877735
0.000893677
0.0016528
0.00906008
0.00840003
4.39562e-13
0.00840003
-1.70534e-12
0.00840003
3.85249e-12
0.00840003
-1.16635e-11
0.00840003
2.38644e-11
0.00840003
-7.00268e-11
0.00840003
1.35289e-10
0.00840003
-4.13036e-10
0.00840003
7.59829e-10
0.00840004
-2.45677e-09
0.00840003
4.32617e-09
0.00840006
-1.49094e-08
0.00840001
2.66315e-08
0.00840022
-1.00806e-07
0.00839978
2.16663e-07
0.00840151
-8.25644e-07
0.00839715
2.10393e-06
0.00841033
-6.40983e-06
0.00837573
1.68936e-05
0.00846778
-4.42236e-05
0.00822374
0.000126403
0.008706
-0.000230712
0.00829516
0.000312568
0.00875059
0.000132937
0.00112199
0.00897732
0.00840003
-5.15584e-13
0.00840003
1.17516e-12
0.00840003
-5.19683e-12
0.00840003
7.08999e-12
0.00840003
-3.40107e-11
0.00840003
3.89815e-11
0.00840003
-2.05504e-10
0.00840003
2.06983e-10
0.00840003
-1.24105e-09
0.00840003
1.08059e-09
0.00840004
-7.58514e-09
0.00840001
5.71791e-09
0.00840008
-4.69777e-08
0.00839991
3.54487e-08
0.0084004
-3.09679e-07
0.00839899
3.6026e-07
0.00840314
-2.31459e-06
0.00839127
4.28817e-06
0.00842384
-1.70277e-05
0.00833616
3.80882e-05
0.00857177
-0.000114261
0.00807775
0.000246715
0.00858489
-0.000168615
0.0081043
0.000415659
0.00066736
0.00837432
0.00840003
-7.66733e-14
0.00840003
-5.18176e-13
0.00840003
-1.34594e-12
0.00840003
-4.53597e-12
0.00840003
-1.03011e-11
0.00840003
-3.12624e-11
0.00840003
-7.12818e-11
0.00840003
-2.07298e-10
0.00840003
-4.77366e-10
0.00840003
-1.35209e-09
0.00840002
-3.0878e-09
0.00840004
-8.62432e-09
0.00839999
-1.90892e-08
0.00840006
-5.2821e-08
0.00839977
-1.0554e-07
0.00840039
-3.31982e-07
0.00839811
-3.8783e-07
0.00840415
-2.1815e-06
0.00838558
-8.18521e-08
0.00843132
-8.94779e-06
0.00830528
6.58565e-06
0.00856163
-1.8109e-05
0.0083501
6.38793e-05
0.00848853
0.000150582
0.000372365
0.00864699
0.00840003
-2.92526e-14
0.00840003
-1.41499e-13
0.00840003
-6.00038e-13
0.00840003
-1.5278e-12
0.00840003
-5.06473e-12
0.00840003
-1.23971e-11
0.00840003
-3.75779e-11
0.00840003
-9.09485e-11
0.00840003
-2.54438e-10
0.00840003
-6.05454e-10
0.00840002
-1.57113e-09
0.00840002
-3.65844e-09
0.00839999
-8.82196e-09
0.00839995
-1.98961e-08
0.00839984
-4.44396e-08
0.00839955
-9.52282e-08
0.00839921
-2.00836e-07
0.00839718
-3.55803e-07
0.00839749
-8.35137e-07
0.00838926
-7.65999e-07
0.00839754
-2.32654e-06
0.00837532
2.81904e-06
0.00847195
9.65548e-06
0.00849116
8.30459e-05
0.000100227
0.00864407
0.00840003
1.81807e-15
0.00840003
1.7088e-13
0.00840003
-2.08709e-13
0.00840003
7.87796e-13
0.00840003
-2.52351e-12
0.00840003
1.73959e-12
0.00840003
-2.18189e-11
0.00840003
-6.28099e-12
0.00840003
-1.50106e-10
0.00840003
-8.00514e-11
0.00840003
-8.42737e-10
0.00840002
-2.94587e-10
0.00840001
-3.73886e-09
0.00839998
1.70607e-09
0.00839994
-1.40185e-08
0.00839977
5.75344e-08
0.00839974
-1.38611e-07
0.00839857
8.69985e-07
0.0083998
-1.68328e-06
0.00839619
4.31231e-06
0.00840521
-8.39852e-06
0.00839812
1.63453e-05
0.00846083
-3.20218e-05
0.00853176
3.84286e-05
-0.000110071
0.00865034
0.00840003
4.72013e-13
0.00840003
-1.9236e-12
0.00840003
3.35655e-12
0.00840003
-1.40682e-11
0.00840003
1.95961e-11
0.00840003
-8.8531e-11
0.00840003
1.02583e-10
0.00840003
-5.39232e-10
0.00840003
5.31253e-10
0.00840003
-3.21024e-09
0.00840003
2.83392e-09
0.00840005
-1.88265e-08
0.00840003
1.5938e-08
0.00840014
-1.10313e-07
0.00840005
9.93832e-08
0.00840081
-6.76105e-07
0.00840001
8.38836e-07
0.00840609
-4.84911e-06
0.00839617
9.30208e-06
0.0084398
-3.68323e-05
0.00835961
7.69054e-05
0.00858275
-0.000193118
0.00832652
0.000195672
0.00862792
-0.000170134
-0.000197141
0.00869787
0.00840003
-4.42959e-14
0.00840003
-2.2831e-13
0.00840003
-1.14557e-12
0.00840003
-2.11903e-12
0.00840003
-8.54431e-12
0.00840003
-1.5693e-11
0.00840003
-5.87445e-11
0.00840003
-1.07751e-10
0.00840003
-3.75597e-10
0.00840003
-6.66921e-10
0.00840003
-2.23319e-09
0.00840002
-3.77489e-09
0.00840005
-1.25375e-08
0.00839998
-1.98898e-08
0.00840017
-6.74623e-08
0.00839972
-9.59352e-08
0.00840113
-3.67265e-07
0.00839724
-2.95484e-07
0.00841072
-2.43522e-06
0.00837559
1.14237e-06
0.00847383
-1.3344e-05
0.00828055
1.58781e-05
0.00842599
-1.60468e-05
0.00838229
3.21736e-05
-0.000222877
0.00847699
0.00840003
3.48757e-14
0.00840003
7.53345e-14
0.00840003
8.40604e-13
0.00840003
6.95339e-13
0.00840003
4.96868e-12
0.00840003
2.04716e-12
0.00840003
2.35173e-11
0.00840003
6.12722e-13
0.00840003
1.15151e-10
0.00840003
-1.83546e-11
0.00840003
6.59127e-10
0.00840003
1.59483e-11
0.00840001
4.37467e-09
0.00840002
1.64457e-09
0.00839996
3.03886e-08
0.00840001
1.43852e-08
0.00839966
2.24685e-07
0.00840022
-5.87017e-08
0.00839727
1.92553e-06
0.00840373
-1.7201e-06
0.00838759
9.49031e-06
0.00843551
-6.55123e-06
0.0082813
2.8858e-05
0.00849368
3.16151e-05
-0.000140173
0.00854147
0.00840003
-5.15474e-13
0.00840003
1.90786e-12
0.00840003
-3.7816e-12
0.00840003
1.37527e-11
0.00840003
-2.3235e-11
0.00840003
8.22551e-11
0.00840003
-1.32854e-10
0.00840003
4.76478e-10
0.00840003
-7.35988e-10
0.00840003
2.77155e-09
0.00840003
-3.98005e-09
0.00840002
1.63996e-08
0.00840006
-2.13793e-08
0.0084
9.9674e-08
0.0084002
-1.21333e-07
0.00839977
6.48824e-07
0.00840126
-9.26942e-07
0.00839723
4.91452e-06
0.00841081
-9.42288e-06
0.00837722
3.6306e-05
0.00846733
-6.8807e-05
0.00830804
0.000184987
0.00836896
-0.00017849
0.00843647
0.000196494
-0.000143838
0.00859662
0.00840003
0.00840003
0.00840003
0.00840003
0.00840003
0.00840003
0.00840003
0.00840003
0.00840003
0.00840003
0.00840003
0.00840005
0.00840005
0.00840016
0.00840013
0.00840089
0.00840039
0.00840606
0.00839854
0.00843947
0.00837622
0.00858943
0.00820272
0.008662
0.00865931
0.00464449
0.00485421
0.00211403
0.00253738
0.000964487
0.00115192
-0.000517431
0.00148791
-0.00123874
0.000725512
-0.00181824
0.000581897
-0.00225632
0.000437377
-0.00262697
0.000367217
-0.00290869
0.000277124
-0.00311003
0.00019483
-0.00324904
0.000132155
-0.0033332
7.59193e-05
-0.00341811
7.19723e-05
-0.00350346
7.15941e-05
-0.0035587
4.08311e-05
-0.00356976
-6.29118e-06
-0.00354583
-4.5169e-05
-0.00349012
-7.97188e-05
-0.00340065
-0.00011413
-0.00328359
-0.000142725
-0.00314537
-0.000162399
-0.00299407
-0.000174738
-0.00283085
-0.000185813
-0.00265783
-0.000192883
-0.00247896
-0.000197359
-0.00229693
-0.000198715
-0.00210893
-0.000201444
-0.00191909
-0.00020124
-0.00172603
-0.00020298
-0.0015323
-0.000202298
-0.0013339
-0.000205796
-0.00112776
-0.00021241
-0.000916067
-0.000217314
-0.000702035
-0.000219361
-0.000488751
-0.000218219
-0.000275249
-0.000217941
-5.75155e-05
-0.000221583
0.000163469
-0.000224803
0.000387933
-0.000228073
0.000601181
-0.000216127
0.000807182
-0.000208042
0.0010021
-0.000195947
0.0011885
-0.000186932
0.00136736
-0.000178756
0.00154585
-0.000176145
0.00172118
-0.000171812
0.00189091
-0.00016536
0.00205456
-0.000158179
0.00221353
-0.000152378
0.00236625
-0.000146088
0.00251419
-0.000140006
0.0026578
-0.000134611
0.00279567
-0.000128938
0.00292847
-0.00012336
0.00305625
-0.000118501
0.0031785
-0.000113109
0.00329692
-0.000108609
0.00340857
-0.000103774
0.00351607
-9.91767e-05
0.00361932
-9.50082e-05
0.00371717