/*--------------------------------*- C++ -*----------------------------------*\
  =========                 |
  \\      /  F ield         | OpenFOAM: The Open Source CFD Toolbox
   \\    /   O peration     | Website:  https://openfoam.org
    \\  /    A nd           | Version:  6
     \\/     M anipulation  |
\*---------------------------------------------------------------------------*/
FoamFile
{
    version     2.0;
    format      ascii;
    class       volScalarField;
    location    "38";
    object      p;
}
// * * * * * * * * * * * * * * * * * * * * * * * * * * * * * * * * * * * * * //

dimensions      [0 2 -2 0 0 0 0];

internalField   nonuniform List<scalar> 
2200
(
0.830976
0.815755
0.798274
0.781982
0.767531
0.755498
0.745854
0.738366
0.732978
0.730003
0.730386
0.734028
0.739915
0.747773
0.757682
0.769903
0.784483
0.800868
0.818393
0.833628
0.774663
0.770741
0.765742
0.760166
0.753886
0.74728
0.740856
0.735162
0.730775
0.728303
0.728685
0.731846
0.736769
0.74287
0.749583
0.756401
0.76283
0.768487
0.773526
0.777471
0.733144
0.732835
0.733785
0.735098
0.735542
0.734501
0.732216
0.729334
0.726648
0.725017
0.725435
0.727826
0.731108
0.734441
0.737064
0.73833
0.738032
0.736809
0.735956
0.736305
0.708002
0.70903
0.711438
0.714764
0.717992
0.720285
0.721363
0.721366
0.720753
0.720315
0.720803
0.722114
0.723407
0.723905
0.723213
0.721213
0.718198
0.714995
0.712657
0.711663
0.693141
0.694596
0.697347
0.700878
0.704492
0.707786
0.71042
0.712192
0.713224
0.713949
0.714513
0.714809
0.714589
0.713447
0.711268
0.708314
0.704952
0.70159
0.698924
0.697495
0.68554
0.686847
0.689122
0.691981
0.694981
0.697913
0.700685
0.703121
0.705012
0.706331
0.707021
0.706962
0.706042
0.704335
0.702102
0.699564
0.696851
0.694188
0.692018
0.690739
0.681826
0.682728
0.684244
0.686222
0.688329
0.690441
0.692679
0.695106
0.697339
0.698901
0.699768
0.699732
0.698668
0.697119
0.695536
0.693918
0.692158
0.6904
0.689001
0.688128
0.67918
0.67976
0.68069
0.681956
0.683355
0.684788
0.686314
0.68813
0.690183
0.691934
0.692987
0.693071
0.692467
0.691767
0.691062
0.690207
0.689226
0.688238
0.687443
0.686887
0.676129
0.676518
0.677131
0.677993
0.678982
0.680018
0.681041
0.682156
0.68383
0.68588
0.687142
0.68738
0.687492
0.687702
0.687664
0.687368
0.686908
0.686377
0.685916
0.685551
0.672241
0.672524
0.673
0.673711
0.674552
0.675464
0.676434
0.677498
0.679127
0.681429
0.68297
0.68347
0.684012
0.684588
0.684856
0.68486
0.684639
0.684311
0.684016
0.683762
0.667703
0.667922
0.668376
0.669108
0.670005
0.671035
0.672322
0.673858
0.675591
0.677715
0.679584
0.680789
0.68172
0.682265
0.682561
0.682697
0.682505
0.682259
0.682032
0.681841
0.662766
0.662934
0.663385
0.664229
0.665391
0.666806
0.668512
0.67042
0.672229
0.674206
0.676491
0.678587
0.680017
0.680651
0.68087
0.680889
0.680695
0.680486
0.680298
0.680153
0.657664
0.657793
0.658231
0.659137
0.660539
0.662356
0.664459
0.666699
0.668946
0.671448
0.674283
0.676861
0.678567
0.679385
0.679622
0.679543
0.679416
0.679268
0.679121
0.679014
0.652248
0.652347
0.652765
0.65367
0.655141
0.657146
0.659529
0.662247
0.665399
0.668894
0.672337
0.675074
0.676805
0.677844
0.678421
0.678641
0.678664
0.678614
0.678536
0.678461
0.64626
0.646333
0.646721
0.647606
0.649066
0.651024
0.653474
0.656663
0.660717
0.66513
0.669378
0.672658
0.674757
0.676325
0.677494
0.678189
0.678483
0.67861
0.678615
0.678557
0.639728
0.639719
0.640111
0.641061
0.642541
0.644481
0.647029
0.650505
0.654983
0.66009
0.665519
0.670073
0.673262
0.675683
0.677442
0.678513
0.679101
0.679393
0.679461
0.679419
0.632608
0.632628
0.633023
0.63407
0.635747
0.638032
0.640994
0.644794
0.649624
0.655575
0.662413
0.668511
0.673029
0.676276
0.678506
0.679937
0.680822
0.681254
0.681375
0.681348
0.624507
0.624559
0.625001
0.62624
0.628336
0.631239
0.63497
0.639687
0.645533
0.652859
0.661117
0.66847
0.674033
0.678
0.680774
0.68266
0.683817
0.684381
0.684555
0.684534
0.615173
0.61522
0.615769
0.617227
0.619714
0.623252
0.627967
0.634015
0.641561
0.650886
0.660887
0.669521
0.67608
0.680866
0.684277
0.686609
0.68803
0.688766
0.689009
0.688988
0.60398
0.604018
0.604662
0.606376
0.609327
0.613491
0.619068
0.626448
0.635934
0.647666
0.660106
0.670751
0.678774
0.684615
0.68884
0.691756
0.693566
0.694517
0.694831
0.694803
0.590545
0.590558
0.591249
0.593194
0.596594
0.601473
0.60816
0.617126
0.628752
0.643284
0.658832
0.672117
0.682055
0.689325
0.694574
0.698234
0.700534
0.701732
0.702116
0.702072
0.573728
0.573832
0.574737
0.577054
0.581201
0.587322
0.595763
0.60699
0.621461
0.63944
0.658543
0.674636
0.686578
0.695352
0.701741
0.706225
0.709073
0.710524
0.710956
0.710883
0.552339
0.55245
0.553687
0.556854
0.562396
0.570484
0.581563
0.596146
0.614623
0.636923
0.659943
0.67888
0.692838
0.703039
0.710481
0.715765
0.719125
0.720797
0.721261
0.721154
0.52441
0.524706
0.526565
0.531001
0.538698
0.549849
0.564826
0.584043
0.60764
0.635153
0.662567
0.684516
0.700501
0.712275
0.720907
0.726976
0.730794
0.732644
0.733115
0.732976
0.487326
0.48802
0.491076
0.49787
0.509146
0.524896
0.545245
0.570408
0.600155
0.63355
0.665725
0.690963
0.709267
0.722765
0.732716
0.739751
0.744086
0.746075
0.746517
0.746308
0.437712
0.438922
0.444483
0.455879
0.473258
0.495959
0.523582
0.556148
0.593011
0.632685
0.669718
0.698415
0.719187
0.734646
0.746086
0.754048
0.758781
0.760782
0.761105
0.760841
0.373805
0.377553
0.389041
0.408097
0.433784
0.465243
0.501705
0.5427
0.587192
0.633535
0.675841
0.708564
0.732656
0.750736
0.764057
0.773271
0.778628
0.780818
0.781185
0.780996
0.302163
0.311506
0.331535
0.35998
0.395022
0.435655
0.481116
0.53044
0.582323
0.635433
0.683662
0.721189
0.749242
0.770588
0.786414
0.797205
0.803345
0.805863
0.806358
0.806352
0.236296
0.249911
0.276694
0.313817
0.358189
0.408046
0.462138
0.519168
0.578002
0.63778
0.691788
0.733589
0.764721
0.788674
0.806637
0.819084
0.826466
0.829771
0.830629
0.830638
0.183434
0.198017
0.228806
0.272482
0.324576
0.382509
0.444398
0.508542
0.573939
0.639823
0.699051
0.744996
0.779129
0.805014
0.824645
0.838571
0.846934
0.850636
0.851606
0.851627
0.139582
0.154765
0.18842
0.236837
0.294822
0.359206
0.427668
0.498091
0.56933
0.640758
0.705462
0.7559
0.792395
0.819702
0.840537
0.855374
0.864175
0.868055
0.869142
0.869217
0.102041
0.11804
0.154053
0.206042
0.268452
0.337858
0.411701
0.487651
0.564377
0.641438
0.71141
0.765512
0.803977
0.832424
0.853933
0.869074
0.878134
0.882272
0.883497
0.883607
0.0689484
0.0856593
0.123839
0.17892
0.244877
0.318304
0.396582
0.477353
0.559189
0.641431
0.715922
0.772864
0.813008
0.842563
0.864497
0.879875
0.889262
0.893674
0.89509
0.895256
0.0392777
0.0565584
0.0966487
0.154464
0.223441
0.300235
0.38216
0.466938
0.553386
0.640669
0.719629
0.778659
0.820077
0.850525
0.873047
0.88893
0.898733
0.903495
0.905046
0.905202
0.0121048
0.0298756
0.0716814
0.131998
0.203681
0.283353
0.368293
0.45652
0.547198
0.639329
0.721992
0.782934
0.825822
0.857185
0.880341
0.89674
0.907037
0.911974
0.913457
0.91346
-0.0132581
0.00495563
0.0483149
0.110959
0.18511
0.267299
0.354849
0.44615
0.540497
0.636924
0.723322
0.786765
0.830922
0.863318
0.886975
0.903661
0.91408
0.91909
0.920487
0.920392
-0.0371901
-0.0184993
0.0262139
0.0909074
0.167277
0.251744
0.341651
0.435651
0.533328
0.633849
0.724091
0.789835
0.835933
0.86948
0.893418
0.910175
0.920487
0.925402
0.926844
0.926805
-0.0599826
-0.0408153
0.00510155
0.071627
0.15001
0.236544
0.328543
0.424917
0.525707
0.629921
0.723574
0.792457
0.841257
0.875603
0.899956
0.916653
0.926774
0.931611
0.932972
0.932945
-0.0818502
-0.0622325
-0.0152578
0.0529252
0.133142
0.22152
0.315367
0.413846
0.517307
0.624977
0.72263
0.795801
0.846874
0.882243
0.906783
0.923294
0.933236
0.93784
0.939139
0.9391
-0.102993
-0.0829983
-0.0350656
0.0346335
0.116528
0.206597
0.302127
0.402401
0.508134
0.619083
0.721084
0.798641
0.852604
0.889308
0.914012
0.930297
0.939825
0.944189
0.945317
0.945206
-0.123606
-0.103279
-0.0544519
0.0166629
0.10012
0.191724
0.288718
0.390482
0.49814
0.611987
0.718313
0.800705
0.858318
0.896821
0.922029
0.937858
0.946651
0.950378
0.951225
0.951045
-0.143831
-0.123179
-0.0734697
-0.00100307
0.0839011
0.176854
0.275087
0.378163
0.48751
0.603944
0.714001
0.801351
0.863332
0.905086
0.931516
0.946595
0.953943
0.956579
0.956833
0.956512
-0.163688
-0.142718
-0.0921366
-0.0183726
0.0678786
0.162018
0.261297
0.365515
0.476326
0.594828
0.708053
0.800202
0.867353
0.91386
0.942846
0.957678
0.962826
0.962965
0.961972
0.961593
-0.183134
-0.161874
-0.110424
-0.0353972
0.0521041
0.147252
0.247384
0.352626
0.464787
0.584925
0.700677
0.79689
0.869657
0.922194
0.955877
0.972315
0.975008
0.970855
0.966943
0.966253
-0.202073
-0.180569
-0.128262
-0.052014
0.0366452
0.132599
0.23339
0.339586
0.453004
0.574412
0.692135
0.791829
0.869945
0.929023
0.969528
0.990787
0.993471
0.983542
0.973329
0.969919
-0.220435
-0.198706
-0.145539
-0.0681247
0.0215638
0.118075
0.219335
0.326451
0.44108
0.563576
0.682766
0.785142
0.867649
0.933187
0.981791
1.01139
1.01933
1.0061
0.981315
0.955682
-0.238111
-0.216186
-0.162192
-0.0837703
0.00667263
0.103459
0.204994
0.31295
0.42876
0.552296
0.672616
0.776934
0.862612
0.933764
0.990727
1.03034
1.04796
1.04261
1.0432
1.05346
-0.255041
-0.233006
-0.178288
-0.0990885
-0.00826359
0.088452
0.190042
0.298683
0.415562
0.540023
0.661115
0.766342
0.853801
0.928787
0.991747
1.03828
1.05901
1.05028
1.01988
1.01434
-0.271198
-0.24918
-0.193833
-0.114011
-0.0231147
0.0731922
0.174633
0.283804
0.401517
0.526595
0.648139
0.753224
0.840427
0.915564
0.978353
1.02078
1.02169
0.983661
0.936749
0.920112
-0.286521
-0.264759
-0.20887
-0.128532
-0.0378629
0.0577055
0.158829
0.268364
0.386554
0.511876
0.633376
0.736871
0.821267
0.890923
0.943346
0.959899
0.940223
0.879194
0.815154
0.798673
-0.300937
-0.279772
-0.223438
-0.142728
-0.0525844
0.0420009
0.142703
0.252435
0.370709
0.49577
0.616379
0.716784
0.794826
0.852869
0.883081
0.877112
0.828993
0.742101
0.665032
0.650147
-0.314841
-0.294434
-0.237958
-0.157248
-0.0678596
0.0257548
0.126073
0.235806
0.353726
0.477906
0.596596
0.692365
0.761411
0.802628
0.802803
0.777982
0.680895
0.576999
0.491415
0.478702
-0.329182
-0.309242
-0.253226
-0.17315
-0.084549
0.00847257
0.108601
0.218129
0.335276
0.457983
0.574016
0.663186
0.719866
0.738979
0.716278
0.645246
0.520618
0.395871
0.291316
0.275192
-0.344542
-0.324711
-0.269608
-0.190709
-0.102806
-0.00990911
0.0902425
0.199326
0.315236
0.435819
0.548308
0.630011
0.670908
0.664201
0.625669
0.504725
0.349354
0.183435
0.0466016
0.0230778
-0.361106
-0.341257
-0.28714
-0.209581
-0.122266
-0.0292142
0.0710366
0.179445
0.293707
0.411559
0.519319
0.592945
0.615503
0.580517
0.508037
0.357391
0.176517
-0.031985
-0.232329
-0.309685
-0.379082
-0.359182
-0.305884
-0.229481
-0.14264
-0.0493857
0.0509032
0.158414
0.270636
0.385168
0.48745
0.552011
0.554974
0.490054
0.367762
0.20546
0.0170225
-0.248591
-0.665768
-0.994197
-0.398628
-0.378619
-0.325861
-0.250262
-0.163732
-0.0703263
0.0298769
0.13635
0.246267
0.357004
0.453279
0.507935
0.492151
0.404831
0.224244
0.0389941
-0.130297
-0.376023
-0.882377
-1.67937
-0.419821
-0.399608
-0.34713
-0.272039
-0.185713
-0.0922527
0.00768714
0.112921
0.220274
0.326752
0.416879
0.460716
0.426492
0.326559
0.10072
-0.101682
-0.245454
-0.378424
-0.560063
-0.849823
-0.442655
-0.4222
-0.369889
-0.295207
-0.209086
-0.115735
-0.0163374
0.0873261
0.19168
0.293163
0.377076
0.409885
0.359539
0.24547
0.00556187
-0.184738
-0.300112
-0.361209
-0.402212
-0.434454
-0.467063
-0.446382
-0.394188
-0.319866
-0.234007
-0.140946
-0.0423697
0.0594104
0.160418
0.256605
0.333836
0.35565
0.29562
0.164881
-0.0637333
-0.228208
-0.317789
-0.343145
-0.370611
-0.375311
-0.492907
-0.472073
-0.419988
-0.346036
-0.260535
-0.167966
-0.0704485
0.0292044
0.126517
0.216955
0.286773
0.298654
0.23687
0.0844974
-0.118071
-0.247897
-0.309062
-0.330421
-0.337368
-0.33754
-0.520028
-0.499078
-0.447141
-0.373599
-0.288579
-0.196697
-0.100495
-0.0031975
0.0902124
0.174839
0.236574
0.239027
0.182085
0.00638057
-0.163631
-0.259607
-0.290074
-0.31579
-0.317665
-0.31727
-0.548165
-0.527085
-0.475338
-0.402323
-0.317966
-0.226998
-0.132284
-0.0375317
0.0516935
0.130695
0.184711
0.179306
0.123657
-0.0548555
-0.20237
-0.27975
-0.292444
-0.301791
-0.305199
-0.305775
-0.576763
-0.555646
-0.504196
-0.431849
-0.348362
-0.258542
-0.165531
-0.0734087
0.0116776
0.085328
0.13152
0.11909
0.0616848
-0.100953
-0.224739
-0.290961
-0.310729
-0.299266
-0.295441
-0.294664
-0.605047
-0.58407
-0.533044
-0.46162
-0.37936
-0.291017
-0.199833
-0.11022
-0.0289997
0.0392389
0.0776505
0.058278
-0.00475928
-0.134409
-0.223889
-0.271477
-0.302537
-0.288022
-0.279379
-0.276758
-0.631998
-0.611453
-0.561208
-0.49098
-0.410329
-0.323882
-0.234763
-0.147484
-0.0693938
-0.00700269
0.0215184
-0.00404724
-0.0734255
-0.161538
-0.215334
-0.232327
-0.253496
-0.261744
-0.260959
-0.258308
-0.656395
-0.636606
-0.587593
-0.51901
-0.440515
-0.356539
-0.269889
-0.184755
-0.108911
-0.051598
-0.0346779
-0.0694615
-0.138816
-0.190974
-0.213504
-0.216801
-0.231627
-0.252227
-0.262382
-0.26374
-0.676867
-0.65828
-0.611191
-0.544752
-0.468856
-0.388021
-0.30453
-0.221729
-0.146919
-0.0925908
-0.0867043
-0.137235
-0.210956
-0.240358
-0.235472
-0.247459
-0.264093
-0.284403
-0.296763
-0.300471
-0.692054
-0.675193
-0.630724
-0.566942
-0.494052
-0.416977
-0.337711
-0.258109
-0.183578
-0.128011
-0.12883
-0.202147
-0.297237
-0.339767
-0.347427
-0.365461
-0.368182
-0.370793
-0.371204
-0.373462
-0.700825
-0.686254
-0.645193
-0.584391
-0.514552
-0.44161
-0.367522
-0.292798
-0.219242
-0.15804
-0.154223
-0.250452
-0.390059
-0.502729
-0.564876
-0.600337
-0.591167
-0.554385
-0.525684
-0.513567
-0.702541
-0.690668
-0.653305
-0.595589
-0.528776
-0.459876
-0.391465
-0.32343
-0.253826
-0.184788
-0.161326
-0.264095
-0.449075
-0.642463
-0.769652
-0.816995
-0.807578
-0.76806
-0.721495
-0.688473
-0.69669
-0.686602
-0.653051
-0.599071
-0.535604
-0.470219
-0.406663
-0.345785
-0.284108
-0.211051
-0.155081
-0.228317
-0.413705
-0.645045
-0.812775
-0.863197
-0.858157
-0.8255
-0.783499
-0.751901
-0.678807
-0.669926
-0.641647
-0.593679
-0.534782
-0.472246
-0.411371
-0.354722
-0.300847
-0.231899
-0.139449
-0.136989
-0.247863
-0.425181
-0.593414
-0.647289
-0.632472
-0.58699
-0.539114
-0.505574
-0.643235
-0.636447
-0.617693
-0.579686
-0.527205
-0.466941
-0.405549
-0.34764
-0.294071
-0.231167
-0.116375
-0.00842577
0.0286624
0.00260923
-0.0449317
-0.0231139
0.0419431
0.110361
0.162421
0.192483
-0.598897
-0.596407
-0.587257
-0.559279
-0.514306
-0.456768
-0.391717
-0.326274
-0.26318
-0.193545
-0.0745786
0.116505
0.318672
0.531348
0.687371
0.842886
0.984031
1.09338
1.16583
1.19621
-0.56392
-0.56412
-0.55773
-0.537331
-0.498948
-0.443335
-0.373257
-0.295895
-0.216062
-0.126373
-0.00113174
0.208361
0.497302
0.844204
1.19079
1.48075
1.69451
1.83789
1.91563
1.94016
-0.533108
-0.533014
-0.529068
-0.51677
-0.484635
-0.429782
-0.354255
-0.265622
-0.169713
-0.0637231
0.0629462
0.249704
0.523988
0.852138
1.21389
1.54203
1.78077
1.92478
1.99478
2.01618
-0.508653
-0.508319
-0.50808
-0.500623
-0.471736
-0.416141
-0.336102
-0.239545
-0.135346
-0.026593
0.0901205
0.243085
0.473726
0.749443
1.04605
1.3244
1.5417
1.67874
1.74386
1.76274
-0.493464
-0.493936
-0.496493
-0.490334
-0.460011
-0.399635
-0.31588
-0.217242
-0.115232
-0.0165393
0.0817175
0.198914
0.377617
0.594911
0.812052
1.00913
1.16663
1.27086
1.3216
1.33648
-0.470305
-0.471936
-0.476352
-0.470286
-0.438521
-0.37637
-0.293566
-0.199299
-0.104252
-0.0206078
0.0512636
0.135646
0.266567
0.428612
0.58558
0.717583
0.819028
0.887808
0.921439
0.929936
-0.426669
-0.428871
-0.432544
-0.426324
-0.396294
-0.338411
-0.2647
-0.183688
-0.0991725
-0.0251526
0.0201713
0.0648368
0.154395
0.275151
0.394125
0.489429
0.560001
0.608609
0.635381
0.645348
-0.354407
-0.356931
-0.360164
-0.355289
-0.329329
-0.280733
-0.225028
-0.167092
-0.100712
-0.0306979
0.0085312
0.0114238
0.0585694
0.155093
0.254964
0.334774
0.393979
0.435573
0.45905
0.465621
-0.258288
-0.260497
-0.263049
-0.26017
-0.242133
-0.209315
-0.175849
-0.143575
-0.100235
-0.0399185
0.00594974
0.00508867
0.0202423
0.0931435
0.174849
0.24157
0.291947
0.32709
0.346233
0.350807
-0.156445
-0.15799
-0.15992
-0.1595
-0.151379
-0.135744
-0.120828
-0.106895
-0.0831653
-0.0417358
0.00432488
0.0215294
0.0371167
0.0857111
0.143606
0.19194
0.227725
0.251071
0.261661
0.263237
-0.0685153
-0.0695815
-0.0713897
-0.073357
-0.073096
-0.0700389
-0.0660484
-0.0609845
-0.0484452
-0.0246002
0.00919066
0.0386182
0.0637819
0.0990998
0.136418
0.164321
0.18207
0.191063
0.192589
0.190843
-0.00596267
-0.00671049
-0.00851746
-0.0117891
-0.0163759
-0.0203745
-0.0210267
-0.0192165
-0.0122972
0.00217288
0.0201012
0.0424037
0.0684072
0.100371
0.125864
0.138588
0.141464
0.139613
0.135702
0.13303
0.0313221
0.0307244
0.0288359
0.0247811
0.0183559
0.0112862
0.00762177
0.0072385
0.0084929
0.017493
0.0257569
0.0279369
0.0478148
0.0767645
0.0994558
0.10656
0.101636
0.0988288
0.095318
0.0932724
0.0494181
0.0489579
0.0472235
0.0431041
0.0364136
0.0280422
0.0219564
0.0190626
0.0143484
0.0175031
0.0270205
0.0114448
0.0178096
0.0395349
0.0611189
0.0692523
0.0670921
0.0672776
0.0664701
0.0654588
0.0557539
0.0554093
0.0539803
0.0502086
0.0441072
0.0360616
0.029126
0.0249997
0.0175576
0.0152517
0.0275485
0.00885946
-0.000402615
0.0138264
0.0312253
0.0388494
0.0414436
0.043644
0.0440035
0.0434271
0.0558801
0.0556359
0.0546184
0.0516556
0.0466812
0.0399357
0.0336493
0.0297689
0.023553
0.0179484
0.0276916
0.015959
0.00326542
0.0131932
0.0258769
0.0302126
0.0329237
0.0349465
0.0341394
0.0326646
0.0534831
0.0533047
0.0526197
0.0505396
0.0467797
0.0416687
0.0365934
0.0329955
0.029108
0.0223084
0.0288228
0.0226793
0.0172888
0.026513
0.0356073
0.0369479
0.0344696
0.0321484
0.0301667
0.0284864
0.0501087
0.0499704
0.0495062
0.0482083
0.0456552
0.0421468
0.0383706
0.0350807
0.0325167
0.025389
0.0307568
0.0267829
0.0265991
0.036352
0.0428152
0.0409632
0.0356996
0.0298578
0.0274906
0.0267829
0.0466005
0.0464853
0.0461024
0.0452462
0.0435925
0.0413948
0.038526
0.0356907
0.0347099
0.0283098
0.0326754
0.028691
0.0296738
0.0377578
0.0441944
0.0402762
0.0376071
0.0366262
0.0357248
0.0351371
0.0432743
0.0431859
0.0428847
0.0422337
0.0410415
0.0397663
0.0374669
0.0345204
0.0345713
0.0317664
0.0351299
0.0313745
0.0302561
0.0373745
0.0453105
0.04579
0.0471613
0.0505522
0.051358
0.0503345
0.0403318
0.0402625
0.0400371
0.0395282
0.0386141
0.03785
0.0362881
0.0333741
0.0333259
0.0329437
0.035917
0.0350972
0.0328506
0.0397585
0.0489012
0.0540432
0.0579589
0.0602346
0.0610719
0.0602936
0.0376403
0.0376061
0.0375488
0.0372634
0.0366076
0.0361855
0.0355204
0.0333143
0.032794
0.0319548
0.0336255
0.0363891
0.0359035
0.0417268
0.0503924
0.0556439
0.0583683
0.0577305
0.0573292
0.0573641
0.0346942
0.0346551
0.03468
0.0346075
0.0343953
0.034383
0.034515
0.0335553
0.0330731
0.0316121
0.0313347
0.034997
0.0361822
0.0404769
0.0479671
0.0518463
0.0531688
0.0547727
0.0559816
0.0558175
0.0313753
0.0313624
0.0314924
0.0317019
0.031911
0.0320777
0.0327726
0.0322104
0.030529
0.0308686
0.030129
0.0334512
0.0355551
0.0417562
0.0493638
0.0531776
0.0616809
0.0697308
0.0726956
0.0715963
0.0266392
0.0266753
0.0268705
0.0273403
0.0282125
0.0287831
0.0290598
0.0295015
0.0299129
0.031049
0.0281768
0.0323235
0.0339181
0.0450481
0.0534482
0.0619992
0.080325
0.0916635
0.0920008
0.0892594
0.0207321
0.0207051
0.0208459
0.0213404
0.022511
0.0242961
0.0258248
0.027554
0.0268817
0.0291118
0.0274153
0.0315595
0.0277411
0.0375064
0.0462804
0.054184
0.0622107
0.0669695
0.065946
0.0637846
0.0141952
0.014114
0.0142853
0.0149128
0.0158502
0.0174745
0.0194762
0.0214659
0.0202008
0.0209029
0.0227118
0.0341272
0.0226239
0.0194624
0.0171534
0.0161381
0.0128578
0.0102968
0.0119794
0.0132735
0.00503023
0.00484208
0.00433408
0.00330939
0.00258613
0.00247394
0.00330358
0.00521823
0.00541333
0.00609493
0.019264
0.0308832
0.0170623
0.00790569
0.00195603
-0.00570419
-0.0112376
-0.0136068
-0.0104037
-0.00810215
-0.535501
-0.0665063
0.217071
0.431231
0.60484
0.747882
0.865108
0.964461
1.04222
1.07443
0.145823
0.36439
0.484603
0.608994
0.729512
0.830884
0.905813
0.948226
0.946669
0.945859
0.424357
0.560646
0.658499
0.745576
0.823524
0.888083
0.934216
0.957702
0.964215
0.999912
0.61702
0.708271
0.785881
0.850149
0.902876
0.945294
0.977871
1.00263
1.02276
1.05547
0.770828
0.830096
0.888351
0.935706
0.974243
1.00592
1.03295
1.05777
1.08265
1.10774
0.895547
0.936644
0.978276
1.014
1.04425
1.07048
1.09448
1.11771
1.14039
1.15917
1.00252
1.03063
1.06133
1.08901
1.1138
1.1365
1.15795
1.17845
1.19772
1.21361
1.09653
1.11617
1.1401
1.16308
1.18424
1.20386
1.2224
1.24012
1.25682
1.27043
1.18201
1.19948
1.21914
1.23766
1.2551
1.27176
1.28781
1.30321
1.31775
1.33001
1.26588
1.27953
1.29628
1.31241
1.32758
1.34189
1.35552
1.36866
1.38124
1.39173
1.35307
1.36162
1.37467
1.38868
1.40205
1.41442
1.42594
1.43678
1.44712
1.45618
1.44132
1.44693
1.4568
1.46859
1.48013
1.49051
1.49967
1.508
1.51598
1.52307
1.53311
1.53665
1.54356
1.55174
1.55994
1.56776
1.57495
1.58142
1.58756
1.59338
1.62904
1.62931
1.63116
1.63402
1.63768
1.64235
1.64817
1.65492
1.66185
1.66789
1.73094
1.72218
1.71274
1.70554
1.70219
1.70368
1.71033
1.72156
1.73586
1.74932
1.83754
1.80048
1.76964
1.75065
1.74172
1.74131
1.74945
1.76855
1.79994
1.83881
)
;

boundaryField
{
    wall-4
    {
        type            zeroGradient;
    }
    pressure-outlet-7
    {
        type            fixedValue;
        value           uniform 0;
    }
    velocity-inlet-6
    {
        type            zeroGradient;
    }
    velocity-inlet-5
    {
        type            zeroGradient;
    }
    frontAndBackPlanes
    {
        type            empty;
    }
}


// ************************************************************************* //
