/*--------------------------------*- C++ -*----------------------------------*\
  =========                 |
  \\      /  F ield         | OpenFOAM: The Open Source CFD Toolbox
   \\    /   O peration     | Website:  https://openfoam.org
    \\  /    A nd           | Version:  6
     \\/     M anipulation  |
\*---------------------------------------------------------------------------*/
FoamFile
{
    version     2.0;
    format      ascii;
    class       surfaceScalarField;
    location    "17";
    object      phi;
}
// * * * * * * * * * * * * * * * * * * * * * * * * * * * * * * * * * * * * * //

dimensions      [0 3 -1 0 0 0 0];

internalField   nonuniform List<scalar> 
17370
(
-0.0899956
0.0898397
0.289167
-0.0714479
0.0537317
0.364492
-0.0380957
0.0276725
0.426591
-0.0196347
0.0146121
0.504274
-0.0107658
0.00825321
0.601915
-0.00622054
0.00482723
0.720451
-0.00366935
0.00285154
0.863724
-0.00213956
0.00160281
1.03599
-0.00110453
0.000708158
1.2429
-0.000319424
-6.2091e-05
1.49157
0.000422909
-0.000815237
1.49158
0.00120711
-0.00169824
1.24318
0.00222487
-0.00292556
1.03634
0.00373583
-0.00488823
0.864059
0.00627851
-0.00830704
0.721086
0.010813
-0.0146523
0.603054
0.0196696
-0.0277029
0.507473
0.0381227
-0.0537548
0.4318
0.0714671
-0.0898525
0.365161
0.0900034
0.199007
-0.128148
0.0882551
0.0398931
-0.364611
0.353405
-0.07463
0.0858363
-0.446488
0.454331
-0.084325
0.0764818
-0.521207
0.529961
-0.0683734
0.0596189
-0.612755
0.621582
-0.0513824
0.0425554
-0.726844
0.734059
-0.0350794
0.0278643
-0.86749
0.872475
-0.0223594
0.0173748
-1.03846
1.04184
-0.0136518
0.0102704
-1.24459
1.24699
-0.00769539
0.0052889
-1.49266
1.49462
-0.00334695
0.0013842
-1.49245
1.49417
0.000288148
-0.0020075
-1.24397
1.24588
0.00393421
-0.0058457
-1.03748
1.04002
0.00821466
-0.0107538
-0.866112
0.869792
0.0140914
-0.0177714
-0.724387
0.729858
0.0227105
-0.0281816
-0.60866
0.616114
0.0353716
-0.0428262
-0.514921
0.523129
0.0516245
-0.0598329
-0.439891
0.447977
0.0685573
-0.0766429
-0.375318
0.376799
0.084461
-0.0859424
-0.257371
0.222591
0.0747018
-0.039921
-0.0685718
0.0587752
0.00979656
-0.0516555
0.0582059
-0.374159
0.367609
-0.057278
0.053549
-0.453587
0.457316
-0.0485438
0.0446661
-0.527958
0.531836
-0.0408632
0.0372058
-0.621578
0.625236
-0.0330224
0.0288524
-0.735276
0.739446
-0.0242023
0.020001
-0.874159
0.87836
-0.0156777
0.0120559
-1.04333
1.04695
-0.00849584
0.00550884
-1.24849
1.25148
-0.00240917
-0.000515247
-1.4966
1.49952
0.00340844
-0.00647797
-1.4972
1.50027
0.00942074
-0.012925
-1.24999
1.2535
0.016491
-0.0207588
-1.0458
1.05007
0.0249123
-0.0295054
-0.877703
0.882296
0.0336155
-0.0377321
-0.74
0.744117
0.0413397
-0.0450934
-0.626882
0.630635
0.0489296
-0.0538956
-0.534887
0.539853
0.0575818
-0.0584564
-0.457561
0.458435
0.0518442
-0.0317981
-0.335949
0.315903
0.00982755
-0.0684874
0.0586598
-0.0530597
0.0491234
0.00393633
-0.0327606
0.0431469
-0.358262
0.347876
-0.0467059
0.045954
-0.459296
0.460048
-0.0427501
0.0392856
-0.535716
0.539181
-0.0354704
0.0322245
-0.628491
0.631736
-0.028928
0.0260445
-0.742615
0.745499
-0.0229601
0.0200351
-0.881875
0.8848
-0.0167442
0.0135963
-1.05048
1.05363
-0.0100411
0.0066873
-1.25477
1.25812
-0.00288245
-0.000805434
-1.50287
1.50656
0.00447406
-0.00821923
-1.50376
1.50751
0.0114998
-0.0149572
-1.25717
1.26063
0.0180093
-0.0211949
-1.05387
1.05706
0.0240267
-0.02701
-0.88582
0.888803
0.0298088
-0.0330198
-0.747377
0.750588
0.0361865
-0.0399261
-0.634426
0.638166
0.0433309
-0.0464672
-0.544242
0.547378
0.0471499
-0.0434966
-0.456862
0.453209
0.033001
-0.0158884
-0.296773
0.279661
0.00397213
-0.0529111
0.048939
-0.0461138
0.0436979
0.00241586
-0.0221902
0.0323259
-0.337357
0.327221
-0.03803
0.0390649
-0.459791
0.458756
-0.0379432
0.0357313
-0.541976
0.544188
-0.0330866
0.0304749
-0.63475
0.637362
-0.0274373
0.024626
-0.748381
0.751192
-0.0215148
0.0186984
-0.887583
0.8904
-0.0155731
0.0126296
-1.05659
1.05954
-0.00929043
0.00611479
-1.2614
1.26457
-0.00246425
-0.00104811
-1.51024
1.51376
0.00454944
-0.00814187
-1.51124
1.51483
0.0112389
-0.0144703
-1.26393
1.26716
0.0172959
-0.0202837
-1.06005
1.06304
0.0229749
-0.0259565
-0.891747
0.894728
0.028661
-0.0315921
-0.753747
0.756678
0.0341079
-0.0366456
-0.641375
0.643913
0.0387659
-0.0397763
-0.549346
0.550356
0.0386328
-0.0327813
-0.448157
0.442306
0.0224911
-0.00977753
-0.264833
0.252119
0.00246068
-0.0458885
0.0434278
-0.0417205
0.0400735
0.00164702
-0.0157089
0.0244425
-0.317752
0.309018
-0.0306455
0.0326146
-0.45718
0.455211
-0.0322008
0.0306679
-0.545953
0.547486
-0.0287072
0.0267993
-0.639539
0.641447
-0.0245398
0.0223104
-0.753745
0.755974
-0.0196593
0.0171141
-0.89315
0.895695
-0.0142002
0.0114824
-1.0624
1.06512
-0.00838099
0.00541724
-1.26766
1.27062
-0.0019641
-0.00144085
-1.51721
1.52061
0.0048046
-0.00814857
-1.5183
1.52165
0.0109823
-0.0139177
-1.27026
1.2732
0.016474
-0.0192071
-1.06595
1.06868
0.0215891
-0.0240696
-0.897528
0.900008
0.0261543
-0.0282426
-0.759177
0.761265
0.0300078
-0.0318368
-0.645975
0.647804
0.0332601
-0.0335417
-0.550863
0.551145
0.0314216
-0.025013
-0.436088
0.429679
0.0160771
-0.00673775
-0.24125
0.23191
0.00170094
-0.0414021
0.0397011
-0.0386984
0.0375641
0.00113426
-0.0111139
0.0181854
-0.301077
0.294005
-0.0242388
0.0268472
-0.452889
0.45028
-0.0269813
0.0258859
-0.548848
0.549944
-0.0240633
0.0223721
-0.643213
0.644904
-0.0205161
0.01876
-0.75793
0.759686
-0.016741
0.0147316
-0.897979
0.899988
-0.012345
0.00997803
-1.06768
1.07005
-0.00719583
0.00447422
-1.27345
1.27617
-0.00128303
-0.00185307
-1.52389
1.52702
0.00494964
-0.00803005
-1.52485
1.52793
0.0105988
-0.013183
-1.27597
1.27856
0.0153528
-0.0175089
-1.07117
1.07332
0.0192986
-0.0210683
-0.902126
0.903896
0.0226101
-0.024263
-0.763108
0.764761
0.0257855
-0.0274347
-0.649546
0.651195
0.0283503
-0.0280127
-0.551159
0.550821
0.0251865
-0.0188657
-0.423214
0.416893
0.0115507
-0.00474361
-0.223901
0.217094
0.00119943
-0.0382662
0.0370667
-0.036626
0.0358547
0.000771317
-0.00750736
0.0128331
-0.287818
0.282492
-0.0181207
0.0209323
-0.447522
0.44471
-0.0216517
0.0211817
-0.550718
0.551188
-0.0198517
0.0185131
-0.646492
0.647831
-0.0170047
0.0155348
-0.761296
0.762766
-0.013809
0.0121226
-0.901769
0.903456
-0.0101191
0.00811689
-1.07219
1.0742
-0.0057145
0.00331339
-1.27875
1.28115
-0.000471412
-0.00230271
-1.53
1.53277
0.00503005
-0.0077306
-1.53084
1.53354
0.00993217
-0.0120659
-1.2809
1.28303
0.0137992
-0.0154973
-1.07518
1.07688
0.0169065
-0.0183527
-0.905452
0.906899
0.0195671
-0.0208361
-0.766257
0.767526
0.0219661
-0.0230726
-0.652653
0.65376
0.0233288
-0.0223596
-0.550157
0.549188
0.0192755
-0.0136547
-0.410885
0.405264
0.0080338
-0.00326847
-0.211352
0.206587
0.000851761
-0.0360565
0.0352048
-0.0352609
0.0348597
0.000401206
-0.00415447
0.0077152
-0.278038
0.274478
-0.0119763
0.0147926
-0.441873
0.439057
-0.0161059
0.0162424
-0.55136
0.551223
-0.0157231
0.0149914
-0.648832
0.649564
-0.0139809
0.0128874
-0.764064
0.765158
-0.0114961
0.01003
-0.905079
0.906545
-0.00821208
0.00639331
-1.07613
1.07794
-0.00421094
0.00206406
-1.2834
1.28555
0.000490185
-0.00300736
-1.53538
1.5379
0.00545507
-0.00781212
-1.53604
1.5384
0.00970864
-0.0115652
-1.28503
1.28689
0.013058
-0.0144942
-1.0785
1.07994
0.0156207
-0.0166607
-0.908193
0.909232
0.0173963
-0.0180108
-0.768457
0.769071
0.0184203
-0.018628
-0.654395
0.654603
0.0181901
-0.0165154
-0.547862
0.546188
0.0133386
-0.00867455
-0.400076
0.395412
0.00477362
-0.00187629
-0.202776
0.199878
0.000497838
-0.0345222
0.0340244
-0.0346403
0.0345618
7.85071e-05
-0.00160859
0.00357971
-0.271776
0.269805
-0.00648474
0.00885403
-0.436384
0.434015
-0.0103727
0.0108352
-0.550849
0.550386
-0.0106575
0.0101819
-0.65014
0.650616
-0.009562
0.00890687
-0.766029
0.766684
-0.00802987
0.00705928
-0.907767
0.908737
-0.00579511
0.00440183
-1.07956
1.08095
-0.00262901
0.000777574
-1.28758
1.28943
0.00149067
-0.00376478
-1.54033
1.54261
0.00594842
-0.00795753
-1.54061
1.54262
0.00947146
-0.0107994
-1.28851
1.28984
0.0117381
-0.0124978
-1.08104
1.0818
0.0129704
-0.0132935
-0.909892
0.910215
0.0135663
-0.0138183
-0.769489
0.769741
0.013951
-0.0137276
-0.654533
0.654309
0.0128974
-0.0109494
-0.544286
0.542338
0.00815694
-0.00477688
-0.391377
0.387996
0.00239045
-0.00084914
-0.197765
0.196224
0.000200437
-0.0336971
0.0334966
-0.0345692
0.0346153
-4.60955e-05
-0.000599977
0.00173228
-0.268364
0.267232
-0.00358689
0.00524495
-0.432034
0.430376
-0.0064215
0.00685134
-0.549929
0.549499
-0.00689797
0.00667459
-0.650962
0.651185
-0.00626968
0.00579645
-0.767192
0.767665
-0.00513975
0.00437819
-0.909546
0.910308
-0.00330921
0.00214054
-1.08219
1.08336
-0.000640652
-0.000919733
-1.2911
1.29266
0.00282251
-0.00469287
-1.54466
1.54653
0.00646664
-0.00807789
-1.5444
1.54601
0.00925047
-0.0102218
-1.29094
1.29191
0.0108575
-0.0113305
-1.08235
1.08282
0.0116099
-0.0117398
-0.910397
0.910527
0.0116586
-0.0114404
-0.769769
0.769551
0.0111555
-0.0105931
-0.65392
0.653358
0.00966483
-0.00791726
-0.540473
0.538725
0.00571355
-0.00325143
-0.385172
0.38271
0.00158754
-0.000533585
-0.195021
0.193967
0.000106924
-0.0333677
0.0332607
-0.0346685
0.0347224
-5.38902e-05
-0.000388303
0.0013024
-0.266244
0.26533
-0.00287787
0.00436209
-0.428885
0.427401
-0.0054916
0.00596638
-0.549067
0.548592
-0.00601921
0.00579836
-0.651385
0.651606
-0.005356
0.00480812
-0.768181
0.768729
-0.00406034
0.00322404
-0.911084
0.91192
-0.0021246
0.00092348
-1.0845
1.08571
0.000619166
-0.00221414
-1.29419
1.29579
0.00410184
-0.00588151
-1.54831
1.55009
0.00753369
-0.0090374
-1.54753
1.54903
0.010117
-0.0110068
-1.29283
1.29372
0.0115764
-0.0119284
-1.08324
1.0836
0.0120383
-0.0120252
-0.910571
0.910558
0.0118972
-0.0115769
-0.769205
0.768885
0.0111522
-0.0104732
-0.652711
0.652032
0.00944322
-0.00764197
-0.537037
0.535235
0.00548951
-0.00316263
-0.380399
0.378072
0.00159651
-0.000577324
-0.192952
0.191932
0.000132121
-0.0331477
0.0330155
-0.0347778
0.0348425
-6.46937e-05
-0.000126135
0.00086336
-0.264483
0.263746
-0.00241177
0.0041757
-0.425804
0.42404
-0.00588612
0.00684638
-0.548001
0.547041
-0.00724003
0.00723109
-0.651787
0.651796
-0.00687407
0.00620317
-0.769317
0.769988
-0.00525238
0.00413049
-0.912862
0.913984
-0.00261956
0.00100395
-1.08705
1.08866
0.000998765
-0.00299555
-1.29753
1.29953
0.00531373
-0.00748438
-1.552
1.55417
0.00950007
-0.0113452
-1.55065
1.5525
0.0127165
-0.0138703
-1.29467
1.29583
0.0146234
-0.0151697
-1.08395
1.08449
0.0154254
-0.0154479
-0.910492
0.910514
0.0151639
-0.0146646
-0.768594
0.768095
0.0140787
-0.0127941
-0.651194
0.649909
0.0110061
-0.00834975
-0.533094
0.530438
0.00570556
-0.00320758
-0.375652
0.373154
0.00164848
-0.000644257
-0.190913
0.189909
0.000170871
-0.0328652
0.0326943
-0.0349195
0.0350245
-0.00010506
0.000309766
8.07663e-05
-0.263132
0.262742
-0.00130343
0.00312166
-0.422165
0.420347
-0.00543916
0.00725488
-0.545642
0.543826
-0.00850056
0.00876384
-0.651658
0.651394
-0.00848907
0.00791378
-0.770708
0.771284
-0.00680981
0.00535171
-0.915312
0.91677
-0.00334693
0.00122421
-1.09053
1.09265
0.00135528
-0.00388299
-1.30178
1.30431
0.00679911
-0.009553
-1.55664
1.55939
0.0120935
-0.0143877
-1.5546
1.5569
0.0160592
-0.0175531
-1.29721
1.2987
0.0186181
-0.0194154
-1.08518
1.08597
0.0197726
-0.0196776
-0.91051
0.910415
0.0192769
-0.0184939
-0.767463
0.76668
0.017029
-0.0145641
-0.648054
0.645589
0.0116773
-0.00820046
-0.527294
0.523817
0.00533166
-0.00296516
-0.370671
0.368304
0.00157482
-0.000661817
-0.188949
0.188036
0.000193411
-0.0325148
0.0323213
-0.0351542
0.0353169
-0.000162658
0.000878885
-0.000951971
-0.262595
0.262668
0.000390751
0.000891868
-0.418732
0.417449
-0.00297204
0.00498048
-0.541837
0.539829
-0.00678277
0.00765979
-0.650919
0.650042
-0.00765249
0.00706468
-0.771847
0.772435
-0.00574056
0.00406397
-0.918378
0.920055
-0.00182277
-0.000505203
-1.09488
1.09721
0.00331144
-0.00605231
-1.30695
1.30969
0.00918673
-0.0121049
-1.56227
1.56519
0.0147641
-0.0170758
-1.55931
1.56162
0.0187463
-0.0201557
-1.30017
1.30158
0.0210412
-0.0215503
-1.0867
1.08721
0.021587
-0.0213397
-0.910175
0.909928
0.0207235
-0.0191187
-0.765522
0.763917
0.0168402
-0.0137237
-0.642715
0.639598
0.0105144
-0.00712334
-0.520298
0.516907
0.00461704
-0.00267288
-0.366145
0.3642
0.00150938
-0.000676899
-0.187183
0.186351
0.000208301
-0.0321326
0.0319243
-0.0355202
0.0357528
-0.000232592
0.00142107
-0.00196613
-0.262934
0.263479
0.00215051
-0.00174523
-0.41664
0.416234
0.000606545
0.000690946
-0.538243
0.536945
-0.0019547
0.00270896
-0.649092
0.648338
-0.0028254
0.00225895
-0.77306
0.773627
-0.00107748
-0.000429455
-0.921587
0.923093
0.00247499
-0.00462503
-1.09941
1.10156
0.00723388
-0.00977615
-1.31231
1.31486
0.0126437
-0.0152175
-1.56795
1.57052
0.0174437
-0.0192496
-1.56377
1.56558
0.0203624
-0.0211966
-1.30274
1.30357
0.021531
-0.0215765
-1.08746
1.0875
0.0213244
-0.0204978
-0.909427
0.9086
0.0190856
-0.0170113
-0.761927
0.759852
0.0146388
-0.0117045
-0.636536
0.633601
0.00895137
-0.00621949
-0.513881
0.511149
0.00425023
-0.00266407
-0.362489
0.360903
0.00160951
-0.000756517
-0.185546
0.184693
0.000238542
-0.0317247
0.0314862
-0.036043
0.0363486
-0.000305602
0.00193036
-0.00283811
-0.264218
0.265126
0.00362042
-0.00395628
-0.416329
0.416665
0.00383429
-0.00346551
-0.53632
0.535951
0.00308805
-0.00299129
-0.648002
0.647905
0.00328466
-0.00395102
-0.774114
0.77478
0.00509838
-0.00648459
-0.924355
0.925741
0.00833064
-0.0102526
-1.10345
1.10538
0.0125437
-0.0147162
-1.31713
1.3193
0.0170728
-0.0190676
-1.57277
1.57476
0.0206301
-0.0216889
-1.56708
1.56814
0.0221151
-0.0220858
-1.30402
1.30399
0.0218134
-0.0211332
-1.08704
1.08636
0.0201423
-0.0186829
-0.907263
0.905804
0.0170672
-0.015016
-0.757741
0.75569
0.0129136
-0.0104782
-0.630982
0.628547
0.00829837
-0.00614163
-0.508852
0.506695
0.00449565
-0.00301037
-0.359481
0.357995
0.00189265
-0.00090827
-0.183831
0.182847
0.000287901
-0.0312585
0.0309706
-0.0367336
0.0371249
-0.000391379
0.00248551
-0.0037205
-0.266269
0.267504
0.00497796
-0.00588696
-0.417383
0.418292
0.00653931
-0.00699307
-0.536219
0.536673
0.00751282
-0.00808543
-0.64823
0.648803
0.00892692
-0.00995742
-0.775529
0.77656
0.0113878
-0.0129191
-0.926968
0.928499
0.0147924
-0.0166222
-1.10704
1.10887
0.0186927
-0.0205503
-1.32118
1.32304
0.0224213
-0.0238259
-1.5764
1.5778
0.0246969
-0.0249732
-1.56884
1.56912
0.0247095
-0.0239904
-1.30363
1.30291
0.0230346
-0.0216763
-1.08515
1.08379
0.0202059
-0.018422
-0.904052
0.902268
0.0166736
-0.0146581
-0.753575
0.75156
0.0127498
-0.010639
-0.626357
0.624246
0.0087669
-0.00684116
-0.504859
0.502933
0.00523852
-0.00362657
-0.356624
0.355012
0.00231534
-0.00111621
-0.181831
0.180632
0.000352879
-0.0306903
0.0303374
-0.0376118
0.0381211
-0.000509298
0.00319804
-0.00481572
-0.269037
0.270655
0.0065502
-0.00796279
-0.419599
0.421012
0.00923307
-0.0102763
-0.537633
0.538677
0.0114145
-0.0126348
-0.649784
0.651004
0.0141644
-0.0157406
-0.777727
0.779304
0.0176576
-0.01952
-0.9299
0.931762
0.0216299
-0.0235603
-1.11052
1.11246
0.0256041
-0.0273061
-1.32468
1.32638
0.0288453
-0.0297738
-1.57888
1.57981
0.0300443
-0.0296071
-1.569
1.56857
0.0286987
-0.0273208
-1.30186
1.30049
0.0257695
-0.0238697
-1.08209
1.08019
0.0220134
-0.0199247
-0.900204
0.898116
0.0180038
-0.0159127
-0.749394
0.747303
0.0140168
-0.0119607
-0.622239
0.620183
0.0101114
-0.00812108
-0.501223
0.499233
0.00635325
-0.00447833
-0.353464
0.351589
0.00289096
-0.00139703
-0.179386
0.177892
0.000441356
-0.0299892
0.0295479
-0.0387314
0.0394106
-0.00067915
0.00420175
-0.00633218
-0.272617
0.274747
0.00865168
-0.0105917
-0.422857
0.424797
0.0124297
-0.0139981
-0.540305
0.541874
0.0157761
-0.0175869
-0.652587
0.654398
0.0198001
-0.0219842
-0.780952
0.783137
0.0244831
-0.0267877
-0.933558
0.935863
0.0292861
-0.031473
-1.1143
1.11648
0.0336723
-0.0353716
-1.32792
1.32962
0.0367183
-0.0372775
-1.58044
1.581
0.0370321
-0.0359756
-1.56777
1.56672
0.0344792
-0.032433
-1.29875
1.2967
0.0303183
-0.0278596
-1.07796
1.0755
0.0255736
-0.0230925
-0.895704
0.893223
0.0208869
-0.0185578
-0.744938
0.742609
0.0164912
-0.0142645
-0.618087
0.61586
0.0122251
-0.00994797
-0.497385
0.495108
0.00785503
-0.00556486
-0.34974
0.34745
0.00359607
-0.00173784
-0.176348
0.17449
0.000548445
-0.029117
0.0285686
-0.0401924
0.0411006
-0.000908187
0.00556651
-0.00837749
-0.277235
0.280046
0.0114335
-0.0139823
-0.4272
0.429749
0.0164277
-0.0185635
-0.544148
0.546284
0.0210135
-0.023493
-0.656619
0.659098
0.0264608
-0.0293076
-0.785365
0.788211
0.0324903
-0.0353692
-0.938173
0.941052
0.0384169
-0.0410021
-1.11865
1.12124
0.0434798
-0.0452606
-1.33119
1.33297
0.0464767
-0.0466943
-1.58128
1.5815
0.0459319
-0.0442194
-1.56528
1.56357
0.0420945
-0.0393611
-1.29429
1.29155
0.0366495
-0.0335773
-1.07268
1.06961
0.0307739
-0.0277815
-0.890344
0.887352
0.0251624
-0.0224361
-0.739873
0.737147
0.0200411
-0.0174664
-0.61346
0.610885
0.015078
-0.0123537
-0.492947
0.490223
0.00979323
-0.00694426
-0.345185
0.342336
0.00448385
-0.00216195
-0.172579
0.170257
0.000681451
-0.0280423
0.0273608
-0.0421245
0.0433635
-0.00123904
0.00747331
-0.0111769
-0.283234
0.286938
0.0151376
-0.0184002
-0.432902
0.436165
0.0215406
-0.024328
-0.549317
0.552105
0.027573
-0.0308477
-0.662025
0.6653
0.0347191
-0.0383811
-0.791115
0.794777
0.0424161
-0.0460066
-0.943953
0.947544
0.0497255
-0.0527834
-1.12381
1.12686
0.055594
-0.0574805
-1.33464
1.33653
0.0585638
-0.0584053
-1.58143
1.58127
0.057066
-0.0546117
-1.56143
1.55898
0.0517689
-0.0482443
-1.28839
1.28487
0.0448299
-0.0410197
-1.06611
1.0623
0.0375801
-0.0339389
-0.883864
0.880223
0.0307749
-0.0275028
-0.733872
0.7306
0.0246439
-0.0215779
-0.607997
0.604931
0.0187134
-0.0153998
-0.487585
0.484271
0.0122041
-0.00865877
-0.33955
0.336005
0.00558614
-0.00269055
-0.167903
0.165007
0.000845462
-0.0267233
0.0258778
-0.044713
0.0464765
-0.00176349
0.0103459
-0.0153107
-0.291071
0.296036
0.0204813
-0.0246601
-0.440315
0.444494
0.0286731
-0.0322825
-0.556066
0.559675
0.0365398
-0.0408014
-0.669084
0.673346
0.045762
-0.0503754
-0.798492
0.803106
0.0553728
-0.0597274
-0.951145
0.9555
0.0641292
-0.0676422
-1.12989
1.1334
0.0707402
-0.0726641
-1.33825
1.34017
0.0735057
-0.0728476
-1.58075
1.58009
0.070798
-0.0674609
-1.55604
1.5527
0.063773
-0.0593145
-1.28085
1.27639
0.0550611
-0.0503597
-1.05798
1.05328
0.0461427
-0.0416981
-0.875973
0.871529
0.0378485
-0.0338788
-0.726624
0.722655
0.0304215
-0.0267229
-0.601385
0.597687
0.0232516
-0.0192055
-0.480976
0.476929
0.0152548
-0.0107803
-0.332572
0.328098
0.00692322
-0.00330284
-0.16212
0.1585
0.00102592
-0.025105
0.0240791
-0.0482906
0.0508869
-0.00259624
0.0147849
-0.0215361
-0.301442
0.308194
0.0282832
-0.0335908
-0.450047
0.455354
0.0386894
-0.0433744
-0.5649
0.569585
0.0489507
-0.0544524
-0.678195
0.683697
0.0607376
-0.0664552
-0.807781
0.813499
0.072508
-0.0776563
-0.959862
0.96501
0.0827057
-0.086577
-1.13682
1.1407
0.0897841
-0.0915371
-1.34181
1.34357
0.091882
-0.0904835
-1.57893
1.57753
0.0875038
-0.083082
-1.54875
1.54433
0.0783877
-0.0728352
-1.27135
1.2658
0.0676034
-0.0618608
-1.04798
1.04224
0.0567299
-0.0513302
-0.866366
0.860966
0.0466566
-0.0418412
-0.717819
0.713003
0.037658
-0.0331899
-0.593308
0.58884
0.0289672
-0.0240005
-0.47279
0.467823
0.0190837
-0.013468
-0.323817
0.318202
0.00858725
-0.00405622
-0.154965
0.150434
0.00124406
-0.023142
0.0218979
-0.0534525
0.0575103
-0.00405782
0.0220357
-0.0313746
-0.315547
0.324886
0.0402058
-0.0470391
-0.462958
0.469792
0.0536045
-0.0597643
-0.576497
0.582657
0.0670706
-0.0740789
-0.689809
0.696818
0.0818152
-0.0886195
-0.819206
0.82601
0.0955895
-0.101317
-0.970021
0.975749
0.106712
-0.110625
-1.14428
1.1482
0.113561
-0.114784
-1.34485
1.34607
0.114242
-0.111762
-1.57545
1.57297
0.107556
-0.101793
-1.53916
1.53339
0.0959065
-0.0890904
-1.25957
1.25275
0.0827497
-0.0758399
-1.03583
1.02892
0.0696872
-0.0632117
-0.854755
0.848279
0.0575995
-0.0518133
-0.707157
0.701371
0.0467981
-0.0414338
-0.583417
0.578053
0.036286
-0.0301602
-0.462596
0.45647
0.0240107
-0.0169335
-0.312838
0.305761
0.0107487
-0.00502446
-0.146089
0.140365
0.00151455
-0.0207698
0.0192552
-0.0612967
0.0685068
-0.00721011
0.0355215
-0.0490678
-0.335693
0.349239
0.060914
-0.0695458
-0.480282
0.488914
0.0777702
-0.0856337
-0.591629
0.599493
0.094773
-0.103122
-0.704191
0.71254
0.111911
-0.119307
-0.832546
0.839942
0.126588
-0.132297
-0.981045
0.986755
0.137378
-0.140728
-1.15149
1.15484
0.14279
-0.142946
-1.34653
1.34668
0.141004
-0.137004
-1.56956
1.56556
0.131218
-0.123842
-1.52671
1.51934
0.116567
-0.10834
-1.24517
1.23694
0.100784
-0.0926221
-1.02128
1.01311
0.0853869
-0.0777887
-0.840931
0.833333
0.0711945
-0.0643721
-0.694402
0.68758
0.058442
-0.0520835
-0.571398
0.56504
0.0458867
-0.038279
-0.449821
0.442213
0.0305326
-0.0215662
-0.298878
0.289912
0.0136444
-0.00630421
-0.135032
0.127691
0.00181518
-0.017917
0.0161019
-0.0754817
0.0789688
-0.00348708
0.0251207
-0.0368293
-0.365788
0.377497
0.0473605
-0.0556149
-0.502788
0.511042
0.0644522
-0.0740613
-0.609965
0.619574
0.0848564
-0.0944982
-0.720434
0.730076
0.105197
-0.114626
-0.846529
0.855958
0.124412
-0.132793
-0.991524
0.999905
0.141123
-0.147773
-1.15709
1.16374
0.153666
-0.157468
-1.34564
1.34944
0.159395
-0.158583
-1.56032
1.55951
0.154916
-0.148803
-1.51085
1.50474
0.141677
-0.132676
-1.22784
1.21884
0.123915
-0.11345
-1.00419
0.993722
0.103898
-0.0934462
-0.824845
0.814393
0.0841607
-0.0743694
-0.679517
0.669726
0.0654885
-0.0561252
-0.55698
0.547616
0.0473329
-0.0364601
-0.43383
0.422957
0.0263652
-0.0161955
-0.280882
0.270712
0.00856936
-0.00302189
-0.120971
0.115424
0.000481042
-0.0145455
0.0140645
-0.0864213
0.0833772
0.00304414
0.00295398
-0.00958009
-0.39208
0.398706
0.0175383
-0.0241799
-0.524022
0.530664
0.0325606
-0.0410041
-0.629826
0.638269
0.05077
-0.0596595
-0.739534
0.748423
0.0691209
-0.0776756
-0.864941
0.873496
0.0865674
-0.0938957
-1.00803
1.01536
0.101389
-0.107047
-1.17024
1.1759
0.112022
-0.114944
-1.35297
1.3559
0.115791
-0.114179
-1.55789
1.55628
0.109844
-0.103204
-1.49782
1.49118
0.0955546
-0.0861992
-1.20933
1.19998
0.0772124
-0.0669738
-0.982941
0.972703
0.0574155
-0.0468732
-0.803037
0.792494
0.0374886
-0.0279425
-0.657731
0.648185
0.0198233
-0.0115359
-0.535364
0.527077
0.0045282
0.00161314
-0.411168
0.405027
-0.00519718
0.00666871
-0.259355
0.257883
-0.00617219
0.00394142
-0.108613
0.110844
-0.00168933
-0.0124498
0.0141391
-0.0860367
0.0827168
0.0033199
-0.00494577
0.00185083
-0.408925
0.41202
0.00301533
-0.00823692
-0.541325
0.546546
0.0151387
-0.0223911
-0.64712
0.654373
0.0307106
-0.0383225
-0.756721
0.764333
0.0466392
-0.0540309
-0.881382
0.888774
0.0615233
-0.068078
-1.02256
1.02911
0.0746123
-0.079667
-1.18122
1.18627
0.0837373
-0.0859457
-1.35827
1.36048
0.0864945
-0.0846472
-1.55411
1.55226
0.0803277
-0.0739764
-1.48414
1.47779
0.0668629
-0.0584564
-1.19075
1.18234
0.0501306
-0.0409891
-0.962424
0.953283
0.0325247
-0.0232795
-0.782314
0.773069
0.0153011
-0.00716059
-0.637811
0.629671
0.000467513
0.00614243
-0.516744
0.510134
-0.0109676
0.0141492
-0.396184
0.393003
-0.0146935
0.0124676
-0.252699
0.254925
-0.0091991
0.00507217
-0.110776
0.114903
-0.00184198
-0.0142438
0.0160858
-0.0839345
0.0807467
0.0031878
-0.00783987
0.0067879
-0.419435
0.420487
-0.00380291
-0.000342858
-0.554813
0.558959
0.00632763
-0.012384
-0.661498
0.667554
0.0194904
-0.0260104
-0.771618
0.778138
0.0330957
-0.0394267
-0.895733
0.902064
0.046243
-0.0518584
-1.03529
1.04091
0.0576825
-0.0618011
-1.19105
1.19516
0.0654344
-0.0674235
-1.36264
1.36463
0.0677847
-0.0658337
-1.55022
1.54827
0.0620576
-0.0565607
-1.47122
1.46572
0.0504113
-0.0429126
-1.17412
1.16662
0.0358919
-0.0282818
-0.944349
0.936739
0.0211808
-0.0137871
-0.764346
0.756952
0.00710193
-0.000508002
-0.621004
0.61441
-0.00484948
0.00966061
-0.502035
0.497224
-0.0128347
0.0145744
-0.386497
0.384757
-0.0142004
0.0111775
-0.252249
0.255271
-0.00798727
0.00423469
-0.116126
0.119879
-0.00148896
-0.0164956
0.0179846
-0.0818208
0.0791801
0.00264074
-0.00823085
0.00840496
-0.42624
0.426066
-0.00609974
0.00286998
-0.565949
0.569179
0.00197892
-0.00742029
-0.673685
0.679127
0.0134229
-0.0191816
-0.784239
0.789998
0.0253511
-0.030892
-0.908074
0.913615
0.0368068
-0.041898
-1.04645
1.05154
0.0469653
-0.0509257
-1.19924
1.2032
0.0542709
-0.0561346
-1.36645
1.36832
0.0565474
-0.0548925
-1.54641
1.54476
0.0516511
-0.0467657
-1.4599
1.45501
0.0415065
-0.0352537
-1.15948
1.15323
0.029348
-0.0228673
-0.929297
0.922816
0.0170797
-0.0110071
-0.749761
0.743689
0.00578145
-0.000608099
-0.607708
0.602535
-0.00338776
0.00678682
-0.490983
0.487584
-0.00900946
0.00997256
-0.380162
0.379198
-0.00921338
0.0070113
-0.253122
0.255324
-0.00484754
0.00247051
-0.120207
0.122584
-0.000911966
-0.0181001
0.019012
-0.0801246
0.0779351
0.00218949
-0.00761052
0.00798475
-0.430741
0.430366
-0.00668754
0.00391692
-0.574696
0.577466
0.000671901
-0.00532121
-0.684139
0.688788
0.0105313
-0.0155846
-0.79521
0.800263
0.0211307
-0.0261564
-0.918948
0.923973
0.0316688
-0.0362381
-1.05644
1.06101
0.0409362
-0.0446638
-1.20696
1.21069
0.0478266
-0.0496531
-1.37005
1.37188
0.0501807
-0.0491661
-1.54324
1.54222
0.0463529
-0.0422449
-1.44997
1.44586
0.037646
-0.0322032
-1.14708
1.14164
0.0273162
-0.0216738
-0.916537
0.910895
0.0167442
-0.0117749
-0.737854
0.732885
0.00746853
-0.00322437
-0.597387
0.593143
-8.74311e-05
0.00305235
-0.482818
0.479853
-0.00469018
0.00551765
-0.375481
0.374654
-0.00535375
0.00406776
-0.252832
0.254118
-0.00279786
0.00152482
-0.121878
0.123151
-0.000623749
-0.0186943
0.019318
-0.0789386
0.0772623
0.00167632
-0.00636814
0.00687909
-0.434055
0.433544
-0.00570151
0.00348497
-0.582468
0.584685
0.000711051
-0.00490533
-0.693314
0.697508
0.00988002
-0.014296
-0.805123
0.809539
0.0192399
-0.023774
-0.929087
0.933621
0.0290906
-0.0333442
-1.0657
1.06995
0.037663
-0.0413354
-1.21433
1.218
0.0447987
-0.0466718
-1.3738
1.37568
0.0475352
-0.0467743
-1.54099
1.54023
0.0446902
-0.0408944
-1.44172
1.43792
0.0369836
-0.0322938
-1.13622
1.13153
0.0278596
-0.0230372
-0.905465
0.900643
0.0186389
-0.0140677
-0.7278
0.723229
0.0104653
-0.00659592
-0.58866
0.584791
0.00349506
-0.000910893
-0.475799
0.473215
-0.000823777
0.00199749
-0.371358
0.370185
-0.00225217
0.00189048
-0.251497
0.251858
-0.00144022
0.000889378
-0.121674
0.122224
-0.000441147
-0.0187374
0.0191785
-0.0783399
0.0770347
0.00130518
-0.00508571
0.00564693
-0.436732
0.436171
-0.00449867
0.0022414
-0.589272
0.591529
0.00165238
-0.00542777
-0.701637
0.705413
0.00974066
-0.0140408
-0.814063
0.818363
0.018681
-0.0234056
-0.938074
0.942798
0.0280879
-0.0322375
-1.07438
1.07853
0.0367786
-0.0403223
-1.22165
1.22519
0.0434542
-0.0458768
-1.37756
1.37998
0.0470835
-0.0467837
-1.53963
1.53933
0.0450203
-0.0419101
-1.43436
1.43125
0.0384049
-0.0341125
-1.12659
1.12229
0.0301059
-0.025625
-0.895713
0.891232
0.0215499
-0.0174269
-0.718692
0.714569
0.0137584
-0.0101572
-0.580645
0.577043
0.00726848
-0.00450424
-0.469548
0.466784
0.0025398
-0.00125847
-0.366841
0.36556
0.000447956
7.43873e-05
-0.248976
0.248453
-0.000381242
0.000441117
-0.120246
0.120186
-0.000329896
-0.0184193
0.0187492
-0.0783102
0.0772134
0.00109677
-0.00369002
0.00399648
-0.439251
0.438944
-0.00295997
0.000639931
-0.595536
0.597856
0.00291029
-0.00655759
-0.709437
0.713085
0.0107277
-0.0146772
-0.822609
0.826559
0.0194724
-0.0234726
-0.947052
0.951053
0.0281754
-0.0322142
-1.0829
1.08694
0.0367185
-0.0405229
-1.22879
1.23259
0.0440476
-0.0463604
-1.38225
1.38457
0.0480044
-0.0481808
-1.53901
1.53918
0.0470895
-0.0442821
-1.42801
1.4252
0.0411445
-0.0371426
-1.11803
1.11403
0.033389
-0.0290439
-0.886445
0.8821
0.025185
-0.0210221
-0.710141
0.705978
0.0173948
-0.0137264
-0.573087
0.569419
0.0106573
-0.0079383
-0.46318
0.460461
0.00567793
-0.00396375
-0.361921
0.360207
0.00259441
-0.00145804
-0.245335
0.244198
0.000580149
8.50653e-05
-0.117815
0.11715
-0.000237749
-0.0178096
0.0180474
-0.0785581
0.0777752
0.00078292
-0.0024911
0.00230109
-0.441963
0.442153
-0.00138439
-0.00100279
-0.601108
0.603495
0.00419888
-0.00772017
-0.716754
0.720275
0.0117394
-0.0158344
-0.830493
0.834588
0.0200656
-0.0242531
-0.955329
0.959517
0.0289588
-0.0328367
-1.09146
1.09533
0.0374831
-0.0413035
-1.23627
1.24009
0.0449658
-0.0478679
-1.38735
1.39025
0.0500686
-0.050581
-1.53945
1.53996
0.0497477
-0.0475842
-1.42254
1.42038
0.0448588
-0.0410084
-1.10978
1.10593
0.0372664
-0.0331715
-0.877479
0.873384
0.0289988
-0.0249437
-0.701468
0.697413
0.0212379
-0.0173633
-0.565601
0.561726
0.014284
-0.0112186
-0.456612
0.453546
0.00875911
-0.00645913
-0.356572
0.354272
0.00473427
-0.00301451
-0.240761
0.239041
0.00149405
-0.000325083
-0.11459
0.113421
-0.000137745
-0.0169629
0.0171006
-0.0791931
0.0785587
0.00063449
-0.00151429
0.00131986
-0.44494
0.445134
0.000169528
-0.00233421
-0.60677
0.608935
0.00565293
-0.00904079
-0.72359
0.726978
0.0129181
-0.0166414
-0.83846
0.842183
0.0210123
-0.0249206
-0.963769
0.967678
0.0296031
-0.0339344
-1.09971
1.10404
0.0382741
-0.0424623
-1.24402
1.24821
0.0465932
-0.0496538
-1.39312
1.39618
0.0523165
-0.0536532
-1.54075
1.54209
0.0532865
-0.0516831
-1.41809
1.41648
0.049046
-0.0454404
-1.10202
1.09841
0.0418479
-0.0376186
-0.868675
0.864445
0.0335468
-0.02933
-0.692728
0.688511
0.0255164
-0.0213985
-0.557571
0.553453
0.0179937
-0.014709
-0.449664
0.446379
0.0117624
-0.00902688
-0.350365
0.347629
0.00677538
-0.00447538
-0.235212
0.232912
0.00250164
-0.000835453
-0.110635
0.108969
3.42725e-05
-0.0159607
0.0159264
-0.0800759
0.0795972
0.000478756
-0.000469441
2.47578e-05
-0.448061
0.448506
0.00136237
-0.00370004
-0.612044
0.614382
0.00690243
-0.0101291
-0.730188
0.733415
0.0140848
-0.0176723
-0.84596
0.849548
0.0219054
-0.0259437
-0.972099
0.976137
0.0305531
-0.0348704
-1.10827
1.11259
0.0394521
-0.0437061
-1.25238
1.25663
0.0480611
-0.0518996
-1.39958
1.40342
0.0550512
-0.056749
-1.54341
1.54511
0.0571097
-0.055844
-1.41478
1.41351
0.0537183
-0.0505232
-1.09468
1.09148
0.0468326
-0.0425679
-0.859782
0.855517
0.0384139
-0.0338918
-0.683751
0.679229
0.0299686
-0.0255838
-0.549269
0.544885
0.021965
-0.0181842
-0.44224
0.438459
0.0149737
-0.0117662
-0.343377
0.34017
0.00886246
-0.00596557
-0.228688