/*--------------------------------*- C++ -*----------------------------------*\
  =========                 |
  \\      /  F ield         | OpenFOAM: The Open Source CFD Toolbox
   \\    /   O peration     | Website:  https://openfoam.org
    \\  /    A nd           | Version:  6
     \\/     M anipulation  |
\*---------------------------------------------------------------------------*/
FoamFile
{
    version     2.0;
    format      ascii;
    class       volScalarField;
    location    "83.9";
    object      p;
}
// * * * * * * * * * * * * * * * * * * * * * * * * * * * * * * * * * * * * * //

dimensions      [0 2 -2 0 0 0 0];

internalField   nonuniform List<scalar> 
8800
(
0.83703
0.787716
0.749751
0.721683
0.701522
0.686937
0.67634
0.668803
0.663921
0.661857
0.663233
0.667582
0.674379
0.683807
0.696547
0.71387
0.737749
0.770848
0.813786
0.8663
0.671522
0.677867
0.687017
0.690567
0.687959
0.681871
0.674932
0.668693
0.663895
0.66103
0.660805
0.663439
0.668087
0.674221
0.681325
0.688362
0.693243
0.693121
0.686448
0.677551
0.645032
0.651268
0.655769
0.659642
0.662591
0.663542
0.662456
0.660338
0.658362
0.657529
0.658569
0.66103
0.663924
0.6662
0.666726
0.664941
0.661579
0.657568
0.652789
0.649073
0.640724
0.64349
0.646098
0.648257
0.649996
0.651567
0.652673
0.65303
0.652922
0.653029
0.653844
0.654997
0.655748
0.655605
0.654637
0.653288
0.651623
0.649325
0.646916
0.64535
0.635658
0.637083
0.638924
0.641007
0.642722
0.644018
0.64512
0.646106
0.646923
0.647671
0.648396
0.648869
0.648905
0.648552
0.647893
0.646785
0.645135
0.643246
0.641896
0.641093
0.630654
0.631557
0.632805
0.634435
0.636132
0.637668
0.638958
0.640088
0.641164
0.642196
0.643
0.643407
0.643433
0.64308
0.642289
0.64111
0.639758
0.638498
0.637681
0.637156
0.625728
0.626384
0.627347
0.628668
0.63012
0.631643
0.633135
0.63451
0.635787
0.637012
0.637987
0.638505
0.638544
0.638127
0.637362
0.636433
0.635453
0.634557
0.633981
0.633596
0.620877
0.621382
0.62217
0.623314
0.624621
0.626046
0.627566
0.629121
0.630651
0.632133
0.63332
0.63396
0.634068
0.633772
0.63323
0.632559
0.631838
0.631185
0.630763
0.630463
0.616044
0.616446
0.617108
0.618135
0.619373
0.620749
0.622268
0.623926
0.625682
0.62746
0.628917
0.629765
0.630078
0.630023
0.629731
0.629288
0.628778
0.628323
0.628013
0.627769
0.611148
0.611476
0.612052
0.613002
0.614198
0.615568
0.617129
0.618899
0.620865
0.62296
0.624769
0.625943
0.626561
0.626786
0.626744
0.62654
0.626235
0.625946
0.62572
0.625515
0.606099
0.60637
0.606888
0.607795
0.60898
0.610384
0.612032
0.613958
0.616174
0.61864
0.620891
0.622484
0.623469
0.624012
0.624246
0.624285
0.624187
0.624046
0.623889
0.623711
0.600804
0.601032
0.601512
0.602407
0.603622
0.605103
0.606882
0.609022
0.611561
0.614487
0.617277
0.619371
0.620786
0.621696
0.622239
0.622528
0.622648
0.622646
0.622546
0.622387
0.595167
0.595362
0.595824
0.596736
0.598021
0.599626
0.601592
0.604015
0.606966
0.610463
0.613906
0.616597
0.618516
0.619847
0.620744
0.621321
0.621663
0.62179
0.621738
0.621591
0.58908
0.589248
0.58971
0.590668
0.592064
0.593844
0.596067
0.598858
0.602325
0.606522
0.610756
0.614163
0.616679
0.618499
0.619801
0.620709
0.621286
0.621542
0.621531
0.621391
0.582418
0.582563
0.58304
0.584072
0.585625
0.587642
0.5902
0.593458
0.597567
0.60262
0.60781
0.612073
0.615298
0.617696
0.61946
0.620739
0.621586
0.621977
0.622003
0.621866
0.575033
0.575154
0.57566
0.576798
0.578559
0.580883
0.583868
0.587712
0.592614
0.598712
0.605053
0.610336
0.6144
0.617481
0.619797
0.621508
0.622654
0.623184
0.623245
0.623106
0.566734
0.566839
0.567381
0.568657
0.570686
0.573401
0.576924
0.5815
0.58738
0.594749
0.602472
0.608971
0.614023
0.617907
0.620884
0.623101
0.624585
0.625261
0.625352
0.625208
0.557246
0.557351
0.55796
0.559408
0.561786
0.564995
0.569193
0.57468
0.581765
0.590678
0.600057
0.607994
0.614215
0.619043
0.622798
0.625607
0.627473
0.628303
0.628421
0.628268
0.546274
0.546358
0.547051
0.548751
0.55157
0.55541
0.560461
0.56709
0.575662
0.586451
0.597805
0.607432
0.615022
0.620962
0.625613
0.629121
0.631411
0.632396
0.632535
0.632368
0.533413
0.533486
0.534284
0.536294
0.539677
0.544326
0.550467
0.558536
0.568955
0.582021
0.59572
0.607319
0.616489
0.623719
0.629417
0.633717
0.636463
0.637597
0.637747
0.637564
0.518072
0.518134
0.519085
0.521514
0.525638
0.531346
0.538901
0.548809
0.561533
0.577362
0.59382
0.607695
0.618664
0.627368
0.634253
0.639436
0.642657
0.643918
0.644065
0.643863
0.499441
0.499498
0.500665
0.503685
0.508824
0.515961
0.525393
0.537691
0.553312
0.572479
0.592146
0.608597
0.621591
0.631941
0.640137
0.646283
0.649953
0.651299
0.651425
0.651203
0.476297
0.47636
0.477882
0.481792
0.488389
0.497536
0.509544
0.524996
0.544267
0.567432
0.590773
0.61008
0.625296
0.637444
0.647056
0.654177
0.658223
0.659584
0.659667
0.659427
0.446785
0.446878
0.449007
0.454357
0.463232
0.475343
0.490995
0.51065
0.534486
0.562362
0.589817
0.612219
0.629796
0.643848
0.654944
0.66296
0.667225
0.668506
0.668523
0.66827
0.407699
0.407928
0.411312
0.419324
0.432049
0.448757
0.469619
0.494809
0.524224
0.557503
0.58944
0.6151
0.635111
0.651091
0.663647
0.67236
0.676604
0.67769
0.677626
0.677369
0.352955
0.354104
0.360859
0.374413
0.393878
0.417705
0.445787
0.477964
0.513922
0.553171
0.589829
0.618809
0.641244
0.659085
0.672937
0.682004
0.685903
0.686699
0.686558
0.686308
0.273746
0.281522
0.297065
0.320802
0.350341
0.383697
0.420557
0.460709
0.503864
0.549546
0.591215
0.623734
0.648777
0.668594
0.683485
0.69253
0.695885
0.696382
0.696193
0.695982
0.189444
0.206449
0.231693
0.266366
0.306519
0.349535
0.395168
0.443384
0.493993
0.546602
0.593956
0.630597
0.658731
0.680723
0.696531
0.704932
0.707416
0.707617
0.707454
0.70732
0.117132
0.137933
0.171272
0.215327
0.264891
0.317
0.371168
0.42729
0.485147
0.54433
0.596908
0.637185
0.667915
0.691585
0.70764
0.715111
0.716928
0.717026
0.716899
0.716799
0.0578576
0.0809722
0.119868
0.170646
0.227555
0.287262
0.348952
0.412312
0.476925
0.542247
0.59962
0.643146
0.676018
0.700835
0.716906
0.723757
0.725272
0.725344
0.725245
0.725154
0.00871299
0.0332049
0.0761166
0.132134
0.194911
0.260857
0.328939
0.398675
0.469419
0.540425
0.602248
0.648727
0.683468
0.709241
0.725259
0.731649
0.733006
0.733095
0.73303
0.732945
-0.0329325
-0.00763505
0.0382378
0.0985021
0.166221
0.237489
0.311101
0.386477
0.46279
0.539068
0.605089
0.654333
0.69081
0.717359
0.733276
0.739348
0.740625
0.740753
0.74073
0.74065
-0.0691495
-0.0433306
0.0048493
0.0686358
0.140587
0.216508
0.295049
0.375535
0.456998
0.538253
0.608304
0.660217
0.69832
0.725602
0.741471
0.747303
0.748566
0.748753
0.748782
0.748715
-0.101462
-0.0752386
-0.0251687
0.0416307
0.117262
0.19729
0.28029
0.365502
0.451811
0.537862
0.611841
0.666419
0.70616
0.734232
0.750181
0.755969
0.757223
0.757431
0.757506
0.757454
-0.130928
-0.10434
-0.0526667
0.0167598
0.0956439
0.179339
0.266396
0.356004
0.446939
0.537658
0.615576
0.672859
0.714344
0.74334
0.759568
0.765426
0.766665
0.766863
0.766945
0.766907
-0.158386
-0.131416
-0.0783109
-0.00651364
0.0752642
0.162256
0.253019
0.346729
0.442102
0.537426
0.619335
0.679416
0.722749
0.752809
0.769436
0.775406
0.776626
0.776787
0.776848
0.776823
-0.184264
-0.156938
-0.10252
-0.0286074
0.0557656
0.145738
0.2399
0.337442
0.43707
0.536975
0.622953
0.685945
0.731192
0.762356
0.779432
0.785534
0.786735
0.786831
0.786861
0.786853
-0.209059
-0.181296
-0.125664
-0.0498283
0.0368827
0.129555
0.226843
0.327962
0.43166
0.536111
0.626281
0.692304
0.739501
0.771769
0.789266
0.795431
0.796606
0.796627
0.796612
0.796603
-0.232931
-0.204727
-0.147955
-0.0703797
0.018434
0.113556
0.213705
0.318157
0.425729
0.534676
0.629184
0.698403
0.747595
0.780846
0.798625
0.804803
0.805902
0.805848
0.805788
0.805771
-0.256049
-0.227375
-0.169545
-0.0903893
0.000315888
0.0976459
0.200401
0.307931
0.419173
0.53254
0.631534
0.704176
0.755435
0.789533
0.807386
0.813426
0.814417
0.814297
0.814198
0.814174
-0.278534
-0.249365
-0.190518
-0.109925
-0.0175397
0.081777
0.18689
0.29724
0.41192
0.52959
0.633199
0.709576
0.763096
0.797926
0.815546
0.821252
0.822078
0.821898
0.821772
0.82174
-0.300471
-0.270752
-0.21091
-0.129016
-0.0351388
0.0659363
0.173168
0.286074
0.403932
0.525725
0.63406
0.714539
0.770665
0.806218
0.823293
0.828341
0.828886
0.828651
0.828517
0.82848
-0.321751
-0.29151
-0.230719
-0.147679
-0.0524806
0.0501528
0.159254
0.274457
0.395209
0.520895
0.633985
0.718974
0.778235
0.814737
0.830978
0.834904
0.83491
0.834609
0.834511
0.834478
-0.342374
-0.311626
-0.24996
-0.165897
-0.069538
0.034457
0.145205
0.262423
0.385783
0.515069
0.632858
0.722738
0.785811
0.823824
0.83923
0.841473
0.840375
0.839856
0.839922
0.839981
-0.3624
-0.331094
-0.268629
-0.183658
-0.0862699
0.0189087
0.131083
0.250046
0.375702
0.50825
0.630559
0.725651
0.793262
0.833673
0.848849
0.849216
0.846125
0.84475
0.84511
0.845702
-0.381707
-0.349894
-0.286686
-0.200911
-0.102635
0.00357523
0.116966
0.23741
0.36505
0.500486
0.626997
0.727489
0.800319
0.844132
0.86035
0.859745
0.85439
0.850743
0.849724
0.849683
-0.400386
-0.368049
-0.304146
-0.217697
-0.118676
-0.0115875
0.1028
0.224455
0.353754
0.491708
0.622007
0.72799
0.80675
0.854841
0.873593
0.874022
0.867632
0.85981
0.850959
0.852674
-0.41837
-0.385629
-0.321148
-0.234212
-0.134683
-0.0268996
0.0881837
0.21072
0.341304
0.48134
0.615007
0.726494
0.812287
0.865522
0.887619
0.890943
0.883775
0.870234
0.849861
0.850315
-0.435534
-0.402609
-0.33754
-0.250275
-0.150401
-0.04207
0.0733059
0.196504
0.327955
0.469555
0.605917
0.722108
0.815804
0.874779
0.898429
0.902432
0.894756
0.865886
0.80901
0.784946
-0.451775
-0.419946
-0.35293
-0.265455
-0.165039
-0.0566137
0.0584479
0.182081
0.313984
0.456509
0.59474
0.714118
0.815899
0.881174
0.900656
0.899342
0.878418
0.82294
0.760517
0.722698
-0.493861
-0.436973
-0.367016
-0.280683
-0.179356
-0.0715158
0.0437562
0.16732
0.299168
0.441815
0.580979
0.701718
0.808592
0.880134
0.89054
0.86829
0.812228
0.742216
0.671717
0.632875
-0.46836
-0.449904
-0.388432
-0.301398
-0.201575
-0.0939307
0.0207123
0.143752
0.274926
0.41662
0.555132
0.67511
0.774753
0.853967
0.829932
0.71154
0.614827
0.547663
0.481231
0.50508
-0.498494
-0.466914
-0.404579
-0.31803
-0.218575
-0.111063
0.00380714
0.126259
0.256532
0.396682
0.532928
0.649701
0.738111
0.782773
0.722522
0.574787
0.459961
0.382533
0.298133
0.340144
-0.521701
-0.487783
-0.423756
-0.337168
-0.237761
-0.13025
-0.0154692
0.106235
0.235222
0.373104
0.505632
0.616425
0.693014
0.699381
0.583969
0.422204
0.288205
0.1919
0.0944315
0.12264
-0.5442
-0.509283
-0.443938
-0.356721
-0.257249
-0.149857
-0.0355875
0.085172
0.212596
0.347709
0.475315
0.577188
0.63662
0.609179
0.442837
0.26055
0.096862
-0.0398751
-0.166225
-0.156735
-0.566381
-0.531122
-0.464913
-0.377138
-0.277555
-0.170398
-0.0568022
0.0628304
0.18835
0.320183
0.441835
0.534607
0.572856
0.4972
0.303672
0.102278
-0.0874188
-0.243405
-0.44955
-0.529238
-0.588934
-0.553771
-0.487072
-0.398919
-0.299213
-0.192267
-0.0793028
0.0391327
0.162564
0.290744
0.405795
0.489121
0.499872
0.373008
0.176438
-0.0361888
-0.230524
-0.393265
-0.517278
-0.633636
-0.612927
-0.57771
-0.510773
-0.422448
-0.322763
-0.216143
-0.10393
0.013096
0.134036
0.257898
0.365721
0.435799
0.417959
0.255041
0.0572586
-0.149223
-0.326909
-0.425111
-0.451207
-0.464556
-0.63849
-0.603235
-0.536145
-0.447816
-0.348351
-0.242253
-0.131065
-0.0158014
0.102136
0.220836
0.320983
0.372268
0.334643
0.141537
-0.0539719
-0.240312
-0.374814
-0.413073
-0.421733
-0.422037
-0.665906
-0.630472
-0.56323
-0.475012
-0.37593
-0.27061
-0.160741
-0.0476274
0.0667827
0.179542
0.271042
0.305123
0.234233
0.0376353
-0.15122
-0.313365
-0.38929
-0.403259
-0.404157
-0.403973
-0.695184
-0.659454
-0.59205
-0.504039
-0.405523
-0.301212
-0.192976
-0.0824121
0.0279805
0.134127
0.215637
0.234207
0.124416
-0.0567349
-0.234618
-0.363163
-0.393035
-0.393628
-0.394182
-0.393739
-0.726071
-0.690022
-0.622513
-0.534824
-0.437053
-0.334018
-0.227758
-0.120144
-0.0142242
0.0847179
0.156092
0.155156
0.0272394
-0.143091
-0.29975
-0.373331
-0.389024
-0.387741
-0.387698
-0.387373
-0.758014
-0.721827
-0.654356
-0.567138
-0.470335
-0.368875
-0.264943
-0.160709
-0.059617
0.031751
0.0928037
0.0755428
-0.06216
-0.219023
-0.343353
-0.381714
-0.382022
-0.382945
-0.382996
-0.3828
-0.790568
-0.754338
-0.687093
-0.600566
-0.505019
-0.405461
-0.304247
-0.203835
-0.107904
-0.0238391
0.0245209
0.000407454
-0.143082
-0.280019
-0.370337
-0.378651
-0.380161
-0.380321
-0.380216
-0.380085
-0.822769
-0.786679
-0.719994
-0.634468
-0.540549
-0.443294
-0.345202
-0.249031
-0.15866
-0.081217
-0.0436657
-0.0748144
-0.212161
-0.325963
-0.379482
-0.388972
-0.382293
-0.379929
-0.379194
-0.378878
-0.852836
-0.817563
-0.752017
-0.667952
-0.576138
-0.481658
-0.387131
-0.29555
-0.211116
-0.139954
-0.106932
-0.152502
-0.268115
-0.36305
-0.386112
-0.386416
-0.384197
-0.382419
-0.381617
-0.381114
-0.879639
-0.845472
-0.781756
-0.699809
-0.610716
-0.519599
-0.429148
-0.342455
-0.264048
-0.199488
-0.168483
-0.219712
-0.309829
-0.381766
-0.403534
-0.392211
-0.388961
-0.387554
-0.386747
-0.386335
-0.900482
-0.868297
-0.807441
-0.728501
-0.642955
-0.555922
-0.470128
-0.388682
-0.316142
-0.258009
-0.229813
-0.271993
-0.337182
-0.380487
-0.385611
-0.388416
-0.38886
-0.388748
-0.388605
-0.388642
-0.913293
-0.883904
-0.826984
-0.75227
-0.671309
-0.589233
-0.508738
-0.432979
-0.366245
-0.312881
-0.285945
-0.31525
-0.355779
-0.382033
-0.38242
-0.386451
-0.387752
-0.387786
-0.387908
-0.387953
-0.91536
-0.889891
-0.838265
-0.76925
-0.694131
-0.618042
-0.543555
-0.473828
-0.413109
-0.363472
-0.332923
-0.354005
-0.373751
-0.394374
-0.393429
-0.390468
-0.38942
-0.388922
-0.38873
-0.388599
-0.904361
-0.883692
-0.839143
-0.777678
-0.709927
-0.640959
-0.573243
-0.509684
-0.455007
-0.410945
-0.367219
-0.390488
-0.381333
-0.402024
-0.397305
-0.390503
-0.389103
-0.389232
-0.389286
-0.38919
-0.877888
-0.862741
-0.827706
-0.776303
-0.717626
-0.656984
-0.596735
-0.539495
-0.490166
-0.453285
-0.405726
-0.399602
-0.380159
-0.371041
-0.373768
-0.383567
-0.388982
-0.391712
-0.392681
-0.39292
-0.839374
-0.829705
-0.805071
-0.765358
-0.717221
-0.665838
-0.613499
-0.562704
-0.517932
-0.48627
-0.454742
-0.423972
-0.387841
-0.37951
-0.401557
-0.405007
-0.403865
-0.404662
-0.406022
-0.406614
-0.795862
-0.79036
-0.776175
-0.747909
-0.710784
-0.668375
-0.623663
-0.57892
-0.537943
-0.507815
-0.480241
-0.45697
-0.442463
-0.438434
-0.426306
-0.422153
-0.429485
-0.434138
-0.43555
-0.435645
-0.757314
-0.753977
-0.747247
-0.729305
-0.701228
-0.666451
-0.628212
-0.588156
-0.549481
-0.518241
-0.491204
-0.484259
-0.491148
-0.526265
-0.5324
-0.525431
-0.511229
-0.490827
-0.478754
-0.480052
-0.729546
-0.727572
-0.724131
-0.713538
-0.69228
-0.663101
-0.629072
-0.59141
-0.552692
-0.517103
-0.491859
-0.476708
-0.49169
-0.524402
-0.569345
-0.615553
-0.624052
-0.596467
-0.553058
-0.539688
-0.709116
-0.708415
-0.707249
-0.702022
-0.686459
-0.660979
-0.628238
-0.590522
-0.548957
-0.50753
-0.477237
-0.4467
-0.40913
-0.400817
-0.417068
-0.423302
-0.434768
-0.440825
-0.428459
-0.421369
-0.697173
-0.696942
-0.696327
-0.693875
-0.683324
-0.659891
-0.626761
-0.587161
-0.541519
-0.491115
-0.448093
-0.394989
-0.323484
-0.264087
-0.236588
-0.236884
-0.244254
-0.233407
-0.214447
-0.204137
-0.68893
-0.688782
-0.68838
-0.687659
-0.681211
-0.660026
-0.62588
-0.583194
-0.531946
-0.469995
-0.40835
-0.326654
-0.208841
-0.0889905
-0.0086364
0.0284979
0.0853773
0.157212
0.216865
0.245004
-0.683519
-0.683491
-0.683397
-0.683285
-0.679373
-0.661413
-0.626431
-0.579786
-0.522788
-0.450379
-0.368402
-0.271896
-0.101888
0.121959
0.365353
0.570347
0.732778
0.844822
0.907092
0.93015
-0.678949
-0.679012
-0.679054
-0.679075
-0.677688
-0.663372
-0.628458
-0.578794
-0.516036
-0.43496
-0.33967
-0.235369
-0.0348719
0.261629
0.600344
0.919541
1.17188
1.31673
1.36969
1.38131
-0.675087
-0.675087
-0.674785
-0.674135
-0.673494
-0.664249
-0.632836
-0.581695
-0.513731
-0.427593
-0.327436
-0.219969
-0.0333508
0.260106
0.59093
0.902671
1.15204
1.29095
1.33808
1.34699
-0.674037
-0.673847
-0.673038
-0.671268
-0.670074
-0.665948
-0.641248
-0.588727
-0.516398
-0.4296
-0.332069
-0.231749
-0.0788757
0.177923
0.452366
0.697856
0.889954
0.997239
1.03697
1.04621
-0.67621
-0.676532
-0.677658
-0.679589
-0.680594
-0.680195
-0.656381
-0.597907
-0.524124
-0.441839
-0.349062
-0.259933
-0.142002
0.0657608
0.281773
0.461423
0.598881
0.676926
0.708124
0.716386
-0.677154
-0.678991
-0.684628
-0.696784
-0.711099
-0.711057
-0.67498
-0.607793
-0.538786
-0.462159
-0.374075
-0.297627
-0.211529
-0.0521958
0.116052
0.250193
0.351784
0.412662
0.436962
0.442743
-0.683313
-0.685377
-0.690781
-0.700771
-0.715031
-0.715272
-0.676409
-0.614351
-0.558634
-0.485391
-0.403082
-0.336469
-0.273752
-0.151428
-0.0203905
0.0812768
0.156698
0.202835
0.220618
0.223876
-0.704738
-0.706036
-0.706996
-0.692717
-0.662364
-0.64823
-0.631572
-0.615104
-0.578561
-0.507533
-0.432235
-0.375224
-0.327026
-0.236326
-0.135054
-0.0560032
0.0018254
0.0358
0.0476923
0.0495068
-0.730691
-0.730482
-0.725932
-0.690156
-0.614328
-0.560997
-0.593462
-0.627531
-0.597987
-0.52853
-0.458905
-0.410285
-0.368426
-0.295673
-0.218482
-0.161647
-0.121275
-0.0971392
-0.0886646
-0.0877309
-0.764755
-0.761471
-0.761752
-0.752792
-0.726979
-0.691291
-0.693501
-0.694302
-0.637857
-0.550516
-0.484849
-0.439017
-0.401178
-0.343844
-0.282485
-0.238974
-0.209269
-0.192455
-0.186767
-0.186222
-0.862809
-0.869175
-0.906841
-0.958877
-0.983356
-0.962115
-0.90834
-0.817652
-0.694039
-0.576525
-0.510209
-0.457335
-0.423725
-0.377895
-0.327197
-0.291813
-0.267743
-0.253934
-0.249086
-0.248815
-1.0096
-1.02925
-1.08038
-1.13305
-1.15876
-1.13922
-1.06315
-0.912828
-0.729415
-0.602166
-0.521674
-0.466196
-0.438081
-0.397718
-0.351217
-0.319463
-0.297298
-0.285038
-0.280768
-0.280889
-1.08007
-1.09881
-1.13485
-1.17126
-1.19285
-1.17556
-1.09103
-0.901496
-0.718224
-0.602217
-0.509591
-0.463872
-0.442735
-0.401599
-0.359031
-0.330219
-0.308369
-0.296098
-0.292112
-0.292651
-1.00588
-1.02107
-1.04792
-1.07732
-1.09614
-1.08207
-0.997428
-0.813322
-0.66803
-0.554534
-0.477317
-0.446425
-0.426614
-0.392641
-0.355489
-0.327885
-0.307273
-0.296196
-0.292955
-0.293801
-0.794976
-0.81018
-0.839363
-0.875081
-0.901795
-0.893234
-0.811535
-0.684771
-0.574261
-0.479006
-0.436021
-0.408605
-0.395615
-0.367258
-0.336736
-0.31491
-0.298773
-0.289996
-0.28778
-0.288723
-0.486404
-0.500188
-0.528742
-0.568145
-0.602759
-0.609049
-0.567709
-0.507839
-0.44332
-0.401116
-0.375273
-0.355791
-0.353242
-0.331569
-0.309941
-0.295784
-0.284268
-0.278701
-0.277454
-0.278488
-0.17884
-0.187808
-0.20848
-0.242274
-0.282321
-0.309982
-0.323843
-0.325428
-0.321193
-0.313498
-0.300838
-0.298908
-0.298051
-0.284904
-0.276453
-0.270998
-0.267481
-0.266209
-0.266119
-0.266932
0.0305076
0.0253897
0.0111905
-0.0164925
-0.0584545
-0.111931
-0.159863
-0.195757
-0.216233
-0.227447
-0.235393
-0.23649
-0.237881
-0.235543
-0.237356
-0.241453
-0.245824
-0.249153
-0.250086
-0.250501
0.123422
0.120098
0.109581
0.0864644
0.0481143
-0.00136091
-0.0560421
-0.105015
-0.139743
-0.162569
-0.173726
-0.175575
-0.17922
-0.183812
-0.19301
-0.203276
-0.212609
-0.218435
-0.219729
-0.219844
0.137062
0.134794
0.127058
0.109594
0.0791046
0.0376539
-0.00745985
-0.0498787
-0.083943
-0.106438
-0.117007
-0.120228
-0.124048
-0.131188
-0.143108
-0.154739
-0.164246
-0.169419
-0.170638
-0.170775
0.110556
0.109171
0.1041
0.0923112
0.0718728
0.043436
0.0105825
-0.0211722
-0.04611
-0.0629423
-0.0704729
-0.0699161
-0.0716591
-0.08102
-0.0920921
-0.10072
-0.106494
-0.10913
-0.110217
-0.110657
0.0666194
0.0659686
0.0632653
0.056853
0.0454842
0.0299032
0.0117087
-0.00687492
-0.0219945
-0.0304349
-0.0325273
-0.0272264
-0.0276537
-0.0362193
-0.0453246
-0.0502276
-0.0512893
-0.0515329
-0.0523798
-0.0531465
0.0145702
0.0146229
0.0149282
0.0144261
0.0123446
0.00888161
0.00478137
0.000677512
-0.00262431
-0.00566464
-0.00621923
-0.00483822
-0.000546597
-0.00412966
-0.0075396
-0.0090284
-0.0102362
-0.0105069
-0.0101432
-0.0101837
-0.0279401
0.159026
0.33039
0.475079
0.59027
0.680501
0.755115
0.815632
0.830657
0.82738
0.257714
0.377435
0.489471
0.586305
0.66745
0.734145
0.786565
0.82201
0.841026
0.857791
0.45098
0.530632
0.609296
0.678185
0.736736
0.785251
0.823459
0.852686
0.87475
0.894011
0.594045
0.650573
0.707454
0.758461
0.802437
0.839851
0.871321
0.897759
0.917825
0.936724
0.709353
0.751864
0.794056
0.833583
0.86894
0.900213
0.927601
0.950854
0.968679
0.986742
0.805206
0.840476
0.875197
0.908479
0.939197
0.967041
0.991646
1.01233
1.02801
1.04548
0.892783
0.924477
0.956454
0.98738
1.01614
1.04231
1.06528
1.08409
1.09793
1.11494
0.979271
1.01167
1.04391
1.07495
1.10358
1.12924
1.15127
1.16872
1.18104
1.19756
1.07338
1.10972
1.14438
1.17672
1.20579
1.23107
1.25211
1.26835
1.27992
1.29606
1.18629
1.22688
1.26383
1.29668
1.32509
1.34903
1.36861
1.38385
1.39572
1.41179
1.32764
1.36861
1.40381
1.43337
1.45852
1.4801
1.49857
1.51403
1.52713
1.54307
1.49907
1.53133
1.55821
1.58052
1.6006
1.6193
1.63702
1.65378
1.66868
1.6844
1.6853
1.70254
1.71964
1.73631
1.75239
1.76713
1.78102
1.79549
1.81073
1.82802
1.86867
1.87862
1.89181
1.90278
1.91219
1.92184
1.93245
1.94262
1.9519
1.97757
2.08653
2.08083
2.06788
2.05362
2.04732
2.05302
2.07116
2.09968
2.13344
2.16977
2.38934
2.25339
2.17388
2.13135
2.11402
2.118
2.14543
2.20329
2.31095
2.48936
0.740723
0.734421
0.726692
0.71558
0.702013
0.689371
0.678983
0.670985
0.665287
0.661985
0.661673
0.664544
0.669808
0.67719
0.686756
0.698599
0.712169
0.725105
0.734098
0.741641
0.649781
0.655701
0.663776
0.669912
0.672986
0.672481
0.669405
0.665425
0.661858
0.659605
0.659513
0.661809
0.665598
0.670071
0.674191
0.676451
0.675387
0.670758
0.663708
0.655877
0.643015
0.645388
0.648658
0.651435
0.653892
0.656089
0.657281
0.657151
0.656238
0.655467
0.65573
0.657194
0.659016
0.660275
0.660223
0.658774
0.656628
0.654276
0.6513
0.648285
0.638202
0.639291
0.641211
0.643554
0.645434
0.646843
0.648075
0.649088
0.649717
0.650138
0.650749
0.65155
0.652063
0.651982
0.651381
0.65048
0.649165
0.647207
0.645108
0.643633
0.633147
0.633781
0.634913
0.636678
0.638531
0.640138
0.641406
0.642494
0.643511
0.64446
0.645313
0.645903
0.646097
0.645934
0.645431
0.644483
0.643076
0.641481
0.640153
0.639353
0.628183
0.628622
0.629414
0.630726
0.63226
0.63384
0.635339
0.636664
0.63786
0.639008
0.640041
0.640726
0.640974
0.640792
0.64017
0.639204
0.638075
0.63695
0.636058
0.635526
0.623298
0.623625
0.624242
0.625321
0.626632
0.628051
0.629555
0.631065
0.632506
0.633879
0.635123
0.635969
0.63628
0.636102
0.635557
0.634815
0.634001
0.633169
0.632521
0.632132
0.618466
0.61872
0.619218
0.620141
0.621331
0.622663
0.624116
0.625686
0.627324
0.628971
0.630484
0.631525
0.631971
0.631955
0.631638
0.631144
0.630551
0.629952
0.629487
0.629189
0.613614
0.613815
0.61423
0.615045
0.616162
0.617452
0.618898
0.620521
0.622313
0.624223
0.626054
0.627386
0.628093
0.628341
0.628282
0.628028
0.627651
0.627252
0.626929
0.626696
0.608653
0.608814
0.609171
0.609916
0.61099
0.612268
0.613752
0.615472
0.617438
0.619629
0.621838
0.623565
0.624629
0.625195
0.625413
0.625407
0.625257
0.625042
0.624837
0.624651
0.603492
0.603623
0.603939
0.604641
0.605704
0.607015
0.608577
0.610439
0.612636
0.615172
0.617843
0.620058
0.621551
0.622486
0.62302
0.623283
0.623361
0.623326
0.623223
0.623073
0.598039
0.598144
0.598433
0.599119
0.600206
0.601593
0.60328
0.605341
0.607841
0.610813
0.614051
0.616853
0.618851
0.620213
0.621106
0.621664
0.621992
0.622137
0.622123
0.622
0.592192
0.592275
0.592548
0.593243
0.59439
0.595896
0.597763
0.600092
0.602981
0.606497
0.610429
0.613936
0.616535
0.618395
0.6197
0.620608
0.621205
0.621526
0.621593
0.62149
0.585834
0.585897
0.586165
0.58689
0.588134
0.589807
0.59192
0.5946
0.59798
0.602167
0.606943
0.611299
0.614614
0.617062
0.618842
0.620143
0.621044
0.621557
0.621703
0.621616
0.578828
0.578872
0.579143
0.579922
0.581302
0.583198
0.585632
0.588759
0.592751
0.597763
0.603563
0.608939
0.613105
0.61625
0.618592
0.620341
0.621594
0.622315
0.622538
0.622464
0.57102
0.571038
0.571312
0.572169
0.573729
0.575912
0.578754
0.582443
0.587198
0.593222
0.60026
0.606856
0.612031
0.615996
0.619008
0.621297
0.622945
0.623893
0.624192
0.624126
0.562148
0.562161
0.562459
0.563418
0.565209
0.567758
0.571116
0.575508
0.581207
0.58847
0.597004
0.605054
0.611424
0.616355
0.620153
0.623085
0.625191
0.626388
0.626763
0.626701
0.551948
0.551935
0.552276
0.553387
0.55548
0.558495
0.562504
0.567778
0.574651
0.583431
0.593766
0.603541
0.611319
0.617388
0.622112
0.62579
0.628428
0.629894
0.630341
0.630278
0.540079
0.540045
0.540435
0.541733
0.544205
0.54782
0.552659
0.559048
0.567383
0.578023
0.590525
0.602335
0.611753
0.61915
0.624963
0.629502
0.632738
0.634486
0.634999
0.63493
0.526034
0.525977
0.526449
0.528001
0.530958
0.535347
0.541258
0.549071
0.559246
0.572174
0.58727
0.601463
0.612769
0.621688
0.628761
0.634281
0.638178
0.640208
0.640772
0.640689
0.509118
0.509039
0.509639
0.511545
0.515154
0.520577
0.527903
0.537568
0.550082
0.56583
0.584014
0.600958
0.614412
0.625052
0.633534
0.640157
0.644757
0.647045
0.647634
0.64753
0.488339
0.488244
0.48905
0.491472
0.496001
0.502856
0.512111
0.524244
0.539765
0.558987
0.580806
0.600873
0.616725
0.62927
0.639293
0.647122
0.652417
0.6549
0.655476
0.655344
0.462186
0.462091
0.463244
0.46647
0.472394
0.481343
0.493343
0.508839
0.528248
0.551717
0.577748
0.601292
0.619743
0.634345
0.64603
0.655098
0.661001
0.663571
0.664084
0.663919
0.428218
0.428175
0.429952
0.434564
0.442831
0.455078
0.471122
0.491251
0.515647
0.544208
0.575009
0.602322
0.623518
0.640268
0.65366
0.66392
0.67024
0.672734
0.673131
0.672931
0.382079
0.382256
0.38541
0.392932
0.405582
0.423258
0.445319
0.471711
0.502309
0.536784
0.572818
0.604097
0.628104
0.647001
0.662075
0.673346
0.679743
0.681951
0.682189
0.681964
0.315635
0.317057
0.324737
0.338981
0.359703
0.386027
0.416582
0.450935
0.488831
0.529869
0.571426
0.606729
0.633512
0.654471
0.670993
0.682894
0.688956
0.690668
0.69074
0.690518
0.23634
0.239126
0.254072
0.27866
0.310442
0.346984
0.386714
0.429441
0.475027
0.523149
0.570922
0.61099
0.641233
0.66474
0.682854
0.694974
0.700436
0.701733
0.701744
0.70161
0.155174
0.162451
0.184904
0.219823
0.262304
0.308832
0.357731
0.408869
0.462173
0.517362
0.571317
0.616055
0.649588
0.67558
0.695161
0.707031
0.711423
0.712159
0.712112
0.712032
0.088846
0.0981327
0.125365
0.167591
0.218457
0.273435
0.330585
0.389593
0.450236
0.512127
0.571827
0.620782
0.657156
0.685029
0.705335
0.716732
0.720484
0.721058
0.721024
0.72097
0.034497
0.0445222
0.0753923
0.123034
0.180209
0.241929
0.305999
0.371907
0.439199
0.507291
0.572316
0.625127
0.663992
0.693385
0.714209
0.725214
0.728569
0.729064
0.72906
0.729028
-0.0109716
-0.000619411
0.0327335
0.0845938
0.146931
0.21424
0.284146
0.356027
0.429256
0.503022
0.573021
0.629408
0.670554
0.701294
0.722467
0.733126
0.736236
0.736725
0.736765
0.73676
-0.0500328
-0.0395458
-0.0043452
0.0508876
0.117537
0.189648
0.264651
0.341825
0.420425
0.499444
0.574131
0.633943
0.67724
0.709199
0.730639
0.741047
0.743975
0.744472
0.744582
0.744619
-0.0843974
-0.0738739
-0.037234
0.0207925
0.09112
0.167406
0.246942
0.328926
0.412494
0.496473
0.575669
0.638817
0.684197
0.717359
0.739132
0.749365
0.752227
0.7528
0.752958
0.753034
-0.115344
-0.10481
-0.0670196
-0.00659332
0.0669389
0.146905
0.230506
0.316908
0.40514
0.493871
0.577487
0.643952
0.691493
0.725922
0.748162
0.758426
0.761301
0.761866
0.762052
0.762162
-0.143885
-0.13332
-0.0945136
-0.0319611
0.0444182
0.127658
0.214931
0.305401
0.398038
0.491377
0.579385
0.649238
0.699009
0.734837
0.757719
0.768185
0.771088
0.771616
0.771784
0.771908
-0.170603
-0.159992
-0.120267
-0.0558014
0.0231076
0.109285
0.199894
0.294123
0.390923
0.488759
0.581181
0.654517
0.706617
0.743939
0.767544
0.778278
0.781226
0.781693
0.781811
0.781916
-0.195982
-0.185297
-0.14471
-0.0785055
0.0026735
0.0914973
0.185151
0.282859
0.383594
0.485811
0.582699
0.659642
0.714153
0.752982
0.777348
0.788319
0.791308
0.791704
0.791756
0.791835
-0.220391
-0.209544
-0.168144
-0.10034
-0.0171159
0.0740907
0.170523
0.271451
0.37589
0.482367
0.583777
0.664482
0.721504
0.761828
0.786892
0.797997
0.800981
0.8013
0.801274
0.801318
-0.243958
-0.232921
-0.190744
-0.121486
-0.0364183
0.0569425
0.155896
0.259784
0.367698
0.47828
0.584268
0.668943
0.728606
0.770361
0.795925
0.807074
0.809956
0.810187
0.8101
0.810112
-0.266866
-0.255585
-0.212662
-0.14204
-0.055322
0.0399691
0.141201
0.247793
0.35894
0.473461
0.584038
0.67292
0.735451
0.778641
0.804482
0.815417
0.818113
0.818249
0.818109
0.818095
-0.28911
-0.277609
-0.233956
-0.162058
-0.073867
0.0231425
0.126422
0.235459
0.349578
0.467823
0.582964
0.676314
0.742056
0.786783
0.812661
0.823085
0.825432
0.825448
0.825273
0.82524
-0.310773
-0.299024
-0.25462
-0.181557
-0.0920666
0.00646096
0.11156
0.222795
0.339613
0.461319
0.580936
0.679008
0.748421
0.79499
0.820768
0.830269
0.83198
0.831812
0.831628
0.831594
-0.331729
-0.319796
-0.27466
-0.20055
-0.109905
-0.010034
0.0966489
0.209831
0.329068
0.453952
0.577866
0.680868
0.7545
0.803467
0.829251
0.837407
0.83797
0.837406
0.837259
0.837286
-0.35212
-0.339917
-0.294073
-0.219036
-0.127375
-0.0263275
0.0817549
0.196618
0.317992
0.445754
0.573692
0.681738
0.760151
0.812296
0.838649
0.84535
0.844051
0.84248
0.842331
0.842662
-0.371787
-0.359349
-0.312862
-0.236982
-0.144414
-0.0423533
0.0669413
0.183253
0.306462
0.436749
0.568384
0.681453
0.765161
0.821353
0.84931
0.855256
0.851833
0.848221
0.847427
0.848297
-0.390851
-0.378137
-0.330984
-0.254345
-0.160998
-0.0580573
0.052281
0.1698
0.294563
0.427038
0.561953
0.679825
0.769251
0.830264
0.861003
0.867806
0.863418
0.857244
0.852265
0.845221
-0.409206
-0.396284
-0.34853
-0.271293
-0.17735
-0.0737127
0.0374533
0.155879
0.281885
0.416177
0.55397
0.676412
0.772205
0.839034
0.873564
0.883098
0.879771
0.871029
0.858841
0.858427
-0.426814
-0.413872
-0.365509
-0.287776
-0.193462
-0.0892887
0.0224797
0.141458
0.268375
0.404013
0.544198
0.670618
0.773124
0.846835
0.885184
0.897615
0.895231
0.886413
0.851129
0.813226
-0.443482
-0.43076
-0.381879
-0.303677
-0.209339
-0.104797
0.00734986
0.12666
0.254084
0.390547
0.532489