/*--------------------------------*- C++ -*----------------------------------*\
  =========                 |
  \\      /  F ield         | OpenFOAM: The Open Source CFD Toolbox
   \\    /   O peration     | Website:  https://openfoam.org
    \\  /    A nd           | Version:  6
     \\/     M anipulation  |
\*---------------------------------------------------------------------------*/
FoamFile
{
    version     2.0;
    format      ascii;
    class       surfaceScalarField;
    location    "4";
    object      phi;
}
// * * * * * * * * * * * * * * * * * * * * * * * * * * * * * * * * * * * * * //

dimensions      [0 3 -1 0 0 0 0];

internalField   nonuniform List<scalar> 
17370
(
-0.0902025
0.090197
0.289016
-0.0717764
0.053674
0.364878
-0.0376608
0.0273049
0.426524
-0.0190934
0.0139049
0.50444
-0.00993276
0.00754001
0.601795
-0.00561919
0.00454706
0.72013
-0.00367243
0.0030518
0.863527
-0.00236691
0.00184853
1.03597
-0.00128721
0.000837074
1.24295
-0.000349868
-4.72181e-05
1.49159
0.000442811
-0.000931456
1.49168
0.00137919
-0.00193479
1.24325
0.00244584
-0.00312131
1.03631
0.0037458
-0.00461338
0.863774
0.0056676
-0.00758447
0.720974
0.00996864
-0.0139342
0.60318
0.019117
-0.0273237
0.507646
0.0376765
-0.0536866
0.432178
0.0717856
-0.0902026
0.365193
0.0902065
0.198804
-0.128883
0.0922116
0.0366713
-0.36466
0.353838
-0.0682821
0.0791042
-0.447552
0.454466
-0.0780685
0.0711545
-0.521615
0.529997
-0.0632193
0.0548377
-0.612629
0.620789
-0.0469618
0.0388017
-0.726734
0.732799
-0.0320131
0.025948
-0.866949
0.871297
-0.0211516
0.0168039
-1.03793
1.04104
-0.0133521
0.0102381
-1.24438
1.24662
-0.0077865
0.00554157
-1.49259
1.49457
-0.00363567
0.00164834
-1.49237
1.4942
0.00018365
-0.00202166
-1.24385
1.24573
0.00398892
-0.00586984
-1.03713
1.03956
0.00809202
-0.0105262
-0.865483
0.86892
0.0136206
-0.017058
-0.72401
0.728786
0.0213911
-0.0261667
-0.608533
0.615291
0.03219
-0.0389483
-0.515025
0.522883
0.0470773
-0.0549357
-0.440585
0.448516
0.063309
-0.0712399
-0.375759
0.37678
0.0781431
-0.0791643
-0.257156
0.22552
0.0683235
-0.0366877
-0.0769687
0.0708662
0.00610249
-0.028778
0.0333881
-0.373227
0.368617
-0.0353229
0.0358175
-0.45074
0.450246
-0.0353183
0.0344961
-0.52611
0.526932
-0.0329475
0.031093
-0.619472
0.621326
-0.0285311
0.0257459
-0.733247
0.736032
-0.0222902
0.0189242
-0.872812
0.876178
-0.0152412
0.0120147
-1.04265
1.04588
-0.00867445
0.00574854
-1.24836
1.25128
-0.00261228
-0.000372665
-1.49679
1.49978
0.00334198
-0.00646058
-1.49722
1.50034
0.00934325
-0.0126324
-1.2495
1.25279
0.0158166
-0.0194725
-1.04462
1.04827
0.0227974
-0.0261958
-0.875749
0.879147
0.0289251
-0.0314362
-0.737475
0.739986
0.0332521
-0.034764
-0.624625
0.626137
0.0355464
-0.0359923
-0.532668
0.533113
0.0354611
-0.0334934
-0.454596
0.452628
0.0288573
-0.0181965
-0.340999
0.330338
0.00611907
-0.0769229
0.0708038
-0.0687459
0.0687083
3.7647e-05
-0.00882359
0.0149751
-0.362595
0.356443
-0.0209752
0.0254293
-0.447944
0.44349
-0.0284471
0.0295986
-0.526941
0.52579
-0.0294954
0.0285864
-0.622332
0.623241
-0.0269375
0.0250146
-0.738121
0.740044
-0.0225122
0.0199662
-0.878883
0.881429
-0.016852
0.0137955
-1.04896
1.05202
-0.0102669
0.00691545
-1.25464
1.25799
-0.00301865
-0.00079974
-1.50349
1.50731
0.00460158
-0.00844763
-1.50414
1.50799
0.0117492
-0.0151752
-1.25632
1.25974
0.0180843
-0.0210594
-1.05142
1.05439
0.0234955
-0.025891
-0.881737
0.884133
0.0277308
-0.0292972
-0.741679
0.743245
0.0301294
-0.0301442
-0.626652
0.626667
0.0289154
-0.0258168
-0.532389
0.52929
0.0212855
-0.015207
-0.448376
0.442297
0.00897861
-0.002879
-0.321494
0.315395
6.00541e-05
-0.0686571
0.068597
-0.069066
0.069029
3.70849e-05
-0.00261804
0.00545923
-0.352008
0.349166
-0.00904854
0.0121689
-0.439255
0.436135
-0.0151409
0.0172907
-0.523508
0.521358
-0.0188987
0.0197055
-0.623029
0.622222
-0.0199186
0.0194811
-0.741416
0.741853
-0.0183573
0.016809
-0.883713
0.885261
-0.0146305
0.0122524
-1.05484
1.05722
-0.00925306
0.00620426
-1.26122
1.26427
-0.00255915
-0.0010574
-1.51105
1.51467
0.00464832
-0.00821135
-1.51172
1.51528
0.0111561
-0.0140349
-1.26293
1.26581
0.0163063
-0.0183385
-1.05708
1.05911
0.0197459
-0.0207161
-0.886058
0.887028
0.0210125
-0.0206457
-0.743885
0.743518
0.0197033
-0.0179508
-0.625154
0.623402
0.015682
-0.0125916
-0.525472
0.522381
0.00937276
-0.00568664
-0.43701
0.433324
0.0027667
-0.000717975
-0.311998
0.309949
6.13285e-05
-0.0689341
0.0688728
-0.0688455
0.0687692
7.63153e-05
-0.00132313
0.00261991
-0.347252
0.345955
-0.00437727
0.00605954
-0.433853
0.432171
-0.00782019
0.00927014
-0.519588
0.518138
-0.0105875
0.0114887
-0.62132
0.620419
-0.0120669
0.0122097
-0.741917
0.741775
-0.0119068
0.0112252
-0.886252
0.886934
-0.0100148
0.00851853
-1.0591
1.06059
-0.00646346
0.00424757
-1.26689
1.26911
-0.00147219
-0.0013196
-1.51796
1.52075
0.00408254
-0.00675627
-1.51846
1.52114
0.00884068
-0.010726
-1.26816
1.27004
0.0120546
-0.0130715
-1.06053
1.06154
0.01357
-0.0136716
-0.887449
0.887551
0.0133515
-0.0125893
-0.742906
0.742144
0.0115327
-0.0100601
-0.621787
0.620314
0.0084787
-0.00658634
-0.520001
0.518109
0.00479234
-0.00291891
-0.430726
0.428853
0.00152266
-0.000531003
-0.308513
0.307521
0.00011058
-0.0686594
0.0685488
-0.0687434
0.0687098
3.36396e-05
-0.000604964
0.00118168
-0.345098
0.344522
-0.00198072
0.00278096
-0.430995
0.430195
-0.00367136
0.00445283
-0.517041
0.516259
-0.00523448
0.00583663
-0.619642
0.619039
-0.00632466
0.0065724
-0.741532
0.741284
-0.00658536
0.00632687
-0.887362
0.88762
-0.0057214
0.00486645
-1.06174
1.06259
-0.00359539
0.0021466
-1.27092
1.27237
-0.000284177
-0.00159695
-1.52304
1.52492
0.00341866
-0.00514465
-1.5233
1.52502
0.00643675
-0.00750521
-1.27149
1.27256
0.00815694
-0.0085312
-1.0622
1.06257
0.00857826
-0.00833612
-0.887428
0.887186
0.00788435
-0.00718159
-0.741366
0.740663
0.00639296
-0.00541905
-0.61908
0.618106
0.00447303
-0.00341537
-0.516674
0.515616
0.00247483
-0.00153487
-0.427533
0.426593
0.000839901
-0.000319183
-0.306829
0.306309
7.33153e-05
-0.0684873
0.0684139
-0.0686835
0.0686737
9.85634e-06
-0.000271198
0.000541775
-0.344124
0.343853
-0.00091738
0.00129759
-0.429643
0.429262
-0.00172816
0.00211599
-0.515707
0.515319
-0.00251543
0.00283579
-0.618593
0.618273
-0.0031092
0.00326121
-0.741078
0.740926
-0.00328742
0.00315581
-0.887791
0.887923
-0.00281157
0.00229891
-1.06324
1.06375
-0.00150706
0.000582465
-1.27352
1.27444
0.000639237
-0.00190428
-1.52648
1.52774
0.00312934
-0.00421578
-1.5264
1.52749
0.00495384
-0.0054949
-1.27333
1.27387
0.00575814
-0.00581942
-1.06276
1.06282
0.00569088
-0.00538412
-0.886896
0.886589
0.00498425
-0.00445165
-0.740052
0.73952
0.00390744
-0.00327832
-0.617334
0.616704
0.0026953
-0.00206653
-0.514815
0.514186
0.00151928
-0.000974588
-0.425891
0.425347
0.000560568
-0.000230816
-0.305898
0.305568
5.92929e-05
-0.0683434
0.0682841
-0.0686757
0.0686867
-1.09725e-05
-5.24899e-05
0.000157358
-0.343677
0.343572
-0.000311658
0.000470396
-0.429009
0.42885
-0.000651116
0.000813622
-0.515058
0.514895
-0.000979231
0.00110775
-0.618057
0.617928
-0.0012081
0.00124626
-0.740831
0.740793
-0.0012087
0.00108285
-0.888043
0.888169
-0.000823609
0.000462305
-1.06418
1.06454
8.07218e-05
-0.000707014
-1.2752
1.27582
0.00152178
-0.00234305
-1.52876
1.52958
0.00310778
-0.00374924
-1.52833
1.52897
0.00414247
-0.00438105
-1.27424
1.27448
0.00444154
-0.00435387
-1.06279
1.06271
0.00415996
-0.00385291
-0.886279
0.885972
0.00351067
-0.00309268
-0.739051
0.738633
0.00269049
-0.00224447
-0.616181
0.615735
0.00184404
-0.00142201
-0.513679
0.513257
0.00105974
-0.000698636
-0.424911
0.42455
0.000417661
-0.000182521
-0.305295
0.30506
5.06509e-05
-0.0682311
0.0681805
-0.068707
0.068735
-2.80501e-05
8.39537e-05
-8.39876e-05
-0.343525
0.343525
6.41544e-05
-4.01941e-05
-0.428765
0.428741
1.51944e-05
1.92779e-06
-0.514811
0.514794
-9.24024e-06
-6.14416e-07
-0.617874
0.617884
3.77888e-05
-0.000105025
-0.740809
0.740876
0.000226715
-0.000392604
-0.888311
0.888477
0.000646332
-0.000951419
-1.06486
1.06517
0.00137083
-0.00182586
-1.27635
1.27681
0.00238711
-0.00292115
-1.53025
1.53078
0.00338375
-0.00373477
-1.52945
1.5298
0.00391227
-0.00394439
-1.2746
1.27463
0.00386757
-0.00368656
-1.06257
1.06239
0.00345347
-0.00314525
-0.885667
0.885359
0.00283339
-0.00247481
-0.738251
0.737893
0.0021436
-0.00178666
-0.615343
0.614986
0.00147257
-0.00114611
-0.512893
0.512566
0.000867731
-0.000588918
-0.424239
0.42396
0.000366235
-0.00016984
-0.304849
0.304653
5.07044e-05
-0.0681305
0.0680798
-0.0687704
0.0688132
-4.27616e-05
0.00020561
-0.000274502
-0.343558
0.343627
0.000347769
-0.000419036
-0.428769
0.428841
0.000505378
-0.000594435
-0.514834
0.514924
0.000706019
-0.000823982
-0.617951
0.618069
0.000974964
-0.00113719
-0.740992
0.741154
0.00134701
-0.00157261
-0.888671
0.888896
0.00186158
-0.00216482
-1.06546
1.06577
0.00253804
-0.00290625
-1.27721
1.27758
0.00331952
-0.00367123
-1.53121
1.53156
0.00393118
-0.00406838
-1.53004
1.53018
0.0040737
-0.00399484
-1.27461
1.27453
0.00381674
-0.00355936
-1.06217
1.06191
0.00328248
-0.00295159
-0.885042
0.884711
0.00263706
-0.00229018
-0.737545
0.737198
0.00197903
-0.0016506
-0.614649
0.614321
0.00136578
-0.00107257
-0.512262
0.511969
0.000823576
-0.000572813
-0.4237
0.423449
0.000367617
-0.000178152
-0.304463
0.304274
5.58591e-05
-0.0680271
0.0679712
-0.0688646
0.0689252
-6.05701e-05
0.000322322
-0.0004592
-0.343732
0.343869
0.000611896
-0.00076093
-0.428951
0.4291
0.000938796
-0.00111643
-0.515057
0.515235
0.00132948
-0.00154253
-0.618235
0.618448
0.00179776
-0.00205231
-0.741362
0.741617
0.00235584
-0.00265559
-0.889157
0.889457
0.0030071
-0.00334467
-1.06608
1.06642
0.00372359
-0.00406246
-1.27793
1.27827
0.00440044
-0.00464249
-1.53185
1.53209
0.00476898
-0.00476402
-1.53023
1.53023
0.0046488
-0.00442416
-1.27438
1.27415
0.00416423
-0.00382928
-1.06162
1.06128
0.00349694
-0.00311897
-0.88436
0.883982
0.00277219
-0.00239939
-0.736843
0.73647
0.00207117
-0.00172934
-0.61399
0.613648
0.00143573
-0.00113541
-0.511677
0.511376
0.000881017
-0.000623619
-0.423199
0.422942
0.000408963
-0.00020395
-0.304079
0.303874
6.58901e-05
-0.0679109
0.067845
-0.0689951
0.0690752
-8.00763e-05
0.000443561
-0.000644674
-0.344037
0.344239
0.000875705
-0.00110237
-0.429287
0.429514
0.00137155
-0.00163792
-0.515456
0.515723
0.00195351
-0.00226412
-0.618708
0.619019
0.00262888
-0.00298369
-0.74192
0.742275
0.00339422
-0.00378529
-0.8898
0.890191
0.0042249
-0.00462648
-1.06679
1.06719
0.00505077
-0.00540225
-1.27861
1.27896
0.00571539
-0.00589494
-1.5323
1.53248
0.00592835
-0.00580694
-1.53016
1.53004
0.00558443
-0.00524728
-1.27387
1.27353
0.00488462
-0.00445116
-1.0609
1.06047
0.00403898
-0.003584
-0.883569
0.883114
0.00317535
-0.00274276
-0.736072
0.735639
0.00236615
-0.00197714
-0.613287
0.612898
0.00164492
-0.00130642
-0.51106
0.510722
0.00102012
-0.000729516
-0.422671
0.42238
0.000484274
-0.00024527
-0.303654
0.303415
8.04672e-05
-0.0677724
0.067692
-0.0691667
0.0692712
-0.000104478
0.000588217
-0.000861507
-0.344474
0.344748
0.00117831
-0.00148968
-0.429782
0.430093
0.00185898
-0.00222327
-0.516036
0.516401
0.00265297
-0.00307331
-0.619382
0.619803
0.00356299
-0.00403448
-0.742685
0.743157
0.00457291
-0.0050775
-0.890636
0.89114
0.00563302
-0.00612728
-1.06763
1.06813
0.00663141
-0.00702855
-1.27933
1.27973
0.00735279
-0.00749908
-1.53264
1.53279
0.00745948
-0.00723068
-1.52987
1.52964
0.00689682
-0.00643516
-1.27314
1.27268
0.0059586
-0.00540396
-1.05998
1.05942
0.00488691
-0.00432443
-0.88261
0.882047
0.00382464
-0.0032999
-0.735164
0.73464
0.00284582
-0.00237895
-0.612474
0.612007
0.00198153
-0.00157752
-0.510354
0.50995
0.0012361
-0.000888918
-0.422064
0.421717
0.000593937
-0.000303234
-0.303152
0.302862
0.000100249
-0.0676023
0.0675021
-0.0693902
0.0695258
-0.000135529
0.000767701
-0.00112775
-0.345062
0.345422
0.00154654
-0.00195833
-0.430452
0.430864
0.00244635
-0.00292702
-0.51682
0.517301
0.00349281
-0.00404473
-0.620286
0.620838
0.00468527
-0.00529899
-0.743696
0.744309
0.00599542
-0.00664273
-0.891712
0.89236
0.00734775
-0.00796616
-1.06868
1.0693
0.00858443
-0.00905687
-1.28016
1.28063
0.00942032
-0.00955188
-1.53292
1.53306
0.00944699
-0.00910663
-1.52936
1.52902
0.00864847
-0.00803833
-1.27214
1.27153
0.00742157
-0.00671346
-1.0588
1.05809
0.00606003
-0.00535451
-0.881418
0.880712
0.00473122
-0.00407953
-0.734056
0.733404
0.00351741
-0.00294074
-0.611489
0.610913
0.00245073
-0.00195321
-0.509503
0.509005
0.00153298
-0.00110531
-0.421332
0.420905
0.000740728
-0.000379521
-0.302538
0.302177
0.00012586
-0.0673898
0.067264
-0.06968
0.0698556
-0.000175631
0.000995925
-0.00146425
-0.345833
0.346301
0.00200955
-0.00254575
-0.431334
0.43187
0.00318092
-0.00380592
-0.517849
0.518474
0.00454067
-0.00525619
-0.621466
0.622182
0.00608482
-0.00687648
-0.745007
0.745799
0.00777149
-0.00859941
-0.893092
0.89392
0.00949547
-0.0102748
-1.06999
1.07077
0.0110446
-0.0116215
-1.28115
1.28173
0.0120478
-0.0121751
-1.53318
1.53331
0.0120017
-0.0115327
-1.52861
1.52814
0.0109255
-0.010132
-1.27084
1.27004
0.00933906
-0.00843554
-1.05729
1.05638
0.00760646
-0.00671495
-0.87992
0.879028
0.00592983
-0.00511094
-0.732675
0.731856
0.00440587
-0.00368357
-0.610268
0.609546
0.0030704
-0.00244818
-0.50845
0.507828
0.00192274
-0.00138776
-0.420427
0.419892
0.000931047
-0.000477567
-0.301773
0.301319
0.000158484
-0.0671228
0.0669643
-0.0700557
0.0702838
-0.000228095
0.00129091
-0.00189735
-0.346834
0.347441
0.00260348
-0.00329771
-0.432481
0.433175
0.00411958
-0.00492766
-0.519185
0.519993
0.0058767
-0.00679973
-0.622995
0.623918
0.00786679
-0.00888411
-0.746696
0.747714
0.010031
-0.0110883
-0.894855
0.895913
0.0122272
-0.0132117
-1.07165
1.07263
0.0141754
-0.0148875
-1.28237
1.28308
0.0153976
-0.0155243
-1.53344
1.53356
0.0152687
-0.0146411
-1.5276
1.52697
0.0138478
-0.0128232
-1.26914
1.26812
0.0118066
-0.0106541
-1.05536
1.05421
0.00960029
-0.00847011
-0.878025
0.876895
0.00747668
-0.00644204
-0.730936
0.729901
0.0055522
-0.00464138
-0.608735
0.607824
0.00386865
-0.00308492
-0.50713
0.506346
0.00242324
-0.0017495
-0.419292
0.418618
0.00117399
-0.000602163
-0.30081
0.300238
0.000199722
-0.0667864
0.0665866
-0.0705441
0.0708416
-0.000297504
0.00167684
-0.00246196
-0.348131
0.348916
0.00337555
-0.00427349
-0.433964
0.434862
0.00533563
-0.00637912
-0.520912
0.521955
0.00760327
-0.00879223
-0.624966
0.626155
0.0101644
-0.0114698
-0.748866
0.750171
0.0129375
-0.0142858
-0.897107
0.898455
0.0157319
-0.0169746
-1.07374
1.07498
0.0181812
-0.019061
-1.28387
1.28475
0.0196728
-0.0197946
-1.53369
1.53381
0.0194319
-0.0186008
-1.52625
1.52542
0.0175701
-0.0162514
-1.26695
1.26564
0.0149505
-0.0134812
-1.05291
1.05144
0.0121413
-0.0107071
-0.875622
0.874187
0.00944829
-0.00813859
-0.728737
0.727427
0.00701304
-0.00586159
-0.6068
0.605649
0.00488511
-0.00389497
-0.505465
0.504475
0.00305915
-0.00220811
-0.417861
0.41701
0.0014812
-0.00075914
-0.299596
0.298874
0.000251448
-0.0663625
0.0661111
-0.0711823
0.0715728
-0.000390558
0.00218789
-0.00320677
-0.34981
0.350829
0.0043909
-0.00555419
-0.435884
0.437047
0.00692868
-0.00827761
-0.523141
0.52449
0.00985788
-0.0113902
-0.627504
0.629036
0.0131548
-0.0148291
-0.75165
0.753324
0.0167056
-0.0184224
-0.899977
0.901693
0.0202543
-0.0218181
-1.07638
1.07794
0.0233222
-0.0244026
-1.28573
1.28681
0.0251285
-0.0252303
-1.53393
1.53403
0.0247205
-0.0236233
-1.52446
1.52337
0.0222874
-0.0205935
-1.26414
1.26245
0.0189313
-0.0170603
-1.04978
1.04791
0.0153581
-0.0135388
-0.872572
0.870753
0.0119439
-0.0102857
-0.725954
0.724296
0.00886157
-0.00740523
-0.604354
0.602898
0.00617056
-0.00491885
-0.503362
0.50211
0.00386235
-0.00278669
-0.416054
0.414978
0.0018681
-0.000956289
-0.298062
0.29715
0.000316172
-0.065829
0.0655128
-0.0720224
0.0725399
-0.000517535
0.00287509
-0.00420391
-0.351991
0.35332
0.0057453
-0.00725826
-0.438373
0.439886
0.00904294
-0.0107916
-0.526025
0.527774
0.0128361
-0.014814
-0.630777
0.632755
0.0170852
-0.0192327
-0.755221
0.757368
0.0216292
-0.0238101
-0.903629
0.90581
0.0261217
-0.0280781
-1.07969
1.08165
0.029937
-0.0312468
-1.288
1.28931
0.0320871
-0.032137
-1.53411
1.53416
0.0314197
-0.0299715
-1.52211
1.52066
0.0282423
-0.0260705
-1.26053
1.25836
0.023951
-0.0215732
-1.0458
1.04342
0.0194143
-0.0171102
-0.868705
0.866401
0.0150918
-0.0129947
-0.72243
0.720333
0.0111941
-0.0093531
-0.60126
0.599419
0.00779248
-0.00621034
-0.500703
0.499121
0.00487489
-0.00351523
-0.413769
0.412409
0.00235449
-0.00120348
-0.296126
0.294975
0.00039704
-0.0651585
0.0647615
-0.0731406
0.0738353
-0.000694729
0.00381804
-0.00556581
-0.354838
0.356586
0.00758715
-0.00956755
-0.441613
0.443593
0.0118966
-0.0141727
-0.529769
0.532045
0.0168257
-0.0193839
-0.635005
0.637563
0.0223099
-0.0250633
-0.759801
0.762554
0.0281174
-0.0308764
-0.908265
0.911024
0.0337734
-0.0361962
-1.08383
1.08625
0.0384604
-0.0400137
-1.29074
1.29229
0.0409449
-0.0408836
-1.53416
1.5341
0.0398706
-0.0379582
-1.51899
1.51708
0.0357247
-0.0329491
-1.2559
1.25312
0.0302558
-0.0272441
-1.04075
1.03773
0.0245146
-0.0216044
-0.86381
0.8609
0.0190563
-0.0164091
-0.717976
0.715329
0.0141361
-0.0118118
-0.59735
0.595026
0.00984082
-0.007842
-0.497343
0.495344
0.00615411
-0.00443507
-0.410881
0.409162
0.00296781
-0.00151452
-0.293682
0.292229
0.000498523
-0.0643165
0.063818
-0.0746526
0.0756062
-0.000953678
0.00516038
-0.0074947
-0.358582
0.360917
0.0101778
-0.0127927
-0.445857
0.448472
0.0158487
-0.0188219
-0.534652
0.537626
0.0222724
-0.0255858
-0.640484
0.643797
0.0293554
-0.0328792
-0.765674
0.769198
0.0367544
-0.0402178
-0.914119
0.917582
0.0438054
-0.0467552
-1.08893
1.09188
0.0494475
-0.0512241
-1.29396
1.29574
0.0521784
-0.0519043
-1.53395
1.53368
0.0504694
-0.0479474
-1.51489
1.51236
0.0450748
-0.041547
-1.24999
1.24646
0.0381449
-0.0343521
-1.03435
1.03056
0.0309193
-0.0272602
-0.857633
0.853973
0.0240557
-0.0207249
-0.712355
0.709024
0.0178632
-0.0149343
-0.592414
0.589485
0.012448
-0.00992323
-0.493099
0.490574
0.00778786
-0.00561019
-0.407233
0.405056
0.00375078
-0.00191128
-0.290597
0.288758
0.000628136
-0.0632588
0.0626307
-0.0767394
0.0781114
-0.00137201
0.00721909
-0.0104172
-0.363553
0.366752
0.0140313
-0.0175026
-0.451476
0.454948
0.0215136
-0.0253954
-0.541078
0.544959
0.0298801
-0.0341686
-0.64761
0.651899
0.0390163
-0.0435053
-0.773188
0.777677
0.0483781
-0.0526639
-0.921439
0.925724
0.0570157
-0.0605069
-1.0951
1.09859
0.063585
-0.065499
-1.2976
1.29951
0.0663358
-0.0656865
-1.53324
1.53259
0.0636562
-0.0603446
-1.50947
1.50616
0.0566777
-0.0522348
-1.2425
1.23806
0.047979
-0.0432475
-1.02631
1.02158
0.0389683
-0.0344036
-0.849874
0.845309
0.0304013
-0.0262346
-0.705282
0.701115
0.0226487
-0.0189718
-0.586187
0.58251
0.0158428
-0.0126549
-0.487738
0.48455
0.00994636
-0.00717127
-0.402623
0.399848
0.00479391
-0.00244192
-0.286699
0.284347
0.000804065
-0.0619266
0.0611225
-0.0797009
0.0818541
-0.00215313
0.0107436
-0.0152219
-0.370271
0.374749
0.0200899
-0.0246494
-0.459057
0.463617
0.0298568
-0.0349004
-0.549633
0.554676
0.0407242
-0.0462698
-0.656901
0.662447
0.0524798
-0.0581414
-0.782724
0.788386
0.0641595
-0.0693246
-0.93041
0.935576
0.0744186
-0.0783611
-1.10229
1.10624
0.0816629
-0.0835218
-1.30141
1.30327
0.0839982
-0.0827343
-1.53166
1.53039
0.0798821
-0.0755716
-1.50237
1.49806
0.070945
-0.0654273
-1.23309
1.22757
0.0601826
-0.0543686
-1.01632
1.0105
0.0491124
-0.0434971
-0.840208
0.834593
0.0385625
-0.03341
-0.696418
0.691265
0.0289625
-0.0243883
-0.578335
0.573761
0.0204792
-0.0164711
-0.48095
0.476942
0.013031
-0.0094599
-0.396781
0.39321
0.00635314
-0.0032505
-0.281759
0.278656
0.00108235
-0.0602388
0.0591565
-0.084119
0.0878857
-0.00376665
0.0173312
-0.0235586
-0.379718
0.385946
0.0299238
-0.0358102
-0.469567
0.475454
0.0425689
-0.0491567
-0.561123
0.56771
0.0567666
-0.063916
-0.668911
0.676061
0.0717426
-0.0786752
-0.794545
0.801478
0.0858017
-0.091703
-0.940985
0.946887
0.0972914
-0.101396
-1.1102
1.1143
0.104562
-0.106018
-1.30491
1.30636
0.105752
-0.103542
-1.52865
1.52644
0.0995897
-0.0940512
-1.49313
1.48759
0.088308
-0.0815856
-1.22144
1.21472
0.0752583
-0.068274
-1.00408
0.997098
0.0619651
-0.0552165
-0.828338
0.821589
0.04927
-0.0430367
-0.685411
0.679178
0.0376337
-0.0320551
-0.568445
0.562866
0.027257
-0.0222827
-0.472294
0.46732
0.0179399
-0.0132959
-0.389298
0.384654
0.00906832
-0.00471013
-0.275449
0.271091
0.00159534
-0.0580689
0.0564735
-0.0913763
0.0988478
-0.00747148
0.0312988
-0.040009
-0.393811
0.402521
0.0481075
-0.0556019
-0.484385
0.491879
0.0644513
-0.0730333
-0.57629
0.584872
0.0826906
-0.0914114
-0.68391
0.692631
0.100545
-0.108273
-0.80848
0.816208
0.115877
-0.121877
-0.952607
0.958608
0.127247
-0.130868
-1.11802
1.12164
0.133226
-0.133696
-1.30723
1.3077
0.132126
-0.128519
-1.52347
1.51986
0.123124
-0.11612
-1.48127
1.47427
0.109123
-0.10112
-1.2073
1.1993
0.0936854
-0.085544
-0.98946
0.981318
0.0782122
-0.0703721
-0.814124
0.806284
0.0634517
-0.0561763
-0.672052
0.664776
0.0498451
-0.0432705
-0.556167
0.549592
0.0375708
-0.0316175
-0.461234
0.455281
0.0262904
-0.0201454
-0.379511
0.373366
0.0140052
-0.00723972
-0.267018
0.260252
0.00236387
-0.0551412
0.0527773
-0.106745
0.109206
-0.00246041
0.0183043
-0.0264571
-0.415071
0.423224
0.0349818
-0.0433537
-0.504229
0.512601
0.0534004
-0.0636308
-0.594875
0.605105
0.0746872
-0.0844728
-0.701082
0.710868
0.0952905
-0.104812
-0.823269
0.83279
0.114654
-0.123057
-0.963797
0.9722
0.131371
-0.137992
-1.12431
1.13093
0.143856
-0.147679
-1.30712
1.31094
0.149712
-0.14913
-1.51516
1.51457
0.145817
-0.140148
-1.46631
1.46064
0.133454
-0.124891
-1.19056
1.182
0.116465
-0.106274
-0.972533
0.962342
0.0968024
-0.0862258
-0.797772
0.787195
0.0766132
-0.0662368
-0.656574
0.646197
0.0567549
-0.0469517
-0.541676
0.531873
0.0386358
-0.029681
-0.447689
0.438734
0.0218008
-0.0133806
-0.366574
0.358154
0.00646177
-0.00134358
-0.254138
0.24902
-0.000677483
-0.0503541
0.0510315
-0.116518
0.110948
0.00557004
-0.00457994
-0.000298995
-0.435902
0.440781
0.00813591
-0.0158965
-0.523931
0.531692
0.025361
-0.0341086
-0.615268
0.624016
0.0439047
-0.0527926
-0.720627
0.729515
0.0622325
-0.0707444
-0.841861
0.850373
0.0795524
-0.0868013
-0.980327
0.987576
0.0941638
-0.0997394
-1.13746
1.14304
0.104644
-0.107609
-1.31467
1.31763
0.108612
-0.107383
-1.51351
1.51228
0.103671
-0.0979043
-1.45459
1.44882
0.091209
-0.0829816
-1.17343
1.16521
0.0751111
-0.0661202
-0.952432
0.943441
0.0577145
-0.0483628
-0.776706
0.767354
0.0399791
-0.0313206
-0.635255
0.626597
0.0239158
-0.0163132
-0.520864
0.513261
0.00995651
-0.00387396
-0.427448
0.421365
-0.000904119
0.00479809
-0.347362
0.343468
-0.00647134
0.00578483
-0.240528
0.241215
-0.00309486
-0.0484448
0.0515396
-0.11279
0.108441
0.00434908
-0.00830534
0.00585905
-0.45083
0.453276
-0.000836354
-0.00501948
-0.540982
0.546838
0.0122219
-0.0192977
-0.632666
0.639742
0.0272998
-0.0346294
-0.737781
0.74511
0.0426464
-0.0497665
-0.858107
0.865227
0.0569489
-0.0632058
-0.994573
1.00083
0.0694045
-0.0741966
-1.14822
1.15301
0.0780412
-0.0801574
-1.32009
1.32221
0.0807869
-0.0792861
-1.5107
1.5092
0.0756326
-0.0703126
-1.44296
1.43764
0.0643989
-0.0575226
-1.1575
1.15062
0.0507806
-0.0435008
-0.934923
0.927644
0.0368833
-0.029723
-0.759152
0.751991
0.0236646
-0.0174721
-0.61862
0.612428
0.0124357
-0.00728786
-0.505491
0.500343
0.00338875
3.89063e-05
-0.413831
0.410403
-0.00251845
0.00432829
-0.336388
0.334579
-0.00476027
0.00348641
-0.235169
0.236443
-0.00184596
-0.0498804
0.0517263
-0.109791
0.106502
0.00328949
-0.00775738
0.00669177
-0.461122
0.462187
-0.00325415
-0.00134919
-0.553675
0.558279
0.00721575
-0.0127308
-0.646326
0.651841
0.0191203
-0.0250215
-0.751968
0.757869
0.0314854
-0.0372617
-0.87174
0.877516
0.0434603
-0.0485174
-1.00657
1.01162
0.0537351
-0.0573432
-1.15737
1.16097
0.0604962
-0.0621444
-1.32418
1.32583
0.0623494
-0.0605738
-1.50754
1.50577
0.0573377
-0.0527939
-1.43232
1.42777
0.04781
-0.0418478
-1.14415
1.13819
0.0364058
-0.0306609
-0.920811
0.915066
0.0253797
-0.0200362
-0.745601
0.740257
0.0152218
-0.0105337
-0.606456
0.601767
0.00667984
-0.00302151
-0.494998
0.49134
0.000310101
0.00211548
-0.405011
0.402585
-0.0038314
0.00459699
-0.329201
0.328435
-0.00467821
0.00329726
-0.231289
0.23267
-0.00166835
-0.0499404
0.0516088
-0.108569
0.106207
0.00236256
-0.00606028
0.00572153
-0.468637
0.468976
-0.00278331
-0.000794217
-0.56376
0.567338
0.00529659
-0.0100036
-0.6572
0.661907
0.0151146
-0.0200945
-0.763263
0.768243
0.0254395
-0.0302335
-0.882796
0.88759
0.0353159
-0.0396228
-1.01644
1.02075
0.0438225
-0.0469951
-1.16438
1.16755
0.0495066
-0.0507106
-1.32715
1.32835
0.0506175
-0.0487968
-1.50398
1.50216
0.0457907
-0.0415774
-1.42296
1.41875
0.0372554
-0.0323168
-1.13264
1.1277
0.0277977
-0.0229593
-0.909556
0.904718
0.0187343
-0.0143798
-0.735153
0.730798
0.0106588
-0.00693102
-0.597271
0.593543
0.00395238
-0.00115096
-0.487201
0.4844
-0.00106863
0.00290638
-0.398543
0.396705
-0.00390999
0.00450088
-0.324182
0.323592
-0.00447497
0.00293862
-0.228325
0.229862
-0.00148911
-0.0500495
0.0515386
-0.10847
0.106453
0.00201695
-0.0048789
0.00433009
-0.47463
0.475179
-0.002107
-0.00109587
-0.571446
0.574649
0.00531648
-0.00922049
-0.666091
0.669995
0.0135119
-0.017731
-0.772633
0.776852
0.0223537
-0.0265184
-0.892034
0.896198
0.0310354
-0.0346554
-1.02472
1.02834
0.0382607
-0.0409405
-1.17036
1.17304
0.0429204
-0.0437059
-1.32923
1.33002
0.0432518
-0.0416115
-1.50026
1.49862
0.0386107
-0.0348102
-1.41433
1.41053
0.0308725
-0.0264611
-1.12289
1.11848
0.0227186
-0.0184472
-0.900099
0.895827
0.0148102
-0.0112405
-0.726664
0.723094
0.00814507
-0.00506185
-0.590055
0.586972
0.00257592
-8.21019e-05
-0.481168
0.478674
-0.0015651
0.00301132
-0.393473
0.392027
-0.00400648
0.00437083
-0.320008
0.319643
-0.00412393
0.00277324
-0.226069
0.22742
-0.0013557
-0.0501439
0.0514996
-0.108754
0.107155
0.0015986
-0.00364101
0.00303213
-0.480039
0.480647
-0.000686078
-0.00201299
-0.578452
0.581151
0.00588271
-0.00943068
-0.673756
0.677304
0.0135624
-0.017198
-0.780876
0.784512
0.0212469
-0.0248955
-0.900342
0.903991
0.0291371
-0.0323309
-1.03192
1.03512
0.0353544
-0.0377188
-1.17543
1.17779
0.0396391
-0.0400658
-1.33068
1.3311
0.0393684
-0.0374095
-1.49649
1.49453
0.0345807
-0.030593
-1.40654
1.40255
0.0269971
-0.0230426
-1.11408
1.11012
0.0195263
-0.0158805
-0.891804
0.888158
0.0126458
-0.00935746
-0.719484
0.716196
0.00688645
-0.00413951
-0.583922
0.581175
0.00187012
0.00014493
-0.47598
0.473965
-0.00169808
0.00311252
-0.389423
0.388009
-0.00387781
0.00414425
-0.316762
0.316495
-0.00382413
0.00258479
-0.224233
0.225473
-0.00128022
-0.0502675
0.0515477
-0.109476
0.108164
0.0013114
-0.00256808
0.00189874
-0.485055
0.485725
0.000637289
-0.00337953
-0.584807
0.587549
0.00700202
-0.0102635
-0.680785
0.684046
0.0139029
-0.0175182
-0.788273
0.791889
0.021331
-0.0251777
-0.907498
0.911345
0.0287766
-0.0317859
-1.03835
1.04135
0.0348491
-0.0368444
-1.17992
1.18192
0.0380709
-0.0385566
-1.33122
1.3317
0.0375662
-0.035383
-1.49236
1.49018
0.0322281
-0.0283528
-1.3986
1.39473
0.0247698
-0.0209282
-1.1059
1.10206
0.0176656
-0.0142559
-0.884508
0.881098
0.011311
-0.00848969
-0.713097
0.710275
0.00600499
-0.0036293
-0.578451
0.576075
0.0017173
0.000241486
-0.471673
0.469714
-0.00173197
0.00279659
-0.385724
0.384659
-0.00354503
0.0038726
-0.313942
0.313614
-0.00361435
0.00243297
-0.222762
0.223943
-0.00122343
-0.0505233
0.0517467
-0.110629
0.109467
0.00116158
-0.00134769
0.000367327
-0.489987
0.490967
0.00210238
-0.00491447
-0.590934
0.593746
0.00833012
-0.0116298
-0.687553
0.690852
0.0152883
-0.0186903
-0.795476
0.798878
0.0227551
-0.0259795
-0.91472
0.917945
0.0296243
-0.0324734
-1.04446
1.04731
0.0353695
-0.0373943
-1.18375
1.18578
0.0385963
-0.0384802
-1.33168
1.33157
0.0372065
-0.0347014
-1.48754
1.48503
0.0314266
-0.0271782
-1.39046
1.38622
0.0235097
-0.0196288
-1.09822
1.09434
0.0164722
-0.0131585
-0.877551
0.874237
0.0104819
-0.00776673
-0.707369
0.704654
0.00549666
-0.00327733
-0.573665
0.571445
0.00142731
0.000163388
-0.467643
0.466052
-0.00159833
0.00261616
-0.382464
0.381446
-0.00340942
0.00367838
-0.311387
0.311118
-0.00337915
0.00239011
-0.221487
0.222476
-0.00113426
-0.0508648
0.0519991
-0.111928
0.111113
0.000814269
-0.000336839
-0.00118512
-0.495117
0.496639
0.00355951
-0.006465
-0.596647
0.599552
0.00969879
-0.0130517
-0.694165
0.697518
0.0167543
-0.0204542
-0.80231
0.806009
0.0241342
-0.0276394
-0.921417
0.924923
0.0313531
-0.0340603
-1.05054
1.05325
0.0370026
-0.0388519
-1.18747
1.18932
0.0398068
-0.0397364
-1.33151
1.33144
0.0381903
-0.0350908
-1.48204
1.47894
0.0311374
-0.0266547
-1.3817
1.37721
0.0228365
-0.0187781
-1.0902
1.08614
0.0155032
-0.0124574
-0.870902
0.867857
0.00958808
-0.00719137
-0.701841
0.699445
0.00510684
-0.00299534
-0.569418
0.567306
0.00144415
0.000119255
-0.464017
0.462453
-0.00135743
0.00249069
-0.379716
0.378582
-0.00313495
0.00341254
-0.309136
0.308858
-0.00328871
0.00234419
-0.220451
0.221396
-0.00111872
-0.0512215
0.0523402
-0.113586
0.112951
0.000634895
0.000542494
-0.00205329
-0.500443
0.501954
0.00506957
-0.00779163
-0.602713
0.605435
0.0113035
-0.0147036
-0.700669
0.704069
0.018473
-0.0220053
-0.809541
0.813073
0.0260056
-0.0293882
-0.928497
0.931879
0.0332002
-0.0363871
-1.05635
1.05954
0.0390059
-0.0410565
-1.19106
1.19312
0.0421181
-0.0416731
-1.33091
1.33046
0.0397041
-0.0363138
-1.47541
1.47202
0.0316259
-0.0266341
-1.37206
1.36707
0.0222217
-0.0179477
-1.0819
1.07762
0.0146953
-0.0115719
-0.864485
0.861362
0.00896989
-0.00666912
-0.696759
0.694459
0.00476586
-0.00278216
-0.565271
0.563288
0.00126763
6.79749e-05
-0.460764
0.459428
-0.00134525
0.00236579
-0.377042
0.376021
-0.00302822
0.00334135
-0.307049
0.306736
-0.00316307
0.00224482
-0.219711
0.220629
-0.00105863
-0.0517038
0.0527624
-0.115498
0.115075
0.00042378
0.00155296
-0.00333619
-0.505847
0.50763
0.00625133
-0.00925603
-0.608649
0.611654
0.0128305
-0.0162519
-0.707314
0.710735
0.0203032
-0.0238903
-0.816708
0.820295
0.0279612
-0.0316452
-0.935779
0.939463
0.0355433
-0.0388361
-1.06258
1.06587
0.0417288
-0.0437574
-1.19496
1.19699
0.0447633
-0.0445693
-1.32991
1.32972
0.0421629
-0.0379352
-1.46785
1.46362
0.0325524