/*--------------------------------*- C++ -*----------------------------------*\
  =========                 |
  \\      /  F ield         | OpenFOAM: The Open Source CFD Toolbox
   \\    /   O peration     | Website:  https://openfoam.org
    \\  /    A nd           | Version:  6
     \\/     M anipulation  |
\*---------------------------------------------------------------------------*/
FoamFile
{
    version     2.0;
    format      ascii;
    class       volScalarField;
    location    "71.9";
    object      p;
}
// * * * * * * * * * * * * * * * * * * * * * * * * * * * * * * * * * * * * * //

dimensions      [0 2 -2 0 0 0 0];

internalField   nonuniform List<scalar> 
8800
(
0.832631
0.783316
0.745349
0.717278
0.697114
0.682523
0.671918
0.664368
0.659471
0.657385
0.658738
0.663067
0.66985
0.679266
0.691998
0.709316
0.733191
0.766288
0.809224
0.861738
0.667127
0.673471
0.68262
0.686167
0.683556
0.677463
0.670517
0.664267
0.659454
0.656569
0.65632
0.658932
0.663563
0.669683
0.676778
0.683808
0.688685
0.688559
0.681884
0.672985
0.640646
0.646881
0.651379
0.655248
0.658192
0.659136
0.65804
0.655909
0.653914
0.653058
0.654072
0.656511
0.659388
0.661651
0.662168
0.660377
0.657009
0.652996
0.648214
0.644498
0.636351
0.639116
0.64172
0.643875
0.645608
0.647171
0.648266
0.648608
0.648479
0.64856
0.649346
0.650473
0.651205
0.651048
0.650069
0.648712
0.647041
0.644738
0.642327
0.64076
0.631302
0.632727
0.634564
0.636641
0.638349
0.639636
0.640725
0.641693
0.642487
0.643203
0.643894
0.644339
0.644352
0.643982
0.64331
0.642192
0.640535
0.63864
0.637287
0.636484
0.626321
0.627224
0.628468
0.630091
0.631779
0.633304
0.634578
0.635688
0.636735
0.637731
0.638495
0.638868
0.638867
0.638493
0.637686
0.636496
0.635133
0.633867
0.633046
0.632522
0.621424
0.622079
0.623038
0.624351
0.625792
0.627301
0.628776
0.630126
0.631369
0.632551
0.633478
0.633956
0.633962
0.633519
0.632734
0.63179
0.630797
0.629893
0.629314
0.628929
0.616608
0.617113
0.617895
0.619031
0.620325
0.621734
0.623231
0.624757
0.626248
0.627678
0.628808
0.629399
0.629466
0.629138
0.628571
0.627882
0.627144
0.626482
0.626056
0.625756
0.611819
0.61222
0.612877
0.613893
0.615116
0.616472
0.617965
0.619589
0.621298
0.623014
0.624402
0.625189
0.625453
0.625357
0.625034
0.624568
0.624038
0.62357
0.623256
0.623013
0.606976
0.607303
0.607873
0.608811
0.60999
0.611336
0.612866
0.614594
0.616504
0.618526
0.620251
0.62135
0.621906
0.622082
0.622001
0.621766
0.621436
0.621132
0.620903
0.620699
0.60199
0.602262
0.602773
0.603666
0.60483
0.606207
0.607818
0.609694
0.611843
0.61422
0.61637
0.617872
0.618781
0.619263
0.619448
0.619448
0.61932
0.61916
0.618998
0.618822
0.596772
0.597001
0.597474
0.598352
0.599543
0.600992
0.602728
0.604809
0.607269
0.610087
0.612755
0.614738
0.61606
0.616894
0.617376
0.617618
0.617698
0.617673
0.617567
0.61741
0.591227
0.591423
0.591877
0.592771
0.594028
0.595595
0.597512
0.599866
0.602722
0.60609
0.609386
0.611942
0.613747
0.614984
0.615803
0.616314
0.616612
0.616714
0.616655
0.616511
0.585251
0.585419
0.585873
0.586811
0.588175
0.589913
0.592077
0.594787
0.598143
0.602187
0.606244
0.609487
0.611863
0.613566
0.614771
0.615602
0.61612
0.616344
0.616326
0.616189
0.578721
0.578867
0.579335
0.580346
0.581863
0.58383
0.586321
0.589486
0.593464
0.598338
0.603316
0.607379
0.610432
0.612686
0.614331
0.61551
0.616284
0.616637
0.616657
0.616523
0.571494
0.571617
0.572115
0.573229
0.574949
0.577219
0.580127
0.583864
0.588614
0.5945
0.600588
0.605632
0.609485
0.612387
0.614554
0.61614
0.617196
0.617684
0.617737
0.617603
0.563378
0.56349
0.56403
0.565278
0.567262
0.569916
0.573353
0.577806
0.583509
0.590629
0.598053
0.604264
0.609062
0.612727
0.615517
0.617578
0.618954
0.619582
0.619666
0.619528
0.554135
0.554238
0.554833
0.556259
0.558588
0.56173
0.56583
0.571177
0.578057
0.586678
0.595704
0.6033
0.609214
0.613776
0.617304
0.619921
0.621657
0.622432
0.622545
0.622398
0.543447
0.543536
0.544218
0.545883
0.548649
0.552414
0.557356
0.563824
0.572161
0.582611
0.59355
0.602774
0.609998
0.615617
0.619989
0.623262
0.625402
0.626329
0.626465
0.626307
0.530931
0.531006
0.531793
0.53377
0.537097
0.541664
0.547683
0.555568
0.565717
0.578391
0.591605
0.60273
0.611468
0.618314
0.623672
0.627695
0.630272
0.631349
0.631499
0.631326
0.516018
0.516086
0.517019
0.51941
0.523475
0.529094
0.536512
0.546213
0.558628
0.574004
0.589903
0.603222
0.613683
0.621932
0.628422
0.63328
0.636316
0.637528
0.637682
0.63749
0.497911
0.497971
0.499121
0.5021
0.507177
0.514216
0.523494
0.535552
0.550816
0.569463
0.588487
0.604298
0.616704
0.626526
0.634261
0.640041
0.643528
0.644842
0.644984
0.644772
0.475432
0.475497
0.476993
0.480853
0.487384
0.49642
0.508249
0.523422
0.542278
0.564844
0.587452
0.606033
0.620574
0.632123
0.641205
0.647936
0.651823
0.653182
0.65329
0.653059
0.446763
0.446859
0.448957
0.454242
0.46303
0.47501
0.490443
0.509768
0.533122
0.56031
0.586932
0.608509
0.625327
0.638698
0.64921
0.656847
0.661008
0.662329
0.662381
0.662133
0.408799
0.409024
0.412355
0.42027
0.432864
0.44939
0.469977
0.494769
0.523623
0.556115
0.587105
0.611837
0.631
0.646213
0.658164
0.666544
0.670777
0.671952
0.671928
0.671671
0.355606
0.356719
0.363348
0.376712
0.395963
0.419521
0.447237
0.478922
0.514225
0.552583
0.58817
0.616108
0.6376
0.654601
0.667837
0.676687
0.680705
0.681633
0.681529
0.68127
0.2786
0.286152
0.301366
0.324737
0.353931
0.386898
0.423286
0.462852
0.50526
0.549958
0.590452
0.62179
0.64579
0.664684
0.679025
0.688028
0.691659
0.692326
0.692167
0.691942
0.196729
0.213218
0.237921
0.272047
0.311707
0.354235
0.399326
0.446913
0.496756
0.548371
0.594531
0.629919
0.656868
0.677864
0.693235
0.701911
0.704828
0.705208
0.705069
0.704922
0.126571
0.146724
0.17935
0.222731
0.271703
0.323237
0.376802
0.432272
0.489379
0.547615
0.599054
0.638088
0.66756
0.690187
0.705982
0.713958
0.71628
0.716567
0.716484
0.716377
0.0691496
0.0915542
0.129624
0.179639
0.235898
0.294982
0.356038
0.418754
0.48268
0.547182
0.603569
0.645988
0.677683
0.701581
0.71759
0.725191
0.727287
0.727565
0.727532
0.72745
0.0215911
0.0453297
0.0873401
0.142536
0.204627
0.269932
0.337387
0.406519
0.476682
0.547069
0.608176
0.653802
0.687622
0.712783
0.72922
0.736667
0.738619
0.738917
0.738925
0.738864
-0.0187414
0.00578662
0.0507021
0.110114
0.177123
0.247743
0.32075
0.395589
0.471453
0.547349
0.612995
0.661769
0.69773
0.72422
0.741154
0.748684
0.750676
0.750952
0.750989
0.750946
-0.0538996
-0.0288518
0.0183339
0.0812421
0.152466
0.227734
0.305694
0.385708
0.466836
0.547928
0.617968
0.669859
0.707951
0.735812
0.753447
0.761314
0.763365
0.76364
0.763675
0.763646
-0.0853948
-0.0599284
-0.0108752
0.055016
0.129902
0.209269
0.291692
0.376467
0.462551
0.548646
0.622928
0.677892
0.718109
0.747414
0.765865
0.774099
0.776281
0.776553
0.776575
0.776557
-0.114262
-0.0884119
-0.0377657
0.0307222
0.108833
0.191846
0.278319
0.367511
0.458301
0.549212
0.627664
0.685647
0.727998
0.758709
0.777975
0.786583
0.78892
0.7892
0.789204
0.789192
-0.141322
-0.11506
-0.0629896
0.00783738
0.0888062
0.175089
0.265252
0.358536
0.45377
0.549369
0.63198
0.692955
0.737374
0.769461
0.789476
0.798461
0.800943
0.801238
0.801207
0.80119
-0.166982
-0.140325
-0.0869417
-0.0140337
0.0694892
0.158712
0.252233
0.349309
0.44877
0.548979
0.635729
0.699721
0.746169
0.779531
0.800194
0.80947
0.812048
0.812331
0.812267
0.812237
-0.191702
-0.164569
-0.109971
-0.0351767
0.0506368
0.142507
0.239095
0.339698
0.443172
0.547865
0.638809
0.705868
0.754332
0.788868
0.810058
0.819463
0.822071
0.82233
0.822229
0.822184
-0.215628
-0.188013
-0.132269
-0.0557725
0.0320928
0.126355
0.22574
0.329598
0.43685
0.545925
0.641142
0.711396
0.761899
0.797485
0.818988
0.828419
0.830979
0.8312
0.831067
0.831008
-0.238904
-0.210772
-0.153967
-0.0759237
0.0137821
0.110191
0.212105
0.318939
0.429738
0.543087
0.642649
0.716295
0.768942
0.805513
0.827146
0.8364
0.838839
0.83901
0.838852
0.83878
-0.261632
-0.232972
-0.175126
-0.0956785
-0.00434312
0.0939857
0.198174
0.307723
0.421815
0.539267
0.643255
0.720562
0.775588
0.81313
0.834673
0.843538
0.845751
0.845845
0.845669
0.845587
-0.283883
-0.254621
-0.195766
-0.115051
-0.0222716
0.0777513
0.183974
0.295966
0.413074
0.534414
0.642879
0.724164
0.781939
0.820568
0.841822
0.850013
0.851831
0.851811
0.851619
0.851532
-0.305525
-0.275691
-0.215874
-0.134038
-0.0399821
0.0615379
0.169546
0.283714
0.403544
0.528525
0.641432
0.727025
0.788055
0.828111
0.848954
0.856076
0.857201
0.85699
0.856801
0.856723
-0.326543
-0.29616
-0.235451
-0.152607
-0.0574307
0.0453907
0.154962
0.271027
0.393288
0.521595
0.638841
0.729024
0.793898
0.835989
0.856615
0.862293
0.862173
0.861505
0.861341
0.861333
-0.346992
-0.316003
-0.25448
-0.170735
-0.0745664
0.0293821
0.140301
0.257996
0.382376
0.513658
0.635021
0.730017
0.799311
0.844253
0.865399
0.869711
0.867639
0.865755
0.865435
0.865772
-0.366731
-0.335198
-0.27291
-0.188365
-0.0913401
0.0135902
0.125653
0.244719
0.370909
0.504791
0.629919
0.729819
0.804036
0.852635
0.875532
0.879614
0.875677
0.871334
0.869111
0.8683
-0.385851
-0.353754
-0.29075
-0.205532
-0.107789
-0.00202522
0.110966
0.231138
0.358818
0.494928
0.623376
0.728177
0.807833
0.860684
0.886593
0.89255
0.888599
0.881164
0.871879
0.872712
-0.404273
-0.371739
-0.308136
-0.22243
-0.124203
-0.0177893
0.0958313
0.21678
0.345573
0.483466
0.614768
0.724366
0.810325
0.867917
0.897275
0.906817
0.903459
0.891474
0.872453
0.871354
-0.421868
-0.389119
-0.324908
-0.238876
-0.140322
-0.0334043
0.0804491
0.201958
0.331451
0.470615
0.604091
0.717625
0.810572
0.873087
0.903539
0.913706
0.911532
0.884918
0.827454
0.802804
-0.438518
-0.406797
-0.340671
-0.254433
-0.155365
-0.0483891
0.0651002
0.186946
0.316731
0.456542
0.59139
0.707311
0.807389
0.875089
0.900401
0.905416
0.88933
0.836352
0.774126
0.736298
-0.48107
-0.424071
-0.355137
-0.270009
-0.170081
-0.0637115
0.0499277
0.171619
0.301203
0.44088
0.57623
0.692724
0.796772
0.870175
0.88494
0.868597
0.817839
0.750804
0.681196
0.642904
-0.45612
-0.437892
-0.377167
-0.291317
-0.192871
-0.0867399
0.0262149
0.147272
0.275992
0.414383
0.548598
0.663506
0.759529
0.840475
0.821243
0.708933
0.615899
0.551292
0.486261
0.512008
-0.486697
-0.455263
-0.39369
-0.308337
-0.210264
-0.104285
0.00884579
0.129249
0.256965
0.393638
0.525365
0.636919
0.7217
0.767525
0.712791
0.570105
0.458768
0.383719
0.300661
0.34477
-0.510377
-0.476551
-0.413259
-0.327859
-0.229841
-0.12388
-0.0108749
0.108731
0.235087
0.369384
0.497301
0.602847
0.676148
0.683597
0.573846
0.416088
0.285053
0.191081
0.0947835
0.124988
-0.533408
-0.498539
-0.433887
-0.347836
-0.249749
-0.143918
-0.0314414
0.0871877
0.211933
0.343405
0.46641
0.563444
0.620048
0.593887
0.432858
0.253759
0.0923358
-0.0427095
-0.167874
-0.156202
-0.556162
-0.520911
-0.455356
-0.368717
-0.270507
-0.164908
-0.0531109
0.0643759
0.187196
0.315383
0.432569
0.521211
0.556744
0.4844
0.294091
0.0952765
-0.0929231
-0.24775
-0.453668
-0.533014
-0.579326
-0.544129
-0.478042
-0.39099
-0.292634
-0.187233
-0.0760601
0.0402325
0.160975
0.285559
0.396405
0.475631
0.484832
0.361259
0.167511
-0.0430948
-0.236264
-0.398664
-0.52278
-0.640682
-0.603973
-0.568679
-0.502304
-0.415037
-0.316672
-0.211574
-0.101134
0.0137679
0.132058
0.252431
0.356477
0.422692
0.404178
0.244382
0.0491071
-0.15548
-0.332003
-0.42995
-0.456199
-0.469631
-0.630229
-0.594855
-0.528273
-0.440951
-0.342767
-0.238158
-0.128712
-0.0155356
0.0998205
0.215196
0.311987
0.360322
0.322316
0.131929
-0.0612314
-0.245678
-0.379229
-0.417466
-0.42631
-0.426607
-0.658373
-0.622779
-0.555989
-0.468721
-0.37087
-0.266994
-0.158821
-0.0477405
0.0641846
0.173818
0.262291
0.294095
0.224164
0.0291397
-0.157576
-0.317902
-0.393287
-0.407442
-0.40843
-0.408274
-0.688415
-0.652485
-0.58547
-0.498345
-0.401001
-0.298077
-0.191478
-0.0828719
0.0251525
0.128399
0.207237
0.224265
0.115639
-0.0640477
-0.240233
-0.367339
-0.397043
-0.397829
-0.398394
-0.397957
-0.720098
-0.683804
-0.616617
-0.529743
-0.433075
-0.33136
-0.226661
-0.120914
-0.0172305
0.0790655
0.148062
0.14595
0.0192075
-0.149829
-0.305331
-0.377746
-0.393442
-0.39225
-0.392252
-0.391905
-0.752859
-0.716385
-0.649162
-0.562682
-0.466904
-0.366682
-0.264222
-0.16175
-0.0627467
0.0262152
0.0852096
0.0667281
-0.0699625
-0.225532
-0.348435
-0.386014
-0.386567
-0.387906
-0.388171
-0.387996
-0.786251
-0.749691
-0.682613
-0.596737
-0.502127
-0.403714
-0.303871
-0.2051
-0.111108
-0.0292438
0.0173446
-0.00827508
-0.151425
-0.286324
-0.374244
-0.382795
-0.38498
-0.385762
-0.385741
-0.385688
-0.819309
-0.782829
-0.716222
-0.631258
-0.538179
-0.441966
-0.345134
-0.250468
-0.161901
-0.0864618
-0.0507391
-0.0833771
-0.22189
-0.334363
-0.383826
-0.393313
-0.387474
-0.384812
-0.383933
-0.383755
-0.850171
-0.814495
-0.74894
-0.665339
-0.574262
-0.480715
-0.387327
-0.29711
-0.21434
-0.145
-0.114037
-0.161208
-0.279746
-0.377295
-0.400086
-0.396371
-0.389354
-0.384293
-0.382736
-0.38218
-0.877755
-0.843157
-0.779339
-0.697753
-0.609291
-0.518995
-0.429553
-0.344099
-0.26716
-0.204407
-0.175603
-0.228399
-0.322387
-0.401018
-0.425288
-0.408457
-0.396625
-0.391567
-0.389206
-0.387994
-0.899313
-0.866678
-0.805633
-0.726947
-0.641918
-0.555599
-0.470682
-0.390357
-0.31907
-0.262747
-0.236621
-0.279812
-0.347081
-0.395647
-0.401327
-0.407382
-0.41107
-0.409362
-0.406594
-0.405569
-0.912723
-0.882884
-0.825703
-0.751138
-0.670582
-0.589103
-0.509382
-0.434588
-0.369016
-0.31721
-0.292187
-0.321941
-0.358251
-0.387053
-0.39051
-0.401662
-0.407473
-0.408447
-0.4085
-0.408974
-0.915244
-0.889336
-0.837395
-0.768432
-0.693615
-0.617994
-0.544205
-0.475271
-0.415738
-0.367132
-0.338362
-0.360761
-0.371148
-0.381755
-0.391216
-0.398697
-0.402163
-0.403488
-0.404392
-0.404653
-0.904576
-0.883507
-0.838557
-0.777034
-0.709498
-0.640877
-0.573739
-0.510908
-0.457286
-0.414126
-0.37255
-0.397995
-0.395122
-0.396761
-0.402737
-0.406429
-0.407697
-0.407973
-0.407907
-0.407857
-0.878119
-0.862637
-0.827213
-0.775676
-0.717123
-0.656762
-0.596873
-0.540381
-0.491788
-0.456381
-0.410745
-0.423605
-0.436092
-0.462403
-0.451577
-0.428816
-0.414079
-0.411373
-0.411526
-0.411496
-0.839309
-0.829411
-0.804421
-0.76457
-0.716462
-0.665305
-0.61319
-0.562867
-0.518805
-0.488966
-0.45998
-0.44084
-0.426417
-0.447934
-0.453651
-0.43237
-0.421537
-0.419176
-0.419528
-0.419393
-0.795243
-0.789618
-0.775176
-0.746769
-0.709656
-0.667283
-0.622815
-0.578113
-0.537729
-0.507928
-0.480955
-0.448931
-0.395502
-0.336116
-0.319058
-0.36368
-0.417827
-0.442041
-0.445805
-0.445835
-0.756095
-0.752697
-0.745857
-0.72776
-0.699625
-0.664856
-0.626426
-0.586482
-0.5473
-0.51557
-0.48944
-0.471932
-0.455513
-0.450744
-0.473379
-0.534075
-0.551844
-0.540733
-0.527562
-0.53265
-0.728018
-0.726021
-0.722511
-0.711724
-0.690287
-0.660958
-0.626628
-0.588419
-0.549393
-0.51311
-0.486632
-0.504057
-0.604287
-0.786917
-0.966405
-1.03097
-1.01298
-0.943547
-0.848112
-0.808528
-0.707358
-0.706653
-0.705453
-0.700061
-0.684243
-0.658471
-0.625231
-0.587008
-0.545047
-0.502083
-0.47301
-0.455895
-0.497954
-0.574971
-0.691834
-0.701859
-0.642014
-0.579406
-0.512142
-0.480332
-0.695354
-0.695081
-0.694394
-0.691777
-0.680919
-0.657274
-0.623493
-0.583675
-0.535619
-0.483866
-0.441248
-0.380138
-0.291234
-0.173489
-0.0764226
-0.00510189
0.0829623
0.143772
0.192
0.213295
-0.687477
-0.687321
-0.686889
-0.686035
-0.679321
-0.657618
-0.622926
-0.578371
-0.525046
-0.462004
-0.390836
-0.308251
-0.12447
0.145651
0.430148
0.711381
0.846768
0.893464
0.891776
0.883801
-0.682527
-0.682458
-0.682251
-0.682182
-0.67831
-0.65992
-0.624062
-0.573688
-0.515319
-0.437488
-0.353309
-0.244743
-0.0357893
0.276026
0.583942
0.841038
0.986692
1.03346
1.04216
1.04247
-0.679185
-0.67914
-0.678946
-0.678624
-0.677744
-0.664368
-0.627053
-0.571465
-0.504211
-0.42209
-0.32425
-0.213603
-0.000679363
0.258683
0.51845
0.73722
0.870676
0.946156
1.0039
1.03131
-0.676641
-0.677259
-0.678737
-0.680717
-0.68196
-0.672189
-0.631561
-0.570865
-0.500274
-0.415983
-0.312062
-0.209655
-0.0206484
0.24358
0.516085
0.760307
0.943244
1.06199
1.13186
1.15662
-0.670566
-0.672533
-0.677661
-0.687016
-0.695783
-0.680755
-0.63332
-0.573773
-0.507624
-0.417304
-0.313296
-0.219054
-0.0566153
0.187186
0.451561
0.69594
0.898363
1.03515
1.09797
1.11481
-0.671667
-0.673533
-0.676144
-0.675313
-0.673747
-0.658283
-0.622359
-0.583229
-0.521709
-0.427518
-0.328858
-0.24334
-0.127777
0.0968123
0.339242
0.544708
0.710749
0.817763
0.861856
0.872373
-0.701428
-0.701979
-0.694668
-0.657866
-0.604262
-0.59141
-0.609468
-0.601601
-0.541324
-0.443015
-0.349565
-0.267871
-0.180186
-0.0123076
0.188578
0.350396
0.480184
0.555932
0.585681
0.591085
-0.746862
-0.744659
-0.735703
-0.703069
-0.656682
-0.637124
-0.667
-0.64774
-0.567043
-0.461819
-0.371369
-0.297904
-0.226279
-0.102064
0.0560797
0.176879
0.269532
0.319589
0.338148
0.339379
-0.834903
-0.838129
-0.866069
-0.906558
-0.918113
-0.892617
-0.848038
-0.742739
-0.604654
-0.484727
-0.396376
-0.32382
-0.27361
-0.174403
-0.0599901
0.027927
0.0943435
0.129152
0.141017
0.142434
-0.987944
-1.00854
-1.06432
-1.12043
-1.14218
-1.1111
-1.01454
-0.828669
-0.639428
-0.508697
-0.4091
-0.343685
-0.30463
-0.236139
-0.151447
-0.0867844
-0.0431472
-0.0217986
-0.0137369
-0.0144987
-1.07511
-1.09723
-1.13848
-1.17657
-1.19293
-1.16366
-1.04789
-0.824766
-0.641117
-0.513084
-0.407432
-0.358012
-0.323222
-0.272414
-0.220332
-0.183324
-0.159286
-0.147552
-0.143852
-0.144582
-0.997166
-1.01581
-1.0474
-1.07966
-1.09587
-1.06642
-0.935896
-0.739108
-0.595816
-0.470027
-0.397471
-0.350575
-0.327148
-0.293501
-0.263744
-0.251826
-0.246315
-0.246789
-0.24618
-0.246205
-0.751258
-0.76959
-0.803698
-0.84346
-0.868601
-0.841794
-0.734161
-0.609019
-0.493505
-0.407553
-0.365585
-0.32786
-0.311666
-0.293798
-0.285427
-0.286345
-0.292591
-0.297922
-0.298859
-0.298841
-0.400831
-0.415305
-0.444668
-0.483278
-0.514109
-0.514046
-0.478134
-0.429825
-0.373603
-0.343257
-0.314865
-0.298585
-0.291269
-0.280919
-0.283982
-0.291353
-0.304866
-0.310313
-0.310984
-0.310597
-0.08603
-0.09425
-0.114074
-0.14759
-0.188371
-0.222454
-0.247424
-0.260712
-0.268655
-0.266264
-0.265605
-0.271504
-0.275533
-0.26469
-0.265399
-0.272101
-0.280388
-0.282401
-0.281128
-0.280671
0.0987566
0.0944308
0.0810092
0.0531206
0.00837002
-0.0485193
-0.102793
-0.146222
-0.175746
-0.198409
-0.220256
-0.244175
-0.259224
-0.242606
-0.230377
-0.227228
-0.224526
-0.222509
-0.22179
-0.221868
0.164454
0.161612
0.151716
0.128958
0.0904978
0.0395357
-0.0164007
-0.0685036
-0.110088
-0.140693
-0.16794
-0.19502
-0.210897
-0.191996
-0.175276
-0.166581
-0.158695
-0.154604
-0.154079
-0.155225
0.166404
0.16448
0.157414
0.140845
0.111618
0.0711581
0.0259682
-0.0202436
-0.0590639
-0.0893338
-0.113186
-0.127337
-0.133329
-0.125943
-0.119408
-0.113981
-0.108052
-0.105443
-0.105984
-0.107352
0.14393
0.142772
0.138104
0.126836
0.106645
0.0776238
0.0425459
0.00672423
-0.024829
-0.0479519
-0.0590698
-0.0563109
-0.0520684
-0.0598146
-0.0702267
-0.0764795
-0.0786032
-0.0801924
-0.0818319
-0.0827945
0.114751
0.114166
0.11131
0.104105
0.0907536
0.0710258
0.0465897
0.0203226
-0.00313656
-0.0169578
-0.0168654
-0.000390461
0.00782099
-0.0118335
-0.0339686
-0.0502179
-0.0604748
-0.0666708
-0.0690043
-0.0695038
0.0850544
0.0848977
0.083276
0.0789026
0.0704959
0.0577008
0.0413229
0.0241982
0.00935338
0.00299092
0.0101858
0.029891
0.0379603
0.0149804
-0.0108292
-0.0301573
-0.0438409
-0.0522672
-0.0548691
-0.0550365
0.0571945
0.0571616
0.0564058
0.053989
0.0490822
0.041459
0.0314145
0.0208423
0.0122212
0.011296
0.0207541
0.0387255
0.043712
0.0235957
0.00145529
-0.014102
-0.0246286
-0.0313269
-0.033622
-0.0338156
0.0309186
0.0310276
0.030787
0.0297068
0.0273276
0.0235199
0.0184295
0.0132528
0.00897866
0.010063
0.0187669
0.0300046
0.0311289
0.0180851
0.0054724
-0.00239581
-0.00762476
-0.0107069
-0.012268
-0.0126701
0.00562518
0.00570995
0.00574151
0.005979
0.00598864
0.00541136
0.00438524
0.0031907
0.0022625
0.0020121
0.00380909
0.00738081
0.0109926
0.00844554
0.00463751
0.00323351
0.000393351
-0.00235199
-0.00192788
-0.0017842
-0.0251262
0.163554
0.336871
0.483614
0.601141
0.693942
0.771133
0.833835
0.849762
0.846239
0.264529
0.385816
0.499475
0.598067
0.681011
0.749421
0.803326
0.839781
0.859307
0.875952
0.461095
0.541942
0.621889
0.691971
0.751722
0.80126
0.840242
0.869992
0.892386
0.911632
0.606583
0.663811
0.721591
0.773402
0.818064
0.856106
0.888029
0.91481
0.935034
0.95393
0.723282
0.766275
0.808995
0.849107
0.884901
0.916534
0.944228
0.967697
0.985606
1.00365
0.819991
0.855624
0.890695
0.92429
0.955311
0.983379
1.00817
1.02897
1.04472
1.0622
0.908147
0.940062
0.972263
1.00338
1.03232
1.05864
1.08171
1.1006
1.1145
1.13151
0.994975
1.02752
1.05989
1.09105
1.11979
1.14554
1.16764
1.18514
1.19751
1.21403
1.08931
1.12572
1.16045
1.19287
1.22201
1.24734
1.26844
1.28471
1.29632
1.31246
1.20234
1.24294
1.27993
1.31285
1.34132
1.3653
1.38491
1.40018
1.41207
1.42814
1.34366
1.38472
1.41999
1.44957
1.47476
1.49637
1.51486
1.53034
1.54346
1.5594
1.5152
1.54758
1.57446
1.59678
1.61686
1.63557
1.65331
1.67008
1.68499
1.70071
1.70152
1.71879
1.7359
1.75258
1.76867
1.7834
1.7973
1.81178
1.82702
1.84431
1.88491
1.89487
1.90806
1.91905
1.92845
1.93811
1.94872
1.95889
1.96818
1.99385
2.10279
2.09709
2.08414
2.06989
2.06359
2.0693
2.08744
2.11596
2.14972
2.18605
2.40561
2.26965
2.19015
2.14762
2.13029
2.13428
2.16171
2.21957
2.32724
2.50564
0.736326
0.730023
0.722293
0.711179
0.697609
0.684961
0.674566
0.666557
0.660845
0.657524
0.657188
0.660038
0.665285
0.672654
0.682211
0.694046
0.707613
0.720545
0.729537
0.737079
0.645391
0.65131
0.659383
0.665516
0.668586
0.668075
0.664992
0.661
0.657418
0.655145
0.655029
0.657301
0.661072
0.665531
0.669642
0.671894
0.670826
0.666193
0.659141
0.651309
0.638634
0.641007
0.644275
0.647049
0.649501
0.651692
0.652875
0.652733
0.651803
0.65101
0.651246
0.652684
0.654485
0.655729
0.655666
0.654207
0.652056
0.649699
0.64672
0.643704
0.633837
0.634926
0.636843
0.639182
0.641056
0.642458
0.64368
0.644679
0.645289
0.645684
0.646264
0.647035
0.647525
0.647426
0.646812
0.6459
0.644577
0.642614
0.640511
0.639034
0.628802
0.629436
0.630566
0.632326
0.634172
0.635769
0.637026
0.638097
0.639092
0.640011
0.640828
0.641383
0.641549
0.641365
0.640846
0.639885
0.638468
0.636866
0.635533
0.634733
0.623864
0.624302
0.625092
0.626399
0.627924
0.629493
0.630978
0.632283
0.633453
0.634565
0.635556
0.6362
0.636414
0.636207
0.635564
0.634582
0.633442
0.632307
0.63141
0.630877
0.619011
0.619338
0.619952
0.621025
0.622325
0.623731
0.625218
0.626704
0.628114
0.629446
0.630639
0.631435
0.631705
0.631496
0.630926
0.630164
0.629334
0.628492
0.627837
0.627447
0.614218
0.614472
0.614967
0.615883
0.617061
0.618378
0.61981
0.621352
0.622953
0.62455
0.626002
0.626982
0.627378
0.627323
0.626975
0.626456
0.625844
0.625232
0.624758
0.62446
0.609413
0.609615
0.610027
0.610834
0.611936
0.613208
0.614629
0.61622
0.617967
0.619819
0.621576
0.622834
0.623479
0.623679
0.62358
0.623294
0.622894
0.622478
0.622145
0.621911
0.60451
0.604673
0.605027
0.605761
0.60682
0.608076
0.609531
0.611211
0.613125
0.615245
0.617365
0.619002
0.61999
0.620496
0.620665
0.620619
0.620439
0.620202
0.619987
0.6198
0.59942
0.599551
0.599864
0.600555
0.601599
0.602885
0.604413
0.606229
0.608363
0.610814
0.613378
0.615485
0.616884
0.617744
0.618217
0.61843
0.61847
0.618408
0.618293
0.618142
0.594051
0.594157
0.594443
0.595116
0.596182
0.597539
0.599186
0.601193
0.603618
0.606489
0.609599
0.612268
0.614153
0.615423
0.616239
0.616737
0.617012
0.617125
0.617097
0.616974
0.588305
0.588389
0.588659
0.58934
0.590462
0.591934
0.593755
0.59602
0.598821
0.602217
0.605995
0.609343
0.611803
0.613548
0.614757
0.615587
0.616123
0.616403
0.616454
0.616351
0.582069
0.582134
0.582398
0.583107
0.584323
0.585958
0.588017
0.590623
0.5939
0.597945
0.602537
0.606701
0.609847
0.612155
0.613816
0.61502
0.615842
0.616306
0.616433
0.616346
0.57521
0.575256
0.575521
0.576283
0.577632
0.579484
0.581857
0.584899
0.588774
0.59362
0.599201
0.604345
0.608305
0.611276
0.61347
0.615098
0.616253
0.616915
0.617116
0.617042
0.567574
0.567595
0.567862
0.568702
0.570229
0.572364
0.575138
0.57873
0.583347
0.589177
0.595958
0.602276
0.607203
0.610956
0.613783
0.615917
0.617447
0.618324
0.6186
0.618535
0.558916
0.558933
0.55922
0.560158
0.561915
0.564412
0.567694
0.571975
0.577517
0.584553
0.592783
0.600504
0.606577
0.611249
0.614821
0.617562
0.619523
0.620635
0.620985
0.620925
0.54897
0.548961
0.549294
0.55038
0.552439
0.555397
0.55932
0.564469
0.571159
0.579676
0.589655
0.599043
0.606466
0.612223
0.616673
0.620117
0.622577
0.623946
0.624369
0.62431
0.537415
0.537384
0.537768
0.539045
0.541476
0.545026
0.54977
0.556017
0.564144
0.57448
0.586566
0.597921
0.60692
0.613944
0.61942
0.623677
0.626705
0.628347
0.628838
0.628775
0.52375
0.523698
0.524161
0.52569
0.528606
0.532927
0.538732
0.546386
0.556323
0.568902
0.583518
0.597177
0.60799
0.616467
0.623137
0.628327
0.631982
0.6339
0.634447
0.634374
0.507308
0.507232
0.507821
0.509704
0.51327
0.518617
0.525826
0.535312
0.547553
0.562899
0.580528
0.596857
0.609735
0.619859
0.627876
0.634106
0.638439
0.640622
0.641205
0.641114
0.487113
0.487022
0.487815
0.490211
0.494693
0.501467
0.510591
0.522515
0.537721
0.556479
0.577662
0.597026
0.612214
0.624166
0.633652
0.641035
0.646054
0.648455
0.649042
0.648926
0.461711
0.461619
0.462753
0.465944
0.471811
0.480668
0.492511
0.50776
0.5268
0.549731
0.575036
0.597781
0.615482
0.629409
0.640483
0.649065
0.654714
0.657245
0.657792
0.657644
0.428718
0.428674
0.430421
0.434987
0.443171
0.45529
0.471138
0.490968
0.514929
0.542872
0.572843
0.599252
0.619602
0.635593
0.648307
0.658074
0.664196
0.666718
0.667172
0.666989
0.383897
0.384061
0.387145
0.394574
0.407093
0.424577
0.446372
0.472389
0.502469
0.536231
0.571324
0.601582
0.624644
0.642693
0.657036
0.66784
0.674153
0.676474
0.676788
0.676575
0.31933
0.320693
0.328184
0.342208
0.362678
0.388693
0.418872
0.452746
0.490023
0.530246
0.570749
0.604901
0.630629
0.650654
0.666395
0.677918
0.684069
0.685963
0.68611
0.685891
0.242294
0.244974
0.259529
0.283684
0.315033
0.351152
0.390413
0.432585
0.477493
0.524751
0.571419
0.610248
0.639297
0.661787
0.679111
0.691039
0.696805
0.698374
0.698464
0.698333
0.163483
0.170543
0.192391
0.22668
0.268582
0.314571
0.362918
0.413451
0.466061
0.520394
0.573264
0.616761
0.649044
0.673855
0.692659
0.704632
0.709548
0.710595
0.710624
0.710552
0.0991978
0.108165
0.134692
0.176152
0.226361
0.280728
0.337266
0.395637
0.4556
0.516699
0.575409
0.623216
0.65836
0.685069
0.704702
0.71638
0.720783
0.721692
0.721769
0.72175
0.0465631
0.0562532
0.0863407
0.133132
0.189592
0.250661
0.314097
0.379374
0.446039
0.513459
0.5777
0.629566
0.667387
0.695801
0.716162
0.727812
0.731995
0.732819
0.732941
0.732967
0.00255191
0.0125522
0.0450673
0.0960211
0.157607
0.224247
0.29352
0.364805
0.437489
0.510759
0.580244
0.636018
0.676437
0.706578
0.727853
0.739601
0.743579
0.744499
0.744671
0.744733
-0.0353169
-0.0251859
0.00914145
0.063427
0.129306
0.200733
0.27511
0.351734
0.429888
0.508579
0.583048
0.642654
0.685656
0.71754
0.739753
0.751806
0.755965
0.756916
0.757102
0.757193
-0.0687359
-0.0585643
-0.0228172
0.0342275
0.103766
0.179356
0.258271
0.339734
0.422931
0.506735
0.585995
0.649342
0.694908
0.728563
0.751853
0.764475
0.768867
0.769853
0.770015
0.770099
-0.0989748
-0.088779
-0.0518822
0.00753314
0.0802488
0.1595
0.242471
0.328358
0.41628
0.504981
0.588884
0.655872
0.703996
0.739421
0.763844
0.777062
0.781713
0.782734
0.782865
0.782931
-0.127009
-0.116769
-0.0788574
-0.0173384
0.0581921
0.140687
0.227312
0.317267
0.409617
0.502995
0.59145
0.662058
0.712693
0.749857
0.775372
0.78916
0.794099
0.795155
0.795248
0.795291
-0.15341
-0.143115
-0.104269
-0.0408566
0.0371645
0.12256
0.212492
0.306181
0.402661
0.500556
0.593519
0.667749
0.72086
0.759705
0.786234
0.800515
0.805713
0.80679
0.806834
0.806843
-0.178649
-0.168245
-0.128522
-0.0633914
0.0168557
0.104853
0.197779
0.294896
0.395273
0.497513
0.594951
0.672838
0.728443
0.768882
0.796321
0.81098
0.816285
0.817373
0.81738
0.817355
-0.203049
-0.192457
-0.1519
-0.08519
-0.00294453
0.0873837
0.183029
0.283303
0.38732
0.493725
0.595619
0.677267
0.735414
0.777401
0.805576
0.820451
0.825774
0.826823
0.826795
0.826741
-0.226725
-0.215914
-0.174559
-0.106409
-0.0223675
0.0700596
0.168163
0.271317
0.378704
0.489098
0.595441
0.680997
0.741808
0.785314
0.814059
0.828975
0.834191
0.835168
0.835107
0.83503
-0.249831
-0.238752
-0.196628
-0.127125
-0.0414773
0.0528223
0.153131
0.258897
0.369398
0.483581
0.59433
0.683974
0.747676
0.792774
0.821949
0.836668
0.841646
0.84251
0.842404
0.842309
-0.272339
-0.261036
-0.218141
-0.147376
-0.0602976
0.0356629
0.137944
0.246061
0.359407
0.477124
0.592205
0.686144
0.753072
0.799947
0.829439
0.84371
0.848265
0.848943
0.848791
0.848682
-0.29435
-0.282755
-0.239079
-0.167161
-0.0788242
0.018601
0.122629
0.232845
0.348749
0.469726
0.589008
0.687422
0.757995
0.807021
0.836843
0.850355
0.854182
0.854558
0.854353
0.85424
-0.31568
-0.303886
-0.25944
-0.186478
-0.097021
0.00169665
0.107237
0.2193
0.337478
0.46142
0.584689
0.687709
0.762387
0.814131
0.844546
0.857052
0.859678
0.859469
0.859179
0.859102
-0.336482
-0.324388
-0.279207
-0.205316
-0.114867
-0.0150224
0.0918482
0.205495
0.325668
0.452265
0.579219
0.686888
0.766115
0.821271
0.852932
0.864558
0.865459
0.864018
0.863422
0.863476
-0.356581
-0.344225
-0.298368
-0.223629
-0.132293
-0.0314797
0.0765395
0.191544
0.313411
0.442308
0.572604
0.684833
0.768985
0.828252
0.862136
0.873759
0.872979
0.869401
0.867579
0.867623
-0.376086
-0.363429
-0.316872
-0.241367
-0.149268
-0.0476122
0.0613933
0.17752
0.300806
0.431674
0.564885
0.681401
0.770765
0.83469
0.871754
0.884978
0.884011
0.878396
0.872712
0.864595
-0.394883
-0.381997
-0.334808
-0.258695
-0.166013
-0.0636962
0.0460813
0.16303
0.287425
0.419888
0.555588
0.676079
0.771138
0.84044
0.881348
0.897875
0.899089
0.892225
0.880843
0.87996
-0.412933
-0.400005
-0.352177
-0.275559
-0.182516
-0.0796963
0.0306301
0.148052
0.273227
0.406814
0.544511
0.668331
0.769294
0.844704
0.889053
0.908604
0.911677
0.906369
0.871961
0.833712
-0.430019
-0.417314
-0.368918
-0.291843
-0.198775
-0.0956195
0.0150367
0.132715