/*--------------------------------*- C++ -*----------------------------------*\
  =========                 |
  \\      /  F ield         | OpenFOAM: The Open Source CFD Toolbox
   \\    /   O peration     | Website:  https://openfoam.org
    \\  /    A nd           | Version:  6
     \\/     M anipulation  |
\*---------------------------------------------------------------------------*/
FoamFile
{
    version     2.0;
    format      ascii;
    class       volVectorField;
    location    "71.9";
    object      U;
}
// * * * * * * * * * * * * * * * * * * * * * * * * * * * * * * * * * * * * * //

dimensions      [0 1 -1 0 0 0 0];

internalField   nonuniform List<vector> 
8800
(
(0.987184 -0.076666 0)
(1.00189 -0.0551916 0)
(0.999722 -0.02855 0)
(1.00003 -0.0151455 0)
(1.0001 -0.00854726 0)
(1.00011 -0.00504966 0)
(1.00007 -0.00300446 0)
(1.00003 -0.00170398 0)
(0.999998 -0.000797301 0)
(1.00006 -8.05934e-05 0)
(0.999973 0.000650532 0)
(0.999984 0.00141832 0)
(1.00003 0.00243653 0)
(1.00005 0.00400349 0)
(1.00004 0.0066348 0)
(1.00002 0.0113733 0)
(0.999913 0.020816 0)
(0.999157 0.0386716 0)
(1.0071 0.0724575 0)
(0.771213 0.0366614 0)
(0.363067 -0.0160175 0)
(1.04331 -0.0768179 0)
(1.08459 -0.0704502 0)
(1.04519 -0.053547 0)
(1.02328 -0.0389003 0)
(1.01202 -0.0262244 0)
(1.00643 -0.0168644 0)
(1.00359 -0.0103334 0)
(1.00215 -0.00567278 0)
(1.00145 -0.00201334 0)
(1.0013 0.001311 0)
(1.00166 0.00469663 0)
(1.00265 0.00863058 0)
(1.00466 0.0139603 0)
(1.0086 0.0216655 0)
(1.01655 0.0326343 0)
(1.03248 0.0465476 0)
(1.06265 0.0616645 0)
(1.09187 0.0761008 0)
(0.83867 0.0565619 0)
(0.216842 -0.00243005 0)
(1.07589 -0.0501393 0)
(1.09987 -0.0483155 0)
(1.06464 -0.0404694 0)
(1.04003 -0.0336126 0)
(1.02391 -0.0260918 0)
(1.01412 -0.0185086 0)
(1.00855 -0.0116871 0)
(1.00558 -0.00581625 0)
(1.00432 -0.000395418 0)
(1.00465 0.00485385 0)
(1.00658 0.0102481 0)
(1.01061 0.0163354 0)
(1.01794 0.0233525 0)
(1.03052 0.0308183 0)
(1.05061 0.037849 0)
(1.08033 0.0445322 0)
(1.10625 0.0513471 0)
(0.942522 0.0416182 0)
(0.216147 0.00246181 0)
(0.175166 -0.00081672 0)
(1.01768 -0.0354883 0)
(1.10519 -0.0413856 0)
(1.07825 -0.0360706 0)
(1.05346 -0.0301366 0)
(1.0362 -0.0245608 0)
(1.024 -0.0188317 0)
(1.01588 -0.0127493 0)
(1.01101 -0.00655742 0)
(1.0088 -0.000217895 0)
(1.00937 0.00604088 0)
(1.01263 0.0120433 0)
(1.01887 0.017874 0)
(1.02876 0.0234393 0)
(1.04319 0.0287394 0)
(1.06371 0.034223 0)
(1.09354 0.0402066 0)
(1.0934 0.0419676 0)
(0.827128 0.0229166 0)
(0.173996 0.000853284 0)
(0.153964 -0.000610585 0)
(0.956172 -0.0254616 0)
(1.10345 -0.0351335 0)
(1.08767 -0.0326573 0)
(1.06171 -0.0280037 0)
(1.0441 -0.0229784 0)
(1.03164 -0.0177293 0)
(1.02278 -0.0121944 0)
(1.01696 -0.00625342 0)
(1.01411 0.000221644 0)
(1.01477 0.0066875 0)
(1.01875 0.0125749 0)
(1.02579 0.0178629 0)
(1.03609 0.0227681 0)
(1.05064 0.0275267 0)
(1.07187 0.032058 0)
(1.10005 0.0359903 0)
(1.06806 0.0340451 0)
(0.73949 0.0143199 0)
(0.1522 0.000652086 0)
(0.139593 -0.000466763 0)
(0.899275 -0.0190782 0)
(1.09578 -0.0300813 0)
(1.09573 -0.0291891 0)
(1.06924 -0.0254554 0)
(1.05081 -0.0213132 0)
(1.03788 -0.0165374 0)
(1.02876 -0.011246 0)
(1.02264 -0.00549507 0)
(1.0195 0.000839966 0)
(1.0201 0.00715734 0)
(1.02419 0.012795 0)
(1.03136 0.0177505 0)
(1.04187 0.0222004 0)
(1.05698 0.0261665 0)
(1.07918 0.0296296 0)
(1.10225 0.0322515 0)
(1.03593 0.0281422 0)
(0.672878 0.0102211 0)
(0.1371 0.000514616 0)
(0.129056 -0.000361291 0)
(0.849701 -0.0147136 0)
(1.0834 -0.0259444 0)
(1.10142 -0.0262331 0)
(1.0761 -0.0229433 0)
(1.05714 -0.0192944 0)
(1.04375 -0.0150433 0)
(1.03428 -0.0101133 0)
(1.02791 -0.00457267 0)
(1.02457 0.00158495 0)
(1.02503 0.00769128 0)
(1.02907 0.0130544 0)
(1.03635 0.0175986 0)
(1.04714 0.0214405 0)
(1.06265 0.024741 0)
(1.08528 0.0276826 0)
(1.10133 0.0294312 0)
(1.00096 0.0236382 0)
(0.620976 0.00786153 0)
(0.125676 0.000417599 0)
(0.12102 -0.000280514 0)
(0.807588 -0.0115528 0)
(1.06815 -0.0223284 0)
(1.10496 -0.0235874 0)
(1.08236 -0.0207083 0)
(1.06298 -0.0172719 0)
(1.04932 -0.0133271 0)
(1.03957 -0.00873329 0)
(1.03291 -0.00346123 0)
(1.02932 0.00247867 0)
(1.02959 0.00833588 0)
(1.03358 0.0133521 0)
(1.04092 0.0174232 0)
(1.05181 0.020754 0)
(1.06753 0.0236451 0)
(1.0905 0.0262875 0)
(1.09751 0.0271381 0)
(0.965601 0.0201124 0)
(0.579227 0.00633267 0)
(0.116562 0.000347492 0)
(0.114798 -0.000217174 0)
(0.772162 -0.00918663 0)
(1.05142 -0.0191426 0)
(1.10736 -0.0211368 0)
(1.08824 -0.0186258 0)
(1.06848 -0.0153319 0)
(1.05458 -0.0115465 0)
(1.04463 -0.00716064 0)
(1.03772 -0.00212853 0)
(1.03384 0.00356163 0)
(1.03388 0.00912146 0)
(1.03774 0.0137616 0)
(1.04502 0.0174161 0)
(1.05589 0.0203558 0)
(1.07181 0.0229209 0)
(1.09443 0.0252144 0)
(1.09084 0.025247 0)
(0.931156 0.0173992 0)
(0.54461 0.00529217 0)
(0.109029 0.000297276 0)
(0.109955 -0.000166137 0)
(0.742484 -0.00734795 0)
(1.03428 -0.0163154 0)
(1.10883 -0.0188228 0)
(1.09384 -0.0166141 0)
(1.0738 -0.0134081 0)
(1.05963 -0.00970927 0)
(1.04948 -0.00544257 0)
(1.04235 -0.000580075 0)
(1.03817 0.00487005 0)
(1.03791 0.0101144 0)
(1.04152 0.0143902 0)
(1.04866 0.0176713 0)
(1.05949 0.0202614 0)
(1.07559 0.0225387 0)
(1.09706 0.0244534 0)
(1.0817 0.0237102 0)
(0.898178 0.015349 0)
(0.51507 0.00457089 0)
(0.102595 0.000262257 0)
(0.10621 -0.000123636 0)
(0.717737 -0.00586259 0)
(1.01756 -0.0137752 0)
(1.10948 -0.0165833 0)
(1.09935 -0.014644 0)
(1.07904 -0.0114466 0)
(1.06458 -0.00777609 0)
(1.05421 -0.00356673 0)
(1.04681 0.00118435 0)
(1.0423 0.00643851 0)
(1.04165 0.0113975 0)
(1.04496 0.0153376 0)
(1.05189 0.0182657 0)
(1.06266 0.0205158 0)
(1.07894 0.0225237 0)
(1.09835 0.0240229 0)
(1.07047 0.0225301 0)
(0.866767 0.0138465 0)
(0.489143 0.00407907 0)
(0.0969165 0.000239442 0)
(0.103375 -8.66894e-05 0)
(0.697282 -0.00461424 0)
(1.00187 -0.0114537 0)
(1.10947 -0.0143797 0)
(1.10471 -0.0126251 0)
(1.0843 -0.00938751 0)
(1.06952 -0.00568254 0)
(1.05887 -0.00147221 0)
(1.05116 0.00322211 0)
(1.04624 0.00832427 0)
(1.04512 0.013021 0)
(1.04805 0.0166395 0)
(1.05475 0.0192198 0)
(1.06542 0.0211355 0)
(1.08182 0.0228871 0)
(1.0986 0.0239973 0)
(1.05741 0.0217168 0)
(0.83675 0.0128034 0)
(0.465735 0.00376126 0)
(0.0917326 0.000226392 0)
(0.101332 -5.26453e-05 0)
(0.680651 -0.00351574 0)
(0.987676 -0.00928043 0)
(1.10902 -0.0121266 0)
(1.10991 -0.0104759 0)
(1.08965 -0.00717065 0)
(1.07451 -0.00337566 0)
(1.06355 0.000901966 0)
(1.05545 0.005605 0)
(1.05002 0.010607 0)
(1.04834 0.0150738 0)
(1.05081 0.0183865 0)
(1.05723 0.0206246 0)
(1.06778 0.0221974 0)
(1.08421 0.0236703 0)
(1.09784 0.0243615 0)
(1.04266 0.021283 0)
(0.807774 0.0121484 0)
(0.443974 0.00357986 0)
(0.0868376 0.000221155 0)
(0.100019 -1.92426e-05 0)
(0.667544 -0.00249729 0)
(0.975332 -0.0071805 0)
(1.10844 -0.00976605 0)
(1.11507 -0.00814122 0)
(1.09516 -0.00472989 0)
(1.07965 -0.000776812 0)
(1.0683 0.00363616 0)
(1.05973 0.00840883 0)
(1.05368 0.0133706 0)
(1.05133 0.0176433 0)
(1.05324 0.0206451 0)
(1.05932 0.0225193 0)
(1.0697 0.0237421 0)
(1.08612 0.0249385 0)
(1.09584 0.0251605 0)
(1.02626 0.0212189 0)
(0.779397 0.0118283 0)
(0.423155 0.00350967 0)
(0.0820669 0.000222276 0)
(0.0994218 1.56768e-05 0)
(0.657808 -0.00150522 0)
(0.965157 -0.00508358 0)
(1.10807 -0.00723401 0)
(1.12035 -0.00553372 0)
(1.10094 -0.00195412 0)
(1.08501 0.00222423 0)
(1.0732 0.00683907 0)
(1.06406 0.0117485 0)
(1.05725 0.0167083 0)
(1.05409 0.0208 0)
(1.05534 0.0235096 0)
(1.06099 0.0250135 0)
(1.0712 0.0258703 0)
(1.0875 0.0267444 0)
(1.09255 0.0264152 0)
(1.00815 0.0215698 0)
(0.751122 0.0118182 0)
(0.402681 0.00353715 0)
(0.0772845 0.000229143 0)
(0.0995605 4.7547e-05 0)
(0.651425 -0.000495174 0)
(0.957457 -0.00291667 0)
(1.10826 -0.00446543 0)
(1.12591 -0.00258649 0)
(1.10708 0.00122591 0)
(1.09069 0.0057059 0)
(1.07833 0.0106084 0)
(1.06848 0.0157304 0)
(1.06077 0.0207538 0)
(1.05662 0.0246944 0)
(1.05708 0.0270982 0)
(1.06225 0.0282291 0)
(1.07222 0.0286961 0)
(1.08809 0.0291919 0)
(1.08764 0.0281964 0)
(0.988149 0.0223594 0)
(0.722384 0.0121015 0)
(0.382004 0.00365305 0)
(0.0723664 0.00024105 0)
(0.100508 9.3977e-05 0)
(0.648521 0.000552391 0)
(0.952551 -0.000594401 0)
(1.10936 -0.00137169 0)
(1.13193 0.000813976 0)
(1.11369 0.00495218 0)
(1.09679 0.0098265 0)
(1.08377 0.0150996 0)
(1.07307 0.0205145 0)
(1.06426 0.0256606 0)
(1.05894 0.0294678 0)
(1.05845 0.031546 0)
(1.06304 0.03228 0)
(1.07271 0.0323286 0)
(1.08776 0.0323968 0)
(1.08088 0.0305886 0)
(0.965945 0.0236293 0)
(0.69257 0.0126697 0)
(0.360613 0.00385006 0)
(0.0672036 0.000257213 0)
(0.102422 0.000151559 0)
(0.649421 0.00173325 0)
(0.950803 0.00194907 0)
(1.11184 0.00214552 0)
(1.13864 0.00477919 0)
(1.12093 0.00936825 0)
(1.10343 0.0147383 0)
(1.08963 0.0204858 0)
(1.07788 0.0262765 0)
(1.06775 0.031585 0)
(1.06102 0.035263 0)
(1.05943 0.0369836 0)
(1.06331 0.0373107 0)
(1.07261 0.0369044 0)
(1.08623 0.0364727 0)
(1.07197 0.0336835 0)
(0.941102 0.0254155 0)
(0.66101 0.0135164 0)
(0.338024 0.00412049 0)
(0.0617013 0.000276772 0)
(0.105382 0.000214983 0)
(0.654574 0.00318252 0)
(0.952659 0.00488595 0)
(1.11614 0.00623283 0)
(1.14627 0.00944763 0)
(1.12896 0.014624 0)
(1.11077 0.0206183 0)
(1.096 0.0269607 0)
(1.08298 0.0332223 0)
(1.07124 0.0387545 0)
(1.06284 0.0423001 0)
(1.05996 0.0436108 0)
(1.063 0.0434938 0)
(1.07186 0.0425855 0)
(1.08341 0.0416246 0)
(1.06053 0.0375889 0)
(0.913032 0.0277622 0)
(0.626982 0.0146334 0)
(0.31378 0.00445443 0)
(0.0557819 0.000298503 0)
(0.109678 0.000298857 0)
(0.664374 0.00487423 0)
(0.958591 0.00834214 0)
(1.12279 0.0110454 0)
(1.15512 0.0150477 0)
(1.138 0.0210078 0)
(1.11898 0.0277723 0)
(1.10301 0.0348282 0)
(1.08843 0.0416436 0)
(1.07474 0.0474121 0)
(1.06437 0.0507652 0)
(1.05998 0.0516097 0)
(1.06204 0.0510098 0)
(1.07037 0.0495255 0)
(1.07934 0.047954 0)
(1.046 0.0424128 0)
(0.880988 0.0306869 0)
(0.589711 0.0159932 0)
(0.287467 0.00483356 0)
(0.049393 0.000320351 0)
(0.115652 0.00041249 0)
(0.679677 0.0069981 0)
(0.969289 0.012522 0)
(1.13237 0.0168099 0)
(1.16555 0.0218204 0)
(1.14832 0.0288087 0)
(1.12823 0.0365197 0)
(1.11076 0.0444313 0)
(1.09422 0.0518646 0)
(1.07818 0.057847 0)
(1.06552 0.0609196 0)
(1.05933 0.061174 0)
(1.06036 0.0600407 0)
(1.06813 0.0579253 0)
(1.07372 0.0556436 0)
(1.02769 0.0482277 0)
(0.844062 0.0341766 0)
(0.548414 0.0175427 0)
(0.258764 0.00522877 0)
(0.0425243 0.000339544 0)
(0.123826 0.000570111 0)
(0.701384 0.00977309 0)
(0.985605 0.0177369 0)
(1.14551 0.0238761 0)
(1.17804 0.0301614 0)
(1.16024 0.0384743 0)
(1.13875 0.0473264 0)
(1.11934 0.0562159 0)
(1.10037 0.0642898 0)
(1.08151 0.0704009 0)
(1.06618 0.0730274 0)
(1.05797 0.072537 0)
(1.05787 0.0707436 0)
(1.06503 0.0679182 0)
(1.06614 0.0646132 0)
(1.00468 0.0550936 0)
(0.801182 0.0381622 0)
(0.502353 0.0191834 0)
(0.227509 0.00559676 0)
(0.0352235 0.000352506 0)
(0.134939 0.000799062 0)
(0.730797 0.0135869 0)
(1.0087 0.0244507 0)
(1.16303 0.0327926 0)
(1.19322 0.0406945 0)
(1.17411 0.0507227 0)
(1.1507 0.0609091 0)
(1.12875 0.0708308 0)
(1.10675 0.0794379 0)
(1.08454 0.0854169 0)
(1.0662 0.0873027 0)
(1.05581 0.0858947 0)
(1.0545 0.0833672 0)
(1.06069 0.079651 0)
(1.05586 0.0751686 0)
(0.975761 0.0629646 0)
(0.751173 0.0424695 0)
(0.450973 0.020752 0)
(0.193805 0.00587653 0)
(0.0276167 0.000354858 0)
(0.150247 0.00115751 0)
(0.769904 0.0190641 0)
(1.04024 0.0334484 0)
(1.18587 0.0444887 0)
(1.21192 0.054581 0)
(1.19029 0.0665719 0)
(1.16414 0.0782107 0)
(1.13883 0.0890562 0)
(1.11307 0.0978765 0)
(1.08699 0.103288 0)
(1.06534 0.104016 0)
(1.05268 0.101398 0)
(1.05015 0.0979949 0)
(1.05486 0.0935044 0)
(1.04201 0.0873008 0)
(0.93939 0.0716429 0)
(0.692883 0.046778 0)
(0.394115 0.0220125 0)
(0.158146 0.00599385 0)
(0.019925 0.000342208 0)
(0.171947 0.00177921 0)
(0.821951 0.0273379 0)
(1.08286 0.0462787 0)
(1.21518 0.0608453 0)
(1.23467 0.0737747 0)
(1.20884 0.0876482 0)
(1.17879 0.100553 0)
(1.14914 0.111827 0)
(1.11889 0.120192 0)
(1.08846 0.124315 0)
(1.06333 0.1233 0)
(1.04839 0.119136 0)
(1.04467 0.114663 0)
(1.04754 0.109227 0)
(1.0233 0.100879 0)
(0.893668 0.0806734 0)
(0.625516 0.0506011 0)
(0.332408 0.0226716 0)
(0.121575 0.00587243 0)
(0.0124754 0.000310307 0)
(0.203415 0.00314424 0)
(0.892705 0.0410315 0)
(1.14012 0.0667513 0)
(1.25132 0.0854588 0)
(1.26121 0.101151 0)
(1.22912 0.116373 0)
(1.1938 0.129595 0)
(1.15885 0.140155 0)
(1.12351 0.146926 0)
(1.08845 0.148718 0)
(1.05985 0.145214 0)
(1.04276 0.139104 0)
(1.03795 0.133357 0)
(1.0381 0.12688 0)
(0.997958 0.115466 0)
(0.836369 0.0892684 0)
(0.549361 0.0532891 0)
(0.268007 0.0225071 0)
(0.0859769 0.00547847 0)
(0.00575558 0.000254121 0)
(0.246355 0.00937498 8.4395e-21)
(0.986122 0.0681269 7.25523e-21)
(1.20961 0.101449 -2.54338e-21)
(1.29119 0.12199 0)
(1.28865 0.140346 -6.59113e-35)
(1.24892 0.155093 9.66642e-22)
(1.20758 0.166833 -1.76164e-21)
(1.16685 0.17523 0)
(1.12612 0.179316 3.66956e-35)
(1.0862 0.178003 -2.22671e-21)
(1.05394 0.171523 0)
(1.03465 0.163321 -2.67097e-21)
(1.02911 0.156563 -7.90092e-21)
(1.02512 0.149645 -3.74595e-21)
(0.961457 0.133496 -1.13053e-21)
(0.761022 0.0984824 -6.72298e-22)
(0.459458 0.0549834 0)
(0.199758 0.0218794 4.70955e-22)
(0.0514987 0.00504706 5.57758e-22)
(-0.000249446 0.000167371 1.01882e-20)
(0.276113 0.0246542 5.80191e-21)
(1.06348 0.110948 1.11879e-22)
(1.26694 0.15089 6.60515e-22)
(1.32705 0.17139 0)
(1.31277 0.189923 -3.28244e-21)
(1.26595 0.202543 -3.75662e-21)
(1.21868 0.211998 -1.76107e-21)
(1.17214 0.217947 -6.33632e-21)
(1.12585 0.219357 0)
(1.08075 0.215031 9.43405e-21)
(1.04449 0.205701 9.39907e-21)
(1.02283 0.195479 2.7993e-21)
(1.01497 0.187057 1.02654e-20)
(1.00129 0.177807 1.44952e-20)
(0.903224 0.153854 0)
(0.65792 0.107643 2.04787e-20)
(0.353335 0.0562073 2.9393e-20)
(0.129065 0.0205299 3.2711e-20)
(0.0172364 0.00345877 -3.75237e-20)
(-0.00616974 -0.00044852 -7.15651e-22)
(0.277559 0.0415829 0)
(1.1128 0.166337 9.09225e-22)
(1.30587 0.211358 0)
(1.35502 0.23154 -4.02957e-21)
(1.33174 0.247286 0)
(1.27897 0.256006 -7.2616e-21)
(1.22614 0.26171 3.56736e-21)
(1.1741 0.264073 -1.26389e-20)
(1.12255 0.261899 -3.20925e-22)
(1.07261 0.253876 4.85139e-21)
(1.03268 0.241192 2.06522e-20)
(1.00889 0.228639 -3.8381e-23)
(0.998544 0.218211 -7.45025e-21)
(0.975235 0.205213 -1.36033e-20)
(0.849807 0.173252 1.61341e-20)
(0.582072 0.115576 -2.85845e-20)
(0.289065 0.0570126 -3.77301e-21)
(0.0900164 0.018859 0)
(-0.00160159 0.00117374 -3.32948e-24)
(-0.00964382 -0.00129578 0)
(0.270948 0.0558039 9.53946e-21)
(1.13957 0.225389 -4.98014e-21)
(1.33003 0.276372 -4.26754e-21)
(1.3736 0.296999 1.83413e-21)
(1.34411 0.308988 -3.10522e-21)
(1.28692 0.313142 1.51201e-20)
(1.22953 0.314374 7.39594e-21)
(1.17275 0.312452 0)
(1.11652 0.306072 -2.40641e-20)
(1.0622 0.293796 0)
(1.01893 0.277349 -1.07882e-20)
(0.993087 0.262061 -1.34129e-20)
(0.980277 0.249264 -8.094e-21)
(0.948622 0.2319 -9.85937e-21)
(0.806016 0.191539 0)
(0.531898 0.12399 0)
(0.253197 0.0592525 -2.45127e-20)
(0.0680413 0.0174035 4.84597e-21)
(-0.0140568 -0.00166763 -2.8489e-21)
(-0.0125762 -0.00238508 -3.37508e-21)
(0.26303 0.0682863 -1.87588e-21)
(1.15134 0.284322 0)
(1.34337 0.342352 7.69292e-21)
(1.38381 0.36388 4.90874e-21)
(1.35001 0.372098 7.32325e-21)
(1.28959 0.371679 0)
(1.22865 0.368313 7.11916e-21)
(1.16801 0.361877 1.38719e-20)
(1.10779 0.351001 1.22443e-20)
(1.04955 0.33417 2.2803e-20)
(1.0032 0.313668 0)
(0.975386 0.295388 -2.88592e-20)
(0.960231 0.279825 -1.74348e-20)
(0.92186 0.257867 -1.03264e-20)
(0.770989 0.20982 6.33794e-20)
(0.500249 0.133819 7.53996e-21)
(0.234226 0.06283 3.54781e-20)
(0.0563664 0.0163705 -1.67833e-19)
(-0.0220498 -0.00467411 9.94414e-20)
(-0.01499 -0.0036197 -1.21386e-19)
(0.255361 0.079463 1.54596e-21)
(1.15353 0.341216 2.6084e-22)
(1.34886 0.407426 -5.80535e-22)
(1.38731 0.43024 -4.18874e-21)
(1.3504 0.434879 -5.71888e-21)
(1.28756 0.430054 3.63091e-22)
(1.22384 0.422223 -7.72204e-21)
(1.16002 0.411332 1.42501e-20)
(1.09639 0.395945 -2.633e-20)
(1.03469 0.37448 0)
(0.985454 0.349766 -1.30301e-20)
(0.955645 0.328287 -3.16212e-22)
(0.938191 0.309814 -1.90815e-20)
(0.895071 0.283381 0)
(0.742247 0.228526 -1.37211e-20)
(0.480522 0.145038 -3.25936e-20)
(0.225782 0.0681547 8.68517e-20)
(0.05254 0.0162895 -8.55611e-20)
(-0.0257575 -0.00728963 1.21669e-19)
(-0.016641 -0.00485475 -1.28032e-19)
(0.24879 0.0897376 -1.07449e-22)
(1.14969 0.39539 6.51076e-22)
(1.34867 0.470569 -3.06697e-22)
(1.38556 0.49492 1.30428e-21)
(1.34635 0.496314 -2.80357e-21)
(1.28167 0.487341 0)
(1.2157 0.475284 -6.99905e-21)
(1.14923 0.460128 -1.48688e-20)
(1.08266 0.440346 -1.36327e-20)
(1.01785 0.41432 0)
(0.965873 0.385397 -1.34634e-20)
(0.934056 0.360643 -1.67823e-20)
(0.91445 0.339226 2.06974e-20)
(0.868192 0.308487 -1.2579e-20)
(0.717512 0.247765 -5.98975e-20)
(0.467347 0.157859 3.55651e-20)
(0.223916 0.0748421 1.05568e-20)
(0.053911 0.0174884 0)
(-0.0256592 -0.00899328 -1.17671e-19)
(-0.0173059 -0.00589124 -4.37295e-21)
(0.243475 0.099449 9.13205e-22)
(1.14217 0.44668 -1.28031e-21)
(1.3443 0.531228 -1.21108e-22)
(1.37978 0.557234 5.18606e-21)
(1.33883 0.55576 -9.62373e-21)
(1.27274 0.54298 1.32179e-20)
(1.20495 0.526994 1.50942e-20)
(1.13622 0.507821 -2.37455e-20)
(1.06701 0.483847 8.54723e-21)
(0.999305 0.453386 -5.60098e-20)
(0.944756 0.420383 -1.52951e-20)
(0.910952 0.39237 0)
(0.889309 0.36807 2.24838e-20)
(0.840901 0.333283 2.70052e-20)
(0.694428 0.267451 3.23048e-20)
(0.456781 0.171755 -3.86965e-20)
(0.224205 0.0828519 -1.14594e-20)
(0.058112 0.0201722 1.34508e-20)
(-0.0226939 -0.0094864 0)
(-0.0170136 -0.00658889 -9.51032e-21)
(0.239318 0.108697 -1.45888e-20)
(1.13265 0.495165 7.89138e-21)
(1.33703 0.589253 4.87782e-22)
(1.37099 0.616832 2.60934e-21)
(1.32865 0.612834 -3.88974e-21)
(1.2615 0.596595 -8.32569e-22)
(1.1922 0.577028 -1.65802e-20)
(1.12148 0.554145 -8.61564e-21)
(1.04989 0.526219 -2.37371e-20)
(0.979493 0.491518 6.59552e-23)
(0.922469 0.454559 -4.78539e-20)
(0.886717 0.42338 4.06831e-20)
(0.863086 0.396227 -2.4779e-20)
(0.813134 0.357688 2.98333e-20)
(0.671971 0.286795 0)
(0.446456 0.186134 -2.10914e-20)
(0.224822 0.0916398 6.61188e-23)
(0.0633384 0.0240312 -5.88571e-20)
(-0.0181654 -0.00891378 -8.66525e-21)
(-0.0160738 -0.00695178 0)
(0.236241 0.117729 0)
(1.12216 0.541074 9.17833e-21)
(1.32775 0.64494 3.41268e-21)
(1.36001 0.673552 -1.81846e-21)
(1.31651 0.667319 -5.51536e-21)
(1.24854 0.647977 0)
(1.17797 0.625179 -7.26609e-21)
(1.10552 0.598913 -2.11981e-22)
(1.03176 0.567332 5.09401e-20)
(0.958805 0.528628 -7.6768e-21)
(0.899339 0.487837 -3.46184e-20)
(0.861697 0.453564 2.11344e-20)
(0.836227 0.42365 -4.50115e-22)
(0.784994 0.381485 3.18092e-20)
(0.648869 0.305718 1.95256e-20)
(0.434756 0.200438 -4.55528e-20)
(0.224 0.100571 5.39641e-20)
(0.0680409 0.0285334 1.60072e-20)
(-0.0130589 -0.00750982 6.61691e-20)
(-0.0146892 -0.00699601 -1.78973e-19)
(0.234152 0.12668 -4.99663e-21)
(1.11141 0.584587 6.57684e-21)
(1.31705 0.697759 -4.34248e-21)
(1.34748 0.72734 2.82452e-22)
(1.30299 0.719114 0)
(1.23437 0.697002 -5.47043e-21)
(1.16275 0.671326 2.47492e-20)
(1.08876 0.642009 1.88239e-20)
(1.01296 0.607101 0)
(0.937504 0.564648 -1.1113e-19)
(0.875641 0.520157 9.39266e-20)
(0.836137 0.48285 0)
(0.808904 0.450204 2.90916e-20)
(0.756474 0.40438 -4.44437e-22)
(0.624805 0.323677 -6.28334e-20)
(0.421217 0.213851 2.45787e-20)
(0.220769 0.109166 0)
(0.0711569 0.0332089 8.66004e-20)
(-0.0083821 -0.00566132 0)
(-0.0131512 -0.00681724 -8.49378e-20)
(0.232913 0.135587 6.02777e-21)
(1.10082 0.625912 8.67704e-21)
(1.30538 0.747766 -4.27717e-21)
(1.33393 0.778213 0)
(1.28857 0.768204 -3.81708e-21)
(1.21944 0.743629 0)
(1.14692 0.715402 -2.39838e-20)
(1.07152 0.683371 -8.54609e-21)
(0.993794 0.645472 8.92801e-21)
(0.915898 0.599565 -5.50534e-20)
(0.851601 0.55151 9.68686e-21)
(0.810262 0.511219 0)
(0.781336 0.475726 -6.22687e-20)
(0.727634 0.426103 4.24091e-22)
(0.59927 0.340349 0)
(0.405667 0.225778 1.79903e-22)
(0.214931 0.116757 7.92707e-20)
(0.0719579 0.0373874 -7.49641e-20)
(-0.00490473 -0.0038772 2.21919e-20)
(-0.011731 -0.00653638 0)
(0.232175 0.144378 0)
(1.09058 0.665226 1.05516e-20)
(1.29317 0.795068 6.48058e-21)
(1.31978 0.826239 -5.18332e-22)
(1.27362 0.814617 -5.6941e-22)
(1.20408 0.787859 -1.23142e-20)
(1.13078 0.75739 9.1399e-21)
(1.05411 0.722978 -1.02902e-20)
(0.974557 0.682421 4.0146e-20)
(0.894216 0.633377 -8.82374e-20)
(0.827402 0.58193 -8.58781e-22)
(0.784182 0.538599 -2.71936e-20)
(0.75361 0.500074 1.01284e-19)
(0.69861 0.44636 -5.14828e-22)
(0.572915 0.355309 -4.90202e-20)
(0.388125 0.235824 -8.70546e-20)
(0.20673 0.122823 0)
(0.0705658 0.0404922 0)
(-0.00283956 -0.00255061 2.39911e-20)
(-0.0105667 -0.00627978 -1.4252e-20)
(0.232066 0.153212 8.5721e-21)
(1.08093 0.702315 -2.40735e-20)
(1.28072 0.839756 -6.97016e-21)
(1.30534 0.8715 0)
(1.25844 0.858406 -3.10459e-22)
(1.18859 0.829724 -1.04446e-20)
(1.11462 0.797304 2.15499e-20)
(1.03679 0.760824 4.00241e-20)
(0.955474 0.717955 5.21168e-20)
(0.872653 0.666094 -7.21389e-20)
(0.80321 0.611457 -8.12809e-20)
(0.757999 0.564991 7.28684e-20)
(0.725777 0.523141 0)
(0.669383 0.464875 -2.23518e-20)
(0.545811 0.36812 -5.3029e-20)
(0.368977 0.243561 -6.26917e-20)
(0.196411 0.126922 -7.40761e-20)
(0.0673009 0.0422284 2.1933e-20)
(-0.00203581 -0.00187344 -1.29323e-20)
(-0.00968112 -0.00610476 6.53521e-23)
(0.232172 0.16187 0)
(1.07199 0.737717 0)
(1.26821 0.881932 5.15098e-22)
(1.29082 0.914098 0)
(1.24328 0.899662 -9.07199e-22)
(1.17319 0.869288 6.37833e-21)
(1.09865 0.835176 0)
(1.01975 0.796917 4.65951e-21)
(0.936735 0.752072 8.69537e-20)
(0.851418 0.697759 -1.66249e-19)
(0.779169 0.640148 0)
(0.731761 0.590453 -4.70686e-20)
(0.697776 0.544869 -6.03395e-22)
(0.639906 0.481387 -4.46258e-22)
(0.518199 0.378369 5.6904e-20)
(0.348433 0.248684 3.05658e-24)
(0.184447 0.128818 -1.59735e-19)
(0.0625037 0.0425379 4.72112e-20)
(-0.00224572 -0.00182003 1.40074e-20)
(-0.00903109 -0.00600358 0)
(0.232529 0.170344 -3.47027e-20)
(1.06348 0.771465 -1.64141e-20)
(1.25574 0.921662 -2.10061e-20)
(1.27643 0.954141 1.96269e-20)
(1.22832 0.938459 -4.75057e-21)
(1.15805 0.906615 0)
(1.08303 0.87105 1.26795e-20)
(1.00315 0.831285 -1.05047e-20)
(0.918513 0.78479 7.982e-22)
(0.830684 0.72841 1.23207e-20)
(0.755409 0.668085 1.0573e-19)
(0.705504 0.615111 -1.65272e-20)
(0.66951 0.565264 -6.27884e-20)
(0.610051 0.495638 -2.61273e-20)
(0.490132 0.385682 3.08745e-20)
(0.327004 0.250862 3.39914e-23)
(0.171468 0.128393 4.30566e-20)
(0.0567283 0.0414585 -1.01689e-19)
(-0.00309172 -0.00228765 1.2064e-19)
(-0.00853675 -0.00595582 1.781e-20)
(0.232748 0.178585 1.32361e-20)
(1.05545 0.803644 -9.28663e-21)
(1.24347 0.959068 1.29672e-21)
(1.26229 0.991754 1.29051e-20)
(1.2137 0.974907 2.40341e-21)
(1.14331 0.941777 -1.04681e-20)
(1.0679 0.904977 3.41509e-21)
(0.987131 0.86395 -4.3694e-20)
(0.900948 0.816112 -9.59292e-20)
(0.810588 0.75806 -9.93766e-20)
(0.732075 0.695357 0)
(0.679265 0.639138 -7.29368e-20)
(0.640833 0.584408 9.07598e-20)
(0.579546 0.507412 0)
(0.461649 0.38961 -6.6255e-20)
(0.30556 0.249659 3.93511e-20)
(0.158551 0.125478 -4.63522e-20)
(0.0510549 0.0392446 -5.47602e-20)
(-0.00411649 -0.00304475 -9.72321e-20)
(-0.00818311 -0.00595325 -7.67817e-20)
(0.233348 0.186702 -1.50537e-20)
(1.04772 0.834244 9.94971e-21)
(1.23146 0.994214 2.24836e-20)
(1.24849 1.02702 1.90772e-20)
(1.19951 1.0091 -4.27224e-21)
(1.12906 0.974863 -4.71191e-21)
(1.05334 0.937009 1.16419e-20)
(0.971785 0.894954 -4.46861e-20)
(0.884134 0.846061 -5.6907e-20)
(0.791267 0.786735 1.04223e-19)
(0.709299 0.722052 2.33372e-19)
(0.653098 0.662706 0)
(0.611607 0.602487 0)
(0.548011 0.516653 -3.01429e-20)
(0.432455 0.389576 0)
(0.28453 0.244034 8.46058e-20)
(0.147449 0.119214 9.96925e-20)
(0.0476146 0.035702 0)
(-0.00418369 -0.00390373 0)
(-0.00798019 -0.00602376 8.25819e-20)
(0.233629 0.19437 1.71948e-20)
(1.04033 0.863259 1.36106e-20)
(1.21978 1.02721 1.63963e-20)
(1.23513 1.06005 -1.86442e-20)
(1.18583 1.04115 -6.05082e-21)
(1.11538 1.00595 3.45159e-21)
(1.03943 0.967205 -1.58178e-20)
(0.957185 0.924325 -1.28541e-22)
(0.868162 0.874644 -1.04546e-21)
(0.772832 0.814434 -8.87225e-22)
(0.687232 0.748249 1.20479e-19)
(0.627093 0.685967 0)
(0.581746 0.619787 9.24663e-20)
(0.514963 0.523544 6.45559e-20)
(0.401735 0.385216 1.55043e-19)
(0.263536 0.232317 4.56685e-20)
(0.139966 0.106411 -5.36684e-20)
(0.0515948 0.0270694 -3.1605e-20)
(0.00315728 -0.00638692 0)
(-0.00642965 -0.00586299 8.8817e-20)
(0.234291 0.202069 -3.90688e-20)
(1.03324 0.890826 0)
(1.20843 1.05812 1.94703e-20)
(1.22222 1.09095 -1.59376e-20)
(1.17271 1.07116 8.77149e-21)
(1.10231 1.03512 -1.1876e-21)
(1.02623 0.995619 2.95411e-20)
(0.943376 0.952097 -3.7256e-21)
(0.853085 0.90187 0)
(0.75537 0.841128 -1.15323e-19)
(0.666023 0.773989 -2.62627e-19)
(0.601378 0.709067 1.08389e-20)
(0.551263 0.636643 1.28204e-19)
(0.480021 0.528599 0)
(0.368168 0.376906 1.04935e-19)
(0.24003 0.212974 0)
(0.134184 0.0798164 0)
(0.069518 -0.0037845 -3.41752e-20)
(0.0454897 -0.0239465 0)
(0.02512 0.00445834 2.38261e-20)
(0.234533 0.20921 -4.38027e-20)
(1.02641 0.917169 0)
(1.19739 1.08713 3.26227e-20)
(1.20971 1.11994 0)
(1.16013 1.09939 -5.51966e-21)
(1.08978 1.06267 0)
(1.01365 1.02256 1.24024e-21)
(0.930264 0.978606 6.15561e-21)
(0.83878 0.928101 7.19236e-21)
(0.738709 0.867193 -1.26733e-19)
(0.645479 0.799725 7.87325e-21)
(0.575655 0.732663 8.77409e-20)
(0.519649 0.653865 1.2547e-19)
(0.44218 0.53255 1.6918e-20)
(0.329722 0.366125 8.25151e-20)
(0.208546 0.186771 0)
(0.116956 0.0349704 1.13165e-19)
(0.0669166 -0.0400542 -6.64678e-20)
(0.0305044 0.0525897 7.76829e-20)
(-0.0384006 0.456762 -9.23014e-20)
(0.234738 0.216197 3.63892e-20)
(1.01962 0.942159 5.48603e-20)
(1.1866 1.11456 0)
(1.19748 1.14748 1.0374e-21)
(1.14787 1.12643 1.66604e-20)
(1.07752 1.08928 -5.84022e-21)
(1.00139 1.04883 9.52187e-21)
(0.917429 1.00479 0)
(0.824704 0.954434 4.7128e-20)
(0.722157 0.893936 -6.55569e-21)
(0.624663 0.826954 0)
(0.548586 0.758449 0)
(0.484775 0.672779 1.12729e-19)
(0.398799 0.53579 -5.23767e-20)
(0.283119 0.354599 -8.38807e-20)
(0.164598 0.156649 0)
(0.0674321 0.0547789 5.75729e-20)
(0.00557616 0.462193 -6.6894e-20)
(0.0306517 1.92906 -3.75921e-20)
(0.0572055 2.82586 -4.60871e-20)
(0.234601 0.222637 -2.751e-20)
(1.01292 0.965968 -7.07379e-20)
(1.17607 1.14043 1.95512e-20)
(1.18551 1.17343 1.59121e-20)
(1.13601 1.15207 0)
(1.06564 1.11467 -6.36442e-21)
(0.98966 1.07411 1.18327e-20)
(0.905069 1.03023 -2.92571e-21)
(0.811147 0.980355 7.07956e-21)
(0.706112 0.920759 1.20758e-19)
(0.604211 0.855023 1.33467e-19)
(0.521153 0.786264 9.88823e-20)
(0.447414 0.693577 1.1386e-19)
(0.35114 0.53753 -1.23668e-19)
(0.234346 0.346045 -1.27132e-19)
(0.109552 0.211636 0)
(0.0387037 0.887793 0)
(0.0862253 2.58308 3.19773e-20)
(0.0891237 3.21273 0)
(0.0905405 3.38967 8.34013e-20)
(0.237256 0.228659 0)
(1.0066 0.988982 0)
(1.1655 1.16458 0)
(1.17362 1.19767 4.85409e-21)
(1.1242 1.17609 1.54524e-20)
(1.05394 1.1387 -7.39375e-21)
(0.978384 1.09832 7.15532e-21)
(0.893119 1.05478 -2.82204e-21)
(0.798044 1.00569 5.83728e-20)
(0.690567 0.947503 -1.78262e-21)
(0.584212 0.883714 2.64025e-19)
(0.493721 0.81619 -1.14709e-20)
(0.407451 0.717093 1.38569e-20)
(0.301143 0.535983 1.79727e-20)
(0.175053 0.363879 -5.5709e-22)
(0.0895414 1.01558 3.49397e-22)
(0.123201 2.76451 -1.69798e-19)
(0.127923 3.3015 -6.414e-20)
(0.118642 3.42379 3.39155e-20)
(0.108344 3.44359 -3.82868e-20)
(0.160629 0.174404 1.68956e-20)
(0.996174 1.01394 0)
(1.15471 1.18722 -4.0357e-20)
(1.1622 1.22062 -4.37956e-20)
(1.11289 1.19894 3.68991e-20)
(1.04309 1.16186 8.79554e-21)
(0.967383 1.12143 -6.76148e-21)
(0.881607 1.07851 2.97094e-20)
(0.785471 1.03052 -4.76667e-20)
(0.675741 0.974285 0)
(0.564955 0.913089 1.30128e-19)
(0.466825 0.848005 -8.0948e-20)
(0.367669 0.746483 0)
(0.242721 0.535264 1.74185e-20)
(0.128469 0.755402 4.14284e-20)
(0.137853 2.56823 -4.69635e-20)
(0.185683 3.32863 5.33715e-20)
(0.168468 3.4342 2.87415e-20)
(0.14002 3.45298 3.27263e-20)
(0.120906 3.46168 5.20722e-20)
(0.272092 0.266737 -3.25997e-20)
(0.979095 1.02445 0)
(1.13674 1.21334 4.37265e-20)
(1.14764 1.25187 4.84788e-20)
(1.09544 1.23268 -4.17328e-20)
(1.02505 1.19597 -1.3832e-20)
(0.94815 1.15709 3.05696e-21)
(0.861803 1.11548 2.3595e-21)
(0.764199 1.06977 4.46702e-20)
(0.651416 1.01772 1.03768e-19)
(0.534709 0.962863 7.27519e-21)
(0.424799 0.901994 7.20218e-20)
(0.293004 0.780815 1.31039e-20)
(0.203684 0.92395 -1.6755e-20)
(0.209491 2.44416 -3.78155e-20)
(0.260608 3.33301 3.72398e-20)
(0.243548 3.4598 -4.083e-20)
(0.209402 3.47848 -2.35601e-20)
(0.175868 3.50286 -2.12041e-20)
(0.130814 3.49773 -3.09669e-21)
(0.262412 0.265705 0)
(0.976394 1.04749 1.27279e-20)
(1.12809 1.2371 -9.01415e-21)
(1.13661 1.27558 -5.78498e-21)
(1.08435 1.25609 -2.89474e-20)
(1.01394 1.21958 1.44448e-20)
(0.936718 1.18091 -2.8935e-22)
(0.850107 1.14017 2.05969e-21)
(0.75184 1.096 -4.61102e-20)
(0.637501 1.04695 -2.79609e-21)
(0.51743 0.997021 -2.34447e-19)
(0.40113 0.93892 1.03192e-20)
(0.275385 0.854223 -1.23966e-20)
(0.238884 1.54474 -1.53917e-20)
(0.301708 3.14374 3.6752e-21)
(0.314696 3.46188 2.47669e-22)
(0.273258 3.5089 6.00789e-20)
(0.23938 3.53201 3.03135e-20)
(0.193668 3.55193 -9.51454e-21)
(0.143756 3.54842 -1.52118e-20)
(0.248511 0.263841 3.26162e-20)
(0.972792 1.07311 8.638e-20)
(1.11911 1.26295 -2.57646e-20)
(1.12521 1.30092 -2.17898e-20)
(1.0728 1.28097 0)
(1.00246 1.24449 2.6617e-20)
(0.925191 1.20611 2.71337e-21)
(0.838572 1.16618 1.73564e-21)
(0.739954 1.12365 -5.17674e-21)
(0.6246 1.07789 -9.27207e-20)
(0.502096 1.03349 -1.07696e-19)
(0.380095 0.977246 -8.42651e-20)
(0.278718 0.999158 -9.30429e-20)
(0.304313 2.31218 9.62542e-20)
(0.382267 3.38973 8.13691e-20)
(0.353944 3.5186 0)
(0.305971 3.55513 0)
(0.269365 3.58862 -7.42793e-21)
(0.225413 3.63365 0)
(0.155952 3.61817 -1.13667e-20)
(0.238751 0.265874 -4.87284e-20)
(0.967272 1.09962 -7.32484e-20)
(1.10875 1.29005 0)
(1.11257 1.3271 1.26084e-21)
(1.06001 1.30652 -3.14874e-20)
(0.989908 1.26999 4.34866e-20)
(0.912919 1.23192 3.5835e-21)
(0.82652 1.19274 7.00035e-22)
(0.727811 1.15182 -3.13151e-20)
(0.61188 1.10938 4.53241e-21)
(0.487902 1.07062 0)
(0.361373 1.01995 0)
(0.30102 1.29166 -8.41398e-20)
(0.383248 2.97426 3.42933e-20)
(0.447268 3.48911 4.3507e-20)