/*--------------------------------*- C++ -*----------------------------------*\
  =========                 |
  \\      /  F ield         | OpenFOAM: The Open Source CFD Toolbox
   \\    /   O peration     | Website:  https://openfoam.org
    \\  /    A nd           | Version:  6
     \\/     M anipulation  |
\*---------------------------------------------------------------------------*/
FoamFile
{
    version     2.0;
    format      ascii;
    class       volScalarField;
    location    "63.9";
    object      p;
}
// * * * * * * * * * * * * * * * * * * * * * * * * * * * * * * * * * * * * * //

dimensions      [0 2 -2 0 0 0 0];

internalField   nonuniform List<scalar> 
8800
(
0.927039
0.877723
0.839755
0.811682
0.791514
0.776918
0.766306
0.758747
0.753836
0.751733
0.753067
0.75738
0.764151
0.773557
0.786283
0.803596
0.827469
0.860564
0.903499
0.956012
0.761538
0.767882
0.77703
0.780575
0.777961
0.771864
0.764911
0.758652
0.753827
0.750927
0.750658
0.753252
0.757867
0.763977
0.771064
0.778089
0.782962
0.782833
0.776156
0.767255
0.735065
0.741298
0.745795
0.74966
0.752601
0.753539
0.752435
0.750292
0.748283
0.747407
0.7484
0.75082
0.753683
0.755936
0.756446
0.754649
0.751278
0.747261
0.742477
0.738761
0.73078
0.733544
0.736146
0.738297
0.740025
0.741582
0.742667
0.742997
0.742852
0.74291
0.743672
0.744779
0.745494
0.745325
0.744337
0.742974
0.741297
0.738991
0.736578
0.735011
0.725746
0.72717
0.729004
0.731077
0.732779
0.734058
0.735136
0.73609
0.736864
0.737555
0.738218
0.738639
0.738633
0.738249
0.737566
0.73644
0.734776
0.732877
0.731521
0.730718
0.720784
0.721686
0.722927
0.724544
0.726225
0.727741
0.729003
0.730095
0.731119
0.732085
0.732816
0.733161
0.733138
0.732746
0.731926
0.730725
0.729354
0.728082
0.727259
0.726735
0.71591
0.716566
0.71752
0.718827
0.72026
0.721758
0.723218
0.724547
0.725763
0.726908
0.727797
0.72824
0.728219
0.727754
0.726953
0.725996
0.724993
0.724082
0.723499
0.723115
0.711124
0.711629
0.712407
0.713536
0.71482
0.716215
0.717695
0.719197
0.720655
0.722042
0.723124
0.723674
0.723707
0.723351
0.722764
0.722058
0.721308
0.720637
0.720207
0.719908
0.706372
0.706773
0.707426
0.708433
0.709644
0.710985
0.712456
0.714051
0.715721
0.717387
0.718717
0.719452
0.719674
0.719545
0.719195
0.718708
0.718162
0.717684
0.717366
0.717123
0.701573
0.7019
0.702465
0.703394
0.704558
0.705885
0.707391
0.709086
0.71095
0.71291
0.714566
0.715602
0.716105
0.716238
0.716125
0.715863
0.715512
0.715195
0.714962
0.714758
0.69664
0.696912
0.697417
0.698299
0.699447
0.700802
0.702384
0.70422
0.706315
0.708619
0.710684
0.712108
0.712954
0.713383
0.713526
0.71349
0.713336
0.713161
0.712995
0.71282
0.691486
0.691715
0.692182
0.693048
0.69422
0.695644
0.697345
0.699378
0.701773
0.704502
0.707069
0.708959
0.710202
0.71097
0.7114
0.711604
0.711647
0.711602
0.711491
0.711335
0.686018
0.686213
0.686662
0.687541
0.688777
0.690315
0.692191
0.694489
0.697268
0.70053
0.703704
0.706147
0.707855
0.709011
0.709764
0.71022
0.710476
0.710556
0.710492
0.710349
0.680134
0.680303
0.68075
0.681672
0.683012
0.684715
0.686833
0.689478
0.692743
0.696661
0.700571
0.703676
0.705933
0.707536
0.708658
0.709419
0.709887
0.710084
0.71006
0.709926
0.673715
0.673861
0.674322
0.675315
0.676805
0.678734
0.681173
0.684263
0.688137
0.692863
0.697665
0.70156
0.704466
0.706595
0.708136
0.70923
0.709938
0.71026
0.710273
0.710143
0.666621
0.666743
0.667233
0.668329
0.670019
0.672246
0.675095
0.678747
0.683376
0.689089
0.694968
0.699809
0.703483
0.706231
0.708267
0.709745
0.710724
0.711174
0.711221
0.711091
0.658662
0.658767
0.659302
0.660535
0.662487
0.665095
0.668465
0.672821
0.678383
0.6853
0.692478
0.698447
0.70303
0.706505
0.709134
0.711061
0.712341
0.712925
0.713003
0.71287
0.649614
0.649718
0.650303
0.651708
0.654
0.657091
0.661116
0.666352
0.67307
0.681456
0.690193
0.697503
0.703159
0.707492
0.710821
0.71327
0.714892
0.715619
0.715727
0.715587
0.639158
0.639248
0.639924
0.641565
0.644292
0.648001
0.65286
0.659204
0.667356
0.677534
0.688137
0.697025
0.703939
0.70928
0.71341
0.716481
0.718485
0.719361
0.719494
0.719343
0.626923
0.626999
0.627778
0.629732
0.63302
0.637525
0.643452
0.6512
0.661143
0.673509
0.686333
0.697062
0.705434
0.711948
0.717012
0.720791
0.723214
0.724239
0.72439
0.724226
0.61235
0.612419
0.613343
0.61571
0.619734
0.625289
0.632607
0.642154
0.654335
0.669361
0.684813
0.697676
0.707714
0.715567
0.721708
0.726282
0.72915
0.730315
0.730475
0.730293
0.594664
0.594725
0.595864
0.598816
0.603849
0.610818
0.619984
0.631868
0.646867
0.665119
0.683641
0.698934
0.710849
0.720213
0.727542
0.733
0.736317
0.737597
0.737752
0.737551
0.572705
0.572771
0.574253
0.578081
0.584564
0.593522
0.605225
0.6202
0.638758
0.660881
0.682928
0.700928
0.71491
0.725933
0.734559
0.740937
0.744668
0.746018
0.746149
0.745927
0.544692
0.544788
0.546866
0.552109
0.560833
0.572723
0.588006
0.607107
0.630131
0.656832
0.682828
0.703757
0.719948
0.732731
0.742732
0.750012
0.754059
0.755407
0.755492
0.75525
0.50757
0.50779
0.511083
0.518935
0.531439
0.54784
0.568242
0.592767
0.621244
0.653201
0.683513
0.707536
0.726016
0.740596
0.751984
0.760035
0.76423
0.765479
0.765495
0.765238
0.455502
0.456589
0.463131
0.476369
0.495472
0.518846
0.546322
0.577689
0.612566
0.650346
0.685216
0.712391
0.733146
0.749444
0.76211
0.770711
0.774796
0.775842
0.775778
0.775513
0.380033
0.387436
0.402434
0.425552
0.454511
0.487221
0.523305
0.562509
0.604466
0.648568
0.688333
0.718872
0.742087
0.760246
0.774057
0.782935
0.786758
0.787582
0.787465
0.78723
0.299782
0.315952
0.340307
0.374066
0.413394
0.455604
0.500356
0.547572
0.596988
0.648058
0.693573
0.728255
0.754444
0.774772
0.789773
0.798573
0.801838
0.802399
0.802308
0.802162
0.231035
0.250793
0.282966
0.325902
0.374475
0.425629
0.478815
0.533901
0.590611
0.648411
0.699356
0.737872
0.766781
0.788928
0.804652
0.813093
0.815855
0.816312
0.816279
0.816185
0.174779
0.196757
0.234311
0.283825
0.33964
0.398305
0.458967
0.521324
0.584929
0.649128
0.70521
0.747305
0.778688
0.802428
0.818838
0.827305
0.829919
0.830341
0.83034
0.830276
0.128166
0.151466
0.19292
0.247578
0.309197
0.374069
0.441132
0.509923
0.579807
0.649997
0.711012
0.756562
0.790329
0.815705
0.832956
0.841641
0.84434
0.84475
0.844768
0.844725
0.0885714
0.112665
0.157001
0.215849
0.282362
0.352527
0.425126
0.499632
0.575277
0.651092
0.716803
0.765713
0.801817
0.828798
0.847019
0.856188
0.859036
0.859466
0.859496
0.859473
0.0539623
0.0785895
0.125184
0.187504
0.258203
0.332996
0.410541
0.49024
0.571201
0.652279
0.722471
0.77462
0.813041
0.841606
0.860832
0.870552
0.873636
0.874106
0.874142
0.874131
0.0228438
0.0479117
0.0963711
0.161654
0.23599
0.314863
0.396858
0.481304
0.567208
0.653328
0.727826
0.783109
0.823736
0.853863
0.874031
0.884279
0.887641
0.888192
0.888234
0.888228
-0.00579626
0.0196797
0.0697347
0.1376
0.215131
0.297618
0.38363
0.472465
0.563061
0.654012
0.732705
0.791002
0.833744
0.865308
0.886377
0.897139
0.900749
0.9014
0.901422
0.901412
-0.0327605
-0.00684116
0.0446473
0.114829
0.195183
0.280902
0.370571
0.463476
0.558493
0.654098
0.736927
0.798193
0.842972
0.875894
0.897746
0.908908
0.912715
0.913418
0.913422
0.913398
-0.0584407
-0.0320908
0.0207228
0.0929664
0.175841
0.264466
0.357456
0.454112
0.553307
0.653462
0.740401
0.80465
0.851405
0.885577
0.908073
0.919494
0.923423
0.924148
0.924124
0.924079
-0.0832682
-0.0564051
-0.0023657
0.071744
0.156876
0.248112
0.344125
0.444252
0.547403
0.651988
0.743067
0.810353
0.859094
0.89441
0.917402
0.928969
0.932894
0.933609
0.933552
0.933487
-0.107379
-0.0799956
-0.0247965
0.0509978
0.138149
0.231737
0.330501
0.433827
0.540694
0.649588
0.744873
0.815326
0.86612
0.902528
0.925859
0.937389
0.94126
0.941938
0.94186
0.941775
-0.130899
-0.102967
-0.0466861
0.0306403
0.1196
0.215296
0.316544
0.422793
0.53313
0.646201
0.745762
0.819591
0.872588
0.910076
0.93361
0.944959
0.948668
0.949269
0.949166
0.949065
-0.153924
-0.125426
-0.0680813
0.0106363
0.101197
0.198777
0.302255
0.411158
0.524706
0.641778
0.745672
0.823148
0.878614
0.917253
0.940849
0.951814
0.955236
0.955722
0.95558
0.955464
-0.17651
-0.147369
-0.088995
-0.00901658
0.0829653
0.182204
0.28767
0.398955
0.515436
0.636286
0.744535
0.825956
0.884286
0.924268
0.947787
0.958108
0.961053
0.96136
0.961186
0.961065
-0.198511
-0.168761
-0.109407
-0.0283044
0.0649331
0.165635
0.272843
0.386247
0.505366
0.62973
0.742281
0.827936
0.889619
0.931351
0.954778
0.964107
0.966266
0.966284
0.966079
0.965966
-0.219901
-0.189568
-0.129304
-0.0471898
0.0471513
0.149127
0.25786
0.373103
0.494565
0.622123
0.738847
0.828967
0.894546
0.938661
0.962302
0.97037
0.971199
0.970607
0.970347
0.970292
-0.240734
-0.209759
-0.14866
-0.0656419
0.0296781
0.132758
0.242804
0.359621
0.483117
0.613513
0.734166
0.828914
0.89889
0.946159
0.97082
0.977861
0.976749
0.974729
0.974114
0.974328
-0.260855
-0.229307
-0.16742
-0.0835962
0.0125704
0.116613
0.227771
0.345908
0.471131
0.603987
0.728199
0.827612
0.902388
0.953499
0.980391
0.98769
0.984961
0.980399
0.97758
0.9764
-0.280358
-0.248216
-0.185592
-0.101085
-0.00420643
0.100651
0.212708
0.331904
0.458537
0.593481
0.720788
0.824807
0.904789
0.960173
0.990423
1.00016
0.998025
0.990924
0.981345
0.981654
-0.299158
-0.266552
-0.203308
-0.118304
-0.020946
0.0845429
0.197202
0.317128
0.444791
0.581369
0.711279
0.81974
0.905649
0.96558
0.999366
1.01317
1.01242
1.00137
0.982955
0.98092
-0.317117
-0.284278
-0.2204
-0.135064
-0.0373843
0.0685891
0.18146
0.301899
0.430183
0.567887
0.699708
0.811724
0.904124
0.96853
1.00311
1.01732
1.01869
0.993542
0.935724
0.9107
-0.334115
-0.302255
-0.23647
-0.150916
-0.0527528
0.0532703
0.16576
0.286491
0.414992
0.553203
0.686137
0.800154
0.89915
0.968098
0.996867
1.00587
0.992844
0.941524
0.879548
0.841762
-0.377202
-0.31975
-0.251258
-0.166732
-0.0677999
0.0376315
0.150244
0.270784
0.399014
0.536964
0.670162
0.784385
0.88684
0.961103
0.978426
0.965616
0.91826
0.853173
0.784234
0.746341
-0.352411
-0.334224
-0.273797
-0.188621
-0.0910427
0.0141432
0.126048
0.245907
0.373187
0.50969
0.64147
0.753709
0.847846
0.929389
0.91307
0.804591
0.713969
0.651005
0.586928
0.613797
-0.383432
-0.351913
-0.29065
-0.205962
-0.108735
-0.00371919
0.10834
0.227522
0.353752
0.488457
0.617624
0.726353
0.809956
0.855655
0.804305
0.664822
0.555762
0.482241
0.400079
0.445457
-0.407543
-0.373581
-0.310553
-0.22579
-0.128626
-0.0236353
0.0882913
0.206662
0.331501
0.463784
0.589118
0.691918
0.763837
0.771741
0.665444
0.510261
0.381191
0.288731
0.193219
0.224571
-0.431043
-0.395996
-0.331562
-0.246125
-0.148879
-0.0440127
0.0673899
0.184779
0.307995
0.437435
0.557903
0.652658
0.707527
0.682745
0.524818
0.347815
0.187969
0.0541438
-0.0701733
-0.0573651
-0.454292
-0.418826
-0.353454
-0.267404
-0.170011
-0.0653611
0.0453766
0.161631
0.282928
0.409093
0.523832
0.610479
0.644643
0.574779
0.386508
0.189457
0.00245338
-0.151379
-0.356857
-0.435974
-0.477974
-0.442531
-0.376593
-0.290097
-0.192531
-0.0880534
0.0220816
0.13716
0.256404
0.379005
0.487564
0.564841
0.573589
0.452136
0.260399
0.0513358
-0.140711
-0.30251
-0.426404
-0.544909
-0.503171
-0.467604
-0.401338
-0.31459
-0.216982
-0.112778
-0.00334585
0.110372
0.227205
0.345665
0.447612
0.512151
0.493567
0.335724
0.142417
-0.060627
-0.235898
-0.33321
-0.359455
-0.372963
-0.530013
-0.494337
-0.427826
-0.340981
-0.243515
-0.139761
-0.0312848
0.0807514
0.19471
0.308278
0.403125
0.450123
0.412302
0.223966
0.0325087
-0.15035
-0.282604
-0.320476
-0.329457
-0.329796
-0.558779
-0.522857
-0.456098
-0.36926
-0.272082
-0.169016
-0.0617632
0.0482363
0.158841
0.266799
0.3535
0.384255
0.315361
0.121959
-0.06349
-0.222587
-0.296735
-0.310656
-0.311717
-0.311593
-0.589484
-0.553199
-0.48617
-0.399426
-0.302704
-0.200536
-0.0947966
0.012803
0.119603
0.221329
0.298589
0.314986
0.207875
0.0297279
-0.145903
-0.272669
-0.301309
-0.301487
-0.301775
-0.301297
-0.621872
-0.585193
-0.517945
-0.431398
-0.335297
-0.234272
-0.130364
-0.0255318
0.0770417
0.171993
0.239629
0.237084
0.112695
-0.0549843
-0.210442
-0.28327
-0.297982
-0.29565
-0.295189
-0.294695
-0.655378
-0.618492
-0.551156
-0.464945
-0.36967
-0.270067
-0.168314
-0.0666545
0.0313752
0.119191
0.177069
0.158513
0.0248349
-0.128755
-0.251372
-0.289547
-0.289491
-0.290463
-0.290418
-0.29008
-0.689559
-0.652559
-0.585311
-0.49964
-0.405463
-0.307591
-0.20836
-0.110293
-0.0171076
0.0637982
0.1095
0.0843314
-0.0553944
-0.186228
-0.273211
-0.282803
-0.285674
-0.286758
-0.28676
-0.286664
-0.723455
-0.686498
-0.619657
-0.534832
-0.442111
-0.346358
-0.250033
-0.155952
-0.0680084
0.00662687
0.0417601
0.00944101
-0.125166
-0.230988
-0.277694
-0.289302
-0.285426
-0.283804
-0.283281
-0.283209
-0.755152
-0.718994
-0.653145
-0.569612
-0.478816
-0.385645
-0.292656
-0.202898
-0.120558
-0.0519428
-0.0211052
-0.0690422
-0.18493
-0.273774
-0.2937
-0.292236
-0.286171
-0.280995
-0.279486
-0.279073
-0.783606
-0.748515
-0.684343
-0.602753
-0.514492
-0.42449
-0.335344
-0.250216
-0.173518
-0.11139
-0.0825921
-0.137024
-0.233445
-0.306194
-0.326269
-0.309359
-0.292799
-0.284428
-0.281639
-0.280428
-0.806037
-0.772913
-0.711457
-0.6327
-0.547795
-0.461676
-0.376988
-0.29682
-0.225691
-0.169591
-0.144157
-0.188743
-0.266188
-0.320576
-0.320953
-0.321191
-0.320165
-0.315312
-0.310347
-0.307804
-0.820298
-0.789988
-0.732359
-0.657656
-0.577165
-0.495778
-0.416256
-0.341439
-0.276053
-0.223599
-0.200446
-0.22872
-0.279479
-0.323673
-0.318684
-0.331734
-0.342254
-0.339838
-0.335625
-0.334638
-0.82364
-0.797287
-0.74488
-0.675718
-0.600922
-0.525326
-0.451632
-0.382692
-0.323111
-0.273266
-0.245536
-0.263635
-0.270137
-0.311615
-0.310339
-0.311406
-0.313634
-0.315839
-0.317687
-0.318589
-0.813758
-0.792298
-0.746855
-0.685086
-0.617509
-0.548972
-0.481688
-0.419161
-0.364779
-0.320817
-0.27464
-0.292293
-0.253374
-0.238646
-0.265189
-0.287058
-0.301387
-0.310376
-0.314398
-0.315098
-0.787923
-0.772134
-0.736272
-0.684483
-0.625852
-0.565577
-0.505643
-0.449254
-0.400239
-0.364196
-0.31355
-0.314088
-0.266804
-0.215129
-0.271145
-0.315627
-0.339873
-0.351505
-0.355785
-0.357321
-0.749588
-0.739499
-0.714156
-0.674069
-0.625944
-0.57471
-0.52299
-0.472369
-0.429419
-0.398555
-0.373989
-0.37619
-0.397838
-0.364138
-0.388608
-0.422957
-0.436352
-0.439072
-0.440726
-0.441934
-0.705902
-0.700199
-0.685527
-0.656914
-0.61969
-0.577441
-0.533067
-0.489055
-0.449456
-0.423543
-0.408818
-0.463019
-0.612684
-0.79516
-0.737396
-0.611861
-0.559504
-0.535286
-0.523324
-0.519283
-0.667146
-0.663748
-0.656828
-0.638481
-0.610135
-0.575341
-0.537145
-0.497835
-0.460208
-0.433397
-0.414714
-0.480795
-0.532549
-0.599235
-0.625365
-0.627777
-0.601485
-0.525459
-0.476279
-0.473547
-0.639437
-0.637495
-0.633971
-0.622893
-0.601089
-0.571297
-0.537068
-0.498957
-0.461825
-0.425859
-0.410103
-0.384536
-0.348811
-0.349684
-0.372295
-0.422052
-0.461439
-0.442029
-0.389718
-0.36533
-0.618798
-0.618108
-0.616925
-0.61137
-0.595046
-0.568544
-0.534575
-0.497017
-0.453757
-0.413242
-0.396036
-0.351926
-0.231938
-0.112993
-0.0291228
0.00605204
0.0160677
-0.00246301
0.000271245
0.00449786
-0.606615
-0.606369
-0.60573
-0.603033
-0.591641
-0.566919
-0.532026
-0.490248
-0.442254
-0.393221
-0.342839
-0.292409
-0.102405
0.0712168
0.262071
0.361096
0.334707
0.29722
0.270786
0.260917
-0.598378
-0.598191
-0.597691
-0.596877
-0.590014
-0.567272
-0.53004
-0.482038
-0.428931
-0.35767
-0.288651
-0.181653
-0.0353427
0.120533
0.198533
0.205347
0.22055
0.288426
0.366106
0.402618
-0.593945
-0.593755
-0.593321
-0.593188
-0.58982
-0.570219
-0.52914
-0.47556
-0.409253
-0.328504
-0.23567
-0.100749
0.102962
0.262338
0.409597
0.526521
0.630263
0.792266
0.918693
0.970249
-0.590959
-0.591629
-0.593284
-0.595241
-0.59449
-0.575113
-0.529165
-0.470285
-0.39752
-0.306993
-0.195947
-0.0778473
0.146248
0.414636
0.727123
1.02559
1.27373
1.46073
1.55869
1.58905
-0.584065
-0.585689
-0.589291
-0.594556
-0.595657
-0.573832
-0.52872
-0.473865
-0.398811
-0.292866
-0.178798
-0.0637523
0.146556
0.430594
0.791639
1.1239
1.38916
1.56245
1.63612
1.65471
-0.590256
-0.590801
-0.585787
-0.570774
-0.557528
-0.549752
-0.531362
-0.489452
-0.406098
-0.293165
-0.17843
-0.0679242
0.0838866
0.357475
0.677642
0.95902
1.17787
1.304
1.35422
1.36545
-0.629049
-0.626493
-0.61029
-0.571231
-0.536363
-0.544784
-0.560321
-0.515562
-0.41844
-0.302469
-0.191382
-0.0857728
0.021105
0.224358
0.487368
0.706401
0.874199
0.961899
0.995314
0.999918
-0.700645
-0.698884
-0.703379
-0.708802
-0.703355
-0.692327
-0.662501
-0.561238
-0.432864
-0.316639
-0.204953
-0.117005
-0.0339389
0.113689
0.30769
0.466486
0.581952
0.638231
0.659283
0.661436
-0.833361
-0.848885
-0.892946
-0.937246
-0.944532
-0.905105
-0.796433
-0.616377
-0.453831
-0.326972
-0.221849
-0.147821
-0.0911699
0.0233387
0.153138
0.257072
0.330166
0.366412
0.379741
0.38088
-0.934836
-0.956838
-0.998533
-1.03226
-1.03674
-0.993446
-0.846088
-0.627375
-0.459714
-0.329127
-0.228552
-0.168463
-0.128697
-0.0552672
0.0327558
0.0961331
0.132273
0.148654
0.154595
0.154542
-0.884093
-0.903127
-0.93555
-0.964697
-0.970516
-0.91997
-0.753475
-0.56766
-0.425182
-0.303422
-0.22764
-0.178758
-0.145141
-0.0983469
-0.0570057
-0.0361272
-0.0231765
-0.0214063
-0.0198565
-0.0196106
-0.645974
-0.666
-0.701469
-0.739179
-0.753206
-0.70068
-0.575961
-0.45278
-0.337845
-0.257139
-0.211451
-0.171114
-0.155209
-0.120972
-0.105906
-0.10907
-0.119894
-0.128056
-0.127576
-0.126304
-0.291976
-0.306423
-0.334998
-0.370967
-0.393518
-0.3835
-0.343732
-0.29063
-0.23435
-0.201468
-0.173329
-0.162533
-0.151654
-0.126436
-0.123403
-0.13084
-0.151387
-0.153769
-0.149094
-0.146962
0.0187385
0.0111865
-0.00738674
-0.0388034
-0.076897
-0.106249
-0.128161
-0.139429
-0.142714
-0.13146
-0.133059
-0.144814
-0.15105
-0.116879
-0.0955273
-0.0916314
-0.0914709
-0.0898525
-0.0882584
-0.0878738
0.191272
0.187386
0.174567
0.147239
0.103851
0.0498363
0.00176607
-0.0355379
-0.0580517
-0.0708481
-0.0839118
-0.101451
-0.112571
-0.0770463
-0.0492424
-0.0342608
-0.0211358
-0.0134531
-0.0123675
-0.0136044
0.245872
0.243533
0.234451
0.212729
0.175893
0.128723
0.0787296
0.0348825
0.00265476
-0.0150791
-0.0262958
-0.031008
-0.0261145
-0.00819815
0.00816671
0.018555
0.0293375
0.0349063
0.0352603
0.03444
0.240457
0.239008
0.232929
0.217823
0.191155
0.155274
0.115275
0.0776625
0.0483444
0.0335229
0.0315729
0.0449897
0.0602166
0.0630074
0.0638481
0.0640296
0.0673068
0.0691676
0.0692326
0.0680181
0.213226
0.212436
0.208667
0.198958
0.181283
0.156383
0.127171
0.0990846
0.077017
0.0684006
0.0771252
0.102546
0.124343
0.114511
0.101999
0.0946048
0.0916884
0.0906287
0.0895886
0.0886452
0.180349
0.180021
0.17788
0.172024
0.160951
0.144842
0.125212
0.105922
0.0914744
0.0904467
0.106732
0.136636
0.156573
0.144402
0.126472
0.115259
0.10895
0.104508
0.102088
0.101224
0.147445
0.147355
0.146271
0.14293
0.136338
0.126434
0.114129
0.10246
0.0949602
0.098959
0.119857
0.150387
0.16689
0.152678
0.136241
0.124676
0.117335
0.112139
0.109524
0.108946
0.116143
0.11618
0.115684
0.113928
0.110214
0.104458
0.0972313
0.0906031
0.0877523
0.0948845
0.116618
0.145347
0.158144
0.142347
0.128571
0.122154
0.119234
0.116417
0.11464
0.113952
0.0862935
0.0864159
0.086288
0.085523
0.0836657
0.0805997
0.0767447
0.0734553
0.0729478
0.0797994
0.09701
0.118385
0.126436
0.117178
0.109031
0.108982
0.110169
0.110397
0.10915
0.108297
0.0579472
0.058071
0.058111
0.0579624
0.0572174
0.0558266
0.0539616
0.0524166
0.052713
0.0569369
0.0640325
0.0685588
0.0677119
0.0644371
0.06955
0.0798019
0.0860977
0.0880256
0.0873968
0.0863888
0.0311373
0.0312425
0.0313445
0.031411
0.0312757
0.0308281
0.0301455
0.0297198
0.0295014
0.0306493
0.0275497
0.00657152
-0.00795243
0.00294739
0.0226608
0.039988
0.0469223
0.048439
0.048138
0.0475659
0.00580204
0.00584787
0.00582046
0.00593662
0.0062384
0.00641074
0.00641938
0.00627563
0.00639487
0.00577038
0.00464242
-0.00234403
-0.0171879
-0.00737206
-0.00156177
0.00356435
0.0015901
0.00228599
0.00505854
0.00632701
0.0750364
0.264495
0.438717
0.586431
0.705183
0.79937
0.877963
0.941843
0.958208
0.954546
0.366782
0.488767
0.60318
0.702659
0.786531
0.855875
0.910552
0.947535
0.967318
0.983892
0.564932
0.646351
0.726931
0.797663
0.858007
0.908077
0.947486
0.977493
1.00005
1.01929
0.711578
0.769223
0.827417
0.879652
0.92471
0.963048
0.995207
1.02217
1.04248
1.06137
0.828986
0.872295
0.915298
0.955647
0.991686
1.02352
1.05136
1.07494
1.0929
1.11094
0.926142
0.96195
0.997234
1.03101
1.06217
1.09036
1.11524
1.13611
1.1519
1.16937
1.01461
1.04663
1.07896
1.11019
1.13922
1.1656
1.18873
1.20767
1.22159
1.23861
1.10164
1.13424
1.16668
1.19791
1.22669
1.25248
1.27462
1.29216
1.30455
1.32107
1.19609
1.23251
1.26727
1.29973
1.32891
1.35427
1.3754
1.3917
1.40332
1.41947
1.30915
1.34972
1.38676
1.41973
1.44823
1.47223
1.49187
1.50714
1.51905
1.53513
1.4505
1.49159
1.52686
1.55648
1.58168
1.6033
1.62181
1.6373
1.65042
1.66637
1.62208
1.65451
1.68138
1.7037
1.72379
1.74251
1.76025
1.77702
1.79194
1.80766
1.80843
1.8257
1.84282
1.8595
1.8756
1.89033
1.90424
1.91872
1.93396
1.95126
1.99181
2.00179
2.01499
2.02597
2.03538
2.04504
2.05565
2.06583
2.07512
2.10078
2.20972
2.20402
2.19107
2.17681
2.17051
2.17623
2.19437
2.22289
2.25665
2.29298
2.51253
2.37657
2.29707
2.25456
2.23723
2.24121
2.26864
2.32651
2.43417
2.61258
0.830735
0.824431
0.816701
0.805585
0.792011
0.77936
0.768959
0.760942
0.755218
0.751881
0.751526
0.754358
0.759591
0.766949
0.776499
0.788329
0.801892
0.814821
0.823811
0.831352
0.739805
0.745724
0.753795
0.759926
0.762993
0.762478
0.759388
0.755388
0.751793
0.749503
0.749367
0.75162
0.755375
0.759823
0.763926
0.766172
0.7651
0.760464
0.75341
0.745577
0.733058
0.73543
0.738696
0.741468
0.743916
0.746102
0.747277
0.747125
0.746182
0.745371
0.745585
0.747001
0.748785
0.750016
0.749943
0.748478
0.746321
0.74396
0.740979
0.737961
0.728273
0.729361
0.731277
0.733613
0.735482
0.736878
0.738092
0.739079
0.739673
0.740048
0.740602
0.741349
0.741819
0.741705
0.741079
0.740159
0.73883
0.736861
0.734755
0.733278
0.723255
0.723889
0.725017
0.726773
0.728613
0.730203
0.73145
0.732508
0.733483
0.734378
0.735166
0.735692
0.735835
0.735633
0.7351
0.734129
0.732704
0.731096
0.729759
0.728957
0.718338
0.718777
0.719564
0.720866
0.722385
0.723945
0.725418
0.726707
0.727855
0.728938
0.729894
0.730504
0.73069
0.730461
0.729801
0.728806
0.727655
0.726513
0.725611
0.725077
0.713512
0.713839
0.714451
0.715518
0.716811
0.718206
0.719679
0.721146
0.72253
0.723827
0.724978
0.725733
0.725969
0.725732
0.725141
0.724362
0.72352
0.722668
0.722008
0.721616
0.708752
0.709006
0.709499
0.710408
0.711578
0.712881
0.714297
0.715817
0.717387
0.718943
0.720344
0.721274
0.721627
0.721539
0.721164
0.720624
0.719996
0.719371
0.718891
0.718592
0.703987
0.704189
0.704599
0.705399
0.70649
0.707747
0.709149
0.710712
0.712424
0.714227
0.715924
0.717119
0.717711
0.71787
0.717738
0.717425
0.717005
0.716573
0.716233
0.715998
0.699132
0.699295
0.699647
0.700374
0.701419
0.702658
0.70409
0.705738
0.707609
0.709671
0.711718
0.71328
0.714204
0.714658
0.714784
0.714704
0.714499
0.714242
0.714018
0.71383
0.6941
0.694233
0.694543
0.695225
0.696255
0.697519
0.699021
0.700799
0.702883
0.705264
0.70774
0.709755
0.711076
0.711872
0.712291
0.712462
0.712469
0.712383
0.712257
0.712105
0.688802
0.688909
0.689192
0.689855
0.690904
0.692237
0.693853
0.695815
0.69818
0.700967
0.70397
0.706529
0.708319
0.70951
0.710262
0.710706
0.710937
0.711021
0.710982
0.710857
0.683139
0.683224
0.683492
0.684161
0.685265
0.68671
0.688494
0.690709
0.693438
0.696735
0.700385
0.703599
0.705943
0.707592
0.708719
0.709481
0.709961
0.710207
0.710244
0.710141
0.677004
0.67707
0.677331
0.678029
0.679224
0.680827
0.682845
0.685392
0.688587
0.692516
0.696957
0.700959
0.703962
0.706149
0.707708
0.708827
0.709582
0.710002
0.710113
0.710026
0.670263
0.670311
0.670575
0.671325
0.67265
0.674468
0.676795
0.67977
0.68355
0.688261
0.693663
0.698612
0.702399
0.705221
0.707287
0.708807
0.709878
0.710488
0.710671
0.710598
0.662764
0.662793
0.663064
0.663888
0.665388
0.667487
0.670209
0.673725
0.678234
0.683908
0.690477
0.696563
0.701279
0.704851
0.707517
0.709518
0.710947
0.711759
0.712014
0.711951
0.654295
0.654312
0.65459
0.655515
0.657247
0.659704
0.662927
0.667123
0.672538
0.679391
0.687373
0.694823
0.700644
0.705097
0.708475
0.711048
0.712882
0.713919
0.714247
0.71419
0.64456
0.644554
0.644882
0.645952
0.64798
0.650894
0.654753
0.659806
0.666353
0.67466
0.684351
0.693419
0.700543
0.706034
0.710246
0.713485
0.715791
0.717075
0.717475
0.717421
0.63326
0.633231
0.63361
0.634871
0.637273
0.640776
0.645449
0.651588
0.659554
0.669652
0.681406
0.692387
0.701032
0.707738
0.712924
0.716933
0.719779
0.721325
0.721795
0.721738
0.619905
0.619854
0.620311
0.621823
0.62471
0.628982
0.63471
0.642246
0.652005
0.664316
0.67855
0.691775
0.702175
0.710275
0.716599
0.721489
0.724932
0.726751
0.727282
0.727218
0.60384
0.603766
0.604348
0.606211
0.609748
0.615043
0.622168
0.631521
0.643559
0.658601
0.6758
0.691635
0.704038
0.713721
0.72133
0.727216
0.731311
0.733395
0.733971
0.733893
0.584114
0.584024
0.584806
0.587181
0.591631
0.598348
0.607379
0.619154
0.63413
0.652543
0.673243
0.692054
0.706701
0.718147
0.727159
0.734155
0.738919
0.741239
0.741833
0.741732
0.559295
0.559203
0.560322
0.563487
0.569315
0.578109
0.589843
0.604921
0.623704
0.646253
0.671021
0.693146
0.710238
0.723593
0.734135
0.742283
0.747687
0.750171
0.750746
0.750615
0.527046
0.527
0.528725
0.533254
0.541381
0.553414
0.569129
0.588758
0.612427
0.639946
0.669326
0.695049
0.71473
0.730085
0.742209
0.751518
0.757437
0.759968
0.760474
0.760309
0.483195
0.48335
0.486388
0.493747
0.506176
0.523529
0.545145
0.570913
0.60065
0.633942
0.6684
0.69792
0.720255
0.737622
0.751312
0.761669
0.767869
0.770271
0.770656
0.770457
0.419962
0.421287
0.428657
0.442524
0.46282
0.488625
0.518557
0.552124
0.589009
0.628717
0.668552
0.701928
0.726872
0.746157
0.761214
0.772338
0.7785
0.780548
0.780771
0.780559
0.344477
0.347083
0.361391
0.385254
0.416304
0.452142
0.491101
0.532931
0.577444
0.624207
0.670234
0.708322
0.736593
0.758322
0.775001
0.786688
0.792631
0.794429
0.79461
0.794496
0.267223
0.274139
0.295614
0.329489
0.371003
0.416636
0.464628
0.514794
0.567008
0.620889
0.673216
0.716115
0.747745
0.771918
0.790249
0.802246
0.807575
0.808889
0.809004
0.808961
0.204239
0.213012
0.239112
0.280079
0.329844
0.3838
0.439938
0.497925
0.55752
0.618264
0.676595
0.723979
0.758698
0.784998
0.804449
0.816571
0.82161
0.82282
0.822964
0.822976
0.15266
0.162147
0.191769
0.238017
0.293993
0.354617
0.417643
0.48255
0.548895
0.616043
0.68006
0.731731
0.769347
0.79767
0.818342
0.830877
0.835801
0.836979
0.837197
0.837247
0.109495
0.11929
0.151316
0.201695
0.262771
0.328946
0.397797
0.468709
0.541093
0.614162
0.683583
0.739396
0.77984
0.810145
0.832061
0.845114
0.85024
0.851617
0.85186
0.851935
0.0722736
0.0822039
0.116035
0.169723
0.235065
0.306001
0.379936
0.456186
0.534082
0.612662
0.68717
0.746947
0.790172
0.822426
0.845678
0.859449
0.864969
0.866436
0.86668
0.866756
0.0393212
0.0493023
0.084554
0.140985
0.20996
0.285036
0.363497
0.444587
0.527535
0.611257
0.690613
0.754218
0.800114
0.834286
0.85879
0.873372
0.87931
0.880906
0.881158
0.881219
0.00938295
0.0194033
0.0558138
0.114607
0.186736
0.265448
0.347941
0.433429
0.521075
0.609693
0.69375
0.76103
0.809504
0.84549
0.871233
0.886514
0.89289
0.894618
0.89486
0.894901
-0.0184841
-0.00840592
0.0290333
0.0899242
0.164838
0.246758
0.332868
0.422395
0.514451
0.607736
0.696339
0.767225
0.818187
0.855887
0.882742
0.89869
0.905458
0.907284
0.907505
0.907517
-0.0448408
-0.0346967
0.00370089
0.0664781
0.143852
0.228637
0.318019
0.411247
0.507406
0.605159
0.698223
0.772717
0.826112
0.865452
0.893325
0.909752
0.916766
0.918676
0.918884
0.918865
-0.0701492
-0.0598672
-0.0205713
0.0439193
0.123489
0.210843
0.303182
0.399792
0.499792
0.601836
0.699325
0.777441
0.833289
0.874188
0.902926
0.919731
0.926851
0.92877
0.928963
0.928913
-0.094698
-0.0842028
-0.0440492
0.0220167
0.103556
0.193205
0.288222
0.387938
0.491517
0.59767
0.699549
0.781379
0.839751
0.88219
0.911667
0.928685
0.935776
0.937651
0.937819
0.93775
-0.118591
-0.107856
-0.0668767
0.000628872
0.0839371
0.175649
0.27308
0.375628
0.482518
0.592578
0.698826
0.784515
0.845562
0.889579
0.919688
0.936739
0.943711
0.945497
0.945617
0.945522
-0.141951
-0.130947
-0.0891692
-0.0203052
0.0645835
0.158134
0.257731
0.362841
0.472777
0.586531
0.697092
0.786817
0.850787
0.896505
0.927182
0.944101
0.950798
0.952425
0.952489
0.952372
-0.164775
-0.153521
-0.110943
-0.0408132
0.045485
0.140666
0.242194
0.349603
0.462312
0.579509
0.694287
0.788232
0.855468
0.903137
0.934354
0.950916
0.957153
0.958538
0.958519
0.958379
-0.187141
-0.175568
-0.132177
-0.0608874
0.0266575
0.123275
0.226509
0.335966
0.451163
0.571521
0.690367
0.788684
0.859585
0.909617
0.941474
0.957436
0.962898
0.963886
0.963772
0.963626
-0.208838
-0.197047
-0.152856
-0.0805157
0.00814414
0.106028
0.21074
0.321995
0.439396
0.562613
0.685297
0.788083
0.863061
0.916029
0.948882
0.964103
0.968359
0.968631
0.968345
0.968214
-0.230021
-0.217909
-0.172953
-0.0996734
-0.0100297
0.0889608
0.194973
0.307767
0.427092
0.552856
0.679064
0.786322
0.865756
0.922312
0.956856
0.971595
0.97422
0.973113
0.972345
0.972278
-0.250506
-0.238113
-0.192451
-0.118312
-0.0277854
0.072158
0.179293
0.293401
0.414354
0.542312
0.671689
0.783291
0.867483
0.928226
0.965405
0.980643
0.981866
0.97856
0.976288
0.975957
-0.270396
-0.257686
-0.211292
-0.136375
-0.0450862
0.0556872
0.163784
0.278976
0.401288
0.531111
0.663226
0.778867
0.868029
0.933376
0.974018
0.991364
0.992896
0.987865
0.981823
0.973171
-0.289574
-0.27662
-0.229568
-0.154028
-0.062155
0.0392679
0.148113
0.264092
0.387449
0.518759
0.653174
0.772495
0.867017
0.937524
0.982091
1.00314
1.00755
1.00203
0.991037
0.989759
-0.308
-0.294991
-0.247271
-0.171213
-0.0789756
0.0229362
0.13231
0.248728
0.372803
0.505128
0.641347
0.76367
0.863684
0.939882
0.987696
1.01183
1.01855
1.0156
0.98161
0.943076
-0.325441
-0.312661
-0.264332
-0.187814
-0.0955388
0.00668588
0.116375
0.233017
0.357417
0.490252
0.627661
0.752026
0.856867
0.939563
0.988871
1.00877
1.01531
0.995121
0.94276
0.887846
-0.344602
-0.328421
-0.280423
-0.203351
-0.111568
-0.00924183
0.09996
0.217004
0.341381
0.474237