/*--------------------------------*- C++ -*----------------------------------*\
  =========                 |
  \\      /  F ield         | OpenFOAM: The Open Source CFD Toolbox
   \\    /   O peration     | Website:  https://openfoam.org
    \\  /    A nd           | Version:  6
     \\/     M anipulation  |
\*---------------------------------------------------------------------------*/
FoamFile
{
    version     2.0;
    format      ascii;
    class       surfaceScalarField;
    location    "64.6";
    object      phi;
}
// * * * * * * * * * * * * * * * * * * * * * * * * * * * * * * * * * * * * * //

dimensions      [0 3 -1 0 0 0 0];

internalField   nonuniform List<scalar> 
17370
(
-0.0900009
0.0898504
0.289161
-0.0714645
0.053755
0.364485
-0.0381223
0.0276935
0.426597
-0.0196422
0.0146098
0.504284
-0.0107689
0.00827988
0.601891
-0.00628185
0.0049067
0.720433
-0.00374376
0.00290354
0.863747
-0.00216189
0.00160231
1.03601
-0.00108501
0.000671764
1.24292
-0.000262773
-0.000130076
1.49158
0.000509857
-0.000919616
1.4916
0.00131732
-0.0018078
1.24318
0.00233822
-0.00304713
1.03635
0.00386175
-0.00500482
0.86405
0.00636946
-0.00836112
0.721049
0.0108456
-0.0146811
0.60305
0.0197081
-0.027753
0.507484
0.0381755
-0.0538002
0.431793
0.0715016
-0.0898752
0.365149
0.0900157
0.198995
-0.128134
0.0882227
0.0399117
-0.364597
0.353374
-0.0746775
0.0859
-0.446475
0.454318
-0.0843991
0.0765566
-0.521189
0.529899
-0.0684608
0.0597513
-0.612788
0.621565
-0.0515642
0.042787
-0.726893
0.73416
-0.0353286
0.0280619
-0.867473
0.872587
-0.0224633
0.0173495
-1.03847
1.04192
-0.0135407
0.0100916
-1.2446
1.24703
-0.00748116
0.00504866
-1.49262
1.4946
-0.00310172
0.00112467
-1.4925
1.49423
0.000555012
-0.00228063
-1.24398
1.24586
0.00418404
-0.00606863
-1.03751
1.04004
0.00842683
-0.0109597
-0.866102
0.869831
0.0143177
-0.0180472
-0.724393
0.729936
0.0230861
-0.0286289
-0.608699
0.616114
0.0358441
-0.0432589
-0.514898
0.523043
0.0519894
-0.0601343
-0.439857
0.447917
0.0687987
-0.0768584
-0.375297
0.376742
0.0846588
-0.0861039
-0.257332
0.222482
0.0748162
-0.0399656
-0.0685141
0.0586866
0.00982756
-0.0518217
0.0584081
-0.374122
0.367536
-0.0574949
0.0537447
-0.453591
0.457341
-0.0486568
0.0447067
-0.527943
0.531893
-0.0408699
0.037234
-0.62156
0.625196
-0.0331355
0.0290622
-0.735344
0.739417
-0.0244938
0.0203357
-0.874335
0.878493
-0.0159909
0.0122978
-1.04348
1.04718
-0.00856094
0.00538817
-1.24856
1.25173
-0.0020594
-0.00101435
-1.49666
1.49973
0.00406293
-0.00732953
-1.49721
1.50047
0.0104108
-0.0140199
-1.25007
1.25368
0.0175823
-0.0217767
-1.04593
1.05012
0.0258029
-0.030241
-0.877768
0.882206
0.0342111
-0.0382097
-0.739905
0.743904
0.0417616
-0.045511
-0.626779
0.630528
0.0493857
-0.0544015
-0.534814
0.53983
0.0580735
-0.0588878
-0.457478
0.458292
0.0521858
-0.0319866
-0.335757
0.315558
0.00988701
-0.0683501
0.0584631
-0.0529344
0.0489374
0.00399692
-0.0331714
0.0437207
-0.358099
0.34755
-0.0474224
0.0467974
-0.459278
0.459903
-0.043744
0.0403936
-0.535795
0.539145
-0.0366243
0.0333236
-0.62852
0.631821
-0.0298895
0.0268609
-0.742639
0.745667
-0.0236053
0.0205009
-0.882008
0.885113
-0.0169726
0.0135946
-1.05076
1.05414
-0.00980241
0.00626416
-1.25516
1.2587
-0.00229505
-0.0015023
-1.50324
1.50704
0.00526778
-0.00914202
-1.50414
1.50801
0.0125522
-0.0161694
-1.25743
1.26104
0.0193669
-0.0226854
-1.05393
1.05725
0.0256028
-0.0286703
-0.885702
0.88877
0.0315471
-0.0348332
-0.747168
0.750454
0.0380104
-0.0416532
-0.634316
0.637959
0.0448947
-0.0478238
-0.544142
0.547071
0.0483181
-0.0444324
-0.456581
0.452696
0.0336638
-0.0162174
-0.296197
0.27875
0.00407059
-0.0526447
0.0485741
-0.0458584
0.0433615
0.00249688
-0.0228167
0.0332004
-0.336856
0.326472
-0.0390265
0.0400465
-0.459585
0.458565
-0.0388596
0.0365757
-0.541863
0.544147
-0.0339121
0.0313198
-0.634869
0.637461
-0.0282608
0.025365
-0.748709
0.751605
-0.0221039
0.0191135
-0.888062
0.891053
-0.0158121
0.012716
-1.05727
1.06036
-0.00919306
0.00578611
-1.26215
1.26556
-0.00182402
-0.00205969
-1.51092
1.5148
0.00590108
-0.00973731
-1.51191
1.51574
0.0129751
-0.0162679
-1.26448
1.26777
0.0191268
-0.0221522
-1.06035
1.06337
0.0248952
-0.0279055
-0.89183
0.89484
0.0305964
-0.0334536
-0.753665
0.756522
0.035877
-0.0383697
-0.641028
0.643521
0.040506
-0.0414992
-0.548878
0.549871
0.0402767
-0.0341553
-0.447418
0.441297
0.0234491
-0.0102333
-0.263534
0.250319
0.00258785
-0.0454125
0.0428246
-0.0412851
0.0395166
0.00176849
-0.0167571
0.0260138
-0.316614
0.307358
-0.0326252
0.0347692
-0.456962
0.454818
-0.0343519
0.0326847
-0.546122
0.547789
-0.0305079
0.0284168
-0.639763
0.641855
-0.0259903
0.0235977
-0.754245
0.756638
-0.0207449
0.0179605
-0.893942
0.896727
-0.0147286
0.0116624
-1.0634
1.06647
-0.00817473
0.00485085
-1.26888
1.2722
-0.00101918
-0.00271362
-1.51859
1.52232
0.00639256
-0.0100642
-1.51948
1.52315
0.013173
-0.016368
-1.27102
1.27421
0.0191315
-0.0220098
-1.0664
1.06928
0.0244751
-0.0270032
-0.897663
0.900191
0.0291298
-0.031295
-0.758975
0.761141
0.0331704
-0.0351276
-0.645677
0.647635
0.0365808
-0.036735
-0.550391
0.550546
0.0342805
-0.027237
-0.434634
0.427591
0.0175461
-0.007404
-0.23879
0.228648
0.00187957
-0.0406473
0.0387677
-0.0379931
0.0366625
0.00133061
-0.0127962
0.0207468
-0.29876
0.290809
-0.0275026
0.0304295
-0.452254
0.449327
-0.0306376
0.0295215
-0.549216
0.550332
-0.0275316
0.0256187
-0.643886
0.645799
-0.0234232
0.0212901
-0.758871
0.761004
-0.0187795
0.0162999
-0.899294
0.901774
-0.0133615
0.0104855
-1.0694
1.07228
-0.00712642
0.00388657
-1.27545
1.27869
-0.000138864
-0.00349166
-1.52597
1.5296
0.00705517
-0.0106024
-1.52675
1.5303
0.0135729
-0.0165663
-1.27734
1.28033
0.0190647
-0.0215609
-1.07201
1.07451
0.0236405
-0.0257424
-0.902489
0.904591
0.027539
-0.029402
-0.763128
0.764991
0.0310415
-0.032765
-0.649456
0.651179
0.0335683
-0.0329921
-0.55034
0.549764
0.0296216
-0.0222748
-0.42034
0.412994
0.0137668
-0.0057393
-0.219665
0.211638
0.00146561
-0.0371212
0.0356556
-0.0355002
0.0344745
0.00102565
-0.00999893
0.0167178
-0.283501
0.276782
-0.0232055
0.0265826
-0.446156
0.442779
-0.0273673
0.0266697
-0.551233
0.551931
-0.0249132
0.0231311
-0.64769
0.649472
-0.0210639
0.0190508
-0.763071
0.765084
-0.0166834
0.0143598
-0.904105
0.906429
-0.011624
0.00894041
-1.07498
1.07767
-0.00578285
0.00269751
-1.28181
1.2849
0.000913287
-0.00442585
-1.53315
1.53667
0.00785529
-0.0112175
-1.53374
1.53711
0.0139694
-0.0166747
-1.28319
1.2859
0.0188912
-0.0210793
-1.07689
1.07908
0.022908
-0.0247708
-0.906581
0.908443
0.0263684
-0.0280242
-0.766744
0.768399
0.0294682
-0.0308572
-0.652758
0.654147
0.0311669
-0.0298595
-0.548837
0.547529
0.0258716
-0.0186066
-0.405663
0.398398
0.0111879
-0.00463596
-0.204418
0.197866
0.00118981
-0.0343439
0.0331541
-0.0335742
0.0327752
0.000799005
-0.00792473
0.0135699
-0.27063
0.264985
-0.0195708
0.0231436
-0.439296
0.435723
-0.0244049
0.0239553
-0.55254
0.55299
-0.022466
0.020794
-0.651249
0.652921
-0.018822
0.0168946
-0.767046
0.768973
-0.0146186
0.0123817
-0.908641
0.910877
-0.00974886
0.00717645
-1.08022
1.08279
-0.0041624
0.00122199
-1.28786
1.2908
0.0022171
-0.00555704
-1.54006
1.5434
0.00879499
-0.0119296
-1.54034
1.54347
0.0144637
-0.0169292
-1.28848
1.29095
0.0189344
-0.0208986
-1.08121
1.08318
0.0225266
-0.0241792
-0.910222
0.911874
0.0255929
-0.0270555
-0.769951
0.771413
0.0283039
-0.0293154
-0.65533
0.656342
0.0292513
-0.0272772
-0.545892
0.543918
0.022889
-0.0158917
-0.391263
0.384265
0.00937765
-0.00387255
-0.191888
0.186383
0.000998539
-0.0320722
0.0310737
-0.032074
0.0314508
0.000623158
-0.00632354
0.0110519
-0.259827
0.255099
-0.0164611
0.0200325
-0.432153
0.428581
-0.0216155
0.0213912
-0.553365
0.55359
-0.0201335
0.0185182
-0.654611
0.656226
-0.0166001
0.0147205
-0.770865
0.772744
-0.0125029
0.0103257
-0.913007
0.915184
-0.00776403
0.00526433
-1.08525
1.08775
-0.0023431
-0.000489708
-1.29363
1.29646
0.00377366
-0.00693176
-1.54662
1.54978
0.0099654
-0.0128778
-1.54647
1.54939
0.015215
-0.017467
-1.29331
1.29557
0.0192749
-0.0210209
-1.08511
1.08685
0.0224552
-0.0239123
-0.913452
0.914909
0.0251641
-0.0264573
-0.772782
0.774075
0.0275658
-0.0281622
-0.657139
0.657735
0.0277281
-0.0251938
-0.541679
0.539144
0.020561
-0.0138958
-0.377445
0.37078
0.00809582
-0.00333902
-0.18129
0.176534
0.000865429
-0.0301521
0.0292867
-0.0309077
0.0304271
0.000480643
-0.0050343
0.00897225
-0.250794
0.246856
-0.0137465
0.0171694
-0.425095
0.421672
-0.0189363
0.0189035
-0.553765
0.553798
-0.0178391
0.0162592
-0.65789
0.65947
-0.0143638
0.0125007
-0.774598
0.776461
-0.0103037
0.0081514
-0.917258
0.91941
-0.00562619
0.00317098
-1.09014
1.0926
-0.000315412
-0.00243595
-1.29919
1.30194
0.00559961
-0.00861109
-1.55282
1.55583
0.0114718
-0.0141857
-1.55217
1.55489
0.0163376
-0.0183843
-1.29772
1.29977
0.0200022
-0.0215364
-1.08859
1.09012
0.0227839
-0.024056
-0.916295
0.917567
0.0251569
-0.0262896
-0.775278
0.776411
0.0271974
-0.0274252
-0.658141
0.658369
0.0265912
-0.023579
-0.536388
0.533376
0.0187973
-0.0124546
-0.364295
0.357952
0.00719794
-0.00297203
-0.172075
0.167849
0.000775462
-0.0284758
0.0277004
-0.0300148
0.0296547
0.000360057
-0.00395396
0.00719761
-0.243291
0.240047
-0.0113254
0.0144898
-0.418397
0.415233
-0.016314
0.0164372
-0.553805
0.553682
-0.0154526
0.0139467
-0.661082
0.662588
-0.0120451
0.0101624
-0.778309
0.780192
-0.00794351
0.00577977
-0.921467
0.92363
-0.00325722
0.000820565
-1.09495
1.09738
0.0019958
-0.00469157
-1.30459
1.30729
0.00776595
-0.010659
-1.55874
1.56163
0.0133688
-0.0158956
-1.55748
1.56001
0.0178611
-0.0196948
-1.30171
1.30355
0.0211159
-0.022437
-1.09166
1.09298
0.0235039
-0.0246028
-0.918776
0.919875
0.0255614
-0.0265279
-0.777446
0.778413
0.0271835
-0.0271225
-0.658469
0.658408
0.0258485
-0.0224163
-0.530166
0.526734
0.0175318
-0.0114565
-0.351769
0.345694
0.00659345
-0.00273151
-0.163834
0.159972
0.000718508
-0.0269629
0.0262444
-0.029356
0.0291035
0.000252432
-0.00300687
0.00562409
-0.237141
0.234524
-0.00910685
0.0119309
-0.412263
0.409439
-0.0136988
0.0139017
-0.553582
0.553379
-0.0129576
0.0114893
-0.664155
0.665623
-0.00955634
0.00762686
-0.782065
0.783995
-0.00535587
0.00315015
-0.925698
0.927904
-0.000590268
-0.00186813
-1.09972
1.10218
0.00468735
-0.00735766
-1.3099
1.31257
0.010364
-0.0131493
-1.56442
1.56721
0.0157142
-0.0180634
-1.56241
1.56476
0.0198594
-0.021502
-1.30528
1.30692
0.0227379
-0.0238453
-1.09434
1.09545
0.0247246
-0.025643
-0.920912
0.921831
0.0264562
-0.0272555
-0.779273
0.780073
0.0276206
-0.0272761
-0.658203
0.657858
0.0255553
-0.0217101
-0.523117
0.519271
0.0167195
-0.0108272
-0.339746
0.333853
0.00622432
-0.00259177
-0.156255
0.152622
0.00068802
-0.0255513
0.0248633
-0.0289093
0.0287592
0.000150063
-0.00212901
0.00415788
-0.232224
0.230195
-0.00699058
0.00940479
-0.406848
0.404434
-0.0110109
0.01122
-0.553248
0.553038
-0.0102899
0.00882944
-0.667181
0.668642
-0.00684391
0.00483977
-0.785915
0.787919
-0.00247743
0.000190513
-0.930019
0.932306
0.0024484
-0.00496308
-1.10455
1.10706
0.00782112
-0.0105004
-1.31516
1.31784
0.0134785
-0.0161903
-1.5699
1.57261
0.0186339
-0.0208122
-1.56698
1.56916
0.022432
-0.0238722
-1.30845
1.30989
0.0249152
-0.025796
-1.09662
1.0975
0.0264764
-0.0272023
-0.922676
0.923402
0.0278632
-0.0285155
-0.780742
0.781394
0.0285657
-0.0278414
-0.657299
0.656575
0.0256718
-0.0214228
-0.51527
0.511021
0.0163044
-0.0105032
-0.32805
0.322249
0.00604486
-0.00253247
-0.14908
0.145567
0.000678576
-0.0241905
0.023512
-0.0286672
0.028621
4.62327e-05
-0.00127252
0.0027276
-0.228475
0.22702
-0.00489648
0.00683701
-0.402289
0.400349
-0.00817563
0.00830387
-0.55296
0.552832
-0.00733285
0.00583407
-0.670229
0.671728
-0.00374867
0.00163304
-0.78992
0.792035
0.00085792
-0.00325686
-0.934499
0.936898
0.00600862
-0.00861371
-1.10949
1.1121
0.0115499
-0.0142702
-1.32044
1.32316
0.0172449
-0.0198955
-1.57524
1.57789
0.0222237
-0.0242364
-1.57121
1.57323
0.0256817
-0.0269149
-1.3112
1.31244
0.0277513
-0.0283958
-1.09847
1.09912
0.0288644
-0.0293814
-0.924057
0.924574
0.0298773
-0.0303201
-0.781841
0.782284
0.0300937
-0.0289119
-0.655628
0.654446
0.0262603
-0.0215751
-0.506624
0.501939
0.0162718
-0.0104544
-0.316491
0.310674
0.00603167
-0.00254327
-0.142099
0.138611
0.000687582
-0.0228405
0.0221529
-0.0286324
0.0286962
-6.38935e-05
-0.000389066
0.00126441
-0.225875
0.225
-0.00274346
0.00414756
-0.39871
0.397306
-0.00512083
0.00508833
-0.552898
0.55293
-0.00402487
0.00243577
-0.673402
0.674991
-0.000221675
-0.00204146
-0.794148
0.796411
0.00470682
-0.00726586
-0.939205
0.941764
0.0101864
-0.0129296
-1.11463
1.11737
0.0159881
-0.0187829
-1.32581
1.32861
0.0217859
-0.0244001
-1.58045
1.58307
0.0266264
-0.0284715
-1.57511
1.57695
0.0297335
-0.0307488
-1.31353
1.31454
0.0313761
-0.0317795
-1.09988
1.10028
0.0320312
-0.0323259
-0.925016
0.92531
0.0326297
-0.0327859
-0.782412
0.782568
0.0322635
-0.0305357
-0.653056
0.651328
0.0273534
-0.0221797
-0.497108
0.491934
0.0166146
-0.0106645
-0.304852
0.298901
0.00617148
-0.00261781
-0.135125
0.131571
0.000713188
-0.021465
0.0207518
-0.0288196
0.0289999
-0.000180321
0.000538197
-0.000281337
-0.224448
0.224191
-0.000457241
0.00124494
-0.396238
0.395451
-0.00173957
0.00145195
-0.55323
0.553518
-0.000228331
-0.00150536
-0.676804
0.678537
0.00389404
-0.00635058
-0.798671
0.801128
0.00924367
-0.0120092
-0.944236
0.947001
0.015145
-0.018067
-1.12005
1.12297
0.0212928
-0.0242021
-1.33135
1.33426
0.0272705
-0.0298701
-1.5856
1.5882
0.032004
-0.0336798
-1.57866
1.58033
0.0347525
-0.0355292
-1.31539
1.31616
0.0359233
-0.0360653
-1.1008
1.10094
0.0360826
-0.0361386
-0.925513
0.925569
0.0362468
-0.0360292
-0.782343
0.782125
0.0351209
-0.0327837
-0.649432
0.647095
0.0290009
-0.0232548
-0.486599
0.480853
0.017328
-0.011119
-0.292891
0.286682
0.00645192
-0.00274975
-0.12798
0.124278
0.000753467
-0.0200315
0.019278
-0.0292626
0.0295883
-0.000325752
0.00155805
-0.00194296
-0.224284
0.224669
0.00204711
-0.00197592
-0.395017
0.394945
0.00209106
-0.00274353
-0.554173
0.554826
0.0042012
-0.00614859
-0.680558
0.682505
0.00879232
-0.0115048
-0.803585
0.806297
0.0146855
-0.0177096
-0.949678
0.952702
0.0211185
-0.0242709
-1.12583
1.12898
0.0277128
-0.0307669
-1.33711
1.34017
0.0339137
-0.0364901
-1.59072
1.59329
0.0385089
-0.0399872
-1.58185
1.58333
0.0408524
-0.041386
-1.31672
1.31726
0.0415458
-0.0414071
-1.10117
1.10103
0.0411627
-0.0409593
-0.925495
0.925292
0.0408547
-0.0401669
-0.781484
0.780796
0.0387953
-0.0357514
-0.644612
0.641568
0.0312683
-0.0248304
-0.474914
0.468476
0.0184185
-0.0118127
-0.280352
0.273746
0.00686597
-0.00293465
-0.1205
0.116569
0.00080681
-0.0185117
0.0177049
-0.0299853
0.0304857
-0.000500334
0.00283087
-0.00396873
-0.225452
0.22659
0.00493534
-0.00566188
-0.395239
0.395965
0.00650318
-0.00761818
-0.555972
0.557087
0.0093992
-0.0116242
-0.684805
0.68703
0.0145937
-0.0176301
-0.809008
0.812045
0.0211779
-0.0245358
-0.955648
0.959006
0.0282964
-0.0317415
-1.13208
1.13553
0.0354558
-0.038697
-1.34317
1.34641
0.04196
-0.0445368
-1.59578
1.59836
0.046441
-0.0476985
-1.58463
1.58589
0.0483018
-0.0485585
-1.31752
1.31778
0.048446
-0.0479984
-1.10094
1.10049
0.0474743
-0.0469908
-0.924898
0.924414
0.0465485
-0.0454056
-0.779707
0.778564
0.0434195
-0.0395338
-0.638387
0.634502
0.0342167
-0.0269327
-0.461803
0.454519
0.0198887
-0.012736
-0.266956
0.259804
0.0074029
-0.00316577
-0.112527
0.10829
0.000870743
-0.0168807
0.01601
-0.0310614
0.0317815
-0.000720119
0.00432315
-0.00634043
-0.228151
0.230169
0.00838638
-0.0100175
-0.397132
0.398763
0.0116873
-0.0133898
-0.558867
0.56057
0.015642
-0.0182448
-0.689682
0.692285
0.0216452
-0.0250884
-0.815079
0.818522
0.0290862
-0.0328456
-0.962295
0.966054
0.0370225
-0.0408113
-1.13893
1.14272
0.0448433
-0.0482983
-1.3496
1.35305
0.051683
-0.0542406
-1.60083
1.60339
0.0559974
-0.056995
-1.58695
1.58795
0.0573053
-0.057246
-1.31769
1.31763
0.0568284
-0.0560332
-1.10004
1.09924
0.0551984
-0.0543995
-0.923667
0.922868
0.0535447
-0.0518751
-0.777046
0.775377
0.0491395
-0.0442308
-0.630475
0.625566
0.0379005
-0.0295728
-0.446941
0.438613
0.0217259
-0.0138674
-0.252399
0.24454
0.0080435
-0.003432
-0.10391
0.099299
0.000941405
-0.0151189
0.0141775
-0.0325728
0.033583
-0.00101017
0.0062132
-0.00928822
-0.232635
0.23571
0.0125795
-0.015271
-0.400961
0.403652
0.0179149
-0.0203383
-0.563148
0.565571
0.0232111
-0.0263272
-0.695405
0.698521
0.0303012
-0.0342592
-0.821976
0.825934
0.0388156
-0.0430651
-0.969755
0.974005
0.0477422
-0.0519321
-1.14647
1.15066
0.056314
-0.0599774
-1.35644
1.36011
0.0634399
-0.065909
-1.6058
1.60827
0.0674373
-0.0680914
-1.58871
1.58936
0.0680418
-0.0676107
-1.31709
1.31666
0.0668737
-0.0656964
-1.09838
1.0972
0.0645096
-0.0633961
-0.921738
0.920625
0.0620052
-0.0597133
-0.773339
0.771047
0.0560648
-0.0499041
-0.620512
0.614351
0.0423347
-0.0327267
-0.429926
0.420318
0.0238874
-0.015162
-0.236364
0.227638
0.00875308
-0.00371483
-0.0945207
0.0894825
0.00101268
-0.0132156
0.012203
-0.03465
0.03606
-0.00140999
0.00868007
-0.0131103
-0.239226
0.243656
0.0178877
-0.0218087
-0.407097
0.411018
0.0255811
-0.028868
-0.569143
0.57243
0.0325309
-0.0363099
-0.702259
0.706038
0.0410119
-0.045617
-0.829908
0.834513
0.0508563
-0.0556903
-0.978214
0.983048
0.0609433
-0.0655701
-1.15481
1.15944
0.0703043
-0.0741491
-1.36367
1.36752
0.0776325
-0.0799358
-1.61055
1.61285
0.0811414
-0.0813478
-1.58972
1.58993
0.08086
-0.0799167
-1.31562
1.31468
0.078785
-0.0772033
-1.09585
1.09427
0.0756697
-0.0741286
-0.91907
0.917529
0.0722167
-0.0690954
-0.768355
0.765233
0.0642963
-0.0565803
-0.608017
0.600301
0.0474896
-0.0363206
-0.410279
0.39911
0.0262855
-0.0165423
-0.218536
0.208793
0.00947653
-0.00398678
-0.0842665
0.0787768
0.00107597
-0.0111735
0.0100975
-0.0374884
0.0394719
-0.00198352
0.0121213
-0.0182652
-0.248453
0.254597
0.0248358
-0.0301945
-0.416032
0.421391
0.0353018
-0.0396504
-0.577237
0.581586
0.0443236
-0.048973
-0.710561
0.715211
0.0546133
-0.0600147
-0.839128
0.84453
0.0660555
-0.0715375
-0.987849
0.993331
0.0773851
-0.0824192
-1.16399
1.16903
0.0874236
-0.0913307
-1.37119
1.3751
0.0946608
-0.0966142
-1.61486
1.61681
0.097327
-0.0969408
-1.58975
1.58937
0.0959243
-0.0943904
-1.31308
1.31155
0.0927847
-0.0907591
-1.09238
1.09035
0.0888347
-0.0867328
-0.91539
0.913288
0.0842801
-0.0800815
-0.761632
0.757433
0.0738507
-0.0641983
-0.592366
0.582714
0.0532393
-0.0401944
-0.387445
0.3744
0.0287636
-0.0178842
-0.198639
0.18776
0.0101315
-0.0042093
-0.07312
0.0671978
0.00111987
-0.00901354
0.00789367
-0.0414116
0.0442807
-0.00286907
0.0171333
-0.0255327
-0.261038
0.269437
0.0343143
-0.0413931
-0.428444
0.435523
0.0481168
-0.0537588
-0.587934
0.593576
0.0597401
-0.0655342
-0.720755
0.726549
0.0723558
-0.0786842
-0.849918
0.856247
0.0855813
-0.0916883
-0.998756
1.00486
0.0980334
-0.103326
-1.17391
1.1792
0.108378
-0.112104
-1.3787
1.38242
0.114986
-0.116314
-1.61832
1.61965
0.116287
-0.115092
-1.58848
1.58729
0.113381
-0.111161
-1.30931
1.30709
0.109012
-0.10651
-1.08784
1.08534
0.104185
-0.101392
-0.910417
0.907624
0.0982288
-0.0926353
-0.75262
0.747027
0.0845917
-0.0725393
-0.572751
0.560698
0.0593159
-0.0440679
-0.360827
0.345579
0.031073
-0.0190075
-0.176485
0.164419
0.0106061
-0.0043332
-0.0611528
0.0548799
0.00113048
-0.00678001
0.00564954
-0.0469907
0.0513543
-0.00436361
0.0248761
-0.036337
-0.278153
0.289614
0.0479864
-0.0573765
-0.445352
0.454742
0.0661349
-0.0733266
-0.601836
0.609028
0.0808695
-0.088151
-0.733256
0.740537
0.0961802
-0.103353
-0.862476
0.869649
0.110937
-0.117441
-1.01081
1.01731
0.123954
-0.129153
-1.18416
1.18935
0.133833
-0.136991
-1.38563
1.38879
0.139013
-0.139358
-1.62034
1.62069
0.138275
-0.135995
-1.58545
1.58317
0.133389
-0.130324
-1.30405
1.30099
0.127536
-0.124501
-1.08214
1.07911
0.121664
-0.118187
-0.903972
0.900496
0.114021
-0.106571
-0.740613
0.733163
0.0961757
-0.0811519
-0.548179
0.533155
0.0652455
-0.0475171
-0.329849
0.312121
0.0328752
-0.0196888
-0.152072
0.138885
0.0107699
-0.00430406
-0.0485765
0.0421107
0.00109241
-0.004543
0.00345059
-0.0552998
0.0627339
-0.00743406
0.0383392
-0.0542956
-0.301945
0.317902
0.07001
-0.0826313
-0.468439
0.48106
0.0935728
-0.102146
-0.619386
0.627959
0.111216
-0.119791
-0.748396
0.756971
0.128781
-0.136368
-0.876511
0.884097
0.144025
-0.150302
-1.02338
1.02966
0.156303
-0.160783
-1.1939
1.19838
0.164453
-0.166459
-1.39113
1.39314
0.167047
-0.16592
-1.62013
1.619
0.163387
-0.15973
-1.5801
1.57644
0.156018
-0.151926
-1.29699
1.2929
0.148406
-0.144799
-1.07508
1.07147
0.141339
-0.136998
-0.895858
0.891517
0.131346
-0.121339
-0.724532
0.714525
0.107848
-0.0891828
-0.517377
0.498712
0.0703001
-0.0500334
-0.294096
0.273829
0.0338465
-0.0197713
-0.125715
0.11164
0.0105452
-0.00409035
-0.0357773
0.0293225
0.000986945
-0.00239608
0.00140913
-0.0696431
0.0737843
-0.00414113
0.0291956
-0.0431449
-0.336376
0.350325
0.0571751
-0.0688436
-0.499139
0.510808
0.079238
-0.0889372
-0.640235
0.649935
0.0997476
-0.109819
-0.764997
0.775069
0.121035
-0.130943
-0.890638
0.900546
0.141456
-0.150782
-1.035
1.04433
0.160527
-0.168859
-1.20178
1.21011
0.177121
-0.183656
-1.39396
1.40049
0.189399
-0.193002
-1.61667
1.62027
0.19445
-0.194341
-1.57176
1.57165
0.19313
-0.191202
-1.28778
1.28585
0.189565
-0.187483
-1.06638
1.06429
0.185307
-0.180935
-0.885279
0.880907
0.172977
-0.157934
-0.702791
0.687748
0.137464
-0.11035
-0.479156
0.452042
0.0843682
-0.0578333
-0.253554
0.227019
0.0378346
-0.0213485
-0.0982084
0.0817223
0.0109803
-0.00406432
-0.0233198
0.0164038
0.000906327
-0.000411779
-0.000494548
-0.0811689
0.0792302
0.00193866
0.00767192
-0.0166491
-0.366943
0.375921
0.0272747
-0.0356974
-0.527043
0.535465
0.0441582
-0.0521509
-0.66238
0.670373
0.0619893
-0.0712904
-0.784612
0.793913
0.0812628
-0.0903264
-0.909789
0.918853
0.0999263
-0.108091
-1.05334
1.0615
0.116789
-0.123834
-1.2182
1.22524
0.130746
-0.135896
-1.40664
1.41179
0.139863
-0.141889
-1.62302
1.62504
0.141839
-0.140257
-1.57089
1.56931
0.137559
-0.134059
-1.28322
1.27972
0.130882
-0.127417
-1.05996
1.0565
0.123867
-0.118521
-0.871973
0.866627
0.109958
-0.0964316
-0.668852
0.655325
0.0804286
-0.0613287
-0.423379
0.404279
0.0447408
-0.0295664
-0.200943
0.185768
0.0189045
-0.0105642
-0.066256
0.0579157
0.00542181
-0.00202278
-0.00968321
0.00628418
0.000449202
0.00165317
-0.00210238
-0.0825793
0.0796885
0.0028908
-0.00124327
-0.00385032
-0.387643
0.392737
0.0108744
-0.0169935
-0.547718
0.553837
0.0232043
-0.0301054
-0.680994
0.687895
0.0386236
-0.0466685
-0.802276
0.810321
0.0555105
-0.0633843
-0.927068
0.934942
0.0714668
-0.0787001
-1.06947
1.0767
0.0861788
-0.0922993
-1.23181
1.23793
0.0978185
-0.101682
-1.41622
1.42008
0.10452
-0.105294
-1.62631
1.62708
0.104005
-0.101189
-1.56705
1.56423
0.0974872
-0.093076
-1.27578
1.27137
0.0886236
-0.0838908
-1.05093
1.0462
0.0792009
-0.073157
-0.85686
0.850817
0.0654034
-0.0543279
-0.638845
0.62777
0.0428336
-0.0305664
-0.383787
0.37152
0.0213321
-0.0138087
-0.170323
0.162799
0.0089242
-0.00525907
-0.0495786
0.0459134
0.00287809
-0.0011872
-0.00268214
0.000991248
0.000302036
0.00279243
-0.00309447
-0.0813311
0.0785175
0.00281356
-0.00506796
0.00256132
-0.401338
0.403845
0.00196374
-0.0065482
-0.563016
0.567601
0.0117525
-0.017519
-0.696255
0.702021
0.0247995
-0.0316751
-0.817693
0.824568
0.0391933
-0.0459114
-0.942217
0.948935
0.0531852
-0.0592721
-1.08346
1.08955
0.0657247
-0.0705223
-1.24359
1.24839
0.075092
-0.0781091
-1.42364
1.42666
0.0798491
-0.0794382
-1.62734
1.62693
0.0773908
-0.073825
-1.56076
1.55719
0.0694503
-0.063928
-1.26646
1.26094
0.0587397
-0.0530629
-1.03981
1.03413
0.0474027
-0.0411717
-0.840644
0.834413
0.0340787
-0.0255998
-0.613882
0.605403
0.0180181
-0.0114226
-0.358209
0.351614
0.00739877
-0.00474791
-0.154487
0.151836
0.00318781
-0.00212598
-0.0416124
0.0405506
0.0013074
-0.000628098
0.00113036
-0.00180966
0.000181264
0.00360604
-0.0037873
-0.079787
0.077295
0.002492
-0.00633157
0.00543223
-0.410473
0.411373
-0.00205595
-0.00133186
-0.57521
0.578598
0.00546524
-0.0106671
-0.70904
0.714242
0.0167644
-0.0227868
-0.830721
0.836743
0.0292724
-0.035083
-0.955154
0.960964
0.0412869
-0.0466517
-1.09547
1.10083
0.0520425
-0.0563327
-1.253
1.25729
0.060075
-0.0623688
-1.42923
1.43152
0.0633351
-0.0622307
-1.62623
1.62513
0.0595361
-0.0551535
-1.5528
1.54842
0.0502636
-0.0443309
-1.25513
1.2492
0.038617
-0.0321735
-1.02717
1.02073
0.0261679
-0.0197445
-0.824687
0.818263
0.0137265
-0.00733508
-0.594669
0.588278
0.00270673
0.00017771
-0.343217
0.340333
-0.00115976
0.00112895
-0.14759
0.14762
-0.000712587
0.000218836
-0.0387581
0.0392519
3.65969e-05
-0.000130859
0.00285845
-0.00276419
6.67484e-05
0.00413777
-0.00420451
-0.0783383
0.0762025
0.00213577
-0.00631502
0.00593847
-0.4167
0.417076
-0.00393794
0.00119809
-0.58458
0.58732
0.00282625
-0.00727026
-0.719832
0.724276
0.0124851
-0.0176846
-0.841956
0.847155
0.0234136
-0.0285752
-0.966384
0.971545
0.034207
-0.0388573
-1.10588
1.11053
0.0436234
-0.0473801
-1.26124
1.265
0.0505192
-0.0522904
-1.43347
1.43524
0.0526825
-0.0514693
-1.62383
1.62261
0.0483285
-0.043726
-1.54349
1.53889
0.0385283
-0.032262
-1.24291
1.23665
0.0264637
-0.0195531
-1.01348
1.00657
0.01324
-0.00683621
-0.809271
0.802867
0.00158817
0.003321
-0.57959
0.57468
-0.00622447
0.00720243
-0.334822
0.333844
-0.00644762
0.00500489
-0.146072
0.147515
-0.0036153
0.00212246
-0.0392102
0.040703
-0.00108692
0.000350448
0.00287164
-0.00213516
-5.99479e-05
0.00434736
-0.00428741
-0.0772166
0.0755447
0.00167193
-0.00549544
0.00546955
-0.421277
0.421303
-0.00383331
0.00179057
-0.592732
0.594775
0.00196358
-0.00598512
-0.729148
0.73317
0.0109034
-0.0153527
-0.85196
0.856409
0.0203498
-0.0248922
-0.976637
0.981179
0.0301905
-0.0343622
-1.11518
1.11935
0.0385297
-0.0419966
-1.26853
1.272
0.0451549
-0.0466191
-1.43696
1.43843
0.0468559
-0.0453309
-1.62092
1.6194
0.042329
-0.0373521
-1.53398
1.529
0.0322262
-0.0260406
-1.2301
1.22391
0.0200652
-0.0133421
-0.999231
0.992508
0.00702388
-0.000556639
-0.794422
0.787954
-0.00408366
0.00825362
-0.567188
0.563018
-0.0105023
0.0106101
-0.329959
0.329852
-0.00930748
0.00739189
-0.1474
0.149316
-0.00547622
0.00343566
-0.0417238
0.0437643
-0.00191455
0.000738675
0.00153599
-0.000360122
-0.000170798
0.00423655
-0.00406575
-0.0765941
0.0752838
0.00131023
-0.00443837
0.00456125
-0.424864
0.424742
-0.00308085
0.00115268
-0.599783
0.601711
0.00238715
-0.00599445
-0.737471
0.741078
0.0101784
-0.0144363
-0.860824
0.865082
0.0190206
-0.0236735
-0.985491
0.990143
0.0281894
-0.0321235
-1.1236
1.12754
0.0363528
-0.0395071
-1.2753
1.27845
0.0420789
-0.0438366
-1.43975
1.44151
0.0440982
-0.0426922
-1.61787
1.61647
0.039634
-0.0349928
-1.52416
1.51952
0.0299863
-0.0239183
-1.21734
1.21128
0.018151
-0.0115672
-0.985339
0.978756
0.0054512
0.000678692
-0.780172
0.774043
-0.00546411
0.00912544
-0.55621
0.552549
-0.0110635
0.0113529
-0.326845
0.326556
-0.0102025
0.00814817
-0.149705
0.15176
-0.00619601
0.00402481
-0.0452047
0.0473759
-0.00233671
0.000962136
-0.000626826
0.0020014
-0.000244887
0.00389009
-0.00364521
-0.0765116
0.0754181
0.00109353
-0.00314571
0.00303375
-0.428051
0.428163
-0.00177006
-0.000127575
-0.606214
0.608111
0.00340689
-0.00688444
-0.74517
0.748648
0.0108755
-0.0147076
-0.869156
0.872988
0.0193847
-0.0232065
-0.994178
0.997999
0.0276555
-0.0313774
-1.1316
1.13533
0.0354383
-0.0387258
-1.28155
1.28484
0.0415182
-0.0429769
-1.44298
1.44444
0.0434689
-0.0423279
-1.61494
1.6138
0.0397637
-0.0352752
-1.51471
1.51022
0.030594
-0.0248378
-1.2053
1.19955
0.0193831
-0.0130413
-0.971762
0.96542
0.00729798
-0.00121862
-0.766686
0.760607
-0.00356492
0.00718418
-0.546149
0.54253
-0.00923786
0.00981525
-0.323769
0.323191
-0.00925963
0.0077128
-0.151947
0.153494
-0.00606241
0.00406521
-0.0488212
0.0508184
-0.00244313
0.00106114
-0.00310425
0.00448624
-0.000294436
0.00340363
-0.00310919
-0.0767268
0.0759569
0.00076994
-0.00198369
0.0013898
-0.431309
0.431903
-0.000304962
-0.00169481
-0.611889
0.613889
0.00464439
-0.00798222
-0.752313
0.755651
0.0117939
-0.0157425
-0.876705
0.880654
0.0197767
-0.023744
-1.00201
1.00598
0.0281301
-0.0316139
-1.13945
1.14294
0.0357374
-0.0389461
-1.2879
1.2911
0.0417434
-0.0436813
-1.44628
1.44822
0.0445844
-0.0436398
-1.61266
1.61171
0.04123
-0.0374077
-1.50589
1.50207
0.0332368
-0.0278154
-1.19369
1.18827
0.0225916
-0.0168081
-0.958892
0.953109
0.0110136
-0.00530653
-0.753579
0.747872
0.000528168
0.0034225
-0.53647
0.532519
-0.00556019
0.00667264
-0.320133
0.31902
-0.00672961
0.00598379
-0.15334
0.154086
-0.00485651
0.00338538
-0.051905
0.0533762
-0.00211483
0.000959789
-0.00547468
0.00662972
-0.000280389
0.00285303
-0.00257264
-0.0773644
0.0767603
0.000604148
-0.000995566
0.000431656
-0.434789
0.435353
0.00119058
-0.00304981
-0.617645
0.619504
0.0061705
-0.00937831
-0.758932
0.76214
0.0130419
-0.0165813
-0.884287
0.887826
0.0207318
-0.024371
-1.00992
1.01356
0.0286886
-0.0325992
-1.14686
1.15077
0.0363387
-0.0398537
-1.29434
1.29785
0.0430485
-0.0450455
-1.45002
1.45202
0.0462775
-0.0460624
-1.61097
1.61075
0.0440772
-0.0408573
-1.49812
1.4949
0.0368874
-0.0319277
-1.18291
1.17795
0.0271589
-0.0216074
-0.94686
0.941309
0.016265
-0.0106815
-0.74115
0.735566
0.005887
-0.00150641
-0.526462
0.522081
-0.00119494
0.00283514
-0.315616
0.313975
-0.00360843
0.00357449
-0.153355
0.153389
-0.00310652
0.00230015
-0.0538945
0.0547008
-0.00151223
0.000728587
-0.00732917
0.00811282
-0.00022868
0.0023548
-0.00212612
-0.0782941
0.0778703
0.000423774
8.69667e-05
-0.000845774
-0.438437
0.439196
0.00234566
-0.00451855
-0.62301
0.625183
0.00757507
-0.0106315
-0.765302
0.768359
0.0143917
-0.0177824
-0.891352
0.894743
0.021769
-0.025523
-1.01766
1.02142
0.029739
-0.0336038
-1.15451
1.15838
0.0375546
-0.0410885
-1.30126
1.3048
0.0444544
-0.0471859
-1.45428
1.45701
0.0488387
-0.0489076
-1.61046
1.61053
0.0475867
-0.0446588
-1.49156
1.48863
0.0412276
-0.0368393
-1.17296
1.16857
0.032201
-0.0269845
-0.935475
0.930258
0.0219087
-0.0163325
-0.729178
0.723602
0.0115718
-0.00677811
-0.516341
0.511547
0.00358059
-0.00114213
-0.310066
0.307628
-0.000237734
0.000958576
-0.151881
0.151161
-0.00120779
0.00106963
-0.0545558
0.054694
-0.000791216
0.000427032
-0.00842102
0.00878521
-0.000147691
0.00197868
-0.00183099
-0.0794647