/*--------------------------------*- C++ -*----------------------------------*\
  =========                 |
  \\      /  F ield         | OpenFOAM: The Open Source CFD Toolbox
   \\    /   O peration     | Website:  https://openfoam.org
    \\  /    A nd           | Version:  6
     \\/     M anipulation  |
\*---------------------------------------------------------------------------*/
FoamFile
{
    version     2.0;
    format      ascii;
    class       volVectorField;
    location    "27.6";
    object      U;
}
// * * * * * * * * * * * * * * * * * * * * * * * * * * * * * * * * * * * * * //

dimensions      [0 1 -1 0 0 0 0];

internalField   nonuniform List<vector> 
8800
(
(0.98719 -0.0766655 0)
(1.0019 -0.0551885 0)
(0.999752 -0.0285451 0)
(1.00004 -0.015137 0)
(1.00005 -0.00853246 0)
(1.00003 -0.00502984 0)
(1.00002 -0.00299441 0)
(1.00001 -0.00171005 0)
(1.00001 -0.000825361 0)
(1.00005 -0.000128843 0)
(1 0.000573947 0)
(1.00002 0.00133916 0)
(1.00002 0.00238124 0)
(1.00003 0.00396906 0)
(1.00004 0.00660407 0)
(1.00006 0.0113461 0)
(0.999976 0.0207919 0)
(0.999177 0.0386524 0)
(1.00709 0.0724497 0)
(0.771217 0.0366596 0)
(0.363049 -0.0160189 0)
(1.04329 -0.0768266 0)
(1.08461 -0.0704665 0)
(1.04523 -0.0535709 0)
(1.02326 -0.0389215 0)
(1.01191 -0.0262359 0)
(1.00628 -0.016877 0)
(1.00348 -0.0103753 0)
(1.00209 -0.00576738 0)
(1.00142 -0.00217563 0)
(1.00129 0.00111517 0)
(1.00167 0.00446608 0)
(1.00263 0.00839789 0)
(1.0046 0.0137679 0)
(1.00857 0.0215118 0)
(1.01659 0.0325074 0)
(1.03258 0.0464476 0)
(1.06275 0.0615865 0)
(1.0919 0.0760342 0)
(0.838768 0.0565359 0)
(0.216788 -0.00243109 0)
(1.07586 -0.0501631 0)
(1.09987 -0.0483537 0)
(1.06458 -0.0405137 0)
(1.03988 -0.0336617 0)
(1.02371 -0.0261668 0)
(1.01395 -0.0186387 0)
(1.00843 -0.0118835 0)
(1.00551 -0.0060688 0)
(1.00431 -0.000719529 0)
(1.00468 0.00448099 0)
(1.0066 0.00988942 0)
(1.0106 0.0160142 0)
(1.01793 0.023072 0)
(1.03055 0.030565 0)
(1.0507 0.0376301 0)
(1.08048 0.0443504 0)
(1.10643 0.0512064 0)
(0.942811 0.0415473 0)
(0.216346 0.00245116 0)
(0.175093 -0.000816604 0)
(1.01761 -0.0355053 0)
(1.10518 -0.0414202 0)
(1.07822 -0.0361085 0)
(1.05329 -0.0301686 0)
(1.03592 -0.0245981 0)
(1.02372 -0.0189563 0)
(1.01568 -0.0130013 0)
(1.01094 -0.00691219 0)
(1.00884 -0.000694656 0)
(1.00945 0.00547696 0)
(1.01271 0.0114532 0)
(1.01886 0.0173119 0)
(1.02879 0.022921 0)
(1.04333 0.0282764 0)
(1.06396 0.0338274 0)
(1.09385 0.0398816 0)
(1.09381 0.0417228 0)
(0.827838 0.0228044 0)
(0.174352 0.00083948 0)
(0.153878 -0.000609796 0)
(0.956027 -0.0254604 0)
(1.10332 -0.0351476 0)
(1.08747 -0.0327131 0)
(1.06139 -0.0281206 0)
(1.04374 -0.0231475 0)
(1.0313 -0.017966 0)
(1.02249 -0.0125531 0)
(1.01674 -0.00676715 0)
(1.01401 -0.000423992 0)
(1.01476 0.00592637 0)
(1.01881 0.0117719 0)
(1.02587 0.017088 0)
(1.03622 0.0221116 0)
(1.05085 0.026948 0)
(1.07214 0.0315201 0)
(1.10046 0.0354981 0)
(1.0688 0.0336705 0)
(0.740829 0.0141595 0)
(0.152767 0.000635896 0)
(0.13951 -0.000465149 0)
(0.89914 -0.0190562 0)
(1.09564 -0.030062 0)
(1.0955 -0.0291397 0)
(1.06881 -0.0253765 0)
(1.05028 -0.0213243 0)
(1.03741 -0.016791 0)
(1.02837 -0.0117755 0)
(1.0224 -0.00621063 0)
(1.01944 -1.84324e-05 0)
(1.02018 0.00619248 0)
(1.02433 0.011787 0)
(1.03151 0.0167246 0)
(1.04206 0.0211519 0)
(1.0573 0.0251265 0)
(1.07963 0.028701 0)
(1.10296 0.0315005 0)
(1.03735 0.0276228 0)
(0.675124 0.0100024 0)
(0.137948 0.000495366 0)
(0.128997 -0.00035754 0)
(0.84965 -0.0146218 0)
(1.08314 -0.0258371 0)
(1.10107 -0.0262222 0)
(1.07554 -0.0230688 0)
(1.05641 -0.0195232 0)
(1.04303 -0.0154168 0)
(1.03365 -0.0106731 0)
(1.02737 -0.00538093 0)
(1.02418 0.00049459 0)
(1.02489 0.00636867 0)
(1.02914 0.0115883 0)
(1.03648 0.0161801 0)
(1.04737 0.0201909 0)
(1.06312 0.02361 0)
(1.08592 0.0265927 0)
(1.10236 0.028392 0)
(1.00331 0.0228743 0)
(0.624503 0.00755695 0)
(0.126888 0.000393041 0)
(0.121034 -0.000274919 0)
(0.80786 -0.0113838 0)
(1.06784 -0.0220574 0)
(1.10424 -0.023292 0)
(1.08141 -0.0204964 0)
(1.062 -0.0172644 0)
(1.04831 -0.0136608 0)
(1.03853 -0.00942697 0)
(1.032 -0.00451437 0)
(1.02867 0.00110887 0)
(1.02922 0.00672334 0)
(1.03343 0.0115313 0)
(1.04095 0.0155423 0)
(1.05211 0.0188747 0)
(1.06806 0.0217708 0)
(1.09109 0.0244852 0)
(1.09896 0.0255653 0)
(0.969486 0.0190604 0)
(0.584511 0.00592527 0)
(0.118262 0.000317371 0)
(0.114945 -0.000207787 0)
(0.773081 -0.00887147 0)
(1.05133 -0.0186555 0)
(1.10661 -0.0206426 0)
(1.08703 -0.0181847 0)
(1.06704 -0.0151072 0)
(1.05309 -0.0117593 0)
(1.04317 -0.00785582 0)
(1.03641 -0.00329789 0)
(1.03282 0.00188549 0)
(1.0332 0.00697337 0)
(1.03741 0.0113125 0)
(1.04492 0.0148302 0)
(1.05609 0.0177467 0)
(1.0724 0.020335 0)
(1.09541 0.0227746 0)
(1.09328 0.0230971 0)
(0.937251 0.0159286 0)
(0.552321 0.00473812 0)
(0.111366 0.00025901 0)
(0.110326 -0.000154354 0)
(0.744557 -0.00684752 0)
(1.03443 -0.0154546 0)
(1.10762 -0.0179831 0)
(1.09211 -0.0160538 0)
(1.0719 -0.0132212 0)
(1.05772 -0.00997148 0)
(1.04766 -0.00621148 0)
(1.04071 -0.00197399 0)
(1.03688 0.00279925 0)
(1.03706 0.00743704 0)
(1.04113 0.0112278 0)
(1.04853 0.014317 0)
(1.0597 0.016934 0)
(1.07625 0.0192319 0)
(1.09824 0.0211889 0)
(1.08527 0.0207148 0)
(0.907405 0.0133351 0)
(0.526088 0.0038464 0)
(0.105764 0.000216742 0)
(0.106904 -0.000107413 0)
(0.721703 -0.00514159 0)
(1.01853 -0.0124654 0)
(1.10782 -0.0151365 0)
(1.0968 -0.0134669 0)
(1.07651 -0.0108617 0)
(1.06213 -0.00789689 0)
(1.05183 -0.00439672 0)
(1.04469 -0.000468156 0)
(1.04062 0.00390423 0)
(1.04053 0.00809619 0)
(1.04434 0.0114218 0)
(1.05165 0.0140197 0)
(1.06287 0.0161457 0)
(1.0795 0.0179447 0)
(1.09976 0.0194542 0)
(1.07591 0.0184269 0)
(0.88052 0.0111644 0)
(0.504592 0.00314685 0)
(0.101137 0.000183342 0)
(0.104521 -6.46617e-05 0)
(0.703972 -0.00361809 0)
(1.00417 -0.00958107 0)
(1.10741 -0.0122624 0)
(1.10113 -0.010785 0)
(1.08055 -0.00827724 0)
(1.06572 -0.00560673 0)
(1.05514 -0.00245643 0)
(1.04778 0.00119954 0)
(1.04348 0.00522185 0)
(1.04301 0.00892768 0)
(1.04649 0.0117576 0)
(1.05363 0.0137344 0)
(1.06493 0.0151968 0)
(1.08195 0.0166365 0)
(1.10037 0.0178545 0)
(1.06562 0.0163014 0)
(0.856581 0.00931532 0)
(0.486912 0.00258787 0)
(0.0972705 0.000159616 0)
(0.103072 -2.62334e-05 0)
(0.691155 -0.00219045 0)
(0.991973 -0.00670888 0)
(1.10652 -0.00925674 0)
(1.10509 -0.00819516 0)
(1.08459 -0.00598883 0)
(1.06963 -0.0033199 0)
(1.05898 -0.000182572 0)
(1.05127 0.00323469 0)
(1.04646 0.00686835 0)
(1.04566 0.0100971 0)
(1.0489 0.0123898 0)
(1.05575 0.0139798 0)
(1.06677 0.0151694 0)
(1.08384 0.0159978 0)
(1.09997 0.016454 0)
(1.05464 0.0142138 0)
(0.835726 0.00767208 0)
(0.472514 0.00212764 0)
(0.0939871 0.000142908 0)
(0.102551 1.313e-05 0)
(0.683008 -0.000803099 0)
(0.982313 -0.00383736 0)
(1.10508 -0.00601361 0)
(1.10822 -0.00522466 0)
(1.08831 -0.00321643 0)
(1.07315 -0.000667237 0)
(1.06223 0.00225822 0)
(1.05436 0.00546253 0)
(1.04925 0.00886226 0)
(1.04782 0.0117071 0)
(1.05041 0.0134392 0)
(1.05684 0.0143167 0)
(1.06777 0.0147867 0)
(1.08463 0.0151243 0)
(1.09798 0.0150517 0)
(1.04318 0.0122535 0)
(0.817824 0.0062539 0)
(0.460947 0.00174366 0)
(0.0911979 0.000126633 0)
(0.102992 6.92005e-05 0)
(0.679305 0.000403442 0)
(0.975637 -0.00114369 0)
(1.10394 -0.00267619 0)
(1.11107 -0.00183632 0)
(1.09171 6.61381e-05 0)
(1.07637 0.0024725 0)
(1.06517 0.00528981 0)
(1.05682 0.00829801 0)
(1.0511 0.0113251 0)
(1.04901 0.0136344 0)
(1.05107 0.0147161 0)
(1.05716 0.0149931 0)
(1.06778 0.0148966 0)
(1.08427 0.0146187 0)
(1.09505 0.0139133 0)
(1.0318 0.0107202 0)
(0.802602 0.00525714 0)
(0.451613 0.00150654 0)
(0.0888667 0.00011304 0)
(0.104322 0.000100726 0)
(0.679483 0.00131944 0)
(0.971999 0.00101721 0)
(1.10352 0.000127514 0)
(1.11401 0.000983917 0)
(1.09523 0.00287998 0)
(1.07981 0.00545145 0)
(1.0685 0.0083985 0)
(1.05988 0.0114874 0)
(1.05354 0.0143401 0)
(1.05057 0.0162153 0)
(1.05174 0.0168827 0)
(1.05699 0.0166983 0)
(1.06714 0.0159834 0)
(1.08324 0.0152457 0)
(1.09092 0.0139051 0)
(1.02033 0.0101544 0)
(0.789152 0.00501048 0)
(0.44323 0.00153496 0)
(0.0867015 0.00011811 0)
(0.106275 0.000132466 0)
(0.682318 0.00200536 0)
(0.971153 0.00285464 0)
(1.10375 0.00262482 0)
(1.11695 0.00359298 0)
(1.09876 0.00558895 0)
(1.08323 0.00845004 0)
(1.07156 0.0117239 0)
(1.06227 0.0150809 0)
(1.05498 0.0180415 0)
(1.05107 0.0197929 0)
(1.05137 0.0200651 0)
(1.05596 0.0193163 0)
(1.06547 0.0181453 0)
(1.08102 0.0167641 0)
(1.08554 0.0146794 0)
(1.0086 0.0104622 0)
(0.776363 0.0054029 0)
(0.434483 0.00175932 0)
(0.0843473 0.000137941 0)
(0.108885 0.000170511 0)
(0.687883 0.00275285 0)
(0.973072 0.0044907 0)
(1.10511 0.00532018 0)
(1.12021 0.00662715 0)
(1.1028 0.00895197 0)
(1.08733 0.0122409 0)
(1.07534 0.0159175 0)
(1.06537 0.0195886 0)
(1.05702 0.022653 0)
(1.05174 0.0241803 0)
(1.05082 0.0239214 0)
(1.05438 0.0225752 0)
(1.06319 0.0207609 0)
(1.07775 0.0187298 0)
(1.079 0.0160448 0)
(0.996515 0.0114676 0)
(0.763118 0.00624511 0)
(0.424455 0.00208651 0)
(0.0815589 0.00016629 0)
(0.112268 0.000218949 0)
(0.695953 0.00361504 0)
(0.977858 0.0062658 0)
(1.10861 0.00824648 0)
(1.12449 0.0105213 0)
(1.10758 0.0136263 0)
(1.0919 0.0174826 0)
(1.07931 0.0215917 0)
(1.06835 0.0254409 0)
(1.05864 0.0283848 0)
(1.05175 0.0293755 0)
(1.04946 0.0284394 0)
(1.05194 0.0263806 0)
(1.05976 0.0238338 0)
(1.07342 0.0211699 0)
(1.07165 0.018017 0)
(0.98402 0.0132386 0)
(0.748187 0.00737961 0)
(0.41263 0.00248432 0)
(0.0782193 0.000201506 0)
(0.116652 0.000286055 0)
(0.706815 0.00480617 0)
(0.985547 0.00840354 0)
(1.11476 0.0113575 0)
(1.13076 0.0147339 0)
(1.11355 0.0189241 0)
(1.09726 0.0236845 0)
(1.08374 0.0283942 0)
(1.07145 0.0325936 0)
(1.05998 0.0354398 0)
(1.05118 0.0358076 0)
(1.04735 0.0339707 0)
(1.04863 0.0309936 0)
(1.05563 0.0279231 0)
(1.06827 0.0248165 0)
(1.06372 0.0213661 0)
(0.969923 0.015758 0)
(0.730604 0.00864662 0)
(0.39878 0.00291538 0)
(0.0742417 0.000239616 0)
(0.1224 0.000380404 0)
(0.721348 0.00645201 0)
(0.995702 0.0112672 0)
(1.12306 0.0148213 0)
(1.13897 0.0189484 0)
(1.12115 0.0242244 0)
(1.10371 0.0300816 0)
(1.08883 0.0357712 0)
(1.07486 0.040822 0)
(1.06117 0.0441565 0)
(1.0501 0.044521 0)
(1.04435 0.0422678 0)
(1.04426 0.038592 0)
(1.05064 0.034525 0)
(1.0625 0.0306601 0)
(1.05402 0.026165 0)
(0.952154 0.0186648 0)
(0.710072 0.0100182 0)
(0.382786 0.00341584 0)
(0.0695673 0.000281994 0)
(0.129996 0.000516455 0)
(0.740753 0.00878547 0)
(1.00871 0.0152861 0)
(1.13271 0.0194313 0)
(1.14852 0.0238919 0)
(1.13038 0.0301046 0)
(1.11167 0.0371182 0)
(1.0952 0.0443119 0)
(1.07909 0.0506934 0)
(1.06269 0.0549302 0)
(1.04898 0.0556122 0)
(1.04102 0.0531976 0)
(1.03909 0.0491231 0)
(1.04407 0.0442912 0)
(1.05414 0.0389793 0)
(1.03956 0.0316566 0)
(0.929794 0.0215647 0)
(0.686736 0.0116173 0)
(0.364325 0.00401142 0)
(0.0641027 0.000329332 0)
(0.1403 0.000732121 0)
(0.766905 0.012187 0)
(1.0263 0.0210887 0)
(1.14367 0.0264911 0)
(1.15914 0.0314231 0)
(1.14098 0.0384513 0)
(1.12158 0.0469195 0)
(1.1032 0.0557511 0)
(1.08427 0.0633627 0)
(1.06457 0.0681848 0)
(1.04774 0.0686702 0)
(1.03724 0.0655803 0)
(1.03303 0.0605692 0)
(1.03568 0.0544748 0)
(1.04151 0.046839 0)
(1.01933 0.0367305 0)
(0.903848 0.0247546 0)
(0.660405 0.0136371 0)
(0.342797 0.00473127 0)
(0.0577573 0.000381105 0)
(0.15459 0.00107741 0)
(0.801996 0.0172106 0)
(1.05098 0.029242 0)
(1.15773 0.0368245 0)
(1.17115 0.0432189 0)
(1.15373 0.051892 0)
(1.1334 0.0619777 0)
(1.11237 0.0719286 0)
(1.08984 0.0799789 0)
(1.06617 0.0843459 0)
(1.04569 0.0835224 0)
(1.03223 0.0787219 0)
(1.02529 0.0718359 0)
(1.02436 0.0636747 0)
(1.02437 0.0537695 0)
(0.995393 0.0418454 0)
(0.875556 0.0287967 0)
(0.630345 0.0161996 0)
(0.317521 0.00556628 0)
(0.0504357 0.000433889 0)
(0.175034 0.00168812 0)
(0.8491 0.0250691 0)
(1.08566 0.0411859 0)
(1.17775 0.0521528 0)
(1.18688 0.0617396 0)
(1.16885 0.0725376 0)
(1.14641 0.0838319 0)
(1.12172 0.0939805 0)
(1.09481 0.101234 0)
(1.06649 0.103751 0)
(1.04191 0.100314 0)
(1.02503 0.0927663 0)
(1.0149 0.0832984 0)
(1.00982 0.072727 0)
(1.00432 0.0611108 0)
(0.969626 0.0482842 0)
(0.844498 0.0341316 0)
(0.595269 0.019375 0)
(0.28798 0.00651629 0)
(0.0421536 0.000482922 0)
(0.204966 0.00304693 0)
(0.913866 0.0385069 0)
(1.13341 0.0605812 0)
(1.20558 0.0752475 0)
(1.2076 0.0889431 0)
(1.18593 0.101636 0)
(1.1595 0.113228 0)
(1.13004 0.122311 0)
(1.09804 0.12739 0)
(1.06461 0.1267 0)
(1.03561 0.119549 0)
(1.01508 0.108599 0)
(1.00154 0.0962617 0)
(0.992561 0.0834453 0)
(0.982514 0.0705434 0)
(0.94221 0.0569715 0)
(0.809086 0.0409792 0)
(0.554015 0.0231766 0)
(0.254347 0.00759333 0)
(0.0331647 0.000522167 0)
(0.24622 0.0093405 1.1587e-20)
(0.999667 0.0653961 9.90038e-21)
(1.19127 0.093744 -3.42943e-21)
(1.23991 0.110783 0)
(1.23117 0.12763 -8.40654e-35)
(1.20326 0.140511 1.22053e-21)
(1.1712 0.150859 -2.15854e-21)
(1.1361 0.157585 0)
(1.09854 0.159458 4.34724e-35)
(1.05956 0.154773 -2.59484e-21)
(1.02562 0.14341 0)
(1.001 0.128898 -3.04648e-21)
(0.983641 0.113776 -8.96298e-21)
(0.970839 0.0991129 -4.22655e-21)
(0.956701 0.0853845 -1.27018e-21)
(0.909867 0.0711976 -7.54419e-22)
(0.764686 0.052052 0)
(0.502717 0.0294379 5.31147e-22)
(0.21676 0.010358 6.29649e-22)
(0.0248528 0.00102632 1.1457e-20)
(0.273561 0.0249445 9.03026e-21)
(1.07022 0.108163 1.03073e-22)
(1.23929 0.141522 9.42538e-22)
(1.27222 0.160191 0)
(1.25296 0.176234 -4.3571e-21)
(1.21838 0.187774 -4.8909e-21)
(1.18021 0.196236 -2.20009e-21)
(1.13902 0.200595 -7.71311e-21)
(1.09535 0.19943 0)
(1.05005 0.191087 1.10823e-20)
(1.00999 0.175879 1.09319e-20)
(0.980043 0.158204 3.24194e-21)
(0.957901 0.140707 1.17488e-20)
(0.940618 0.124322 1.64268e-20)
(0.920958 0.108982 0)
(0.867447 0.0929488 2.32374e-20)
(0.712145 0.0696716 3.35004e-20)
(0.45122 0.0412115 3.73432e-20)
(0.186095 0.0160963 -4.29224e-20)
(0.0188885 0.00165541 -8.1417e-22)
(0.273332 0.04111 0)
(1.11439 0.163872 1.70213e-21)
(1.27343 0.200728 0)
(1.29743 0.219494 -6.06849e-21)
(1.27024 0.23239 0)
(1.22968 0.240786 -9.77248e-21)
(1.18565 0.246047 4.53579e-21)
(1.1386 0.247078 -1.56822e-20)
(1.08904 0.242391 -3.16678e-22)
(1.03773 0.23018 5.77628e-21)
(0.992049 0.211407 2.40896e-20)
(0.957342 0.191071 -6.2453e-23)
(0.931193 0.171881 -8.55443e-21)
(0.910371 0.15441 -1.5555e-20)
(0.887429 0.138343 1.84437e-20)
(0.832311 0.120304 -3.27713e-20)
(0.682088 0.0924472 -4.36634e-21)
(0.435854 0.0580245 0)
(0.188793 0.0249338 7.03489e-24)
(0.0214176 0.00295811 0)
(0.266125 0.0549611 2.56666e-20)
(1.13731 0.223066 -1.19674e-20)
(1.29523 0.264982 -8.53604e-21)
(1.31403 0.283476 2.95503e-21)
(1.28142 0.292715 -4.91002e-21)
(1.23619 0.297317 2.0594e-20)
(1.18723 0.298773 9.53043e-21)
(1.13511 0.295953 0)
(1.0803 0.287371 -2.92906e-20)
(1.02351 0.27123 0)
(0.972831 0.248988 -1.27051e-20)
(0.934073 0.226222 -1.55815e-20)
(0.904727 0.20559 -9.33914e-21)
(0.881342 0.187205 -1.13182e-20)
(0.856643 0.170217 0)
(0.803199 0.150754 0)
(0.665523 0.119732 -2.86578e-20)
(0.438942 0.079673 5.68074e-21)
(0.202408 0.0369126 -3.33605e-21)
(0.0267194 0.00516395 -3.94966e-21)
(0.258488 0.0673532 -1.25859e-20)
(1.14659 0.282063 0)
(1.30748 0.330343 1.86829e-20)
(1.32303 0.348656 8.60299e-21)
(1.28655 0.354392 1.11567e-20)
(1.23779 0.35519 0)
(1.18495 0.352761 9.46497e-21)
(1.12861 0.346012 1.75058e-20)
(1.06932 0.33346 1.50986e-20)
(1.00783 0.313315 2.72698e-20)
(0.952839 0.287657 0)
(0.910724 0.262579 -3.36445e-20)
(0.878858 0.240456 -2.01974e-20)
(0.853578 0.221321 -1.19167e-20)
(0.827935 0.203708 7.31115e-20)
(0.777558 0.183317 8.76065e-21)
(0.653446 0.1495 4.14872e-20)
(0.445818 0.103105 -1.97574e-19)
(0.216398 0.0508485 1.17344e-19)
(0.0319395 0.00784616 -1.43248e-19)
(0.251615 0.0785502 -8.88991e-21)
(1.14746 0.339061 2.36737e-21)
(1.31283 0.395174 -2.30699e-21)
(1.32601 0.413295 -9.66041e-21)
(1.28665 0.415745 -9.96986e-21)
(1.23513 0.412918 3.44578e-22)
(1.1792 0.40675 -1.02441e-20)
(1.11939 0.396194 1.8204e-20)
(1.05631 0.379762 -3.25011e-20)
(0.990824 0.355671 0)
(0.932236 0.326592 -1.52911e-20)
(0.88741 0.299127 -3.14727e-22)
(0.853598 0.275499 -2.20522e-20)
(0.826971 0.255501 0)
(0.801006 0.237448 -1.58132e-20)
(0.75377 0.216029 -3.7767e-20)
(0.641489 0.180167 1.01931e-19)
(0.449143 0.12733 -1.00821e-19)
(0.225954 0.0650935 1.43561e-19)
(0.0358598 0.0106389 -1.51098e-19)
(0.246112 0.0890213 -1.05736e-22)
(1.14322 0.393435 -1.66065e-21)
(1.31308 0.458434 -7.80376e-21)
(1.32434 0.476321 4.29235e-21)
(1.28277 0.475811 -5.08513e-21)
(1.22907 0.469592 0)
(1.17062 0.459914 -9.74479e-21)
(1.10788 0.445754 -1.91114e-20)
(1.04156 0.425592 -1.69453e-20)
(0.972614 0.397638 0)
(0.910989 0.365127 -1.58825e-20)
(0.863995 0.33519 -1.95343e-20)
(0.828739 0.30992 2.38587e-20)
(0.801265 0.28885 -1.44533e-20)
(0.77534 0.270171 -6.87484e-20)
(0.731003 0.247785 4.12343e-20)
(0.627891 0.209814 1.25025e-20)
(0.446838 0.15034 0)
(0.228631 0.0779519 -1.382e-19)
(0.0376887 0.0130298 -5.12989e-21)
(0.241965 0.0990573 -6.19289e-22)
(1.13599 0.445058 1.21762e-21)
(1.30945 0.51914 3.9084e-21)
(1.31914 0.537078 1.465e-20)
(1.27584 0.533956 -1.94872e-20)
(1.22041 0.524667 2.08054e-20)
(1.15983 0.511756 2.09338e-20)
(1.09461 0.494218 -3.05321e-20)
(1.02543 0.470519 1.02995e-20)
(0.95341 0.438802 -6.69613e-20)
(0.889054 0.402829 -1.78706e-20)
(0.840283 0.370216 0)
(0.803996 0.343098 2.57977e-20)
(0.776095 0.320732 3.0806e-20)
(0.750537 0.301102 3.68763e-20)
(0.708651 0.277536 -4.45817e-20)
(0.612107 0.23691 -1.32676e-20)
(0.439059 0.17041 1.5693e-20)
(0.226112 0.0882343 0)
(0.0376956 0.0147966 -1.1084e-20)
(0.238982 0.108756 1.93341e-21)
(1.12728 0.493983 -2.84372e-21)
(1.3031 0.577099 -3.81095e-21)
(1.31131 0.595244 9.36373e-21)
(1.26661 0.5898 -9.20653e-21)
(1.20977 0.577757 -8.0367e-22)
(1.14741 0.561929 -2.27566e-20)
(1.08001 0.541294 -1.10162e-20)
(1.00829 0.514264 -2.93649e-20)
(0.933426 0.478926 4.34541e-23)
(0.866607 0.439442 -5.59392e-20)
(0.816205 0.404005 4.67687e-20)
(0.779158 0.374639 -2.81959e-20)
(0.751077 0.350653 3.378e-20)
(0.725975 0.329742 0)
(0.68599 0.304595 -2.404e-20)
(0.594078 0.260762 -1.98291e-22)
(0.426565 0.18705 -6.79647e-20)
(0.219058 0.0957475 -1.00585e-20)
(0.0363109 0.0158756 0)
(0.237029 0.118299 0)
(1.1179 0.540447 -2.32125e-21)
(1.29479 0.632236 -5.84327e-21)
(1.30158 0.650656 -9.04423e-21)
(1.25573 0.643145 -1.1073e-20)
(1.19771 0.628662 0)
(1.13383 0.610224 -1.0602e-20)
(1.06453 0.586781 -2.41695e-22)
(0.990488 0.556682 6.28052e-20)
(0.912954 0.517883 -9.20515e-21)
(0.843755 0.474903 -4.03169e-20)
(0.791869 0.436422 2.43687e-20)
(0.754117 0.404622 -4.02138e-22)
(0.725934 0.37867 3.58911e-20)
(0.701269 0.356103 2.21077e-20)
(0.662722 0.328931 -5.18776e-20)
(0.573754 0.281085 6.18599e-20)
(0.410128 0.200159 1.83768e-20)
(0.208295 0.100603 7.61857e-20)
(0.0337538 0.0162291 -2.06247e-19)
(0.235955 0.127801 -1.21855e-21)
(1.10841 0.584598 4.30673e-22)
(1.28517 0.684575 6.411e-22)
(1.29055 0.70325 7.98678e-21)
(1.2437 0.693888 0)
(1.18469 0.677256 -1.00884e-20)
(1.11951 0.656509 3.5212e-20)
(1.0485 0.630554 2.41591e-20)
(0.972313 0.597672 0)
(0.892211 0.555638 -1.31884e-19)
(0.820637 0.509185 1.08669e-19)
(0.7672 0.467528 0)
(0.728671 0.432974 3.278e-20)
(0.700395 0.404757 -4.01031e-22)
(0.676111 0.380193 -7.04811e-20)
(0.638487 0.350519 2.76602e-20)
(0.551283 0.297949 0)
(0.390569 0.209593 9.89674e-20)
(0.194779 0.103042 0)
(0.0304849 0.015975 -9.73747e-20)
(0.235579 0.137271 2.00321e-21)
(1.09914 0.626583 2.12595e-21)
(1.27467 0.734137 1.02766e-21)
(1.27864 0.753035 0)
(1.23093 0.74202 -1.00837e-20)
(1.17109 0.723497 0)
(1.10476 0.70071 -3.51497e-20)
(1.03222 0.672539 -1.14063e-20)
(0.954022 0.637181 1.11191e-20)
(0.871401 0.592169 -6.51613e-20)
(0.797288 0.542348 1.12405e-20)
(0.742091 0.497375 0)
(0.702764 0.459851 -6.9971e-20)
(0.674321 0.429055 4.11926e-22)
(0.650307 0.402162 0)
(0.613094 0.369498 4.704e-22)
(0.526572 0.311489 8.97737e-20)
(0.368121 0.215424 -8.55267e-20)
(0.179141 0.103032 2.53398e-20)
(0.0267284 0.0151411 0)
(0.235562 0.146594 0)
(1.09025 0.66648 3.58067e-21)
(1.26368 0.781008 8.22599e-22)
(1.26622 0.800065 -4.57293e-22)
(1.21777 0.787565 -3.98927e-21)
(1.15721 0.767385 -2.24598e-20)
(1.08988 0.742812 1.301e-20)
(1.01594 0.712705 -1.32523e-20)
(0.935832 0.675175 4.93181e-20)
(0.850659 0.627488 -1.03841e-19)
(0.773857 0.574466 -6.66466e-22)
(0.716739 0.526147 -3.07969e-20)
(0.676346 0.485376 1.13355e-19)
(0.647634 0.45173 -4.87166e-22)
(0.62375 0.42219 -5.4593e-20)
(0.586459 0.385994 -9.78933e-20)
(0.499581 0.321838 0)
(0.343183 0.217865 0)
(0.161802 0.100565 2.73699e-20)
(0.0226704 0.0137954 -1.62331e-20)
(0.236011 0.155873 4.02814e-21)
(1.08188 0.704179 -9.2591e-21)
(1.25241 0.825281 -9.73436e-22)
(1.25354 0.844403 0)
(1.20445 0.83057 -3.20535e-22)
(1.14328 0.808943 -2.12268e-20)
(1.07508 0.782819 3.18486e-20)
(0.999868 0.751045 5.26114e-20)
(0.917928 0.711656 6.41157e-20)
(0.830208 0.661647 -8.47602e-20)
(0.750573 0.605667 -9.28867e-20)
(0.691167 0.553988 8.23076e-20)
(0.649417 0.509775 0)
(0.620249 0.472973 -2.47763e-20)
(0.59636 0.440404 -5.9113e-20)
(0.558532 0.400035 -7.03237e-20)
(0.470457 0.32881 -8.39667e-20)
(0.316009 0.216803 2.49447e-20)
(0.142999 0.0956211 -1.47276e-20)
(0.0183237 0.0119358 7.14718e-23)
(0.236645 0.164904 0)
(1.07402 0.740184 0)
(1.24105 0.867031 5.39789e-22)
(1.24082 0.886136 0)
(1.19119 0.871119 1.04815e-20)
(1.12949 0.848226 1.4943e-20)
(1.06054 0.820757 0)
(0.984174 0.787572 6.31967e-21)
(0.90051 0.746634 1.06917e-19)
(0.810251 0.694674 -1.94537e-19)
(0.72755 0.636056 0)
(0.665469 0.5811 -5.28417e-20)
(0.621977 0.533265 -5.95169e-22)
(0.592103 0.492951 -4.86977e-22)
(0.568047 0.456861 6.31609e-20)
(0.52926 0.411538 -8.33027e-23)
(0.439305 0.332334 -1.80901e-19)
(0.286636 0.212071 5.37573e-20)
(0.123163 0.0883719 1.59551e-20)
(0.013946 0.00970362 0)
(0.237271 0.173749 -1.93468e-20)
(1.06645 0.774463 -8.04037e-21)
(1.22973 0.90634 -7.51665e-21)
(1.22822 0.925364 -1.41003e-21)
(1.17812 0.909276 1.52681e-20)
(1.11599 0.885289 0)
(1.0464 0.85667 1.94551e-20)
(0.969004 0.82231 -1.39535e-20)
(0.883718 0.780123 7.73216e-22)
(0.79093 0.726592 1.42625e-20)
(0.704952 0.665715 1.19894e-19)
(0.639824 0.607696 -1.85387e-20)
(0.594068 0.556117 -6.97363e-20)
(0.563078 0.511858 -2.88683e-20)
(0.538648 0.471524 3.44223e-20)
(0.498598 0.42026 -5.65315e-23)
(0.406471 0.33213 4.88939e-20)
(0.255767 0.203706 -1.15764e-19)
(0.103077 0.0792156 1.37523e-19)
(0.00971472 0.00723935 2.02896e-20)
(0.237636 0.182299 7.80431e-21)
(1.0592 0.807088 -4.85614e-21)
(1.21855 0.943319 1.25976e-21)
(1.21585 0.962202 1.79013e-21)
(1.16536 0.945145 -1.88783e-21)
(1.10288 0.920196 -2.63928e-20)
(1.03276 0.8906 5.84938e-21)
(0.954458 0.855277 -5.82146e-20)
(0.867664 0.81212 -1.17631e-19)
(0.772376 0.757408 -1.15706e-19)
(0.682991 0.694723 0)
(0.61438 0.633939 -8.10458e-20)
(0.565769 0.57866 1.00313e-19)
(0.53302 0.529964 0)
(0.507855 0.484338 -7.3683e-20)
(0.466379 0.425739 4.43237e-20)
(0.372227 0.327708 -5.25647e-20)
(0.224511 0.191798 -6.24842e-20)
(0.0836918 0.0686804 -1.10962e-19)
(0.00588483 0.00473884 -8.76178e-20)
(0.238306 0.190647 -9.2944e-21)
(1.05212 0.838041 5.21235e-21)
(1.20759 0.978033 1.11036e-20)
(1.20378 0.996733 4.25799e-21)
(1.15298 0.978809 4.68239e-21)
(1.09024 0.953028 -1.47117e-20)
(1.01971 0.922597 1.92971e-20)
(0.940605 0.886511 -5.99121e-20)
(0.852423 0.842646 -6.95285e-20)
(0.75473 0.787143 1.20816e-19)
(0.661816 0.723126 2.62474e-19)
(0.589339 0.659993 0)
(0.537194 0.601196 0)
(0.501763 0.547706 -3.32424e-20)
(0.475113 0.49533 0)
(0.432101 0.427161 9.5594e-20)
(0.336984 0.317971 1.13447e-19)
(0.1944 0.17606 0)
(0.0663957 0.0573118 0)
(0.00269249 0.00241336 9.4366e-20)
(0.238577 0.198462 1.10852e-20)
(1.04524 0.867315 8.63417e-21)
(1.19692 1.0106 8.33393e-21)
(1.19207 1.02908 -6.15432e-21)
(1.14105 1.01037 3.43498e-21)
(1.07813 0.983852 1.58243e-20)
(1.00727 0.952717 -2.65136e-20)
(0.927503 0.916041 7.6144e-23)
(0.83807 0.871707 -1.00217e-21)
(0.738088 0.815783 -1.18906e-21)
(0.641599 0.750945 1.35009e-19)
(0.56491 0.685949 0)
(0.508581 0.624 1.01086e-19)
(0.469249 0.565661 7.0761e-20)
(0.439635 0.504927 1.72219e-19)
(0.39451 0.423627 5.14323e-20)
(0.30073 0.300563 -6.14236e-20)
(0.168473 0.15452 -3.61657e-20)
(0.055431 0.0449064 0)
(0.0011075 0.000529316 1.01596e-19)
(0.239163 0.206248 -2.6133e-20)
(1.03853 0.895039 0)
(1.18652 1.04107 1.09434e-20)
(1.18076 1.05933 -6.05181e-21)
(1.12961 1.0399 -1.23534e-21)
(1.06656 1.01275 -1.80989e-20)
(0.995503 0.981013 5.20179e-20)
(0.915181 0.943902 -4.93326e-21)
(0.824638 0.89931 0)
(0.722518 0.843284 -1.33012e-19)
(0.622504 0.778171 -2.92786e-19)
(0.541336 0.71186 1.18962e-20)
(0.480245 0.647269 1.38672e-19)
(0.435611 0.584487 0)
(0.400611 0.514218 1.15976e-19)
(0.351202 0.415192 0)
(0.260531 0.272018 0)
(0.149093 0.11736 -3.93585e-20)
(0.0713964 0.0186715 0)
(0.0241493 0.00585576 2.72722e-20)
(0.239276 0.213408 -3.00803e-20)
(1.03198 0.921466 0)
(1.17641 1.06964 1.91678e-20)
(1.16981 1.08769 0)
(1.11862 1.06767 -3.68473e-22)
(1.05549 1.04 0)
(0.984329 1.00779 2.68669e-21)
(0.903545 0.970431 8.20727e-21)
(0.812011 0.925822 8.67448e-21)
(0.707871 0.870036 -1.45882e-19)
(0.604406 0.805252 8.8045e-21)
(0.518458 0.738294 9.54397e-20)
(0.451981 0.671574 1.35085e-19)
(0.40041 0.605136 1.82144e-20)
(0.356663 0.525261 9.06439e-20)
(0.298273 0.404365 0)
(0.205538 0.233725 1.30312e-19)
(0.108049 0.0576163 -7.68821e-20)
(0.0366699 0.0591275 8.96782e-20)
(-0.0367143 0.437933 -1.06444e-19)
(0.239298 0.220338 2.54416e-20)
(1.02538 0.946472 3.71569e-20)
(1.16651 1.09665 0)
(1.15911 1.11461 1.08557e-21)
(1.10791 1.09424 3.1369e-21)
(1.04467 1.06628 2.40707e-20)
(0.973457 1.03385 1.83238e-20)
(0.892217 0.996568 0)
(0.799696 0.952343 5.77767e-20)
(0.693515 0.89735 -7.64058e-21)
(0.586447 0.833683 0)
(0.495171 0.767051 0)
(0.422479 0.698736 1.20237e-19)
(0.362254 0.62932 -5.60348e-20)
(0.305511 0.541475 -9.11385e-20)
(0.23199 0.397111 0)
(0.115096 0.218159 6.62397e-20)
(0.0140587 0.455489 -7.7536e-20)
(0.0379041 1.88463 -4.37942e-20)
(0.065863 2.80206 -5.33086e-20)
(0.238985 0.226667 -1.97728e-20)
(1.0188 0.970235 -4.89267e-20)
(1.15683 1.12207 1.2113e-20)
(1.14865 1.13995 8.32388e-21)
(1.09755 1.11942 0)
(1.03418 1.09132 1.42937e-20)
(0.963078 1.05887 2.54044e-20)
(0.881367 1.02188 -3.9839e-21)
(0.787947 0.978353 8.56568e-21)
(0.67981 0.924605 1.38543e-19)
(0.569212 0.862732 1.46929e-19)
(0.472463 0.797715 1.05687e-19)
(0.392888 0.728309 1.20156e-19)
(0.323253 0.655596 -1.3022e-19)
(0.253936 0.565164 -1.36584e-19)
(0.152372 0.42901 0)
(0.0549801 0.856464 0)
(0.102748 2.55177 3.67426e-20)
(0.10578 3.19326 0)
(0.106304 3.38251 9.66278e-20)
(0.241425 0.232525 0)
(1.01248 0.99306 0)
(1.14709 1.14578 0)
(1.13825 1.16351 2.8387e-21)
(1.08727 1.14299 3.83429e-21)
(1.0238 1.11497 7.45601e-21)
(0.953116 1.08275 1.64283e-20)
(0.870927 1.04625 -3.89644e-21)
(0.776703 1.00368 7.21279e-20)
(0.66675 0.95164 -2.08555e-21)
(0.552781 0.892169 2.89151e-19)
(0.450752 0.830246 -1.21035e-20)
(0.363636 0.760726 1.44874e-20)
(0.285541 0.681331 1.87128e-20)
(0.197437 0.594829 1.42735e-22)
(0.115491 0.997424 3.27039e-22)
(0.145373 2.71035 -1.87958e-19)
(0.154431 3.29131 -7.21461e-20)
(0.141412 3.42437 3.87836e-20)
(0.127192 3.44581 -4.38113e-20)
(0.163292 0.177153 1.25671e-20)
(1.00165 1.01776 0)
(1.13725 1.16803 -2.68273e-20)
(1.12828 1.18562 -2.49823e-20)
(1.0775 1.16542 1.41119e-20)
(1.01417 1.13767 -6.65471e-21)
(0.943361 1.10552 -1.71072e-20)
(0.860935 1.06969 4.43559e-20)
(0.766095 1.02831 -5.9335e-20)
(0.654637 0.978416 0)
(0.537581 0.921878 1.42004e-19)
(0.430566 0.864307 -8.5703e-20)
(0.335346 0.798784 0)
(0.24973 0.712173 1.78517e-20)
(0.163462 0.860944 4.282e-20)
(0.160055 2.48627 -5.0179e-20)
(0.217379 3.3268 5.77915e-20)
(0.195809 3.44119 3.15441e-20)
(0.161777 3.46072 3.67354e-20)
(0.139636 3.46946 5.8913e-20)
(0.276158 0.270556 -2.39651e-20)
(0.98437 1.02758 0)
(1.11942 1.19328 3.01932e-20)
(1.11447 1.21861 3.00517e-20)
(1.06196 1.19883 -1.91855e-20)
(0.998264 1.1716 1.37237e-21)
(0.92652 1.14079 1.70977e-20)
(0.843531 1.1062 3.42807e-21)
(0.747464 1.06703 5.65097e-20)
(0.633472 1.02118 1.19197e-19)
(0.511634 0.970799 8.00544e-21)
(0.397388 0.921663 7.54584e-20)
(0.284837 0.868953 1.34731e-20)
(0.222407 1.02002 -1.69739e-20)
(0.231147 2.34871 -3.93895e-20)
(0.28598 3.33514 3.97608e-20)
(0.270668 3.47457 -4.40217e-20)
(0.233889 3.49303 -2.5799e-20)
(0.197222 3.51703 -2.3688e-20)
(0.148846 3.50976 -3.51094e-21)
(0.266069 0.269264 0)
(0.981591 1.05008 9.49137e-21)
(1.11138 1.21649 -6.44952e-21)
(1.10463 1.24162 -3.81655e-21)
(1.05207 1.22179 -1.46918e-20)
(0.988514 1.1948 -9.4661e-23)
(0.916511 1.16422 -9.21133e-21)
(0.833449 1.13049 3.08198e-21)
(0.737078 1.09282 -5.88371e-20)
(0.622178 1.04987 -2.99256e-21)
(0.498176 1.00425 -2.54652e-19)
(0.380459 0.960936 1.06941e-20)
(0.274205 0.942379 -1.27323e-20)
(0.25954 1.53239 -1.56233e-20)
(0.324229 3.11273 3.68583e-21)
(0.343455 3.47783 4.97085e-22)
(0.299591 3.5303 6.53497e-20)
(0.263012 3.54992 3.34805e-20)
(0.214663 3.5697 -1.12733e-20)
(0.160684 3.56414 -1.74917e-20)
(0.251626 0.266817 2.50259e-20)
(0.977808 1.07506 6.51493e-20)
(1.10288 1.24167 -1.858e-20)
(1.09441 1.26616 -1.44435e-20)
(1.04184 1.24618 0)
(0.97843 1.2192 6.79027e-21)
(0.906425 1.18889 -1.01505e-20)
(0.823558 1.15593 2.71533e-21)
(0.727198 1.11983 -6.49563e-21)
(0.611913 1.07995 -1.07356e-19)
(0.486532 1.03954 -1.17146e-19)
(0.367462 1.00353 -8.81782e-20)
(0.281143 1.07945 -9.48489e-20)
(0.324494 2.22473 9.78267e-20)
(0.407021 3.39528 8.42043e-20)
(0.384692 3.54136 0)
(0.33235 3.57765 0)
(0.293968 3.6117 -8.62281e-21)
(0.242702 3.66048 0)
(0.170516 3.63839 -1.43382e-20)
(0.241215 0.268211 -3.81386e-20)
(0.971986 1.10082 -5.61832e-20)
(1.09302 1.26805 0)
(1.08304 1.2916 1.28911e-21)
(1.03049 1.27123 -1.85216e-20)
(0.967344 1.24413 1.5089e-20)
(0.895658 1.21408 -4.59959e-21)
(0.81322 1.18181 1.69121e-21)
(0.717135 1.1472 -4.18024e-20)
(0.601889 1.11035 5.41348e-21)
(0.475877 1.07532 0)
(0.35836 1.05005 0)
(0.311536 1.33228 -8.61259e-20)
(0.403891 2.89614 3.51632e-20)
(0.477454 3.50702 4.50381e-20)
(0.424472 3.58011 0)
(0.380383 3.63395 -3.95573e-21)
(0.333267 3.68519 -5.31208e-21)
(0.281758 3.65381 -1.77929e-20)
(0.183297 3.63087 1.0222e-21)