/*--------------------------------*- C++ -*----------------------------------*\
  =========                 |
  \\      /  F ield         | OpenFOAM: The Open Source CFD Toolbox
   \\    /   O peration     | Website:  https://openfoam.org
    \\  /    A nd           | Version:  6
     \\/     M anipulation  |
\*---------------------------------------------------------------------------*/
FoamFile
{
    version     2.0;
    format      ascii;
    class       volVectorField;
    location    "101";
    object      U;
}
// * * * * * * * * * * * * * * * * * * * * * * * * * * * * * * * * * * * * * //

dimensions      [0 1 -1 0 0 0 0];

internalField   nonuniform List<vector> 
8800
(
(0.987183 -0.0766651 0)
(1.00189 -0.05519 0)
(0.999722 -0.0285478 0)
(1.00003 -0.0151428 0)
(1.0001 -0.0085441 0)
(1.00012 -0.00504624 0)
(1.00008 -0.00300035 0)
(1.00002 -0.00169914 0)
(0.99999 -0.000792352 0)
(1.00006 -7.54871e-05 0)
(0.999959 0.000657609 0)
(1.00001 0.00142509 0)
(1.00006 0.00242859 0)
(1.00007 0.00399834 0)
(1.00006 0.00663246 0)
(1.00005 0.011372 0)
(0.999958 0.0208157 0)
(0.999175 0.0386704 0)
(1.0071 0.0724575 0)
(0.771215 0.0366617 0)
(0.363081 -0.0160162 0)
(1.04332 -0.0768105 0)
(1.0846 -0.0704382 0)
(1.0452 -0.0535314 0)
(1.02329 -0.0388814 0)
(1.01203 -0.0262021 0)
(1.00644 -0.0168378 0)
(1.0036 -0.0103014 0)
(1.00215 -0.0056363 0)
(1.00143 -0.00197278 0)
(1.00128 0.00135005 0)
(1.00167 0.00473944 0)
(1.0027 0.00865923 0)
(1.00468 0.013977 0)
(1.00861 0.0216851 0)
(1.01657 0.0326513 0)
(1.03252 0.0465626 0)
(1.06269 0.0616787 0)
(1.09187 0.0761059 0)
(0.838664 0.0565646 0)
(0.216876 -0.00242849 0)
(1.07592 -0.0501206 0)
(1.09989 -0.0482884 0)
(1.06466 -0.0404362 0)
(1.04006 -0.0335728 0)
(1.02394 -0.0260445 0)
(1.01413 -0.0184519 0)
(1.00856 -0.0116206 0)
(1.00558 -0.00574164 0)
(1.0043 -0.000315776 0)
(1.00464 0.00493562 0)
(1.00661 0.0103261 0)
(1.01064 0.0163826 0)
(1.01794 0.0233998 0)
(1.03053 0.0308613 0)
(1.05062 0.0378838 0)
(1.08037 0.0445634 0)
(1.10627 0.0513714 0)
(0.942493 0.0416311 0)
(0.216112 0.00246308 0)
(0.175224 -0.000814892 0)
(1.01776 -0.0354611 0)
(1.10524 -0.0413422 0)
(1.0783 -0.0360176 0)
(1.0535 -0.0300743 0)
(1.03624 -0.0244874 0)
(1.02403 -0.0187434 0)
(1.0159 -0.0126459 0)
(1.01102 -0.0064419 0)
(1.00879 -9.44242e-05 0)
(1.00935 0.00616891 0)
(1.01266 0.0121648 0)
(1.01889 0.0179533 0)
(1.02875 0.0235167 0)
(1.04318 0.0288097 0)
(1.0637 0.0342804 0)
(1.09356 0.040257 0)
(1.09339 0.0420062 0)
(0.82703 0.0229342 0)
(0.173936 0.000855114 0)
(0.154053 -0.000608532 0)
(0.956337 -0.0254254 0)
(1.10353 -0.0350716 0)
(1.08773 -0.0325806 0)
(1.06179 -0.0279151 0)
(1.04417 -0.0228748 0)
(1.03169 -0.0176058 0)
(1.02282 -0.0120498 0)
(1.01698 -0.00609138 0)
(1.0141 0.000395313 0)
(1.01475 0.00686765 0)
(1.01878 0.0127462 0)
(1.0258 0.0179821 0)
(1.03605 0.0228845 0)
(1.0506 0.0276315 0)
(1.07184 0.032144 0)
(1.10004 0.0360646 0)
(1.06798 0.0341001 0)
(0.739293 0.014343 0)
(0.152107 0.00065425 0)
(0.139719 -0.000464425 0)
(0.899559 -0.0190319 0)
(1.09592 -0.0299981 0)
(1.09584 -0.0290848 0)
(1.06935 -0.0253352 0)
(1.05091 -0.0211732 0)
(1.03796 -0.0163704 0)
(1.02883 -0.011051 0)
(1.02267 -0.0052775 0)
(1.01949 0.00107304 0)
(1.02007 0.00739852 0)
(1.02422 0.0130255 0)
(1.03135 0.017918 0)
(1.0418 0.022365 0)
(1.05691 0.0263144 0)
(1.07911 0.0297519 0)
(1.1022 0.0323576 0)
(1.03576 0.028217 0)
(0.672548 0.010251 0)
(0.136965 0.000517185 0)
(0.129227 -0.000358577 0)
(0.85014 -0.0146559 0)
(1.08364 -0.0258368 0)
(1.10158 -0.0260953 0)
(1.07626 -0.0227847 0)
(1.05729 -0.0191111 0)
(1.04387 -0.014826 0)
(1.03437 -0.00985977 0)
(1.02797 -0.00428811 0)
(1.02457 0.00189039 0)
(1.02499 0.00800754 0)
(1.02909 0.0133563 0)
(1.03631 0.0178229 0)
(1.04703 0.0216613 0)
(1.06253 0.0249404 0)
(1.08516 0.0278508 0)
(1.10121 0.0295762 0)
(1.00064 0.0237362 0)
(0.620475 0.00789926 0)
(0.125488 0.00042066 0)
(0.121245 -0.000277339 0)
(0.808226 -0.011482 0)
(1.06852 -0.0221924 0)
(1.1052 -0.02341 0)
(1.08258 -0.0205043 0)
(1.06319 -0.0170369 0)
(1.04949 -0.0130483 0)
(1.0397 -0.00840825 0)
(1.033 -0.00309725 0)
(1.02933 0.0028714 0)
(1.02955 0.00874586 0)
(1.0336 0.0137451 0)
(1.04086 0.0177229 0)
(1.05165 0.0210506 0)
(1.06737 0.0239124 0)
(1.09033 0.0265153 0)
(1.0973 0.0273318 0)
(0.965078 0.0202389 0)
(0.578507 0.00638004 0)
(0.116309 0.000351199 0)
(0.115088 -0.000213441 0)
(0.773048 -0.00910066 0)
(1.05198 -0.0189735 0)
(1.10769 -0.0209109 0)
(1.08853 -0.0183661 0)
(1.06875 -0.0150328 0)
(1.05481 -0.0111936 0)
(1.04481 -0.00675028 0)
(1.03784 -0.00166679 0)
(1.03387 0.00405967 0)
(1.03384 0.00964097 0)
(1.03775 0.0142629 0)
(1.04491 0.0178024 0)
(1.05568 0.0207393 0)
(1.07158 0.0232685 0)
(1.09419 0.0255157 0)
(1.09049 0.0255005 0)
(0.930356 0.0175615 0)
(0.543615 0.00535143 0)
(0.108696 0.000301781 0)
(0.110324 -0.000161735 0)
(0.743673 -0.00724436 0)
(1.03507 -0.0161083 0)
(1.10927 -0.0185409 0)
(1.09422 -0.01629 0)
(1.07415 -0.0130359 0)
(1.05994 -0.00927072 0)
(1.04973 -0.00493223 0)
(1.04251 -6.11324e-06 0)
(1.03822 0.00549213 0)
(1.03786 0.0107682 0)
(1.04153 0.0150295 0)
(1.04851 0.0181764 0)
(1.05921 0.0207654 0)
(1.07529 0.0229953 0)
(1.09672 0.0248504 0)
(1.08116 0.0240409 0)
(0.89701 0.0155552 0)
(0.513729 0.00464453 0)
(0.102164 0.000267724 0)
(0.106672 -0.000118427 0)
(0.719294 -0.00573854 0)
(1.01866 -0.0135238 0)
(1.11008 -0.0162351 0)
(1.09983 -0.014241 0)
(1.0795 -0.0109831 0)
(1.06498 -0.00722929 0)
(1.05454 -0.00293297 0)
(1.04704 0.0018984 0)
(1.04237 0.00721387 0)
(1.0416 0.012211 0)
(1.04495 0.0161352 0)
(1.05169 0.0189044 0)
(1.06229 0.0211571 0)
(1.07854 0.0231096 0)
(1.09785 0.0245329 0)
(1.06966 0.0229535 0)
(0.865126 0.014105 0)
(0.487375 0.00416956 0)
(0.0963662 0.000246028 0)
(0.103948 -8.05115e-05 0)
(0.69928 -0.00446636 0)
(1.00335 -0.0111513 0)
(1.11028 -0.0139565 0)
(1.10532 -0.0121327 0)
(1.08488 -0.00881891 0)
(1.07004 -0.00501431 0)
(1.0593 -0.000696441 0)
(1.05146 0.00410076 0)
(1.04635 0.00928672 0)
(1.04507 0.0140412 0)
(1.04802 0.0176465 0)
(1.05448 0.0200427 0)
(1.06496 0.0219655 0)
(1.08131 0.023643 0)
(1.09788 0.0247195 0)
(1.05622 0.0222583 0)
(0.834496 0.0131291 0)
(0.463431 0.00387273 0)
(0.0910359 0.000234349 0)
(0.102036 -4.52597e-05 0)
(0.683177 -0.0033399 0)
(0.989625 -0.00891847 0)
(1.11009 -0.0116158 0)
(1.11068 -0.00988018 0)
(1.09037 -0.00647959 0)
(1.07518 -0.00255985 0)
(1.0641 0.00184909 0)
(1.05584 0.00667761 0)
(1.05018 0.0117891 0)
(1.0483 0.0163357 0)
(1.05077 0.0196352 0)
(1.05688 0.0216582 0)
(1.0672 0.0232488 0)
(1.08356 0.0246309 0)
(1.097 0.0252447 0)
(1.04095 0.0219626 0)
(0.804736 0.0125513 0)
(0.441005 0.00371538 0)
(0.085963 0.000230519 0)
(0.100879 -1.03685e-05 0)
(0.670697 -0.00228866 0)
(0.977847 -0.00674927 0)
(1.10984 -0.00915532 0)
(1.11605 -0.00742176 0)
(1.09607 -0.003887 0)
(1.08049 0.000216332 0)
(1.06901 0.00478917 0)
(1.06024 0.00971981 0)
(1.05391 0.0148145 0)
(1.0513 0.0191867 0)
(1.0532 0.0221913 0)
(1.05889 0.023839 0)
(1.06901 0.0250893 0)
(1.08535 0.0261745 0)
(1.09476 0.0262611 0)
(1.02387 0.0220748 0)
(0.775365 0.0123269 0)
(0.419368 0.00367357 0)
(0.0809801 0.000233283 0)
(0.100472 2.66189e-05 0)
(0.661702 -0.00125557 0)
(0.968346 -0.00456978 0)
(1.10989 -0.00651319 0)
(1.12158 -0.00468292 0)
(1.10207 -0.000951654 0)
(1.08606 0.00340956 0)
(1.0741 0.00822395 0)
(1.06472 0.0133329 0)
(1.05758 0.0184737 0)
(1.05409 0.0227062 0)
(1.0553 0.0254238 0)
(1.06051 0.0266999 0)
(1.07037 0.0275871 0)
(1.08657 0.0283353 0)
(1.09109 0.0277975 0)
(1.00485 0.0226405 0)
(0.745831 0.0124321 0)
(0.397889 0.00373413 0)
(0.0759445 0.000241932 0)
(0.100826 6.07225e-05 0)
(0.656186 -0.000182128 0)
(0.961434 -0.00230395 0)
(1.11057 -0.00362071 0)
(1.12744 -0.00157795 0)
(1.10847 0.00242822 0)
(1.09199 0.00713133 0)
(1.07946 0.0122738 0)
(1.06934 0.0176439 0)
(1.06123 0.0228975 0)
(1.05668 0.0270232 0)
(1.05706 0.0294648 0)
(1.06171 0.0303616 0)
(1.07125 0.0308634 0)
(1.08693 0.0312314 0)
(1.08564 0.0299446 0)
(0.983648 0.0236976 0)
(0.715511 0.0128515 0)
(0.375992 0.00388697 0)
(0.0707299 0.000255546 0)
(0.102033 0.000116297 0)
(0.654316 0.000977628 0)
(0.95744 0.000127961 0)
(1.11228 -0.000397458 0)
(1.13384 0.00199433 0)
(1.1154 0.0063737 0)
(1.0984 0.0115162 0)
(1.0852 0.0170857 0)
(1.07417 0.0228086 0)
(1.06488 0.0282439 0)
(1.05907 0.0322961 0)
(1.05847 0.0344696 0)
(1.06244 0.0349609 0)
(1.07159 0.0350559 0)
(1.08629 0.035001 0)
(1.07817 0.0327872 0)
(0.959875 0.0252846 0)
(0.683714 0.0135741 0)
(0.353132 0.00412223 0)
(0.0652264 0.000273092 0)
(0.104236 0.000168374 0)
(0.656247 0.00211125 0)
(0.956731 0.0028201 0)
(1.11549 0.00326149 0)
(1.14099 0.00614774 0)
(1.12303 0.0110286 0)
(1.10544 0.0167257 0)
(1.09141 0.0228364 0)
(1.07929 0.0290125 0)
(1.06859 0.0346986 0)
(1.06127 0.0386981 0)
(1.05952 0.0405696 0)
(1.06267 0.0406572 0)
(1.07133 0.0403173 0)
(1.0844 0.0397418 0)
(1.06831 0.036429 0)
(0.932982 0.027446 0)
(0.649692 0.0145901 0)
(0.328805 0.00442899 0)
(0.0593448 0.000293318 0)
(0.107545 0.000232072 0)
(0.662623 0.00360259 0)
(0.959647 0.00578077 0)
(1.12067 0.00749501 0)
(1.14917 0.0110251 0)
(1.13154 0.0165776 0)
(1.11325 0.0229668 0)
(1.09823 0.0297492 0)
(1.08477 0.0364845 0)
(1.07236 0.0424832 0)
(1.06326 0.0464308 0)
(1.06019 0.0479825 0)
(1.06236 0.0476365 0)
(1.07044 0.0468223 0)
(1.08128 0.0456166 0)
(1.05557 0.0409913 0)
(0.902249 0.0302151 0)
(0.612638 0.0158773 0)
(0.302552 0.00479053 0)
(0.0530205 0.000314357 0)
(0.11225 0.000320362 0)
(0.673801 0.00536235 0)
(0.966755 0.00929253 0)
(1.12832 0.012468 0)
(1.1587 0.0168435 0)
(1.14117 0.023264 0)
(1.12203 0.0305058 0)
(1.10578 0.0381051 0)
(1.09068 0.045506 0)
(1.07621 0.0518628 0)
(1.06501 0.055733 0)
(1.06035 0.0569322 0)
(1.06145 0.0561046 0)
(1.06883 0.0547692 0)
(1.07681 0.0528251 0)
(1.03928 0.0465802 0)
(0.86676 0.0335955 0)
(0.571702 0.0173882 0)
(0.27399 0.00517904 0)
(0.0462273 0.00033349 0)
(0.118712 0.000437383 0)
(0.6906 0.00755203 0)
(0.978948 0.0135888 0)
(1.13902 0.018414 0)
(1.16997 0.0238705 0)
(1.1522 0.0314116 0)
(1.13199 0.0396974 0)
(1.11419 0.0482673 0)
(1.09707 0.0564218 0)
(1.08013 0.0631393 0)
(1.06646 0.0668611 0)
(1.0599 0.0676168 0)
(1.0599 0.0662677 0)
(1.06658 0.0643604 0)
(1.07065 0.0615485 0)
(1.01856 0.053261 0)
(0.8254 0.0375334 0)
(0.526055 0.0190288 0)
(0.24289 0.00555095 0)
(0.0389963 0.00034708 0)
(0.12746 0.000600874 0)
(0.714039 0.0104161 0)
(0.996948 0.0189254 0)
(1.15344 0.0256783 0)
(1.18345 0.0324875 0)
(1.165 0.041484 0)
(1.14337 0.0510313 0)
(1.12358 0.0607171 0)
(1.10393 0.069661 0)
(1.08402 0.0766606 0)
(1.06751 0.0800852 0)
(1.05883 0.0802689 0)
(1.05766 0.0783259 0)
(1.06337 0.075751 0)
(1.06221 0.071796 0)
(0.992192 0.0610407 0)
(0.77687 0.0418728 0)
(0.475002 0.0206383 0)
(0.209275 0.00584465 0)
(0.0314368 0.000350788 0)
(0.139307 0.000840762 0)
(0.7455 0.0143379 0)
(1.02193 0.0257819 0)
(1.17237 0.0348113 0)
(1.19981 0.0433065 0)
(1.17994 0.0541652 0)
(1.15636 0.065197 0)
(1.13396 0.0760841 0)
(1.11116 0.0857405 0)
(1.08774 0.0928057 0)
(1.06803 0.0956714 0)
(1.05704 0.0951016 0)
(1.05474 0.0925274 0)
(1.05888 0.0891738 0)
(1.0506 0.083767 0)
(0.958619 0.0697676 0)
(0.719775 0.0463017 0)
(0.418181 0.0219721 0)
(0.173551 0.00598223 0)
(0.0237535 0.000340162 0)
(0.155565 0.00121587 0)
(0.786987 0.019966 0)
(1.05555 0.0349489 0)
(1.19679 0.0467783 0)
(1.21996 0.0577474 0)
(1.19741 0.0705327 0)
(1.17105 0.0831937 0)
(1.14521 0.0951883 0)
(1.11852 0.105256 0)
(1.09103 0.111954 0)
(1.0678 0.113849 0)
(1.05442 0.112284 0)
(1.05107 0.108987 0)
(1.05296 0.104889 0)
(1.03459 0.0973909 0)
(0.915805 0.0790572 0)
(0.65284 0.0503007 0)
(0.35588 0.0227058 0)
(0.136641 0.00588208 0)
(0.0162505 0.00031183 0)
(0.17849 0.00186666 0)
(0.841742 0.0284635 0)
(1.10073 0.0480291 0)
(1.22777 0.0634411 0)
(1.24432 0.0774101 0)
(1.21752 0.0922709 0)
(1.18718 0.106389 0)
(1.15688 0.119009 0)
(1.12555 0.128827 0)
(1.09351 0.134453 0)
(1.06656 0.134802 0)
(1.05074 0.131901 0)
(1.04643 0.127743 0)
(1.04542 0.122642 0)
(1.01235 0.112359 0)
(0.861259 0.08818 0)
(0.575422 0.0531235 0)
(0.289518 0.022487 0)
(0.100079 0.0054819 0)
(0.00931586 0.000263842 0)
(0.211588 0.00330701 0)
(0.915642 0.042604 0)
(1.16046 0.0689327 0)
(1.26566 0.0883125 0)
(1.27277 0.105435 0)
(1.23964 0.121826 0)
(1.20391 0.136445 0)
(1.16816 0.148549 0)
(1.13157 0.156994 0)
(1.0947 0.160544 0)
(1.064 0.158614 0)
(1.04585 0.153962 0)
(1.04067 0.148816 0)
(1.03537 0.142454 0)
(0.981197 0.128001 0)
(0.792211 0.0959322 0)
(0.488592 0.0539041 0)
(0.222352 0.0211215 0)
(0.0661064 0.00478238 0)
(0.00342917 0.000195739 0)
(0.256751 0.00978578 1.02414e-20)
(1.01246 0.070611 8.77724e-21)
(1.23229 0.104513 -3.05956e-21)
(1.30764 0.125425 0)
(1.3023 0.145603 -7.73302e-35)
(1.26151 0.16162 1.12895e-21)
(1.21964 0.174907 -2.02492e-21)
(1.17798 0.185037 0)
(1.13584 0.191032 4.16098e-35)
(1.09391 0.191761 -2.50563e-21)
(1.0593 0.187171 0)
(1.03896 0.180826 -2.98993e-21)
(1.03372 0.175524 -8.83484e-21)
(1.02051 0.167857 -4.18752e-21)
(0.934909 0.146158 -1.26095e-21)
(0.700476 0.102349 -7.48682e-22)
(0.387685 0.0523449 0)
(0.154055 0.0188896 5.23482e-22)
(0.0348614 0.00390858 6.1993e-22)
(-0.00150451 7.58498e-05 1.13404e-20)
(0.288423 0.0255996 7.39502e-21)
(1.09306 0.114948 1.19427e-22)
(1.29154 0.155184 8.10207e-22)
(1.34597 0.17614 0)
(1.32851 0.196326 -3.88419e-21)
(1.28068 0.210323 -4.4091e-21)
(1.23283 0.221479 -2.03187e-21)
(1.18532 0.229389 -7.20974e-21)
(1.1376 0.233036 0)
(1.09045 0.231243 1.05843e-20)
(1.05173 0.224367 1.05111e-20)
(1.02864 0.216453 3.11974e-21)
(1.02043 0.210136 1.14285e-20)
(0.991548 0.198414 1.6131e-20)
(0.857639 0.164958 0)
(0.572274 0.10612 2.26994e-20)
(0.272407 0.0487966 3.25387e-20)
(0.0864358 0.015423 3.62007e-20)
(0.00595499 0.00189704 -4.15209e-20)
(-0.00582979 -0.000472291 -7.92372e-22)
(0.290569 0.0436098 0)
(1.14532 0.172162 1.24829e-21)
(1.33263 0.217121 0)
(1.37628 0.237915 -5.00204e-21)
(1.34957 0.25493 0)
(1.29583 0.265043 -8.57735e-21)
(1.24241 0.272542 4.11638e-21)
(1.18943 0.277042 -1.44096e-20)
(1.13651 0.277421 -3.32682e-22)
(1.08458 0.272431 5.42776e-21)
(1.04224 0.262893 2.29597e-20)
(1.01677 0.253231 -2.39738e-23)
(1.00469 0.245174 -8.26596e-21)
(0.958131 0.22808 -1.50459e-20)
(0.782317 0.180827 1.78224e-20)
(0.472742 0.106954 -3.15217e-20)
(0.200798 0.0448383 -4.14605e-21)
(0.0488784 0.0119514 0)
(-0.00901758 -0.000451095 -3.28521e-24)
(-0.00789827 -0.00111095 0)
(0.284201 0.0586646 1.56182e-20)
(1.17471 0.233207 -7.67612e-21)
(1.35901 0.283835 -5.98664e-21)
(1.39686 0.304919 2.32759e-21)
(1.3639 0.317811 -3.88724e-21)
(1.30581 0.323344 1.7793e-20)
(1.24789 0.326424 8.49742e-21)
(1.19028 0.326769 0)
(1.13286 0.323216 -2.69704e-20)
(1.07678 0.314481 0)
(1.03132 0.301943 -1.19336e-20)
(1.00377 0.290354 -1.48099e-20)
(0.98733 0.279861 -8.93063e-21)
(0.923364 0.256117 -1.08585e-20)
(0.715686 0.194406 0)
(0.400486 0.10787 0)
(0.154409 0.0421531 -2.67932e-20)
(0.0250349 0.00870517 5.28515e-21)
(-0.0186579 -0.00299525 -3.11803e-21)
(-0.00924575 -0.00180078 -3.69335e-21)
(0.27622 0.0717879 -5.43655e-21)
(1.18858 0.294146 0)
(1.37428 0.351518 1.16891e-20)
(1.40878 0.373101 6.36929e-21)
(1.37156 0.381963 8.95259e-21)
(1.31036 0.382882 0)
(1.24903 0.381385 8.2055e-21)
(1.18775 0.377306 1.57012e-20)
(1.12663 0.369478 1.36979e-20)
(1.06707 0.356659 2.51405e-20)
(1.01897 0.340867 0)
(0.989619 0.327156 -3.16403e-20)
(0.968613 0.313744 -1.90848e-20)
(0.88896 0.282381 -1.12915e-20)
(0.658794 0.206658 6.90634e-20)
(0.348127 0.10942 8.17392e-21)
(0.122978 0.0401679 3.84989e-20)
(0.00810268 0.00535948 -1.8195e-19)
(-0.0260212 -0.00579897 1.07762e-19)
(-0.010346 -0.00254151 -1.31546e-19)
(0.268201 0.0835021 -1.57045e-21)
(1.19228 0.352939 9.36536e-22)
(1.38133 0.418169 -1.14266e-21)
(1.41375 0.440561 -6.10924e-21)
(1.37352 0.445622 -7.33072e-21)
(1.31004 0.442066 3.55278e-22)
(1.2461 0.43608 -8.84205e-21)
(1.18193 0.427575 1.60416e-20)
(1.11782 0.415375 -2.92433e-20)
(1.05538 0.39832 0)
(1.00511 0.379111 -1.42887e-20)
(0.974188 0.363112 -3.02321e-22)
(0.948738 0.346484 -2.0766e-20)
(0.855637 0.306994 0)
(0.610902 0.218028 -1.48615e-20)
(0.309373 0.111627 -3.51231e-20)
(0.0999007 0.0385689 9.32993e-20)
(-0.0052575 0.00183625 -9.18615e-20)
(-0.0322894 -0.00885466 1.30576e-19)
(-0.0113179 -0.00332787 -1.37398e-19)
(0.261035 0.0941636 -1.17021e-22)
(1.18935 0.4088 5.20153e-25)
(1.38232 0.4827 -2.56602e-21)
(1.41321 0.506168 2.27269e-21)
(1.37083 0.507759 -3.61451e-21)
(1.30566 0.499954 0)
(1.23969 0.489663 -8.11609e-21)
(1.17319 0.476846 -1.66818e-20)
(1.10661 0.460304 -1.51064e-20)
(1.04178 0.43896 0)
(0.989747 0.416228 -1.45995e-20)
(0.957554 0.397807 -1.8119e-20)
(0.928059 0.377734 2.23422e-20)
(0.823927 0.329927 -1.35804e-20)
(0.57074 0.228693 -6.40726e-20)
(0.279808 0.114353 3.78457e-20)
(0.0817707 0.0371343 1.11674e-20)
(-0.016907 -0.0019902 0)
(-0.0383312 -0.012248 -1.24899e-19)
(-0.0123247 -0.00418808 -4.62797e-21)
(0.254932 0.104121 5.19651e-22)
(1.1821 0.461513 -6.24861e-22)
(1.37875 0.544544 1.05285e-21)
(1.4084 0.569256 8.19636e-21)
(1.36443 0.567735 -1.29314e-20)
(1.29802 0.555986 1.6005e-20)
(1.23044 0.541635 1.73648e-20)
(1.16201 0.524681 -2.65313e-20)
(1.09334 0.503894 9.30485e-21)
(1.02648 0.478247 -6.07583e-20)
(0.973018 0.451897 -1.64725e-20)
(0.939849 0.430877 0)
(0.906842 0.407162 2.40667e-20)
(0.793996 0.35107 2.87739e-20)
(0.537002 0.238678 3.43328e-20)
(0.2566 0.117323 -4.06966e-20)
(0.066754 0.0355744 -1.20055e-20)
(-0.0277388 -0.00629015 1.41524e-20)
(-0.0446755 -0.0161353 0)
(-0.0135352 -0.00518421 -9.9438e-21)
(0.249827 0.113439 -1.06793e-20)
(1.1723 0.511111 5.2372e-21)
(1.37194 0.60366 -7.14755e-22)
(1.40034 0.629486 4.66308e-21)
(1.35514 0.625173 -5.58664e-21)
(1.28783 0.609801 -8.55563e-22)
(1.21896 0.591695 -1.89361e-20)
(1.1489 0.570841 -9.57704e-21)
(1.0784 0.54594 -2.60627e-20)
(1.00975 0.516006 3.63986e-23)
(0.955099 0.485925 -5.11601e-20)
(0.921188 0.462089 4.32818e-20)
(0.885239 0.434523 -2.62246e-20)
(0.765825 0.370284 3.13914e-20)
(0.508474 0.247836 0)
(0.238006 0.120158 -2.18851e-20)
(0.0540349 0.0335991 2.42877e-23)
(-0.037868 -0.011191 -6.09601e-20)
(-0.0513793 -0.0206348 -9.01235e-21)
(-0.0150192 -0.00637269 0)
(0.245704 0.122394 0)
(1.16101 0.557831 6.36345e-21)
(1.36275 0.66006 9.4187e-22)
(1.38982 0.686703 -3.9574e-21)
(1.34368 0.67988 -7.33352e-21)
(1.27568 0.661218 0)
(1.20576 0.639672 -8.48112e-21)
(1.13429 0.615181 -2.36921e-22)
(1.06215 0.586356 5.56908e-20)
(0.991855 0.552174 -8.28824e-21)
(0.936133 0.518232 -3.68794e-20)
(0.901645 0.491335 2.24327e-20)
(0.863279 0.45966 -3.96671e-22)
(0.739215 0.387443 3.3303e-20)
(0.484086 0.255964 2.00964e-20)
(0.222849 0.122436 -4.69598e-20)
(0.043391 0.0309928 5.54093e-20)
(-0.0469327 -0.01666 1.63866e-20)
(-0.0580751 -0.0256833 6.78851e-20)
(-0.016734 -0.00776837 -1.83698e-19)
(0.24249 0.131152 -4.16757e-21)
(1.14906 0.601847 5.14137e-21)
(1.35184 0.713407 -3.1162e-21)
(1.37754 0.740874 2.5008e-21)
(1.33062 0.731779 0)
(1.26211 0.710144 -7.01215e-21)
(1.19131 0.685481 2.86058e-20)
(1.1186 0.657642 2.09091e-20)
(1.04492 0.625112 0)
(0.973014 0.586767 -1.19318e-19)
(0.916237 0.548824 9.95066e-20)
(0.881245 0.518601 0)
(0.840901 0.48252 3.03577e-20)
(0.713847 0.402504 -3.27834e-22)
(0.462826 0.262885 -6.43788e-20)
(0.210301 0.123899 2.51867e-20)
(0.0348655 0.0278154 0)
(-0.0543628 -0.0224553 8.80267e-20)
(-0.0641229 -0.0310337 0)
(-0.0185227 -0.00932941 -8.64019e-20)
(0.240113 0.139723 5.15026e-21)
(1.13698 0.643404 7.19821e-21)
(1.33972 0.763777 -2.94369e-21)
(1.36402 0.792027 0)
(1.31645 0.780881 -5.80438e-21)
(1.24755 0.756571 0)
(1.17601 0.729098 -2.80684e-20)
(1.10216 0.698211 -9.64713e-21)
(1.027 0.662235 9.80221e-21)
(0.953439 0.619852 -5.90529e-20)
(0.895506 0.577786 1.02824e-20)
(0.859994 0.54394 0)
(0.818025 0.503147 -6.47556e-20)
(0.689345 0.415468 2.66219e-22)
(0.443782 0.268551 0)
(0.199696 0.124524 4.81679e-23)
(0.0282702 0.0242678 8.00604e-20)
(-0.059809 -0.0281737 -7.57026e-20)
(-0.0689398 -0.0362898 2.24182e-20)
(-0.0201783 -0.010941 0)
(0.238241 0.148088 0)
(1.12502 0.682707 8.98483e-21)
(1.32684 0.811298 5.10142e-21)
(1.3497 0.840246 -5.33999e-22)
(1.30158 0.827237 -1.60638e-21)
(1.23239 0.800534 -1.58635e-20)
(1.16019 0.770545 1.06108e-20)
(1.08527 0.736911 -1.14807e-20)
(1.00865 0.697771 4.38941e-20)
(0.933323 0.651535 -9.46657e-20)
(0.874032 0.605251 -8.4517e-22)
(0.837893 0.567451 -2.84631e-20)
(0.794576 0.521637 1.04983e-19)
(0.665327 0.426458 -3.83011e-22)
(0.426226 0.272941 -4.96902e-20)
(0.190476 0.124409 -8.76345e-20)
(0.0234242 0.0206734 0)
(-0.0631502 -0.0334188 0)
(-0.0721742 -0.0410655 2.41251e-20)
(-0.0215211 -0.0124859 -1.43104e-20)
(0.237041 0.156436 7.57217e-21)
(1.11338 0.719803 -2.06614e-20)
(1.31355 0.856087 -5.4674e-21)
(1.33493 0.88562 0)
(1.28633 0.870925 -3.09683e-22)
(1.21691 0.842087 -1.42538e-20)
(1.14413 0.809865 2.54945e-20)
(1.06821 0.773783 4.51547e-20)
(0.990118 0.731794 5.7206e-20)
(0.91287 0.681941 -7.76498e-20)
(0.851932 0.631403 -8.60607e-20)
(0.81494 0.589279 7.63035e-20)
(0.770469 0.538091 0)
(0.641343 0.435541 -2.28088e-20)
(0.409684 0.276069 -5.34896e-20)
(0.182266 0.12372 -6.29134e-20)
(0.0200153 0.017289 -7.417e-20)
(-0.0646055 -0.0378863 2.19561e-20)
(-0.0737798 -0.045076 -1.29649e-20)
(-0.0224467 -0.0138596 4.8161e-23)
(0.236101 0.164592 0)
(1.10247 0.754738 0)
(1.3001 0.89826 5.08705e-22)
(1.31995 0.928261 0)
(1.27095 0.912046 2.71644e-21)
(1.20136 0.881313 9.47137e-21)
(1.12808 0.847119 0)
(1.05121 0.808879 5.35738e-21)
(0.971625 0.764368 9.59378e-20)
(0.892287 0.711201 -1.79188e-19)
(0.829325 0.656452 0)
(0.791142 0.609623 -4.94311e-20)
(0.745623 0.552534 -4.98922e-22)
(0.61744 0.442671 -2.81721e-22)
(0.393797 0.277911 5.75823e-20)
(0.17491 0.122598 4.18227e-23)
(0.0177917 0.0144227 -1.59682e-19)
(-0.0646205 -0.0413231 4.72117e-20)
(-0.0740266 -0.0482225 1.40077e-20)
(-0.0229213 -0.0149816 0)
(0.235418 0.172516 -3.12071e-20)
(1.09203 0.787947 -1.44366e-20)
(1.2866 0.937907 -1.75099e-20)
(1.305 0.968281 1.35106e-20)
(1.25566 0.950687 1.83292e-21)
(1.18596 0.918292 0)
(1.11223 0.882376 1.55268e-20)
(1.03445 0.842261 -1.2047e-20)
(0.953366 0.795559 8.01168e-22)
(0.871773 0.739441 1.32757e-20)
(0.806356 0.680623 1.12712e-19)
(0.766498 0.628725 -1.74268e-20)
(0.719885 0.565022 -6.52275e-20)
(0.593472 0.447605 -2.66328e-20)
(0.378589 0.278179 3.10546e-20)
(0.168681 0.121068 5.69648e-23)
(0.0167709 0.012569 4.30124e-20)
(-0.0639979 -0.0432187 -1.01618e-19)
(-0.0738323 -0.0503932 1.20586e-19)
(-0.0231426 -0.0158932 1.78069e-20)
(0.234788 0.180201 1.19628e-20)
(1.08209 0.819489 -8.18988e-21)
(1.27325 0.975167 1.32538e-21)
(1.29023 1.00581 9.55783e-21)
(1.24061 0.986969 9.88748e-22)
(1.17084 0.95311 -1.65755e-20)
(1.09675 0.915702 4.43028e-21)
(1.01811 0.873977 -5.04504e-20)
(0.935521 0.82541 -1.06962e-19)
(0.851515 0.766745 -1.07953e-19)
(0.783192 0.704135 0)
(0.74101 0.646881 -7.71042e-20)
(0.693038 0.575664 9.44381e-20)
(0.569104 0.44996 0)
(0.36428 0.276099 -6.6802e-20)
(0.164678 0.118497 3.93488e-20)
(0.0184459 0.0120383 -4.63151e-20)
(-0.0626452 -0.0431179 -5.47604e-20)
(-0.0750471 -0.0521503 -9.72613e-20)
(-0.0240104 -0.0170652 -7.68065e-20)
(0.234501 0.187735 -1.3664e-20)
(1.07253 0.849383 8.7783e-21)
(1.26014 1.01012 1.93949e-20)
(1.27577 1.04096 1.45736e-20)
(1.22594 1.02099 -1.15287e-21)
(1.15614 0.985862 -8.7772e-21)
(1.08174 0.947162 1.49858e-20)
(1.0023 0.904088 -5.21405e-20)
(0.918226 0.853976 -6.38842e-20)
(0.831692 0.793192 1.14163e-19)
(0.760002 0.727178 2.50993e-19)
(0.714724 0.664441 0)
(0.664794 0.584688 0)
(0.543742 0.449321 -3.07645e-20)
(0.350696 0.27036 0)
(0.164463 0.113067 8.45783e-20)
(0.026321 0.010299 9.96205e-20)
(-0.0562566 -0.0433849 0)
(-0.0769178 -0.0550634 0)
(-0.0268457 -0.0194777 8.27636e-20)
(0.234088 0.194854 1.56671e-20)
(1.06338 0.877653 1.23266e-20)
(1.24737 1.04289 1.41532e-20)
(1.26171 1.07385 -1.46638e-20)
(1.21173 1.05288 -2.64248e-21)
(1.14195 1.01663 8.62307e-21)
(1.0673 0.976823 -2.07444e-20)
(0.987135 0.932634 -2.8141e-22)
(0.901611 0.881283 -1.06251e-21)
(0.812467 0.818826 -5.93578e-22)
(0.73699 0.749913 1.30137e-19)
(0.687725 0.681748 0)
(0.634866 0.592506 9.71277e-20)
(0.516353 0.445574 6.65258e-20)
(0.336133 0.259244 1.56962e-19)
(0.167073 0.0998093 4.58109e-20)
(0.044263 -0.00253219 -5.37062e-20)
(-0.0317849 -0.055607 -3.17474e-20)
(-0.0615304 -0.0617483 0)
(-0.0281278 -0.0223748 8.94829e-20)
(0.234017 0.201998 -3.57295e-20)
(1.05462 0.904404 0)
(1.23495 1.07354 1.69934e-20)
(1.24808 1.1046 -1.26528e-20)
(1.19805 1.08272 5.00669e-21)
(1.12832 1.04551 -8.42748e-21)
(1.05351 1.00475 4.04295e-20)
(0.972684 0.959655 -4.15251e-21)
(0.885764 0.907354 0)
(0.793983 0.84365 -1.27978e-19)
(0.714371 0.772448 -2.86139e-19)
(0.660167 0.699151 1.16988e-20)
(0.603081 0.599689 1.36188e-19)
(0.485915 0.439295 0)
(0.317864 0.24249 1.06912e-19)
(0.167279 0.0742594 0)
(0.0653228 -0.039745 0)
(0.0160518 -0.101978 -3.43458e-20)
(0.0125214 -0.0833588 0)
(0.0150413 -0.0069837 2.41296e-20)
(0.233701 0.208607 -4.01164e-20)
(1.04623 0.929975 0)
(1.22287 1.10229 2.86772e-20)
(1.23486 1.13343 0)
(1.18487 1.11079 -3.50391e-21)
(1.11521 1.07277 0)
(1.04032 1.03123 1.94505e-21)
(0.958863 0.985483 7.37102e-21)
(0.870578 0.932541 8.20035e-21)
(0.776089 0.86803 -1.41639e-19)
(0.69197 0.795243 8.66828e-21)
(0.631745 0.717424 9.4992e-20)
(0.568799 0.607215 1.33938e-19)
(0.450901 0.431341 1.78292e-20)
(0.292482 0.221452 8.47327e-20)
(0.15603 0.0380083 0)
(0.0700219 -0.101371 1.13547e-19)
(0.0409584 -0.126696 -6.65985e-20)
(0.0199317 0.0268755 7.82158e-20)
(-0.0390785 0.463779 -9.29003e-20)
(0.233427 0.215059 3.33649e-20)
(1.03796 0.954182 4.98649e-20)
(1.21106 1.12944 0)
(1.2219 1.1608 9.85795e-22)
(1.17201 1.13767 1.13074e-20)
(1.10233 1.09912 7.76612e-21)
(1.02738 1.05708 1.40729e-20)
(0.945248 1.01104 0)
(0.855505 0.957909 5.4497e-20)
(0.758082 0.893222 -7.41897e-21)
(0.668816 0.819706 0)
(0.600982 0.738099 0)
(0.529461 0.61604 1.21597e-19)
(0.40796 0.421874 -5.53674e-20)
(0.256147 0.197908 -8.7163e-20)
(0.127639 -0.00510592 0)
(0.0456323 -0.0636054 5.80378e-20)
(0.00136506 0.445275 -6.7139e-20)
(0.0268852 1.95103 -3.76854e-20)
(0.0526769 2.83652 -4.63454e-20)
(0.232893 0.221023 -2.52642e-20)
(1.02991 0.977215 -6.43759e-20)
(1.19955 1.15502 1.72161e-20)
(1.20922 1.18657 1.32246e-20)
(1.15952 1.16317 0)
(1.08981 1.12427 3.29398e-21)
(1.01495 1.08197 1.91094e-20)
(0.932056 1.0359 -3.61638e-21)
(0.840859 0.982968 8.23054e-21)
(0.740408 0.91868 1.36626e-19)
(0.645626 0.845337 1.48524e-19)
(0.568969 0.761405 1.09564e-19)
(0.485756 0.627176 1.24185e-19)
(0.357408 0.411002 -1.32728e-19)
(0.212956 0.177299 -1.33707e-19)
(0.0859906 0.0571239 0)
(0.0321476 0.926882 0)
(0.0768209 2.60196 3.245e-20)
(0.0801554 3.22213 0)
(0.0825114 3.39256 8.46296e-20)
(0.235222 0.226688 0)
(1.02243 0.999486 0)
(1.18802 1.17889 0)
(1.19663 1.21063 4.14399e-21)
(1.14708 1.18704 1.05214e-20)
(1.07744 1.14808 -8.63038e-23)
(1.00294 1.10582 1.23079e-20)
(0.919223 1.05995 -3.55552e-21)
(0.826584 1.00754 6.91062e-20)
(0.723077 0.944242 -1.44574e-21)
(0.62254 0.871968 2.97051e-19)
(0.536147 0.787586 -1.27802e-20)
(0.437699 0.642235 1.5363e-20)
(0.300143 0.397835 1.94772e-20)
(0.156797 0.191285 -9.26442e-22)
(0.0750977 1.0436 3.38984e-22)
(0.109934 2.78614 -1.76143e-19)
(0.114276 3.30369 -6.60888e-20)
(0.107579 3.42259 3.48492e-20)
(0.0992613 3.44178 -3.95327e-20)
(0.157894 0.171875 1.55614e-20)
(1.01049 1.02371 0)
(1.17624 1.20127 -3.58317e-20)
(1.18457 1.2334 -3.68216e-20)
(1.13513 1.20976 2.70288e-20)
(1.06593 1.17103 1.09951e-21)
(0.991146 1.12864 -1.27594e-20)
(0.906784 1.08322 3.98514e-20)
(0.81277 1.03171 -5.72382e-20)
(0.706344 0.97003 0)
(0.59994 0.899702 1.48173e-19)
(0.503145 0.816585 -9.11321e-20)
(0.390195 0.672467 0)
(0.234866 0.389283 1.93232e-20)
(0.109095 0.692709 4.48749e-20)
(0.124491 2.60112 -5.00094e-20)
(0.169413 3.326 5.64979e-20)
(0.155022 3.42877 3.04118e-20)
(0.129898 3.44771 3.42159e-20)
(0.112364 3.45677 5.47994e-20)
(0.269432 0.26359 -2.98832e-20)
(0.991352 1.03267 0)
(1.15664 1.22663 3.89871e-20)
(1.16902 1.26454 4.12395e-20)
(1.11678 1.24323 -3.15941e-20)
(1.047 1.2048 -5.82899e-21)
(0.970979 1.16392 1.15925e-20)
(0.885868 1.11966 3.16388e-21)
(0.790016 1.07024 5.53022e-20)
(0.679712 1.01246 1.21554e-19)
(0.565466 0.947983 8.4102e-21)
(0.45172 0.863628 8.27634e-20)
(0.299716 0.691189 1.49674e-20)
(0.191919 0.834394 -1.88488e-20)
(0.198434 2.49111 -4.1587e-20)
(0.249319 3.32555 4.08732e-20)
(0.232106 3.44903 -4.47778e-20)
(0.19931 3.46898 -2.55952e-20)
(0.167358 3.49415 -2.35083e-20)
(0.123144 3.49071 -3.36955e-21)
(0.259205 0.262208 0)
(0.98761 1.05503 1.16533e-20)
(1.14716 1.25 -8.11956e-21)
(1.15726 1.28805 -5.02415e-21)
(1.10503 1.26649 -2.2328e-20)
(1.03521 1.22821 6.70597e-21)
(0.958774 1.18748 -5.91584e-21)
(0.873234 1.14401 2.85884e-21)
(0.776407 1.09603 -5.80997e-20)
(0.663875 1.04117 -2.54371e-21)
(0.544894 0.981447 -2.72962e-19)
(0.421508 0.898666 1.19353e-20)
(0.274204 0.764821 -1.43067e-20)
(0.228424 1.5217 -1.74691e-20)
(0.293213 3.14573 3.63684e-21)
(0.303998 3.44818 2.34278e-23)
(0.26406 3.4952 6.83339e-20)
(0.231263 3.52096 3.49275e-20)
(0.186287 3.54204 -1.19973e-20)
(0.137374 3.53999 -1.7405e-20)
(0.244943 0.259871 3.00613e-20)
(0.982904 1.07989 7.91121e-20)
(1.13729 1.27546 -2.31035e-20)
(1.14511 1.31318 -1.87905e-20)
(1.09279 1.29122 0)
(1.02301 1.25294 1.57441e-20)
(0.946448 1.21244 -5.54797e-21)
(0.860738 1.16974 2.52678e-21)
(0.763262 1.12338 -6.53002e-21)
(0.64909 1.07186 -1.1227e-19)
(0.526438 1.01766 -1.27295e-19)
(0.394571 0.935229 -9.83727e-20)
(0.273966 0.923962 -1.08637e-19)
(0.296579 2.33458 1.11287e-19)
(0.376179 3.37675 9.39457e-20)
(0.344893 3.50099 0)
(0.298547 3.5409 0)
(0.262637 3.57601 -9.75288e-21)
(0.220847 3.62089 0)
(0.152013 3.60817 -1.56191e-20)
(0.234887 0.261472 -4.49929e-20)
(0.976244 1.10553 -6.72407e-20)
(1.12599 1.30214 0)
(1.13167 1.33914 1.19627e-21)
(1.07926 1.3166 -2.53233e-20)
(1.00969 1.27825 2.76413e-20)
(0.933338 1.23804 -1.84561e-21)
(0.847691 1.19607 1.448e-21)
(0.749837 1.15134 -4.18416e-20)
(0.634512 1.10329 5.63719e-21)
(0.509255 1.05478 0)
(0.368297 0.975018 0)
(0.29557 1.23912 -9.95416e-20)
(0.379323 2.98617 4.04539e-20)