/*--------------------------------*- C++ -*----------------------------------*\
  =========                 |
  \\      /  F ield         | OpenFOAM: The Open Source CFD Toolbox
   \\    /   O peration     | Website:  https://openfoam.org
    \\  /    A nd           | Version:  6
     \\/     M anipulation  |
\*---------------------------------------------------------------------------*/
FoamFile
{
    version     2.0;
    format      ascii;
    class       surfaceScalarField;
    location    "36";
    object      phi;
}
// * * * * * * * * * * * * * * * * * * * * * * * * * * * * * * * * * * * * * //

dimensions      [0 3 -1 0 0 0 0];

internalField   nonuniform List<scalar> 
4262
(
0.106806
0.471182
0.0925525
0.707839
0.0648218
0.860034
0.0424409
1.02114
0.0264744
1.21448
0.0164064
1.44829
0.0101197
1.73215
0.00594131
2.07521
0.00274875
2.48844
-0.000375588
2.98542
-0.00338781
2.9853
-0.00650777
2.48836
-0.0106062
2.07513
-0.0168633
1.73212
-0.0268566
1.44821
-0.0427298
1.21439
-0.0650202
1.02105
-0.0926337
0.859917
-0.10688
0.707832
0.471108
0.114783
0.356399
0.139958
0.682665
0.12527
0.874721
0.101647
1.04477
0.0735476
1.24258
0.0481143
1.47372
0.0283724
1.75189
0.0146383
2.08895
0.00557206
2.4975
-0.000756418
2.99175
-0.00712712
2.99168
-0.0163915
2.49763
-0.0300454
2.08879
-0.0494792
1.75155
-0.0746186
1.47335
-0.102616
1.24239
-0.126145
1.04458
-0.140481
0.874252
-0.115068
0.682419
0.356041
0.0916644
0.264734
0.126241
0.648089
0.124787
0.876176
0.110876
1.05868
0.0960762
1.25738
0.0758938
1.4939
0.0538923
1.77389
0.0329167
2.10992
0.0143175
2.5161
-0.00159072
3.00765
-0.0176549
3.00774
-0.0359741
2.51595
-0.0566447
2.10946
-0.0782817
1.77319
-0.09818
1.49325
-0.11246
1.25667
-0.125861
1.05798
-0.12725
0.875641
-0.0921435
0.647312
0.263897
0.0628187
0.201916
0.103989
0.606919
0.106754
0.873411
0.0971671
1.06827
0.0858855
1.26866
0.0745453
1.50524
0.0592137
1.78923
0.0402434
2.12889
0.0195952
2.53675
-0.00283516
3.03008
-0.0248941
3.0298
-0.0447529
2.53581
-0.0630883
2.12779
-0.0778852
1.78799
-0.0886268
1.50399
-0.0994577
1.2675
-0.108725
1.06725
-0.105385
0.872301
-0.0634105
0.605338
0.200487
0.0370309
0.164885
0.0793613
0.564588
0.089724
0.863048
0.0830086
1.07498
0.0719071
1.27976
0.0625851
1.51457
0.0516048
1.80021
0.0371425
2.14336
0.0190345
2.55486
-0.00330839
3.05243
-0.0253524
3.05184
-0.0429409
2.55339
-0.0568626
2.14172
-0.0673122
1.79844
-0.0759995
1.51268
-0.0865797
1.27808
-0.0925503
1.07322
-0.0812344
0.860985
-0.0376897
0.561793
0.162797
0.0195975
0.145287
0.0566894
0.527496
0.0716936
0.848044
0.069135
1.07754
0.0602594
1.28864
0.0506713
1.52415
0.0409902
1.80989
0.0294058
2.15494
0.0146791
2.56958
-0.00473961
3.07185
-0.0237806
3.07088
-0.0377155
2.56733
-0.0482122
2.15221
-0.056727
1.80695
-0.0653363
1.52129
-0.0732928
1.28604
-0.0749376
1.07487
-0.0586922
0.84474
-0.0202578
0.523359
0.142539
0.0108243
0.134463
0.0421856
0.496135
0.0577504
0.832479
0.0574026
1.07789
0.0505052
1.29554
0.0407311
1.53393
0.031458
1.81916
0.0213566
2.16504
0.00922712
2.58171
-0.00553876
3.08661
-0.0198318
3.08518
-0.0310552
2.57855
-0.0400658
2.16122
-0.0481129
1.815
-0.057013
1.53019
-0.0628967
1.29192
-0.061984
1.07395
-0.0447268
0.827483
-0.0115951
0.490227
0.130944
0.0067096
0.127753
0.0330854
0.469759
0.0490083
0.816556
0.0499842
1.07691
0.0441825
1.30134
0.0349774
1.54313
0.0253846
1.82875
0.015489
2.17494
0.00431828
2.59288
-0.00737387
3.0983
-0.0186366
3.09644
-0.0288144
2.58873
-0.0373034
2.16971
-0.0449849
1.82268
-0.0527576
1.53796
-0.0569161
1.29608
-0.0542582
1.0713
-0.0362649
0.809489
-0.00770266
0.461665
0.123242
0.00482261
0.122931
0.0267598
0.447822
0.0425154
0.800801
0.0446276
1.0748
0.0400216
1.30595
0.0324198
1.55073
0.0233387
1.83783
0.0135593
2.18472
0.00258947
2.60385
-0.00918895
3.11008
-0.0203688
3.10762
-0.0298131
2.59817
-0.0375136
2.17741
-0.0448306
1.83
-0.0506602
1.54379
-0.0535766
1.29899
-0.0493547
1.06707
-0.0307275
0.790862
-0.00605085
0.436988
0.117191
0.0038941
0.119037
0.0219637
0.429752
0.0372706
0.785494
0.0403645
1.07171
0.0365149
1.30979
0.0295603
1.55769
0.0208455
1.84655
0.0111127
2.19445
0.000301471
2.61467
-0.0114749
3.12186
-0.022239
3.11838
-0.0311826
2.60712
-0.0386243
2.18485
-0.0452172
1.83659
-0.0498763
1.54845
-0.0512433
1.30036
-0.0454247
1.06125
-0.0267267
0.772164
-0.00539907
0.415661
0.111792
0.00313068
0.115906
0.017679
0.415204
0.0317813
0.771391
0.0351124
1.06837
0.0315696
1.31334
0.0250788
1.56418
0.0170416
1.85459
0.00777863
2.20371
-0.00251806
2.62496
-0.0140326
3.13337
-0.0246096
3.12896
-0.0327153
2.61522
-0.0394298
2.19157
-0.0447674
1.84193
-0.0486289
1.55231
-0.0491443
1.30088
-0.0422611
1.05437
-0.0236191
0.753522
-0.00499986
0.397041
0.106792
0.00229961
0.113606
0.0135195
0.403984
0.0261035
0.758807
0.0296043
1.06487
0.0261638
1.31678
0.0197185
1.57063
0.0121047
1.8622
0.00334248
2.21248
-0.00620104
2.63451
-0.017334
3.14451
-0.0275977
3.13922
-0.0343817
2.62201
-0.0401478
2.19734
-0.0445221
1.8463
-0.0473212
1.55511
-0.0471
1.30065
-0.0389924
1.04626
-0.0208219
0.735352
-0.00460099
0.38082
0.102191
0.00131491
0.112291
0.00938451
0.395915
0.019934
0.748258
0.0226381
1.06217
0.0191809
1.32024
0.0135206
1.57629
0.00667
1.86905
-0.00170268
2.22085
-0.0107952
2.6436
-0.0215582
3.15527
-0.0310329
3.1487
-0.0369428
2.62792
-0.0411916
2.20158
-0.0439901
1.8491
-0.0454261
1.55655
-0.0444979
1.29973
-0.03584
1.03761
-0.0183846
0.717896
-0.00420897
0.366645
0.0979819
0.000497607
0.111794
0.00567005
0.390742
0.013701
0.740227
0.0159687
1.0599
0.0123738
1.32383
0.00615975
1.5825
-0.00104848
1.87626
-0.00896672
2.22877
-0.0175546
2.65219
-0.0271934
3.16491
-0.0347014
3.15621
-0.0391343
2.63235
-0.0418089
2.20426
-0.0438348
1.85113
-0.0447949
1.55751
-0.0426581
1.29759
-0.0332197
1.02817
-0.0165834
0.70126
-0.00405896
0.35412
0.0939229
-0.000294202
0.112088
0.00162721
0.388821
0.00716154
0.734693
0.00832885
1.05873
0.00448236
1.32768
-0.00160904
1.58859
-0.00878047
1.88343
-0.0165784
2.23656
-0.0249159
2.66052
-0.0329231
3.17291
-0.0388173
3.1621
-0.0423664
2.6359
-0.0441138
2.20601
-0.0453532
1.85237
-0.0447946
1.55695
-0.0414989
1.29429
-0.0313588
1.01803
-0.0152721
0.685173
-0.00392807
0.342776
0.0899948
-0.00124359
0.113332
-0.00168538
0.389262
0.00147619
0.731531
0.0016383
1.05857
-0.00266648
1.33198
-0.00950107
1.59543
-0.017539
1.89147
-0.0257223
2.24475
-0.0341404
2.66894
-0.0411211
3.1799
-0.045645
3.16662
-0.0478836
2.63814
-0.0484831
2.20661
-0.048185
1.85207
-0.0465753
1.55534
-0.0419447
1.28966
-0.0304306
1.00651
-0.0145547
0.669297
-0.00392881
0.33215
0.086066
-0.00244503
0.115777
-0.00496044
0.391778
-0.00557361
0.732144
-0.00714692
1.06015
-0.0117284
1.33656
-0.0184055
1.6021
-0.0263841
1.89945
-0.0350554
2.25342
-0.0442589
2.67815
-0.051413
3.18705
-0.0552075
3.17042
-0.0560901
2.63902
-0.0546777
2.20519
-0.0521205
1.84951
-0.0484798
1.5517
-0.041947
1.28313
-0.0297694
0.994336
-0.0142278
0.653756
-0.00394057
0.321863
0.0821254
-0.00356333
0.11934
-0.00904513
0.39726
-0.0126964
0.735795
-0.0160384
1.06349
-0.0216847
1.34221
-0.0292982
1.60972
-0.037939
1.90809
-0.0473538
2.26283
-0.0566629
2.68745
-0.0638708
3.19426
-0.0667265
3.17327
-0.0654847
2.63778
-0.0622211
2.20193
-0.0582038
1.84549
-0.0530461
1.54654
-0.0447533
1.27484
-0.0308662
0.980449
-0.0148885
0.637778
-0.00424095
0.311216
0.0778845
-0.00535224
0.124692
-0.0146376
0.406545
-0.02217
0.743328
-0.0283052
1.06962
-0.0349818
1.34889
-0.0434313
1.61817
-0.0529887
1.91764
-0.063163
2.27301
-0.0726837
2.69697
-0.0792932
3.20087
-0.0800771
3.17406
-0.0767246
2.63443
-0.0711436
2.19635
-0.0647604
1.83911
-0.0572758
1.53906
-0.0472331
1.2648
-0.0323521
0.965568
-0.0160702
0.621496
-0.00470081
0.299846
0.0731837
-0.00658648
0.131279
-0.0189799
0.418938
-0.0306323
0.75498
-0.0395785
1.07857
-0.0486164
1.35792
-0.0592901
1.62884
-0.0705461
1.9289
-0.0822122
2.28467
-0.0923148
2.70708
-0.0981321
3.20668
-0.09677
3.1727
-0.0907401
2.6284
-0.0826817
2.18829
-0.0742836
1.83071
-0.0650693
1.52984
-0.0527818
1.25251
-0.0357112
0.948497
-0.0180568
0.603842
-0.00528064
0.28707
0.0679031
-0.00899898
0.140278
-0.0258454
0.435785
-0.0423551
0.77149
-0.0545942
1.09081
-0.0651461
1.36848
-0.0773854
1.64108
-0.091101
1.94262
-0.105229
2.2988
-0.116893
2.71874
-0.122493
3.21228
-0.118327
3.16853
-0.108794
2.61886
-0.0974188
2.17691
-0.0860306
1.81932
-0.0741934
1.518
-0.0595236
1.23784
-0.0406443
0.929618
-0.021026
0.584223
-0.0061153
0.27216
0.0617878
-0.0109639
0.151242
-0.0311591
0.45598
-0.0519374
0.792268
-0.0686414
1.10751
-0.0836976
1.38353
-0.100433
1.65781
-0.117762
1.95995
-0.134303
2.31534
-0.146486
2.73092
-0.150002
3.2158
-0.142625
3.16115
-0.130298
2.60654
-0.116489
2.16311
-0.10257
1.80541
-0.0880564
1.50349
-0.0703146
1.2201
-0.0478678
0.907171
-0.0247525
0.561108
-0.00706539
0.254472
0.0547224
-0.0154331
0.166675
-0.0428019
0.483349
-0.0697386
0.819205
-0.0912886
1.12906
-0.110358
1.4026
-0.130833
1.67829
-0.152119
1.98123
-0.170846
2.33407
-0.182821
2.7429
-0.183844
3.21682
-0.172899
3.15021
-0.156293
2.58993
-0.1387
2.14551
-0.121365
1.78807
-0.103558
1.48568
-0.0824918
1.19903
-0.0564209
0.8811
-0.0292206
0.533908
-0.00819466
0.233447
0.0465277
-0.0193105
0.185985
-0.0545251
0.518563
-0.0899455
0.854625
-0.118474
1.15759
-0.144318
1.42845
-0.172111
1.70608
-0.197479
2.0066
-0.216507
2.3531
-0.22529
2.75168
-0.220745
3.21228
-0.20445
3.13391
-0.184436
2.56992
-0.164174
2.12525
-0.144231
1.76813
-0.12305
1.4645
-0.0972221
1.1732
-0.0654079
0.849286
-0.033017
0.501517
-0.00887539
0.209305
0.0376523
-0.0317592
0.217744
-0.0777903
0.564594
-0.122319
0.899154
-0.159116
1.19439
-0.193616
1.46295
-0.226836
1.7393
-0.253095
2.03286
-0.269545
2.36955
-0.27423
2.75637
-0.265503
3.20355
-0.245521
3.11393
-0.221424
2.54582
-0.19661
2.10044
-0.171931
1.74345
-0.145823
1.43839
-0.114308
1.14169
-0.0763096
0.811288
-0.0380789
0.463286
-0.00978775
0.181014
0.0278646
-0.0451716
0.262916
-0.115511
0.634933
-0.175939
0.959582
-0.220395
1.23884
-0.262515
1.50507
-0.295901
1.77269
-0.31781
2.05477
-0.328842
2.38058
-0.32828
2.7558
-0.313885
3.18916
-0.288112
3.08816
-0.25933
2.51704
-0.230146
2.07125
-0.201103
1.71441
-0.169379
1.40667
-0.130824
1.10313
-0.0857927
0.766256
-0.0406141
0.418108
-0.00946392
0.149864
0.0184006
-0.0316306
0.294547
-0.0934621
0.696765
-0.150897
1.01702
-0.199993
1.28794
-0.246402
1.55147
-0.282873
1.80916
-0.316363
2.08826
-0.34536
2.40958
-0.365737
2.77618
-0.371237
3.19466
-0.358228
3.07515
-0.333151
2.49196
-0.299702
2.0378
-0.258114
1.67282
-0.209061
1.35762
-0.151657
1.04573
-0.0894505
0.70405
-0.036747
0.365404
-0.00822337
0.12134
0.0101773
-0.011979
0.306526
-0.0429449
0.727731
-0.0791393
1.05321
-0.115327
1.32413
-0.151139
1.58729
-0.186188
1.84421
-0.218824
2.12089
-0.24633
2.43708
-0.264568
2.79442
-0.266695
3.19678
-0.250332
3.05879
-0.22137
2.463
-0.185065
2.0015
-0.145438
1.63319
-0.103771
1.31595
-0.0613787
1.00333
-0.0252823
0.667954
-0.00536154
0.345483
-0.000325181
0.116304
0.00985209
-0.00131538
0.307841
-0.0198901
0.746306
-0.0454552
1.07878
-0.0712596
1.34993
-0.0964229
1.61245
-0.124084
1.87187
-0.152791
2.1496
-0.178107
2.4624
-0.195041
2.81135
-0.197779
3.19952
-0.181381
3.04239
-0.151991
2.43361
-0.117879
1.96739
-0.0811929
1.59651
-0.0421183
1.27688
-0.00934763
0.970564
0.00933707
0.649269
0.0116883
0.343132
0.00468408
0.123308
0.0145362
0.000743822
0.307097
-0.0123656
0.759415
-0.0303115
1.09672
-0.0495542
1.36917
-0.0687885
1.63168
-0.0901965
1.89328
-0.113303
2.17271
-0.134642
2.48374
-0.149312
2.82602
-0.150886
3.2011
-0.135001
3.0265
-0.108289
2.4069
-0.0770566
1.93615
-0.043541
1.56299
-0.0148361
1.24817
0.00754884
0.948179
0.0186605
0.638157
0.0159236
0.345869
0.00565974
0.133572
0.0201959
0.00386364
0.303234
-0.00504296
0.768322
-0.0214134
1.11309
-0.0388412
1.3866
-0.055506
1.64835
-0.0729273
1.9107
-0.0913073
2.19109
-0.108223
2.50066
-0.119714
2.83751
-0.120609
3.20199
-0.105909
3.0118
-0.0827764
2.38376
-0.0563333
1.90971
-0.0292113
1.53587
-0.00222988
1.22119
0.0172208
0.928729
0.0234102
0.631968
0.0168523
0.352427
0.00567782
0.144746
0.0258737
0.0045809
0.298653
-0.000849382
0.773752
-0.0151705
1.12741
-0.0320773
1.40351
-0.0485227
1.66479
-0.0644372
1.92661
-0.0803738
2.20702
-0.095116
2.5154
-0.105518
2.84792
-0.106504
3.20298
-0.0921434
2.99744
-0.0708411
2.36246
-0.0463428
1.88521
-0.020848
1.51037
0.000373691
1.19997
0.0159403
0.913162
0.0205686
0.62734
0.0139369
0.359059
0.00442866
0.154254
0.0303024
0.00346778
0.295185
-0.000467661
0.777687
-0.012509
1.13946
-0.0277913
1.41879
-0.0438482
1.68085
-0.0599543
1.94272
-0.0757746
2.22284
-0.0896289
2.52925
-0.0985516
2.85684
-0.0966398
3.20106
-0.0824467
2.98325
-0.0640106
2.34403
-0.0423927
1.86359
-0.0207583
1.48874
-0.000460333
1.17967
0.0124629
0.900239
0.0157475
0.624055
0.0104986
0.364308
0.00327134
0.161482
0.0335737
0.00211273
0.293072
-0.00139598
0.781196
-0.0118804
1.14994
-0.0257915
1.4327
-0.0412843
1.69634
-0.0575598
1.95899
-0.0738725
2.23916
-0.0881806
2.54356
-0.0976203
2.86628
-0.0964023
3.19985
-0.0837315
2.97058
-0.0660965
2.32639
-0.0447529
1.84225
-0.0236081
1.4676
-0.00768999
1.16375
0.0035876
0.888961
0.00790678
0.619736
0.00515402
0.36706
0.00190126
0.164734
0.035475
0.000503692
0.292568
-0.00341508
0.785115
-0.0127161
1.15924
-0.0251994
1.44519
-0.0398667
1.71101
-0.0563597
1.97549
-0.0736611
2.25646
-0.0892441
2.55914
-0.0990141
2.87605
-0.0971373
3.19797
-0.0846018
2.95804
-0.0685671
2.31036
-0.0501119
1.8238
-0.0328866
1.45037
-0.0173238
1.14819
-0.00726184
0.878899
-0.00301545
0.615489
-0.00189737
0.365942
-0.000430328
0.163267
0.0350446
-0.00119775
0.293766
-0.00567802
0.789595
-0.0145114
1.16807
-0.0262234
1.4569
-0.0402075
1.725
-0.0563265
1.99161
-0.0738872
2.27402
-0.0905646
2.57582
-0.102113
2.8876
-0.10323
3.19909
-0.0919127
2.94673
-0.0749253
2.29337
-0.0577522
1.80662
-0.0411125
1.43373
-0.0278371
1.13491
-0.0165735
0.867636
-0.00907584
0.607992
-0.00530052
0.362167
-0.00159312
0.15956
0.0334515
-0.00261142
0.296378
-0.00760344
0.794587
-0.0160415
1.17651
-0.0272232
1.46808
-0.0408375
1.73861
-0.0567693
2.00754
-0.0745053
2.29175
-0.0921263
2.59344
-0.105785
2.90126
-0.109146
3.20245
-0.100472
2.93805
-0.0841552
2.27705
-0.065434
1.7879
-0.0507984
1.41909
-0.0358269
1.11994
-0.0248442
0.856653
-0.0165203
0.599668
-0.00853841
0.354185
-0.00261478
0.153636
0.0308368
-0.0036496
0.300027
-0.00945118
0.800389
-0.0180548
1.18512
-0.0290495
1.47907
-0.0422504
1.75181
-0.0576296
2.02292
-0.0750019
2.30913
-0.0930828
2.61152
-0.108908
2.91708
-0.116382
3.20992
-0.110656
2.93233
-0.0931922
2.25959
-0.0751318
1.76984
-0.0575236
1.40149
-0.0441999
1.10662
-0.0310888
0.843542
-0.0196343
0.588213
-0.0103307
0.344881
-0.0030814
0.146387
0.0277554
-0.00431485
0.304342
-0.0107612
0.806835
-0.0194056
1.19376
-0.0302225
1.48989
-0.0432188
1.76481
-0.0583012
2.038
-0.0752975
2.32612
-0.0935474
2.62977
-0.1113
2.93483
-0.124039
3.22266
-0.123023
2.93131
-0.105577
2.24214
-0.0827249
1.74699
-0.0648403
1.3836
-0.049198
1.09098
-0.0366207
0.830965
-0.0245782
0.576171
-0.011836
0.332139
-0.00327767
0.137829
0.0244777
-0.00483092
0.309173
-0.0119524
0.813956
-0.0208426
1.20265
-0.0316448
1.50069
-0.0443716
1.77753
-0.0589139
2.05254
-0.0753707
2.34258
-0.0934951
2.6479
-0.112704
2.95404
-0.129658
3.23961
-0.132061
2.93372
-0.117206
2.22729
-0.0956217
1.7254
-0.0716745
1.35965
-0.0545993
1.0739
-0.0396154
0.815981
-0.0251815
0.561737
-0.012377
0.319335
-0.00313217
0.128584
0.0213455
-0.00515509
0.314328
-0.0127096
0.821511
-0.0216065
1.21155
-0.0322317
1.51132
-0.0447316
1.79003
-0.0589465
2.06676
-0.0750206
2.35865
-0.0931749
2.66605
-0.11329
2.97416
-0.1326
3.25892
-0.140006
2.94112
-0.129386
2.21667
-0.106134
1.70215
-0.079901
1.33342
-0.0563148
1.05032
-0.041546
0.801212
-0.0281115
0.548302
-0.0129075
0.304131
-0.00283104
0.118507
0.0185145
-0.00533065
0.319659
-0.0132673
0.829448
-0.0222894
1.22057
-0.0328202
1.52185
-0.044992
1.8022
-0.0587416
2.08051
-0.0745622
2.37447
-0.0927443
2.68423
-0.113179
2.99459
-0.134635
3.28038
-0.145995
2.95248
-0.14095
2.21162
-0.122962
1.68416
-0.0916128
1.30207
-0.0611029
1.01981
-0.0379837
0.778093
-0.0222648
0.532583
-0.0104195
0.292286
-0.00200831
0.110096
0.0165062
-0.00537728
0.325036
-0.0134726
0.837543
-0.0224145
1.22951
-0.032665
1.5321
-0.044446
1.81399
-0.0578877
2.09395
-0.0737227
2.39031
-0.0920861
2.7026
-0.112623
3.01513
-0.134207
3.30196
-0.148149
2.96642
-0.14881
2.21228
-0.133245
1.6686
-0.1056
1.27443
-0.0667721
0.980978
-0.0325447
0.743865
-0.0145091
0.514548
-0.00238849
0.280165
0.00058576
0.107122
0.0170919
-0.00531674
0.330353
-0.0135056
0.845732
-0.0224617
1.23847
-0.0324855
1.54212
-0.0436792
1.82518
-0.0568234
2.10709
-0.0728689
2.40635
-0.0914889
2.72122
-0.112316
3.03596
-0.135402
3.32505
-0.15202
2.98304
-0.155416
2.21568
-0.146083
1.65927
-0.119038
1.24738
-0.0793086
0.941249
-0.0284068
0.692963
0.0083249
0.477816
0.0190925
0.269397
0.00891323
0.117301
0.0260051
-0.00516715
0.33552
-0.0133149
0.85388
-0.0220957
1.24725
-0.0317255
1.55175
-0.0421863
1.83564
-0.0553102
2.12022
-0.0717443
2.42279
-0.0905831
2.74006
-0.111258
3.05663
-0.133753
3.34754
-0.150651
2.99994
-0.158219
2.22325
-0.151067
1.65212
-0.130775
1.22709
-0.0890886
0.899562
-0.033864
0.637739
0.0328759
0.411076
0.0678608
0.234412
0.0491632
0.135999
0.0751684
-0.00496099
0.340481
-0.0125846
0.861503
-0.0207558
1.25542
-0.0302171
1.56121
-0.0418553
1.84728
-0.0559718
2.13433
-0.0731057
2.43992
-0.0929551
2.7599
-0.114886
3.07856
-0.138865
3.37152
-0.157276
3.01835
-0.163795
2.22977
-0.160125
1.64845
-0.138457
1.20542
-0.102453
0.863558
-0.0341017
0.569388
0.0559538
0.321021
0.129805
0.160561
0.137682
0.128122
0.212851
-0.00484605
0.345327
-0.0121391
0.868796
-0.0200218
1.2633
-0.0296285
1.57082
-0.041928
1.85958
-0.0569334
2.14934
-0.0752644
2.45825
-0.096917
2.78156
-0.121301
3.10295
-0.147852
3.39808
-0.169365
3.03986
-0.18342
2.24382
-0.182499
1.64752
-0.166095
1.18902
-0.121749
0.819211
-0.0690018
0.516641
-0.0981987
0.350217
-0.390919
0.453281
-0.992802
0.730004
0.924722
-1.70467
-0.00469042
0.350017
-0.0119358
0.876042
-0.0198679
1.27123
-0.0292148
1.58017
-0.0407147
1.87108
-0.0556676
2.16429
-0.0745992
2.47719
-0.097042
2.804
-0.123492
3.1294
-0.155175
3.42976
-0.183838
3.06853
-0.202465
2.26245
-0.213458
1.65852
-0.207109
1.18267
-0.19138
0.803482
-0.2943
0.619561
-0.756769
0.812686
-1.49288
1.18939
-2.08734
1.32446
1.20916
-2.37177
-0.00444812
0.354466
-0.0114922
0.883086
-0.0191722
1.27891
-0.0280453
1.58904
-0.0393589
1.88239
-0.0546804
2.17961
-0.0741632
2.49667
-0.0973889
2.82723
-0.12535
3.15736
-0.158702
3.46311
-0.190603
3.10043
-0.219851
2.29169
-0.240515
1.67918
-0.250056
1.19221
-0.365564
0.918991
-0.840468
1.09446
-1.59953
1.57174
-2.13418
1.72404
-2.35775
1.54804
1.31371
-2.46231
-0.00387712
0.358343
-0.0110221
0.890231
-0.0185159
1.28641
-0.026799
1.59732
-0.0379418
1.89353
-0.0537023
2.19537
-0.0734853
2.51645
-0.0973458
2.85109
-0.127753
3.18776
-0.166902
3.50226
-0.208705
3.14223
-0.246466
2.32946
-0.280104
1.71282
-0.377745
1.28985
-0.74217
1.28342
-1.48301
1.8353
-2.04635
2.13509
-2.27447
1.95216
-2.38132
1.65488
1.38084
-2.44844
-0.00298621
0.361329
-0.00890822
0.896153
-0.0158818
1.29338
-0.0248096
1.60625
-0.0371026
1.90583
-0.0530402
2.21131
-0.0726957
2.53611
-0.0971951
2.87559
-0.129197
3.21977
-0.17029
3.54335
-0.215878
3.18782
-0.266782
2.38036
-0.331277
1.77731
-0.549603
1.50818
-1.18647
1.92028
-1.84987
2.4987
-2.14705
2.43227
-2.28458
2.08969
-2.36334
1.73365
1.43934
-2.42185
-0.00246427
0.363793
-0.00709735
0.900786
-0.0141748
1.30046
-0.0245504
1.61663
-0.0380124
1.91929
-0.0540754
2.22737
-0.0737984
2.55583
-0.0994465
2.90123
-0.134003
3.25432
-0.181449
3.5908
-0.237199
3.24357
-0.291127
2.43429
-0.41751
1.9037
-0.827524
1.91819
-1.55882
2.65158
-1.99407
2.93395
-2.17085
2.60905
-2.26301
2.18186
-2.33356
1.80419
1.49857
-2.39278
-0.00235005
0.366143
-0.00742293
0.905859
-0.0149911
1.30803
-0.0257986
1.62744
-0.0397861
1.93328
-0.0565865
2.24417
-0.0772437
2.57649
-0.104217
2.92821
-0.140771
3.29088
-0.190521
3.64055
-0.24938
3.30243
-0.32971
2.51462
-0.54698
2.12097
-1.13326
2.50447
-1.74251
3.26082
-1.98959
3.18102
-2.12298
2.74244
-2.22365
2.28253
-2.30697
1.88751
1.5583
-2.36671
-0.00250616
0.368649
-0.00838006
0.911733
-0.0166283
1.31628
-0.0276717
1.63848
-0.0418449
1.94745
-0.0592033
2.26153
-0.0807235
2.59801
-0.109079
2.95656
-0.148326
3.33012
-0.204152
3.69637
-0.272692
3.37097
-0.377433
2.61936
-0.696509
2.44004
-1.36317
3.17114
-1.80436
3.70201
-1.99555
3.37222
-2.12459
2.87148
-2.22447
2.38241
-2.30069
1.96372
1.58913
-2.33151
-0.00284252
0.371492
-0.00919705
0.918087
-0.017961
1.32504
-0.029316
1.64983
-0.0438219
1.96196
-0.0618039
2.27951
-0.0842859
2.62049
-0.114008
2.98629
-0.155542
3.37166
-0.21286
3.75369
-0.283147
3.44125
-0.436538
2.77275
-0.863619
2.86712
-1.49567
3.80319
-1.81554
4.02188
-1.97149
3.52816
-2.06425
2.96425
-2.1441
2.46226
-2.19616
2.01578
1.53254
-2.13958
-0.00306188
0.374554
-0.00986817
0.924893
-0.019334
1.33451
-0.0313407
1.66184
-0.0462486
1.97686
-0.0646292
2.2979
-0.0877911
2.64365
-0.118731
3.01723
-0.162877
3.4158
-0.227755
3.81857
-0.325004
3.5385
-0.525441
2.97319
-1.0101
3.35178
-1.54729
4.34038
-1.7897
4.26429
-1.92984
3.6683
-2.01013
3.04455
-2.01933
2.47145
-1.93889
1.93534
1.45976
-1.8661
-0.00310091
0.377655
-0.0102887
0.932081
-0.0201013
1.34432
-0.0324728
1.67421
-0.0478558
1.99225
-0.066625
2.31666
-0.0901806
2.66721
-0.121634
3.04868
-0.166206
3.46038
-0.22673
3.87909
-0.328283
3.64006
-0.567387
3.21229
-1.09281
3.87721
-1.50484
4.75241
-1.66467
4.42412
-1.74342
3.74705
-1.77544
3.07657
-1.64485
2.34087
-1.12937
1.41986
0.330391
-0.00297443
0.380629
-0.0102943
0.939401
-0.0207928
1.35482
-0.0342354
1.68765
-0.0507256
2.00874
-0.0705574
2.3365
-0.0958744
2.69252
-0.130346
3.08315
-0.178666
3.50869
-0.245821
3.94625
-0.368211
3.76245
-0.662821
3.5069
-1.23547
4.44985
-1.56846
5.0854
-1.68078
4.53644
-1.71297
3.77924
-1.61109
2.97469
-1.26034
1.99012
-0.483672
0.643185
-0.153281
-0.0026456
0.383275
-0.0103224
0.947078
-0.0212287
1.36572
-0.0350377
1.70146
-0.0523639
2.02606
-0.0737717
2.3579
-0.101052
2.7198
-0.138047
3.12015
-0.190761
3.56141
-0.26527
4.02076
-0.413288
3.91046
-0.779121
3.87273
-1.34863
5.01936
-1.58612
5.32289
-1.65466
4.60498
-1.62629
3.75087
-1.3694
2.71779
-0.652328
1.27305
-0.0176215
0.00847859
-0.170903
-0.00219145
0.385466
-0.0097084
0.954595
-0.0212172
1.37723
-0.0360162
1.71626
-0.0542635
2.04431
-0.0766021
2.38024
-0.10552
2.74872
-0.145116
3.15974
-0.20024
3.61653
-0.291704
4.11222
-0.474844
4.0936
-0.894917
4.29281
-1.41855
5.54299
-1.58288
5.48722
-1.62105
4.64316
-1.48448
3.6143
-0.992795
2.22611
-0.178573
0.458832
0.0353274
-0.205422
-0.135576
-0.00140669
0.386873
-0.00874516
0.961933
-0.0202994
1.38879
-0.0352383
1.7312
-0.0542052
2.06328
-0.0780722
2.40411
-0.108815
2.77946
-0.15072
3.20165
-0.208814
3.67463
-0.309729
4.21314
-0.519786
4.30366
-1.00599
4.77901
-1.4494
5.98641
-1.55752
5.59533
-1.54094
4.62658
-1.25805
3.33141
-0.519146
1.4872
0.0083623
-0.0686763
0.0261497
-0.223209
-0.109426
-9.95923e-05
0.386972
-0.00662359
0.968457
-0.0184313
1.40059
-0.0342618
1.74703
-0.0540044
2.08302
-0.0784783
2.42858
-0.110579
2.81156
-0.15492
3.24599
-0.214893
3.7346
-0.32286
4.32111
-0.561357
4.54216
-1.0969
5.31455
-1.42469
6.31419
-1.47953
5.65017
-1.39781
4.54486
-0.993166
2.92677
-0.176199
0.670238
0.0244662
-0.269342
0.0218309
-0.220574
-0.0875949
0.00145437
0.385518
-0.00375298
0.973665
-0.0149606
1.4118
-0.0303863
1.76246
-0.0504741
2.10311
-0.076285
2.45439
-0.10981
2.84509
-0.155401
3.29158
-0.217904
3.7971
-0.332847
4.43605
-0.605808
4.81512
-1.14563
5.85437
-1.37397
6.54253
-1.40048
5.67668
-1.2063
4.35067
-0.609112
2.32958
-0.00272842
0.0638549
0.0204967
-0.292567
0.0111949
-0.211272
-0.0764
0.00378359
0.381734
0.000832898
0.976615
-0.00970529
1.42234
-0.0255376
1.77829
-0.0458923
2.12346
-0.071819
2.48032
-0.106077
2.87935
-0.152091
3.33759
-0.215818
3.86083
-0.33658
4.55681
-0.638117
5.11666
-1.14755
6.3638
-1.29901
6.694
-1.28
5.65767
-0.964491
4.03516
-0.2995
1.66459
-0.0260669
-0.209578
-0.00451158
-0.314122
-0.00156244
-0.214221
-0.0779624
0.00699985
0.374735
0.00679071
0.976824
-0.00168594
1.43082
-0.0160194
1.79262
-0.035839
2.14328
-0.0624537
2.50694
-0.0975624
2.91446
-0.143595
3.38363
-0.208473
3.92571
-0.330687
4.67903
-0.649524
5.43549
-1.09494
6.80921
-1.19429
6.79336
-1.13901
5.60239
-0.808483
3.70463
-0.0952762
0.951386
-0.0110364
-0.293818
0.0120678
-0.337227
0.00807951
-0.210233
-0.0698829
0.0115027
0.363232
0.0157625
0.972565
0.00970848
1.43687
-0.00398451
1.80632
-0.0230394
2.16234
-0.048776
2.53267
-0.0838362
2.94952
-0.129669
3.42946
-0.19501
3.99105
-0.317363
4.80138
-0.627413
5.74554
-0.98992
7.17172
-1.05061
6.85405
-0.952759
5.50454
-0.552993
3.30487
0.08368
0.314713
0.0990674
-0.309205
0.0812068
-0.319366
0.0451799
-0.174206
-0.0247031
0.0173918
0.34584
0.0273767
0.96258
0.025642
1.4386
0.0152695
1.81669
-0.00180766
2.17941
-0.0265863
2.55745
-0.0614467
2.98438
-0.107397
3.47541
-0.172286
4.05594
-0.282331
4.91142
-0.553069
6.01628
-0.8341
7.45275
-0.901021
6.92097
-0.798433
5.40195
-0.359949
2.86638
-0.0172017
-0.0280345
0.0352683
-0.361675
0.0531315
-0.337229
0.0503494
-0.171424
0.0256464
0.0250074
0.320833
0.0432674
0.94432
0.0463519
1.43552
0.0385216
1.82452
0.024357
2.19358
0.00287207
2.57894
-0.0288951
3.01614
-0.0743805
3.52089
-0.136815
4.11837
-0.229413
5.00402
-0.437083
6.22395
-0.633957
7.64963
-0.717337
7.00435
-0.68937
5.37398
-0.359564
2.53658
-0.33626
-0.0513386
-0.254725
-0.44321
-0.131866
-0.460088
-0.0130757
-0.290215
0.0125707
0.0347494
0.286083
0.0633184
0.915751
0.0740198
1.42482
0.0716959
1.82684
0.0621239
2.20315
0.0451256
2.59593
0.0191608
3.04211
-0.0226212
3.56268
-0.0847528
4.1805
-0.159467
5.07873
-0.279938
6.34442
-0.389451
7.75914
-0.479993
7.09489
-0.480701
5.37469
-0.321424
2.3773
-0.518988
0.146226
-0.506329
-0.455869
-0.351045
-0.615372
-0.138631
-0.502629
-0.12606
0.0462221
0.239861
0.0888989
0.873074
0.108422
1.4053
0.111757
1.82351
0.108082
2.20683
0.0974031
2.60661
0.0811642
3.05835
0.0509447
3.5929
-0.00404842
4.2355
-0.0721727
5.14686
-0.100471
6.37272
-0.0981812
7.75685
-0.112187
7.1089
-0.138548
5.40105
-0.203607
2.44236
-0.481217
0.423836
-0.558061
-0.379026
-0.446115
-0.727317
-0.234321
-0.714424
-0.360381
0.0579507
0.18191
0.117525
0.813499
0.152204
1.37062
0.16611
1.8096
0.169753
2.20318
0.166259
2.61011
0.160368
3.06424
0.147699
3.60556
0.118212
4.26498
0.0779049
5.18717
0.144401
6.30623
0.272011
7.62924
0.39283
6.98808
0.398822
5.39506
0.0997873
2.74139
-0.173244
0.696867
-0.276304
-0.275966
-0.29649
-0.707131
-0.188295
-0.822619
-0.548676
0.0623047
0.119606
0.149194
0.72661
0.204749
1.31506
0.232081
1.78227
0.24473
2.19053
0.249466
2.60537
0.254882
3.05882
0.263287
3.59716
0.272212
4.25606
0.27999
5.17939
0.466849
6.11937
0.745257
7.35083
0.928598
6.80474
0.929184
5.39448
0.449637
3.22094
0.132551
1.01395
-0.0631382
-0.0802765
-0.187673
-0.582596
-0.14014
-0.870152
-0.688816
0.0546016
0.0650042
0.178074
0.603138
0.268301
1.22484
0.315199
1.73537
0.337702
2.16803
0.351727
2.59135
0.366529
3.04402
0.395024
3.56866
0.447197
4.20389
0.537057
5.08953
0.858509
5.79792
1.31176
6.89758
1.64381
6.47269
1.83178
5.2065
1.4562
3.59652
0.840875
1.62928
0.3561
0.404499
0.0881209
-0.314617
-0.0182066
-0.763824
-0.707022
0.0432036
0.0218006
0.213639
0.432703
0.335992
1.10248
0.408489
1.66288
0.448232
2.12829
0.475438
2.56414
0.499003
3.02046
0.539898
3.52777
0.620236
4.12355
0.789327
4.92044
1.22301
5.36423
1.86845
6.25214
2.21461
6.12653
2.43577
4.98534
2.28377
3.74852
1.64911
2.26394
1.03688
1.01672
0.549644
0.172622
0.157467
-0.371648
-0.549555
0.0302283
-0.00842772
0.228488
0.234443
0.408249
0.922721
0.511075
1.56005
0.567931
2.07143
0.610519
2.52155
0.646561
2.98441
0.70541
3.46892
0.808709
4.02025
0.986789
4.74236
1.40155
4.94947
2.23821
5.41548
2.55869
5.80606
2.76626
4.77776
2.77156
3.74322
2.36088
2.67462
1.69715
1.68045
0.962513
0.907259
0.380283
0.210582
-0.169272
0.0274542
-0.0358819
0.187183
0.0747141
0.456987
0.652916
0.626064
1.39097
0.708435
1.98906
0.75931
2.47068
0.803369
2.94035
0.863878
3.40841
0.964402
3.91972
1.12072
4.58603
1.3922
4.67799
2.12747
4.6802
2.54987
5.38367
2.60248
4.72515
2.54391
3.8018
2.17946
3.03907
1.58916
2.27074
0.996193
1.50023
0.43482
0.771956
0.265548
0.0200392
-0.0559211
0.115418
-0.0206643
0.402996
0.365338
0.610603
1.18336
0.71
1.88966
0.744803
2.43588
0.763432
2.92173
0.766164
3.40568
0.78977
3.89612
0.844213
4.53159
0.906612
4.61559
1.10034
4.48648
1.30792
5.17608
1.29001
4.74306
1.1532
3.93861
0.979068
3.2132
0.768544
2.48127
0.541286
1.72749
0.255588
1.05765
0.521137
0.0143219
-0.0702431
0.0622592
-0.0686016
0.232526
0.195072
0.405295
1.0106
0.511427
1.78353
0.561711
2.38559
0.591339
2.8921
0.59586
3.40116
0.608442
3.88354
0.637892
4.50214
0.640131
4.61335
0.727063
4.39955
0.919619
4.98353
0.898332
4.76434
0.791392
4.04555
0.688864
3.31572
0.5578
2.61233
0.384218
1.90107
0.170811
1.27106
0.691947
0.0237896
-0.0940327
0.0580914
-0.102903
0.109279
0.143884
0.224501
0.895373
0.316099
1.69193
0.377008
2.32468
0.415869
2.85324
0.431607
3.38542
0.440713
3.87443
0.467851
4.475
0.482157
4.59905
0.498191
4.38351
0.577259
4.90446
0.581608
4.76
0.520962
4.1062
0.435996
3.40069
0.327993
2.72034
0.210328
2.01874
0.0817234
1.39967
0.77367
0.0219995
-0.116032
0.0366807
-0.117585
0.0205177
0.160047
0.0667581
0.849133
0.132247
1.62645
0.196776
2.26015
0.248514
2.8015
0.277075
3.35686
0.281106
3.8704
0.289414
4.4667
0.326363
4.5621
0.313198
4.39668
0.36487
4.85279
0.380988
4.74388
0.349734
4.13745
0.279651
3.47077
0.190825
2.80916
0.0947506
2.11481
0.0103409
1.48408
0.784011
0.00750404
-0.123536
-0.0107448
-0.0993357
-0.0587412
0.208043
-0.0660789
0.856471
-0.0239928
1.58436
0.0369782
2.19918
0.096551
2.74192
0.140482
3.31293
0.158616
3.85227
0.156371
4.46894
0.154373
4.5641
0.164097
4.38695
0.227286
4.7896
0.243213
4.72795
0.211211
4.16946
0.158345
3.52364
0.0971382
2.87037
0.0267255
2.18522
-0.0281202
1.53892
0.755891