/*--------------------------------*- C++ -*----------------------------------*\
  =========                 |
  \\      /  F ield         | OpenFOAM: The Open Source CFD Toolbox
   \\    /   O peration     | Website:  https://openfoam.org
    \\  /    A nd           | Version:  6
     \\/     M anipulation  |
\*---------------------------------------------------------------------------*/
FoamFile
{
    version     2.0;
    format      ascii;
    class       volVectorField;
    location    "82.5";
    object      U;
}
// * * * * * * * * * * * * * * * * * * * * * * * * * * * * * * * * * * * * * //

dimensions      [0 1 -1 0 0 0 0];

internalField   nonuniform List<vector> 
8800
(
(0.987184 -0.0766655 0)
(1.00189 -0.0551904 0)
(0.999724 -0.0285483 0)
(1.00003 -0.015143 0)
(1.0001 -0.00854355 0)
(1.00012 -0.00504484 0)
(1.00008 -0.00299916 0)
(1.00003 -0.00169902 0)
(0.999994 -0.000793138 0)
(1.00006 -7.79571e-05 0)
(0.999962 0.000653564 0)
(0.999985 0.00142274 0)
(1.00004 0.00243747 0)
(1.00006 0.00400342 0)
(1.00005 0.00663552 0)
(1.00004 0.0113739 0)
(0.999932 0.0208166 0)
(0.999164 0.0386715 0)
(1.0071 0.0724576 0)
(0.771214 0.0366615 0)
(0.363074 -0.0160169 0)
(1.04332 -0.0768143 0)
(1.0846 -0.0704444 0)
(1.04519 -0.053539 0)
(1.02329 -0.0388898 0)
(1.01202 -0.0262109 0)
(1.00643 -0.0168484 0)
(1.00359 -0.0103155 0)
(1.00215 -0.00565387 0)
(1.00144 -0.00199315 0)
(1.00129 0.00132968 0)
(1.00165 0.00471601 0)
(1.00266 0.00864727 0)
(1.00467 0.0139699 0)
(1.0086 0.0216762 0)
(1.01656 0.0326436 0)
(1.03249 0.0465555 0)
(1.06266 0.0616713 0)
(1.09187 0.0761034 0)
(0.838667 0.0565632 0)
(0.216857 -0.00242929 0)
(1.07591 -0.0501305 0)
(1.09988 -0.0483027 0)
(1.06465 -0.0404529 0)
(1.04004 -0.0335915 0)
(1.02392 -0.0260661 0)
(1.01412 -0.018479 0)
(1.00856 -0.0116543 0)
(1.00558 -0.00578082 0)
(1.00431 -0.000358227 0)
(1.00464 0.00489085 0)
(1.00658 0.010285 0)
(1.01062 0.0163635 0)
(1.01794 0.0233772 0)
(1.03052 0.0308403 0)
(1.05061 0.0378664 0)
(1.08035 0.0445472 0)
(1.10626 0.0513584 0)
(0.942508 0.0416241 0)
(0.216131 0.0024624 0)
(0.175192 -0.000815873 0)
(1.01772 -0.0354759 0)
(1.10521 -0.0413654 0)
(1.07827 -0.036045 0)
(1.05348 -0.0301051 0)
(1.03622 -0.0245231 0)
(1.02401 -0.0187876 0)
(1.01589 -0.0126996 0)
(1.01101 -0.00650334 0)
(1.00879 -0.000161625 0)
(1.00935 0.00609761 0)
(1.01262 0.0120985 0)
(1.01888 0.0179143 0)
(1.02876 0.0234755 0)
(1.04318 0.0287731 0)
(1.0637 0.0342502 0)
(1.09355 0.0402302 0)
(1.09339 0.0419852 0)
(0.827083 0.0229245 0)
(0.173969 0.000854113 0)
(0.154004 -0.000609639 0)
(0.956248 -0.0254452 0)
(1.10349 -0.0351049 0)
(1.0877 -0.0326208 0)
(1.06174 -0.0279601 0)
(1.04413 -0.022927 0)
(1.03166 -0.0176697 0)
(1.0228 -0.0121266 0)
(1.01697 -0.00617856 0)
(1.0141 0.000300168 0)
(1.01475 0.00676663 0)
(1.01874 0.0126523 0)
(1.0258 0.0179224 0)
(1.03608 0.0228223 0)
(1.05062 0.027576 0)
(1.07186 0.0320979 0)
(1.10005 0.0360246 0)
(1.06802 0.0340699 0)
(0.739402 0.0143303 0)
(0.152158 0.000653053 0)
(0.139649 -0.000465693 0)
(0.899404 -0.0190573 0)
(1.09584 -0.0300432 0)
(1.09578 -0.0291401 0)
(1.06929 -0.0253973 0)
(1.05085 -0.0212452 0)
(1.03792 -0.016458 0)
(1.02879 -0.0111552 0)
(1.02265 -0.0053952 0)
(1.01949 0.000945312 0)
(1.02008 0.00726382 0)
(1.02418 0.0128984 0)
(1.03136 0.0178312 0)
(1.04184 0.0222761 0)
(1.05695 0.0262354 0)
(1.07915 0.0296855 0)
(1.10223 0.0322998 0)
(1.03585 0.0281758 0)
(0.672731 0.0102345 0)
(0.13704 0.000515757 0)
(0.129132 -0.000360057 0)
(0.849898 -0.0146876 0)
(1.08351 -0.0258953 0)
(1.10149 -0.0261688 0)
(1.07617 -0.0228676 0)
(1.0572 -0.0192068 0)
(1.0438 -0.0149417 0)
(1.03432 -0.00999676 0)
(1.02793 -0.00444273 0)
(1.02457 0.00172254 0)
(1.025 0.00783014 0)
(1.02906 0.013189 0)
(1.03634 0.0177026 0)
(1.04709 0.021539 0)
(1.0626 0.0248316 0)
(1.08523 0.0277581 0)
(1.10128 0.0294963 0)
(1.00082 0.0236819 0)
(0.620754 0.00787827 0)
(0.125593 0.000418939 0)
(0.12112 -0.000279084 0)
(0.807872 -0.011521 0)
(1.06831 -0.0222667 0)
(1.10506 -0.0235054 0)
(1.08246 -0.0206124 0)
(1.06307 -0.0171615 0)
(1.0494 -0.0131984 0)
(1.03963 -0.00858506 0)
(1.03295 -0.00329685 0)
(1.02932 0.00265429 0)
(1.02956 0.00851581 0)
(1.03356 0.0135275 0)
(1.0409 0.0175613 0)
(1.05174 0.0208869 0)
(1.06746 0.0237663 0)
(1.09042 0.0263894 0)
(1.09742 0.0272244 0)
(0.965373 0.0201684 0)
(0.578908 0.00635358 0)
(0.11645 0.000349105 0)
(0.114926 -0.00021551 0)
(0.772553 -0.0091482 0)
(1.05166 -0.0190662 0)
(1.10751 -0.0210333 0)
(1.08837 -0.0185046 0)
(1.0686 -0.0151924 0)
(1.05468 -0.0113844 0)
(1.04471 -0.00697385 0)
(1.03777 -0.00191909 0)
(1.03385 0.0037853 0)
(1.03385 0.00934991 0)
(1.03772 0.0139853 0)
(1.04498 0.0175895 0)
(1.0558 0.0205245 0)
(1.07171 0.0230758 0)
(1.09432 0.0253479 0)
(1.09069 0.0253592 0)
(0.930807 0.017471 0)
(0.54417 0.00531836 0)
(0.108881 0.000299244 0)
(0.110118 -0.000164196 0)
(0.743005 -0.00730185 0)
(1.03462 -0.0162226 0)
(1.10902 -0.0186952 0)
(1.09401 -0.0164648 0)
(1.07395 -0.0132373 0)
(1.05976 -0.00951073 0)
(1.04959 -0.00521247 0)
(1.04242 -0.000322009 0)
(1.03819 0.00514821 0)
(1.03787 0.0104028 0)
(1.0415 0.0146779 0)
(1.0486 0.0178985 0)
(1.05937 0.0204848 0)
(1.07547 0.0227423 0)
(1.09691 0.02463 0)
(1.08147 0.0238566 0)
(0.897666 0.0154407 0)
(0.514475 0.00460363 0)
(0.102403 0.000264659 0)
(0.106413 -0.000121353 0)
(0.718414 -0.00580758 0)
(1.01804 -0.0136634 0)
(1.10974 -0.0164268 0)
(1.09956 -0.0144593 0)
(1.07924 -0.0112349 0)
(1.06476 -0.00752847 0)
(1.05435 -0.0032813 0)
(1.04691 0.00150435 0)
(1.04233 0.00678285 0)
(1.04161 0.011752 0)
(1.04492 0.0156928 0)
(1.05182 0.0185488 0)
(1.0625 0.0207982 0)
(1.07877 0.0227819 0)
(1.09813 0.0242504 0)
(1.07013 0.0227186 0)
(0.866046 0.0139619 0)
(0.488358 0.00411947 0)
(0.0966712 0.000242354 0)
(0.103625 -8.39968e-05 0)
(0.698147 -0.00454901 0)
(1.00252 -0.0113206 0)
(1.10982 -0.0141907 0)
(1.10498 -0.0124003 0)
(1.08455 -0.00912933 0)
(1.06974 -0.00538242 0)
(1.05906 -0.00112465 0)
(1.0513 0.00361661 0)
(1.04628 0.00875466 0)
(1.04508 0.0134703 0)
(1.048 0.0170925 0)
(1.05465 0.019587 0)
(1.06522 0.0215045 0)
(1.08161 0.023222 0)
(1.09828 0.0243207 0)
(1.0569 0.0219584 0)
(0.835755 0.0129489 0)
(0.464709 0.00381106 0)
(0.0914218 0.000229929 0)
(0.101638 -4.94211e-05 0)
(0.681742 -0.00343878 0)
(0.988526 -0.00912257 0)
(1.10949 -0.0118989 0)
(1.11025 -0.010206 0)
(1.08997 -0.00686096 0)
(1.07481 -0.00301207 0)
(1.0638 0.00132371 0)
(1.05563 0.00608243 0)
(1.05009 0.0111349 0)
(1.0483 0.0156335 0)
(1.05076 0.0189507 0)
(1.05709 0.0210837 0)
(1.06752 0.0226657 0)
(1.08393 0.0240961 0)
(1.09747 0.0247624 0)
(1.04192 0.0215863 0)
(0.806429 0.0123293 0)
(0.44265 0.00364076 0)
(0.0864467 0.000225339 0)
(0.100392 -1.53615e-05 0)
(0.668905 -0.00240727 0)
(0.976432 -0.00699375 0)
(1.10906 -0.00949355 0)
(1.1155 -0.00781493 0)
(1.09556 -0.00435048 0)
(1.08002 -0.000331714 0)
(1.06862 0.00415156 0)
(1.05996 0.00899402 0)
(1.05378 0.0140108 0)
(1.05129 0.0183179 0)
(1.05319 0.0213408 0)
(1.05915 0.023102 0)
(1.0694 0.024342 0)
(1.08579 0.0254847 0)
(1.09539 0.0256529 0)
(1.02521 0.0216041 0)
(0.777606 0.0120529 0)
(0.421462 0.00358353 0)
(0.0815802 0.00022722 0)
(0.0998773 2.09611e-05 0)
(0.659493 -0.00139876 0)
(0.966555 -0.00486131 0)
(1.10887 -0.00691373 0)
(1.1209 -0.00515281 0)
(1.10144 -0.00150982 0)
(1.08548 0.00274821 0)
(1.0736 0.00745305 0)
(1.06435 0.0124533 0)
(1.0574 0.0174943 0)
(1.05407 0.0216415 0)
(1.05528 0.0243758 0)
(1.0608 0.0257643 0)
(1.07083 0.0266407 0)
(1.0871 0.0274521 0)
(1.09193 0.0270356 0)
(1.0067 0.022051 0)
(0.748765 0.0120947 0)
(0.400535 0.00362603 0)
(0.0766833 0.000234883 0)
(0.10011 5.29401e-05 0)
(0.653492 -0.000357577 0)
(0.9592 -0.00264994 0)
(1.10928 -0.00409003 0)
(1.12659 -0.0021363 0)
(1.10769 0.00175762 0)
(1.09127 0.00633656 0)
(1.07884 0.0113456 0)
(1.06887 0.01658 0)
(1.06098 0.0217094 0)
(1.05663 0.0257261 0)
(1.05703 0.0281684 0)
(1.06204 0.0291809 0)
(1.07179 0.0296698 0)
(1.08759 0.0301049 0)
(1.08678 0.0289853 0)
(0.986164 0.0229617 0)
(0.719316 0.0124407 0)
(0.379306 0.00375904 0)
(0.0716306 0.000247604 0)
(0.101173 0.000105247 0)
(0.651029 0.000761028 0)
(0.95469 -0.000281386 0)
(1.11064 -0.000941232 0)
(1.13278 0.00133924 0)
(1.11445 0.0055807 0)
(1.09751 0.0105735 0)
(1.08441 0.0159792 0)
(1.07357 0.0215326 0)
(1.06455 0.0268057 0)
(1.05898 0.0307143 0)
(1.05842 0.0328562 0)
(1.06281 0.0334813 0)
(1.07221 0.0335561 0)
(1.08713 0.0335677 0)
(1.07971 0.0315798 0)
(0.963258 0.0243762 0)
(0.688606 0.0130797 0)
(0.357248 0.00397383 0)
(0.0663125 0.000264422 0)
(0.103212 0.00015864 0)
(0.652377 0.00188687 0)
(0.953381 0.00232698 0)
(1.11344 0.00263323 0)
(1.13969 0.00537597 0)
(1.12186 0.0100905 0)
(1.10433 0.0156053 0)
(1.09043 0.0215166 0)
(1.07852 0.0274836 0)
(1.06813 0.0329679 0)
(1.06111 0.0367876 0)
(1.05942 0.0385868 0)
(1.06306 0.0388168 0)
(1.07205 0.0384453 0)
(1.08544 0.0379499 0)
(1.07038 0.0349256 0)
(0.937496 0.0263341 0)
(0.655932 0.0140055 0)
(0.333866 0.00426177 0)
(0.0606361 0.000284363 0)
(0.106322 0.000222842 0)
(0.658075 0.00335997 0)
(0.955685 0.00525558 0)
(1.11812 0.00678344 0)
(1.14756 0.0101361 0)
(1.1301 0.0154771 0)
(1.11188 0.0216474 0)
(1.097 0.028186 0)
(1.0838 0.0346631 0)
(1.07176 0.0404086 0)
(1.06301 0.044128 0)
(1.06002 0.0455626 0)
(1.06276 0.0453628 0)
(1.07124 0.0445013 0)
(1.0825 0.0434465 0)
(1.05837 0.0391323 0)
(0.908229 0.0288792 0)
(0.620528 0.0152043 0)
(0.308699 0.00460998 0)
(0.054529 0.000305905 0)
(0.110791 0.000309019 0)
(0.668494 0.00508408 0)
(0.962173 0.00875749 0)
(1.1252 0.0116634 0)
(1.15671 0.0158264 0)
(1.13941 0.0219854 0)
(1.12034 0.0289626 0)
(1.10425 0.0362633 0)
(1.08945 0.0433445 0)
(1.07542 0.0493813 0)
(1.06465 0.0529634 0)
(1.0601 0.0539854 0)
(1.06183 0.0533124 0)
(1.0697 0.0518979 0)
(1.07825 0.0501671 0)
(1.04306 0.0443056 0)
(0.874632 0.0320173 0)
(0.581581 0.0166387 0)
(0.281343 0.00499549 0)
(0.0479497 0.000326657 0)
(0.116971 0.000423029 0)
(0.68443 0.00723556 0)
(0.973492 0.0129865 0)
(1.13526 0.0174993 0)
(1.16749 0.0226938 0)
(1.15005 0.0299213 0)
(1.12991 0.0378868 0)
(1.1123 0.0460943 0)
(1.09552 0.053858 0)
(1.0791 0.0601876 0)
(1.06595 0.0635564 0)
(1.05953 0.0640461 0)
(1.06023 0.0628664 0)
(1.06747 0.0608413 0)
(1.07241 0.0583067 0)
(1.02369 0.0505266 0)
(0.835704 0.0357255 0)
(0.538284 0.0182393 0)
(0.251516 0.00538327 0)
(0.0409064 0.000343457 0)
(0.12539 0.000584557 0)
(0.706844 0.0100476 0)
(0.9905 0.0182482 0)
(1.14894 0.0246423 0)
(1.18042 0.0311473 0)
(1.16235 0.0397609 0)
(1.14081 0.0489211 0)
(1.12125 0.0581661 0)
(1.102 0.0666372 0)
(1.08269 0.0731584 0)
(1.06681 0.0761471 0)
(1.0583 0.0759721 0)
(1.05786 0.0742133 0)
(1.06435 0.0714751 0)
(1.06446 0.0678908 0)
(0.999184 0.0578317 0)
(0.790262 0.0398912 0)
(0.489903 0.0198799 0)
(0.219131 0.00572129 0)
(0.0334737 0.000352356 0)
(0.136793 0.000815368 0)
(0.737062 0.0139051 0)
(1.01436 0.0250124 0)
(1.16706 0.0336378 0)
(1.19611 0.0417837 0)
(1.1767 0.0521777 0)
(1.15322 0.0627371 0)
(1.1311 0.0730898 0)
(1.10877 0.0821751 0)
(1.08605 0.0886651 0)
(1.06709 0.0910091 0)
(1.05634 0.0899855 0)
(1.05473 0.0875994 0)
(1.05997 0.0839964 0)
(1.0536 0.0791274 0)
(0.968202 0.06612 0)
(0.737024 0.0442877 0)
(0.435958 0.0213594 0)
(0.184424 0.00593981 0)
(0.0258142 0.000348784 0)
(0.152477 0.00118194 0)
(0.777111 0.0194361 0)
(1.04674 0.0340725 0)
(1.19056 0.045429 0)
(1.21545 0.0558793 0)
(1.19343 0.0682175 0)
(1.16721 0.0803031 0)
(1.1417 0.0916606 0)
(1.11557 0.101054 0)
(1.08891 0.10708 0)
(1.06655 0.108365 0)
(1.05346 0.10623 0)
(1.05072 0.103121 0)
(1.05413 0.0987256 0)
(1.03884 0.0919799 0)
(0.928971 0.075124 0)
(0.674765 0.0485042 0)
(0.376468 0.0223999 0)
(0.14808 0.00595972 0)
(0.018189 0.000328726 0)
(0.17466 0.00181411 0)
(0.830219 0.0277876 0)
(1.0904 0.0469906 0)
(1.22056 0.0618995 0)
(1.23888 0.075253 0)
(1.21265 0.0895555 0)
(1.18251 0.102985 0)
(1.15263 0.114854 0)
(1.12196 0.123883 0)
(1.09088 0.128721 0)
(1.06495 0.128372 0)
(1.04949 0.124798 0)
(1.04565 0.12079 0)
(1.04678 0.115387 0)
(1.01866 0.106254 0)
(0.879305 0.0842873 0)
(0.602718 0.0519362 0)
(0.312396 0.022674 0)
(0.111376 0.00570857 0)
(0.0109579 0.00028888 0)
(0.20676 0.00320743 0)
(0.902193 0.0416423 0)
(1.14864 0.0676144 0)
(1.25743 0.0866085 0)
(1.26623 0.102865 0)
(1.23373 0.11859 0)
(1.19827 0.132412 0)
(1.16303 0.143649 0)
(1.12722 0.151181 0)
(1.09146 0.153828 0)
(1.06196 0.151114 0)
(1.04427 0.145698 0)
(1.03941 0.140597 0)
(1.03719 0.134045 0)
(0.99085 0.121428 0)
(0.816694 0.0926218 0)
(0.521464 0.0538213 0)
(0.246392 0.0219566 0)
(0.0763846 0.00516492 0)
(0.00461193 0.0002263 0)
(0.250553 0.0095385 9.06138e-21)
(0.996915 0.0690796 7.78121e-21)
(1.21907 0.102644 -2.72209e-21)
(1.29815 0.123334 0)
(1.29454 0.142396 -6.98879e-35)
(1.2544 0.157683 1.0232e-21)
(1.2129 0.170081 -1.85341e-21)
(1.17184 0.179239 0)
(1.13061 0.1842 3.84198e-35)
(1.08994 0.18388 -2.32483e-21)
(1.05671 0.178381 0)
(1.0368 0.171076 -2.78479e-21)
(1.03147 0.165278 -8.23631e-21)
(1.02362 0.158077 -3.90538e-21)
(0.950173 0.139704 -1.17787e-21)
(0.733878 0.100748 -7.00069e-22)
(0.426081 0.0540529 0)
(0.1777 0.0205408 4.89997e-22)
(0.0432931 0.00450238 5.80288e-22)
(-0.000893705 0.000121316 1.0607e-20)
(0.280988 0.0250488 6.3436e-21)
(1.07548 0.112472 1.14872e-22)
(1.27714 0.152552 7.1187e-22)
(1.33497 0.173181 0)
(1.3195 0.192384 -3.48931e-21)
(1.27233 0.205576 -3.98131e-21)
(1.22488 0.215745 -1.85473e-21)
(1.17804 0.222542 -6.6382e-21)
(1.13128 0.22495 0)
(1.08548 0.221839 9.83395e-21)
(1.04831 0.213793 9.78708e-21)
(1.02597 0.204789 2.9109e-21)
(1.01794 0.197569 1.06763e-20)
(0.998005 0.187564 1.50825e-20)
(0.883755 0.159779 0)
(0.619008 0.107737 2.12784e-20)
(0.314621 0.0531447 3.05226e-20)
(0.107627 0.0181421 3.39626e-20)
(0.0113314 0.00267791 -3.89561e-20)
(-0.00604126 -0.000464722 -7.432e-22)
(0.282611 0.0423627 0)
(1.12585 0.168545 1.02287e-21)
(1.31687 0.213572 0)
(1.36386 0.233883 -4.35952e-21)
(1.33931 0.250188 0)
(1.28622 0.259472 -7.71008e-21)
(1.23324 0.26591 3.75534e-21)
(1.18094 0.26917 -1.32449e-20)
(1.129 0.268111 -3.24948e-22)
(1.07847 0.261506 5.04843e-21)
(1.03777 0.250439 2.14447e-20)
(1.01335 0.239482 -3.07893e-23)
(1.00227 0.230471 -7.73495e-21)
(0.969341 0.216624 -1.41092e-20)
(0.821111 0.178133 1.67327e-20)
(0.531623 0.112928 -2.96226e-20)
(0.245224 0.0518056 -3.90338e-21)
(0.0682592 0.015581 0)
(-0.00595841 0.000316441 -3.72478e-24)
(-0.00876637 -0.0012075 0)
(0.275973 0.0568727 1.15484e-20)
(1.15348 0.228325 -5.87426e-21)
(1.34181 0.279199 -4.84154e-21)
(1.38322 0.299868 2.00028e-21)
(1.35246 0.312279 -3.36781e-21)
(1.29498 0.316976 1.60236e-20)
(1.23747 0.318941 7.76875e-21)
(1.18052 0.317931 0)
(1.12404 0.312744 -2.50456e-20)
(1.06933 0.30206 0)
(1.02555 0.287548 -1.11725e-20)
(0.99931 0.274299 -1.38843e-20)
(0.98521 0.263081 -8.37788e-21)
(0.940534 0.244258 -1.02023e-20)
(0.768017 0.195164 0)
(0.470506 0.11856 0)
(0.202419 0.0520444 -2.52838e-20)
(0.0431701 0.0132898 4.99182e-21)
(-0.0183323 -0.00246995 -2.94055e-21)
(-0.0110307 -0.00210787 -3.48356e-21)
(0.267906 0.0695652 -3.04028e-21)
(1.16586 0.287962 0)
(1.35579 0.34577 9.01699e-21)
(1.39407 0.367212 5.39607e-21)
(1.35903 0.375708 7.86899e-21)
(1.29837 0.375796 0)
(1.23739 0.373143 7.48377e-21)
(1.17667 0.367615 1.4487e-20)
(1.11637 0.357968 1.27307e-20)
(1.05805 0.342845 2.35746e-20)
(1.01158 0.324537 0)
(0.983762 0.308651 -2.97655e-20)
(0.966849 0.294765 -1.79672e-20)
(0.912606 0.270447 -1.0632e-20)
(0.724975 0.211418 6.51931e-20)
(0.429242 0.125034 7.73707e-21)
(0.175875 0.0530733 3.64371e-20)
(0.0260571 0.010747 -1.72288e-19)
(-0.0285129 -0.00586371 1.02044e-19)
(-0.0133247 -0.00321484 -1.2456e-19)
(0.259978 0.0809001 5.33927e-22)
(1.16839 0.345499 4.81957e-22)
(1.36175 0.411377 -7.65628e-22)
(1.39808 0.433942 -4.82509e-21)
(1.35998 0.438742 -6.25562e-21)
(1.29696 0.434376 3.60728e-22)
(1.23328 0.427217 -8.09693e-21)
(1.16953 0.417204 1.48484e-20)
(1.10603 0.403017 -2.72976e-20)
(1.04458 0.383301 0)
(0.995709 0.360936 -1.34373e-20)
(0.966415 0.342108 -3.0665e-22)
(0.946938 0.325179 -1.96051e-20)
(0.885715 0.29519 0)
(0.690694 0.227009 -1.40648e-20)
(0.40203 0.13223 -3.33294e-20)
(0.159475 0.0545319 8.86858e-20)
(0.0141647 0.00802633 -8.73369e-20)
(-0.0371157 -0.00976075 1.24163e-19)
(-0.0156685 -0.00453212 -1.30646e-19)
(0.253065 0.0912689 -1.10788e-22)
(1.16465 0.400217 4.39158e-22)
(1.36187 0.474974 -1.04766e-21)
(1.39671 0.498932 1.62398e-21)
(1.35639 0.500373 -3.07394e-21)
(1.2916 0.491799 0)
(1.22576 0.480343 -7.37323e-21)
(1.15948 0.465991 -1.54756e-20)
(1.09323 0.447343 -1.41228e-20)
(1.02899 0.422993 0)
(0.977931 0.396464 -1.38267e-20)
(0.947227 0.374414 -1.71951e-20)
(0.925594 0.354244 2.11837e-20)
(0.859681 0.31848 -1.28648e-20)
(0.662897 0.242202 -6.10075e-20)
(0.384111 0.139939 3.61213e-20)
(0.149834 0.0564225 1.06961e-20)
(0.00673639 0.00528531 0)
(-0.0436542 -0.0138851 -1.1941e-19)
(-0.0178697 -0.00600598 -4.43177e-21)
(0.247347 0.101016 7.85602e-22)
(1.15697 0.45193 -1.06641e-21)
(1.35765 0.536009 2.6497e-22)
(1.39121 0.561507 6.18649e-21)
(1.34922 0.559963 -1.07293e-20)
(1.28308 0.547506 1.41532e-20)
(1.21549 0.53203 1.58608e-20)
(1.14705 0.513554 -2.46846e-20)
(1.07838 0.4906 8.79853e-21)
(1.01159 0.461693 -5.75727e-20)
(0.95845 0.430942 -1.56654e-20)
(0.926337 0.405519 0)
(0.902735 0.381907 2.29421e-20)
(0.833714 0.340565 2.74917e-20)
(0.639471 0.257039 3.28152e-20)
(0.37178 0.148193 -3.91038e-20)
(0.145145 0.0588189 -1.15652e-20)
(0.00352244 0.00305654 1.35967e-20)
(-0.0475058 -0.0176977 0)
(-0.0196035 -0.00748532 -9.59153e-21)
(0.242745 0.110232 -1.33126e-20)
(1.1471 0.500712 7.02327e-21)
(1.35038 0.594362 8.79749e-23)
(1.3826 0.621309 3.29609e-21)
(1.33928 0.617129 -4.45955e-21)
(1.27213 0.601127 -8.39723e-22)
(1.2031 0.581969 -1.73843e-20)
(1.1328 0.559652 -8.94284e-21)
(1.06192 0.532594 -2.45223e-20)
(0.99274 0.499278 6.176e-23)
(0.937538 0.46432 -4.8941e-20)
(0.903971 0.435455 4.14768e-20)
(0.878535 0.408282 -2.51962e-20)
(0.807461 0.361605 3.02444e-20)
(0.618196 0.271722 0)
(0.362149 0.15689 -2.12384e-20)
(0.143289 0.0619071 6.32466e-23)
(0.00351301 0.0017838 -5.92015e-20)
(-0.0485675 -0.0206587 -8.72674e-21)
(-0.0205636 -0.00877176 0)
(0.239204 0.11918 0)
(1.13606 0.546802 8.24782e-21)
(1.34097 0.650247 2.58845e-21)
(1.37169 0.67818 -2.53791e-21)
(1.3273 0.671661 -6.13089e-21)
(1.25937 0.652464 0)
(1.18913 0.629967 -7.68372e-21)
(1.11719 0.604129 -2.15066e-22)
(1.04427 0.573238 5.25781e-20)
(0.972771 0.535688 -7.8877e-21)
(0.915499 0.496611 -3.53769e-20)
(0.880393 0.464276 2.15536e-20)
(0.853143 0.433561 -4.37848e-22)
(0.780727 0.381773 3.22587e-20)
(0.597709 0.285957 1.9625e-20)
(0.353222 0.165858 -4.57967e-20)
(0.142459 0.0656513 5.41698e-20)
(0.00552442 0.00157436 1.60667e-20)
(-0.0473762 -0.0226196 6.64359e-20)
(-0.020746 -0.00974766 -1.79704e-19)
(0.236636 0.128006 -4.7193e-21)
(1.12464 0.590378 6.09808e-21)
(1.33004 0.703195 -3.92959e-21)
(1.35915 0.732079 1.03737e-21)
(1.31385 0.723467 0)
(1.24531 0.701405 -6.00298e-21)
(1.17405 0.675921 2.60992e-20)
(1.10064 0.646898 1.95616e-20)
(1.0258 0.612479 0)
(0.952002 0.570915 -1.1405e-19)
(0.89261 0.527829 9.59327e-20)
(0.85588 0.492046 0)
(0.826866 0.457842 2.95295e-20)
(0.753494 0.40107 -4.2045e-22)
(0.576873 0.299666 -6.33069e-20)
(0.343643 0.174757 2.47327e-20)
(0.141498 0.0697874 0)
(0.00846156 0.00227855 8.68638e-20)
(-0.044553 -0.023568 0)
(-0.020258 -0.0103834 -8.52081e-20)
(0.234933 0.136739 5.7304e-21)
(1.1133 0.631672 8.17815e-21)
(1.31806 0.753275 -3.82597e-21)
(1.34551 0.783027 0)
(1.29942 0.77254 -4.50803e-21)
(1.2304 0.747926 0)
(1.15827 0.719782 -2.54254e-20)
(1.08351 0.687909 -8.93884e-21)
(1.00684 0.650299 9.24333e-21)
(0.930736 0.604986 -5.65076e-20)
(0.869122 0.558016 9.90867e-21)
(0.830706 0.518809 0)
(0.799933 0.481098 -6.32676e-20)
(0.725651 0.419405 3.87946e-22)
(0.55521 0.312458 0)
(0.332859 0.183089 1.08725e-22)
(0.139466 0.0739116 7.95366e-20)
(0.0112621 0.00361584 -7.51931e-20)
(-0.0409656 -0.0236511 2.22607e-20)
(-0.0192946 -0.0106693 0)
(0.233749 0.145332 0)
(1.10225 0.670872 1.00162e-20)
(1.30546 0.800602 6.00837e-21)
(1.3312 0.8311 -5.25958e-22)
(1.2844 0.818919 -9.30133e-22)
(1.215 0.79204 -1.35776e-20)
(1.14212 0.761551 9.66884e-21)
(1.06612 0.727152 -1.07239e-20)
(0.987678 0.686688 4.15225e-20)
(0.909227 0.637945 -9.06799e-20)
(0.845248 0.587231 -8.95389e-22)
(0.805058 0.544585 -2.77138e-20)
(0.772558 0.503256 1.02935e-19)
(0.697449 0.43659 -4.93016e-22)
(0.532625 0.324071 -4.94628e-20)
(0.320405 0.190414 -8.74769e-20)
(0.135919 0.0776828 0)
(0.0132592 0.00516969 0)
(-0.0373806 -0.0232239 2.40789e-20)
(-0.0180974 -0.0107105 -1.43049e-20)
(0.233225 0.153959 8.22374e-21)
(1.09172 0.707872 -2.28922e-20)
(1.29257 0.845277 -6.45057e-21)
(1.31654 0.876386 0)
(1.2691 0.862667 -3.08394e-22)
(1.19941 0.833787 -1.18123e-20)
(1.12587 0.801245 2.29782e-20)
(1.04872 0.764636 4.19057e-20)
(0.968558 0.721666 5.40167e-20)
(0.887697 0.669831 -7.42713e-20)
(0.821189 0.615553 -8.32272e-20)
(0.77908 0.569401 7.43316e-20)
(0.744847 0.5242 0)
(0.668893 0.452296 -2.265e-20)
(0.508901 0.334154 -5.34777e-20)
(0.306539 0.196241 -6.30631e-20)
(0.13086 0.08059 -7.43901e-20)
(0.0141674 0.00648701 2.20289e-20)
(-0.0342115 -0.0226178 -1.2984e-20)
(-0.0168623 -0.010609 7.1285e-23)
(0.232939 0.162429 0)
(1.08192 0.743009 0)
(1.27961 0.887409 5.10181e-22)
(1.30176 0.91899 0)
(1.25377 0.903876 3.84252e-22)
(1.18385 0.873234 7.49801e-21)
(1.10975 0.838901 0)
(1.03155 0.800382 4.91773e-21)
(0.949698 0.755251 9.03531e-20)
(0.866365 0.700695 -1.71312e-19)
(0.797114 0.643075 0)
(0.752861 0.593313 -4.81138e-20)
(0.716828 0.54382 -5.80886e-22)
(0.640061 0.46619 -4.0063e-22)
(0.484509 0.342238 5.75503e-20)
(0.291533 0.200298 3.35476e-23)
(0.124554 0.0823338 -1.60548e-19)
(0.0140918 0.007319 4.74393e-20)
(-0.031577 -0.0220249 1.40792e-20)
(-0.0156752 -0.0104185 0)
(0.232868 0.170691 -3.34642e-20)
(1.07262 0.77648 -1.57164e-20)
(1.26666 0.927071 -1.97705e-20)
(1.28707 0.959022 1.74504e-20)
(1.23861 0.942624 -2.38227e-21)
(1.16853 0.910448 0)
(1.09394 0.87457 1.3732e-20)
(1.01476 0.834421 -1.10817e-20)
(0.931277 0.787473 8.02122e-22)
(0.845428 0.730591 1.2701e-20)
(0.773177 0.669895 1.08622e-19)
(0.726464 0.616422 -1.69213e-20)
(0.68844 0.562066 -6.40097e-20)
(0.610886 0.477929 -2.65161e-20)
(0.459729 0.347768 3.1171e-20)
(0.275912 0.202113 5.62893e-23)
(0.117611 0.0827071 4.33039e-20)
(0.0133612 0.00759308 -1.02247e-19)
(-0.029472 -0.0215386 1.21336e-19)
(-0.0146144 -0.0102086 1.791e-20)
(0.232819 0.178703 1.27787e-20)
(1.06381 0.808358 -8.89554e-21)
(1.25391 0.964393 1.30648e-21)
(1.27261 0.996607 1.17025e-20)
(1.22375 0.979023 1.89228e-21)
(1.15357 0.945504 -1.2703e-20)
(1.07859 0.908305 3.79004e-21)
(0.998503 0.866782 -4.62307e-20)
(0.913456 0.818338 -1.00153e-19)
(0.825044 0.75954 -1.02761e-19)
(0.749538 0.696117 0)
(0.699923 0.638877 -7.47792e-20)
(0.659532 0.578972 9.26287e-20)
(0.581133 0.48718 0)
(0.434729 0.350147 -6.69856e-20)
(0.260232 0.201099 3.96586e-20)
(0.111039 0.0814757 -4.66629e-20)
(0.0127168 0.00748305 -5.51073e-20)
(-0.0277866 -0.0210616 -9.78623e-20)
(-0.0137717 -0.0100279 -7.72857e-20)
(0.23311 0.186597 -1.45517e-20)
(1.05536 0.83864 9.53178e-21)
(1.24143 0.999443 2.13739e-20)
(1.2585 1.03182 1.74545e-20)
(1.20932 1.01317 -3.13789e-21)
(1.13909 0.97849 -6.20968e-21)
(1.06379 0.940159 1.28826e-20)
(0.982892 0.89751 -4.74936e-20)
(0.896342 0.847872 -5.95846e-20)
(0.805361 0.787571 1.08133e-19)
(0.726342 0.721832 2.40587e-19)
(0.673295 0.660874 0)
(0.629939 0.594698 0)
(0.550398 0.49374 -3.0608e-20)
(0.409277 0.348596 0)
(0.24546 0.196057 8.52643e-20)
(0.106761 0.0774969 1.0038e-19)
(0.0144478 0.00664109 0)
(-0.0256958 -0.0206541 0)
(-0.01342 -0.0100743 8.31945e-20)
(0.233143 0.194045 1.6639e-20)
(1.04729 0.867331 1.31427e-20)
(1.22929 1.03234 1.55875e-20)
(1.24482 1.06481 -1.71993e-20)
(1.19538 1.04518 -4.8061e-21)
(1.12516 1.00948 5.36127e-21)
(1.04962 0.970191 -1.76528e-20)
(0.968006 0.926633 -1.89599e-22)
(0.880036 0.876084 -1.0549e-21)
(0.786506 0.814691 -7.8411e-22)
(0.703752 0.747117 1.244e-19)
(0.646662 0.682604 0)
(0.599516 0.609524 9.46868e-20)
(0.518102 0.497674 6.57458e-20)
(0.38253 0.342462 1.56981e-19)
(0.231401 0.18473 4.60825e-20)
(0.107396 0.0668444 -5.406e-20)
(0.0250037 -0.000283258 -3.186e-20)
(-0.0152497 -0.0225553 0)
(-0.0119581 -0.0101533 8.9581e-20)
(0.233596 0.201531 -3.78358e-20)
(1.03956 0.894555 0)
(1.2175 1.06313 1.85703e-20)
(1.23159 1.09564 -1.47399e-20)
(1.18201 1.07514 7.39009e-21)
(1.11183 1.03857 -3.86484e-21)
(1.03614 0.998456 3.36041e-20)
(0.953897 0.954185 -3.88662e-21)
(0.864603 0.902983 0)
(0.768584 0.840875 -1.20244e-19)
(0.681927 0.772022 -2.71998e-19)
(0.620149 0.704256 1.11904e-20)
(0.568217 0.623811 1.31731e-19)
(0.483712 0.499479 0)
(0.352877 0.33188 1.06426e-19)
(0.215087 0.164774 0)
(0.110592 0.0397038 0)
(0.0522826 -0.0332377 -3.44447e-20)
(0.0358835 -0.0400559 0)
(0.0223283 0.00148297 2.40594e-20)
(0.233653 0.208476 -4.24395e-20)
(1.03215 0.920576 0)
(1.20604 1.09202 3.1185e-20)
(1.21877 1.12458 0)
(1.16916 1.10332 -4.77799e-21)
(1.09904 1.06604 0)
(1.02329 1.02526 1.50286e-21)
(0.940474 0.980498 6.615e-21)
(0.84992 0.928923 7.57801e-21)
(0.751419 0.866491 -1.3249e-19)
(0.660673 0.796996 8.18446e-21)
(0.593433 0.72651 9.06738e-20)
(0.535467 0.638393 1.29108e-19)
(0.446082 0.499904 1.73405e-20)
(0.317927 0.318218 8.385e-20)
(0.190041 0.136644 0)
(0.100817 -0.0082073 1.14006e-19)
(0.0591306 -0.065734 -6.69487e-20)
(0.0276021 0.0453063 7.83137e-20)
(-0.0386686 0.458951 -9.30437e-20)
(0.233694 0.215272 3.52696e-20)
(1.02481 0.945246 5.30199e-20)
(1.19485 1.11935 0)
(1.20623 1.15205 1.01631e-21)
(1.15664 1.13031 1.4689e-20)
(1.08652 1.09257 -7.96924e-22)
(1.01074 1.0514 1.12214e-20)
(0.927311 1.00651 0)
(0.835439 0.954992 4.99327e-20)
(0.734309 0.89283 -6.88637e-21)
(0.63903 0.823515 0)
(0.565116 0.751007 0)
(0.498988 0.654453 1.16355e-19)
(0.402317 0.499233 -5.37142e-20)
(0.274178 0.303153 -8.55171e-20)
(0.150943 0.103192 0)
(0.0599838 0.0180612 5.807e-20)
(0.00432399 0.457844 -6.73613e-20)
(0.0294509 1.93593 -3.78535e-20)
(0.0557945 2.8292 -4.64467e-20)
(0.233437 0.221543 -2.66721e-20)
(1.01762 0.968742 -6.83873e-20)
(1.18393 1.1451 1.86956e-20)
(1.19397 1.17794 1.49251e-20)
(1.14452 1.15592 0)
(1.07436 1.11789 -2.7821e-21)
(0.998721 1.07658 1.45489e-20)
(0.914614 1.03178 -3.18581e-21)
(0.821457 0.980681 7.51619e-21)
(0.717668 0.919306 1.26818e-19)
(0.617655 0.850968 1.39239e-19)
(0.536205 0.777671 1.02947e-19)
(0.459525 0.672397 1.17911e-19)
(0.353413 0.496931 -1.27394e-19)
(0.227052 0.29077 -1.30061e-19)
(0.101508 0.162237 0)
(0.0366298 0.900091 0)
(0.0832793 2.58882 3.23263e-20)
(0.0863566 3.21552 0)
(0.0880619 3.39056 8.43297e-20)
(0.23599 0.227436 0)
(1.01089 0.991456 0)
(1.17299 1.16914 0)
(1.1818 1.20211 4.59302e-21)
(1.13244 1.17988 1.36313e-20)
(1.06238 1.14186 -4.68171e-21)
(0.987151 1.10067 9.07821e-21)
(0.902315 1.0562 -3.09766e-21)
(0.807912 1.00581 6.24266e-20)
(0.70149 0.945755 -1.67558e-21)
(0.596647 0.879151 2.76491e-19)
(0.507073 0.806603 -1.19617e-20)
(0.41696 0.693261 1.44224e-20)
(0.301055 0.49144 1.85638e-20)
(0.168829 0.308657 -6.68881e-22)
(0.0849186 1.02247 3.49593e-22)
(0.11916 2.77111 -1.72886e-19)
(0.123718 3.30218 -6.51689e-20)
(0.115202 3.42337 3.44461e-20)
(0.10551 3.44297 -3.89543e-20)
(0.159304 0.173128 1.63954e-20)
(0.999936 1.01614 0)
(1.16182 1.19168 -3.8687e-20)
(1.17012 1.225 -4.12289e-20)
(1.12087 1.2027 3.32522e-20)
(1.05127 1.16495 5.93936e-21)
(0.975826 1.12371 -8.99802e-21)
(0.890446 1.0798 3.35051e-20)
(0.794881 1.03047 -5.12672e-20)
(0.686001 0.972295 0)
(0.576316 0.908139 1.36849e-19)
(0.478258 0.837607 -8.47227e-20)
(0.374796 0.722826 0)
(0.240411 0.487669 1.81257e-20)
(0.122317 0.732909 4.2778e-20)
(0.13382 2.57833 -4.82371e-20)
(0.180705 3.32771 5.47176e-20)
(0.164359 3.43243 2.94753e-20)
(0.136914 3.45128 3.34356e-20)
(0.118283 3.46011 5.33482e-20)
(0.270543 0.265023 -3.15911e-20)
(0.982124 1.02607 0)
(1.14327 1.21751 4.19765e-20)
(1.15511 1.25619 4.58059e-20)
(1.10306 1.23635 -3.79845e-20)
(1.03287 1.19896 -1.08628e-20)
(0.956221 1.15927 6.23394e-21)
(0.87021 1.11664 2.6601e-21)
(0.773059 1.06955 4.86444e-20)
(0.660889 1.01552 1.10411e-19)
(0.544716 0.957601 7.6954e-21)
(0.433549 0.889518 7.59161e-20)
(0.294887 0.751232 1.37749e-20)
(0.200076 0.893682 -1.75167e-20)
(0.206173 2.4583 -3.92565e-20)
(0.257263 3.33076 3.86764e-20)
(0.240123 3.45639 -4.24151e-20)
(0.206372 3.47547 -2.44011e-20)
(0.173307 3.50013 -2.21583e-20)
(0.128476 3.49553 -3.21428e-21)
(0.260672 0.263877 0)
(0.979062 1.04887 1.23274e-20)
(1.13431 1.24113 -8.68295e-21)
(1.1438 1.27983 -5.50393e-21)
(1.09171 1.25971 -2.64993e-20)
(1.02149 1.22251 1.15741e-20)
(0.944493 1.18302 -2.38115e-21)
(0.858164 1.14125 2.35766e-21)
(0.760252 1.09568 -5.05775e-20)
(0.646333 1.04464 -2.71773e-21)
(0.526408 0.991635 -2.48567e-19)
(0.407901 0.9258 1.09e-20)
(0.274986 0.8247 -1.30797e-20)
(0.235705 1.53582 -1.61471e-20)
(0.299285 3.1443 3.66924e-21)
(0.311571 3.4576 1.78423e-22)
(0.270546 3.50461 6.33399e-20)
(0.236988 3.52856 3.21523e-20)
(0.191492 3.54885 -1.05162e-20)
(0.141847 3.54582 -1.61172e-20)
(0.246698 0.261878 3.16578e-20)
(0.975076 1.0742 8.36725e-20)
(1.125 1.26684 -2.47796e-20)
(1.13212 1.3051 -2.06816e-20)
(1.07989 1.28454 0)
(1.00973 1.24736 2.25873e-20)
(0.932665 1.20816 -3.54481e-22)
(0.846274 1.16719 2.02996e-21)
(0.747919 1.12328 -5.6794e-21)
(0.632806 1.07556 -9.99396e-20)
(0.510105 1.0281 -1.14836e-19)
(0.385211 0.963421 -8.93374e-20)
(0.277425 0.973769 -9.85918e-20)
(0.301967 2.31852 1.01668e-19)
(0.380594 3.38568 8.60325e-20)
(0.351339 3.51312 0)
(0.303839 3.55069 0)
(0.267443 3.5847 -8.34752e-21)
(0.224141 3.62972 0)
(0.154815 3.61511 -1.30873e-20)
(0.236884 0.263785 -4.73233e-20)
(0.969165 1.10039 -7.10047e-20)
(1.11431 1.29378 0)
(1.11918 1.33119 1.23651e-21)
(1.06682 1.31004 -2.9208e-20)
(0.996888 1.2728 3.7617e-20)
(0.920079 1.23391 1.57e-21)
(0.833859 1.19369 9.77727e-22)
(0.735322 1.15142 -3.52158e-20)
(0.61947 1.10707 4.94028e-21)
(0.494986 1.06529 0)
(0.364764 1.00492 0)
(0.299503 1.27317 -8.96159e-20)
(0.382115 2.97777 3.65201e-20)
(0.44584 3.48356 4.66391e-20)
(0.392279 3.54736 0)