/*--------------------------------*- C++ -*----------------------------------*\
  =========                 |
  \\      /  F ield         | OpenFOAM: The Open Source CFD Toolbox
   \\    /   O peration     | Website:  https://openfoam.org
    \\  /    A nd           | Version:  6
     \\/     M anipulation  |
\*---------------------------------------------------------------------------*/
FoamFile
{
    version     2.0;
    format      ascii;
    class       volVectorField;
    location    "97.3";
    object      U;
}
// * * * * * * * * * * * * * * * * * * * * * * * * * * * * * * * * * * * * * //

dimensions      [0 1 -1 0 0 0 0];

internalField   nonuniform List<vector> 
8800
(
(0.987184 -0.0766652 0)
(1.00189 -0.0551899 0)
(0.999722 -0.0285477 0)
(1.00003 -0.0151425 0)
(1.0001 -0.00854354 0)
(1.00012 -0.00504537 0)
(1.00008 -0.0029995 0)
(1.00002 -0.00169857 0)
(0.999991 -0.000792068 0)
(1.00006 -7.59519e-05 0)
(0.999958 0.000656719 0)
(1.00001 0.00142491 0)
(1.00006 0.00243022 0)
(1.00007 0.00399909 0)
(1.00006 0.00663289 0)
(1.00005 0.0113723 0)
(0.999954 0.0208158 0)
(0.999173 0.0386705 0)
(1.0071 0.0724575 0)
(0.771215 0.0366617 0)
(0.36308 -0.0160163 0)
(1.04332 -0.0768111 0)
(1.0846 -0.0704391 0)
(1.04519 -0.0535324 0)
(1.02329 -0.0388824 0)
(1.01203 -0.0262028 0)
(1.00643 -0.0168388 0)
(1.0036 -0.0103031 0)
(1.00215 -0.0056386 0)
(1.00144 -0.00197547 0)
(1.00128 0.00134681 0)
(1.00166 0.00473564 0)
(1.00269 0.00865805 0)
(1.00468 0.0139755 0)
(1.00861 0.0216834 0)
(1.01657 0.0326499 0)
(1.03251 0.0465613 0)
(1.06269 0.0616774 0)
(1.09187 0.0761054 0)
(0.838664 0.0565643 0)
(0.216873 -0.00242861 0)
(1.07592 -0.0501221 0)
(1.09989 -0.0482905 0)
(1.06465 -0.0404386 0)
(1.04005 -0.0335752 0)
(1.02393 -0.0260473 0)
(1.01413 -0.0184556 0)
(1.00856 -0.0116256 0)
(1.00558 -0.00574774 0)
(1.0043 -0.000322696 0)
(1.00463 0.00492751 0)
(1.00661 0.0103195 0)
(1.01063 0.0163792 0)
(1.01794 0.0233958 0)
(1.03053 0.0308576 0)
(1.05062 0.0378808 0)
(1.08037 0.0445607 0)
(1.10627 0.0513692 0)
(0.942496 0.0416299 0)
(0.216115 0.00246296 0)
(0.175219 -0.000815049 0)
(1.01776 -0.0354635 0)
(1.10523 -0.0413459 0)
(1.07829 -0.0360218 0)
(1.0535 -0.0300788 0)
(1.03624 -0.0244924 0)
(1.02403 -0.0187499 0)
(1.0159 -0.0126541 0)
(1.01102 -0.00645164 0)
(1.00879 -0.000105493 0)
(1.00934 0.00615617 0)
(1.01265 0.0121541 0)
(1.01889 0.0179469 0)
(1.02875 0.0235097 0)
(1.04318 0.0288035 0)
(1.0637 0.0342753 0)
(1.09356 0.0402526 0)
(1.09339 0.0420027 0)
(0.827039 0.0229326 0)
(0.173941 0.000854944 0)
(0.154045 -0.000608709 0)
(0.956322 -0.0254286 0)
(1.10353 -0.0350769 0)
(1.08773 -0.0325869 0)
(1.06178 -0.0279219 0)
(1.04417 -0.0228825 0)
(1.03169 -0.0176156 0)
(1.02282 -0.0120617 0)
(1.01698 -0.00610509 0)
(1.0141 0.000380208 0)
(1.01475 0.00685069 0)
(1.01877 0.0127315 0)
(1.0258 0.0179723 0)
(1.03606 0.0228739 0)
(1.0506 0.027622 0)
(1.07184 0.0321361 0)
(1.10005 0.0360579 0)
(1.06799 0.034095 0)
(0.739312 0.0143408 0)
(0.152115 0.000654039 0)
(0.139707 -0.000464625 0)
(0.899533 -0.019036 0)
(1.09591 -0.0300054 0)
(1.09583 -0.0290936 0)
(1.06934 -0.0253447 0)
(1.0509 -0.0211842 0)
(1.03796 -0.0163841 0)
(1.02882 -0.0110675 0)
(1.02267 -0.00529638 0)
(1.01949 0.00105219 0)
(1.02007 0.00737554 0)
(1.02421 0.0130052 0)
(1.03135 0.0179036 0)
(1.04181 0.0223498 0)
(1.05692 0.0263008 0)
(1.07911 0.0297403 0)
(1.1022 0.0323475 0)
(1.03577 0.0282098 0)
(0.672579 0.0102481 0)
(0.136978 0.000516926 0)
(0.129211 -0.000358812 0)
(0.8501 -0.0146611 0)
(1.08362 -0.0258462 0)
(1.10157 -0.026107 0)
(1.07624 -0.0227976 0)
(1.05727 -0.0191259 0)
(1.04386 -0.0148444 0)
(1.03436 -0.0098818 0)
(1.02796 -0.00431312 0)
(1.02457 0.00186275 0)
(1.02499 0.00797712 0)
(1.02908 0.0133294 0)
(1.03632 0.0178029 0)
(1.04704 0.0216404 0)
(1.06255 0.0249217 0)
(1.08517 0.0278346 0)
(1.10122 0.0295622 0)
(1.00067 0.0237268 0)
(0.620522 0.00789565 0)
(0.125506 0.000420358 0)
(0.121224 -0.000277617 0)
(0.808168 -0.0114884 0)
(1.06849 -0.0222045 0)
(1.10517 -0.0234253 0)
(1.08256 -0.0205212 0)
(1.06317 -0.0170564 0)
(1.04948 -0.0130723 0)
(1.03969 -0.00843678 0)
(1.03299 -0.00312957 0)
(1.02933 0.00283619 0)
(1.02955 0.00870751 0)
(1.03359 0.0137102 0)
(1.04087 0.0176958 0)
(1.05167 0.0210228 0)
(1.06738 0.0238875 0)
(1.09035 0.0264937 0)
(1.09732 0.0273135 0)
(0.965129 0.020227 0)
(0.578574 0.00637559 0)
(0.116333 0.000350848 0)
(0.115061 -0.000213767 0)
(0.772966 -0.00910841 0)
(1.05192 -0.0189887 0)
(1.10766 -0.0209306 0)
(1.0885 -0.0183879 0)
(1.06873 -0.015058 0)
(1.05479 -0.0112242 0)
(1.0448 -0.00678658 0)
(1.03783 -0.00170798 0)
(1.03387 0.00401463 0)
(1.03384 0.00959231 0)
(1.03774 0.0142181 0)
(1.04493 0.0177668 0)
(1.0557 0.0207031 0)
(1.0716 0.0232359 0)
(1.09421 0.0254873 0)
(1.09053 0.0254767 0)
(0.930433 0.0175464 0)
(0.543708 0.00534595 0)
(0.108727 0.00030136 0)
(0.11029 -0.00016212 0)
(0.743562 -0.00725375 0)
(1.035 -0.016127 0)
(1.10923 -0.0185657 0)
(1.09418 -0.0163176 0)
(1.07412 -0.0130681 0)
(1.05991 -0.00930951 0)
(1.04971 -0.00497785 0)
(1.0425 -5.78413e-05 0)
(1.03821 0.00543508 0)
(1.03785 0.0107064 0)
(1.04152 0.0149721 0)
(1.04852 0.0181299 0)
(1.05923 0.0207186 0)
(1.07532 0.0229529 0)
(1.09676 0.0248139 0)
(1.08122 0.0240102 0)
(0.897121 0.0155362 0)
(0.513854 0.00463776 0)
(0.102204 0.000267215 0)
(0.106629 -0.000118885 0)
(0.719149 -0.00574985 0)
(1.01856 -0.0135466 0)
(1.11003 -0.0162659 0)
(1.09978 -0.0142757 0)
(1.07946 -0.0110235 0)
(1.06494 -0.00727779 0)
(1.05451 -0.00298976 0)
(1.04702 0.00183403 0)
(1.04237 0.0071428 0)
(1.0416 0.0121339 0)
(1.04494 0.0160633 0)
(1.05171 0.0188449 0)
(1.06233 0.0210972 0)
(1.07857 0.0230551 0)
(1.0979 0.0244862 0)
(1.06974 0.0229144 0)
(0.86528 0.0140811 0)
(0.487539 0.00416121 0)
(0.0964168 0.00024542 0)
(0.103894 -8.10596e-05 0)
(0.699094 -0.00447992 0)
(1.00322 -0.0111789 0)
(1.1102 -0.0139942 0)
(1.10526 -0.0121755 0)
(1.08482 -0.00886915 0)
(1.06999 -0.00507433 0)
(1.05926 -0.000766526 0)
(1.05143 0.00402121 0)
(1.04634 0.00919882 0)
(1.04507 0.0139459 0)
(1.04802 0.0175582 0)
(1.05451 0.0199669 0)
(1.065 0.0218888 0)
(1.08136 0.0235728 0)
(1.09795 0.0246538 0)
(1.05634 0.0222085 0)
(0.834707 0.0130992 0)
(0.463644 0.0038625 0)
(0.0910999 0.000233617 0)
(0.10197 -4.59165e-05 0)
(0.682941 -0.00335605 0)
(0.989445 -0.00895179 0)
(1.10999 -0.0116616 0)
(1.11061 -0.0099326 0)
(1.0903 -0.00654147 0)
(1.07511 -0.00263362 0)
(1.06405 0.00176314 0)
(1.05581 0.00657996 0)
(1.05016 0.011681 0)
(1.0483 0.0162182 0)
(1.05077 0.0195288 0)
(1.05691 0.0215624 0)
(1.06725 0.0231518 0)
(1.08362 0.0245417 0)
(1.09708 0.0251651 0)
(1.04112 0.0219 0)
(0.805019 0.0125144 0)
(0.441278 0.00370301 0)
(0.0860431 0.000229661 0)
(0.100798 -1.11551e-05 0)
(0.670401 -0.00230789 0)
(0.977615 -0.0067893 0)
(1.10971 -0.00921022 0)
(1.11596 -0.00748515 0)
(1.09599 -0.00396246 0)
(1.08041 0.00012658 0)
(1.06895 0.0046846 0)
(1.0602 0.00960085 0)
(1.05389 0.0146822 0)
(1.05129 0.019042 0)
(1.05319 0.0220624 0)
(1.05894 0.0237163 0)
(1.06907 0.0249657 0)
(1.08542 0.0260598 0)
(1.09487 0.0261603 0)
(1.02409 0.0219965 0)
(0.775739 0.0122815 0)
(0.419716 0.00365872 0)
(0.0810793 0.000232284 0)
(0.100374 2.58599e-05 0)
(0.661337 -0.00127867 0)
(0.968052 -0.00461764 0)
(1.10972 -0.00657824 0)
(1.12147 -0.00475896 0)
(1.10196 -0.00104301 0)
(1.08596 0.00330092 0)
(1.07402 0.00809717 0)
(1.06466 0.0131881 0)
(1.05755 0.0183123 0)
(1.05408 0.0225291 0)
(1.05529 0.0252649 0)
(1.06056 0.026544 0)
(1.07045 0.0274306 0)
(1.08666 0.0281891 0)
(1.09123 0.0276705 0)
(1.00516 0.0225429 0)
(0.74632 0.0123764 0)
(0.398328 0.00371636 0)
(0.0760664 0.000240782 0)
(0.100707 5.903e-05 0)
(0.655739 -0.000209333 0)
(0.961066 -0.00236049 0)
(1.11036 -0.00369723 0)
(1.1273 -0.00166878 0)
(1.10834 0.00231828 0)
(1.09187 0.00700079 0)
(1.07936 0.0121212 0)
(1.06926 0.0174688 0)
(1.06118 0.022701 0)
(1.05666 0.0268074 0)
(1.05705 0.0292639 0)
(1.06176 0.0301654 0)
(1.07134 0.0306662 0)
(1.08704 0.0310449 0)
(1.08584 0.029785 0)
(0.984069 0.0235763 0)
(0.716144 0.0127839 0)
(0.376541 0.00386603 0)
(0.0708781 0.000254256 0)
(0.10189 0.000114742 0)
(0.653768 0.000943462 0)
(0.956984 5.92726e-05 0)
(1.11201 -0.000487136 0)
(1.13366 0.0018872 0)
(1.11525 0.00624292 0)
(1.09826 0.0113606 0)
(1.08507 0.0169032 0)
(1.07407 0.0225983 0)
(1.06483 0.0280065 0)
(1.05905 0.0320341 0)
(1.05846 0.0342136 0)
(1.06251 0.0347157 0)
(1.07169 0.0348086 0)
(1.08643 0.034765 0)
(1.07843 0.0325873 0)
(0.960439 0.025135 0)
(0.684526 0.0134931 0)
(0.353812 0.00409808 0)
(0.0654047 0.000271698 0)
(0.104067 0.000166894 0)
(0.655602 0.00207008 0)
(0.956172 0.00273675 0)
(1.11515 0.0031579 0)
(1.14078 0.00602068 0)
(1.12284 0.0108734 0)
(1.10525 0.0165406 0)
(1.09125 0.0226185 0)
(1.07916 0.0287603 0)
(1.06851 0.034413 0)
(1.06123 0.0383794 0)
(1.0595 0.0402481 0)
(1.06274 0.0403527 0)
(1.07145 0.0400098 0)
(1.08457 0.0394482 0)
(1.06866 0.0361809 0)
(0.933733 0.0272637 0)
(0.650726 0.0144947 0)
(0.329639 0.00440197 0)
(0.059556 0.000291898 0)
(0.107346 0.000231182 0)
(0.661888 0.00356236 0)
(0.958979 0.00569015 0)
(1.12024 0.00737736 0)
(1.14891 0.0108777 0)
(1.1313 0.0163951 0)
(1.11302 0.0227485 0)
(1.09802 0.0294911 0)
(1.08461 0.0361843 0)
(1.07226 0.0421407 0)
(1.06321 0.0460477 0)
(1.06015 0.0475877 0)
(1.06243 0.0472621 0)
(1.07057 0.0464415 0)
(1.08148 0.0452632 0)
(1.05604 0.0406855 0)
(0.903242 0.0299965 0)
(0.613942 0.0157681 0)
(0.303562 0.00476162 0)
(0.0532662 0.000313047 0)
(0.112012 0.000318225 0)
(0.672939 0.00531569 0)
(0.965995 0.00920458 0)
(1.1278 0.0123338 0)
(1.15837 0.0166737 0)
(1.14088 0.0230509 0)
(1.12175 0.0302491 0)
(1.10553 0.0377998 0)
(1.09048 0.0451492 0)
(1.07608 0.0514542 0)
(1.06494 0.0552743 0)
(1.0603 0.0564485 0)
(1.06152 0.0556467 0)
(1.06897 0.0542995 0)
(1.07706 0.052387 0)
(1.03991 0.0462087 0)
(0.868066 0.0333388 0)
(0.57333 0.0172677 0)
(0.275193 0.00515017 0)
(0.0465063 0.000332482 0)
(0.118423 0.000435017 0)
(0.689578 0.00750121 0)
(0.978037 0.0134901 0)
(1.13839 0.0182618 0)
(1.16956 0.0236734 0)
(1.15185 0.0311629 0)
(1.13165 0.0393959 0)
(1.11388 0.0479064 0)
(1.09682 0.0559978 0)
(1.07996 0.0626526 0)
(1.06637 0.0663122 0)
(1.05982 0.067031 0)
(1.05996 0.0657113 0)
(1.06672 0.0637865 0)
(1.07095 0.0610154 0)
(1.01941 0.0528156 0)
(0.827106 0.037241 0)
(0.528065 0.0189036 0)
(0.244295 0.00552528 0)
(0.0393035 0.000346634 0)
(0.127111 0.000597843 0)
(0.71283 0.0103567 0)
(0.995862 0.0188135 0)
(1.15268 0.0255055 0)
(1.18294 0.0322609 0)
(1.16456 0.0411953 0)
(1.14295 0.0506788 0)
(1.1232 0.0602926 0)
(1.10362 0.0691599 0)
(1.08381 0.076082 0)
(1.06739 0.0794332 0)
(1.05872 0.079563 0)
(1.0577 0.0776568 0)
(1.06353 0.0750553 0)
(1.06258 0.0711635 0)
(0.993357 0.0605204 0)
(0.779084 0.0415565 0)
(0.477442 0.020521 0)
(0.21087 0.00582699 0)
(0.0317615 0.000351211 0)
(0.138882 0.000836678 0)
(0.744075 0.0142646 0)
(1.02064 0.0256522 0)
(1.17148 0.0346137 0)
(1.1992 0.0430419 0)
(1.17941 0.0538291 0)
(1.15584 0.0647831 0)
(1.13349 0.0755829 0)
(1.11078 0.0851482 0)
(1.08747 0.0921219 0)
(1.06787 0.0949023 0)
(1.05691 0.0942581 0)
(1.05476 0.0917312 0)
(1.05907 0.0883316 0)
(1.05109 0.08302 0)
(0.960215 0.0691843 0)
(0.722619 0.0459868 0)
(0.421075 0.0218826 0)
(0.175296 0.00597874 0)
(0.0240779 0.000341768 0)
(0.155041 0.00121009 0)
(0.785313 0.0198765 0)
(1.05404 0.0347984 0)
(1.19574 0.0465452 0)
(1.21921 0.0574303 0)
(1.19675 0.0701387 0)
(1.17042 0.0827044 0)
(1.14464 0.0945949 0)
(1.11805 0.104556 0)
(1.0907 0.111147 0)
(1.0676 0.112945 0)
(1.05424 0.111284 0)
(1.05104 0.108046 0)
(1.05316 0.103899 0)
(1.0353 0.0965265 0)
(0.917998 0.0784375 0)
(0.656441 0.0500303 0)
(0.359206 0.0226705 0)
(0.138455 0.00589866 0)
(0.01655 0.000314758 0)
(0.177834 0.00185725 0)
(0.839775 0.0283426 0)
(1.09898 0.0478474 0)
(1.22656 0.0631723 0)
(1.24342 0.0770363 0)
(1.21671 0.0918043 0)
(1.18641 0.105808 0)
(1.15619 0.118305 0)
(1.12497 0.127998 0)
(1.0931 0.133504 0)
(1.0663 0.133742 0)
(1.05052 0.13073 0)
(1.04633 0.126639 0)
(1.04566 0.121481 0)
(1.01342 0.111396 0)
(0.864263 0.0875822 0)
(0.57988 0.0529637 0)
(0.293173 0.0225347 0)
(0.101842 0.00552238 0)
(0.00956258 0.00026799 0)
(0.210751 0.00328912 0)
(0.913329 0.0424312 0)
(1.15845 0.0686992 0)
(1.26427 0.0880111 0)
(1.27168 0.104981 0)
(1.23866 0.121262 0)
(1.20298 0.135748 0)
(1.16733 0.14771 0)
(1.13088 0.156014 0)
(1.0942 0.15943 0)
(1.06369 0.157382 0)
(1.04557 0.152605 0)
(1.04049 0.147528 0)
(1.0357 0.141116 0)
(0.982836 0.12698 0)
(0.796274 0.0954527 0)
(0.49392 0.0539345 0)
(0.226134 0.0212736 0)
(0.0676761 0.00484656 0)
(0.00359817 0.000200619 0)
(0.255668 0.00974214 9.26666e-21)
(1.00977 0.0703339 7.9592e-21)
(1.23003 0.104179 -2.78476e-21)
(1.30602 0.125044 0)
(1.301 0.145029 -7.14419e-35)
(1.26032 0.160925 1.0457e-21)
(1.21853 0.174063 -1.89159e-21)
(1.17698 0.184035 0)
(1.13501 0.189869 3.92199e-35)
(1.0933 0.190446 -2.37332e-21)
(1.05892 0.185729 0)
(1.03859 0.179229 -2.84661e-21)
(1.03337 0.17397 -8.42123e-21)
(1.02107 0.166326 -3.99496e-21)
(0.937504 0.145184 -1.20464e-21)
(0.705996 0.102176 -7.15665e-22)
(0.393822 0.0526704 0)
(0.157691 0.0191652 5.00551e-22)
(0.0361044 0.00400217 5.92771e-22)
(-0.0014308 8.23829e-05 1.08409e-20)
(0.287104 0.0255059 6.46379e-21)
(1.08999 0.114497 1.18624e-22)
(1.28906 0.154711 7.27045e-22)
(1.34409 0.175584 0)
(1.32699 0.195613 -3.55596e-21)
(1.27929 0.209474 -4.057e-21)
(1.23152 0.220464 -1.89027e-21)
(1.18414 0.228191 -6.75888e-21)
(1.13661 0.231646 0)
(1.0897 0.229663 1.00214e-20)
(1.05124 0.22263 9.97944e-21)
(1.02822 0.214545 2.96791e-21)
(1.02006 0.208169 1.08998e-20)
(0.992734 0.196729 1.5411e-20)
(0.862063 0.164267 0)
(0.57988 0.106513 2.17158e-20)
(0.278953 0.0495593 3.1134e-20)
(0.0895479 0.0158586 3.4639e-20)
(0.00666727 0.0020138 -3.97298e-20)
(-0.00588963 -0.000473052 -7.58123e-22)
(0.289138 0.043384 0)
(1.1419 0.1715 1.03575e-21)
(1.3299 0.216477 0)
(1.37414 0.237143 -4.43173e-21)
(1.34784 0.25406 0)
(1.29422 0.264031 -7.83217e-21)
(1.24089 0.271348 3.8164e-21)
(1.18805 0.275644 -1.34546e-20)
(1.13533 0.275797 -3.31245e-22)
(1.08368 0.270574 5.13012e-21)
(1.04163 0.260844 2.18265e-20)
(1.01629 0.251018 -2.48225e-23)
(1.00436 0.242887 -7.88946e-21)
(0.9602 0.226367 -1.43896e-20)
(0.788858 0.180645 1.70573e-20)
(0.482164 0.108084 -3.01777e-20)
(0.207474 0.0459632 -3.97108e-21)
(0.0516136 0.0124824 0)
(-0.00867948 -0.000358192 -3.35938e-24)
(-0.00805972 -0.00113066 0)
(0.282694 0.0583329 1.14861e-20)
(1.17094 0.232306 -5.88037e-21)
(1.356 0.282982 -4.88067e-21)
(1.39451 0.303971 2.02538e-21)
(1.36195 0.316781 -3.40113e-21)
(1.30398 0.322167 1.62135e-20)
(1.24616 0.325053 7.8629e-21)
(1.1887 0.325173 0)
(1.13149 0.321357 -2.5366e-20)
(1.0757 0.312341 0)
(1.03056 0.299552 -1.13348e-20)
(1.00323 0.287779 -1.41182e-20)
(0.987168 0.277257 -8.52964e-21)
(0.926538 0.254513 -1.03923e-20)
(0.724462 0.194913 0)
(0.411409 0.109826 0)
(0.161308 0.0437258 -2.56775e-20)
(0.0273841 0.00935568 5.06596e-21)
(-0.0187357 -0.00294681 -2.98764e-21)
(-0.00951383 -0.00184894 -3.53899e-21)
(0.274668 0.071369 -2.82566e-21)
(1.1845 0.292992 0)
(1.37102 0.350449 8.96279e-21)
(1.40623 0.371982 5.41344e-21)
(1.36942 0.38078 7.91734e-21)
(1.30833 0.38155 0)
(1.24709 0.379848 7.53704e-21)
(1.18595 0.375521 1.4628e-20)
(1.12504 0.367393 1.28503e-20)
(1.06577 0.354232 2.38033e-20)
(1.01803 0.338105 0)
(0.988961 0.324171 -3.01739e-20)
(0.968657 0.31086 -1.82343e-20)
(0.893409 0.280993 -1.07952e-20)
(0.66986 0.208056 6.61816e-20)
(0.360457 0.112293 7.83872e-21)
(0.130164 0.042244 3.69198e-20)
(0.0100353 0.00611325 -1.74495e-19)
(-0.026645 -0.00585093 1.03346e-19)
(-0.0107637 -0.0026372 -1.26153e-19)
(0.266633 0.0830019 8.79229e-22)
(1.18794 0.351533 4.34334e-22)
(1.37785 0.41689 -7.31815e-22)
(1.41101 0.439285 -4.76512e-21)
(1.37119 0.444303 -6.23886e-21)
(1.30781 0.440596 3.5625e-22)
(1.24396 0.434397 -8.13165e-21)
(1.17991 0.425622 1.49123e-20)
(1.11599 0.413085 -2.74507e-20)
(1.05383 0.395608 0)
(1.00393 0.375971 -1.36044e-20)
(0.97339 0.359673 -3.01891e-22)
(0.949062 0.343273 -1.98587e-20)
(0.861544 0.30583 0)
(0.6243 0.220406 -1.4248e-20)
(0.323174 0.115481 -3.3695e-20)
(0.107502 0.0411936 8.95354e-20)
(-0.00380398 0.00265316 -8.8155e-20)
(-0.0336491 -0.00909795 1.25308e-19)
(-0.0119597 -0.00350442 -1.31854e-19)
(0.259482 0.0935957 -1.15801e-22)
(1.1848 0.407157 5.28428e-22)
(1.37864 0.481227 -8.26207e-22)
(1.41031 0.504753 1.561e-21)
(1.36832 0.506324 -3.03713e-21)
(1.30324 0.498369 0)
(1.23734 0.487857 -7.36664e-21)
(1.17094 0.474753 -1.54869e-20)
(1.10451 0.457835 -1.41582e-20)
(1.03993 0.435988 0)
(0.988265 0.412699 -1.389e-20)
(0.956537 0.39385 -1.72995e-20)
(0.928661 0.374149 2.13799e-20)
(0.831348 0.329003 -1.30175e-20)
(0.586544 0.232099 -6.14759e-20)
(0.29529 0.119211 3.63376e-20)
(0.0900357 0.0402912 1.0728e-20)
(-0.0158534 -0.00118742 0)
(-0.0405763 -0.0128057 -1.19945e-19)
(-0.0132899 -0.00449739 -4.44531e-21)
(0.25342 0.103499 8.6315e-22)
(1.17741 0.459656 -1.18409e-21)
(1.37492 0.542897 1.2736e-22)
(1.40536 0.56772 5.92724e-21)
(1.36176 0.566204 -1.04834e-20)
(1.29543 0.55431 1.40237e-20)
(1.2279 0.539734 1.57784e-20)
(1.15953 0.522484 -2.46315e-20)
(1.09096 0.501285 8.80032e-21)
(1.02429 0.475053 -5.7596e-20)
(0.971153 0.447993 -1.57144e-20)
(0.938497 0.426377 0)
(0.907623 0.403127 2.30507e-20)
(0.8029 0.350344 2.75931e-20)
(0.555217 0.243083 3.29529e-20)
(0.273997 0.123105 -3.9106e-20)
(0.0760783 0.0391809 -1.1541e-20)
(-0.0267254 -0.00556393 1.35997e-20)
(-0.0477199 -0.0171011 0)
(-0.0148878 -0.00567981 -9.55988e-21)
(0.248382 0.112781 -1.4308e-20)
(1.16753 0.50907 7.60944e-21)
(1.36799 0.601845 2.66373e-22)
(1.39717 0.627849 3.05911e-21)
(1.35234 0.623567 -4.28793e-21)
(1.28508 0.608059 -8.52107e-22)
(1.21622 0.58973 -1.72515e-20)
(1.14619 0.568573 -8.90461e-21)
(1.07573 0.543241 -2.44637e-20)
(1.00719 0.512646 4.23529e-23)
(0.952753 0.48169 -4.88018e-20)
(0.91936 0.457075 4.14483e-20)
(0.886022 0.430014 -2.5161e-20)
(0.776033 0.36974 3.01562e-20)
(0.528963 0.253154 0)
(0.257465 0.126738 -2.10584e-20)
(0.0649206 0.0375991 2.75622e-23)
(-0.0362446 -0.0105068 -5.86685e-20)
(-0.0547946 -0.0219749 -8.66979e-21)
(-0.0167234 -0.00707731 0)
(0.244344 0.121718 0)
(1.15622 0.555638 8.89313e-21)
(1.35871 0.658124 3.02657e-21)
(1.38656 0.684985 -2.25125e-21)
(1.34076 0.67822 -5.94539e-21)
(1.27279 0.659432 0)
(1.20286 0.637672 -7.58746e-21)
(1.13137 0.612883 -2.31385e-22)
(1.0592 0.583616 5.2311e-20)
(0.988883 0.548723 -7.84814e-21)
(0.933228 0.513749 -3.52141e-20)
(0.89918 0.485887 2.14735e-20)
(0.863821 0.454742 -4.02734e-22)
(0.750388 0.387101 3.20187e-20)
(0.506473 0.262132 1.9359e-20)
(0.244319 0.129742 -4.52217e-20)
(0.0562966 0.0354773 5.33894e-20)
(-0.0439242 -0.0157992 1.5799e-20)
(-0.0611568 -0.0271875 6.54278e-20)
(-0.0186357 -0.00864556 -1.77035e-19)
(0.24123 0.130473 -4.98619e-21)
(1.14431 0.599536 6.48294e-21)
(1.34776 0.711372 -4.21652e-21)
(1.3742 0.739093 6.88617e-22)
(1.3276 0.730082 0)
(1.2591 0.708334 -5.82739e-21)
(1.18826 0.683474 2.57531e-20)
(1.11548 0.655354 1.93968e-20)
(1.04169 0.622383 0)
(0.969627 0.583305 -1.13273e-19)
(0.912712 0.544213 9.51669e-20)
(0.877998 0.512857 0)
(0.840931 0.477358 2.92142e-20)
(0.725533 0.402474 -3.45524e-22)
(0.486505 0.269979 -6.21226e-20)
(0.233459 0.132029 2.42912e-20)
(0.0498814 0.0330557 0)
(-0.0493318 -0.0210269 8.49958e-20)
(-0.0661206 -0.0323401 0)
(-0.0203862 -0.0102811 -8.34179e-20)
(0.238964 0.139058 6.02291e-21)
(1.13231 0.641008 8.62325e-21)
(1.33562 0.761664 -4.12274e-21)
(1.36062 0.790201 0)
(1.31335 0.779163 -4.23646e-21)
(1.24445 0.754759 0)
(1.17283 0.727107 -2.50277e-20)
(1.09886 0.695966 -8.84202e-21)
(1.02351 0.65957 9.16806e-21)
(0.949645 0.61646 -5.60862e-20)
(0.891333 0.573188 9.82278e-21)
(0.855861 0.538089 0)
(0.817323 0.497995 -6.24104e-20)
(0.700979 0.415975 2.91896e-22)
(0.468061 0.276636 0)
(0.224043 0.133701 5.43808e-23)
(0.0451798 0.030534 7.74304e-20)
(-0.0524708 -0.0257715 -7.32374e-20)
(-0.0692945 -0.0369744 2.1688e-20)
(-0.021766 -0.011833 0)
(0.237208 0.147452 0)
(1.12047 0.680258 1.05042e-20)
(1.32276 0.809128 6.35351e-21)
(1.34627 0.838387 -5.32898e-22)
(1.29843 0.82551 -7.71419e-22)
(1.22921 0.798733 -1.3166e-20)
(1.15691 0.768592 9.52931e-21)
(1.08183 0.734734 -1.06218e-20)
(1.00494 0.695218 4.11909e-20)
(0.929153 0.648291 -8.99598e-20)
(0.869225 0.600814 -8.69574e-22)
(0.832829 0.561714 -2.73798e-20)
(0.792926 0.516783 1.01343e-19)
(0.676216 0.427797 -4.10314e-22)
(0.450436 0.282152 -4.81604e-20)
(0.215446 0.134829 -8.49282e-20)
(0.0418817 0.0282169 0)
(-0.0535839 -0.0297353 0)
(-0.0706415 -0.0408067 2.33834e-20)
(-0.0226397 -0.0131828 -1.38782e-20)
(0.236127 0.15584 8.56548e-21)
(1.10899 0.717307 -2.39122e-20)
(1.30951 0.853877 -6.80766e-21)
(1.33148 0.883741 0)
(1.28313 0.869198 -3.08828e-22)
(1.21368 0.84031 -1.13734e-20)
(1.14078 0.807967 2.26059e-20)
(1.06466 0.771696 4.1483e-20)
(0.986221 0.729387 5.3599e-20)
(0.908374 0.678919 -7.37396e-20)
(0.846536 0.627258 -8.24703e-20)
(0.808975 0.5839 7.34409e-20)
(0.767806 0.53382 0)
(0.651311 0.437956 -2.21284e-20)
(0.433084 0.286533 -5.19312e-20)
(0.207217 0.135479 -6.11001e-20)
(0.0394974 0.0262347 -7.20124e-20)
(-0.0531726 -0.0327779 2.1331e-20)
(-0.0703775 -0.0437276 -1.25838e-20)
(-0.0229922 -0.0142612 5.8739e-23)
(0.235305 0.164045 0)
(1.09825 0.752249 0)
(1.29611 0.896025 5.08095e-22)
(1.31651 0.926371 0)
(1.26774 0.910329 -1.42081e-22)
(1.1981 0.879569 7.16102e-21)
(1.12468 0.845286 0)
(1.04757 0.806902 4.86661e-21)
(0.967583 0.762131 8.97601e-20)
(0.887524 0.708453 -1.70225e-19)
(0.823428 0.652719 0)
(0.784351 0.604815 -4.76139e-20)
(0.741903 0.549139 -5.17828e-22)
(0.626174 0.446322 -3.05868e-22)
(0.415803 0.289649 5.59864e-20)
(0.199209 0.135603 5.0267e-23)
(0.0377323 0.0246792 -1.55271e-19)
(-0.0518069 -0.0348438 4.59176e-20)
(-0.0689331 -0.0456815 1.36289e-20)
(-0.0228803 -0.0150261 0)
(0.234734 0.172024 -3.4612e-20)
(1.088 0.785481 -1.62945e-20)
(1.28269 0.935659 -2.05713e-20)
(1.30158 0.966388 1.85247e-20)
(1.25244 0.948984 -3.26856e-21)
(1.18268 0.916587 0)
(1.1088 0.880614 1.35387e-20)
(1.03076 0.840402 -1.09942e-20)
(0.949224 0.793511 8.02003e-22)
(0.866811 0.737 1.26373e-20)
(0.800057 0.677392 1.07993e-19)
(0.759002 0.624678 -1.67744e-20)
(0.715159 0.562771 -6.31012e-20)
(0.60071 0.45268 -2.59125e-20)
(0.398779 0.291125 3.02415e-20)
(0.191688 0.135078 6.6241e-23)
(0.0366733 0.023712 4.18733e-20)
(-0.0500345 -0.0357527 -9.89276e-20)
(-0.0671157 -0.0467729 1.17453e-19)
(-0.0225226 -0.0155557 1.73375e-20)
(0.234216 0.179767 1.31773e-20)
(1.07825 0.817063 -9.18611e-21)
(1.26943 0.972917 1.3214e-21)
(1.28684 1.00392 1.22436e-20)
(1.23741 0.985285 2.07918e-21)
(1.16757 0.951446 -1.21561e-20)
(1.09331 0.914015 3.72175e-21)
(1.01439 0.87224 -4.59331e-20)
(0.931321 0.823561 -9.98397e-20)
(0.846421 0.764632 -1.02438e-19)
(0.776605 0.701463 0)
(0.732978 0.64375 -7.4311e-20)
(0.687418 0.574792 9.14391e-20)
(0.574723 0.456602 0)
(0.382093 0.290217 -6.50938e-20)
(0.185642 0.133133 3.83856e-20)
(0.0374936 0.023357 -4.51569e-20)
(-0.0476 -0.0351542 -5.33708e-20)
(-0.066307 -0.0473054 -9.47037e-20)
(-0.0225692 -0.0161689 -7.48493e-20)
(0.234031 0.187365 -1.49647e-20)
(1.06887 0.847009 9.84353e-21)
(1.25641 1.00788 2.2022e-20)
(1.27243 1.03907 1.81647e-20)
(1.22276 1.01933 -3.49223e-21)
(1.15288 0.984241 -5.92951e-21)
(1.07831 0.945549 1.27047e-20)
(0.998581 0.902473 -4.72889e-20)
(0.914004 0.852324 -5.9567e-20)
(0.826533 0.791412 1.08188e-19)
(0.753248 0.725094 2.40327e-19)
(0.706337 0.662323 0)
(0.658453 0.585391 0)
(0.547641 0.457691 -2.99448e-20)
(0.365443 0.285574 0)
(0.182413 0.128029 8.25469e-20)
(0.0432552 0.0216807 9.71938e-20)
(-0.0412632 -0.0346341 0)
(-0.0658951 -0.0484644 0)
(-0.0241569 -0.017698 8.06746e-20)
(0.233711 0.19454 1.70607e-20)
(1.05991 0.875342 1.34645e-20)
(1.24374 1.04066 1.60296e-20)
(1.25842 1.07198 -1.7746e-20)
(1.20858 1.05123 -5.15136e-21)
(1.13872 1.01505 5.06179e-21)
(1.0639 0.975283 -1.7477e-20)
(0.983435 0.931137 -2.6631e-22)
(0.8974 0.879822 -1.06202e-21)
(0.807303 0.817373 -6.28618e-22)
(0.730183 0.748416 1.24553e-19)
(0.679179 0.680689 0)
(0.628031 0.594924 9.4041e-20)
(0.518655 0.455877 6.46945e-20)
(0.347791 0.275902 1.531e-19)
(0.181377 0.116008 4.47246e-20)
(0.057492 0.0105594 -5.24103e-20)
(-0.0197918 -0.0442788 -3.09517e-20)
(-0.0513783 -0.0531986 0)
(-0.0244826 -0.0196481 8.71949e-20)
(0.23375 0.201749 -3.87105e-20)
(1.05134 0.902166 0)
(1.23141 1.07133 1.90063e-20)
(1.24485 1.10274 -1.51326e-20)
(1.19494 1.0811 7.70104e-21)
(1.12513 1.04397 -3.51795e-21)
(1.05014 1.00327 3.34059e-20)
(0.969021 0.95827 -3.8174e-21)
(0.881594 0.906073 0)
(0.788867 0.842506 -1.20984e-19)
(0.707616 0.771517 -2.73501e-19)
(0.651658 0.699146 1.1241e-20)
(0.596031 0.603892 1.31717e-19)
(0.486858 0.451667 0)
(0.326638 0.260939 1.04237e-19)
(0.177931 0.0925403 0)
(0.0750674 -0.0230473 0)
(0.0235928 -0.0870248 -3.34975e-20)
(0.017338 -0.0737523 0)
(0.0163561 -0.00522337 2.34973e-20)
(0.233498 0.208421 -4.33146e-20)
(1.04312 0.927808 0)
(1.21944 1.10009 3.18627e-20)
(1.23169 1.13158 0)
(1.18181 1.10919 -4.91234e-21)
(1.11206 1.07127 0)
(1.03699 1.02983 1.494e-21)
(0.955253 0.984202 6.65195e-21)
(0.866473 0.931429 7.63508e-21)
(0.771068 0.867176 -1.33701e-19)
(0.685368 0.794848 8.25794e-21)
(0.623463 0.718431 9.13395e-20)
(0.561827 0.613221 1.29468e-19)
(0.450849 0.445876 1.72909e-20)
(0.29883 0.241995 8.25482e-20)
(0.163633 0.0587851 0)
(0.0770851 -0.0802601 1.10846e-19)
(0.0449477 -0.113727 -6.50523e-20)
(0.0215922 0.0305383 7.62583e-20)
(-0.0390541 0.462707 -9.05798e-20)
(0.233291 0.214937 3.59334e-20)
(1.03503 0.952092 5.4016e-20)
(1.20773 1.12727 0)
(1.2188 1.15897 9.90489e-22)
(1.16899 1.13609 1.50132e-20)
(1.09923 1.09766 -1.14107e-21)
(1.02412 1.05573 1.124e-20)
(0.941704 1.00986 0)
(0.851488 0.956957 5.04067e-20)
(0.753201 0.892644 -6.96473e-21)
(0.662464 0.819829 0)
(0.593126 0.740098 0)
(0.522919 0.623911 1.17376e-19)
(0.407367 0.438678 -5.3703e-20)
(0.260588 0.220847 -8.47939e-20)
(0.13268 0.0180776 0)
(0.0481063 -0.0451512 5.66533e-20)
(0.00207 0.448451 -6.55255e-20)
(0.0274105 1.94778 -3.67338e-20)
(0.0533506 2.83488 -4.51887e-20)
(0.232819 0.220958 -2.70997e-20)
(1.02713 0.975202 -6.95381e-20)
(1.19632 1.15288 1.9016e-20)
(1.20618 1.18476 1.51676e-20)
(1.15656 1.16161 0)
(1.08676 1.12284 -2.92958e-21)
(1.01175 1.08069 1.46726e-20)
(0.92859 1.03481 -3.22691e-21)
(0.836951 0.982162 7.62166e-21)
(0.735705 0.918354 1.28635e-19)
(0.639609 0.84593 1.41476e-19)
(0.561724 0.764292 1.0498e-19)
(0.48002 0.636818 1.19692e-19)
(0.356914 0.430009 -1.28476e-19)
(0.216391 0.202569 -1.29868e-19)
(0.088677 0.0803025 0)
(0.0331028 0.921001 0)
(0.078221 2.59893 3.15924e-20)
(0.0815236 3.22056 0)
(0.083742 3.39206 8.2275e-20)
(0.235197 0.226666 0)
(1.0198 0.997547 0)
(1.1849 1.17678 0)
(1.19366 1.20883 4.65554e-21)
(1.14418 1.18549 1.38083e-20)
(1.07446 1.14668 -4.66024e-21)
(0.999812 1.10459 9.22508e-21)
(0.915846 1.05894 -3.15083e-21)
(0.822802 1.00687 6.34617e-20)
(0.718586 0.94414 -1.49546e-21)
(0.616933 0.872971 2.82356e-19)
(0.529679 0.791212 -1.22487e-20)
(0.433108 0.653399 1.47597e-20)
(0.300611 0.418814 1.88307e-20)
(0.159503 0.218028 -8.66311e-22)
(0.0771749 1.03835 3.42614e-22)
(0.111989 2.78261 -1.71232e-19)
(0.116392 3.30327 -6.42382e-20)
(0.109293 3.42268 3.37854e-20)
(0.100673 3.44198 -3.82537e-20)
(0.158051 0.171996 1.66054e-20)
(1.00804 1.02185 0)
(1.17323 1.19918 -3.91897e-20)
(1.18167 1.23162 -4.16948e-20)
(1.13228 1.20823 3.35112e-20)
(1.06301 1.16966 5.88138e-21)
(0.988092 1.12746 -9.2473e-21)
(0.903506 1.08229 3.43157e-20)
(0.80913 1.03116 -5.23134e-20)
(0.702094 0.970123 0)
(0.5948 0.901047 1.40467e-19)
(0.497594 0.820756 -8.7059e-20)
(0.386724 0.683562 0)
(0.2363 0.411505 1.8606e-20)
(0.112213 0.70092 4.33819e-20)
(0.126664 2.59582 -4.84223e-20)
(0.171995 3.32626 5.4703e-20)
(0.157164 3.42948 2.93752e-20)
(0.131523 3.44843 3.30661e-20)
(0.113732 3.45745 5.27291e-20)
(0.269458 0.263678 -3.19762e-20)
(0.989161 1.03099 0)
(1.15382 1.22462 4.23759e-20)
(1.16619 1.26276 4.61369e-20)
(1.11403 1.24174 -3.80916e-20)
(1.04417 1.20348 -1.06378e-20)
(0.968019 1.1628 6.73781e-21)
(0.882703 1.11883 2.74053e-21)
(0.786543 1.06982 5.00411e-20)
(0.675757 1.01277 1.13395e-19)
(0.56095 0.949685 7.92908e-21)
(0.447645 0.869118 7.87409e-20)
(0.298673 0.704566 1.42996e-20)
(0.193921 0.847385 -1.80954e-20)
(0.200345 2.48316 -4.00295e-20)
(0.251294 3.32673 3.91796e-20)
(0.234055 3.45062 -4.28334e-20)
(0.201013 3.47038 -2.44939e-20)
(0.168785 3.49545 -2.22242e-20)
(0.1244 3.49174 -3.19866e-21)
(0.259303 0.262344 0)
(0.985551 1.05344 1.24458e-20)
(1.14444 1.24804 -8.75919e-21)
(1.15452 1.28628 -5.53992e-21)
(1.10235 1.26501 -2.648e-20)
(1.03245 1.22691 1.13241e-20)
(0.9559 1.1864 -2.77832e-21)
(0.870176 1.14324 2.44574e-21)
(0.773085 1.0957 -5.22824e-20)
(0.660185 1.0416 -2.58297e-21)
(0.540873 0.983337 -2.57374e-19)
(0.418504 0.904536 1.13513e-20)
(0.274497 0.778279 -1.36335e-20)
(0.230253 1.52426 -1.67198e-20)
(0.294814 3.14526 3.64932e-21)
(0.30592 3.45027 5.9927e-23)
(0.265673 3.49729 6.43634e-20)
(0.232677 3.52265 3.2626e-20)
(0.187563 3.54355 -1.06793e-20)
(0.138446 3.54128 -1.61627e-20)
(0.245111 0.260083 3.1929e-20)
(0.980986 1.07838 8.43541e-20)
(1.13467 1.27354 -2.49315e-20)
(1.14245 1.31144 -2.07619e-20)
(1.09018 1.28976 0)
(1.02033 1.25167 2.20984e-20)
(0.943665 1.2114 -9.96515e-22)
(0.857792 1.16903 2.12433e-21)
(0.760095 1.12313 -5.89277e-21)
(0.645665 1.07236 -1.03725e-19)
(0.522889 1.01966 -1.19508e-19)
(0.392655 0.941451 -9.32111e-20)
(0.275039 0.934722 -1.03206e-19)
(0.298003 2.33037 1.05964e-19)
(0.377424 3.37874 8.90531e-20)
(0.346568 3.50374 0)
(0.299909 3.54311 0)
(0.263859 3.57798 -8.59673e-21)
(0.221677 3.62292 0)
(0.152687 3.60974 -1.33185e-20)
(0.235117 0.261752 -4.76287e-20)
(0.974475 1.10412 -7.14818e-20)
(1.12348 1.30026 0)
(1.1291 1.33742 1.20312e-21)
(1.07673 1.31516 -2.91103e-20)
(1.0071 1.27701 3.67912e-20)
(0.930653 1.23703 1.0901e-21)
(0.844866 1.1954 1.0607e-21)
(0.746828 1.15115 -3.68777e-20)
(0.631348 1.10383 5.1476e-21)
(0.506154 1.05685 0)
(0.368184 0.981574 0)
(0.296745 1.24596 -9.41488e-20)
(0.380169 2.98393 3.82216e-20)
(0.443065 3.47399 4.87125e-20)