/*--------------------------------*- C++ -*----------------------------------*\
  =========                 |
  \\      /  F ield         | OpenFOAM: The Open Source CFD Toolbox
   \\    /   O peration     | Website:  https://openfoam.org
    \\  /    A nd           | Version:  6
     \\/     M anipulation  |
\*---------------------------------------------------------------------------*/
FoamFile
{
    version     2.0;
    format      ascii;
    class       volScalarField;
    location    "60.7";
    object      p;
}
// * * * * * * * * * * * * * * * * * * * * * * * * * * * * * * * * * * * * * //

dimensions      [0 2 -2 0 0 0 0];

internalField   nonuniform List<scalar> 
8800
(
0.75656
0.707243
0.669275
0.6412
0.621031
0.606433
0.595818
0.588255
0.583338
0.581226
0.582551
0.586857
0.593623
0.603025
0.615747
0.633059
0.65693
0.690024
0.732959
0.785472
0.591061
0.597404
0.606551
0.610095
0.60748
0.601381
0.594426
0.588163
0.583333
0.580425
0.580147
0.582732
0.587341
0.593445
0.600529
0.607551
0.612422
0.612293
0.605614
0.596713
0.56459
0.570823
0.575319
0.579183
0.582122
0.583057
0.58195
0.579801
0.577785
0.5769
0.577883
0.580296
0.583152
0.5854
0.585906
0.584107
0.580734
0.576716
0.571931
0.568215
0.56031
0.563074
0.565674
0.567824
0.56955
0.571103
0.572185
0.572509
0.572356
0.572404
0.573155
0.574253
0.574961
0.574786
0.573794
0.572427
0.570749
0.56844
0.566026
0.564459
0.555282
0.556706
0.558539
0.56061
0.562309
0.563584
0.564658
0.565605
0.566369
0.567049
0.567699
0.568109
0.568096
0.567704
0.567016
0.565887
0.56422
0.562318
0.560962
0.560159
0.550328
0.55123
0.552469
0.554084
0.555763
0.557274
0.55853
0.559614
0.560628
0.56158
0.562296
0.562628
0.562595
0.562195
0.561368
0.560163
0.558788
0.557514
0.556689
0.556165
0.545465
0.54612
0.547073
0.548378
0.549807
0.551299
0.552752
0.554072
0.555276
0.556405
0.557275
0.557703
0.55767
0.557195
0.556386
0.555423
0.554415
0.5535
0.552917
0.552533
0.540692
0.541196
0.541973
0.543098
0.544378
0.545767
0.547239
0.54873
0.550174
0.551541
0.552602
0.553132
0.55315
0.552782
0.552185
0.551471
0.550714
0.550039
0.549608
0.54931
0.535955
0.536356
0.537007
0.538011
0.539217
0.54055
0.542013
0.543595
0.545249
0.546891
0.548194
0.548906
0.549108
0.548963
0.548601
0.548104
0.54755
0.547067
0.546747
0.546505
0.531175
0.531503
0.532066
0.53299
0.534148
0.535468
0.536963
0.538642
0.540486
0.542418
0.544042
0.545049
0.545528
0.545642
0.545513
0.545238
0.544877
0.544555
0.544319
0.544116
0.526266
0.526538
0.527041
0.527919
0.529059
0.530405
0.531975
0.533793
0.535864
0.538133
0.54016
0.54155
0.542365
0.542769
0.542892
0.542841
0.542674
0.542492
0.542324
0.542149
0.521141
0.52137
0.521835
0.522695
0.523859
0.525272
0.526958
0.528971
0.531336
0.534026
0.536545
0.538391
0.539598
0.540336
0.540741
0.540925
0.540952
0.540898
0.540785
0.54063
0.515707
0.515903
0.516349
0.517223
0.518449
0.519974
0.521833
0.524106
0.526849
0.530062
0.53318
0.535571
0.537235
0.538354
0.539076
0.539507
0.539743
0.539811
0.539745
0.539603
0.509865
0.510034
0.510478
0.511393
0.512723
0.514412
0.51651
0.519127
0.522352
0.526214
0.530057
0.533097
0.535298
0.536854
0.537936
0.538665
0.539108
0.539292
0.539266
0.539133
0.503496
0.503643
0.504101
0.505087
0.506566
0.508479
0.510894
0.513952
0.517778
0.522437
0.527158
0.530976
0.533815
0.535884
0.537376
0.538428
0.539107
0.539414
0.539424
0.539295
0.496463
0.496586
0.497072
0.498161
0.499839
0.502048
0.504872
0.508488
0.513063
0.518697
0.52448
0.529227
0.532818
0.535492
0.537468
0.538895
0.539835
0.540266
0.54031
0.540182
0.488581
0.488683
0.489215
0.49044
0.492379
0.494967
0.498307
0.502618
0.508117
0.514943
0.522008
0.527866
0.532349
0.535738
0.53829
0.540153
0.541387
0.541951
0.542027
0.541896
0.479621
0.479726
0.480306
0.481704
0.48398
0.487049
0.491042
0.496228
0.502873
0.511152
0.519758
0.526938
0.532473
0.536698
0.539933
0.542303
0.54387
0.544575
0.54468
0.544543
0.469272
0.469362
0.470035
0.471667
0.474378
0.478062
0.482884
0.489173
0.497244
0.507301
0.517751
0.526484
0.533256
0.538467
0.542482
0.545456
0.547395
0.548247
0.548378
0.548231
0.457166
0.457242
0.458016
0.459961
0.463234
0.467715
0.473602
0.48129
0.491141
0.503369
0.516016
0.526566
0.534769
0.541125
0.546053
0.549715
0.552064
0.553064
0.553215
0.553055
0.442753
0.442822
0.443742
0.446099
0.450105
0.455631
0.462904
0.472381
0.484459
0.499333
0.514584
0.527241
0.537081
0.544754
0.550732
0.555169
0.557956
0.559098
0.559261
0.559084
0.425258
0.425319
0.426453
0.429395
0.434408
0.441345
0.450463
0.462269
0.477149
0.495226
0.513529
0.528591
0.540285
0.549437
0.556573
0.561877
0.565111
0.566375
0.566536
0.56634
0.403537
0.403603
0.405079
0.408892
0.415352
0.424274
0.435919
0.45081
0.469242
0.491178
0.512978
0.530718
0.544447
0.55523
0.563639
0.569849
0.573502
0.574846
0.574988
0.57477
0.375818
0.375913
0.377982
0.383206
0.3919
0.403748
0.418966
0.437967
0.460847
0.48734
0.513071
0.533721
0.549639
0.562146
0.571913
0.579019
0.583006
0.584365
0.584466
0.584228
0.339064
0.339281
0.342558
0.350381
0.36284
0.379181
0.399501
0.42391
0.452227
0.483962
0.513994
0.537719
0.555907
0.570202
0.581331
0.589223
0.59339
0.594671
0.594706
0.594451
0.287469
0.288546
0.295052
0.30824
0.327273
0.350566
0.377935
0.409165
0.443863
0.481405
0.515994
0.54286
0.563308
0.579307
0.591718
0.60019
0.604293
0.605391
0.605348
0.605081
0.212627
0.219975
0.234893
0.257907
0.286762
0.31936
0.355312
0.394363
0.436142
0.480008
0.519485
0.549727
0.572631
0.5905
0.6041
0.612909
0.616806
0.6177
0.617606
0.61737
0.133015
0.149077
0.173307
0.206924
0.24611
0.288177
0.332774
0.379816
0.429038
0.479897
0.525189
0.559646
0.585609
0.605711
0.620615
0.62953
0.632963
0.633601
0.633528
0.633385
0.0648296
0.0844559
0.11647
0.15923
0.207626
0.258602
0.311614
0.366538
0.423095
0.480727
0.531492
0.569848
0.59861
0.620663
0.636468
0.645197
0.648204
0.648726
0.648702
0.648614
0.00903821
0.0308779
0.0682538
0.11757
0.173191
0.231669
0.292154
0.354332
0.417758
0.481802
0.537783
0.579801
0.611127
0.63491
0.651573
0.660466
0.663383
0.663908
0.663905
0.663847
-0.037191
-0.0140307
0.0272355
0.0816834
0.14309
0.207747
0.274597
0.343196
0.412928
0.483007
0.543962
0.589494
0.623257
0.648745
0.666408
0.675678
0.678778
0.679276
0.679301
0.679267
-0.0764762
-0.0525166
-0.00837672
0.0502422
0.11652
0.186458
0.258847
0.33317
0.408661
0.484349
0.550012
0.598931
0.635099
0.662249
0.680977
0.690868
0.694177
0.694716
0.694757
0.694743
-0.110844
-0.0863416
-0.0399443
0.0221366
0.0925883
0.167142
0.24445
0.323924
0.404692
0.48566
0.5558
0.607984
0.646466
0.675261
0.695038
0.705543
0.709144
0.709764
0.709831
0.709828
-0.141784
-0.116828
-0.0685632
-0.00353164
0.0705341
0.149134
0.230863
0.315069
0.400784
0.486765
0.561203
0.616472
0.657155
0.687493
0.708262
0.719334
0.723267
0.724013
0.72408
0.72408
-0.1703
-0.144924
-0.095063
-0.0274583
0.04978
0.131973
0.217706
0.306282
0.396644
0.487404
0.566007
0.624262
0.66703
0.698799
0.720461
0.732059
0.736255
0.737124
0.737177
0.737167
-0.197187
-0.171352
-0.120049
-0.050136
0.0299085
0.115312
0.204667
0.29727
0.392009
0.487398
0.570087
0.631284
0.676033
0.709132
0.731551
0.743527
0.747933
0.748864
0.748906
0.74888
-0.222827
-0.196547
-0.143909
-0.0719416
0.0106025
0.0988838
0.191526
0.287848
0.386737
0.486621
0.573371
0.637504
0.684203
0.718494
0.741533
0.753765
0.758268
0.759231
0.759249
0.7592
-0.247639
-0.220831
-0.166962
-0.0931369
-0.00835417
0.0825144
0.178156
0.27791
0.380704
0.484961
0.575799
0.642939
0.691593
0.727018
0.750547
0.762885
0.767383
0.768337
0.768323
0.768252
-0.271754
-0.24441
-0.189376
-0.113874
-0.0270888
0.066109
0.164471
0.267381
0.373834
0.482347
0.577338
0.647615
0.698313
0.734838
0.758716
0.771017
0.775447
0.776353
0.776322
0.77623
-0.295293
-0.26739
-0.211263
-0.134236
-0.0456593
0.0496214
0.150434
0.256229
0.366101
0.478722
0.577933
0.651562
0.704468
0.742124
0.766245
0.778361
0.782612
0.783434
0.783366
0.783255
-0.318351
-0.289865
-0.232666
-0.154256
-0.0640942
0.0330473
0.136059
0.244469
0.357497
0.474045
0.577527
0.654773
0.710179
0.749055
0.773291
0.785044
0.788992
0.789675
0.789563
0.789435
-0.340977
-0.311832
-0.2536
-0.173929
-0.0823628
0.016415
0.121386
0.232136
0.348041
0.46829
0.57606
0.657206
0.715514
0.755828
0.780085
0.791223
0.794673
0.795149
0.794992
0.794858
-0.363024
-0.333254
-0.274036
-0.193242
-0.100435
-0.000214122
0.106471
0.219298
0.337784
0.46147
0.573453
0.658778
0.720473
0.762648
0.78695
0.797149
0.799787
0.799936
0.799732
0.799604
-0.38446
-0.354093
-0.293958
-0.212158
-0.118259
-0.0167823
0.0914004
0.206028
0.326801
0.453599
0.569651
0.659368
0.724965
0.769639
0.794335
0.803365
0.804655
0.804139
0.803854
0.803779
-0.40534
-0.374318
-0.313341
-0.230639
-0.135773
-0.0332075
0.0762621
0.192427
0.315178
0.444729
0.564593
0.658844
0.7288
0.776731
0.802654
0.810815
0.810184
0.808168
0.807463
0.807635
-0.425508
-0.393901
-0.332128
-0.248621
-0.152917
-0.0494053
0.0611522
0.178601
0.303025
0.434951
0.558248
0.657044
0.731713
0.783555
0.81191
0.820559
0.818427
0.813855
0.810846
0.809525
-0.445057
-0.412842
-0.350324
-0.266135
-0.169726
-0.0654152
0.0460193
0.164494
0.290273
0.424201
0.550458
0.653712
0.733451
0.789579
0.821444
0.832818
0.831542
0.824672
0.814985
0.815087
-0.463899
-0.431212
-0.368062
-0.283376
-0.186494
-0.0815687
0.0304489
0.149619
0.276375
0.411845
0.540562
0.648072
0.733538
0.794137
0.829601
0.845328
0.845768
0.835161
0.816966
0.814516
-0.481898
-0.448969
-0.385173
-0.300151
-0.202956
-0.0975638
0.0146494
0.1343
0.261623
0.398127
0.52861
0.639466
0.731177
0.796043
0.832237
0.848291
0.851222
0.826694
0.768693
0.743478
-0.498931
-0.46696
-0.401253
-0.316003
-0.218358
-0.11292
-0.00110088
0.11881
0.246296
0.383217
0.514672
0.62731
0.725347
0.794425
0.824651
0.835414
0.823654
0.773065
0.711221
0.673455
-0.542183
-0.484431
-0.41607
-0.331761
-0.233451
-0.128584
-0.0166643
0.103029
0.230197
0.366772
0.498356
0.610989
0.712193
0.786389
0.804753
0.793459
0.747555
0.68338
0.614809
0.577134
-0.517166
-0.498979
-0.438653
-0.353785
-0.256707
-0.152095
-0.0409127
0.0780621
0.204214
0.339227
0.469201
0.579596
0.672209
0.753423
0.738216
0.631445
0.542035
0.479936
0.416414
0.44386
-0.548278
-0.516677
-0.45551
-0.371132
-0.274381
-0.169968
-0.0586496
0.0596239
0.184689
0.317837
0.445113
0.551853
0.633899
0.679295
0.629122
0.491169
0.383283
0.310607
0.229035
0.275064
-0.572442
-0.538372
-0.475408
-0.390935
-0.294258
-0.189885
-0.0787088
0.0387317
0.16238
0.29305
0.416425
0.517159
0.587507
0.595181
0.490205
0.336287
0.20825
0.116667
0.0217435
0.0537984
-0.59599
-0.560811
-0.496421
-0.411264
-0.314501
-0.210257
-0.0996128
0.0168263
0.138822
0.266606
0.385063
0.47777
0.531126
0.506199
0.349624
0.173707
0.0146983
-0.118326
-0.241937
-0.228431
-0.619269
-0.583654
-0.518312
-0.432537
-0.335617
-0.231593
-0.121622
-0.00633576
0.113716
0.238195
0.350914
0.435472
0.468231
0.39863
0.211413
0.0153275
-0.171024
-0.324256
-0.529202
-0.607538
-0.642961
-0.607358
-0.541435
-0.455206
-0.358107
-0.254258
-0.144899
-0.0308038
0.0871737
0.208075
0.314616
0.389729
0.397312
0.276236
0.0854424
-0.12274
-0.314163
-0.475734
-0.599614
-0.718104
-0.668146
-0.632411
-0.566149
-0.479657
-0.382512
-0.278938
-0.170291
-0.0575705
0.0579768
0.174738
0.274661
0.337113
0.317459
0.160057
-0.0323516
-0.234636
-0.409383
-0.506438
-0.532768
-0.546298
-0.69495
-0.6591
-0.592583
-0.505985
-0.408977
-0.305854
-0.198172
-0.0871492
0.0255053
0.137381
0.230214
0.275262
0.236508
0.0484978
-0.142057
-0.324137
-0.456091
-0.493933
-0.502909
-0.503255
-0.723647
-0.687545
-0.620772
-0.534173
-0.437449
-0.335014
-0.228567
-0.119598
-0.0103111
0.0959606
0.180668
0.20957
0.139743
-0.0534244
-0.237989
-0.396188
-0.470164
-0.484286
-0.485399
-0.485276
-0.754247
-0.717777
-0.650725
-0.564211
-0.46794
-0.366406
-0.261482
-0.154938
-0.0494627
0.0505648
0.12591
0.140492
0.0323963
-0.14573
-0.320534
-0.445886
-0.474582
-0.475289
-0.475806
-0.475399
-0.786484
-0.749613
-0.682333
-0.596009
-0.500355
-0.39997
-0.296889
-0.193146
-0.0919082
0.00131722
0.0671527
0.062796
-0.0629857
-0.230959
-0.385794
-0.457062
-0.472213
-0.470226
-0.469916
-0.46949
-0.81978
-0.782694
-0.715315
-0.62932
-0.534491
-0.435535
-0.334632
-0.234096
-0.137445
-0.0513481
0.00471372
-0.0155339
-0.151258
-0.306064
-0.428605
-0.465932
-0.465758
-0.466698
-0.466582
-0.466214
-0.853671
-0.816469
-0.749168
-0.663704
-0.569971
-0.472757
-0.374412
-0.277501
-0.185794
-0.106574
-0.0629853
-0.089344
-0.23178
-0.3648
-0.452695
-0.461426
-0.46406
-0.465045
-0.465006
-0.464853
-0.887192
-0.850021
-0.783112
-0.698485
-0.606207
-0.511126
-0.415738
-0.322863
-0.236545
-0.163578
-0.130731
-0.164457
-0.301535
-0.410485
-0.458065
-0.469446
-0.465453
-0.463853
-0.463293
-0.463183
-0.918378
-0.882009
-0.816074
-0.732726
-0.642371
-0.549888
-0.457908
-0.369431
-0.288915
-0.222011
-0.194088
-0.243451
-0.360195
-0.453575
-0.475832
-0.473771
-0.467456
-0.462136
-0.460663
-0.460289
-0.946166
-0.910864
-0.846586
-0.765162
-0.677341
-0.588035
-0.49999
-0.416268
-0.341638
-0.281372
-0.256559
-0.31369
-0.406634
-0.482491
-0.507987
-0.491347
-0.474659
-0.46608
-0.463705
-0.462666
-0.967739
-0.934403
-0.872816
-0.794192
-0.709715
-0.624304
-0.54077
-0.462306
-0.393359
-0.339948
-0.319323
-0.372223
-0.437214
-0.484509
-0.49252
-0.502768
-0.506621
-0.504075
-0.499784
-0.497278
-0.980883
-0.950373
-0.892585
-0.817968
-0.737858
-0.657217
-0.578778
-0.506179
-0.442942
-0.395288
-0.37623
-0.427764
-0.461952
-0.474277
-0.490917
-0.5287
-0.553402
-0.553965
-0.548595
-0.547111
-0.982788
-0.95626
-0.903661
-0.834528
-0.760014
-0.685155
-0.612508
-0.545941
-0.489343
-0.446481
-0.424083
-0.485986
-0.525664
-0.506458
-0.524699
-0.546453
-0.550147
-0.547845
-0.546982
-0.547739
-0.971183
-0.949539
-0.903831
-0.841992
-0.774599
-0.706533
-0.640537
-0.579578
-0.530413
-0.493388
-0.466867
-0.530738
-0.666728
-0.727346
-0.682573
-0.601505
-0.554167
-0.539917
-0.536135
-0.534629
-0.943193
-0.927231
-0.891062
-0.839019
-0.780428
-0.720288
-0.661372
-0.606161
-0.56229
-0.532916
-0.503081
-0.549659
-0.652683
-0.858027
-0.769014
-0.603945
-0.523326
-0.499768
-0.491988
-0.488773
-0.902222
-0.891978
-0.866263
-0.82581
-0.77734
-0.726168
-0.674093
-0.625213
-0.582794
-0.560127
-0.532719
-0.468753
-0.336123
-0.297021
-0.304983
-0.344437
-0.389588
-0.398721
-0.397755
-0.396875
-0.855392
-0.849569
-0.834481
-0.805368
-0.767579
-0.724721
-0.679703
-0.634691
-0.594516
-0.565436
-0.528465
-0.393792
-0.122525
0.150658
0.113089
-0.100709
-0.262552
-0.323488
-0.34666
-0.353914
-0.813065
-0.809552
-0.802264
-0.783358
-0.754355
-0.718462
-0.678904
-0.636866
-0.59576
-0.559603
-0.542637
-0.47421
-0.46029
-0.432692
-0.618293
-0.867477
-0.962045
-0.874388
-0.783678
-0.779938
-0.781943
-0.779801
-0.775976
-0.764505
-0.741908
-0.710967
-0.674233
-0.633635
-0.588925
-0.553801
-0.518148
-0.604667
-0.982593
-1.66103
-2.06619
-2.13781
-2.02081
-1.82838
-1.65634
-1.57153
-0.758803
-0.758008
-0.756664
-0.750746
-0.733471
-0.705311
-0.66931
-0.625699
-0.579141
-0.527963
-0.49343
-0.545961
-0.86926
-1.22037
-1.4969
-1.51795
-1.29501
-1.02959
-0.838989
-0.756293
-0.74515
-0.744841
-0.744114
-0.741205
-0.728847
-0.702316
-0.663693
-0.61783
-0.562497
-0.491965
-0.427291
-0.344065
-0.276154
-0.144105
0.00800196
0.222721
0.499035
0.679872
0.768402
0.79714
-0.736339
-0.735981
-0.73514
-0.733945
-0.726589
-0.701913
-0.660492
-0.608061
-0.542609
-0.465035
-0.359082
-0.232115
-0.0356936
0.365437
0.839343
1.27696
1.60826
1.75948
1.80775
1.81643
-0.732693
-0.732605
-0.732419
-0.732498
-0.728333
-0.705107
-0.659507
-0.60019
-0.530557
-0.434771
-0.320282
-0.190064
0.0563211
0.508592
0.99434
1.43632
1.74129
1.88084
1.93084
1.94022
-0.728739
-0.729909
-0.732713
-0.736187
-0.734115
-0.708759
-0.661045
-0.601612
-0.522226
-0.417459
-0.308075
-0.18036
0.0259567
0.42781
0.839937
1.19628
1.44591
1.56519
1.6016
1.60682
-0.723323
-0.724423
-0.72434
-0.721957
-0.71874
-0.700518
-0.666274
-0.611088
-0.525838
-0.418836
-0.309127
-0.204773
-0.0358305
0.267525
0.559724
0.817801
0.99305
1.06812
1.09051
1.09382
-0.743648
-0.741875
-0.728229
-0.699471
-0.679004
-0.687683
-0.683125
-0.63004
-0.536761
-0.426753
-0.321508
-0.233534
-0.104482
0.105842
0.298215
0.443516
0.523234
0.564128
0.587829
0.596655
-0.800806
-0.796779
-0.786454
-0.76679
-0.754162
-0.756554
-0.741505
-0.659563
-0.546507
-0.435224
-0.335706
-0.266116
-0.159617
-0.00283303
0.12621
0.20842
0.250008
0.281309
0.305463
0.31572
-0.911316
-0.918836
-0.947205
-0.980183
-0.980573
-0.9508
-0.856087
-0.701401
-0.557221
-0.441633
-0.349378
-0.289607
-0.225747
-0.0825107
0.0302449
0.111372
0.165235
0.20286
0.223567
0.229886
-1.03461
-1.05573
-1.09936
-1.13216
-1.13165
-1.08261
-0.93073
-0.724374
-0.563928
-0.440792
-0.346735
-0.298973
-0.242827
-0.131549
-0.0301418
0.0591725
0.125828
0.166577
0.182761
0.185947
-1.03659
-1.05601
-1.08955
-1.11712
-1.11723
-1.05767
-0.880253
-0.688042
-0.543234
-0.418382
-0.340029
-0.2827
-0.247929
-0.147911
-0.0475315
0.0207977
0.0741125
0.106584
0.118409
0.120199
-0.843034
-0.863762
-0.898892
-0.933061
-0.938613
-0.871901
-0.727026
-0.594044
-0.469219
-0.379384
-0.307862
-0.249843
-0.210427
-0.15374
-0.0743127
-0.0207539
0.0247501
0.0498657
0.0596712
0.0596058
-0.501342
-0.517361
-0.547462
-0.582394
-0.599023
-0.573086
-0.51327
-0.442421
-0.374086
-0.318431
-0.26535
-0.215153
-0.17511
-0.132271
-0.0859252
-0.0495062
-0.0178957
0.000771216
0.00743946
0.00693077
-0.17192
-0.180146
-0.199476
-0.230078
-0.263118
-0.282803
-0.293073
-0.293028
-0.280934
-0.251905
-0.223401
-0.18603
-0.160674
-0.134276
-0.0996415
-0.0748246
-0.054605
-0.04406
-0.0412142
-0.0428548
0.0238545
0.0200127
0.00724077
-0.0199161
-0.0621607
-0.111817
-0.154474
-0.185593
-0.201414
-0.200217
-0.187191
-0.16538
-0.147899
-0.144648
-0.129738
-0.113442
-0.100137
-0.0948107
-0.094533
-0.0963469
0.0921282
0.0898691
0.0807032
0.0583598
0.0207297
-0.0273713
-0.0761677
-0.117771
-0.148209
-0.162485
-0.164496
-0.152381
-0.148631
-0.150435
-0.151069
-0.150293
-0.149828
-0.153344
-0.155253
-0.156077
0.093761
0.0921896
0.0856874
0.0695595
0.0412829
0.00361565
-0.0383133
-0.0795183
-0.114427
-0.138676
-0.151765
-0.15175
-0.156059
-0.171495
-0.177718
-0.182807
-0.189831
-0.196829
-0.199636
-0.20012
0.0726482
0.0715819
0.0671364
0.0560328
0.0360774
0.00798357
-0.0257119
-0.0613312
-0.0961646
-0.127496
-0.154281
-0.170383
-0.181835
-0.196868
-0.206808
-0.214425
-0.22065
-0.224932
-0.226147
-0.226436
0.0480688
0.0473751
0.0443801
0.0368492
0.0230082
0.00259495
-0.0236388
-0.0539291
-0.0875333
-0.124493
-0.166891
-0.210305
-0.241376
-0.239769
-0.234503
-0.232957
-0.236711
-0.239137
-0.239388
-0.239635
0.0269355
0.0264541
0.0244774
0.0194288
0.00985014
-0.00491053
-0.0249908
-0.0498896
-0.080723
-0.120454
-0.174827
-0.243164
-0.284169
-0.267262
-0.252203
-0.24559
-0.243629
-0.243331
-0.24262
-0.242403
0.0114373
0.0110974
0.00978147
0.00638437
-0.000236489
-0.0108146
-0.0259527
-0.0459544
-0.0722693
-0.109396
-0.163133
-0.230953
-0.262056
-0.243201
-0.225016
-0.221821
-0.224397
-0.226115
-0.226182
-0.225877
0.00135198
0.00114065
0.000268985
-0.00191008
-0.00631642
-0.0136671
-0.0246112
-0.039692
-0.0601535
-0.0886487
-0.129555
-0.175726
-0.187419
-0.177943
-0.172249
-0.177694
-0.184545
-0.188434
-0.189211
-0.189057
-0.00397776
-0.00411024
-0.00465006
-0.00594764
-0.00868367
-0.0134447
-0.0208578
-0.0312097
-0.0453471
-0.0633511
-0.0842411
-0.102973
-0.106311
-0.100523
-0.110624
-0.123984
-0.134094
-0.138717
-0.139515
-0.139288
-0.00545577
-0.00552221
-0.005818
-0.00648494
-0.00798374
-0.0107929
-0.0152537
-0.0215958
-0.0296203
-0.037797
-0.0402647
-0.0312685
-0.013085
-0.0306045
-0.0521841
-0.0689341
-0.0791118
-0.0822243
-0.0835366
-0.0838119
-0.00418992
-0.00420386
-0.00430346
-0.00456004
-0.00521419
-0.00651376
-0.00866939
-0.0117025
-0.0153535
-0.0173356
-0.0102207
0.00813739
0.0297339
0.011938
-0.0116695
-0.0275335
-0.0339602
-0.0353441
-0.0358089
-0.0362653
-0.00114223
-0.00111252
-0.00114041
-0.00108751
-0.00100806
-0.0010059
-0.00132451
-0.00193754
-0.0025986
-0.00296068
-0.00199105
0.00471306
0.0109549
0.0079745
-0.00257123
-0.00180526
-0.00120157
-0.00165274
-0.00398156
-0.0046757
-0.0950684
0.094595
0.269038
0.417089
0.536288
0.631052
0.710258
0.774709
0.791349
0.787657
0.197536
0.319732
0.434278
0.534025
0.618183
0.687929
0.743011
0.780299
0.800244
0.816818
0.396154
0.477736
0.558258
0.629183
0.689898
0.740284
0.779986
0.810197
0.832851
0.852101
0.543002
0.600304
0.658772
0.711319
0.756821
0.795429
0.827753
0.85483
0.875217
0.894123
0.659247
0.703016
0.747155
0.787879
0.824025
0.856028
0.883959
0.907597
0.925604
0.943655
0.758997
0.794587
0.829573
0.863509
0.894725
0.922941
0.947873
0.968775
0.984583
1.00207
0.84708
0.879361
0.911577
0.942765
0.971828
0.998235
1.02138
1.04034
1.05427
1.07129
0.934172
0.966839
0.999305
1.03053
1.05932
1.08514
1.10729
1.12483
1.13722
1.15375
1.02865
1.0651
1.09991
1.13239
1.16158
1.18694
1.20807
1.22437
1.23599
1.25213
1.14178
1.18244
1.21947
1.25241
1.2809
1.3049
1.32453
1.33981
1.35171
1.36779
1.28323
1.32429
1.35956
1.38914
1.41434
1.43596
1.45446
1.46995
1.48307
1.49902
1.45478
1.48709
1.514
1.53634
1.55643
1.57516
1.5929
1.60967
1.62459
1.64032
1.64107
1.65833
1.67545
1.69214
1.70824
1.72298
1.73688
1.75137
1.76661
1.7839
1.82447
1.83443
1.84763
1.85861
1.86802
1.87768
1.88829
1.89847
1.90777
1.93343
2.04235
2.03665
2.02371
2.00945
2.00316
2.00887
2.02701
2.05554
2.0893
2.12563
2.34517
2.20922
2.12972
2.0872
2.06987
2.07385
2.10128
2.15915
2.26682
2.44522
0.660256
0.653953
0.646221
0.635104
0.62153
0.608876
0.598472
0.590452
0.584723
0.581379
0.581015
0.583838
0.589064
0.596418
0.605964
0.617792
0.631353
0.644281
0.653271
0.660811
0.569328
0.575248
0.583318
0.589448
0.592513
0.591997
0.588903
0.584899
0.581299
0.579001
0.578856
0.5811
0.584848
0.58929
0.593389
0.595633
0.594559
0.589922
0.582867
0.575033
0.562585
0.564958
0.568223
0.570993
0.573439
0.575623
0.576795
0.576638
0.575689
0.57487
0.575073
0.576479
0.578255
0.579481
0.579403
0.577935
0.575776
0.573414
0.570431
0.567412
0.557806
0.558894
0.560809
0.563144
0.565011
0.566403
0.567613
0.568595
0.569182
0.569547
0.57009
0.570825
0.571287
0.571166
0.570535
0.569611
0.568279
0.566308
0.5642
0.562722
0.552795
0.553429
0.554556
0.55631
0.558148
0.559735
0.560977
0.562028
0.562996
0.563879
0.564654
0.565167
0.565299
0.565089
0.56455
0.563574
0.562145
0.560534
0.559195
0.558393
0.547887
0.548326
0.549113
0.550413
0.551929
0.553484
0.554952
0.556234
0.557372
0.558441
0.559381
0.559975
0.560149
0.55991
0.559242
0.558241
0.557086
0.55594
0.555036
0.554502
0.543072
0.5434
0.544011
0.545076
0.546365
0.547756
0.549222
0.550681
0.552053
0.553335
0.554466
0.555202
0.555422
0.555173
0.554572
0.553786
0.552938
0.552081
0.551419
0.551027
0.538327
0.538581
0.539073
0.53998
0.541145
0.542443
0.543852
0.545361
0.546918
0.548456
0.549833
0.55074
0.551074
0.550969
0.550583
0.550033
0.549397
0.548767
0.548284
0.547984
0.53358
0.533782
0.534191
0.534988
0.536074
0.537325
0.538718
0.54027
0.541965
0.543746
0.545415
0.546582
0.54715
0.547289
0.547142
0.546816
0.546386
0.545947
0.545603
0.545368
0.528747
0.52891
0.529261
0.529984
0.531024
0.532255
0.533677
0.535312
0.537164
0.5392
0.541214
0.54274
0.543634
0.544063
0.54417
0.544075
0.543857
0.543592
0.543363
0.543175
0.52374
0.523873
0.524182
0.524861
0.525884
0.52714
0.528629
0.530391
0.532451
0.534801
0.537236
0.539209
0.540494
0.541261
0.541656
0.541806
0.541799
0.541701
0.54157
0.541418
0.518473
0.51858
0.518862
0.519522
0.520563
0.521887
0.523489
0.525432
0.52777
0.530519
0.533473
0.535982
0.537728
0.538882
0.539603
0.540021
0.540231
0.540303
0.540257
0.540133
0.512848
0.512934
0.5132
0.513866
0.514961
0.516394
0.518162
0.520354
0.523051
0.526303
0.529895
0.533048
0.535338
0.536942
0.538031
0.538762
0.539216
0.539445
0.539475
0.539372
0.506759
0.506825
0.507085
0.507779
0.508965
0.510556
0.512556
0.515078
0.518236
0.522113
0.526484
0.530412
0.533348
0.535479
0.536989
0.538068
0.53879
0.53919
0.539293
0.539207
0.500074
0.500123
0.500385
0.50113
0.502446
0.50425
0.506555
0.509502
0.513239
0.517891
0.523212
0.528071
0.531775
0.534529
0.536535
0.538003
0.539034
0.539619
0.539793
0.53972
0.492641
0.49267
0.492941
0.49376
0.49525
0.497333
0.500032
0.503515
0.507975
0.513577
0.520049
0.526031
0.530651
0.534136
0.536729
0.538667
0.540045
0.540828
0.541073
0.54101
0.484257
0.484275
0.484549
0.485469
0.487188
0.489628
0.492825
0.496983
0.502343
0.509115
0.516984
0.524308
0.530013
0.534364
0.53765
0.540143
0.541917
0.54292
0.543237
0.543181
0.474619
0.474613
0.474941
0.476003
0.478019
0.480915
0.484745
0.489755
0.496238
0.504449
0.514009
0.522932
0.52992
0.535287
0.539385
0.542529
0.544763
0.546004
0.546394
0.546342
0.463436
0.463407
0.463784
0.465038
0.467427
0.470911
0.475553
0.481647
0.489544
0.499538
0.511142
0.521952
0.530431
0.536987
0.542042
0.54593
0.548687
0.550189
0.550649
0.550595
0.450225
0.450175
0.450629
0.452134
0.455008
0.45926
0.464954
0.472436
0.482115
0.494305
0.50837
0.5214
0.531612
0.539538
0.545697
0.55045
0.553791
0.55556
0.556084
0.556024
0.434336
0.434263
0.434841
0.436696
0.440218
0.445489
0.452577
0.461872
0.473821
0.488728
0.505737
0.521349
0.533539
0.543023
0.550435
0.55616
0.56014
0.562177
0.56275
0.562677
0.414824
0.414734
0.415511
0.417874
0.42231
0.429001
0.437989
0.449698
0.464573
0.482836
0.503327
0.521893
0.536299
0.54751
0.55631
0.563115
0.567757
0.570036
0.570634
0.570541
0.390269
0.390177
0.391288
0.39444
0.400249
0.409014
0.420699
0.435704
0.454378
0.476766
0.501301
0.523154
0.539977
0.553069
0.563363
0.571306
0.576591
0.579049
0.579637
0.579516
0.358348
0.358301
0.360016
0.364526
0.372628
0.384619
0.400273
0.41981
0.443349
0.470689
0.499823
0.525258
0.544651
0.559724
0.571583
0.58067
0.586487
0.589018
0.589548
0.589392
0.314913
0.315065
0.318085
0.325412
0.337796
0.35509
0.376626
0.402288
0.431879
0.46497
0.49917
0.528392
0.550424
0.567492
0.580892
0.591039
0.597172
0.599605
0.600025
0.599835
0.252233
0.253545
0.26087
0.274672
0.294888
0.320605
0.350424
0.383854
0.420579
0.460083
0.49965
0.532721
0.557349
0.576333
0.591108
0.602046
0.608193
0.610301
0.61056
0.610355
0.177373
0.179951
0.194174
0.217923
0.248846
0.284564
0.323392
0.365074
0.409414
0.455968
0.501748
0.539575
0.56758
0.589039
0.605525
0.617095
0.623117
0.625018
0.62524
0.625136
0.100732
0.107598
0.128949
0.162668
0.204023
0.249495
0.297319
0.347311
0.39935
0.453057
0.505193
0.547889
0.579329
0.603319
0.621526
0.633645
0.639197
0.64064
0.640791
0.640757
0.038264
0.0469732
0.0729327
0.113716
0.163292
0.217061
0.273022
0.330845
0.390282
0.450862
0.509035
0.556288
0.590896
0.617134
0.63663
0.64904
0.654437
0.655744
0.655928
0.655948
-0.0128901
-0.00346899
0.0260021
0.0720525
0.127826
0.188251
0.251079
0.315788
0.381945
0.448937
0.512857
0.564476
0.602053
0.630388
0.651243
0.664222
0.669552
0.670962
0.671226
0.671284
-0.0557071
-0.0459784
-0.0141054
0.0360627
0.0969155
0.162864
0.231494
0.302205
0.374431
0.447375
0.516704
0.57249
0.612955
0.643328
0.665571
0.679172
0.684852
0.686483
0.686777
0.686855
-0.0926513
-0.0827835
-0.0491063
0.00436077
0.0694627
0.140162
0.213873
0.289914
0.367615
0.44604
0.520458
0.580239
0.623499
0.655874
0.679468
0.693951
0.700115
0.701872
0.70218
0.702256
-0.125393
-0.115468
-0.0803638
-0.024158
0.044563
0.119382
0.197587
0.278425
0.361157
0.444723
0.524008
0.587582
0.633523
0.667814
0.692728
0.708031
0.714674
0.716613
0.716937
0.716996
-0.155179
-0.145209
-0.108941
-0.0503752
0.0214792
0.0999041
0.182117
0.267346
0.354766
0.443197
0.527126
0.594358
0.642838
0.67892
0.705058
0.721121
0.728257
0.730345
0.730672
0.73071
-0.182944
-0.172909
-0.135603
-0.0749421
-0.000319081
0.0812969
0.167107
0.256347
0.348128
0.44118
0.529618
0.600438
0.651356
0.689134
0.716374
0.733065
0.740587
0.742802
0.743123
0.743134
-0.20924
-0.199133
-0.160856
-0.0983072
-0.0212384
0.0632209
0.15227
0.24517
0.341024
0.438505
0.531372
0.605734
0.659059
0.698422
0.726633
0.743795
0.751552
0.753863
0.75418
0.75416
-0.234523
-0.224267
-0.185081
-0.120819
-0.0415702
0.0454329
0.137413
0.233666
0.333325
0.435049
0.532279
0.610224
0.665966
0.706853
0.735905
0.75344
0.761267
0.763574
0.763887
0.76384
-0.259067
-0.248589
-0.208535
-0.142699
-0.0614944
0.0277837
0.122418
0.221744
0.324929
0.43071
0.532274
0.61389
0.672136
0.71455
0.744341
0.762066
0.769866
0.772127
0.772404
0.772336
-0.282974
-0.272246
-0.231356
-0.164079
-0.0811184
0.0102023
0.107222
0.209343
0.315792
0.425424
0.531293
0.61673
0.677633
0.721641
0.752099
0.769876
0.777539
0.779695
0.779924
0.779828
-0.306354
-0.295358
-0.253654
-0.185018
-0.100491
-0.00735121
0.0918057
0.196454
0.305906
0.419169
0.529276
0.61871
0.682529
0.728285
0.759367
0.777031
0.784419
0.786407
0.786566
0.786446
-0.329214
-0.317958
-0.275443
-0.205541
-0.119615
-0.0248647
0.0761982
0.18311
0.295287
0.411926
0.526179
0.619777
0.686859
0.734633
0.766337
0.783701
0.790624
0.792342
0.792402
0.792256
-0.351625
-0.340039
-0.2967
-0.225638
-0.138471
-0.0423048
0.0604405
0.169365
0.283981
0.403714
0.521957
0.619854
0.690593
0.740808
0.773273
0.790119
0.79627
0.797556
0.797498
0.797341
-0.373369
-0.361557
-0.317404
-0.245292
-0.157019
-0.0596025
0.0445977
0.155287
0.272061
0.394583
0.516576
0.61885
0.693646
0.746862
0.780478
0.796706
0.801669
0.802194
0.801931
0.801781
-0.394599
-0.382458
-0.337528
-0.264476
-0.175229
-0.0767186
0.0287611
0.140957
0.259609
0.384608
0.51003
0.616666
0.695868
0.752711
0.788195
0.804111
0.8075
0.806599
0.805797
0.805688
-0.415132
-0.402704
-0.357055
-0.283142
-0.193018
-0.093567
0.0130143
0.126495
0.24673
0.373855
0.502343
0.613199
0.697068
0.7581
0.796385
0.813016
0.81514
0.81203
0.809627
0.809181
-0.435069
-0.422318
-0.375924
-0.301231
-0.210349
-0.110079
-0.00255488
0.111982
0.233531
0.362455
0.493574
0.608334
0.69704
0.762632
0.804499
0.823475
0.826139
0.82145
0.815365
0.806482
-0.454293
-0.441291
-0.394226
-0.318906
-0.227443
-0.126536
-0.0182823
0.0970154
0.219566
0.349909
0.483211
0.601497
0.695378
0.766028
0.811858
0.834752
0.840639
0.835764
0.824985
0.823521
-0.472761
-0.4597
-0.411954
-0.336111
-0.244284
-0.142903
-0.0341368
0.0815765
0.204802
0.336093
0.471076
0.592198