/*--------------------------------*- C++ -*----------------------------------*\
  =========                 |
  \\      /  F ield         | OpenFOAM: The Open Source CFD Toolbox
   \\    /   O peration     | Website:  https://openfoam.org
    \\  /    A nd           | Version:  6
     \\/     M anipulation  |
\*---------------------------------------------------------------------------*/
FoamFile
{
    version     2.0;
    format      ascii;
    class       surfaceScalarField;
    location    "40";
    object      phi;
}
// * * * * * * * * * * * * * * * * * * * * * * * * * * * * * * * * * * * * * //

dimensions      [0 3 -1 0 0 0 0];

internalField   nonuniform List<scalar> 
17370
(
-0.0900015
0.0898504
0.289162
-0.071464
0.0537539
0.364486
-0.0381206
0.0276915
0.426597
-0.0196388
0.0146042
0.504286
-0.0107598
0.00826734
0.601895
-0.00626718
0.0048938
0.720431
-0.0037377
0.002906
0.863738
-0.00217298
0.00161847
1.036
-0.00110394
0.000693086
1.24291
-0.00028785
-9.88548e-05
1.49158
0.000472358
-0.00087535
1.49159
0.00126999
-0.00176169
1.24318
0.00229713
-0.00301472
1.03636
0.00383838
-0.00499005
0.864058
0.00635971
-0.00835384
0.721052
0.0108389
-0.0146747
0.60305
0.0197021
-0.0277478
0.507485
0.0381712
-0.0537966
0.431794
0.0714985
-0.0898731
0.36515
0.0900143
0.198997
-0.12813
0.0882159
0.0399138
-0.364592
0.353365
-0.0746844
0.0859108
-0.446472
0.454311
-0.0844116
0.0765726
-0.521185
0.529894
-0.0684773
0.0597678
-0.612781
0.621562
-0.0515793
0.0427985
-0.726887
0.734154
-0.0353369
0.0280701
-0.867471
0.872567
-0.0224787
0.0173827
-1.03847
1.0419
-0.0135939
0.0101655
-1.2446
1.24702
-0.00756928
0.00514818
-1.49263
1.4946
-0.00320798
0.00123648
-1.4925
1.49422
0.000447215
-0.00217092
-1.24398
1.24586
0.00407438
-0.00595505
-1.03751
1.04005
0.00831076
-0.0108463
-0.866102
0.869843
0.0142126
-0.0179539
-0.724395
0.729949
0.0230067
-0.0285609
-0.608704
0.616124
0.0357857
-0.0432064
-0.514903
0.523052
0.0519416
-0.0600908
-0.43986
0.447924
0.0687598
-0.0768236
-0.3753
0.376751
0.0846297
-0.0860806
-0.257338
0.222498
0.0748003
-0.0399595
-0.0685
0.0586688
0.00983125
-0.0518456
0.0584412
-0.374108
0.367512
-0.0575342
0.0537889
-0.453582
0.457327
-0.0487031
0.0447548
-0.52793
0.531878
-0.0409194
0.0372867
-0.621544
0.625177
-0.0331961
0.0291374
-0.735329
0.739388
-0.0245907
0.0204512
-0.874316
0.878455
-0.0161235
0.0124417
-1.04346
1.04714
-0.00872042
0.00556243
-1.24854
1.2517
-0.00225024
-0.000817018
-1.49665
1.49972
0.00386102
-0.00711723
-1.49721
1.50047
0.0101964
-0.0138102
-1.25009
1.2537
0.0173859
-0.021601
-1.04594
1.05016
0.025649
-0.0301097
-0.877782
0.882243
0.0340973
-0.0381104
-0.739923
0.743936
0.0416702
-0.0454259
-0.6268
0.630555
0.0493065
-0.054328
-0.534832
0.539853
0.058008
-0.0588327
-0.457495
0.45832
0.0521447
-0.031965
-0.335785
0.315606
0.00988066
-0.0683701
0.0584895
-0.0529115
0.0489098
0.00400167
-0.0332057
0.0437695
-0.358062
0.347498
-0.0474814
0.0468625
-0.459251
0.45987
-0.0438123
0.0404627
-0.535763
0.539113
-0.0366929
0.033393
-0.628483
0.631783
-0.0299651
0.0269506
-0.742603
0.745617
-0.0237205
0.0206442
-0.88197
0.885047
-0.0171489
0.0138001
-1.05072
1.05407
-0.0100378
0.0065219
-1.25512
1.25864
-0.00257407
-0.00120986
-1.50322
1.50701
0.00496682
-0.00883381
-1.50414
1.50801
0.0122399
-0.015853
-1.25745
1.26107
0.0190539
-0.0223867
-1.05397
1.0573
0.0253263
-0.0284231
-0.885743
0.88884
0.0313269
-0.03464
-0.747208
0.750521
0.0378361
-0.0414946
-0.634355
0.638014
0.0447486
-0.0476924
-0.544177
0.54712
0.0482033
-0.0443408
-0.456626
0.452764
0.0336001
-0.0161864
-0.296273
0.278859
0.00406123
-0.0526798
0.0486186
-0.0458242
0.0433211
0.00250314
-0.0228605
0.0332673
-0.336782
0.326375
-0.0391145
0.0401492
-0.459537
0.458503
-0.0389746
0.0366986
-0.541817
0.544093
-0.0340435
0.0314631
-0.634814
0.637395
-0.0284244
0.0255546
-0.748647
0.751517
-0.0223261
0.0193613
-0.887985
0.89095
-0.0160814
0.0130016
-1.05718
1.06026
-0.00950069
0.00611931
-1.26208
1.26546
-0.00219172
-0.00165807
-1.51087
1.51472
0.00547169
-0.00929342
-1.5119
1.51573
0.0125306
-0.0158386
-1.26452
1.26783
0.0187218
-0.0217813
-1.06041
1.06347
0.0245572
-0.0275997
-0.891906
0.894948
0.0303169
-0.0331995
-0.753744
0.756627
0.0356407
-0.0381483
-0.641106
0.643614
0.0402976
-0.04131
-0.54895
0.549963
0.0401106
-0.0340259
-0.447517
0.441432
0.0233628
-0.0101928
-0.263683
0.250513
0.00257611
-0.0454683
0.0428922
-0.0412378
0.039462
0.00177575
-0.0168092
0.0260953
-0.31649
0.307204
-0.032735
0.0348987
-0.456875
0.454711
-0.0344981
0.032845
-0.546041
0.547694
-0.0306831
0.0286088
-0.639666
0.64174
-0.0262071
0.0238449
-0.754139
0.756501
-0.0210334
0.0182882
-0.893827
0.896572
-0.0151017
0.0120775
-1.06328
1.0663
-0.00863227
0.00534057
-1.26875
1.27204
-0.0015304
-0.00218981
-1.51849
1.52221
0.0058647
-0.00953518
-1.51947
1.52314
0.0126376
-0.0158276
-1.2711
1.27429
0.0185954
-0.021496
-1.06652
1.06942
0.0239933
-0.0265611
-0.897785
0.900353
0.028725
-0.0309261
-0.759091
0.761292
0.0328244
-0.0347998
-0.645788
0.647763
0.0362745
-0.036459
-0.550507
0.550691
0.034045
-0.0270615
-0.434819
0.427836
0.017433
-0.00735192
-0.23904
0.228959
0.00186469
-0.0407298
0.0388651
-0.0379305
0.0365918
0.00133873
-0.0128538
0.0208393
-0.298572
0.290586
-0.027634
0.0305904
-0.452119
0.449163
-0.0308215
0.0297226
-0.549102
0.550201
-0.0277453
0.0258514
-0.643752
0.645646
-0.0236894
0.0215985
-0.758712
0.760803
-0.0191413
0.0167099
-0.899098
0.901529
-0.0138207
0.0109878
-1.06918
1.07202
-0.00767459
0.0044805
-1.27526
1.27845
-0.000780987
-0.00280856
-1.52585
1.52944
0.00633932
-0.00986284
-1.52675
1.53027
0.0128231
-0.015824
-1.27743
1.28043
0.0183448
-0.020881
-1.07215
1.07468
0.023
-0.0251405
-0.902655
0.904796
0.0269707
-0.0288746
-0.763308
0.765212
0.0305512
-0.032311
-0.649624
0.651383
0.0331542
-0.0326189
-0.550533
0.549998
0.0293056
-0.0220422
-0.420661
0.413397
0.0136188
-0.00567194
-0.220049
0.212102
0.00144663
-0.0372376
0.035791
-0.0354208
0.0343862
0.00103463
-0.0100607
0.0168171
-0.28324
0.276483
-0.0233498
0.0267673
-0.44595
0.442532
-0.0275944
0.0269361
-0.551061
0.551719
-0.0252246
0.0234867
-0.647496
0.649234
-0.0214728
0.0195086
-0.762838
0.764803
-0.0171918
0.0149109
-0.903831
0.906112
-0.0122239
0.00959229
-1.07469
1.07732
-0.00649932
0.003473
-1.28153
1.28455
8.23326e-05
-0.00355908
-1.53294
1.53642
0.00696301
-0.0103027
-1.53372
1.53706
0.0130404
-0.0157493
-1.28332
1.28603
0.0179949
-0.0202427
-1.07709
1.07934
0.0221307
-0.024043
-0.906821
0.908733
0.0256728
-0.0273608
-0.766987
0.768675
0.0288272
-0.0302388
-0.652982
0.654393
0.0305807
-0.0293395
-0.549122
0.547881
0.025438
-0.0182949
-0.406174
0.39903
0.0109923
-0.00454756
-0.204979
0.198535
0.00116489
-0.0345032
0.0333383
-0.0334772
0.0326686
0.000808594
-0.00798848
0.0136739
-0.270293
0.264607
-0.0197257
0.0233428
-0.439007
0.43539
-0.0246426
0.0242201
-0.55229
0.552713
-0.0227561
0.0211136
-0.650969
0.652612
-0.0191917
0.0173291
-0.766721
0.768583
-0.0151407
0.01299
-0.908259
0.91041
-0.0104521
0.0079604
-1.07979
1.08228
-0.00502971
0.00216151
-1.28745
1.29032
0.00119832
-0.00447011
-1.53979
1.54306
0.00765474
-0.0107496
-1.54029
1.54338
0.01326
-0.0157147
-1.28863
1.29108
0.017726
-0.0197171
-1.08146
1.08346
0.0213801
-0.0230706
-0.910531
0.912222
0.0245247
-0.026046
-0.770262
0.771783
0.0273543
-0.0284342
-0.655628
0.656708
0.0284324
-0.0265627
-0.546333
0.544463
0.0223076
-0.0154819
-0.392044
0.385218
0.00912329
-0.00375866
-0.192682
0.187317
0.000966769
-0.0322863
0.0313196
-0.0319583
0.0313249
0.000633415
-0.00638457
0.0111513
-0.25941
0.254644
-0.016616
0.0202486
-0.431767
0.428134
-0.0219044
0.021746
-0.553047
0.553205
-0.0205601
0.0190085
-0.654261
0.655812
-0.0171651
0.0153524
-0.770417
0.77223
-0.0132044
0.0110878
-0.91246
0.914577
-0.00860127
0.00618294
-1.08466
1.08707
-0.00336826
0.000642508
-1.29306
1.29578
0.00251839
-0.00556924
-1.54618
1.54923
0.00851208
-0.0113515
-1.54635
1.54919
0.0136474
-0.0158922
-1.29347
1.29571
0.0177366
-0.0195638
-1.08539
1.08722
0.0210786
-0.0225987
-0.913829
0.915349
0.0238881
-0.0252198
-0.773197
0.774529
0.0263654
-0.0270331
-0.657565
0.658232
0.02667
-0.0242642
-0.54235
0.539944
0.0198042
-0.0133662
-0.378597
0.372159
0.00777063
-0.00319602
-0.182388
0.177814
0.000826768
-0.0304365
0.0296097
-0.0307734
0.0302831
0.000490306
-0.0050866
0.00905689
-0.250307
0.246336
-0.0138801
0.0173582
-0.424595
0.421117
-0.0191937
0.019228
-0.55331
0.553276
-0.0182422
0.0167387
-0.657394
0.658897
-0.0149361
0.0131651
-0.77401
0.775781
-0.0110781
0.00903474
-0.91657
0.918613
-0.00664194
0.004318
-1.08936
1.09168
-0.00161114
-0.00100817
-1.29839
1.30101
0.00403829
-0.00693948
-1.55217
1.55507
0.0097095
-0.0123456
-1.55193
1.55456
0.0144348
-0.016432
-1.29787
1.29987
0.0180411
-0.019612
-1.08896
1.09053
0.0209076
-0.0222144
-0.916792
0.918098
0.0233445
-0.0245335
-0.775767
0.776956
0.0255154
-0.0258489
-0.658694
0.659027
0.0251215
-0.0223141
-0.537357
0.53455
0.0177871
-0.0117578
-0.36595
0.35992
0.00677307
-0.00278571
-0.17357
0.169583
0.000724723
-0.0288478
0.0281231
-0.0298622
0.0294927
0.000369484
-0.00399367
0.00726001
-0.242747
0.23948
-0.0114321
0.0146585
-0.417795
0.414569
-0.016567
0.0167686
-0.553234
0.553032
-0.0158682
0.0144401
-0.660444
0.661872
-0.0126422
0.0108756
-0.777517
0.779284
-0.00880557
0.00679066
-0.920513
0.922528
-0.00443994
0.00216491
-1.09387
1.09615
0.000468971
-0.00299005
-1.30351
1.30603
0.00586782
-0.00858359
-1.55784
1.56056
0.011143
-0.0135492
-1.55709
1.5595
0.0154371
-0.0172288
-1.3018
1.3036
0.0186533
-0.0200224
-1.09203
1.0934
0.0211391
-0.022264
-0.919324
0.920449
0.0232333
-0.0242425
-0.778048
0.779057
0.0249795
-0.0250388
-0.659232
0.659291
0.0239425
-0.0207829
-0.531592
0.528432
0.0162339
-0.010569
-0.354102
0.348437
0.00605816
-0.00250057
-0.165844
0.162286
0.000657177
-0.0274459
0.0267888
-0.029185
0.0289247
0.000260304
-0.00302493
0.00564808
-0.236562
0.233939
-0.00915611
0.0120341
-0.411548
0.40867
-0.0139023
0.0142265
-0.552839
0.552515
-0.0134327
0.0121071
-0.663326
0.664652
-0.0103293
0.0085384
-0.781029
0.78282
-0.0064207
0.00436501
-0.924445
0.9265
-0.00199278
-0.00027064
-1.09831
1.10057
0.00285449
-0.00529729
-1.30844
1.31088
0.00805461
-0.0106258
-1.56314
1.56571
0.0130036
-0.0151786
-1.56177
1.56394
0.016838
-0.0183745
-1.30531
1.30684
0.0195918
-0.0207702
-1.09471
1.09589
0.0217315
-0.0226936
-0.921527
0.922489
0.0235065
-0.0243063
-0.77998
0.78078
0.0247597
-0.0245437
-0.659181
0.658965
0.0230628
-0.0195914
-0.525148
0.521677
0.0150526
-0.00970039
-0.342968
0.337616
0.00555175
-0.00230516
-0.15892
0.155674
0.000613084
-0.0261701
0.0255571
-0.0287222
0.0285664
0.000155788
-0.00211602
0.00412736
-0.231648
0.229636
-0.00695926
0.00940815
-0.406048
0.403599
-0.0110999
0.0114218
-0.552285
0.551963
-0.0106398
0.00932913
-0.666054
0.667365
-0.00752593
0.00570626
-0.784567
0.786387
-0.00357035
0.00151128
-0.928418
0.930477
0.000852403
-0.00309673
-1.10271
1.10495
0.00564347
-0.00803602
-1.31321
1.3156
0.0107006
-0.0131312
-1.56817
1.5706
0.0153263
-0.0172842
-1.56601
1.56796
0.0187319
-0.0200246
-1.30831
1.3096
0.0210017
-0.0219022
-1.09698
1.09788
0.0226139
-0.0233196
-0.923356
0.924062
0.0239329
-0.0245631
-0.781488
0.782118
0.0247379
-0.0242285
-0.658527
0.658018
0.0223953
-0.0186788
-0.518131
0.514414
0.0141707
-0.00907634
-0.332447
0.327352
0.00520079
-0.00217598
-0.152577
0.149553
0.000585956
-0.0249753
0.0243893
-0.0284677
0.0284181
4.95607e-05
-0.00121358
0.00261814
-0.227948
0.226544
-0.00475486
0.00671878
-0.401441
0.399477
-0.00815751
0.008425
-0.551797
0.55153
-0.00763388
0.00631129
-0.668796
0.670118
-0.00444234
0.00255596
-0.788167
0.790053
-0.000353344
-0.00175663
-0.932392
0.934502
0.00417029
-0.00645037
-1.10707
1.10935
0.00901102
-0.0113705
-1.31789
1.32025
0.0139284
-0.0161887
-1.57288
1.57514
0.018162
-0.0198585
-1.56978
1.57147
0.0210605
-0.022086
-1.3108
1.31183
0.0228251
-0.0234647
-1.09869
1.09933
0.0239411
-0.0244061
-0.924707
0.925172
0.0248316
-0.0252715
-0.78266
0.7831
0.0251519
-0.0243108
-0.657228
0.656387
0.0221171
-0.0181306
-0.510643
0.506656
0.0136121
-0.0086937
-0.322414
0.317495
0.00500251
-0.00211605
-0.146642
0.143755
0.00057938
-0.0238277
0.0232483
-0.0284242
0.0284834
-5.917e-05
-0.000278236
0.00105976
-0.225461
0.224679
-0.0024585
0.00385739
-0.397847
0.396448
-0.00493701
0.0050895
-0.551473
0.551321
-0.00429083
0.00296997
-0.671568
0.672889
-0.00106784
-0.000900047
-0.791889
0.793857
0.00323148
-0.00547087
-0.936492
0.938731
0.00801355
-0.0103771
-1.11153
1.11389
0.0129793
-0.0153259
-1.32249
1.32484
0.0178222
-0.0199665
-1.57727
1.57941
0.0217649
-0.0232119
-1.57302
1.57447
0.0241568
-0.0248897
-1.31276
1.3135
0.0253577
-0.025715
-1.09991
1.10026
0.0259335
-0.0261254
-0.92557
0.925762
0.0263115
-0.0264195
-0.783253
0.783361
0.0260145
-0.0247021
-0.655207
0.653895
0.0220925
-0.0178341
-0.502644
0.498386
0.0132945
-0.0084962
-0.312725
0.307927
0.0049198
-0.00210537
-0.140959
0.138144
0.000585412
-0.0226893
0.0221039
-0.0286087
0.0288005
-0.000191875
0.000693688
-0.000592496
-0.224217
0.224116
-8.094e-06
0.000755309
-0.395422
0.394674
-0.00133937
0.00123925
-0.551482
0.551582
-0.000308905
-0.00111559
-0.674406
0.67583
0.00313107
-0.00522553
-0.795783
0.797877
0.00769254
-0.0100364
-0.940827
0.943171
0.0126673
-0.0150941
-1.11612
1.11854
0.0177468
-0.0201101
-1.32707
1.32944
0.0225618
-0.0245924
-1.58143
1.58346
0.02618
-0.027349
-1.57575
1.57692
0.0279997
-0.0283609
-1.3141
1.31446
0.0284907
-0.0284861
-1.10051
1.10051
0.0283968
-0.0282769
-0.925869
0.925749
0.0281971
-0.027972
-0.783112
0.782887
0.0272539
-0.0254166
-0.652297
0.65046
0.0224233
-0.0178994
-0.494153
0.489629
0.013288
-0.00851782
-0.303249
0.298479
0.00497134
-0.00215405
-0.13539
0.132573
0.000608144
-0.0215344
0.0209262
-0.02906
0.029391
-0.000331001
0.00179612
-0.00235114
-0.224322
0.224877
0.00263044
-0.00262598
-0.394336
0.394331
0.00265545
-0.00312077
-0.552127
0.552593
0.00427029
-0.00588301
-0.677535
0.679148
0.00809642
-0.0103595
-0.799922
0.802185
0.0129969
-0.0154913
-0.945344
0.947838
0.018291
-0.02086
-1.12084
1.12341
0.0236274
-0.0260306
-1.33168
1.33409
0.0284177
-0.0302636
-1.58532
1.58716
0.0315926
-0.0324149
-1.57788
1.5787
0.0327397
-0.0327217
-1.31468
1.31466
0.0324886
-0.0320903
-1.10035
1.09995
0.0316457
-0.0311589
-0.925481
0.924994
0.030774
-0.0301362
-0.782244
0.781606
0.0290257
-0.0266575
-0.648448
0.64608
0.0232132
-0.0183392
-0.485137
0.480263
0.0135784
-0.00874566
-0.293807
0.288974
0.00514893
-0.00225822
-0.129793
0.126902
0.000646533
-0.0203305
0.0196839
-0.0297996
0.0303031
-0.000503447
0.00304174
-0.00438437
-0.225838
0.227181
0.00559068
-0.00642699
-0.394743
0.395579
0.00718297
-0.00805169
-0.553579
0.554447
0.00942546
-0.011208
-0.681059
0.682841
0.0136396
-0.0161457
-0.804402
0.806908
0.0190869
-0.0218593
-0.950208
0.95298
0.0249345
-0.0277103
-1.12587
1.12864
0.0306433
-0.0331271
-1.33637
1.33885
0.0355152
-0.0372447
-1.58883
1.59056
0.0383319
-0.0387858
-1.57929
1.57975
0.0387295
-0.0382876
-1.31446
1.31401
0.0376591
-0.0368364
-1.09933
1.09851
0.0360161
-0.0351081
-0.924278
0.92337
0.0343263
-0.0331373
-0.780466
0.779277
0.0314959
-0.028476
-0.643575
0.640555
0.0245018
-0.019211
-0.475437
0.470146
0.0142169
-0.00920677
-0.284214
0.279203
0.00546225
-0.00241808
-0.124023
0.120979
0.000699133
-0.019047
0.0183479
-0.0308985
0.0316305
-0.000731976
0.00458335
-0.00682249
-0.228975
0.231214
0.00908886
-0.0108379
-0.396838
0.398587
0.0124591
-0.0139004
-0.556003
0.557445
0.015682
-0.017763
-0.684993
0.687074
0.0205295
-0.0233642
-0.80937
0.812205
0.0266758
-0.0297723
-0.955626
0.958723
0.0331679
-0.0361848
-1.13131
1.13432
0.0393071
-0.0418766
-1.3412
1.34377
0.0442336
-0.0457951
-1.59211
1.59367
0.0465686
-0.0465902
-1.57993
1.57995
0.0460755
-0.0451349
-1.3133
1.31236
0.0440338
-0.0427071
-1.09739
1.09606
0.0414483
-0.0400735
-0.922142
0.920768
0.0388187
-0.0370362
-0.777559
0.775776
0.0347565
-0.031026
-0.637435
0.633704
0.0264648
-0.02065
-0.464925
0.459111
0.0152887
-0.00994749
-0.274227
0.268886
0.00593289
-0.00263805
-0.117916
0.114621
0.000764731
-0.0176575
0.0168928
-0.0324506
0.0334737
-0.00102315
0.00646765
-0.00976651
-0.233926
0.237225
0.0132654
-0.0160612
-0.400921
0.403716
0.0186524
-0.0207992
-0.559764
0.561911
0.0231775
-0.0257336
-0.689655
0.692211
0.0290084
-0.0322821
-0.815004
0.818278
0.0360473
-0.0395282
-0.961682
0.965163
0.0433073
-0.046621
-1.13723
1.14054
0.0499761
-0.0526336
-1.34619
1.34884
0.054909
-0.0562091
-1.59496
1.59626
0.0565716
-0.05607
-1.57963
1.57913
0.055038
-0.0534932
-1.31106
1.30951
0.051862
-0.0499601
-1.09435
1.09245
0.0481929
-0.0462846
-0.918978
0.91707
0.0445194
-0.0421226
-0.773465
0.771068
0.0391607
-0.034629
-0.629909
0.625378
0.0293485
-0.0228331
-0.453356
0.44684
0.0169268
-0.0110538
-0.263525
0.257652
0.00660661
-0.00293349
-0.111265
0.107592
0.000845818
-0.0161348
0.015289
-0.0345726
0.0359832
-0.00141058
0.00886486
-0.01344
-0.240974
0.245549
0.018355
-0.0223159
-0.407261
0.411222
0.025973
-0.0289297
-0.565177
0.568134
0.0320517
-0.0352354
-0.69538
0.698564
0.039193
-0.0430614
-0.821522
0.82539
0.0474416
-0.0514419
-0.968529
0.972529
0.0557238
-0.0594066
-1.14375
1.14743
0.0630312
-0.0657806
-1.35133
1.35408
0.0679498
-0.0689365
-1.59725
1.59824
0.0688258
-0.0677013
-1.57822
1.5771
0.0660489
-0.0638064
-1.3075
1.30526
0.0615443
-0.0589917
-1.09004
1.08749
0.056673
-0.0542025
-0.914658
0.912188
0.0518293
-0.0487671
-0.768151
0.765089
0.0450247
-0.0395344
-0.620782
0.615292
0.0333753
-0.0259522
-0.440377
0.432954
0.0192688
-0.0125976
-0.251687
0.245016
0.00751605
-0.00331674
-0.103805
0.099606
0.000946379
-0.0144467
0.0135003
-0.0374414
0.0394051
-0.00196362
0.0121296
-0.0183114
-0.250519
0.2567
0.0249011
-0.0302069
-0.41625
0.421556
0.0351045
-0.0390422
-0.572527
0.576465
0.0430875
-0.0470852
-0.702472
0.706469
0.0519412
-0.0565799
-0.829236
0.833874
0.061742
-0.0663738
-0.97645
0.981082
0.0712284
-0.0752844
-1.151
1.15505
0.079128
-0.081878
-1.3566
1.35935
0.0838177
-0.0843534
-1.59884
1.59937
0.0836053
-0.0816831
-1.57547
1.57355
0.0792806
-0.076239
-1.30248
1.29944
0.073304
-0.070061
-1.0843
1.08105
0.0671347
-0.0640167
-0.90906
0.905942
0.0609606
-0.0571198
-0.761465
0.757624
0.0524594
-0.0458566
-0.609754
0.603151
0.0386386
-0.0300401
-0.425575
0.416977
0.0222891
-0.0145248
-0.238181
0.230416
0.00861442
-0.00376374
-0.0952554
0.0904047
0.00105927
-0.0125572
0.011498
-0.0413618
0.0441819
-0.0028201
0.0168898
-0.0251788
-0.263227
0.271516
0.0338145
-0.0407423
-0.428505
0.435433
0.0471561
-0.0523538
-0.582267
0.587465
0.0576791
-0.0628294
-0.711326
0.716477
0.0688174
-0.0743696
-0.838472
0.844024
0.080389
-0.0856432
-0.985625
0.990879
0.0909753
-0.0952625
-1.15891
1.1632
0.0991081
-0.101621
-1.36174
1.36425
0.103023
-0.102821
-1.59938
1.59918
0.101169
-0.0982249
-1.57101
1.56807
0.0949115
-0.0909121
-1.29577
1.29177
0.087153
-0.0831037
-1.07705
1.073
0.0795554
-0.075817
-0.901958
0.89822
0.0720863
-0.0673174
-0.753073
0.748304
0.0616404
-0.053726
-0.596496
0.588582
0.045169
-0.035018
-0.408385
0.398234
0.025858
-0.0167102
-0.222449
0.213302
0.0098116
-0.00423141
-0.0853983
0.0798182
0.00117227
-0.0104479
0.00927565
-0.0468824
0.0511578
-0.00427541
0.0243645
-0.0355539
-0.28019
0.291379
0.0468696
-0.0559844
-0.445073
0.454188
0.0642883
-0.0710246
-0.595064
0.6018
0.0780193
-0.0846539
-0.722524
0.729159
0.0919279
-0.0983817
-0.849504
0.855958
0.105112
-0.110761
-0.995936
1.00159
0.116245
-0.120405
-1.1671
1.17126
0.123811
-0.125656
-1.36617
1.36801
0.126028
-0.124625
-1.59819
1.59679
0.121682
-0.1174
-1.56437
1.56008
0.112947
-0.10782
-1.28709
1.28196
0.103158
-0.0982568
-1.06811
1.06321
0.0940652
-0.0896564
-0.893319
0.888911
0.0852636
-0.0794745
-0.742663
0.736874
0.0725691
-0.062997
-0.58049
0.570918
0.0527156
-0.0406008
-0.38804
0.375925
0.0297121
-0.0189491
-0.204008
0.193245
0.0109658
-0.00464812
-0.074146
0.0678283
0.00126129
-0.00813021
0.00686892
-0.0550692
0.06238
-0.00731085
0.0376521
-0.053204
-0.303537
0.319089
0.0683295
-0.0803345
-0.467475
0.47948
0.0906098
-0.0988079
-0.611464
0.619662
0.107463
-0.115444
-0.736409
0.74439
0.123688
-0.130571
-0.862107
0.86899
0.137408
-0.142862
-1.00677
1.01222
0.147858
-0.151306
-1.17473
1.17818
0.153692
-0.154357
-1.36896
1.36963
0.153241
-0.15028
-1.59435
1.59139
0.145771
-0.139926
-1.55487
1.54902
0.134164
-0.127739
-1.27605
1.26963
0.122008
-0.116088
-1.05738
1.05146
0.111075
-0.105801
-0.88306
0.877786
0.100595
-0.0934586
-0.729942
0.722805
0.0849036
-0.0731706
-0.560839
0.549106
0.060762
-0.0463651
-0.363693
0.349296
0.0335567
-0.0210806
-0.182549
0.170073
0.0119836
-0.00496606
-0.0616101
0.0545926
0.00130187
-0.00566377
0.00436189
-0.0692263
0.0732425
-0.00401619
0.028429
-0.0419528
-0.337232
0.350756
0.0554471
-0.0663611
-0.496899
0.507813
0.0761657
-0.0853997
-0.63121
0.640444
0.095885
-0.105326
-0.751806
0.761247
0.115744
-0.124908
-0.874922
0.884085
0.134528
-0.142927
-1.01674
1.02514
0.151499
-0.158588
-1.18053
1.18762
0.165246
-0.170038
-1.3691
1.37389
0.173456
-0.174453
-1.58718
1.58818
0.172924
-0.169348
-1.54205
1.53847
0.16473
-0.158717
-1.26229
1.25628
0.152931
-0.146001
-1.04448
1.03755
0.139863
-0.132956
-0.870774
0.863868
0.125899
-0.11595
-0.713885
0.703935
0.103577
-0.0872126
-0.536549
0.520185
0.0704759
-0.0515134
-0.334569
0.315606
0.0356039
-0.0211548
-0.157991
0.143542
0.0113159
-0.00436255
-0.0481887
0.0412353
0.00100323
-0.00315133
0.00214809
-0.0805577
0.0785051
0.00205261
0.00700463
-0.015563
-0.36703
0.375588
0.025715
-0.033579
-0.523264
0.531128
0.0414445
-0.0492066
-0.652196
0.659958
0.0587048
-0.0674872
-0.770233
0.779015
0.0768138
-0.0852617
-0.892687
0.901134
0.0941482
-0.101603
-1.03327
1.04073
0.109413
-0.115509
-1.19453
1.20062
0.12117
-0.124899
-1.37835
1.38208
0.126875
-0.126503
-1.58823
1.58786
0.123548
-0.118463
-1.53391
1.52882
0.112293
-0.104676
-1.24952
1.24191
0.09742
-0.0892266
-1.02957
1.02137
0.0816417
-0.0732901
-0.853817
0.845465
0.0656889
-0.0571045
-0.689977
0.681393
0.0476884
-0.0362643
-0.501754
0.49033
0.0257703
-0.0160093
-0.296255
0.286494
0.00937888
-0.00461086
-0.129644
0.124876
0.00193786
-0.00049814
-0.0346125
0.0331728
-9.82736e-06
-0.00086846
0.000878287
-0.0817508
0.0788718
0.00287895
-0.0016318
-0.00314376
-0.387083
0.391858
0.00975422
-0.0155852
-0.542768
0.548599
0.021566
-0.0282369
-0.66997
0.676641
0.0364657
-0.0440699
-0.786853
0.794458
0.0523748
-0.0597809
-0.908837
0.916243
0.0673732
-0.0741292
-1.04805
1.05481
0.0810016
-0.0864446
-1.20631
1.21176
0.0910163
-0.093729
-1.38511
1.38782
0.0948673
-0.0935302
-1.5866
1.58526
0.0896569
-0.0837141
-1.52282
1.51688
0.0769418
-0.0689705
-1.23382
1.22585
0.0611572
-0.0528303
-1.01249
1.00416
0.0452831
-0.037038
-0.83611
0.827865
0.0296505
-0.0215721
-0.668734
0.660655
0.0138077
-0.00560498
-0.476758
0.468556
0.000127533
0.00303561
-0.275687
0.272524
-0.00398788
0.00361824
-0.118972
0.119341
-0.00265105
0.00139425
-0.0311334
0.0323902
-0.000504783
-0.000389066
0.000893849
-0.0804764
0.0777136
0.00276287
-0.00516877
0.00283677
-0.400309
0.402641
0.00139162
-0.00583517
-0.557492
0.561936
0.0110281
-0.0166921
-0.684607
0.690271
0.0238067
-0.030411
-0.801464
0.808068
0.0376116
-0.0440713
-0.923175
0.929635
0.0510782
-0.0569004
-1.06117
1.06699
0.0629907
-0.0673673
-1.21681
1.22119
0.0712993
-0.0735353
-1.3903
1.39253
0.0741445
-0.072396
-1.58354
1.58179
0.0687991
-0.0634383
-1.51058
1.50522
0.0573297
-0.0497806
-1.21792
1.21037
0.0425763
-0.0345519
-0.995483
0.987459
0.0266586
-0.0178613
-0.818235
0.809438
0.00942194
-0.00104786
-0.648539
0.640165
-0.00549689
0.010599
-0.458405
0.453303
-0.0125089
0.0118946
-0.266626
0.267241
-0.0101489
0.00735838
-0.118474
0.121264
-0.00485175
0.00231694
-0.0328606
0.0353954
-0.000740012
-0.00087484
0.00161485
-0.079004
0.0765984
0.00240563
-0.00623293
0.00539589
-0.40921
0.410047
-0.00219517
-0.00119914
-0.569445
0.57284
0.0054965
-0.0107296
-0.697061
0.702294
0.016819
-0.0227425
-0.814043
0.819966
0.0291168
-0.0348509
-0.93572
0.941455
0.0409753
-0.0462435
-1.07271
1.07798
0.0514883
-0.055591
-1.22545
1.22955
0.0590643
-0.061066
-1.39448
1.39648
0.0616782
-0.0602607
-1.58012
1.57871
0.0572923
-0.0525999
-1.49964
1.49495
0.0473111
-0.0406826
-1.20315
1.19652
0.0339498
-0.025865
-0.978969
0.970884
0.017811
-0.00852145
-0.799147
0.789857
0.000103778
0.0079776
-0.628895
0.620814
-0.0134569
0.0167253
-0.445484
0.442215
-0.0172116
0.0150921
-0.264164
0.266284
-0.0121847
0.00867993
-0.122536
0.126041
-0.00558505
0.00259806
-0.037115
0.040102
-0.000807038
-0.00197461
0.00278164
-0.0776942
0.0756546
0.00203963
-0.00610623
0.00572179
-0.415372
0.415756
-0.0037967
0.000949184
-0.578854
0.581702
0.00332768
-0.00792026
-0.707844
0.712437
0.0132888
-0.0185511
-0.825173
0.830436
0.024332
-0.0295445
-0.946894
0.952106
0.0352244
-0.0399149
-1.08299
1.08768
0.0447202
-0.0485249
-1.23341
1.23721
0.0517725
-0.0537322
-1.39834
1.4003
0.0544885
-0.0537882
-1.57745
1.57675
0.0512711
-0.0472639
-1.49012
1.48611
0.0423904
-0.0360981
-1.18984
1.18354
0.0297873
-0.0217182
-0.962473
0.954404
0.0137995
-0.00502835
-0.77981
0.771039
-0.00267226
0.00969126
-0.611089
0.60407
-0.0141335
0.0167519
-0.43611
0.433492
-0.0167454
0.0146129
-0.264551
0.266683
-0.0118212
0.00836962
-0.127938
0.131389
-0.00530082
0.00247202
-0.0420445
0.0448733
-0.000762233
-0.00320647
0.0039687
-0.0767426
0.075163
0.00157955
-0.00523677
0.00517062
-0.419982
0.420048
-0.00354573
0.00134763
-0.587216
0.589414
0.00269593
-0.0069419
-0.71741
0.721656
0.0121218
-0.0167488
-0.835365
0.839992
0.0219085
-0.0265859
-0.957317
0.961994
0.032018
-0.0363357
-1.09242
1.09673
0.0407072
-0.0444347
-1.24089
1.24461
0.0480131
-0.0500439
-1.40238
1.40441
0.0511471
-0.050633
-1.57582
1.5753
0.0486714
-0.0446594
-1.48195
1.47794
0.0401236
-0.0341623
-1.17704
1.17107
0.0279277
-0.0204193
-0.946231
0.938723
0.0130148
-0.0049117
-0.761722
0.753619
-0.00162938
0.00778364
-0.595729
0.589574
-0.0116314
0.0135138
-0.428492
0.42661
-0.0136755
0.0121925
-0.2655
0.266983
-0.00988134
0.00697028
-0.133035
0.135946
-0.004404
0.00206952
-0.0464758
0.0488103
-0.000650722
-0.00429972
0.00495044
-0.076295
0.0750671
0.00122785
-0.00416734
0.00423668
-0.423646
0.423577
-0.00272193
0.000646596
-0.594551
0.596627
0.0031704
-0.00703619
-0.726138
0.730004
0.0115445
-0.0160334
-0.844611
0.8491
0.0208348
-0.0256604
-0.966492
0.971318
0.0303864
-0.0345581
-1.10117
1.10534
0.0391323
-0.0427337
-1.24827
1.25187
0.0459869
-0.0485579
-1.40643
1.409
0.049955
-0.049766
-1.57489
1.5747
0.0479003
-0.0442952
-1.47404
1.47044
0.0399291
-0.0341984
-1.16471
1.15898
0.0284015
-0.0215002
-0.931075
0.924174
0.0149279
-0.00805609
-0.745514
0.738642
0.00220902
0.00297877
-0.582466
0.577278
-0.00629606
0.00830788
-0.422188
0.420176
-0.00881144
0.00789967
-0.265741
0.266653
-0.00644841
0.00452877
-0.136728
0.138648
-0.00289102
0.00138425
-0.0498138
0.0513205
-0.000460286
-0.00515834
0.00561862
-0.0763803
0.0753564
0.00102388
-0.00288061
0.00271451
-0.426907
0.427073
-0.00138637
-0.000692669
-0.601278
0.603357
0.00415198
-0.00786728
-0.734315
0.73803
0.012185
-0.0162659
-0.853414
0.857494
0.0211741
-0.0252126
-0.975574
0.979612
0.0299308
-0.0339791
-1.10969
1.11374
0.0385167
-0.0423909
-1.2555
1.25938
0.0460288
-0.0484574
-1.41139
1.41382
0.0502011
-0.0503246
-1.57442
1.57454
0.0489428
-0.0454687
-1.46662
1.46315
0.0414059
-0.0360431
-1.15328
1.14792
0.0307556
-0.0244952
-0.917129
0.910869
0.0188112
-0.0127527
-0.731595
0.725536
0.00770009
-0.00305355
-0.571288
0.566641
-0.000174675
0.00216531
-0.415851
0.413861
-0.00309945
0.00306217
-0.264787
0.264824
-0.002677
0.00187972
-0.138481
0.139279
-0.00119951
0.000614034
-0.0514873
0.0520728
-0.000221402
-0.00564651
0.00586791
-0.0767528
0.0760425
0.000710331
-0.0017157
0.00108519
-0.430242
0.430872
2.12206e-05
-0.0021848
-0.607196
0.609359
0.00528735
-0.00884435
-0.741907
0.745464
0.0129508
-0.017128
-0.861454
0.865631
0.0214058
-0.0256107
-0.983867
0.988072
0.030323
-0.0342137
-1.11824
1.12213
0.0389176
-0.0428205
-1.2631
1.267
0.0465725
-0.0495444
-1.41668
1.41965
0.051732
-0.0520419
-1.57466
1.57497
0.050761
-0.0478617
-1.45976
1.45686
0.0442783
-0.039304
-1.14241
1.13743
0.0343961
-0.0289449
-0.9046
0.899149
0.0235402
-0.0182739
-0.719252
0.713986
0.0137062
-0.00926069
-0.561444
0.556998
0.00610963
-0.00359919
-0.409499
0.406989
0.00215338
-0.00123995
-0.262442
0.261528
0.000729025
-0.000364948
-0.138082
0.137718
5.54283e-05
0.000123236
-0.0515217
0.051343
-0.00011524
-0.00568943
0.00580467
-0.0775395
0.0769909
0.000548639
-0.00071555
0.000136147
-0.433808
0.434387
0.00150484
-0.00348105
-0.613119
0.615095
0.0067161
-0.0101001
-0.748915
0.752299
0.0140017
-0.0177486
-0.86949
0.873237
0.0221379
-0.0260445
-0.992288
0.996194
0.0307426
-0.0351175
-1.1265
1.13087
0.0395272
-0.0438027
-1.27099
1.27526
0.0480052
-0.0510633
-1.42253
1.42559
0.0535704
-0.0545585
-1.57545
1.57644
0.0536326
-0.0512754
-1.45378
1.45142
0.0478834
-0.0434149
-1.13248
1.12801
0.0390362
-0.0339534
-0.893344
0.888261
0.0291475
-0.0242438
-0.708222
0.703318
0.019971
-0.0155968
-0.551939
0.547565
0.0122265
-0.00933903
-0.402714
0.399827
0.0071217
-0.00530831
-0.258427
0.256613
0.00379338
-0.00231602
-0.135629
0.134152
0.00118319
-0.000337941
-0.0500568
0.0492115
-5.41127e-06
-0.00539747
0.00540288
-0.0786109
0.0782422
0.000368694
0.000384173
-0.00116682
-0.437531
0.438314
0.00267129
-0.00491464
-0.61858
0.620823
0.00804385
-0.0112272
-0.755579
0.758762
0.0151608
-0.0187308
-0.876966
0.880536
0.0229566
-0.0269986
-1.00059
1.00463
0.0316434
-0.0360255
-1.13513
1.13951
0.040698
-0.0450314
-1.27949
1.28382
0.0494243
-0.053203
-1.42893
1.43271
0.0560969
-0.0573171
-1.57733
1.57855
0.0570096
-0.0549369
-1.44891
1.44684
0.052098
-0.0482026
-1.12347
1.11958
0.0439757
-0.0392545
-0.882925
0.878204
0.0347794
-0.0300127
-0.698028
0.693261
0.0259699
-0.0215581
-0.542878
0.538466
0.018028
-0.0145197
-0.395325
0.391816
0.0117103
-0.00896035
-0.252691
0.249941
0.00644427
-0.00402875
-0.131129
0.128713
0.00219325
-0.000793137
-0.0473457
0.0459456
0.000127121
-0.00489516
0.00476803
-0.0799189
0.0796764
0.000242447
0.00126122
-0.00217354