/*--------------------------------*- C++ -*----------------------------------*\
  =========                 |
  \\      /  F ield         | OpenFOAM: The Open Source CFD Toolbox
   \\    /   O peration     | Website:  https://openfoam.org
    \\  /    A nd           | Version:  6
     \\/     M anipulation  |
\*---------------------------------------------------------------------------*/
FoamFile
{
    version     2.0;
    format      ascii;
    class       volScalarField;
    location    "25.6";
    object      p;
}
// * * * * * * * * * * * * * * * * * * * * * * * * * * * * * * * * * * * * * //

dimensions      [0 2 -2 0 0 0 0];

internalField   nonuniform List<scalar> 
8800
(
0.474309
0.424991
0.387019
0.358938
0.338756
0.324132
0.31348
0.30587
0.300892
0.298672
0.299845
0.303997
0.310637
0.319947
0.332604
0.349869
0.373707
0.406778
0.449699
0.502206
0.308821
0.315163
0.324305
0.327843
0.325219
0.319106
0.312129
0.305829
0.300932
0.297933
0.297518
0.299931
0.3044
0.310398
0.317397
0.324359
0.329185
0.329023
0.322325
0.313412
0.282365
0.2886
0.293097
0.29696
0.299894
0.300822
0.299692
0.297496
0.2954
0.294379
0.295198
0.297445
0.300161
0.302294
0.302704
0.300833
0.297405
0.293344
0.288531
0.28481
0.278127
0.280893
0.283497
0.285651
0.287378
0.288924
0.289988
0.29026
0.289981
0.289857
0.290428
0.291384
0.291944
0.291624
0.290515
0.289056
0.287304
0.28494
0.282494
0.280925
0.273149
0.274574
0.276416
0.278494
0.280193
0.281455
0.282494
0.283373
0.284026
0.28453
0.28497
0.285165
0.284971
0.284425
0.283605
0.282367
0.280609
0.278636
0.277239
0.276438
0.268268
0.26917
0.270431
0.272074
0.273768
0.275273
0.276484
0.277499
0.278403
0.279149
0.27961
0.279685
0.279413
0.278829
0.277841
0.276486
0.27498
0.2736
0.272728
0.272209
0.263533
0.264189
0.26517
0.266512
0.267975
0.269485
0.270925
0.272181
0.273271
0.2742
0.274745
0.274831
0.274503
0.273766
0.272723
0.271556
0.270372
0.269328
0.26869
0.268314
0.258921
0.259419
0.260246
0.261452
0.26281
0.26427
0.265796
0.267292
0.268618
0.269729
0.270422
0.270542
0.270142
0.269372
0.268429
0.267417
0.26641
0.265549
0.265054
0.264772
0.254465
0.254854
0.255566
0.256684
0.258
0.25941
0.260906
0.262449
0.26395
0.265273
0.266141
0.266371
0.266101
0.265511
0.26474
0.26387
0.262984
0.262269
0.261879
0.261661
0.250088
0.250387
0.251013
0.25206
0.253323
0.254678
0.256128
0.257703
0.259377
0.260966
0.262043
0.262443
0.262376
0.262031
0.26148
0.26078
0.260029
0.259436
0.259133
0.258969
0.245798
0.246029
0.246593
0.247612
0.248883
0.250315
0.251903
0.253578
0.255298
0.257066
0.258489
0.259303
0.259544
0.259342
0.258876
0.258285
0.257639
0.257145
0.256913
0.256787
0.24155
0.241717
0.242246
0.243279
0.244593
0.246066
0.247729
0.249629
0.251742
0.253899
0.255684
0.256707
0.25712
0.257129
0.256876
0.256412
0.25585
0.255428
0.255258
0.255172
0.237422
0.237527
0.23799
0.238961
0.240234
0.241692
0.243359
0.245285
0.247525
0.250063
0.252341
0.253913
0.254848
0.255289
0.255345
0.255132
0.254772
0.254488
0.254393
0.25434
0.23339
0.23345
0.233849
0.234749
0.236001
0.237531
0.239382
0.241634
0.244292
0.24734
0.250204
0.252294
0.253581
0.254323
0.254659
0.254722
0.254609
0.254499
0.25447
0.254434
0.229109
0.22916
0.229491
0.230289
0.231478
0.233013
0.234961
0.237434
0.24054
0.244251
0.247862
0.250602
0.252513
0.253759
0.254543
0.254995
0.255201
0.255298
0.255329
0.255294
0.224119
0.224169
0.224481
0.22525
0.226471
0.228132
0.230339
0.23323
0.236904
0.241413
0.245949
0.249529
0.252093
0.253883
0.255124
0.255928
0.256428
0.256695
0.256766
0.256725
0.218171
0.218223
0.218582
0.219402
0.220767
0.222672
0.225257
0.2287
0.233197
0.23878
0.24443
0.248948
0.252256
0.254625
0.256312
0.257484
0.258257
0.258659
0.258759
0.258711
0.210974
0.21103
0.211461
0.212431
0.214016
0.216283
0.219402
0.223612
0.22912
0.236015
0.243072
0.248766
0.252963
0.256006
0.258206
0.259767
0.2608
0.261308
0.26143
0.261374
0.202234
0.202295
0.202836
0.204041
0.206014
0.208835
0.212721
0.217982
0.224857
0.233428
0.242176
0.249206
0.254418
0.258229
0.260968
0.26293
0.2642
0.264811
0.264969
0.26491
0.191632
0.191693
0.192361
0.193912
0.196432
0.200007
0.204934
0.211549
0.22015
0.230815
0.241636
0.250323
0.256754
0.261401
0.264832
0.267255
0.268768
0.269489
0.269688
0.26962
0.178767
0.178824
0.179654
0.181644
0.184925
0.189543
0.195845
0.204244
0.215049
0.228305
0.241631
0.252277
0.260134
0.265858
0.270033
0.272923
0.274742
0.275626
0.275875
0.275797
0.163048
0.163118
0.164185
0.166751
0.171009
0.177018
0.185159
0.195889
0.209491
0.225926
0.24224
0.255182
0.264733
0.271708
0.276743
0.280242
0.282435
0.283527
0.283825
0.283729
0.143335
0.143435
0.144868
0.14827
0.153914
0.161867
0.17251
0.186315
0.203478
0.2238
0.243636
0.259232
0.270722
0.279118
0.285181
0.2894
0.292063
0.293384
0.293731
0.293609
0.117871
0.118043
0.120109
0.12491
0.132635
0.143375
0.157548
0.175468
0.197131
0.222108
0.245995
0.264576
0.278239
0.288244
0.295497
0.300586
0.303821
0.305403
0.305792
0.305636
0.083582
0.0839404
0.087305
0.0946829
0.105971
0.121048
0.140226
0.163548
0.190726
0.22111
0.249518
0.271367
0.287401
0.299186
0.307808
0.313928
0.317833
0.3197
0.32012
0.319919
0.0346033
0.0359425
0.0427756
0.0555324
0.0730711
0.0948383
0.120913
0.151027
0.184694
0.221113
0.25438
0.279673
0.298203
0.311906
0.322057
0.329396
0.334106
0.336301
0.336735
0.336472
-0.0377025
-0.0296668
-0.0140592
0.00839909
0.0353674
0.0660995
0.100571
0.138505
0.179399
0.222453
0.261071
0.290228
0.311647
0.327669
0.33981
0.348802
0.354702
0.35755
0.35819
0.358014
-0.114462
-0.0974627
-0.072169
-0.0393862
-0.00262702
0.0372254
0.0802153
0.126202
0.174791
0.225304
0.270392
0.304542
0.329875
0.349079
0.363953
0.375331
0.38293
0.386693
0.387753
0.387753
-0.179352
-0.15867
-0.125555
-0.0841453
-0.0387078
0.00968719
0.0609233
0.114775
0.170824
0.228447
0.279562
0.318218
0.346972
0.368939
0.385965
0.399007
0.408074
0.412613
0.413558
0.413654
-0.231859
-0.208963
-0.170741
-0.123226
-0.0710535
-0.0155523
0.0429029
0.103889
0.166874
0.23111
0.28769
0.330285
0.361847
0.385861
0.404467
0.418708
0.428838
0.43382
0.434969
0.435177
-0.27526
-0.251162
-0.209301
-0.157051
-0.0995225
-0.0382085
0.0263483
0.0935844
0.16278
0.233021
0.294501
0.340446
0.374274
0.399846
0.419573
0.434634
0.445257
0.45074
0.452233
0.452475
-0.312421
-0.287588
-0.243077
-0.186986
-0.124953
-0.0587073
0.0110899
0.0838062
0.15856
0.234198
0.300066
0.348935
0.384605
0.411357
0.431816
0.447382
0.458231
0.464045
0.465767
0.466007
-0.3453
-0.319977
-0.273371
-0.21411
-0.148269
-0.0777485
-0.00329879
0.0743308
0.154132
0.234732
0.304651
0.35616
0.393419
0.421075
0.441996
0.457761
0.468697
0.474609
0.476416
0.476602
-0.375329
-0.349588
-0.301252
-0.23926
-0.170118
-0.0958566
-0.01725
0.064865
0.149346
0.234654
0.308422
0.362461
0.401202
0.429631
0.450891
0.466754
0.4777
0.48365
0.48554
0.485713
-0.403408
-0.377272
-0.327431
-0.263063
-0.191036
-0.113452
-0.031092
0.0551401
0.144021
0.23385
0.311443
0.367992
0.408202
0.437435
0.459077
0.475076
0.486014
0.491896
0.493845
0.494043
-0.430243
-0.40367
-0.352448
-0.285933
-0.21135
-0.130797
-0.0450486
0.044967
0.13799
0.232212
0.313633
0.372809
0.414653
0.444835
0.466958
0.483152
0.494117
0.499908
0.50181
0.502013
-0.456101
-0.429092
-0.37661
-0.308178
-0.231305
-0.148085
-0.0592694
0.0342301
0.131152
0.229649
0.315014
0.377076
0.420769
0.452051
0.474793
0.491286
0.502336
0.508059
0.509835
0.509971
-0.481332
-0.453785
-0.400156
-0.329992
-0.251061
-0.165439
-0.0738323
0.0228678
0.123457
0.226156
0.315619
0.380772
0.426553
0.459154
0.482679
0.499584
0.51076
0.516414
0.518039
0.518087
-0.505997
-0.477918
-0.423203
-0.351457
-0.27068
-0.182899
-0.0887727
0.010864
0.114898
0.221686
0.315296
0.383815
0.431994
0.466168
0.490645
0.508056
0.519373
0.524927
0.526407
0.526347
-0.530164
-0.501532
-0.445791
-0.372608
-0.290186
-0.200475
-0.104083
-0.00177844
0.105442
0.216126
0.313939
0.386118
0.437048
0.473077
0.498685
0.516681
0.528122
0.533514
0.534812
0.534658
-0.553878
-0.524674
-0.467922
-0.393453
-0.30957
-0.218131
-0.11972
-0.015031
0.0950861
0.209447
0.311474
0.387535
0.441594
0.479843
0.506795
0.525433
0.536949
0.542074
0.543147
0.542913
-0.577153
-0.547304
-0.489596
-0.413959
-0.328768
-0.235812
-0.135628
-0.0288338
0.0838816
0.201657
0.307786
0.387895
0.445479
0.486408
0.515006
0.53431
0.545748
0.550475
0.551281
0.550975
-0.599812
-0.569369
-0.510757
-0.434079
-0.347727
-0.253442
-0.151725
-0.0430891
0.0719138
0.192769
0.302792
0.387022
0.448471
0.492652
0.523397
0.543447
0.554504
0.558547
0.559013
0.558651
-0.621813
-0.590809
-0.531356
-0.453745
-0.366378
-0.270943
-0.167902
-0.0577037
0.0592691
0.182816
0.296451
0.384756
0.450295
0.498324
0.532039
0.553231
0.563483
0.566226
0.566152
0.565774
-0.643197
-0.611579
-0.551358
-0.47291
-0.384642
-0.288219
-0.184063
-0.072567
0.0460502
0.171888
0.288736
0.380957
0.450645
0.502985
0.540776
0.564274
0.573727
0.57402
0.572589
0.572285
-0.663805
-0.631645
-0.5707
-0.491499
-0.402456
-0.305185
-0.200108
-0.0875616
0.0323896
0.160109
0.279664
0.375522
0.449229
0.505999
0.548919
0.576804
0.587275
0.584775
0.579541
0.576919
-0.683716
-0.651011
-0.589386
-0.509542
-0.41985
-0.321887
-0.216091
-0.102749
0.0182122
0.147407
0.269097
0.368199
0.445742
0.506609
0.555109
0.589697
0.60501
0.603781
0.591697
0.58746
-0.702849
-0.669747
-0.607553
-0.52723
-0.437122
-0.33867
-0.232438
-0.118636
0.00293599
0.133095
0.256303
0.358103
0.439484
0.503622
0.556542
0.598351
0.619377
0.615524
0.60147
0.591302
-0.721073
-0.687817
-0.625035
-0.544349
-0.454035
-0.355228
-0.248926
-0.134885
-0.0131086
0.117478
0.241485
0.344869
0.430071
0.496174
0.548403
0.590182
0.614181
0.598173
0.53714
0.508226
-0.738285
-0.705949
-0.641408
-0.560385
-0.469953
-0.371089
-0.265295
-0.15123
-0.0296397
0.100752
0.224773
0.328192
0.416847
0.484494
0.527424
0.559541
0.566441
0.523202
0.458854
0.418798
-0.781842
-0.723173
-0.656632
-0.576006
-0.485612
-0.387128
-0.281424
-0.167781
-0.0468385
0.0826273
0.205849
0.307877
0.396787
0.46985
0.489765
0.495498
0.467911
0.412283
0.343505
0.305448
-0.756334
-0.73819
-0.679327
-0.599413
-0.509149
-0.411083
-0.306251
-0.193629
-0.0741839
0.052943
0.173293
0.271808
0.351865
0.425596
0.424498
0.329023
0.243004
0.184171
0.120687
0.155097
-0.787506
-0.75604
-0.696465
-0.616788
-0.526782
-0.429169
-0.324361
-0.212615
-0.09453
0.0303108
0.147366
0.241931
0.313051
0.352234
0.309736
0.177348
0.0703042
-0.00156765
-0.0849653
-0.0305031
-0.811601
-0.777721
-0.716349
-0.636458
-0.546601
-0.449142
-0.344598
-0.233859
-0.117441
0.00458717
0.117404
0.20644
0.26612
0.270917
0.168858
0.0101458
-0.121073
-0.213704
-0.314042
-0.273243
-0.83493
-0.799984
-0.737262
-0.656757
-0.566803
-0.469508
-0.365573
-0.255987
-0.141432
-0.0225476
0.0852267
0.167786
0.211106
0.181366
0.0219794
-0.164109
-0.331876
-0.473571
-0.604761
-0.577595
-0.857856
-0.822557
-0.758993
-0.677945
-0.587823
-0.490755
-0.38755
-0.279238
-0.166795
-0.0514006
0.0506644
0.125656
0.149508
0.0790631
-0.122966
-0.334773
-0.53745
-0.705851
-0.930472
-1.01493
-0.881046
-0.845872
-0.781836
-0.700384
-0.610081
-0.513197
-0.410651
-0.303628
-0.19339
-0.0816759
0.0143866
0.0804615
0.083449
-0.0435987
-0.255836
-0.484558
-0.698397
-0.878121
-1.01849
-1.16891
-0.905472
-0.870354
-0.806105
-0.724432
-0.634071
-0.537462
-0.435666
-0.330094
-0.222391
-0.114837
-0.0252669
0.0298905
0.00438652
-0.165162
-0.380534
-0.606609
-0.801582
-0.913372
-0.94395
-0.959356
-0.931291
-0.896249
-0.831893
-0.750155
-0.659901
-0.563724
-0.462908
-0.359078
-0.254356
-0.151618
-0.0690034
-0.028528
-0.0805796
-0.283154
-0.495697
-0.701333
-0.852915
-0.898446
-0.909996
-0.910454
-0.958766
-0.923653
-0.859202
-0.777494
-0.687474
-0.591937
-0.492347
-0.390568
-0.289283
-0.192057
-0.116992
-0.0932727
-0.172353
-0.395142
-0.60004
-0.781091
-0.870795
-0.889944
-0.890901
-0.890734
-0.98782
-0.952563
-0.888004
-0.806392
-0.716746
-0.62202
-0.523925
-0.424504
-0.327066
-0.236046
-0.169616
-0.16152
-0.283289
-0.499682
-0.696865
-0.84045
-0.879626
-0.880007
-0.881703
-0.881495
-1.01818
-0.982768
-0.918135
-0.836706
-0.747559
-0.653825
-0.557519
-0.460779
-0.367534
-0.283411
-0.226359
-0.238912
-0.393964
-0.600053
-0.777988
-0.869321
-0.878781
-0.878317
-0.87795
-0.877653
-1.04923
-1.01387
-0.949286
-0.868142
-0.779647
-0.687087
-0.592828
-0.499199
-0.410292
-0.333824
-0.285618
-0.32086
-0.499969
-0.695481
-0.845344
-0.889415
-0.888816
-0.880858
-0.876333
-0.874735
-1.08048
-1.04529
-0.980953
-0.900225
-0.81257
-0.721378
-0.629339
-0.539404
-0.454841
-0.386198
-0.347808
-0.40077
-0.604324
-0.797504
-0.904505
-0.91433
-0.901185
-0.880089
-0.869707
-0.867989
-1.11081
-1.07617
-1.01238
-0.932273
-0.845683
-0.756118
-0.666336
-0.580623
-0.500806
-0.438621
-0.4144
-0.474149
-0.692741
-0.909728
-0.997013
-0.958534
-0.945105
-0.936183
-0.920352
-0.911847
-1.13931
-1.10543
-1.04259
-0.963385
-0.878105
-0.790477
-0.702997
-0.621404
-0.547872
-0.489591
-0.480783
-0.550441
-0.748596
-0.98397
-1.13921
-1.11552
-1.07714
-1.07332
-1.05955
-1.04915
-1.16425
-1.1317
-1.07033
-0.992408
-0.9087
-0.823293
-0.738463
-0.659836
-0.594653
-0.539762
-0.539745
-0.642281
-0.782468
-0.917381
-1.03329
-1.14001
-1.2264
-1.25047
-1.2396
-1.23523
-1.1838
-1.15323
-1.09408
-1.01795
-0.936147
-0.853064
-0.77147
-0.694685
-0.636982
-0.591604
-0.584659
-0.747011
-0.865656
-0.782422
-0.758303
-1.0494
-1.32008
-1.34722
-1.33743
-1.33676
-1.1964
-1.1684
-1.11216
-1.0385
-0.958984
-0.878162
-0.799846
-0.725882
-0.669294
-0.641433
-0.623841
-0.839898
-1.10428
-1.07635
-1.02938
-1.256
-1.40828
-1.3872
-1.38109
-1.38919
-1.19975
-1.17534
-1.12304
-1.05246
-0.975607
-0.897152
-0.821148
-0.751224
-0.692614
-0.671667
-0.683403
-0.934235
-1.45769
-1.95561
-2.24678
-2.38906
-2.26055
-1.91149
-1.66777
-1.64841
-1.19309
-1.1726
-1.12519
-1.0585
-0.984617
-0.908607
-0.83406
-0.765752
-0.709189
-0.679324
-0.723452
-0.99849
-1.65652
-2.4704
-2.90246
-3.06689
-2.95265
-2.68304
-2.36485
-2.22526
-1.17398
-1.15805
-1.11737
-1.05581
-0.985259
-0.911337
-0.83759
-0.767773
-0.709112
-0.683335
-0.692959
-0.919776
-1.38152
-2.03505
-2.4015
-2.47258
-2.4247
-2.29779
-2.13512
-2.02433
-1.14462
-1.13339
-1.10005
-1.0448
-0.977446
-0.9057
-0.829814
-0.759746
-0.686972
-0.64066
-0.610731
-0.648094
-0.793661
-0.938299
-1.1086
-1.09146
-0.874987
-0.662123
-0.497946
-0.414744
-1.10827
-1.10139
-1.07619
-1.02738
-0.963368
-0.89141
-0.816086
-0.73308
-0.660452
-0.559248
-0.498409
-0.334544
-0.164799
0.147433
0.581804
1.01372
1.37054
1.60642
1.72272
1.7639
-1.06978
-1.06597
-1.04918
-1.00726
-0.945748
-0.873521
-0.793619
-0.708221
-0.610958
-0.505002
-0.365408
-0.221493
0.160582
0.727496
1.38554
1.97808
2.42583
2.69591
2.82186
2.85774
-1.03394
-1.03177
-1.02221
-0.988125
-0.928973
-0.854818
-0.771763
-0.681403
-0.580553
-0.46498
-0.326637
-0.194899
0.0217805
0.486537
1.02346
1.52615
1.90201
2.1289
2.23037
2.25923
-1.00133
-1.00044
-0.996883
-0.971407
-0.914086
-0.837106
-0.752763
-0.66185
-0.564767
-0.452473
-0.336039
-0.222816
-0.110492
0.165236
0.577687
0.947461
1.21827
1.37504
1.45019
1.47472
-0.977563
-0.978919
-0.978396
-0.9545
-0.893985
-0.81473
-0.731402
-0.645578
-0.553636
-0.453953
-0.359138
-0.274578
-0.211564
-0.0589648
0.23717
0.505269
0.694181
0.799679
0.845302
0.855021
-0.9291
-0.932801
-0.933559
-0.910255
-0.851759
-0.777857
-0.70206
-0.625525
-0.545986
-0.458266
-0.381229
-0.325435
-0.283477
-0.189281
0.00393692
0.178972
0.296959
0.36404
0.394756
0.40263
-0.825603
-0.828927
-0.829208
-0.812092
-0.770483
-0.717495
-0.660084
-0.599564
-0.533482
-0.462057
-0.399523
-0.363518
-0.341491
-0.276553
-0.142443
-0.0328904
0.0383667
0.0781286
0.0953197
0.098068
-0.698553
-0.699491
-0.699133
-0.692147
-0.673929
-0.646639
-0.611523
-0.569606
-0.518097
-0.460721
-0.409955
-0.383382
-0.371639
-0.330349
-0.237164
-0.164734
-0.120309
-0.0950079
-0.0854276
-0.0851485
-0.60197
-0.601953
-0.602372
-0.602169
-0.598205
-0.587876
-0.5696
-0.542289
-0.50397
-0.456643
-0.414418
-0.39057
-0.366029
-0.336187
-0.277765
-0.234706
-0.207711
-0.191559
-0.185812
-0.185844
-0.548863
-0.548838
-0.54968
-0.551734
-0.552399
-0.549048
-0.539446
-0.521292
-0.492235
-0.451024
-0.413111
-0.388563
-0.351306
-0.324428
-0.287116
-0.264842
-0.246835
-0.236638
-0.23225
-0.233167
-0.526739
-0.526705
-0.527271
-0.52905
-0.530246
-0.528717
-0.522557
-0.508833
-0.484501
-0.444145
-0.410887
-0.386909
-0.349215
-0.331737
-0.308907
-0.29085
-0.271884
-0.262137
-0.256506
-0.25768
-0.524782
-0.524453
-0.524319
-0.52499
-0.525272
-0.523413
-0.517614
-0.505021
-0.480751
-0.441447
-0.409298
-0.393757
-0.371496
-0.353676
-0.336267
-0.315413
-0.298711
-0.286432
-0.282744
-0.283632
-0.539903
-0.539254
-0.538506
-0.538099
-0.537018
-0.533773
-0.526786
-0.513114
-0.486288
-0.444552
-0.41048
-0.400274
-0.391735
-0.386446
-0.35968
-0.334499
-0.309892
-0.297292
-0.290874
-0.29373
-0.571466
-0.570457
-0.569309
-0.56818
-0.566082
-0.561728
-0.55368
-0.53865
-0.507289
-0.457362
-0.420646
-0.396297
-0.381378
-0.389523
-0.372448
-0.348218
-0.334395
-0.325079
-0.322955
-0.322462
-0.617942
-0.616975
-0.615827
-0.614541
-0.612498
-0.608965
-0.602834
-0.590574
-0.559958
-0.504985
-0.462932
-0.408981
-0.380011
-0.383972
-0.364283
-0.337153
-0.31323
-0.302068
-0.296606
-0.298361
-0.677808
-0.676991
-0.676323
-0.675942
-0.676071
-0.677226
-0.679665
-0.681246
-0.669893
-0.633224
-0.581799
-0.48088
-0.413518
-0.401135
-0.373516
-0.330203
-0.29224
-0.26792
-0.267098
-0.269813
-0.745603
-0.745376
-0.746046
-0.748225
-0.753651
-0.765093
-0.78632
-0.820734
-0.861695
-0.890521
-0.825042
-0.658554
-0.523768
-0.478988
-0.424724
-0.34546
-0.286385
-0.25752
-0.257029
-0.25712
-0.810966
-0.811828
-0.814711
-0.821178
-0.835135
-0.862729
-0.91423
-1.0058
-1.14349
-1.29143
-1.21807
-0.95298
-0.740683
-0.636501
-0.519411
-0.386355
-0.28519
-0.251764
-0.261313
-0.266327
-0.857697
-0.859921
-0.865405
-0.87701
-0.901032
-0.947608
-1.0358
-1.20193
-1.47673
-1.7733
-1.68221
-1.31042
-1.0117
-0.858729
-0.670882
-0.511363
-0.412719
-0.395298
-0.399672
-0.405467
-0.867186
-0.870642
-0.878258
-0.894008
-0.926126
-0.987999
-1.1063
-1.33485
-1.73045
-2.13627
-2.03431
-1.584
-1.28524
-1.08735
-0.893047
-0.734087
-0.680693
-0.668761
-0.667037
-0.669762
-0.826739
-0.830506
-0.83862
-0.855715
-0.890513
-0.957429
-1.08585
-1.33738
-1.77418
-2.20775
-2.15576
-1.70788
-1.44456
-1.28027
-1.13044
-1.01675
-0.983715
-0.972735
-0.968072
-0.968801
-0.734992
-0.738297
-0.745356
-0.760352
-0.791303
-0.851002
-0.965633
-1.18974
-1.57626
-1.92401
-1.90267
-1.60469
-1.46122
-1.40783
-1.41495
-1.34327
-1.28347
-1.25485
-1.24062
-1.23723
-0.605579
-0.607787
-0.61249
-0.623005
-0.645492
-0.689427
-0.774006
-0.93956
-1.2311
-1.47535
-1.44496
-1.31685
-1.30575
-1.43351
-1.63417
-1.57437
-1.4712
-1.41422
-1.38543
-1.375
-0.460529
-0.461451
-0.463525
-0.468967
-0.481738
-0.507624
-0.558178
-0.658479
-0.849247
-1.04266
-1.04379
-1.01089
-1.03084
-1.19153
-1.44121
-1.43669
-1.34621
-1.29345
-1.26717
-1.25633
-0.321797
-0.321669
-0.321718
-0.323071
-0.327779
-0.338446
-0.360207
-0.40469
-0.498565
-0.63306
-0.664186
-0.647133
-0.623038
-0.72922
-0.917038
-0.959624
-0.941417
-0.928727
-0.922331
-0.918718
-0.204571
-0.203864
-0.202833
-0.201902
-0.201698
-0.202654
-0.205642
-0.212619
-0.228657
-0.264582
-0.280585
-0.256063
-0.276428
-0.384829
-0.491661
-0.532203
-0.543889
-0.551421
-0.556528
-0.557811
-0.115005
-0.114172
-0.112976
-0.111532
-0.109627
-0.106644
-0.101689
-0.0928788
-0.0761113
-0.0439972
-0.0236448
-0.0314867
-0.107394
-0.187177
-0.239601
-0.262998
-0.275847
-0.284362
-0.290393
-0.292504
-0.051616
-0.0509618
-0.0501884
-0.0494319
-0.0480322
-0.0451964
-0.0400941
-0.031096
-0.0154609
0.00835394
0.024955
0.0111813
-0.0322706
-0.0715879
-0.0968098
-0.109395
-0.116036
-0.120564
-0.124171
-0.125576
-0.00824791
-0.00809674
-0.00765238
-0.00715575
-0.00664959
-0.00616957
-0.00536678
-0.00390345
-0.00140206
0.00263913
0.00703474
0.00704405
0.000335452
-0.00919326
-0.0134849
-0.0169683
-0.0181999
-0.018705
-0.0195014
-0.0204245
-0.431973
-0.224648
-0.0310805
0.131544
0.264628
0.372674
0.464422
0.539016
0.559805
0.555827
-0.107454
0.0274278
0.153816
0.264308
0.35846
0.43727
0.499902
0.542588
0.565443
0.581592
0.113785
0.202901
0.29122
0.369475
0.436759
0.492831
0.537051
0.570448
0.594875
0.614007
0.273819
0.336325
0.39987
0.457266
0.506974
0.549123
0.58421
0.613159
0.634917
0.65389
0.39803
0.445399
0.493036
0.536916
0.57587
0.610088
0.639768
0.664702
0.68361
0.70177
0.503405
0.541078
0.578468
0.614448
0.647416
0.677098
0.703182
0.724969
0.741371
0.758939
0.595038
0.628662
0.662349
0.694843
0.72502
0.75236
0.77627
0.795815
0.810163
0.827265
0.684381
0.717868
0.751241
0.783263
0.812764
0.83918
0.861831
0.879769
0.892465
0.909072
0.780248
0.817165
0.852496
0.885467
0.915113
0.940894
0.962376
0.978953
0.990771
1.00698
0.894128
0.934922
0.972356
1.0057
1.03452
1.0588
1.07867
1.09414
1.10617
1.12229
1.03589
1.07726
1.11278
1.14264
1.16806
1.18985
1.2085
1.2241
1.23731
1.25328
1.2079
1.2406
1.26757
1.29
1.3102
1.32903
1.34685
1.36369
1.37866
1.3944
1.39455
1.4119
1.42911
1.44586
1.46202
1.47682
1.49077
1.50529
1.52056
1.53788
1.57805
1.58808
1.60132
1.61234
1.62176
1.63146
1.64212
1.65234
1.66166
1.68733
1.79609
1.7904
1.77746
1.76319
1.75692
1.76267
1.78084
1.80937
1.84315
1.87949
2.09886
1.96289
1.88343
1.84102
1.82372
1.82768
1.85514
1.91301
2.02068
2.19909
0.378004
0.3717
0.363966
0.352844
0.339261
0.326592
0.316164
0.308102
0.302317
0.298893
0.298393
0.301049
0.30613
0.313376
0.322845
0.334615
0.348134
0.361033
0.370001
0.377531
0.28709
0.293008
0.301079
0.307207
0.310268
0.309745
0.306636
0.3026
0.298938
0.296531
0.296236
0.29832
0.301927
0.306248
0.310252
0.312422
0.311292
0.306616
0.299529
0.291679
0.280381
0.282753
0.286019
0.288789
0.291233
0.293409
0.294571
0.294381
0.293345
0.292402
0.292444
0.293672
0.295307
0.296404
0.296207
0.294648
0.29242
0.290004
0.286983
0.283949
0.275642
0.27673
0.27865
0.280995
0.282869
0.284261
0.285456
0.286403
0.286915
0.287131
0.287482
0.288034
0.288318
0.28803
0.287262
0.286226
0.2848
0.282752
0.280589
0.279095
0.270691
0.271323
0.272459
0.274229
0.27608
0.27767
0.278888
0.279882
0.280748
0.281472
0.282024
0.282309
0.282233
0.281843
0.281152
0.280038
0.27849
0.276778
0.275371
0.274553
0.265884
0.266319
0.267119
0.268448
0.269992
0.271559
0.273009
0.274232
0.275298
0.276235
0.276931
0.277205
0.277069
0.276592
0.275728
0.27455
0.273235
0.271954
0.270965
0.270415
0.261206
0.261527
0.262159
0.263279
0.26463
0.266079
0.267588
0.269053
0.270341
0.271439
0.272274
0.272648
0.272525
0.271932
0.271012
0.269954
0.268871
0.267824
0.267047
0.26664
0.256682
0.256923
0.257439
0.258425
0.259686
0.261069
0.262548
0.264085
0.265587
0.266934
0.267966
0.268427
0.268297
0.267744
0.266951
0.266044
0.265101
0.264216
0.263594
0.263284
0.252266
0.252448
0.252881
0.253783
0.255003
0.256346
0.257763
0.259277
0.260868
0.262412
0.263658
0.264305
0.264335
0.26399
0.263413
0.262685
0.261861
0.261096
0.260587
0.260349
0.247938
0.248071
0.248433
0.249254
0.250412
0.251727
0.253162
0.254699
0.256345
0.258061
0.259574
0.260479
0.260805
0.260716
0.260328
0.259754
0.259094
0.258468
0.258069
0.257891
0.24367
0.243763
0.244079
0.244886
0.246087
0.247478
0.249044
0.250789
0.252645
0.254557
0.256377
0.257684
0.258298
0.25835
0.258056
0.257571
0.25698
0.256417
0.256089
0.25596
0.239461
0.239511
0.239775
0.240544
0.241729
0.243113
0.244646
0.246401
0.248472
0.250792
0.253049
0.254681
0.25559
0.256027
0.25609
0.25586
0.255443
0.255005
0.254768
0.25469
0.235401
0.23542
0.235639
0.236333
0.237461
0.23884
0.240458
0.242369
0.244596
0.247166
0.249903
0.252187
0.25367
0.2545
0.254865
0.254905
0.254723
0.254474
0.254351
0.254314
0.231316
0.231316
0.231495
0.232102
0.233156
0.234533
0.236226
0.238359
0.241001
0.244172
0.247571
0.250397
0.25233
0.253556
0.254259
0.254644
0.254819
0.254834
0.25484
0.254826
0.226719
0.226717
0.226879
0.227417
0.228401
0.229775
0.231565
0.233893
0.236868
0.240582
0.244772
0.248483
0.251173
0.253043
0.2543
0.255119
0.255604
0.255875
0.255994
0.255991
0.221287
0.221278
0.221454
0.222002
0.223049
0.224563
0.226614
0.229375
0.232982
0.237541
0.242732
0.247376
0.250797
0.253243
0.254973
0.256183
0.256993
0.25749
0.257694
0.257697
0.214751
0.214737
0.214952
0.215588
0.216752
0.218484
0.220895
0.224172
0.22854
0.234116
0.240566
0.246413
0.250793
0.25398
0.256267
0.257905
0.259052
0.259745
0.26001
0.260016
0.206814
0.206793
0.207055
0.207833
0.20924
0.211344
0.214302
0.218366
0.223773
0.230703
0.238711
0.245988
0.251441
0.255425
0.258319
0.260422
0.261899
0.262756
0.263077
0.263093
0.197181
0.197147
0.197475
0.19847
0.200246
0.202888
0.206606
0.211704
0.218467
0.22711
0.237048
0.246044
0.252793
0.25774
0.261337
0.263914
0.265743
0.26678
0.267169
0.267197
0.185488
0.185435
0.185845
0.18711
0.189403
0.1928
0.197563
0.20403
0.212558
0.223341
0.235651
0.246732
0.255023
0.261092
0.265503
0.268714
0.270863
0.272088
0.272574
0.272616
0.171254
0.171182
0.171717
0.173337
0.176307
0.180709
0.186881
0.195159
0.20594
0.219415
0.234608
0.24816
0.258273
0.265681
0.271067
0.274923
0.27752
0.279001
0.2796
0.279651
0.153662
0.153584
0.154328
0.15645
0.160288
0.166091
0.174114
0.184798
0.19851
0.215349
0.234016
0.250475
0.26271
0.27168
0.278191
0.282838
0.28597
0.287781
0.288502
0.288556
0.131244
0.131173
0.132281
0.135207
0.140333
0.148103
0.158769
0.172741
0.190267
0.211269
0.234052
0.253855
0.268492
0.279228
0.287035
0.292615
0.296408
0.298606
0.299459
0.299509
0.101677
0.101671
0.103456
0.10776
0.115082
0.125926
0.140451
0.158913
0.181334
0.207388
0.234928
0.258474
0.275772
0.288469
0.297745
0.304428
0.30901
0.311648
0.312637
0.312675
0.0607968
0.061025
0.0642797
0.0714626
0.0828868
0.0988063
0.119047
0.143559
0.172075
0.204037
0.236883
0.264482
0.284631
0.299448
0.310354
0.318316
0.323833
0.326964
0.328071
0.328084
0.00086341
0.00234147
0.0101489
0.0238208
0.042911
0.0669431
0.0952059
0.127381
0.163067
0.201607
0.240126
0.271944
0.295032
0.312049
0.324704
0.334068
0.340655
0.344348
0.345572
0.345558
-0.0715189
-0.0685097
-0.0533807
-0.0295893
-0.000101742
0.0334473
0.0704795
0.110867
0.154306
0.200214
0.245478
0.282725
0.309905
0.330173
0.345509
0.357074
0.365338
0.370041
0.37151
0.371652
-0.145291
-0.137616
-0.115032
-0.0814716
-0.0421152
0.000712104
0.0464847
0.0951315
0.146398
0.199758
0.251882
0.294681
0.326021
0.349633
0.367766
0.381808
0.391868
0.397169
0.399239
0.399746
-0.204195
-0.194991
-0.16766
-0.127287
-0.0803205
-0.0296776
0.0239469
0.0802745
0.138919
0.199342
0.257878
0.305695
0.340642
0.36697
0.38723
0.402817
0.414048
0.420465
0.423329
0.423998
-0.252303
-0.242426
-0.211684
-0.166384
-0.113688
-0.0568336
0.00333572
0.0663492
0.131658
0.198537
0.262917
0.315167
0.35314
0.381574
0.403373
0.420184
0.432449
0.439683
0.442896
0.443628
-0.292619
-0.282527
-0.249565
-0.200372
-0.143003
-0.0810118
-0.0153535
0.0534109
0.124591
0.197288
0.26691
0.323053
0.363541
0.393647
0.416554
0.434149
0.447021
0.454842
0.458291
0.459068
-0.327768
-0.317581
-0.282921
-0.230641
-0.169401
-0.10303
-0.0326097
0.0412257
0.117658
0.195604
0.269999
0.329635
0.372295
0.403725
0.427423
0.44547
0.458635
0.46675
0.470317
0.471109
-0.359314
-0.349099
-0.313121
-0.258249
-0.193726
-0.123583
-0.0489564
0.0294283
0.110657
0.193458
0.272346
0.335241
0.379881
0.412449
0.436723
0.455001
0.468255
0.476447
0.479989
0.480811
-0.388433
-0.378177
-0.341123
-0.284019
-0.216642
-0.143196
-0.064831
0.0176887
0.103347
0.190753
0.27395
0.340061
0.386638
0.420273
0.445082
0.46358
0.476907
0.485156
0.488709
0.489387
-0.415953
-0.405637
-0.367595
-0.308517
-0.23862
-0.162253
-0.0805334
0.00575201
0.0955262
0.18732
0.274768
0.344096
0.392666
0.427467
0.452902
0.471685
0.485096
0.493327
0.49687
0.497459
-0.442353
-0.431944
-0.39298
-0.332119
-0.259974
-0.180996
-0.0962598
-0.00654866
0.0870536
0.183045
0.274697
0.347384
0.398168
0.434325
0.460515
0.479682
0.493252
0.501462
0.504945
0.505514
-0.467967
-0.457396
-0.417559
-0.35509
-0.28094
-0.199616
-0.112151
-0.0193091
0.077853
0.177853
0.273747
0.350037
0.403252
0.440952
0.468071
0.487754
0.501569
0.509797
0.513155
0.513686
-0.493008
-0.482203
-0.441538
-0.37759
-0.301626
-0.218201
-0.128269
-0.032574
0.0678862
0.171736
0.271891
0.351936
0.407866
0.447376
0.475623
0.495958
0.510077
0.518331
0.52155
0.522007
-0.517512
-0.506454
-0.465004
-0.399679
-0.322085
-0.236776
-0.144635
-0.0463513
0.0571549
0.164639
0.268977
0.352982
0.411952
0.453585
0.483178
0.504295
0.518758
0.526999
0.530048
0.530398
-0.541547
-0.53021
-0.487974
-0.421376
-0.342335
-0.255346
-0.161225
-0.0606172
0.0456539
0.156515
0.264933
0.353077
0.415417
0.459524
0.490725
0.512746
0.52757
0.535759
0.538577
0.538788
-0.565072
-0.553465
-0.510449
-0.442688
-0.362348
-0.273859
-0.177984
-0.0753256
0.0334191
0.147375
0.259729
0.352068
0.418095
0.465105
0.498253
0.521319
0.536451
0.544445
0.546962
0.547035
-0.588122
-0.576184
-0.532392
-0.463572
-0.38207
-0.292261
-0.194854
-0.0903938
0.0205299
0.137275
0.253305
0.349822
0.419785
0.470173
0.505757
0.530085
0.545406
0.552964
0.555049
0.554974
-0.61046
-0.598307
-0.553752
-0.483973
-0.401437
-0.310465
-0.211746
-0.105729
0.00708284
0.126275
0.24564
0.346223
0.420272
0.474488
0.513189
0.539251
0.554625
0.56127
0.562657
0.562417
-0.632228
-0.619762
-0.57448
-0.503847
-0.4204
-0.328414
-0.228553
-0.121235
-0.00682533
0.114467
0.236764
0.341179
0.419328
0.477696
0.520326
0.549097
0.564748
0.569728
0.569708
0.569194
-0.653235
-0.640498
-0.594552
-0.523134
-0.438867
-0.346014
-0.245187
-0.136785
-0.0210766
0.101944
0.226737
0.334624
0.416761
0.479366
0.526623
0.559621
0.576928
0.580003
0.576926
0.575273
-0.673571
-0.660539
-0.613907
-0.541772
-0.456793
-0.363192
-0.261557
-0.15229
-0.0355474
0.0888622
0.215665
0.326516
0.412419
0.479043
0.531136
0.56992
0.5917
0.595564
0.58887
0.57769
-0.69312
-0.679877
-0.632633
-0.559928
-0.474401
-0.380246
-0.278019
-0.168176
-0.0507238
0.0746617
0.202956
0.316171
0.405691
0.476075
0.532524
0.577954
0.607166
0.615342
0.607918
0.601954
-0.71183
-0.698584
-0.650733
-0.577528
-0.491662
-0.397152
-0.294529
-0.184454
-0.0666215
0.0592478
0.188482
0.303229
0.396012
0.469782
0.528328
0.577692
0.611087
0.62386