/*--------------------------------*- C++ -*----------------------------------*\
  =========                 |
  \\      /  F ield         | OpenFOAM: The Open Source CFD Toolbox
   \\    /   O peration     | Website:  https://openfoam.org
    \\  /    A nd           | Version:  6
     \\/     M anipulation  |
\*---------------------------------------------------------------------------*/
FoamFile
{
    version     2.0;
    format      ascii;
    class       volVectorField;
    location    "13.2";
    object      U;
}
// * * * * * * * * * * * * * * * * * * * * * * * * * * * * * * * * * * * * * //

dimensions      [0 1 -1 0 0 0 0];

internalField   nonuniform List<vector> 
8800
(
(0.987175 -0.0766471 0)
(1.00181 -0.0551519 0)
(0.999694 -0.0285159 0)
(1.00001 -0.015193 0)
(1.00002 -0.00860276 0)
(1.00006 -0.00503948 0)
(1.00008 -0.0029199 0)
(1.00011 -0.00162003 0)
(1.00009 -0.000759344 0)
(1.00004 -0.000119793 0)
(1.00008 0.000506058 0)
(1.00011 0.00124378 0)
(1.0001 0.00227447 0)
(1.00005 0.00390073 0)
(1.00005 0.00663343 0)
(1.00002 0.0114141 0)
(0.999935 0.0207974 0)
(0.999084 0.0385976 0)
(1.00703 0.0724241 0)
(0.771214 0.0366503 0)
(0.363278 -0.0159923 0)
(1.04351 -0.0767226 0)
(1.08484 -0.0703559 0)
(1.0455 -0.0532348 0)
(1.0232 -0.0384017 0)
(1.01175 -0.025757 0)
(1.00633 -0.0165392 0)
(1.00349 -0.0101715 0)
(1.002 -0.00570543 0)
(1.00129 -0.0021794 0)
(1.00118 0.00100886 0)
(1.00157 0.00429228 0)
(1.0026 0.00816145 0)
(1.00466 0.0133727 0)
(1.00856 0.0210175 0)
(1.0164 0.0319012 0)
(1.03274 0.0459321 0)
(1.06313 0.0613617 0)
(1.09206 0.0758912 0)
(0.839084 0.056475 0)
(0.217569 -0.00236349 0)
(1.07625 -0.0494879 0)
(1.0998 -0.0476733 0)
(1.06469 -0.0401692 0)
(1.04004 -0.033358 0)
(1.02328 -0.0255625 0)
(1.01317 -0.0180209 0)
(1.0077 -0.0114351 0)
(1.00504 -0.00578616 0)
(1.00408 -0.000772604 0)
(1.00433 0.00401335 0)
(1.00596 0.00921328 0)
(1.00982 0.0151966 0)
(1.01728 0.02216 0)
(1.03057 0.0299373 0)
(1.05093 0.0371955 0)
(1.08054 0.0436946 0)
(1.10653 0.050341 0)
(0.943982 0.0410646 0)
(0.217265 0.0023762 0)
(0.176629 -0.000732641 0)
(1.01944 -0.0346301 0)
(1.10551 -0.0399375 0)
(1.07785 -0.0341651 0)
(1.05286 -0.028241 0)
(1.03545 -0.023039 0)
(1.02323 -0.0178473 0)
(1.01533 -0.0123279 0)
(1.01073 -0.0067649 0)
(1.00886 -0.000845058 0)
(1.00935 0.00513208 0)
(1.01244 0.010654 0)
(1.01846 0.0160365 0)
(1.02839 0.0212763 0)
(1.04296 0.0261534 0)
(1.06369 0.0316104 0)
(1.09389 0.0379184 0)
(1.09502 0.040414 0)
(0.831098 0.0221362 0)
(0.176122 0.000747626 0)
(0.156767 -0.000489418 0)
(0.961093 -0.0235471 0)
(1.10478 -0.0324974 0)
(1.08812 -0.0301359 0)
(1.06154 -0.0256621 0)
(1.04385 -0.0210699 0)
(1.03144 -0.0164153 0)
(1.02262 -0.0115177 0)
(1.01682 -0.00627122 0)
(1.01407 -0.000577821 0)
(1.01486 0.0051152 0)
(1.01898 0.0104113 0)
(1.02618 0.015303 0)
(1.03651 0.0198504 0)
(1.05111 0.0242261 0)
(1.07276 0.0286706 0)
(1.10177 0.0325624 0)
(1.07201 0.0310019 0)
(0.748922 0.0129097 0)
(0.156018 0.000506561 0)
(0.14412 -0.000326872 0)
(0.909853 -0.0163054 0)
(1.09742 -0.0256826 0)
(1.09427 -0.0247804 0)
(1.06723 -0.0221582 0)
(1.04816 -0.0189633 0)
(1.03519 -0.0148888 0)
(1.0264 -0.010369 0)
(1.02078 -0.00550156 0)
(1.01807 -0.000203389 0)
(1.01874 0.00510459 0)
(1.0226 0.00998214 0)
(1.02952 0.0143529 0)
(1.04007 0.0184073 0)
(1.0558 0.0218861 0)
(1.07858 0.0243315 0)
(1.10322 0.0264789 0)
(1.04401 0.0235839 0)
(0.690212 0.00814912 0)
(0.143076 0.000346828 0)
(0.136472 -0.000167806 0)
(0.870645 -0.00923902 0)
(1.08753 -0.017818 0)
(1.09854 -0.0183985 0)
(1.07213 -0.0164648 0)
(1.05317 -0.0143372 0)
(1.03979 -0.0120053 0)
(1.03032 -0.00888656 0)
(1.0242 -0.00483655 0)
(1.02134 0.00015465 0)
(1.02192 0.0053255 0)
(1.02599 0.00954306 0)
(1.03345 0.0128236 0)
(1.04452 0.0150933 0)
(1.06019 0.0168764 0)
(1.08308 0.0187326 0)
(1.10286 0.0196186 0)
(1.01697 0.0153769 0)
(0.652203 0.00422969 0)
(0.135066 0.000191761 0)
(0.133404 -1.51523e-05 0)
(0.845751 -0.00407836 0)
(1.07505 -0.0104755 0)
(1.09893 -0.0122803 0)
(1.07502 -0.0117317 0)
(1.05608 -0.0107807 0)
(1.04355 -0.00916054 0)
(1.03504 -0.00671238 0)
(1.02943 -0.00344516 0)
(1.0267 0.000712043 0)
(1.02707 0.004956 0)
(1.03064 0.00837232 0)
(1.03714 0.0107515 0)
(1.04708 0.0122907 0)
(1.06237 0.0131388 0)
(1.08502 0.0134988 0)
(1.09831 0.013033 0)
(0.993939 0.00837013 0)
(0.632183 0.00172429 0)
(0.131568 4.31625e-05 0)
(0.132846 3.00921e-05 0)
(0.831441 -0.00199416 0)
(1.064 -0.00673181 0)
(1.09686 -0.00912562 0)
(1.07513 -0.00976183 0)
(1.05697 -0.00920953 0)
(1.0447 -0.00798078 0)
(1.03649 -0.00587355 0)
(1.03113 -0.00272509 0)
(1.02844 0.00128188 0)
(1.02863 0.00530752 0)
(1.03184 0.00852731 0)
(1.03796 0.0106128 0)
(1.04762 0.0117443 0)
(1.06215 0.0121338 0)
(1.08384 0.0113927 0)
(1.09203 0.00975118 0)
(0.977064 0.00524869 0)
(0.621864 0.000874066 0)
(0.130469 4.65521e-06 0)
(0.132872 2.30291e-05 0)
(0.821211 -0.00135589 0)
(1.0527 -0.00582767 0)
(1.09306 -0.00948741 0)
(1.07497 -0.010443 0)
(1.05867 -0.0104256 0)
(1.04776 -0.00883395 0)
(1.04043 -0.00624965 0)
(1.03552 -0.00262082 0)
(1.03277 0.00183958 0)
(1.03277 0.00623488 0)
(1.03547 0.00978694 0)
(1.04066 0.012225 0)
(1.04895 0.0135817 0)
(1.06185 0.0134887 0)
(1.08146 0.0127216 0)
(1.08356 0.0098176 0)
(0.962214 0.00443124 0)
(0.614667 0.000737891 0)
(0.12983 2.03709e-05 0)
(0.132924 1.85342e-05 0)
(0.813097 -0.000766214 0)
(1.03937 -0.00471011 0)
(1.0858 -0.00974382 0)
(1.07377 -0.0121931 0)
(1.05996 -0.0120059 0)
(1.05025 -0.0102893 0)
(1.04362 -0.00707299 0)
(1.03893 -0.00273093 0)
(1.03607 0.00251326 0)
(1.03581 0.00776537 0)
(1.03808 0.0119128 0)
(1.04259 0.0147468 0)
(1.04988 0.0162425 0)
(1.06064 0.0162092 0)
(1.07629 0.0143669 0)
(1.07066 0.00955507 0)
(0.947669 0.00362164 0)
(0.608815 0.000635533 0)
(0.129051 3.36824e-05 0)
(0.13318 2.94688e-05 0)
(0.808102 -8.79485e-05 0)
(1.0271 -0.0026435 0)
(1.076 -0.00726235 0)
(1.07142 -0.0105894 0)
(1.06107 -0.011064 0)
(1.05377 -0.00927529 0)
(1.04797 -0.00604992 0)
(1.04348 -0.00170067 0)
(1.04054 0.00359093 0)
(1.0399 0.00880338 0)
(1.04162 0.0127248 0)
(1.04521 0.0153278 0)
(1.05057 0.0164654 0)
(1.05922 0.0161256 0)
(1.06782 0.0128749 0)
(1.05611 0.00753027 0)
(0.935703 0.00258507 0)
(0.60451 0.000515368 0)
(0.128285 3.6572e-05 0)
(0.133771 5.00238e-05 0)
(0.806396 0.000499289 0)
(1.01923 -0.000594941 0)
(1.06779 -0.00339516 0)
(1.06752 -0.00579536 0)
(1.06189 -0.0065489 0)
(1.0565 -0.00553971 0)
(1.05164 -0.00307114 0)
(1.04748 0.00057696 0)
(1.04443 0.005098 0)
(1.04332 0.00938076 0)
(1.04426 0.0124295 0)
(1.04683 0.0139318 0)
(1.05055 0.0140634 0)
(1.05526 0.0126012 0)
(1.05911 0.00945054 0)
(1.04426 0.00522611 0)
(0.927503 0.00187116 0)
(0.601364 0.000472321 0)
(0.127557 3.95215e-05 0)
(0.134661 6.06973e-05 0)
(0.806878 0.000843828 0)
(1.01586 0.000838284 0)
(1.06317 -0.000307523 0)
(1.06513 -0.00147858 0)
(1.06202 -0.00183031 0)
(1.05835 -0.00110306 0)
(1.05448 0.000722227 0)
(1.0507 0.00351205 0)
(1.04747 0.00693764 0)
(1.04574 0.00993335 0)
(1.04586 0.0116369 0)
(1.04711 0.0120379 0)
(1.04908 0.0112761 0)
(1.0513 0.00945231 0)
(1.05236 0.00681228 0)
(1.03626 0.00386301 0)
(0.922078 0.00164685 0)
(0.598647 0.000526229 0)
(0.126778 4.82876e-05 0)
(0.135806 7.55057e-05 0)
(0.809022 0.0011926 0)
(1.01561 0.00184412 0)
(1.06161 0.00181735 0)
(1.06438 0.00169568 0)
(1.0625 0.00196838 0)
(1.05985 0.00285155 0)
(1.05664 0.00443307 0)
(1.0531 0.0066316 0)
(1.04961 0.00912762 0)
(1.0472 0.0110296 0)
(1.04621 0.0117585 0)
(1.04632 0.0111628 0)
(1.04691 0.00977287 0)
(1.04761 0.00785665 0)
(1.04728 0.00564436 0)
(1.03079 0.00346558 0)
(0.917885 0.00177194 0)
(0.595743 0.000649802 0)
(0.125819 6.23741e-05 0)
(0.137248 9.51521e-05 0)
(0.812328 0.00154242 0)
(1.01713 0.00266977 0)
(1.06224 0.00342791 0)
(1.06511 0.00406504 0)
(1.06369 0.00496564 0)
(1.06146 0.00624223 0)
(1.05851 0.00792572 0)
(1.05494 0.00988665 0)
(1.05101 0.0117696 0)
(1.04773 0.0127853 0)
(1.04577 0.0124911 0)
(1.04475 0.0113807 0)
(1.04433 0.00962421 0)
(1.04414 0.0076181 0)
(1.04312 0.00558483 0)
(1.02643 0.00369653 0)
(0.913857 0.00210568 0)
(0.592272 0.000820602 0)
(0.124596 8.03986e-05 0)
(0.139072 0.000120478 0)
(0.816802 0.00197374 0)
(1.02017 0.00354063 0)
(1.06433 0.00485387 0)
(1.06718 0.00612622 0)
(1.06578 0.00762112 0)
(1.06353 0.009435 0)
(1.06043 0.0114525 0)
(1.05651 0.013464 0)
(1.05188 0.0150205 0)
(1.04758 0.015392 0)
(1.04456 0.0144448 0)
(1.04261 0.0127014 0)
(1.0414 0.0105787 0)
(1.04061 0.00837844 0)
(1.03918 0.00627417 0)
(1.02223 0.00434278 0)
(0.909354 0.00259925 0)
(0.587959 0.00103949 0)
(0.123041 0.000103044 0)
(0.141399 0.000153959 0)
(0.82267 0.00251959 0)
(1.02456 0.00455979 0)
(1.06781 0.00634313 0)
(1.07047 0.00817789 0)
(1.0689 0.0103885 0)
(1.0663 0.0128951 0)
(1.06271 0.0154111 0)
(1.05807 0.0176482 0)
(1.05241 0.019079 0)
(1.04689 0.0189479 0)
(1.04274 0.0173741 0)
(1.03987 0.0150393 0)
(1.03796 0.0124535 0)
(1.03668 0.0099144 0)
(1.03493 0.00754204 0)
(1.01759 0.00534103 0)
(0.903931 0.00326006 0)
(0.582528 0.00131759 0)
(0.121075 0.000131811 0)
(0.144396 0.000198623 0)
(0.830294 0.00322842 0)
(1.03057 0.0058363 0)
(1.07286 0.00812887 0)
(1.07514 0.0105895 0)
(1.0731 0.0135985 0)
(1.0699 0.0168751 0)
(1.06557 0.0200852 0)
(1.05986 0.0227603 0)
(1.05279 0.0241946 0)
(1.04574 0.0236138 0)
(1.04029 0.0213754 0)
(1.03644 0.0183592 0)
(1.03382 0.0151758 0)
(1.03207 0.012148 0)
(1.02998 0.00935438 0)
(1.01209 0.00671767 0)
(0.897225 0.00412783 0)
(0.575672 0.00166716 0)
(0.118607 0.00016756 0)
(0.148317 0.000259379 0)
(0.840203 0.00415684 0)
(1.03843 0.00752022 0)
(1.07952 0.0104753 0)
(1.08125 0.013689 0)
(1.07857 0.0176329 0)
(1.07462 0.0218762 0)
(1.06919 0.0259319 0)
(1.06202 0.0291531 0)
(1.05309 0.0306425 0)
(1.04413 0.0295787 0)
(1.03715 0.0265642 0)
(1.03219 0.0227092 0)
(1.02878 0.0187491 0)
(1.02648 0.0150637 0)
(1.024 0.0117112 0)
(1.00541 0.00851155 0)
(0.888995 0.00524308 0)
(0.567107 0.0020899 0)
(0.115539 0.000207778 0)
(0.153525 0.000351001 0)
(0.85311 0.00549284 0)
(1.04846 0.00988118 0)
(1.08801 0.0136443 0)
(1.08911 0.0178658 0)
(1.08563 0.0229437 0)
(1.08059 0.02834 0)
(1.07365 0.033341 0)
(1.06451 0.0371605 0)
(1.05322 0.0387124 0)
(1.04195 0.0370611 0)
(1.03316 0.0330928 0)
(1.0269 0.0281945 0)
(1.02257 0.0232368 0)
(1.01962 0.0186796 0)
(1.01666 0.0145919 0)
(0.997245 0.0106745 0)
(0.878881 0.00657666 0)
(0.556545 0.00262979 0)
(0.111733 0.000257464 0)
(0.160553 0.000490975 0)
(0.870034 0.00748577 0)
(1.06144 0.0132238 0)
(1.09899 0.0180148 0)
(1.09912 0.0235128 0)
(1.09448 0.0300159 0)
(1.08782 0.0367063 0)
(1.07879 0.0427739 0)
(1.06715 0.0472595 0)
(1.05295 0.0487913 0)
(1.03892 0.0463607 0)
(1.02801 0.0412075 0)
(1.02025 0.0350291 0)
(1.01486 0.0288308 0)
(1.01118 0.023157 0)
(1.00766 0.0181237 0)
(0.987238 0.013325 0)
(0.866231 0.00824709 0)
(0.543418 0.00327803 0)
(0.10705 0.000321218 0)
(0.170169 0.000704396 0)
(0.892223 0.0104765 0)
(1.07825 0.0179904 0)
(1.11324 0.024181 0)
(1.11194 0.0314145 0)
(1.10554 0.0396405 0)
(1.09659 0.0478478 0)
(1.08476 0.0550914 0)
(1.06986 0.0601247 0)
(1.05209 0.0613745 0)
(1.03481 0.0578482 0)
(1.02145 0.0512221 0)
(1.01193 0.0435075 0)
(1.00529 0.0358275 0)
(1.00073 0.028797 0)
(0.996548 0.0225912 0)
(0.974847 0.0167095 0)
(0.850654 0.0104072 0)
(0.527142 0.00410524 0)
(0.101315 0.000397164 0)
(0.183649 0.00105213 0)
(0.921555 0.0149941 0)
(1.10022 0.0247396 0)
(1.13192 0.0328285 0)
(1.1284 0.0423288 0)
(1.11945 0.0527205 0)
(1.10731 0.0627088 0)
(1.0917 0.0710794 0)
(1.07262 0.0763855 0)
(1.05053 0.0769346 0)
(1.02946 0.0718727 0)
(1.01328 0.0634236 0)
(1.00169 0.0538988 0)
(0.993524 0.0444977 0)
(0.987846 0.0358858 0)
(0.982777 0.0282716 0)
(0.959453 0.0210776 0)
(0.83137 0.0132193 0)
(0.507227 0.00518591 0)
(0.0943546 0.000489267 0)
(0.203304 0.00170592 0)
(0.961566 0.022431 0)
(1.12932 0.0353241 0)
(1.15627 0.0461524 0)
(1.14909 0.0584552 0)
(1.13626 0.0712024 0)
(1.11962 0.0827342 0)
(1.09911 0.0917226 0)
(1.075 0.096692 0)
(1.04792 0.0958938 0)
(1.02261 0.0887515 0)
(1.00329 0.0781107 0)
(0.989335 0.0665208 0)
(0.979328 0.0551847 0)
(0.972196 0.0447878 0)
(0.965852 0.0355344 0)
(0.940366 0.026793 0)
(0.807387 0.0169335 0)
(0.482757 0.00661717 0)
(0.0858998 0.000609865 0)
(0.232557 0.0031761 0)
(1.01804 0.0359839 0)
(1.16825 0.0535798 0)
(1.18723 0.0677638 0)
(1.17395 0.0828844 0)
(1.15517 0.0974701 0)
(1.13249 0.109631 0)
(1.10601 0.118166 0)
(1.07615 0.121695 0)
(1.04364 0.118597 0)
(1.01384 0.108726 0)
(0.991171 0.0955512 0)
(0.974639 0.0817323 0)
(0.962515 0.0683796 0)
(0.953559 0.0561038 0)
(0.945422 0.045087 0)
(0.916854 0.0346354 0)
(0.777396 0.0221807 0)
(0.452976 0.00863331 0)
(0.0761467 0.000740894 0)
(0.273569 0.0101159 -1.60036e-21)
(1.09304 0.0636265 -1.0979e-21)
(1.21538 0.0854545 2.42907e-22)
(1.22241 0.103295 0)
(1.20069 0.119617 -6.1018e-36)
(1.17434 0.133932 1.18658e-22)
(1.14456 0.145002 -3.92021e-22)
(1.11143 0.151707 0)
(1.0753 0.152745 1.20208e-35)
(1.03685 0.146619 -8.6124e-22)
(1.00205 0.13367 0)
(0.975519 0.117901 -1.18925e-21)
(0.95583 0.10195 -3.616e-21)
(0.940923 0.0867966 -1.74373e-21)
(0.929355 0.0730637 -5.45737e-22)
(0.918333 0.060738 -3.30139e-22)
(0.886079 0.0490604 0)
(0.738487 0.0331167 2.38204e-22)
(0.416174 0.0155211 2.8361e-22)
(0.066764 0.00234553 5.09546e-21)
(0.298483 0.0270263 -3.90259e-21)
(1.1528 0.109321 1.03945e-22)
(1.2579 0.13426 -1.80261e-22)
(1.25434 0.152404 0)
(1.22475 0.16699 5.50533e-23)
(1.19104 0.179512 -1.65687e-22)
(1.15423 0.188662 -3.0929e-22)
(1.11435 0.193267 -1.69588e-21)
(1.07163 0.191964 0)
(1.02653 0.183151 3.64752e-21)
(0.985543 0.167604 3.94421e-21)
(0.953791 0.149826 1.24971e-21)
(0.929583 0.132416 4.87053e-21)
(0.910587 0.116179 7.12972e-21)
(0.895112 0.101543 0)
(0.879922 0.0888891 1.0567e-20)
(0.842166 0.0763819 1.55079e-20)
(0.696604 0.0566365 1.74277e-20)
(0.39173 0.0324843 -2.02566e-20)
(0.0638977 0.00553692 -3.76522e-22)
(0.293295 0.0442699 0)
(1.18717 0.168064 -1.2641e-21)
(1.28995 0.19576 0)
(1.27936 0.211479 1.70988e-21)
(1.24347 0.222443 0)
(1.20339 0.23146 3.44013e-22)
(1.1603 0.237327 4.85611e-22)
(1.11428 0.238764 -2.80189e-21)
(1.06551 0.234389 -3.09153e-22)
(1.01431 0.222539 1.79125e-21)
(0.967791 0.204439 9.08919e-21)
(0.931499 0.185052 -5.39831e-23)
(0.903464 0.166881 -3.63844e-21)
(0.881079 0.150517 -6.99991e-21)
(0.862563 0.1363 8.48481e-21)
(0.844801 0.124159 -1.52484e-20)
(0.808122 0.112226 -2.0916e-21)
(0.679202 0.0893677 0)
(0.39889 0.0547279 4.60099e-23)
(0.0715673 0.0103353 0)
(0.282548 0.0585483 -3.34009e-20)
(1.20265 0.230123 1.34381e-20)
(1.31012 0.262163 6.88734e-21)
(1.29575 0.275219 -1.20412e-21)
(1.25554 0.282212 1.80535e-21)
(1.21074 0.287166 -1.08379e-21)
(1.16266 0.289088 8.44354e-22)
(1.11142 0.286847 0)
(1.05738 0.278914 -7.45895e-21)
(1.0009 0.26375 0)
(0.94965 0.243025 -4.65178e-21)
(0.909729 0.222071 -6.40107e-21)
(0.878986 0.20328 -4.05275e-21)
(0.854569 0.187002 -5.18779e-21)
(0.834618 0.173274 0)
(0.816274 0.161889 0)
(0.782589 0.150251 -1.39613e-20)
(0.667874 0.125218 2.79868e-21)
(0.404247 0.0783029 -1.64515e-21)
(0.0765791 0.0152868 -1.94919e-21)
(0.272329 0.0712614 2.51395e-20)
(1.20608 0.291478 0)
(1.32098 0.329189 -1.96563e-20)
(1.30433 0.339925 -4.72758e-21)
(1.26109 0.343174 -3.23623e-21)
(1.21288 0.344147 0)
(1.16102 0.342181 1.72463e-22)
(1.10571 0.336095 2.70862e-21)
(1.04735 0.324481 3.40446e-21)
(0.986461 0.305783 8.87149e-21)
(0.931474 0.282193 0)
(0.888934 0.259458 -1.388e-20)
(0.856469 0.239798 -8.79407e-21)
(0.83099 0.223241 -5.28337e-21)
(0.810452 0.209622 3.43538e-20)
(0.792195 0.198558 4.20653e-21)
(0.76147 0.186883 2.0155e-20)
(0.655799 0.158865 -9.7769e-20)
(0.402819 0.0996385 5.84834e-20)
(0.0779346 0.0196457 -7.14799e-20)
(0.263567 0.0825934 2.68619e-20)
(1.20199 0.350306 -4.83964e-21)
(1.32479 0.394892 3.53204e-21)
(1.30688 0.403782 9.29182e-21)
(1.26152 0.403577 5.38038e-21)
(1.21083 0.40083 3.28464e-22)
(1.15595 0.39523 -2.83512e-22)
(1.09734 0.385411 2.33659e-21)
(1.03544 0.370117 -7.39976e-21)
(0.970863 0.34774 0)
(0.912658 0.32109 -6.00778e-21)
(0.86798 0.296281 -2.95832e-22)
(0.834291 0.275315 -9.79109e-21)
(0.808212 0.258004 0)
(0.787549 0.243958 -7.47386e-21)
(0.769766 0.232598 -1.81474e-20)
(0.741375 0.220205 5.01861e-20)
(0.641498 0.188525 -5.02573e-20)
(0.396475 0.117979 7.18662e-20)
(0.0771543 0.023271 -7.57334e-20)
(0.256585 0.0930957 -1.15886e-22)
(1.19333 0.406091 6.01114e-21)
(1.32349 0.458306 1.71529e-20)
(1.30487 0.465856 -5.82023e-21)
(1.25791 0.462481 3.12439e-21)
(1.20522 0.456355 0)
(1.148 0.447304 8.85495e-22)
(1.08665 0.434018 -2.11643e-21)
(1.02168 0.415133 -3.50649e-21)
(0.953882 0.389121 0)
(0.892994 0.359199 -5.91025e-21)
(0.846676 0.331951 -8.12487e-21)
(0.812167 0.309211 1.06774e-20)
(0.785865 0.29064 -6.78723e-21)
(0.765372 0.275682 -3.27963e-20)
(0.748136 0.263606 2.01228e-20)
(0.721309 0.250068 6.35573e-21)
(0.625192 0.214552 0)
(0.386894 0.133555 -6.95775e-20)
(0.0751821 0.0262581 -2.58572e-21)
(0.251224 0.103103 4.46125e-21)
(1.18214 0.458672 -6.96392e-21)
(1.31823 0.518949 -9.39928e-21)
(1.29933 0.52552 -1.78128e-20)
(1.25125 0.519335 1.55733e-20)
(1.19703 0.510163 -7.53165e-21)
(1.13792 0.497931 -1.86171e-21)
(1.07422 0.481423 -3.21374e-21)
(1.0066 0.459193 3.05121e-21)
(0.936061 0.429605 -2.15719e-20)
(0.87282 0.396269 -7.1571e-21)
(0.825003 0.366242 0)
(0.789804 0.341325 1.16481e-20)
(0.763365 0.321084 1.43359e-20)
(0.743113 0.304855 1.7597e-20)
(0.726422 0.291701 -2.19148e-20)
(0.700675 0.276709 -6.60372e-21)
(0.60723 0.237286 7.87528e-21)
(0.375137 0.146738 0)
(0.072467 0.0286274 -5.63098e-21)
(0.247133 0.112686 -5.21239e-20)
(1.16986 0.508168 3.21473e-20)
(1.31025 0.576448 1.0369e-20)
(1.29122 0.582351 -1.37462e-20)
(1.24229 0.573726 9.50688e-21)
(1.18688 0.561861 -7.73175e-22)
(1.12624 0.546794 1.68743e-21)
(1.06066 0.527345 -1.25111e-21)
(0.990694 0.502007 -6.19406e-21)
(0.917462 0.469008 2.89323e-23)
(0.85195 0.432194 -2.14742e-20)
(0.802698 0.399119 2.04737e-20)
(0.766851 0.371702 -1.30026e-20)
(0.740314 0.349444 1.60992e-20)
(0.720352 0.331615 0)
(0.704181 0.317103 -1.18901e-20)
(0.679233 0.30042 -2.66266e-22)
(0.587925 0.257048 -3.43702e-20)
(0.361724 0.157715 -5.11454e-21)
(0.0691283 0.030309 0)
(0.244067 0.122023 0)
(1.15708 0.554769 3.48617e-20)
(1.30034 0.630868 2.44325e-20)
(1.28123 0.636254 1.56372e-20)
(1.23166 0.625455 9.01126e-21)
(1.17532 0.611234 0)
(1.11346 0.593639 2.42108e-21)
(1.04622 0.571562 -2.49755e-22)
(0.974123 0.543402 1.31124e-20)
(0.898291 0.50719 -2.69504e-21)
(0.830523 0.466938 -1.56968e-20)
(0.779805 0.430673 1.03095e-20)
(0.743225 0.400484 -3.88961e-22)
(0.716536 0.375896 1.69893e-20)
(0.696851 0.356163 1.10207e-20)
(0.681147 0.340022 -2.58778e-20)
(0.656829 0.321363 3.13475e-20)
(0.567336 0.273858 9.40849e-21)
(0.346731 0.166371 3.91881e-20)
(0.0651793 0.0313436 -1.06067e-19)
(0.241873 0.131201 -1.34817e-20)
(1.14434 0.598729 2.02678e-20)
(1.2891 0.682213 -1.54712e-20)
(1.26993 0.687179 -1.83488e-20)
(1.2199 0.674457 0)
(1.16284 0.658179 7.20217e-21)
(1.09992 0.638384 -6.70844e-21)
(1.03123 0.613971 1.75565e-21)
(0.957233 0.58331 0)
(0.878991 0.544114 -4.10365e-20)
(0.808705 0.50056 4.26849e-20)
(0.756326 0.461044 0)
(0.718814 0.427855 1.53747e-20)
(0.69185 0.400617 -3.94912e-22)
(0.672407 0.378652 -3.4969e-20)
(0.657244 0.360618 1.37584e-20)
(0.63347 0.339759 0)
(0.545269 0.287747 5.09523e-20)
(0.330101 0.172707 0)
(0.0606638 0.0317156 -5.05335e-20)
(0.240396 0.140233 1.50589e-20)
(1.13197 0.64023 2.32948e-20)
(1.27701 0.730475 -1.61895e-20)
(1.25778 0.735111 0)
(1.2074 0.720736 1.28149e-20)
(1.14978 0.702672 0)
(1.08601 0.680972 9.62422e-21)
(1.01607 0.654542 5.2724e-22)
(0.940292 0.621719 1.63278e-21)
(0.859633 0.579931 -2.02517e-20)
(0.786651 0.533247 4.18226e-21)
(0.732281 0.490384 0)
(0.693592 0.453981 -3.27607e-20)
(0.666209 0.423805 4.1049e-22)
(0.646973 0.399168 0)
(0.632415 0.37899 4.87598e-22)
(0.608961 0.355548 4.6163e-20)
(0.5216 0.298698 -4.46453e-20)
(0.311793 0.176609 1.32682e-20)
(0.0555762 0.0313548 0)
(0.239243 0.14901 0)
(1.12003 0.679382 2.61302e-20)
(1.26445 0.775721 1.91542e-20)
(1.24514 0.780141 -4.34e-22)
(1.19453 0.764339 8.18781e-21)
(1.1365 0.744731 1.71667e-20)
(1.07203 0.721389 -3.00295e-21)
(1.00097 0.693264 -4.1765e-22)
(0.923516 0.658582 8.60351e-21)
(0.840398 0.614582 -3.16096e-20)
(0.764599 0.565033 -6.14669e-22)
(0.707833 0.518858 -1.35243e-20)
(0.667758 0.479012 5.36804e-20)
(0.639735 0.44562 -4.94822e-22)
(0.620472 0.418131 -2.76201e-20)
(0.606179 0.395353 -5.03994e-20)
(0.582818 0.368935 0)
(0.496166 0.306785 0)
(0.291743 0.177974 1.45777e-20)
(0.0499751 0.0302353 -8.62938e-21)
(0.238553 0.157677 1.88222e-20)
(1.10865 0.716073 -5.72393e-20)
(1.25165 0.818143 -2.05213e-20)
(1.23228 0.822387 0)
(1.18152 0.805329 -3.0333e-22)
(1.1232 0.784374 2.10393e-20)
(1.05817 0.759634 -1.08823e-20)
(0.986177 0.730112 -2.19706e-21)
(0.907161 0.693952 9.63426e-21)
(0.821607 0.648123 -2.45689e-20)
(0.742743 0.596071 -3.61025e-20)
(0.683201 0.546765 3.60785e-20)
(0.641338 0.503355 0)
(0.612282 0.466441 -1.246e-20)
(0.592643 0.435745 -3.03327e-20)
(0.578394 0.409858 -3.65818e-20)
(0.554952 0.379834 -4.4468e-20)
(0.468556 0.311818 1.33576e-20)
(0.269755 0.176397 -7.87501e-21)
(0.0438466 0.0283228 9.78416e-23)
(0.237893 0.16602 0)
(1.09793 0.750667 0)
(1.23881 0.857898 4.95734e-22)
(1.21939 0.861953 0)
(1.16857 0.843795 -3.11499e-20)
(1.11005 0.821662 -1.88698e-20)
(1.04461 0.795739 0)
(0.971824 0.765089 -9.84816e-22)
(0.89138 0.727818 1.3574e-20)
(0.80335 0.68064 -5.63396e-20)
(0.721177 0.626621 0)
(0.658326 0.574509 -2.31109e-20)
(0.61382 0.527594 -6.09173e-22)
(0.58332 0.486667 -5.04326e-22)
(0.56324 0.452092 3.24714e-20)
(0.549027 0.422864 -7.57475e-23)
(0.525313 0.38857 -9.67728e-20)
(0.438448 0.31362 2.91897e-20)
(0.245642 0.171786 8.70628e-21)
(0.0371911 0.0255815 0)
(0.237263 0.173982 -6.96445e-20)
(1.08758 0.783324 -3.52708e-20)
(1.22605 0.895104 -5.18389e-20)
(1.20662 0.898951 7.11177e-20)
(1.15582 0.879812 -5.8769e-20)
(1.09722 0.856665 0)
(1.03148 0.829761 -9.83159e-21)
(0.958026 0.798229 1.725e-21)
(0.876287 0.760153 7.38763e-22)
(0.785865 0.712055 4.37919e-21)
(0.700171 0.656537 4.53488e-20)
(0.633547 0.601963 -7.92564e-21)
(0.585492 0.551488 -3.31888e-20)
(0.552796 0.506361 -1.48205e-20)
(0.532006 0.467647 1.80816e-20)
(0.517646 0.434058 -6.45676e-23)
(0.493485 0.394955 2.66259e-20)
(0.405637 0.312143 -6.34128e-20)
(0.218921 0.163642 7.59746e-20)
(0.0300619 0.0220003 1.11506e-20)
(0.236467 0.181553 2.56338e-20)
(1.07763 0.814105 -1.93181e-20)
(1.2135 0.929879 1.18985e-21)
(1.19409 0.933501 4.03847e-20)
(1.14338 0.913488 1.38543e-20)
(1.08478 0.889457 3.80214e-20)
(1.01889 0.861751 -4.53104e-21)
(0.944906 0.829555 8.87601e-21)
(0.861999 0.79099 -1.06173e-20)
(0.769307 0.742417 -3.11552e-20)
(0.680033 0.685905 0)
(0.609322 0.62939 -3.55094e-20)
(0.557129 0.575684 4.8144e-20)
(0.521149 0.526267 0)
(0.498848 0.482652 -3.87525e-20)
(0.484057 0.444075 2.4047e-20)
(0.459121 0.398488 -2.88277e-20)
(0.369973 0.306562 -3.48886e-20)
(0.190018 0.15193 -6.20227e-20)
(0.0226458 0.0176526 -4.90462e-20)
(0.235835 0.188802 -2.82453e-20)
(1.06793 0.843015 2.06824e-20)
(1.20124 0.962304 4.87181e-20)
(1.18188 0.965698 5.5699e-20)
(1.13133 0.944914 -2.90098e-20)
(1.07281 0.920129 2.65026e-20)
(1.00689 0.89177 -1.40685e-20)
(0.932517 0.85912 1.1818e-20)
(0.848597 0.820334 -5.04765e-21)
(0.753729 0.771681 3.01887e-20)
(0.660867 0.714833 9.65244e-20)
(0.585701 0.656908 0)
(0.528972 0.600655 0)
(0.488631 0.547329 -1.71544e-20)
(0.463458 0.498061 0)
(0.447392 0.452447 5.24539e-20)
(0.421653 0.398761 6.31905e-20)
(0.331583 0.296198 0)
(0.159973 0.136635 0)
(0.0155173 0.0128847 5.36029e-20)
(0.234915 0.195476 3.12287e-20)
(1.05851 0.870085 2.49449e-20)
(1.18933 0.992507 3.50776e-20)
(1.17004 0.995674 -4.99259e-20)
(1.11972 0.974201 -3.24995e-20)
(1.06138 0.948763 -3.54247e-20)
(0.995527 0.919885 2.10484e-20)
(0.9209 0.886945 1.18204e-22)
(0.836133 0.848177 -9.49347e-22)
(0.73926 0.799827 -1.24869e-21)
(0.642857 0.743144 4.89584e-20)
(0.563089 0.684557 0)
(0.501266 0.626339 4.85265e-20)
(0.455427 0.569689 3.61475e-20)
(0.425532 0.514798 9.22503e-20)
(0.406495 0.460257 2.82901e-20)
(0.379305 0.393827 -3.50792e-20)
(0.29081 0.278021 -2.07581e-20)
(0.131967 0.117097 0)
(0.00994569 0.00819451 5.85072e-20)
(0.234194 0.202002 -6.88912e-20)
(1.04935 0.895541 0)
(1.1778 1.02059 3.93293e-20)
(1.15863 1.02353 -4.10223e-20)
(1.10859 1.00145 3.70011e-20)
(1.0505 0.975452 5.2117e-20)
(0.984828 0.946157 -4.94787e-20)
(0.910077 0.913079 2.07269e-22)
(0.824619 0.874525 0)
(0.725952 0.826829 -2.90354e-20)
(0.626142 0.770843 -1.0189e-19)
(0.541701 0.712193 4.86217e-21)
(0.474329 0.652932 6.58108e-20)
(0.421961 0.593969 0)
(0.385146 0.534344 6.20907e-20)
(0.359688 0.468871 0)
(0.327755 0.382769 0)
(0.245503 0.244088 -2.32338e-20)
(0.119157 0.0834836 0)
(0.0245059 0.00858217 1.5839e-20)
(0.233111 0.207862 -7.54182e-20)
(1.04041 0.919482 0)
(1.16662 1.04674 6.39132e-20)
(1.1476 1.04948 0)
(1.09789 1.02691 -2.01868e-20)
(1.04011 1.00047 0)
(0.974715 0.970882 -3.77606e-21)
(0.899944 0.937841 -2.2345e-21)
(0.813954 0.899719 3.93287e-22)
(0.71367 0.853027 -2.91662e-20)
(0.610648 0.798355 2.72197e-21)
(0.521441 0.740491 4.00214e-20)
(0.448305 0.680797 6.37133e-20)
(0.388307 0.621176 9.06024e-21)
(0.341884 0.559026 4.83978e-20)
(0.304887 0.482646 0)
(0.256636 0.369744 7.65987e-20)
(0.175172 0.183642 -4.59898e-20)
(0.0598845 0.0869947 5.35931e-20)
(-0.0314348 0.401847 -6.36427e-20)
(0.231983 0.213433 6.16027e-20)
(1.03152 0.941898 9.53033e-20)
(1.15573 1.0713 0)
(1.13684 1.07395 9.58346e-22)
(1.08748 1.05111 5.50015e-20)
(1.02999 1.02445 -1.01833e-19)
(0.964935 0.994796 -2.21717e-20)
(0.890189 0.962109 0)
(0.803718 0.924812 -1.66644e-21)
(0.7019 0.879733 -1.03108e-21)
(0.595638 0.827146 0)
(0.50146 0.77115 0)
(0.422025 0.711863 5.57105e-20)
(0.353801 0.653181 -2.81153e-20)
(0.294448 0.592745 -4.79464e-20)
(0.240235 0.510397 0)
(0.144114 0.36432 3.91743e-20)
(0.0383429 0.47123 -4.69658e-20)
(0.0492536 1.76064 -2.58644e-20)
(0.082067 2.74153 -3.14772e-20)
(0.23055 0.218389 -4.52795e-20)
(1.02277 0.962972 -1.20563e-19)
(1.14512 1.09426 3.70039e-20)
(1.12637 1.09681 3.51834e-20)
(1.07743 1.0739 0)
(1.02019 1.04715 -7.3188e-20)
(0.95565 1.01761 -3.75037e-20)
(0.880951 0.985475 1.5842e-21)
(0.79414 0.9493 -1.83919e-22)
(0.690962 0.906296 2.32566e-20)
(0.581639 0.856482 4.57098e-20)
(0.482609 0.803606 4.10348e-20)
(0.396683 0.745446 5.44878e-20)
(0.321135 0.688109 -6.37638e-20)
(0.248941 0.637154 -7.04479e-20)
(0.170935 0.559017 0)
(0.0804071 0.838765 0)
(0.129632 2.4602 2.05592e-20)
(0.13765 3.15906 0)
(0.136678 3.36883 5.18495e-20)
(0.231931 0.223086 0)
(1.01434 0.982954 0)
(1.13451 1.1155 0)
(1.11601 1.11789 9.84438e-21)
(1.06748 1.09509 4.93703e-20)
(1.01051 1.06844 -5.61615e-20)
(0.946785 1.03923 -2.70084e-20)
(0.872161 1.00782 1.8419e-21)
(0.785149 0.973038 -8.32122e-21)
(0.680841 0.93253 -2.09278e-21)
(0.568738 0.886183 8.30555e-20)
(0.465179 0.837474 -4.78536e-21)
(0.372684 0.781939 6.13517e-21)
(0.291774 0.723052 9.03895e-21)
(0.213543 0.688395 5.55287e-22)
(0.141126 0.944975 3.13981e-22)
(0.179216 2.59275 -9.9099e-20)
(0.199782 3.26866 -3.78994e-20)
(0.181603 3.42344 1.86611e-20)
(0.163054 3.44922 -1.96488e-20)
(0.153536 0.167799 2.67836e-20)
(1.00019 1.00475 0)
(1.12391 1.13523 -7.28243e-20)
(1.1062 1.1376 -9.16069e-20)
(1.05803 1.11514 1.02972e-19)
(1.00155 1.08872 5.96323e-20)
(0.938136 1.05968 3.19427e-20)
(0.86383 1.02917 -3.31326e-20)
(0.776836 0.996058 1.01393e-20)
(0.671843 0.958253 0)
(0.557505 0.915856 3.63537e-20)
(0.449991 0.871891 -3.06824e-20)
(0.350874 0.822852 0)
(0.266403 0.763365 8.11414e-21)
(0.199176 0.879566 1.9807e-20)
(0.186177 2.25273 -2.3744e-20)
(0.267321 3.30658 2.71865e-20)
(0.245079 3.44613 1.33594e-20)
(0.2046 3.47104 1.56322e-20)
(0.177538 3.48174 2.03293e-20)
(0.263893 0.256633 -5.2244e-20)
(0.978762 1.00923 0)
(1.10443 1.15633 7.54395e-20)
(1.09263 1.16726 9.57778e-20)
(1.04315 1.1446 -1.07177e-19)
(0.987051 1.11879 -6.42164e-20)
(0.923691 1.09118 -4.96828e-20)
(0.849747 1.06228 -2.44914e-21)
(0.762481 1.03209 -1.63996e-20)
(0.655913 0.999216 6.49679e-21)
(0.537681 0.964748 1.48087e-21)
(0.424038 0.929834 2.34623e-20)
(0.315018 0.897497 4.95864e-21)
(0.243966 1.00571 -7.03286e-21)
(0.273673 2.16166 -1.64442e-20)
(0.34243 3.30852 1.23515e-20)
(0.329944 3.48662 -1.12158e-20)
(0.288358 3.51084 -6.582e-21)
(0.246307 3.53924 -1.56654e-23)
(0.187947 3.53038 -3.22596e-22)
(0.252042 0.253756 0)
(0.974049 1.02838 2.00029e-20)
(1.09548 1.17662 -1.49289e-20)
(1.08248 1.18731 -1.06712e-20)
(1.03361 1.16474 -7.03206e-20)
(0.978114 1.13919 6.26529e-20)
(0.915058 1.11189 3.35344e-20)
(0.841738 1.0841 -2.60101e-21)
(0.754913 1.05585 2.09913e-20)
(0.648137 1.02635 -2.85907e-21)
(0.528469 0.997738 -4.77002e-20)
(0.412091 0.969536 3.29971e-21)
(0.306291 0.961971 -4.27732e-21)
(0.29097 1.40294 -5.69919e-21)
(0.38065 2.99445 4.02067e-21)
(0.418954 3.47974 5.07489e-22)
(0.366021 3.55574 -4.29035e-21)
(0.324074 3.57851 -8.51439e-21)
(0.265914 3.60171 1.49455e-20)
(0.201488 3.59398 6.47558e-21)
(0.236337 0.249518 4.95836e-20)
(0.96797 1.04953 1.33847e-19)
(1.08586 1.19841 -4.2436e-20)
(1.07199 1.20864 -4.03999e-20)
(1.02374 1.18597 0)
(0.968867 1.16044 9.18555e-20)
(0.906427 1.13349 5.13045e-20)
(0.834055 1.10673 -2.76765e-21)
(0.747994 1.08045 2.16566e-21)
(0.641632 1.0547 7.18511e-21)
(0.521504 1.03224 -1.53434e-20)
(0.404083 1.01212 -2.26297e-20)
(0.316139 1.0668 -2.75589e-20)
(0.371401 1.98354 2.89874e-20)
(0.479791 3.35636 1.30586e-20)
(0.473577 3.55951 0)
(0.411803 3.60779 0)
(0.364803 3.65357 1.41379e-20)
(0.287733 3.71746 0)
(0.212269 3.68306 3.26419e-20)
(0.224661 0.248906 -7.20808e-20)
(0.959604 1.07094 -1.11014e-19)
(1.07481 1.22104 0)
(1.06037 1.23055 1.07242e-21)
(1.01279 1.20752 -6.83457e-20)
(0.958703 1.18187 1.36497e-19)
(0.897256 1.15529 3.45927e-20)
(0.826109 1.12944 -3.52281e-21)
(0.741183 1.10513 2.48979e-20)
(0.63589 1.08349 -1.12894e-21)
(0.516006 1.06718 0)
(0.400387 1.05706 0)
(0.350322 1.24072 -1.94427e-20)
(0.471667 2.63478 5.41526e-21)
(0.571328 3.50284 -3.81621e-21)
(0.523302 3.61004 0)
(0.476875 3.66924 3.71406e-20)
(0.406388 3.74891 -5.65996e-20)