/*--------------------------------*- C++ -*----------------------------------*\
  =========                 |
  \\      /  F ield         | OpenFOAM: The Open Source CFD Toolbox
   \\    /   O peration     | Website:  https://openfoam.org
    \\  /    A nd           | Version:  6
     \\/     M anipulation  |
\*---------------------------------------------------------------------------*/
FoamFile
{
    version     2.0;
    format      ascii;
    class       volVectorField;
    location    "11.2";
    object      U;
}
// * * * * * * * * * * * * * * * * * * * * * * * * * * * * * * * * * * * * * //

dimensions      [0 1 -1 0 0 0 0];

internalField   nonuniform List<vector> 
8800
(
(0.9872 -0.0766332 0)
(1.0019 -0.055132 0)
(0.999736 -0.0284083 0)
(0.999954 -0.0148532 0)
(0.99989 -0.0082534 0)
(0.999934 -0.00493068 0)
(0.999968 -0.00298382 0)
(1.00001 -0.00171822 0)
(1.00003 -0.000828558 0)
(1.00004 -0.00013246 0)
(1.00003 0.000546418 0)
(1.00002 0.00132267 0)
(0.999989 0.00236562 0)
(0.999975 0.00390985 0)
(0.9999 0.00640024 0)
(0.999919 0.0110228 0)
(0.999936 0.02056 0)
(0.999172 0.0385657 0)
(1.00706 0.0724352 0)
(0.771235 0.0366539 0)
(0.363417 -0.0159559 0)
(1.04354 -0.076554 0)
(1.08432 -0.0700028 0)
(1.04487 -0.053368 0)
(1.02312 -0.0389883 0)
(1.01181 -0.0262242 0)
(1.00594 -0.0164628 0)
(1.00334 -0.00983577 0)
(1.00211 -0.00529135 0)
(1.00152 -0.00191747 0)
(1.00137 0.000878231 0)
(1.00174 0.00390947 0)
(1.00257 0.00770832 0)
(1.00435 0.0130952 0)
(1.00831 0.0211677 0)
(1.01653 0.032459 0)
(1.03238 0.0463177 0)
(1.0623 0.0610796 0)
(1.09179 0.0755629 0)
(0.839139 0.0563213 0)
(0.218056 -0.00233367 0)
(1.07698 -0.0495614 0)
(1.1005 -0.0472268 0)
(1.06457 -0.0387485 0)
(1.0395 -0.0318932 0)
(1.02353 -0.0246249 0)
(1.01365 -0.0174671 0)
(1.00788 -0.0112478 0)
(1.00497 -0.00589075 0)
(1.00401 -0.000807643 0)
(1.00422 0.00413974 0)
(1.00602 0.00922076 0)
(1.01019 0.0148443 0)
(1.01779 0.02149 0)
(1.03031 0.0286463 0)
(1.05049 0.0356514 0)
(1.0809 0.0427033 0)
(1.10742 0.0502358 0)
(0.944678 0.0410981 0)
(0.217768 0.00234561 0)
(0.177861 -0.000641176 0)
(1.02057 -0.0333254 0)
(1.10583 -0.0387494 0)
(1.07843 -0.0338481 0)
(1.05303 -0.0279965 0)
(1.03508 -0.0227725 0)
(1.02263 -0.0176895 0)
(1.01475 -0.0122037 0)
(1.01031 -0.00656234 0)
(1.0085 -0.000829379 0)
(1.00898 0.00484384 0)
(1.01191 0.010353 0)
(1.01789 0.0158777 0)
(1.02784 0.0209669 0)
(1.04296 0.0258785 0)
(1.06403 0.0313676 0)
(1.09442 0.0371224 0)
(1.09535 0.0389061 0)
(0.83354 0.0213098 0)
(0.177397 0.000653963 0)
(0.158822 -0.000414953 0)
(0.964904 -0.0227669 0)
(1.10452 -0.0308251 0)
(1.0866 -0.028274 0)
(1.06084 -0.0245274 0)
(1.04332 -0.0203475 0)
(1.03132 -0.0158024 0)
(1.02277 -0.0111368 0)
(1.01706 -0.00615471 0)
(1.01424 -0.00060096 0)
(1.0151 0.0050935 0)
(1.01923 0.0101623 0)
(1.02616 0.0147312 0)
(1.0362 0.0190988 0)
(1.05052 0.0232776 0)
(1.07175 0.0270788 0)
(1.10067 0.0305555 0)
(1.07371 0.0297322 0)
(0.754268 0.0123125 0)
(0.15813 0.000430523 0)
(0.147755 -0.000201491 0)
(0.917673 -0.0128165 0)
(1.09859 -0.0214492 0)
(1.09295 -0.021107 0)
(1.06514 -0.0187153 0)
(1.04618 -0.0164392 0)
(1.03317 -0.0135814 0)
(1.02464 -0.00983815 0)
(1.01938 -0.00540106 0)
(1.01711 -0.000262801 0)
(1.01754 0.00499106 0)
(1.02105 0.00958803 0)
(1.02771 0.0134334 0)
(1.03813 0.0164717 0)
(1.05368 0.018596 0)
(1.0768 0.0207831 0)
(1.10293 0.0224634 0)
(1.04795 0.0193734 0)
(0.701741 0.00594865 0)
(0.1468 0.000220551 0)
(0.143752 -9.78919e-06 0)
(0.887142 -0.0054613 0)
(1.08749 -0.0123962 0)
(1.09488 -0.0139489 0)
(1.06913 -0.0137124 0)
(1.05062 -0.0124987 0)
(1.03837 -0.0107749 0)
(1.02993 -0.0081533 0)
(1.02442 -0.00450184 0)
(1.02182 0.000120704 0)
(1.02232 0.00484272 0)
(1.02596 0.00875132 0)
(1.03256 0.0115416 0)
(1.04244 0.013306 0)
(1.0574 0.0146714 0)
(1.07981 0.0149058 0)
(1.10013 0.0144886 0)
(1.02402 0.0101594 0)
(0.675437 0.00218102 0)
(0.142461 3.17029e-05 0)
(0.14287 2.67465e-05 0)
(0.868845 -0.0028072 0)
(1.0752 -0.00867178 0)
(1.09191 -0.011894 0)
(1.06861 -0.0128326 0)
(1.0517 -0.0126275 0)
(1.04029 -0.010914 0)
(1.0327 -0.00809597 0)
(1.02778 -0.0042295 0)
(1.02531 0.000518935 0)
(1.02563 0.00529503 0)
(1.02873 0.00933952 0)
(1.03449 0.0122829 0)
(1.04356 0.0141932 0)
(1.05723 0.0145882 0)
(1.0779 0.0139423 0)
(1.09316 0.0117691 0)
(1.00489 0.00647008 0)
(0.662215 0.00106101 0)
(0.14117 -5.205e-07 0)
(0.142758 2.1243e-05 0)
(0.855769 -0.00166682 0)
(1.06057 -0.00710887 0)
(1.0858 -0.0121059 0)
(1.0678 -0.014014 0)
(1.05331 -0.0138383 0)
(1.04324 -0.0119937 0)
(1.03632 -0.00884313 0)
(1.03161 -0.00445509 0)
(1.02896 0.000918324 0)
(1.0292 0.00635181 0)
(1.03212 0.0108481 0)
(1.03729 0.0140869 0)
(1.04522 0.0159904 0)
(1.05676 0.0163619 0)
(1.07461 0.0153467 0)
(1.08203 0.0113388 0)
(0.987139 0.0048701 0)
(0.653866 0.000702694 0)
(0.140561 1.15381e-05 0)
(0.142751 1.62659e-05 0)
(0.846515 -0.000864392 0)
(1.04494 -0.00505282 0)
(1.07606 -0.010592 0)
(1.06627 -0.0138651 0)
(1.0547 -0.0139266 0)
(1.0468 -0.0121322 0)
(1.04088 -0.00873429 0)
(1.03652 -0.00414483 0)
(1.03396 0.00152577 0)
(1.03392 0.00732835 0)
(1.03629 0.0119291 0)
(1.04057 0.0151528 0)
(1.04681 0.0168883 0)
(1.05606 0.0169842 0)
(1.068 0.014744 0)
(1.06711 0.0095161 0)
(0.971403 0.00347064 0)
(0.648066 0.00053505 0)
(0.139931 2.3348e-05 0)
(0.142974 2.75872e-05 0)
(0.841485 -0.000119705 0)
(1.03305 -0.00243683 0)
(1.06628 -0.00640816 0)
(1.06234 -0.00932334 0)
(1.0556 -0.0101593 0)
(1.04968 -0.00908402 0)
(1.04464 -0.00644295 0)
(1.04061 -0.00249777 0)
(1.03805 0.00253041 0)
(1.0377 0.00754976 0)
(1.03951 0.0113367 0)
(1.04292 0.0137189 0)
(1.04761 0.0145947 0)
(1.05361 0.0138827 0)
(1.05957 0.0108802 0)
(1.0535 0.00635973 0)
(0.960285 0.00214616 0)
(0.644356 0.000374356 0)
(0.139384 2.22957e-05 0)
(0.143483 4.12943e-05 0)
(0.839776 0.000339717 0)
(1.02661 -0.000588206 0)
(1.05987 -0.00266805 0)
(1.05922 -0.00448995 0)
(1.05556 -0.00525114 0)
(1.05162 -0.00474679 0)
(1.04775 -0.00297697 0)
(1.04428 -4.49174e-05 0)
(1.04174 0.00380167 0)
(1.04097 0.00750505 0)
(1.04196 0.0100881 0)
(1.04419 0.0112002 0)
(1.04708 0.0110331 0)
(1.05021 0.00963697 0)
(1.05274 0.00715269 0)
(1.04422 0.0040268 0)
(0.953589 0.0014594 0)
(0.641902 0.000343974 0)
(0.138899 2.69025e-05 0)
(0.144181 4.7342e-05 0)
(0.840002 0.00059924 0)
(1.02405 0.000531994 0)
(1.0567 -0.000226388 0)
(1.05744 -0.000990044 0)
(1.0554 -0.0012739 0)
(1.05278 -0.000846876 0)
(1.04982 0.000422701 0)
(1.04682 0.00253026 0)
(1.04424 0.00525702 0)
(1.04295 0.00769104 0)
(1.04315 0.00901178 0)
(1.04417 0.00920737 0)
(1.04559 0.00845974 0)
(1.04701 0.00695972 0)
(1.04778 0.00499454 0)
(1.03841 0.00290243 0)
(0.949391 0.00126194 0)
(0.639823 0.000392104 0)
(0.138338 3.55847e-05 0)
(0.145046 5.72574e-05 0)
(0.841444 0.000851113 0)
(1.02382 0.00126097 0)
(1.05584 0.00130542 0)
(1.05707 0.00133061 0)
(1.05575 0.00159035 0)
(1.05385 0.00223831 0)
(1.05145 0.00338417 0)
(1.04871 0.00502576 0)
(1.04598 0.00695345 0)
(1.04412 0.00844347 0)
(1.04336 0.00898582 0)
(1.04345 0.00842831 0)
(1.04381 0.00728199 0)
(1.04422 0.0057925 0)
(1.04413 0.004163 0)
(1.03448 0.00260086 0)
(0.946201 0.00134045 0)
(0.637626 0.000486588 0)
(0.137621 4.72257e-05 0)
(0.14612 7.16748e-05 0)
(0.843769 0.00111106 0)
(1.02497 0.00188374 0)
(1.05646 0.0024582 0)
(1.05779 0.00305129 0)
(1.05674 0.00380683 0)
(1.05511 0.00479949 0)
(1.05291 0.00606707 0)
(1.05016 0.00754872 0)
(1.04711 0.00899382 0)
(1.04456 0.00977543 0)
(1.04302 0.00952528 0)
(1.04219 0.00861158 0)
(1.04181 0.00722617 0)
(1.0416 0.00568014 0)
(1.04108 0.00415614 0)
(1.03127 0.00276391 0)
(0.943178 0.00157376 0)
(0.635033 0.000612797 0)
(0.136696 6.11232e-05 0)
(0.147478 9.02747e-05 0)
(0.84696 0.00142941 0)
(1.02714 0.00254002 0)
(1.05813 0.00354222 0)
(1.05942 0.00460653 0)
(1.05838 0.00582802 0)
(1.05675 0.00722931 0)
(1.05445 0.00877172 0)
(1.05144 0.0103078 0)
(1.04784 0.0115064 0)
(1.04448 0.0117878 0)
(1.0421 0.0110346 0)
(1.04054 0.00965846 0)
(1.03955 0.00798959 0)
(1.03891 0.00627635 0)
(1.03811 0.00466647 0)
(1.02812 0.00321985 0)
(0.939864 0.00192402 0)
(0.63185 0.00077234 0)
(0.135515 7.78646e-05 0)
(0.149203 0.000115452 0)
(0.851145 0.00183717 0)
(1.03027 0.00332842 0)
(1.06072 0.00474757 0)
(1.06188 0.00626328 0)
(1.0607 0.00796306 0)
(1.05884 0.0098398 0)
(1.05621 0.0117783 0)
(1.05268 0.0135258 0)
(1.04829 0.0146422 0)
(1.04396 0.0145435 0)
(1.04069 0.013309 0)
(1.03841 0.0114727 0)
(1.03689 0.0094283 0)
(1.03588 0.00741993 0)
(1.03485 0.00557216 0)
(1.02464 0.00391603 0)
(0.935944 0.00239113 0)
(0.62788 0.000972574 0)
(0.134022 9.84521e-05 0)
(0.151421 0.000150094 0)
(0.856575 0.0023741 0)
(1.03446 0.0043247 0)
(1.06432 0.00618613 0)
(1.06527 0.00817789 0)
(1.0638 0.0104198 0)
(1.06153 0.0128761 0)
(1.05831 0.0153411 0)
(1.054 0.0174354 0)
(1.04854 0.0185854 0)
(1.04303 0.018161 0)
(1.03874 0.01642 0)
(1.0357 0.0140441 0)
(1.03364 0.0115104 0)
(1.03228 0.00907876 0)
(1.03102 0.00686032 0)
(1.02052 0.00486314 0)
(0.931132 0.00299503 0)
(0.622893 0.00122522 0)
(0.132144 0.000124404 0)
(0.1543 0.000197204 0)
(0.863632 0.00308114 0)
(1.04002 0.00559065 0)
(1.0692 0.00793993 0)
(1.06982 0.0104826 0)
(1.06795 0.0134319 0)
(1.06504 0.0166458 0)
(1.06092 0.0197424 0)
(1.0555 0.0223052 0)
(1.04864 0.0235648 0)
(1.04167 0.0228081 0)
(1.03619 0.0204771 0)
(1.03229 0.0174431 0)
(1.02963 0.0142856 0)
(1.02787 0.0112997 0)
(1.02635 0.00858499 0)
(1.01548 0.00611691 0)
(0.925108 0.00377532 0)
(0.616593 0.00154763 0)
(0.129786 0.000157939 0)
(0.158073 0.000260207 0)
(0.872846 0.00400552 0)
(1.04741 0.00720758 0)
(1.07575 0.010129 0)
(1.07589 0.0133625 0)
(1.07339 0.0172583 0)
(1.06958 0.0214352 0)
(1.06429 0.0253529 0)
(1.05736 0.0284815 0)
(1.04866 0.0298765 0)
(1.03985 0.0287172 0)
(1.03293 0.0256573 0)
(1.028 0.021804 0)
(1.02463 0.0178601 0)
(1.02241 0.0141777 0)
(1.02057 0.0108438 0)
(1.00921 0.00777344 0)
(0.917511 0.00479636 0)
(0.608612 0.00196235 0)
(0.126832 0.000201471 0)
(0.163089 0.000346935 0)
(0.884911 0.00524608 0)
(1.05705 0.00937255 0)
(1.08436 0.0130514 0)
(1.08383 0.0172209 0)
(1.08039 0.0222754 0)
(1.07543 0.0276095 0)
(1.06864 0.0325838 0)
(1.05972 0.0363749 0)
(1.04864 0.0378704 0)
(1.03754 0.0361655 0)
(1.02885 0.0321803 0)
(1.02268 0.0272975 0)
(1.01843 0.0223635 0)
(1.01561 0.0178111 0)
(1.01336 0.0137273 0)
(1.00139 0.00993073 0)
(0.907989 0.00613849 0)
(0.598555 0.00248799 0)
(0.12315 0.000254946 0)
(0.169885 0.000478307 0)
(0.900706 0.00706957 0)
(1.06939 0.012457 0)
(1.09538 0.0171316 0)
(1.094 0.0226215 0)
(1.08942 0.0291259 0)
(1.08291 0.0358641 0)
(1.07405 0.0419595 0)
(1.06254 0.0464143 0)
(1.04848 0.0479056 0)
(1.03458 0.0454382 0)
(1.02376 0.0402733 0)
(1.01607 0.0341059 0)
(1.01075 0.0279298 0)
(1.00717 0.0222756 0)
(1.00438 0.0172639 0)
(0.991666 0.012607 0)
(0.896221 0.00783288 0)
(0.586096 0.00314694 0)
(0.11859 0.000316791 0)
(0.17928 0.000690409 0)
(0.921537 0.00992476 0)
(1.08542 0.0169279 0)
(1.10962 0.0229164 0)
(1.10691 0.0300894 0)
(1.10066 0.0384094 0)
(1.09191 0.0467162 0)
(1.08024 0.0540233 0)
(1.06548 0.0591076 0)
(1.04782 0.0603848 0)
(1.03062 0.0568553 0)
(1.01731 0.0502137 0)
(1.00783 0.0424846 0)
(1.00123 0.0347889 0)
(0.996733 0.027747 0)
(0.993271 0.0215523 0)
(0.97966 0.0158311 0)
(0.881779 0.00989062 0)
(0.570779 0.00396106 0)
(0.112966 0.000396037 0)
(0.192537 0.00104591 0)
(0.949355 0.0144367 0)
(1.10657 0.0236025 0)
(1.12823 0.0315364 0)
(1.12335 0.0409426 0)
(1.11446 0.0513828 0)
(1.10245 0.0613954 0)
(1.08704 0.0698196 0)
(1.06818 0.0752064 0)
(1.04626 0.0758247 0)
(1.02528 0.0708089 0)
(1.00915 0.0623679 0)
(0.997592 0.0528161 0)
(0.989463 0.0433547 0)
(0.983849 0.0346601 0)
(0.979552 0.0270127 0)
(0.9648 0.0199773 0)
(0.863857 0.0126114 0)
(0.551852 0.00504533 0)
(0.106093 0.000492745 0)
(0.211919 0.001703 0)
(0.987269 0.0217125 0)
(1.13473 0.0338548 0)
(1.15256 0.0445142 0)
(1.14421 0.0567895 0)
(1.13134 0.0696408 0)
(1.11477 0.0812887 0)
(1.09441 0.0903843 0)
(1.07048 0.0954291 0)
(1.04358 0.0947081 0)
(1.01837 0.087645 0)
(0.999082 0.0770489 0)
(0.985142 0.0654495 0)
(0.975156 0.0540461 0)
(0.96808 0.0435216 0)
(0.962598 0.0341861 0)
(0.94628 0.0255925 0)
(0.84141 0.0163475 0)
(0.528511 0.00654026 0)
(0.0976604 0.000630787 0)
(0.240972 0.00319683 0)
(1.04124 0.035199 0)
(1.17205 0.0516505 0)
(1.18356 0.0658867 0)
(1.16946 0.0811293 0)
(1.15069 0.0957767 0)
(1.12801 0.108027 0)
(1.10158 0.116676 0)
(1.07182 0.12034 0)
(1.03943 0.117367 0)
(1.00969 0.107609 0)
(0.987002 0.0945059 0)
(0.970415 0.0807004 0)
(0.958229 0.0672873 0)
(0.94926 0.0548938 0)
(0.942012 0.0437648 0)
(0.923352 0.0335409 0)
(0.813061 0.0218047 0)
(0.499693 0.00864082 0)
(0.0878659 0.000778984 0)
(0.281935 0.0103715 -1.29293e-21)
(1.1123 0.0630046 -8.2677e-22)
(1.218 0.0834485 1.48724e-22)
(1.21859 0.101453 0)
(1.19634 0.117804 -8.13644e-36)
(1.17004 0.132188 1.47259e-22)
(1.14028 0.143277 -4.36622e-22)
(1.10716 0.15005 0)
(1.07111 0.151249 1.28049e-35)
(1.03279 0.145325 -9.0366e-22)
(0.998043 0.132557 0)
(0.971456 0.116916 -1.23464e-21)
(0.951639 0.10103 -3.74698e-21)
(0.936574 0.0858571 -1.80484e-21)
(0.924884 0.0720152 -5.6373e-22)
(0.914782 0.059628 -3.40796e-22)
(0.892819 0.0483685 0)
(0.77624 0.0337589 2.46073e-22)
(0.463333 0.0166281 2.93174e-22)
(0.0781867 0.00272749 5.27189e-21)
(0.30616 0.0276905 -3.63182e-21)
(1.16941 0.109252 1.04532e-22)
(1.26001 0.132817 -1.5209e-22)
(1.25061 0.150604 0)
(1.22053 0.165189 -5.56635e-23)
(1.18685 0.177748 -2.83943e-22)
(1.15007 0.186968 -3.5636e-22)
(1.11025 0.191613 -1.8417e-21)
(1.0676 0.190393 0)
(1.0226 0.181792 3.82493e-21)
(0.981668 0.16653 4.11057e-21)
(0.949865 0.149023 1.29666e-21)
(0.925492 0.131829 5.03475e-21)
(0.906242 0.115752 7.35703e-21)
(0.89052 0.10122 0)
(0.876321 0.0887012 1.08889e-20)
(0.849223 0.0773362 1.59851e-20)
(0.735245 0.0593758 1.79766e-20)
(0.439646 0.0363791 -2.09306e-20)
(0.0760602 0.00667143 -3.88278e-22)
(0.299641 0.0452562 0)
(1.20225 0.168778 -1.19604e-21)
(1.29178 0.195004 0)
(1.27565 0.209698 1.51668e-21)
(1.23936 0.220569 0)
(1.19936 0.229586 9.82801e-23)
(1.15639 0.235463 5.83046e-22)
(1.11045 0.237008 -3.10652e-21)
(1.06176 0.232737 -3.08667e-22)
(1.01069 0.221134 1.883e-21)
(0.964248 0.203406 9.43441e-21)
(0.927893 0.184402 -5.23916e-23)
(0.899717 0.166596 -3.75321e-21)
(0.87714 0.150615 -7.1994e-21)
(0.858471 0.13682 8.72189e-21)
(0.841734 0.125245 -1.56644e-20)
(0.814703 0.114984 -2.14612e-21)
(0.714094 0.0954201 0)
(0.443714 0.0615957 6.09137e-23)
(0.0837404 0.0121878 0)
(0.287896 0.0597232 -3.21929e-20)
(1.21669 0.231481 1.28714e-20)
(1.3117 0.261632 6.51461e-21)
(1.29195 0.273328 -1.10178e-21)
(1.25132 0.280192 1.64125e-21)
(1.20662 0.285135 -5.67854e-22)
(1.15871 0.287098 1.04629e-21)
(1.1077 0.28492 0)
(1.05389 0.277169 -7.94879e-21)
(0.997581 0.262263 0)
(0.946485 0.241957 -4.8296e-21)
(0.906686 0.221467 -6.6052e-21)
(0.875991 0.203169 -4.17017e-21)
(0.851592 0.187371 -5.32292e-21)
(0.831718 0.174103 0)
(0.814447 0.163334 0)
(0.789334 0.153532 -1.42872e-20)
(0.699216 0.132719 2.86418e-21)
(0.445008 0.0867835 -1.6877e-21)
(0.0873403 0.0175467 -1.99902e-21)
(0.276973 0.0725753 2.43503e-20)
(1.21914 0.293563 0)
(1.32213 0.328988 -1.87109e-20)
(1.30037 0.338075 -4.40152e-21)
(1.25682 0.341095 -2.89304e-21)
(1.20887 0.341903 0)
(1.1572 0.339964 3.82163e-22)
(1.10217 0.333938 3.03806e-21)
(1.04411 0.32253 3.65902e-21)
(0.983555 0.304139 9.26219e-21)
(0.928827 0.281035 0)
(0.886438 0.258842 -1.43006e-20)
(0.854087 0.239659 -9.03532e-21)
(0.828704 0.223535 -5.42316e-21)
(0.808297 0.210309 3.51584e-20)
(0.790991 0.199776 4.29975e-21)
(0.767742 0.190018 2.0595e-20)
(0.684564 0.166785 -9.99476e-20)
(0.440349 0.109095 5.98632e-20)
(0.0876013 0.0221541 -7.31665e-20)
(0.267881 0.0840685 2.60914e-20)
(1.21435 0.353122 -4.66975e-21)
(1.32555 0.39499 3.38532e-21)
(1.30265 0.401923 8.82082e-21)
(1.25704 0.401287 5.00976e-21)
(1.20659 0.398348 3.25373e-22)
(1.1521 0.392647 -5.03222e-22)
(1.09391 0.382928 2.6766e-21)
(1.03239 0.36783 -7.92912e-21)
(0.968158 0.345905 0)
(0.910284 0.3198 -6.20556e-21)
(0.865858 0.295492 -2.95274e-22)
(0.832379 0.274936 -1.00474e-20)
(0.806486 0.25798 0)
(0.786044 0.244252 -7.64475e-21)
(0.769137 0.233357 -1.85448e-20)
(0.747322 0.222927 5.12428e-20)
(0.668447 0.196828 -5.13559e-20)
(0.431764 0.12835 7.34898e-20)
(0.0861589 0.0260511 -7.74591e-20)
(0.260724 0.0947199 -1.20078e-22)
(1.20524 0.409485 5.82406e-21)
(1.32372 0.458561 1.65184e-20)
(1.30024 0.463788 -5.56359e-21)
(1.2532 0.459856 2.92948e-21)
(1.20087 0.453507 0)
(1.14416 0.444327 6.52108e-22)
(1.0833 0.431114 -2.47108e-21)
(1.01884 0.412513 -3.78458e-21)
(0.951519 0.387007 0)
(0.891069 0.357695 -6.11536e-21)
(0.845035 0.33093 -8.36098e-21)
(0.810749 0.308584 1.09497e-20)
(0.784647 0.290338 -6.94337e-21)
(0.764369 0.275645 -3.35325e-20)
(0.747916 0.263961 2.05519e-20)
(0.727116 0.252531 6.48745e-21)
(0.651029 0.223376 0)
(0.420879 0.145072 -7.11368e-20)
(0.0837854 0.0293132 -2.64402e-21)
(0.255222 0.104862 4.34584e-21)
(1.19365 0.462507 -6.76e-21)
(1.31808 0.519099 -9.05572e-21)
(1.29432 0.52303 -1.70073e-20)
(1.24628 0.51623 1.47377e-20)
(1.19255 0.506874 -6.89268e-21)
(1.13405 0.494547 -1.38122e-21)
(1.07105 0.478101 -3.76517e-21)
(1.00415 0.45619 3.19513e-21)
(0.93413 0.427166 -2.24826e-20)
(0.871245 0.394504 -7.37794e-21)
(0.823706 0.364998 0)
(0.788736 0.340501 1.19439e-20)
(0.762508 0.320571 1.46817e-20)
(0.74247 0.30457 1.7998e-20)
(0.726482 0.291776 -2.23869e-20)
(0.706474 0.279097 -6.74458e-21)
(0.632511 0.246867 8.04605e-21)
(0.408385 0.159482 0)
(0.0807843 0.0319605 -5.76269e-21)
(0.251024 0.114582 -5.08477e-20)
(1.18088 0.512369 3.12767e-20)
(1.30962 0.576364 9.99683e-21)
(1.28578 0.579322 -1.31701e-20)
(1.23703 0.570048 9.0568e-21)
(1.18228 0.558032 -7.70292e-22)
(1.12242 0.542905 1.19248e-21)
(1.05765 0.523568 -1.44293e-21)
(0.988516 0.498585 -6.64798e-21)
(0.915975 0.466216 2.78039e-23)
(0.850758 0.430136 -2.21807e-20)
(0.801745 0.397663 2.10303e-20)
(0.766109 0.370681 -1.33295e-20)
(0.739785 0.34874 1.64812e-20)
(0.72001 0.331116 0)
(0.704491 0.316972 -1.2155e-20)
(0.685164 0.302824 -2.68428e-22)
(0.612982 0.267411 -3.51314e-20)
(0.394512 0.171684 -5.23084e-21)
(0.0772355 0.0339295 0)
(0.24789 0.124053 0)
(1.16765 0.559312 3.38774e-20)
(1.29918 0.630407 2.36244e-20)
(1.2754 0.632587 1.50203e-20)
(1.22617 0.621141 8.54734e-21)
(1.17063 0.606777 0)
(1.10965 0.589175 2.15375e-21)
(1.04335 0.567264 -2.55552e-22)
(0.972219 0.539578 1.40617e-20)
(0.897282 0.504094 -2.82122e-21)
(0.82976 0.464644 -1.6205e-20)
(0.779156 0.429033 1.06072e-20)
(0.742759 0.399278 -3.94735e-22)
(0.716276 0.374989 1.74128e-20)
(0.696745 0.355449 1.12683e-20)
(0.681705 0.339722 -2.64572e-20)
(0.66297 0.323885 3.20459e-20)
(0.59224 0.285066 9.62488e-21)
(0.3792 0.18155 4.01148e-20)
(0.0730696 0.035165 -1.08577e-19)
(0.245646 0.133357 -1.31694e-20)
(1.15446 0.60349 1.97337e-20)
(1.28739 0.681246 -1.50223e-20)
(1.26371 0.682795 -1.76837e-20)
(1.21413 0.669433 0)
(1.15802 0.652977 6.82328e-21)
(1.09616 0.633233 -5.89161e-21)
(1.0286 0.609105 2.16592e-21)
(0.955672 0.579054 0)
(0.878256 0.5408 -4.28003e-20)
(0.808345 0.498137 4.40774e-20)
(0.755991 0.459265 0)
(0.718627 0.426493 1.57791e-20)
(0.691857 0.399532 -4.03284e-22)
(0.672538 0.377765 -3.58154e-20)
(0.657936 0.360144 1.40834e-20)
(0.639751 0.342437 0)
(0.57024 0.29989 5.21463e-20)
(0.362382 0.189083 0)
(0.0683466 0.0357517 -5.17683e-20)
(0.244074 0.142485 1.47121e-20)
(1.1416 0.645077 2.27171e-20)
(1.27471 0.728926 -1.57087e-20)
(1.25116 0.729962 0)
(1.20138 0.714918 1.22915e-20)
(1.14489 0.696647 0)
(1.08237 0.675038 8.75818e-21)
(1.01372 0.649036 3.09739e-22)
(0.939102 0.616975 1.80333e-21)
(0.859214 0.576336 -2.11212e-20)
(0.786702 0.530695 4.32917e-21)
(0.732338 0.488583 0)
(0.693705 0.452567 -3.36714e-20)
(0.666382 0.422596 4.19394e-22)
(0.647162 0.398291 0)
(0.633021 0.378434 4.89082e-22)
(0.615408 0.358508 4.72743e-20)
(0.54688 0.31192 -4.57471e-20)
(0.343997 0.194181 1.36008e-20)
(0.0630288 0.0355655 0)
(0.242791 0.151322 0)
(1.12919 0.684211 2.54948e-20)
(1.26155 0.773542 1.86246e-20)
(1.23812 0.77414 -4.25492e-22)
(1.18826 0.75762 7.89521e-21)
(1.13153 0.737786 1.63609e-20)
(1.0685 0.714595 -2.7104e-21)
(0.998954 0.68704 -6.40826e-22)
(0.922798 0.653335 9.32494e-21)
(0.840541 0.610676 -3.30045e-20)
(0.765103 0.562407 -6.39131e-22)
(0.708297 0.517172 -1.39365e-20)
(0.667926 0.477766 5.52143e-20)
(0.639691 0.444496 -5.08628e-22)
(0.620437 0.417074 -2.83544e-20)
(0.606978 0.394745 -5.16748e-20)
(0.589895 0.372184 0)
(0.521919 0.321173 0)
(0.323872 0.196735 1.49784e-20)
(0.0571194 0.0345549 -8.86043e-21)
(0.241934 0.160002 1.84014e-20)
(1.11739 0.720697 -5.58313e-20)
(1.24818 0.815227 -1.99505e-20)
(1.22486 0.815414 0)
(1.175 0.797609 -3.0261e-22)
(1.11816 0.776443 2.01802e-20)
(1.05479 0.751927 -1.01082e-20)
(0.984489 0.723105 -1.26511e-21)
(0.906962 0.688159 1.05718e-20)
(0.822349 0.643946 -2.57175e-20)
(0.743698 0.593518 -3.7379e-20)
(0.683936 0.545262 3.72136e-20)
(0.641352 0.502347 0)
(0.611887 0.465455 -1.2817e-20)
(0.592453 0.434525 -3.11611e-20)
(0.579371 0.409312 -3.75606e-20)
(0.562522 0.383669 -4.56378e-20)
(0.494729 0.327577 1.37196e-20)
(0.301701 0.196378 -8.08937e-21)
(0.050588 0.0326768 1.0754e-22)
(0.241061 0.16831 0)
(1.10616 0.755116 0)
(1.23481 0.854118 4.89975e-22)
(1.21158 0.853916 0)
(1.16183 0.835 -3.01646e-20)
(1.105 0.812705 -1.81861e-20)
(1.04142 0.787081 0)
(0.970506 0.757253 -8.64251e-22)
(0.891703 0.721431 1.51263e-20)
(0.804751 0.676181 -5.8996e-20)
(0.72274 0.624009 0)
(0.659498 0.57302 -2.3883e-20)
(0.614437 0.526533 -6.20541e-22)
(0.583344 0.485798 -5.12255e-22)
(0.563079 0.451212 3.34264e-20)
(0.549823 0.42212 -6.73491e-23)
(0.532953 0.392756 -9.94594e-20)
(0.465152 0.330893 3.00329e-20)
(0.277303 0.192903 8.96432e-21)
(0.0434429 0.0298858 0)
(0.240173 0.176181 -6.8131e-20)
(1.09528 0.78745 -3.44202e-20)
(1.22157 0.890367 -5.04767e-20)
(1.19845 0.889782 6.91356e-20)
(1.14889 0.869887 -5.70216e-20)
(1.09218 0.846641 0)
(1.02851 0.820118 -9.34157e-21)
(0.957137 0.789535 1.47677e-21)
(0.877198 0.75315 7.44383e-22)
(0.788017 0.707324 4.57838e-21)
(0.702547 0.653887 4.70962e-20)
(0.635498 0.60068 -8.20237e-21)
(0.587316 0.550928 -3.42451e-20)
(0.553799 0.50615 -1.5295e-20)
(0.531953 0.467016 1.86236e-20)
(0.51841 0.433873 -5.57255e-23)
(0.501329 0.399724 2.74114e-20)
(0.432839 0.330735 -6.53085e-20)
(0.250109 0.185724 7.83567e-20)
(0.0356661 0.0261121 1.14943e-20)
(0.239074 0.183622 2.50801e-20)
(1.08476 0.817801 -1.88484e-20)
(1.20855 0.924112 1.16903e-21)
(1.18556 0.923154 3.93075e-20)
(1.13628 0.902401 1.34677e-20)
(1.07978 0.878331 3.67644e-20)
(1.01618 0.851099 -4.35147e-21)
(0.94449 0.820011 7.84995e-21)
(0.86361 0.78335 -1.23075e-20)
(0.772265 0.737396 -3.27765e-20)
(0.683263 0.683399 0)
(0.611836 0.628614 -3.67926e-20)
(0.559204 0.576202 4.97415e-20)
(0.522211 0.526972 0)
(0.498531 0.482635 -3.99575e-20)
(0.484084 0.444081 2.47999e-20)
(0.466978 0.404728 -2.97232e-20)
(0.397354 0.327316 -3.60243e-20)
(0.2198 0.174686 -6.40707e-20)
(0.027342 0.0213565 -5.0685e-20)
(0.238116 0.190696 -2.76342e-20)
(1.07446 0.846195 2.01822e-20)
(1.19583 0.955484 4.74943e-20)
(1.17302 0.954151 5.42373e-20)
(1.12407 0.93265 -2.82144e-20)
(1.06788 0.907874 2.57166e-20)
(1.00446 0.880068 -1.35179e-20)
(0.932646 0.848682 1.07595e-20)
(0.85099 0.812069 -6.0433e-21)
(0.757566 0.766433 3.19283e-20)
(0.664807 0.712564 1.00595e-19)
(0.588757 0.656732 0)
(0.530933 0.601706 0)
(0.489093 0.548365 -1.77098e-20)
(0.462601 0.499059 0)
(0.446676 0.453597 5.41366e-20)
(0.429248 0.406227 6.52458e-20)
(0.358625 0.318873 0)
(0.187424 0.159403 0)
(0.0190275 0.0158795 5.55178e-20)
(0.23686 0.197141 3.05582e-20)
(1.0644 0.872759 2.43755e-20)
(1.18345 0.984621 3.41993e-20)
(1.16087 0.98292 -4.86594e-20)
(1.1123 0.960749 -3.16443e-20)
(1.05652 0.935357 -3.44435e-20)
(0.993402 0.907096 2.02917e-20)
(0.921605 0.875575 1.39124e-22)
(0.839369 0.839259 -9.59138e-22)
(0.744069 0.794359 -1.24667e-21)
(0.647655 0.741047 5.11154e-20)
(0.56689 0.685009 0)
(0.503357 0.628292 5.02609e-20)
(0.455292 0.571542 3.73693e-20)
(0.424262 0.516639 9.5274e-20)
(0.404764 0.462868 2.92134e-20)
(0.386192 0.404158 -3.63085e-20)
(0.316309 0.303054 -2.15317e-20)
(0.155596 0.139039 0)
(0.0121989 0.0102862 6.07359e-20)
(0.235783 0.203406 -6.74134e-20)
(1.05456 0.897673 0)
(1.17146 1.01165 3.83597e-20)
(1.14915 1.00957 -4.00036e-20)
(1.10102 0.986804 3.60755e-20)
(1.04571 0.960873 5.07565e-20)
(0.983015 0.932252 -4.79085e-20)
(0.911369 0.90074 1.16275e-22)
(0.82871 0.864915 0)
(0.731853 0.82113 -3.10345e-20)
(0.631972 0.769004 -1.06816e-19)
(0.546208 0.713263 5.07189e-21)
(0.476953 0.655719 6.83252e-20)
(0.421814 0.597267 0)
(0.383419 0.53822 6.41307e-20)
(0.357219 0.474257 0)
(0.3333 0.397383 0)
(0.267366 0.271867 -2.41495e-20)
(0.135865 0.103978 0)
(0.0247447 0.00917336 1.64663e-20)
(0.234344 0.208999 -7.37931e-20)
(1.0449 0.920929 0)
(1.15984 1.03679 6.23518e-20)
(1.1378 1.03435 0)
(1.09018 1.01106 -1.96996e-20)
(1.03539 0.984688 0)
(0.973213 0.955817 -3.67221e-21)
(0.901846 0.924492 -2.09677e-21)
(0.818934 0.889385 5.19278e-22)
(0.720659 0.8471 -3.14151e-20)
(0.617553 0.796799 2.87217e-21)
(0.526898 0.742328 4.17803e-20)
(0.451473 0.684772 6.62155e-20)
(0.388715 0.625514 9.39372e-21)
(0.340008 0.564216 4.99772e-20)
(0.302218 0.492363 0)
(0.260699 0.391387 7.92547e-20)
(0.192901 0.216196 -4.77519e-20)
(0.0686436 0.0983623 5.58683e-20)
(-0.0299799 0.394814 -6.63968e-20)
(0.23288 0.214292 6.02761e-20)
(1.0353 0.942656 9.30953e-20)
(1.14849 1.06036 0)
(1.12671 1.05764 9.42438e-22)
(1.07962 1.03404 5.36918e-20)
(1.02533 1.00741 -9.93952e-20)
(0.963757 0.978499 -2.15681e-20)
(0.892744 0.947678 0)
(0.809688 0.913718 -8.2819e-22)
(0.710137 0.873507 -1.148e-21)
(0.603744 0.825942 0)
(0.507938 0.77378 0)
(0.425724 0.716913 5.8036e-20)
(0.354777 0.659188 -2.91474e-20)
(0.293026 0.600923 -4.9506e-20)
(0.238676 0.525113 0)
(0.149804 0.393874 4.0471e-20)
(0.0452741 0.482718 -4.87892e-20)
(0.0509782 1.73208 -2.70268e-20)
(0.0852364 2.72769 -3.2765e-20)
(0.231139 0.218956 -4.43029e-20)
(1.02582 0.963039 -1.17751e-19)
(1.13739 1.08236 3.61003e-20)
(1.11589 1.07935 3.43323e-20)
(1.06938 1.05557 0)
(1.01559 1.02881 -7.14918e-20)
(0.954792 1.00002 -3.65721e-20)
(0.88419 0.969885 1.51605e-21)
(0.801165 0.93737 -5.64553e-23)
(0.700528 0.899738 2.55001e-20)
(0.59101 0.855651 4.85325e-20)
(0.490131 0.806956 4.33032e-20)
(0.401224 0.751949 5.69244e-20)
(0.322493 0.695549 -6.62662e-20)
(0.249213 0.646481 -7.27433e-20)
(0.173483 0.579344 0)
(0.0848452 0.842579 0)
(0.134862 2.43751 2.12938e-20)
(0.144204 3.15147 0)
(0.142939 3.36557 5.39195e-20)
(0.232264 0.223373 0)
(1.0166 0.982291 0)
(1.12629 1.10265 0)
(1.10515 1.09929 9.60511e-21)
(1.05925 1.07548 4.82334e-20)
(1.00597 1.04876 -5.49311e-20)
(0.946228 1.02028 -2.63801e-20)
(0.876104 0.991007 1.77434e-21)
(0.793277 0.960184 -7.25443e-21)
(0.691826 0.92554 -2.08146e-21)
(0.579579 0.885818 8.90026e-20)
(0.473719 0.841665 -5.06082e-21)
(0.378048 0.790016 6.45678e-21)
(0.293432 0.731944 9.40395e-21)
(0.216024 0.700033 5.33407e-22)
(0.14484 0.948224 3.17603e-22)
(0.184209 2.55968 -1.01931e-19)
(0.208413 3.26464 -3.90894e-20)
(0.189844 3.42235 1.9315e-20)
(0.170561 3.44913 -2.03732e-20)
(0.152847 0.167413 2.61932e-20)
(1.00129 1.00329 0)
(1.11519 1.12149 -7.10311e-20)
(1.09492 1.11786 -8.9406e-20)
(1.04959 1.09424 1.00623e-19)
(0.997018 1.06765 5.83437e-20)
(0.937865 1.03932 3.12409e-20)
(0.868494 1.01107 -3.22553e-20)
(0.78613 0.982232 9.25252e-21)
(0.684288 0.950929 0)
(0.569854 0.916053 3.94606e-20)
(0.459869 0.877044 -3.27648e-20)
(0.35736 0.83217 0)
(0.26846 0.774277 8.50068e-21)
(0.203557 0.885186 2.05942e-20)
(0.187996 2.19474 -2.4564e-20)
(0.276536 3.29942 2.80877e-20)
(0.254961 3.44533 1.38291e-20)
(0.213757 3.47194 1.61749e-20)
(0.1859 3.48323 2.10774e-20)
(0.264046 0.256543 -5.09953e-20)
(0.978561 1.0064 0)
(1.09494 1.1407 7.35495e-20)
(1.08073 1.14549 9.34707e-20)
(1.03456 1.12154 -1.04763e-19)
(0.982812 1.09542 -6.2898e-20)
(0.924509 1.06851 -4.87259e-20)
(0.8563 1.042 -2.38679e-21)
(0.774514 1.01669 -1.55186e-20)
(0.671764 0.991524 8.74074e-21)
(0.553594 0.966245 1.66544e-21)
(0.435349 0.937326 2.57027e-20)
(0.32356 0.908374 5.35287e-21)
(0.248806 1.00457 -7.44321e-21)
(0.283529 2.12225 -1.72324e-20)
(0.353726 3.29787 1.2951e-20)
(0.343648 3.48638 -1.17109e-20)
(0.300385 3.51295 -6.84575e-21)
(0.25776 3.54262 -4.3415e-23)
(0.196915 3.53352 -3.36245e-22)
(0.251897 0.253417 0)
(0.973201 1.02471 1.95183e-20)
(1.08537 1.15985 -1.45565e-20)
(1.07014 1.16415 -1.04094e-20)
(1.02477 1.14016 -6.87456e-20)
(0.973914 1.11415 6.13778e-20)
(0.916358 1.08752 3.29331e-20)
(0.849288 1.06215 -2.54311e-21)
(0.768595 1.03927 2.00667e-20)
(0.666436 1.01863 -2.92661e-21)
(0.547502 1.00033 -5.41817e-20)
(0.425773 0.979309 3.64915e-21)
(0.316346 0.971593 -4.7087e-21)
(0.297672 1.38985 -6.12684e-21)
(0.393809 2.95768 4.02645e-21)
(0.437094 3.47577 4.02472e-22)
(0.381508 3.55874 -4.35471e-21)
(0.337986 3.58281 -8.8709e-21)
(0.278579 3.60678 1.54951e-20)
(0.211526 3.59905 6.72582e-21)
(0.235835 0.248822 4.84172e-20)
(0.966373 1.04499 1.30547e-19)
(1.075 1.18032 -4.13528e-20)
(1.05905 1.18389 -3.94114e-20)
(1.01457 1.15964 0)
(0.964663 1.13351 9.0006e-20)
(0.908218 1.10714 5.04088e-20)
(0.842671 1.08289 -2.71332e-21)
(0.763607 1.06276 2.05815e-21)
(0.662601 1.0469 5.08176e-21)
(0.543213 1.03536 -1.87033e-20)
(0.420625 1.02415 -2.55762e-20)
(0.329508 1.0693 -3.15322e-20)
(0.381842 1.93974 3.26217e-20)
(0.497243 3.33785 1.53472e-20)
(0.498703 3.55729 0)
(0.431484 3.61232 0)
(0.380086 3.66291 1.47516e-20)
(0.300424 3.72608 0)
(0.222728 3.69049 3.39128e-20)
(0.22383 0.247869 -7.0349e-20)
(0.957133 1.0655 -1.08234e-19)
(1.06307 1.20147 0)
(1.04674 1.20402 1.02776e-21)
(1.00322 1.17921 -6.67788e-20)
(0.954465 1.1528 1.3375e-19)
(0.899552 1.12665 3.40135e-20)
(0.835956 1.10353 -3.46727e-21)
(0.759 1.08597 2.4274e-20)
(0.659423 1.07464 -1.02323e-21)
(0.539712 1.06977 0)
(0.417806 1.07045 0)
(0.364933 1.23074 -2.37934e-20)
(0.487405 2.56331 7.003e-21)
(0.595217 3.4929 -2.43717e-21)
(0.552458 3.61201 0)
(0.502365 3.67618 3.86441e-20)
(0.426939 3.76362 -5.96193e-20)