/*--------------------------------*- C++ -*----------------------------------*\
  =========                 |
  \\      /  F ield         | OpenFOAM: The Open Source CFD Toolbox
   \\    /   O peration     | Website:  https://openfoam.org
    \\  /    A nd           | Version:  6
     \\/     M anipulation  |
\*---------------------------------------------------------------------------*/
FoamFile
{
    version     2.0;
    format      ascii;
    class       volVectorField;
    location    "120";
    object      U;
}
// * * * * * * * * * * * * * * * * * * * * * * * * * * * * * * * * * * * * * //

dimensions      [0 1 -1 0 0 0 0];

internalField   nonuniform List<vector> 
8800
(
(0.987182 -0.0766653 0)
(1.00189 -0.0551906 0)
(0.999717 -0.0285489 0)
(1.00003 -0.0151452 0)
(1.00011 -0.00854872 0)
(1.00013 -0.00505277 0)
(1.00008 -0.00300655 0)
(1.00003 -0.00170374 0)
(0.99999 -0.000795455 0)
(1.00006 -7.40378e-05 0)
(0.999974 0.00066112 0)
(1.00004 0.0014218 0)
(1.00007 0.00242182 0)
(1.00007 0.0039961 0)
(1.00006 0.00663172 0)
(1.00006 0.0113718 0)
(0.999968 0.0208158 0)
(0.999179 0.0386704 0)
(1.0071 0.0724576 0)
(0.771215 0.0366618 0)
(0.363084 -0.0160159 0)
(1.04332 -0.0768089 0)
(1.08459 -0.0704355 0)
(1.04519 -0.0535288 0)
(1.0233 -0.0388803 0)
(1.01204 -0.0262029 0)
(1.00644 -0.0168381 0)
(1.0036 -0.0102987 0)
(1.00215 -0.0056305 0)
(1.00143 -0.0019644 0)
(1.00129 0.00136467 0)
(1.0017 0.00475338 0)
(1.00272 0.00865842 0)
(1.00469 0.0139821 0)
(1.00861 0.0216918 0)
(1.01658 0.0326576 0)
(1.03253 0.046568 0)
(1.0627 0.0616835 0)
(1.09186 0.0761084 0)
(0.83866 0.0565657 0)
(0.216887 -0.00242813 0)
(1.07593 -0.0501158 0)
(1.09989 -0.0482813 0)
(1.06466 -0.0404293 0)
(1.04007 -0.0335674 0)
(1.02395 -0.0260391 0)
(1.01414 -0.0184426 0)
(1.00857 -0.0116063 0)
(1.00558 -0.00572323 0)
(1.0043 -0.000293354 0)
(1.00466 0.00496513 0)
(1.00665 0.0103421 0)
(1.01064 0.0163935 0)
(1.01794 0.0234157 0)
(1.03053 0.0308762 0)
(1.05063 0.0378965 0)
(1.08038 0.0445744 0)
(1.10627 0.05138 0)
(0.942481 0.0416356 0)
(0.2161 0.00246361 0)
(0.175243 -0.000814387 0)
(1.01778 -0.0354531 0)
(1.10524 -0.0413302 0)
(1.07831 -0.0360049 0)
(1.05352 -0.0300624 0)
(1.03626 -0.0244741 0)
(1.02404 -0.0187244 0)
(1.01591 -0.0126201 0)
(1.01102 -0.00641021 0)
(1.00879 -5.73781e-05 0)
(1.00937 0.00621382 0)
(1.0127 0.0121927 0)
(1.01889 0.0179753 0)
(1.02874 0.0235436 0)
(1.04317 0.0288343 0)
(1.0637 0.0343016 0)
(1.09356 0.0402752 0)
(1.09337 0.0420198 0)
(0.826993 0.0229403 0)
(0.173915 0.000855785 0)
(0.154081 -0.000607948 0)
(0.956383 -0.0254144 0)
(1.10355 -0.0350535 0)
(1.08775 -0.0325604 0)
(1.06182 -0.0278953 0)
(1.0442 -0.0228522 0)
(1.03171 -0.0175752 0)
(1.02284 -0.0120104 0)
(1.01699 -0.00604438 0)
(1.0141 0.000449424 0)
(1.01477 0.00693089 0)
(1.01882 0.0127883 0)
(1.0258 0.0180178 0)
(1.03604 0.0229247 0)
(1.05058 0.0276678 0)
(1.07183 0.0321755 0)
(1.10003 0.0360913 0)
(1.06795 0.0341196 0)
(0.739222 0.0143512 0)
(0.152075 0.000655034 0)
(0.139759 -0.000463749 0)
(0.899643 -0.0190174 0)
(1.09596 -0.0299729 0)
(1.09587 -0.0290559 0)
(1.06939 -0.0253059 0)
(1.05095 -0.0211392 0)
(1.038 -0.016326 0)
(1.02885 -0.0109956 0)
(1.02269 -0.00521246 0)
(1.0195 0.00114698 0)
(1.0201 0.00748313 0)
(1.02426 0.0130844 0)
(1.03134 0.0179707 0)
(1.04178 0.0224218 0)
(1.05689 0.0263654 0)
(1.07909 0.0297964 0)
(1.10217 0.0323953 0)
(1.03569 0.0282434 0)
(0.672432 0.0102615 0)
(0.136919 0.000518102 0)
(0.129282 -0.00035779 0)
(0.850277 -0.0146376 0)
(1.08371 -0.0258034 0)
(1.10162 -0.0260558 0)
(1.07631 -0.0227436 0)
(1.05734 -0.0190633 0)
(1.04392 -0.0147651 0)
(1.03441 -0.00978506 0)
(1.02799 -0.00420117 0)
(1.02458 0.00198884 0)
(1.02502 0.00811847 0)
(1.02913 0.0134351 0)
(1.03629 0.0178958 0)
(1.04699 0.0217379 0)
(1.06249 0.0250095 0)
(1.08513 0.0279119 0)
(1.10116 0.0296277 0)
(1.00052 0.0237708 0)
(0.620299 0.00791256 0)
(0.125425 0.000421753 0)
(0.121319 -0.000276409 0)
(0.808431 -0.0114593 0)
(1.06863 -0.0221495 0)
(1.10526 -0.0233578 0)
(1.08265 -0.0204488 0)
(1.06326 -0.0169722 0)
(1.04956 -0.0129673 0)
(1.03975 -0.00831034 0)
(1.03303 -0.00298425 0)
(1.02934 0.00299898 0)
(1.02959 0.00888855 0)
(1.03364 0.0138484 0)
(1.04082 0.0178218 0)
(1.0516 0.0211525 0)
(1.06731 0.0240046 0)
(1.09028 0.0265975 0)
(1.09722 0.0274003 0)
(0.964889 0.0202835 0)
(0.578256 0.00639665 0)
(0.116224 0.000352509 0)
(0.115184 -0.000212335 0)
(0.773337 -0.00907278 0)
(1.05215 -0.0189195 0)
(1.10779 -0.020843 0)
(1.08863 -0.0182933 0)
(1.06885 -0.0149477 0)
(1.0549 -0.0110884 0)
(1.04488 -0.00662445 0)
(1.03788 -0.00152231 0)
(1.03389 0.00422226 0)
(1.03388 0.00982206 0)
(1.03779 0.0143959 0)
(1.04487 0.0179335 0)
(1.05561 0.0208727 0)
(1.0715 0.0233896 0)
(1.0941 0.0256245 0)
(1.09036 0.0255897 0)
(0.930071 0.0176181 0)
(0.54327 0.00537199 0)
(0.108584 0.000303347 0)
(0.110446 -0.000160414 0)
(0.744068 -0.00721051 0)
(1.03533 -0.0160413 0)
(1.10941 -0.0184543 0)
(1.09434 -0.0161962 0)
(1.07427 -0.012926 0)
(1.06005 -0.00913635 0)
(1.04982 -0.00477279 0)
(1.04257 0.000176469 0)
(1.03825 0.00569734 0)
(1.0379 0.010996 0)
(1.04156 0.0151986 0)
(1.04844 0.0183476 0)
(1.05911 0.0209379 0)
(1.07518 0.0231526 0)
(1.0966 0.0249932 0)
(1.08096 0.0241557 0)
(0.896598 0.0156266 0)
(0.513266 0.00466984 0)
(0.102018 0.000269598 0)
(0.106826 -0.000116844 0)
(0.719816 -0.0056977 0)
(1.01901 -0.0134417 0)
(1.11027 -0.0161267 0)
(1.09999 -0.0141219 0)
(1.07965 -0.0108436 0)
(1.06512 -0.00706025 0)
(1.05465 -0.00273363 0)
(1.04712 0.00212629 0)
(1.04241 0.00746991 0)
(1.04165 0.0124953 0)
(1.04498 0.0163493 0)
(1.0516 0.0191263 0)
(1.06217 0.0213784 0)
(1.0784 0.0233121 0)
(1.09768 0.0247196 0)
(1.06937 0.0231 0)
(0.864549 0.0141943 0)
(0.486764 0.00420055 0)
(0.0961803 0.000248262 0)
(0.10414 -7.86035e-05 0)
(0.699958 -0.00441728 0)
(1.00384 -0.0110514 0)
(1.11054 -0.0138229 0)
(1.10552 -0.0119843 0)
(1.08507 -0.00864429 0)
(1.07021 -0.00480402 0)
(1.05945 -0.000449398 0)
(1.05157 0.0043829 0)
(1.0464 0.0096039 0)
(1.04513 0.0143939 0)
(1.04806 0.017917 0)
(1.05437 0.020328 0)
(1.06481 0.0222481 0)
(1.08114 0.0239018 0)
(1.09765 0.0249609 0)
(1.05579 0.0224432 0)
(0.833708 0.0132402 0)
(0.462637 0.00391046 0)
(0.0908013 0.000236988 0)
(0.102274 -4.2943e-05 0)
(0.684042 -0.00328093 0)
(0.990275 -0.00879773 0)
(1.11044 -0.0114532 0)
(1.11093 -0.00969752 0)
(1.09061 -0.00626341 0)
(1.0754 -0.00230074 0)
(1.06429 0.0021528 0)
(1.05598 0.00702496 0)
(1.05025 0.0121802 0)
(1.04837 0.0167714 0)
(1.0508 0.0199766 0)
(1.05674 0.0220216 0)
(1.06701 0.023607 0)
(1.08334 0.0249615 0)
(1.09671 0.0255401 0)
(1.04035 0.0221957 0)
(0.803678 0.0126887 0)
(0.439985 0.00376107 0)
(0.0856698 0.00023362 0)
(0.10117 -7.52059e-06 0)
(0.671783 -0.00221774 0)
(0.978694 -0.00660403 0)
(1.11031 -0.00895961 0)
(1.11636 -0.00719931 0)
(1.09637 -0.00362218 0)
(1.08077 0.000532529 0)
(1.06925 0.00515926 0)
(1.06042 0.0101438 0)
(1.054 0.0152937 0)
(1.05139 0.0197226 0)
(1.05323 0.0226201 0)
(1.05874 0.024303 0)
(1.06879 0.0255448 0)
(1.08509 0.0265998 0)
(1.09437 0.0266365 0)
(1.02302 0.0223672 0)
(0.773966 0.0124961 0)
(0.418071 0.00372846 0)
(0.0806171 0.000236883 0)
(0.100824 2.9672e-05 0)
(0.66305 -0.00117066 0)
(0.969428 -0.00439545 0)
(1.11049 -0.00628045 0)
(1.12197 -0.00441511 0)
(1.10244 -0.000630434 0)
(1.08641 0.0037926 0)
(1.0744 0.00867241 0)
(1.06494 0.0138478 0)
(1.05771 0.0190574 0)
(1.05419 0.0233615 0)
(1.05533 0.0259683 0)
(1.06033 0.027287 0)
(1.07011 0.0281629 0)
(1.08626 0.0288769 0)
(1.09056 0.0282704 0)
(1.00369 0.0230047 0)
(0.744002 0.0126388 0)
(0.396256 0.00379938 0)
(0.0754994 0.000246029 0)
(0.101261 6.49009e-05 0)
(0.657845 -8.33997e-05 0)
(0.962794 -0.00209396 0)
(1.11135 -0.00334778 0)
(1.12793 -0.00125862 0)
(1.10892 0.00281479 0)
(1.09242 0.00759194 0)
(1.07984 0.0128136 0)
(1.06962 0.0182658 0)
(1.06139 0.023605 0)
(1.05681 0.0278218 0)
(1.05711 0.0301563 0)
(1.0615 0.0310982 0)
(1.07094 0.0315879 0)
(1.08656 0.0319205 0)
(1.08494 0.0305373 0)
(0.982082 0.0241491 0)
(0.713144 0.0131016 0)
(0.373952 0.00396332 0)
(0.0701901 0.000260079 0)
(0.102545 0.000121847 0)
(0.656328 0.00110011 0)
(0.959122 0.000376172 0)
(1.11328 -8.26641e-05 0)
(1.13444 0.00237167 0)
(1.11596 0.00683504 0)
(1.09894 0.012066 0)
(1.08567 0.0177313 0)
(1.07453 0.0235551 0)
(1.0651 0.0290973 0)
(1.05924 0.0332634 0)
(1.05855 0.0353354 0)
(1.06221 0.0358772 0)
(1.07124 0.0359597 0)
(1.08581 0.0358686 0)
(1.07723 0.0335266 0)
(0.957772 0.025839 0)
(0.680678 0.0138722 0)
(0.35061 0.00420945 0)
(0.0645801 0.000277886 0)
(0.104818 0.000171571 0)
(0.658516 0.00225567 0)
(0.958791 0.0031125 0)
(1.11674 0.00362905 0)
(1.14175 0.00659642 0)
(1.12372 0.0115758 0)
(1.10609 0.0173787 0)
(1.09199 0.0236056 0)
(1.07975 0.0299054 0)
(1.06888 0.0357235 0)
(1.06148 0.0398642 0)
(1.05964 0.0416518 0)
(1.06242 0.041788 0)
(1.07094 0.0414404 0)
(1.08382 0.0407846 0)
(1.06704 0.0373452 0)
(0.930182 0.0281189 0)
(0.645832 0.0149386 0)
(0.325721 0.00452546 0)
(0.0585833 0.000298064 0)
(0.108248 0.00023745 0)
(0.665252 0.00374438 0)
(0.962107 0.00609556 0)
(1.12221 0.00791244 0)
(1.1501 0.0115463 0)
(1.13238 0.0172217 0)
(1.11406 0.023737 0)
(1.09895 0.0306602 0)
(1.08535 0.0375472 0)
(1.07274 0.0437091 0)
(1.06353 0.0478332 0)
(1.06037 0.0493438 0)
(1.06209 0.0490248 0)
(1.07001 0.0482115 0)
(1.08058 0.0469095 0)
(1.05386 0.0421173 0)
(0.898545 0.0310191 0)
(0.607776 0.016273 0)
(0.298832 0.004892 0)
(0.0521411 0.000318525 0)
(0.113098 0.00032646 0)
(0.676928 0.00551484 0)
(0.969667 0.00962994 0)
(1.1302 0.0129422 0)
(1.15984 0.0174428 0)
(1.14219 0.0240159 0)
(1.12302 0.0314101 0)
(1.10667 0.0391802 0)
(1.09141 0.0467652 0)
(1.07671 0.0533208 0)
(1.06536 0.057408 0)
(1.0606 0.0586387 0)
(1.06119 0.0577955 0)
(1.06837 0.0564778 0)
(1.07596 0.0544109 0)
(1.03696 0.047944 0)
(0.861891 0.0345312 0)
(0.565642 0.0178176 0)
(0.26958 0.00527721 0)
(0.0452381 0.000336289 0)
(0.119739 0.00044526 0)
(0.69433 0.00773476 0)
(0.982283 0.0139358 0)
(1.14129 0.0189492 0)
(1.17139 0.0245616 0)
(1.15346 0.0322866 0)
(1.13321 0.0407562 0)
(1.11529 0.049534 0)
(1.09798 0.057911 0)
(1.08076 0.0648673 0)
(1.0669 0.0688513 0)
(1.06025 0.0697164 0)
(1.05967 0.0683121 0)
(1.06613 0.0664345 0)
(1.06961 0.0634747 0)
(1.0154 0.0548796 0)
(0.819042 0.0385846 0)
(0.518607 0.0194636 0)
(0.23778 0.00563278 0)
(0.037922 0.000347503 0)
(0.128707 0.000611069 0)
(0.71846 0.0106281 0)
(1.00093 0.0193242 0)
(1.15615 0.0262897 0)
(1.18521 0.0332862 0)
(1.16653 0.042499 0)
(1.14485 0.0522687 0)
(1.12493 0.0622061 0)
(1.10505 0.0714184 0)
(1.08482 0.0787007 0)
(1.06808 0.0824361 0)
(1.05929 0.0827914 0)
(1.05748 0.0807686 0)
(1.0629 0.0782456 0)
(1.06087 0.0740953 0)
(0.987869 0.0629123 0)
(0.768634 0.0429903 0)
(0.466011 0.0210282 0)
(0.203533 0.00589178 0)
(0.0303238 0.000347711 0)
(0.140831 0.000854736 0)
(0.750716 0.0145934 0)
(1.02662 0.0262374 0)
(1.17557 0.0355149 0)
(1.20199 0.0442684 0)
(1.18182 0.0553468 0)
(1.15818 0.0666498 0)
(1.13562 0.0778387 0)
(1.11255 0.0878129 0)
(1.08874 0.0952064 0)
(1.06874 0.0984285 0)
(1.05766 0.0981061 0)
(1.05465 0.0954226 0)
(1.05832 0.0922117 0)
(1.04878 0.0864614 0)
(0.952677 0.0718425 0)
(0.709219 0.0473825 0)
(0.407594 0.0222399 0)
(0.16736 0.00597249 0)
(0.0226732 0.000332638 0)
(0.157446 0.00123628 0)
(0.793122 0.020285 0)
(1.06106 0.0354783 0)
(1.20055 0.0476103 0)
(1.2226 0.0588743 0)
(1.19972 0.0719174 0)
(1.17327 0.0849085 0)
(1.14722 0.0972617 0)
(1.12021 0.1077 0)
(1.09226 0.114775 0)
(1.06867 0.117069 0)
(1.05521 0.115825 0)
(1.05111 0.112371 0)
(1.05241 0.108424 0)
(1.03199 0.100471 0)
(0.907635 0.0812081 0)
(0.639531 0.0511695 0)
(0.343849 0.0227511 0)
(0.130333 0.00579452 0)
(0.0152968 0.000299475 0)
(0.180852 0.0019003 0)
(0.848951 0.0288952 0)
(1.1071 0.0486637 0)
(1.23212 0.0644017 0)
(1.2475 0.0787305 0)
(1.22033 0.0939161 0)
(1.18987 0.10843 0)
(1.15932 0.12147 0)
(1.12758 0.131712 0)
(1.095 0.137757 0)
(1.06761 0.138538 0)
(1.05175 0.136043 0)
(1.04665 0.131669 0)
(1.04475 0.126735 0)
(1.00846 0.115739 0)
(0.850086 0.0901739 0)
(0.55906 0.0535271 0)
(0.276508 0.0222086 0)
(0.0941271 0.00530599 0)
(0.00859243 0.000247348 0)
(0.214605 0.00337294 0)
(0.924118 0.043237 0)
(1.16777 0.0697607 0)
(1.27063 0.0893836 0)
(1.2766 0.107045 0)
(1.24307 0.123826 0)
(1.20716 0.138904 0)
(1.17107 0.151485 0)
(1.13399 0.160401 0)
(1.09648 0.164404 0)
(1.06525 0.162927 0)
(1.04708 0.15876 0)
(1.04113 0.153334 0)
(1.03436 0.14709 0)
(0.975184 0.131491 0)
(0.777188 0.0973888 0)
(0.469277 0.0535454 0)
(0.209207 0.0204533 0)
(0.0610527 0.0045232 0)
(0.00302161 0.000176878 0)
(0.260683 0.00994585 2.24226e-20)
(1.02233 0.0716423 1.89896e-20)
(1.24048 0.105717 -6.48445e-21)
(1.31341 0.126793 0)
(1.30685 0.147666 -1.50288e-34)
(1.26563 0.164102 2.15925e-21)
(1.2235 0.177896 -3.67038e-21)
(1.18142 0.188555 0)
(1.13871 0.195071 7.08681e-35)
(1.09602 0.196289 -4.11664e-21)
(1.0608 0.192179 0)
(1.04066 0.186496 -4.71728e-21)
(1.03467 0.180725 -1.3809e-20)
(1.01852 0.173077 -6.49752e-21)
(0.925307 0.149287 -1.93552e-21)
(0.680147 0.102527 -1.14449e-21)
(0.365915 0.0508206 0)
(0.141937 0.0177779 7.98869e-22)
(0.0312388 0.00355983 9.46117e-22)
(-0.00152847 5.70181e-05 1.73317e-20)
(0.29325 0.0259366 1.91837e-20)
(1.1043 0.116641 1.22209e-22)
(1.30049 0.156905 1.85425e-21)
(1.3527 0.178193 0)
(1.33381 0.19892 -7.99037e-21)
(1.28553 0.213385 -8.80518e-21)
(1.23736 0.225109 -3.78926e-21)
(1.18937 0.233621 -1.27876e-20)
(1.14099 0.237878 0)
(1.09298 0.236656 1.74714e-20)
(1.05351 0.230288 1.69858e-20)
(1.03046 0.223032 4.96437e-21)
(1.02159 0.216696 1.78094e-20)
(0.987186 0.203951 2.47783e-20)
(0.841201 0.166766 0)
(0.544661 0.104054 3.45357e-20)
(0.249938 0.0458094 4.94656e-20)
(0.0767279 0.0138736 5.50259e-20)
(0.00446475 0.00155375 -6.31138e-20)
(-0.00533979 -0.000445204 -1.20508e-21)
(0.295857 0.0444494 0)
(1.15794 0.17466 3.96949e-21)
(1.34252 0.219496 0)
(1.38389 0.240822 -1.22262e-20)
(1.35564 0.258137 0)
(1.30142 0.268739 -1.79576e-20)
(1.24762 0.276851 7.86721e-21)
(1.19409 0.282023 -2.63154e-20)
(1.14043 0.283103 -3.37248e-22)
(1.08757 0.278782 9.10166e-21)
(1.04435 0.269805 3.67996e-20)
(1.01878 0.260785 -2.10703e-23)
(1.00569 0.252898 -1.28142e-20)
(0.950367 0.233396 -2.29606e-20)
(0.758105 0.18045 2.70573e-20)
(0.439358 0.102125 -4.7771e-20)
(0.178682 0.0406126 -6.26931e-21)
(0.0412323 0.0101923 0)
(-0.00877615 -0.000618291 -2.98618e-24)
(-0.0069644 -0.000992456 0)
(0.289835 0.0599173 6.91626e-20)
(1.18869 0.236643 -3.08803e-20)
(1.36992 0.287025 -2.02056e-20)
(1.40525 0.30853 6.18313e-21)
(1.3707 0.321658 -1.01035e-20)
(1.31211 0.327698 3.78161e-20)
(1.25378 0.331433 1.65008e-20)
(1.19558 0.332515 0)
(1.13736 0.329759 -4.70153e-20)
(1.08026 0.321809 0)
(1.0338 0.309916 -1.93167e-20)
(1.00597 0.298909 -2.32429e-20)
(0.987809 0.288333 -1.37908e-20)
(0.911518 0.260374 -1.6496e-20)
(0.68349 0.191104 0)
(0.362773 0.100113 0)
(0.132921 0.0367039 -4.03963e-20)
(0.0194509 0.00682811 7.96188e-21)
(-0.0167108 -0.00285352 -4.70577e-21)
(-0.00788453 -0.0015506 -5.57335e-21)
(0.282115 0.0733973 -3.96458e-20)
(1.20384 0.2986 0)
(1.38618 0.355577 4.70636e-20)
(1.41791 0.377416 1.86958e-20)
(1.37907 0.386449 2.2239e-20)
(1.31737 0.387886 0)
(1.25562 0.387084 1.6734e-20)
(1.19372 0.38381 2.92696e-20)
(1.13176 0.376884 2.43887e-20)
(1.07109 0.365003 4.18916e-20)
(1.02186 0.349973 0)
(0.99195 0.336778 -4.96512e-20)
(0.968172 0.322747 -2.94636e-20)
(0.872136 0.285269 -1.73202e-20)
(0.618771 0.199805 1.04145e-19)
(0.306922 0.0985778 1.22795e-20)
(0.101819 0.0334428 5.78517e-20)
(0.00462075 0.00353623 -2.73393e-19)
(-0.0221707 -0.00514577 1.61932e-19)
(-0.00851375 -0.00210856 -1.97679e-19)
(0.274269 0.0854603 -3.39844e-20)
(1.2087 0.358434 7.53269e-21)
(1.39414 0.423101 -6.53e-21)
(1.42356 0.445545 -2.36258e-20)
(1.38169 0.45071 -2.14915e-20)
(1.31773 0.447682 3.52781e-22)
(1.25338 0.442434 -1.79524e-20)
(1.1886 0.434809 3.04997e-20)
(1.12364 0.423635 -5.20585e-20)
(1.06003 0.407705 0)
(1.00846 0.389466 -2.27375e-20)
(0.976632 0.373936 -3.04251e-22)
(0.94701 0.355862 -3.18632e-20)
(0.833328 0.308058 0)
(0.563368 0.206983 -2.23542e-20)
(0.265066 0.0974143 -5.26642e-20)
(0.0791642 0.0304296 1.3974e-19)
(-0.00627899 0.000207215 -1.37608e-19)
(-0.0262058 -0.00747041 1.95605e-19)
(-0.00896454 -0.0026572 -2.05832e-19)
(0.26718 0.0964356 -1.21928e-22)
(1.20674 0.415318 -7.02195e-21)
(1.39592 0.488472 -2.55548e-20)
(1.42366 0.511774 1.16168e-20)
(1.37963 0.513394 -1.1167e-20)
(1.31401 0.506125 0)
(1.24766 0.496614 -1.78261e-20)
(1.18058 0.484753 -3.21062e-20)
(1.11317 0.469381 -2.72783e-20)
(1.04714 0.449399 0)
(0.993666 0.427935 -2.35814e-20)
(0.960113 0.409986 -2.83845e-20)
(0.924686 0.38745 3.41955e-20)
(0.795675 0.328715 -2.04464e-20)
(0.515912 0.212931 -9.60494e-20)
(0.232403 0.0964276 5.65479e-20)
(0.0615462 0.02742 1.6666e-20)
(-0.0148074 -0.00319584 0)
(-0.0292904 -0.0097879 -1.86578e-19)
(-0.00926915 -0.00318217 -6.90911e-21)
(0.261062 0.106669 -4.09257e-21)
(1.20028 0.469005 6.86856e-21)
(1.39306 0.551101 1.33308e-20)
(1.41943 0.575425 3.8137e-20)
(1.37381 0.573855 -4.51645e-20)
(1.30699 0.562645 4.19382e-20)
(1.23909 0.549111 3.80845e-20)
(1.17014 0.533185 -5.12284e-20)
(1.10071 0.513717 1.58132e-20)
(1.03268 0.489722 -1.01479e-19)
(0.97765 0.465047 -2.60861e-20)
(0.942582 0.44463 0)
(0.901536 0.417308 3.67324e-20)
(0.759376 0.347275 4.34588e-20)
(0.47482 0.217831 5.14341e-20)
(0.205735 0.0953917 -6.06567e-20)
(0.0469898 0.0242694 -1.7877e-20)
(-0.0218645 -0.00666473 2.10989e-20)
(-0.031707 -0.012062 0)
(-0.00944576 -0.00366945 -1.48118e-20)
(0.255853 0.116209 3.84689e-20)
(1.19105 0.519494 -2.67534e-20)
(1.38686 0.611057 -1.38151e-20)
(1.41187 0.636153 2.59607e-20)
(1.36508 0.631709 -2.27877e-20)
(1.29739 0.616875 -8.69886e-22)
(1.22826 0.599613 -4.10599e-20)
(1.15778 0.579844 -1.83684e-20)
(1.08664 0.556408 -4.68721e-20)
(1.01692 0.528453 1.7408e-23)
(0.960658 0.500576 -8.18185e-20)
(0.924275 0.477649 6.67227e-20)
(0.877855 0.44528 -3.97442e-20)
(0.724507 0.363805 4.70464e-20)
(0.438651 0.221769 0)
(0.183046 0.0942009 -3.25307e-20)
(0.0342878 0.0209576 2.26702e-23)
(-0.0280849 -0.0102094 -9.05717e-20)
(-0.033719 -0.0142945 -1.34016e-20)
(-0.00949978 -0.00410472 0)
(0.251545 0.125328 0)
(1.18013 0.567001 -2.78216e-20)
(1.37812 0.668073 -2.7036e-20)
(1.40181 0.693795 -2.67015e-20)
(1.35411 0.686763 -2.57337e-20)
(1.2858 0.66863 0)
(1.2157 0.647939 -2.02845e-20)
(1.14393 0.624576 -2.58573e-22)
(1.07132 0.597338 1.00075e-19)
(1.00016 0.565479 -1.40745e-20)
(0.942904 0.53437 -5.8705e-20)
(0.905414 0.508897 3.49109e-20)
(0.853912 0.471279 -3.93179e-22)
(0.691071 0.378339 5.00264e-20)
(0.406332 0.22479 2.97706e-20)
(0.163045 0.0928073 -6.9699e-20)
(0.0227051 0.017481 8.21322e-20)
(-0.0339961 -0.0138806 2.42676e-20)
(-0.0356357 -0.0165443 1.00589e-19)
(-0.00948648 -0.00449533 -2.72281e-19)
(0.248089 0.134192 7.03209e-21)
(1.16836 0.611699 -1.30942e-20)
(1.36756 0.72196 1.17865e-20)
(1.38991 0.748322 2.67818e-20)
(1.34149 0.738941 0)
(1.27274 0.717814 -2.27804e-20)
(1.20185 0.694002 6.64265e-20)
(1.12898 0.667313 4.09278e-20)
(1.05505 0.636461 0)
(0.982585 0.600752 -1.99544e-19)
(0.924549 0.566339 1.57523e-19)
(0.88618 0.538243 0)
(0.829966 0.495217 4.57053e-20)
(0.659108 0.390926 -2.88919e-22)
(0.377176 0.226965 -9.53649e-20)
(0.145024 0.0912236 3.73192e-20)
(0.0117415 0.013812 0)
(-0.0399933 -0.0177557 1.30006e-19)
(-0.0377726 -0.0189237 0)
(-0.00949011 -0.00487579 -1.27631e-19)
(0.245412 0.142814 -6.81557e-21)
(1.15628 0.653815 -1.22668e-20)
(1.35567 0.772787 1.30071e-20)
(1.37671 0.799768 0)
(1.32771 0.788259 -2.6774e-20)
(1.25864 0.764427 0)
(1.1871 0.737779 -6.84798e-20)
(1.11325 0.708037 -2.03351e-20)
(1.0381 0.673791 1.82242e-20)
(0.964394 0.634287 -9.85931e-20)
(0.905698 0.596448 1.6465e-20)
(0.86668 0.565553 0)
(0.80624 0.516995 -9.72946e-20)
(0.628775 0.401567 2.02234e-22)
(0.350817 0.228394 0)
(0.128582 0.0894127 1.50043e-23)
(0.00114076 0.00982106 1.17798e-19)
(-0.0463228 -0.0219901 -1.11335e-19)
(-0.0403909 -0.0215812 3.29625e-20)
(-0.00961195 -0.00529818 0)
(0.243199 0.151169 0)
(1.14416 0.693557 -1.18144e-20)
(1.34293 0.820684 -1.19179e-20)
(1.36264 0.848221 -5.37457e-22)
(1.31316 0.834776 -1.28068e-20)
(1.24386 0.808504 -5.18783e-20)
(1.17177 0.779298 2.50038e-20)
(1.09703 0.746774 -2.29025e-20)
(1.0207 0.70937 7.98817e-20)
(0.945731 0.666155 -1.57832e-19)
(0.886401 0.624699 -7.26995e-22)
(0.846981 0.5907 -4.34653e-20)
(0.782901 0.536432 1.5675e-19)
(0.600234 0.410311 -3.02502e-22)
(0.327138 0.229127 -7.28648e-20)
(0.113459 0.0872154 -1.28453e-19)
(-0.00909328 0.00535519 0)
(-0.0529201 -0.0267489 0)
(-0.0435249 -0.0246593 3.52775e-20)
(-0.00990497 -0.00581313 -2.09037e-20)
(0.241633 0.159459 -6.08976e-21)
(1.1322 0.731043 2.38211e-20)
(1.32968 0.865776 1.27355e-20)
(1.34805 0.89378 0)
(1.29817 0.878575 -3.15393e-22)
(1.22871 0.850114 -5.27404e-20)
(1.15615 0.818614 6.39602e-20)
(1.08057 0.783575 9.39891e-20)
(1.00306 0.743272 1.05259e-19)
(0.926736 0.69647 -1.30115e-19)
(0.866678 0.651159 -1.35106e-19)
(0.827036 0.613581 1.16202e-19)
(0.760075 0.553354 0)
(0.573715 0.417093 -3.32806e-20)
(0.306147 0.229223 -7.80015e-20)
(0.0996747 0.0846557 -9.16285e-20)
(-0.019057 0.000368984 -1.07936e-19)
(-0.0596695 -0.0320098 3.1886e-20)
(-0.0469399 -0.0281353 -1.88818e-20)
(-0.0103002 -0.00641058 5.469e-25)
(0.240311 0.167517 0)
(1.12088 0.766178 0)
(1.31619 0.908185 5.14819e-22)
(1.33319 0.936561 0)
(1.283 0.919767 4.10984e-20)
(1.21343 0.889347 4.0332e-20)
(1.14046 0.855796 0)
(1.06408 0.818507 1.18789e-20)
(0.985377 0.775574 1.78106e-19)
(0.907549 0.72537 -2.9934e-19)
(0.846525 0.675976 0)
(0.806718 0.634143 -7.47985e-20)
(0.737726 0.567463 -4.60107e-22)
(0.549454 0.421754 -2.30008e-22)
(0.288072 0.228795 8.33254e-20)
(0.0872944 0.0823949 -1.23672e-23)
(-0.0292663 -0.00365301 -2.30983e-19)
(-0.0676275 -0.0366545 6.82099e-20)
(-0.0513153 -0.0317757 2.02035e-20)
(-0.0108304 -0.00707999 0)
(0.23925 0.175306 1.56383e-20)
(1.10997 0.799515 1.10097e-20)
(1.30259 0.948009 2.40988e-20)
(1.3183 0.976686 -5.41568e-20)
(1.26785 0.958445 7.02663e-20)
(1.19822 0.926295 0)
(1.12489 0.890929 4.1916e-20)
(1.04775 0.851645 -2.60046e-20)
(0.96782 0.806366 7.98033e-22)
(0.888309 0.753004 2.18259e-20)
(0.825944 0.69937 1.76594e-19)
(0.78581 0.652444 -2.6459e-20)
(0.715671 0.578451 -9.61012e-20)
(0.527687 0.42386 -3.81076e-20)
(0.273774 0.227605 4.46034e-20)
(0.0778693 0.0819716 -2.69725e-23)
(-0.0396259 -0.00308082 6.1747e-20)
(-0.0802665 -0.038652 -1.45952e-19)
(-0.0608615 -0.0363308 1.7291e-19)
(-0.0126089 -0.0083994 2.55913e-20)
(0.23823 0.182835 -4.73255e-21)
(1.09951 0.831104 5.42316e-21)
(1.28907 0.985398 1.34351e-21)
(1.30354 1.01429 -2.66364e-20)
(1.2529 0.99474 -1.3639e-20)
(1.18325 0.961052 -7.54496e-20)
(1.10961 0.924093 1.3834e-20)
(1.03174 0.883058 -1.10193e-19)
(0.95055 0.835716 -2.01015e-19)
(0.869151 0.779498 -1.81237e-19)
(0.804963 0.721608 0)
(0.764052 0.668702 -1.15505e-19)
(0.693458 0.586074 1.37921e-19)
(0.508398 0.422521 0)
(0.264677 0.224115 -9.53089e-20)
(0.0761662 0.0823724 5.58461e-20)
(-0.0438035 0.000737159 -6.59507e-20)
(-0.0969069 -0.0412753 -7.80137e-20)
(-0.0805977 -0.0453933 -1.38679e-19)
(-0.0181504 -0.0120403 -1.09467e-19)
(0.237574 0.190184 4.18905e-21)
(1.08939 0.860981 -5.7805e-21)
(1.27576 1.02044 -1.62719e-20)
(1.28905 1.04949 -3.38005e-20)
(1.23828 1.02876 3.01425e-20)
(1.16864 0.993724 -4.65802e-20)
(1.09474 0.955366 4.51813e-20)
(1.01617 0.912826 -1.16079e-19)
(0.933693 0.863705 -1.20543e-19)
(0.850215 0.804973 1.92669e-19)
(0.783635 0.742969 3.92722e-19)
(0.741193 0.683315 0)
(0.670348 0.590311 0)
(0.490884 0.416674 -4.37344e-20)
(0.261329 0.215936 0)
(0.0841295 0.0773626 1.19561e-19)
(-0.0331966 -0.00474488 1.40928e-19)
(-0.101458 -0.0540815 0)
(-0.101763 -0.0622881 0)
(-0.0287435 -0.0195518 1.17288e-19)
(0.23681 0.197107 -3.43398e-21)
(1.07966 0.889181 -3.22065e-21)
(1.26275 1.05327 -1.12825e-20)
(1.27491 1.08242 2.6745e-20)
(1.22407 1.06062 3.08582e-20)
(1.15448 1.0244 5.57999e-20)
(1.08038 0.984825 -6.38421e-20)
(1.00116 0.941009 -3.19891e-22)
(0.917379 0.890393 -1.06076e-21)
(0.831638 0.829525 -5.04425e-22)
(0.762067 0.763718 2.03602e-19)
(0.717043 0.696799 0)
(0.645437 0.591565 1.40181e-19)
(0.47284 0.405611 9.40767e-20)
(0.26004 0.199429 2.19586e-19)
(0.100284 0.0555282 6.41389e-20)
(-0.00568231 -0.0342807 -7.5505e-20)
(-0.0696783 -0.086221 -4.48074e-20)
(-0.0866359 -0.0825426 0)
(-0.0346051 -0.0268686 1.26214e-19)
(0.236409 0.204046 5.11306e-21)
(1.07031 0.915819 0)
(1.25006 1.08395 -1.02251e-20)
(1.26118 1.11317 2.05745e-20)
(1.21036 1.09044 -3.0857e-20)
(1.14084 1.05317 -7.33323e-20)
(1.06661 1.01254 1.32701e-19)
(0.986776 0.967661 -8.68962e-21)
(0.901702 0.915828 0)
(0.813559 0.85321 -2.18241e-19)
(0.74041 0.784075 -4.49409e-19)
(0.69154 0.709762 1.76399e-20)
(0.617923 0.590679 1.95693e-19)
(0.452016 0.389935 0)
(0.255878 0.173194 1.48497e-19)
(0.113366 0.0149049 0)
(0.0244483 -0.0959357 0)
(-0.00992137 -0.146869 -4.80472e-20)
(0.00177792 -0.109081 0)
(0.0162282 -0.00809336 3.39614e-20)
(0.235783 0.210453 3.51187e-21)
(1.06133 0.941227 0)
(1.2377 1.1127 -1.43806e-20)
(1.24783 1.14201 0)
(1.19712 1.11847 1.51876e-20)
(1.12768 1.08034 0)
(1.05338 1.03882 7.8616e-21)
(0.972952 0.993122 1.67044e-20)
(0.886565 0.940379 1.5486e-20)
(0.795832 0.876427 -2.43168e-19)
(0.718462 0.804583 1.39008e-20)
(0.664266 0.723219 1.41683e-19)
(0.586798 0.588918 1.9229e-19)
(0.425947 0.370617 2.5091e-20)
(0.244103 0.139492 1.17015e-19)
(0.113322 -0.0394324 0)
(0.0388601 -0.174747 1.57683e-19)
(0.0252215 -0.165844 -9.27888e-20)
(0.0181705 0.0240583 1.0954e-19)
(-0.0385243 0.469297 -1.30119e-19)
(0.235225 0.216699 -1.62091e-21)
(1.05249 0.965268 -6.51973e-21)
(1.22561 1.13984 0)
(1.23472 1.16937 9.74519e-22)
(1.18417 1.14532 -3.78149e-20)
(1.11473 1.10658 1.24933e-19)
(1.04037 1.06445 5.10787e-20)
(0.959269 1.01831 0)
(0.871431 0.965103 1.07049e-19)
(0.777774 0.90042 -1.32024e-20)
(0.695258 0.826615 0)
(0.63365 0.738597 0)
(0.5491 0.587001 1.74701e-19)
(0.3907 0.34751 -7.72645e-20)
(0.221243 0.0998493 -1.20011e-19)
(0.099505 -0.1064 0)
(0.0339358 -0.127339 8.00081e-20)
(-0.000691604 0.442271 -9.31591e-20)
(0.0254671 1.96168 -5.32356e-20)
(0.0506172 2.84275 -6.49227e-20)
(0.234434 0.222461 -3.42604e-22)
(1.04388 0.988117 5.57206e-21)
(1.2138 1.1654 -6.98981e-21)
(1.22187 1.19514 -1.26867e-20)
(1.17158 1.17077 0)
(1.1021 1.13162 8.49646e-20)
(1.02782 1.08914 7.6861e-20)
(0.945945 1.04282 -8.6236e-21)
(0.856617 0.989536 1.59729e-20)
(0.759829 0.924707 2.37352e-19)
(0.671491 0.849859 2.35926e-19)
(0.600646 0.756603 1.64911e-19)
(0.504947 0.586743 1.78721e-19)
(0.344873 0.321525 -1.85489e-19)
(0.190779 0.0626464 -1.84063e-19)
(0.0714234 -0.035062 0)
(0.0288779 0.952565 0)
(0.0721701 2.61476 4.55897e-20)
(0.0754114 3.22977 0)
(0.0781902 3.39547 1.2082e-19)
(0.236565 0.227969 0)
(1.0359 1.01019 0)
(1.20197 1.18922 0)
(1.20909 1.21916 -2.67673e-21)
(1.15901 1.1946 -3.28216e-20)
(1.08959 1.15533 5.96616e-20)
(1.01565 1.11279 5.23035e-20)
(0.932921 1.06652 -8.73439e-21)
(0.84207 1.01351 1.40721e-19)
(0.742012 0.949152 -1.23939e-21)
(0.64731 0.874257 4.76189e-19)
(0.565677 0.777856 -1.90558e-20)
(0.454269 0.590583 2.24314e-20)
(0.287277 0.293579 2.72009e-20)
(0.142321 0.0594941 -1.12532e-21)
(0.0653761 1.07257 3.04729e-22)
(0.101467 2.80229 -2.44307e-19)
(0.105815 3.30814 -9.26704e-20)
(0.100732 3.42392 5.04779e-20)
(0.0937048 3.44233 -5.80458e-20)
(0.158072 0.172243 1.45172e-21)
(1.02322 1.03421 0)
(1.18987 1.21155 9.17418e-21)
(1.19684 1.24188 2.78802e-20)
(1.14692 1.21729 -5.82608e-20)
(1.07791 1.17819 -6.12893e-20)
(1.00366 1.13543 -5.81472e-20)
(0.920232 1.08948 1.10489e-19)
(0.827886 1.03713 -1.19386e-19)
(0.724597 0.973903 0)
(0.623129 0.899995 2.40691e-19)
(0.529327 0.802704 -1.38959e-19)
(0.403858 0.619526 0)
(0.219558 0.271249 2.74737e-20)
(0.0960302 0.661435 6.26674e-20)
(0.113632 2.62876 -7.01251e-20)
(0.156957 3.32788 7.9855e-20)
(0.145244 3.42806 4.4167e-20)
(0.122708 3.44653 5.01995e-20)
(0.106367 3.45536 8.35639e-20)
(0.270736 0.264654 -1.66681e-21)
(1.00317 1.04256 0)
(1.16955 1.23669 -6.17957e-21)
(1.1811 1.27329 -2.3501e-20)
(1.12832 1.25069 5.35761e-20)
(1.05876 1.21183 5.6555e-20)
(0.98328 1.17048 7.39734e-20)
(0.899049 1.12552 8.52426e-21)
(0.804721 1.07495 1.21028e-19)
(0.697182 1.01506 2.21573e-19)
(0.586656 0.945083 1.41701e-20)
(0.471837 0.840051 1.28779e-19)
(0.3051 0.619196 2.24465e-20)
(0.178313 0.767817 -2.7256e-20)
(0.186788 2.53456 -5.99183e-20)
(0.237567 3.32267 6.16595e-20)
(0.221491 3.44434 -6.90713e-20)
(0.190265 3.46482 -3.9749e-20)
(0.159895 3.48995 -4.01712e-20)
(0.117124 3.48749 -5.65753e-21)
(0.260207 0.263082 0)
(0.998931 1.06464 1.03105e-21)
(1.15976 1.25994 4.10116e-22)
(1.16912 1.29675 1.79759e-21)
(1.11636 1.2739 3.19155e-20)
(1.04678 1.23513 -5.31308e-20)
(0.970842 1.19387 -4.60737e-20)
(0.886104 1.14959 8.06737e-21)
(0.790626 1.10031 -1.30398e-19)
(0.680433 1.04301 -2.35458e-21)
(0.564007 0.977039 -4.56544e-19)
(0.436801 0.871163 1.85158e-20)
(0.268896 0.688959 -2.17907e-20)
(0.213894 1.51227 -2.5872e-20)
(0.281933 3.15068 3.47937e-21)
(0.291998 3.44061 -1.73026e-22)
(0.254437 3.48761 1.17677e-19)
(0.223008 3.51494 6.38653e-20)
(0.179006 3.53651 -2.88881e-20)
(0.131663 3.53524 -3.36106e-20)
(0.245585 0.26039 5.03211e-21)
(0.993689 1.08922 9.06546e-21)
(1.14952 1.28529 1.1353e-21)
(1.15673 1.32183 7.16224e-21)
(1.10391 1.29859 0)
(1.03436 1.25978 -6.62753e-20)
(0.958255 1.21868 -6.36574e-20)
(0.873262 1.17508 7.58109e-21)
(0.776945 1.12729 -1.43879e-20)
(0.664667 1.0731 -2.15431e-19)
(0.543384 1.0121 -2.18303e-19)
(0.405582 0.904339 -1.56924e-19)
(0.266482 0.864068 -1.68571e-19)
(0.284638 2.36132 1.70505e-19)
(0.366302 3.36928 1.50554e-19)
(0.333935 3.48976 0)
(0.289723 3.53216 0)
(0.254816 3.56809 -2.42834e-20)
(0.215355 3.61226 0)
(0.147917 3.60176 -4.52424e-20)
(0.235187 0.261666 -9.82857e-21)
(0.98645 1.11453 -1.07075e-20)
(1.13783 1.31184 0)
(1.14302 1.34773 1.1761e-21)
(1.09015 1.32394 2.39848e-20)
(1.0208 1.28501 -9.02021e-20)
(0.944852 1.24413 -3.91819e-20)
(0.859835 1.2012 6.32966e-21)
(0.762939 1.15494 -1.03049e-19)
(0.64906 1.10409 1.15723e-20)
(0.524018 1.04838 0)
(0.374813 0.938705 0)