/*--------------------------------*- C++ -*----------------------------------*\
  =========                 |
  \\      /  F ield         | OpenFOAM: The Open Source CFD Toolbox
   \\    /   O peration     | Website:  https://openfoam.org
    \\  /    A nd           | Version:  6
     \\/     M anipulation  |
\*---------------------------------------------------------------------------*/
FoamFile
{
    version     2.0;
    format      ascii;
    class       surfaceScalarField;
    location    "41.4";
    object      phi;
}
// * * * * * * * * * * * * * * * * * * * * * * * * * * * * * * * * * * * * * //

dimensions      [0 3 -1 0 0 0 0];

internalField   nonuniform List<scalar> 
17370
(
-0.0900013
0.0898501
0.289162
-0.0714635
0.0537531
0.364486
-0.0381194
0.0276899
0.426598
-0.0196367
0.0146018
0.504287
-0.0107569
0.0082641
0.601895
-0.00626361
0.00489006
0.720431
-0.00373398
0.00290259
0.863738
-0.00217024
0.00161675
1.036
-0.00110361
0.000693183
1.24291
-0.000286278
-0.000102962
1.49158
0.000479618
-0.000884195
1.4916
0.0012779
-0.00176723
1.24318
0.00230011
-0.00301532
1.03635
0.00383762
-0.0049888
0.864058
0.00635886
-0.00835383
0.721052
0.0108394
-0.0146753
0.60305
0.0197027
-0.0277483
0.507485
0.0381717
-0.053797
0.431793
0.0714989
-0.0898733
0.36515
0.0900144
0.198996
-0.12813
0.0882161
0.0399139
-0.364592
0.353366
-0.0746844
0.085911
-0.446473
0.454311
-0.084412
0.0765734
-0.521185
0.529894
-0.0684784
0.0597694
-0.612781
0.62156
-0.0515817
0.0428025
-0.726887
0.734152
-0.0353428
0.0280781
-0.867472
0.872569
-0.0224875
0.0173897
-1.03847
1.0419
-0.0135966
0.0101618
-1.2446
1.24702
-0.0075611
0.00513773
-1.49263
1.4946
-0.00319769
0.00122809
-1.49249
1.49422
0.000453742
-0.00217755
-1.24398
1.24587
0.00408277
-0.0059665
-1.03751
1.04005
0.00832359
-0.0108595
-0.866104
0.869845
0.0142259
-0.0179668
-0.724394
0.729948
0.0230197
-0.028574
-0.608703
0.616122
0.0357981
-0.0432171
-0.514903
0.523051
0.0519506
-0.0600983
-0.43986
0.447923
0.0687662
-0.076829
-0.3753
0.37675
0.0846341
-0.0860839
-0.257338
0.222496
0.0748026
-0.0399605
-0.0685009
0.0586696
0.0098313
-0.0518453
0.0584404
-0.374109
0.367514
-0.0575323
0.0537856
-0.453582
0.457328
-0.0486974
0.0447463
-0.527929
0.53188
-0.040907
0.0372698
-0.621544
0.625181
-0.0331738
0.0291101
-0.73533
0.739393
-0.0245601
0.0204219
-0.874318
0.878456
-0.0160996
0.0124241
-1.04347
1.04714
-0.00870742
0.00555058
-1.24855
1.25171
-0.00223792
-0.000828328
-1.49666
1.49972
0.00387145
-0.00712934
-1.49722
1.50047
0.0102062
-0.0138146
-1.25008
1.25369
0.0173838
-0.0215926
-1.04594
1.05015
0.0256372
-0.0300966
-0.877781
0.882241
0.0340852
-0.0381016
-0.739921
0.743938
0.0416655
-0.0454249
-0.626796
0.630555
0.0493076
-0.0543309
-0.534829
0.539852
0.0580118
-0.0588367
-0.457493
0.458318
0.0521479
-0.0319667
-0.335783
0.315602
0.00988101
-0.0683684
0.0584874
-0.0529126
0.0489107
0.00400186
-0.0332054
0.0437695
-0.358063
0.347499
-0.0474832
0.046867
-0.459254
0.45987
-0.043821
0.0404763
-0.535768
0.539113
-0.0367134
0.0334207
-0.628489
0.631782
-0.0299996
0.0269878
-0.742605
0.745617
-0.0237535
0.0206658
-0.88197
0.885057
-0.017153
0.0137879
-1.05072
1.05409
-0.0100132
0.00649283
-1.25513
1.25865
-0.0025448
-0.00123702
-1.50322
1.507
0.00499059
-0.00885344
-1.50414
1.508
0.0122618
-0.0158846
-1.25745
1.26108
0.019096
-0.0224382
-1.05397
1.05731
0.0253816
-0.0284772
-0.88574
0.888835
0.0313763
-0.0346814
-0.747206
0.750511
0.0378696
-0.0415204
-0.634356
0.638007
0.0447685
-0.0477075
-0.544176
0.547115
0.0482146
-0.0443488
-0.456622
0.452757
0.0336055
-0.0161893
-0.296266
0.278849
0.00406226
-0.0526767
0.0486144
-0.045826
0.0433228
0.00250321
-0.0228612
0.0332677
-0.336786
0.326379
-0.0391133
0.040145
-0.459538
0.458506
-0.0389667
0.0366869
-0.541815
0.544094
-0.0340266
0.03144
-0.634812
0.637398
-0.0283937
0.0255181
-0.74865
0.751525
-0.0222888
0.0193301
-0.887996
0.890954
-0.0160633
0.0129963
-1.05719
1.06026
-0.00950182
0.00611704
-1.26209
1.26547
-0.00217538
-0.00169329
-1.51088
1.51475
0.0055248
-0.00935528
-1.51191
1.51574
0.0125888
-0.0158802
-1.26452
1.26782
0.0187449
-0.0217863
-1.06042
1.06346
0.0245514
-0.027591
-0.891903
0.894942
0.0303109
-0.0331985
-0.753733
0.756621
0.0356443
-0.0381566
-0.641093
0.643606
0.0403101
-0.0413252
-0.54894
0.549955
0.0401265
-0.0340397
-0.447508
0.441421
0.0233724
-0.0101974
-0.26367
0.250495
0.00257747
-0.0454636
0.0428861
-0.0412395
0.0394639
0.00177567
-0.0168086
0.0260946
-0.316494
0.307209
-0.0327359
0.0349025
-0.456882
0.454716
-0.0345053
0.0328549
-0.546054
0.547704
-0.0306962
0.0286261
-0.639682
0.641752
-0.0262293
0.0238678
-0.754149
0.75651
-0.0210485
0.0182889
-0.893823
0.896583
-0.0150802
0.012035
-1.06328
1.06632
-0.00857389
0.00527886
-1.26876
1.27206
-0.00148057
-0.00222062
-1.51851
1.52221
0.00587384
-0.00953124
-1.51948
1.52313
0.0126371
-0.0158464
-1.27108
1.27429
0.0186383
-0.021562
-1.06649
1.06942
0.0240708
-0.0266366
-0.897771
0.900337
0.02879
-0.03098
-0.759092
0.761282
0.0328735
-0.0348473
-0.645789
0.647763
0.0363174
-0.0364932
-0.550504
0.55068
0.034071
-0.027079
-0.434804
0.427812
0.0174438
-0.00735678
-0.239017
0.22893
0.00186602
-0.0407223
0.0388563
-0.0379326
0.0365937
0.00133888
-0.0128547
0.0208396
-0.298578
0.290593
-0.027632
0.0305862
-0.452122
0.449168
-0.0308174
0.0297212
-0.549103
0.550199
-0.0277501
0.0258588
-0.643753
0.645644
-0.0236943
0.0215975
-0.758722
0.760818
-0.0191341
0.0167009
-0.899128
0.901561
-0.0138159
0.0109886
-1.06922
1.07205
-0.00767817
0.00447566
-1.27528
1.27848
-0.000754056
-0.00286282
-1.52585
1.52947
0.00642195
-0.00996564
-1.52675
1.53029
0.012929
-0.0159208
-1.27744
1.28043
0.0184279
-0.0209496
-1.07216
1.07469
0.0230589
-0.0251917
-0.902658
0.904791
0.0270176
-0.0289174
-0.763288
0.765187
0.0305879
-0.0323405
-0.649598
0.651351
0.0331805
-0.0326451
-0.55051
0.549975
0.0293309
-0.0220628
-0.42063
0.413362
0.0136322
-0.00567778
-0.220013
0.212059
0.00144806
-0.0372267
0.0357787
-0.0354232
0.0343879
0.00103522
-0.010065
0.0168244
-0.283247
0.276487
-0.0233611
0.0267797
-0.445963
0.442545
-0.0276014
0.0269312
-0.551076
0.551746
-0.0252
0.023445
-0.647513
0.649267
-0.0214186
0.0194503
-0.762854
0.764822
-0.0171355
0.014858
-0.90384
0.906117
-0.0121707
0.00953271
-1.0747
1.07734
-0.00642833
0.00339647
-1.28156
1.28459
0.000155068
-0.00361691
-1.53299
1.53645
0.0070069
-0.0103415
-1.53375
1.53708
0.0130825
-0.0157962
-1.28331
1.28602
0.0180404
-0.0202796
-1.07706
1.0793
0.0221578
-0.0240653
-0.906795
0.908702
0.0256968
-0.0273913
-0.766974
0.768669
0.0288689
-0.0302925
-0.652974
0.654398
0.0306369
-0.0293952
-0.549101
0.547859
0.025485
-0.0183285
-0.406128
0.398972
0.0110134
-0.0045572
-0.204926
0.198469
0.0011677
-0.0344883
0.0333206
-0.0334786
0.0326694
0.000809227
-0.00799363
0.0136812
-0.270295
0.264607
-0.0197353
0.0233581
-0.439014
0.435391
-0.0246733
0.0242725
-0.552312
0.552712
-0.0228378
0.0212166
-0.650999
0.65262
-0.0193008
0.0174237
-0.766745
0.768622
-0.0152015
0.0130134
-0.908291
0.910479
-0.0104398
0.00792793
-1.07984
1.08235
-0.00498771
0.00211493
-1.28749
1.29036
0.00125507
-0.00454527
-1.5398
1.54309
0.00774391
-0.010843
-1.5403
1.5434
0.0133552
-0.0158183
-1.28864
1.2911
0.0178496
-0.0198703
-1.08146
1.08348
0.0215573
-0.023261
-0.910517
0.912221
0.0247105
-0.0262109
-0.770245
0.771745
0.0274943
-0.0285507
-0.655608
0.656664
0.0285364
-0.0266457
-0.546297
0.544406
0.0223723
-0.0155278
-0.391967
0.385122
0.00915255
-0.0037723
-0.192603
0.187223
0.000970892
-0.0322659
0.031295
-0.0319591
0.031325
0.000634102
-0.00639454
0.0111679
-0.259409
0.254635
-0.0166375
0.0202663
-0.431776
0.428147
-0.0219051
0.0217218
-0.553051
0.553234
-0.0205042
0.0189254
-0.654266
0.655845
-0.0170634
0.015251
-0.770455
0.772268
-0.013122
0.0110327
-0.912525
0.914614
-0.00857285
0.00616569
-1.08472
1.08713
-0.00334456
0.000598531
-1.29312
1.29586
0.00259388
-0.00567625
-1.54625
1.54934
0.0086511
-0.0115201
-1.54639
1.54926
0.0138277
-0.0160625
-1.29348
1.29571
0.0178797
-0.0196625
-1.0854
1.08718
0.0211352
-0.0226213
-0.913827
0.915313
0.0239034
-0.025256
-0.773159
0.774511
0.0264284
-0.0271141
-0.657518
0.658204
0.0267516
-0.0243507
-0.542284
0.539883
0.0198818
-0.013422
-0.378485
0.372025
0.00780426
-0.00320979
-0.182278
0.177683
0.000829808
-0.0304086
0.0295788
-0.0307719
0.0302804
0.000491507
-0.00510023
0.00907954
-0.25029
0.246311
-0.0139141
0.0174054
-0.424604
0.421113
-0.0192577
0.0193045
-0.55336
0.553313
-0.0183272
0.0168228
-0.657459
0.658963
-0.0150095
0.0132179
-0.77405
0.775841
-0.0110972
0.00901666
-0.916598
0.918679
-0.00658306
0.00422683
-1.08942
1.09178
-0.00149612
-0.00113135
-1.29849
1.30111
0.00415383
-0.00703855
-1.55227
1.55515
0.00979243
-0.0124213
-1.552
1.55463
0.0145211
-0.0165497
-1.29789
1.29992
0.0181952
-0.0198107
-1.08892
1.09054
0.0211442
-0.0224801
-0.916742
0.918077
0.0236131
-0.0247792
-0.775758
0.776924
0.025735
-0.0260443
-0.658678
0.658988
0.025312
-0.0224705
-0.537281
0.534439
0.0179075
-0.0118399
-0.365781
0.359713
0.00682349
-0.00280821
-0.173413
0.169398
0.000731191
-0.0288107
0.0280795
-0.0298577
0.0294871
0.000370559
-0.00401148
0.00729007
-0.242711
0.239432
-0.0114714
0.0146977
-0.417781
0.414554
-0.0166003
0.0168006
-0.553246
0.553046
-0.0159056
0.0144866
-0.660486
0.661905
-0.0126901
0.0109139
-0.7776
0.779376
-0.0088256
0.00679276
-0.920634
0.922667
-0.00442527
0.00213851
-1.094
1.09629
0.000510534
-0.00305512
-1.30363
1.30617
0.00597468
-0.00873944
-1.55794
1.5607
0.0113445
-0.0137832
-1.55715
1.55959
0.0156812
-0.0174669
-1.30185
1.30364
0.0188896
-0.0202634
-1.09206
1.09344
0.021384
-0.0225109
-0.919338
0.920465
0.0234793
-0.0244783
-0.77802
0.779019
0.0252044
-0.0252561
-0.659166
0.659218
0.0241402
-0.0209586
-0.531448
0.528266
0.0163781
-0.0106691
-0.353856
0.348147
0.00611827
-0.00252584
-0.165629
0.162036
0.000663536
-0.0273966
0.026733
-0.0291774
0.0289143
0.000263016
-0.00305443
0.00569807
-0.236498
0.233854
-0.0092288
0.0121207
-0.41153
0.408638
-0.0139861
0.014286
-0.55288
0.55258
-0.0134483
0.0120774
-0.663386
0.664757
-0.0102641
0.00846198
-0.781119
0.782921
-0.0063521
0.0043092
-0.924568
0.926611
-0.00194168
-0.000333214
-1.09845
1.10073
0.0029441
-0.0054178
-1.30861
1.31108
0.00820417
-0.0107918
-1.56333
1.56592
0.0131866
-0.0153944
-1.56191
1.56412
0.0170888
-0.0186589
-1.30537
1.30694
0.0198822
-0.0210386
-1.09474
1.09589
0.0219709
-0.0229111
-0.921515
0.922455
0.0237277
-0.0245559
-0.779942
0.78077
0.0250323
-0.0248231
-0.659107
0.658898
0.0233334
-0.0198325
-0.524959
0.521458
0.015245
-0.00982982
-0.342627
0.337211
0.00562774
-0.00233629
-0.15863
0.155339
0.000620498
-0.0261066
0.0254861
-0.0287087
0.0285494
0.000159282
-0.00215342
0.00419022
-0.231538
0.229502
-0.007051
0.00952471
-0.405992
0.403519
-0.0112423
0.0115846
-0.55235
0.552008
-0.0108168
0.00950846
-0.666188
0.667497
-0.00769092
0.00584293
-0.784694
0.786542
-0.00365953
0.00154912
-0.928549
0.93066
0.000872967
-0.00316578
-1.10289
1.10519
0.00575677
-0.00817906
-1.31344
1.31586
0.0108746
-0.0133399
-1.56839
1.57085
0.015567
-0.0175445
-1.5662
1.56817
0.0190106
-0.0203324
-1.30842
1.30974
0.0213511
-0.0223078
-1.097
1.09795
0.0230677
-0.0238092
-0.92335
0.924092
0.024432
-0.0250474
-0.781516
0.782132
0.0251972
-0.0246752
-0.658466
0.657944
0.0228053
-0.019016
-0.517858
0.514069
0.0144297
-0.00924908
-0.331963
0.326783
0.00530302
-0.00221934
-0.152188
0.149105
0.000597559
-0.0248936
0.024296
-0.028446
0.0283926
5.34034e-05
-0.00126034
0.00269771
-0.227781
0.226344
-0.00486839
0.00685014
-0.401337
0.399355
-0.0082909
0.00855461
-0.551824
0.55156
-0.0077622
0.00644177
-0.668915
0.670236
-0.00456761
0.00266027
-0.788349
0.790256
-0.000418224
-0.00173465
-0.932635
0.934788
0.0041913
-0.0065039
-1.10736
1.10967
0.00909839
-0.0114974
-1.31818
1.32058
0.0141168
-0.0164502
-1.5732
1.57553
0.018491
-0.0202457
-1.57003
1.57178
0.0214864
-0.0225393
-1.31098
1.31203
0.023289
-0.0239383
-1.09882
1.09947
0.0244226
-0.024906
-0.924758
0.925242
0.0253513
-0.0258034
-0.782633
0.783085
0.0256758
-0.0247928
-0.657128
0.656246
0.0225546
-0.0185072
-0.510225
0.506178
0.0139109
-0.00889268
-0.321755
0.316736
0.00511687
-0.00216123
-0.146131
0.143175
0.000589635
-0.0237231
0.0231335
-0.028395
0.0284476
-5.2646e-05
-0.00035151
0.00117598
-0.225219
0.224394
-0.00262224
0.00405171
-0.397696
0.396266
-0.00513273
0.00525284
-0.551525
0.551405
-0.00439288
0.00300899
-0.671729
0.673113
-0.00104601
-0.000954445
-0.792129
0.79413
0.00329554
-0.00553324
-0.936792
0.93903
0.00808324
-0.0104731
-1.11185
1.11424
0.013124
-0.0155239
-1.32287
1.32527
0.0180691
-0.020248
-1.57772
1.57989
0.0220848
-0.0235785
-1.57338
1.57487
0.0245702
-0.0253421
-1.31298
1.31375
0.0258397
-0.0262148
-1.10004
1.10042
0.0264402
-0.0266444
-0.925672
0.925876
0.0268636
-0.0270284
-0.783289
0.783454
0.0266526
-0.0253386
-0.655053
0.653739
0.0226967
-0.0183474
-0.502097
0.497748
0.0136884
-0.00875231
-0.311843
0.306907
0.00506668
-0.00216482
-0.140298
0.137396
0.000600014
-0.0225612
0.0219612
-0.0285688
0.0287483
-0.000179482
0.000606166
-0.000441465
-0.223879
0.223714
-0.00022054
0.0010158
-0.395188
0.394392
-0.00164009
0.0015558
-0.551573
0.551657
-0.000615222
-0.00083404
-0.674694
0.676143
0.00288543
-0.00501985
-0.796095
0.798229
0.00754554
-0.00995879
-0.941148
0.943562
0.0126777
-0.015185
-1.11652
1.11903
0.017917
-0.0203426
-1.32756
1.32999
0.0228571
-0.0249367
-1.58194
1.58402
0.0265818
-0.0278161
-1.5762
1.57744
0.0285308
-0.0289676
-1.31441
1.31485
0.0291577
-0.029217
-1.1007
1.10076
0.0291708
-0.0290881
-0.926012
0.925929
0.0290397
-0.0288314
-0.783252
0.783044
0.0281246
-0.0262639
-0.652149
0.650288
0.0231806
-0.0185119
-0.493388
0.48872
0.0137507
-0.00881627
-0.302076
0.297142
0.00514056
-0.00222134
-0.134547
0.131628
0.000624349
-0.0213756
0.0207513
-0.029001
0.0293252
-0.000324222
0.00170031
-0.00219092
-0.223874
0.224364
0.00239964
-0.00234969
-0.393992
0.393942
0.00235717
-0.00280671
-0.55216
0.55261
0.00394189
-0.00554811
-0.677845
0.679451
0.00778257
-0.0101032
-0.800327
0.802648
0.0128333
-0.0154154
-0.945836
0.948418
0.0182955
-0.0209245
-1.12141
1.12404
0.0237568
-0.0262291
-1.33229
1.33476
0.0287141
-0.0306722
-1.58596
1.58792
0.032093
-0.0329948
-1.57847
1.57937
0.0333821
-0.0334269
-1.31513
1.31518
0.0332639
-0.0329423
-1.10068
1.10036
0.0325638
-0.0321367
-0.92572
0.925293
0.0318014
-0.0311736
-0.782402
0.781774
0.0300394
-0.0276035
-0.648228
0.645792
0.0240665
-0.0190455
-0.484083
0.479062
0.0141135
-0.00908601
-0.29229
0.287262
0.00533868
-0.00233185
-0.128737
0.12573
0.000663405
-0.0201383
0.0194749
-0.0297241
0.0302201
-0.000496011
0.00295318
-0.00423007
-0.225261
0.226537
0.00536193
-0.00615049
-0.394306
0.395094
0.00689771
-0.00780514
-0.553613
0.55452
0.0092627
-0.0111291
-0.681407
0.683273
0.0136406
-0.016199
-0.804925
0.807483
0.0191737
-0.0219683
-0.950838
0.953633
0.0250768
-0.027897
-1.12655
1.12937
0.0308905
-0.0334364
-1.33711
1.33966
0.0358885
-0.0376769
-1.58968
1.59147
0.0388358
-0.039376
-1.58004
1.58058
0.0393997
-0.039033
-1.31504
1.31467
0.0384561
-0.0376828
-1.09982
1.09905
0.0369029
-0.0360627
-0.924664
0.923823
0.0353808
-0.0342561
-0.78064
0.779515
0.0326474
-0.0295985
-0.643242
0.640193
0.0255214
-0.0200374
-0.474074
0.46859
0.0148309
-0.00959362
-0.282287
0.277049
0.00567798
-0.00250273
-0.122725
0.11955
0.000719048
-0.0188189
0.0180999
-0.0308023
0.0315221
-0.000719762
0.00447949
-0.00665131
-0.228257
0.230428
0.00883957
-0.0105218
-0.396298
0.39798
0.0121005
-0.0135447
-0.556113
0.557557
0.0153745
-0.0175233
-0.685525
0.687674
0.0203696
-0.023263
-0.810002
0.812895
0.0266315
-0.029782
-0.956305
0.959455
0.0332463
-0.0363365
-1.13208
1.13517
0.0395453
-0.0421958
-1.34208
1.34473
0.0446448
-0.0462952
-1.59307
1.59472
0.0471625
-0.0472832
-1.58085
1.58097
0.0468493
-0.0459924
-1.31404
1.31318
0.0449621
-0.0437041
-1.09799
1.09673
0.0424953
-0.0411873
-0.922694
0.921386
0.0400106
-0.0383204
-0.777864
0.776173
0.036072
-0.0322738
-0.637039
0.633241
0.0275625
-0.0215199
-0.46315
0.457108
0.0159281
-0.0103462
-0.271831
0.266249
0.00615439
-0.00272627
-0.116349
0.112921
0.000786509
-0.0173863
0.0165998
-0.0323283
0.0333391
-0.0010108
0.00638368
-0.00963136
-0.233069
0.236317
0.01307
-0.0158137
-0.400251
0.402994
0.0183549
-0.0204769
-0.559866
0.561988
0.0228471
-0.0254183
-0.690294
0.692865
0.0287422
-0.0320867
-0.815758
0.819103
0.0359498
-0.0395275
-0.962497
0.966075
0.0434082
-0.0468075
-1.13816
1.14156
0.0502522
-0.0529949
-1.34723
1.34998
0.055379
-0.0567906
-1.59612
1.59753
0.0572658
-0.056866
-1.58075
1.58035
0.0559252
-0.0544904
-1.31196
1.31053
0.0529463
-0.0511349
-1.0951
1.09329
0.0494443
-0.0476019
-0.919684
0.917842
0.0458675
-0.0435159
-0.773933
0.771582
0.0405248
-0.0358759
-0.629364
0.624715
0.0304242
-0.0236653
-0.451112
0.444353
0.0175182
-0.0114084
-0.260638
0.254529
0.00679928
-0.0030109
-0.109432
0.105644
0.000866017
-0.0158179
0.0149519
-0.0344288
0.035833
-0.00140421
0.00883051
-0.0133806
-0.240019
0.24457
0.018262
-0.0222012
-0.406508
0.410448
0.025854
-0.0288312
-0.565252
0.568229
0.0319845
-0.0352037
-0.696044
0.699263
0.0392156
-0.0431436
-0.822408
0.826336
0.0475927
-0.0516529
-0.969528
0.973588
0.0559949
-0.059728
-1.14484
1.14858
0.0634119
-0.066221
-1.35254
1.35535
0.0684663
-0.069535
-1.59863
1.5997
0.0694978
-0.0684561
-1.57953
1.57849
0.0668903
-0.0647476
-1.30862
1.30648
0.0626034
-0.0601835
-1.091
1.08858
0.0579512
-0.0555534
-0.915512
0.913114
0.0532122
-0.0501685
-0.768662
0.765618
0.0463625
-0.0407203
-0.620017
0.614375
0.0343514
-0.026653
-0.437625
0.429927
0.0197301
-0.0128528
-0.248329
0.241451
0.00764606
-0.00336622
-0.101752
0.0974725
0.000958774
-0.0140901
0.0131313
-0.0372887
0.039253
-0.00196427
0.0121392
-0.0183192
-0.249528
0.255708
0.0249002
-0.0302063
-0.415474
0.42078
0.0351402
-0.0391465
-0.57267
0.576676
0.0432857
-0.0473655
-0.703217
0.707297
0.0522966
-0.0569848
-0.830233
0.834922
0.0621793
-0.066832
-0.977554
0.982207
0.0717094
-0.0757921
-1.15218
1.15626
0.0796634
-0.082439
-1.35791
1.36068
0.0843948
-0.0849489
-1.60035
1.6009
0.0842426
-0.0823951
-1.57696
1.57511
0.080068
-0.0771119
-1.30379
1.30083
0.0742513
-0.0710994
-1.0855
1.08234
0.0682932
-0.0653324
-0.910106
0.907145
0.0623497
-0.05853
-0.761989
0.758169
0.0537905
-0.0469724
-0.608694
0.601876
0.0394821
-0.0305801
-0.422248
0.413346
0.0226068
-0.014677
-0.234415
0.226485
0.008679
-0.00378215
-0.09305
0.0881532
0.00106214
-0.0121769
0.0111147
-0.0412099
0.0440376
-0.00282768
0.0169505
-0.0252731
-0.262249
0.270572
0.0339374
-0.0408715
-0.427739
0.434673
0.0473059
-0.0525414
-0.582534
0.587769
0.0579202
-0.0631046
-0.712227
0.717412
0.0691365
-0.0747109
-0.839561
0.845136
0.0807467
-0.0860196
-0.986769
0.992042
0.0913831
-0.0957037
-1.16015
1.16447
0.099597
-0.102159
-1.3631
1.36566
0.103627
-0.103493
-1.60094
1.60081
0.101924
-0.0990666
-1.57267
1.56982
0.0958296
-0.0919179
-1.29728
1.29337
0.0882567
-0.0843193
-1.07842
1.07448
0.0808588
-0.0772045
-0.903273
0.899619
0.0735375
-0.0687606
-0.753614
0.748838
0.0629254
-0.0547227
-0.594995
0.586792
0.0458627
-0.0354153
-0.404454
0.394006
0.0260584
-0.016777
-0.218354
0.209072
0.00981827
-0.00421923
-0.0831047
0.0775057
0.0011643
-0.0100634
0.00889908
-0.0467433
0.0510296
-0.00428624
0.024458
-0.0357048
-0.27928
0.290527
0.0470771
-0.0562149
-0.444322
0.453459
0.0645315
-0.0712497
-0.595384
0.602102
0.0781921
-0.0847948
-0.723459
0.730061
0.0920353
-0.0984801
-0.850621
0.857066
0.105229
-0.110913
-0.997131
1.00281
0.116449
-0.120675
-1.16843
1.17265
0.124174
-0.126128
-1.36766
1.36962
0.126654
-0.12543
-1.59995
1.59873
0.122664
-0.118557
-1.56623
1.56212
0.114248
-0.109249
-1.28878
1.28378
0.104671
-0.0998362
-1.06968
1.06485
0.0956754
-0.0912359
-0.894747
0.890308
0.0867949
-0.0808736
-0.74315
0.737229
0.0737465
-0.0638764
-0.578422
0.568552
0.0533119
-0.0409102
-0.383532
0.37113
0.0298313
-0.0189493
-0.199631
0.188749
0.0109244
-0.00460973
-0.0718094
0.0654947
0.00124382
-0.00776063
0.00651681
-0.0549454
0.0622714
-0.00732597
0.0377676
-0.0533944
-0.302734
0.318361
0.0686164
-0.0807087
-0.466796
0.478888
0.0910359
-0.0992091
-0.61175
0.619923
0.107808
-0.115764
-0.737257
0.745212
0.123996
-0.130876
-0.86322
0.8701
0.137723
-0.143202
-1.00804
1.01352
0.148237
-0.151728
-1.17619
1.17968
0.154163
-0.154878
-1.37067
1.37138
0.153826
-0.150933
-1.59643
1.59354
0.146498
-0.140767
-1.55704
1.55131
0.135134
-0.128883
-1.27799
1.27174
0.123319
-0.117558
-1.05908
1.05332
0.112645
-0.10739
-0.884517
0.879262
0.102123
-0.0949021
-0.730178
0.722957
0.0861411
-0.0740714
-0.558224
0.546154
0.061316
-0.0465955
-0.358602
0.343881
0.0335918
-0.0210066
-0.177914
0.165329
0.0118883
-0.00490142
-0.0592665
0.0522796
0.00127612
-0.00532452
0.0040484
-0.069128
0.0731647
-0.00403674
0.028556
-0.042157
-0.336581
0.350182
0.0557531
-0.0668038
-0.496423
0.507474
0.0767271
-0.0860484
-0.631509
0.64083
0.0965813
-0.106078
-0.752624
0.762121
0.116534
-0.125717
-0.876023
0.885205
0.135354
-0.143753
-1.01805
1.02645
0.152308
-0.159358
-1.18203
1.18908
0.165949
-0.170654
-1.37083
1.37554
0.173945
-0.174806
-1.58929
1.59015
0.17317
-0.169518
-1.54435
1.5407
0.164878
-0.158919
-1.26451
1.25855
0.153321
-0.146801
-1.0465
1.03998
0.141224
-0.135011
-0.872338
0.866124
0.12837
-0.118297
-0.714061
0.703988
0.105604
-0.0887183
-0.533317
0.516431
0.0715182
-0.0521508
-0.32886
0.309492
0.0359617
-0.0213128
-0.153147
0.138498
0.0113799
-0.00438066
-0.04589
0.0388907
0.00100817
-0.00285172
0.00184355
-0.0804841
0.0784575
0.00202666
0.00711522
-0.01574
-0.366529
0.375154
0.0259816
-0.0339666
-0.52308
0.531065
0.0419703
-0.0498305
-0.652701
0.660561
0.0594342
-0.0683001
-0.771177
0.780043
0.0776851
-0.0861533
-0.893832
0.9023
0.095014
-0.102407
-1.03456
1.04195
0.110123
-0.116128
-1.19592
1.20192
0.121692
-0.125369
-1.3799
1.38357
0.127359
-0.12712
-1.59017
1.58993
0.124416
-0.119684
-1.53628
1.53155
0.11387
-0.10664
-1.25202
1.24479
0.0996851
-0.0917144
-1.03236
1.02439
0.0841783
-0.075693
-0.856294
0.847809
0.0678897
-0.0590659
-0.689795
0.680972
0.0494139
-0.0377893
-0.497579
0.485954
0.0271377
-0.0171202
-0.289826
0.279808
0.0102066
-0.00515691
-0.124431
0.119382
0.00228207
-0.000664102
-0.0322128
0.0305948
4.63958e-05
-0.000559124
0.000512728
-0.0817198
0.0788483
0.00287149
-0.00155679
-0.00325772
-0.386681
0.391495
0.00991822
-0.0157993
-0.54281
0.548691
0.0218227
-0.0285363
-0.670697
0.67741
0.0368317
-0.0444963
-0.787955
0.795619
0.0528306
-0.0602114
-0.909998
0.917378
0.067724
-0.0743887
-1.04919
1.05585
0.0811672
-0.0865482
-1.20753
1.21291
0.0911058
-0.0938688
-1.38662
1.38938
0.0951357
-0.0939665
-1.58891
1.58774
0.0902697
-0.08449
-1.52595
1.52017
0.0778202
-0.0698969
-1.23707
1.22915
0.0620448
-0.0535547
-1.01547
1.00698
0.0458121
-0.0374809
-0.837916
0.829584
0.0302683
-0.0225039
-0.668221
0.660456
0.0149593
-0.00690662
-0.472408
0.464355
0.00139508
0.00195966
-0.26882
0.265465
-0.0031229
0.00299041
-0.113325
0.113458
-0.00223039
0.00117845
-0.0284054
0.0294574
-0.000429909
4.28903e-06
0.00042562
-0.0804658
0.0777121
0.00275375
-0.00509203
0.00274004
-0.399962
0.402313
0.00149992
-0.00592004
-0.557603
0.562023
0.0110559
-0.0166816
-0.685417
0.691043
0.0237812
-0.0303725
-0.802631
0.809222
0.0375297
-0.04392
-0.924251
0.930641
0.0508443
-0.0566104
-1.06213
1.0679
0.0626668
-0.0670398
-1.21793
1.2223
0.0710004
-0.0732539
-1.39192
1.39417
0.073827
-0.0719097
-1.58605
1.58413
0.0679732
-0.0621182
-1.5137
1.50784
0.0555188
-0.0474765
-1.22093
1.21289
0.0399739
-0.0319266
-0.998116
0.990069
0.0243936
-0.0163981
-0.820262
0.812267
0.0089087
-0.00146966
-0.648869
0.64143
-0.00470122
0.0096937
-0.454467
0.449474
-0.0116414
0.0111507
-0.259446
0.259937
-0.00953996
0.00689387
-0.112434
0.11508
-0.00452868
0.00214904
-0.0297661
0.0321457
-0.000682107
-0.000356458
0.00103856
-0.0790133
0.0766232
0.00239014
-0.00611135
0.00523674
-0.408898
0.409773
-0.00204039
-0.00128915
-0.569495
0.572824
0.00547207
-0.0106029
-0.697778
0.702909
0.0165988
-0.0224442
-0.81513
0.820976
0.0287329
-0.0344029
-0.936645
0.942315
0.0404962
-0.0457715
-1.07359
1.07887
0.0510487
-0.055186
-1.22659
1.23072
0.058656
-0.0605688
-1.39608
1.398
0.060936
-0.0591026
-1.58213
1.5803
0.0555726
-0.0502469
-1.5016
1.49627
0.0444646
-0.0374943
-1.20516
1.19819
0.0307288
-0.0229702
-0.98175
0.973991
0.0155224
-0.00706748
-0.802876
0.794421
-0.000668389
0.00816428
-0.630802
0.623306
-0.0132681
0.0164836
-0.441748
0.438532
-0.0169174
0.0147645
-0.256889
0.259042
-0.0119152
0.00846886
-0.116334
0.119781
-0.00542255
0.00251148
-0.0337858
0.0366969
-0.000773916
-0.00136772
0.00214163
-0.0777361
0.0757199
0.00201616
-0.00592672
0.00546896
-0.415138
0.415596
-0.00352645
0.000738547
-0.578797
0.581585
0.00342142
-0.0078931
-0.708355
0.712827
0.0131345
-0.0182932
-0.826069
0.831228
0.0239934
-0.0291829
-0.947702
0.952892
0.0348947
-0.0396428
-1.08392
1.08867
0.0445141
-0.0483438
-1.23462
1.23845
0.0515325
-0.0533369
-1.39972
1.40152
0.0537858
-0.0527008
-1.5786
1.57751
0.0498096
-0.0455239
-1.49095
1.48666
0.0405647
-0.0343778
-1.1914
1.18522
0.0283384
-0.0207206
-0.966038
0.95842
0.0132312
-0.00480396
-0.784975
0.776548
-0.00277593
0.00985541
-0.613605
0.606526
-0.0144408
0.0170664
-0.432436
0.429811
-0.0169606
0.0146876
-0.257425
0.259698
-0.0118462
0.00835664
-0.121775
0.125265
-0.00527699
0.00245954
-0.0386611
0.0414785
-0.00075917
-0.0025785
0.00333767
-0.0768321
0.0752798
0.00155233
-0.00501988
0.00484519
-0.419895
0.420069
-0.00316458
0.000985003
-0.587089
0.589269
0.0029783
-0.00712943
-0.717695
0.721846
0.0122003
-0.0167448
-0.836047
0.840592
0.0218668
-0.02657
-0.958102
0.962805
0.0320754
-0.0364652
-1.09348
1.09787
0.0408877
-0.0446032
-1.24213
1.24585
0.0480845
-0.0499523
-1.40343
1.4053
0.0508179
-0.0501127
-1.57627
1.57557
0.0480799
-0.0441638
-1.48243
1.47851
0.0398468
-0.0342153
-1.17899
1.17336
0.0282973
-0.0210504
-0.95067
0.943423
0.0137259
-0.00551561
-0.767314
0.759104
-0.00124319
0.00762628
-0.597859
0.591476
-0.0116087
0.0136315
-0.424646
0.422624
-0.0137828
0.012228
-0.258636
0.260191
-0.00988358
0.00695152
-0.127022
0.129954
-0.00438211
0.00205025
-0.0431409
0.0454727
-0.000639652
-0.00369418
0.00433383
-0.0764409
0.0752379
0.00120302
-0.00394971
0.00388297
-0.423765
0.423832
-0.00226249
0.00015761
-0.594447
0.596552
0.00363901
-0.00745954
-0.726264
0.730085
0.0119099
-0.0163653
-0.845143
0.849598
0.0211824
-0.0260672
-0.967347
0.972232
0.0308729
-0.0350956
-1.10237
1.10659
0.039676
-0.0432238
-1.24947
1.25302
0.0463587
-0.0487945
-1.40716
1.4096
0.05007
-0.0498714
-1.57506
1.57486
0.0481358
-0.0447908
-1.47484
1.4715
0.0407041
-0.0352413
-1.16735
1.16189
0.0295725
-0.022622
-0.935889
0.928939
0.0158021
-0.00849003
-0.750665
0.743352
0.00218924
0.00341302
-0.583912
0.57831
-0.00691929
0.00891177
-0.418138
0.416146
-0.00935303
0.00834362
-0.259024
0.260033
-0.00681468
0.00480629
-0.130878
0.132886
-0.00306758
0.00146279
-0.0465543
0.0481591
-0.000480313
-0.00455695
0.00503726
-0.0765801
0.0755721
0.00100796
-0.00270124
0.00239379
-0.427275
0.427582
-0.000930311
-0.00122811
-0.6013
0.603459
0.00473536
-0.00847321
-0.734392
0.73813
0.0128029
-0.0169069
-0.853902
0.858006
0.0218744
-0.0259812
-0.976556
0.980663
0.0307547
-0.0348122
-1.11098
1.11503
0.0393034
-0.0430898
-1.25657
1.26036
0.0466054
-0.0489365
-1.41186
1.41419
0.0506507
-0.0508628
-1.57463
1.57484
0.0496723
-0.0464429
-1.46796
1.46473
0.0425737
-0.0373232
-1.1564
1.15115
0.0319984
-0.0255146
-0.921739
0.915255
0.0194754
-0.0129353
-0.735772
0.729231
0.00746188
-0.00247749
-0.571844
0.566859
-0.000899647
0.00290377
-0.411744
0.409739
-0.00377281
0.00360917
-0.258322
0.258485
-0.0030861
0.00215481
-0.132907
0.133838
-0.00136377
0.000686684
-0.0484608
0.0491379
-0.000241601
-0.00510677
0.00534837
-0.0769947
0.076289
0.000705734
-0.00160156
0.000846297
-0.430859
0.431614
0.00041033
-0.00269475
-0.607435
0.60972
0.00591066
-0.00955287
-0.742069
0.745711
0.0137375
-0.0179867
-0.862012
0.866261
0.0223473
-0.0266093
-0.984983
0.989245
0.0313383
-0.0351938
-1.11951
1.12337
0.0398082
-0.0436022
-1.26397
1.26777
0.0472382
-0.0501469
-1.41697
1.41988
0.0523519
-0.0527702
-1.57508
1.57549
0.0516523
-0.0489154
-1.46157
1.45883
0.0454107
-0.0404201
-1.14569
1.1407
0.0353808
-0.0296562
-0.908719
0.902995
0.0239207
-0.0182775
-0.722478
0.716835
0.0134173
-0.00876084
-0.561341
0.556684
0.00553319
-0.00303202
-0.405292
0.402791
0.00161783
-0.000773904
-0.256208
0.255364
0.000353696
-0.00011219
-0.132803
0.132561
-8.66977e-05
0.000170568
-0.0487234
0.0486395
-0.000120112
-0.0052192
0.00533931
-0.0777991
0.0772496
0.000549551
-0.000671159
-5.96947e-06
-0.434645
0.435322
0.00179787
-0.00391641
-0.613639
0.615758
0.00731161
-0.0108305
-0.749282
0.752801
0.014863
-0.0187134
-0.870209
0.87406
0.0231895
-0.0271315
-0.993507
0.997449
0.0318071
-0.0361105
-1.12768
1.13198
0.0404037
-0.0445644
-1.27163
1.27579
0.0486649
-0.0516826
-1.42271
1.42572
0.054219
-0.0552965
-1.57608
1.57716
0.0544732
-0.0521862
-1.45587
1.45358
0.0487906
-0.0442297
-1.13569
1.13113
0.0396824
-0.0343437
-0.89691
0.891571
0.0292649
-0.0240625
-0.710706
0.705504
0.0195558
-0.0149944
-0.551383
0.546822
0.0115327
-0.00864097
-0.398439
0.395548
0.00647663
-0.00474545
-0.252369
0.250637
0.00334212
-0.00200831
-0.130634
0.129301
0.000998926
-0.000260393
-0.0474916
0.0467531
-2.33156e-05
-0.00497716
0.00500047
-0.0788695
0.0784921
0.000377432
0.000364211
-0.00121611
-0.438535
0.439387
0.00285403
-0.00524529
-0.619417
0.621808
0.00856201
-0.0119126
-0.756243
0.759593
0.0160097
-0.0196978
-0.877901
0.881589
0.0240021
-0.0280557
-1.00186
1.00592
0.0326457
-0.0369341
-1.13615
1.14044
0.0414814
-0.0457061
-1.2799
1.28413
0.0500149
-0.0537661
-1.42903
1.43279
0.0566858
-0.0579606
-1.57813
1.57941
0.0576972
-0.0556266
-1.45112
1.44905
0.0527339
-0.0487176
-1.12648
1.12247
0.0443306
-0.0393949
-0.88599
0.881054
0.0347082
-0.0297159
-0.699926
0.694933
0.0254944
-0.0209333
-0.541924
0.537363
0.0173198
-0.0137906
-0.390972
0.387443
0.0110216
-0.00837072
-0.246828
0.244177
0.00597452
-0.00369994
-0.126458
0.124184
0.00199265
-0.000707537
-0.0450256
0.0437405
0.00010551
-0.00453262
0.00442711