/*--------------------------------*- C++ -*----------------------------------*\
  =========                 |
  \\      /  F ield         | OpenFOAM: The Open Source CFD Toolbox
   \\    /   O peration     | Website:  https://openfoam.org
    \\  /    A nd           | Version:  6
     \\/     M anipulation  |
\*---------------------------------------------------------------------------*/
FoamFile
{
    version     2.0;
    format      ascii;
    class       volVectorField;
    location    "41.4";
    object      U;
}
// * * * * * * * * * * * * * * * * * * * * * * * * * * * * * * * * * * * * * //

dimensions      [0 1 -1 0 0 0 0];

internalField   nonuniform List<vector> 
8800
(
(0.987188 -0.0766663 0)
(1.0019 -0.0551906 0)
(0.999747 -0.0285487 0)
(1.00004 -0.0151412 0)
(1.00006 -0.00853744 0)
(1.00006 -0.00503746 0)
(1.00004 -0.00300559 0)
(1.00001 -0.00171997 0)
(0.999996 -0.00081921 0)
(1.00005 -0.000105308 0)
(0.999988 0.000618966 0)
(0.999997 0.00137775 0)
(1.00001 0.00240282 0)
(1.00002 0.00398611 0)
(1.00002 0.00662619 0)
(1 0.0113658 0)
(0.999893 0.02081 0)
(0.999147 0.0386681 0)
(1.00709 0.0724557 0)
(0.771213 0.0366606 0)
(0.363047 -0.0160195 0)
(1.04329 -0.0768284 0)
(1.0846 -0.0704685 0)
(1.04521 -0.0535696 0)
(1.02327 -0.0389232 0)
(1.01195 -0.026249 0)
(1.00636 -0.016907 0)
(1.00356 -0.0104011 0)
(1.00214 -0.00575425 0)
(1.00144 -0.00211173 0)
(1.00131 0.00120613 0)
(1.00168 0.00458648 0)
(1.00266 0.0085217 0)
(1.00463 0.0138728 0)
(1.00858 0.0216034 0)
(1.01655 0.0325884 0)
(1.03246 0.0465075 0)
(1.06263 0.0616307 0)
(1.09188 0.0760789 0)
(0.838702 0.0565527 0)
(0.216781 -0.00243243 0)
(1.07586 -0.0501698 0)
(1.09987 -0.0483604 0)
(1.06462 -0.0405183 0)
(1.03996 -0.033662 0)
(1.02381 -0.0261522 0)
(1.01404 -0.0186057 0)
(1.00851 -0.0118186 0)
(1.00557 -0.00597485 0)
(1.00433 -0.000582466 0)
(1.00468 0.00464945 0)
(1.00661 0.0100391 0)
(1.0106 0.0161447 0)
(1.01792 0.0232022 0)
(1.03054 0.0307 0)
(1.05063 0.0377544 0)
(1.08034 0.044454 0)
(1.10628 0.0512881 0)
(0.942624 0.0415886 0)
(0.216233 0.00245815 0)
(0.175065 -0.000819699 0)
(1.01756 -0.0355336 0)
(1.10514 -0.0414596 0)
(1.07819 -0.0361617 0)
(1.05334 -0.0302438 0)
(1.03605 -0.0246971 0)
(1.02388 -0.0190113 0)
(1.01581 -0.012959 0)
(1.01097 -0.00679393 0)
(1.0088 -0.000488474 0)
(1.0094 0.00574942 0)
(1.01268 0.0117489 0)
(1.01888 0.017613 0)
(1.02877 0.0232316 0)
(1.04324 0.0285716 0)
(1.06377 0.03408 0)
(1.09359 0.0400804 0)
(1.0935 0.0418709 0)
(0.827393 0.0228735 0)
(0.174141 0.000848438 0)
(0.153813 -0.00061407 0)
(0.955903 -0.0255233 0)
(1.10332 -0.0352392 0)
(1.08755 -0.0327835 0)
(1.06153 -0.0281428 0)
(1.0439 -0.0231462 0)
(1.03147 -0.0179578 0)
(1.02267 -0.0124851 0)
(1.0169 -0.00659755 0)
(1.01412 -0.000156926 0)
(1.01483 0.00629475 0)
(1.01882 0.0121726 0)
(1.02583 0.0174779 0)
(1.03614 0.0224349 0)
(1.05074 0.0272496 0)
(1.072 0.0318297 0)
(1.10017 0.0358021 0)
(1.0683 0.0339092 0)
(0.739993 0.0142629 0)
(0.152426 0.000646575 0)
(0.139381 -0.000470548 0)
(0.898809 -0.0191525 0)
(1.09553 -0.0302197 0)
(1.09555 -0.0293714 0)
(1.06899 -0.0256775 0)
(1.05053 -0.0215944 0)
(1.03765 -0.0168826 0)
(1.0286 -0.0116385 0)
(1.02255 -0.00593537 0)
(1.01949 0.000338085 0)
(1.02018 0.00660931 0)
(1.02432 0.0122448 0)
(1.03145 0.017264 0)
(1.04198 0.0218052 0)
(1.05717 0.0258231 0)
(1.0794 0.029332 0)
(1.10248 0.0319928 0)
(1.0364 0.0279546 0)
(0.673706 0.0101453 0)
(0.137429 0.00050798 0)
(0.128774 -0.000365552 0)
(0.848987 -0.0148004 0)
(1.08298 -0.0261106 0)
(1.1011 -0.0264522 0)
(1.07572 -0.0232086 0)
(1.05675 -0.0196227 0)
(1.04343 -0.0154604 0)
(1.03404 -0.0106318 0)
(1.02775 -0.00518067 0)
(1.02452 0.000929989 0)
(1.0251 0.0070286 0)
(1.02922 0.0123807 0)
(1.03649 0.0169526 0)
(1.04732 0.0208644 0)
(1.06291 0.0242227 0)
(1.08556 0.0272367 0)
(1.10171 0.0290583 0)
(1.00179 0.0233832 0)
(0.622236 0.00776216 0)
(0.126136 0.000409393 0)
(0.120658 -0.000285409 0)
(0.806579 -0.0116531 0)
(1.0675 -0.022534 0)
(1.10451 -0.0238726 0)
(1.08188 -0.0210501 0)
(1.06247 -0.0176973 0)
(1.04886 -0.0138518 0)
(1.0392 -0.00935773 0)
(1.03267 -0.00418479 0)
(1.02924 0.00165243 0)
(1.02967 0.00743835 0)
(1.03376 0.0124365 0)
(1.04109 0.0165683 0)
(1.05206 0.0200097 0)
(1.06793 0.0229664 0)
(1.09096 0.025693 0)
(1.09811 0.0266286 0)
(0.966953 0.0197755 0)
(0.581053 0.00620501 0)
(0.117187 0.000337538 0)
(0.114346 -0.000222508 0)
(0.770821 -0.00929558 0)
(1.05047 -0.019371 0)
(1.10669 -0.0214801 0)
(1.08757 -0.0190761 0)
(1.0678 -0.0158951 0)
(1.05398 -0.012218 0)
(1.04412 -0.0079479 0)
(1.03732 -0.00305377 0)
(1.03362 0.00251713 0)
(1.03389 0.00800902 0)
(1.03793 0.012611 0)
(1.04527 0.0163283 0)
(1.05625 0.0193986 0)
(1.0723 0.0220278 0)
(1.09501 0.024415 0)
(1.09174 0.0245624 0)
(0.933208 0.0169553 0)
(0.547167 0.00512917 0)
(0.109862 0.000285173 0)
(0.109408 -0.000172053 0)
(0.740784 -0.00746492 0)
(1.033 -0.016572 0)
(1.10793 -0.0192037 0)
(1.09297 -0.0170772 0)
(1.07291 -0.0139844 0)
(1.05881 -0.0104543 0)
(1.04878 -0.00638011 0)
(1.04182 -0.00170876 0)
(1.0379 0.00357484 0)
(1.03791 0.00871272 0)
(1.04173 0.0129341 0)
(1.04893 0.0162505 0)
(1.05994 0.0189331 0)
(1.07623 0.0212682 0)
(1.09791 0.0233577 0)
(1.0831 0.0227921 0)
(0.901206 0.0147681 0)
(0.518578 0.00436148 0)
(0.103694 0.00024717 0)
(0.105557 -0.000129931 0)
(0.715667 -0.00598002 0)
(1.01588 -0.0140421 0)
(1.1083 -0.0170329 0)
(1.09826 -0.0152615 0)
(1.07791 -0.0122217 0)
(1.06353 -0.00870167 0)
(1.05331 -0.00467646 0)
(1.04612 -0.000158977 0)
(1.0419 0.00483652 0)
(1.04162 0.0095959 0)
(1.04521 0.0134386 0)
(1.05225 0.0164489 0)
(1.06324 0.0188821 0)
(1.07972 0.0209525 0)
(1.09952 0.0225952 0)
(1.07254 0.0213294 0)
(0.871088 0.0130901 0)
(0.493879 0.00381368 0)
(0.0983436 0.000221233 0)
(0.102611 -9.33848e-05 0)
(0.694855 -0.00472878 0)
(0.99977 -0.0117173 0)
(1.10788 -0.0148231 0)
(1.10323 -0.0132478 0)
(1.08286 -0.0102155 0)
(1.06821 -0.00675767 0)
(1.05772 -0.00284299 0)
(1.05024 0.00153473 0)
(1.04569 0.00635699 0)
(1.04504 0.0108609 0)
(1.04831 0.014347 0)
(1.05517 0.0169512 0)
(1.06615 0.0190004 0)
(1.08276 0.02077 0)
(1.10016 0.0220397 0)
(1.06042 0.0201315 0)
(0.842806 0.0118284 0)
(0.472046 0.00342809 0)
(0.0935711 0.000204382 0)
(0.100449 -5.99775e-05 0)
(0.677889 -0.00362584 0)
(0.985136 -0.00954326 0)
(1.10704 -0.0126112 0)
(1.10807 -0.0111675 0)
(1.08779 -0.00809476 0)
(1.07277 -0.00461329 0)
(1.062 -0.000701181 0)
(1.05421 0.003607 0)
(1.04923 0.00820416 0)
(1.04813 0.0123476 0)
(1.05103 0.0154736 0)
(1.05764 0.0177228 0)
(1.06857 0.0194205 0)
(1.08533 0.0209104 0)
(1.09982 0.0218204 0)
(1.04703 0.0192393 0)
(0.81612 0.0109078 0)
(0.452292 0.00316631 0)
(0.0891825 0.000194845 0)
(0.0990126 -2.67555e-05 0)
(0.664497 -0.0025884 0)
(0.972318 -0.00740314 0)
(1.10589 -0.01025 0)
(1.1127 -0.00893758 0)
(1.09282 -0.00584826 0)
(1.07743 -0.0022474 0)
(1.06627 0.00174613 0)
(1.05802 0.00600959 0)
(1.05249 0.0104497 0)
(1.05083 0.0143157 0)
(1.05332 0.0170244 0)
(1.05969 0.0189053 0)
(1.07061 0.0202902 0)
(1.0874 0.0214499 0)
(1.09842 0.0218819 0)
(1.03244 0.0185985 0)
(0.790724 0.0102606 0)
(0.434002 0.0030017 0)
(0.0850234 0.000191561 0)
(0.0982889 8.07001e-06 0)
(0.654549 -0.00156107 0)
(0.96172 -0.00524141 0)
(1.10487 -0.00765045 0)
(1.11728 -0.00629504 0)
(1.09798 -0.00312068 0)
(1.08223 0.000582321 0)
(1.07063 0.00462527 0)
(1.06187 0.00888863 0)
(1.05572 0.013192 0)
(1.05337 0.0167431 0)
(1.05529 0.0190558 0)
(1.06133 0.0204458 0)
(1.07212 0.0213523 0)
(1.08884 0.0221845 0)
(1.09581 0.0221713 0)
(1.01683 0.0182091 0)
(0.766345 0.00985472 0)
(0.416703 0.00291729 0)
(0.0809853 0.000193083 0)
(0.0982953 3.93739e-05 0)
(0.648037 -0.000514046 0)
(0.953623 -0.00300416 0)
(1.1044 -0.00483989 0)
(1.12209 -0.00335395 0)
(1.10336 -2.97053e-05 0)
(1.08712 0.00382893 0)
(1.07505 0.00802632 0)
(1.06567 0.012371 0)
(1.05871 0.016543 0)
(1.05554 0.019731 0)
(1.0568 0.0216049 0)
(1.06238 0.022542 0)
(1.07307 0.0229766 0)
(1.08963 0.0233638 0)
(1.09193 0.02284 0)
(1.00021 0.0181477 0)
(0.742588 0.00967936 0)
(0.399947 0.00291433 0)
(0.0769449 0.000200756 0)
(0.0991094 8.88046e-05 0)
(0.645098 0.000577393 0)
(0.948322 -0.000599347 0)
(1.10465 -0.00170958 0)
(1.12717 -6.43925e-05 0)
(1.10902 0.00342788 0)
(1.09228 0.00758776 0)
(1.07959 0.0120512 0)
(1.06944 0.0165158 0)
(1.0615 0.0206266 0)
(1.05732 0.0235202 0)
(1.05776 0.0248958 0)
(1.06283 0.0252825 0)
(1.07336 0.0252191 0)
(1.08937 0.0251114 0)
(1.08664 0.0238683 0)
(0.98241 0.0183684 0)
(0.71909 0.00972532 0)
(0.383324 0.00298358 0)
(0.0727988 0.000212915 0)
(0.100868 0.000142304 0)
(0.646064 0.00177404 0)
(0.946277 0.00204037 0)
(1.10613 0.00192274 0)
(1.13263 0.0039547 0)
(1.11509 0.00774582 0)
(1.09786 0.0122388 0)
(1.08437 0.0169631 0)
(1.07318 0.0215736 0)
(1.064 0.0256266 0)
(1.0586 0.0281577 0)
(1.05812 0.028933 0)
(1.06261 0.0286789 0)
(1.07287 0.0280177 0)
(1.08797 0.0273152 0)
(1.07962 0.0252536 0)
(0.963413 0.0189374 0)
(0.695446 0.00999561 0)
(0.366441 0.00312661 0)
(0.0684496 0.000229905 0)
(0.103702 0.000202436 0)
(0.651425 0.00321731 0)
(0.947968 0.00504356 0)
(1.10948 0.00606228 0)
(1.13893 0.00866883 0)
(1.12176 0.0129216 0)
(1.10385 0.0178136 0)
(1.08951 0.0229 0)
(1.07725 0.0277714 0)
(1.06665 0.0317473 0)
(1.05968 0.0338247 0)
(1.05794 0.0339947 0)
(1.06159 0.0329895 0)
(1.07152 0.0316098 0)
(1.08532 0.0301995 0)
(1.07086 0.0272333 0)
(0.942941 0.019944 0)
(0.671169 0.0105303 0)
(0.348869 0.00335252 0)
(0.0637895 0.000252196 0)
(0.107884 0.000286681 0)
(0.661622 0.00493081 0)
(0.953579 0.00844379 0)
(1.11499 0.010855 0)
(1.1462 0.0140503 0)
(1.12914 0.0188826 0)
(1.1104 0.0244197 0)
(1.09492 0.0300765 0)
(1.08111 0.0352772 0)
(1.06861 0.0392421 0)
(1.05986 0.0408593 0)
(1.05681 0.0402394 0)
(1.05951 0.0384155 0)
(1.06903 0.0362746 0)
(1.08121 0.0340384 0)
(1.05998 0.0298545 0)
(0.920587 0.0214234 0)
(0.645686 0.0113411 0)
(0.330145 0.00365552 0)
(0.0587203 0.000277309 0)
(0.11376 0.000398296 0)
(0.677332 0.0070436 0)
(0.964133 0.012636 0)
(1.12313 0.0166063 0)
(1.15464 0.0206531 0)
(1.13755 0.0263235 0)
(1.11788 0.0326601 0)
(1.10098 0.0389825 0)
(1.08535 0.0445644 0)
(1.07065 0.048417 0)
(1.05965 0.0493776 0)
(1.05486 0.0478559 0)
(1.05641 0.0451071 0)
(1.06532 0.0420832 0)
(1.07546 0.038904 0)
(1.04659 0.0332975 0)
(0.895937 0.0235623 0)
(0.618272 0.012504 0)
(0.309741 0.00405043 0)
(0.0531658 0.000304672 0)
(0.121816 0.00055185 0)
(0.699392 0.00974667 0)
(0.980217 0.0177029 0)
(1.13471 0.0234994 0)
(1.16497 0.0287763 0)
(1.14735 0.035649 0)
(1.1264 0.0429223 0)
(1.10763 0.0499854 0)
(1.08963 0.0559514 0)
(1.07218 0.059609 0)
(1.05857 0.0597227 0)
(1.05184 0.0570709 0)
(1.0521 0.0532267 0)
(1.06026 0.049216 0)
(1.06785 0.0450783 0)
(1.03041 0.0378801 0)
(0.868283 0.0265378 0)
(0.587974 0.0141099 0)
(0.286981 0.00455058 0)
(0.0470423 0.000334253 0)
(0.132764 0.000774224 0)
(0.728934 0.0133777 0)
(1.0028 0.0240732 0)
(1.15047 0.031995 0)
(1.17784 0.0388304 0)
(1.15882 0.0472972 0)
(1.13601 0.0557616 0)
(1.11479 0.0637065 0)
(1.0938 0.0700075 0)
(1.07302 0.073221 0)
(1.05646 0.0721941 0)
(1.04749 0.0681619 0)
(1.04629 0.0630151 0)
(1.05367 0.0578777 0)
(1.05821 0.0526727 0)
(1.01091 0.0437835 0)
(0.836777 0.0304644 0)
(0.553619 0.0161691 0)
(0.261139 0.00514072 0)
(0.0402655 0.000364924 0)
(0.147791 0.00112265 0)
(0.767785 0.0185971 0)
(1.03336 0.0325994 0)
(1.17123 0.0430636 0)
(1.19405 0.0519164 0)
(1.1725 0.0622234 0)
(1.14706 0.0720559 0)
(1.1226 0.0808397 0)
(1.09793 0.0872254 0)
(1.07325 0.0896842 0)
(1.05329 0.0871797 0)
(1.04187 0.0814418 0)
(1.03901 0.0748339 0)
(1.04533 0.0683645 0)
(1.04612 0.0618961 0)
(0.987453 0.0510691 0)
(0.800433 0.035368 0)
(0.514 0.0185852 0)
(0.231686 0.00576703 0)
(0.0328132 0.000392387 0)
(0.168994 0.00172708 0)
(0.818927 0.0265519 0)
(1.07464 0.044871 0)
(1.19799 0.0586375 0)
(1.21406 0.0702725 0)
(1.18843 0.0823655 0)
(1.15921 0.0934478 0)
(1.13046 0.102605 0)
(1.10127 0.10841 0)
(1.07214 0.109355 0)
(1.04848 0.10474 0)
(1.03451 0.096991 0)
(1.03001 0.0886998 0)
(1.03489 0.0808704 0)
(1.03108 0.0728256 0)
(0.959221 0.0597287 0)
(0.758002 0.0410459 0)
(0.468249 0.0211548 0)
(0.19859 0.00633897 0)
(0.0247931 0.000408575 0)
(0.199682 0.00306687 0)
(0.887981 0.0399767 0)
(1.12959 0.0647054 0)
(1.23124 0.082289 0)
(1.23785 0.0968735 0)
(1.20615 0.110327 0)
(1.17174 0.121732 0)
(1.13768 0.130104 0)
(1.10333 0.134177 0)
(1.06936 0.132457 0)
(1.04185 0.124853 0)
(1.02532 0.114613 0)
(1.01928 0.104483 0)
(1.02265 0.0952588 0)
(1.01263 0.0855275 0)
(0.924985 0.0695917 0)
(0.708195 0.0470557 0)
(0.416582 0.0236506 0)
(0.162951 0.00679024 0)
(0.016616 0.000403822 0)
(0.241585 0.00921046 1.17289e-20)
(0.978891 0.0666916 1.00082e-20)
(1.19589 0.0986114 -3.46316e-21)
(1.2684 0.11772 0)
(1.26285 0.135183 -8.50212e-35)
(1.22353 0.148219 1.23506e-21)
(1.18304 0.158165 -2.18474e-21)
(1.14307 0.164371 0)
(1.10308 0.165689 4.39635e-35)
(1.06382 0.160668 -2.62099e-21)
(1.03215 0.149736 0)
(1.01282 0.136784 -3.07457e-21)
(1.00514 0.124657 -9.04584e-21)
(1.00683 0.114304 -4.26798e-21)
(0.988646 0.102972 -1.28222e-21)
(0.880517 0.0830811 -7.61554e-22)
(0.645723 0.0548529 0)
(0.35642 0.0268084 5.34714e-22)
(0.12567 0.00786721 6.3354e-22)
(0.00884541 0.000535626 1.15442e-20)
(0.270291 0.0243243 9.12715e-21)
(1.05381 0.108955 1.05818e-22)
(1.25002 0.14711 9.49233e-22)
(1.30234 0.166193 0)
(1.28489 0.183659 -4.40323e-21)
(1.23844 0.19462 -4.94633e-21)
(1.1918 0.202367 -2.22573e-21)
(1.14578 0.206264 -7.79725e-21)
(1.09983 0.205057 0)
(1.05471 0.197217 1.11817e-20)
(1.0179 0.183381 1.10215e-20)
(0.994746 0.16803 3.26449e-21)
(0.98415 0.153805 1.18278e-20)
(0.980838 0.140582 1.65497e-20)
(0.951712 0.125425 0)
(0.82099 0.10075 2.33598e-20)
(0.572688 0.0651447 3.36008e-20)
(0.295071 0.0314326 3.74273e-20)
(0.0919341 0.0091399 -4.29657e-20)
(0.00217913 0.000273259 -8.16648e-22)
(0.27141 0.0407204 0)
(1.10105 0.163869 1.70634e-21)
(1.28662 0.206559 0)
(1.32864 0.225584 -6.09414e-21)
(1.30212 0.23989 0)
(1.24966 0.24705 -9.87617e-21)
(1.19733 0.251266 4.58782e-21)
(1.14561 0.251935 -1.58522e-20)
(1.09401 0.247475 -3.15367e-22)
(1.04319 0.236047 5.82509e-21)
(1.00128 0.218472 2.42515e-20)
(0.974237 0.199986 -6.0065e-23)
(0.960386 0.18359 -8.60294e-21)
(0.952811 0.169029 -1.56399e-20)
(0.916274 0.15135 1.85341e-20)
(0.777406 0.120823 -3.28862e-20)
(0.532771 0.0779417 -4.36457e-21)
(0.272017 0.0381427 0)
(0.0844232 0.0114273 -6.68667e-26)
(0.00105918 0.000129966 0)
(0.265002 0.0546548 2.56644e-20)
(1.12635 0.222529 -1.19398e-20)
(1.30929 0.270911 -8.50089e-21)
(1.3457 0.290337 2.96025e-21)
(1.31303 0.300652 -4.92913e-21)
(1.25618 0.303484 2.08114e-20)
(1.19927 0.303627 9.6353e-21)
(1.14259 0.300474 0)
(1.08579 0.292154 -2.9562e-20)
(1.0295 0.27658 0)
(0.982677 0.255239 -1.27906e-20)
(0.951932 0.234183 -1.56683e-20)
(0.935635 0.216462 -9.38815e-21)
(0.925306 0.200932 -1.13784e-20)
(0.883227 0.179819 0)
(0.745311 0.143439 0)
(0.514879 0.0946709 -2.8583e-20)
(0.27229 0.0492214 5.66376e-21)
(0.090353 0.0159865 -3.32023e-21)
(0.00280442 0.000470408 -3.93192e-21)
(0.257713 0.0670271 -1.24381e-20)
(1.1375 0.28118 0)
(1.32181 0.33647 1.84689e-20)
(1.35474 0.356593 8.59973e-21)
(1.31779 0.363153 1.12326e-20)
(1.25785 0.36178 0)
(1.19741 0.357842 9.56791e-21)
(1.13661 0.350617 1.76889e-20)
(1.0752 0.338182 1.52435e-20)
(1.01407 0.318533 2.74874e-20)
(0.962889 0.294159 0)
(0.928922 0.271523 -3.38517e-20)
(0.910066 0.252692 -2.03243e-20)
(0.896057 0.234908 -1.19995e-20)
(0.850128 0.209341 7.3624e-20)
(0.719774 0.168556 8.80347e-21)
(0.507837 0.115146 4.15589e-20)
(0.280717 0.0633568 -1.97095e-19)
(0.102001 0.0229753 1.1692e-19)
(0.00643603 0.00148914 -1.42719e-19)
(0.250946 0.0782204 -8.64195e-21)
(1.13984 0.337931 2.31319e-21)
(1.32711 0.401295 -2.25494e-21)
(1.35756 0.422469 -9.55909e-21)
(1.31748 0.425622 -9.98476e-21)
(1.25528 0.420303 3.55821e-22)
(1.19202 0.41239 -1.03549e-20)
(1.12778 0.401084 1.83969e-20)
(1.0625 0.384579 -3.28167e-20)
(0.997334 0.361224 0)
(0.942608 0.334209 -1.53925e-20)
(0.905631 0.309831 -3.23807e-22)
(0.883491 0.289123 -2.22204e-20)
(0.864721 0.268147 0)
(0.81665 0.23895 -1.59516e-20)
(0.697337 0.195216 -3.80535e-20)
(0.503701 0.137784 1.02193e-19)
(0.290408 0.079594 -1.00769e-19)
(0.114159 0.0314714 1.43419e-19)
(0.0103516 0.00296421 -1.50933e-19)
(0.245412 0.0886443 -1.04945e-22)
(1.13676 0.392101 -1.5742e-21)
(1.3273 0.464303 -7.53091e-21)
(1.3557 0.48677 4.20834e-21)
(1.31321 0.486903 -5.0933e-21)
(1.24927 0.477914 0)
(1.18368 0.466153 -9.8466e-21)
(1.11656 0.450905 -1.93179e-20)
(1.04809 0.430553 -1.71166e-20)
(0.979629 0.403717 0)
(0.921879 0.373841 -1.60173e-20)
(0.881995 0.346816 -1.97037e-20)
(0.856147 0.323203 2.40862e-20)
(0.832986 0.298984 -1.46009e-20)
(0.784824 0.267441 -6.95296e-20)
(0.676019 0.222034 4.15921e-20)
(0.49833 0.161074 1.24931e-20)
(0.297405 0.0963339 0)
(0.123751 0.0404778 -1.38549e-19)
(0.0135853 0.00458913 -5.14445e-21)
(0.241157 0.0986065 -5.61662e-22)
(1.13038 0.443513 1.10771e-21)
(1.3238 0.524905 3.7484e-21)
(1.35036 0.548785 1.44513e-20)
(1.30593 0.546238 -1.94559e-20)
(1.24058 0.533841 2.09643e-20)
(1.17302 0.518425 2.11609e-20)
(1.1035 0.499477 -3.08687e-20)
(1.03239 0.475559 1.03996e-20)
(0.961084 0.445291 -6.7597e-20)
(0.900539 0.412001 -1.80298e-20)
(0.857796 0.381588 0)
(0.828412 0.354603 2.60837e-20)
(0.801813 0.327709 3.11928e-20)
(0.754605 0.294601 3.73544e-20)
(0.655089 0.247804 -4.5074e-20)
(0.49039 0.183481 -1.33856e-20)
(0.299705 0.112452 1.57781e-20)
(0.129467 0.0489335 0)
(0.0158047 0.00611012 -1.11435e-20)
(0.238008 0.108193 1.17598e-21)
(1.12221 0.492204 -2.3335e-21)
(1.31782 0.583427 -3.62891e-21)
(1.34244 0.608142 9.20234e-21)
(1.29642 0.603161 -9.15426e-21)
(1.22986 0.587592 -8.21822e-22)
(1.16064 0.568807 -2.30151e-20)
(1.08913 0.546499 -1.11404e-20)
(1.01573 0.519292 -2.96786e-20)
(0.941832 0.485548 4.91812e-23)
(0.878519 0.448407 -5.65181e-20)
(0.833047 0.414271 4.72952e-20)
(0.800681 0.384088 -2.85656e-20)
(0.771706 0.355155 3.42662e-20)
(0.725761 0.321042 0)
(0.632954 0.272718 -2.43634e-20)
(0.4792 0.204774 -9.99665e-23)
(0.296989 0.127053 -6.85438e-20)
(0.130471 0.0560534 -1.01219e-20)
(0.0168232 0.0073062 0)
(0.235849 0.117602 0)
(1.11311 0.53839 -1.69729e-21)
(1.30982 0.639061 -5.39203e-21)
(1.33264 0.664652 -8.85074e-21)
(1.28525 0.657428 -1.10823e-20)
(1.21765 0.638929 0)
(1.14706 0.617107 -1.07159e-20)
(1.07386 0.59183 -2.37784e-22)
(0.998414 0.561613 6.35191e-20)
(0.921986 0.524363 -9.307e-21)
(0.855909 0.483193 -4.07569e-20)
(0.807884 0.445309 2.46439e-20)
(0.773182 0.41218 -4.22931e-22)
(0.742754 0.381453 3.64146e-20)
(0.697988 0.34612 2.24334e-20)
(0.610089 0.295435 -5.25569e-20)
(0.464778 0.22325 6.24873e-20)
(0.28946 0.138854 1.85369e-20)
(0.127687 0.0610225 7.67743e-20)
(0.0166995 0.00798735 -2.07764e-19)
(0.234594 0.126959 -1.43705e-21)
(1.10369 0.582255 7.95172e-22)
(1.30041 0.691906 3.39412e-22)
(1.32147 0.718266 7.74605e-21)
(1.27291 0.708942 0)
(1.20441 0.68776 -1.01454e-20)
(1.13269 0.663277 3.56352e-20)
(1.05804 0.635422 2.44696e-20)
(0.980689 0.602465 0)
(0.901709 0.561766 -1.33467e-19)
(0.83285 0.516584 1.10006e-19)
(0.78245 0.475058 0)
(0.745915 0.439133 3.32517e-20)
(0.714554 0.406501 -4.15647e-22)
(0.670614 0.369389 -7.15484e-20)
(0.586211 0.315631 2.80745e-20)
(0.447197 0.238674 0)
(0.277702 0.147545 9.98477e-20)
(0.121355 0.0636343 0)
(0.0155286 0.00810329 -9.81041e-20)
(0.234073 0.136293 2.25608e-21)
(1.09433 0.623978 2.54143e-21)
(1.28997 0.741974 7.09453e-22)
(1.30933 0.768986 0)
(1.25977 0.757709 -1.00615e-20)
(1.19054 0.734108 0)
(1.11789 0.707335 -3.55766e-20)
(1.04196 0.677266 -1.15592e-20)
(0.962761 0.641837 1.12685e-20)
(0.8812 0.597849 -6.59836e-20)
(0.809507 0.548795 1.1386e-20)
(0.756841 0.503733 0)
(0.718776 0.465011 -7.09714e-20)
(0.686729 0.430231 4.18667e-22)
(0.643227 0.390846 0)
(0.56112 0.333437 3.98387e-22)
(0.426627 0.250826 9.07385e-20)
(0.262086 0.152828 -8.61706e-20)
(0.112108 0.0641834 2.5512e-20)
(0.0137163 0.0077609 0)
(0.23396 0.14551 0)
(1.08524 0.663665 4.05434e-21)
(1.27886 0.789349 1.20228e-21)
(1.29653 0.816869 -4.8729e-22)
(1.24614 0.803777 -3.92735e-21)
(1.17634 0.778036 -2.26728e-20)
(1.10293 0.74933 1.31896e-20)
(1.02584 0.717373 -1.3446e-20)
(0.944839 0.679724 5.00199e-20)
(0.860639 0.6327 -1.05333e-19)
(0.786036 0.579993 -7.22874e-22)
(0.731099 0.531453 -3.12289e-20)
(0.691664 0.489799 1.14982e-19)
(0.65905 0.452571 -4.89889e-22)
(0.615698 0.410358 -5.53494e-20)
(0.534805 0.348541 -9.9036e-20)
(0.403348 0.259533 0)
(0.243143 0.154628 0)
(0.100539 0.0625019 2.75091e-20)
(0.0114667 0.00698249 -1.63218e-20)
(0.234376 0.154718 4.35196e-21)
(1.07663 0.701183 -1.03326e-20)
(1.26736 0.83411 -1.38158e-21)
(1.28335 0.861985 0)
(1.23225 0.847227 -3.28783e-22)
(1.16206 0.819629 -2.14176e-20)
(1.08805 0.789316 3.23047e-20)
(1.00988 0.755754 5.34272e-20)
(0.927098 0.716145 6.51131e-20)
(0.840224 0.666389 -8.60981e-20)
(0.76259 0.6103 -9.43023e-20)
(0.705276 0.558318 8.34999e-20)
(0.664477 0.513512 0)
(0.631315 0.473421 -2.51131e-20)
(0.587847 0.427755 -5.98501e-20)
(0.50734 0.360703 -7.10685e-20)
(0.377712 0.264493 -8.45166e-20)
(0.221678 0.152944 2.50563e-20)
(0.0872816 0.0586001 -1.4795e-20)
(0.00885 0.00579355 5.64132e-23)
(0.235088 0.163728 0)
(1.06859 0.737071 0)
(1.25564 0.876339 5.48647e-22)
(1.26996 0.904419 0)
(1.21833 0.888163 1.0277e-20)
(1.14788 0.858984 1.50763e-20)
(1.07339 0.82734 0)
(0.994228 0.792423 6.42693e-21)
(0.909709 0.751111 1.08765e-19)
(0.820141 0.698973 -1.97805e-19)
(0.739335 0.639819 0)
(0.679431 0.58444 -5.36687e-20)
(0.637119 0.536201 -5.93231e-22)
(0.603319 0.492731 -4.76647e-22)
(0.559527 0.442906 6.39206e-20)
(0.478766 0.369752 -7.03418e-23)
(0.349809 0.265603 -1.81843e-19)
(0.198147 0.147745 5.38832e-20)
(0.0734221 0.0530146 1.59818e-20)
(0.00620897 0.00436841 0)
(0.235848 0.1726 -2.05347e-20)
(1.06089 0.771299 -8.70438e-21)
(1.24383 0.916098 -8.53954e-21)
(1.25657 0.944273 -3.13177e-22)
(1.20454 0.926675 1.48977e-20)
(1.13397 0.896181 0)
(1.0591 0.86345 1.98016e-20)
(0.979016 0.827394 -1.42138e-20)
(0.892818 0.784641 7.86973e-22)
(0.800566 0.730498 1.45212e-20)
(0.716437 0.668639 1.22028e-19)
(0.653648 0.609963 -1.88449e-20)
(0.609498 0.558003 -7.07631e-20)
(0.574834 0.510502 -2.92137e-20)
(0.53055 0.455601 3.47504e-20)
(0.449194 0.37536 -3.29696e-23)
(0.320709 0.262759 4.89994e-20)
(0.173992 0.139553 -1.15881e-19)
(0.0596833 0.0462288 1.37497e-19)
(0.00369635 0.00283296 2.03034e-20)
(0.236403 0.181247 8.24094e-21)
(1.05357 0.803961 -5.22532e-21)
(1.2321 0.953503 1.29802e-21)
(1.24332 0.981673 2.4093e-21)
(1.191 0.962882 -1.76845e-21)
(1.12042 0.931299 -2.66962e-20)
(1.04527 0.897686 5.95145e-21)
(0.964347 0.860676 -5.93773e-20)
(0.876554 0.816733 -1.2005e-19)
(0.781651 0.760975 -1.17974e-19)
(0.694058 0.696827 0)
(0.628016 0.63504 -8.24831e-20)
(0.581549 0.579138 1.01832e-19)
(0.545575 0.5268 0)
(0.500607 0.46554 -7.43843e-20)
(0.418702 0.376979 4.45069e-20)
(0.291142 0.25569 -5.26386e-20)
(0.150464 0.128766 -6.23636e-20)
(0.0469749 0.0388114 -1.10747e-19)
(0.00147957 0.00132187 -8.7436e-20)
(0.23731 0.189752 -9.77565e-21)
(1.0465 0.835041 5.60757e-21)
(1.22054 0.988621 1.20476e-20)
(1.23031 1.01671 5.12651e-21)
(1.17781 0.996884 4.50855e-21)
(1.10732 0.964419 -1.49135e-20)
(1.03198 0.930081 1.96712e-20)
(0.950302 0.892295 -6.12122e-20)
(0.861006 0.847403 -7.1109e-20)
(0.763529 0.790419 1.23505e-19)
(0.672349 0.724433 2.67898e-19)
(0.602655 0.659815 0)
(0.553267 0.59989 0)
(0.515207 0.541858 -3.36397e-20)
(0.469126 0.472438 0)
(0.387106 0.373646 9.57894e-20)
(0.262161 0.243622 1.13292e-19)
(0.12948 0.115543 0)
(0.0365573 0.0313491 0)
(-0.00029417 -2.51344e-05 9.39739e-20)
(0.23786 0.197787 1.16138e-20)
(1.0397 0.864529 9.08801e-21)
(1.20924 1.02157 9.01004e-21)
(1.21762 1.04951 -6.91466e-21)
(1.16505 1.02879 3.23358e-21)
(1.09474 0.995605 1.60445e-20)
(1.01928 0.960676 -2.70835e-20)
(0.93694 0.922264 1.94195e-23)
(0.846258 0.87665 -1.0257e-21)
(0.746306 0.818818 -1.09656e-21)
(0.65147 0.751491 1.37982e-19)
(0.577723 0.684405 0)
(0.524734 0.620555 1.0285e-19)
(0.483442 0.55612 7.17358e-20)
(0.435195 0.476338 1.73587e-19)
(0.353496 0.364119 5.15549e-20)
(0.234706 0.224347 -6.10777e-20)
(0.114831 0.0978533 -3.59582e-20)
(0.0330589 0.0229798 0)
(-0.00059004 -0.000996029 1.00989e-19)
(0.238749 0.205838 -2.72962e-20)
(1.03316 0.892595 0)
(1.19822 1.0524 1.1694e-20)
(1.20531 1.08018 -6.65768e-21)
(1.15278 1.05868 -9.91524e-22)
(1.0827 1.02493 -1.83419e-20)
(1.00721 0.989509 5.32537e-20)
(0.924302 0.950605 -5.00122e-21)
(0.832358 0.904478 0)
(0.730069 0.846138 -1.36489e-19)
(0.631579 0.778008 -2.99989e-19)
(0.553413 0.708913 1.21734e-20)
(0.496131 0.641383 1.41534e-19)
(0.450155 0.570189 0)
(0.397722 0.478023 1.17061e-19)
(0.315483 0.34779 0)
(0.2068 0.193375 0)
(0.110814 0.0631651 -3.89538e-20)
(0.0596655 -9.51549e-05 0)
(0.0257995 0.00627504 2.7075e-20)
(0.239189 0.213302 -3.136e-20)
(1.02682 0.919397 0)
(1.18749 1.08133 2.03853e-20)
(1.19335 1.10894 0)
(1.14097 1.08683 -5.05991e-22)
(1.07114 1.05266 0)
(0.995712 1.01688 2.75217e-21)
(0.912301 0.977651 8.43648e-21)
(0.819202 0.931256 8.91764e-21)
(0.714671 0.872763 -1.49991e-19)
(0.612535 0.804431 9.04244e-21)
(0.529516 0.733937 9.77913e-20)
(0.467133 0.663021 1.38078e-19)
(0.414662 0.584921 1.85763e-20)
(0.355069 0.47941 9.16733e-20)
(0.268566 0.326306 0)
(0.167837 0.14905 1.28991e-19)
(0.0891336 0.0100012 -7.59352e-20)
(0.032595 0.0573082 8.86255e-20)
(-0.0383521 0.451069 -1.05249e-19)
(0.239566 0.220597 2.64882e-20)
(1.0205 0.944843 3.8901e-20)
(1.17698 1.10868 0)
(1.18162 1.13625 1.10488e-21)
(1.12944 1.11381 3.56526e-21)
(1.05983 1.07949 2.44378e-20)
(0.984482 1.04358 1.8821e-20)
(0.900549 1.00435 0)
(0.806279 0.958094 5.94875e-20)
(0.699451 0.900003 -7.86986e-21)
(0.593437 0.832237 0)
(0.504851 0.761231 0)
(0.436125 0.687189 1.23301e-19)
(0.375042 0.601502 -5.725e-20)
(0.304506 0.483103 -9.25554e-20)
(0.208742 0.304412 0)
(0.0943508 0.14513 6.55341e-20)
(0.0085587 0.46447 -7.64721e-20)
(0.0330051 1.91645 -4.31606e-20)
(0.0600169 2.81919 -5.26821e-20)
(0.239553 0.227307 -2.05598e-20)
(1.01422 0.969108 -5.11422e-20)
(1.16672 1.13444 1.28136e-20)
(1.17013 1.16196 8.86777e-21)
(1.11828 1.13943 0)
(1.04884 1.10513 1.45261e-20)
(0.973723 1.06929 2.61511e-20)
(0.88923 1.03027 -4.11213e-21)
(0.793861 0.984467 8.84323e-21)
(0.68479 0.927243 1.42935e-19)
(0.5749 0.860737 1.51514e-19)
(0.48041 0.790496 1.0909e-19)
(0.404097 0.713673 1.23686e-19)
(0.333141 0.618703 -1.33813e-19)
(0.25295 0.491934 -1.39321e-19)
(0.134223 0.34092 0)
(0.0455165 0.869261 0)
(0.092842 2.57372 3.65315e-20)
(0.095012 3.20632 0)
(0.0957336 3.38735 9.59808e-20)
(0.242317 0.233526 0)
(1.00823 0.99254 0)
(1.15642 1.15849 0)
(1.15868 1.1859 3.0057e-21)
(1.10718 1.16344 4.16757e-21)
(1.03797 1.12942 7.60112e-21)
(0.963361 1.0939 1.69482e-20)
(0.878278 1.05527 -4.03059e-21)
(0.781886 1.0102 7.45958e-20)
(0.67068 0.954317 -1.99645e-21)
(0.557015 0.889716 2.99203e-19)
(0.456625 0.821782 -1.25273e-20)
(0.371203 0.742994 1.49942e-20)
(0.291422 0.634267 1.93174e-20)
(0.19154 0.511495 -2.49361e-22)
(0.101687 1.01017 3.33494e-22)
(0.13252 2.74863 -1.89641e-19)
(0.137755 3.29907 -7.24067e-20)
(0.126699 3.42463 3.89619e-20)
(0.114633 3.44476 -4.41569e-20)
(0.164727 0.17853 1.30397e-20)
(0.998244 1.01781 0)
(1.14597 1.18108 -2.81429e-20)
(1.14762 1.20839 -2.64085e-20)
(1.09663 1.18635 1.49512e-20)
(1.02788 1.15282 -6.78604e-21)
(0.953222 1.11739 -1.77024e-20)
(0.867756 1.07934 4.60208e-20)
(0.770487 1.03529 -6.15084e-20)
(0.657385 0.981263 0)
(0.540086 0.919204 1.4748e-19)
(0.43408 0.854883 -8.89381e-20)
(0.337948 0.778013 0)
(0.243762 0.653235 1.85306e-20)
(0.144999 0.829692 4.46624e-20)
(0.14687 2.54488 -5.15413e-20)
(0.197168 3.33106 5.91258e-20)
(0.177911 3.43837 3.23063e-20)
(0.146931 3.45675 3.73438e-20)
(0.126653 3.46509 6.02981e-20)
(0.277891 0.272805 -2.49107e-20)
(0.981956 1.02908 0)
(1.12778 1.20692 3.16417e-20)
(1.1329 1.24122 3.15596e-20)
(1.07991 1.22027 -2.01511e-20)
(1.01099 1.18762 1.39599e-21)
(0.935399 1.15378 1.7792e-20)
(0.849303 1.11693 3.56726e-21)
(0.750528 1.07484 5.88552e-20)
(0.634428 1.02444 1.24053e-19)
(0.511749 0.967968 8.34296e-21)
(0.396778 0.910962 7.88454e-20)
(0.281004 0.837277 1.40796e-20)
(0.21061 1.00522 -1.77556e-20)
(0.216476 2.41335 -4.0859e-20)
(0.267283 3.33892 4.14532e-20)
(0.250572 3.46802 -4.61021e-20)
(0.215654 3.48546 -2.69078e-20)
(0.181138 3.50895 -2.52623e-20)
(0.135797 3.50251 -3.69292e-21)
(0.268464 0.271937 0)
(0.979582 1.05242 9.87504e-21)
(1.11936 1.23054 -6.73926e-21)
(1.12226 1.26466 -4.00215e-21)
(1.06927 1.24375 -1.53756e-20)
(1.00064 1.21156 -8.84958e-23)
(0.924828 1.17806 -9.63242e-21)
(0.838528 1.14199 3.2161e-21)
(0.739203 1.10126 -6.14446e-20)
(0.621796 1.05353 -2.9525e-21)
(0.49646 1.00147 -2.6632e-19)
(0.377043 0.949365 1.12072e-20)
(0.27077 0.913229 -1.33328e-20)
(0.245766 1.57296 -1.64121e-20)
(0.305293 3.14376 3.60934e-21)
(0.32022 3.47234 4.09544e-22)
(0.278252 3.51893 7.06308e-20)
(0.243781 3.53976 3.67661e-20)
(0.197768 3.55867 -1.35321e-20)
(0.14758 3.55393 -1.92438e-20)
(0.254466 0.270141 2.5961e-20)
(0.97635 1.0784 6.77594e-20)
(1.11056 1.25625 -1.94185e-20)
(1.1112 1.28967 -1.51235e-20)
(1.05823 1.26872 0)
(0.98993 1.23681 7.00902e-21)
(0.914141 1.20367 -1.06744e-20)
(0.827893 1.16832 2.84235e-21)
(0.728327 1.12903 -6.80037e-21)
(0.610124 1.08417 -1.12573e-19)
(0.482976 1.03698 -1.23054e-19)
(0.359755 0.990631 -9.25447e-20)
(0.274058 1.05644 -1.00054e-19)
(0.307992 2.30456 1.03271e-19)
(0.383507 3.39978 9.00397e-20)
(0.358003 3.53108 0)
(0.309249 3.56509 0)
(0.272351 3.59718 -1.0699e-20)
(0.227247 3.64192 0)
(0.157977 3.62454 -1.85696e-20)
(0.244561 0.272244 -3.95427e-20)
(0.971182 1.10531 -5.83902e-20)
(1.10041 1.28325 0)
(1.09894 1.31559 1.33099e-21)
(1.04601 1.29439 -1.93304e-20)
(0.978164 1.26267 1.5579e-20)
(0.902708 1.22988 -4.88899e-21)
(0.816737 1.19517 1.77837e-21)
(0.717183 1.15725 -4.39318e-20)
(0.598591 1.11524 5.68905e-21)
(0.470429 1.07308 0)
(0.348782 1.03717 0)
(0.300941 1.33789 -9.12551e-20)
(0.38308 2.96912 3.75921e-20)
(0.447617 3.50199 4.93745e-20)
(0.395672 3.5662 0)
(0.353617 3.62013 -8.47861e-21)
(0.31206 3.66408 6.23716e-22)
(0.262331 3.62795 -1.36226e-20)