/*--------------------------------*- C++ -*----------------------------------*\
  =========                 |
  \\      /  F ield         | OpenFOAM: The Open Source CFD Toolbox
   \\    /   O peration     | Website:  https://openfoam.org
    \\  /    A nd           | Version:  6
     \\/     M anipulation  |
\*---------------------------------------------------------------------------*/
FoamFile
{
    version     2.0;
    format      ascii;
    class       volScalarField;
    location    "0.004";
    object      mag(U);
}
// * * * * * * * * * * * * * * * * * * * * * * * * * * * * * * * * * * * * * //

dimensions      [0 1 -1 0 0 0 0];

internalField   nonuniform List<scalar> 
1000
(
3.93857e-13
8.46063e-13
3.06333e-13
1.6046e-13
2.77159e-13
6.56429e-13
2.33397e-13
1.31286e-13
6.27254e-13
2.33397e-13
1.45873e-14
1.89635e-13
3.20921e-13
2.77159e-13
2.62571e-13
2.47984e-13
4.37619e-14
1.29121e-26
1.31286e-13
2.47984e-13
2.33397e-13
2.04222e-13
4.37619e-14
7.29365e-14
1.89635e-13
8.75238e-14
5.83492e-14
3.93857e-13
1.45873e-14
4.95968e-13
4.81381e-13
4.37619e-13
4.66794e-13
6.56429e-13
8.75238e-14
1.16698e-13
7.29365e-14
4.37619e-13
2.33397e-13
3.35508e-13
2.1881e-13
1.31286e-13
1.02111e-13
8.75238e-14
3.7927e-13
2.91746e-13
2.47984e-13
1.31286e-13
6.71016e-13
7.14778e-13
7.29365e-14
4.08444e-13
2.1881e-13
1.45873e-13
3.35508e-13
2.47984e-13
7.29365e-14
1.16698e-13
8.75238e-14
6.56429e-13
4.37619e-14
2.33397e-13
3.7927e-13
1.75048e-13
3.20921e-13
2.04222e-13
1.45873e-14
1.31286e-13
8.75238e-14
1.45873e-13
4.37619e-14
5.68905e-13
1.89635e-13
9.91936e-13
3.35508e-13
1.6046e-13
3.93857e-13
8.75238e-14
7.43952e-13
7.5854e-13
8.16889e-13
5.98079e-13
9.33587e-13
3.64683e-13
7.14778e-13
1.1524e-12
9.04413e-13
5.3973e-13
2.04222e-13
6.27254e-13
2.91746e-13
4.37619e-13
3.20921e-13
2.1881e-13
3.20921e-13
2.77159e-13
3.50095e-13
3.35508e-13
1.45873e-13
2.1881e-13
1.16698e-13
2.33397e-13
2.77159e-13
1.31286e-13
1.6046e-13
3.35508e-13
1.6046e-13
5.54317e-13
1.31286e-13
1.45873e-14
1.45873e-13
3.64683e-13
1.75048e-13
8.75238e-14
2.62571e-13
1.31286e-13
2.91746e-14
4.62714e-26
4.66794e-13
6.12667e-13
4.37619e-14
3.50095e-13
3.64683e-13
1.6046e-13
4.37619e-14
4.37619e-14
1.02111e-13
1.45873e-14
5.83492e-14
1.31286e-13
2.91746e-14
1.02111e-13
2.77159e-13
1.45873e-14
3.64683e-13
8.75238e-14
2.77159e-13
7.43952e-13
6.56429e-13
8.16889e-13
6.85603e-13
3.35508e-13
7.73127e-13
9.77349e-13
8.89825e-13
8.16889e-13
9.77349e-13
7.29365e-13
5.83492e-13
9.48175e-13
6.71016e-13
4.95968e-13
8.75238e-13
9.62762e-13
2.33397e-13
2.77159e-13
1.45873e-13
2.04222e-13
3.35508e-13
3.7927e-13
4.37619e-14
3.50095e-13
6.41841e-13
1.6046e-13
1.45873e-13
3.06333e-13
1.75048e-13
5.83492e-13
1.45873e-13
1.16698e-13
3.50095e-13
3.35508e-13
3.93857e-13
7.29365e-14
3.20921e-13
2.91746e-13
1.31286e-13
6.56429e-13
3.35508e-13
3.93857e-13
4.95968e-13
4.52206e-13
1.89635e-13
1.75048e-13
7.14778e-13
6.27254e-13
8.16889e-13
8.89825e-13
6.41841e-13
4.81381e-13
8.02302e-13
7.29365e-13
8.16889e-13
7.73127e-13
6.85603e-13
1.02111e-12
1.10863e-12
9.33587e-13
1.21075e-12
1.47332e-12
5.25143e-13
1.00652e-12
1.45873e-13
1.10863e-12
4.37619e-13
6.56429e-13
9.77349e-13
6.85603e-13
2.91746e-13
6.41841e-13
8.31476e-13
8.02302e-13
1.13781e-12
8.46063e-13
5.68905e-13
1.28368e-12
1.31286e-13
4.23032e-13
4.52206e-13
3.20921e-13
2.47984e-13
8.16889e-13
7.29365e-13
7.29365e-13
9.77349e-13
6.41841e-13
3.64683e-13
5.25143e-13
5.10556e-13
9.19e-13
8.31476e-13
7.5854e-13
1.02111e-12
1.50249e-12
1.12322e-12
9.77349e-13
6.41841e-13
8.89825e-13
1.35662e-12
1.19616e-12
1.63378e-12
1.6046e-12
1.61919e-12
1.67754e-12
1.35662e-12
9.62762e-13
1.4879e-12
1.00652e-12
8.31476e-13
1.31286e-12
9.19e-13
1.42956e-12
9.91936e-13
1.13781e-12
1.94011e-12
1.59002e-12
1.21075e-12
1.53167e-12
1.28368e-12
1.40038e-12
8.89825e-13
1.13781e-12
1.1524e-12
8.16889e-13
1.07946e-12
1.10863e-12
1.40038e-12
1.29827e-12
1.44414e-12
1.51708e-12
1.31286e-12
1.9547e-12
1.44414e-12
1.88176e-12
2.53819e-12
1.99846e-12
2.69865e-12
1.7213e-12
1.82341e-12
1.9547e-12
1.56084e-12
4.37619e-13
1.57543e-12
4.2449e-12
1.05174e-11
2.28729e-11
4.74525e-11
9.65388e-11
1.91342e-10
3.74471e-10
7.27104e-10
1.39988e-09
2.67636e-09
5.07623e-09
9.55667e-09
1.78584e-08
3.31238e-08
6.09729e-08
1.11385e-07
2.01912e-07
3.63171e-07
6.48088e-07
1.14734e-06
2.01485e-06
3.50953e-06
6.06272e-06
1.03862e-05
1.76429e-05
2.97142e-05
4.96128e-05
8.21132e-05
0.000134701
0.000218989
0.000352789
0.000563115
0.000890465
0.00139483
0.00216397
0.00332473
0.00505796
0.00761819
0.0113586
0.0167625
0.024481
0.0353784
0.0505834
0.0715453
0.100093
0.138492
0.189496
0.256384
0.342979
0.453641
0.593224
0.766999
0.980537
1.23956
1.54977
1.91664
2.34523
2.84
3.40466
4.04205
4.75404
5.54155
6.40456
7.34215
8.35263
9.43364
10.5823
11.7953
13.069
14.3998
15.7838
17.2173
18.6966
20.2181
21.7785
23.3746
25.0035
26.6625
28.3491
30.061
31.7962
33.5527
35.3289
37.1233
38.9344
40.761
42.602
44.4564
46.3232
48.2017
50.0909
51.9903
53.8992
55.817
57.7431
59.677
61.6183
63.5664
65.5211
67.4818
69.4483
71.4201
73.397
75.3785
77.3645
79.3547
81.3487
83.3463
85.3473
87.3516
89.3587
91.3687
93.3812
95.3961
97.4132
99.4324
101.454
103.476
105.501
107.527
109.555
111.583
113.613
115.645
117.677
119.71
121.743
123.778
125.813
127.849
129.885
131.922
133.959
135.996
138.034
140.072
142.11
144.148
146.185
148.223
150.261
152.299
154.336
156.373
158.41
160.446
162.482
164.517
166.552
168.586
170.619
172.653
174.684
176.715
178.745
180.774
182.802
184.828
186.854
188.878
190.9
192.922
194.941
196.959
198.974
200.988
203
205.009
207.016
209.02
211.021
213.02
215.015
217.007
218.995
220.979
222.959
224.934
226.905
228.87
230.83
232.783
234.731
236.671
238.603
240.527
242.443
244.348
246.244
248.128
249.999
251.857
253.701
255.529
257.34
259.133
260.905
262.655
264.381
266.08
267.752
269.392
271
272.57
274.102
275.591
277.034
278.428
279.77
281.055
282.281
283.444
284.541
285.57
286.527
287.41
288.22
288.954
289.614
290.201
290.716
291.163
291.546
291.87
292.139
292.359
292.536
292.676
292.785
292.869
292.932
292.978
293.012
293.037
293.056
293.07
293.08
293.089
293.097
293.103
293.109
293.115
293.121
293.126
293.13
293.135
293.138
293.142
293.144
293.147
293.149
293.15
293.151
293.152
293.153
293.153
293.154
293.154
293.154
293.154
293.154
293.154
293.154
293.154
293.154
293.154
293.154
293.154
293.154
293.154
293.154
293.154
293.154
293.154
293.154
293.155
293.155
293.155
293.155
293.155
293.155
293.155
293.155
293.155
293.155
293.155
293.155
293.155
293.156
293.156
293.156
293.156
293.156
293.156
293.156
293.156
293.156
293.156
293.156
293.156
293.156
293.156
293.156
293.156
293.156
293.157
293.157
293.157
293.157
293.157
293.158
293.158
293.158
293.158
293.158
293.157
293.156
293.156
293.156
293.157
293.159
293.163
293.16
293.152
293.148
293.143
293.137
293.129
293.122
293.115
293.108
293.104
293.102
293.103
293.106
293.11
293.116
293.123
293.129
293.134
293.138
293.142
293.144
293.146
293.147
293.147
293.147
293.147
293.147
293.147
293.147
293.146
293.146
293.146
293.147
293.147
293.147
293.147
293.147
293.146
293.146
293.145
293.144
293.143
293.143
293.142
293.141
293.141
293.14
293.14
293.14
293.141
293.141
293.141
293.141
293.141
293.141
293.141
293.14
293.139
293.138
293.137
293.136
293.135
293.134
293.133
293.132
293.131
293.131
293.131
293.131
293.132
293.132
293.132
293.132
293.132
293.131
293.131
293.129
293.128
293.126
293.124
293.123
293.121
293.12
293.119
293.118
293.118
293.118
293.118
293.118
293.118
293.118
293.118
293.118
293.117
293.116
293.114
293.111
293.106
293.101
293.094
293.087
293.082
293.075
293.065
293.042
293.004
292.916
292.817
292.556
292.346
291.575
290.145
286.61
278.069
258.654
215.71
145.921
72.4446
25.9411
7.27549
1.72849
0.372586
0.0773271
0.0158853
0.00325642
0.000667316
0.000136743
2.80205e-05
5.7418e-06
1.17658e-06
2.41099e-07
4.94059e-08
1.01251e-08
2.07608e-09
4.26052e-10
8.85305e-11
1.8628e-11
4.7117e-12
1.60461e-12
1.07946e-12
9.77351e-13
8.46065e-13
1.09405e-12
1.12322e-12
6.71017e-13
1.0357e-12
5.25144e-13
6.71017e-13
2.1881e-13
6.41842e-13
7.58541e-13
5.9808e-13
7.43953e-13
1.10864e-12
1.75048e-13
7.58541e-13
2.91746e-14
7.29366e-13
7.00191e-13
7.87715e-13
3.35508e-13
7.29366e-14
7.58541e-13
3.7927e-13
2.62572e-13
2.33397e-13
1.45873e-14
8.9867e-27
2.33397e-13
7.29366e-14
8.02303e-13
4.08445e-13
3.35508e-13
3.64683e-13
8.1689e-13
9.19001e-13
1.22533e-12
1.21075e-12
6.56429e-13
1.18157e-12
1.02111e-12
1.31286e-12
1.29827e-12
1.2691e-12
1.0357e-12
1.76507e-12
1.28368e-12
1.50249e-12
1.1524e-12
1.44414e-12
1.25451e-12
8.46065e-13
8.1689e-13
4.95969e-13
6.85604e-13
3.06334e-13
4.66794e-13
2.47984e-13
7.00191e-13
4.81382e-13
4.52207e-13
2.04222e-13
2.62572e-13
8.75239e-13
8.60652e-13
5.39731e-13
1.45873e-13
5.9808e-13
4.3762e-14
2.77159e-13
5.68906e-13
1.89635e-13
4.08445e-13
2.91746e-14
1.75048e-13
1.16699e-13
4.3762e-14
1.31286e-13
1.60461e-13
4.23032e-13
2.91746e-14
2.47984e-13
2.91746e-14
1.16699e-13
1.31286e-13
1.60461e-13
5.68906e-13
3.20921e-13
2.33397e-13
1.89635e-13
4.23032e-13
5.39731e-13
5.83493e-13
3.06334e-13
5.68906e-13
7.29366e-14
8.31477e-13
3.35508e-13
1.89635e-13
4.3762e-14
1.89635e-13
4.66794e-13
1.89635e-13
8.75239e-14
2.04222e-13
1.75048e-13
4.23032e-13
4.66794e-13
3.06334e-13
2.77159e-13
6.41842e-13
6.56429e-13
4.52207e-13
2.91746e-13
2.33397e-13
5.54318e-13
4.66794e-13
1.16699e-13
4.3762e-14
5.10556e-13
2.62572e-13
1.89635e-13
4.81382e-13
1.45873e-13
2.04222e-13
2.77159e-13
3.7927e-13
5.10556e-13
2.04222e-13
2.47984e-13
2.47984e-13
2.91746e-14
2.47984e-13
3.93858e-13
2.47984e-13
5.83493e-14
3.50096e-13
1.02111e-13
2.47984e-13
2.91746e-14
4.3762e-14
1.75048e-13
2.91746e-14
3.20921e-13
2.04222e-13
1.45873e-14
2.47984e-13
1.31286e-13
1.45873e-13
1.45873e-13
1.45873e-13
1.45873e-14
1.16699e-13
2.62572e-13
3.35508e-13
1.02111e-13
2.04222e-13
1.89635e-13
6.12667e-13
4.95969e-13
3.06334e-13
2.1881e-13
7.00191e-13
5.54318e-13
7.14779e-13
7.58541e-13
6.71017e-13
7.87715e-13
7.00191e-13
5.68906e-13
2.91746e-13
6.41842e-13
1.89635e-13
3.7927e-13
6.71017e-13
3.93858e-13
5.9808e-13
2.62572e-13
2.91746e-14
1.16699e-13
3.20921e-13
1.89635e-13
2.91746e-13
2.77159e-13
4.52207e-13
5.83493e-14
5.39731e-13
2.1881e-13
3.50096e-13
1.89635e-13
2.91746e-13
3.50096e-13
4.52207e-13
5.54318e-13
1.45087e-26
1.02111e-13
5.83493e-14
5.83493e-14
1.02111e-13
5.25144e-13
3.06334e-13
1.18424e-26
1.60461e-13
5.83493e-14
2.04222e-13
6.12667e-13
3.7927e-13
7.14779e-13
6.12667e-13
1.89635e-13
3.20921e-13
1.45873e-13
2.91746e-13
5.83493e-14
2.54113e-27
4.08445e-13
3.20921e-13
2.91746e-13
2.77159e-13
1.02111e-13
5.83493e-14
1.16699e-13
2.47984e-13
1.60461e-13
5.10556e-13
2.62572e-13
8.02303e-13
8.89827e-13
2.1881e-13
2.47984e-13
6.71017e-13
2.62572e-13
3.7927e-13
2.77159e-13
7.58541e-13
3.7927e-13
1.22533e-12
2.91746e-13
8.02303e-13
5.9808e-13
9.91938e-13
2.1881e-13
5.68906e-13
6.12667e-13
8.46065e-13
1.89635e-13
3.06334e-13
1.31286e-13
9.19001e-13
2.47984e-13
3.50096e-13
2.1881e-12
2.72783e-12
2.59654e-12
1.45873e-14
)
;

boundaryField
{
    sides
    {
        type            calculated;
        value           nonuniform List<scalar> 2(1.45873e-14 3.93857e-13);
    }
    empty
    {
        type            empty;
    }
}


// ************************************************************************* //
