/*--------------------------------*- C++ -*----------------------------------*\
  =========                 |
  \\      /  F ield         | OpenFOAM: The Open Source CFD Toolbox
   \\    /   O peration     | Website:  https://openfoam.org
    \\  /    A nd           | Version:  6
     \\/     M anipulation  |
\*---------------------------------------------------------------------------*/
FoamFile
{
    version     2.0;
    format      ascii;
    class       surfaceScalarField;
    location    "0.004";
    object      phi;
}
// * * * * * * * * * * * * * * * * * * * * * * * * * * * * * * * * * * * * * //

dimensions      [1 0 -1 0 0 0 0];

internalField   nonuniform List<scalar> 
999
(
1.87583e-12
1.87583e-12
1.36424e-12
1.53477e-12
1.59162e-12
1.42109e-12
1.19371e-12
7.38964e-13
1.13687e-12
3.97904e-13
6.82121e-13
1.13687e-12
1.13687e-12
1.08002e-12
1.19371e-12
8.52651e-13
5.11591e-13
4.54747e-13
-1.13687e-13
5.11591e-13
5.68434e-14
4.54747e-13
0
3.41061e-13
-3.41061e-13
2.27374e-13
1.13687e-13
5.68434e-14
3.97904e-13
4.54747e-13
1.7053e-12
2.21689e-12
1.93268e-12
1.3074e-12
2.04636e-12
1.7053e-12
1.08002e-12
8.52651e-13
5.11591e-13
9.09495e-13
9.09495e-13
-5.68434e-14
-1.13687e-13
-1.25056e-12
-1.13687e-12
-1.7053e-12
-1.19371e-12
-1.47793e-12
-2.10321e-12
-2.50111e-12
-1.64846e-12
-2.10321e-12
-1.64846e-12
-7.95808e-13
-6.82121e-13
-1.13687e-12
-9.66338e-13
-9.66338e-13
-1.42109e-12
-1.19371e-12
-9.66338e-13
-3.41061e-13
-1.7053e-13
3.41061e-13
-2.84217e-13
3.97904e-13
5.68434e-13
-2.27374e-13
1.7053e-13
0
-3.97904e-13
-6.82121e-13
-1.25056e-12
-1.7053e-12
-1.87583e-12
-2.78533e-12
-2.89901e-12
-2.84217e-12
-2.38742e-12
-3.12639e-12
-2.89901e-12
-3.18323e-12
-3.18323e-12
-3.18323e-12
-2.95586e-12
-2.78533e-12
-2.33058e-12
-2.04636e-12
-1.64846e-12
-1.76215e-12
-1.47793e-12
-1.3074e-12
-1.59162e-12
-1.42109e-12
-9.66338e-13
-1.08002e-12
-1.3074e-12
-3.97904e-13
-1.08002e-12
-1.08002e-12
-1.19371e-12
-7.95808e-13
-4.54747e-13
-1.36424e-12
-1.64846e-12
-1.81899e-12
-1.47793e-12
-1.3074e-12
-1.02318e-12
-7.38964e-13
-7.95808e-13
-1.08002e-12
-1.19371e-12
-2.84217e-13
-5.68434e-14
-5.11591e-13
2.27374e-13
1.7053e-13
9.09495e-13
8.52651e-13
7.38964e-13
7.38964e-13
6.25278e-13
-1.13687e-13
0
-4.54747e-13
-1.7053e-13
-5.68434e-13
-6.82121e-13
-5.68434e-13
5.68434e-14
5.11591e-13
3.41061e-13
1.7053e-13
-3.41061e-13
-1.3074e-12
-1.59162e-12
-1.7053e-12
-2.16005e-12
-2.6148e-12
-2.44427e-12
-2.67164e-12
-2.84217e-12
-3.12639e-12
-3.18323e-12
-3.35376e-12
-3.06954e-12
-3.0127e-12
-2.33058e-12
-1.81899e-12
-2.27374e-12
-2.27374e-12
-1.59162e-12
-1.42109e-12
-6.82121e-13
-5.11591e-13
-1.7053e-13
-1.13687e-13
1.13687e-13
7.95808e-13
3.97904e-13
1.02318e-12
1.25056e-12
7.95808e-13
1.13687e-13
-6.25278e-13
-2.84217e-13
1.13687e-13
4.54747e-13
3.97904e-13
5.11591e-13
5.68434e-13
-1.7053e-13
-6.82121e-13
-1.53477e-12
-1.3074e-12
-2.10321e-12
-2.16005e-12
-1.47793e-12
-1.98952e-12
-1.98952e-12
-1.7053e-12
-1.53477e-12
-2.04636e-12
-2.44427e-12
-2.50111e-12
-3.06954e-12
-3.12639e-12
-2.89901e-12
-2.50111e-12
-3.06954e-12
-3.12639e-12
-3.12639e-12
-3.63798e-12
-3.75167e-12
-3.80851e-12
-4.20641e-12
-4.43379e-12
-3.24007e-12
-3.46745e-12
-3.12639e-12
-2.6148e-12
-2.84217e-12
-3.35376e-12
-3.12639e-12
-3.0127e-12
-3.69482e-12
-3.24007e-12
-4.03588e-12
-3.9222e-12
-3.69482e-12
-3.46745e-12
-3.58114e-12
-2.78533e-12
-2.84217e-12
-1.64846e-12
-1.25056e-12
-8.52651e-13
-2.10321e-12
-2.33058e-12
-2.72848e-12
-2.50111e-12
-3.06954e-12
-3.0127e-12
-3.06954e-12
-2.27374e-12
-1.64846e-12
-2.33058e-12
-2.78533e-12
-3.41061e-12
-3.06954e-12
-2.89901e-12
-3.29692e-12
-3.63798e-12
-4.26326e-12
-4.03588e-12
-3.52429e-12
-4.03588e-12
-4.43379e-12
-5.91172e-12
-5.74119e-12
-5.74119e-12
-5.11591e-12
-5.17275e-12
-4.37694e-12
-4.66116e-12
-4.3201e-12
-3.80851e-12
-4.09273e-12
-3.97904e-12
-4.83169e-12
-4.20641e-12
-4.88853e-12
-5.34328e-12
-4.718e-12
-4.88853e-12
-5.40012e-12
-4.718e-12
-4.09273e-12
-3.80851e-12
-3.69482e-12
-3.63798e-12
-3.58114e-12
-4.03588e-12
-4.37694e-12
-4.83169e-12
-5.00222e-12
-5.51381e-12
-6.59384e-12
-6.48015e-12
-7.27596e-12
-7.10543e-12
-7.84439e-12
-8.12861e-12
-8.07177e-12
-8.01492e-12
-7.50333e-12
-7.38964e-12
-7.10543e-12
-5.91172e-12
-3.69482e-12
4.54747e-13
9.0381e-12
2.62048e-11
5.96856e-11
1.25794e-10
2.56478e-10
5.12841e-10
1.01147e-09
1.97593e-09
3.82556e-09
7.34877e-09
1.40072e-08
2.65006e-08
4.97643e-08
9.27554e-08
1.71587e-07
3.15013e-07
5.73903e-07
1.03748e-06
1.86084e-06
3.31128e-06
5.84515e-06
1.02346e-05
1.77736e-05
3.06105e-05
5.22773e-05
8.85233e-05
0.000148614
0.000247326
0.000407985
0.000667011
0.00108065
0.00173481
0.00275918
0.00434725
0.00678426
0.0104854
0.0160476
0.0243174
0.0364792
0.0541669
0.0796021
0.115759
0.166557
0.237079
0.333796
0.46481
0.640065
0.871526
1.17329
1.5616
2.05472
2.6727
3.43691
4.36953
5.49277
6.82812
8.39549
10.2124
12.2932
14.6486
17.2853
20.2057
23.408
26.8864
30.6317
34.6317
38.8716
43.3349
48.0038
52.86
57.8848
63.0598
68.367
73.7893
79.3105
84.9154
90.59
96.3214
102.098
107.908
113.744
119.595
125.454
131.314
137.17
143.014
148.843
154.652
160.437
166.194
171.92
177.613
183.27
188.888
194.466
200.001
205.493
210.938
216.336
221.686
226.987
232.237
237.435
242.581
247.673
252.711
257.695
262.624
267.497
272.314
277.075
281.779
286.425
291.015
295.547
300.021
304.438
308.797
313.099
317.343
321.529
325.657
329.728
333.742
337.698
341.598
345.44
349.226
352.956
356.629
360.246
363.808
367.314
370.765
374.162
377.503
380.79
384.024
387.204
390.33
393.404
396.424
399.394
402.308
405.178
407.983
410.759
413.451
416.139
418.721
421.312
423.807
426.27
428.713
431.032
433.411
435.635
437.883
440.072
442.176
444.289
446.325
448.308
450.277
452.179
454.033
455.861
457.638
459.362
461.056
462.708
464.307
465.871
467.397
468.876
470.315
471.715
473.078
474.396
475.676
476.919
478.122
479.286
480.411
481.501
482.552
483.565
484.542
485.482
486.387
487.254
488.087
488.884
489.646
490.374
491.066
491.726
492.351
492.943
493.502
494.029
494.523
494.986
495.417
495.818
496.189
496.53
496.843
497.127
497.384
497.615
497.82
498.002
498.16
498.296
498.412
498.51
498.59
498.654
498.704
498.743
498.77
498.789
498.8
498.805
498.806
498.803
498.797
498.79
498.782
498.774
498.765
498.756
498.748
498.739
498.731
498.723
498.716
498.708
498.7
498.692
498.684
498.676
498.668
498.659
498.65
498.64
498.631
498.621
498.611
498.6
498.59
498.579
498.567
498.556
498.544
498.532
498.519
498.507
498.494
498.48
498.467
498.453
498.438
498.423
498.408
498.392
498.376
498.36
498.343
498.325
498.307
498.288
498.268
498.248
498.228
498.206
498.184
498.161
498.138
498.113
498.088
498.061
498.034
498.006
497.976
497.945
497.913
497.879
497.845
497.808
497.77
497.73
497.688
497.644
497.598
497.549
497.498
497.444
497.387
497.326
497.263
497.193
497.121
497.041
496.959
496.867
496.772
496.664
496.552
496.426
496.293
496.145
495.991
495.82
495.649
495.473
495.302
495.143
494.97
494.672
494.071
492.728
490.224
486.452
481.224
474.455
466.162
456.469
445.601
433.859
421.591
409.158
396.908
385.146
374.123
364.023
354.961
346.99
340.11
334.276
329.415
325.431
322.218
319.668
317.676
316.143
314.983
314.118
313.483
313.024
312.698
312.469
312.311
312.203
312.13
312.081
312.048
312.025
312.009
311.997
311.988
311.981
311.974
311.968
311.963
311.957
311.953
311.948
311.944
311.94
311.936
311.933
311.93
311.927
311.924
311.921
311.918
311.916
311.913
311.911
311.908
311.906
311.904
311.902
311.9
311.898
311.897
311.895
311.894
311.892
311.891
311.89
311.889
311.887
311.886
311.885
311.883
311.881
311.88
311.878
311.876
311.874
311.873
311.871
311.87
311.868
311.867
311.865
311.863
311.861
311.86
311.858
311.856
311.855
311.853
311.85
311.847
311.843
311.839
311.833
311.828
311.822
311.815
311.801
311.781
311.745
311.695
311.587
311.452
311.195
310.784
309.979
307.925
303.655
293.138
267.882
214.294
139.112
68.3334
24.6075
6.64872
1.49399
0.312544
0.0642298
0.0131614
0.00269649
0.000552504
0.000113213
2.31988e-05
4.75375e-06
9.74113e-07
1.99611e-07
4.09036e-08
8.38219e-09
1.71809e-09
3.52522e-10
7.25962e-11
1.52909e-11
3.51719e-12
1.16529e-12
6.25278e-13
5.25802e-13
5.11591e-13
5.18696e-13
5.68434e-13
4.47642e-13
3.83693e-13
2.98428e-13
2.55795e-13
2.70006e-13
3.33955e-13
3.19744e-13
3.55271e-13
3.05533e-13
3.33955e-13
4.26326e-13
4.54747e-13
4.12115e-13
3.62377e-13
3.12639e-13
3.19744e-13
2.41585e-13
1.98952e-13
2.06057e-13
2.55795e-13
2.34479e-13
1.27898e-13
4.9738e-14
-6.39488e-14
1.42109e-14
7.81597e-14
1.42109e-13
1.84741e-13
1.98952e-13
2.4869e-13
3.62377e-13
4.33431e-13
5.04485e-13
5.47118e-13
7.03437e-13
6.11067e-13
5.68434e-13
6.32383e-13
6.18172e-13
5.8975e-13
6.39488e-13
6.60805e-13
7.67386e-13
7.4607e-13
7.10543e-13
6.03961e-13
5.61329e-13
5.25802e-13
4.54747e-13
3.62377e-13
2.77112e-13
1.56319e-13
1.91847e-13
1.91847e-13
1.84741e-13
2.06057e-13
9.23706e-14
-1.42109e-14
-1.35003e-13
-1.35003e-13
-1.91847e-13
-1.7053e-13
-2.84217e-13
-2.20268e-13
-5.68434e-14
-7.81597e-14
-1.20792e-13
-8.52651e-14
2.84217e-14
9.23706e-14
5.68434e-14
6.39488e-14
0
-5.68434e-14
-3.55271e-14
-2.84217e-14
-3.55271e-14
-1.13687e-13
-4.9738e-14
7.10543e-15
3.55271e-14
-4.9738e-14
-1.27898e-13
-1.13687e-13
-1.27898e-13
-6.39488e-14
-1.7053e-13
-2.62901e-13
-2.13163e-13
-1.27898e-13
-1.42109e-14
-1.35003e-13
-7.10543e-14
-1.13687e-13
-1.63425e-13
-4.9738e-14
3.55271e-14
4.9738e-14
9.9476e-14
5.68434e-14
1.49214e-13
1.35003e-13
1.20792e-13
1.91847e-13
1.91847e-13
2.27374e-13
3.12639e-13
3.2685e-13
2.55795e-13
2.55795e-13
1.7053e-13
7.81597e-14
1.56319e-13
3.55271e-14
5.68434e-14
3.55271e-14
8.52651e-14
1.42109e-13
1.06581e-13
1.7053e-13
1.91847e-13
1.77636e-13
1.20792e-13
6.39488e-14
7.10543e-14
7.10543e-14
7.81597e-14
-2.13163e-14
-9.23706e-14
-7.81597e-14
-7.81597e-14
-7.10543e-14
-8.52651e-14
-7.10543e-14
-1.06581e-13
-9.9476e-14
-7.81597e-14
-2.84217e-14
0
-8.52651e-14
7.10543e-15
6.39488e-14
1.06581e-13
8.52651e-14
7.81597e-14
-5.68434e-14
-3.55271e-14
-2.84217e-14
4.26326e-14
5.68434e-14
1.27898e-13
2.20268e-13
1.91847e-13
2.13163e-14
1.35003e-13
5.68434e-14
1.91847e-13
2.20268e-13
2.06057e-13
2.20268e-13
2.41585e-13
1.7053e-13
2.84217e-13
3.2685e-13
3.12639e-13
2.27374e-13
1.56319e-13
1.56319e-13
1.7053e-13
1.42109e-13
1.06581e-13
1.13687e-13
8.52651e-14
1.13687e-13
2.13163e-14
2.84217e-14
3.55271e-14
8.52651e-14
7.81597e-14
8.52651e-14
1.56319e-13
8.52651e-14
6.39488e-14
4.26326e-14
-6.39488e-14
-8.52651e-14
-1.98952e-13
-2.27374e-13
-2.62901e-13
-1.7053e-13
-9.9476e-14
-7.10543e-15
-5.68434e-14
-2.84217e-14
1.42109e-14
9.9476e-14
1.20792e-13
1.13687e-13
9.9476e-14
4.26326e-14
6.39488e-14
1.20792e-13
1.35003e-13
1.56319e-13
1.49214e-13
1.06581e-13
3.55271e-14
8.52651e-14
7.10543e-14
4.9738e-14
-7.10543e-15
1.63425e-13
2.13163e-13
1.20792e-13
6.39488e-14
3.55271e-14
3.55271e-14
-7.10543e-15
-3.55271e-14
0
-7.10543e-14
3.55271e-14
9.9476e-14
1.98952e-13
2.27374e-13
1.98952e-13
2.98428e-13
2.13163e-13
1.84741e-13
1.77636e-13
2.20268e-13
3.2685e-13
3.05533e-13
2.41585e-13
2.41585e-13
2.70006e-13
2.77112e-13
1.91847e-13
2.13163e-13
1.35003e-13
1.13687e-13
1.06581e-13
8.52651e-14
1.42109e-13
1.13687e-13
1.63425e-13
1.91847e-13
1.49214e-13
7.81597e-14
-7.10543e-15
-7.81597e-14
)
;

boundaryField
{
    sides
    {
        type            calculated;
        value           nonuniform List<scalar> 2(7.27596e-15 -1.57161e-12);
    }
    empty
    {
        type            empty;
        value           nonuniform 0();
    }
}


// ************************************************************************* //
