/*--------------------------------*- C++ -*----------------------------------*\
  =========                 |
  \\      /  F ield         | OpenFOAM: The Open Source CFD Toolbox
   \\    /   O peration     | Website:  https://openfoam.org
    \\  /    A nd           | Version:  6
     \\/     M anipulation  |
\*---------------------------------------------------------------------------*/
FoamFile
{
    version     2.0;
    format      ascii;
    class       volVectorField;
    location    "10";
    object      U;
}
// * * * * * * * * * * * * * * * * * * * * * * * * * * * * * * * * * * * * * //

dimensions      [0 1 -1 0 0 0 0];

internalField   nonuniform List<vector> 
8800
(
(0.987131 -0.0766453 0)
(1.0018 -0.0551919 0)
(1.00001 -0.0286521 0)
(1.00035 -0.0152604 0)
(1.0001 -0.00850551 0)
(0.999852 -0.00494375 0)
(0.999881 -0.00300232 0)
(0.999943 -0.00176417 0)
(0.999976 -0.000860476 0)
(1.00004 -0.000140653 0)
(0.999991 0.000573186 0)
(0.999964 0.00137441 0)
(0.999924 0.00240251 0)
(0.999876 0.0039041 0)
(0.999913 0.00648413 0)
(1.00027 0.0113814 0)
(1.00033 0.0209122 0)
(0.999182 0.0386943 0)
(1.00694 0.0724549 0)
(0.771196 0.0366516 0)
(0.363743 -0.0159431 0)
(1.04376 -0.0763592 0)
(1.08437 -0.0695832 0)
(1.04453 -0.0522492 0)
(1.02277 -0.0376645 0)
(1.0117 -0.0255453 0)
(1.00593 -0.0162705 0)
(1.00307 -0.00979041 0)
(1.00182 -0.00531971 0)
(1.00131 -0.00196104 0)
(1.00122 0.000879156 0)
(1.00147 0.00391936 0)
(1.00227 0.0076977 0)
(1.00421 0.013014 0)
(1.00835 0.0207728 0)
(1.01628 0.0313968 0)
(1.03198 0.0449663 0)
(1.06221 0.0603796 0)
(1.09203 0.0753014 0)
(0.839593 0.0562504 0)
(0.218428 -0.00226638 0)
(1.0772 -0.0492599 0)
(1.10075 -0.0472142 0)
(1.06469 -0.0394136 0)
(1.03903 -0.0322941 0)
(1.02255 -0.0246786 0)
(1.01299 -0.0173982 0)
(1.0077 -0.011079 0)
(1.00511 -0.00572367 0)
(1.00431 -0.000747737 0)
(1.00447 0.00401667 0)
(1.006 0.00901873 0)
(1.0098 0.014721 0)
(1.01683 0.0214292 0)
(1.02951 0.0288076 0)
(1.0503 0.036336 0)
(1.08128 0.0431555 0)
(1.10754 0.0500126 0)
(0.944922 0.0407593 0)
(0.218154 0.00227707 0)
(0.179229 -0.000569754 0)
(1.02237 -0.0326582 0)
(1.10539 -0.0372923 0)
(1.07794 -0.0323024 0)
(1.05314 -0.0270164 0)
(1.0361 -0.0222504 0)
(1.0238 -0.0173258 0)
(1.01554 -0.0121199 0)
(1.01063 -0.00662378 0)
(1.00845 -0.000891368 0)
(1.00913 0.00491707 0)
(1.01252 0.0103605 0)
(1.01894 0.0156354 0)
(1.02907 0.0204693 0)
(1.04353 0.0251453 0)
(1.06393 0.0300691 0)
(1.09359 0.035424 0)
(1.0958 0.0377676 0)
(0.836393 0.0209259 0)
(0.178786 0.000582889 0)
(0.160777 -0.000330571 0)
(0.968031 -0.0211222 0)
(1.10547 -0.029068 0)
(1.08595 -0.0264941 0)
(1.05943 -0.0226425 0)
(1.04172 -0.0188521 0)
(1.02976 -0.0148829 0)
(1.02163 -0.0106128 0)
(1.01647 -0.00593363 0)
(1.01414 -0.000606943 0)
(1.01474 0.00489828 0)
(1.01833 0.00974722 0)
(1.02477 0.0140005 0)
(1.03455 0.01791 0)
(1.04913 0.0215747 0)
(1.07048 0.0251198 0)
(1.10081 0.0287953 0)
(1.07555 0.0279032 0)
(0.759243 0.0110821 0)
(0.160129 0.000344416 0)
(0.152612 -5.20761e-05 0)
(0.926068 -0.00923509 0)
(1.09772 -0.0170629 0)
(1.09114 -0.0179964 0)
(1.06394 -0.0169487 0)
(1.04455 -0.0153366 0)
(1.03186 -0.0129882 0)
(1.02366 -0.0096225 0)
(1.01861 -0.0053444 0)
(1.01642 -0.000298395 0)
(1.01685 0.00480696 0)
(1.02023 0.00928325 0)
(1.0266 0.0128547 0)
(1.03662 0.0153813 0)
(1.05227 0.0169909 0)
(1.07555 0.0183658 0)
(1.10127 0.0185377 0)
(1.05045 0.0148486 0)
(0.715607 0.00389427 0)
(0.151713 7.03833e-05 0)
(0.15077 2.09832e-05 0)
(0.901022 -0.00431305 0)
(1.08559 -0.0110481 0)
(1.08967 -0.013972 0)
(1.0649 -0.014864 0)
(1.04844 -0.0143238 0)
(1.03727 -0.0123216 0)
(1.02971 -0.00919283 0)
(1.02474 -0.00504585 0)
(1.02228 5.9742e-06 0)
(1.02277 0.00509295 0)
(1.02607 0.00951003 0)
(1.03195 0.0128734 0)
(1.04096 0.0151886 0)
(1.05432 0.0162009 0)
(1.07496 0.0155225 0)
(1.09558 0.013783 0)
(1.02872 0.00856347 0)
(0.695754 0.00160809 0)
(0.14954 -3.23815e-08 0)
(0.1503 2.77189e-05 0)
(0.88398 -0.00234611 0)
(1.06994 -0.00867415 0)
(1.08346 -0.013771 0)
(1.06371 -0.0156552 0)
(1.04926 -0.0153086 0)
(1.03908 -0.013382 0)
(1.03211 -0.00999676 0)
(1.02747 -0.00534713 0)
(1.02502 0.000320667 0)
(1.02536 0.00608857 0)
(1.02837 0.010945 0)
(1.03372 0.0145412 0)
(1.04194 0.0167575 0)
(1.05361 0.0174272 0)
(1.07143 0.0166089 0)
(1.08436 0.0127485 0)
(1.0086 0.00591621 0)
(0.684479 0.000829175 0)
(0.148686 -2.8456e-06 0)
(0.150272 1.64203e-05 0)
(0.872243 -0.00123988 0)
(1.05285 -0.00617641 0)
(1.07382 -0.0119571 0)
(1.06261 -0.0151512 0)
(1.05121 -0.0152188 0)
(1.04332 -0.013299 0)
(1.03734 -0.00981996 0)
(1.03297 -0.00508588 0)
(1.0305 0.000795736 0)
(1.03068 0.00686341 0)
(1.03333 0.0117434 0)
(1.03788 0.015265 0)
(1.04426 0.0173303 0)
(1.05352 0.0176001 0)
(1.06573 0.0156612 0)
(1.06943 0.010522 0)
(0.990763 0.00402509 0)
(0.677557 0.00055757 0)
(0.148184 1.52519e-05 0)
(0.15038 2.19481e-05 0)
(0.865545 -0.000403534 0)
(1.03952 -0.00324441 0)
(1.06372 -0.00747941 0)
(1.05869 -0.010453 0)
(1.05199 -0.0113205 0)
(1.04611 -0.0102419 0)
(1.04113 -0.00757706 0)
(1.03722 -0.00355555 0)
(1.03485 0.00163737 0)
(1.03475 0.00691512 0)
(1.0368 0.0109884 0)
(1.04043 0.0135985 0)
(1.04529 0.0146927 0)
(1.05132 0.0141588 0)
(1.05761 0.011336 0)
(1.05545 0.00688444 0)
(0.978195 0.0023943 0)
(0.673326 0.000366182 0)
(0.14769 1.56881e-05 0)
(0.15075 3.18606e-05 0)
(0.862783 9.79314e-05 0)
(1.03209 -0.00113868 0)
(1.05702 -0.00342972 0)
(1.05547 -0.00535391 0)
(1.05184 -0.0062112 0)
(1.04797 -0.005813 0)
(1.04416 -0.0041231 0)
(1.04083 -0.00120479 0)
(1.03854 0.00271993 0)
(1.03809 0.00658938 0)
(1.03942 0.00935933 0)
(1.0419 0.0107028 0)
(1.04499 0.0107194 0)
(1.04826 0.00949198 0)
(1.05107 0.00715476 0)
(1.04606 0.00411465 0)
(0.970873 0.00146353 0)
(0.670796 0.000290589 0)
(0.147308 1.86685e-05 0)
(0.151284 3.84611e-05 0)
(0.862333 0.000398828 0)
(1.02884 5.61649e-05 0)
(1.05355 -0.00090012 0)
(1.05349 -0.00180656 0)
(1.05149 -0.00224301 0)
(1.04899 -0.0019745 0)
(1.04619 -0.000843435 0)
(1.04343 0.00117885 0)
(1.04119 0.00391824 0)
(1.04031 0.00648554 0)
(1.04083 0.00801229 0)
(1.04214 0.00842052 0)
(1.04377 0.00785034 0)
(1.04534 0.0065212 0)
(1.04638 0.0047124 0)
(1.04034 0.00273626 0)
(0.966584 0.00113141 0)
(0.668907 0.000312462 0)
(0.146882 2.63198e-05 0)
(0.151951 4.45858e-05 0)
(0.862972 0.000597259 0)
(1.02799 0.000759819 0)
(1.05231 0.000600267 0)
(1.0528 0.000437606 0)
(1.05157 0.000495199 0)
(1.04982 0.000932723 0)
(1.04764 0.00188358 0)
(1.04523 0.00338462 0)
(1.04294 0.00527954 0)
(1.04156 0.00687254 0)
(1.04126 0.0075975 0)
(1.04167 0.00726451 0)
(1.04227 0.00637316 0)
(1.04284 0.00509618 0)
(1.04305 0.00365369 0)
(1.03665 0.00224684 0)
(0.963616 0.00110307 0)
(0.667087 0.000376415 0)
(0.146336 3.57357e-05 0)
(0.152767 5.5267e-05 0)
(0.864536 0.000811051 0)
(1.02852 0.00130721 0)
(1.0525 0.00163362 0)
(1.05315 0.00198816 0)
(1.05221 0.00248749 0)
(1.0508 0.00321244 0)
(1.0489 0.00422622 0)
(1.04659 0.00551394 0)
(1.04411 0.00689113 0)
(1.04219 0.00778499 0)
(1.04115 0.00780498 0)
(1.04072 0.00713745 0)
(1.04061 0.00601727 0)
(1.0406 0.00473008 0)
(1.04039 0.00343617 0)
(1.03383 0.0022453 0)
(0.961042 0.00123884 0)
(0.665044 0.000469817 0)
(0.145628 4.69506e-05 0)
(0.153798 6.94832e-05 0)
(0.866814 0.00105868 0)
(1.02998 0.00183733 0)
(1.05365 0.00253372 0)
(1.0543 0.00329857 0)
(1.05343 0.0041993 0)
(1.05208 0.00526156 0)
(1.05019 0.00647796 0)
(1.04775 0.00775998 0)
(1.04488 0.00885911 0)
(1.04229 0.00926145 0)
(1.04054 0.00878319 0)
(1.03945 0.00774995 0)
(1.03879 0.00642531 0)
(1.03837 0.005033 0)
(1.0379 0.00371203 0)
(1.0312 0.00252568 0)
(0.958382 0.0014827 0)
(0.662593 0.000590159 0)
(0.14472 6.02349e-05 0)
(0.155104 8.80353e-05 0)
(0.869879 0.00136339 0)
(1.03226 0.00243968 0)
(1.05559 0.00348255 0)
(1.05617 0.00463479 0)
(1.05522 0.00593919 0)
(1.05376 0.00738481 0)
(1.05166 0.00890248 0)
(1.04886 0.0103218 0)
(1.04539 0.0113066 0)
(1.04202 0.0113532 0)
(1.03952 0.01046 0)
(1.0378 0.00904864 0)
(1.03667 0.00743196 0)
(1.03593 0.00582301 0)
(1.03525 0.00433803 0)
(1.0284 0.00301685 0)
(0.955341 0.00182503 0)
(0.659569 0.000742274 0)
(0.143569 7.63468e-05 0)
(0.156772 0.000112787 0)
(0.873876 0.00175479 0)
(1.03539 0.00318215 0)
(1.05833 0.00460276 0)
(1.05878 0.0061713 0)
(1.05765 0.00792125 0)
(1.05591 0.0098173 0)
(1.05341 0.011731 0)
(1.05002 0.0134016 0)
(1.04574 0.0143848 0)
(1.04141 0.0141457 0)
(1.03807 0.0128363 0)
(1.03571 0.0109874 0)
(1.03412 0.00898242 0)
(1.03307 0.00704217 0)
(1.03219 0.00527543 0)
(1.02515 0.00370807 0)
(0.951682 0.0022739 0)
(0.655796 0.00093323 0)
(0.142117 9.61532e-05 0)
(0.158921 0.000146362 0)
(0.87904 0.00226814 0)
(1.03947 0.00413505 0)
(1.06196 0.00599822 0)
(1.06221 0.00804198 0)
(1.06079 0.0103142 0)
(1.05863 0.0127614 0)
(1.05553 0.0151842 0)
(1.05132 0.0172135 0)
(1.04594 0.0182736 0)
(1.04045 0.0177629 0)
(1.03613 0.0159814 0)
(1.03306 0.0136041 0)
(1.03096 0.0110966 0)
(1.02958 0.00870636 0)
(1.02849 0.00654285 0)
(1.02122 0.00462113 0)
(0.947165 0.00284866 0)
(0.651062 0.00117301 0)
(0.140293 0.000120838 0)
(0.161718 0.000193008 0)
(0.885725 0.00295395 0)
(1.04477 0.00537908 0)
(1.06672 0.0077578 0)
(1.06668 0.0103538 0)
(1.06484 0.0132692 0)
(1.06205 0.0164184 0)
(1.05811 0.0194989 0)
(1.05279 0.0220005 0)
(1.04601 0.023193 0)
(1.03907 0.0223798 0)
(1.03358 0.0200252 0)
(1.02968 0.016994 0)
(1.02701 0.0138497 0)
(1.02526 0.0108813 0)
(1.02393 0.00820074 0)
(1.01637 0.00580686 0)
(0.941512 0.00358282 0)
(0.645098 0.00147661 0)
(0.138007 0.000152311 0)
(0.165395 0.000257957 0)
(0.894448 0.00387593 0)
(1.05175 0.00699769 0)
(1.07305 0.0099642 0)
(1.07257 0.0132366 0)
(1.07013 0.0170207 0)
(1.06646 0.0210924 0)
(1.06133 0.0249809 0)
(1.05453 0.0280695 0)
(1.04594 0.0294216 0)
(1.0372 0.0282283 0)
(1.0303 0.0251568 0)
(1.0254 0.0213074 0)
(1.02205 0.0173659 0)
(1.01985 0.0136775 0)
(1.01824 0.0103527 0)
(1.01031 0.00735546 0)
(0.934377 0.0045342 0)
(0.637549 0.00186715 0)
(0.135141 0.000193521 0)
(0.17029 0.000347265 0)
(0.905926 0.00511253 0)
(1.06103 0.00911491 0)
(1.0815 0.0127987 0)
(1.08034 0.0169593 0)
(1.07705 0.0219433 0)
(1.07217 0.0272006 0)
(1.06547 0.0320799 0)
(1.05669 0.0358359 0)
(1.04577 0.0373162 0)
(1.03478 0.0356018 0)
(1.02616 0.0316184 0)
(1.02004 0.0267446 0)
(1.01585 0.021811 0)
(1.01309 0.0172382 0)
(1.01112 0.0131364 0)
(1.00271 0.0093999 0)
(0.925359 0.00579592 0)
(0.627973 0.0023767 0)
(0.13155 0.000247727 0)
(0.176929 0.000475553 0)
(0.921061 0.00685199 0)
(1.07314 0.012051 0)
(1.09257 0.0167091 0)
(1.09052 0.0221271 0)
(1.08597 0.0285755 0)
(1.07952 0.0352579 0)
(1.07077 0.041348 0)
(1.0594 0.0457991 0)
(1.0455 0.047288 0)
(1.03173 0.0448279 0)
(1.02101 0.0396793 0)
(1.0134 0.03353 0)
(1.00815 0.0273637 0)
(1.00466 0.0216979 0)
(1.00218 0.0166628 0)
(0.993173 0.0120546 0)
(0.914074 0.00746846 0)
(0.615921 0.00303738 0)
(0.127073 0.000315473 0)
(0.186146 0.000680414 0)
(0.940996 0.00956293 0)
(1.08877 0.0163411 0)
(1.10683 0.0223039 0)
(1.10355 0.0294355 0)
(1.09738 0.0377546 0)
(1.08873 0.0460918 0)
(1.07717 0.053394 0)
(1.06249 0.0584623 0)
(1.04494 0.059738 0)
(1.02784 0.0562201 0)
(1.01461 0.0495997 0)
(1.00518 0.0418908 0)
(0.998639 0.0342099 0)
(0.994208 0.0271745 0)
(0.991047 0.0209779 0)
(0.9813 0.0153301 0)
(0.900152 0.00959034 0)
(0.601028 0.00387351 0)
(0.121532 0.000395374 0)
(0.199248 0.00103512 0)
(0.967635 0.0139872 0)
(1.10941 0.0227536 0)
(1.12536 0.0305647 0)
(1.12006 0.0399547 0)
(1.11132 0.0504638 0)
(1.09946 0.0605437 0)
(1.08417 0.0690106 0)
(1.06541 0.0744418 0)
(1.04357 0.0751036 0)
(1.02265 0.0701201 0)
(1.00656 0.0616982 0)
(0.99502 0.0521541 0)
(0.986909 0.0426862 0)
(0.981317 0.0339768 0)
(0.977291 0.0263156 0)
(0.966603 0.019361 0)
(0.882979 0.0122514 0)
(0.582782 0.0049545 0)
(0.114709 0.000495573 0)
(0.218458 0.00170343 0)
(1.0041 0.0212846 0)
(1.13703 0.0328727 0)
(1.14962 0.043469 0)
(1.14089 0.0557554 0)
(1.12809 0.0686309 0)
(1.11163 0.0802869 0)
(1.09143 0.0894252 0)
(1.06768 0.094538 0)
(1.04091 0.0938932 0)
(1.01578 0.0869059 0)
(0.996519 0.0763558 0)
(0.982584 0.0647663 0)
(0.972598 0.0533372 0)
(0.965531 0.0427525 0)
(0.960339 0.0333743 0)
(0.948347 0.0248291 0)
(0.861447 0.0159261 0)
(0.560212 0.00646226 0)
(0.106297 0.000640556 0)
(0.247285 0.0032152 0)
(1.05601 0.0346209 0)
(1.1738 0.0502387 0)
(1.18073 0.0644969 0)
(1.16626 0.0798438 0)
(1.1475 0.0945693 0)
(1.12489 0.106916 0)
(1.09858 0.115641 0)
(1.06898 0.119366 0)
(1.03675 0.11648 0)
(1.00709 0.106833 0)
(0.984427 0.0938206 0)
(0.967825 0.0800583 0)
(0.955611 0.066636 0)
(0.946622 0.0541795 0)
(0.939681 0.0429824 0)
(0.925662 0.0328083 0)
(0.834083 0.0215405 0)
(0.532048 0.0086371 0)
(0.0964691 0.000808782 0)
(0.288277 0.0105533 -1.65562e-21)
(1.12469 0.0624899 -1.12073e-21)
(1.21913 0.0820157 2.45234e-22)
(1.21591 0.100109 0)
(1.19346 0.116512 -6.0993e-36)
(1.16717 0.1309 1.18301e-22)
(1.1374 0.142017 -3.90007e-22)
(1.10436 0.148863 0)
(1.06843 0.150172 1.19796e-35)
(1.03025 0.14437 -8.58102e-22)
(0.995577 0.131749 0)
(0.968989 0.116241 -1.18638e-21)
(0.949115 0.100447 -3.60859e-21)
(0.933962 0.0853121 -1.7409e-21)
(0.922179 0.071435 -5.45204e-22)
(0.912356 0.0590359 -3.30003e-22)
(0.895139 0.0479343 0)
(0.798467 0.0341642 2.38865e-22)
(0.49606 0.0173594 2.84805e-22)
(0.086619 0.00301097 5.11887e-21)
(0.311899 0.0281753 -4.00574e-21)
(1.18005 0.109039 1.04947e-22)
(1.26092 0.13179 -1.82066e-22)
(1.2479 0.149182 0)
(1.21759 0.163827 6.25136e-23)
(1.18395 0.176369 -1.5748e-22)
(1.14725 0.18557 -3.0604e-22)
(1.10753 0.190247 -1.67992e-21)
(1.06503 0.189142 0)
(1.02021 0.18074 3.62663e-21)
(0.979399 0.16571 3.92508e-21)
(0.947602 0.148416 1.24374e-21)
(0.923149 0.131407 4.85438e-21)
(0.903755 0.115482 7.11667e-21)
(0.887876 0.101094 0)
(0.873936 0.0886684 1.05668e-20)
(0.851825 0.0779095 1.55321e-20)
(0.757726 0.0612126 1.74838e-20)
(0.472518 0.0389463 -2.03974e-20)
(0.0849001 0.00751709 -3.77156e-22)
(0.304314 0.0459729 0)
(1.21183 0.169069 -1.2794e-21)
(1.29246 0.194371 0)
(1.27305 0.208274 1.72832e-21)
(1.23655 0.219135 0)
(1.19659 0.228176 3.74486e-22)
(1.1537 0.234016 4.72473e-22)
(1.10786 0.235553 -2.75422e-21)
(1.05933 0.231366 -3.08719e-22)
(1.00848 0.219958 1.77449e-21)
(0.962161 0.202519 9.03197e-21)
(0.925853 0.183825 -5.14567e-23)
(0.897663 0.166332 -3.62347e-21)
(0.875024 0.150663 -6.97403e-21)
(0.85629 0.137155 8.46101e-21)
(0.83991 0.12592 -1.5204e-20)
(0.817383 0.116445 -2.0857e-21)
(0.733786 0.0993421 0)
(0.474035 0.0662155 7.14885e-23)
(0.0923363 0.0135144 0)
(0.291831 0.0606185 -3.39413e-20)
(1.22567 0.232436 1.35977e-20)
(1.31209 0.261598 6.93893e-21)
(1.28914 0.272119 -1.21564e-21)
(1.24833 0.278833 1.82626e-21)
(1.20377 0.28356 -1.16932e-21)
(1.15601 0.28547 8.04074e-22)
(1.10525 0.283278 0)
(1.05166 0.275598 -7.34054e-21)
(0.995618 0.260925 0)
(0.94479 0.240979 -4.60898e-21)
(0.905153 0.220888 -6.35771e-21)
(0.874538 0.202955 -4.02853e-21)
(0.85018 0.187485 -5.15853e-21)
(0.830349 0.174523 0)
(0.813449 0.164081 0)
(0.792267 0.155209 -1.38894e-20)
(0.717184 0.137109 2.78686e-21)
(0.472736 0.0924014 -1.64405e-21)
(0.0949231 0.0191361 -1.94695e-21)
(0.280525 0.0735965 2.54546e-20)
(1.22783 0.295109 0)
(1.32221 0.329074 -1.97597e-20)
(1.29721 0.336776 -4.76981e-21)
(1.25362 0.339487 -3.29506e-21)
(1.2059 0.340106 0)
(1.15449 0.338075 1.17935e-22)
(1.09978 0.332053 2.61896e-21)
(1.0421 0.320723 3.32706e-21)
(0.981903 0.30259 8.74694e-21)
(0.927456 0.27992 0)
(0.88524 0.258137 -1.37655e-20)
(0.853006 0.239298 -8.72981e-21)
(0.827718 0.223484 -5.24682e-21)
(0.807412 0.210534 3.41296e-20)
(0.790481 0.200302 4.17906e-21)
(0.770591 0.191454 2.00245e-20)
(0.701015 0.171405 -9.72961e-20)
(0.466099 0.115438 5.83567e-20)
(0.0945628 0.0239649 -7.13303e-20)
(0.271247 0.0852323 2.7129e-20)
(1.22272 0.35509 -4.87033e-21)
(1.32512 0.394961 3.54341e-21)
(1.29905 0.400366 9.33875e-21)
(1.2535 0.399328 5.4368e-21)
(1.20338 0.396205 3.22333e-22)
(1.14936 0.390388 -2.16456e-22)
(1.09156 0.380669 2.21714e-21)
(1.03049 0.365746 -7.20802e-21)
(0.966712 0.344136 0)
(0.909199 0.318475 -5.95294e-21)
(0.865019 0.294584 -2.96756e-22)
(0.831702 0.274377 -9.72253e-21)
(0.805945 0.257722 0)
(0.785638 0.244243 -7.42623e-21)
(0.769077 0.233598 -1.80335e-20)
(0.750223 0.224137 4.98937e-20)
(0.683935 0.201687 -5.00564e-20)
(0.45635 0.135475 7.16969e-20)
(0.0927737 0.0280938 -7.55869e-20)
(0.264025 0.0960348 -1.23287e-22)
(1.21328 0.411848 6.03338e-21)
(1.32283 0.458353 1.71906e-20)
(1.29629 0.461868 -5.8389e-21)
(1.24942 0.457518 3.16113e-21)
(1.19751 0.450984 0)
(1.14131 0.44164 9.61483e-22)
(1.08102 0.428445 -1.97044e-21)
(1.01714 0.410049 -3.39279e-21)
(0.950409 0.384964 0)
(0.890373 0.356145 -5.83969e-21)
(0.844585 0.329843 -8.05591e-21)
(0.810467 0.307885 1.06053e-20)
(0.784484 0.289941 -6.74415e-21)
(0.764316 0.275485 -3.26215e-20)
(0.748143 0.264026 2.00194e-20)
(0.730065 0.253639 6.33525e-21)
(0.666099 0.228642 0)
(0.444868 0.153141 -6.94799e-20)
(0.0901848 0.0315902 -2.58352e-21)
(0.258505 0.106324 4.4893e-21)
(1.20136 0.465258 -6.97995e-21)
(1.31661 0.518688 -9.41158e-21)
(1.28995 0.520719 -1.79007e-20)
(1.24217 0.513441 1.57259e-20)
(1.18897 0.503843 -7.71257e-21)
(1.13113 0.491334 -2.06066e-21)
(1.06891 0.474915 -2.94705e-21)
(1.00271 0.453271 2.98497e-21)
(0.933303 0.424777 -2.11886e-20)
(0.870895 0.392734 -7.08913e-21)
(0.823627 0.363765 0)
(0.788824 0.339688 1.15839e-20)
(0.762706 0.320078 1.42724e-20)
(0.74275 0.304309 1.75213e-20)
(0.726998 0.291749 -2.18379e-20)
(0.709586 0.280219 -6.58545e-21)
(0.647458 0.252622 7.85829e-21)
(0.432039 0.168489 0)
(0.0870176 0.0344654 -5.64192e-21)
(0.254312 0.116195 -5.23403e-20)
(1.18829 0.515451 3.22157e-20)
(1.30756 0.575743 1.0374e-20)
(1.28094 0.576564 -1.38072e-20)
(1.2326 0.566722 9.58428e-21)
(1.17853 0.554371 -7.67759e-22)
(1.11945 0.539065 1.93519e-21)
(1.05557 0.519778 -1.14726e-21)
(0.987351 0.495177 -5.95682e-21)
(0.915494 0.463442 2.59347e-23)
(0.850809 0.428159 -2.12495e-20)
(0.802065 0.396304 2.03649e-20)
(0.766572 0.369796 -1.29614e-20)
(0.740338 0.34819 1.60637e-20)
(0.72062 0.330794 0)
(0.705298 0.316897 -1.18786e-20)
(0.688509 0.304018 -2.67984e-22)
(0.627989 0.273727 -3.43759e-20)
(0.418003 0.181628 -5.12079e-21)
(0.0833361 0.0366645 0)
(0.251192 0.125816 0)
(1.17483 0.562629 3.48402e-20)
(1.29652 0.629411 2.44167e-20)
(1.27004 0.629212 1.57001e-20)
(1.22131 0.617123 9.12584e-21)
(1.16663 0.602375 0)
(1.10665 0.584629 2.55031e-21)
(1.04143 0.562864 -2.61499e-22)
(0.971391 0.535611 1.25617e-20)
(0.897294 0.500938 -2.63145e-21)
(0.830253 0.462431 -1.55482e-20)
(0.779895 0.427546 1.02485e-20)
(0.743591 0.39831 -4.03865e-22)
(0.717172 0.374378 1.69823e-20)
(0.697677 0.355085 1.10253e-20)
(0.682827 0.339617 -2.5884e-20)
(0.666643 0.325193 3.13897e-20)
(0.60745 0.291917 9.43819e-21)
(0.402635 0.192431 3.93636e-20)
(0.0790436 0.0380659 -1.0654e-19)
(0.248929 0.135238 -1.34928e-20)
(1.16145 0.606938 2.02382e-20)
(1.28415 0.679712 -1.54271e-20)
(1.25782 0.678636 -1.84071e-20)
(1.20889 0.664591 0)
(1.15383 0.647778 7.33954e-21)
(1.09318 0.627946 -7.20415e-21)
(1.02689 0.604042 1.45993e-21)
(0.955185 0.574543 0)
(0.878854 0.537262 -4.01842e-20)
(0.809377 0.49567 4.23644e-20)
(0.75714 0.457664 0)
(0.71982 0.425452 1.53966e-20)
(0.693072 0.398867 -4.15632e-22)
(0.673746 0.377349 -3.50939e-20)
(0.659367 0.360031 1.37949e-20)
(0.64375 0.34385 0)
(0.585746 0.307376 5.12073e-20)
(0.385877 0.200915 0)
(0.0742026 0.0388346 -5.08956e-20)
(0.247274 0.144455 1.50469e-20)
(1.14838 0.648523 2.32497e-20)
(1.27094 0.7267 -1.61432e-20)
(1.24477 0.724878 0)
(1.1958 0.709154 1.29633e-20)
(1.14054 0.690582 0)
(1.07941 0.668975 1.01709e-20)
(1.01222 0.643273 6.9145e-22)
(0.939027 0.611926 1.50538e-21)
(0.860378 0.572424 -1.98282e-20)
(0.788314 0.528046 4.14181e-21)
(0.7339 0.486889 0)
(0.695253 0.451498 -3.29028e-20)
(0.667935 0.421921 4.33507e-22)
(0.648698 0.397856 0)
(0.634684 0.378302 4.94346e-22)
(0.619604 0.36011 4.64872e-20)
(0.562658 0.32013 -4.50348e-20)
(0.367601 0.206982 1.33971e-20)
(0.06874 0.0388014 0)
(0.245848 0.153319 0)
(1.13576 0.687432 2.60525e-20)
(1.25723 0.770534 1.9073e-20)
(1.23124 0.768049 -4.17584e-22)
(1.18235 0.750872 8.24284e-21)
(1.12703 0.730803 1.75994e-20)
(1.06561 0.707692 -3.2291e-21)
(0.997691 0.680513 -2.2476e-22)
(0.923151 0.64771 8.04577e-21)
(0.842139 0.606487 -3.0927e-20)
(0.767223 0.559688 -6.66857e-22)
(0.710344 0.515488 -1.35564e-20)
(0.669897 0.476748 5.40723e-20)
(0.64163 0.443853 -5.2879e-22)
(0.622228 0.416851 -2.79141e-20)
(0.608634 0.394654 -5.08967e-20)
(0.59421 0.374071 0)
(0.538142 0.330218 0)
(0.347605 0.210507 1.48072e-20)
(0.0626317 0.0378963 -8.75558e-21)
(0.244796 0.161979 1.87667e-20)
(1.1236 0.723766 -5.69855e-20)
(1.24336 0.811364 -2.04298e-20)
(1.21749 0.808288 0)
(1.1688 0.789852 -3.02082e-22)
(1.11356 0.76849 2.15094e-20)
(1.052 0.74412 -1.15066e-20)
(0.98355 0.715779 -3.07462e-21)
(0.907771 0.681894 8.83099e-21)
(0.824492 0.6394 -2.39703e-20)
(0.746455 0.590612 -3.59942e-20)
(0.686629 0.543693 3.62291e-20)
(0.64376 0.501533 0)
(0.613946 0.465035 -1.26388e-20)
(0.59415 0.43433 -3.07449e-20)
(0.581222 0.409298 -3.70917e-20)
(0.567449 0.385717 -4.51111e-20)
(0.511724 0.33746 1.35791e-20)
(0.325575 0.211121 -8.00226e-21)
(0.0558464 0.0360652 1.19247e-22)
(0.243681 0.170222 0)
(1.11198 0.757904 0)
(1.22949 0.849366 4.85389e-22)
(1.20377 0.845734 0)
(1.15534 0.82621 -3.13783e-20)
(1.1003 0.803726 -1.92578e-20)
(1.03874 0.778291 0)
(0.969938 0.74908 -1.11068e-21)
(0.893119 0.714494 1.20892e-20)
(0.807653 0.671181 -5.5012e-20)
(0.726246 0.621055 0)
(0.662871 0.571713 -2.32974e-20)
(0.616904 0.52616 -6.38194e-22)
(0.584973 0.485698 -5.26505e-22)
(0.564557 0.450953 3.30582e-20)
(0.551745 0.422491 -5.94851e-23)
(0.538204 0.395509 -9.8546e-20)
(0.482522 0.34196 2.98e-20)
(0.301116 0.208615 8.90556e-21)
(0.0482923 0.0332341 0)
(0.242512 0.177981 -6.93402e-20)
(1.10061 0.789874 -3.50485e-20)
(1.21575 0.884702 -5.15309e-20)
(1.1902 0.88053 7.10624e-20)
(1.14212 0.860037 -5.91946e-20)
(1.08737 0.836586 0)
(1.02595 0.810266 -1.03417e-20)
(0.956969 0.780433 2.01331e-21)
(0.879302 0.745514 7.51137e-22)
(0.791701 0.701931 4.30545e-21)
(0.706697 0.651068 4.53505e-20)
(0.639187 0.599682 -7.99199e-21)
(0.589825 0.550847 -3.36774e-20)
(0.555396 0.506424 -1.51692e-20)
(0.533424 0.467504 1.84727e-20)
(0.520183 0.434004 -4.67108e-23)
(0.506588 0.40259 2.72516e-20)
(0.450663 0.342918 -6.49531e-20)
(0.273871 0.202453 7.80593e-20)
(0.0400782 0.0293689 1.14396e-20)
(0.241118 0.185279 2.55008e-20)
(1.08956 0.819808 -1.91759e-20)
(1.20224 0.917548 1.15003e-21)
(1.1769 0.912833 4.0325e-20)
(1.12922 0.891458 1.3921e-20)
(1.07487 0.867149 3.88522e-20)
(1.01373 0.84011 -4.70376e-21)
(0.944712 0.80986 1.01809e-20)
(0.866359 0.77495 -8.74129e-21)
(0.776758 0.731643 -3.0333e-20)
(0.688105 0.68053 0)
(0.616262 0.627731 -3.60098e-20)
(0.563175 0.576132 4.90389e-20)
(0.525321 0.527869 0)
(0.50028 0.483518 -3.9688e-20)
(0.486071 0.445344 2.47093e-20)
(0.472111 0.408285 -2.96213e-20)
(0.415397 0.340548 -3.59659e-20)
(0.242903 0.192059 -6.39879e-20)
(0.0310283 0.0242849 -5.06461e-20)
(0.239868 0.192183 -2.807e-20)
(1.07867 0.847814 2.05345e-20)
(1.18899 0.948026 4.83502e-20)
(1.16393 0.942762 5.55788e-20)
(1.11672 0.920585 -2.92109e-20)
(1.06287 0.89552 2.70745e-20)
(1.00213 0.867878 -1.46722e-20)
(0.933242 0.837389 1.3292e-20)
(0.854354 0.80279 -3.87455e-21)
(0.762985 0.760221 2.93128e-20)
(0.670911 0.70942 9.68952e-20)
(0.594399 0.656048 0)
(0.536059 0.602865 0)
(0.493244 0.550582 -1.75889e-20)
(0.464693 0.500846 0)
(0.448085 0.455015 5.40399e-20)
(0.43418 0.411198 6.52059e-20)
(0.376608 0.333931 0)
(0.209067 0.177179 0)
(0.0217496 0.0182629 5.56693e-20)
(0.238319 0.198459 3.10113e-20)
(1.06801 0.87415 2.47183e-20)
(1.1761 0.976277 3.4805e-20)
(1.15133 0.970465 -4.97909e-20)
(1.10465 0.947539 -3.27063e-20)
(1.0514 0.9218 -3.61355e-20)
(0.991207 0.893673 2.19644e-20)
(0.922599 0.863123 1.58117e-22)
(0.843376 0.829041 -9.70207e-22)
(0.750474 0.787678 -1.24615e-21)
(0.654929 0.737991 4.92418e-20)
(0.573355 0.684681 0)
(0.508884 0.630319 4.97299e-20)
(0.459629 0.574798 3.71604e-20)
(0.426207 0.519963 9.5111e-20)
(0.405457 0.466336 2.92123e-20)
(0.390443 0.410531 -3.64357e-20)
(0.333382 0.319813 -2.16404e-20)
(0.174597 0.156524 0)
(0.0138149 0.0118802 6.11142e-20)
(0.236971 0.20454 -6.8345e-20)
(1.05755 0.898617 0)
(1.16359 1.00241 3.89811e-20)
(1.13914 0.996059 -4.09044e-20)
(1.09306 0.972433 3.72004e-20)
(1.04047 0.94609 5.3071e-20)
(0.980943 0.917575 -5.15296e-20)
(0.912778 0.887171 2.83837e-22)
(0.833491 0.853796 0)
(0.739214 0.813976 -2.80477e-20)
(0.640135 0.766015 -1.02773e-19)
(0.553743 0.713771 4.95949e-21)
(0.483144 0.658784 6.77352e-20)
(0.425824 0.600616 0)
(0.385459 0.54242 6.41275e-20)
(0.35726 0.479224 0)
(0.336708 0.407283 0)
(0.282129 0.29105 -2.43773e-20)
(0.149812 0.120736 0)
(0.024617 0.00941811 1.6609e-20)
(0.235292 0.209972 -7.47482e-20)
(1.04729 0.921447 0)
(1.15143 1.02666 6.3307e-20)
(1.12731 1.01978 0)
(1.08188 0.99552 -2.02794e-20)
(1.03 0.968659 0)
(0.971234 0.939876 -3.90116e-21)
(0.903693 0.909766 -2.47999e-21)
(0.824547 0.877366 2.41412e-22)
(0.729051 0.839454 -2.80806e-20)
(0.626703 0.793843 2.73475e-21)
(0.535414 0.743148 4.10278e-20)
(0.458429 0.688629 6.56904e-20)
(0.392147 0.630968 9.36319e-21)
(0.341966 0.570709 5.00584e-20)
(0.301932 0.500273 0)
(0.263184 0.406132 7.98079e-20)
(0.204927 0.240068 -4.82338e-20)
(0.0761494 0.108284 5.65812e-20)
(-0.0283948 0.390513 -6.73458e-20)
(0.233631 0.215127 6.10212e-20)
(1.03709 0.942773 9.42183e-20)
(1.1395 1.04934 0)
(1.11572 1.042 9.2637e-22)
(1.07094 1.01729 5.51858e-20)
(1.01978 0.990082 -1.03572e-19)
(0.961864 0.961225 -2.304e-20)
(0.895064 0.93168 0)
(0.816213 0.900672 -2.90049e-21)
(0.7198 0.865307 -9.47446e-22)
(0.614284 0.823028 0)
(0.517583 0.775045 0)
(0.434039 0.722321 5.76249e-20)
(0.359165 0.665382 -2.91451e-20)
(0.295074 0.608156 -4.96568e-20)
(0.239383 0.536673 0)
(0.154261 0.415139 4.08106e-20)
(0.050668 0.492833 -4.9402e-20)
(0.0523498 1.71309 -2.74549e-20)
(0.087553 2.7185 -3.31984e-20)
(0.231735 0.219665 -4.48016e-20)
(1.027 0.962792 -1.19071e-19)
(1.1278 1.07044 3.66075e-20)
(1.10439 1.06264 3.49798e-20)
(1.06031 1.0376 0)
(1.00985 1.01015 -7.43993e-20)
(0.952964 0.981349 -3.88745e-20)
(0.886961 0.952527 1.72602e-21)
(0.808596 0.923183 -3.54263e-22)
(0.711564 0.890942 2.22696e-20)
(0.603203 0.852999 4.65674e-20)
(0.501305 0.809013 4.25715e-20)
(0.410275 0.75849 5.65822e-20)
(0.327865 0.703816 -6.63625e-20)
(0.251831 0.65674 -7.30702e-20)
(0.176607 0.594494 0)
(0.088855 0.847082 0)
(0.138999 2.41988 2.14995e-20)
(0.149444 3.1454 0)
(0.14789 3.36251 5.446e-20)
(0.232793 0.223926 0)
(1.01707 0.981686 0)
(1.1161 1.08985 0)
(1.09314 1.08155 9.76216e-21)
(1.04974 1.05629 4.95587e-20)
(1.00001 1.02873 -5.70596e-20)
(0.944422 1.00016 -2.79884e-20)
(0.879357 0.972188 1.99389e-21)
(0.801771 0.944789 -1.01126e-20)
(0.70443 0.916118 -2.06883e-21)
(0.593374 0.883385 8.51986e-20)
(0.486334 0.844431 -4.99694e-21)
(0.388645 0.797951 6.40865e-21)
(0.300095 0.742268 9.44192e-21)
(0.220881 0.712346 4.92231e-22)
(0.148903 0.951014 3.01348e-22)
(0.189193 2.53501 -1.02531e-19)
(0.21586 3.26072 -3.93217e-20)
(0.196618 3.42073 1.93677e-20)
(0.176746 3.44832 -2.03881e-20)
(0.152385 0.167303 2.64417e-20)
(1.00078 1.00233 0)
(1.10455 1.10781 -7.18858e-20)
(1.08232 1.0991 -9.09483e-20)
(1.03962 1.07381 1.03112e-19)
(0.990812 1.04624 6.05605e-20)
(0.936048 1.01769 3.30751e-20)
(0.872225 0.990707 -3.52847e-20)
(0.7958 0.965631 1.17571e-20)
(0.698733 0.941124 0)
(0.585539 0.913997 3.75609e-20)
(0.473565 0.880185 -3.21875e-20)
(0.369563 0.840444 0)
(0.277627 0.787826 8.51304e-21)
(0.210724 0.890486 2.08087e-20)
(0.191744 2.15162 -2.47733e-20)
(0.285693 3.29301 2.82547e-20)
(0.263975 3.44394 1.38325e-20)
(0.221424 3.47207 1.61418e-20)
(0.192805 3.48385 2.07978e-20)
(0.264926 0.257411 -5.14176e-20)
(0.976979 1.00455 0)
(1.08408 1.12653 7.43152e-20)
(1.06697 1.12481 9.4866e-20)
(1.02406 1.09903 -1.0717e-19)
(0.976403 1.07169 -6.5074e-20)
(0.923296 1.04431 -5.12476e-20)
(0.861534 1.01892 -2.6194e-21)
(0.786928 0.997897 -1.82247e-20)
(0.689942 0.981008 5.66609e-21)
(0.573601 0.965256 1.54846e-21)
(0.452535 0.942027 2.51227e-20)
(0.33929 0.917695 5.31777e-21)
(0.258311 1.00249 -7.4515e-21)
(0.293529 2.08957 -1.73388e-20)
(0.366999 3.28938 1.28439e-20)
(0.357315 3.48539 -1.14411e-20)
(0.311618 3.51412 -6.63868e-21)
(0.266996 3.54504 5.70485e-22)
(0.204343 3.53571 -2.75647e-22)
(0.252789 0.254351 0)
(0.971217 1.0224 1.96652e-20)
(1.07372 1.14466 -1.46839e-20)
(1.05571 1.1422 -1.05397e-20)
(1.01375 1.11622 -7.02387e-20)
(0.967169 1.08876 6.34523e-20)
(0.915204 1.06141 3.4562e-20)
(0.855198 1.03717 -2.77174e-21)
(0.782502 1.01887 2.30564e-20)
(0.686471 1.0069 -2.82489e-21)
(0.568639 0.999184 -5.13614e-20)
(0.444295 0.984764 3.58529e-21)
(0.336101 0.979463 -4.66346e-21)
(0.311606 1.37173 -6.14921e-21)
(0.409243 2.93024 4.13606e-21)
(0.455555 3.47367 4.75262e-22)
(0.396834 3.55993 -5.92514e-21)
(0.353767 3.58697 -1.02295e-20)
(0.287476 3.61282 1.66374e-20)
(0.219854 3.60299 7.41087e-21)
(0.236644 0.249709 4.8742e-20)
(0.963943 1.04228 1.31401e-19)
(1.06248 1.16399 -4.16831e-20)
(1.04389 1.16056 -3.99134e-20)
(1.0029 1.13412 0)
(0.957488 1.10627 9.27437e-20)
(0.907052 1.07891 5.27522e-20)
(0.849348 1.05571 -2.93877e-21)
(0.779297 1.04003 2.36807e-21)
(0.684809 1.03371 7.68851e-21)
(0.565299 1.03326 -1.78632e-20)
(0.438114 1.03031 -2.48765e-20)
(0.351589 1.07251 -3.0863e-20)
(0.397137 1.9061 3.22973e-20)
(0.515542 3.32496 1.4661e-20)
(0.520605 3.56003 0)
(0.448639 3.617 0)
(0.395368 3.67078 1.61606e-20)
(0.313292 3.73335 0)
(0.232095 3.69651 3.51905e-20)
(0.224575 0.24874 -7.07274e-20)
(0.954245 1.06252 -1.08807e-19)
(1.04958 1.18392 0)
(1.0307 1.17915 9.85392e-22)
(0.990742 1.15194 -6.8002e-20)
(0.946758 1.12351 1.37594e-19)
(0.898353 1.09611 3.55347e-20)
(0.843315 1.07359 -3.68437e-21)
(0.77639 1.06033 2.67867e-20)
(0.684812 1.06008 -1.20332e-21)
(0.564867 1.069 0)
(0.43657 1.07577 0)
(0.38998 1.22577 -2.28145e-20)
(0.509144 2.51443 6.51458e-21)
(0.618178 3.48874 -3.51396e-21)
(0.578367 3.61502 0)
(0.523148 3.68466 4.10578e-20)
(0.442997 3.77154 -6.26381e-20)