/*--------------------------------*- C++ -*----------------------------------*\
  =========                 |
  \\      /  F ield         | OpenFOAM: The Open Source CFD Toolbox
   \\    /   O peration     | Website:  https://openfoam.org
    \\  /    A nd           | Version:  6
     \\/     M anipulation  |
\*---------------------------------------------------------------------------*/
FoamFile
{
    version     2.0;
    format      ascii;
    class       volScalarField;
    location    "69.1";
    object      p;
}
// * * * * * * * * * * * * * * * * * * * * * * * * * * * * * * * * * * * * * //

dimensions      [0 2 -2 0 0 0 0];

internalField   nonuniform List<scalar> 
8800
(
0.884226
0.83491
0.796943
0.768871
0.748706
0.734113
0.723506
0.715954
0.711052
0.70896
0.710307
0.714631
0.72141
0.730823
0.743553
0.760869
0.784744
0.81784
0.860776
0.91329
0.718723
0.725067
0.734215
0.737762
0.735149
0.729055
0.722107
0.715854
0.711037
0.708148
0.707892
0.710499
0.715124
0.721241
0.728333
0.735362
0.740237
0.74011
0.733434
0.724535
0.692244
0.698479
0.702976
0.706844
0.709787
0.710729
0.709631
0.707495
0.705496
0.704633
0.705641
0.708074
0.710946
0.713206
0.713721
0.711928
0.708559
0.704544
0.699762
0.696046
0.687953
0.690717
0.693321
0.695474
0.697206
0.698767
0.699859
0.700196
0.700063
0.700136
0.700914
0.702035
0.702761
0.7026
0.701618
0.700259
0.698587
0.696283
0.693871
0.692304
0.682909
0.684333
0.68617
0.688245
0.689951
0.691235
0.692321
0.693284
0.694072
0.69478
0.695462
0.695899
0.695906
0.695531
0.694856
0.693735
0.692076
0.69018
0.688826
0.688023
0.677934
0.678837
0.68008
0.681701
0.683387
0.684909
0.686179
0.687283
0.688323
0.689309
0.690062
0.690426
0.690418
0.690038
0.689227
0.688033
0.686668
0.6854
0.684578
0.684054
0.673045
0.6737
0.674658
0.675969
0.677407
0.678913
0.680382
0.681725
0.68296
0.68413
0.685044
0.685511
0.685508
0.685058
0.684268
0.68332
0.682324
0.681417
0.680837
0.680453
0.668239
0.668744
0.669525
0.670659
0.671949
0.673353
0.674845
0.676363
0.677844
0.679259
0.680373
0.680951
0.681007
0.68067
0.680097
0.679402
0.67866
0.677995
0.677568
0.677268
0.663462
0.663864
0.664519
0.665532
0.666752
0.668102
0.669588
0.671202
0.672898
0.674598
0.675967
0.676737
0.676987
0.676881
0.676549
0.676076
0.675541
0.67507
0.674755
0.674512
0.658634
0.658961
0.65953
0.660465
0.661638
0.662978
0.664501
0.666218
0.668112
0.670113
0.671816
0.672895
0.673434
0.673596
0.673504
0.67326
0.672923
0.672616
0.672385
0.672181
0.653666
0.653938
0.654447
0.655336
0.656495
0.657864
0.659466
0.661329
0.66346
0.665813
0.667935
0.669412
0.6703
0.670765
0.670936
0.670925
0.670788
0.670623
0.67046
0.670284
0.648469
0.648698
0.649169
0.650043
0.651228
0.652669
0.654393
0.656458
0.658896
0.661685
0.66432
0.666272
0.667569
0.668381
0.668847
0.669076
0.669143
0.669112
0.669005
0.668848
0.64295
0.643146
0.643598
0.644487
0.645737
0.647294
0.649197
0.651533
0.654363
0.657697
0.660952
0.663472
0.665245
0.666455
0.667253
0.667746
0.66803
0.668125
0.668065
0.667921
0.637005
0.637173
0.637624
0.638557
0.639913
0.641638
0.643787
0.646476
0.649801
0.653804
0.657813
0.661011
0.663347
0.665018
0.666195
0.667003
0.667505
0.667722
0.667702
0.667566
0.630511
0.630657
0.631123
0.632128
0.633636
0.63559
0.638064
0.641203
0.645147
0.649971
0.654891
0.6589
0.661904
0.664117
0.665728
0.666881
0.667633
0.667976
0.667994
0.667861
0.623328
0.623451
0.623946
0.625054
0.626764
0.629018
0.631907
0.635616
0.640325
0.646154
0.652174
0.65715
0.660945
0.663797
0.665922
0.667472
0.668504
0.668979
0.669031
0.668898
0.615263
0.615374
0.615912
0.617155
0.619128
0.621766
0.62518
0.6296
0.635257
0.642309
0.649652
0.655783
0.660511
0.664114
0.666852
0.66887
0.670215
0.670828
0.670911
0.670774
0.606085
0.606189
0.60678
0.608199
0.610515
0.61364
0.617715
0.623025
0.629851
0.638394
0.647324
0.654826
0.660654
0.665142
0.668605
0.671168
0.672866
0.673627
0.673737
0.673593
0.595474
0.595563
0.596244
0.5979
0.600653
0.604398
0.609312
0.615738
0.624012
0.634371
0.645199
0.654313
0.661436
0.666964
0.671257
0.674464
0.67656
0.677471
0.677606
0.67745
0.583052
0.583127
0.583911
0.58588
0.589193
0.593739
0.599727
0.607566
0.617645
0.630215
0.6433
0.654294
0.662911
0.669648
0.674911
0.678856
0.681383
0.682443
0.682594
0.682423
0.568252
0.568321
0.569251
0.571633
0.575684
0.58128
0.588664
0.598312
0.610647
0.625905
0.641654
0.654821
0.665143
0.673263
0.67964
0.684407
0.687389
0.688586
0.688742
0.688553
0.550285
0.550346
0.551491
0.554461
0.559522
0.566537
0.575778
0.587776
0.602951
0.621462
0.640318
0.655956
0.668199
0.677871
0.685474
0.691149
0.694583
0.695886
0.696032
0.695824
0.527979
0.528045
0.529535
0.533384
0.539898
0.548908
0.560693
0.575797
0.59455
0.616965
0.639383
0.657767
0.672125
0.683501
0.692435
0.699054
0.702891
0.704248
0.704363
0.704134
0.49953
0.499626
0.501718
0.506987
0.515754
0.527705
0.543086
0.562333
0.585571
0.612589
0.638996
0.660355
0.676964
0.690141
0.700488
0.70801
0.712136
0.713467
0.713529
0.713283
0.461854
0.462078
0.465395
0.473288
0.485851
0.502334
0.522855
0.547554
0.576277
0.608582
0.639333
0.663823
0.682755
0.697762
0.709528
0.717804
0.722027
0.723227
0.723216
0.722958
0.409047
0.410152
0.416749
0.430069
0.44927
0.472764
0.500397
0.53197
0.567121
0.605272
0.640605
0.668277
0.689516
0.706284
0.719333
0.728107
0.732151
0.733118
0.733026
0.732764
0.332579
0.340077
0.355214
0.378498
0.407609
0.440484
0.476766
0.516201
0.558446
0.602928
0.643155
0.674208
0.697929
0.716577
0.73074
0.739712
0.743412
0.74413
0.743982
0.743753
0.251284
0.267655
0.292233
0.326228
0.365772
0.40819
0.453161
0.500613
0.550298
0.601708
0.647625
0.682737
0.709404
0.730137
0.745383
0.754095
0.757126
0.757565
0.757441
0.757293
0.181627
0.201635
0.234095
0.277318
0.326149
0.37755
0.43098
0.486315
0.543279
0.601343
0.652578
0.691399
0.720631
0.743065
0.758776
0.766881
0.769337
0.769679
0.769616
0.769512
0.124622
0.146868
0.184749
0.234586
0.290691
0.34963
0.41055
0.473133
0.536931
0.601309
0.657566
0.699835
0.731371
0.755146
0.771249
0.779112
0.781367
0.781688
0.781669
0.781593
0.0774064
0.10098
0.142786
0.197792
0.259721
0.324874
0.392189
0.461202
0.531272
0.601587
0.662635
0.708197
0.741966
0.767158
0.783839
0.791648
0.793825
0.794151
0.794164
0.794111
0.0373478
0.0617104
0.106411
0.165622
0.23246
0.302927
0.375801
0.450532
0.526314
0.602166
0.667833
0.716638
0.752636
0.779283
0.796632
0.804707
0.80695
0.807263
0.807293
0.807255
0.00239967
0.0272853
0.07425
0.136949
0.207996
0.283106
0.360924
0.440824
0.521892
0.602998
0.673096
0.725088
0.763282
0.791408
0.80961
0.818109
0.820465
0.820785
0.820813
0.820791
-0.0289462
-0.00363517
0.0451942
0.110868
0.185565
0.264763
0.34704
0.431714
0.517763
0.603876
0.678249
0.733342
0.773735
0.803349
0.822448
0.831353
0.833905
0.834239
0.83426
0.834245
-0.0577185
-0.0320165
0.0184048
0.0866675
0.164579
0.247418
0.333747
0.422827
0.51356
0.604495
0.683071
0.741192
0.783715
0.814773
0.834706
0.844061
0.846806
0.84719
0.847192
0.84718
-0.0847314
-0.0586088
-0.00676098
0.0638353
0.144596
0.230692
0.320691
0.413849
0.50902
0.60467
0.687384
0.74851
0.793093
0.825525
0.846226
0.855993
0.858902
0.859311
0.859282
0.859262
-0.110386
-0.083857
-0.030693
0.0419774
0.125279
0.2143
0.307641
0.404591
0.503987
0.604207
0.691063
0.755185
0.801796
0.8355
0.856877
0.866908
0.86993
0.870341
0.870282
0.870247
-0.135132
-0.108115
-0.0537348
0.0208137
0.106394
0.198052
0.294453
0.394907
0.498289
0.602968
0.694013
0.761201
0.809814
0.844688
0.866569
0.876747
0.879796
0.880188
0.880094
0.880041
-0.15911
-0.1316
-0.0760702
0.000174032
0.0877966
0.181833
0.281013
0.384694
0.49183
0.600883
0.696169
0.766542
0.817197
0.853131
0.875336
0.885524
0.888517
0.888879
0.888755
0.888687
-0.182458
-0.154419
-0.0978248
-0.0200402
0.0694111
0.165577
0.267265
0.373909
0.484569
0.597854
0.697462
0.771221
0.824043
0.860999
0.883352
0.893349
0.896215
0.896518
0.896372
0.896289
-0.205276
-0.176699
-0.119056
-0.0398748
0.0511938
0.149267
0.253215
0.362552
0.476472
0.59382
0.697822
0.775238
0.830468
0.868456
0.890772
0.900383
0.902997
0.903209
0.90304
0.902946
-0.227631
-0.198438
-0.139781
-0.0593384
0.0331647
0.13292
0.238885
0.350638
0.467542
0.588742
0.697174
0.778555
0.836576
0.875742
0.897838
0.906779
0.908969
0.909047
0.908856
0.908757
-0.249386
-0.219608
-0.159984
-0.0784228
0.0153478
0.116587
0.224318
0.338225
0.457821
0.582614
0.695436
0.781098
0.842409
0.883116
0.904908
0.9128
0.914262
0.914117
0.913918
0.913828
-0.270522
-0.240184
-0.179664
-0.0970946
-0.00221202
0.100316
0.209595
0.325378
0.447371
0.575439
0.692539
0.782748
0.847922
0.890786
0.912511
0.919019
0.919202
0.918546
0.918345
0.91832
-0.291094
-0.260138
-0.198798
-0.115329
-0.0194609
0.084184
0.194797
0.312188
0.436267
0.567258
0.688408
0.783361
0.852949
0.898773
0.921193
0.92645
0.924684
0.922735
0.922301
0.922592
-0.310956
-0.279447
-0.217335
-0.133066
-0.0363468
0.0682711
0.180015
0.298755
0.424612
0.558151
0.682992
0.782763
0.857233
0.90678
0.931117
0.936311
0.932768
0.92833
0.925879
0.924932
-0.330201
-0.298117
-0.235282
-0.150338
-0.0529058
0.0525369
0.165196
0.285023
0.41234
0.548054
0.676132
0.7807
0.860528
0.914337
0.941804
0.949059
0.945718
0.938391
0.929004
0.929648
-0.348746
-0.316217
-0.252777
-0.167343
-0.06943
0.0366548
0.149932
0.270517
0.398914
0.536354
0.667196
0.776436
0.862437
0.92092
0.951863
0.962853
0.960377
0.948717
0.92994
0.928508
-0.366459
-0.333709
-0.269655
-0.183893
-0.0856566
0.0209243
0.134423
0.255549
0.384615
0.523272
0.656191
0.769235
0.862051
0.925306
0.957238
0.968781
0.967807
0.941702
0.884137
0.859375
-0.383223
-0.351484
-0.28552
-0.199552
-0.100808
0.0058253
0.118951
0.240396
0.369724
0.508974
0.64317
0.758466
0.858233
0.926456
0.953011
0.959398
0.944359
0.891966
0.829856
0.792066
-0.42593
-0.36883
-0.30009
-0.215222
-0.115629
-0.00960604
0.103658
0.224934
0.354033
0.4931
0.627709
0.743449
0.847011
0.920817
0.936507
0.921402
0.871818
0.805467
0.736128
0.698019
-0.401071
-0.382876
-0.322285
-0.236699
-0.138571
-0.0327935
0.0797787
0.2004
0.328599
0.466321
0.599684
0.713702
0.809146
0.890436
0.87223
0.761229
0.669036
0.605029
0.540383
0.566579
-0.431784
-0.40035
-0.338918
-0.253826
-0.156069
-0.0504471
0.0622926
0.182249
0.309423
0.445394
0.576216
0.68683
0.771285
0.817169
0.763596
0.621983
0.511453
0.436972
0.3543
0.398935
-0.455601
-0.421758
-0.358597
-0.273452
-0.175752
-0.0701497
0.0424587
0.16161
0.287411
0.420982
0.547983
0.652604
0.725541
0.733197
0.624577
0.467645
0.337283
0.243902
0.147887
0.17867
-0.478781
-0.443884
-0.379349
-0.293545
-0.195774
-0.0903004
0.0217779
0.139948
0.264131
0.394864
0.516966
0.613249
0.6693
0.643652
0.483588
0.305109
0.144163
0.00953051
-0.115266
-0.102977
-0.501693
-0.466403
-0.400954
-0.314555
-0.216655
-0.11141
-8.64424e-06
0.117019
0.239278
0.36672
0.483032
0.571022
0.606091
0.53459
0.344821
0.146467
-0.0414745
-0.196069
-0.401849
-0.480833
-0.525024
-0.489777
-0.423786
-0.336963
-0.238911
-0.133858
-0.0230747
0.0927628
0.212949
0.336796
0.446822
0.525392
0.53445
0.411493
0.218234
0.00796234
-0.185
-0.347403
-0.471585
-0.589689
-0.549847
-0.514496
-0.448204
-0.361155
-0.263084
-0.158325
-0.0482674
0.0661886
0.183934
0.303592
0.406866
0.472521
0.453961
0.294654
0.0997992
-0.104502
-0.280761
-0.378595
-0.404876
-0.418339
-0.576291
-0.540849
-0.474339
-0.387223
-0.289321
-0.18504
-0.075965
0.0367796
0.151607
0.266304
0.362355
0.410206
0.372215
0.182348
-0.0105661
-0.194741
-0.327934
-0.366038
-0.374946
-0.37527
-0.604632
-0.568962
-0.502231
-0.415155
-0.317574
-0.214012
-0.106196
0.00447282
0.115894
0.224894
0.312665
0.344156
0.274457
0.0797941
-0.106935
-0.267227
-0.342177
-0.356175
-0.357162
-0.357014
-0.634883
-0.598868
-0.531898
-0.44495
-0.347862
-0.245236
-0.138975
-0.030757
0.0768001
0.179463
0.257633
0.274422
0.166334
-0.0130061
-0.189547
-0.317172
-0.346454
-0.346791
-0.347152
-0.346669
-0.666784
-0.630396
-0.56324
-0.476529
-0.3801
-0.278664
-0.174282
-0.0688943
0.0343713
0.130138
0.198538
0.196236
0.0705438
-0.0981963
-0.254242
-0.327515
-0.342707
-0.340921
-0.340685
-0.340253
-0.699774
-0.663197
-0.59599
-0.509656
-0.4141
-0.314136
-0.211967
-0.109821
-0.01118
0.0773305
0.135807
0.117287
-0.0178433
-0.172629
-0.295837
-0.334244
-0.334587
-0.335768
-0.335924
-0.335688
-0.733405
-0.696734
-0.629654
-0.543907
-0.449499
-0.351324
-0.251742
-0.153259
-0.0595687
0.0219422
0.0680428
0.0427008
-0.098483
-0.231407
-0.319279
-0.328755
-0.331446
-0.332467
-0.332509
-0.332456
-0.766712
-0.73011
-0.663484
-0.578631
-0.485733
-0.389737
-0.293135
-0.198719
-0.110381
-0.035201
0.000260872
-0.032167
-0.168349
-0.277255
-0.326143
-0.337131
-0.33247
-0.33043
-0.329791
-0.329697
-0.797818
-0.76202
-0.696427
-0.612917
-0.522001
-0.428652
-0.335465
-0.24546
-0.162853
-0.0936996
-0.062669
-0.110222
-0.22702
-0.318949
-0.341237
-0.339689
-0.333853
-0.329143
-0.327793
-0.327355
-0.825653
-0.790928
-0.727055
-0.64554
-0.557219
-0.467102
-0.377846
-0.292548
-0.215767
-0.152999
-0.12421
-0.177823
-0.273067
-0.345223
-0.368251
-0.354358
-0.341957
-0.336478
-0.334202
-0.333036
-0.847454
-0.814695
-0.753574
-0.67494
-0.590037
-0.503868
-0.419156
-0.338915
-0.267841
-0.211278
-0.185671
-0.230495
-0.303256
-0.352967
-0.355809
-0.361163
-0.364978
-0.362396
-0.358753
-0.357153
-0.861091
-0.831132
-0.77386
-0.699324
-0.618889
-0.537531
-0.458028
-0.383339
-0.317928
-0.265897
-0.241593
-0.274655
-0.319738
-0.356778
-0.35465
-0.364129
-0.369878
-0.369666
-0.368573
-0.368783
-0.863804
-0.837787
-0.78575
-0.71679
-0.64208
-0.566606
-0.492954
-0.424352
-0.364721
-0.31641
-0.28757
-0.314902
-0.326356
-0.351182
-0.352564
-0.355985
-0.358389
-0.359794
-0.361014
-0.361437
-0.8533
-0.832133
-0.787073
-0.72554
-0.658065
-0.589665
-0.522591
-0.460251
-0.40659
-0.364019
-0.321757
-0.348207
-0.337092
-0.328575
-0.344943
-0.355925
-0.361265
-0.363027
-0.363405
-0.363441
-0.826923
-0.811365
-0.775832
-0.724272
-0.665782
-0.605564
-0.546009
-0.489642
-0.441936
-0.406705
-0.362435
-0.375661
-0.383702
-0.385313
-0.393716
-0.383275
-0.372069
-0.370816
-0.371797
-0.372189
-0.788097
-0.778154
-0.75307
-0.713162
-0.665151
-0.614035
-0.562407
-0.512276
-0.469299
-0.440316
-0.414735
-0.410359
-0.428337
-0.470141
-0.467775
-0.423638
-0.397474
-0.387171
-0.384377
-0.383411
-0.743903
-0.738267
-0.723741
-0.695279
-0.658133
-0.616041
-0.571585
-0.527879
-0.488041
-0.461141
-0.437078
-0.42761
-0.413606
-0.416511
-0.352744
-0.338245
-0.368116
-0.379473
-0.378301
-0.376101
-0.704487
-0.701097
-0.694199
-0.675998
-0.647867
-0.613141
-0.575109
-0.535319
-0.497571
-0.466462
-0.443546
-0.418235
-0.351629
-0.302971
-0.310323
-0.353185
-0.372787
-0.361219
-0.351092
-0.353915
-0.675925
-0.673924
-0.670355
-0.659537
-0.638116
-0.608715
-0.574421
-0.536593
-0.497641
-0.461542
-0.44038
-0.413677
-0.39358
-0.388573
-0.417313
-0.523862
-0.582668
-0.573203
-0.530427
-0.523811
-0.654813
-0.654061
-0.652816
-0.647469
-0.631651
-0.605574
-0.572218
-0.533996
-0.49113
-0.452317
-0.423067
-0.397801
-0.38417
-0.444779
-0.527348
-0.575131
-0.678717
-0.731835
-0.719128
-0.702316
-0.642792
-0.642559
-0.641988
-0.639472
-0.628334
-0.603814
-0.569629
-0.528058
-0.481524
-0.429697
-0.385735
-0.348665
-0.360476
-0.456733
-0.659274
-0.81968
-0.842488
-0.733812
-0.614905
-0.555519
-0.634308
-0.634237
-0.633993
-0.633332
-0.626193
-0.603584
-0.567391
-0.52236
-0.46869
-0.398594
-0.333203
-0.232677
-0.155159
-0.12332
-0.0865249
-0.0531638
0.0718
0.280387
0.429534
0.492752
-0.628208
-0.628084
-0.627696
-0.627372
-0.623275
-0.604688
-0.567279
-0.516869
-0.451657
-0.374906
-0.276335
-0.151845
0.0526252
0.324236
0.6633
0.996165
1.29823
1.50997
1.61569
1.64782
-0.624546
-0.624524
-0.624397
-0.623955
-0.622837
-0.608716
-0.569675
-0.511193
-0.442896
-0.355181
-0.243873
-0.12387
0.10783
0.460319
0.912984
1.32948
1.65962
1.86099
1.93768
1.95477
-0.621013
-0.622099
-0.624843
-0.628852
-0.630767
-0.617375
-0.572426
-0.511509
-0.44205
-0.346051
-0.234224
-0.113877
0.0736877
0.417593
0.810074
1.1626
1.43197
1.57914
1.63385
1.64547
-0.615737
-0.617613
-0.621712
-0.628845
-0.63401
-0.616531
-0.570424
-0.520204
-0.450216
-0.351993
-0.242825
-0.137161
0.00341902
0.283322
0.586209
0.846748
1.03993
1.1402
1.17714
1.18467
-0.631176
-0.632187
-0.628074
-0.60865
-0.585427
-0.574549
-0.564149
-0.537317
-0.468634
-0.367267
-0.263366
-0.170122
-0.0686733
0.135992
0.358543
0.540861
0.669862
0.735143
0.759514
0.762947
-0.673304
-0.67181
-0.65838
-0.615403
-0.561773
-0.553765
-0.58815
-0.568857
-0.490772
-0.384469
-0.28852
-0.21106
-0.125987
0.0166779
0.162577
0.282064
0.364243
0.40257
0.414802
0.416774
-0.738631
-0.736955
-0.744457
-0.750115
-0.745119
-0.725811
-0.716602
-0.635331
-0.518853
-0.404406
-0.317848
-0.245963
-0.18804
-0.0800343
0.015322
0.074461
0.108796
0.125637
0.131173
0.132756
-0.87377
-0.888803
-0.936425
-0.991711
-1.01025
-0.977394
-0.885883
-0.722804
-0.549909
-0.428275
-0.335379
-0.276409
-0.225818
-0.158336
-0.0967402
-0.0687483
-0.0689621
-0.0692662
-0.0614784
-0.0565088
-0.997517
-1.02116
-1.06826
-1.1097
-1.1241
-1.09016
-0.970105
-0.750356
-0.565529
-0.43968
-0.34191
-0.299054
-0.267112
-0.200362
-0.150845
-0.128493
-0.123811
-0.115709
-0.108906
-0.106693
-0.982366
-1.00018
-1.03301
-1.06377
-1.075
-1.03984
-0.900856
-0.690593
-0.540046
-0.410757
-0.337308
-0.297303
-0.280504
-0.218273
-0.162062
-0.124787
-0.103411
-0.0892411
-0.0831144
-0.0819866
-0.785184
-0.804223
-0.838232
-0.875162
-0.893595
-0.856283
-0.72472
-0.581053
-0.452389
-0.357009
-0.303699
-0.271013
-0.251205
-0.194012
-0.138531
-0.104068
-0.0704241
-0.0523872
-0.0467098
-0.0477526
-0.451067
-0.467663
-0.499852
-0.539462
-0.567158
-0.552437
-0.490893
-0.414674
-0.338255
-0.286885
-0.245328
-0.216154
-0.193861
-0.150586
-0.109072
-0.0805583
-0.0541461
-0.0398409
-0.035942
-0.0366418
-0.110731
-0.120428
-0.14239
-0.1771
-0.212029
-0.233327
-0.243127
-0.239472
-0.228276
-0.20607
-0.178738
-0.153896
-0.132317
-0.109106
-0.0852636
-0.065517
-0.0473691
-0.0376784
-0.0351221
-0.0364843
0.110063
0.105214
0.0909406
0.0624164
0.0178492
-0.0336619
-0.0779114
-0.112759
-0.130151
-0.130609
-0.119797
-0.0972068
-0.0815853
-0.0738993
-0.0657908
-0.0564557
-0.0463613
-0.0405426
-0.0394407
-0.0410893
0.197412
0.194501
0.184197
0.160553
0.121227
0.0696706
0.0152244
-0.0304643
-0.0606693
-0.0749751
-0.0719975
-0.052766
-0.0455287
-0.0521123
-0.0565219
-0.0562392
-0.0561187
-0.0566473
-0.0579579
-0.0593048
0.205676
0.203777
0.19647
0.179045
0.14845
0.107314
0.062039
0.0180229
-0.0162288
-0.0358589
-0.0386908
-0.0289484
-0.0282629
-0.0435681
-0.0568985
-0.0663228
-0.0743883
-0.0815037
-0.0845164
-0.0851796
0.181083
0.179925
0.175017
0.163011
0.141466
0.110844
0.0747698
0.0390448
0.00815238
-0.0118834
-0.0201294
-0.0181233
-0.0261609
-0.0429461
-0.061015
-0.0761251
-0.0891826
-0.0990645
-0.102157
-0.102345
0.146801
0.146171
0.143024
0.135083
0.120496
0.0991767
0.0725521
0.0438827
0.0171281
-0.00263864
-0.0134313
-0.0148747
-0.0250401
-0.0434726
-0.0626414
-0.0785003
-0.0925164
-0.100557
-0.102515
-0.102614
0.112012
0.111715
0.109801
0.104707
0.0950326
0.0803451
0.0611475
0.0398128
0.017607
-0.00234583
-0.0178448
-0.0251802
-0.0343928
-0.051569
-0.0661316
-0.0785871
-0.0879853
-0.0922351
-0.0929799
-0.0931025
0.0803571
0.0802015
0.0790802
0.0759321
0.0696924
0.0599004
0.0464554
0.030563
0.0123518
-0.00796003
-0.0318976
-0.053621
-0.0659155
-0.0695283
-0.0706779
-0.0744477
-0.0777587
-0.0790239
-0.0787499
-0.0788386
0.052161
0.0521472
0.0515872
0.049853
0.0461278
0.0399923
0.0312186
0.020149
0.00572225
-0.0135112
-0.0452038
-0.0869263
-0.101761
-0.083948
-0.0718022
-0.0661877
-0.0647728
-0.0634979
-0.0625966
-0.0626697
0.0272398
0.0273058
0.0271056
0.0263655
0.0245934
0.021498
0.0168323
0.0107454
0.00246563
-0.0126273
-0.0406921
-0.0870859
-0.0988878
-0.070948
-0.0543411
-0.0490035
-0.0468416
-0.0452381
-0.0441627
-0.0438881
0.00487765
0.00494206
0.0049197
0.00509898
0.00521139
0.00495953
0.00426108
0.00322755
0.00171287
-0.000493824
-0.00552768
-0.0179452
-0.0282442
-0.0234265
-0.0203215
-0.0187714
-0.0150417
-0.0130413
-0.0121634
-0.011425
0.0290445
0.21813
0.391771
0.538718
0.656537
0.74971
0.827319
0.890412
0.90651
0.902946
0.319987
0.441309
0.554936
0.653626
0.73671
0.805398
0.859576
0.896246
0.915901
0.932544
0.516634
0.597545
0.677287
0.747546
0.807514
0.85729
0.896507
0.926408
0.94889
0.968162
0.662061
0.719091
0.776878
0.828947
0.874024
0.912267
0.944334
0.971229
0.991519
1.01043
0.777316
0.820832
0.864791
0.905107
0.941049
0.972832
1.0006
1.02412
1.04208
1.06013
0.876723
0.912062
0.946832
0.980613
1.01163
1.03974
1.06457
1.08541
1.10118
1.11866
0.964398
0.996528
1.02865
1.05974
1.08871
1.11504
1.13813
1.15704
1.17095
1.18797
1.05131
1.08387
1.11628
1.14744
1.17619
1.20196
1.22407
1.24158
1.25395
1.27048
1.14566
1.18208
1.21684
1.24928
1.27844
1.30377
1.32487
1.34115
1.35276
1.3689
1.25873
1.29939
1.33639
1.36929
1.39776
1.42173
1.44134
1.45661
1.4685
1.48458
1.40018
1.4412
1.47644
1.506
1.53118
1.55279
1.57129
1.58677
1.59988
1.61583
1.57167
1.60393
1.63085
1.65318
1.67327
1.69199
1.70972
1.72649
1.74141
1.75713
1.75793
1.77518
1.79229
1.80898
1.82507
1.83981
1.85371
1.86819
1.88343
1.90073
1.94132
1.95128
1.96447
1.97545
1.98486
1.99452
2.00513
2.0153
2.0246
2.05026
2.15919
2.15349
2.14055
2.12629
2.11999
2.1257
2.14385
2.17237
2.20613
2.24246
2.46201
2.32606
2.24655
2.20403
2.1867
2.19068
2.21811
2.27598
2.38365
2.56205
0.78792
0.781618
0.773887
0.762773
0.749201
0.736552
0.726155
0.718144
0.712429
0.709102
0.70876
0.711604
0.716847
0.724212
0.733767
0.745601
0.759166
0.772097
0.781088
0.78863
0.696987
0.702907
0.710979
0.717111
0.72018
0.719668
0.716582
0.712588
0.709002
0.706724
0.706601
0.708867
0.712633
0.717088
0.721197
0.723447
0.722377
0.717743
0.710691
0.702858
0.690234
0.692607
0.695874
0.698647
0.701098
0.703287
0.704468
0.704322
0.703389
0.70259
0.702819
0.704249
0.706045
0.707285
0.707218
0.705758
0.703604
0.701246
0.698267
0.69525
0.685441
0.686529
0.688447
0.690785
0.692657
0.694057
0.695276
0.696271
0.696876
0.697265
0.697837
0.6986
0.699084
0.698979
0.698361
0.697447
0.696122
0.694157
0.692053
0.690576
0.680412
0.681046
0.682175
0.683933
0.685778
0.687373
0.688626
0.689693
0.690682
0.691593
0.692401
0.692946
0.693105
0.692915
0.692391
0.691427
0.690008
0.688403
0.687069
0.686268
0.67548
0.675919
0.676709
0.678014
0.679537
0.681103
0.682584
0.683884
0.685047
0.686149
0.687129
0.687761
0.687966
0.687752
0.687104
0.686118
0.684974
0.683837
0.682938
0.682405
0.670637
0.670964
0.671577
0.672648
0.673946
0.675349
0.676831
0.678311
0.679712
0.681033
0.682212
0.682995
0.683254
0.683035
0.682459
0.681691
0.680858
0.680012
0.679356
0.678965
0.665855
0.666109
0.666603
0.667517
0.668693
0.670005
0.671432
0.672966
0.674557
0.676141
0.677575
0.67854
0.678922
0.678856
0.678499
0.677974
0.677356
0.67674
0.676264
0.675966
0.661064
0.661265
0.661677
0.662481
0.66358
0.664847
0.666262
0.667843
0.669579
0.671415
0.673152
0.674389
0.675017
0.675204
0.675094
0.674799
0.674393
0.673971
0.673636
0.673402
0.656177
0.656339
0.656693
0.657425
0.658479
0.659729
0.661176
0.662846
0.664745
0.666846
0.668943
0.670555
0.671522
0.672011
0.672167
0.67211
0.671922
0.671678
0.67146
0.671273
0.651106
0.651238
0.65155
0.652238
0.653277
0.654555
0.656075
0.657878
0.659996
0.662424
0.664959
0.667035
0.668409
0.669248
0.669703
0.669903
0.669932
0.669863
0.669744
0.669593
0.645761
0.645867
0.646152
0.646822
0.647881
0.649231
0.650868
0.652859
0.655265
0.658108
0.661183
0.663816
0.665669
0.666914
0.667709
0.668189
0.668451
0.668554
0.668522
0.668398
0.640042
0.640127
0.640396
0.641073
0.642188
0.643651
0.64546
0.647709
0.650486
0.653848
0.657584
0.660888
0.66331
0.665025
0.666206
0.667014
0.667532
0.667801
0.667848
0.667745
0.633839
0.633905
0.634168
0.634873
0.636082
0.637706
0.639752
0.642338
0.645588
0.649595
0.654137
0.658247
0.661346
0.663614
0.665242
0.666418
0.667219
0.667669
0.66779
0.667704
0.62702
0.627066
0.627332
0.628089
0.62943
0.631271
0.633628
0.636647
0.640489
0.64529
0.650813
0.655893
0.659797
0.662719
0.664872
0.666465
0.667593
0.668237
0.668433
0.668359
0.61943
0.619453
0.619721
0.620555
0.622073
0.624196
0.626952
0.630519
0.635101
0.640879
0.647589
0.653831
0.658688
0.662381
0.665157
0.667247
0.668744
0.669601
0.66987
0.669806
0.610833
0.61085
0.611134
0.612068
0.613816
0.616299
0.619561
0.623814
0.629313
0.636289
0.644437
0.652068
0.658057
0.662658
0.666167
0.668854
0.670774
0.671862
0.672204
0.672145
0.600957
0.600949
0.60128
0.602361
0.604409
0.607353
0.611254
0.616371
0.623013
0.631459
0.641342
0.650624
0.657949
0.663619
0.667991
0.671369
0.673778
0.67512
0.675536
0.675478
0.589486
0.589456
0.589838
0.59111
0.59353
0.597064
0.601784
0.607994
0.616067
0.626323
0.638299
0.649529
0.658411
0.665332
0.670713
0.67489
0.67786
0.67947
0.679954
0.679893
0.575926
0.575873
0.576334
0.577858
0.580764
0.585067
0.590847
0.59846
0.608336
0.620823
0.635311
0.648827
0.659504
0.667857
0.674414
0.679507
0.683094
0.68498
0.685522
0.685452
0.559608
0.559533
0.56012
0.561996
0.565552
0.57088
0.578061
0.587501
0.599674
0.614917
0.632401
0.648563
0.661284
0.671263
0.679146
0.685268
0.689522
0.691674
0.692254
0.692167
0.539569
0.539477
0.540268
0.542656
0.547128
0.553882
0.562974
0.574847
0.589973
0.608613
0.629632
0.64881
0.66382
0.675604
0.684937
0.692191
0.697131
0.699506
0.700096
0.699984
0.514361
0.514269
0.515399
0.518581
0.524434
0.53327
0.545076
0.560266
0.579217
0.602016
0.627135
0.649671
0.667166
0.680906
0.691806
0.700249
0.70582
0.708337
0.708892
0.70875
0.48162
0.481576
0.483316
0.48787
0.496035
0.508124
0.523926
0.543685
0.567544
0.595337
0.625103
0.651278
0.6714
0.687181
0.699704
0.709322
0.715381
0.717908
0.718378
0.718201
0.437132
0.437293
0.440361
0.447766
0.460254
0.477692
0.499425
0.525355
0.555316
0.588913
0.623781
0.653779
0.676592
0.694412
0.70854
0.719202
0.725483
0.727831
0.728168
0.727959
0.373027
0.374376
0.381823
0.395793
0.416204
0.442146
0.472239
0.506003
0.543138
0.583176
0.623438
0.657315
0.68277
0.702546
0.718057
0.729453
0.735614
0.737561
0.737733
0.737515
0.296537
0.299192
0.313656
0.337708
0.368953
0.404972
0.444128
0.486179
0.530944
0.578017
0.62445
0.663001
0.691772
0.713983
0.731073
0.742933
0.748765
0.750409
0.750526
0.750399
0.21828
0.225288
0.247
0.28114
0.322905
0.36877
0.416991
0.467391
0.519858
0.574026
0.626683
0.669943
0.701952
0.726503
0.74514
0.757089
0.762132
0.763269
0.763327
0.763265
0.15446
0.163356
0.189724
0.231006
0.281058
0.335282
0.391681
0.449919
0.509747
0.570704
0.629256
0.676884
0.711846
0.738374
0.757877
0.769655
0.774243
0.77525
0.775359
0.775353
0.102204
0.111819
0.141732
0.188328
0.24462
0.305537
0.368829
0.43397
0.500513
0.567834
0.631982
0.683744
0.721455
0.749778
0.770194
0.782121
0.786522
0.787447
0.787606
0.787643
0.0585027
0.0684257
0.100757
0.151503
0.212911
0.279391
0.348518
0.419678
0.492267
0.565465
0.63491
0.690675
0.731074
0.761253
0.782721
0.794859
0.799184
0.800237
0.80043
0.800503
0.0208777
0.0309321
0.0650706
0.119138
0.184831
0.256094
0.330326
0.406826
0.484881
0.563525
0.638011
0.697686
0.740751
0.772765
0.79532
0.807971
0.812569
0.813665
0.813858
0.813942
-0.01236
-0.00226188
0.0332952
0.0901152
0.15946
0.234876
0.313635
0.394965
0.478087
0.561882
0.641194
0.704634
0.750331
0.784176
0.807929
0.821236
0.826125
0.827289
0.827464
0.827537
-0.042477
-0.0323498
0.0043588
0.0635436
0.136054
0.21512
0.297932
0.383696
0.471543
0.560227
0.644195
0.711313
0.759592
0.795248
0.820169
0.834127
0.839342
0.840569
0.840724
0.840778
-0.0704381
-0.0602631
-0.0225368
0.0387483
0.114065
0.196367
0.282826
0.372645
0.464892
0.558261
0.646798
0.717548
0.768327
0.805731
0.831767
0.846331
0.85189
0.853183
0.853301
0.853329
-0.0968116
-0.0865773
-0.0479098
0.0152668
0.0930646
0.178255
0.268001
0.361535
0.457923
0.5558
0.648842
0.723195
0.776456
0.815515
0.842576
0.857653
0.863473
0.864807
0.86489
0.864885
-0.122062
-0.111711
-0.0721598
-0.00726772
0.0727442
0.160522
0.253252
0.350207
0.45048
0.552669
0.650163
0.728178
0.783916
0.82458
0.852548
0.867993
0.873921
0.875272
0.875325
0.875287
-0.146502
-0.135954
-0.0955638
-0.0290951
0.0529055
0.143004
0.238443
0.338536
0.442411
0.548756
0.650686
0.732451
0.790725
0.832924
0.861618
0.877289
0.883229
0.884541
0.884567
0.884502
-0.170241
-0.159467
-0.118271
-0.050364
0.0334241
0.125609
0.223486
0.326437
0.433665
0.543975
0.650326
0.735974
0.796919
0.84066
0.869951
0.885655
0.891472
0.892711
0.892701
0.892615
-0.193423
-0.18238
-0.140406
-0.0711469
0.0142363
0.10828
0.208346
0.313893
0.424216
0.538273
0.648993
0.738717
0.802563
0.847934
0.877697
0.89322
0.898791
0.899899
0.899841
0.899736
-0.216027
-0.204753
-0.161999
-0.0914789
-0.00467541
0.0910177
0.193043
0.300921
0.414058
0.531615
0.646629
0.740618
0.807703
0.854912
0.885071
0.900177
0.905309
0.906211
0.906094
0.905971
-0.238149
-0.226574
-0.183029
-0.111356
-0.0233007
0.0738464
0.177603
0.287559
0.403225
0.524007
0.643174
0.741599
0.812335
0.861773
0.892367
0.906761
0.911143
0.911712
0.91153
0.911404
-0.259595
-0.247814
-0.203489
-0.130773
-0.0416016
0.0568267
0.16208
0.273864
0.39178
0.515486
0.638583
0.741565
0.816397
0.86863
0.899957
0.913434
0.916608
0.916546
0.916249
0.916152
-0.280519
-0.26843
-0.223362
-0.149714
-0.059556
0.0399898
0.146561
0.259912
0.379794
0.506114
0.632836
0.740404
0.819751
0.87546
0.90819
0.920924
0.922403
0.921053
0.920389
0.920397
-0.300742
-0.288386
-0.242631
-0.168133
-0.0770913
0.0234155
0.131124
0.245814
0.367365
0.495945
0.625945
0.737995
0.822209
0.882057
0.917156
0.930059
0.929953
0.926447
0.924448
0.924347
-0.320371
-0.307709
-0.261244
-0.185977
-0.0941746
0.00716819
0.115852
0.231649
0.354595
0.485105
0.617954
0.734203
0.823544
0.888032
0.926411
0.941088
0.940964
0.935533
0.929717
0.921393
-0.339292
-0.326395
-0.279291
-0.203411
-0.111028
-0.00902978
0.100416
0.21702
0.341049
0.473113
0.608381
0.728499
0.82342
0.893209
0.935461
0.953569
0.955863
0.949446
0.938215
0.937206
-0.357465
-0.344521
-0.296769
-0.220381
-0.127637
-0.0251421
0.0848427
0.201905
0.32669
0.459836
0.59703
0.720359
0.821041
0.896795
0.942422
0.963567
0.96788
0.96336
0.929115
0.890789
-0.374667
-0.361948
-0.313615
-0.236771
-0.143999
-0.041175