/*--------------------------------*- C++ -*----------------------------------*\
  =========                 |
  \\      /  F ield         | OpenFOAM: The Open Source CFD Toolbox
   \\    /   O peration     | Website:  https://openfoam.org
    \\  /    A nd           | Version:  6
     \\/     M anipulation  |
\*---------------------------------------------------------------------------*/
FoamFile
{
    version     2.0;
    format      ascii;
    class       volScalarField;
    location    "47.4";
    object      p;
}
// * * * * * * * * * * * * * * * * * * * * * * * * * * * * * * * * * * * * * //

dimensions      [0 2 -2 0 0 0 0];

internalField   nonuniform List<scalar> 
8800
(
0.856703
0.807385
0.769414
0.741335
0.721158
0.706548
0.695917
0.688333
0.683388
0.681238
0.682518
0.686785
0.693523
0.702905
0.715612
0.732912
0.756775
0.789864
0.832796
0.885308
0.691211
0.697553
0.706697
0.710236
0.707615
0.701508
0.694541
0.688259
0.683402
0.680459
0.680137
0.682678
0.687252
0.693329
0.700393
0.707403
0.712265
0.712129
0.705446
0.696541
0.664755
0.670986
0.675478
0.679336
0.682266
0.68319
0.682066
0.679894
0.677844
0.676914
0.677848
0.680217
0.68304
0.685264
0.685752
0.683939
0.680556
0.67653
0.671742
0.668025
0.660498
0.663261
0.665856
0.667999
0.669715
0.671254
0.672316
0.672613
0.672422
0.67242
0.673115
0.674165
0.674836
0.674633
0.673618
0.672235
0.670544
0.668226
0.665806
0.66424
0.655502
0.656924
0.658752
0.660814
0.662502
0.663761
0.664812
0.665728
0.666448
0.667068
0.667655
0.668011
0.667953
0.667526
0.666812
0.665662
0.663979
0.662065
0.660702
0.6599
0.650589
0.65149
0.652723
0.654328
0.655992
0.657484
0.658714
0.65976
0.660721
0.661602
0.662244
0.662513
0.662427
0.661984
0.661125
0.659894
0.658499
0.65721
0.656378
0.655855
0.645778
0.646432
0.647379
0.648672
0.650084
0.651555
0.652977
0.654254
0.655398
0.656447
0.657226
0.657573
0.657474
0.656946
0.656095
0.655099
0.654065
0.653131
0.65254
0.652157
0.641069
0.641573
0.642343
0.643456
0.644717
0.646081
0.647517
0.648958
0.650333
0.651605
0.652556
0.652985
0.652921
0.652486
0.651835
0.651079
0.650287
0.64959
0.649151
0.648853
0.636412
0.636813
0.637456
0.638446
0.639632
0.640937
0.64236
0.643887
0.645462
0.646994
0.648163
0.648749
0.648845
0.648613
0.648182
0.647631
0.647033
0.64652
0.646191
0.64595
0.63173
0.632056
0.632613
0.633522
0.634657
0.635945
0.637395
0.639009
0.64076
0.642558
0.644021
0.644874
0.645223
0.645228
0.64501
0.644665
0.644246
0.643887
0.643641
0.643441
0.626941
0.627212
0.627708
0.628568
0.629683
0.630992
0.632507
0.634246
0.636201
0.638305
0.640141
0.641349
0.642006
0.642277
0.64229
0.642149
0.641911
0.641684
0.641504
0.641333
0.621959
0.622187
0.622644
0.623487
0.624622
0.625992
0.627614
0.629529
0.631757
0.634253
0.636539
0.638163
0.63918
0.639755
0.640022
0.640093
0.640028
0.63992
0.639794
0.639644
0.616703
0.616897
0.617334
0.61819
0.619386
0.620863
0.622646
0.624808
0.627388
0.630367
0.633207
0.635332
0.636763
0.637679
0.638228
0.638513
0.638632
0.638637
0.638557
0.638422
0.61108
0.611247
0.611683
0.612579
0.613875
0.615512
0.617529
0.620024
0.623068
0.626663
0.630171
0.63288
0.634787
0.636086
0.636949
0.637495
0.637792
0.637899
0.637857
0.637732
0.604978
0.605122
0.60557
0.606537
0.60798
0.609834
0.612158
0.615076
0.61869
0.623033
0.62736
0.630785
0.633265
0.635017
0.636237
0.637059
0.637557
0.637772
0.637767
0.63765
0.59827
0.59839
0.598865
0.599932
0.601572
0.603713
0.606428
0.609874
0.614198
0.619467
0.624786
0.629066
0.632236
0.634529
0.636168
0.637307
0.638033
0.638361
0.63839
0.638276
0.590791
0.590886
0.591405
0.592606
0.594498
0.597008
0.600222
0.604339
0.609544
0.615937
0.62247
0.627791
0.631775
0.634704
0.636845
0.638354
0.639327
0.639774
0.639837
0.639723
0.58231
0.58241
0.582975
0.584343
0.586569
0.589551
0.593408
0.598387
0.604717
0.612513
0.620501
0.627038
0.63197
0.635635
0.638371
0.640309
0.641564
0.642139
0.642235
0.642119
0.572546
0.572629
0.573279
0.574879
0.577537
0.581122
0.585783
0.591832
0.599548
0.609068
0.618813
0.626808
0.632879
0.63743
0.640854
0.643305
0.644886
0.645599
0.645728
0.645606
0.561134
0.561201
0.561955
0.563862
0.567059
0.571416
0.57712
0.584528
0.593962
0.605583
0.617455
0.627189
0.634604
0.640201
0.644427
0.647481
0.64943
0.650295
0.650454
0.650323
0.547542
0.547596
0.548495
0.550808
0.554724
0.560104
0.567167
0.576339
0.58797
0.602182
0.616589
0.628334
0.637279
0.644085
0.649253
0.652993
0.655347
0.656368
0.656554
0.656409
0.53103
0.531079
0.532188
0.535068
0.539968
0.546733
0.555614
0.567086
0.581496
0.598879
0.616254
0.630317
0.641023
0.649199
0.655447
0.659966
0.662763
0.663937
0.664141
0.663979
0.51046
0.510512
0.511952
0.515679
0.521984
0.530684
0.542039
0.556536
0.574423
0.595605
0.616471
0.633196
0.645904
0.655633
0.663089
0.668494
0.671756
0.673071
0.673279
0.673095
0.48405
0.48413
0.486155
0.491267
0.499753
0.511339
0.526231
0.544818
0.567158
0.592891
0.617646
0.637229
0.652077
0.663514
0.672268
0.678619
0.682333
0.68375
0.683938
0.683728
0.448777
0.44898
0.452199
0.459874
0.472069
0.488087
0.508014
0.531944
0.559662
0.590614
0.61971
0.642423
0.65956
0.67279
0.682971
0.690262
0.694354
0.695799
0.695935
0.695695
0.398881
0.399938
0.406364
0.419342
0.438016
0.460898
0.4878
0.518507
0.552596
0.589382
0.623058
0.648961
0.668413
0.683432
0.695039
0.703182
0.707492
0.708858
0.708909
0.708639
0.325931
0.333216
0.348014
0.370738
0.399117
0.4312
0.466609
0.505084
0.54624
0.589397
0.628085
0.657506
0.679549
0.696618
0.709726
0.718644
0.723126
0.724432
0.724439
0.724196
0.248065
0.264018
0.288102
0.32134
0.359958
0.401424
0.445434
0.491922
0.540619
0.590939
0.635681
0.6696
0.695033
0.714692
0.72964
0.739398
0.743915
0.745083
0.745121
0.744994
0.181397
0.200934
0.232797
0.275082
0.322819
0.373125
0.42552
0.479898
0.535978
0.593204
0.64368
0.681784
0.710301
0.732325
0.74881
0.75914
0.763595
0.764707
0.764803
0.764745
0.12684
0.148601
0.185831
0.234627
0.289499
0.347229
0.407049
0.46868
0.531708
0.595494
0.651391
0.693418
0.724759
0.748836
0.766716
0.777836
0.782759
0.783946
0.784053
0.784037
0.0815182
0.104616
0.145734
0.199641
0.26024
0.324098
0.390261
0.458319
0.527688
0.597598
0.658561
0.704252
0.73824
0.764239
0.783546
0.795664
0.801078
0.802362
0.802532
0.802549
0.0428262
0.0667567
0.110762
0.168819
0.234237
0.303325
0.374977
0.44872
0.523825
0.59938
0.665093
0.714168
0.750594
0.778389
0.798955
0.811925
0.817828
0.819343
0.819577
0.819611
0.00875841
0.0332786
0.0795575
0.141045
0.210573
0.284213
0.360736
0.439605
0.519976
0.600766
0.670931
0.72315
0.761758
0.791109
0.812744
0.826327
0.83263
0.834468
0.83479
0.834829
-0.022149
0.00287163
0.0510426
0.115458
0.188543
0.266174
0.347072
0.430627
0.515897
0.601629
0.67598
0.731155
0.771727
0.802449
0.824923
0.838994
0.845627
0.847686
0.848043
0.848067
-0.0508733
-0.02538
0.0244093
0.0914043
0.167608
0.248772
0.333615
0.421478
0.511343
0.601809
0.680188
0.738166
0.780583
0.812488
0.835591
0.849927
0.856787
0.858975
0.859346
0.859348
-0.0781749
-0.052153
-0.000873252
0.0684143
0.147374
0.231694
0.320108
0.411947
0.506136
0.601158
0.683496
0.744236
0.788449
0.821379
0.844884
0.859367
0.866343
0.868632
0.868999
0.868971
-0.104373
-0.0778669
-0.0252086
0.0461431
0.127571
0.214724
0.306382
0.401886
0.500154
0.599576
0.685872
0.749436
0.795463
0.829345
0.853204
0.867802
0.874826
0.877138
0.877501
0.877443
-0.129866
-0.102783
-0.0488508
0.0243718
0.108018
0.19772
0.29233
0.391212
0.493312
0.597005
0.687309
0.753831
0.801739
0.836576
0.860764
0.875443
0.882454
0.884705
0.885044
0.88497
-0.154744
-0.127074
-0.0719447
0.00297886
0.0886136
0.180611
0.2779
0.379887
0.48557
0.593411
0.687805
0.757474
0.807385
0.843217
0.867746
0.882462
0.889408
0.89158
0.891844
0.891725
-0.179102
-0.150831
-0.0945741
-0.0180929
0.0693232
0.163378
0.263084
0.367904
0.476924
0.588766
0.687335
0.76038
0.81249
0.849427
0.874324
0.88902
0.895773
0.897786
0.897961
0.897803
-0.203011
-0.174108
-0.116751
-0.0388594
0.0501376
0.146037
0.247914
0.3553
0.467393
0.583061
0.685848
0.762515
0.817118
0.855355
0.880637
0.895192
0.901626
0.903388
0.903465
0.90328
-0.226502
-0.196888
-0.138468
-0.0593032
0.0311032
0.128631
0.232446
0.342127
0.457017
0.576286
0.683281
0.763802
0.821288
0.861155
0.886873
0.901087
0.906984
0.908411
0.908387
0.908186
-0.249407
-0.219125
-0.159693
-0.0793948
0.0122658
0.111236
0.216749
0.328467
0.445863
0.568466
0.679566
0.764137
0.824945
0.866963
0.893321
0.90695
0.911952
0.912879
0.912744
0.912543
-0.271687
-0.24077
-0.180394
-0.0990771
-0.00630955
0.0939207
0.200922
0.314403
0.434016
0.559629
0.674649
0.763389
0.827958
0.872814
0.900358
0.91331
0.916853
0.916874
0.916559
0.916403
-0.293395
-0.261784
-0.200538
-0.118305
-0.0245517
0.0767738
0.185057
0.300046
0.421572
0.549837
0.66848
0.761431
0.830106
0.878532
0.908273
0.921083
0.922673
0.920841
0.919902
0.919958
-0.314365
-0.282136
-0.220064
-0.137006
-0.0423959
0.0598844
0.169255
0.285506
0.40865
0.539191
0.661042
0.758117
0.831125
0.883671
0.916884
0.9312
0.9316
0.927001
0.923439
0.921737
-0.334689
-0.301825
-0.238974
-0.155209
-0.0598758
0.0432093
0.153463
0.270723
0.395173
0.527617
0.652175
0.753182
0.830727
0.887632
0.925299
0.943576
0.945711
0.939658
0.929056
0.928383
-0.354277
-0.320923
-0.257404
-0.173108
-0.0772926
0.0264015
0.137253
0.255191
0.380571
0.514453
0.641184
0.745806
0.828329
0.889554
0.931457
0.95514
0.960268
0.950764
0.932739
0.928905
-0.372985
-0.339394
-0.275179
-0.190496
-0.0943884
0.00977006
0.120842
0.239243
0.365152
0.49996
0.628171
0.735453
0.823275
0.888282
0.930911
0.954421
0.963191
0.940679
0.882127
0.856353
-0.390691
-0.358048
-0.291888
-0.20684
-0.110465
-0.00619306
0.104505
0.223153
0.349197
0.484316
0.613223
0.721627
0.814703
0.883154
0.919069
0.936782
0.930078
0.882117
0.820862
0.783193
-0.435189
-0.376048
-0.307414
-0.222738
-0.126317
-0.0224087
0.0883735
0.206802
0.332512
0.467195
0.59597
0.703869
0.799075
0.872497
0.894954
0.88937
0.849181
0.788433
0.721273
0.684349
-0.409961
-0.391468
-0.33092
-0.246299
-0.150394
-0.0467072
0.0633208
0.181042
0.305728
0.438761
0.565598
0.670916
0.756985
0.836708
0.826029
0.725997
0.641135
0.582023
0.520307
0.549314
-0.441998
-0.409825
-0.348387
-0.26432
-0.168502
-0.0651371
0.0450289
0.162067
0.285682
0.416861
0.540902
0.642468
0.718636
0.762878
0.717633
0.585545
0.481933
0.412041
0.332182
0.379865
-0.466983
-0.432295
-0.368961
-0.2847
-0.18894
-0.0856336
0.0244323
0.140663
0.262899
0.391634
0.511791
0.607343
0.672603
0.679894
0.580379
0.431345
0.307121
0.218287
0.125025
0.158276
-0.491377
-0.455534
-0.390718
-0.305738
-0.209818
-0.106607
0.00298304
0.118253
0.238895
0.364807
0.480165
0.568551
0.617253
0.592913
0.44174
0.270221
0.114626
-0.0156835
-0.137536
-0.123405
-0.515515
-0.479203
-0.413395
-0.327771
-0.23161
-0.128559
-0.0195849
0.0945889
0.213366
0.336077
0.445927
0.52695
0.555722
0.488667
0.305716
0.113681
-0.0693565
-0.219832
-0.422857
-0.501215
-0.540076
-0.503767
-0.437336
-0.35121
-0.254791
-0.15185
-0.0434238
0.0696304
0.186431
0.305713
0.409735
0.481543
0.486713
0.368629
0.181935
-0.0224222
-0.210406
-0.369333
-0.491389
-0.609402
-0.566143
-0.529715
-0.462908
-0.376462
-0.279919
-0.177178
-0.069392
0.0423731
0.156858
0.272176
0.369913
0.429701
0.408824
0.254566
0.0662716
-0.132235
-0.303732
-0.398481
-0.424253
-0.437798
-0.593855
-0.557331
-0.490242
-0.40363
-0.307143
-0.204769
-0.0978679
0.0122991
0.124016
0.23464
0.325607
0.368664
0.329766
0.145146
-0.0413374
-0.219554
-0.348863
-0.385786
-0.39451
-0.394863
-0.623497
-0.586739
-0.51937
-0.432693
-0.336406
-0.234628
-0.128875
-0.0206513
0.0878247
0.193044
0.276261
0.303912
0.234753
0.0451137
-0.135324
-0.290057
-0.362021
-0.376075
-0.376925
-0.376685
-0.655074
-0.617968
-0.5503
-0.463637
-0.367714
-0.26674
-0.16242
-0.0565019
0.0482872
0.147446
0.221646
0.235088
0.128841
-0.0455908
-0.216013
-0.337746
-0.365374
-0.366586
-0.367344
-0.366848
-0.688314
-0.650831
-0.582912
-0.496367
-0.400966
-0.301042
-0.198476
-0.0952376
0.00544063
0.097936
0.162809
0.157771
0.0340425
-0.130096
-0.279883
-0.347138
-0.362371
-0.361604
-0.361754
-0.361483
-0.722621
-0.684958
-0.61692
-0.530628
-0.435952
-0.337356
-0.236881
-0.136742
-0.0405288
0.0449188
0.0997093
0.0792458
-0.0541857
-0.206078
-0.323808
-0.358579
-0.357754
-0.357702
-0.357445
-0.357273
-0.757532
-0.719784
-0.651809
-0.56597
-0.472284
-0.375325
-0.277326
-0.180743
-0.0893707
-0.0107781
0.0307118
0.00426809
-0.13479
-0.265285
-0.351638
-0.358047
-0.357997
-0.356545
-0.355721
-0.35528
-0.792037
-0.754373
-0.686784
-0.601702
-0.509357
-0.414421
-0.3193
-0.22675
-0.140682
-0.0684754
-0.0382551
-0.0753488
-0.205426
-0.309387
-0.357866
-0.368541
-0.363424
-0.361593
-0.360205
-0.359275
-0.824219
-0.787382
-0.720755
-0.63687
-0.546325
-0.453865
-0.362054
-0.273995
-0.193721
-0.127898
-0.10345
-0.1632
-0.270222
-0.346903
-0.369677
-0.372562
-0.371162
-0.368744
-0.368036
-0.367552
-0.852959
-0.817226
-0.75224
-0.670189
-0.58204
-0.492611
-0.404601
-0.321432
-0.247315
-0.188484
-0.168825
-0.248348
-0.338102
-0.374772
-0.394701
-0.394602
-0.388984
-0.385574
-0.385463
-0.385132
-0.875464
-0.841722
-0.779389
-0.70002
-0.615068
-0.529345
-0.445668
-0.367752
-0.300141
-0.248565
-0.233999
-0.328744
-0.427975
-0.433114
-0.42745
-0.439715
-0.441536
-0.440832
-0.439816
-0.438338
-0.889504
-0.8586
-0.800015
-0.724494
-0.643709
-0.562516
-0.483725
-0.411316
-0.350642
-0.305495
-0.293978
-0.401725
-0.558874
-0.600441
-0.570588
-0.558282
-0.561652
-0.552117
-0.539643
-0.534022
-0.892257
-0.865346
-0.811872
-0.741624
-0.666118
-0.590426
-0.517116
-0.450159
-0.396582
-0.357537
-0.347952
-0.442854
-0.66998
-0.860227
-0.760612
-0.655228
-0.612223
-0.594033
-0.581479
-0.578021
-0.88165
-0.85954
-0.812753
-0.749499
-0.680652
-0.611375
-0.544132
-0.482446
-0.434474
-0.403643
-0.385989
-0.446524
-0.531306
-0.752081
-0.667423
-0.554189
-0.512956
-0.50367
-0.505177
-0.505294
-0.854541
-0.838062
-0.800604
-0.746732
-0.68616
-0.624048
-0.563275
-0.506751
-0.461186
-0.437621
-0.405824
-0.368093
-0.168853
-0.0355886
-0.103673
-0.305546
-0.412617
-0.427368
-0.429681
-0.428494
-0.814163
-0.80344
-0.776193
-0.733446
-0.682364
-0.628262
-0.573599
-0.5217
-0.47734
-0.452533
-0.427368
-0.331459
-0.0727661
0.208395
-0.0116926
-0.274988
-0.391375
-0.407464
-0.407348
-0.416827
-0.76721
-0.761068
-0.7444
-0.712635
-0.671411
-0.62478
-0.5756
-0.526838
-0.483106
-0.44909
-0.45538
-0.480612
-0.696562
-0.883791
-1.12499
-1.25597
-1.1711
-1.02193
-0.890086
-0.87351
-0.723769
-0.720145
-0.711719
-0.68992
-0.656699
-0.615808
-0.570662
-0.52288
-0.476285
-0.446215
-0.433193
-0.610487
-1.06742
-1.68399
-1.89719
-1.98121
-1.93722
-1.79404
-1.63216
-1.5262
-0.691202
-0.688993
-0.684649
-0.670423
-0.642906
-0.605127
-0.56076
-0.510856
-0.458888
-0.408492
-0.381588
-0.461355
-0.764479
-1.15338
-1.33806
-1.19007
-0.925677
-0.676744
-0.512302
-0.432062
-0.666422
-0.665545
-0.664146
-0.656425
-0.633589
-0.596528
-0.549407
-0.494306
-0.428076
-0.352973
-0.266156
-0.18415
-0.0983138
0.0895859
0.349288
0.662927
0.934195
1.13525
1.2229
1.254
-0.651905
-0.651469
-0.650922
-0.647185
-0.628918
-0.591116
-0.538279
-0.47388
-0.395049
-0.295944
-0.175108
-0.00930087
0.209583
0.598677
1.12174
1.5866
1.95603
2.14389
2.20352
2.21958
-0.642611
-0.64244
-0.64198
-0.640628
-0.62677
-0.589605
-0.531881
-0.45847
-0.367554
-0.250637
-0.13499
0.013273
0.251455
0.692284
1.24524
1.73757
2.07351
2.2465
2.31619
2.33154
-0.637569
-0.636634
-0.63409
-0.632218
-0.625274
-0.594863
-0.53485
-0.448828
-0.35155
-0.235293
-0.112956
-0.000740194
0.226611
0.627286
1.06085
1.44282
1.72619
1.88866
1.95339
1.97084
-0.650035
-0.64646
-0.638566
-0.633852
-0.636312
-0.614508
-0.545901
-0.448451
-0.339023
-0.229736
-0.112367
-0.0211476
0.120615
0.439467
0.789826
1.08584
1.30015
1.42234
1.4753
1.49006
-0.698178
-0.695258
-0.694387
-0.698846
-0.700566
-0.659436
-0.561817
-0.447751
-0.328797
-0.219927
-0.118926
-0.0398969
0.0562055
0.300648
0.56225
0.766744
0.916238
1.00354
1.04175
1.05138
-0.76802
-0.775239
-0.794204
-0.804861
-0.788889
-0.707642
-0.569079
-0.43529
-0.317634
-0.206497
-0.120725
-0.0518089
0.0121465
0.205397
0.386381
0.532659
0.630955
0.686335
0.70897
0.714391
-0.773274
-0.789005
-0.812698
-0.823849
-0.795448
-0.686284
-0.534991
-0.404654
-0.293147
-0.193367
-0.116488
-0.0599696
-0.00972771
0.102946
0.236916
0.339332
0.407507
0.447686
0.465528
0.469168
-0.624226
-0.638803
-0.659575
-0.669428
-0.639758
-0.548832
-0.442712
-0.343135
-0.250786
-0.172579
-0.105747
-0.0481294
-0.00917883
0.0872148
0.182668
0.241451
0.281332
0.304765
0.314447
0.316257
-0.360442
-0.369372
-0.383609
-0.394782
-0.385691
-0.351026
-0.305517
-0.252098
-0.197209
-0.139707
-0.0885754
-0.0378291
0.00105052
0.0486438
0.115849
0.163964
0.194186
0.212243
0.218569
0.219207
-0.115185
-0.119121
-0.128602
-0.144429
-0.16096
-0.171624
-0.172059
-0.16113
-0.140413
-0.101567
-0.0675256
-0.0253215
0.0102974
0.0493097
0.0888602
0.114466
0.139028
0.154341
0.161251
0.161014
0.0309167
0.0288009
0.0208067
0.00215706
-0.0263413
-0.0566168
-0.0792352
-0.0916643
-0.0907817
-0.0748436
-0.0489408
-0.01855
0.00965762
0.0268965
0.0603111
0.0835229
0.0994416
0.10842
0.110423
0.109122
0.0886107
0.0870857
0.0804425
0.0635965
0.0361448
0.00461625
-0.0240454
-0.0452358
-0.0560891
-0.0545383
-0.0398636
-0.0176656
0.00424706
0.00652078
0.018395
0.0338924
0.050225
0.0611726
0.0643754
0.0631383
0.0978652
0.0966915
0.0916929
0.0789705
0.057604
0.0316722
0.00527806
-0.0176757
-0.0343291
-0.0426687
-0.0423372
-0.0331299
-0.0230678
-0.0241342
-0.0168328
-0.00372666
0.00789674
0.0134565
0.0146529
0.012966
0.087843
0.0870057
0.0835137
0.0745945
0.0592736
0.0393445
0.0176571
-0.00365108
-0.0226699
-0.0387662
-0.0530411
-0.0656375
-0.0767126
-0.0832332
-0.0717199
-0.0571928
-0.0450054
-0.0402823
-0.0391933
-0.0403975
0.0725854
0.0720208
0.0696647
0.0636323
0.0529641
0.0384376
0.0212317
0.00287086
-0.0166323
-0.0384827
-0.0661749
-0.102383
-0.133558
-0.134673
-0.115538
-0.100062
-0.0914368
-0.0895696
-0.089757
-0.0902243
0.0577054
0.0573455
0.0558184
0.051851
0.0446171
0.0342692
0.0213573
0.00615329
-0.0119805
-0.0358166
-0.0716956
-0.123639
-0.16568
-0.158615
-0.134624
-0.120134
-0.116927
-0.118762
-0.119765
-0.119668
0.0451096
0.0448799
0.0439508
0.0414876
0.0368191
0.029818
0.0205163
0.00911656
-0.00544919
-0.027101
-0.0608203
-0.109874
-0.142212
-0.128168
-0.113676
-0.108411
-0.111927
-0.116174
-0.117351
-0.117012
0.035217
0.0350738
0.0345615
0.0332222
0.0304875
0.0262145
0.0201934
0.0125995
0.00259424
-0.0115474
-0.0330258
-0.0643612
-0.0777093
-0.0655026
-0.0621461
-0.0679151
-0.0762177
-0.0819404
-0.0831156
-0.0829121
0.0277306
0.0276585
0.0274602
0.026934
0.0257123
0.0236408
0.0205642
0.0169119
0.0124976
0.00824488
0.00414285
-0.00262049
-0.000184808
0.00806026
0.00207597
-0.0115859
-0.0223104
-0.0272413
-0.0278454
-0.0277233
0.0221459
0.0221164
0.0221263
0.0221688
0.0220332
0.0216519
0.0210039
0.0207984
0.0217589
0.0272811
0.0420096
0.0612984
0.0871273
0.0890989
0.0707414
0.051804
0.0415691
0.0383983
0.0379237
0.0375683
0.0178616
0.0178602
0.0179825
0.0183239
0.0188353
0.0194468
0.0205377
0.0228573
0.0280365
0.0409602
0.069603
0.114121
0.154072
0.148242
0.122549
0.104317
0.0994373
0.0983787
0.0972759
0.0961262
0.0140488
0.0140726
0.0142392
0.0146986
0.0155098
0.0165964
0.0185639
0.0220202
0.0293416
0.0452958
0.0781973
0.126104
0.165376
0.156314
0.137295
0.129122
0.127881
0.129843
0.128864
0.127196
0.0101565
0.0101771
0.0103264
0.0107299
0.011486
0.0126067
0.0145213
0.0178625
0.0249742
0.0392909
0.0678707
0.106066
0.13167
0.123245
0.114967
0.114386
0.119707
0.123115
0.121802
0.12022
0.00587539
0.00587481
0.0059571
0.00622283
0.00669903
0.00750572
0.00875238
0.0110021
0.0155273
0.0249257
0.0432645
0.0673833
0.0783791
0.0730034
0.0705568
0.0759741
0.0821507
0.0858473
0.0840657
0.0824259
0.00130909
0.00129481
0.00131298
0.0013036
0.00131682
0.00142237
0.00162541
0.00200378
0.002673
0.00399904
0.0065723
0.0115769
0.012247
0.0167166
0.0191426
0.0212736
0.0210891
0.0157072
0.0153925
0.0159066
0.0110818
0.200858
0.375527
0.524213
0.644557
0.740851
0.821627
0.887269
0.904157
0.900279
0.305042
0.427551
0.54261
0.643089
0.728223
0.798927
0.854775
0.892514
0.912636
0.929128
0.504847
0.586767
0.66796
0.739521
0.800795
0.851698
0.891751
0.922173
0.944943
0.964175
0.652566
0.710407
0.769339
0.82234
0.868087
0.906942
0.939464
0.966667
0.987114
1.00602
0.770075
0.81415
0.858166
0.899055
0.93545
0.967563
0.995608
1.01933
1.03737
1.05542
0.86987
0.905616
0.940831
0.974816
1.00614
1.03447
1.05947
1.08041
1.09625
1.11373
0.958207
0.990487
1.02287
1.05415
1.08327
1.10973
1.13292
1.15191
1.16587
1.18289
1.04545
1.07813
1.11065
1.14192
1.17076
1.1966
1.21878
1.23635
1.24876
1.2653
1.14
1.17644
1.21125
1.24376
1.27298
1.29838
1.31954
1.33586
1.3475
1.36365
1.25313
1.29368
1.33075
1.36377
1.39231
1.41634
1.43599
1.45128
1.4632
1.47928
1.39448
1.43563
1.47091
1.50054
1.52577
1.54741
1.56593
1.58142
1.59455
1.6105
1.56611
1.59861
1.62548
1.64779
1.66788
1.68661
1.70436
1.72114
1.73606
1.75178
1.7525
1.76979
1.78692
1.8036
1.8197
1.83444
1.84835
1.86283
1.87807
1.89537
1.93588
1.94588
1.95908
1.97007
1.97948
1.98914
1.99975
2.00993
2.01923
2.04489
2.15381
2.14811
2.13517
2.12091
2.11461
2.12033
2.13847
2.167
2.20076
2.23709
2.45663
2.32067
2.24117
2.19866
2.18134
2.18532
2.21275
2.27061
2.37828
2.55668
0.760402
0.754098
0.746364
0.735243
0.721663
0.709
0.698584
0.690544
0.68479
0.681412
0.681004
0.683785
0.688976
0.696304
0.705832
0.717648
0.7312
0.744123
0.753108
0.760647
0.669485
0.675403
0.683471
0.689596
0.692654
0.692129
0.689023
0.685
0.681372
0.679038
0.678846
0.681044
0.684756
0.68917
0.69325
0.695479
0.694395
0.68975
0.682691
0.674855
0.662762
0.665134
0.668396
0.67116
0.673599
0.675771
0.676927
0.67675
0.67577
0.67491
0.675064
0.676419
0.678155
0.67935
0.67925
0.677763
0.675591
0.673219
0.67023
0.667209
0.65801
0.659098
0.661009
0.663337
0.665194
0.666573
0.667766
0.668723
0.669276
0.669592
0.670077
0.670756
0.671173
0.671016
0.670357
0.669412
0.668064
0.666082
0.663966
0.662485
0.653035
0.653669
0.654792
0.656538
0.658366
0.659937
0.661158
0.662181
0.663107
0.663934
0.66464
0.665088
0.665167
0.664914
0.664341
0.663339
0.66189
0.660263
0.658915
0.65811
0.648173
0.648612
0.649395
0.650686
0.652189
0.653727
0.65517
0.656419
0.657508
0.658512
0.659371
0.659886
0.659995
0.659703
0.658994
0.65796
0.656779
0.655614
0.654697
0.654161
0.643416
0.643744
0.644351
0.645407
0.646681
0.648051
0.64949
0.650909
0.652227
0.653433
0.654467
0.655106
0.655244
0.654929
0.654276
0.653447
0.652565
0.651684
0.651007
0.650612
0.638742
0.638997
0.639486
0.640382
0.641531
0.642807
0.644183
0.645648
0.647142
0.648596
0.64986
0.650644
0.650873
0.650684
0.650231
0.649626
0.648945
0.648283
0.647782
0.647481
0.634082
0.634285
0.634691
0.635477
0.636545
0.63777
0.639127
0.640628
0.642252
0.643929
0.64546
0.646481
0.646922
0.646953
0.64672
0.646324
0.645837
0.645358
0.644993
0.644755
0.629356
0.62952
0.629867
0.63058
0.631602
0.632804
0.634185
0.635761
0.637527
0.639441
0.641289
0.642637
0.643374
0.643671
0.64367
0.643484
0.643192
0.642874
0.642621
0.642431
0.624483
0.624616
0.624922
0.625589
0.62659
0.627812
0.629252
0.630941
0.632895
0.635092
0.637325
0.639089
0.640187
0.640795
0.641057
0.641095
0.640996
0.640833
0.640673
0.64052
0.619376
0.619483
0.619761
0.620408
0.621425
0.622711
0.624255
0.626113
0.628325
0.630896
0.633612
0.635863
0.637381
0.638339
0.638895
0.63917
0.639264
0.639254
0.639176
0.639051
0.613949
0.614035
0.614297
0.614949
0.616018
0.61741
0.619116
0.621211
0.623767
0.626811
0.630119
0.632962
0.634971
0.63633
0.637211
0.63776
0.638065
0.638196
0.638188
0.638085
0.608101
0.608167
0.608422
0.609102
0.610261
0.611807
0.613738
0.616156
0.619156
0.622794
0.62683
0.630385
0.632975
0.634799
0.636048
0.636896
0.63743
0.63771
0.637769
0.637685
0.60171
0.601757
0.602013
0.602745
0.604033
0.605789
0.608015
0.610836
0.614385
0.618759
0.623688
0.628104
0.631396
0.633779
0.635464
0.636651
0.637448
0.637887
0.638013
0.637944
0.59464
0.594668
0.594932
0.595734
0.597191
0.599217
0.601822
0.605156
0.609391
0.61466
0.620675
0.626145
0.630288
0.633339
0.635538
0.637119
0.638219
0.638831
0.639024
0.638968
0.586695
0.586712
0.586976
0.587878
0.589559
0.591933
0.595027
0.599022
0.604135
0.610533
0.617878
0.624602
0.629735
0.633559
0.636363
0.63842
0.639858
0.640659
0.640921
0.640876
0.577588
0.577578
0.577896
0.578936
0.580911
0.583736
0.58745
0.59228
0.598491
0.606291
0.615252
0.623481
0.629792
0.634528
0.638047
0.640669
0.642495
0.643508
0.643842
0.643806
0.567048
0.567016
0.567381
0.568606
0.570942
0.57434
0.578845
0.584724
0.592306
0.601837
0.612777
0.622796
0.63051
0.636341
0.640711
0.643987
0.646268
0.647517
0.647928
0.647897
0.554593
0.554539
0.554977
0.556445
0.559257
0.563402
0.568933
0.576175
0.585489
0.597143
0.610475
0.622663
0.632022
0.639117
0.644484
0.648518
0.651322
0.652832
0.65332
0.653291
0.53961
0.539533
0.540089
0.541896
0.545343
0.550489
0.557392
0.566423
0.577999
0.592368
0.608582
0.623234
0.634461
0.643004
0.649517
0.65442
0.657806
0.659591
0.660151
0.660118
0.521171
0.521075
0.521823
0.524125
0.528458
0.534989
0.543754
0.555154
0.569591
0.58724
0.60689
0.62447
0.637868
0.648078
0.655894
0.661789
0.665826
0.667894
0.668514
0.668469
0.497846
0.497747
0.498825
0.501894
0.50756
0.516119
0.527532
0.542181
0.560392
0.582145
0.605817
0.626644
0.642409
0.654441
0.663707
0.670711
0.675437
0.677774
0.678432
0.678366
0.467317
0.467262
0.468936
0.473342
0.48127
0.493007
0.508345
0.527489
0.550529
0.577209
0.605466
0.62988
0.64821
0.6622
0.673008
0.681204
0.6866
0.689151
0.689804
0.689703
0.425466
0.425608
0.428587
0.435775
0.447916
0.46488
0.486018
0.51121
0.54025
0.572664
0.60601
0.634262
0.655283
0.671306
0.683744
0.693149
0.699115
0.701749
0.702336
0.70219
0.364618
0.365912
0.373175
0.386775
0.406646
0.431934
0.46127
0.494172
0.530311
0.569142
0.607888
0.64005
0.663752
0.68176
0.695722
0.70618
0.712535
0.715042
0.715464
0.715281
0.291527
0.294091
0.308243
0.331741
0.362228
0.397408
0.435667
0.476777
0.520541
0.566505
0.611642
0.648785
0.676121
0.696898
0.712877
0.724545
0.731298
0.733849
0.734304
0.734232
0.216544
0.223375
0.244645
0.278043
0.318875
0.363716
0.410919
0.460339
0.511866
0.565091
0.616781
0.659067
0.690123
0.7138
0.731988
0.744846
0.751784
0.754117
0.754461
0.754471
0.155465
0.16413
0.190044
0.230496
0.279434
0.332485
0.387766
0.444988
0.503924
0.564114
0.622037
0.669166
0.703658
0.729868
0.749909
0.763794
0.770912
0.773213
0.773798
0.773897
0.10539
0.114761
0.144195
0.189906
0.244981
0.304613
0.366708
0.430806
0.496509
0.563218
0.627023
0.678693
0.716395
0.744947
0.766681
0.781655
0.789376
0.792194
0.792903
0.793035
0.063326
0.0730122
0.104864
0.154696
0.214807
0.279912
0.347772
0.417845
0.489599
0.562279
0.631562
0.687465
0.72815
0.758899
0.782255
0.7984
0.806942
0.810119
0.810926
0.811048
0.0268316
0.0366741
0.0703614
0.123492
0.187798
0.257595
0.330475
0.40583
0.483037
0.561194
0.635584
0.69544
0.738857
0.77157
0.796356
0.813467
0.822697
0.826188
0.827109
0.827237
-0.00574331
0.00417949
0.0393294
0.0951986
0.163067
0.23692
0.314244
0.394364
0.476573
0.559828
0.638998
0.702573
0.748478
0.78293
0.808932
0.8268
0.83656
0.840399
0.841375
0.841495
-0.0356117
-0.0256231
0.01071
0.0689672
0.139933
0.217333
0.29861
0.383064
0.469899
0.557968
0.641704
0.708787
0.757029
0.793039
0.820061
0.838458
0.8486
0.852663
0.853674
0.853773
-0.0636755
-0.0536109
-0.0161788
0.0441973
0.117887
0.198419
0.283235
0.371643
0.462789
0.555428
0.643591
0.714077
0.764568
0.802014
0.829815
0.848544
0.85885
0.863064
0.864132
0.864214
-0.0904724
-0.0802822
-0.0418396
0.020441
0.0965544
0.179883
0.267891
0.359912
0.455073
0.552073
0.644556
0.718457
0.771201
0.810019
0.838454
0.857406
0.86781
0.872072
0.873149
0.873223
-0.116382
-0.106016
-0.0666201
-0.00259661
0.0756889
0.161525
0.252419
0.347744
0.446649
0.547805
0.644551
0.721951
0.77703
0.817226
0.846254
0.865412
0.875882
0.880127
0.881158
0.881165
-0.141657
-0.131034
-0.0907283
-0.0251032
0.055141
0.143222
0.236731
0.335079
0.437452
0.542571
0.643553
0.724588
0.782143
0.823762
0.853389
0.872721
0.883194
0.887374
0.888347
0.888339
-0.166352
-0.15546
-0.114281
-0.0471817
0.0348294
0.124929
0.220791
0.32189
0.427465
0.536335
0.64153
0.72638
0.786606
0.829757
0.860032
0.879527
0.889943
0.893982
0.894855
0.8948
-0.190561
-0.179382
-0.137356
-0.0688658
0.0147268
0.106628
0.204602
0.308189
0.416702
0.529104
0.638454
0.727294
0.790451
0.835337
0.866347
0.885956
0.896195
0.900007
0.900728
0.900618
-0.214284
-0.202813
-0.159931
-0.0901597
-0.00515576
0.0883493
0.188212
0.294028
0.405201
0.520885
0.634292
0.72726
0.793663
0.840606
0.872497
0.892136
0.902006
0.905449
0.905988
0.905835
-0.237566
-0.225733
-0.181981
-0.111041
-0.0247827
0.0701415
0.171676
0.279476
0.393028
0.511713
0.62901
0.72619
0.796172
0.845632
0.878695
0.898277
0.907484
0.910353
0.910669
0.910481
-0.260163
-0.248084
-0.203479
-0.131477
-0.0440965
0.0520863
0.155072
0.264613
0.380266
0.501652
0.622586
0.723991
0.79786
0.850399
0.885173
0.904768
0.912912
0.914816
0.914789
0.914581
-0.282233
-0.269803
-0.224383
-0.151428
-0.0630539
0.0342331
0.138499
0.249527
0.367009
0.49079
0.615022
0.720564
0.798562
0.854751
0.892065
0.912201
0.918998
0.919212
0.91842
0.918187
-0.303584
-0.290847
-0.24467
-0.170837
-0.0815653
0.0166741
0.122046
0.234347
0.353368
0.479198
0.606356
0.715819
0.798095
0.858383
0.899193
0.921129
0.927147
0.924957
0.922174
0.921451
-0.324312
-0.311235
-0.264278
-0.189642
-0.0995877
-0.000517385
0.105805
0.219157
0.339457
0.467017
0.596657
0.709661
0.796267
0.860888
0.905884
0.931365
0.938808
0.935374
0.928915
0.919426
-0.344298
-0.33096
-0.283298
-0.208008
-0.117348
-0.0176369
0.0894226
0.203534
0.324803
0.453713
0.585374
0.701465
0.792571
0.861837
0.91124
0.941721
0.953728
0.951146
0.94059
0.937984
-0.363494
-0.350102
-0.301725
-0.225867
-0.134817
-0.034657
0.0729369
0.187464
0.309378
0.439171
0.572341
0.690795
0.786342
0.860438
0.913119
0.947208
0.962232
0.963993
0.930446
0.89114
-0.381661
-0.368517
-0.319503
-0.243087
-0.151967
-0.0515955
0.0563625
0.171081
0.29326
0.423438
0.557504
0.677371
0.776584
0.855997