/*--------------------------------*- C++ -*----------------------------------*\
  =========                 |
  \\      /  F ield         | OpenFOAM: The Open Source CFD Toolbox
   \\    /   O peration     | Website:  https://openfoam.org
    \\  /    A nd           | Version:  6
     \\/     M anipulation  |
\*---------------------------------------------------------------------------*/
FoamFile
{
    version     2.0;
    format      ascii;
    class       surfaceScalarField;
    location    "69";
    object      phi;
}
// * * * * * * * * * * * * * * * * * * * * * * * * * * * * * * * * * * * * * //

dimensions      [0 3 -1 0 0 0 0];

internalField   nonuniform List<scalar> 
17370
(
-0.0900008
0.0898502
0.289161
-0.0714641
0.0537545
0.364485
-0.0381217
0.0276929
0.426597
-0.0196415
0.014609
0.504284
-0.0107678
0.00827823
0.601892
-0.0062794
0.00490352
0.720433
-0.00374
0.00289953
0.863747
-0.00215791
0.00159854
1.03601
-0.00108154
0.000668614
1.24292
-0.000260234
-0.00013261
1.49158
0.000512088
-0.000921986
1.4916
0.00132007
-0.00181074
1.24318
0.00234078
-0.00304886
1.03635
0.00386299
-0.00500611
0.86405
0.00637105
-0.008363
0.721049
0.0108475
-0.0146828
0.60305
0.0197095
-0.027754
0.507484
0.0381761
-0.0538006
0.431793
0.0715019
-0.0898755
0.365149
0.0900159
0.198995
-0.128135
0.088224
0.039911
-0.364597
0.353376
-0.0746758
0.0858975
-0.446475
0.454318
-0.0843958
0.0765527
-0.52119
0.5299
-0.0684564
0.0597463
-0.612788
0.621566
-0.0515586
0.0427805
-0.726893
0.734162
-0.0353211
0.0280531
-0.867474
0.872589
-0.0224532
0.0173384
-1.03847
1.04192
-0.0135292
0.0100797
-1.2446
1.24703
-0.00746906
0.00503614
-1.49262
1.4946
-0.00308855
0.00111063
-1.4925
1.49423
0.000568392
-0.00229348
-1.24398
1.24586
0.00419686
-0.00608173
-1.03751
1.04004
0.00843946
-0.0109708
-0.866101
0.86983
0.0143264
-0.0180546
-0.724392
0.729935
0.0230933
-0.0286363
-0.608699
0.616113
0.0358515
-0.043266
-0.514898
0.523042
0.051996
-0.0601401
-0.439857
0.447916
0.0688036
-0.0768625
-0.375296
0.376741
0.0846617
-0.0861062
-0.257331
0.22248
0.0748176
-0.0399661
-0.0685161
0.0586892
0.00982682
-0.0518171
0.058402
-0.374124
0.367539
-0.0574875
0.0537363
-0.453593
0.457344
-0.0486473
0.044696
-0.527945
0.531896
-0.0408577
0.0372202
-0.621561
0.625199
-0.0331198
0.0290451
-0.735346
0.739421
-0.0244756
0.0203167
-0.874338
0.878497
-0.0159711
0.0122772
-1.04349
1.04718
-0.00853934
0.00536562
-1.24856
1.25173
-0.00203578
-0.00103888
-1.49666
1.49973
0.00408761
-0.00735453
-1.4972
1.50047
0.0104356
-0.0140434
-1.25007
1.25368
0.0176033
-0.0217943
-1.04593
1.05012
0.0258183
-0.0302554
-0.877765
0.882202
0.0342251
-0.0382233
-0.739903
0.743901
0.0417746
-0.045523
-0.626776
0.630525
0.0493966
-0.0544113
-0.534812
0.539827
0.0580817
-0.0588944
-0.457476
0.458289
0.0521905
-0.031989
-0.335754
0.315553
0.00988771
-0.0683477
0.05846
-0.0529378
0.0489418
0.00399602
-0.0331653
0.0437119
-0.358105
0.347558
-0.0474112
0.0467845
-0.459282
0.459908
-0.0437293
0.0403771
-0.535798
0.53915
-0.0366054
0.0333023
-0.628524
0.631827
-0.0298654
0.0268347
-0.742643
0.745674
-0.0235772
0.0204716
-0.882014
0.88512
-0.0169419
0.0135626
-1.05077
1.05415
-0.00976882
0.00622922
-1.25517
1.25871
-0.00225878
-0.00153957
-1.50324
1.50704
0.00530575
-0.00918056
-1.50414
1.50801
0.0125905
-0.0162056
-1.25742
1.26104
0.019399
-0.0227116
-1.05392
1.05724
0.0256253
-0.0286912
-0.885696
0.888762
0.0315674
-0.0348529
-0.747162
0.750447
0.0380291
-0.0416706
-0.634311
0.637952
0.0449108
-0.0478383
-0.544138
0.547065
0.0483307
-0.0444424
-0.456576
0.452688
0.0336706
-0.0162207
-0.296188
0.278738
0.00407153
-0.0526407
0.0485692
-0.0458637
0.043368
0.00249574
-0.0228088
0.0331885
-0.336868
0.326488
-0.0390108
0.0400282
-0.459592
0.458575
-0.0388388
0.0365526
-0.541869
0.544155
-0.0338861
0.031291
-0.634877
0.637472
-0.028229
0.0253308
-0.748718
0.751616
-0.0220674
0.0190748
-0.888071
0.891064
-0.0157708
0.0126722
-1.05728
1.06038
-0.00914667
0.00573779
-1.26216
1.26557
-0.00177397
-0.002111
-1.51092
1.51481
0.00595319
-0.00978954
-1.5119
1.51574
0.0130267
-0.0163173
-1.26447
1.26776
0.0191719
-0.0221912
-1.06034
1.06336
0.02493
-0.0279379
-0.891819
0.894827
0.0306271
-0.0334822
-0.753654
0.75651
0.0359035
-0.038394
-0.641019
0.64351
0.0405286
-0.0415193
-0.54887
0.549861
0.0402942
-0.0341687
-0.447407
0.441282
0.023458
-0.0102374
-0.263518
0.250297
0.00258901
-0.0454062
0.0428172
-0.0412927
0.0395256
0.00176712
-0.0167473
0.0259985
-0.316635
0.307383
-0.0326044
0.0347445
-0.456974
0.454834
-0.0343237
0.0326534
-0.546132
0.547802
-0.0304731
0.0283784
-0.639775
0.64187
-0.0259478
0.0235514
-0.754258
0.756655
-0.0206944
0.0179066
-0.893957
0.896745
-0.0146717
0.0116032
-1.06342
1.06649
-0.00811317
0.00478721
-1.26889
1.27221
-0.000953918
-0.00277952
-1.5186
1.52233
0.00645833
-0.0101296
-1.51947
1.52315
0.013238
-0.0164312
-1.271
1.2742
0.0191907
-0.0220624
-1.06639
1.06926
0.0245232
-0.0270486
-0.897646
0.900171
0.0291732
-0.0313354
-0.75896
0.761122
0.0332075
-0.0351615
-0.645664
0.647618
0.0366119
-0.0367628
-0.550378
0.550528
0.0343041
-0.0272548
-0.434614
0.427564
0.0175576
-0.00740927
-0.238763
0.228615
0.00188107
-0.0406382
0.0387571
-0.0380035
0.0366746
0.00132895
-0.0127841
0.0207278
-0.298791
0.290848
-0.0274761
0.0303973
-0.452275
0.449354
-0.0306006
0.0294802
-0.549232
0.550353
-0.0274862
0.0255693
-0.643904
0.645821
-0.0233692
0.0212321
-0.758892
0.761029
-0.0187173
0.0162337
-0.899317
0.9018
-0.0132907
0.0104103
-1.06942
1.07231
-0.00704673
0.00380358
-1.27547
1.27871
-5.38501e-05
-0.00357705
-1.52598
1.52961
0.00713969
-0.0106856
-1.52674
1.53029
0.0136551
-0.0166466
-1.27732
1.28031
0.0191404
-0.0216292
-1.07199
1.07448
0.0237035
-0.0258022
-0.902464
0.904563
0.0275965
-0.0294563
-0.763106
0.764965
0.0310921
-0.032812
-0.649436
0.651156
0.0336119
-0.0330308
-0.550318
0.549737
0.0296539
-0.0222983
-0.420305
0.41295
0.0137817
-0.0057461
-0.219624
0.211589
0.00146756
-0.0371086
0.0356411
-0.035514
0.0344903
0.00102368
-0.00998444
0.0166946
-0.283547
0.276837
-0.0231726
0.0265421
-0.446189
0.44282
-0.0273201
0.0266175
-0.551257
0.55196
-0.0248562
0.0230695
-0.647715
0.649501
-0.0209968
0.018978
-0.7631
0.765118
-0.016604
0.0142745
-0.904137
0.906466
-0.0115332
0.00884504
-1.07502
1.07771
-0.00568305
0.0025938
-1.28184
1.28493
0.00102094
-0.00453634
-1.53317
1.53668
0.00796731
-0.0113296
-1.53374
1.5371
0.0140804
-0.0167827
-1.28317
1.28587
0.0189934
-0.0211732
-1.07686
1.07904
0.0229966
-0.0248559
-0.906546
0.908406
0.0264498
-0.0280997
-0.766712
0.768362
0.0295373
-0.0309201
-0.652731
0.654114
0.0312256
-0.0299109
-0.548803
0.547489
0.0259138
-0.0186366
-0.405608
0.398331
0.0112066
-0.0046444
-0.204359
0.197797
0.00119219
-0.0343269
0.0331348
-0.033592
0.0327953
0.000796675
-0.00790739
0.013542
-0.270694
0.26506
-0.0195307
0.0230935
-0.439345
0.435782
-0.0243455
0.0238888
-0.552574
0.553031
-0.0223923
0.0207138
-0.651283
0.652962
-0.0187345
0.0168005
-0.767086
0.76902
-0.0145177
0.0122749
-0.908685
0.910928
-0.00963523
0.00705588
-1.08026
1.08284
-0.00403414
0.00108781
-1.28789
1.29084
0.00235569
-0.00569774
-1.54008
1.54343
0.00893643
-0.0120711
-1.54033
1.54346
0.0146039
-0.0170646
-1.28845
1.29091
0.0190602
-0.0210113
-1.08117
1.08313
0.0226319
-0.0242813
-0.910176
0.911826
0.0256926
-0.0271506
-0.769908
0.771366
0.028393
-0.0293972
-0.655293
0.656297
0.0293279
-0.027344
-0.545842
0.543858
0.0229432
-0.0159296
-0.391181
0.384167
0.00940104
-0.003883
-0.191807
0.186289
0.00100145
-0.0320499
0.0310484
-0.0320965
0.0314761
0.000620421
-0.00630301
0.0110187
-0.259913
0.255198
-0.0164129
0.0199718
-0.432222
0.428663
-0.0215436
0.0213113
-0.553413
0.553645
-0.0200457
0.0184243
-0.654657
0.656279
-0.0164989
0.014612
-0.770918
0.772805
-0.0123854
0.0101993
-0.913065
0.915251
-0.00762772
0.00511952
-1.08531
1.08782
-0.00218982
-0.000650279
-1.29368
1.29652
0.0039421
-0.00710661
-1.54664
1.54981
0.0101449
-0.0130603
-1.54646
1.54938
0.0153978
-0.0176468
-1.29327
1.29552
0.0194452
-0.0211773
-1.08506
1.08679
0.0226046
-0.0240583
-0.91339
0.914844
0.0253052
-0.026589
-0.772727
0.774011
0.0276874
-0.028271
-0.657088
0.657672
0.027829
-0.0252801
-0.541605
0.539056
0.0206299
-0.0139437
-0.377327
0.370641
0.00812519
-0.00335211
-0.181181
0.176408
0.000869075
-0.0301231
0.029254
-0.0309358
0.0304584
0.000477416
-0.0050101
0.008933
-0.250906
0.246983
-0.0136891
0.017096
-0.42519
0.421783
-0.0188478
0.0188038
-0.553828
0.553872
-0.0177281
0.0161396
-0.657948
0.659536
-0.0142338
0.0123604
-0.774667
0.776541
-0.0101521
0.00799003
-0.917336
0.919498
-0.00545456
0.0029897
-1.09022
1.09268
-0.000123074
-0.00263783
-1.29926
1.30202
0.00580949
-0.00882472
-1.55286
1.55587
0.0116866
-0.0144009
-1.55216
1.55487
0.0165527
-0.018597
-1.29767
1.29971
0.0202032
-0.0217191
-1.08852
1.09004
0.0229588
-0.0242298
-0.916217
0.917488
0.0253286
-0.0264544
-0.775206
0.776332
0.027353
-0.0275712
-0.658068
0.658287
0.0267189
-0.0236894
-0.53628
0.533251
0.0188852
-0.012515
-0.364131
0.35776
0.00723471
-0.0029883
-0.17193
0.167684
0.000779967
-0.0284386
0.0276586
-0.0300494
0.0296931
0.0003563
-0.00392571
0.0071517
-0.243434
0.240208
-0.0112581
0.0144034
-0.418525
0.415379
-0.0162096
0.0163191
-0.553891
0.553782
-0.0153219
0.0138058
-0.661159
0.662675
-0.0118934
0.0100006
-0.7784
0.780292
-0.00776983
0.00559358
-0.921566
0.923743
-0.0030554
0.000603697
-1.09505
1.0975
0.00222848
-0.00493721
-1.30469
1.30739
0.00802365
-0.010925
-1.55879
1.56169
0.0136395
-0.016168
-1.55747
1.55999
0.0181346
-0.019969
-1.30165
1.30348
0.021381
-0.0226856
-1.09158
1.09289
0.023746
-0.0248422
-0.918679
0.919775
0.0257952
-0.026751
-0.77736
0.778316
0.0273903
-0.0273164
-0.658373
0.658299
0.0260208
-0.0225597
-0.530016
0.526555
0.0176436
-0.0115323
-0.351545
0.345434
0.00663929
-0.00275164
-0.163646
0.159758
0.000724029
-0.0269157
0.0261917
-0.0293982
0.0291502
0.00024803
-0.00297387
0.00557036
-0.237321
0.234724
-0.00902759
0.0118283
-0.41243
0.409629
-0.0135734
0.0137596
-0.553694
0.553508
-0.0128012
0.0113218
-0.664252
0.665731
-0.00937601
0.00743268
-0.782178
0.784121
-0.00514423
0.00292169
-0.925827
0.92805
-0.000343676
-0.00213099
-1.09986
1.10233
0.00496827
-0.00765562
-1.31002
1.3127
0.0106803
-0.0134806
-1.5645
1.5673
0.0160564
-0.0184097
-1.5624
1.56475
0.0202039
-0.0218395
-1.30521
1.30685
0.0230575
-0.0241414
-1.09424
1.09533
0.0250142
-0.0259338
-0.920792
0.921712
0.0267445
-0.0275382
-0.77916
0.779954
0.0278891
-0.0275222
-0.65808
0.657713
0.0257718
-0.0218893
-0.522907
0.519024
0.0168587
-0.0109209
-0.339444
0.333506
0.00628058
-0.00261627
-0.15601
0.152346
0.000694678
-0.0254916
0.0247969
-0.0289606
0.0288156
0.000145043
-0.00209094
0.00409584
-0.232446
0.230441
-0.00689915
0.00928628
-0.407063
0.404676
-0.0108647
0.0110517
-0.553395
0.553208
-0.0101009
0.00862294
-0.667305
0.668783
-0.00661947
0.00459877
-0.786059
0.78808
-0.00221775
-8.74369e-05
-0.930181
0.932486
0.00274838
-0.00528482
-1.10472
1.10726
0.00816677
-0.0108662
-1.31531
1.31801
0.0138633
-0.0165897
-1.57001
1.57273
0.0190448
-0.0212324
-1.56698
1.56917
0.0228585
-0.024299
-1.30837
1.30981
0.0253241
-0.0261791
-1.0965
1.09736
0.0268521
-0.0275759
-0.922534
0.923258
0.0282304
-0.0288774
-0.780608
0.781255
0.0289099
-0.0281539
-0.657139
0.656383
0.0259457
-0.0216467
-0.514981
0.510682
0.0164764
-0.0106179
-0.327649
0.32179
0.00611314
-0.00256186
-0.148767
0.145215
0.000686426
-0.0241159
0.0234295
-0.0287291
0.0286882
4.08669e-05
-0.00122922
0.0026566
-0.228746
0.227319
-0.00479197
0.00670132
-0.402559
0.40065
-0.00800826
0.00811265
-0.553152
0.553047
-0.00712136
0.00560617
-0.670389
0.671904
-0.00350336
0.00136854
-0.790098
0.792233
0.00114797
-0.00357373
-0.934702
0.937128
0.00635646
-0.00898975
-1.10971
1.11234
0.0119562
-0.0147038
-1.32065
1.32339
0.0177074
-0.0203824
-1.57538
1.57805
0.0227297
-0.0247561
-1.57123
1.57325
0.0262099
-0.0274439
-1.31111
1.31235
0.028259
-0.0288771
-1.09834
1.09896
0.0293435
-0.0298608
-0.923887
0.924404
0.030347
-0.0307759
-0.78168
0.782109
0.0305283
-0.0292974
-0.655423
0.654193
0.0266011
-0.0218541
-0.506227
0.50148
0.0164851
-0.0105954
-0.315965
0.310075
0.00611486
-0.00257866
-0.141701
0.138165
0.000696917
-0.022748
0.0220511
-0.0287069
0.0287735
-6.65747e-05
-0.00034786
0.00118957
-0.226201
0.225359
-0.00262787
0.00399397
-0.399045
0.397679
-0.0049269
0.00486219
-0.553139
0.553204
-0.00376999
0.00215734
-0.673599
0.675212
8.14275e-05
-0.00236983
-0.794369
0.796658
0.00506512
-0.00765283
-0.939463
0.942051
0.0106065
-0.0133825
-1.1149
1.11768
0.0164793
-0.0193095
-1.32608
1.32891
0.0223485
-0.0249909
-1.58065
1.58329
0.0272402
-0.029104
-1.57514
1.57701
0.0303803
-0.0314021
-1.31343
1.31445
0.0320091
-0.0323845
-1.09973
1.1001
0.0326348
-0.0329306
-0.924818
0.925114
0.0332212
-0.033354
-0.782218
0.782351
0.0327976
-0.0310207
-0.652771
0.650994
0.0277801
-0.0225256
-0.496572
0.491317
0.0168765
-0.0108358
-0.304166
0.298125
0.00627144
-0.00265979
-0.134623
0.131011
0.000724092
-0.0213515
0.0206274
-0.0289102
0.0290964
-0.000186172
0.000582841
-0.000363155
-0.224837
0.224617
-0.000327355
0.00107019
-0.396644
0.395902
-0.00151962
0.00119733
-0.553536
0.553858
5.79491e-05
-0.00181882
-0.677055
0.678816
0.00423834
-0.00672542
-0.798947
0.801434
0.00965554
-0.0124587
-0.944553
0.947356
0.0156394
-0.0186044
-1.12039
1.12336
0.0218777
-0.0248301
-1.33168
1.33464
0.027944
-0.0305823
-1.58586
1.5885
0.0327484
-0.0344503
-1.57873
1.58043
0.0355432
-0.0363328
-1.31529
1.31608
0.0367115
-0.0368286
-1.10063
1.10075
0.0368476
-0.0369075
-0.925288
0.925348
0.0370021
-0.0367455
-0.782115
0.781859
0.0357961
-0.0333992
-0.649048
0.646651
0.0295403
-0.0236877
-0.485879
0.480026
0.0176522
-0.0113282
-0.292006
0.285682
0.00657236
-0.00279952
-0.127352
0.123579
0.000766164
-0.0198936
0.0191274
-0.0293669
0.0297013
-0.000334356
0.0016209
-0.00204154
-0.224744
0.225165
0.00219407
-0.00217099
-0.395509
0.395485
0.00233845
-0.00302953
-0.554555
0.555246
0.00451974
-0.00649723
-0.680869
0.682846
0.00917657
-0.011927
-0.803925
0.806675
0.0151553
-0.0182268
-0.950075
0.953147
0.0216904
-0.0248949
-1.12626
1.12947
0.0283962
-0.0315068
-1.33754
1.34065
0.0347164
-0.0373494
-1.59106
1.59369
0.0394165
-0.0409352
-1.58197
1.58349
0.0418286
-0.0423827
-1.31665
1.3172
0.0425283
-0.0423626
-1.10099
1.10082
0.0421238
-0.041931
-0.925245
0.925052
0.0418111
-0.0410741
-0.7812
0.780463
0.0396465
-0.0365232
-0.644101
0.640978
0.0319386
-0.0253613
-0.473954
0.467377
0.0188105
-0.0120611
-0.279216
0.272467
0.00700638
-0.00299137
-0.119721
0.115706
0.000820861
-0.0183458
0.0175249
-0.030107
0.0306179
-0.000510843
0.00290423
-0.00408773
-0.225991
0.227174
0.00510709
-0.00588389
-0.395828
0.396605
0.00677986
-0.00794164
-0.556441
0.557603
0.00976889
-0.0120356
-0.685186
0.687453
0.0150536
-0.0181373
-0.809428
0.812512
0.0217401
-0.0251514
-0.956142
0.959553
0.0289748
-0.0324816
-1.13263
1.13613
0.036267
-0.0395748
-1.34372
1.34703
0.0429101
-0.0455505
-1.59625
1.59889
0.0475117
-0.0488222
-1.58483
1.58614
0.049473
-0.0497706
-1.31747
1.31777
0.0496569
-0.0491837
-1.10076
1.10028
0.0486677
-0.0482014
-0.924632
0.924166
0.0477402
-0.0465457
-0.779365
0.77817
0.0444845
-0.0404923
-0.637703
0.633711
0.0350394
-0.0275737
-0.460529
0.453063
0.0203539
-0.0130243
-0.265508
0.258179
0.00756209
-0.00322815
-0.111569
0.107235
0.00088558
-0.0166839
0.0157983
-0.0312044
0.031937
-0.000732689
0.00440731
-0.00647237
-0.22878
0.230845
0.00857743
-0.010263
-0.397826
0.399511
0.0119898
-0.0137397
-0.559439
0.561189
0.0160393
-0.0186895
-0.690155
0.692805
0.0221468
-0.0256469
-0.815596
0.819096
0.0297143
-0.0335432
-0.9629
0.966729
0.0378019
-0.0416696
-1.13961
1.14347
0.0457915
-0.0493309
-1.3503
1.35383
0.0528102
-0.0554541
-1.60144
1.60408
0.0572873
-0.0583515
-1.58725
1.58832
0.0587177
-0.0587106
-1.31769
1.31769
0.058304
-0.0574951
-1.09987
1.09906
0.0566766
-0.0559087
-0.923393
0.922625
0.0550295
-0.053294
-0.776647
0.774911
0.0504584
-0.0454046
-0.62956
0.624506
0.0388932
-0.0303306
-0.44526
0.436697
0.0222636
-0.0141908
-0.250568
0.242495
0.00821632
-0.00349682
-0.102746
0.0980269
0.000955875
-0.0148899
0.013934
-0.032741
0.033766
-0.00102497
0.00630849
-0.00943618
-0.23336
0.236487
0.0127911
-0.0155414
-0.401769
0.404519
0.0182465
-0.0207221
-0.563826
0.566302
0.0236501
-0.026821
-0.695981
0.699152
0.0308626
-0.0348891
-0.822608
0.826635
0.0395277
-0.0438584
-0.970503
0.974834
0.0486314
-0.0529154
-1.14731
1.1516
0.057408
-0.0611785
-1.35732
1.36109
0.0647632
-0.0673454
-1.6066
1.60918
0.0689764
-0.0697251
-1.58915
1.5899
0.0697501
-0.0693843
-1.31717
1.3168
0.0686743
-0.0674946
-1.09825
1.09707
0.0663355
-0.0652661
-0.921481
0.920411
0.0638476
-0.0614746
-0.772866
0.770493
0.0576885
-0.0513243
-0.619279
0.612915
0.043512
-0.0336008
-0.427719
0.417808
0.0244888
-0.0155088
-0.23407
0.22509
0.00892979
-0.00377676
-0.0931297
0.0879766
0.00102504
-0.0129556
0.0119306
-0.0348472
0.036274
-0.00142688
0.00878563
-0.0132737
-0.240055
0.244543
0.0181183
-0.0221
-0.40803
0.412012
0.0259366
-0.0292824
-0.569946
0.573291
0.0330129
-0.0368616
-0.702957
0.706806
0.0416508
-0.0463407
-0.830678
0.835368
0.0516782
-0.0566078
-0.979128
0.984058
0.0619739
-0.0667127
-1.15585
1.16059
0.0715784
-0.0755489
-1.36477
1.36874
0.0791734
-0.0816091
-1.61158
1.61401
0.0829407
-0.0832698
-1.59036
1.59069
0.0828852
-0.082053
-1.31581
1.31497
0.0809708
-0.0793993
-1.0958
1.09422
0.0779082
-0.0764007
-0.918854
0.917346
0.0744672
-0.071226
-0.767778
0.764536
0.0662535
-0.0582583
-0.606343
0.598348
0.048842
-0.0372871
-0.407396
0.395841
0.0269219
-0.0168865
-0.215698
0.205663
0.00963871
-0.00403689
-0.0826378
0.077036
0.00108357
-0.0108876
0.00980408
-0.0377187
0.0397231
-0.00200446
0.0122443
-0.0184504
-0.249394
0.2556
0.0250893
-0.0305091
-0.417099
0.422518
0.0356823
-0.0400933
-0.578176
0.582587
0.0448373
-0.0495668
-0.711411
0.716141
0.0553124
-0.0608152
-0.840068
0.845571
0.0669735
-0.072571
-0.988962
0.994559
0.0785552
-0.0837232
-1.16527
1.17043
0.0888843
-0.092944
-1.37255
1.37661
0.09645
-0.0985705
-1.61618
1.6183
0.099443
-0.0992099
-1.59063
1.5904
0.0983227
-0.0969245
-1.31344
1.31204
0.0954096
-0.0934195
-1.09244
1.09045
0.091554
-0.0894876
-0.915207
0.913141
0.0869982
-0.0826436
-0.760881
0.756526
0.0761677
-0.0661243
-0.590078
0.580035
0.0547307
-0.0411995
-0.383706
0.370175
0.0293803
-0.0181831
-0.195181
0.183984
0.0102518
-0.00423555
-0.0712644
0.0652482
0.00111946
-0.00871252
0.00759305
-0.0416817
0.0445764
-0.00289464
0.0172761
-0.0257411
-0.262101
0.270566
0.0345914
-0.0417344
-0.429652
0.436795
0.0485214
-0.0542269
-0.589016
0.594722
0.0602968
-0.0661894
-0.721777
0.72767
0.0731301
-0.0795757
-0.851057
0.857502
0.0866112
-0.092854
-1.00011
1.00635
0.0993584
-0.104807
-1.17546
1.18091
0.110042
-0.113948
-1.38038
1.38429
0.117042
-0.118575
-1.61999
1.62153
0.118744
-0.117743
-1.58968
1.58868
0.1162
-0.114156
-1.30988
1.30784
0.112139
-0.109702
-1.08808
1.08564
0.107445
-0.104715
-0.910289
0.907559
0.101496
-0.0956639
-0.751612
0.74578
0.0872529
-0.0746464
-0.56961
0.557004
0.0608464
-0.0450033
-0.356022
0.340179
0.0315763
-0.019196
-0.17236
0.15998
0.0106464
-0.00432026
-0.0591144
0.0527882
0.00111834
-0.00648114
0.0053628
-0.047309
0.0517072
-0.00439817
0.0250491
-0.0365796
-0.279349
0.290879
0.0483012
-0.0577607
-0.446718
0.456178
0.0665907
-0.0738553
-0.603073
0.610338
0.0815033
-0.0889012
-0.73447
0.741868
0.0970684
-0.104375
-0.863849
0.871156
0.112113
-0.118769
-1.01244
1.0191
0.12546
-0.130835
-1.18603
1.1914
0.135723
-0.139086
-1.38769
1.39106
0.141352
-0.14194
-1.62244
1.62303
0.141097
-0.139059
-1.58705
1.58501
0.136665
-0.13383
-1.30493
1.3021
0.131225
-0.128309
-1.08261
1.07969
0.125533
-0.122146
-0.903938
0.900551
0.117854
-0.11003
-0.739171
0.731347
0.099092
-0.0833017
-0.54385
0.52806
0.0666476
-0.0482186
-0.323758
0.305329
0.0331343
-0.0196854
-0.147297
0.133849
0.0106873
-0.00423665
-0.0464457
0.039995
0.00106532
-0.00427084
0.00320553
-0.055682
0.0631718
-0.00748975
0.0385709
-0.0546031
-0.303291
0.319324
0.0703897
-0.0830791
-0.46997
0.482659
0.0940911
-0.102747
-0.620797
0.629453
0.111933
-0.120641
-0.749835
0.758543
0.12979
-0.137526
-0.878151
0.885888
0.145356
-0.151802
-1.02532
1.03176
0.158002
-0.162679
-1.19614
1.20082
0.166583
-0.168822
-1.39362
1.39585
0.169693
-0.168849
-1.62273
1.62189
0.166599
-0.163232
-1.58219
1.57883
0.159778
-0.155975
-1.29829
1.29449
0.152694
-0.149251
-1.07587
1.07243
0.1459
-0.141609
-0.895905
0.891614
0.135733
-0.125126
-0.722369
0.711762
0.11083
-0.0911313
-0.511413
0.491715
0.0713407
-0.0502946
-0.286537
0.265491
0.0337122
-0.019492
-0.120413
0.106193
0.0102994
-0.00395517
-0.0336953
0.0273511
0.00094284
-0.00218045
0.00123761
-0.0701297
0.0743031
-0.00417339
0.0293756
-0.0433924
-0.337897
0.351914
0.0574946
-0.0692171
-0.500839
0.512562
0.0796897
-0.0894776
-0.641854
0.651642
0.10043
-0.110645
-0.766676
0.77689
0.122031
-0.132111
-0.892574
0.902655
0.142836
-0.15238
-1.03729
1.04683
0.162395
-0.171009
-1.20442
1.21304
0.179627
-0.186538
-1.39693
1.40384
0.192761
-0.196879
-1.61987
1.62399
0.198882
-0.199381
-1.57446
1.57495
0.198747
-0.197485
-1.2896
1.28833
0.196448
-0.194928
-1.06756
1.06604
0.193083
-0.188661
-0.885302
0.88088
0.180305
-0.16413
-0.699431
0.683256
0.142152
-0.113206
-0.471029
0.442082
0.0857551
-0.0581037
-0.244476
0.216825
0.0375872
-0.0209475
-0.0926403
0.0760006
0.0106435
-0.00387918
-0.0214614
0.014697
0.000845764
-0.0002832
-0.000562565
-0.0817344
0.079789
0.00194544
0.00774714
-0.0167857
-0.36862
0.377658
0.0274797
-0.0359563
-0.528876
0.537353
0.0444956
-0.0525881
-0.664202
0.672294
0.062557
-0.0719914
-0.786566
0.796001
0.0821273
-0.0913578
-0.912076
0.921306
0.101161
-0.109534
-1.05607
1.06444
0.118493
-0.125812
-1.22141
1.22873
0.133073
-0.138601
-1.41039
1.41591
0.143068
-0.145654
-1.6273
1.62988
0.146234
-0.145357
-1.57488
1.574
0.143324
-0.140593
-1.28633
1.2836
0.138161
-0.135503
-1.06216
1.0595
0.132513
-0.127125
-0.872027
0.866639
0.118036
-0.103261
-0.663155
0.648381
0.0857292
-0.0648735
-0.411496
0.390641
0.0469436
-0.0307328
-0.189673
0.173462
0.0194654
-0.0107585
-0.06041
0.0517031
0.00545075
-0.00199753
-0.00810341
0.00465019
0.000429609
0.00165653
-0.00208614
-0.083159
0.0802467
0.00291231
-0.0012311
-0.00390816
-0.389445
0.394584
0.0109881
-0.0171672
-0.549682
0.555862
0.0234492
-0.030436
-0.683028
0.690015
0.0390761
-0.0472403
-0.804484
0.812648
0.0562243
-0.0642421
-0.929682
0.9377
0.0725028
-0.0799248
-1.07261
1.08004
0.0876453
-0.0940255
-1.23558
1.24196
0.099881
-0.104111
-1.42074
1.42497
0.107437
-0.108763
-1.63175
1.63307
0.108103
-0.106006
-1.5725
1.5704
0.102996
-0.0993844
-1.2804
1.27679
0.0956912
-0.0917975
-1.05445
1.05056
0.0877452
-0.0819129
-0.857063
0.851231
0.0736038
-0.061393
-0.630727
0.618516
0.0486135
-0.0349577
-0.368404
0.354748
0.0246396
-0.0161375
-0.157051
0.148549
0.0105065
-0.00617596
-0.0430124
0.0386818
0.0033644
-0.00136952
-0.000954034
-0.00104085
0.000343947
0.00275958
-0.00310353
-0.0818923
0.0790539
0.00283846
-0.00510819
0.00257893
-0.403237
0.405766
0.00198723
-0.00662496
-0.565103
0.569741
0.0118871
-0.0177241
-0.698469
0.704306
0.025109
-0.0320862
-0.820125
0.827102
0.0397252
-0.0465669
-0.945114
0.951956
0.0539956
-0.060245
-1.08698
1.09323
0.0669054
-0.0719249
-1.24788
1.2529
0.076786
-0.0801267
-1.4289
1.43224
0.0823013
-0.082384
-1.63389
1.63397
0.0809084
-0.0780161
-1.56766
1.56477
0.0742995
-0.0695369
-1.27266
1.2679
0.065055
-0.0601343
-1.04478
1.03986
0.0550584
-0.0491421
-0.840992
0.835075
0.0417294
-0.0324531
-0.603686
0.59441
0.023933
-0.0162282
-0.340074
0.33237
0.0112336
-0.00761687
-0.139341
0.135724
0.00528758
-0.00346373
-0.0338153
0.0319915
0.00208545
-0.000956238
0.00344527
-0.00457448
0.000272216
0.00364503
-0.00391724
-0.0803181
0.0777953
0.00252276
-0.00641807
0.0055179
-0.412427
0.413327
-0.00211521
-0.00131182
-0.577394
0.580821
0.00548547
-0.0107429
-0.711399
0.716657
0.0169217
-0.0230244
-0.833342
0.839445
0.0296056
-0.035514
-0.958291
0.9642
0.0418399
-0.0473335
-1.0993
1.1048
0.0528897
-0.0573613
-1.25772
1.26219
0.0613456
-0.0639092
-1.43513
1.43769
0.0652368
-0.0645482
-1.63377
1.63308
0.0623405
-0.0585268
-1.56103
1.55722
0.0541858
-0.0488772
-1.26279
1.25749
0.0437371
-0.0378923
-1.03344
1.02759
0.0323733
-0.0263437
-0.825152
0.819123
0.0201487
-0.013252
-0.582969
0.576073
0.0080356
-0.00439717
-0.323212
0.319573
0.00269262
-0.00195994
-0.130815
0.130082
0.00166515
-0.00140572
-0.0294359
0.0291765
0.00103779
-0.000574867
0.00605393
-0.00651685
0.0001974
0.00433753
-0.00453493
-0.0788254
0.0766552
0.00217024
-0.00644097
0.00608206
-0.418666
0.419025
-0.00407523
0.00131168
-0.586826
0.589589
0.00273645
-0.00721829
-0.722299
0.72678
0.0124907
-0.0177491
-0.844723
0.849982
0.023551
-0.0287884
-0.969709
0.974947
0.0345162
-0.0392672
-1.10997
1.11472
0.0441619
-0.0480559
-1.26631
1.27021
0.051373
-0.0533422
-1.43989
1.44186
0.0540022
-0.0530992
-1.63217
1.63127
0.0503243
-0.0461527
-1.55281
1.54863
0.0413612
-0.0355571
-1.25175
1.24595
0.0301946
-0.0237295
-1.02076
1.0143
0.0177747
-0.0117431
-0.80994
0.803909
0.00634929
-0.00117029
-0.567129
0.56195
-0.00196462
0.00328892
-0.313686
0.312362
-0.0030138
0.00213507
-0.127897
0.128776
-0.0013323
0.000518397
-0.0284071
0.029221
-6.23347e-05
-0.000124989
0.00715192
-0.0069646
8.26133e-05
0.00479586
-0.00487848
-0.0776489
0.075941
0.00170785
-0.00565328
0.00566371
-0.423219
0.423208
-0.00403583
0.00198506
-0.595007
0.597058
0.001779
-0.00582403
-0.731685
0.73573
0.0107812
-0.0152715
-0.854836
0.859326
0.0203206
-0.0249156
-0.980108
0.984703
0.0302788
-0.0345153
-1.11946
1.1237
0.0387639
-0.0423184
-1.27386
1.27741
0.0455913
-0.0471832
-1.44376
1.44535
0.0476023
-0.0462885
-1.62986
1.62854
0.0435235
-0.0388281
-1.54411
1.53941
0.0339846
-0.0281059
-1.23979
1.23391
0.0223871
-0.0159114
-1.00726
1.00078
0.00978443
-0.0035449
-0.795251
0.789011
-0.000992111
0.00522812
-0.554346
0.55011
-0.00744132
0.00760301
-0.308354
0.308193
-0.00658278
0.00504546
-0.128324
0.129861
-0.00354425
0.0020363
-0.0296185
0.0311264
-0.00100394
0.000302082
0.00685151
-0.00614965
-3.44423e-05
0.00494701
-0.00491256
-0.0769636
0.0756181
0.00134557
-0.00461913
0.00479569
-0.426744
0.426568
-0.00333978
0.00141364
-0.602057
0.603983
0.00212542
-0.00574431
-0.740048
0.743667
0.00994786
-0.0142291
-0.863775
0.868056
0.0188421
-0.0235243
-0.989057
0.993739
0.0280727
-0.03204
-1.128
1.13196
0.0363131
-0.0395152
-1.28079
1.28399
0.0421503
-0.0439778
-1.44677
1.4486
0.0443302
-0.0430349
-1.6272
1.62591
0.0401075
-0.035618
-1.53479
1.5303
0.0307688
-0.0248697
-1.22757
1.22167
0.0192286
-0.0127501
-0.99374
0.987262
0.00669479
-0.000659734
-0.781078
0.775043
-0.00395925
0.00757028
-0.543331
0.53972
-0.0093606
0.00942725
-0.305226
0.305159
-0.00823659
0.00640276
-0.13006
0.131894
-0.00472248
0.00293094
-0.0321672
0.0339587
-0.00160944
0.000606083
0.00551909
-0.00451572
-0.000128839
0.00482851
-0.00469967
-0.0768152
0.0756863
0.00112887
-0.003341
0.00329344
-0.429839
0.429886
-0.0020675
0.000187271
-0.60846
0.61034
0.00308545
-0.00656285
-0.747763
0.751241
0.0105564
-0.0143955
-0.872147
0.875986
0.019084
-0.022914
-0.997793
1.00162
0.0273728
-0.031103
-1.13606
1.13979
0.0351742
-0.0384711
-1.28712
1.29042
0.0412758
-0.0427482
-1.45012
1.45159
0.0432572
-0.0421372
-1.62445
1.62333
0.0396163
-0.0351854
-1.52561
1.52118
0.0305524
-0.0248285
-1.21579
1.21007
0.0193785
-0.013012
-0.980275
0.973908
0.0072274
-0.00117429
-0.767508
0.761455
-0.00340746
0.00688371
-0.533421
0.529945
-0.00879189
0.00909544
-0.302576
0.302272
-0.00833826
0.00677347
-0.132215
0.133779
-0.00519433
0.00337538
-0.035198
0.037017
-0.0019595
0.000805488
0.00363788
-0.00248387
-0.000204283
0.00452526
-0.00432098
-0.0769605
0.0761591
0.000801381
-0.00218456
0.00166097
-0.432979
0.433503
-0.000618248
-0.00134477
-0.614087
0.61605
0.00427757
-0.00760511
-0.754898
0.758225
0.0114068
-0.0153516
-0.879706
0.88365
0.0193801
-0.0233397
-1.00563
1.00959
0.0277134
-0.0311807
-1.14391
1.14738
0.0352845
-0.0384696
-1.29347
1.29665
0.0412353
-0.0431426
-1.45343
1.45534
0.0440104
-0.043027
-1.62219
1.62121
0.0405757
-0.0367099
-1.51688
1.51301
0.0324952
-0.0270127
-1.20418
1.1987
0.0217173
-0.0158313
-0.967293
0.961407
0.00992124
-0.00414439
-0.754231
0.748454
-0.000535289
0.00422548
-0.523962
0.520272
-0.00615346
0.00703266
-0.299521
0.298642
-0.00684906
0.00591927
-0.13385
0.13478
-0.0047001
0.00319733
-0.0381185
0.0396213
-0.00194394
0.000847508
0.00155212
-0.000455686
-0.000232457
0.00408828
-0.00385582
-0.0775262
0.0768943
0.000631925
-0.0011979
0.00070522
-0.436323
0.436815
0.000863393
-0.00267947
-0.619774
0.62159
0.0057754
-0.0089635
-0.76149
0.764678
0.0126054
-0.0161288
-0.887274
0.890798
0.0202605
-0.0238768
-1.01352
1.01714
0.0281643
-0.0320422
-1.15128
1.15516
0.0357376
-0.0392069
-1.29985
1.30332
0.0423405
-0.0442686
-1.45709
1.45902
0.0454155
-0.045111
-1.6204
1.62009
0.0430156
-0.039667
-1.50897
1.50562
0.0355869
-0.0305148
-1.19324
1.18817
0.0256291
-0.019915
-0.955001
0.949286
0.0144127
-0.00870922
-0.741519
0.735816
0.0039297
0.000211053
-0.514225
0.510084
-0.00265426
0.00399652
-0.295624
0.294281
-0.00450237
0.00421538
-0.134355
0.134642
-0.00354695
0.00255018
-0.0403408
0.0413376
-0.00162547
0.000750033
-0.000331908
0.00120735
-0.000222148
0.00362244
-0.00340029
-0.0783892
0.0779374
0.00045173
-0.000111789
-0.000572182
-0.439827
0.44051
0.00201165
-0.00413738
-0.625057
0.627182
0.00716245
-0.0101913
-0.767815
0.770844
0.0139215
-0.0172876
-0.894305
0.897671
0.0212449
-0.0249667
-1.02122
1.02494
0.0291406
-0.0329594
-1.15886
1.16268
0.0368488
-0.0403165
-1.30668
1.31014
0.0435953
-0.0462322
-1.4612
1.46384
0.0477594
-0.0476882
-1.61969
1.61962
0.0462064
-0.0431052
-1.50213
1.49903
0.0395353
-0.0350099
-1.18304
1.17852
0.0302217
-0.0248043
-0.943253
0.937836
0.0195403
-0.0138154
-0.729209
0.723484
0.00902715
-0.00441342
-0.504279
0.499665
0.00148182
0.000622633
-0.290741
0.288637
-0.0016853
0.00207031
-0.133537
0.133152
-0.0020211
0.00159769
-0.0415142
0.0419377
-0.00109546
0.000542896
-0.00172049
0.00227305
-0.000170438
0.00320371
-0.00303327
-0.0794953
0.0791714