/*--------------------------------*- C++ -*----------------------------------*\
  =========                 |
  \\      /  F ield         | OpenFOAM: The Open Source CFD Toolbox
   \\    /   O peration     | Website:  https://openfoam.org
    \\  /    A nd           | Version:  6
     \\/     M anipulation  |
\*---------------------------------------------------------------------------*/
FoamFile
{
    version     2.0;
    format      ascii;
    class       volVectorField;
    location    "69";
    object      U;
}
// * * * * * * * * * * * * * * * * * * * * * * * * * * * * * * * * * * * * * //

dimensions      [0 1 -1 0 0 0 0];

internalField   nonuniform List<vector> 
8800
(
(0.987184 -0.0766662 0)
(1.00189 -0.0551919 0)
(0.999722 -0.0285505 0)
(1.00003 -0.0151463 0)
(1.00009 -0.00854854 0)
(1.00011 -0.0050517 0)
(1.00007 -0.00300662 0)
(1.00003 -0.00170578 0)
(0.999998 -0.000798913 0)
(1.00006 -8.2033e-05 0)
(0.999977 0.000648292 0)
(0.999987 0.00141591 0)
(1.00003 0.00243602 0)
(1.00005 0.00400421 0)
(1.00004 0.00663465 0)
(1.00002 0.0113726 0)
(0.999908 0.0208154 0)
(0.999154 0.0386715 0)
(1.0071 0.0724574 0)
(0.771213 0.0366613 0)
(0.363065 -0.0160177 0)
(1.04331 -0.0768189 0)
(1.08459 -0.070452 0)
(1.04519 -0.0535495 0)
(1.02328 -0.0389038 0)
(1.01202 -0.0262291 0)
(1.00642 -0.0168702 0)
(1.00359 -0.0103396 0)
(1.00215 -0.00567932 0)
(1.00145 -0.00202014 0)
(1.0013 0.00130395 0)
(1.00167 0.0046888 0)
(1.00265 0.00862339 0)
(1.00466 0.0139559 0)
(1.00859 0.021662 0)
(1.01655 0.0326316 0)
(1.03247 0.0465453 0)
(1.06264 0.0616623 0)
(1.09187 0.0760999 0)
(0.838672 0.0565614 0)
(0.216837 -0.00243029 0)
(1.07589 -0.0501421 0)
(1.09987 -0.0483195 0)
(1.06463 -0.0404747 0)
(1.04003 -0.0336196 0)
(1.02391 -0.0261006 0)
(1.01411 -0.0185189 0)
(1.00855 -0.0116984 0)
(1.00558 -0.00582837 0)
(1.00432 -0.000407521 0)
(1.00466 0.00484225 0)
(1.00658 0.010236 0)
(1.0106 0.0163262 0)
(1.01794 0.0233463 0)
(1.03052 0.030812 0)
(1.05061 0.0378438 0)
(1.08033 0.044528 0)
(1.10625 0.0513438 0)
(0.942526 0.0416165 0)
(0.216153 0.00246164 0)
(0.175158 -0.000816989 0)
(1.01767 -0.0354922 0)
(1.10518 -0.041392 0)
(1.07825 -0.0360787 0)
(1.05345 -0.0301467 0)
(1.03619 -0.024573 0)
(1.02399 -0.0188461 0)
(1.01587 -0.0127653 0)
(1.01101 -0.00657428 0)
(1.0088 -0.000235307 0)
(1.00937 0.00602387 0)
(1.01263 0.0120269 0)
(1.01886 0.0178597 0)
(1.02877 0.0234271 0)
(1.04319 0.0287281 0)
(1.06371 0.0342139 0)
(1.09354 0.040199 0)
(1.0934 0.041962 0)
(0.827142 0.022914 0)
(0.174004 0.000852999 0)
(0.153952 -0.000610894 0)
(0.956148 -0.0254669 0)
(1.10344 -0.0351427 0)
(1.08766 -0.0326691 0)
(1.0617 -0.0280182 0)
(1.04409 -0.022996 0)
(1.03163 -0.0177498 0)
(1.02278 -0.012217 0)
(1.01696 -0.00627809 0)
(1.01411 0.000196153 0)
(1.01478 0.00666263 0)
(1.01875 0.0125495 0)
(1.02579 0.0178396 0)
(1.0361 0.0227493 0)
(1.05064 0.0275105 0)
(1.07188 0.0320448 0)
(1.10005 0.0359789 0)
(1.06807 0.0340368 0)
(0.739519 0.0143165 0)
(0.152213 0.00065175 0)
(0.139575 -0.000467114 0)
(0.899235 -0.019085 0)
(1.09575 -0.0300936 0)
(1.09572 -0.0292051 0)
(1.06923 -0.0254745 0)
(1.05079 -0.0213355 0)
(1.03787 -0.0165631 0)
(1.02875 -0.0112752 0)
(1.02264 -0.00552748 0)
(1.0195 0.000804689 0)
(1.02011 0.00712004 0)
(1.0242 0.0127606 0)
(1.03136 0.0177239 0)
(1.04188 0.0221777 0)
(1.05699 0.0261446 0)
(1.07919 0.0296112 0)
(1.10225 0.0322356 0)
(1.03595 0.0281312 0)
(0.672925 0.0102168 0)
(0.13712 0.000514251 0)
(0.129032 -0.00036169 0)
(0.849638 -0.0147218 0)
(1.08336 -0.0259601 0)
(1.1014 -0.0262541 0)
(1.07608 -0.0229687 0)
(1.05712 -0.0193246 0)
(1.04373 -0.0150784 0)
(1.03427 -0.0101524 0)
(1.0279 -0.00461526 0)
(1.02457 0.00153987 0)
(1.02504 0.00764522 0)
(1.02907 0.0130082 0)
(1.03635 0.01756 0)
(1.04715 0.0214073 0)
(1.06266 0.0247105 0)
(1.0853 0.0276577 0)
(1.10134 0.0294098 0)
(1.001 0.0236239 0)
(0.621048 0.00785606 0)
(0.125703 0.000417156 0)
(0.120988 -0.000280984 0)
(0.807497 -0.0115629 0)
(1.06809 -0.0223481 0)
(1.10493 -0.0236141 0)
(1.08233 -0.0207404 0)
(1.06296 -0.0173088 0)
(1.0493 -0.0133687 0)
(1.03955 -0.00878107 0)
(1.0329 -0.00351492 0)
(1.02932 0.00242264 0)
(1.0296 0.00827999 0)
(1.03359 0.0132957 0)
(1.04093 0.017374 0)
(1.05183 0.0207101 0)
(1.06755 0.0236045 0)
(1.09053 0.0262534 0)
(1.09754 0.0271094 0)
(0.965675 0.0200938 0)
(0.57933 0.00632573 0)
(0.116598 0.000346947 0)
(0.114757 -0.000217721 0)
(0.772037 -0.00919881 0)
(1.05134 -0.0191669 0)
(1.10732 -0.0211703 0)
(1.0882 -0.0186654 0)
(1.06844 -0.0153779 0)
(1.05454 -0.0116006 0)
(1.0446 -0.00722168 0)
(1.03771 -0.00219448 0)
(1.03384 0.00349197 0)
(1.0339 0.00905246 0)
(1.03775 0.0136934 0)
(1.04503 0.0173552 0)
(1.05592 0.0202986 0)
(1.07184 0.0228668 0)
(1.09447 0.02517 0)
(1.09089 0.0252099 0)
(0.93127 0.0173757 0)
(0.544753 0.00528355 0)
(0.109077 0.000296619 0)
(0.109904 -0.000166769 0)
(0.742318 -0.00736241 0)
(1.03416 -0.0163448 0)
(1.10876 -0.0188643 0)
(1.09379 -0.0166644 0)
(1.07375 -0.0134664 0)
(1.05958 -0.00977531 0)
(1.04944 -0.00551772 0)
(1.04232 -0.000666259 0)
(1.03817 0.00477778 0)
(1.03792 0.0100221 0)
(1.04154 0.014302 0)
(1.04868 0.0175929 0)
(1.05953 0.0201893 0)
(1.07564 0.0224705 0)
(1.09711 0.024395 0)
(1.08178 0.023661 0)
(0.898344 0.0153185 0)
(0.515263 0.00456001 0)
(0.102657 0.000261446 0)
(0.106147 -0.000124366 0)
(0.717522 -0.00587969 0)
(1.0174 -0.0138104 0)
(1.10939 -0.016633 0)
(1.09929 -0.0147027 0)
(1.07898 -0.0115129 0)
(1.06452 -0.00785309 0)
(1.05416 -0.00365637 0)
(1.04678 0.00108439 0)
(1.04229 0.00632547 0)
(1.04167 0.0112727 0)
(1.04497 0.0152162 0)
(1.05192 0.018163 0)
(1.06272 0.0204165 0)
(1.07899 0.0224325 0)
(1.09842 0.0239485 0)
(1.07058 0.022468 0)
(0.867001 0.0138087 0)
(0.489399 0.00406587 0)
(0.0969961 0.000238509 0)
(0.103297 -8.755e-05 0)
(0.697009 -0.00463449 0)
(1.00167 -0.0114958 0)
(1.10935 -0.0144412 0)
(1.10463 -0.0127001 0)
(1.08422 -0.00947481 0)
(1.06944 -0.00578433 0)
(1.05881 -0.00158722 0)
(1.05112 0.00309452 0)
(1.04622 0.00819053 0)
(1.04514 0.0128863 0)
(1.04807 0.0165009 0)
(1.05478 0.0191007 0)
(1.06549 0.0210218 0)
(1.08189 0.0227762 0)
(1.0987 0.0238931 0)
(1.05757 0.021637 0)
(0.83707 0.012756 0)
(0.466067 0.00374506 0)
(0.0918333 0.000225257 0)
(0.101236 -5.3605e-05 0)
(0.680311 -0.00353939 0)
(0.98741 -0.00932973 0)
(1.10886 -0.0121976 0)
(1.1098 -0.0105615 0)
(1.08954 -0.00726825 0)
(1.07442 -0.00348786 0)
(1.06347 0.000769421 0)
(1.0554 0.00545275 0)
(1.04999 0.0104409 0)
(1.04836 0.0149004 0)
(1.05083 0.0182067 0)
(1.05726 0.0204606 0)
(1.06786 0.0220376 0)
(1.08429 0.0235251 0)
(1.09797 0.0242247 0)
(1.04289 0.0211837 0)
(0.808209 0.0120892 0)
(0.444404 0.00356006 0)
(0.0869644 0.000219828 0)
(0.0999035 -2.03083e-05 0)
(0.667127 -0.00252485 0)
(0.974993 -0.00723784 0)
(1.10825 -0.00985082 0)
(1.11494 -0.00824325 0)
(1.09504 -0.00484758 0)
(1.07953 -0.000916635 0)
(1.0682 0.00347386 0)
(1.05966 0.00822297 0)
(1.05364 0.0131588 0)
(1.05134 0.017416 0)
(1.05327 0.020421 0)
(1.05936 0.0223314 0)
(1.0698 0.0235508 0)
(1.08623 0.0247598 0)
(1.09599 0.0249969 0)
(1.02659 0.0210946 0)
(0.779977 0.011755 0)
(0.423706 0.00348552 0)
(0.0822251 0.000220679 0)
(0.0992843 1.44783e-05 0)
(0.657304 -0.00153635 0)
(0.96473 -0.00514864 0)
(1.10782 -0.00733321 0)
(1.12018 -0.00565848 0)
(1.10078 -0.00210183 0)
(1.08487 0.00205274 0)
(1.07308 0.00664034 0)
(1.06396 0.0115205 0)
(1.05721 0.0164587 0)
(1.05409 0.0205359 0)
(1.05536 0.0232341 0)
(1.06105 0.024769 0)
(1.07131 0.0256205 0)
(1.08762 0.0265146 0)
(1.09275 0.0262104 0)
(1.00861 0.0214108 0)
(0.751886 0.0117269 0)
(0.40338 0.00350784 0)
(0.0774799 0.000227273 0)
(0.0993961 4.67431e-05 0)
(0.650815 -0.000528847 0)
(0.956926 -0.00299152 0)
(1.10794 -0.00457904 0)
(1.12569 -0.00272308 0)
(1.10689 0.00106835 0)
(1.0905 0.00551727 0)
(1.07817 0.0103821 0)
(1.06835 0.0154688 0)
(1.0607 0.0204564 0)
(1.05662 0.0243689 0)
(1.05711 0.0267545 0)
(1.0623 0.0279175 0)
(1.07235 0.0283768 0)
(1.08824 0.028895 0)
(1.0879 0.0279378 0)
(0.988785 0.0221606 0)
(0.723384 0.0119897 0)
(0.382888 0.00361805 0)
(0.0726066 0.000238903 0)
(0.100303 9.12905e-05 0)
(0.64777 0.000514314 0)
(0.951898 -0.000683208 0)
(1.10897 -0.0015052 0)
(1.13167 0.000646827 0)
(1.11345 0.00475205 0)
(1.09655 0.00958773 0)
(1.08357 0.0148209 0)
(1.0729 0.020189 0)
(1.06416 0.0252922 0)
(1.05892 0.0290706 0)
(1.05848 0.0311287 0)
(1.0631 0.0318905 0)
(1.07286 0.0319321 0)
(1.08795 0.0320204 0)
(1.08124 0.0302639 0)
(0.966809 0.0233839 0)
(0.693863 0.0125341 0)
(0.361717 0.00380926 0)
(0.067495 0.000254878 0)
(0.102181 0.000149369 0)
(0.648526 0.00168432 0)
(0.950018 0.00185149 0)
(1.11134 0.00199958 0)
(1.1383 0.00459457 0)
(1.12063 0.00914308 0)
(1.10315 0.0144675 0)
(1.08937 0.0201597 0)
(1.07768 0.0258923 0)
(1.06762 0.0311449 0)
(1.06098 0.0347784 0)
(1.05943 0.0364716 0)
(1.06337 0.036821 0)
(1.07278 0.0364027 0)
(1.08647 0.0359975 0)
(1.07246 0.0332757 0)
(0.942264 0.0251113 0)
(0.662671 0.0133537 0)
(0.339391 0.00407347 0)
(0.0620504 0.0002743 0)
(0.105098 0.000212426 0)
(0.653519 0.00312857 0)
(0.951725 0.00477472 0)
(1.11554 0.00606661 0)
(1.14586 0.00924437 0)
(1.12859 0.0143784 0)
(1.11042 0.0203158 0)
(1.09567 0.0265916 0)
(1.08272 0.0327793 0)
(1.07106 0.0382318 0)
(1.06278 0.0417109 0)
(1.05995 0.042983 0)
(1.06305 0.0428801 0)
(1.07204 0.041953 0)
(1.0837 0.0410183 0)
(1.0612 0.0370782 0)
(0.914586 0.0273905 0)
(0.6291 0.0144419 0)
(0.315457 0.00440213 0)
(0.0561937 0.000296037 0)
(0.109344 0.000295952 0)
(0.663145 0.00481423 0)
(0.957491 0.00821781 0)
(1.12205 0.0108578 0)
(1.15462 0.0148064 0)
(1.13755 0.0207004 0)
(1.11854 0.0273977 0)
(1.1026 0.0343787 0)
(1.08808 0.0411065 0)
(1.07449 0.0467921 0)
(1.06426 0.05008 0)
(1.05995 0.0508608 0)
(1.06208 0.050252 0)
(1.07056 0.0487461 0)
(1.07968 0.0471993 0)
(1.04693 0.0417831 0)
(0.883052 0.0302408 0)
(0.59239 0.015775 0)
(0.289496 0.00477848 0)
(0.0498694 0.000318218 0)
(0.115258 0.000408811 0)
(0.678253 0.00692764 0)
(0.968009 0.0123835 0)
(1.13148 0.0166073 0)
(1.16492 0.0215645 0)
(1.14777 0.0284757 0)
(1.12769 0.0361021 0)
(1.11025 0.0439156 0)
(1.0938 0.0512416 0)
(1.07788 0.0571075 0)
(1.06536 0.0600804 0)
(1.05927 0.0602607 0)
(1.06037 0.0591148 0)
(1.06832 0.0569693 0)
(1.07412 0.0547201 0)
(1.02896 0.0474641 0)
(0.846785 0.0336568 0)
(0.551765 0.0173058 0)
(0.261177 0.00517558 0)
(0.0430609 0.000338205 0)
(0.123361 0.000565861 0)
(0.699753 0.00969225 0)
(0.98413 0.0175831 0)
(1.14447 0.0236512 0)
(1.1773 0.0298807 0)
(1.15956 0.0381055 0)
(1.13808 0.0468599 0)
(1.11871 0.0556352 0)
(1.09983 0.0635757 0)
(1.0811 0.0695358 0)
(1.06595 0.0720293 0)
(1.05786 0.0714421 0)
(1.05783 0.0696135 0)
(1.0652 0.0667484 0)
(1.06665 0.0635161 0)
(1.00643 0.0541768 0)
(0.804752 0.0375756 0)
(0.506491 0.0189414 0)
(0.230314 0.00555228 0)
(0.0358072 0.000352451 0)
(0.13439 0.000793877 0)
(0.728944 0.0134946 0)
(1.00701 0.0242856 0)
(1.1618 0.0325465 0)
(1.19232 0.040373 0)
(1.17329 0.0502826 0)
(1.14989 0.0603541 0)
(1.12799 0.0701419 0)
(1.10607 0.0785964 0)
(1.08402 0.0844132 0)
(1.06587 0.0861496 0)
(1.05562 0.0846049 0)
(1.05437 0.0819834 0)
(1.06085 0.078239 0)
(1.05654 0.0738401 0)
(0.978164 0.0619017 0)
(0.755815 0.0418419 0)
(0.455991 0.0205346 0)
(0.196969 0.00585137 0)
(0.0282223 0.000356811 0)
(0.149597 0.00115059 0)
(0.767806 0.0189591 0)
(1.03832 0.0332701 0)
(1.18445 0.0442265 0)
(1.21081 0.0542117 0)
(1.18928 0.0660899 0)
(1.16315 0.077588 0)
(1.1379 0.0882706 0)
(1.11224 0.0969096 0)
(1.08632 0.102109 0)
(1.06489 0.102645 0)
(1.05239 0.0998696 0)
(1.04988 0.0963225 0)
(1.055 0.091798 0)
(1.04295 0.0857266 0)
(0.942712 0.0704443 0)
(0.698849 0.0461672 0)
(0.40006 0.0218607 0)
(0.161573 0.00600019 0)
(0.0205134 0.000346664 0)
(0.17117 0.00176959 0)
(0.819582 0.0272145 0)
(1.08067 0.0460805 0)
(1.21355 0.0605555 0)
(1.23336 0.0733785 0)
(1.20763 0.0871198 0)
(1.1776 0.0998607 0)
(1.14801 0.110946 0)
(1.11787 0.11909 0)
(1.08762 0.122962 0)
(1.06273 0.121707 0)
(1.04797 0.117331 0)
(1.04427 0.112683 0)
(1.04762 0.107248 0)
(1.02469 0.0990453 0)
(0.898258 0.0794046 0)
(0.633056 0.0500962 0)
(0.339223 0.0226427 0)
(0.125094 0.00592268 0)
(0.0129959 0.000317612 0)
(0.202472 0.00312731 0)
(0.890019 0.0408685 0)
(1.13765 0.0665122 0)
(1.24949 0.0851315 0)
(1.25967 0.100674 0)
(1.22767 0.115741 0)
(1.19238 0.128787 0)
(1.15749 0.139139 0)
(1.12228 0.14567 0)
(1.08741 0.14719 0)
(1.05905 0.143398 0)
(1.04215 0.137019 0)
(1.03738 0.131026 0)
(1.03818 0.124537 0)
(1.00007 0.113415 0)
(0.842695 0.0880527 0)
(0.558642 0.0530194 0)
(0.275478 0.0226621 0)
(0.0893426 0.00558241 0)
(0.00615324 0.000264 0)
(0.245189 0.00933058 9.89123e-21)
(0.983095 0.067877 8.47025e-21)
(1.20688 0.101127 -2.94989e-21)
(1.2891 0.121613 0)
(1.28684 0.139775 -7.45015e-35)
(1.24722 0.15436 1.08778e-21)
(1.20592 0.165902 -1.95452e-21)
(1.16526 0.174071 0)
(1.12465 0.177891 4.00894e-35)
(1.08492 0.176247 -2.41245e-21)
(1.0529 0.169421 0)
(1.03379 0.160887 -2.86706e-21)
(1.02821 0.153766 -8.46294e-21)
(1.02529 0.146869 -4.00555e-21)
(0.964818 0.131301 -1.20609e-21)
(0.769785 0.0975636 -7.16633e-22)
(0.470634 0.0551694 0)
(0.207537 0.0222989 5.01923e-22)
(0.054433 0.00523514 5.94452e-22)
(-2.95366e-05 0.000184295 1.08597e-20)
(0.274786 0.0245418 7.23225e-21)
(1.06016 0.110551 1.11055e-22)
(1.264 0.150446 7.85693e-22)
(1.32469 0.17091 0)
(1.3107 0.18927 -3.77262e-21)
(1.26398 0.201727 -4.2801e-21)
(1.21674 0.21097 -1.96882e-21)
(1.17026 0.21667 -6.99373e-21)
(1.12407 0.21777 0)
(1.07912 0.213065 1.02357e-20)
(1.04306 0.20328 1.01486e-20)
(1.02156 0.192629 3.01263e-21)
(1.01374 0.183747 1.0995e-20)
(1.00189 0.174378 1.54738e-20)
(0.908951 0.151712 0)
(0.670573 0.107282 2.18194e-20)
(0.366707 0.0570221 3.13164e-20)
(0.137007 0.0212792 3.48525e-20)
(0.0195628 0.00372669 -3.99817e-20)
(-0.00622255 -0.00044304 -7.6251e-22)
(0.276208 0.0413767 0)
(1.10922 0.165762 1.24371e-21)
(1.30273 0.210766 0)
(1.35243 0.230926 -4.90581e-21)
(1.32944 0.246534 0)
(1.27675 0.255088 -8.39065e-21)
(1.22395 0.260578 4.01525e-21)
(1.17195 0.262683 -1.40565e-20)
(1.12046 0.260185 -3.20042e-22)
(1.07061 0.251728 5.28505e-21)
(1.03081 0.238533 2.2269e-20)
(1.00705 0.225397 -4.10183e-23)
(0.99683 0.214479 -7.97424e-21)
(0.976047 0.201488 -1.45158e-20)
(0.858132 0.171186 1.71949e-20)
(0.598452 0.115963 -3.04586e-20)
(0.30478 0.058423 -4.02039e-21)
(0.0987322 0.0198578 0)
(0.00074183 0.0014853 -3.01791e-24)
(-0.00986165 -0.00132011 0)
(0.269634 0.0555286 1.62172e-20)
(1.1358 0.22463 -7.86314e-21)
(1.32672 0.275619 -6.0233e-21)
(1.3708 0.296243 2.30578e-21)
(1.34161 0.308121 -3.8676e-21)
(1.28448 0.312119 1.75508e-20)
(1.22709 0.313154 8.36238e-21)
(1.17034 0.31098 0)
(1.11414 0.304269 -2.6464e-20)
(1.05982 0.291548 0)
(1.01655 0.274536 -1.16642e-20)
(0.99064 0.258612 -1.44039e-20)
(0.978026 0.245266 -8.66224e-21)
(0.949339 0.228099 -1.05165e-20)
(0.81664 0.189977 0)
(0.55151 0.12526 0)
(0.27134 0.0614585 -2.61285e-20)
(0.0784776 0.0188632 5.16626e-21)
(-0.0108799 -0.00119155 -3.0366e-21)
(-0.0127397 -0.00242022 -3.59731e-21)
(0.261784 0.0679638 -6.19139e-21)
(1.14747 0.283395 0)
(1.3399 0.341451 1.21033e-20)
(1.38084 0.363 6.43424e-21)
(1.34733 0.37114 8.95837e-21)
(1.28696 0.370583 0)
(1.22602 0.367037 8.16163e-21)
(1.16535 0.360368 1.55156e-20)
(1.10509 0.349181 1.35381e-20)
(1.04677 0.331904 2.48243e-20)
(1.00028 0.310789 0)
(0.972246 0.291832 -3.10084e-20)
(0.95727 0.275759 -1.86723e-20)
(0.922538 0.254329 -1.10458e-20)
(0.783107 0.209234 6.75974e-20)
(0.522055 0.136405 8.03977e-21)
(0.25454 0.0661661 3.78298e-20)
(0.069103 0.0186781 -1.79014e-19)
(-0.0172669 -0.00374877 1.06059e-19)
(-0.0148505 -0.00359764 -1.29462e-19)
(0.254213 0.07911 -2.58206e-21)
(1.14962 0.340143 1.09426e-21)
(1.34529 0.4064 -1.25918e-21)
(1.3842 0.429266 -6.38032e-21)
(1.34758 0.433864 -7.48038e-21)
(1.28477 0.428923 3.63513e-22)
(1.22101 0.420933 -8.8412e-21)
(1.15715 0.409834 1.6023e-20)
(1.09344 0.394153 -2.91153e-20)
(1.03158 0.37226 0)
(0.982064 0.346973 -1.40437e-20)
(0.95187 0.32484 -3.18785e-22)
(0.93459 0.305982 -2.04176e-20)
(0.895658 0.280389 0)
(0.755233 0.229139 -1.46352e-20)
(0.503665 0.149216 -3.4766e-20)
(0.248223 0.0730258 9.26574e-20)
(0.067829 0.0197864 -9.12834e-20)
(-0.0190346 -0.00564581 1.29807e-19)
(-0.0160043 -0.00469004 -1.36598e-19)
(0.24776 0.0893724 -1.06644e-22)
(1.14583 0.394203 -2.4651e-22)
(1.34505 0.469441 -3.22391e-21)
(1.38235 0.493876 2.48191e-21)
(1.34341 0.495268 -3.74969e-21)
(1.27875 0.486201 0)
(1.21274 0.474004 -8.20251e-21)
(1.14621 0.458659 -1.6772e-20)
(1.0795 0.438616 -1.51282e-20)
(1.01443 0.412201 0)
(0.962081 0.382799 -1.45613e-20)
(0.92973 0.357419 -1.80353e-20)
(0.910287 0.33579 2.21421e-20)
(0.868517 0.306299 -1.34219e-20)
(0.730572 0.249781 -6.38875e-20)
(0.490836 0.163665 3.79405e-20)
(0.247454 0.0813402 1.1264e-20)
(0.0711766 0.0224292 0)
(-0.0170195 -0.00639569 -1.25553e-19)
(-0.0160721 -0.00549677 -4.66603e-21)
(0.242574 0.0990879 3.18421e-22)
(1.13841 0.445412 -3.1687e-22)
(1.34069 0.530021 1.44127e-21)
(1.37652 0.556136 8.96957e-21)
(1.3358 0.554693 -1.36832e-20)
(1.26974 0.541836 1.64618e-20)
(1.20189 0.525731 1.76753e-20)
(1.13305 0.506405 -2.68069e-20)
(1.06366 0.48221 9.34957e-21)
(0.995652 0.451431 -6.10266e-20)
(0.940637 0.417982 -1.64736e-20)
(0.90621 0.389436 0)
(0.884671 0.36507 2.40386e-20)
(0.84089 0.332023 2.882e-20)
(0.707262 0.270596 3.44492e-20)
(0.479968 0.179099 -4.12635e-20)
(0.248172 0.090936 -1.22183e-20)
(0.0766358 0.026539 1.43478e-20)
(-0.0126074 -0.00588175 0)
(-0.0152818 -0.00594101 -1.01422e-20)
(0.238554 0.108358 -8.21008e-21)
(1.12906 0.49385 3.75701e-21)
(1.33347 0.58799 -1.18546e-21)
(1.36771 0.615688 5.31226e-21)
(1.32557 0.611743 -6.06567e-21)
(1.25842 0.595449 -8.30873e-22)
(1.18905 0.575794 -1.93435e-20)
(1.11821 0.552801 -9.70837e-21)
(1.04642 0.524707 -2.63151e-20)
(0.975691 0.489759 6.60162e-23)
(0.918101 0.452394 -5.16474e-20)
(0.881686 0.42082 4.35733e-20)
(0.858219 0.393797 -2.64506e-20)
(0.81295 0.357339 3.17907e-20)
(0.684183 0.291178 0)
(0.468777 0.194916 -2.24681e-20)
(0.248774 0.101101 5.96802e-23)
(0.0825027 0.0316876 -6.27289e-20)
(-0.00710897 -0.00440272 -9.23812e-21)
(-0.0139634 -0.00606484 0)
(0.23561 0.117424 0)
(1.11877 0.539741 4.75931e-21)
(1.32427 0.643635 -1.75454e-22)
(1.35674 0.672368 -4.7123e-21)
(1.31341 0.666206 -7.84062e-21)
(1.24542 0.646834 0)
(1.17479 0.623986 -8.74663e-21)
(1.10221 0.597647 -2.12424e-22)
(1.02822 0.565964 5.64558e-20)
(0.954854 0.527059 -8.39556e-21)
(0.894798 0.48596 -3.7325e-20)
(0.85645 0.451396 2.26791e-20)
(0.831159 0.421769 -4.51052e-22)
(0.784594 0.381956 3.38917e-20)
(0.660307 0.31115 2.07842e-20)
(0.455893 0.210443 -4.85105e-20)
(0.247094 0.11128 5.7472e-20)
(0.0871212 0.0373236 1.7044e-20)
(-0.00160652 -0.00221585 7.04729e-20)
(-0.0123361 -0.00589751 -1.90613e-19)
(0.233658 0.126418 -3.53465e-21)
(1.10824 0.583265 4.21e-21)
(1.31367 0.696431 -2.41776e-21)
(1.34425 0.726123 3.38035e-21)
(1.2999 0.717982 0)
(1.23125 0.695867 -7.46263e-21)
(1.15956 0.670178 2.94924e-20)
(1.08542 0.640832 2.13225e-20)
(1.00936 0.605867 0)
(0.933483 0.563283 -1.21113e-19)
(0.870998 0.518586 1.01151e-19)
(0.830777 0.481061 0)
(0.803761 0.448795 3.1001e-20)
(0.755942 0.405613 -4.47826e-22)
(0.63521 0.330097 -6.68092e-20)
(0.441178 0.224783 2.61435e-20)
(0.242773 0.120863 0)
(0.0895915 0.0428222 9.21404e-20)
(0.00289969 0.000143553 0)
(-0.0107249 -0.00557687 -9.03805e-20)
(0.232546 0.135381 4.46495e-21)
(1.09789 0.624628 6.14302e-21)
(1.30211 0.746428 -2.22077e-21)
(1.33075 0.776971 0)
(1.2855 0.767059 -6.47728e-21)
(1.21634 0.74251 0)
(1.14373 0.714302 -2.90582e-20)
(1.06818 0.682287 -9.88287e-21)
(0.990194 0.644372 9.97782e-21)
(0.911857 0.598404 -5.99752e-20)
(0.846905 0.550235 1.04575e-20)
(0.804822 0.509734 0)
(0.776169 0.474791 -6.63323e-20)
(0.727038 0.428065 4.3029e-22)
(0.608924 0.347676 0)
(0.424266 0.237513 2.02196e-22)
(0.235595 0.12917 8.42512e-20)
(0.0892729 0.0475001 -7.96833e-20)
(0.00576403 0.00216977 2.35927e-20)
(-0.00937737 -0.00523045 0)
(0.231928 0.144233 0)
(1.08789 0.663999 7.8425e-21)
(1.29002 0.79373 4.2801e-21)
(1.31666 0.824979 -5.1584e-22)
(1.27059 0.813466 -1.99485e-21)
(1.20102 0.786763 -1.68555e-20)
(1.12763 0.756342 1.09434e-20)
(1.0508 0.72198 -1.17148e-20)
(0.97098 0.681457 4.46261e-20)
(0.890169 0.632413 -9.60975e-20)
(0.822686 0.580908 -8.4618e-22)
(0.77873 0.537433 -2.90704e-20)
(0.748483 0.499617 1.07785e-19)
(0.697985 0.448994 -5.18383e-22)
(0.581909 0.363354 -5.2021e-20)
(0.405387 0.24812 -9.24365e-20)
(0.225956 0.135639 0)
(0.0866643 0.0507512 0)
(0.00699669 0.00347836 2.54825e-20)
(-0.0083807 -0.00498028 -1.51352e-20)
(0.231925 0.15312 6.78825e-21)
(1.0785 0.701135 -1.82886e-20)
(1.27769 0.838429 -4.62149e-21)
(1.30228 0.87023 0)
(1.25546 0.857258 -3.11448e-22)
(1.18558 0.828656 -1.52955e-20)
(1.11152 0.796309 2.6369e-20)
(1.03352 0.759904 4.61128e-20)
(0.95193 0.717115 5.80899e-20)
(0.868646 0.665333 -7.86514e-20)
(0.798508 0.610664 -8.73981e-20)
(0.752562 0.564189 7.78692e-20)
(0.720694 0.523156 0)
(0.668711 0.468095 -2.37033e-20)
(0.554197 0.376726 -5.6246e-20)
(0.384939 0.256246 -6.65108e-20)
(0.214085 0.139892 -7.86164e-20)
(0.0819743 0.0523918 2.32759e-20)
(0.00683138 0.0039618 -1.37285e-20)
(-0.00771382 -0.00485979 6.38792e-23)
(0.23216 0.161832 0)
(1.0698 0.736634 0)
(1.26532 0.880623 5.17074e-22)
(1.28784 0.912827 0)
(1.24036 0.898523 3.96469e-21)
(1.17023 0.868247 1.02626e-20)
(1.0956 0.834228 0)
(1.01653 0.796073 5.4714e-21)
(0.933252 0.751352 9.71336e-20)
(0.847473 0.697186 -1.8113e-19)
(0.774508 0.639599 0)
(0.726362 0.590035 -5.02519e-20)
(0.692748 0.545327 -6.07513e-22)
(0.639183 0.485157 -4.56185e-22)
(0.525944 0.387507 6.03067e-20)
(0.362942 0.261611 -5.03843e-24)
(0.200538 0.14171 -1.6942e-19)
(0.0756527 0.0523812 5.00792e-20)
(0.00562059 0.00370733 1.48553e-20)
(-0.00728591 -0.00483444 0)
(0.232608 0.170372 -2.85993e-20)
(1.06153 0.770479 -1.31109e-20)
(1.25298 0.920378 -1.56482e-20)
(1.27353 0.952875 1.09887e-20)
(1.22547 0.93733 3.91639e-21)
(1.15516 0.905599 0)
(1.08004 0.870146 1.59654e-20)
(1.00001 0.830513 -1.22349e-20)
(0.915106 0.784186 7.96941e-22)
(0.826811 0.728006 1.33764e-20)
(0.750823 0.667804 1.13644e-19)
(0.700164 0.615056 -1.76572e-20)
(0.664546 0.566154 -6.67176e-20)
(0.609252 0.499978 -2.76654e-20)
(0.497228 0.395318 3.27088e-20)
(0.340157 0.263901 2.77969e-23)
(0.185825 0.141001 4.56421e-20)
(0.068289 0.0507772 -1.07809e-19)
(0.00376411 0.00283256 1.27883e-19)
(-0.0070101 -0.00487663 1.88833e-20)
(0.232905 0.178681 1.10644e-20)
(1.0537 0.802759 -7.52584e-21)
(1.24084 0.957812 1.29458e-21)
(1.25947 0.990498 8.29626e-21)
(1.2109 0.973789 5.51503e-22)
(1.14048 0.940785 -1.78462e-20)
(1.06498 0.904114 4.58648e-21)
(0.984065 0.863246 -5.1078e-20)
(0.897624 0.815615 -1.07487e-19)
(0.806808 0.757809 -1.08381e-19)
(0.727593 0.695352 0)
(0.674012 0.639398 -7.77334e-20)
(0.635957 0.585773 9.63328e-20)
(0.578658 0.512374 0)
(0.468044 0.39968 -7.01573e-20)
(0.317326 0.262665 4.16767e-20)
(0.171205 0.137587 -4.91087e-20)
(0.0610906 0.0478637 -5.80258e-20)
(0.00182415 0.00160132 -1.03038e-19)
(-0.00684928 -0.00496954 -8.13598e-20)
(0.233575 0.186863 -1.2738e-20)
(1.04619 0.833462 8.06635e-21)
(1.22896 0.992989 1.79056e-20)
(1.24577 1.02577 1.29216e-20)
(1.19679 1.008 -3.25663e-22)
(1.12631 0.973891 -9.42735e-21)
(1.0505 0.936183 1.53898e-20)
(0.968799 0.894312 -5.25576e-20)
(0.880902 0.845661 -6.38255e-20)
(0.787597 0.786622 1.13778e-19)
(0.704943 0.722305 2.50719e-19)
(0.64797 0.663255 0)
(0.606852 0.604399 0)
(0.547011 0.522298 -3.18995e-20)
(0.438056 0.400075 0)
(0.294781 0.256922 8.95887e-20)
(0.158283 0.130658 1.05591e-19)
(0.0561434 0.0435102 0)
(0.000991153 0.000277216 0)
(-0.00676192 -0.0051018 8.74678e-20)
(0.233918 0.194593 1.47228e-20)
(1.03898 0.86258 1.16045e-20)
(1.21741 1.02602 1.31379e-20)
(1.2325 1.05883 -1.33946e-20)
(1.18318 1.04006 -1.83694e-21)
(1.1127 1.00499 9.32163e-21)
(1.03667 0.966411 -2.1144e-20)
(0.954284 0.92374 -1.11279e-22)
(0.865029 0.87433 -1.04288e-21)
(0.769282 0.814447 -9.1367e-22)
(0.683022 0.748716 1.29412e-19)
(0.622134 0.686813 0)
(0.577155 0.622311 9.79687e-20)
(0.513852 0.529948 6.82711e-20)
(0.406469 0.396222 1.63938e-19)
(0.272105 0.245114 4.83211e-20)
(0.14872 0.117237 -5.68261e-20)
(0.0583444 0.0342087 -3.34661e-20)
(0.00742694 -0.00254883 0)
(-0.00527332 -0.00494766 9.40304e-20)
(0.234631 0.20235 -3.38032e-20)
(1.03207 0.890253 0)
(1.20618 1.05696 1.59957e-20)
(1.21968 1.08973 -1.17397e-20)
(1.17014 1.07007 4.27857e-21)
(1.09969 1.03418 -9.24469e-21)
(1.02354 0.994854 4.08932e-20)
(0.940562 0.951562 -4.29962e-21)
(0.850054 0.90163 0)
(0.751951 0.841259 -1.26145e-19)
(0.661976 0.774623 -2.82214e-19)
(0.59663 0.710241 1.15566e-20)
(0.54689 0.639804 1.35664e-19)
(0.478837 0.535847 0)
(0.372021 0.38855 1.10842e-19)
(0.246831 0.225883 0)
(0.140623 0.0905312 0)
(0.0738884 0.00354037 -3.61714e-20)
(0.0477142 -0.0203966 0)
(0.0256942 0.00504947 2.52147e-20)
(0.234918 0.209544 -3.81921e-20)
(1.02539 0.916694 0)
(1.19527 1.086 2.71303e-20)
(1.20726 1.11874 0)
(1.15763 1.09831 -3.18648e-21)
(1.08724 1.06174 0)
(1.01104 1.02182 1.96728e-21)
(0.927538 0.978115 7.28594e-21)
(0.835854 0.927924 8.0664e-21)
(0.735431 0.867431 -1.38808e-19)
(0.641616 0.80049 8.49417e-21)
(0.571165 0.734194 9.33329e-20)
(0.515572 0.657655 1.32707e-19)
(0.440997 0.54074 1.78582e-20)
(0.332751 0.378555 8.70578e-20)
(0.213709 0.200103 0)
(0.121367 0.0462084 1.19695e-19)
(0.0688631 -0.0339333 -7.03202e-20)
(0.0311237 0.0541297 8.22227e-20)
(-0.038337 0.45618 -9.76923e-20)
(0.235162 0.216581 3.18983e-20)
(1.01874 0.94178 4.76396e-20)
(1.1846 1.11348 0)
(1.19511 1.14629 1.04409e-21)
(1.14545 1.12535 1.05372e-20)
(1.07506 1.08836 8.62029e-21)
(0.998859 1.04812 1.40462e-20)
(0.914794 1.00434 0)
(0.821889 0.954311 5.34153e-20)
(0.71903 0.894272 -7.24077e-21)
(0.621009 0.827833 0)
(0.544412 0.760364 0)
(0.481126 0.677217 1.1914e-19)
(0.397752 0.545063 -5.52064e-20)
(0.28545 0.367997 -8.83816e-20)
(0.168434 0.170782 0)
(0.0695886 0.0640519 6.0827e-20)
(0.00586905 0.463091 -7.07506e-20)
(0.0309261 1.92732 -3.98727e-20)
(0.057541 2.82496 -4.88007e-20)
(0.235054 0.223066 -2.43239e-20)
(1.01217 0.965682 -6.18065e-20)
(1.17418 1.13938 1.64823e-20)
(1.18323 1.17226 1.26586e-20)
(1.13366 1.151 0)
(1.06325 1.11376 3.68762e-21)
(0.987209 1.07342 1.88663e-20)
(0.902528 1.02981 -3.52612e-21)
(0.808446 0.980278 7.99604e-21)
(0.703144 0.921178 1.3257e-19)
(0.600789 0.856013 1.43578e-19)
(0.517346 0.788529 1.05167e-19)
(0.44435 0.698635 1.20237e-19)
(0.350417 0.547946 -1.30176e-19)
(0.236283 0.360577 -1.33807e-19)
(0.111723 0.22441 0)
(0.0392693 0.88479 0)
(0.0869097 2.58162 3.3884e-20)
(0.0897696 3.21198 0)
(0.0911401 3.3894 8.86499e-20)
(0.237734 0.229121 0)
(1.00596 0.988784 0)
(1.16371 1.16356 0)
(1.17142 1.19651 3.99803e-21)
(1.12193 1.17502 1.00834e-20)
(1.05162 1.1378 -7.895e-23)
(0.976014 1.09765 1.20079e-20)
(0.890672 1.05439 -3.43998e-21)
(0.795461 1.00565 6.68317e-20)
(0.687764 0.947986 -1.81019e-21)
(0.581043 0.884824 2.84371e-19)
(0.490341 0.818733 -1.21692e-20)
(0.405135 0.722703 1.46481e-20)
(0.301003 0.547528 1.88957e-20)
(0.176689 0.378352 -5.28967e-22)
(0.0907093 1.01425 3.48752e-22)
(0.124145 2.76286 -1.79197e-19)
(0.128914 3.30125 -6.78653e-20)
(0.119465 3.42381 3.61245e-20)
(0.109031 3.44366 -4.0884e-20)
(0.16106 0.174832 1.51021e-20)
(0.995665 1.01382 0)
(1.15303 1.18623 -3.46861e-20)
(1.16008 1.21948 -3.57113e-20)
(1.1107 1.19788 2.636e-20)
(1.04085 1.16096 1.16823e-21)
(0.9651 1.12077 -1.22423e-20)
(0.879256 1.07814 3.811e-20)
(0.783009 1.03051 -5.49615e-20)
(0.673107 0.974814 0)
(0.562056 0.914327 1.40447e-19)
(0.463954 0.850734 -8.61893e-20)
(0.365541 0.752443 0)
(0.24327 0.547795 1.83131e-20)
(0.130026 0.76183 4.35747e-20)
(0.138765 2.5658 -4.9544e-20)
(0.186823 3.32879 5.6422e-20)
(0.169413 3.43456 3.05542e-20)
(0.140739 3.45329 3.48984e-20)
(0.12153 3.46194 5.59472e-20)
(0.272664 0.267351 -2.90258e-20)
(0.978773 1.02449 0)
(1.1352 1.21242 3.80613e-20)
(1.14567 1.25075 4.04345e-20)
(1.09334 1.23162 -3.12537e-20)
(1.02291 1.1951 -6.25511e-21)
(0.945975 1.15645 1.05451e-20)
(0.85957 1.11514 2.99162e-21)
(0.761886 1.06979 5.23009e-20)
(0.648989 1.01827 1.15147e-19)
(0.532197 0.964255 7.91336e-21)
(0.422337 0.905083 7.68578e-20)
(0.292859 0.788558 1.3877e-20)
(0.204626 0.932065 -1.76427e-20)
(0.210268 2.44079 -3.99421e-20)
(0.26133 3.33351 3.97666e-20)
(0.244281 3.46055 -4.38315e-20)
(0.210032 3.47911 -2.53516e-20)
(0.176385 3.50341 -2.33153e-20)
(0.13133 3.4981 -3.39251e-21)
(0.263032 0.266348 0)
(0.976162 1.04759 1.13887e-20)
(1.12664 1.23622 -7.94428e-21)
(1.13472 1.27448 -4.93692e-21)
(1.08233 1.25504 -2.23005e-20)
(1.01188 1.21871 7.18752e-21)
(0.934626 1.1803 -5.08786e-21)
(0.847967 1.13985 2.67092e-21)
(0.749646 1.09603 -5.44524e-20)
(0.635241 1.04751 -2.81716e-21)
(0.515203 0.998474 -2.5436e-19)
(0.399112 0.942183 1.09967e-20)
(0.27655 0.861924 -1.3161e-20)
(0.23972 1.5473 -1.6276e-20)
(0.302238 3.14362 3.67585e-21)
(0.315355 3.46291 2.66142e-22)
(0.273769 3.50989 6.60643e-20)
(0.239802 3.53277 3.38565e-20)
(0.194035 3.55256 -1.16127e-20)
(0.144073 3.54885 -1.72638e-20)
(0.249137 0.26451 2.94652e-20)
(0.972655 1.07329 7.75795e-20)
(1.11774 1.26211 -2.2744e-20)
(1.1234 1.29983 -1.85807e-20)
(1.07085 1.27992 0)
(1.00048 1.24363 1.67132e-20)
(0.923184 1.2055 -4.21002e-21)
(0.836524 1.16587 2.32606e-21)
(0.737878 1.1237 -6.07497e-21)
(0.622504 1.07843 -1.04227e-19)
(0.500128 1.03493 -1.17456e-19)
(0.37904 0.98108 -9.02967e-20)
(0.27783 1.00582 -9.90775e-20)
(0.30483 2.31074 1.02359e-19)
(0.382623 3.39074 8.75862e-20)
(0.354457 3.51995 0)
(0.306318 3.55622 0)
(0.269615 3.58954 -9.19442e-21)
(0.225434 3.63458 0)
(0.155922 3.61873 -1.50674e-20)
(0.239378 0.266569 -4.43251e-20)
(0.967231 1.09989 -6.61697e-20)
(1.10747 1.28925 0)
(1.11085 1.32602 1.26855e-21)
(1.05814 1.30548 -2.54694e-20)
(0.988008 1.26914 2.92943e-20)
(0.911001 1.23132 -8.44347e-22)
(0.824565 1.19243 1.27273e-21)
(0.725852 1.15186 -3.83082e-20)
(0.609948 1.10989 5.1969e-21)
(0.486158 1.07199 0)
(0.360651 1.02402 0)
(0.300812 1.29653 -9.01122e-20)
(0.383379 2.97349 3.69067e-20)
(0.447569 3.49054 4.76345e-20)
(0.394343 3.55461 0)