/*--------------------------------*- C++ -*----------------------------------*\
  =========                 |
  \\      /  F ield         | OpenFOAM: The Open Source CFD Toolbox
   \\    /   O peration     | Website:  https://openfoam.org
    \\  /    A nd           | Version:  6
     \\/     M anipulation  |
\*---------------------------------------------------------------------------*/
FoamFile
{
    version     2.0;
    format      ascii;
    class       surfaceScalarField;
    location    "75";
    object      phi;
}
// * * * * * * * * * * * * * * * * * * * * * * * * * * * * * * * * * * * * * //

dimensions      [0 3 -1 0 0 0 0];

internalField   nonuniform List<scalar> 
4262
(
0.1068
0.471188
0.0925587
0.707827
0.0648237
0.860038
0.0423903
1.0212
0.0263569
1.21455
0.0163102
1.44827
0.010085
1.73209
0.005904
2.07522
0.00267813
2.48847
-0.000162941
2.98513
-0.00295553
2.98508
-0.00630476
2.48859
-0.0106256
2.07536
-0.0169157
1.73215
-0.0268712
1.44818
-0.0426655
1.21431
-0.06487
1.02097
-0.0924891
0.859922
-0.106833
0.70793
0.471155
0.114749
0.35644
0.139868
0.682707
0.12517
0.874737
0.101606
1.04476
0.0733216
1.24283
0.0470007
1.47459
0.0261796
1.75291
0.0121111
2.08929
0.00422076
2.49636
-0.00174438
2.9911
-0.00732422
2.99066
-0.0152011
2.49647
-0.0287469
2.0889
-0.0489919
1.7524
-0.0750512
1.47423
-0.103355
1.24261
-0.127025
1.04464
-0.140779
0.873676
-0.115211
0.682361
0.355944
0.0917192
0.26472
0.126317
0.64811
0.124858
0.876195
0.110947
1.05867
0.0965704
1.25721
0.0768921
1.49427
0.0549778
1.77482
0.0333214
2.11094
0.0135033
2.51618
-0.00206744
3.00667
-0.0179119
3.00651
-0.0371192
2.51568
-0.0585945
2.11038
-0.0803491
1.77415
-0.0995035
1.49339
-0.112972
1.25608
-0.125857
1.05752
-0.127764
0.875584
-0.0923995
0.646996
0.263545
0.0627785
0.201942
0.103915
0.606974
0.106608
0.873502
0.096996
1.06828
0.0858416
1.26836
0.0752291
1.50488
0.0604374
1.78962
0.0413927
2.12999
0.019768
2.5378
-0.00396735
3.0304
-0.0274914
3.03003
-0.0483655
2.53655
-0.066289
2.1283
-0.0799233
1.78779
-0.0897262
1.50319
-0.100543
1.2669
-0.109903
1.06688
-0.106294
0.871975
-0.0638344
0.604537
0.19971
0.0370304
0.164912
0.0793853
0.564619
0.0897268
0.863161
0.0829709
1.07504
0.0716708
1.27967
0.0626758
1.51387
0.0527132
1.79958
0.0389936
2.14371
0.0200292
2.55677
-0.00472617
3.05516
-0.029074
3.05438
-0.0472256
2.5547
-0.0601446
2.14122
-0.0693267
1.79697
-0.0774036
1.51127
-0.0877619
1.27726
-0.0934386
1.07256
-0.0816948
0.860231
-0.0378424
0.560685
0.161868
0.0194597
0.145452
0.0563993
0.527679
0.0713266
0.848234
0.0687312
1.07763
0.0596869
1.28871
0.0496246
1.52394
0.0400806
1.80912
0.0288506
2.15494
0.0137153
2.5719
-0.00668582
3.07556
-0.0264982
3.07419
-0.0405086
2.56871
-0.0502683
2.15098
-0.0582327
1.80493
-0.0670712
1.52011
-0.074961
1.28515
-0.0762671
1.07387
-0.0594454
0.843409
-0.020407
0.521646
0.141461
0.0106818
0.13477
0.041947
0.496414
0.0574759
0.832705
0.0570845
1.07803
0.0500135
1.29578
0.039798
1.53415
0.029852
1.81907
0.0196035
2.16518
0.00750251
2.584
-0.00799432
3.09106
-0.0230826
3.08928
-0.0341455
2.57978
-0.0430193
2.15985
-0.0514444
1.81336
-0.06018
1.52884
-0.0654843
1.29045
-0.0639501
1.07233
-0.0459069
0.825366
-0.0119114
0.487651
0.12955
0.00659304
0.128177
0.0326674
0.47034
0.0482682
0.817104
0.0490386
1.07726
0.0431956
1.30162
0.0337339
1.54361
0.0231617
1.82964
0.0122572
2.17609
0.000980142
2.59528
-0.0108295
3.10287
-0.0217679
3.10022
-0.0312583
2.58927
-0.0399482
2.16854
-0.0481533
1.82156
-0.0554999
1.53619
-0.0593293
1.29428
-0.0562453
1.06925
-0.037472
0.806593
-0.00805232
0.458231
0.121497
0.00461224
0.123565
0.0261772
0.448775
0.0415188
0.801762
0.0430419
1.07573
0.0377357
1.30693
0.0293806
1.55197
0.0195013
1.83952
0.00884748
2.18674
-0.00180088
2.60593
-0.0126507
3.11372
-0.0229914
3.11056
-0.0320699
2.59834
-0.0405404
2.17701
-0.0481924
1.82922
-0.0541561
1.54215
-0.0567558
1.29688
-0.0518656
1.06436
-0.0322245
0.786952
-0.00645657
0.432463
0.115041
0.00364576
0.119919
0.0213441
0.431076
0.0361708
0.786935
0.0385817
1.07332
0.0338173
1.31169
0.0258531
1.55993
0.0161934
1.84918
0.00538442
2.19755
-0.00603711
2.61735
-0.0171647
3.12484
-0.0267961
3.12019
-0.035289
2.60684
-0.0427859
2.18451
-0.0491445
1.83557
-0.0539105
1.54692
-0.0550954
1.29807
-0.0486918
1.05795
-0.0286187
0.766878
-0.00587728
0.409722
0.109163
0.00299554
0.116923
0.017232
0.41684
0.0308692
0.773298
0.0336911
1.0705
0.0294602
1.31592
0.0222491
1.56714
0.0135266
1.8579
0.00342866
2.20765
-0.00767145
2.62845
-0.0195879
3.13676
-0.0306074
3.13121
-0.0392911
2.61552
-0.0459513
2.19117
-0.0510142
1.84064
-0.0546149
1.55052
-0.0546592
1.29811
-0.0466328
1.04993
-0.0261942
0.74644
-0.00571794
0.389246
0.103446
0.00228878
0.114635
0.0135392
0.405589
0.0257422
0.761095
0.0284241
1.06782
0.0241697
1.32018
0.0169328
1.57438
0.00818487
1.86665
-0.00189734
2.21773
-0.0135117
2.64006
-0.0259741
3.14922
-0.0364749
3.14171
-0.0437487
2.6228
-0.0490566
2.19648
-0.0530734
1.84465
-0.0555664
1.55301
-0.0547873
1.29733
-0.0452623
1.0404
-0.0245122
0.72569
-0.00563766
0.370371
0.0978079
0.00162535
0.113009
0.010275
0.39694
0.0208983
0.750472
0.0233901
1.06533
0.0191243
1.32444
0.0119524
1.58155
0.00336827
1.87523
-0.00653197
2.22763
-0.0176731
2.65121
-0.0303983
3.16195
-0.0416848
3.153
-0.0489997
2.63011
-0.0537434
2.20122
-0.0569328
1.84784
-0.0581871
1.55427
-0.0561423
1.29529
-0.0450076
1.02927
-0.0236584
0.704341
-0.00568715
0.3524
0.0921207
0.00077284
0.112236
0.00690167
0.390811
0.0156678
0.741706
0.0174534
1.06354
0.0127011
1.3292
0.00493015
1.58932
-0.00429763
1.88446
-0.0147238
2.23806
-0.0263087
2.66279
-0.0385806
3.17422
-0.047893
3.16231
-0.0538862
2.6361
-0.0575711
2.20491
-0.0601611
1.85043
-0.0607509
1.55486
-0.0576156
1.29215
-0.044992
1.01664
-0.0230703
0.682419
-0.00567147
0.335001
0.0864493
-6.87957e-05
0.112305
0.00341711
0.387325
0.00970104
0.735422
0.0103507
1.06289
0.0051461
1.3344
-0.00277295
1.59724
-0.0121353
1.89382
-0.0226249
2.24855
-0.0343413
2.67451
-0.0464736
3.18635
-0.0563705
3.17221
-0.0619998
2.64173
-0.0649133
2.20782
-0.0663557
1.85188
-0.0656199
1.55412
-0.0607847
1.28732
-0.0461952
1.00205
-0.0232011
0.659425
-0.00579452
0.317594
0.0806547
-0.00105946
0.113365
-0.000192995
0.386459
0.00395924
0.73127
0.00367865
1.06317
-0.00224706
1.34033
-0.0112076
1.6062
-0.021769
1.90439
-0.0333563
2.26014
-0.0453651
2.68652
-0.0568951
3.19788
-0.0650652
3.18038
-0.0695384
2.64621
-0.0716602
2.20994
-0.0723581
1.85257
-0.0709493
1.55271
-0.0644709
1.28084
-0.0478567
0.98544
-0.0236784
0.635247
-0.0059674
0.299883
0.0746873
-0.0021266
0.115491
-0.00364665
0.387979
-0.00299901
0.730622
-0.00534811
1.06552
-0.0123089
1.34729
-0.0219857
1.61588
-0.0331402
1.91554
-0.0452191
2.27221
-0.0576761
2.69897
-0.0700836
3.21029
-0.0784497
3.18874
-0.0819442
2.6497
-0.0828882
2.21089
-0.082322
1.85201
-0.0790079
1.5494
-0.0702258
1.27206
-0.0509456
0.966159
-0.0248605
0.609161
-0.00629337
0.281316
0.068394
-0.00334895
0.11884
-0.00726792
0.391898
-0.009637
0.732991
-0.0137565
1.06964
-0.02207
1.3556
-0.0332861
1.6271
-0.0458501
1.9281
-0.0592726
2.28564
-0.0729855
2.71269
-0.0849739
3.22228
-0.0922273
3.196
-0.0950253
2.6525
-0.0946636
2.21053
-0.0927027
1.85005
-0.0882827
1.54498
-0.0771577
1.26093
-0.0547884
0.94379
-0.0264856
0.580859
-0.0067221
0.261552
0.0616719
-0.00484275
0.123683
-0.012125
0.39918
-0.0182645
0.739131
-0.0255529
1.07693
-0.035451
1.3655
-0.0481122
1.63976
-0.0620874
1.94208
-0.0770352
2.30058
-0.0919525
2.7276
-0.104761
3.23509
-0.111774
3.20301
-0.112718
2.65344
-0.110698
2.20851
-0.107054
1.8464
-0.100313
1.53824
-0.0860907
1.24671
-0.060044
0.917743
-0.0286784
0.549493
-0.00721629
0.24009
0.0544556
-0.00637062
0.130054
-0.0170355
0.409845
-0.0273278
0.749423
-0.037494
1.0871
-0.0494264
1.37743
-0.0639552
1.65429
-0.0799938
1.95812
-0.0972017
2.31779
-0.114227
2.74463
-0.128169
3.24903
-0.13355
3.20839
-0.132857
2.65275
-0.129249
2.2049
-0.123735
1.84089
-0.115023
1.52953
-0.0970516
1.22874
-0.0662586
0.88695
-0.0311951
0.51443
-0.00772791
0.216623
0.0467277
-0.00871181
0.138765
-0.024203
0.425336
-0.0398123
0.765032
-0.0534862
1.10077
-0.0676826
1.39163
-0.0848032
1.67141
-0.104116
1.97743
-0.124578
2.33825
-0.14348
2.76353
-0.156253
3.2618
-0.159098
3.21124
-0.156546
2.6502
-0.1517
2.20005
-0.144584
1.83377
-0.13262
1.51756
-0.110158
1.20627
-0.0738036
0.850597
-0.0340457
0.474672
-0.00823946
0.190817
0.0384882
-0.0110363
0.149802
-0.031208
0.445508
-0.0528882
0.786712
-0.0717566
1.11964
-0.0899609
1.40983
-0.110721
1.69217
-0.133435
2.00014
-0.156565
2.36138
-0.176629
2.7836
-0.189335
3.27451
-0.191452
3.21335
-0.18608
2.64483
-0.177679
2.19165
-0.167482
1.82358
-0.152417
1.5025
-0.124371
1.17823
-0.0811795
0.807405
-0.0363956
0.429888
-0.00851021
0.162931
0.029978
-0.0158023
0.165604
-0.0434789
0.473184
-0.0722784
0.815512
-0.0966735
1.14403
-0.119335
1.43249
-0.145026
1.71786
-0.172469
2.02759
-0.198887
2.3878
-0.219509
2.80422
-0.228746
3.28374
-0.225035
3.20964
-0.216582
2.63637
-0.206965
2.18203
-0.194943
1.81155
-0.175367
1.48292
-0.140621
1.14348
-0.0894089
0.756193
-0.0384339
0.378913
-0.00856881
0.133066
0.0214092
-0.0196355
0.18524
-0.0556392
0.509188
-0.0932169
0.85309
-0.125102
1.17592
-0.154838
1.46223
-0.188592
1.75161
-0.221248
2.06024
-0.248594
2.41515
-0.266025
2.82165
-0.270234
3.28795
-0.263841
3.20325
-0.252784
2.62532
-0.239606
2.16886
-0.224112
1.79606
-0.199851
1.45866
-0.15652
1.10015
-0.0954462
0.695119
-0.0388811
0.322348
-0.0081213
0.102307
0.0132879
-0.0320369
0.217276
-0.0801732
0.557324
-0.129621
0.902537
-0.170111
1.21641
-0.20636
1.49848
-0.246537
1.79179
-0.281655
2.09536
-0.30846
2.44195
-0.322412
2.8356
-0.320589
3.28613
-0.306076
3.18874
-0.289868
2.60911
-0.275614
2.1546
-0.25798
1.77842
-0.226437
1.42712
-0.172421
1.04614
-0.100884
0.623581
-0.0384964
0.25996
-0.00757181
0.071382
0.0057161
-0.0458372
0.263114
-0.119776
0.631263
-0.185614
0.968375
-0.233107
1.2639
-0.275753
1.54113
-0.319729
1.83576
-0.351654
2.12729
-0.371183
2.46148
-0.377535
2.84195
-0.371231
3.27983
-0.355678
3.17318
-0.336123
2.58955
-0.313085
2.13157
-0.285798
1.75114
-0.245646
1.38696
-0.180887
0.981377
-0.0987931
0.541488
-0.03515
0.196317
-0.00690559
0.0431376
-0.00118949
-0.032639
0.295753
-0.0977797
0.696404
-0.157727
1.02832
-0.208061
1.31424
-0.262554
1.59562
-0.311021
1.88423
-0.356089
2.17236
-0.395468
2.50086
-0.426963
2.87345
-0.445238
3.2981
-0.442766
3.17071
-0.428032
2.57482
-0.410579
2.11411
-0.38196
1.72252
-0.322693
1.3277
-0.223648
0.882332
-0.111049
0.428888
-0.0389142
0.124183
-0.00812062
0.0123441
-0.00931011
-0.0137647
0.309517
-0.0487599
0.731399
-0.0899874
1.06955
-0.132655
1.3569
-0.175891
1.63886
-0.207661
1.916
-0.239812
2.20451
-0.270826
2.53188
-0.295285
2.89791
-0.307662
3.31048
-0.310282
3.17333
-0.307814
2.57235
-0.294005
2.1003
-0.262732
1.69125
-0.208605
1.27357
-0.131091
0.804819
-0.0583741
0.356171
-0.0217349
0.0875434
-0.004913
-0.00447781
-0.0142231
-0.00333473
0.312852
-0.0238654
0.75193
-0.0511676
1.09685
-0.0805722
1.38631
-0.109395
1.66768
-0.137605
1.94421
-0.165604
2.23251
-0.192438
2.55871
-0.21508
2.92055
-0.229198
3.3246
-0.228179
3.17231
-0.214957
2.55913
-0.196786
2.08213
-0.170628
1.66509
-0.125541
1.22848
-0.0694772
0.748755
-0.0284396
0.315133
-0.0128831
0.071987
-0.00352687
-0.0138341
-0.01775
0.00124136
0.311611
-0.0137341
0.766905
-0.0345135
1.11763
-0.0553464
1.40714
-0.0750918
1.68742
-0.0968979
1.96602
-0.120137
2.25575
-0.142233
2.5808
-0.15931
2.93763
-0.167062
3.33235
-0.163274
3.16853
-0.152299
2.54815
-0.131942
2.06178
-0.099986
1.63313
-0.0627574
1.19126
-0.027709
0.713706
-0.0112686
0.298693
-0.00698703
0.0677054
-0.00261584
-0.0182053
-0.0203658
0.00380351
0.307807
-0.00485848
0.775567
-0.0213844
1.13416
-0.0398674
1.42562
-0.0575077
1.70506
-0.0754887
1.984
-0.0936928
2.27395
-0.110155
2.59727
-0.122549
2.95002
-0.127724
3.33752
-0.120457
3.16126
-0.101758
2.52945
-0.0782567
2.03827
-0.0530622
1.60794
-0.0238353
1.16203
-0.000419337
0.69029
0.00304365
0.29523
0.000179887
0.0705692
-0.000812871
-0.0172125
-0.0211787
0.00485799
0.302949
-0.00113114
0.781557
-0.0154135
1.14844
-0.0319448
1.44215
-0.0481088
1.72123
-0.0636243
1.99951
-0.0784682
2.28879
-0.0911698
2.60997
-0.0992278
2.95808
-0.0988947
3.33719
-0.0893733
3.15174
-0.0744126
2.51449
-0.0515741
2.01544
-0.0213206
1.57768
0.00428666
1.13642
0.0162065
0.678371
0.0134286
0.298008
0.00582712
0.0781706
0.000999893
-0.0123853
-0.0201788
0.0048639
0.298085
0.00184262
0.784578
-0.0100867
1.16037
-0.0258247
1.45789
-0.0419468
1.73735
-0.0570013
2.01457
-0.0704376
2.30223
-0.0808808
2.62041
-0.0862781
2.96347
-0.084056
3.33497
-0.072548
3.14023
-0.0517757
2.49372
-0.0274637
1.99112
-0.00627886
1.5565
0.0138447
1.1163
0.0235046
0.668711
0.018197
0.303315
0.00884028
0.0875274
0.00208374
-0.00562874
-0.0180951
0.00315195
0.294933
0.000366954
0.787363
-0.00970612
1.17044
-0.0232859
1.47147
-0.0382146
1.75228
-0.0528841
2.02924
-0.0662104
2.31556
-0.0762655
2.63047
-0.0800911
2.9673
-0.0748776
3.32976
-0.0621289
3.12748
-0.0455431
2.47714
-0.0250548
1.97064
0.000734043
1.53071
0.0198011
1.09723
0.0256442
0.662868
0.01975
0.309209
0.0100947
0.0971826
0.00264853
0.00181746
-0.0154465
0.00203209
0.292901
-0.000362262
0.789757
-0.00925439
1.17933
-0.0216392
1.48386
-0.03571
1.76635
-0.0502753
2.0438
-0.064144
2.32942
-0.0749044
2.64123
-0.0792068
2.9716
-0.0742961
3.32484
-0.0599932
3.11318
-0.0392633
2.45641
-0.0177665
1.94914
0.000576712
1.51237
0.0171768
1.08063
0.0242962
0.655748
0.0190549
0.314451
0.0100507
0.106187
0.00282357
0.00904457
-0.012623
0.000260156
0.292641
-0.00312526
0.793143
-0.0112495
1.18746
-0.0221512
1.49476
-0.03487
1.77907
-0.0488342
2.05777
-0.0631926
2.34378
-0.0754987
2.65353
-0.0816023
2.97771
-0.0764327
3.31967
-0.0608149
3.09756
-0.0446069
2.4402
-0.0261407
1.93067
-0.0029587
1.48919
0.0134669
1.0642
0.0190062
0.650209
0.0157008
0.317756
0.00868612
0.113201
0.00258444
0.0151462
-0.0100385
-0.00108125
0.293722
-0.0046652
0.796727
-0.0123127
1.19511
-0.022662
1.50511
-0.034811
1.79122
-0.0484024
2.07136
-0.0629996
2.35838
-0.0768051
2.66734
-0.085834
2.98673
-0.0836634
3.3175
-0.0676089
3.0815
-0.046164
2.41875
-0.0253235
1.90983
-0.00978929
1.47365
0.00526654
1.04915
0.0135963
0.641879
0.0121789
0.319173
0.00702434
0.118356
0.00219603
0.0199746
-0.00784249
-0.00242406
0.296146
-0.00709923
0.801402
-0.0146759
1.20268
-0.0243285
1.51476
-0.0356946
1.80258
-0.0486322
2.08429
-0.0631417
2.37289
-0.0781761
2.68237
-0.0904393
2.999
-0.0916904
3.31876
-0.0769053
3.06672
-0.0573106
2.39916
-0.0379494
1.89047
-0.0168374
1.45254
-0.00120215
1.03351
0.00646729
0.63421
0.0078906
0.31775
0.00517395
0.121073
0.00175545
0.0233931
-0.00608704
-0.0032977
0.299444
-0.00828831
0.806392
-0.0158642
1.21026
-0.0254692
1.52437
-0.0367044
1.81382
-0.0493384
2.09693
-0.0635678
2.38712
-0.0791311
2.69794
-0.094591
3.01446
-0.101961
3.32613
-0.0904502
3.05521
-0.0655649
2.37427
-0.0403609
1.86527
-0.0239692
1.43615
-0.00885622
1.0184
0.0013949
0.623959
0.00423353
0.314912
0.00345395
0.121852
0.00135405
0.0254929
-0.00473298
-0.00407081
0.303515
-0.0101089
0.81243
-0.0178592
1.21801
-0.0271427
1.53365
-0.037913
1.82459
-0.0500077
2.10902
-0.0638353
2.40095
-0.0796468
2.71375
-0.097449
3.03226
-0.110239
3.33892
-0.103407
3.04838
-0.0823284
2.35319
-0.0557724
1.83871
-0.029328
1.4097
-0.0126111
1.00168
-0.0032742
0.614622
0.00178717
0.30985
0.00208817
0.121551
0.000963033
0.0266181
-0.00376995
-0.00448655
0.308002
-0.0108366
0.81878
-0.018704
1.22588
-0.0280438
1.54299
-0.0387835
1.83533
-0.0506448
2.12088
-0.0641202
2.41442
-0.0800254
2.72965
-0.0991911
3.05143
-0.116728
3.35645
-0.115182
3.04683
-0.0933932
2.3314
-0.0614585
1.80678
-0.0345171
1.38276
-0.0148855
0.982052
-0.00361557
0.603352
0.00128403
0.304951
0.0015418
0.121293
0.000671699
0.0274882
-0.00309825
-0.00489336
0.312895
-0.0120164
0.825903
-0.0200308
1.23389
-0.0291452
1.5521
-0.0394639
1.84565
-0.0508207
2.13224
-0.0640897
2.42769
-0.0802878
2.74585
-0.0998812
3.07102
-0.119231
3.3758
-0.122913
3.05051
-0.10808
2.31657
-0.079199
1.7779
-0.0404243
1.34399
-0.0121757
0.953804
-0.000222504
0.591398
0.00480549
0.299923
0.00344621
0.122653
0.0010478
0.0298866
-0.00205045
-0.0049544
0.317849
-0.0121698
0.833119
-0.0202879
1.24201
-0.0294493
1.56126
-0.03966
1.85586
-0.0507857
2.14337
-0.0641097
2.44102
-0.0806689
2.76241
-0.100366
3.09072
-0.120456
3.39589
-0.12916
3.05922
-0.116399
2.30381
-0.085433
1.74693
-0.0477418
1.3063
-0.0101881
0.91625
0.0119046
0.569306
0.0158832
0.295944
0.0106449
0.127891
0.00345454
0.0370769
0.00140409
-0.00505652
0.322906
-0.0126906
0.840753
-0.0208825
1.2502
-0.0298597
1.57024
-0.0395478
1.86555
-0.050192
2.15401
-0.0638276
2.45465
-0.0809748
2.77956
-0.100511
3.11025
-0.120124
3.41551
-0.131575
3.07067
-0.126245
2.29848
-0.102343
1.72303
-0.0573604
1.26131
-0.00933814
0.868228
0.0270311
0.532936
0.0396078
0.283367
0.0316596
0.135839
0.0123813
0.0563553
0.0137854
-0.00489069
0.327796
-0.0123934
0.848256
-0.0205647
1.25837
-0.0295734
1.57925
-0.0389871
1.87496
-0.0494664
2.16449
-0.063614
2.4688
-0.0813509
2.79729
-0.100789
3.12969
-0.120191
3.43491
-0.133315
3.08379
-0.130449
2.29561
-0.106569
1.69915
-0.0660889
1.22083
-0.0101273
0.812266
0.0443271
0.478482
0.0824947
0.2452
0.0904215
0.127913
0.0559677
0.0908091
0.069753
-0.00480954
0.332606
-0.0120562
0.855502
-0.0195712
1.26589
-0.0279435
1.58762
-0.0383682
1.88538
-0.0516919
2.17781
-0.0682675
2.48537
-0.0873408
2.81637
-0.107024
3.14937
-0.124712
3.4526
-0.13441
3.09349
-0.13259
2.29379
-0.116118
1.68268
-0.0737115
1.17843
-0.0156555
0.75421
0.0546982
0.408128
0.123838
0.17606
0.167177
0.0845739
0.152796
0.10519
0.222549
-0.00466355
0.33727
-0.0114853
0.862324
-0.0188111
1.27321
-0.0274555
1.59627
-0.0387938
1.89672
-0.0534941
2.19251
-0.0715773
2.50346
-0.0921179
2.83691
-0.113951
3.17121
-0.135034
3.47368
-0.149216
3.10767
-0.149572
2.29415
-0.130336
1.66344
-0.0929288
1.14102
-0.0229877
0.684269
0.0403986
0.344742
-0.023975
0.240433
-0.37764
0.438239
-1.01017
0.737726
0.930093
-1.71772
-0.00457329
0.341843
-0.0115958
0.869347
-0.0190976
1.28071
-0.0277066
1.60488
-0.0383216
1.90734
-0.0521535
2.20635
-0.0703885
2.52169
-0.0920698
2.85859
-0.115582
3.19472
-0.13963
3.49773
-0.159048
3.12709
-0.168202
2.3033
-0.163005
1.65824
-0.124161
1.10218
-0.0848157
0.644924
-0.217928
0.477855
-0.767702
0.790207
-1.53167
1.20221
-2.11525
1.3213
1.2042
-2.38935
-0.00425904
0.346102
-0.0109983
0.876086
-0.0184165
1.28813
-0.0268673
1.61333
-0.0374521
1.91792
-0.0516288
2.22052
-0.0704276
2.54049
-0.093011
2.88117
-0.118232
3.21994
-0.145565
3.52506
-0.171079
3.15261
-0.186697
2.31892
-0.181088
1.65263
-0.163513
1.0846
-0.286606
0.768017
-0.850449
1.0417
-1.64255
1.58231
-2.15579
1.71545
-2.37297
1.53849
1.30637
-2.47514
-0.003765
0.349867
-0.0108143
0.883135
-0.0181077
1.29543
-0.0260591
1.62128
-0.0363253
1.92819
-0.0505926
2.23479
-0.0699262
2.55982
-0.0934794
2.90473
-0.120481
3.24694
-0.151584
3.55616
-0.183113
3.18413
-0.21055
2.34636
-0.223172
1.66525
-0.306003
1.16743
-0.719655
1.18167
-1.51521
1.83725
-2.06322
2.13032
-2.28656
1.93879
-2.39154
1.64346
1.3723
-2.45747
-0.00295489
0.352822
-0.00863081
0.888811
-0.0152867
1.30208
-0.02372
1.62971
-0.0353995
1.93987
-0.0507551
2.25015
-0.070318
2.57939
-0.0941401
2.92855
-0.122989
3.27579
-0.158365
3.59154
-0.198
3.22377
-0.232068
2.38043
-0.267831
1.70102
-0.506667
1.40627
-1.21037
1.88537
-1.87446
2.50135
-2.15746
2.41332
-2.29057
2.07189
-2.36738
1.72028
1.42954
-2.42462
-0.0026291
0.355451
-0.00722184
0.893404
-0.0137753
1.30864
-0.0232534
1.63919
-0.0360489
1.95266
-0.0521649
2.26626
-0.0720667
2.59929
-0.0965989
2.95308
-0.127713
3.3069
-0.16809
3.63192
-0.214263
3.26994
-0.259611
2.42577
-0.384278
1.82568
-0.817807
1.8398
-1.57855
2.64611
-1.99943
2.92224
-2.17376
2.58765
-2.26457
2.1627
-2.33492
1.79063
1.48842
-2.3938
-0.00252176
0.357973
-0.00736762
0.89825
-0.0144358
1.3157
-0.0245711
1.64932
-0.0381417
1.96623
-0.0551471
2.28327
-0.0759846
2.62013
-0.101785
2.97888
-0.135349
3.34047
-0.18099
3.67756
-0.233694
3.32265
-0.293941
2.48602
-0.511496
2.04324
-1.14256
2.47086
-1.75883
3.26237
-1.99297
3.15638
-2.12409
2.71877
-2.2242
2.26281
-2.30744
1.87387
1.54671
-2.36573
-0.00285113
0.360824
-0.00876233
0.904161
-0.0165462
1.32349
-0.026859
1.65964
-0.0404441
1.97982
-0.0576422
2.30047
-0.0793109
2.6418
-0.106713
3.00628
-0.142907
3.37666
-0.194001
3.72865
-0.253027
3.38167
-0.353396
2.58639
-0.687727
2.37757
-1.38135
3.16449
-1.80784
3.68886
-1.99647
3.34501
-2.12204
2.84433
-2.22071
2.36148
-2.29407
1.94723
1.576
-2.32336
-0.00313076
0.363955
-0.00929485
0.910325
-0.0176871
1.33188
-0.0286323
1.67058
-0.0428913
1.99408
-0.0609064
2.31848
-0.0835123
2.6644
-0.112287
3.03506
-0.151175
3.41555
-0.206427
3.7839
-0.273114
3.44836
-0.424029
2.73731
-0.86463
2.81817
-1.50636
3.80621
-1.81612
3.99863
-1.96865
3.49754
-2.05787
2.93355
-2.13524
2.43885
-2.18308
1.99508
1.51894
-2.12602
-0.00354948
0.367504
-0.0106279
0.917403
-0.0197292
1.34098
-0.031112
1.68197
-0.0455161
2.00848
-0.0636236
2.33659
-0.0869186
2.6877
-0.117256
3.0654
-0.158898
3.45719
-0.220496
3.8455
-0.31284
3.5407
-0.513831
2.9383
-1.02558
3.32992
-1.5579
4.33853
-1.78962
4.23034
-1.92379
3.63172
-2.00248
3.01224
-2.00695
2.44333
-1.91997
1.90809
1.43147
-1.8325
-0.0035241
0.371028
-0.010597
0.924476
-0.0201341
1.35052
-0.0322375
1.69407
-0.0475958
2.02384
-0.06663
2.35562
-0.0904257
2.71149
-0.121059
3.09603
-0.163362
3.4995
-0.222548
3.90469
-0.322516
3.64067
-0.560523
3.1763
-1.10814
3.87754
-1.50986
4.74025
-1.66325
4.38374
-1.73837
3.70683
-1.76545
3.03932
-1.63124
2.30911
-1.11191
1.38876
0.319562
-0.00360123
0.374629
-0.0114895
0.932365
-0.0217051
1.36073
-0.0345045
1.70687
-0.0505605
2.0399
-0.0705527
2.37561
-0.0961314
2.73707
-0.129798
3.1297
-0.176601
3.5463
-0.241699
3.96978
-0.36191
3.76088
-0.666961
3.48136
-1.25389
4.46447
-1.5729
5.05926
-1.68019
4.49103
-1.70873
3.73537
-1.60215
2.93274
-1.24109
1.94805
-0.470241
0.61791
-0.150679
-0.00330343
0.377933
-0.0108427
0.939904
-0.0215498
1.37144
-0.0352756
1.72059
-0.0528436
2.05747
-0.0748578
2.39763
-0.102756
2.76497
-0.139289
3.16623
-0.19
3.59701
-0.262876
4.04266
-0.413886
3.91189
-0.792915
3.86038
-1.36397
5.03552
-1.59008
5.28537
-1.65627
4.55723
-1.62465
3.70375
-1.36037
2.66845
-0.634686
1.22237
-0.0166601
-0.000116363
-0.167339
-0.0027314
0.380664
-0.011316
0.948488
-0.0227666
1.38289
-0.0370312
1.73486
-0.0548806
2.07531
-0.0774335
2.42018
-0.107051
2.79459
-0.146744
3.20592
-0.20107
3.65133
-0.290433
4.13202
-0.475174
4.09663
-0.916739
4.30195
-1.43604
5.55483
-1.59132
5.44064
-1.62575
4.59165
-1.47478
3.55279
-0.96836
2.16203
-0.163961
0.417974
0.0386208
-0.202698
-0.128718
-0.00213022
0.382794
-0.00941812
0.955776
-0.0209095
1.39438
-0.0359726
1.74992
-0.0554377
2.09478
-0.0802917
2.44504
-0.112416
2.82671
-0.155085
3.24859
-0.212136
3.70839
-0.311222
4.23111
-0.521909
4.30732
-1.03584
4.81588
-1.46659
5.98557
-1.5667
5.54075
-1.54205
4.56701
-1.25611
3.26684
-0.497037
1.40296
0.00632252
-0.0853852
0.0240978
-0.220474
-0.10462
-0.00117423
0.383969
-0.00885407
0.963456
-0.0206503
1.40618
-0.0359819
1.76525
-0.0552884
2.11409
-0.0801262
2.46987
-0.113562
2.86015
-0.159555
3.29458
-0.221068
3.7699
-0.329586
4.33963
-0.573732
4.55146
-1.12961
5.37176
-1.4427
6.29866
-1.4969
5.59495
-1.40373
4.47384
-0.96585
2.82896
-0.152078
0.58919
0.0198295
-0.257293
0.0173884
-0.218033
-0.087232
0.000945209
0.383023
-0.00463853
0.96904
-0.015871
1.41741
-0.0314912
1.78087
-0.0522246
2.13482
-0.0793739
2.49702
-0.115169
2.89594
-0.16368
3.3431
-0.228357
3.83458
-0.34652
4.45779
-0.627083
4.83203
-1.18053
5.92521
-1.40038
6.51851
-1.42382
5.61839
-1.20375
4.25377
-0.568834
2.19404
-0.00220144
0.0225576
0.0184041
-0.277898
0.00877956
-0.208408
-0.0784525
0.00246899
0.380554
-0.00185697
0.973366
-0.0125119
1.42807
-0.0278709
1.79623
-0.0476488
2.1546
-0.0737704
2.52314
-0.109779
2.93195
-0.159724
3.39304
-0.230381
3.90523
-0.359818
4.58723
-0.673208
5.14542
-1.18142
6.43342
-1.32921
6.6663
-1.30322
5.5924
-0.98144
3.93199
-0.278726
1.49132
-0.0114765
-0.244692
0.00395491
-0.29333
0.00112731
-0.20558
-0.0773252
0.00661199
0.373942
0.00600805
0.97397
-0.00258395
1.43666
-0.017258
1.81091
-0.037836
2.17518
-0.0658399
2.55115
-0.103346
2.96946
-0.154351
3.44404
-0.227853
3.97874
-0.366441
4.72582
-0.700958
5.47993
-1.13513
6.86759
-1.20704
6.73821
-1.14878
5.53414
-0.792888
3.5761
-0.0602111
0.758648
0.0168074
-0.32171
0.023604
-0.300126
0.0100258
-0.192002
-0.0672994
0.0102486
0.363694
0.0130778
0.971141
0.00671317
1.44302
-0.00661985
1.82424
-0.025056
2.19361
-0.0505607
2.57665
-0.0866496
3.00555
-0.136451
3.49385
-0.215203
4.05749
-0.362403
4.87302
-0.700499
5.81803
-1.04271
7.2098
-1.08729
6.78279
-0.967527
5.41438
-0.521119
3.12969
0.0662142
0.171315
0.0639798
-0.319476
0.0500251
-0.286172
0.0184387
-0.160416
-0.0488607
0.0174828
0.346211
0.0273829
0.961241
0.0256482
1.44476
0.014686
1.8352
-0.00360589
2.2119
-0.0300351
2.60308
-0.0660061
3.04152
-0.114673
3.54251
-0.189873
4.13269
-0.327053
5.0102
-0.658647
6.14962
-0.916243
7.46739
-0.941992
6.80854
-0.779184
5.25158
-0.305256
2.65577
0.0167551
-0.150697
0.0452224
-0.347943
0.0371015
-0.278051
0.0121439
-0.135458
-0.0367168
0.0246909
0.32152
0.0421796
0.943752
0.0451902
1.44175
0.0374415
1.84295
0.0233165
2.22603
0.00144382
2.62496
-0.0310298
3.07399
-0.0773753
3.58886
-0.147426
4.20274
-0.271298
5.13407
-0.575371
6.4537
-0.757033
7.64906
-0.766341
6.81785
-0.605866
5.0911
-0.189775
2.23967
-0.0882214
-0.25225
-0.0374254
-0.398739
-0.00119316
-0.314283
0.00279662
-0.139448
-0.0339202
0.0366535
0.284867
0.0664439
0.913961
0.0779163
1.43027
0.0751956
1.84567
0.0634888
2.23774
0.0425973
2.64585
0.013608
3.10298
-0.0280888
3.63055
-0.0913888
4.26604
-0.197513
5.24019
-0.433652
6.68984
-0.557626
7.77303
-0.570698
6.83092
-0.436336
4.95674
-0.103077
1.90642
-0.0990703
-0.256256
-0.0559578
-0.441851
-0.0120024
-0.358239
0.00721762
-0.158668
-0.0267026
0.0489729
0.235894
0.0929307
0.870004
0.113332
1.40987
0.117483
1.84152
0.11357
2.24165
0.10042
2.659
0.0780083
3.12539
0.042164
3.6664
-0.0149558
4.32316
-0.109594
5.33483
-0.237575
6.81782
-0.310472
7.84593
-0.331533
6.85198
-0.2487
4.87391
-0.0721747
1.72989
-0.104893
-0.223538
-0.0807508
-0.465993
-0.0331689
-0.40582
0.0148643
-0.206701
-0.0118383
0.0640432
0.171851
0.127529
0.806518
0.165624
1.37178
0.181314
1.82583
0.183165
2.2398
0.173675
2.66849
0.157276
3.14179
0.13114
3.69254
0.0925635
4.36173
0.0438431
5.38355
0.00165644
6.86
-0.0271894
7.87478
-0.0512963
6.87609
-0.0858906
4.9085
-0.0962219
1.74022
-0.242709
-0.0770516
-0.213342
-0.49536
-0.131222
-0.48794
-0.0133444
-0.324579
-0.0251826
0.0655348
0.106316
0.161359
0.710694
0.223748
1.30939
0.255884
1.79369
0.269511
2.22617
0.270666
2.66733
0.261838
3.15062
0.245309
3.70907
0.22007
4.38697
0.209599
5.39402
0.279206
6.7904
0.304132
7.84985
0.313779
6.86644
0.176683
5.0456
-0.0767427
1.99365
-0.361794
0.208
-0.381328
-0.475826
-0.287553
-0.581715
-0.118625
-0.493507
-0.143808
0.0559222
0.0503936
0.19815
0.568466
0.301904
1.20564
0.354344
1.74125
0.37787
2.20264
0.388345
2.65686
0.388033
3.15093
0.38885
3.70825
0.376024
4.3998
0.362581
5.40746
0.56935
6.58363
0.732658
7.68654
0.793954
6.80514
0.681251
5.1583
0.140053
2.53484
-0.194395
0.542448
-0.343839
-0.326382
-0.315593
-0.609961
-0.189203
-0.619897
-0.333011
0.0416528
0.00874075
0.241794
0.368325
0.380513
1.06692
0.464471
1.65729
0.510734
2.15638
0.537557
2.63003
0.55058
3.13791
0.562795
3.69603
0.577816
4.38478
0.617489
5.36779
0.89677
6.30435
1.25454
7.32877
1.43202
6.62766
1.38021
5.21011
0.726011
3.18905
0.235769
1.03269
-0.0723789
-0.0182342
-0.212316
-0.470023
-0.163499
-0.668714
-0.496511
0.0255097
-0.016769
0.236969
0.156866
0.471572
0.832315
0.606346
1.52252
0.676417
2.08631
0.716392
2.59006
0.745403
3.1089
0.768623
3.67281
0.818777
4.33462
0.92104
5.26553
1.29749
5.9279
1.82369
6.80257
2.1118
6.33955
2.18839
5.13352
1.80756
3.56987
1.05663
1.78363
0.493432
0.544961
0.111383
-0.0879745
-0.0241729
-0.533158
-0.520683
0.0209659
-0.0377349
0.159673
0.0181584
0.520978
0.47101
0.754177
1.28932
0.868544
1.97194
0.930428
2.52818
0.978089
3.06123
1.01425
3.63665
1.08561
4.26327
1.23864
5.11249
1.64953
5.51701
2.30973
6.14237
2.67768
5.9716
2.82741
4.9838
2.5798
3.81747
1.86283
2.5006
1.15542
1.25237
0.601426
0.466015
0.196404
-0.128135
-0.32428
0.00224606
-0.0399809
0.0702595
-0.049855
0.399354
0.141916
0.752241
0.936434
0.940937
1.78325
1.00157
2.46754
1.01457
3.04823
1.01195
3.63927
1.0277
4.24752
1.08133
5.05886
1.30232
5.29602
1.87412
5.57058
1.83707
6.00865
1.90981
4.91106
1.79292
3.93435
1.40577
2.88775
0.889139
1.76901
0.499134
0.85602
0.193538
0.177461
-0.130742
-8.06191e-05
-0.0399003
0.0284142
-0.0783498
0.176172
-0.00584206
0.574692
0.537914
0.803952
1.55399
0.900468
2.37103
0.924175
3.02453
0.926514
3.63693
0.910722
4.26331
0.939928
5.02965
1.04744
5.18851
1.347
5.27102
1.57759
5.77805
1.60202
4.88663
1.55057
3.9858
1.34965
3.08867
0.966179
2.15248
0.57443
1.24777
0.225082
0.526809
0.0943406
-0.00613611
-0.0337642
-0.00472739
-0.0797586
0.0495635
-0.060133
0.372792
0.214686
0.645025
1.28175
0.775149
2.2409
0.816305
2.98337
0.825458
3.62778
0.805912
4.28286
0.80299
5.03257
0.846508
5.14499
1.08107
5.03646
1.28685
5.57227
1.27877
4.89472
1.22351
4.04106
1.07929
3.23289
0.817746
2.41403
0.49778
1.56773
0.200388
0.824201
0.294728
-0.00312953
-0.0306347
-0.00063417
-0.0822539
0.0369582
-0.0977254
0.203166
0.0484773
0.498992
0.985928
0.657926
2.08197
0.709274
2.93202
0.713673
3.62338
0.689422
4.30711
0.663298
5.0587
0.672777
5.13551
0.822418
4.88682
1.00176
5.39293
0.974099
4.92238
0.906384
4.10877
0.792108
3.34717
0.618424
2.58771
0.39752
1.78864
0.169348
1.05237
0.464076
-0.00205155
-0.0285831
0.00317101
-0.0874765
0.0309264
-0.125481
0.112016
-0.0326128
0.378105
0.71984
0.544736
1.91534
0.597961
2.8788
0.597128
3.62421
0.570592
4.33365
0.544621
5.08467
0.532602
5.14753
0.600996
4.81842
0.714159
5.27976
0.683204
4.95334
0.616596
4.17538
0.529313
3.43445
0.411179