/*--------------------------------*- C++ -*----------------------------------*\
  =========                 |
  \\      /  F ield         | OpenFOAM: The Open Source CFD Toolbox
   \\    /   O peration     | Website:  https://openfoam.org
    \\  /    A nd           | Version:  6
     \\/     M anipulation  |
\*---------------------------------------------------------------------------*/
FoamFile
{
    version     2.0;
    format      ascii;
    class       surfaceScalarField;
    location    "72.4";
    object      phi;
}
// * * * * * * * * * * * * * * * * * * * * * * * * * * * * * * * * * * * * * //

dimensions      [0 3 -1 0 0 0 0];

internalField   nonuniform List<scalar> 
17370
(
-0.0900006
0.0898499
0.289162
-0.0714637
0.053754
0.364485
-0.0381211
0.0276921
0.426597
-0.0196406
0.0146079
0.504284
-0.0107663
0.00827626
0.601892
-0.00627691
0.0049007
0.720434
-0.00373707
0.00289673
0.863747
-0.00215534
0.00159614
1.03601
-0.00107928
0.000666487
1.24292
-0.000258373
-0.000135203
1.49158
0.000514951
-0.000925291
1.4916
0.00132347
-0.00181354
1.24318
0.00234236
-0.00304899
1.03634
0.00386243
-0.0050056
0.86405
0.00637092
-0.00836337
0.72105
0.0108482
-0.0146837
0.60305
0.0197103
-0.0277545
0.507484
0.0381764
-0.0538007
0.431792
0.071502
-0.0898755
0.365149
0.090016
0.198995
-0.128136
0.0882249
0.0399106
-0.364598
0.353377
-0.0746746
0.0858958
-0.446476
0.454319
-0.0843936
0.07655
-0.52119
0.529901
-0.0684534
0.0597427
-0.612788
0.621567
-0.0515544
0.0427755
-0.726894
0.734163
-0.0353153
0.0280463
-0.867475
0.87259
-0.0224458
0.0173305
-1.03847
1.04192
-0.0135208
0.0100711
-1.2446
1.24703
-0.00746026
0.00502708
-1.49262
1.4946
-0.00307904
0.00110034
-1.4925
1.49423
0.000577828
-0.002303
-1.24398
1.24586
0.00420685
-0.00609203
-1.03751
1.04004
0.00844939
-0.0109793
-0.866101
0.869828
0.0143328
-0.0180598
-0.724392
0.729934
0.023098
-0.0286407
-0.608698
0.616112
0.0358555
-0.0432696
-0.514897
0.523041
0.0519993
-0.0601432
-0.439856
0.447915
0.0688063
-0.0768649
-0.375296
0.37674
0.0846633
-0.0861075
-0.257331
0.222479
0.0748185
-0.0399663
-0.0685174
0.0586912
0.00982627
-0.0518138
0.0583977
-0.374126
0.367542
-0.0574823
0.0537304
-0.453594
0.457346
-0.0486406
0.0446885
-0.527946
0.531898
-0.040849
0.0372103
-0.621563
0.625201
-0.0331087
0.029033
-0.735348
0.739424
-0.0244624
0.0203027
-0.87434
0.878499
-0.0159562
0.0122616
-1.04349
1.04718
-0.00852326
0.00534923
-1.24856
1.25174
-0.00201928
-0.00105506
-1.49666
1.49973
0.00410342
-0.00737033
-1.4972
1.50047
0.0104516
-0.0140589
-1.25007
1.25368
0.017617
-0.0218052
-1.04593
1.05011
0.0258276
-0.0302642
-0.877763
0.8822
0.0342337
-0.0382314
-0.739901
0.743899
0.041782
-0.0455297
-0.626775
0.630522
0.0494027
-0.0544168
-0.534811
0.539825
0.0580865
-0.0588984
-0.457475
0.458287
0.0521933
-0.0319904
-0.335752
0.315549
0.00988812
-0.068346
0.0584579
-0.0529403
0.0489449
0.00399536
-0.0331609
0.0437055
-0.358109
0.347564
-0.0474032
0.0467753
-0.459284
0.459912
-0.0437189
0.0403655
-0.535801
0.539154
-0.0365923
0.0332878
-0.628527
0.631831
-0.0298495
0.0268174
-0.742647
0.745679
-0.0235584
0.0204515
-0.882018
0.885125
-0.0169206
0.0135404
-1.05077
1.05415
-0.00974587
0.00620579
-1.25517
1.25871
-0.00223488
-0.00156354
-1.50324
1.50704
0.00532938
-0.00920381
-1.50414
1.50801
0.0126136
-0.0162282
-1.25742
1.26103
0.0194201
-0.0227305
-1.05392
1.05723
0.0256426
-0.0287075
-0.885692
0.888757
0.0315829
-0.0348671
-0.747158
0.750442
0.038042
-0.0416823
-0.634307
0.637948
0.0449215
-0.047848
-0.544135
0.547061
0.0483391
-0.0444492
-0.456572
0.452682
0.0336754
-0.016223
-0.296182
0.27873
0.00407222
-0.0526379
0.0485657
-0.0458675
0.0433726
0.00249492
-0.022803
0.0331798
-0.336876
0.326499
-0.0389995
0.040015
-0.459597
0.458582
-0.0388238
0.0365361
-0.541874
0.544161
-0.0338677
0.0312708
-0.634882
0.637479
-0.0282066
0.0253066
-0.748724
0.751624
-0.0220411
0.0190468
-0.888078
0.891072
-0.0157411
0.0126411
-1.05728
1.06038
-0.009114
0.00570393
-1.26217
1.26558
-0.00173928
-0.00214609
-1.51092
1.51481
0.00598814
-0.00982428
-1.5119
1.51574
0.0130611
-0.0163506
-1.26447
1.26775
0.019203
-0.022219
-1.06033
1.06335
0.0249555
-0.0279617
-0.891812
0.894818
0.0306495
-0.0335027
-0.753648
0.756501
0.0359222
-0.0384113
-0.641013
0.643502
0.0405448
-0.0415338
-0.548864
0.549853
0.0403067
-0.0341784
-0.447399
0.441271
0.0234644
-0.0102404
-0.263506
0.250282
0.00258989
-0.0454019
0.042812
-0.0412982
0.0395321
0.00176613
-0.0167401
0.0259874
-0.316649
0.307402
-0.0325893
0.0347265
-0.456983
0.454846
-0.0343032
0.032631
-0.546139
0.547812
-0.0304484
0.0283516
-0.639784
0.641881
-0.0259187
0.02352
-0.754269
0.756667
-0.0206606
0.0178705
-0.893968
0.896758
-0.0146331
0.0115623
-1.06343
1.0665
-0.00806997
0.00474205
-1.2689
1.27222
-0.000906914
-0.00282803
-1.5186
1.52233
0.00650788
-0.0101793
-1.51947
1.52314
0.0132864
-0.0164763
-1.271
1.27419
0.0192309
-0.0220971
-1.06638
1.06924
0.0245553
-0.0270798
-0.897633
0.900158
0.0292034
-0.0313636
-0.758949
0.761109
0.0332333
-0.0351854
-0.645654
0.647606
0.0366343
-0.0367827
-0.550368
0.550516
0.0343211
-0.0272673
-0.434599
0.427545
0.0175656
-0.00741295
-0.238744
0.228591
0.00188211
-0.0406318
0.0387497
-0.038011
0.0366832
0.00132777
-0.0127754
0.0207141
-0.298814
0.290875
-0.027457
0.0303741
-0.45229
0.449372
-0.0305739
0.0294505
-0.549244
0.550367
-0.0274537
0.0255339
-0.643917
0.645836
-0.0233306
0.0211905
-0.758906
0.761046
-0.0186724
0.0161861
-0.899333
0.901819
-0.0132401
0.0103571
-1.06944
1.07232
-0.00699069
0.00374533
-1.27548
1.27873
6.11588e-06
-0.00363798
-1.52599
1.52962
0.00720114
-0.0107475
-1.52674
1.53028
0.013717
-0.0167064
-1.27731
1.2803
0.0191954
-0.0216777
-1.07198
1.07446
0.0237488
-0.025846
-0.902446
0.904544
0.0276385
-0.0294951
-0.76309
0.764946
0.0311276
-0.0328447
-0.649422
0.65114
0.0336422
-0.0330576
-0.550303
0.549718
0.0296763
-0.0223146
-0.420281
0.412919
0.0137919
-0.00575074
-0.219595
0.211554
0.00146887
-0.0370998
0.035631
-0.0355239
0.0345016
0.00102226
-0.00997387
0.0166778
-0.28358
0.276876
-0.0231488
0.0265127
-0.446212
0.442848
-0.027286
0.0265797
-0.551274
0.551981
-0.0248147
0.0230248
-0.647733
0.649523
-0.0209485
0.0189265
-0.76312
0.765142
-0.0165489
0.014216
-0.904159
0.906492
-0.0114705
0.00877849
-1.07504
1.07773
-0.00561253
0.00252044
-1.28186
1.28495
0.00109608
-0.00461192
-1.53317
1.53669
0.00804252
-0.0114045
-1.53373
1.53709
0.0141556
-0.016857
-1.28315
1.28585
0.0190629
-0.0212358
-1.07684
1.07901
0.0230562
-0.0249142
-0.906522
0.90838
0.0265058
-0.0281518
-0.76669
0.768336
0.0295853
-0.0309638
-0.652712
0.654091
0.0312662
-0.0299464
-0.54878
0.54746
0.025943
-0.0186574
-0.40557
0.398284
0.0112195
-0.00465025
-0.204318
0.197749
0.00119384
-0.0343151
0.0331213
-0.0336048
0.0328098
0.000794992
-0.0078948
0.0135218
-0.270741
0.265114
-0.0195017
0.0230572
-0.439379
0.435824
-0.0243029
0.0238416
-0.552598
0.553059
-0.0223408
0.0206584
-0.651308
0.65299
-0.0186746
0.0167361
-0.767114
0.769053
-0.0144481
0.0122005
-0.908716
0.910963
-0.00955581
0.00697222
-1.0803
1.08288
-0.00394621
0.000996238
-1.28792
1.29087
0.00245037
-0.00579383
-1.5401
1.54344
0.00903253
-0.0121662
-1.54032
1.54345
0.0146982
-0.0171573
-1.28843
1.29089
0.0191476
-0.021091
-1.08115
1.08309
0.0227087
-0.0243575
-0.910142
0.911791
0.0257665
-0.0272196
-0.769878
0.771331
0.0284563
-0.0294542
-0.655267
0.656265
0.029381
-0.0273901
-0.545807
0.543816
0.0229805
-0.0159558
-0.391124
0.384099
0.00941725
-0.00389028
-0.19175
0.186223
0.00100349
-0.0320343
0.0310308
-0.0321127
0.0314942
0.000618443
-0.00628809
0.0109945
-0.259976
0.255269
-0.0163779
0.0199277
-0.432272
0.428722
-0.0214912
0.0212529
-0.553446
0.553684
-0.0199813
0.0183552
-0.65469
0.656316
-0.0164243
0.0145322
-0.770956
0.772848
-0.0122998
0.0101082
-0.913107
0.915298
-0.00753004
0.00501539
-1.08535
1.08787
-0.00207859
-0.000767389
-1.29371
1.29656
0.00406427
-0.00723181
-1.54666
1.54983
0.0102714
-0.0131858
-1.54645
1.54936
0.0155208
-0.0177658
-1.29324
1.29549
0.0195565
-0.0212793
-1.08502
1.08674
0.0227031
-0.0241554
-0.913347
0.914799
0.0253996
-0.026678
-0.772689
0.773967
0.0277703
-0.0283459
-0.657052
0.657628
0.0278989
-0.0253403
-0.541553
0.538995
0.0206781
-0.013977
-0.377245
0.370544
0.00814565
-0.00336123
-0.181105
0.176321
0.00087162
-0.0301028
0.0292312
-0.0309561
0.030481
0.000475103
-0.0049925
0.00890442
-0.250987
0.247075
-0.0136474
0.0170429
-0.425259
0.421863
-0.0187844
0.0187332
-0.553873
0.553924
-0.0176506
0.0160572
-0.65799
0.659583
-0.0141455
0.012266
-0.774716
0.776596
-0.0100502
0.00788054
-0.91739
0.91956
-0.00533652
0.00286418
-1.09027
1.09275
1.00669e-05
-0.00277775
-1.2993
1.30207
0.00595718
-0.00897963
-1.55288
1.5559
0.0118472
-0.0145639
-1.55215
1.55486
0.0167144
-0.0187529
-1.29763
1.29967
0.0203472
-0.021851
-1.08847
1.08998
0.0230877
-0.0243575
-0.916161
0.917431
0.0254521
-0.0265706
-0.775156
0.776275
0.0274611
-0.0276724
-0.658017
0.658228
0.0268068
-0.0237653
-0.536205
0.533164
0.0189456
-0.0125563
-0.364016
0.357627
0.00725987
-0.00299938
-0.171829
0.167569
0.000783004
-0.0284126
0.0276296
-0.0300745
0.0297209
0.000353573
-0.00390493
0.00711785
-0.243538
0.240325
-0.0112084
0.0143398
-0.418617
0.415486
-0.0161326
0.0162323
-0.553952
0.553852
-0.0152264
0.0137033
-0.661213
0.662736
-0.0117829
0.00988195
-0.778462
0.780363
-0.00764144
0.00545598
-0.921636
0.923821
-0.00290775
0.000447047
-1.09512
1.09758
0.00239452
-0.00511064
-1.30475
1.30746
0.00820294
-0.0111075
-1.55883
1.56173
0.0138239
-0.0163544
-1.55745
1.55998
0.0183234
-0.0201559
-1.3016
1.30344
0.0215556
-0.022845
-1.09152
1.09281
0.0239018
-0.0249984
-0.918609
0.919706
0.0259495
-0.0269017
-0.777296
0.778248
0.0275318
-0.0274491
-0.658305
0.658222
0.0261375
-0.0226568
-0.529912
0.526431
0.0177193
-0.0115835
-0.351389
0.345254
0.00667019
-0.00276518
-0.163515
0.15961
0.000727729
-0.0268828
0.0261551
-0.029429
0.0291841
0.000244943
-0.00294964
0.00553072
-0.237451
0.23487
-0.00896937
0.0117537
-0.412551
0.409766
-0.0134832
0.0136579
-0.553776
0.553601
-0.0126893
0.0112017
-0.664321
0.665809
-0.00924698
0.00729474
-0.782258
0.78421
-0.00499525
0.00276133
-0.925916
0.92815
-0.000169624
-0.00231801
-1.09995
1.10243
0.00516904
-0.0078677
-1.3101
1.3128
0.0109027
-0.0137101
-1.56454
1.56735
0.0162903
-0.0186471
-1.56239
1.56474
0.0204439
-0.0220781
-1.30516
1.30679
0.0232834
-0.0243521
-1.09417
1.09524
0.0252209
-0.026137
-0.920708
0.921624
0.0269418
-0.027732
-0.77908
0.779871
0.028074
-0.0276918
-0.657994
0.657612
0.0259194
-0.0220107
-0.52276
0.518852
0.0169529
-0.0109845
-0.339234
0.333266
0.00631877
-0.00263287
-0.155841
0.152155
0.000699165
-0.0254502
0.024751
-0.0289981
0.0288566
0.000141564
-0.0020628
0.00404979
-0.232609
0.230622
-0.0068317
0.00919939
-0.407219
0.404851
-0.0107586
0.0109312
-0.553501
0.553329
-0.00996811
0.00848025
-0.667392
0.66888
-0.00646581
0.00443332
-0.786159
0.788191
-0.00203761
-0.000281953
-0.930294
0.932613
0.00295892
-0.00551019
-1.10484
1.10739
0.00840902
-0.0111245
-1.31542
1.31813
0.0141388
-0.0168792
-1.57007
1.57281
0.0193447
-0.0215372
-1.56697
1.56917
0.0231631
-0.0245949
-1.30831
1.30974
0.0255976
-0.0264351
-1.09642
1.09726
0.027107
-0.0278282
-0.922432
0.923153
0.0284763
-0.0291211
-0.780509
0.781154
0.029144
-0.0283603
-0.657031
0.656248
0.0261301
-0.021799
-0.514778
0.510447
0.0165938
-0.0106963
-0.327372
0.321474
0.00615988
-0.00258205
-0.14855
0.144973
0.000691868
-0.0240643
0.0233724
-0.0287745
0.0287375
3.7002e-05
-0.00119746
0.00260445
-0.228945
0.227538
-0.00471532
0.00660157
-0.402757
0.40087
-0.00788468
0.00797049
-0.553289
0.553203
-0.00696274
0.0054338
-0.6705
0.672029
-0.00331635
0.00116685
-0.790224
0.792373
0.001367
-0.00380957
-0.934844
0.937287
0.00661183
-0.00926371
-1.10986
1.11251
0.0122504
-0.0150153
-1.32078
1.32355
0.0180357
-0.0207239
-1.57547
1.57816
0.023082
-0.025117
-1.57123
1.57326
0.0265777
-0.0278083
-1.31105
1.31228
0.0286046
-0.0292045
-1.09824
1.09884
0.0296713
-0.0301866
-0.923765
0.92428
0.0306652
-0.0310857
-0.781566
0.781986
0.0308222
-0.0295634
-0.65527
0.654011
0.0268356
-0.0220455
-0.505952
0.501162
0.0166312
-0.0106921
-0.315602
0.309662
0.00617192
-0.00260301
-0.141427
0.137859
0.000703379
-0.0226843
0.0219809
-0.0287617
0.0288312
-6.95199e-05
-0.000315259
0.00113316
-0.226443
0.225625
-0.00254102
0.00387866
-0.39929
0.397952
-0.00478369
0.00469873
-0.553314
0.553399
-0.0035895
0.00196235
-0.67374
0.675367
0.000292224
-0.00259767
-0.794525
0.79683
0.00531469
-0.00792449
-0.93964
0.94225
0.0109038
-0.0137034
-1.11509
1.11789
0.0168256
-0.0196783
-1.32626
1.32911
0.0227412
-0.0254038
-1.58077
1.58343
0.0276693
-0.0295463
-1.57516
1.57703
0.0308335
-0.0318556
-1.31336
1.31438
0.0324426
-0.0328006
-1.09961
1.09997
0.0330529
-0.0333474
-0.924675
0.92497
0.0336263
-0.03374
-0.782081
0.782195
0.0331619
-0.0313544
-0.652567
0.65076
0.0280746
-0.0227643
-0.4962
0.490889
0.017057
-0.0109537
-0.303694
0.297591
0.00634032
-0.00268886
-0.134278
0.130627
0.000731732
-0.0212732
0.0205415
-0.0289756
0.0291679
-0.000192237
0.000619889
-0.000428055
-0.225127
0.224935
-0.00022643
0.000935552
-0.396943
0.396234
-0.00135235
0.0010061
-0.553756
0.554102
0.000270237
-0.00204972
-0.677229
0.679009
0.0044911
-0.00700046
-0.799138
0.801648
0.00995737
-0.0127863
-0.944775
0.947604
0.0159964
-0.01899
-1.12063
1.12362
0.0222965
-0.0252795
-1.33191
1.3349
0.0284255
-0.0310899
-1.58603
1.5887
0.0332765
-0.0349941
-1.57877
1.58048
0.0361008
-0.0368928
-1.31522
1.31601
0.037253
-0.0373521
-1.1005
1.1006
0.0373733
-0.0374338
-0.925125
0.925186
0.0375175
-0.0372337
-0.781948
0.781664
0.0362557
-0.0338179
-0.648778
0.64634
0.0299067
-0.0239811
-0.48538
0.479455
0.0178715
-0.0114695
-0.291398
0.284996
0.0066537
-0.00283319
-0.126922
0.123101
0.000774783
-0.0197984
0.0190237
-0.0294443
0.0297855
-0.000341256
0.00167135
-0.00211993
-0.22509
0.225539
0.00230804
-0.00231991
-0.395873
0.395885
0.0025243
-0.0032428
-0.554832
0.55555
0.00475771
-0.00675904
-0.681087
0.683089
0.00946621
-0.0122441
-0.804162
0.80694
0.015505
-0.0186086
-0.950349
0.953453
0.02211
-0.0253507
-1.12656
1.1298
0.0288926
-0.03204
-1.33783
1.34098
0.0352889
-0.0379565
-1.59128
1.59395
0.0400537
-0.0415971
-1.58204
1.58358
0.0425091
-0.0430734
-1.31658
1.31714
0.0432032
-0.0430202
-1.10085
1.10067
0.0427857
-0.0425951
-0.925061
0.92487
0.0424615
-0.0416904
-0.780993
0.780222
0.0402252
-0.0370473
-0.643742
0.640564
0.0323931
-0.0257208
-0.473291
0.466618
0.0190757
-0.0122291
-0.278438
0.271591
0.00710142
-0.00302983
-0.119188
0.115116
0.000830437
-0.0182316
0.0174012
-0.0301983
0.0307172
-0.000518839
0.00296066
-0.00417796
-0.226397
0.227614
0.00523837
-0.00605315
-0.396265
0.39708
0.00698781
-0.00817954
-0.556782
0.557974
0.0100345
-0.0123277
-0.685456
0.68775
0.0153768
-0.0184924
-0.80972
0.812835
0.0221345
-0.0255853
-0.956482
0.959933
0.0294549
-0.0330063
-1.133
1.13655
0.036843
-0.0401992
-1.34409
1.34745
0.0435883
-0.0462767
-1.59655
1.59923
0.0482798
-0.0496274
-1.58494
1.58629
0.0503066
-0.0506203
-1.31742
1.31773
0.0504955
-0.0500083
-1.10061
1.10012
0.0495008
-0.0490404
-0.924431
0.923971
0.0485611
-0.0473272
-0.779116
0.777882
0.0452123
-0.041145
-0.637224
0.633157
0.0355983
-0.0280081
-0.459651
0.452061
0.0206686
-0.0132192
-0.264519
0.257069
0.00766979
-0.00327047
-0.110915
0.106516
0.000895727
-0.016549
0.0156532
-0.0313121
0.0320538
-0.000741726
0.00447016
-0.00657199
-0.229255
0.231357
0.00872379
-0.010451
-0.398345
0.400072
0.012221
-0.0140075
-0.559852
0.561639
0.0163441
-0.0190298
-0.690484
0.693169
0.0225304
-0.0260715
-0.815954
0.819495
0.0301867
-0.0340615
-0.96332
0.967195
0.038374
-0.0422947
-1.14007
1.14399
0.0464784
-0.0500759
-1.35077
1.35437
0.0536176
-0.0563156
-1.60184
1.60454
0.0581966
-0.0593065
-1.58743
1.58854
0.0597149
-0.0597387
-1.31766
1.31768
0.0593332
-0.0585145
-1.09973
1.09891
0.0577078
-0.0569536
-0.923182
0.922428
0.05605
-0.0542675
-0.77635
0.774568
0.0513608
-0.0462045
-0.628916
0.623759
0.0395677
-0.0308441
-0.444103
0.435379
0.0226272
-0.0144091
-0.249319
0.241101
0.00833303
-0.00354071
-0.101954
0.0971621
0.00096576
-0.0147332
0.0137674
-0.0328675
0.0339037
-0.00103615
0.00638256
-0.00955161
-0.233912
0.237081
0.0129556
-0.0157501
-0.402378
0.405173
0.0185007
-0.0210144
-0.564324
0.566838
0.0239834
-0.027196
-0.696387
0.699599
0.0312895
-0.0353665
-0.823048
0.827125
0.040064
-0.0444527
-0.971019
0.975408
0.0492934
-0.0536427
-1.14789
1.15224
0.0582097
-0.0620508
-1.35791
1.36175
0.0657146
-0.0683698
-1.60711
1.60977
0.0700672
-0.0708773
-1.58942
1.59023
0.0709536
-0.0706334
-1.31717
1.31685
0.0699298
-0.0687434
-1.09813
1.09694
0.0676025
-0.0665491
-0.921277
0.920224
0.0650998
-0.0626684
-0.772513
0.770082
0.0587912
-0.0522862
-0.618412
0.611907
0.0443064
-0.0341885
-0.426202
0.416085
0.0248919
-0.0157405
-0.23251
0.223359
0.00904773
-0.00381815
-0.0921855
0.086956
0.00103337
-0.0127781
0.0117447
-0.0349968
0.0364367
-0.00143988
0.00886912
-0.0134059
-0.240691
0.245228
0.0183023
-0.0223303
-0.408738
0.412766
0.0262153
-0.0296028
-0.570531
0.573919
0.0333793
-0.037275
-0.70345
0.707346
0.0421239
-0.0468728
-0.831215
0.835964
0.05228
-0.057278
-0.979764
0.984762
0.0627244
-0.0675414
-1.15656
1.16138
0.0724984
-0.076558
-1.36552
1.36958
0.0802853
-0.0828154
-1.61225
1.61478
0.0842335
-0.0846437
-1.59074
1.59115
0.0843229
-0.0835614
-1.31587
1.31511
0.0824964
-0.0809256
-1.09571
1.09414
0.0794618
-0.0779624
-0.918668
0.917169
0.0760019
-0.0726762
-0.767344
0.764018
0.0675835
-0.0593944
-0.605165
0.596976
0.0497535
-0.0379343
-0.405418
0.393599
0.0273455
-0.0171145
-0.213772
0.203541
0.00974577
-0.00406997
-0.081536
0.0758602
0.00108865
-0.010693
0.00960435
-0.0378954
0.0399156
-0.00202024
0.012344
-0.0185986
-0.250127
0.256381
0.0252903
-0.0307581
-0.417913
0.42338
0.0359846
-0.0404448
-0.578859
0.583319
0.0452449
-0.0500346
-0.712005
0.716795
0.0558575
-0.0614332
-0.840722
0.846297
0.0676741
-0.0733514
-0.989738
0.995415
0.07943
-0.084691
-1.16614
1.17141
0.0899604
-0.0941228
-1.37349
1.37765
0.0977449
-0.0999746
-1.61705
1.61928
0.100948
-0.100815
-1.59118
1.59104
0.100018
-0.0987156
-1.31361
1.31231
0.0972414
-0.095266
-1.09242
1.09045
0.0934408
-0.0913815
-0.915025
0.912965
0.0888589
-0.0843855
-0.760317
0.755843
0.0777349
-0.0674178
-0.588471
0.578153
0.0557241
-0.0418626
-0.381144
0.367283
0.029783
-0.0183755
-0.192841
0.181434
0.0103277
-0.00425134
-0.0700142
0.0639379
0.00111883
-0.00850817
0.00738934
-0.0418911
0.0448062
-0.00291502
0.0173902
-0.0259073
-0.262936
0.271453
0.0348115
-0.0420051
-0.430581
0.437774
0.0488441
-0.0546018
-0.58981
0.595568
0.0607409
-0.0667152
-0.722499
0.728473
0.0737434
-0.080272
-0.851854
0.858383
0.0874049
-0.0937438
-1.00105
1.00739
0.100361
-0.105919
-1.17653
1.18209
0.11128
-0.11531
-1.38153
1.38556
0.118547
-0.120218
-1.6211
1.62277
0.120518
-0.119641
-1.59042
1.58954
0.118201
-0.116267
-1.31019
1.30826
0.114326
-0.11192
-1.08817
1.08577
0.109697
-0.106996
-0.910109
0.907408
0.103723
-0.0977141
-0.750847
0.744838
0.0890437
-0.0760515
-0.567405
0.554413
0.0618553
-0.0456095
-0.352736
0.33649
0.0318949
-0.0193096
-0.169582
0.156996
0.0106664
-0.00430909
-0.0577489
0.0513916
0.00110972
-0.00627936
0.00516965
-0.0475588
0.0519842
-0.00442543
0.0251866
-0.0367715
-0.280295
0.29188
0.0485475
-0.0580603
-0.447774
0.457287
0.0669447
-0.0742691
-0.603978
0.611303
0.0819987
-0.0894772
-0.735341
0.74282
0.0977438
-0.105148
-0.864817
0.872221
0.113001
-0.119769
-1.01358
1.02035
0.126592
-0.132094
-1.18733
1.19283
0.137132
-0.140643
-1.3891
1.39261
0.14308
-0.143832
-1.62383
1.62459
0.143151
-0.141273
-1.58804
1.58616
0.139015
-0.136327
-1.30542
1.30273
0.133833
-0.130967
-1.08284
1.07997
0.128214
-0.124883
-0.903795
0.900464
0.120476
-0.112366
-0.73808
0.72997
0.10104
-0.0847143
-0.540812
0.524487
0.0675484
-0.0486512
-0.319604
0.300707
0.0332783
-0.0196653
-0.1441
0.130487
0.0106233
-0.0041888
-0.0450289
0.0385944
0.00104664
-0.00408818
0.00304154
-0.0559844
0.0635201
-0.00753573
0.0387621
-0.0548548
-0.304364
0.320456
0.0706943
-0.0834319
-0.471159
0.483896
0.0944963
-0.103233
-0.621824
0.630561
0.112518
-0.121321
-0.750864
0.759667
0.130581
-0.138426
-0.879315
0.887159
0.146381
-0.152949
-1.02669
1.03326
0.159295
-0.164116
-1.1977
1.20252
0.168188
-0.170591
-1.39533
1.39773
0.171653
-0.171
-1.62447
1.62382
0.168942
-0.165775
-1.5835
1.58034
0.162498
-0.158889
-1.29902
1.29541
0.155753
-0.152372
-1.07628
1.0729
0.149072
-0.144793
-0.895788
0.891509
0.138726
-0.127661
-0.720734
0.709669
0.112782
-0.0923617
-0.507229
0.486808
0.071955
-0.0504045
-0.281399
0.259848
0.0335777
-0.0192823
-0.116891
0.102596
0.0101258
-0.00386312
-0.0323251
0.0260624
0.000913766
-0.00203653
0.00112277
-0.0705195
0.0747215
-0.00420199
0.0295324
-0.0436049
-0.339117
0.353189
0.0577626
-0.069525
-0.502162
0.513924
0.0800622
-0.0899294
-0.643042
0.65291
0.101002
-0.111325
-0.767883
0.778206
0.122841
-0.133051
-0.893956
0.904166
0.143935
-0.153642
-1.03891
1.04862
0.163859
-0.17268
-1.20628
1.2151
0.181557
-0.188742
-1.39898
1.40616
0.195313
-0.199796
-1.62201
1.62649
0.202186
-0.203106
-1.57617
1.57708
0.202862
-0.202052
-1.29065
1.28984
0.201424
-0.200261
-1.06818
1.06702
0.198562
-0.194085
-0.88511
0.880633
0.18531
-0.168227
-0.696892
0.679808
0.14514
-0.114898
-0.465334
0.435092
0.0864507
-0.0580886
-0.238334
0.209972
0.0372811
-0.020597
-0.0889928
0.0723087
0.0103781
-0.00374443
-0.0202601
0.0136264
0.000805031
-0.000197138
-0.000607893
-0.0821924
0.0802451
0.00194732
0.00782393
-0.0169166
-0.369971
0.379064
0.0276657
-0.036183
-0.530307
0.538825
0.0447807
-0.0529566
-0.665556
0.673732
0.0630344
-0.0725741
-0.787985
0.797525
0.0828356
-0.0921935
-0.913723
0.923081
0.102153
-0.110685
-1.05802
1.06655
0.119844
-0.127373
-1.2237
1.23122
0.134904
-0.14072
-1.41301
1.41882
0.145562
-0.148559
-1.63021
1.63321
0.149591
-0.149209
-1.57748
1.57709
0.147639
-0.14544
-1.28821
1.28601
0.143509
-0.141396
-1.06336
1.06125
0.138729
-0.133083
-0.871737
0.866091
0.123519
-0.107737
-0.658788
0.643007
0.0890376
-0.0669077
-0.403123
0.380993
0.0480514
-0.0311419
-0.182184
0.165274
0.0195303
-0.0106622
-0.0566936
0.0478255
0.00532591
-0.00191455
-0.00716966
0.0037583
0.000397486
0.00165143
-0.00204892
-0.0836362
0.0807093
0.00292683
-0.00120074
-0.00398328
-0.390909
0.396093
0.01111
-0.0173364
-0.551218
0.557445
0.0236731
-0.0307269
-0.68455
0.691603
0.0394671
-0.0477265
-0.806098
0.814357
0.0568237
-0.0649577
-0.931584
0.939718
0.0733629
-0.0809365
-1.07489
1.08247
0.0888491
-0.095433
-1.23829
1.24488
0.10155
-0.106065
-1.42395
1.42847
0.109772
-0.111525
-1.63552
1.63727
0.111348
-0.109804
-1.57614
1.57459
0.107319
-0.104309
-1.28336
1.28035
0.10118
-0.0978723
-1.05652
1.05321
0.0942221
-0.0884003
-0.856465
0.850643
0.0796038
-0.0664226
-0.624374
0.611193
0.0525614
-0.0377575
-0.357447
0.342643
0.0265846
-0.0173715
-0.148191
0.138978
0.0112358
-0.00651833
-0.0389728
0.0342553
0.00349345
-0.00138726
-8.03358e-05
-0.00202585
0.000335856
0.00268764
-0.00302349
-0.0823614
0.0795076
0.00285378
-0.00511535
0.00255716
-0.404796
0.407355
0.00204765
-0.00673098
-0.566742
0.571425
0.0120413
-0.0179365
-0.700132
0.706027
0.0254124
-0.0324736
-0.821915
0.828977
0.0402105
-0.0471518
-0.947247
0.954188
0.0547057
-0.0610877
-1.08956
1.09594
0.0679195
-0.0731232
-1.251
1.2562
0.0782261
-0.0818336
-1.43269
1.4363
0.0843624
-0.0848453
-1.63853
1.63901
0.0838304
-0.0814846
-1.57242
1.57007
0.0783003
-0.0741407
-1.27679
1.27263
0.0702213
-0.0658976
-1.04782
1.0435
0.0612613
-0.0555045
-0.840496
0.834739
0.0477927
-0.037852
-0.595489
0.585549
0.0285152
-0.0198593
-0.326897
0.318241
0.0140356
-0.00960756
-0.129097
0.124669
0.00665701
-0.00426949
-0.0289974
0.0266099
0.00251885
-0.00111953
0.00457388
-0.0059732
0.000309442
0.00356502
-0.00387446
-0.080772
0.0782288
0.00254321
-0.00646168
0.00554833
-0.414053
0.414966
-0.00211591
-0.00134965
-0.579123
0.582589
0.00556166
-0.0108694
-0.713184
0.718492
0.0171252
-0.0232979
-0.835286
0.841458
0.0299599
-0.0359508
-0.960619
0.96661
0.0423808
-0.047985
-1.10214
1.10775
0.0536827
-0.0583073
-1.2612
1.26583
0.0624936
-0.0652831
-1.43945
1.44224
0.0669178
-0.0665879
-1.63922
1.63889
0.0648033
-0.0614899
-1.56689
1.56358
0.0576427
-0.0528969
-1.26812
1.26337
0.0482713
-0.0429557
-1.03756
1.03224
0.0378293
-0.0320313
-0.824715
0.818917
0.0256658
-0.0183084
-0.573343
0.565986
0.0125147
-0.00813888
-0.308302
0.303926
0.00574974
-0.00430672
-0.119226
0.117783
0.00338443
-0.00251382
-0.0235448
0.0226742
0.00169204
-0.000852973
0.00775567
-0.00859474
0.000272343
0.0043361
-0.00460845
-0.079253
0.0770587
0.00219432
-0.00651746
0.00615938
-0.420328
0.420686
-0.00413813
0.00134633
-0.588624
0.591416
0.00273012
-0.0072518
-0.724183
0.728704
0.0125855
-0.0178987
-0.846794
0.852107
0.0237632
-0.029064
-0.972197
0.977498
0.0348715
-0.0397059
-1.11303
1.11786
0.0447085
-0.0487221
-1.27009
1.27411
0.0521993
-0.0543485
-1.44465
1.4468
0.0552589
-0.0546526
-1.63833
1.63772
0.0522175
-0.0484375
-1.55964
1.55586
0.0440351
-0.0386887
-1.25815
1.2528
0.0337428
-0.0277111
-1.02581
1.01978
0.0221179
-0.016391
-0.80963
0.803903
0.010901
-0.00541
-0.55668
0.551189
0.00194566
-0.000181473
-0.29762
0.295856
-3.04874e-05
-0.000289325
-0.11499
0.115309
0.000570422
-0.000793906
-0.0212753
0.0214987
0.000749928
-0.000489847
0.00961785
-0.00987793
0.000190923
0.00494468
-0.0051356
-0.0780406
0.0763071
0.00173351
-0.00575626
0.00578286
-0.424886
0.424859
-0.00415275
0.0020867
-0.596851
0.598917
0.00169325
-0.00576548
-0.733644
0.737716
0.0107669
-0.0152956
-0.857004
0.861532
0.0203895
-0.0250306
-0.982718
0.987359
0.0304532
-0.0347514
-1.12268
1.12697
0.0390796
-0.0427215
-1.27787
1.28151
0.0461109
-0.0478326
-1.44886
1.45058
0.0484293
-0.0473192
-1.63658
1.63547
0.0447921
-0.0403777
-1.55169
1.54727
0.0358133
-0.0302591
-1.24704
1.24148
0.024836
-0.018657
-1.01305
1.00687
0.0127664
-0.00677644
-0.795109
0.789119
0.00215496
0.00218605
-0.543492
0.539151
-0.00446702
0.00480589
-0.291662
0.291323
-0.00409707
0.00295909
-0.114453
0.115591
-0.00187162
0.000842039
-0.021327
0.0223566
-0.000232768
-6.33364e-05
0.010185
-0.00988891
7.70413e-05
0.00530582
-0.00538287
-0.0773128
0.0759415
0.00137129
-0.00474204
0.00494907
-0.428387
0.42818
-0.00350323
0.0015727
-0.60392
0.605851
0.00197068
-0.00560498
-0.742055
0.745689
0.00983668
-0.014144
-0.866011
0.870318
0.0187873
-0.0235016
-0.991754
0.996468
0.0280873
-0.0320933
-1.13133
1.13534
0.0364162
-0.0396699
-1.28496
1.28822
0.0423718
-0.0442799
-1.45212
1.45403
0.0447435
-0.0435701
-1.6343
1.63313
0.0407908
-0.036493
-1.54291
1.53861
0.031827
-0.0261195
-1.2354
1.2297
0.0206367
-0.0143018
-1.00002
0.993682
0.00835641
-0.00249504
-0.781032
0.77517
-0.00199335
0.00564254
-0.532358
0.528709
-0.00739329
0.00744155
-0.288306
0.288258
-0.00641004
0.00484412
-0.11556
0.117126
-0.00343499
0.00198844
-0.0229762
0.0244227
-0.000992012
0.000305915
0.00959795
-0.00891185
-3.32332e-05
0.00538699
-0.00535376
-0.0771184
0.0759634
0.00115492
-0.00347662
0.00346864
-0.431431
0.431439
-0.00226301
0.000388481
-0.610318
0.612193
0.00287952
-0.00636223
-0.749795
0.753277
0.01037
-0.0142223
-0.874426
0.878278
0.0189274
-0.0227716
-1.00055
1.00439
0.0272471
-0.0309934
-1.13946
1.1432
0.0350866
-0.0384077
-1.29139
1.29471
0.0412428
-0.0427467
-1.45561
1.45712
0.0433006
-0.0422394
-1.63178
1.63072
0.0397941
-0.0354506
-1.53407
1.52973
0.0308967
-0.0252518
-1.22395
1.2183
0.0198569
-0.0135166
-0.986748
0.980407
0.0077337
-0.00172739
-0.767493
0.761487
-0.00272921
0.00612639
-0.522489
0.519092
-0.00791223
0.0080267
-0.285764
0.28565
-0.00718656
0.00568687
-0.117363
0.118863
-0.00424816
0.00265709
-0.0254066
0.0269977
-0.00147242
0.000556099
0.00826548
-0.00734916
-0.000120335
0.00524193
-0.0051216
-0.0772143
0.0763896
0.000824646
-0.00232548
0.00184668
-0.4345
0.434979
-0.00082868
-0.00111433
-0.615922
0.617865
0.0040344
-0.00735803
-0.756934
0.760258
0.0111621
-0.01511
-0.882004
0.885952
0.019141
-0.0231027
-1.00841
1.01237
0.0274774
-0.0309431
-1.14734
1.15081
0.0350448
-0.0382265
-1.29777
1.30095
0.0409874
-0.042887
-1.45897
1.46087
0.0437431
-0.0427581
-1.62961
1.62862
0.040314
-0.0364479
-1.52547
1.52161
0.0322273
-0.0267344
-1.21244
1.20695
0.0214172
-0.0154822
-0.973751
0.967816
0.00951064
-0.00372789
-0.754128
0.748345
-0.000817628
0.00437278
-0.513201
0.509646
-0.00618324
0.00687803
-0.283095
0.2824
-0.00654037
0.00553814
-0.11904
0.120042
-0.00431149
0.00285867
-0.0280113
0.0294642
-0.00168742
0.000703932
0.0065393
-0.00555582
-0.00017933
0.00492811
-0.00474878
-0.0777293
0.0770766
0.00065273
-0.00134164
0.00089628
-0.437758
0.438203
0.000639669
-0.00242997
-0.62157
0.623361
0.00550765
-0.00868507
-0.763513
0.766691
0.0123207
-0.0158384
-0.889573
0.893091
0.019963
-0.0235693
-1.0163
1.01991
0.0278432
-0.0317048
-1.1547
1.15856
0.0353752
-0.0388175
-1.30413
1.30758
0.0419156
-0.0438049
-1.4626
1.46449
0.0449024
-0.0445453
-1.62779
1.62743
0.042389
-0.038971
-1.51753
1.51411
0.0348327
-0.0297009
-1.20144
1.19631
0.0247475
-0.0189323
-0.961318
0.955503
0.0133205
-0.00753377
-0.741253
0.735466
0.00280344
0.00112303
-0.503652
0.499726
-0.00337612
0.00452159
-0.279657
0.278511
-0.00483754
0.0043907
-0.119798
0.120245
-0.00361029
0.00253451
-0.0302478
0.0313236
-0.00157658
0.000703684
0.00476573
-0.00389284
-0.000197778
0.00452324
-0.00432546
-0.0785446
0.078072
0.000472607
-0.000254935
-0.000378565
-0.441167
0.4418
0.0017801
-0.00387699
-0.626802
0.628899
0.00688026
-0.0098936
-0.769814
0.772827
0.0136113
-0.0169648
-0.896588
0.899942
0.0209056
-0.0246079
-1.02397
1.02767
0.0287551
-0.0325445
-1.16224
1.16603
0.0363944
-0.0398189
-1.3109
1.31432
0.0430395
-0.0456136
-1.46662
1.46919
0.0470591
-0.0468927
-1.62695
1.62679
0.0452993
-0.0420837
-1.51052
1.50731
0.038424
-0.0337975
-1.1911
1.18647
0.0288935
-0.0233247
-0.949322
0.943753
0.0179132
-0.0120713
-0.728683
0.722842
0.0072797
-0.00283817
-0.493937
0.489495
0.000118787
0.00172207
-0.275264
0.273423
-0.00255309
0.00271034
-0.119411
0.119253
-0.00246943
0.00186959
-0.0316959
0.0322957
-0.00123418
0.000586308
0.00327603
-0.00262816
-0.000172816
0.00410978
-0.00393696
-0.0796044