/*--------------------------------*- C++ -*----------------------------------*\
  =========                 |
  \\      /  F ield         | OpenFOAM: The Open Source CFD Toolbox
   \\    /   O peration     | Website:  https://openfoam.org
    \\  /    A nd           | Version:  6
     \\/     M anipulation  |
\*---------------------------------------------------------------------------*/
FoamFile
{
    version     2.0;
    format      ascii;
    class       volVectorField;
    location    "0.8";
    object      U;
}
// * * * * * * * * * * * * * * * * * * * * * * * * * * * * * * * * * * * * * //

dimensions      [0 1 -1 0 0 0 0];

internalField   nonuniform List<vector> 
8800
(
(0.916252 -0.0568363 0)
(0.936131 -0.0434622 0)
(0.926763 -0.0293913 0)
(0.920943 -0.0199705 0)
(0.917349 -0.0136638 0)
(0.915092 -0.00933909 0)
(0.913651 -0.00625941 0)
(0.912722 -0.00394359 0)
(0.912122 -0.0020489 0)
(0.911802 -0.000239639 0)
(0.91188 0.00153411 0)
(0.912337 0.00330098 0)
(0.913073 0.00531797 0)
(0.914222 0.00791699 0)
(0.916013 0.0114969 0)
(0.918849 0.0166589 0)
(0.923402 0.0243122 0)
(0.930826 0.0357806 0)
(0.939293 0.0526082 0)
(0.726624 0.0291005 0)
(0.643543 -0.00701641 0)
(1.05746 -0.0157507 0)
(1.05307 -0.015859 0)
(1.04376 -0.0158974 0)
(1.03645 -0.0146877 0)
(1.03117 -0.0124202 0)
(1.02762 -0.00967592 0)
(1.02536 -0.00688636 0)
(1.02398 -0.0041621 0)
(1.02323 -0.00146052 0)
(1.02305 0.00126391 0)
(1.02348 0.00391022 0)
(1.02447 0.00646931 0)
(1.02622 0.00908534 0)
(1.02906 0.0117042 0)
(1.03342 0.0141438 0)
(1.0397 0.0158052 0)
(1.04805 0.0162432 0)
(1.0578 0.0157497 0)
(1.00038 0.0156121 0)
(0.580573 -0.000226231 0)
(1.01767 -0.00475841 0)
(1.0158 -0.00719925 0)
(1.01313 -0.00845382 0)
(1.01032 -0.00864094 0)
(1.00767 -0.0079231 0)
(1.00542 -0.00648575 0)
(1.00373 -0.00457506 0)
(1.0026 -0.00236244 0)
(1.00204 9.5661e-05 0)
(1.00211 0.00255806 0)
(1.00281 0.00475073 0)
(1.00412 0.00662897 0)
(1.00602 0.00813334 0)
(1.00845 0.00904868 0)
(1.01119 0.00916333 0)
(1.01395 0.00832233 0)
(1.01643 0.00635315 0)
(1.01225 0.00323188 0)
(0.580174 0.000246741 0)
(0.582014 -0.000141054 0)
(1.01641 -0.00163846 0)
(1.01605 -0.00280025 0)
(1.01493 -0.00383138 0)
(1.01342 -0.00453551 0)
(1.01162 -0.00468128 0)
(1.0098 -0.00420104 0)
(1.00819 -0.00313739 0)
(1.00697 -0.00160031 0)
(1.00629 0.000301858 0)
(1.00634 0.00222349 0)
(1.00708 0.00379582 0)
(1.00835 0.00489727 0)
(1.00997 0.00544954 0)
(1.01173 0.00537422 0)
(1.01333 0.00472843 0)
(1.01465 0.00370185 0)
(1.01558 0.00245443 0)
(1.01017 0.00117032 0)
(0.581451 0.000155196 0)
(0.57984 -6.83315e-05 0)
(1.01346 -0.000764559 0)
(1.01353 -0.0013187 0)
(1.01303 -0.0018555 0)
(1.01228 -0.00227744 0)
(1.01129 -0.00246555 0)
(1.01014 -0.00230883 0)
(1.00897 -0.00173693 0)
(1.00795 -0.000749916 0)
(1.0073 0.000582848 0)
(1.00726 0.00192619 0)
(1.00778 0.00291254 0)
(1.00865 0.00344691 0)
(1.00966 0.00354476 0)
(1.01064 0.00326875 0)
(1.01145 0.00272082 0)
(1.01203 0.00202859 0)
(1.01238 0.00130384 0)
(1.00666 0.000619263 0)
(0.579007 8.52346e-05 0)
(0.57905 -3.1735e-05 0)
(1.01231 -0.000340228 0)
(1.01252 -0.000594811 0)
(1.01226 -0.000850597 0)
(1.01184 -0.00106122 0)
(1.01124 -0.00115923 0)
(1.01049 -0.00106296 0)
(1.00965 -0.000700027 0)
(1.00883 -3.84649e-05 0)
(1.00822 0.000880582 0)
(1.00806 0.00177824 0)
(1.00834 0.0023571 0)
(1.00885 0.00256867 0)
(1.00943 0.00247447 0)
(1.00995 0.00216152 0)
(1.01036 0.00172487 0)
(1.01064 0.00124739 0)
(1.01079 0.000785021 0)
(1.00499 0.00036978 0)
(0.577916 5.33397e-05 0)
(0.578688 -1.12854e-05 0)
(1.01181 -0.000117049 0)
(1.01208 -0.000202631 0)
(1.01192 -0.000282663 0)
(1.01166 -0.000335016 0)
(1.01127 -0.000322227 0)
(1.01075 -0.000195544 0)
(1.01012 9.55116e-05 0)
(1.00944 0.00057745 0)
(1.00884 0.00121501 0)
(1.00855 0.00178732 0)
(1.00859 0.00208625 0)
(1.00881 0.00210168 0)
(1.00909 0.00191586 0)
(1.00934 0.00160799 0)
(1.00953 0.00124834 0)
(1.00966 0.000886579 0)
(1.00972 0.000552257 0)
(1.00388 0.000258824 0)
(0.577182 3.72309e-05 0)
(0.578606 2.18362e-06 0)
(1.01172 2.27103e-05 0)
(1.01201 4.87775e-05 0)
(1.0119 8.89253e-05 0)
(1.01172 0.000156528 0)
(1.01143 0.000271177 0)
(1.01103 0.000459872 0)
(1.0105 0.000748746 0)
(1.00988 0.00114553 0)
(1.00926 0.0016061 0)
(1.00882 0.00195127 0)
(1.00864 0.00205033 0)
(1.00864 0.00193687 0)
(1.0087 0.00168777 0)
(1.00878 0.00137346 0)
(1.00884 0.00104467 0)
(1.00889 0.000732737 0)
(1.0089 0.000453795 0)
(1.00305 0.00021176 0)
(0.576634 3.07713e-05 0)
(0.578713 1.25538e-05 0)
(1.01191 0.000131972 0)
(1.01222 0.000240798 0)
(1.01213 0.000375051 0)
(1.01197 0.000542291 0)
(1.01172 0.000753171 0)
(1.01136 0.00101887 0)
(1.01087 0.00134578 0)
(1.01024 0.0017201 0)
(1.00954 0.00208043 0)
(1.00893 0.00227091 0)
(1.00856 0.00222312 0)
(1.00836 0.00200144 0)
(1.00826 0.00168846 0)
(1.00821 0.00134455 0)
(1.00819 0.00100857 0)
(1.00818 0.000701534 0)
(1.00817 0.000431904 0)
(1.0023 0.000200736 0)
(0.576156 2.89486e-05 0)
(0.578974 2.13586e-05 0)
(1.01234 0.000226497 0)
(1.01265 0.000411805 0)
(1.01256 0.000633129 0)
(1.01241 0.00089614 0)
(1.01216 0.00120577 0)
(1.01179 0.00156299 0)
(1.01127 0.00195768 0)
(1.01058 0.00235475 0)
(1.00974 0.00266984 0)
(1.00893 0.00275282 0)
(1.00835 0.00258336 0)
(1.00798 0.00225815 0)
(1.00774 0.00186614 0)
(1.0076 0.00146554 0)
(1.00751 0.00108943 0)
(1.00746 0.000753641 0)
(1.00742 0.000462788 0)
(1.00155 0.000214712 0)
(0.575678 3.11182e-05 0)
(0.579379 3.07397e-05 0)
(1.01299 0.000324331 0)
(1.01329 0.000588301 0)
(1.0132 0.00090059 0)
(1.01303 0.00126652 0)
(1.01276 0.00168703 0)
(1.01234 0.00215488 0)
(1.01175 0.00264573 0)
(1.01093 0.00310236 0)
(1.00989 0.00341236 0)
(1.00884 0.00341603 0)
(1.00804 0.0031325 0)
(1.00748 0.00269346 0)
(1.00711 0.00220045 0)
(1.00688 0.00171491 0)
(1.00673 0.00126868 0)
(1.00665 0.000875114 0)
(1.00659 0.000536247 0)
(1.00071 0.000248346 0)
(0.575148 3.59955e-05 0)
(0.579939 4.11759e-05 0)
(1.01388 0.000435689 0)
(1.01418 0.00078918 0)
(1.01406 0.00120648 0)
(1.01387 0.00169191 0)
(1.01354 0.00224425 0)
(1.01305 0.00284887 0)
(1.01233 0.00346713 0)
(1.01132 0.00401798 0)
(1.01002 0.00435447 0)
(1.00867 0.00429385 0)
(1.0076 0.00388991 0)
(1.00684 0.0033151 0)
(1.00633 0.0026916 0)
(1.006 0.002089 0)
(1.00579 0.00154127 0)
(1.00567 0.00106143 0)
(1.00559 0.00064998 0)
(0.999702 0.000300897 0)
(0.574521 4.37953e-05 0)
(0.580684 5.40286e-05 0)
(1.01507 0.000569851 0)
(1.01535 0.00103198 0)
(1.01521 0.00157606 0)
(1.01496 0.00220772 0)
(1.01456 0.00292262 0)
(1.01395 0.00369907 0)
(1.01305 0.00448247 0)
(1.01179 0.0051641 0)
(1.01014 0.00555398 0)
(1.0084 0.00543328 0)
(1.00702 0.00489049 0)
(1.00603 0.00414844 0)
(1.00535 0.00335733 0)
(1.00491 0.00260009 0)
(1.00463 0.00191575 0)
(1.00447 0.0013181 0)
(1.00437 0.000806729 0)
(0.998469 0.000373173 0)
(0.573753 5.4208e-05 0)
(0.581653 6.99347e-05 0)
(1.0166 0.000737392 0)
(1.01686 0.00133461 0)
(1.01668 0.00203767 0)
(1.01638 0.00285202 0)
(1.01587 0.00377148 0)
(1.0151 0.00476532 0)
(1.01396 0.00576076 0)
(1.01236 0.00661481 0)
(1.01026 0.00708356 0)
(1.00804 0.00689832 0)
(1.00626 0.00618652 0)
(1.00499 0.005234 0)
(1.00411 0.00422821 0)
(1.00354 0.00327063 0)
(1.00318 0.00240804 0)
(1.00297 0.00165609 0)
(1.00284 0.00101317 0)
(0.996929 0.000468486 0)
(0.572794 6.8168e-05 0)
(0.582905 9.01585e-05 0)
(1.01858 0.000949902 0)
(1.01882 0.00171891 0)
(1.01859 0.00262306 0)
(1.0182 0.0036697 0)
(1.01756 0.00484896 0)
(1.01657 0.0061199 0)
(1.01512 0.00738608 0)
(1.01308 0.00846174 0)
(1.01039 0.00903504 0)
(1.00757 0.00877251 0)
(1.00529 0.00784865 0)
(1.00366 0.00662888 0)
(1.00254 0.00534877 0)
(1.00181 0.00413421 0)
(1.00134 0.00304247 0)
(1.00107 0.00209185 0)
(1.00091 0.00127993 0)
(0.994985 0.000591954 0)
(0.571586 8.61272e-05 0)
(0.584519 0.000116355 0)
(1.02112 0.00122244 0)
(1.02133 0.00221115 0)
(1.02104 0.00337338 0)
(1.02053 0.00471702 0)
(1.01971 0.00622855 0)
(1.01844 0.0078528 0)
(1.01658 0.00946357 0)
(1.01397 0.0108205 0)
(1.01054 0.011525 0)
(1.00694 0.0111626 0)
(1.00404 0.00996807 0)
(1.00196 0.00840797 0)
(1.00054 0.0067785 0)
(0.999606 0.00523645 0)
(0.99902 0.00385209 0)
(0.998671 0.00264777 0)
(0.998468 0.0016196 0)
(0.99253 0.000748784 0)
(0.570061 0.000108467 0)
(0.5866 0.000149979 0)
(1.0244 0.00157428 0)
(1.02456 0.00284687 0)
(1.02418 0.00434153 0)
(1.02353 0.00606753 0)
(1.02246 0.00800522 0)
(1.02083 0.0100811 0)
(1.01843 0.0121292 0)
(1.01509 0.0138389 0)
(1.01071 0.014702 0)
(1.00612 0.0142047 0)
(1.00244 0.0126618 0)
(0.9998 0.0106673 0)
(0.997998 0.00859325 0)
(0.996816 0.00663497 0)
(0.996073 0.00487936 0)
(0.995632 0.00335337 0)
(0.995377 0.00205095 0)
(0.98942 0.000948044 0)
(0.568129 0.000137577 0)
(0.589288 0.000194168 0)
(1.02862 0.00203225 0)
(1.02872 0.00367304 0)
(1.02823 0.00559843 0)
(1.02738 0.00781874 0)
(1.026 0.0103052 0)
(1.02388 0.0129584 0)
(1.02078 0.0155595 0)
(1.01648 0.0177066 0)
(1.01088 0.0187537 0)
(1.00504 0.0180692 0)
(1.00038 0.016075 0)
(0.997046 0.0135264 0)
(0.994769 0.0108883 0)
(0.993277 0.00840321 0)
(0.99234 0.0061781 0)
(0.991783 0.00424516 0)
(0.991465 0.00259597 0)
(0.985483 0.00119971 0)
(0.565686 0.000174006 0)
(0.592771 0.000252316 0)
(1.03407 0.00263246 0)
(1.03409 0.00475489 0)
(1.03345 0.00724272 0)
(1.03233 0.0101051 0)
(1.03052 0.0132999 0)
(1.02776 0.0166904 0)
(1.02374 0.0199867 0)
(1.0182 0.0226679 0)
(1.01104 0.023917 0)
(1.00363 0.0229677 0)
(0.997741 0.0203884 0)
(0.993538 0.0171339 0)
(0.990671 0.0137822 0)
(0.988792 0.0106324 0)
(0.987611 0.00781501 0)
(0.98691 0.00536899 0)
(0.986513 0.00328264 0)
(0.980501 0.00151678 0)
(0.562596 0.000219897 0)
(0.59731 0.000329998 0)
(1.04114 0.00342784 0)
(1.04106 0.0061862 0)
(1.0402 0.00941316 0)
(1.03871 0.0131156 0)
(1.03632 0.0172276 0)
(1.0327 0.0215587 0)
(1.02746 0.0257204 0)
(1.02031 0.0290389 0)
(1.01116 0.0304888 0)
(1.00178 0.0291605 0)
(0.99436 0.0258222 0)
(0.989079 0.0216729 0)
(0.985477 0.0174224 0)
(0.983116 0.0134363 0)
(0.981632 0.00987449 0)
(0.98075 0.00678331 0)
(0.980254 0.00414701 0)
(0.974204 0.00191562 0)
(0.558695 0.000277445 0)
(0.603267 0.000435858 0)
(1.05038 0.00449823 0)
(1.05013 0.00810651 0)
(1.04897 0.0123178 0)
(1.04697 0.0171268 0)
(1.04377 0.0224296 0)
(1.03896 0.0279542 0)
(1.0321 0.0331756 0)
(1.02285 0.0372254 0)
(1.01117 0.0388348 0)
(0.999337 0.0369607 0)
(0.990034 0.0326417 0)
(0.983423 0.0273654 0)
(0.978911 0.0219911 0)
(0.975946 0.01696 0)
(0.97408 0.0124652 0)
(0.97297 0.0085634 0)
(0.972349 0.00523538 0)
(0.966251 0.0024179 0)
(0.553771 0.000349954 0)
(0.611175 0.000583393 0)
(1.06253 0.00597054 0)
(1.06205 0.010738 0)
(1.06044 0.0162782 0)
(1.05768 0.022561 0)
(1.05333 0.0294123 0)
(1.04687 0.0364338 0)
(1.0378 0.0429132 0)
(1.02581 0.047745 0)
(1.01095 0.0493965 0)
(0.996108 0.0467342 0)
(0.984518 0.0411587 0)
(0.97628 0.0344819 0)
(0.970637 0.0277184 0)
(0.966912 0.0213902 0)
(0.964558 0.015731 0)
(0.963151 0.0108121 0)
(0.962367 0.00661169 0)
(0.956207 0.00305355 0)
(0.547559 0.000442045 0)
(0.621859 0.000799099 0)
(1.07875 0.00806797 0)
(1.07789 0.0144594 0)
(1.07557 0.0218361 0)
(1.07165 0.0301028 0)
(1.06558 0.0389579 0)
(1.05675 0.0478067 0)
(1.04467 0.0556908 0)
(1.02911 0.0612425 0)
(1.0103 0.0626847 0)
(0.991846 0.0588912 0)
(0.977525 0.0517292 0)
(0.967319 0.0433479 0)
(0.960271 0.0349008 0)
(0.955571 0.0269851 0)
(0.95257 0.0198792 0)
(0.950763 0.0136802 0)
(0.949754 0.00837238 0)
(0.943505 0.0038686 0)
(0.539703 0.000560246 0)
(0.636713 0.00113719 0)
(1.10085 0.0112354 0)
(1.0993 0.0200052 0)
(1.09575 0.0299926 0)
(1.0899 0.0409463 0)
(1.08112 0.0523281 0)
(1.06882 0.0632603 0)
(1.05263 0.0725101 0)
(1.03251 0.0784873 0)
(1.00892 0.0792555 0)
(0.986234 0.073858 0)
(0.968741 0.0647371 0)
(0.956196 0.0543499 0)
(0.947401 0.0439342 0)
(0.941414 0.0341294 0)
(0.937505 0.0252517 0)
(0.935105 0.0174365 0)
(0.933748 0.0106969 0)
(0.927355 0.00495151 0)
(0.529694 0.000719313 0)
(0.658438 0.00175452 0)
(1.13192 0.0166536 0)
(1.1289 0.0291174 0)
(1.12286 0.0428733 0)
(1.1135 0.0573264 0)
(1.1003 0.0715847 0)
(1.0829 0.0844857 0)
(1.0612 0.0946203 0)
(1.03543 0.100323 0)
(1.00627 0.0996507 0)
(0.978852 0.0920273 0)
(0.957824 0.0805567 0)
(0.942593 0.0679229 0)
(0.931658 0.0553515 0)
(0.923943 0.0434452 0)
(0.918667 0.0325028 0)
(0.915256 0.0226804 0)
(0.913244 0.014041 0)
(0.906545 0.00655834 0)
(0.516695 0.00096302 0)
(0.692528 0.0033931 0)
(1.17753 0.0290931 0)
(1.17024 0.0470361 0)
(1.15849 0.0653762 0)
(1.14251 0.0833513 0)
(1.12225 0.099839 0)
(1.09771 0.113621 0)
(1.06904 0.123364 0)
(1.03669 0.127524 0)
(1.00143 0.124296 0)
(0.969025 0.113677 0)
(0.944309 0.0994751 0)
(0.926197 0.0844819 0)
(0.91281 0.0697975 0)
(0.902885 0.0559058 0)
(0.895578 0.0429807 0)
(0.890342 0.0311138 0)
(0.886823 0.0202606 0)
(0.879124 0.0102842 0)
(0.499757 0.00151662 0)
(0.744444 0.0165793 3.78717e-20)
(1.24252 0.0648204 3.24572e-20)
(1.22324 0.0847467 -1.10374e-20)
(1.2003 0.104843 0)
(1.1741 0.123663 -2.46111e-34)
(1.14446 0.139915 3.50526e-21)
(1.11131 0.152484 -5.77043e-21)
(1.07473 0.160174 0)
(1.03513 0.161518 1.07012e-34)
(0.993243 0.154799 -6.04173e-21)
(0.95549 0.140651 0)
(0.926782 0.123571 -6.68113e-21)
(0.905412 0.106386 -1.93793e-20)
(0.889062 0.0900037 -9.05514e-21)
(0.876259 0.074917 -2.66886e-21)
(0.866001 0.0611895 -1.57506e-21)
(0.857615 0.0493826 0)
(0.850618 0.0392907 1.10561e-21)
(0.839764 0.0317967 1.31351e-21)
(0.47603 0.0112074 2.40931e-20)
(0.783797 0.0535192 3.40961e-20)
(1.2986 0.128987 1.15265e-22)
(1.26939 0.14399 3.25017e-21)
(1.23708 0.161086 0)
(1.20209 0.177214 -1.33902e-20)
(1.1641 0.190991 -1.45489e-20)
(1.1229 0.201166 -6.04022e-21)
(1.0785 0.206347 -1.97645e-20)
(1.03122 0.204876 0)
(0.981715 0.194961 2.56606e-20)
(0.937114 0.177726 2.45116e-20)
(0.902911 0.15833 7.05843e-21)
(0.877071 0.139691 2.48453e-20)
(0.856838 0.122698 3.41371e-20)
(0.840445 0.107646 0)
(0.826749 0.0948799 4.74346e-20)
(0.815004 0.0843968 6.82233e-20)
(0.804692 0.0766881 7.60757e-20)
(0.792003 0.0725126 -8.75961e-20)
(0.449133 0.0353822 -1.56537e-21)
(0.801179 0.101436 0)
(1.33463 0.205568 7.66831e-21)
(1.30143 0.215466 0)
(1.26397 0.227323 -2.19795e-20)
(1.22304 0.238871 0)
(1.17864 0.248743 -3.0284e-20)
(1.13076 0.255343 1.26811e-20)
(1.0795 0.257104 -4.13143e-20)
(1.02523 0.252137 -2.60407e-22)
(0.968705 0.238507 1.34832e-20)
(0.917985 0.217896 5.25293e-20)
(0.879211 0.196135 2.57663e-23)
(0.850026 0.176175 -1.77346e-20)
(0.827324 0.158713 -3.12759e-20)
(0.809176 0.143897 3.68292e-20)
(0.79436 0.131747 -6.50132e-20)
(0.782031 0.12214 -8.56418e-21)
(0.771595 0.11517 0)
(0.758988 0.111211 2.52011e-22)
(0.431811 0.0580458 0)
(0.814834 0.14732 1.39397e-19)
(1.35742 0.281819 -6.27529e-20)
(1.32206 0.288274 -3.98796e-20)
(1.28152 0.296319 1.14389e-20)
(1.23664 0.304 -1.85482e-20)
(1.18749 0.309955 6.41231e-20)
(1.13418 0.312826 2.67602e-20)
(1.07697 0.310845 0)
(1.01641 0.302031 -7.1454e-20)
(0.953453 0.284268 0)
(0.897264 0.259838 -2.77014e-20)
(0.854731 0.235252 -3.24012e-20)
(0.823161 0.21345 -1.89093e-20)
(0.799044 0.194932 -2.22909e-20)
(0.780174 0.179577 0)
(0.765105 0.167131 0)
(0.752852 0.157401 -5.49037e-20)
(0.74265 0.150306 1.08215e-20)
(0.730314 0.145752 -6.4493e-21)
(0.416328 0.0781521 -7.54886e-21)
(0.824651 0.191751 -8.5327e-20)
(1.3725 0.356681 0)
(1.3354 0.36061 9.66611e-20)
(1.29249 0.36573 3.56425e-20)
(1.24452 0.370103 4.01412e-20)
(1.19156 0.37264 0)
(1.13369 0.371984 2.77795e-20)
(1.07127 0.366324 4.63465e-20)
(1.005 0.353545 3.75206e-20)
(0.936101 0.331395 6.13732e-20)
(0.874909 0.302658 0)
(0.829145 0.274629 -6.88155e-20)
(0.795777 0.250295 -4.00748e-20)
(0.770806 0.229985 -2.33011e-20)
(0.751695 0.213361 1.38608e-19)
(0.736754 0.200016 1.63417e-20)
(0.724838 0.189487 7.75067e-20)
(0.715051 0.181771 -3.68405e-19)
(0.703094 0.176488 2.19213e-19)
(0.401641 0.0957389 -2.67924e-19)
(0.832205 0.234625 -7.71701e-20)
(1.38215 0.429267 1.68615e-20)
(1.34359 0.431415 -1.41648e-20)
(1.29868 0.434206 -4.81267e-20)
(1.24814 0.435908 -4.08846e-20)
(1.1919 0.435529 2.71168e-22)
(1.13004 0.431721 -2.97048e-20)
(1.06292 0.422605 4.87394e-20)
(0.991343 0.405959 -7.99421e-20)
(0.916774 0.37927 0)
(0.850801 0.345786 -3.19335e-20)
(0.802055 0.313648 -9.42019e-23)
(0.76719 0.28609 -4.27949e-20)
(0.741677 0.263278 0)
(0.722609 0.244772 -2.94772e-20)
(0.708046 0.22993 -6.9345e-20)
(0.696626 0.21835 1.85126e-19)
(0.687449 0.209512 -1.83196e-19)
(0.676017 0.203284 2.61123e-19)
(0.386825 0.111042 -2.75265e-19)
(0.837882 0.276102 -6.45002e-22)
(1.38825 0.499493 -1.70232e-20)
(1.34822 0.500323 -5.82917e-20)
(1.3015 0.5012 2.4802e-20)
(1.24864 0.500727 -2.14848e-20)
(1.18945 0.49787 0)
(1.12397 0.49129 -3.05339e-20)
(1.0525 0.479048 -5.158e-20)
(0.975859 0.45873 -4.22258e-20)
(0.895695 0.427505 0)
(0.824881 0.388903 -3.34162e-20)
(0.773138 0.352079 -3.88354e-20)
(0.736855 0.320588 4.54411e-20)
(0.71099 0.294569 -2.68009e-20)
(0.692148 0.273619 -1.2456e-19)
(0.678127 0.256873 7.35325e-20)
(0.667437 0.243652 2.18224e-20)
(0.658948 0.233657 0)
(0.648211 0.22619 -2.45199e-19)
(0.371564 0.124072 -9.03845e-21)
(0.842503 0.316474 -1.02336e-20)
(1.39171 0.567416 1.7526e-20)
(1.35034 0.56708 3.07951e-20)
(1.3019 0.566418 7.98591e-20)
(1.24687 0.564149 -8.9314e-20)
(1.18498 0.55923 7.66284e-20)
(1.11613 0.55022 6.50158e-20)
(1.04057 0.535245 -8.23211e-20)
(0.958943 0.511595 2.34566e-20)
(0.873119 0.475944 -1.48202e-19)
(0.797173 0.432 -3.61297e-20)
(0.742165 0.389882 0)
(0.704389 0.353705 4.8206e-20)
(0.678203 0.323849 5.60448e-20)
(0.659738 0.299808 6.59666e-20)
(0.646445 0.280652 -7.75616e-20)
(0.636591 0.265594 -2.28004e-20)
(0.629018 0.25398 2.72477e-20)
(0.619076 0.245092 0)
(0.355917 0.134879 -1.92034e-20)
(0.846309 0.355465 1.03045e-19)
(1.39348 0.632842 -7.17213e-20)
(1.35066 0.631617 -3.22515e-20)
(1.30057 0.629688 5.54938e-20)
(1.24351 0.625888 -4.63533e-20)
(1.17912 0.619123 -8.09596e-22)
(1.10713 0.608161 -6.95689e-20)
(1.02761 0.590818 -2.93683e-20)
(0.941138 0.564253 -7.22331e-20)
(0.849402 0.524531 1.47504e-23)
(0.7678 0.475161 -1.14206e-19)
(0.709 0.427227 8.8444e-20)
(0.66942 0.385653 -5.10258e-20)
(0.642869 0.351166 5.93224e-20)
(0.624895 0.323402 0)
(0.61253 0.301278 -4.05629e-20)
(0.603739 0.284019 -3.45358e-22)
(0.597236 0.270601 -1.13634e-19)
(0.588386 0.259964 -1.70017e-20)
(0.339518 0.143384 0)
(0.849359 0.392396 0)
(1.39382 0.695807 -7.59901e-20)
(1.34969 0.693751 -6.62942e-20)
(1.29803 0.69079 -5.81001e-20)
(1.23906 0.685705 -5.06071e-20)
(1.17229 0.67752 0)
(1.09739 0.664815 -3.56344e-20)
(1.01414 0.645556 -3.25302e-22)
(0.922844 0.616619 1.53884e-19)
(0.824957 0.573339 -2.08001e-20)
(0.73692 0.518679 -8.14739e-20)
(0.673567 0.464368 4.69657e-20)
(0.631681 0.416535 1.32547e-22)
(0.604622 0.376529 6.26005e-20)
(0.587238 0.344281 3.65453e-20)
(0.575985 0.318751 -8.59482e-20)
(0.568524 0.298723 1.00729e-19)
(0.563356 0.283227 2.95747e-20)
(0.555953 0.270543 1.23694e-19)
(0.322144 0.14963 -3.35177e-19)
(0.852097 0.428907 2.12172e-20)
(1.39312 0.756453 -3.83697e-20)
(1.34773 0.753705 3.24192e-20)
(1.29459 0.74972 5.99126e-20)
(1.23384 0.743502 0)
(1.16492 0.734061 -4.35962e-20)
(1.08731 0.720048 1.14859e-19)
(1.00053 0.699262 6.57938e-20)
(0.904588 0.66847 0)
(0.800241 0.622298 -2.91333e-19)
(0.704936 0.562759 2.17336e-19)
(0.635846 0.50177 0)
(0.590854 0.446741 5.71322e-20)
(0.562965 0.400215 4.02796e-22)
(0.546259 0.362607 -1.14276e-19)
(0.53637 0.332967 4.50183e-20)
(0.530598 0.30971 0)
(0.527049 0.291821 1.54479e-19)
(0.521311 0.277074 0)
(0.304069 0.153725 -1.52229e-19)
(0.85447 0.464019 -2.20851e-20)
(1.39167 0.814617 -3.85422e-20)
(1.34501 0.811235 3.49862e-20)
(1.2905 0.806355 0)
(1.22817 0.799115 -5.44497e-20)
(1.15723 0.788657 0)
(1.0772 0.773498 -1.2011e-19)
(0.987224 0.751646 -3.37187e-20)
(0.886715 0.719692 2.84714e-20)
(0.77576 0.671585 -1.43815e-19)
(0.672177 0.607893 2.30695e-20)
(0.595852 0.540189 0)
(0.54649 0.476964 -1.21242e-19)
(0.51729 0.422473 -5.81844e-22)
(0.501423 0.378221 0)
(0.493414 0.343539 -4.56189e-22)
(0.489705 0.31676 1.35199e-19)
(0.488241 0.296058 -1.2744e-19)
(0.484555 0.279071 3.76791e-20)
(0.285419 0.155528 0)
(0.856218 0.4975 0)
(1.38953 0.870482 -3.93251e-20)
(1.34167 0.866429 -3.48892e-20)
(1.28591 0.860726 -3.89241e-22)
(1.22212 0.852466 -2.76148e-20)
(1.14955 0.840995 -9.78046e-20)
(1.06733 0.825022 4.30509e-20)
(0.974461 0.802573 -3.69169e-20)
(0.869665 0.770111 1.23127e-19)
(0.752005 0.721085 -2.29894e-19)
(0.639282 0.654373 -3.40655e-22)
(0.553855 0.580249 -5.68469e-20)
(0.498256 0.50777 1.93048e-19)
(0.466863 0.443478 7.80395e-22)
(0.451983 0.390965 -8.2395e-20)
(0.446576 0.350239 -1.43053e-19)
(0.445889 0.319171 0)
(0.447067 0.295717 0)
(0.445885 0.276565 3.8124e-20)
(0.266734 0.155519 -2.22384e-20)
(0.857733 0.529981 -2.26056e-20)
(1.38677 0.923893 8.18445e-20)
(1.33786 0.91919 3.69606e-20)
(1.28094 0.912627 0)
(1.21587 0.903574 -4.42389e-22)
(1.14185 0.891247 -1.01154e-19)
(1.05773 0.874551 1.11849e-19)
(0.96244 0.851734 1.53749e-19)
(0.853855 0.819356 1.62666e-19)
(0.729638 0.770665 -1.90127e-19)
(0.606943 0.702633 -1.86618e-19)
(0.510219 0.622928 1.52537e-19)
(0.445654 0.540436 0)
(0.410335 0.463837 -3.78393e-20)
(0.396734 0.400232 -8.51445e-20)
(0.395491 0.35171 -9.72006e-20)
(0.39934 0.316136 -1.10911e-19)
(0.404266 0.290111 3.17031e-20)
(0.406172 0.269292 -1.94133e-20)
(0.249003 0.154297 -9.80008e-22)
(0.858655 0.561068 0)
(1.38344 0.974916 0)
(1.33362 0.969408 8.01791e-22)
(1.27569 0.962036 0)
(1.20958 0.952142 8.9731e-20)
(1.13434 0.939015 7.84525e-20)
(1.04879 0.921808 0)
(0.951328 0.899022 1.97618e-20)
(0.839404 0.867296 2.75122e-19)
(0.70908 0.820113 -4.35951e-19)
(0.575994 0.752765 0)
(0.465681 0.669391 -9.88613e-20)
(0.388385 0.576557 7.37905e-22)
(0.345983 0.484371 1.26989e-21)
(0.333473 0.405081 8.99736e-20)
(0.339165 0.345757 2.22155e-23)
(0.351044 0.305297 -2.20594e-19)
(0.362019 0.278145 6.23908e-20)
(0.367941 0.2576 1.76959e-20)
(0.234125 0.152894 0)
(0.859005 0.590435 6.70205e-20)
(1.37966 1.02347 4.28494e-20)
(1.329 1.01717 7.67843e-20)
(1.27033 1.0089 -1.39304e-19)
(1.20322 0.998211 1.54899e-19)
(1.12703 0.984363 0)
(1.04032 0.966818 7.33893e-20)
(0.941189 0.944176 -4.25392e-20)
(0.826508 0.913702 7.28593e-22)
(0.690789 0.869179 3.13793e-20)
(0.547296 0.804755 2.44803e-19)
(0.421514 0.720596 -3.53328e-20)
(0.326601 0.618675 -1.19644e-19)
(0.271149 0.50734 -4.26215e-20)
(0.257773 0.40434 4.49462e-20)
(0.275205 0.327358 3.08898e-22)
(0.303041 0.281062 5.14029e-20)
(0.325875 0.25669 -1.19052e-19)
(0.337638 0.24204 1.29946e-19)
(0.228092 0.155012 2.04486e-20)
(0.858571 0.618586 -2.24401e-20)
(1.37537 1.06964 2.20156e-20)
(1.3241 1.06249 1.5219e-21)
(1.26465 1.0533 -7.0759e-20)
(1.19692 1.04188 -3.13914e-20)
(1.11993 1.02739 -1.45953e-19)
(1.03232 1.00944 2.49515e-20)
(0.932009 0.987147 -1.80006e-19)
(0.81527 0.958261 -3.08754e-19)
(0.675042 0.91736 -2.63393e-19)
(0.521948 0.858323 0)
(0.379406 0.777352 -1.53243e-19)
(0.261345 0.670035 1.72325e-19)
(0.182958 0.537569 0)
(0.161196 0.398233 -9.74151e-20)
(0.196332 0.286885 4.68959e-20)
(0.258533 0.229485 -4.9424e-20)
(0.309182 0.217471 -4.75383e-20)
(0.332023 0.223507 -8.34358e-20)
(0.244116 0.168612 -6.22963e-20)
(0.858099 0.645871 2.28673e-20)
(1.37063 1.11336 -2.35248e-20)
(1.31873 1.10527 -5.89839e-20)
(1.25887 1.09513 -9.20144e-20)
(1.19072 1.08285 6.73451e-20)
(1.11313 1.06785 -9.03653e-20)
(1.02496 1.04966 8.0309e-20)
(0.92384 1.0278 -1.89346e-19)
(0.805687 1.00073 -1.8388e-19)
(0.662054 0.964257 2.78637e-19)
(0.500581 0.91273 5.43327e-19)
(0.341463 0.83973 0)
(0.195559 0.734005 0)
(0.0800334 0.584071 -4.98966e-20)
(0.0293904 0.393432 0)
(0.0812033 0.208519 9.0333e-20)
(0.219554 0.114979 8.29157e-20)
(0.347314 0.137831 0)
(0.396901 0.207622 0)
(0.313163 0.212595 3.37359e-20)
(0.856889 0.671205 -2.21895e-20)
(1.36549 1.15463 -2.05219e-20)
(1.31324 1.14564 -4.13031e-20)
(1.25297 1.13467 7.48177e-20)
(1.18432 1.12154 6.97731e-20)
(1.10646 1.10586 1.0933e-19)
(1.01803 1.08743 -1.12792e-19)
(0.916574 1.06604 5.22715e-22)
(0.797683 1.04099 -9.99613e-22)
(0.651736 1.0094 -1.41974e-21)
(0.483869 0.967135 2.80963e-19)
(0.309994 0.906856 0)
(0.134548 0.812842 1.79857e-19)
(-0.0333169 0.660051 1.13898e-19)
(-0.155313 0.414839 2.32613e-19)
(-0.128931 0.0754192 5.18782e-20)
(0.181168 -0.160358 -8.52913e-21)
(0.582738 -0.0270183 -3.89574e-21)
(0.678526 0.236021 0)
(0.494297 0.340028 -1.66585e-20)
(0.856024 0.695944 4.34413e-20)
(1.36025 1.19332 0)
(1.30763 1.18342 -4.1096e-20)
(1.247 1.17164 5.8108e-20)
(1.17805 1.15779 -7.10854e-20)
(1.10003 1.1414 -1.45492e-19)
(1.01166 1.12256 2.34667e-19)
(0.910182 1.10175 -1.45511e-20)
(0.790984 1.0787 0)
(0.643901 1.05217 -3.12511e-19)
(0.471923 1.02045 -6.16724e-19)
(0.286836 0.976864 2.36236e-20)
(0.085175 0.905928 2.54471e-19)
(-0.142284 0.777804 0)
(-0.394569 0.523507 1.72156e-19)
(-0.573023 -0.0389109 0)
(-0.372947 -0.658578 0)
(0.426322 -0.325951 8.12415e-20)
(0.898159 0.318149 0)
(0.887472 0.644735 -1.53142e-20)
(0.854122 0.718794 4.33989e-20)
(1.35472 1.22976 0)
(1.30185 1.21894 -6.23801e-20)
(1.24101 1.20628 0)
(1.17193 1.19166 3.55407e-20)
(1.09365 1.17497 0)
(1.00557 1.15549 1.42727e-20)
(0.904287 1.13527 2.6621e-20)
(0.78538 1.11413 2.30786e-20)
(0.638303 1.09291 -3.4612e-19)
(0.464481 1.07238 1.91289e-20)
(0.272719 1.04843 1.87483e-19)
(0.0531247 1.01025 2.5009e-19)
(-0.221004 0.940906 3.24073e-20)
(-0.615943 0.809466 1.42635e-19)
(-1.2729 0.612858 0)
(-1.48235 1.01177 -1.75183e-19)
(-0.901882 2.18709 1.90348e-19)
(-0.391845 2.2237 -1.99739e-19)
(-0.45865 2.61912 1.0608e-19)
(0.852221 0.740802 -3.21702e-20)
(1.34858 1.26463 -6.50362e-20)
(1.29599 1.25281 0)
(1.23514 1.2393 1.61173e-21)
(1.16609 1.22399 -9.04565e-20)
(1.08785 1.2069 2.49939e-19)
(1.00009 1.18722 9.04458e-20)
(0.899186 1.16754 0)
(0.780963 1.14871 1.60979e-19)
(0.634861 1.13326 -1.89592e-20)
(0.461568 1.1251 0)
(0.268214 1.12314 0)
(0.0435271 1.12422 2.24925e-19)
(-0.239571 1.12975 -9.86287e-20)
(-0.627447 1.16283 -1.47878e-19)
(-1.18954 1.32395 0)
(-1.70239 2.01321 9.87664e-22)
(-1.34073 2.696 4.45477e-20)
(-0.860809 3.25739 5.80191e-20)
(-0.582023 3.34328 2.87771e-20)
(0.850291 0.762287 2.00169e-20)
(1.34186 1.29734 7.63569e-20)
(1.29019 1.28474 -3.27905e-20)
(1.22946 1.27076 -4.00816e-20)
(1.16059 1.25481 0)
(1.08293 1.23687 1.70462e-19)
(0.995647 1.21807 1.36738e-19)
(0.895151 1.19876 -1.36803e-20)
(0.778056 1.18171 2.35734e-20)
(0.633817 1.17151 3.33809e-19)
(0.463314 1.17534 3.15278e-19)
(0.273889 1.19529 2.1019e-19)
(0.0577319 1.23378 2.24669e-19)
(-0.203449 1.30326 -2.29212e-19)
(-0.511513 1.43667 -2.17622e-19)
(-0.848058 1.70248 0)
(-1.08231 2.12231 0)
(-1.04012 2.6703 2.06487e-20)
(-0.790149 2.74681 0)
(-0.635604 2.87501 4.36249e-20)
(0.849258 0.785389 0)
(1.33431 1.32695 0)
(1.28409 1.31435 0)
(1.22325 1.3001 -9.71615e-21)
(1.15464 1.28395 -7.75151e-20)
(1.07703 1.26602 1.20125e-19)
(0.991744 1.24768 9.2792e-20)
(0.892618 1.22924 -1.38051e-20)
(0.77762 1.21435 2.09594e-19)
(0.636923 1.20895 -3.01503e-21)
(0.472691 1.22296 6.25359e-19)
(0.2931 1.26138 -2.35621e-20)
(0.0948239 1.32881 2.72485e-20)
(-0.134289 1.44195 3.17117e-20)
(-0.363439 1.612 1.29407e-21)
(-0.557139 1.85745 4.14796e-21)
(-0.659412 2.17136 -2.11476e-19)
(-0.641531 2.44308 -6.87866e-20)
(-0.539424 2.62947 2.45639e-20)
(-0.473315 2.73386 -2.91072e-20)
(0.736903 0.720278 -8.06418e-21)
(1.3283 1.35353 0)
(1.27745 1.34219 5.48068e-20)
(1.21662 1.32758 9.37437e-20)
(1.14798 1.31087 -1.43684e-19)
(1.07098 1.29274 -1.2375e-19)
(0.987407 1.27416 -1.02793e-19)
(0.890608 1.25741 1.77667e-19)
(0.77956 1.24539 -1.77238e-19)
(0.645487 1.24527 0)
(0.492754 1.26939 3.09765e-19)
(0.332683 1.32346 -1.70661e-19)
(0.164358 1.40983 0)
(-0.023562 1.5491 3.06989e-20)
(-0.189935 1.72982 6.56123e-20)
(-0.318437 1.95692 -6.67933e-20)
(-0.398336 2.18888 7.21936e-20)
(-0.406854 2.39004 3.80726e-20)
(-0.353916 2.53879 3.49455e-20)
(-0.338615 2.62133 5.41534e-20)
(0.905028 0.90474 2.32597e-20)
(1.32449 1.39449 0)
(1.26517 1.38265 -4.95787e-20)
(1.20471 1.36831 -8.593e-20)
(1.13631 1.3521 1.3586e-19)
(1.06061 1.33551 1.1574e-19)
(0.977475 1.31725 1.32714e-19)
(0.882483 1.30287 1.34493e-20)
(0.773381 1.29436 1.78906e-19)
(0.64457 1.30001 3.03527e-19)
(0.504315 1.3362 1.82843e-20)
(0.3665 1.41166 1.51413e-19)
(0.233305 1.52612 2.49158e-20)
(0.117234 1.67967 -2.81337e-20)
(0.020434 1.86954 -5.78604e-20)
(-0.051126 2.06763 5.77265e-20)
(-0.104707 2.25784 -6.22058e-20)
(-0.126496 2.3635 -3.37075e-20)
(-0.132083 2.49201 -3.02587e-20)
(-0.201097 2.5838 -3.89506e-21)
(0.899028 0.905377 0)
(1.31596 1.42255 -8.10612e-21)
(1.26106 1.41304 8.32082e-21)
(1.19964 1.39845 8.22058e-21)
(1.13184 1.38114 8.27961e-20)
(1.0556 1.36193 -1.09393e-19)
(0.968244 1.34262 -8.34285e-20)
(0.871779 1.32527 1.27637e-20)
(0.764398 1.31479 -1.93003e-19)
(0.641055 1.32229 -4.00141e-21)
(0.510338 1.36311 -5.75361e-19)
(0.387369 1.44415 2.09533e-20)
(0.276496 1.5659 -2.37871e-20)
(0.190351 1.72567 -2.54096e-20)
(0.1236 1.90858 3.62199e-21)
(0.0847145 2.08886 -9.61796e-22)
(0.042369 2.27811 1.02051e-19)
(0.0360421 2.37274 5.25813e-20)
(-0.00614444 2.48395 -1.76509e-20)
(-0.0815959 2.57345 -2.31304e-20)
(0.873862 0.895888 -1.22632e-20)
(1.30809 1.45627 -5.06981e-20)
(1.25263 1.44274 2.28552e-20)
(1.18992 1.42687 3.10038e-20)
(1.12137 1.40878 0)
(1.04657 1.39082 -1.41131e-19)
(0.962778 1.37174 -1.16067e-19)
(0.872479 1.35611 1.20026e-20)
(0.771637 1.34854 -2.08243e-20)
(0.656905 1.36038 -2.91409e-19)
(0.538984 1.4074 -2.70975e-19)
(0.436208 1.49433 -1.79365e-19)
(0.354438 1.6198 -1.75441e-19)
(0.295601 1.77704 1.67105e-19)
(0.256562 1.95391 1.45844e-19)
(0.237734 2.12979 0)
(0.197018 2.32483 0)
(0.193334 2.4348 -1.50306e-20)
(0.127542 2.54631 0)
(0.0205561 2.59836 -2.0039e-20)
(0.842211 0.895363 1.16815e-20)
(1.29877 1.49376 3.49646e-20)
(1.24224 1.4769 0)
(1.18098 1.45964 1.85542e-21)
(1.11366 1.44015 6.82461e-20)
(1.03921 1.42018 -1.95388e-19)
(0.957554 1.39859 -7.20541e-20)
(0.867802 1.38147 1.05792e-20)
(0.768764 1.37344 -1.52964e-19)
(0.659019 1.38581 1.60441e-20)
(0.55324 1.43379 0)
(0.470443 1.521 0)
(0.415959 1.6429 -1.6552e-19)
(0.388339 1.79344 6.57269e-20)
(0.380897 1.96436 9.03184e-20)
(0.389451 2.1411 0)
(0.358887 2.35343 -2.1259e-20)