/*--------------------------------*- C++ -*----------------------------------*\
  =========                 |
  \\      /  F ield         | OpenFOAM: The Open Source CFD Toolbox
   \\    /   O peration     | Website:  https://openfoam.org
    \\  /    A nd           | Version:  6
     \\/     M anipulation  |
\*---------------------------------------------------------------------------*/
FoamFile
{
    version     2.0;
    format      ascii;
    class       volScalarField;
    location    "53";
    object      p;
}
// * * * * * * * * * * * * * * * * * * * * * * * * * * * * * * * * * * * * * //

dimensions      [0 2 -2 0 0 0 0];

internalField   nonuniform List<scalar> 
918
(
0.534193
1.25151
0.00594296
0.534107
-0.0107392
1.21926
-0.495022
0.661386
0.51533
-0.120078
-0.0582997
0.514955
1.07637
0.84231
-1.16966
-0.0145999
0.632368
-0.419465
0.513331
-0.0681204
0.685186
0.522017
0.524484
0.515273
0.574458
0.79676
0.953972
-0.00180011
0.00951779
0.00521262
-0.0121067
-0.0321312
-0.0276483
1.10237
1.15433
1.17751
0.481961
0.316767
-0.392451
-0.442679
-0.426485
-0.517798
0.65718
0.655466
-0.212833
0.664138
0.668513
0.501074
0.514724
0.51556
0.516695
0.515586
0.516873
0.390796
-0.127003
-0.155394
-0.103448
-0.100946
0.0417075
-0.0624968
-0.0662638
-0.055401
-0.0561334
0.431235
0.51052
0.50734
0.519843
0.529491
1.19168
1.16538
1.19146
1.10211
1.11969
1.05329
1.02623
0.864202
0.888249
0.826319
0.811841
-1.63022
-2.58204
-0.589556
-0.31053
-0.0101204
-0.0153994
-0.0129497
0.626857
0.628854
0.632647
0.636843
1.02934
-0.392196
-0.460472
0.513846
0.512363
0.521545
0.522449
0.517404
0.517411
-0.0612063
-0.0588021
-0.058193
-0.0672672
-0.0668236
0.677095
0.676018
0.514712
0.512161
0.53874
0.560337
0.550595
0.250634
0.583415
0.601298
0.660021
0.804605
0.793139
0.805131
0.929636
0.897741
0.985098
1.00682
0.014059
-0.000746446
-0.017332
-0.0190811
-0.018128
0.477709
0.471292
0.498935
0.485578
0.488612
0.221154
0.0696749
0.399623
0.423631
-0.312754
-0.359223
-0.457472
-0.454598
-0.55867
0.595696
0.652235
0.648749
-0.227171
-0.153547
-0.279721
-0.0958713
-0.152384
0.492061
0.498286
0.494377
0.509715
0.503894
0.506313
0.518807
0.515978
0.517579
0.450892
0.581712
0.309771
0.284493
-0.280423
-0.173944
-0.261968
-0.089396
-0.0846692
0.0526615
0.0804142
0.0293738
0.0168085
-0.07555
-0.0688489
-0.0717572
-0.054965
-0.0553979
0.422695
0.409711
0.442419
0.449909
0.497931
0.499377
0.503796
0.501819
0.977087
1.00041
1.00622
0.982291
-3.56504
-6.20785
0.0368027
0.197304
-0.00785767
-0.00902707
0.000726931
-0.00842698
0.00031372
-0.00228045
-0.0179555
-0.0186723
-0.0144246
-0.0142765
0.624273
0.626089
1.00325
1.03059
0.97361
0.957332
0.50317
0.505069
0.509697
0.506579
-0.0539782
-0.0552223
-0.0531182
0.669746
0.67414
0.673224
0.209926
0.121898
0.301377
0.332332
0.62089
0.605773
0.619279
0.720549
0.759763
1.02375
1.04786
1.0318
1.04467
1.09557
1.1185
1.08374
0.456342
0.467232
0.461526
0.502015
0.499709
0.500716
0.496924
0.497997
0.49655
-0.0425533
-0.416551
0.475655
0.477499
0.466022
0.471407
0.681477
0.764605
0.636369
0.643929
0.642528
-0.0469234
-0.0940816
0.242823
0.214658
0.362187
0.396563
0.378523
0.95285
0.912879
0.961016
0.936356
0.90052
0.925086
-0.35362
-2.12293
-1.11527
0.601029
0.403108
0.495482
0.000259643
-0.0169565
-0.0130634
1.02324
1.0636
0.650376
0.837288
0.789272
0.782755
0.808166
0.872843
0.804539
0.839416
0.870569
0.844868
0.548311
0.484247
0.49962
0.840997
0.897283
0.0854462
0.00866771
-0.0148982
0.104068
0.173436
0.14197
1.04022
0.952262
1.01678
0.5124
0.513341
-0.0136883
-0.0359918
0.517453
0.517167
-0.0179306
-0.00797539
0.512619
-0.939864
0.0907606
0.506917
0.49666
0.513445
-0.0939456
0.32418
-0.06206
0.0264209
-0.00923934
0.509758
0.443446
0.401264
-0.00061594
-0.0231458
-0.061067
-0.221373
0.510139
0.508501
0.512825
0.513648
0.514417
-0.0207202
-0.0210014
-0.0141247
-0.0550745
-0.0516354
-0.0608788
0.476833
0.496858
-0.193606
0.513116
0.515213
0.514919
0.509071
0.514037
0.512647
-0.016009
-0.0216148
-0.0223433
0.190937
0.328358
0.696253
0.771686
0.645593
0.477952
0.180961
0.632334
0.684654
0.610021
0.740189
0.646764
0.657998
0.157407
0.0148222
0.160506
0.0932997
0.503788
0.503183
0.494204
0.49109
0.508245
0.505923
0.511124
0.508322
0.511492
0.512658
-0.0495464
-0.0803398
-0.099777
-0.145758
0.285741
0.545194
0.224785
0.246195
0.15414
-0.0534257
-0.052375
-0.0612501
-0.0671704
-0.0175305
-0.0254988
0.0209167
0.0273743
0.0102113
-0.0172013
-0.0257756
-0.0246541
-0.0309095
0.50294
0.502337
0.508034
0.516694
0.453007
0.456724
0.42308
0.441839
0.428034
0.367852
0.398028
0.375146
-0.0115637
-0.000322994
-0.0047983
-0.0217874
-0.0204627
-0.0426809
-0.0364875
-0.0324546
-0.0299183
-0.0351129
-0.0553814
-0.0548637
-0.184845
-0.302092
0.961454
0.893178
0.129103
0.500056
0.505708
0.502886
0.507558
0.510765
0.511413
0.508996
0.505491
0.496961
0.498355
0.495236
0.496289
-0.13326
-0.241064
-0.0722624
-0.144282
0.143552
0.610021
0.336155
0.28242
0.267492
0.490997
0.702433
0.619014
0.680094
0.670495
-0.395261
0.0125433
-0.325537
0.222402
0.212694
0.722431
0.763638
0.77965
0.737892
0.694464
-0.032826
0.543295
-0.0694993
-0.0201624
0.168441
0.0551148
0.657507
0.628781
0.633956
0.651134
0.662959
0.642233
0.625604
0.620455
0.646543
0.650436
0.491847
0.219709
0.178156
0.131804
0.620809
0.517553
0.569731
0.488723
0.499369
0.50181
0.50073
0.481621
0.488976
0.484653
0.491771
0.495412
0.502774
0.502981
0.498879
0.500762
-0.0727853
-0.0785314
-0.0685933
-0.133069
-0.133136
-0.17835
-0.0901338
0.0798847
0.028978
0.230681
0.359633
0.0567632
-0.0563469
-0.0413824
0.0112474
0.165107
0.173468
0.0499205
0.161173
0.115289
0.110406
0.197213
0.22168
-0.0393284
-0.041196
-0.0439773
-0.0494979
0.00307968
0.104557
0.0872086
-0.0134736
-0.0214532
-0.0507832
-0.0517605
-0.014197
-0.031178
-0.0245647
-0.00598736
-0.0489471
-0.0232992
-0.0122212
-0.0133802
-0.0167387
-0.0151889
0.496299
0.498511
0.498392
0.50626
0.52136
0.536424
0.497971
0.474234
0.465241
0.468351
0.441348
0.450637
0.445709
0.461579
0.483329
0.492477
0.489776
0.492518
0.474557
0.476321
0.461615
0.466232
0.435257
0.416877
0.406611
-0.0466176
-0.0136948
-0.0265475
-0.0419379
-0.0163723
-0.0267891
-0.0190295
-0.000960517
-0.0189815
-0.0164142
-0.0259148
-0.0322108
-0.0330906
-0.0857262
-0.00233018
-0.18199
-0.23451
-0.285513
0.877955
1.01447
0.796048
0.58027
0.592999
0.833263
0.928192
0.54662
0.698409
0.762021
0.566394
0.853496
0.503943
0.503569
0.501461
0.500651
0.501607
-0.0236513
0.0786807
0.0930668
0.150478
0.268118
0.374722
0.30015
0.187642
0.321227
0.345265
0.606979
0.613844
0.569308
0.592119
0.591826
0.403654
0.484425
0.525174
0.477691
0.550599
0.584428
0.531141
0.573914
0.494419
0.445066
0.436714
0.392532
0.426369
0.407939
0.382599
0.495686
0.472228
0.483223
0.472566
0.494348
0.515977
0.517829
0.541825
0.556204
0.473085
0.420572
0.437302
0.465245
0.42217
0.439194
0.460676
0.173871
0.0778551
0.242468
-0.0855699
0.00182869
0.0395789
-0.00223398
-0.0454499
0.261444
-0.37906
-0.325084
-1.00537
0.485944
0.853476
0.614028
0.62716
0.661356
0.646193
0.655351
0.664389
0.669223
0.609945
0.620515
0.623987
0.595479
0.621419
0.623559
0.630497
0.496381
0.399108
0.398034
0.333181
0.194119
0.23401
0.425962
0.358046
0.283819
0.277012
0.447336
0.313599
0.391203
0.446083
0.370903
0.304669
0.534386
0.580482
0.571733
0.545453
0.431845
0.46424
0.470817
0.518866
0.559208
0.585974
0.490395
0.496716
0.497649
0.4949
0.493169
0.496295
0.49655
0.498831
0.499121
0.501682
0.501097
-0.0605175
-0.0480004
-0.0659706
-0.0701325
-0.0136371
-0.0245522
-0.00390032
-0.0271295
-0.0259307
-0.023668
-0.0403506
-0.056003
-0.0522076
-0.0404985
0.0676682
0.0875125
0.0837643
0.0456293
0.227074
0.406545
0.464541
0.334784
0.187075
0.204219
0.293519
0.00371405
0.0179423
0.00277809
0.0580017
0.0386726
-0.0440898
-0.0484137
-0.0471508
-0.0373683
-0.0301287
-0.0500682
-0.04815
-0.0384286
-0.0452873
-0.0475609
-0.049533
0.475905
0.468794
0.472461
0.464821
0.462979
0.479945
0.484385
0.485682
0.491213
0.493887
0.483415
0.489472
0.493553
-0.0191298
-0.0369247
-0.0374858
-0.0328268
-0.0335239
-0.0337064
-0.0378537
0.11662
0.0219603
0.0582535
-0.0126857
-0.138951
-0.079938
0.489435
0.486464
0.478599
0.709255
0.546865
0.465149
0.563587
0.682297
0.264164
0.465718
0.299199
0.878762
0.783433
0.929009
0.546547
0.243898
0.408953
0.419628
0.260838
0.383866
0.333236
0.20937
0.245656
0.276533
0.35946
0.247105
0.22596
-0.016226
0.163128
0.275275
0.257273
0.38595
0.443645
0.251066
0.167652
0.115124
0.587755
0.605241
0.614536
0.587198
0.608829
0.55651
0.54737
0.565544
0.574022
0.566643
-0.64144
-0.22977
-1.43034
-0.839716
-0.388255
0.515554
0.509729
0.740201
0.646774
0.676107
0.659778
0.599057
0.565233
0.610468
0.628713
0.324306
0.412534
0.396847
0.375589
0.320072
0.261123
0.536437
0.543858
0.567772
0.593487
0.568632
0.595936
0.489076
0.488917
0.487649
0.483942
0.482475
0.485647
0.0268036
0.000595747
0.0356408
0.0234131
-0.000375912
-0.00236322
-0.0214011
-0.0327418
-0.0313352
-0.0296991
-0.0211246
-0.0195725
0.159768
0.100096
0.0112126
0.0533528
-0.0116498
-0.0960013
-0.0953773
-0.00830452
0.0915809
0.0743554
0.381688
0.652409
0.477251
0.644583
0.440529
0.542439
0.461311
0.435023
0.464264
0.363539
0.45213
0.0302922
-0.170235
-0.226478
0.811295
0.769243
0.554907
0.305989
0.19076
0.486616
0.514321
0.475157
0.500054
0.552821
0.532329
0.00655991
0.10008
0.176319
0.485209
0.268835
0.286974
0.277816
0.441162
0.41202
)
;

boundaryField
{
    wall-4
    {
        type            zeroGradient;
    }
    velocity-inlet-5
    {
        type            zeroGradient;
    }
    velocity-inlet-6
    {
        type            zeroGradient;
    }
    pressure-outlet-7
    {
        type            fixedValue;
        value           uniform 0;
    }
    wall-8
    {
        type            zeroGradient;
    }
    frontAndBackPlanes
    {
        type            empty;
    }
}


// ************************************************************************* //
