/*--------------------------------*- C++ -*----------------------------------*\
  =========                 |
  \\      /  F ield         | OpenFOAM: The Open Source CFD Toolbox
   \\    /   O peration     | Website:  https://openfoam.org
    \\  /    A nd           | Version:  6
     \\/     M anipulation  |
\*---------------------------------------------------------------------------*/
FoamFile
{
    version     2.0;
    format      ascii;
    class       surfaceScalarField;
    location    "61";
    object      phi;
}
// * * * * * * * * * * * * * * * * * * * * * * * * * * * * * * * * * * * * * //

dimensions      [0 3 -1 0 0 0 0];

internalField   nonuniform List<scalar> 
17370
(
-0.0900011
0.0898507
0.289161
-0.0714649
0.0537555
0.364485
-0.0381231
0.0276946
0.426597
-0.0196436
0.0146112
0.504284
-0.0107701
0.00828066
0.601892
-0.00628227
0.00490699
0.720433
-0.00374412
0.00290405
0.863747
-0.00216255
0.00160307
1.03601
-0.00108593
0.000672967
1.24292
-0.000264502
-0.000127973
1.49158
0.000507276
-0.000916185
1.4916
0.00131314
-0.00180336
1.24318
0.00233439
-0.00304462
1.03635
0.00386034
-0.00500398
0.86405
0.00636869
-0.00836029
0.721049
0.0108447
-0.0146802
0.60305
0.0197074
-0.0277524
0.507484
0.0381752
-0.0538
0.431793
0.0715014
-0.0898751
0.365149
0.0900156
0.198995
-0.128134
0.0882216
0.0399121
-0.364596
0.353373
-0.0746787
0.0859019
-0.446475
0.454317
-0.0844014
0.0765594
-0.521189
0.529898
-0.0684638
0.0597545
-0.612787
0.621564
-0.0515676
0.0427909
-0.726893
0.734159
-0.0353333
0.028068
-0.867474
0.872586
-0.0224707
0.0173582
-1.03847
1.04192
-0.0135504
0.0101019
-1.2446
1.24703
-0.00749174
0.00505923
-1.49262
1.4946
-0.0031123
0.00113549
-1.4925
1.49423
0.000544135
-0.00226965
-1.24398
1.24586
0.00417272
-0.0060569
-1.03751
1.04004
0.00841534
-0.0109494
-0.866102
0.869833
0.0143092
-0.0180398
-0.724394
0.729936
0.0230789
-0.0286216
-0.6087
0.616115
0.035837
-0.0432522
-0.514899
0.523044
0.0519834
-0.0601291
-0.439857
0.447918
0.0687944
-0.0768548
-0.375297
0.376743
0.0846561
-0.0861017
-0.257333
0.222483
0.0748147
-0.0399651
-0.0685123
0.0586841
0.00982812
-0.0518251
0.0584126
-0.37412
0.367533
-0.0575003
0.0537507
-0.45359
0.457339
-0.0486633
0.0447139
-0.527941
0.531891
-0.0408783
0.037244
-0.621558
0.625193
-0.0331477
0.0290764
-0.735343
0.739414
-0.0245101
0.0203536
-0.874334
0.87849
-0.0160102
0.0123179
-1.04348
1.04717
-0.00858191
0.0054095
-1.24856
1.25173
-0.00208092
-0.000993117
-1.49666
1.49973
0.00404182
-0.00730823
-1.49721
1.50047
0.0103892
-0.0139985
-1.25007
1.25368
0.0175626
-0.0217599
-1.04593
1.05013
0.0257886
-0.0302281
-0.87777
0.88221
0.0341985
-0.0381975
-0.739908
0.743907
0.04175
-0.0455002
-0.626781
0.630531
0.0493759
-0.0543928
-0.534815
0.539832
0.0580661
-0.0588818
-0.45748
0.458295
0.0521815
-0.0319844
-0.33576
0.315563
0.00988633
-0.0683522
0.0584658
-0.0529314
0.0489336
0.00399781
-0.0331771
0.0437289
-0.358094
0.347542
-0.0474326
0.046809
-0.459275
0.459898
-0.0437566
0.0404072
-0.535791
0.53914
-0.0366395
0.0333408
-0.628516
0.631815
-0.0299093
0.0268832
-0.742635
0.745661
-0.02363
0.0205274
-0.882004
0.885106
-0.0170005
0.0136233
-1.05076
1.05414
-0.00983204
0.00629474
-1.25516
1.25869
-0.00232656
-0.00147033
-1.50324
1.50704
0.00523584
-0.00911024
-1.50414
1.50802
0.012521
-0.0161393
-1.25743
1.26105
0.0193387
-0.0226601
-1.05393
1.05725
0.0255797
-0.0286484
-0.885708
0.888777
0.031526
-0.0348133
-0.747173
0.750461
0.037992
-0.0416364
-0.63432
0.637965
0.0448794
-0.0478104
-0.544146
0.547077
0.0483064
-0.0444232
-0.456586
0.452703
0.0336574
-0.0162143
-0.296204
0.278761
0.00406968
-0.0526483
0.0485786
-0.0458537
0.0433558
0.00249786
-0.0228237
0.033211
-0.336846
0.326458
-0.0390403
0.0400625
-0.459578
0.458556
-0.0388778
0.0365958
-0.541857
0.544139
-0.0339347
0.0313452
-0.634863
0.637452
-0.0282893
0.0253961
-0.748702
0.751595
-0.0221373
0.0191487
-0.888054
0.891042
-0.0158493
0.0127553
-1.05726
1.06035
-0.00923459
0.00582944
-1.26215
1.26555
-0.00186868
-0.00201465
-1.51091
1.5148
0.00585664
-0.00969368
-1.51191
1.51575
0.0129317
-0.0162255
-1.26449
1.26778
0.0190868
-0.0221163
-1.06036
1.06339
0.0248624
-0.0278746
-0.89184
0.894852
0.0305665
-0.0334251
-0.753674
0.756532
0.0358503
-0.0383451
-0.641036
0.64353
0.0404834
-0.0414793
-0.548885
0.549881
0.0402597
-0.0341423
-0.447428
0.441311
0.0234405
-0.0102293
-0.263549
0.250338
0.00258668
-0.0454181
0.0428314
-0.0412783
0.0395087
0.00176966
-0.0167656
0.026027
-0.316597
0.307335
-0.032643
0.0347905
-0.45695
0.454803
-0.0343762
0.0327116
-0.546112
0.547777
-0.030538
0.0284501
-0.639753
0.641841
-0.0260274
0.0236381
-0.754233
0.756622
-0.0207885
0.0180068
-0.893929
0.89671
-0.0147779
0.0117142
-1.06339
1.06645
-0.00822926
0.00490775
-1.26886
1.27219
-0.00107852
-0.00265241
-1.51858
1.52231
0.0063304
-0.0100021
-1.51948
1.52315
0.0131115
-0.0163088
-1.27103
1.27422
0.0190768
-0.0219614
-1.06641
1.0693
0.0244315
-0.0269619
-0.897678
0.900209
0.0290895
-0.0312557
-0.758991
0.761157
0.033133
-0.0350929
-0.64569
0.64765
0.0365488
-0.0367068
-0.550404
0.550562
0.0342567
-0.0272195
-0.434653
0.427616
0.0175349
-0.00739887
-0.238815
0.228679
0.00187809
-0.0406555
0.0387774
-0.0379839
0.0366519
0.00133203
-0.0128066
0.0207632
-0.298732
0.290775
-0.0275253
0.0304569
-0.452235
0.449303
-0.0306694
0.0295572
-0.549202
0.550314
-0.0275714
0.0256631
-0.64387
0.645778
-0.0234726
0.0213437
-0.758852
0.760981
-0.0188371
0.016361
-0.899274
0.90175
-0.0134265
0.0105543
-1.06938
1.07225
-0.00719927
0.0039626
-1.27544
1.27867
-0.000217248
-0.00341236
-1.52596
1.52959
0.00697569
-0.0105229
-1.52675
1.5303
0.0134937
-0.0164891
-1.27735
1.28035
0.0189922
-0.0214961
-1.07203
1.07454
0.0235819
-0.0256879
-0.902511
0.904617
0.0274868
-0.0293519
-0.76315
0.765015
0.0309939
-0.0327206
-0.649474
0.6512
0.0335275
-0.0329561
-0.550359
0.549788
0.0295917
-0.0222533
-0.420372
0.413033
0.0137533
-0.00573322
-0.219702
0.211682
0.00146393
-0.0371327
0.0356687
-0.0354881
0.0344607
0.00102733
-0.0100114
0.0167377
-0.28346
0.276734
-0.0232337
0.0266172
-0.446128
0.442744
-0.0274076
0.0267144
-0.551212
0.551905
-0.0249625
0.0231848
-0.647667
0.649444
-0.0211226
0.019114
-0.763044
0.765053
-0.0167517
0.0144329
-0.904075
0.906394
-0.0117027
0.00902437
-1.07496
1.07763
-0.00587246
0.00279215
-1.28179
1.28487
0.000813945
-0.00432315
-1.53314
1.53665
0.00775045
-0.011112
-1.53375
1.53711
0.013865
-0.0165741
-1.28321
1.28592
0.018797
-0.0209947
-1.07691
1.07911
0.0228298
-0.0246962
-0.906611
0.908478
0.0262963
-0.0279558
-0.766772
0.768432
0.0294046
-0.0307995
-0.652782
0.654177
0.0311141
-0.0298137
-0.548867
0.547566
0.025834
-0.0185798
-0.405713
0.398459
0.0111712
-0.00462844
-0.204472
0.197929
0.00118773
-0.0343594
0.0331717
-0.0335586
0.0327577
0.000800986
-0.00793946
0.0135936
-0.270574
0.26492
-0.019605
0.0231867
-0.439254
0.435672
-0.0244561
0.0240127
-0.552511
0.552954
-0.0225298
0.0208637
-0.651219
0.652885
-0.0188985
0.0169777
-0.76701
0.768931
-0.0147087
0.0124776
-0.9086
0.910831
-0.00985053
0.00728291
-1.08018
1.08275
-0.00427408
0.00133867
-1.28782
1.29076
0.00209525
-0.00543168
-1.54005
1.54338
0.00866789
-0.0118024
-1.54035
1.54348
0.0143379
-0.0168067
-1.28851
1.29098
0.0188189
-0.0207948
-1.08125
1.08322
0.0224308
-0.0240872
-0.910263
0.911919
0.0255028
-0.0269688
-0.76999
0.771456
0.0282226
-0.0292409
-0.655365
0.656383
0.0291818
-0.0272168
-0.545938
0.543973
0.0228398
-0.015857
-0.391338
0.384355
0.00935608
-0.00386283
-0.191962
0.186469
0.000995795
-0.0320927
0.0310969
-0.0320543
0.0314288
0.000625483
-0.00634094
0.01108
-0.259753
0.255014
-0.016502
0.0200843
-0.432092
0.42851
-0.0216775
0.0214608
-0.553324
0.553541
-0.0202111
0.0186021
-0.65457
0.656179
-0.0166912
0.0148184
-0.770816
0.772689
-0.0126087
0.0104392
-0.912953
0.915122
-0.00788665
0.00539566
-1.0852
1.08769
-0.00248336
-0.000342932
-1.29358
1.29641
0.00362204
-0.00677822
-1.54659
1.54975
0.00981199
-0.0127252
-1.54648
1.5494
0.0150617
-0.0173128
-1.29335
1.2956
0.0191236
-0.020878
-1.08516
1.08691
0.0223196
-0.0237824
-0.913504
0.914967
0.0250391
-0.0263392
-0.772831
0.774131
0.0274552
-0.0280612
-0.657185
0.657791
0.0276338
-0.0251128
-0.541745
0.539224
0.0204962
-0.013851
-0.377552
0.370907
0.00806827
-0.00332669
-0.181391
0.176649
0.000861958
-0.0301787
0.0293167
-0.0308833
0.0303999
0.000483403
-0.00505473
0.00900541
-0.250697
0.246746
-0.0137951
0.0172318
-0.425012
0.421576
-0.0190118
0.0189886
-0.553709
0.553732
-0.0179335
0.0163605
-0.657837
0.65941
-0.0144735
0.0126189
-0.774535
0.77639
-0.0104318
0.00828856
-0.917186
0.91933
-0.00577338
0.00332742
-1.09007
1.09251
-0.000482188
-0.00225964
-1.29913
1.30187
0.00541279
-0.00841526
-1.55278
1.55578
0.0112698
-0.013981
-1.55218
1.55489
0.0161331
-0.0181842
-1.29777
1.29982
0.0198118
-0.0213604
-1.08864
1.09019
0.0226164
-0.0238926
-0.916363
0.917639
0.0249971
-0.0261371
-0.775342
0.776482
0.0270553
-0.0272944
-0.658206
0.658445
0.0264702
-0.0234756
-0.536485
0.53349
0.0187153
-0.0123983
-0.364446
0.358129
0.00716369
-0.00295694
-0.172208
0.168001
0.00077132
-0.0285101
0.0277388
-0.0299847
0.0296215
0.000363236
-0.0039776
0.00723605
-0.243168
0.239909
-0.0113821
0.0145629
-0.418286
0.415105
-0.0164036
0.0165398
-0.55373
0.553594
-0.015568
0.014073
-0.661015
0.66251
-0.0121831
0.0103113
-0.778228
0.7801
-0.00810446
0.00595191
-0.921375
0.923528
-0.00344237
0.00101841
-1.09485
1.09727
0.00178372
-0.0044673
-1.30451
1.30719
0.00753051
-0.0104158
-1.55868
1.56157
0.01312
-0.0156426
-1.55748
1.56001
0.0176069
-0.0194438
-1.30177
1.3036
0.0208748
-0.0222131
-1.09174
1.09307
0.023291
-0.0243938
-0.918861
0.919964
0.0253545
-0.0263262
-0.777526
0.778498
0.0269926
-0.0269414
-0.658556
0.658505
0.0256915
-0.0222837
-0.530304
0.526896
0.0174276
-0.0113857
-0.351976
0.345934
0.00655053
-0.00271265
-0.164009
0.160171
0.000713326
-0.0270066
0.0262933
-0.0293195
0.0290634
0.000256094
-0.00303401
0.00566827
-0.236988
0.234353
-0.00917217
0.0120156
-0.412119
0.409275
-0.0138026
0.0140202
-0.553482
0.553264
-0.0130894
0.0116318
-0.664067
0.665524
-0.00971082
0.00779347
-0.781962
0.78388
-0.00553744
0.0033468
-0.925581
0.927772
-0.000804717
-0.00163668
-1.0996
1.10204
0.00443711
-0.00709059
-1.30978
1.31244
0.0100798
-0.0128514
-1.56435
1.56712
0.015406
-0.0177474
-1.56241
1.56475
0.0195398
-0.0211825
-1.30534
1.30698
0.0224296
-0.0235559
-1.09442
1.09555
0.0244446
-0.0253665
-0.921016
0.921938
0.0261834
-0.0269904
-0.779372
0.780179
0.0273711
-0.0270473
-0.658313
0.657989
0.0253536
-0.0215436
-0.523308
0.519498
0.0165904
-0.0107403
-0.340025
0.334175
0.00617219
-0.00256916
-0.156481
0.152878
0.000681924
-0.0256064
0.0249245
-0.0288653
0.028711
0.000154351
-0.00216023
0.00420863
-0.232036
0.229987
-0.00706579
0.00950329
-0.406665
0.404227
-0.0111338
0.0113627
-0.553118
0.55289
-0.0104511
0.00900597
-0.667071
0.668516
-0.00703689
0.00504882
-0.785786
0.787775
-0.00270466
0.000434721
-0.929868
0.932138
0.00218513
-0.00468161
-1.10439
1.10689
0.00751871
-0.0101784
-1.31501
1.31767
0.0131364
-0.0158328
-1.5698
1.57249
0.0182655
-0.0204362
-1.56697
1.56914
0.02205
-0.0234857
-1.30852
1.30996
0.0245398
-0.0254459
-1.09672
1.09763
0.0261353
-0.026861
-0.922802
0.923528
0.0275234
-0.0281802
-0.780863
0.781519
0.0282473
-0.0275487
-0.657445
0.656747
0.0254145
-0.0212115
-0.515536
0.511333
0.0161416
-0.0103945
-0.328421
0.322674
0.00598011
-0.0025046
-0.14937
0.145895
0.000671112
-0.0242595
0.0235884
-0.0286145
0.0285633
5.11737e-05
-0.00130779
0.00278497
-0.228247
0.22677
-0.00498146
0.00694838
-0.402059
0.400092
-0.00831489
0.00846581
-0.552792
0.552641
-0.00751648
0.00603623
-0.670086
0.671566
-0.00397036
0.00187396
-0.789756
0.791852
0.000593971
-0.00296989
-0.934311
0.936687
0.00569423
-0.00827316
-1.10929
1.11187
0.0111811
-0.0138775
-1.32025
1.32295
0.0168292
-0.019463
-1.5751
1.57773
0.021779
-0.0237832
-1.57119
1.57319
0.0252215
-0.0264448
-1.31128
1.3125
0.027286
-0.0279483
-1.09859
1.09925
0.0284224
-0.0289369
-0.924205
0.92472
0.0294372
-0.0298906
-0.781982
0.782435
0.0296823
-0.0285473
-0.655812
0.654677
0.025937
-0.0213108
-0.506989
0.502363
0.0160698
-0.0103207
-0.316981
0.311232
0.0059528
-0.0025097
-0.14247
0.139027
0.000678711
-0.0229262
0.0222474
-0.0285698
0.0286284
-5.85548e-05
-0.000428473
0.00132894
-0.225602
0.224702
-0.00283896
0.00427338
-0.398427
0.396993
-0.00527946
0.00527329
-0.552686
0.552692
-0.00423385
0.00266476
-0.67322
0.674789
-0.000471521
-0.00176976
-0.793943
0.796184
0.00440754
-0.00693848
-0.938967
0.941498
0.00982601
-0.0125379
-1.11437
1.11708
0.0155606
-0.0183213
-1.32557
1.32833
0.0212847
-0.0238621
-1.58027
1.58285
0.0260573
-0.0278806
-1.57506
1.57688
0.0291322
-0.0301429
-1.31359
1.31461
0.0307827
-0.031209
-1.10001
1.10043
0.0314636
-0.0317526
-0.925185
0.925474
0.0320614
-0.0322378
-0.782579
0.782756
0.0317483
-0.0300707
-0.653314
0.651637
0.0269448
-0.0218482
-0.497603
0.492506
0.0163634
-0.0105002
-0.30549
0.299627
0.00607567
-0.00257765
-0.135593
0.132095
0.000702791
-0.0215703
0.0208675
-0.0287444
0.0289197
-0.000175296
0.000498649
-0.000213267
-0.224126
0.22384
-0.000560456
0.00138294
-0.395895
0.395072
-0.00191708
0.00166256
-0.552964
0.553218
-0.000470505
-0.00123649
-0.676578
0.678285
0.00359569
-0.00602392
-0.798418
0.800847
0.00888335
-0.011616
-0.943939
0.946672
0.0147134
-0.0175977
-1.11972
1.1226
0.0207791
-0.0236464
-1.33102
1.33389
0.0266691
-0.0292284
-1.58534
1.5879
0.0313267
-0.0329731
-1.57856
1.58021
0.0340253
-0.0347897
-1.31545
1.31621
0.0351919
-0.0353541
-1.10094
1.1011
0.0353739
-0.0354232
-0.925702
0.925751
0.0355352
-0.0353472
-0.782544
0.782356
0.0344784
-0.0322005
-0.649776
0.647498
0.0284899
-0.022844
-0.487265
0.481619
0.0170201
-0.0109204
-0.293719
0.287619
0.00633767
-0.00270263
-0.128569
0.124934
0.000741483
-0.0201601
0.0194187
-0.0291759
0.0294945
-0.000318598
0.00150863
-0.00186612
-0.223908
0.224266
0.00193186
-0.00182317
-0.394606
0.394497
0.00189323
-0.00250983
-0.55384
0.554457
0.00393497
-0.00585298
-0.680272
0.68219
0.0084625
-0.0111397
-0.803269
0.805946
0.014277
-0.0172574
-0.949311
0.952291
0.0206148
-0.023718
-1.12542
1.12852
0.0271052
-0.0301098
-1.3367
1.3397
0.0332037
-0.0357343
-1.59037
1.5929
0.0377139
-0.039156
-1.5817
1.58314
0.0399891
-0.0404854
-1.31677
1.31727
0.0406389
-0.040521
-1.10131
1.10119
0.0402761
-0.0400586
-0.925702
0.925484
0.0399626
-0.0393169
-0.781728
0.781082
0.0379954
-0.0350261
-0.645069
0.6421
0.0306381
-0.0243304
-0.475806
0.469498
0.0180486
-0.0115781
-0.281419
0.274948
0.00673338
-0.00288127
-0.121233
0.117381
0.000793679
-0.0186669
0.0178732
-0.0298844
0.030376
-0.000491685
0.00277402
-0.0038764
-0.225015
0.226117
0.00480314
-0.00548941
-0.394753
0.39544
0.00628441
-0.00735996
-0.555567
0.556642
0.0091042
-0.011296
-0.684454
0.686646
0.0142263
-0.0172218
-0.808619
0.811614
0.0207184
-0.0240243
-0.95519
0.958496
0.0277231
-0.0311078
-1.13157
1.13495
0.0347515
-0.0379252
-1.34264
1.34582
0.0411132
-0.0436238
-1.59533
1.59784
0.0454701
-0.0466767
-1.5844
1.58561
0.0472385
-0.0474501
-1.31753
1.31775
0.0473259
-0.0468909
-1.10107
1.10063
0.046359
-0.0458558
-0.925114
0.924611
0.0454294
-0.044334
-0.78
0.778904
0.0424163
-0.0386279
-0.639001
0.635213
0.0334367
-0.0263231
-0.462987
0.455874
0.0194454
-0.0124611
-0.268318
0.261334
0.00725109
-0.00310641
-0.11343
0.109286
0.000856686
-0.0170649
0.0162082
-0.0309433
0.031653
-0.000709758
0.00425757
-0.00623881
-0.227647
0.229628
0.00824138
-0.00982854
-0.396566
0.398153
0.0114497
-0.0131075
-0.558378
0.560036
0.0153129
-0.0178723
-0.689254
0.691813
0.0212194
-0.0246106
-0.814602
0.817993
0.028548
-0.0322483
-0.96173
0.96543
0.0363546
-0.0400725
-1.13829
1.14201
0.0440197
-0.0473927
-1.34893
1.35231
0.0506844
-0.0531558
-1.60023
1.6027
0.0548337
-0.0557601
-1.58661
1.58754
0.0560096
-0.0558942
-1.31764
1.31752
0.0554573
-0.0546726
-1.10014
1.09936
0.0538241
-0.0529936
-0.92388
0.923049
0.0521521
-0.050537
-0.777387
0.775772
0.0478906
-0.0431178
-0.631301
0.626528
0.0369569
-0.0288505
-0.448507
0.440401
0.0212123
-0.013558
-0.254125
0.246471
0.0078782
-0.0033702
-0.10501
0.100502
0.000927728
-0.0153337
0.014406
-0.0324353
0.0334344
-0.000999079
0.00614368
-0.0091804
-0.232061
0.235098
0.0124228
-0.0150685
-0.400308
0.402954
0.0176636
-0.0200421
-0.562561
0.56494
0.0228654
-0.02593
-0.694879
0.697944
0.0298413
-0.0337346
-0.821391
0.825284
0.0382134
-0.0423861
-0.969065
0.973238
0.0469728
-0.0510757
-1.14568
1.14978
0.0553588
-0.0589277
-1.3556
1.35917
0.0622813
-0.0646456
-1.60502
1.60739
0.0660746
-0.0666359
-1.58822
1.58878
0.0665117
-0.0660017
-1.31696
1.31645
0.0652187
-0.0640359
-1.09843
1.09725
0.062825
-0.0616631
-0.92192
0.920758
0.0602874
-0.0580605
-0.773737
0.77151
0.0545315
-0.0485554
-0.621627
0.615651
0.0412126
-0.0318897
-0.431986
0.422663
0.0233092
-0.0148275
-0.238531
0.23005
0.00858234
-0.003655
-0.0958387
0.0909113
0.0010008
-0.0134601
0.0124593
-0.0344913
0.0358873
-0.00139603
0.00859895
-0.0129895
-0.238578
0.242969
0.0177148
-0.021587
-0.406352
0.410224
0.0253076
-0.028547
-0.568457
0.571696
0.032156
-0.0358792
-0.70162
0.705343
0.040509
-0.0450392
-0.829192
0.833723
0.0501881
-0.0549326
-0.977364
0.982108
0.0600804
-0.0646043
-1.15384
1.15836
0.0692169
-0.0729422
-1.36263
1.36635
0.0762865
-0.0784579
-1.60954
1.61171
0.079539
-0.0796291
-1.58905
1.58914
0.0790477
-0.0779993
-1.31537
1.31432
0.0767954
-0.0751814
-1.09582
1.09421
0.0736056
-0.0720171
-0.919191
0.917602
0.0700961
-0.0670728
-0.768828
0.765805
0.0624419
-0.0549833
-0.609532
0.602074
0.0461947
-0.0353897
-0.412973
0.402168
0.0256693
-0.0162068
-0.221227
0.211765
0.00931755
-0.00393731
-0.0858153
0.0804351
0.00106839
-0.0114434
0.010375
-0.0373046
0.0392714
-0.00196683
0.0120322
-0.0181286
-0.24773
0.253826
0.0246454
-0.0299552
-0.415185
0.420495
0.0350088
-0.0393025
-0.576438
0.580732
0.0439105
-0.0484881
-0.709794
0.714371
0.0540358
-0.0593469
-0.838262
0.843573
0.0652851
-0.070667
-0.986817
0.992198
0.0763946
-0.0813083
-1.16281
1.16772
0.0861692
-0.0899366
-1.36989
1.37366
0.0931047
-0.0949018
-1.61357
1.61536
0.0954636
-0.0949272
-1.58883
1.58829
0.0937807
-0.0921073
-1.31265
1.31098
0.0904
-0.0883282
-1.09221
1.09014
0.086348
-0.0841852
-0.915461
0.913298
0.0817363
-0.07767
-0.762229
0.758163
0.0716611
-0.0623653
-0.594438
0.585142
0.0518088
-0.0392209
-0.390945
0.378357
0.0281601
-0.0175878
-0.201928
0.191355
0.0100103
-0.00418188
-0.0748923
0.0690639
0.00111981
-0.00929929
0.00817948
-0.0411987
0.0440478
-0.00284913
0.0170249
-0.0253751
-0.26023
0.26858
0.0341045
-0.0411352
-0.427489
0.43452
0.0478104
-0.0534
-0.587004
0.592593
0.0592996
-0.0650054
-0.719828
0.725533
0.0717228
-0.0779488
-0.848874
0.8551
0.0847253
-0.0907132
-0.997516
1.0035
0.0969165
-0.10207
-1.17247
1.17763
0.106958
-0.110523
-1.37711
1.38068
0.113214
-0.114353
-1.6167
1.61784
0.114136
-0.112752
-1.58725
1.58586
0.110876
-0.10848
-1.30862
1.30623
0.10619
-0.1036
-1.08749
1.0849
0.101195
-0.0983377
-0.910399
0.907543
0.0951977
-0.0897979
-0.753428
0.748028
0.0820731
-0.0705175
-0.575596
0.56404
0.0578265
-0.0431407
-0.36533
0.350644
0.0305626
-0.0188073
-0.18042
0.168665
0.0105566
-0.00434171
-0.0631104
0.0568955
0.00114142
-0.00706535
0.00592393
-0.0467429
0.0510807
-0.00433778
0.024749
-0.0361577
-0.277255
0.288663
0.0477507
-0.0570884
-0.444282
0.45362
0.0657924
-0.0729308
-0.600773
0.607912
0.0803924
-0.0875771
-0.732156
0.739341
0.0954901
-0.102545
-0.861221
0.868275
0.109986
-0.116353
-1.00932
1.01569
0.122706
-0.127748
-1.18243
1.18748
0.132241
-0.135214
-1.38371
1.38669
0.137013
-0.137138
-1.61832
1.61844
0.13583
-0.133316
-1.58382
1.58131
0.130501
-0.127209
-1.30305
1.29975
0.124233
-0.121061
-1.08152
1.07834
0.118139
-0.114565
-0.903834
0.90026
0.110457
-0.103309
-0.741767
0.73462
0.0933902
-0.0790617
-0.552091
0.537763
0.0638471
-0.0467846
-0.335567
0.318504
0.0325771
-0.0196602
-0.156652
0.143736
0.0108325
-0.00436335
-0.0506403
0.0441711
0.00111758
-0.00480512
0.00368753
-0.0550062
0.0623998
-0.00739354
0.0381718
-0.0540704
-0.300943
0.316842
0.0697232
-0.0822846
-0.467245
0.479807
0.0931645
-0.101675
-0.618181
0.626691
0.110654
-0.11912
-0.747105
0.755571
0.127977
-0.135436
-0.87502
0.882479
0.142947
-0.149081
-1.02161
1.02775
0.154911
-0.159219
-1.19186
1.19617
0.162681
-0.164479
-1.38882
1.39062
0.164817
-0.163434
-1.61764
1.61625
0.160636
-0.156703
-1.57798
1.57405
0.152735
-0.148355
-1.29557
1.29119
0.144584
-0.140775
-1.07411
1.0703
0.137199
-0.132778
-0.895578
0.891157
0.127269
-0.117749
-0.726272
0.716752
0.104959
-0.0872268
-0.52276
0.505028
0.0691879
-0.0496693
-0.301211
0.281693
0.0338855
-0.0199839
-0.130847
0.116946
0.0107524
-0.00421072
-0.0378221
0.0312804
0.00102797
-0.00260631
0.00157834
-0.0692751
0.073395
-0.00411991
0.0290757
-0.042975
-0.33525
0.34915
0.0569457
-0.0685616
-0.497811
0.509427
0.0788849
-0.0885076
-0.638853
0.648475
0.099207
-0.10916
-0.763496
0.77345
0.120231
-0.129996
-0.888899
0.898664
0.140337
-0.149483
-1.03295
1.04209
0.159004
-0.167103
-1.19938
1.20748
0.175069
-0.181285
-1.39122
1.39744
0.186607
-0.189755
-1.61365
1.6168
0.190711
-0.190059
-1.56906
1.56841
0.188333
-0.185798
-1.28582
1.28328
0.183582
-0.180902
-1.06497
1.06229
0.178346
-0.173964
-0.884914
0.880533
0.166236
-0.152073
-0.705502
0.691339
0.132857
-0.10734
-0.486477
0.46096
0.0826924
-0.0572264
-0.262133
0.236667
0.0377748
-0.0215204
-0.103673
0.0874186
0.011171
-0.004185
-0.0251987
0.0182127
0.000950007
-0.000542656
-0.000407351
-0.0807467
0.0788161
0.00193058
0.00763261
-0.0165696
-0.365711
0.374648
0.027144
-0.0355195
-0.5256
0.533976
0.0439112
-0.0518324
-0.660817
0.668738
0.0615774
-0.0707732
-0.782879
0.792075
0.0806137
-0.0895422
-0.907766
0.916695
0.0989762
-0.10697
-1.05092
1.05892
0.115455
-0.122274
-1.21533
1.22215
0.128892
-0.133724
-1.40325
1.40808
0.137276
-0.138844
-1.61904
1.62061
0.13828
-0.136112
-1.56705
1.56488
0.132852
-0.128693
-1.28005
1.2759
0.124885
-0.120725
-1.05748
1.05332
0.116639
-0.111056
-0.871319
0.865736
0.102835
-0.0902228
-0.673431
0.660819
0.0754331
-0.0577823
-0.433967
0.416316
0.0423435
-0.0280983
-0.211615
0.19737
0.0180342
-0.0101049
-0.0721442
0.0642149
0.00519863
-0.00194704
-0.011467
0.00821541
0.000434267
0.00159845
-0.00203272
-0.0821528
0.0792802
0.00287263
-0.00123317
-0.00383472
-0.386331
0.391399
0.0108196
-0.0168969
-0.546173
0.552251
0.0230592
-0.0299
-0.679269
0.68611
0.0383338
-0.0462848
-0.80034
0.808291
0.0550062
-0.0627552
-0.924777
0.932526
0.0706856
-0.0777635
-1.06671
1.07379
0.0850493
-0.0909673
-1.22849
1.2344
0.0962289
-0.0998134
-1.41219
1.41578
0.102275
-0.102612
-1.62141
1.62174
0.100813
-0.0974066
-1.56199
1.55858
0.0931438
-0.088096
-1.27133
1.26628
0.0830382
-0.0776403
-1.04727
1.04187
0.0724337
-0.0661213
-0.855954
0.849641
0.0586872
-0.0484159
-0.645186
0.634914
0.0378559
-0.0266159
-0.397178
0.385938
0.0182148
-0.0115162
-0.182722
0.176023
0.00729299
-0.00425304
-0.0562426
0.0532026
0.00230877
-0.000944098
-0.00476987
0.0034052
0.000233986
0.00270822
-0.0029422
-0.0809237
0.0781319
0.00279176
-0.00501709
0.0025188
-0.399973
0.402471
0.00197792
-0.00652545
-0.561391
0.565939
0.0116896
-0.0174049
-0.694401
0.700116
0.0246157
-0.0314147
-0.815573
0.822372
0.0388361
-0.0454558
-0.939684
0.946304
0.0526095
-0.0585723
-1.0804
1.08636
0.0648655
-0.0694925
-1.23987
1.24449
0.0738379
-0.0766066
-1.41906
1.42183
0.0780101
-0.0772191
-1.62155
1.62076
0.074746
-0.0706975
-1.55453
1.55048
0.0658528
-0.0597813
-1.26076
1.25469
0.054072
-0.0478448
-1.03501
1.02878
0.0417584
-0.0352107
-0.839604
0.833057
0.0283642
-0.0204603
-0.621715
0.613811
0.0135102
-0.00763539
-0.3737
0.367825
0.00427491
-0.00232181
-0.168329
0.166376
0.00135964
-0.000931108
-0.0493095
0.0488809
0.000588821
-0.000307228
-0.00156355
0.00128196
8.60953e-05
0.00341237
-0.00349847
-0.0794085
0.076943
0.00246556
-0.00624265
0.00533343
-0.409087
0.409996
-0.00197351
-0.00138759
-0.573522
0.576883
0.0054917
-0.0106522
-0.70708
0.71224
0.0166961
-0.0226586
-0.828454
0.834416
0.0290695
-0.0348041
-0.952433
0.958168
0.0409134
-0.0461777
-1.09216
1.09742
0.0514407
-0.055596
-1.24894
1.25309
0.059166
-0.0612696
-1.42416
1.42626
0.0619836
-0.0606015
-1.61972
1.61834
0.0575869
-0.0528138
-1.54564
1.54087
0.0475426
-0.0411766
-1.24838
1.24202
0.0350615
-0.0281916
-1.02145
1.01458
0.0218249
-0.0150679
-0.823525
0.816768
0.00921948
-0.00315059
-0.603436
0.597367
-0.00113284
0.00356638
-0.359905
0.357472
-0.00408833
0.00353829
-0.162578
0.163129
-0.00260619
0.00154477
-0.0477074
0.0487688
-0.000805374
0.000252976
-0.000612111
0.00116451
-4.79756e-05
0.00378239
-0.00373441
-0.0779998
0.0758932
0.00210658
-0.00619366
0.00579029
-0.415327
0.41573
-0.00379007
0.0010654
-0.582855
0.585579
0.00293872
-0.00735163
-0.717789
0.722202
0.0125286
-0.0176839
-0.839572
0.844727
0.0233585
-0.0284667
-0.963519
0.968627
0.0340338
-0.0386178
-1.10239
1.10697
0.0433001
-0.0469663
-1.25692
1.26059
0.0499865
-0.0516274
-1.42804
1.42968
0.0518433
-0.0504139
-1.61677
1.61534
0.0470155
-0.0421174
-1.53556
1.53066
0.0366406
-0.0300859
-1.23535
1.2288
0.024045
-0.0168815
-1.00704
0.999875
0.0103737
-0.00380362
-0.807956
0.801386
-0.00152092
0.00633694
-0.588906
0.58409
-0.0091955
0.0100451
-0.35216
0.35131
-0.00898969
0.00718865
-0.161953
0.163754
-0.00538709
0.00339947
-0.0492677
0.0512553
-0.00190786
0.000739666
-0.00148681
0.002655
-0.00017926
0.00377629
-0.00359703
-0.0769266
0.075284
0.0016425
-0.00535107
0.00528274
-0.41995
0.420019
-0.00363343
0.00159214
-0.590995
0.593036
0.00215363
-0.00615839
-0.727047
0.731052
0.011058
-0.0154818
-0.849491
0.853915
0.0204459
-0.0249557
-0.973674
0.978184
0.0302125
-0.0343425
-1.11156
1.11569
0.0384567
-0.041865
-1.26404
1.26745
0.0449458
-0.0463281
-1.43128
1.43266
0.046456
-0.0447972
-1.61345
1.61179
0.0416342
-0.0365063
-1.52552
1.52039
0.0312604
-0.0249259
-1.22203
1.2157
0.018802
-0.011935
-0.992398
0.985531
0.00552285
0.00107952
-0.793033
0.78643
-0.00589432
0.0100752
-0.57664
0.57246
-0.0124073
0.0126376
-0.347443
0.347213
-0.0112831
0.0091148
-0.163815
0.165984
-0.00694227
0.00450924
-0.0526974
0.0551304
-0.00261825
0.00108055
-0.00361004
0.00514774
-0.000280164
0.00345639
-0.00317623
-0.076357
0.0750754
0.00128153
-0.00427824
0.00434437
-0.423614
0.423548
-0.00283339
0.000897062
-0.598062
0.599999
0.00264569
-0.00624852
-0.735343
0.738946
0.0104304
-0.0146752
-0.858305
0.86255
0.0192399
-0.0238713
-0.982468
0.9871
0.0283642
-0.0322764
-1.1199
1.12382
0.0364796
-0.0396097
-1.27071
1.27384
0.0421529
-0.0438753
-1.43392
1.43564
0.0440878
-0.0426401
-1.61017
1.60872
0.0395537
-0.0348738
-1.51545
1.51077
0.0298231
-0.0236938
-1.20903
1.2029
0.017868
-0.0112504
-0.978304
0.971687
0.00512382
0.00108646
-0.778775
0.772565
-0.00605666
0.00978093
-0.56556
0.561835
-0.0118592
0.0124219
-0.344077
0.343514
-0.0114401
0.00935759
-0.166355
0.168437
-0.00725798
0.00482661
-0.0567873
0.0592186
-0.00288245
0.00124074
-0.00638009
0.0080218
-0.000340324
0.0029356
-0.00259528
-0.0763299
0.0752633
0.00106657
-0.0029802
0.00280432
-0.4269
0.427076
-0.00149811
-0.000424998
-0.604537
0.60646
0.003708
-0.00719112
-0.743041
0.746524
0.011194
-0.0150248
-0.86661
0.870441
0.0196936
-0.0235094
-0.99112
0.994936
0.0279537
-0.0316752
-1.12787
1.13159
0.0357374
-0.0390278
-1.27692
1.28021
0.0418255
-0.0432914
-1.4371
1.43856
0.0437962
-0.0426849
-1.60718
1.60607
0.0401595
-0.0356826
-1.50595
1.50148
0.0309745
-0.0251988
-1.19688
1.1911
0.0197724
-0.0135032
-0.964736
0.958467
0.00782762
-0.00176206
-0.765338
0.759273
-0.00312788
0.00695187
-0.555365
0.551541
-0.00910543
0.0098941
-0.340538
0.339749
-0.00955512
0.00810767
-0.168427
0.169874
-0.0064704
0.00441947
-0.0607191
0.06277
-0.00270909
0.00121554
-0.00923863
0.0107322
-0.000352799
0.00231567
-0.00196287
-0.076601
0.0758542
0.000746831
-0.00181974
0.00116135
-0.430273
0.430931
-3.40224e-05
-0.00200632
-0.610271
0.612311
0.00497043
-0.00832378
-0.750204
0.753557
0.0121578
-0.0161137
-0.874156
0.878111
0.0201527
-0.0241252
-0.998945
1.00292
0.0285214
-0.032021
-1.13572
1.13922
0.0361661
-0.0394008
-1.28329
1.28652
0.0422333
-0.0442125
-1.44043
1.4424
0.0451834
-0.0443164
-1.60497
1.60411
0.041959
-0.0381597
-1.49717
1.49337
0.0340125
-0.0286665
-1.18527
1.17992
0.0235655
-0.0179356
-0.952082
0.946452
0.0122668
-0.00664873
-0.752414
0.746796
0.00185755
0.00230513
-0.545494
0.541332
-0.0046582
0.00597222
-0.3364
0.335086
-0.00623919
0.00568474
-0.169495
0.170049
-0.00469372
0.00332968
-0.0637477
0.0651118
-0.00212084
0.000990938
-0.0116912
0.0128211
-0.000301673
0.00170855
-0.00140687
-0.0772937
0.0767097
0.000584048
-0.000834956
0.000210145
-0.433879
0.434504
0.00146255
-0.00336485
-0.616098
0.618001
0.00650662
-0.00973721
-0.75686
0.76009
0.01343
-0.0169842
-0.881751
0.885306
0.021148
-0.0248034
-1.00687
1.01053
0.0291443
-0.0330828
-1.14317
1.1471
0.0368635
-0.040424
-1.28979
1.29335
0.0436804
-0.0457486
-1.44426
1.44633
0.0470797
-0.0469581
-1.60344
1.60332
0.045041
-0.0418986
-1.48946
1.48632
0.038042
-0.033253
-1.1747
1.16991
0.0286475
-0.0232554
-0.940388
0.934996
0.018042
-0.012575
-0.740254
0.734787
0.00780715
-0.00325816
-0.535376
0.530827
0.00034514
0.0015433
-0.331342
0.329453
-0.00255064
0.00276119
-0.16902
0.16881
-0.00250266
0.0019045
-0.0653809
0.065979
-0.00129065
0.000647373
-0.0133773
0.0140206
-0.000213866
0.00122126
-0.0010074
-0.0782735
0.0778699
0.000403689
0.000242068
-0.00106253
-0.437654
0.438474
0.00261487
-0.00483041
-0.621543
0.623759
0.00791172
-0.0109953
-0.763277
0.766361
0.0147875
-0.0181983
-0.888846
0.892257
0.0222066
-0.0259859
-1.01465
1.01843
0.0302377
-0.0341426
-1.15088
1.15479
0.0381478
-0.0417414
-1.29682
1.30041
0.0451884
-0.04801
-1.44868
1.4515
0.0497765
-0.0499518
-1.60312
1.6033
0.0487465
-0.0459887
-1.4831
1.48034
0.04274
-0.0385359
-1.16513
1.16093
0.0340322
-0.0289436
-0.929314
0.924226
0.0239985
-0.0185612
-0.728593
0.723155
0.0138585
-0.0089667
-0.525148
0.520256
0.00553865
-0.00280403
-0.325276
0.322541
0.00114886
-0.000126792
-0.166944
0.165922
-0.000403243
0.00055279
-0.0655236
0.065374
-0.000494912
0.000310617
-0.014106
0.0142903
-0.000124279
0.00091628
-0.000792001
-0.079492
0.0792156
0.000276393