/*--------------------------------*- C++ -*----------------------------------*\
  =========                 |
  \\      /  F ield         | OpenFOAM: The Open Source CFD Toolbox
   \\    /   O peration     | Website:  https://openfoam.org
    \\  /    A nd           | Version:  6
     \\/     M anipulation  |
\*---------------------------------------------------------------------------*/
FoamFile
{
    version     2.0;
    format      ascii;
    class       volVectorField;
    location    "119.3";
    object      U;
}
// * * * * * * * * * * * * * * * * * * * * * * * * * * * * * * * * * * * * * //

dimensions      [0 1 -1 0 0 0 0];

internalField   nonuniform List<vector> 
8800
(
(0.987183 -0.0766653 0)
(1.00189 -0.0551906 0)
(0.999718 -0.0285488 0)
(1.00003 -0.0151451 0)
(1.0001 -0.00854852 0)
(1.00013 -0.0050525 0)
(1.00008 -0.00300629 0)
(1.00003 -0.00170354 0)
(0.99999 -0.000795313 0)
(1.00006 -7.40729e-05 0)
(0.999973 0.00066105 0)
(1.00004 0.00142213 0)
(1.00007 0.00242204 0)
(1.00007 0.00399614 0)
(1.00006 0.0066317 0)
(1.00006 0.0113718 0)
(0.999968 0.0208158 0)
(0.999179 0.0386704 0)
(1.0071 0.0724576 0)
(0.771215 0.0366618 0)
(0.363084 -0.0160159 0)
(1.04332 -0.0768089 0)
(1.08459 -0.0704356 0)
(1.04519 -0.0535288 0)
(1.0233 -0.0388803 0)
(1.01204 -0.0262027 0)
(1.00644 -0.016838 0)
(1.0036 -0.0102986 0)
(1.00215 -0.00563054 0)
(1.00143 -0.00196455 0)
(1.00129 0.00136423 0)
(1.0017 0.00475318 0)
(1.00271 0.00865861 0)
(1.00469 0.0139819 0)
(1.00861 0.0216916 0)
(1.01658 0.0326574 0)
(1.03253 0.0465679 0)
(1.0627 0.0616834 0)
(1.09186 0.0761084 0)
(0.838661 0.0565657 0)
(0.216886 -0.00242814 0)
(1.07593 -0.0501159 0)
(1.09989 -0.0482815 0)
(1.06466 -0.0404294 0)
(1.04007 -0.0335674 0)
(1.02395 -0.0260391 0)
(1.01414 -0.0184427 0)
(1.00857 -0.0116065 0)
(1.00558 -0.00572358 0)
(1.0043 -0.000293842 0)
(1.00466 0.00496441 0)
(1.00665 0.010342 0)
(1.01064 0.0163933 0)
(1.01794 0.0234153 0)
(1.03053 0.0308758 0)
(1.05063 0.0378962 0)
(1.08038 0.0445741 0)
(1.10627 0.0513798 0)
(0.942481 0.0416355 0)
(0.2161 0.0024636 0)
(0.175242 -0.000814398 0)
(1.01778 -0.0354533 0)
(1.10524 -0.0413305 0)
(1.07831 -0.0360051 0)
(1.05352 -0.0300626 0)
(1.03626 -0.0244743 0)
(1.02404 -0.0187247 0)
(1.01591 -0.0126206 0)
(1.01102 -0.00641088 0)
(1.00879 -5.82704e-05 0)
(1.00937 0.00621269 0)
(1.0127 0.0121924 0)
(1.01889 0.0179749 0)
(1.02874 0.023543 0)
(1.04317 0.0288336 0)
(1.0637 0.034301 0)
(1.09356 0.0402747 0)
(1.09337 0.0420195 0)
(0.826994 0.0229402 0)
(0.173916 0.000855768 0)
(0.15408 -0.000607962 0)
(0.956382 -0.0254146 0)
(1.10355 -0.0350539 0)
(1.08775 -0.0325609 0)
(1.06181 -0.0278957 0)
(1.0442 -0.0228525 0)
(1.03171 -0.0175758 0)
(1.02284 -0.0120112 0)
(1.01699 -0.00604542 0)
(1.0141 0.000448098 0)
(1.01477 0.00692926 0)
(1.01882 0.0127877 0)
(1.0258 0.0180169 0)
(1.03604 0.0229237 0)
(1.05058 0.0276668 0)
(1.07183 0.0321747 0)
(1.10003 0.0360906 0)
(1.06795 0.0341191 0)
(0.739224 0.014351 0)
(0.152075 0.000655014 0)
(0.139758 -0.000463765 0)
(0.899641 -0.0190178 0)
(1.09596 -0.0299735 0)
(1.09587 -0.0290566 0)
(1.06939 -0.0253064 0)
(1.05095 -0.0211399 0)
(1.038 -0.016327 0)
(1.02885 -0.0109969 0)
(1.02269 -0.00521395 0)
(1.0195 0.00114519 0)
(1.0201 0.007481 0)
(1.02426 0.0130836 0)
(1.03134 0.0179694 0)
(1.04178 0.0224204 0)
(1.05689 0.0263641 0)
(1.07909 0.0297952 0)
(1.10217 0.0323943 0)
(1.03569 0.0282427 0)
(0.672435 0.0102612 0)
(0.13692 0.000518078 0)
(0.129281 -0.000357808 0)
(0.850274 -0.0146381 0)
(1.08371 -0.0258042 0)
(1.10162 -0.0260567 0)
(1.07631 -0.0227445 0)
(1.05734 -0.0190643 0)
(1.04392 -0.0147664 0)
(1.03441 -0.00978676 0)
(1.02799 -0.0042032 0)
(1.02458 0.00198642 0)
(1.02502 0.00811556 0)
(1.02913 0.0134336 0)
(1.03629 0.0178938 0)
(1.04699 0.0217359 0)
(1.06249 0.0250077 0)
(1.08513 0.0279103 0)
(1.10117 0.0296263 0)
(1.00052 0.0237699 0)
(0.620304 0.00791221 0)
(0.125426 0.000421725 0)
(0.121317 -0.000276431 0)
(0.808426 -0.0114598 0)
(1.06863 -0.0221505 0)
(1.10526 -0.023359 0)
(1.08265 -0.02045 0)
(1.06326 -0.0169736 0)
(1.04956 -0.0129691 0)
(1.03975 -0.00831259 0)
(1.03303 -0.00298694 0)
(1.02934 0.00299577 0)
(1.02958 0.00888484 0)
(1.03364 0.0138466 0)
(1.04083 0.0178194 0)
(1.0516 0.0211499 0)
(1.06731 0.0240022 0)
(1.09028 0.0265954 0)
(1.09722 0.0273986 0)
(0.964894 0.0202823 0)
(0.578263 0.00639622 0)
(0.116226 0.000352475 0)
(0.115182 -0.000212361 0)
(0.77333 -0.00907348 0)
(1.05214 -0.0189208 0)
(1.10779 -0.0208446 0)
(1.08863 -0.0182949 0)
(1.06884 -0.0149496 0)
(1.05489 -0.0110908 0)
(1.04488 -0.00662741 0)
(1.03788 -0.00152575 0)
(1.03389 0.00421824 0)
(1.03387 0.00981732 0)
(1.03779 0.0143931 0)
(1.04487 0.01793 0)
(1.05561 0.0208692 0)
(1.0715 0.0233865 0)
(1.09411 0.0256216 0)
(1.09037 0.0255874 0)
(0.930078 0.0176166 0)
(0.543279 0.00537145 0)
(0.108587 0.000303307 0)
(0.110443 -0.000160446 0)
(0.744058 -0.00721136 0)
(1.03532 -0.0160429 0)
(1.10941 -0.0184564 0)
(1.09434 -0.0161984 0)
(1.07427 -0.0129285 0)
(1.06004 -0.00913948 0)
(1.04982 -0.00477656 0)
(1.04257 0.000172059 0)
(1.03824 0.00569223 0)
(1.0379 0.0109902 0)
(1.04156 0.0151952 0)
(1.04845 0.0183431 0)
(1.05911 0.0209334 0)
(1.07518 0.0231485 0)
(1.09661 0.0249894 0)
(1.08097 0.0241527 0)
(0.896609 0.0156247 0)
(0.513278 0.00466918 0)
(0.102022 0.00026955 0)
(0.106823 -0.000116882 0)
(0.719803 -0.00569872 0)
(1.01901 -0.0134437 0)
(1.11027 -0.0161294 0)
(1.09998 -0.0141247 0)
(1.07965 -0.0108469 0)
(1.06512 -0.00706422 0)
(1.05465 -0.00273834 0)
(1.04711 0.00212086 0)
(1.04241 0.00746356 0)
(1.04165 0.0124878 0)
(1.04498 0.0163446 0)
(1.05161 0.0191202 0)
(1.06218 0.0213726 0)
(1.0784 0.0233069 0)
(1.09768 0.0247147 0)
(1.06937 0.0230962 0)
(0.864564 0.014192 0)
(0.48678 0.00419975 0)
(0.096185 0.000248205 0)
(0.104135 -7.86493e-05 0)
(0.699941 -0.00441851 0)
(1.00383 -0.0110539 0)
(1.11053 -0.0138262 0)
(1.10551 -0.0119878 0)
(1.08507 -0.00864841 0)
(1.07021 -0.00480905 0)
(1.05945 -0.000455394 0)
(1.05156 0.00437598 0)
(1.0464 0.00959596 0)
(1.04513 0.0143848 0)
(1.04806 0.0179108 0)
(1.05437 0.0203202 0)
(1.06481 0.0222408 0)
(1.08114 0.0238951 0)
(1.09766 0.0249547 0)
(1.05581 0.0224384 0)
(0.833728 0.0132372 0)
(0.462658 0.00390948 0)
(0.0908073 0.000236921 0)
(0.102268 -4.29997e-05 0)
(0.684019 -0.00328242 0)
(0.990258 -0.00880079 0)
(1.11043 -0.0114572 0)
(1.11092 -0.00970186 0)
(1.09061 -0.0062685 0)
(1.07539 -0.00230688 0)
(1.06429 0.00214553 0)
(1.05598 0.00701648 0)
(1.05025 0.0121704 0)
(1.04837 0.01676 0)
(1.0508 0.0199685 0)
(1.05675 0.0220116 0)
(1.06701 0.0235978 0)
(1.08335 0.0249529 0)
(1.09672 0.0255325 0)
(1.04036 0.0221896 0)
(0.803705 0.0126851 0)
(0.440011 0.00375989 0)
(0.0856773 0.000233542 0)
(0.101163 -7.5919e-06 0)
(0.671755 -0.00221953 0)
(0.978672 -0.00660771 0)
(1.1103 -0.0089644 0)
(1.11636 -0.00720461 0)
(1.09636 -0.00362847 0)
(1.08076 0.000524949 0)
(1.06924 0.00515036 0)
(1.06041 0.0101336 0)
(1.054 0.0152817 0)
(1.05138 0.0197086 0)
(1.05323 0.0226098 0)
(1.05874 0.0242905 0)
(1.06879 0.0255331 0)
(1.0851 0.0265888 0)
(1.09438 0.0266267 0)
(1.02304 0.0223595 0)
(0.774002 0.0124916 0)
(0.418105 0.00372705 0)
(0.0806264 0.000236794 0)
(0.100815 2.95751e-05 0)
(0.663015 -0.00117287 0)
(0.9694 -0.00439994 0)
(1.11048 -0.00628617 0)
(1.12196 -0.00442152 0)
(1.10243 -0.000638101 0)
(1.0864 0.00378342 0)
(1.07439 0.00866157 0)
(1.06494 0.0138352 0)
(1.0577 0.0190427 0)
(1.05419 0.0233444 0)
(1.05533 0.025955 0)
(1.06033 0.0272712 0)
(1.07012 0.0281481 0)
(1.08627 0.0288628 0)
(1.09058 0.0282581 0)
(1.00372 0.0229952 0)
(0.74405 0.0126334 0)
(0.396298 0.00379771 0)
(0.0755107 0.000245929 0)
(0.10125 6.47976e-05 0)
(0.657801 -8.60412e-05 0)
(0.962759 -0.0020996 0)
(1.11133 -0.00335451 0)
(1.12792 -0.00126625 0)
(1.10891 0.00280557 0)
(1.09241 0.00758094 0)
(1.07983 0.0128007 0)
(1.06962 0.0182508 0)
(1.06139 0.0235875 0)
(1.0568 0.0278012 0)
(1.05711 0.0301394 0)
(1.0615 0.0310787 0)
(1.07095 0.0315694 0)
(1.08657 0.0319026 0)
(1.08496 0.0305219 0)
(0.982123 0.0241373 0)
(0.713206 0.0130951 0)
(0.374006 0.00396138 0)
(0.0702037 0.000259971 0)
(0.102533 0.000121671 0)
(0.656277 0.001097 0)
(0.95908 0.000370147 0)
(1.11325 -9.01642e-05 0)
(1.13443 0.0023627 0)
(1.11595 0.00682403 0)
(1.09893 0.0120528 0)
(1.08565 0.0177158 0)
(1.07452 0.0235371 0)
(1.0651 0.0290762 0)
(1.05923 0.0332386 0)
(1.05855 0.0353143 0)
(1.06221 0.0358534 0)
(1.07124 0.0359366 0)
(1.08583 0.0358464 0)
(1.07725 0.0335074 0)
(0.957827 0.0258246 0)
(0.680758 0.0138645 0)
(0.350675 0.00420726 0)
(0.0645964 0.000277775 0)
(0.104804 0.000171519 0)
(0.65846 0.00225226 0)
(0.958738 0.0031054 0)
(1.11671 0.00362025 0)
(1.14173 0.00658581 0)
(1.1237 0.0115628 0)
(1.10608 0.0173631 0)
(1.09198 0.0235872 0)
(1.07974 0.0298839 0)
(1.06887 0.0356983 0)
(1.06148 0.0398342 0)
(1.05964 0.0416257 0)
(1.06243 0.0417589 0)
(1.07095 0.0414119 0)
(1.08384 0.0407581 0)
(1.06707 0.0373215 0)
(0.930255 0.0281014 0)
(0.645934 0.0149297 0)
(0.325801 0.00452308 0)
(0.0586023 0.000297959 0)
(0.108231 0.000237328 0)
(0.665186 0.00374092 0)
(0.962044 0.00608793 0)
(1.12217 0.00790252 0)
(1.15008 0.011534 0)
(1.13236 0.0172064 0)
(1.11404 0.0237188 0)
(1.09893 0.0306386 0)
(1.08533 0.0375218 0)
(1.07273 0.0436793 0)
(1.06352 0.0477976 0)
(1.06036 0.0493117 0)
(1.0621 0.0489893 0)
(1.07002 0.0481764 0)
(1.08059 0.0468767 0)
(1.0539 0.0420883 0)
(0.898641 0.0309984 0)
(0.607903 0.016263 0)
(0.298928 0.00488956 0)
(0.0521628 0.000318443 0)
(0.113077 0.000326336 0)
(0.67685 0.00551137 0)
(0.969592 0.0096217 0)
(1.13016 0.012931 0)
(1.15982 0.0174287 0)
(1.14217 0.0239981 0)
(1.123 0.0313887 0)
(1.10665 0.0391548 0)
(1.09139 0.0467352 0)
(1.07669 0.0532855 0)
(1.06534 0.0573659 0)
(1.06059 0.0585999 0)
(1.0612 0.0577528 0)
(1.06838 0.0564348 0)
(1.07598 0.0543706 0)
(1.03702 0.0479091 0)
(0.862018 0.0345074 0)
(0.565801 0.017807 0)
(0.269693 0.00527495 0)
(0.0452622 0.000336249 0)
(0.119715 0.000445096 0)
(0.694237 0.00773055 0)
(0.9822 0.0139278 0)
(1.14124 0.0189367 0)
(1.17135 0.0245456 0)
(1.15343 0.0322661 0)
(1.13318 0.0407315 0)
(1.11527 0.0495045 0)
(1.09795 0.0578759 0)
(1.08074 0.0648258 0)
(1.06689 0.0688021 0)
(1.06024 0.0696645 0)
(1.05967 0.0682611 0)
(1.06614 0.0663826 0)
(1.06964 0.0634261 0)
(1.01548 0.0548384 0)
(0.819208 0.0385582 0)
(0.518801 0.0194532 0)
(0.23791 0.00563107 0)
(0.0379477 0.000347535 0)
(0.128678 0.00061086 0)
(0.71835 0.0106233 0)
(1.00083 0.0193151 0)
(1.15608 0.0262756 0)
(1.18517 0.0332676 0)
(1.1665 0.0424754 0)
(1.14482 0.05224 0)
(1.1249 0.0621715 0)
(1.10503 0.0713774 0)
(1.0848 0.0786522 0)
(1.06806 0.0823781 0)
(1.05927 0.08273 0)
(1.05748 0.0807076 0)
(1.0629 0.0781839 0)
(1.0609 0.0740376 0)
(0.987979 0.0628652 0)
(0.768848 0.0429629 0)
(0.466244 0.0210195 0)
(0.203677 0.00589115 0)
(0.0303497 0.000347843 0)
(0.140795 0.000854438 0)
(0.750586 0.0145877 0)
(1.0265 0.0262272 0)
(1.1755 0.0354986 0)
(1.20194 0.044246 0)
(1.18178 0.0553195 0)
(1.15814 0.0666163 0)
(1.13558 0.077798 0)
(1.11251 0.0877648 0)
(1.08871 0.0951496 0)
(1.06871 0.0983612 0)
(1.05763 0.098033 0)
(1.05465 0.0953499 0)
(1.05833 0.0921361 0)
(1.04882 0.0863943 0)
(0.952829 0.0717912 0)
(0.709494 0.0473571 0)
(0.407866 0.022235 0)
(0.167513 0.0059735 0)
(0.0226972 0.00033289 0)
(0.157402 0.00123583 0)
(0.79297 0.0202777 0)
(1.06092 0.0354664 0)
(1.20046 0.0475912 0)
(1.22253 0.0588483 0)
(1.19966 0.0718858 0)
(1.17321 0.0848695 0)
(1.14718 0.0972146 0)
(1.12017 0.107644 0)
(1.09223 0.114709 0)
(1.06864 0.116991 0)
(1.05518 0.11574 0)
(1.0511 0.112287 0)
(1.05241 0.108337 0)
(1.03206 0.100395 0)
(0.907845 0.0811566 0)
(0.639875 0.0511511 0)
(0.344154 0.0227527 0)
(0.130484 0.00579768 0)
(0.0153164 0.000299852 0)
(0.180796 0.00189953 0)
(0.848773 0.0288852 0)
(1.10695 0.0486495 0)
(1.23202 0.0643799 0)
(1.24743 0.0787003 0)
(1.22027 0.0938787 0)
(1.18981 0.108384 0)
(1.15926 0.121414 0)
(1.12753 0.131646 0)
(1.09496 0.137681 0)
(1.06758 0.138449 0)
(1.05171 0.135945 0)
(1.04664 0.131574 0)
(1.04476 0.126636 0)
(1.00856 0.115657 0)
(0.850374 0.0901289 0)
(0.55948 0.0535225 0)
(0.276831 0.0222191 0)
(0.0942636 0.00531148 0)
(0.00860489 0.000247821 0)
(0.214533 0.00337138 0)
(0.923909 0.0432221 0)
(1.16759 0.0697421 0)
(1.27051 0.0893599 0)
(1.27651 0.107008 0)
(1.24299 0.12378 0)
(1.20708 0.138848 0)
(1.171 0.151419 0)
(1.13393 0.160324 0)
(1.09643 0.164316 0)
(1.06521 0.162825 0)
(1.04704 0.158645 0)
(1.04111 0.153228 0)
(1.03438 0.146979 0)
(0.975334 0.131409 0)
(0.777576 0.0973606 0)
(0.469767 0.0535623 0)
(0.209524 0.0204741 0)
(0.06116 0.00453072 0)
(0.0030249 0.000177395 0)
(0.26059 0.00994203 2.17038e-20)
(1.02208 0.0716179 1.83872e-20)
(1.24028 0.105689 -6.28249e-21)
(1.31327 0.126763 0)
(1.30675 0.147619 -1.45992e-34)
(1.26553 0.164046 2.0986e-21)
(1.22342 0.177829 -3.57359e-21)
(1.18134 0.188476 0)
(1.13864 0.194981 6.91505e-35)
(1.09597 0.196187 -4.02218e-21)
(1.06075 0.192063 0)
(1.0406 0.18636 -4.61623e-21)
(1.03464 0.180604 -1.35182e-20)
(1.01857 0.172956 -6.36253e-21)
(0.925551 0.14922 -1.89611e-21)
(0.680669 0.102536 -1.12136e-21)
(0.366457 0.0508686 0)
(0.142215 0.0178094 7.82769e-22)
(0.0313028 0.00356875 9.27047e-22)
(-0.00153595 5.72943e-05 1.69815e-20)
(0.293135 0.0259285 1.84859e-20)
(1.10403 0.116601 1.2215e-22)
(1.30028 0.156866 1.79257e-21)
(1.35254 0.178146 0)
(1.33369 0.198861 -7.74804e-21)
(1.28542 0.213316 -8.54587e-21)
(1.23725 0.225027 -3.68575e-21)
(1.18927 0.233526 -1.24594e-20)
(1.14091 0.23777 0)
(1.09292 0.236535 1.70672e-20)
(1.05346 0.230154 1.66062e-20)
(1.0304 0.222877 4.85628e-21)
(1.02155 0.216557 1.7436e-20)
(0.987289 0.203828 2.42728e-20)
(0.841622 0.16674 0)
(0.54536 0.104124 3.38433e-20)
(0.250475 0.0458938 4.84751e-20)
(0.0769256 0.0139133 5.39242e-20)
(0.00446412 0.00156022 -6.18501e-20)
(-0.00536225 -0.000446714 -1.18093e-21)
(0.295732 0.0444294 0)
(1.15763 0.1746 3.80798e-21)
(1.34229 0.219441 0)
(1.38371 0.240753 -1.17985e-20)
(1.3555 0.258063 0)
(1.30129 0.268655 -1.74032e-20)
(1.2475 0.276754 7.6459e-21)
(1.19398 0.281912 -2.56134e-20)
(1.14034 0.282978 -3.37173e-22)
(1.0875 0.278642 8.8856e-21)
(1.0443 0.269654 3.59876e-20)
(1.01871 0.260615 -2.11373e-23)
(1.00565 0.252726 -1.2548e-20)
(0.950551 0.233296 -2.24974e-20)
(0.758722 0.180488 2.65167e-20)
(0.440184 0.102268 -4.68194e-20)
(0.179183 0.0407245 -6.14485e-21)
(0.0413559 0.0102323 0)
(-0.00883264 -0.000619898 -2.99639e-24)
(-0.00700033 -0.000997146 0)
(0.289701 0.0598874 6.59752e-20)
(1.18835 0.236559 -2.95e-20)
(1.36966 0.28695 -1.93608e-20)
(1.40506 0.308444 5.9545e-21)
(1.37055 0.321569 -9.73473e-21)
(1.31197 0.327598 3.66308e-20)
(1.25365 0.33132 1.60276e-20)
(1.19546 0.332387 0)
(1.13726 0.329615 -4.58332e-20)
(1.08017 0.321651 0)
(1.03373 0.309744 -1.88827e-20)
(1.0059 0.29872 -2.27484e-20)
(0.987791 0.28815 -1.35061e-20)
(0.911816 0.260305 -1.61658e-20)
(0.684307 0.191221 0)
(0.363682 0.100329 0)
(0.133373 0.0368389 -3.9598e-20)
(0.0195002 0.00686305 7.80472e-21)
(-0.0168214 -0.00286782 -4.61262e-21)
(-0.00793336 -0.00155969 -5.46305e-21)
(0.281974 0.0733586 -3.76039e-20)
(1.20347 0.298491 0)
(1.3859 0.35548 4.49572e-20)
(1.4177 0.377313 1.79629e-20)
(1.3789 0.386344 2.14501e-20)
(1.31721 0.38777 0)
(1.25547 0.386954 1.62284e-20)
(1.19359 0.383665 2.84671e-20)
(1.13165 0.376721 2.37569e-20)
(1.071 0.364824 4.09034e-20)
(1.02179 0.349782 0)
(0.991872 0.336577 -4.85935e-20)
(0.968173 0.322565 -2.88549e-20)
(0.872558 0.285248 -1.69669e-20)
(0.619773 0.200022 1.02087e-19)
(0.307883 0.098866 1.20382e-20)
(0.102229 0.0335969 5.67143e-20)
(0.00459506 0.00355847 -2.68018e-19)
(-0.0223389 -0.00517911 1.58748e-19)
(-0.0085762 -0.00212345 -1.93791e-19)
(0.274122 0.0854126 -3.20449e-20)
(1.2083 0.358298 7.13873e-21)
(1.39383 0.422982 -6.20836e-21)
(1.42334 0.445425 -2.25817e-20)
(1.38151 0.450589 -2.06485e-20)
(1.31756 0.44755 3.52798e-22)
(1.25322 0.442288 -1.74116e-20)
(1.18846 0.434645 2.9642e-20)
(1.12351 0.423453 -5.07074e-20)
(1.05993 0.407505 0)
(1.00839 0.389255 -2.22408e-20)
(0.976557 0.373716 -3.04262e-22)
(0.947044 0.355682 -3.12121e-20)
(0.833886 0.308097 0)
(0.564535 0.207311 -2.19142e-20)
(0.26606 0.0977736 -5.16324e-20)
(0.0795253 0.0305977 1.37006e-19)
(-0.00638232 0.000208739 -1.34915e-19)
(-0.0264304 -0.00752822 1.91777e-19)
(-0.00903969 -0.00267893 -2.01803e-19)
(0.26703 0.0963794 -1.21806e-22)
(1.20632 0.415155 -6.60118e-21)
(1.3956 0.488331 -2.41797e-20)
(1.42342 0.511637 1.10587e-20)
(1.37943 0.513259 -1.07164e-20)
(1.31382 0.505978 0)
(1.24749 0.496452 -1.72483e-20)
(1.18042 0.484572 -3.11894e-20)
(1.11304 0.46918 -2.6556e-20)
(1.04703 0.449177 0)
(0.993581 0.427701 -2.30506e-20)
(0.960039 0.409756 -2.77796e-20)
(0.924761 0.387293 3.34993e-20)
(0.796373 0.328836 -2.00432e-20)
(0.517223 0.213383 -9.41688e-20)
(0.233413 0.0968609 5.54458e-20)
(0.0618482 0.0276003 1.63415e-20)
(-0.0149975 -0.0032219 0)
(-0.0295726 -0.00987493 -1.82942e-19)
(-0.00935492 -0.00321115 -6.77458e-21)
(0.26091 0.106605 -3.81557e-21)
(1.19983 0.468815 6.41873e-21)
(1.39271 0.550938 1.25956e-20)
(1.41918 0.575273 3.63467e-20)
(1.37361 0.573705 -4.32381e-20)
(1.3068 0.562484 4.03908e-20)
(1.2389 0.548933 3.6849e-20)
(1.16997 0.532988 -4.97579e-20)
(1.10057 0.513497 1.54267e-20)
(1.03256 0.489478 -9.90625e-20)
(0.977561 0.464787 -2.55182e-20)
(0.942515 0.444383 0)
(0.901662 0.417169 3.59876e-20)
(0.760222 0.347495 4.25957e-20)
(0.476254 0.218422 5.04281e-20)
(0.206747 0.095908 -5.9479e-20)
(0.0472144 0.0244649 -1.75302e-20)
(-0.0221633 -0.00672461 2.06889e-20)
(-0.0320596 -0.0121858 0)
(-0.00954185 -0.00370629 -1.45243e-20)
(0.255699 0.116138 3.55104e-20)
(1.19059 0.519278 -2.48298e-20)
(1.38651 0.610869 -1.30293e-20)
(1.41161 0.635986 2.4685e-20)
(1.36486 0.631547 -2.1758e-20)
(1.29719 0.616702 -8.69559e-22)
(1.22806 0.599421 -3.97388e-20)
(1.1576 0.579631 -1.78442e-20)
(1.08648 0.556168 -4.56331e-20)
(1.0168 0.528185 1.76337e-23)
(0.960566 0.500285 -7.99973e-20)
(0.924221 0.477381 6.5338e-20)
(0.87805 0.445174 -3.89475e-20)
(0.725511 0.36414 4.61242e-20)
(0.440195 0.222514 0)
(0.184052 0.0948169 -3.19012e-20)
(0.0344066 0.0211721 2.28066e-23)
(-0.0285325 -0.0103131 -8.88187e-20)
(-0.0341727 -0.0144675 -1.3142e-20)
(-0.0096107 -0.00415164 0)
(0.251393 0.125251 0)
(1.17965 0.566761 -2.57647e-20)
(1.37775 0.667866 -2.53554e-20)
(1.40154 0.693615 -2.53376e-20)
(1.35387 0.68659 -2.4632e-20)
(1.28558 0.668445 0)
(1.21549 0.647735 -1.95785e-20)
(1.14374 0.624349 -2.5818e-22)
(1.07114 0.59708 9.7426e-20)
(1.00001 0.565187 -1.37293e-20)
(0.942805 0.534044 -5.74063e-20)
(0.90538 0.508606 3.41704e-20)
(0.8542 0.471201 -3.93117e-22)
(0.692239 0.378808 4.90381e-20)
(0.407999 0.225701 2.91974e-20)
(0.164046 0.0935376 -6.83519e-20)
(0.0226921 0.0177113 8.05455e-20)
(-0.034642 -0.0140485 2.37988e-20)
(-0.0362395 -0.0167904 9.86462e-20)
(-0.00962423 -0.00455843 -2.67018e-19)
(0.24794 0.13411 6.35594e-21)
(1.16787 0.611437 -1.19952e-20)
(1.36718 0.721736 1.0889e-20)
(1.38963 0.74813 2.53237e-20)
(1.34125 0.738758 0)
(1.27251 0.717619 -2.18351e-20)
(1.20163 0.693787 6.41616e-20)
(1.12877 0.667073 3.97298e-20)
(1.05486 0.636188 0)
(0.982426 0.600435 -1.94746e-19)
(0.924443 0.565976 1.54053e-19)
(0.886165 0.537917 0)
(0.830344 0.495168 4.47927e-20)
(0.660479 0.391528 -2.89329e-22)
(0.378983 0.228062 -9.35192e-20)
(0.146035 0.0920725 3.6598e-20)
(0.0115829 0.0140414 0)
(-0.0408784 -0.0180183 1.27496e-19)
(-0.0385776 -0.0192737 0)
(-0.00967269 -0.00496555 -1.25166e-19)
(0.245267 0.142728 -6.09259e-21)
(1.15578 0.653534 -1.1092e-20)
(1.35528 0.772548 1.20467e-20)
(1.37642 0.799566 0)
(1.32746 0.788067 -2.5515e-20)
(1.25839 0.764223 0)
(1.18686 0.737555 -6.60577e-20)
(1.11303 0.707786 -1.96947e-20)
(1.03789 0.673504 1.77197e-20)
(0.964216 0.633945 -9.62251e-20)
(0.905577 0.596044 1.60942e-20)
(0.866683 0.565172 0)
(0.806739 0.516951 -9.53409e-20)
(0.630367 0.402304 2.03126e-22)
(0.352803 0.229673 0)
(0.129635 0.0903658 1.59865e-23)
(0.000849693 0.0100215 1.15526e-19)
(-0.0474597 -0.0223805 -1.09188e-19)
(-0.0414384 -0.0220742 3.23268e-20)
(-0.00985946 -0.00542847 0)
(0.243058 0.151081 0)
(1.14366 0.69326 -1.0558e-20)
(1.34253 0.820432 -1.08917e-20)
(1.36234 0.84801 -5.37363e-22)
(1.3129 0.834577 -1.21337e-20)
(1.24361 0.808293 -4.97161e-20)
(1.17152 0.779066 2.41405e-20)
(1.09679 0.746514 -2.22177e-20)
(1.02047 0.709071 7.7724e-20)
(0.945528 0.665793 -1.54037e-19)
(0.886256 0.624252 -7.28936e-22)
(0.846989 0.590253 -4.25604e-20)
(0.783511 0.53638 1.53619e-19)
(0.602071 0.411162 -3.03169e-22)
(0.329342 0.230565 -7.14538e-20)
(0.114593 0.0882366 -1.25975e-19)
(-0.00947002 0.00550635 0)
(-0.0542873 -0.0272869 0)
(-0.0448312 -0.025323 3.45977e-20)
(-0.0102346 -0.00599796 -2.0501e-20)
(0.241498 0.159369 -5.26325e-21)
(1.1317 0.73073 2.11337e-20)
(1.32928 0.865513 1.16379e-20)
(1.34774 0.893561 0)
(1.2979 0.878369 -3.15234e-22)
(1.22845 0.849897 -5.04287e-20)
(1.15589 0.818376 6.16519e-20)
(1.08031 0.783309 9.10598e-20)
(1.00281 0.742963 1.02376e-19)
(0.926505 0.696091 -1.2696e-19)
(0.866496 0.650671 -1.32144e-19)
(0.82703 0.613064 1.13786e-19)
(0.760784 0.553273 0)
(0.575804 0.418033 -3.26346e-20)
(0.3086 0.230776 -7.64936e-20)
(0.100949 0.0856987 -8.98613e-20)
(-0.0194249 0.000466459 -1.05858e-19)
(-0.0612067 -0.0327006 3.12727e-20)
(-0.048501 -0.0289877 -1.85185e-20)
(-0.0107261 -0.00666394 1.04666e-24)
(0.240183 0.167428 0)
(1.12038 0.765854 0)
(1.31579 0.907911 5.14627e-22)
(1.33288 0.936337 0)
(1.28272 0.919556 3.87898e-20)
(1.21316 0.889126 3.84779e-20)
(1.14018 0.855555 0)
(1.06381 0.818237 1.14876e-20)
(0.985108 0.77526 1.73174e-19)
(0.907287 0.724978 -2.92112e-19)
(0.846296 0.675455 0)
(0.806674 0.63356 -7.32545e-20)
(0.738502 0.567336 -4.59639e-22)
(0.551771 0.422746 -2.30196e-22)
(0.290787 0.230384 8.17163e-20)
(0.0887952 0.0833788 -1.21243e-23)
(-0.029468 -0.00368755 -2.26544e-19)
(-0.0691828 -0.0375347 6.69014e-20)
(-0.0530577 -0.0328288 1.98165e-20)
(-0.0113542 -0.00741174 0)
(0.239129 0.175217 1.28026e-20)
(1.10948 0.799181 9.47141e-21)
(1.30218 0.947728 2.15881e-20)
(1.31798 0.976456 -5.00809e-20)
(1.26757 0.958231 6.61499e-20)
(1.19795 0.92607 0)
(1.12461 0.890685 4.03323e-20)
(1.04747 0.851374 -2.51672e-20)
(0.967532 0.80605 7.98036e-22)
(0.888014 0.752607 2.1311e-20)
(0.825658 0.698827 1.72732e-19)
(0.785702 0.651811 -2.59094e-20)
(0.716465 0.578275 -9.42007e-20)
(0.530185 0.424868 -3.73802e-20)
(0.276711 0.229136 4.37465e-20)
(0.0796318 0.08272 -2.53663e-23)
(-0.0394438 -0.00346008 6.05653e-20)
(-0.0814925 -0.039787 -1.43163e-19)
(-0.0625177 -0.0375155 1.69612e-19)
(-0.0131809 -0.00878909 2.51023e-20)
(0.238117 0.182747 -3.72188e-21)
(1.09903 0.830763 4.60044e-21)
(1.28867 0.985109 1.34301e-21)
(1.30322 1.01406 -2.44563e-20)
(1.25262 0.994523 -1.27589e-20)
(1.18297 0.960825 -7.19132e-20)
(1.10932 0.923849 1.32696e-20)
(1.03145 0.882787 -1.0661e-19)
(0.950243 0.835401 -1.95373e-19)
(0.868822 0.7791 -1.76831e-19)
(0.804615 0.721058 0)
(0.763856 0.668042 -1.13164e-19)
(0.694209 0.585872 1.3523e-19)
(0.510961 0.423528 0)
(0.267732 0.225516 -9.34904e-20)
(0.0780508 0.0827279 5.47852e-20)
(-0.0432263 4.25859e-06 -6.46964e-20)
(-0.0974596 -0.042405 -7.65349e-20)
(-0.0817944 -0.0464797 -1.36048e-19)
(-0.0186766 -0.0124285 -1.07392e-19)
(0.237469 0.190099 3.10843e-21)
(1.08891 0.860635 -4.90057e-21)
(1.27535 1.02015 -1.41193e-20)
(1.28872 1.04925 -3.08866e-20)
(1.23799 1.02854 2.82605e-20)
(1.16835 0.993496 -4.43107e-20)
(1.09444 0.955121 4.33698e-20)
(1.01587 0.912558 -1.12246e-19)
(0.933369 0.863395 -1.17147e-19)
(0.849853 0.804582 1.87958e-19)
(0.783223 0.742426 3.84175e-19)
(0.740893 0.68266 0)
(0.670998 0.590125 0)
(0.493375 0.417699 -4.29087e-20)
(0.264289 0.217222 0)
(0.0859864 0.0774541 1.17306e-19)
(-0.0324021 -0.00541219 1.3827e-19)
(-0.101395 -0.0548281 0)
(-0.102353 -0.0630299 0)
(-0.0291352 -0.0198672 1.15087e-19)
(0.236711 0.197025 -2.27796e-21)
(1.07919 0.888831 -2.28043e-21)
(1.26234 1.05297 -9.74776e-21)
(1.27459 1.08218 2.42516e-20)
(1.22377 1.0604 2.88441e-20)
(1.15419 1.02417 5.29686e-20)
(1.08008 0.984581 -6.12582e-20)
(1.00084 0.940744 -3.19476e-22)
(0.917039 0.890089 -1.06083e-21)
(0.831246 0.829145 -5.04835e-22)
(0.761593 0.763194 1.9918e-19)
(0.716632 0.696184 0)
(0.64594 0.591464 1.37522e-19)
(0.475143 0.406711 9.23323e-20)
(0.262772 0.20069 2.15545e-19)
(0.101972 0.0557445 6.29496e-20)
(-0.00485371 -0.034443 -7.40987e-20)
(-0.0694667 -0.0864144 -4.39728e-20)
(-0.0869368 -0.0828933 0)
(-0.0349001 -0.0271053 1.23878e-19)
(0.236317 0.203967 2.64194e-21)
(1.06985 0.915466 0)
(1.24966 1.08365 -8.58327e-21)
(1.26086 1.11293 1.85747e-20)
(1.21006 1.09021 -2.8702e-20)
(1.14055 1.05294 -6.94384e-20)
(1.0663 1.0123 1.27174e-19)
(0.986456 0.967401 -8.41605e-21)
(0.901351 0.915534 0)
(0.813142 0.852847 -2.12847e-19)
(0.739882 0.783584 -4.39626e-19)
(0.691023 0.709221 1.72825e-20)
(0.618258 0.590733 1.92057e-19)
(0.454045 0.391196 0)
(0.258283 0.174596 1.45829e-19)
(0.114888 0.0155274 0)
(0.0252387 -0.0953326 0)
(-0.00984749 -0.146649 -4.71678e-20)
(0.00151539 -0.109319 0)
(0.0159568 -0.00832168 3.33401e-20)
(0.235698 0.210377 8.73096e-22)
(1.06088 0.940875 0)
(1.23731 1.11239 -1.17833e-20)
(1.24751 1.14177 0)
(1.19682 1.11825 1.40651e-20)
(1.12738 1.08011 0)
(1.05307 1.03858 7.50726e-21)
(0.972627 0.992867 1.61467e-20)
(0.886204 0.940096 1.50511e-20)
(0.795396 0.876085 -2.37115e-19)
(0.71789 0.804134 1.35886e-20)
(0.663657 0.722783 1.38883e-19)
(0.586961 0.5892 1.88745e-19)
(0.427648 0.372143 2.46432e-20)
(0.246124 0.141202 1.14966e-19)
(0.114661 -0.0382767 0)
(0.0395535 -0.173864 1.54838e-19)
(0.0254084 -0.165847 -9.11084e-20)
(0.0179934 0.0234786 1.0754e-19)
(-0.0385571 0.46916 -1.27743e-19)
(0.235147 0.216627 4.94653e-22)
(1.05205 0.964915 -3.11313e-21)
(1.22521 1.13954 0)
(1.2344 1.16913 9.74653e-22)
(1.18387 1.14509 -3.48653e-20)
(1.11443 1.10635 1.1791e-19)
(1.04006 1.06422 4.88645e-20)
(0.95894 1.01806 0)
(0.871063 0.964832 1.03915e-19)
(0.777323 0.900103 -1.28581e-20)
(0.694653 0.82622 0)
(0.632968 0.738299 0)
(0.549107 0.587599 1.71514e-19)
(0.392041 0.349434 -7.59229e-20)
(0.222777 0.102084 -1.17962e-19)
(0.100549 -0.104333 0)
(0.0343298 -0.126694 7.85967e-20)
(-0.000731517 0.441887 -9.14892e-20)
(0.02546 1.96158 -5.22377e-20)
(0.0506258 2.84264 -6.37341e-20)
(0.234362 0.222393 -1.84879e-21)
(1.04345 0.987764 1.34777e-21)
(1.21341 1.16509 -5.53102e-21)
(1.22154 1.19489 -1.11283e-20)
(1.17128 1.17055 0)
(1.1018 1.1314 8.00723e-20)
(1.02751 1.08891 7.34082e-20)
(0.945614 1.04258 -8.32509e-21)
(0.856245 0.989279 1.55124e-20)
(0.759369 0.924417 2.31371e-19)
(0.670867 0.849526 2.30753e-19)
(0.59992 0.756465 1.61656e-19)
(0.504845 0.587729 1.75491e-19)
(0.345883 0.323976 -1.82325e-19)
(0.191716 0.0655338 -1.80976e-19)
(0.0712089 -0.03323 0)
(0.028897 0.95197 0)
(0.0722146 2.61449 4.47546e-20)
(0.0754598 3.22959 0)
(0.0782381 3.39538 1.18522e-19)
(0.236498 0.227904 0)
(1.03548 1.00984 0)
(1.20159 1.18891 0)
(1.20877 1.21891 -2.26649e-21)
(1.15871 1.19438 -3.02219e-20)
(1.08929 1.15511 5.60862e-20)
(1.01534 1.11256 4.99141e-20)
(0.93259 1.06629 -8.42602e-21)
(0.841697 1.01327 1.36465e-19)
(0.74155 0.94889 -1.24393e-21)
(0.646683 0.87399 4.65647e-19)
(0.564943 0.777886 -1.86895e-20)
(0.454123 0.592009 2.20193e-20)
(0.288065 0.296656 2.67446e-20)
(0.142776 0.0629487 -1.12368e-21)
(0.0655194 1.07183 3.06348e-22)
(0.101572 2.80192 -2.40068e-19)
(0.105943 3.30797 -9.10054e-20)
(0.100851 3.42382 4.94965e-20)
(0.0937987 3.44227 -5.68894e-20)
(0.158046 0.17221 2.30377e-21)
(1.02282 1.03386 0)
(1.18949 1.21124 6.4631e-21)
(1.19652 1.24163 2.39932e-20)
(1.14662 1.21706 -5.31476e-20)
(1.07761 1.17797 -5.75569e-20)
(1.00335 1.1352 -5.54383e-20)
(0.919902 1.08925 1.06286e-19)
(0.827515 1.0369 -1.15699e-19)
(0.724139 0.97367 0)
(0.622517 0.899794 2.35274e-19)
(0.528635 0.802894 -1.36178e-19)
(0.403665 0.621039 0)
(0.220139 0.275059 2.7003e-20)
(0.0964456 0.662048 6.16168e-20)
(0.113847 2.62791 -6.89095e-20)
(0.157228 3.32772 7.84314e-20)
(0.145447 3.42798 4.3325e-20)
(0.122862 3.44647 4.92091e-20)
(0.106494 3.45532 8.17865e-20)
(0.270664 0.264587 -3.36952e-21)
(1.00279 1.04222 0)
(1.16919 1.23638 -3.46212e-21)
(1.18079 1.27302 -1.96145e-20)
(1.12802 1.25046 4.84742e-20)
(1.05847 1.2116 5.28276e-20)
(0.982971 1.17025 7.02555e-20)
(0.898719 1.1253 8.206e-21)
(0.804351 1.07474 1.1714e-19)
(0.696727 1.01487 2.15686e-19)
(0.586071 0.945 1.38336e-20)
(0.471292 0.84065 1.26133e-19)
(0.305134 0.62159 2.20197e-20)
(0.178862 0.769868 -2.67756e-20)
(0.187135 2.53327 -5.88441e-20)
(0.23795 3.32266 6.04234e-20)
(0.221794 3.44434 -6.76179e-20)
(0.190519 3.46483 -3.88945e-20)
(0.160102 3.48998 -3.9164e-20)
(0.117274 3.48751 -5.51792e-21)
(0.260142 0.26302 0)
(0.998562 1.0643 1.67125e-21)
(1.1594 1.25964 -1.03224e-22)
(1.16881 1.29648 1.38794e-21)
(1.11607 1.27367 2.86685e-20)
(1.04648 1.23491 -4.95567e-20)
(0.970536 1.19365 -4.36827e-20)
(0.885778 1.14938 7.7585e-21)
(0.790261 1.10011 -1.26128e-19)
(0.679992 1.04285 -2.35975e-21)
(0.563467 0.97702 -4.4588e-19)
(0.436384 0.871945 1.81398e-20)
(0.269128 0.691665 -2.13649e-20)
(0.2144 1.51245 -2.53932e-20)
(0.28232 3.15045 3.48661e-21)
(0.292399 3.4407 -1.67495e-22)
(0.254746 3.48771 1.14738e-19)
(0.223265 3.51501 6.21356e-20)
(0.179228 3.53659 -2.78735e-20)
(0.131826 3.53531 -3.26308e-20)
(0.245531 0.260337 6.54096e-21)
(0.993331 1.08889 1.32844e-20)
(1.14917 1.28498 -3.21569e-22)
(1.15642 1.32156 5.60537e-21)
(1.10362 1.29836 0)
(1.03407 1.25956 -6.13806e-20)
(0.957953 1.21846 -6.01997e-20)
(0.872941 1.17488 7.28169e-21)
(0.776588 1.1271 -1.39249e-20)
(0.664244 1.07296 -2.09391e-19)
(0.542898 1.01214 -2.13031e-19)
(0.405303 0.905305 -1.53572e-19)
(0.266801 0.866214 -1.65168e-19)
(0.285069 2.36041 1.6714e-19)
(0.366682 3.36939 1.47279e-19)
(0.334309 3.48996 0)
(0.290029 3.53231 0)
(0.255085 3.56823 -2.34163e-20)
(0.215547 3.61243 0)
(0.14805 3.60188 -4.34618e-20)
(0.235145 0.261622 -1.19467e-20)
(0.986105 1.1142 -1.41111e-20)
(1.13749 1.31154 0)
(1.14271 1.34746 1.1764e-21)
(1.08986 1.32371 2.10352e-20)
(1.02051 1.28479 -8.31732e-20)
(0.944554 1.24392 -3.69625e-20)
(0.85952 1.201 6.04021e-21)
(0.762591 1.15476 -9.94432e-20)
(0.648659 1.10396 1.12244e-20)
(0.523594 1.04846 0)
(0.374673 0.939929 0)