/*--------------------------------*- C++ -*----------------------------------*\
  =========                 |
  \\      /  F ield         | OpenFOAM: The Open Source CFD Toolbox
   \\    /   O peration     | Website:  https://openfoam.org
    \\  /    A nd           | Version:  6
     \\/     M anipulation  |
\*---------------------------------------------------------------------------*/
FoamFile
{
    version     2.0;
    format      ascii;
    class       surfaceScalarField;
    location    "81";
    object      phi;
}
// * * * * * * * * * * * * * * * * * * * * * * * * * * * * * * * * * * * * * //

dimensions      [0 3 -1 0 0 0 0];

internalField   nonuniform List<scalar> 
17370
(
-0.0900003
0.0898493
0.289162
-0.0714628
0.0537528
0.364485
-0.0381196
0.0276904
0.426597
-0.0196384
0.0146052
0.504285
-0.0107631
0.00827245
0.601893
-0.00627253
0.0048959
0.720434
-0.00373199
0.00289156
0.863747
-0.00215031
0.00159141
1.03601
-0.00107502
0.000662804
1.24292
-0.000255777
-0.000139172
1.49159
0.000518418
-0.000929068
1.4916
0.00132775
-0.00181738
1.24318
0.00234454
-0.00304933
1.03634
0.00386229
-0.00500576
0.86405
0.00637137
-0.00836392
0.72105
0.0108488
-0.0146843
0.60305
0.0197108
-0.0277549
0.507483
0.0381764
-0.0538007
0.431792
0.071502
-0.0898756
0.365149
0.0900162
0.198995
-0.128137
0.0882271
0.0399095
-0.364599
0.353379
-0.0746718
0.0858917
-0.446476
0.454321
-0.0843883
0.0765439
-0.521191
0.529902
-0.0684464
0.0597346
-0.612789
0.621569
-0.0515451
0.0427648
-0.726895
0.734165
-0.0353031
0.0280327
-0.867476
0.872592
-0.0224309
0.0173143
-1.03847
1.04192
-0.0135038
0.0100534
-1.2446
1.24703
-0.00744212
0.00500846
-1.49262
1.4946
-0.00305958
0.00107919
-1.4925
1.49423
0.000595408
-0.00232007
-1.24398
1.24586
0.00422464
-0.00611045
-1.03751
1.04004
0.00846713
-0.0109941
-0.866101
0.869826
0.014344
-0.0180699
-0.72439
0.729933
0.0231084
-0.028651
-0.608697
0.616111
0.035865
-0.0432782
-0.514896
0.52304
0.0520073
-0.0601505
-0.439856
0.447914
0.0688125
-0.0768704
-0.375295
0.376739
0.084667
-0.0861106
-0.25733
0.222476
0.0748203
-0.0399669
-0.0685204
0.0586954
0.00982508
-0.0518066
0.0583882
-0.374129
0.367547
-0.0574708
0.0537172
-0.453596
0.45735
-0.0486258
0.0446718
-0.527949
0.531903
-0.04083
0.0371892
-0.621566
0.625207
-0.0330853
0.0290075
-0.735351
0.739429
-0.0244349
0.0202735
-0.874343
0.878505
-0.0159254
0.0122294
-1.04349
1.04719
-0.00848941
0.00531426
-1.24856
1.25174
-0.00198373
-0.00109083
-1.49666
1.49973
0.00413912
-0.00740617
-1.4972
1.50047
0.010487
-0.0140923
-1.25007
1.25367
0.0176462
-0.0218298
-1.04592
1.05011
0.0258506
-0.0302867
-0.877758
0.882195
0.0342552
-0.0382509
-0.739897
0.743893
0.0417996
-0.0455457
-0.626771
0.630517
0.0494174
-0.0544304
-0.534808
0.539821
0.0580981
-0.058908
-0.457472
0.458282
0.0522
-0.0319939
-0.335747
0.315541
0.00988913
-0.0683423
0.0584532
-0.0529458
0.0489519
0.00399392
-0.0331512
0.0436914
-0.358117
0.347577
-0.0473855
0.0467549
-0.45929
0.459921
-0.0436958
0.04034
-0.535807
0.539163
-0.0365639
0.0332566
-0.628534
0.631841
-0.0298151
0.02678
-0.742655
0.74569
-0.0235177
0.020408
-0.882026
0.885136
-0.0168743
0.0134918
-1.05078
1.05416
-0.00969493
0.00615303
-1.25517
1.25872
-0.00218045
-0.00161904
-1.50324
1.50704
0.00538563
-0.0092602
-1.50413
1.50801
0.0126687
-0.0162793
-1.25741
1.26102
0.0194644
-0.0227678
-1.05391
1.05722
0.0256778
-0.0287424
-0.885682
0.888747
0.0316164
-0.0348977
-0.74715
0.750431
0.0380696
-0.0417076
-0.6343
0.637938
0.044945
-0.0478691
-0.544129
0.547053
0.0483576
-0.044464
-0.456564
0.452671
0.0336857
-0.0162278
-0.296169
0.278711
0.00407362
-0.0526317
0.0485581
-0.045876
0.0433828
0.00249314
-0.0227905
0.0331608
-0.336894
0.326524
-0.0389746
0.0399861
-0.459609
0.458597
-0.0387908
0.0365
-0.541884
0.544175
-0.0338279
0.0312275
-0.634895
0.637495
-0.0281594
0.0252557
-0.748738
0.751642
-0.0219862
0.0189882
-0.888093
0.891091
-0.0156785
0.0125747
-1.0573
1.0604
-0.00904401
0.00563129
-1.26218
1.26559
-0.0016647
-0.00222154
-1.51093
1.51481
0.00606385
-0.00989975
-1.5119
1.51573
0.0131356
-0.0164215
-1.26445
1.26774
0.019266
-0.0222737
-1.06032
1.06333
0.0250075
-0.0280128
-0.891795
0.8948
0.0306981
-0.0335469
-0.753633
0.756482
0.0359621
-0.0384481
-0.640999
0.643485
0.0405794
-0.0415647
-0.548852
0.549837
0.0403335
-0.034199
-0.447382
0.441248
0.023478
-0.0102467
-0.263481
0.25025
0.0025917
-0.0453923
0.0428006
-0.0413104
0.0395464
0.00176398
-0.0167244
0.025963
-0.316681
0.307442
-0.0325563
0.0346873
-0.457003
0.454872
-0.0342588
0.0325823
-0.546156
0.547833
-0.0303952
0.0282942
-0.639804
0.641905
-0.0258564
0.0234529
-0.754291
0.756694
-0.0205878
0.0177924
-0.893992
0.896787
-0.0145493
0.0114737
-1.06345
1.06653
-0.00797678
0.00464554
-1.26892
1.27225
-0.000808113
-0.00292764
-1.51861
1.52234
0.00660741
-0.0102783
-1.51946
1.52313
0.0133844
-0.01657
-1.27098
1.27416
0.0193153
-0.022172
-1.06635
1.06921
0.0246276
-0.0271511
-0.897606
0.90013
0.0292715
-0.0314259
-0.758925
0.76108
0.0332899
-0.0352374
-0.645633
0.64758
0.0366826
-0.036826
-0.550347
0.55049
0.0343578
-0.0272947
-0.434567
0.427504
0.0175831
-0.00742098
-0.238702
0.22854
0.00188438
-0.0406179
0.0387336
-0.0380277
0.0367025
0.0013252
-0.0127562
0.0206837
-0.298864
0.290937
-0.0274149
0.0303232
-0.452323
0.449414
-0.0305158
0.0293864
-0.549269
0.550398
-0.0273844
0.0254594
-0.643946
0.645871
-0.02325
0.021104
-0.75894
0.761086
-0.0185791
0.0160862
-0.899368
0.901861
-0.0131328
0.0102428
-1.06947
1.07236
-0.00686918
0.00361824
-1.27551
1.27876
0.000137297
-0.00377092
-1.526
1.52963
0.0073342
-0.0108793
-1.52672
1.53027
0.0138461
-0.0168282
-1.27728
1.28026
0.019304
-0.021774
-1.07194
1.07441
0.0238418
-0.0259378
-0.902407
0.904503
0.0277268
-0.0295771
-0.763055
0.764905
0.0312028
-0.0329142
-0.649392
0.651103
0.033707
-0.0331153
-0.550269
0.549677
0.0297246
-0.0223496
-0.420227
0.412852
0.013814
-0.00576074
-0.219533
0.211479
0.00147167
-0.0370805
0.0356089
-0.035546
0.0345268
0.0010192
-0.00995067
0.0166406
-0.283654
0.276964
-0.0230963
0.0264484
-0.446264
0.442912
-0.0272117
0.0264984
-0.551312
0.552026
-0.0247269
0.022931
-0.647774
0.649569
-0.0208476
0.0188183
-0.763167
0.765196
-0.0164317
0.0140899
-0.904209
0.906551
-0.0113346
0.00863394
-1.07509
1.07779
-0.00545949
0.00236042
-1.2819
1.285
0.00126257
-0.00478304
-1.53319
1.53671
0.00821645
-0.0115787
-1.53371
1.53707
0.0143271
-0.017019
-1.28311
1.2858
0.0192084
-0.0213668
-1.07679
1.07895
0.0231834
-0.0250391
-0.906467
0.908323
0.0266254
-0.0282628
-0.766642
0.768279
0.0296872
-0.0310561
-0.652671
0.654039
0.0313523
-0.0300222
-0.548728
0.547398
0.0260053
-0.0187017
-0.405486
0.398182
0.0112472
-0.00466268
-0.204229
0.197644
0.0011973
-0.0342892
0.0330919
-0.0336334
0.0328421
0.000791348
-0.00786687
0.0134767
-0.270844
0.265234
-0.0194371
0.0229769
-0.439457
0.435917
-0.0242093
0.0237388
-0.552652
0.553122
-0.0222295
0.0205395
-0.651362
0.653052
-0.0185466
0.0165988
-0.767177
0.769125
-0.0142995
0.0120411
-0.908784
0.911042
-0.00938452
0.00679021
-1.08036
1.08296
-0.00375317
0.000794616
-1.28798
1.29094
0.00265887
-0.00600623
-1.54012
1.54347
0.00924679
-0.0123806
-1.5403
1.54343
0.0149105
-0.017358
-1.28838
1.29083
0.0193264
-0.021251
-1.08108
1.08301
0.0228651
-0.0245123
-0.910068
0.911716
0.0259163
-0.0273612
-0.769812
0.771257
0.0285877
-0.0295723
-0.655209
0.656193
0.0294921
-0.0274876
-0.545729
0.543724
0.02306
-0.0160118
-0.390998
0.38395
0.00945182
-0.00390573
-0.191627
0.186081
0.00100778
-0.0320001
0.0309923
-0.0321491
0.031535
0.000614146
-0.00625477
0.0109405
-0.260115
0.255429
-0.0162998
0.0198297
-0.432383
0.428853
-0.0213762
0.0211262
-0.553521
0.553771
-0.0198435
0.0182088
-0.654763
0.656397
-0.0162673
0.0143643
-0.771039
0.772942
-0.0121185
0.00991326
-0.913197
0.915402
-0.00731953
0.00479085
-1.08544
1.08797
-0.00183995
-0.00101716
-1.29379
1.29665
0.00432395
-0.00749833
-1.5467
1.54987
0.0105422
-0.0134588
-1.54642
1.54934
0.0157937
-0.0180274
-1.29318
1.29541
0.0197933
-0.0214951
-1.08494
1.08664
0.0229144
-0.0243626
-0.913251
0.914699
0.0255985
-0.0268653
-0.772603
0.77387
0.0279463
-0.0285068
-0.656972
0.657533
0.0280443
-0.025467
-0.541438
0.538861
0.0207802
-0.0140479
-0.377066
0.370333
0.00818918
-0.00338063
-0.180939
0.176131
0.000877019
-0.0300586
0.0291816
-0.0310018
0.0305317
0.000470029
-0.00495293
0.00884002
-0.25117
0.247283
-0.0135537
0.0169246
-0.425413
0.422042
-0.0186444
0.0185783
-0.553974
0.554041
-0.0174817
0.0158778
-0.658083
0.659686
-0.0139527
0.0120586
-0.774824
0.776718
-0.00982475
0.00763762
-0.917508
0.919695
-0.00507463
0.0025855
-1.09039
1.09288
0.000306461
-0.00308913
-1.29941
1.30219
0.00628238
-0.00931406
-1.55293
1.55597
0.0121869
-0.0149051
-1.55212
1.55484
0.0170529
-0.019074
-1.29755
1.29957
0.0206361
-0.022116
-1.08837
1.08985
0.0233497
-0.0246156
-0.916039
0.917305
0.0257013
-0.0268092
-0.775044
0.776152
0.0276873
-0.0278852
-0.657902
0.6581
0.0269955
-0.0239284
-0.53604
0.532973
0.0190753
-0.0126453
-0.363767
0.357337
0.00731405
-0.00302333
-0.171611
0.16732
0.000789614
-0.0283561
0.0275665
-0.0301311
0.0297836
0.000347562
-0.00385808
0.00704165
-0.243773
0.240589
-0.0110976
0.014199
-0.418825
0.415723
-0.0159644
0.0160442
-0.554088
0.554009
-0.0150206
0.0134829
-0.661332
0.662869
-0.0115456
0.00962749
-0.778601
0.780519
-0.0073665
0.00516101
-0.921788
0.923994
-0.00258949
0.000106873
-1.09527
1.09775
0.00275804
-0.00549352
-1.30488
1.30762
0.00860383
-0.0115216
-1.5589
1.56182
0.0142475
-0.0167836
-1.55742
1.55996
0.0187538
-0.0205688
-1.3015
1.30332
0.0219317
-0.0231942
-1.09139
1.09265
0.0242467
-0.0253353
-0.918458
0.919547
0.0262749
-0.0272186
-0.777156
0.7781
0.0278349
-0.0277341
-0.658153
0.658052
0.0263879
-0.0228649
-0.529683
0.52616
0.017882
-0.011694
-0.35105
0.344862
0.00673708
-0.00279464
-0.16323
0.159288
0.000735866
-0.0268113
0.0260754
-0.0294986
0.0292609
0.000237713
-0.0028942
0.00544091
-0.237748
0.235201
-0.00883866
0.0115866
-0.412824
0.410076
-0.0132818
0.0134321
-0.553957
0.553807
-0.0124433
0.0109395
-0.664474
0.665978
-0.00896556
0.00699242
-0.782432
0.784405
-0.00466626
0.00240587
-0.926109
0.928369
0.000215394
-0.00272945
-1.10015
1.10266
0.00560841
-0.00833151
-1.31027
1.313
0.011391
-0.0142175
-1.56464
1.56747
0.0168115
-0.0191759
-1.56236
1.56472
0.0209743
-0.0225867
-1.30504
1.30665
0.0237487
-0.0247895
-1.09401
1.09505
0.0256576
-0.0265647
-0.92052
0.921427
0.0273525
-0.0281326
-0.778901
0.779681
0.028464
-0.0280443
-0.657809
0.657389
0.026235
-0.0222728
-0.52244
0.518478
0.0171565
-0.0111216
-0.33878
0.332745
0.00640124
-0.00266888
-0.155475
0.151743
0.000709
-0.0253604
0.0246514
-0.0290829
0.02895
0.000132877
-0.0019978
0.00394481
-0.232978
0.231031
-0.00667825
0.00900147
-0.407572
0.405249
-0.0105173
0.0106584
-0.553738
0.553597
-0.00966884
0.00815856
-0.667585
0.669095
-0.00611837
0.00405891
-0.786377
0.788437
-0.00163092
-0.000719267
-0.93054
0.93289
0.00343073
-0.00601449
-1.10509
1.10767
0.00894893
-0.0116949
-1.31565
1.31839
0.014738
-0.0174995
-1.57021
1.57297
0.0199807
-0.0221856
-1.56695
1.56915
0.0238191
-0.0252302
-1.30817
1.30958
0.0261855
-0.0269955
-1.09622
1.09703
0.0276659
-0.0283743
-0.922207
0.922916
0.0290056
-0.0296442
-0.780293
0.780932
0.0296362
-0.0288081
-0.656781
0.655953
0.0265293
-0.0221279
-0.514337
0.509936
0.0168469
-0.0108652
-0.326771
0.32079
0.00626055
-0.00262556
-0.148083
0.144448
0.000703629
-0.0239525
0.0232489
-0.0288774
0.0288505
2.69042e-05
-0.00112129
0.00248128
-0.2294
0.22804
-0.00453428
0.00636745
-0.403204
0.401371
-0.00760026
0.00765074
-0.553598
0.553547
-0.00661389
0.00505896
-0.670747
0.672302
-0.00291186
0.000730777
-0.790497
0.792678
0.00184227
-0.00432384
-0.935151
0.937633
0.00717113
-0.0098648
-1.11018
1.11288
0.0128967
-0.0157017
-1.32108
1.32388
0.0187636
-0.0214861
-1.57566
1.57838
0.023871
-0.0259238
-1.57121
1.57327
0.0273925
-0.0285984
-1.31089
1.3121
0.0293478
-0.0299262
-1.098
1.09858
0.030395
-0.0308953
-0.923495
0.923996
0.0313479
-0.0317368
-0.781314
0.781703
0.0314388
-0.0301297
-0.654931
0.653622
0.027338
-0.0224559
-0.505352
0.50047
0.0169444
-0.010899
-0.314817
0.308771
0.00629418
-0.00265538
-0.140837
0.137198
0.000717412
-0.0225463
0.0218289
-0.0288847
0.0289669
-8.22522e-05
-0.000217848
0.000981155
-0.226997
0.226233
-0.00232306
0.00359963
-0.399849
0.398572
-0.00444741
0.00432196
-0.553709
0.553834
-0.00317859
0.00151916
-0.67405
0.675709
0.000773679
-0.00312009
-0.794862
0.797208
0.00588676
-0.00854391
-0.940026
0.942683
0.0115762
-0.0144253
-1.1155
1.11835
0.0176031
-0.0205063
-1.32663
1.32954
0.0236214
-0.0263273
-1.58103
1.58373
0.0286292
-0.0305348
-1.57517
1.57707
0.0318376
-0.0328357
-1.31319
1.31419
0.0333738
-0.0337119
-1.09933
1.09967
0.0339674
-0.0342478
-0.924358
0.924639
0.0344988
-0.0345697
-0.781773
0.781844
0.0339436
-0.0320693
-0.652116
0.650242
0.0287047
-0.023274
-0.495391
0.48996
0.017442
-0.0112051
-0.302678
0.296441
0.00648726
-0.0027509
-0.133537
0.1298
0.000748067
-0.0211043
0.0203562
-0.0291219
0.029334
-0.000212082
0.000736474
-0.000618419
-0.225795
0.225677
3.72762e-05
0.000608036
-0.397636
0.396991
-0.000965633
0.000573315
-0.554256
0.554649
0.000747103
-0.0025696
-0.677617
0.679439
0.00506234
-0.00762148
-0.799557
0.802116
0.0106364
-0.0135213
-0.945254
0.948139
0.0167966
-0.0198524
-1.12114
1.1242
0.0232281
-0.0262731
-1.3324
1.33544
0.0294828
-0.0322002
-1.58637
1.58909
0.0344324
-0.036191
-1.57881
1.58057
0.0373241
-0.0381051
-1.31504
1.31582
0.0384217
-0.038502
-1.10018
1.10026
0.0385272
-0.0385743
-0.924759
0.924806
0.0386338
-0.0382882
-0.781572
0.781226
0.037245
-0.0347169
-0.648182
0.645654
0.0306921
-0.0246089
-0.4843
0.478216
0.0183403
-0.0117713
-0.29009
0.283521
0.00682764
-0.00290539
-0.125998
0.122076
0.000793414
-0.0195938
0.0188004
-0.0296218
0.0299796
-0.000357859
0.00179646
-0.00231024
-0.225892
0.226406
0.00258609
-0.00268492
-0.396712
0.39681
0.00296509
-0.0037359
-0.555458
0.556229
0.00529706
-0.00734811
-0.681568
0.68362
0.0101155
-0.0129538
-0.804678
0.807516
0.0162872
-0.019462
-0.950944
0.954119
0.0230455
-0.026364
-1.12721
1.13052
0.0299937
-0.0332229
-1.33845
1.34168
0.0365606
-0.0393048
-1.59174
1.59449
0.0414668
-0.0430668
-1.58214
1.58374
0.0440131
-0.0445725
-1.3164
1.31696
0.0446615
-0.0444627
-1.1005
1.1003
0.0442365
-0.044034
-0.924645
0.924443
0.043867
-0.0430168
-0.780522
0.779672
0.0414682
-0.0381701
-0.642951
0.639653
0.0333643
-0.0264865
-0.471855
0.464977
0.0196393
-0.0125855
-0.276768
0.269714
0.0073031
-0.00311167
-0.118047
0.113855
0.000850972
-0.0179865
0.0171356
-0.0304108
0.0309473
-0.000536492
0.00308836
-0.00438488
-0.227341
0.228638
0.00555315
-0.00645359
-0.397277
0.398177
0.00747336
-0.00873372
-0.557554
0.558815
0.0106564
-0.0130168
-0.686047
0.688407
0.0161449
-0.0193365
-0.810354
0.813545
0.0230659
-0.0266001
-0.957221
0.960755
0.0305661
-0.0342104
-1.13381
1.13745
0.0381534
-0.0416085
-1.34488
1.34834
0.0451039
-0.0478852
-1.59716
1.59994
0.0499701
-0.0513928
-1.58513
1.58656
0.0521319
-0.0524578
-1.31726
1.31759
0.0522979
-0.0517953
-1.10024
1.09974
0.0513011
-0.050833
-0.923975
0.923506
0.0503094
-0.0489931
-0.778548
0.777232
0.0467638
-0.0425337
-0.636166
0.631936
0.0367847
-0.0289276
-0.457754
0.449897
0.021333
-0.0136297
-0.2624
0.254697
0.00789642
-0.00335961
-0.109519
0.104983
0.000917202
-0.0162597
0.0153425
-0.0315632
0.0323268
-0.000763646
0.0046229
-0.0068126
-0.23037
0.23256
0.00906915
-0.010893
-0.399549
0.401373
0.0127621
-0.0146281
-0.560791
0.562657
0.0170464
-0.0198098
-0.691215
0.693978
0.0234076
-0.0270386
-0.816737
0.820367
0.0312587
-0.0352365
-0.96423
0.968208
0.03967
-0.0437068
-1.14107
1.14511
0.0480219
-0.0517414
-1.35177
1.35549
0.0554174
-0.0582363
-1.60265
1.60546
0.0602253
-0.0614354
-1.58774
1.58895
0.0619268
-0.0619873
-1.31754
1.3176
0.0615546
-0.0607176
-1.09936
1.09852
0.0599305
-0.0591805
-0.92269
0.92194
0.0582018
-0.0563179
-0.775676
0.773792
0.0532727
-0.0478982
-0.6275
0.622125
0.0409916
-0.0319234
-0.441608
0.43254
0.0233887
-0.0148648
-0.246654
0.23813
0.00857612
-0.00363208
-0.100269
0.0953254
0.000986406
-0.0143985
0.0134121
-0.0331666
0.0342264
-0.00105976
0.00654896
-0.00982786
-0.235211
0.238489
0.0133448
-0.0162418
-0.4038
0.406697
0.0191005
-0.0217039
-0.565449
0.568053
0.0247687
-0.0280753
-0.697278
0.700585
0.0322815
-0.0364674
-0.824006
0.828192
0.041293
-0.045807
-0.972142
0.976656
0.0507945
-0.0552855
-1.14913
1.15362
0.0600158
-0.0640112
-1.35917
1.36317
0.0678467
-0.0706569
-1.60818
1.61099
0.0724945
-0.073437
-1.58989
1.59083
0.0736253
-0.0733781
-1.31711
1.31686
0.0726599
-0.0714519
-1.09777
1.09657
0.070353
-0.0693094
-0.920781
0.919737
0.0677668
-0.0651974
-0.77171
0.76914
0.0611317
-0.0543252
-0.616501
0.609695
0.0459837
-0.0354217
-0.422939
0.412377
0.025733
-0.0162213
-0.22919
0.219678
0.00929138
-0.00390341
-0.090185
0.0847971
0.00105055
-0.0124005
0.01135
-0.0353501
0.0368216
-0.00147153
0.0090717
-0.0137157
-0.24221
0.246854
0.0187322
-0.0228701
-0.410398
0.414535
0.0268767
-0.0303707
-0.571863
0.575357
0.0342666
-0.0382795
-0.704535
0.708548
0.0432689
-0.0481507
-0.832389
0.837271
0.0537111
-0.0588585
-0.981144
0.986291
0.06448
-0.0694667
-1.1581
1.16309
0.0746184
-0.0788605
-1.3671
1.37134
0.0827898
-0.0855055
-1.61363
1.61635
0.0870967
-0.0876764
-1.59145
1.59203
0.0875024
-0.0868796
-1.31591
1.31528
0.0858225
-0.0842333
-1.09542
1.09383
0.0828148
-0.081313
-0.918175
0.916673
0.0792709
-0.0757504
-0.766337
0.762817
0.0703914
-0.0617801
-0.602573
0.593962
0.0516559
-0.0392739
-0.40117
0.388788
0.028215
-0.0175774
-0.209687
0.19905
0.00996076
-0.00413541
-0.079212
0.0733866
0.00109841
-0.0102809
0.00918249
-0.0383172
0.0403726
-0.0020554
0.0125856
-0.0189558
-0.25188
0.25825
0.0257697
-0.0313508
-0.419834
0.425415
0.036709
-0.0412895
-0.58042
0.585001
0.0462224
-0.0511486
-0.71333
0.718256
0.0571436
-0.0628813
-0.84216
0.847898
0.0693081
-0.075167
-0.991427
0.997286
0.0814587
-0.0869259
-1.16804
1.17351
0.0924316
-0.0968179
-1.37545
1.37984
0.100692
-0.103153
-1.61882
1.62128
0.104342
-0.104415
-1.59218
1.59226
0.103792
-0.10267
-1.31382
1.3127
0.101238
-0.09927
-1.09225
1.09028
0.0975079
-0.0954316
-0.914512
0.912436
0.0928159
-0.0880611
-0.759001
0.754246
0.0810231
-0.0701113
-0.584937
0.574025
0.0577766
-0.0432154
-0.375655
0.361094
0.0305924
-0.0187537
-0.187903
0.176064
0.0104724
-0.00427902
-0.0673933
0.0612
0.00111641
-0.00807835
0.00696194
-0.0423944
0.0453594
-0.00296503
0.0176699
-0.0263141
-0.264951
0.273596
0.035348
-0.0426657
-0.432783
0.4401
0.0496401
-0.0555335
-0.591616
0.597509
0.0618344
-0.0679932
-0.7241
0.730259
0.0752113
-0.081924
-0.853613
0.860325
0.0892755
-0.0958297
-1.00312
1.00967
0.102699
-0.1085
-1.17885
1.18465
0.114141
-0.118437
-1.38396
1.38826
0.121974
-0.123924
-1.62335
1.6253
0.124487
-0.123867
-1.5918
1.59119
0.122655
-0.120942
-1.31066
1.30894
0.119113
-0.116731
-1.08819
1.08581
0.11455
-0.111893
-0.909558
0.906902
0.108443
-0.102009
-0.749061
0.742627
0.0927594
-0.0789281
-0.56256
0.548728
0.0638928
-0.046806
-0.345715
0.328629
0.0325024
-0.0195087
-0.163752
0.150759
0.0106875
-0.00427841
-0.0549088
0.0484997
0.00109032
-0.00585809
0.00476778
-0.0481666
0.0526612
-0.00449452
0.0255355
-0.0372561
-0.282601
0.294321
0.0491632
-0.05881
-0.450301
0.459948
0.0678328
-0.075315
-0.606044
0.613527
0.083257
-0.090933
-0.737283
0.744959
0.0994313
-0.107058
-0.866956
0.874583
0.11517
-0.122189
-1.01609
1.02311
0.129304
-0.135088
-1.19015
1.19594
0.140451
-0.144271
-1.39209
1.39591
0.14706
-0.148146
-1.62667
1.62776
0.147784
-0.146219
-1.58991
1.58834
0.144237
-0.141831
-1.30619
1.30378
0.139522
-0.136693
-1.08312
1.08029
0.134006
-0.130713
-0.903234
0.899941
0.126
-0.117215
-0.735524
0.726738
0.10502
-0.0875266
-0.534145
0.516651
0.0692888
-0.0494355
-0.310765
0.290912
0.0334923
-0.019574
-0.137448
0.123529
0.0104661
-0.00408186
-0.0421135
0.0357293
0.00100675
-0.00371057
0.00270382
-0.0567289
0.0643841
-0.0076552
0.0392591
-0.0555044
-0.307001
0.323246
0.071468
-0.0843145
-0.474025
0.486871
0.0955023
-0.104445
-0.624189
0.633132
0.113984
-0.123015
-0.753184
0.762215
0.132538
-0.140634
-0.881906
0.890003
0.148884
-0.155738
-1.02972
1.03657
0.162417
-0.167559
-1.20111
1.20625
0.172005
-0.174768
-1.39896
1.40172
0.176247
-0.175991
-1.628
1.62775
0.174314
-0.171523
-1.58597
1.58318
0.168573
-0.165325
-1.3002
1.29695
0.162438
-0.15911
-1.07687
1.07354
0.155859
-0.151547
-0.895138
0.890826
0.144979
-0.132847
-0.716887
0.704755
0.116681
-0.0946984
-0.498074
0.476091
0.0729914
-0.050454
-0.270542
0.248004
0.0331847
-0.0187939
-0.109653
0.0952623
0.00974602
-0.00366888
-0.029545
0.0234678
0.000853911
-0.00174245
0.000888535
-0.0714927
0.0757745
-0.00428186
0.0299633
-0.0441808
-0.342142
0.35636
0.0584742
-0.0703255
-0.505356
0.517208
0.0810157
-0.0910865
-0.645782
0.655853
0.102464
-0.113041
-0.770629
0.781206
0.124857
-0.135375
-0.897063
0.907581
0.146637
-0.15673
-1.04252
1.05261
0.167421
-0.17673
-1.21035
1.21966
0.186209
-0.194014
-1.40337
1.41117
0.20135
-0.206622
-1.62638
1.63165
0.209832
-0.211621
-1.57937
1.58116
0.212173
-0.212246
-1.29236
1.29244
0.212342
-0.211654
-1.06909
1.0684
0.210128
-0.205495
-0.884112
0.879478
0.195652
-0.176423
-0.690943
0.671713
0.150854
-0.117855
-0.452904
0.419904
0.0873721
-0.0576558
-0.225494
0.195777
0.0363994
-0.0197617
-0.0816215
0.0649837
0.0097951
-0.00346694
-0.017862
0.0115339
0.000726102
-2.11346e-05
-0.000704967
-0.0833507
0.0814102
0.00194044
0.00806788
-0.0173141
-0.373353
0.382599
0.0282079
-0.0368259
-0.533773
0.542391
0.0455645
-0.0539612
-0.668706
0.677102
0.0643316
-0.0741385
-0.791226
0.801033
0.0847099
-0.0943797
-0.917466
0.927136
0.10472
-0.113641
-1.06242
1.07134
0.123284
-0.131316
-1.22877
1.2368
0.139482
-0.145969
-1.41869
1.42517
0.151666
-0.155576
-1.63626
1.64017
0.15759
-0.158277
-1.5825
1.58319
0.157691
-0.156608
-1.29151
1.29043
0.155647
-0.154356
-1.06528
1.06399
0.151969
-0.145771
-0.870052
0.863854
0.134815
-0.116489
-0.648444
0.630118
0.0950413
-0.070107
-0.384963
0.360029
0.0493955
-0.0312437
-0.166864
0.148712
0.0191146
-0.0101256
-0.0494891
0.0405001
0.00489505
-0.00168811
-0.0054291
0.00222215
0.000325435
0.00164604
-0.00197148
-0.0848664
0.0819113
0.0029551
-0.00106611
-0.00425505
-0.394609
0.39993
0.0115131
-0.0178718
-0.554963
0.561322
0.0243616
-0.0315977
-0.688138
0.695374
0.0406139
-0.0491225
-0.809829
0.818338
0.0585057
-0.0669288
-0.935957
0.94438
0.0756929
-0.0836435
-1.08009
1.08804
0.0920322
-0.0991206
-1.2444
1.25149
0.105885
-0.111102
-1.43103
1.43624
0.115724
-0.118481
-1.6435
1.64626
0.119409
-0.119089
-1.58339
1.58307
0.117746
-0.116023
-1.28873
1.28701
0.114069
-0.11194
-1.05974
1.05761
0.108853
-0.102255
-0.853749
0.847151
0.0919192
-0.0761279
-0.608903
0.593111
0.0595396
-0.0420411
-0.333571
0.316072
0.0290346
-0.0184241
-0.130519
0.119908
0.0114983
-0.00634186
-0.0315911
0.0264347
0.00320986
-0.00117719
0.00121554
-0.00324821
0.00025177
0.00251193
-0.0027637
-0.0835914
0.080711
0.00288041
-0.00506806
0.00240986
-0.408785
0.411443
0.00230872
-0.00712094
-0.570785
0.575597
0.012567
-0.018619
-0.704105
0.710157
0.0263484
-0.0336352
-0.826102
0.833389
0.0416289
-0.0488308
-0.952199
0.959401
0.0567134
-0.0634427
-1.09552
1.10225
0.0707206
-0.0764015
-1.25813
1.26381
0.0821279
-0.086422
-1.4412
1.4455
0.0898695
-0.0913907
-1.6486
1.65012
0.0915542
-0.0905591
-1.58224
1.58124
0.0886617
-0.0859546
-1.28473
1.28202
0.0833494
-0.0803638
-1.05288
1.04989
0.0765807
-0.0704744
-0.836522
0.830416
0.0613712
-0.0490883
-0.574915
0.562632
0.0373668
-0.0262909
-0.297685
0.286609
0.0186045
-0.012497
-0.108666
0.102559
0.00836502
-0.00506037
-0.0206898
0.0173852
0.0028034
-0.00114755
0.00574962
-0.00740547
0.000287281
0.00320704
-0.00349432
-0.0819872
0.0794036
0.00258356
-0.00650226
0.00552433
-0.418263
0.419241
-0.00199753
-0.00157957
-0.583433
0.58701
0.00589945
-0.0113425
-0.717484
0.722927
0.0178154
-0.0241809
-0.839878
0.846244
0.0310636
-0.0372808
-0.966092
0.972309
0.0439976
-0.049908
-1.1088
1.11471
0.0560012
-0.061057
-1.26929
1.27435
0.0658123
-0.0692354
-1.44934
1.45276
0.0717295
-0.072392
-1.65141
1.65207
0.0717591
-0.0697922
-1.57947
1.5775
0.0672542
-0.0640083
-1.27895
1.2757
0.060748
-0.0568263
-1.04483
1.04091
0.0527099
-0.0470176
-0.820171
0.814478
0.0397675
-0.03072
-0.548257
0.53921
0.0230024
-0.0164241
-0.274291
0.267713
0.0121209
-0.00882703
-0.0956002
0.0923063
0.00643771
-0.00426794
-0.0134198
0.01125
0.00258454
-0.0011551
0.00946911
-0.0108986
0.00032613
0.00392407
-0.0042502
-0.0804254
0.0781806
0.00224483
-0.00663851
0.00624615
-0.42469
0.425083
-0.00416524
0.00128543
-0.593147
0.596027
0.00287134
-0.00750143
-0.728752
0.733382
0.0130149
-0.0184856
-0.851729
0.8572
0.0245315
-0.0300195
-0.978116
0.983604
0.0360653
-0.0411533
-1.12028
1.12537
0.0464851
-0.0508594
-1.27903
1.28341
0.0548181
-0.0575128
-1.4558
1.4585
0.0591729
-0.0594448
-1.65251
1.65278
0.0580477
-0.0555181
-1.57493
1.5724
0.0523498
-0.0484232
-1.27194
1.26802
0.0447833
-0.0400844
-1.03556
1.03086
0.035498
-0.0302555
-0.805028
0.799786
0.0243129
-0.0177186
-0.528174
0.52158
0.0128465
-0.00928284
-0.259813
0.25625
0.00737352
-0.0059437
-0.0880232
0.0865934
0.00475077
-0.00349063
-0.008461
0.00720086
0.00230397
-0.00113252
0.0126352
-0.0138066
0.000353332
0.00466623
-0.00501956
-0.0791449
0.0773548
0.00179003
-0.00594781
0.00597674
-0.429332
0.429303
-0.00431356
0.00218767
-0.601532
0.603658
0.0016441
-0.00579938
-0.738424
0.74258
0.010945
-0.0155943
-0.862217
0.866866
0.0208269
-0.0256105
-0.989002
0.993786
0.0312165
-0.0357081
-1.13042
1.13491
0.0402884
-0.0442099
-1.28751
1.29143
0.0479782
-0.0501318
-1.46108
1.46324
0.0513346
-0.0509445
-1.65249
1.6521
0.0492796
-0.045904
-1.56944
1.56607
0.0423834
-0.0380426
-1.26358
1.25924
0.0337228
-0.0286579
-1.02518
1.02011
0.0236422
-0.0183521
-0.790968
0.785678
0.0135318
-0.00851346
-0.512981
0.507963
0.00545613
-0.00396149
-0.251086
0.249592
0.00342812
-0.00316986
-0.0840652
0.0838069
0.0028731
-0.00238166
-0.00545793
0.0049665
0.00172687
-0.000938647
0.0151062
-0.0158945
0.000330082
0.00537511
-0.00570519
-0.0783292
0.0768991
0.00143008
-0.00499181
0.00523721
-0.432844
0.432598
-0.00378338
0.00181845
-0.608702
0.610667
0.00175066
-0.00544193
-0.746991
0.750682
0.00977899
-0.0141732
-0.871433
0.875827
0.0189134
-0.0237296
-0.99831
1.00313
0.0284403
-0.0325809
-1.13945
1.14359
0.0370819
-0.0405312
-1.29514
1.29859
0.0434975
-0.0457139
-1.46517
1.46739
0.0466125
-0.0459701
-1.6516
1.65096
0.0438347
-0.0403124
-1.56266
1.55914
0.0364195
-0.031609
-1.25424
1.24943
0.0269279
-0.021379
-1.01409
1.00854
0.0160673
-0.0108567
-0.777392
0.772182
0.00630014
-0.0023843
-0.500938
0.497022
0.000411111
0.000177698
-0.246065
0.245476
1.00754e-05
-0.000497859
-0.0826036
0.0830914
0.000832317
-0.00103111
-0.00413658
0.00433537
0.000930623
-0.000598646
0.0166614
-0.0169934
0.000247181
0.00596092
-0.0062081
-0.0780344
0.0768174
0.00121704
-0.00377089
0.00382863
-0.435829
0.435771
-0.00264079
0.000753337
-0.615146
0.617034
0.00251366
-0.00602899
-0.754836
0.758351
0.0101084
-0.0140147
-0.879993
0.883899
0.0187809
-0.0226825
-1.00729
1.01119
0.0272319
-0.0310561
-1.14782
1.15165
0.0352529
-0.0386893
-1.30192
1.30536
0.0416809
-0.0433665
-1.46923
1.47092
0.0441864
-0.0434558
-1.65007
1.64934
0.0414207
-0.0375706
-1.55527
1.55142
0.0335071
-0.0284165
-1.24442
1.23933
0.0235025
-0.017609
-1.00214
0.996244
0.0121872
-0.0066953
-0.764237
0.758745
0.00244281
0.00100951
-0.490904
0.487452
-0.00270605
0.00285565
-0.24281
0.24266
-0.00238172
0.00154868
-0.0825898
0.0834228
-0.00082853
0.000150415
-0.0042212
0.00489931
0.000179784
-0.000261711
0.0172099
-0.017128
0.000144767
0.00631306
-0.00645783
-0.078017
0.0771347
0.000882286
-0.00264646
0.00225342
-0.438782
0.439175
-0.00127148
-0.000650236
-0.620747
0.622668
0.0035493
-0.00688396
-0.762031
0.765366
0.0107286
-0.0147038
-0.887655
0.89163
0.0187585
-0.0227433
-1.01526
1.01924
0.0271454
-0.0306369
-1.15585
1.15934
0.0347773
-0.0380005
-1.30851
1.31173
0.0408184
-0.0427901
-1.47291
1.47488
0.0437559
-0.0429091
-1.64849
1.64764
0.0406446
-0.0370136
-1.54756
1.54393
0.0330359
-0.0278052
-1.23387
1.22864
0.022688
-0.0168959
-0.98982
0.984028
0.0110009
-0.0054454
-0.751049
0.745493
0.00123227
0.00209141
-0.481818
0.478495
-0.00371409
0.00410109
-0.240308
0.239921
-0.00366886
0.00284221
-0.0832949
0.0841215
-0.00198147
0.00107137
-0.00522926
0.00613935
-0.000456867
6.44966e-05
0.0169368
-0.0165445
3.95675e-05
0.00643676
-0.00647633
-0.0784119
0.0777063
0.000705658
-0.00167966
0.00133438
-0.441875
0.44222
0.000143274
-0.00189231
-0.626344
0.628093
0.00493387
-0.00810249
-0.768621
0.77179
0.0117506
-0.0152689
-0.895256
0.898775
0.0193899
-0.0229876
-1.02318
1.02678
0.0272501
-0.0310987
-1.16324
1.16709
0.0347483
-0.0381713
-1.31493
1.31835
0.0412429
-0.0431025
-1.47664
1.4785
0.0441689
-0.0437884
-1.64688
1.6465
0.0416201
-0.0382199
-1.53999
1.53659
0.0341073
-0.0289862
-1.22327
1.21814
0.023998
-0.0180717
-0.977481
0.971555
0.0123177
-0.00651629
-0.738061
0.73226
0.00211244
0.00140141
-0.472747
0.469233
-0.00325079
0.00399304
-0.237666
0.236924
-0.00398117
0.00337833
-0.0840063
0.0846092
-0.00259582
0.00164633
-0.00667465
0.00762414
-0.000905214
0.000318946
0.016076
-0.0154897
-5.27997e-05
0.00635999
-0.00630719
-0.079111
0.0785849
0.000526045
-0.000598712
7.76287e-05
-0.445087
0.445608
0.00124696
-0.0032889
-0.631487
0.633528
0.00624376
-0.00923206
-0.774894
0.777882
0.0129402
-0.016274
-0.902257
0.905591
0.0201877
-0.0238584
-1.03082
1.03449
0.0279624
-0.0317034
-1.17074
1.17448
0.0354864
-0.0388374
-1.32162
1.32497
0.041959
-0.0444257
-1.48056
1.48303
0.0457242
-0.0453965
-1.64593
1.6456
0.0436379
-0.0402561
-1.53293
1.52954
0.0364476
-0.0316396
-1.21283
1.20802
0.0265207
-0.0206596
-0.965121
0.959259
0.0149626
-0.00895557
-0.725113
0.719106
0.0043531
-0.000436389
-0.46364
0.459723
-0.00175042
0.00300575
-0.23439
0.233135
-0.00335462
0.00310663
-0.0842107
0.0844587
-0.00257909
0.00178254
-0.00814
0.00893655
-0.00107662
0.000444466
0.0148941
-0.0142619
-9.9623e-05
0.00612366
-0.00602404
-0.0800561
0.079658
0.000398101
0.00027877
-0.000918612
-0.448454
0.449094