/*--------------------------------*- C++ -*----------------------------------*\
  =========                 |
  \\      /  F ield         | OpenFOAM: The Open Source CFD Toolbox
   \\    /   O peration     | Website:  https://openfoam.org
    \\  /    A nd           | Version:  6
     \\/     M anipulation  |
\*---------------------------------------------------------------------------*/
FoamFile
{
    version     2.0;
    format      ascii;
    class       volVectorField;
    location    "81";
    object      U;
}
// * * * * * * * * * * * * * * * * * * * * * * * * * * * * * * * * * * * * * //

dimensions      [0 1 -1 0 0 0 0];

internalField   nonuniform List<vector> 
8800
(
(0.987184 -0.0766656 0)
(1.00189 -0.0551905 0)
(0.999724 -0.0285486 0)
(1.00003 -0.0151433 0)
(1.0001 -0.00854397 0)
(1.00012 -0.00504532 0)
(1.00008 -0.00299964 0)
(1.00003 -0.00169946 0)
(0.999995 -0.00079354 0)
(1.00006 -7.81958e-05 0)
(0.999963 0.000653639 0)
(0.999984 0.00142264 0)
(1.00004 0.00243766 0)
(1.00006 0.00400338 0)
(1.00005 0.00663536 0)
(1.00003 0.0113738 0)
(0.99993 0.0208164 0)
(0.999163 0.0386715 0)
(1.0071 0.0724576 0)
(0.771214 0.0366615 0)
(0.363073 -0.016017 0)
(1.04331 -0.0768147 0)
(1.0846 -0.0704451 0)
(1.04519 -0.05354 0)
(1.02329 -0.038891 0)
(1.01202 -0.0262124 0)
(1.00643 -0.0168502 0)
(1.00359 -0.0103175 0)
(1.00215 -0.00565616 0)
(1.00144 -0.00199605 0)
(1.00129 0.00132633 0)
(1.00165 0.0047127 0)
(1.00266 0.00864564 0)
(1.00467 0.0139694 0)
(1.0086 0.0216751 0)
(1.01656 0.0326426 0)
(1.03249 0.0465546 0)
(1.06266 0.0616705 0)
(1.09187 0.0761031 0)
(0.838667 0.056563 0)
(0.216855 -0.00242938 0)
(1.07591 -0.0501315 0)
(1.09988 -0.0483042 0)
(1.06464 -0.0404549 0)
(1.04004 -0.033594 0)
(1.02392 -0.0260692 0)
(1.01412 -0.0184825 0)
(1.00856 -0.0116582 0)
(1.00558 -0.00578514 0)
(1.00431 -0.00036299 0)
(1.00464 0.00488575 0)
(1.00658 0.0102795 0)
(1.01062 0.0163594 0)
(1.01794 0.0233737 0)
(1.03052 0.0308375 0)
(1.05061 0.0378643 0)
(1.08035 0.0445454 0)
(1.10626 0.051357 0)
(0.942509 0.0416234 0)
(0.216133 0.00246234 0)
(0.175189 -0.00081598 0)
(1.01772 -0.0354774 0)
(1.10521 -0.0413679 0)
(1.07827 -0.0360482 0)
(1.05347 -0.0301089 0)
(1.03621 -0.0245274 0)
(1.02401 -0.0187926 0)
(1.01588 -0.0127055 0)
(1.01101 -0.00650968 0)
(1.00879 -0.000167696 0)
(1.00935 0.00609184 0)
(1.01262 0.0120929 0)
(1.01887 0.0179112 0)
(1.02876 0.0234719 0)
(1.04318 0.0287694 0)
(1.0637 0.0342471 0)
(1.09355 0.0402273 0)
(1.09339 0.0419831 0)
(0.827089 0.0229235 0)
(0.173972 0.000854011 0)
(0.153999 -0.000609756 0)
(0.956239 -0.0254473 0)
(1.10348 -0.0351085 0)
(1.08769 -0.0326254 0)
(1.06174 -0.0279654 0)
(1.04413 -0.0229332 0)
(1.03166 -0.017677 0)
(1.0228 -0.012135 0)
(1.01697 -0.00618798 0)
(1.0141 0.000290488 0)
(1.01475 0.00675726 0)
(1.01874 0.0126424 0)
(1.0258 0.0179148 0)
(1.03608 0.0228154 0)
(1.05062 0.02757 0)
(1.07186 0.0320931 0)
(1.10005 0.0360204 0)
(1.06803 0.0340669 0)
(0.739413 0.014329 0)
(0.152163 0.000652935 0)
(0.139642 -0.000465822 0)
(0.899388 -0.0190599 0)
(1.09584 -0.0300479 0)
(1.09578 -0.0291461 0)
(1.06928 -0.0254042 0)
(1.05085 -0.0212532 0)
(1.03791 -0.0164673 0)
(1.02879 -0.0111663 0)
(1.02265 -0.00540789 0)
(1.01949 0.000930968 0)
(1.02008 0.00724848 0)
(1.02418 0.0128853 0)
(1.03136 0.017823 0)
(1.04185 0.0222677 0)
(1.05696 0.0262276 0)
(1.07915 0.0296789 0)
(1.10223 0.0322939 0)
(1.03586 0.0281716 0)
(0.67275 0.0102328 0)
(0.137048 0.000515617 0)
(0.129122 -0.000360209 0)
(0.849873 -0.0146909 0)
(1.0835 -0.0259015 0)
(1.10148 -0.0261768 0)
(1.07616 -0.0228768 0)
(1.05719 -0.0192175 0)
(1.0438 -0.0149545 0)
(1.03431 -0.0100114 0)
(1.02793 -0.00445877 0)
(1.02457 0.00170567 0)
(1.025 0.00781271 0)
(1.02905 0.013171 0)
(1.03634 0.0176901 0)
(1.0471 0.0215267 0)
(1.06261 0.0248206 0)
(1.08523 0.027749 0)
(1.10128 0.0294886 0)
(1.00084 0.0236766 0)
(0.620782 0.00787622 0)
(0.125603 0.000418779 0)
(0.121107 -0.000279262 0)
(0.807836 -0.0115251 0)
(1.06829 -0.0222745 0)
(1.10505 -0.0235156 0)
(1.08244 -0.0206241 0)
(1.06306 -0.0171751 0)
(1.04939 -0.0132141 0)
(1.03962 -0.00860327 0)
(1.03294 -0.00331732 0)
(1.02932 0.00263316 0)
(1.02956 0.00849485 0)
(1.03356 0.0135065 0)
(1.0409 0.0175462 0)
(1.05175 0.020872 0)
(1.06747 0.0237526 0)
(1.09043 0.026377 0)
(1.09743 0.0272139 0)
(0.965402 0.0201615 0)
(0.578948 0.00635099 0)
(0.116464 0.000348905 0)
(0.11491 -0.000215716 0)
(0.772504 -0.00915308 0)
(1.05163 -0.0190758 0)
(1.10749 -0.021046 0)
(1.08835 -0.0185192 0)
(1.06858 -0.0152092 0)
(1.05467 -0.0114047 0)
(1.0447 -0.00699759 0)
(1.03777 -0.00194556 0)
(1.03385 0.00375619 0)
(1.03385 0.00931949 0)
(1.03772 0.0139558 0)
(1.04499 0.0175677 0)
(1.05581 0.0205021 0)
(1.07173 0.0230562 0)
(1.09433 0.0253311 0)
(1.09071 0.0253451 0)
(0.930852 0.0174619 0)
(0.544226 0.00531503 0)
(0.1089 0.000298987 0)
(0.110097 -0.000164443 0)
(0.742939 -0.00730771 0)
(1.03458 -0.0162342 0)
(1.109 -0.0187109 0)
(1.09398 -0.0164832 0)
(1.07393 -0.0132587 0)
(1.05974 -0.00953584 0)
(1.04958 -0.0052416 0)
(1.04241 -0.000355435 0)
(1.03819 0.00511199 0)
(1.03787 0.0103655 0)
(1.0415 0.0146419 0)
(1.04861 0.0178728 0)
(1.05938 0.0204589 0)
(1.07549 0.0227187 0)
(1.09693 0.0246079 0)
(1.0815 0.0238379 0)
(0.897731 0.0154289 0)
(0.51455 0.00459943 0)
(0.102428 0.000264349 0)
(0.106387 -0.000121659 0)
(0.718328 -0.00581468 0)
(1.01797 -0.0136775 0)
(1.10971 -0.0164462 0)
(1.09953 -0.014482 0)
(1.07922 -0.0112606 0)
(1.06473 -0.00755844 0)
(1.05433 -0.00331635 0)
(1.0469 0.00146561 0)
(1.04233 0.00674111 0)
(1.04162 0.0117073 0)
(1.04492 0.0156457 0)
(1.05183 0.0185095 0)
(1.06252 0.0207591 0)
(1.07879 0.0227483 0)
(1.09816 0.0242212 0)
(1.07017 0.0226951 0)
(0.866138 0.0139476 0)
(0.488457 0.00411444 0)
(0.0967023 0.000241983 0)
(0.103593 -8.43742e-05 0)
(0.698035 -0.00455748 0)
(1.00243 -0.0113377 0)
(1.10978 -0.0142151 0)
(1.10494 -0.0124291 0)
(1.08452 -0.00916259 0)
(1.06972 -0.00542195 0)
(1.05904 -0.00117001 0)
(1.05128 0.00356486 0)
(1.04628 0.00869912 0)
(1.04509 0.0134148 0)
(1.04801 0.017038 0)
(1.05466 0.0195444 0)
(1.06524 0.0214605 0)
(1.08164 0.02318 0)
(1.09832 0.0242799 0)
(1.05697 0.0219275 0)
(0.835881 0.0129303 0)
(0.464839 0.0038047 0)
(0.091461 0.000229475 0)
(0.101598 -4.9872e-05 0)
(0.681598 -0.00344875 0)
(0.988413 -0.00914316 0)
(1.10943 -0.0119284 0)
(1.1102 -0.0102404 0)
(1.08992 -0.00690024 0)
(1.07477 -0.00305716 0)
(1.06377 0.00127133 0)
(1.05561 0.00602248 0)
(1.05008 0.0110668 0)
(1.04831 0.0155586 0)
(1.05076 0.0188751 0)
(1.05711 0.0210207 0)
(1.06755 0.0226037 0)
(1.08397 0.0240403 0)
(1.09751 0.0247135 0)
(1.04201 0.021548 0)
(0.8066 0.0123067 0)
(0.442817 0.00363313 0)
(0.0864961 0.000224817 0)
(0.100343 -1.58862e-05 0)
(0.668724 -0.00241911 0)
(0.976288 -0.00701871 0)
(1.10898 -0.00952866 0)
(1.11545 -0.007855 0)
(1.09551 -0.0043969 0)
(1.07997 -0.000388039 0)
(1.06858 0.00408586 0)
(1.05993 0.00892098 0)
(1.05377 0.0139312 0)
(1.0513 0.0182337 0)
(1.05319 0.0212553 0)
(1.05917 0.0230299 0)
(1.06944 0.0242681 0)
(1.08583 0.0254146 0)
(1.09545 0.0255866 0)
(1.02535 0.0215554 0)
(0.777833 0.0120244 0)
(0.421676 0.0035742 0)
(0.0816416 0.000226575 0)
(0.0998174 2.03602e-05 0)
(0.65927 -0.00141347 0)
(0.966373 -0.00489116 0)
(1.10877 -0.00695524 0)
(1.12083 -0.00520253 0)
(1.10138 -0.00156942 0)
(1.08542 0.00267887 0)
(1.07355 0.0073731 0)
(1.06431 0.012361 0)
(1.05738 0.017394 0)
(1.05407 0.021536 0)
(1.05529 0.0242665 0)
(1.06083 0.0256689 0)
(1.07088 0.0265438 0)
(1.08716 0.0273645 0)
(1.09201 0.0269629 0)
(1.00688 0.0219901 0)
(0.749063 0.0120602 0)
(0.400805 0.0036149 0)
(0.076759 0.000234173 0)
(0.100039 5.22336e-05 0)
(0.653221 -0.000376708 0)
(0.958975 -0.00268527 0)
(1.10914 -0.00413753 0)
(1.1265 -0.00219207 0)
(1.10762 0.00169279 0)
(1.09119 0.00626003 0)
(1.07877 0.0112548 0)
(1.06882 0.0164749 0)
(1.06095 0.0215868 0)
(1.05662 0.0255904 0)
(1.05704 0.0280309 0)
(1.06207 0.0290591 0)
(1.07184 0.0295442 0)
(1.08766 0.0299871 0)
(1.08689 0.0288853 0)
(0.986417 0.022886 0)
(0.719703 0.0123982 0)
(0.379646 0.00374572 0)
(0.0717232 0.000246768 0)
(0.101087 0.00010383 0)
(0.650701 0.000735012 0)
(0.954413 -0.000322826 0)
(1.11048 -0.000997565 0)
(1.13267 0.00127024 0)
(1.11436 0.00549743 0)
(1.09742 0.0104737 0)
(1.08433 0.0158635 0)
(1.0735 0.0214003 0)
(1.06451 0.0266606 0)
(1.05897 0.0305578 0)
(1.05842 0.0326914 0)
(1.06284 0.0333309 0)
(1.07228 0.0334038 0)
(1.08721 0.0334207 0)
(1.07986 0.0314561 0)
(0.963599 0.0242833 0)
(0.689106 0.0130288 0)
(0.357671 0.0039585 0)
(0.0664246 0.000263526 0)
(0.103109 0.000157694 0)
(0.651992 0.00186647 0)
(0.953047 0.00227679 0)
(1.11323 0.00257038 0)
(1.13955 0.00529819 0)
(1.12174 0.00999525 0)
(1.10421 0.0154935 0)
(1.09033 0.0213844 0)
(1.07844 0.0273293 0)
(1.06809 0.0327919 0)
(1.0611 0.0365934 0)
(1.05942 0.0383815 0)
(1.0631 0.038628 0)
(1.07212 0.0382548 0)
(1.08554 0.0377534 0)
(1.07059 0.0347688 0)
(0.937953 0.0262204 0)
(0.65657 0.0139451 0)
(0.334387 0.00424435 0)
(0.0607697 0.00028343 0)
(0.106199 0.000221859 0)
(0.657618 0.00333667 0)
(0.955296 0.00520741 0)
(1.11786 0.00671238 0)
(1.1474 0.0100497 0)
(1.12996 0.0153717 0)
(1.11174 0.0215188 0)
(1.09687 0.0280313 0)
(1.08369 0.0344808 0)
(1.07169 0.0401959 0)
(1.06299 0.04389 0)
(1.06001 0.0453116 0)
(1.06279 0.0451277 0)
(1.07132 0.0442584 0)
(1.08262 0.0432172 0)
(1.05864 0.0389377 0)
(0.908836 0.0287401 0)
(0.621337 0.0151336 0)
(0.309334 0.00459078 0)
(0.0546855 0.00030499 0)
(0.110645 0.000307669 0)
(0.667954 0.0050562 0)
(0.961709 0.008703 0)
(1.12489 0.0115812 0)
(1.15651 0.0157203 0)
(1.13923 0.0218512 0)
(1.12017 0.028801 0)
(1.1041 0.0360725 0)
(1.08932 0.043122 0)
(1.07534 0.0491323 0)
(1.06462 0.0526901 0)
(1.06008 0.0536849 0)
(1.06187 0.0530252 0)
(1.06979 0.0516012 0)
(1.07839 0.0498968 0)
(1.04344 0.0440679 0)
(0.875434 0.0318522 0)
(0.582598 0.0165588 0)
(0.282106 0.00497556 0)
(0.0481296 0.000325871 0)
(0.116798 0.000421748 0)
(0.683808 0.00720413 0)
(0.972946 0.012926 0)
(1.13488 0.0174095 0)
(1.16724 0.0225802 0)
(1.14983 0.0297771 0)
(1.1297 0.0377113 0)
(1.11211 0.0458806 0)
(1.09536 0.0536034 0)
(1.07899 0.0598874 0)
(1.0659 0.0632164 0)
(1.0595 0.063681 0)
(1.06025 0.0625156 0)
(1.06756 0.060478 0)
(1.07258 0.0579704 0)
(1.0242 0.0502448 0)
(0.836757 0.0355339 0)
(0.539548 0.0181546 0)
(0.252416 0.00536467 0)
(0.0411074 0.000343006 0)
(0.125185 0.000582821 0)
(0.706126 0.0100099 0)
(0.98986 0.0181802 0)
(1.1485 0.0245404 0)
(1.18011 0.0310186 0)
(1.16208 0.0395959 0)
(1.14055 0.0487154 0)
(1.12101 0.0579142 0)
(1.10179 0.0663324 0)
(1.08255 0.0728026 0)
(1.06674 0.0757479 0)
(1.05826 0.0755338 0)
(1.05787 0.0737837 0)
(1.06445 0.0710257 0)
(1.06468 0.0674799 0)
(0.99989 0.0574914 0)
(0.791635 0.0396791 0)
(0.491453 0.0197954 0)
(0.220168 0.0057065 0)
(0.03369 0.00035239 0)
(0.136547 0.000813043 0)
(0.736235 0.0138639 0)
(1.01362 0.0249385 0)
(1.16653 0.033523 0)
(1.19574 0.0416319 0)
(1.17637 0.0519752 0)
(1.1529 0.0624878 0)
(1.1308 0.0727883 0)
(1.10852 0.0818179 0)
(1.08587 0.088251 0)
(1.06698 0.0905409 0)
(1.05627 0.0894654 0)
(1.05471 0.0870816 0)
(1.06007 0.0834402 0)
(1.0539 0.0786339 0)
(0.969172 0.0657289 0)
(0.7388 0.0440677 0)
(0.437819 0.0212882 0)
(0.185579 0.00593309 0)
(0.0260361 0.000349567 0)
(0.152179 0.00117868 0)
(0.776151 0.0193855 0)
(1.04588 0.0339891 0)
(1.18994 0.0453036 0)
(1.21499 0.0557068 0)
(1.19303 0.068001 0)
(1.16682 0.0800286 0)
(1.14134 0.0913192 0)
(1.11527 0.100639 0)
(1.08868 0.106583 0)
(1.06641 0.107802 0)
(1.05336 0.105613 0)
(1.05066 0.102498 0)
(1.05423 0.0980729 0)
(1.03926 0.091405 0)
(0.930302 0.0747029 0)
(0.677031 0.0483004 0)
(0.378643 0.0223581 0)
(0.14931 0.00596544 0)
(0.0184013 0.000330432 0)
(0.174294 0.00180929 0)
(0.829111 0.0277255 0)
(1.0894 0.0468928 0)
(1.21986 0.0617568 0)
(1.23834 0.0750561 0)
(1.21217 0.0893046 0)
(1.18204 0.102664 0)
(1.15218 0.114455 0)
(1.12157 0.123398 0)
(1.09059 0.128151 0)
(1.06476 0.127722 0)
(1.04936 0.124075 0)
(1.04555 0.120033 0)
(1.0469 0.114615 0)
(1.01927 0.105598 0)
(0.881131 0.0838561 0)
(0.605557 0.0517867 0)
(0.314842 0.0226813 0)
(0.112611 0.00573017 0)
(0.0111415 0.000291525 0)
(0.206305 0.00319858 0)
(0.900911 0.0415568 0)
(1.1475 0.0674944 0)
(1.25663 0.0864485 0)
(1.26558 0.102621 0)
(1.23313 0.118278 0)
(1.1977 0.132022 0)
(1.1625 0.143174 0)
(1.12676 0.150615 0)
(1.0911 0.153162 0)
(1.06172 0.150358 0)
(1.0441 0.144856 0)
(1.03926 0.139696 0)
(1.03735 0.133149 0)
(0.991788 0.120706 0)
(0.819185 0.0922309 0)
(0.524919 0.0537775 0)
(0.249007 0.0220319 0)
(0.0775321 0.00520398 0)
(0.00474872 0.000229622 0)
(0.249978 0.00951593 8.62359e-21)
(0.995448 0.0689453 7.41371e-21)
(1.2178 0.102478 -2.59859e-21)
(1.29722 0.123149 0)
(1.29377 0.142109 -6.72384e-35)
(1.25369 0.157324 9.8574e-22)
(1.21222 0.169637 -1.79342e-21)
(1.17121 0.178697 0)
(1.13005 0.183542 3.73424e-35)
(1.08949 0.183099 -2.26512e-21)
(1.0564 0.177488 0)
(1.03656 0.170079 -2.71975e-21)
(1.0312 0.16418 -8.04811e-21)
(1.02388 0.157025 -3.81758e-21)
(0.951659 0.138967 -1.15214e-21)
(0.737303 0.100509 -6.84971e-22)
(0.430185 0.0541933 0)
(0.180336 0.0207089 4.79521e-22)
(0.0442636 0.00456716 5.67881e-22)
(-0.000816607 0.000126602 1.03787e-20)
(0.280313 0.0249958 5.92638e-21)
(1.07384 0.112255 1.14458e-22)
(1.27577 0.15232 6.7457e-22)
(1.33391 0.172936 0)
(1.31862 0.192048 -3.34209e-21)
(1.2715 0.205164 -3.82334e-21)
(1.22408 0.215234 -1.79115e-21)
(1.17729 0.221916 -6.43584e-21)
(1.13061 0.224195 0)
(1.08492 0.220933 9.58082e-21)
(1.04788 0.212733 9.54763e-21)
(1.02563 0.203604 2.8425e-21)
(1.01763 0.196235 1.04367e-20)
(0.998539 0.186377 1.47545e-20)
(0.886315 0.159115 0)
(0.623878 0.107802 2.08298e-20)
(0.3193 0.0535632 2.98824e-20)
(0.110106 0.0184382 3.32511e-20)
(0.0119975 0.00276961 -3.81402e-20)
(-0.00605475 -0.000462909 -7.27592e-22)
(0.281902 0.0422526 0)
(1.12405 0.16823 9.27879e-22)
(1.31538 0.213259 0)
(1.36269 0.233552 -4.10427e-21)
(1.33832 0.249779 0)
(1.28528 0.258984 -7.37647e-21)
(1.23232 0.26532 3.62098e-21)
(1.18006 0.268456 -1.28173e-20)
(1.12819 0.267251 -3.24326e-22)
(1.07777 0.260462 4.91528e-21)
(1.0372 0.249202 2.09366e-20)
(1.01288 0.238059 -3.16948e-23)
(1.00191 0.228902 -7.56487e-21)
(0.970267 0.215297 -1.38114e-20)
(0.824925 0.177651 1.63847e-20)
(0.537891 0.113396 -2.90117e-20)
(0.250341 0.0525168 -3.82404e-21)
(0.070641 0.0159978 0)
(-0.00554141 0.00041755 -3.74198e-24)
(-0.00886496 -0.00121722 0)
(0.275258 0.0567191 9.70368e-21)
(1.15155 0.227904 -5.07245e-21)
(1.34021 0.278795 -4.34739e-21)
(1.38194 0.29945 1.86516e-21)
(1.35136 0.311801 -3.1506e-21)
(1.29392 0.31642 1.53177e-20)
(1.23644 0.318286 7.48535e-21)
(1.17952 0.317151 0)
(1.12309 0.311805 -2.43304e-20)
(1.06846 0.300911 0)
(1.0248 0.286157 -1.0906e-20)
(0.998662 0.272678 -1.35755e-20)
(0.984784 0.261299 -8.19812e-21)
(0.941923 0.242762 -9.99151e-21)
(0.773156 0.194889 0)
(0.478148 0.119429 0)
(0.208243 0.0530329 -2.47806e-20)
(0.0456823 0.013808 4.89333e-21)
(-0.0181387 -0.00239511 -2.8817e-21)
(-0.011255 -0.00214603 -3.41389e-21)
(0.267202 0.0693793 -1.87492e-21)
(1.16382 0.287438 0)
(1.35408 0.34528 7.79939e-21)
(1.39269 0.366721 4.96905e-21)
(1.35783 0.375179 7.4066e-21)
(1.29721 0.375197 0)
(1.23624 0.372448 7.1856e-21)
(1.17555 0.366794 1.40087e-20)
(1.11528 0.356973 1.23537e-20)
(1.05701 0.341615 2.29825e-20)
(1.01061 0.323004 0)
(0.982871 0.306812 -2.91176e-20)
(0.966266 0.292712 -1.75918e-20)
(0.914401 0.268845 -1.04141e-20)
(0.731387 0.211395 6.39104e-20)
(0.438243 0.126279 7.58841e-21)
(0.182622 0.0543293 3.5734e-20)
(0.0290135 0.0113681 -1.68976e-19)
(-0.0283328 -0.00581815 1.00084e-19)
(-0.013651 -0.00329029 -1.22167e-19)
(0.259302 0.0806885 1.62806e-21)
(1.16628 0.344879 2.57692e-22)
(1.35997 0.410809 -5.8204e-22)
(1.39661 0.433406 -4.2245e-21)
(1.3587 0.438182 -5.76781e-21)
(1.29571 0.433753 3.61138e-22)
(1.23203 0.426496 -7.78019e-21)
(1.16828 0.416352 1.43456e-20)
(1.10479 0.401985 -2.65017e-20)
(1.04334 0.382007 0)
(0.994487 0.359309 -1.31359e-20)
(0.965209 0.340112 -3.07797e-22)
(0.946161 0.323008 -1.92091e-20)
(0.887764 0.293578 0)
(0.698135 0.227311 -1.37959e-20)
(0.412219 0.133943 -3.27071e-20)
(0.167276 0.056117 8.7044e-20)
(0.0179165 0.00885275 -8.57256e-20)
(-0.0366433 -0.00968244 1.2188e-19)
(-0.0160368 -0.00463891 -1.28244e-19)
(0.252429 0.0910402 -1.10292e-22)
(1.16251 0.39951 6.75346e-22)
(1.36003 0.47434 -2.69506e-22)
(1.39519 0.498361 1.30578e-21)
(1.35504 0.499789 -2.81561e-21)
(1.29027 0.491157 0)
(1.22441 0.479604 -7.03848e-21)
(1.15812 0.465123 -1.49431e-20)
(1.09185 0.4463 -1.37015e-20)
(1.02756 0.421686 0)
(0.97644 0.394795 -1.35161e-20)
(0.94568 0.372329 -1.68402e-20)
(0.92449 0.351992 2.07708e-20)
(0.861723 0.316957 -1.2623e-20)
(0.671053 0.242879 -5.99077e-20)
(0.395282 0.142176 3.54845e-20)
(0.158727 0.0585644 1.05126e-20)
(0.0116779 0.00649168 0)
(-0.0424745 -0.0136204 -1.17326e-19)
(-0.0181391 -0.00610237 -4.35562e-21)
(0.246762 0.100778 9.39523e-22)
(1.15484 0.451155 -1.31715e-21)
(1.35578 0.535317 -1.49544e-22)
(1.38965 0.560894 5.16971e-21)
(1.34781 0.559358 -9.63196e-21)
(1.28168 0.546847 1.32658e-20)
(1.21407 0.531284 1.51504e-20)
(1.1456 0.512692 -2.3836e-20)
(1.07687 0.489574 8.57493e-21)
(1.00998 0.46042 -5.61758e-20)
(0.956693 0.429292 -1.53359e-20)
(0.924434 0.403456 0)
(0.901281 0.379676 2.25118e-20)
(0.835568 0.33933 2.6998e-20)
(0.647965 0.258318 3.2242e-20)
(0.383546 0.151129 -3.84565e-20)
(0.155217 0.0616101 -1.13772e-20)
(0.0097033 0.00481166 1.33696e-20)
(-0.0453471 -0.0170706 0)
(-0.0196493 -0.00751617 -9.43635e-21)
(0.242216 0.109995 -1.49443e-20)
(1.145 0.499884 8.08912e-21)
(1.3485 0.593613 5.28981e-22)
(1.38101 0.620662 2.5755e-21)
(1.33783 0.616504 -3.87609e-21)
(1.27069 0.600457 -8.38622e-22)
(1.20161 0.581227 -1.66275e-20)
(1.13126 0.558817 -8.64167e-21)
(1.0603 0.531614 -2.3809e-20)
(0.990967 0.498065 6.288e-23)
(0.935539 0.462753 -4.79045e-20)
(0.901727 0.433477 4.06918e-20)
(0.876706 0.406238 -2.47503e-20)
(0.809053 0.36078 2.97371e-20)
(0.626633 0.273708 0)
(0.374123 0.160635 -2.09093e-20)
(0.15402 0.065508 6.61901e-23)
(0.0107367 0.00426742 -5.82854e-20)
(-0.0454512 -0.0195354 -8.58883e-21)
(-0.0203086 -0.00868045 0)
(0.238737 0.11895 0)
(1.13402 0.545938 9.38731e-21)
(1.3391 0.649464 3.52737e-21)
(1.37008 0.677507 -1.7698e-21)
(1.32582 0.671023 -5.50624e-21)
(1.25788 0.651794 0)
(1.1876 0.629244 -7.28095e-21)
(1.11559 0.603335 -2.14159e-22)
(1.04256 0.572319 5.10612e-20)
(0.970862 0.534559 -7.69066e-21)
(0.913296 0.495163 -3.46416e-20)
(0.877857 0.462458 2.11363e-20)
(0.851001 0.431825 -4.40448e-22)
(0.782037 0.38148 3.17199e-20)
(0.605888 0.288636 1.9333e-20)
(0.365035 0.170423 -4.51072e-20)
(0.153478 0.0700609 5.33632e-20)
(0.0134551 0.00478018 1.58304e-20)
(-0.0434521 -0.0209802 6.54498e-20)
(-0.0202105 -0.00951873 -1.77048e-19)
(0.236233 0.12779 -5.09003e-21)
(1.12268 0.589496 6.70431e-21)
(1.32819 0.70239 -4.42724e-21)
(1.35754 0.731386 2.18424e-22)
(1.31236 0.722823 0)
(1.2438 0.700745 -5.46704e-21)
(1.1725 0.675227 2.48071e-20)
(1.099 0.646149 1.88761e-20)
(1.02403 0.611633 0)
(0.949985 0.569891 -1.11319e-19)
(0.890242 0.526532 9.3979e-20)
(0.853127 0.490448 0)
(0.824494 0.456447 2.90324e-20)
(0.754513 0.401327 -4.25574e-22)
(0.584561 0.303022 -6.23615e-20)
(0.355023 0.180053 2.4366e-20)
(0.152522 0.0749081 0)
(0.016735 0.00613072 8.56196e-20)
(-0.0400911 -0.0214519 0)
(-0.0194939 -0.0100096 -8.39823e-20)
(0.234594 0.136545 6.12676e-21)
(1.11143 0.630786 8.82427e-21)
(1.31624 0.752455 -4.35963e-21)
(1.3439 0.782321 0)
(1.29792 0.771899 -3.7966e-21)
(1.22888 0.747284 0)
(1.1567 0.719124 -2.40441e-20)
(1.08184 0.687211 -8.57256e-21)
(1.00502 0.649531 8.95445e-21)
(0.928648 0.604088 -5.51586e-20)
(0.86663 0.556895 9.6989e-21)
(0.827784 0.517466 0)
(0.797386 0.480068 -6.21996e-20)
(0.726453 0.420213 3.942e-22)
(0.562375 0.316434 0)
(0.343627 0.189022 1.17791e-22)
(0.150093 0.0796364 7.84212e-20)
(0.0195167 0.00800308 -7.4137e-20)
(-0.0362682 -0.0211532 2.19469e-20)
(-0.0183777 -0.0101767 0)
(0.233473 0.145164 0)
(1.10048 0.669995 1.07071e-20)
(1.30369 0.799775 6.5771e-21)
(1.3296 0.830387 -5.25032e-22)
(1.28291 0.818285 -5.50853e-22)
(1.21349 0.791421 -1.23472e-20)
(1.14054 0.760927 9.17491e-21)
(1.06444 0.726507 -1.03307e-20)
(0.98583 0.686003 4.0284e-20)
(0.907089 0.637178 -8.8505e-20)
(0.842672 0.586302 -8.91731e-22)
(0.802027 0.543501 -2.72086e-20)
(0.769894 0.502584 1.0122e-19)
(0.698034 0.437915 -4.97462e-22)
(0.539211 0.328586 -4.87403e-20)
(0.330452 0.196797 -8.62486e-20)
(0.145992 0.0838314 0)
(0.0212138 0.00989525 0)
(-0.0327051 -0.0204901 2.37424e-20)
(-0.0171123 -0.010138 -1.41062e-20)
(0.233009 0.15382 8.67763e-21)
(1.09007 0.707002 -2.43746e-20)
(1.29085 0.844449 -7.06055e-21)
(1.31496 0.875668 0)
(1.26762 0.862044 -3.08551e-22)
(1.1979 0.833192 -1.04945e-20)
(1.1243 0.800656 2.16555e-20)
(1.04705 0.764045 4.02198e-20)
(0.966702 0.721066 5.23534e-20)
(0.885534 0.669194 -7.24486e-20)
(0.818568 0.614821 -8.15292e-20)
(0.775976 0.568574 7.2971e-20)
(0.742109 0.523881 0)
(0.669309 0.454099 -2.23039e-20)
(0.514803 0.339143 -5.27063e-20)
(0.315821 0.202974 -6.21792e-20)
(0.140252 0.0869962 -7.3363e-20)
(0.0216407 0.011379 2.17229e-20)
(-0.029726 -0.0197744 -1.28038e-20)
(-0.0158695 -0.00999175 7.05597e-23)
(0.232778 0.162317 0)
(1.08039 0.742171 0)
(1.27794 0.886585 5.10647e-22)
(1.30021 0.918272 0)
(1.25231 0.903266 -9.2298e-22)
(1.18236 0.872661 6.43809e-21)
(1.10819 0.838346 0)
(1.02988 0.799844 4.69153e-21)
(0.947847 0.754737 8.74873e-20)
(0.864204 0.700187 -1.67109e-19)
(0.794476 0.642531 0)
(0.749729 0.592742 -4.72256e-20)
(0.714058 0.54386 -5.84922e-22)
(0.640319 0.468428 -4.08083e-22)
(0.489864 0.347581 5.67007e-20)
(0.300003 0.207225 2.93417e-23)
(0.13318 0.0888289 -1.58331e-19)
(0.0209987 0.0122191 4.67822e-20)
(-0.0273826 -0.0191782 1.38838e-20)
(-0.0147166 -0.00978623 0)
(0.232764 0.170613 -3.50278e-20)
(1.0712 0.775676 -1.65671e-20)
(1.26506 0.926255 -2.11712e-20)
(1.28556 0.958306 1.97455e-20)
(1.23717 0.942026 -4.7215e-21)
(1.16706 0.909895 0)
(1.0924 0.874046 1.28148e-20)
(1.01311 0.833935 -1.05945e-20)
(0.929448 0.787039 8.017e-22)
(0.843287 0.730205 1.23989e-20)
(0.770549 0.66953 1.06352e-19)
(0.723331 0.61611 -1.66014e-20)
(0.685657 0.56247 -6.29295e-20)
(0.610978 0.48058 -2.61122e-20)
(0.464509 0.353392 3.07232e-20)
(0.283492 0.209101 5.32652e-23)
(0.125431 0.0891343 4.27055e-20)
(0.0196655 0.0123665 -1.0082e-19)
(-0.0256048 -0.0187636 1.19649e-19)
(-0.0137073 -0.00957865 1.76619e-20)
(0.232757 0.178651 1.33376e-20)
(1.0625 0.807592 -9.35271e-21)
(1.25237 0.963588 1.30495e-21)
(1.27114 0.995898 1.2935e-20)
(1.22234 0.978436 2.39307e-21)
(1.15213 0.944968 -1.06686e-20)
(1.07708 0.90781 3.46311e-21)
(0.996884 0.866346 -4.41363e-20)
(0.911658 0.817978 -9.6827e-20)
(0.822935 0.759267 -1.00155e-19)
(0.746945 0.695922 0)
(0.696822 0.638832 -7.33877e-20)
(0.656763 0.579749 9.10693e-20)
(0.581066 0.490231 0)
(0.438908 0.355994 -6.60125e-20)
(0.266907 0.20806 3.91034e-20)
(0.117952 0.0876907 -4.60164e-20)
(0.0183764 0.0120231 -5.4335e-20)
(-0.0242167 -0.0183988 -9.6499e-20)
(-0.0129033 -0.0094002 -7.62112e-20)
(0.233098 0.186574 -1.51504e-20)
(1.05415 0.837914 1.00207e-20)
(1.23995 0.99865 2.25809e-20)
(1.25707 1.03112 1.91037e-20)
(1.20793 1.01259 -4.21401e-21)
(1.13768 0.977969 -4.89571e-21)
(1.0623 0.939691 1.18284e-20)
(0.981307 0.89712 -4.52402e-20)
(0.894582 0.847579 -5.75639e-20)
(0.803299 0.787403 1.05304e-19)
(0.723804 0.721799 2.35435e-19)
(0.670254 0.661095 0)
(0.627207 0.595853 0)
(0.55017 0.497196 -3.01421e-20)
(0.41283 0.354643 0)
(0.251177 0.202928 8.40737e-20)
(0.112685 0.0834275 9.89894e-20)
(0.0193997 0.010827 0)
(-0.0223336 -0.0181095 0)
(-0.0125327 -0.00942095 8.20314e-20)
(0.233167 0.194053 1.7282e-20)
(1.04617 0.866648 1.36678e-20)
(1.22788 1.03156 1.64503e-20)
(1.24343 1.06412 -1.86178e-20)
(1.19403 1.04461 -5.96172e-21)
(1.12378 1.00898 3.71653e-21)
(1.04817 0.969749 -1.61404e-20)
(0.966458 0.926284 -1.81095e-22)
(0.878321 0.875851 -1.05368e-21)
(0.784502 0.814619 -7.99386e-22)
(0.701286 0.747238 1.21706e-19)
(0.643708 0.683078 0)
(0.596855 0.611069 9.30705e-20)
(0.517719 0.501568 6.47177e-20)
(0.38543 0.348747 1.54701e-19)
(0.236051 0.191546 4.54351e-20)
(0.112105 0.0724742 -5.33088e-20)
(0.0289953 0.00377897 -3.14123e-20)
(-0.0123306 -0.0200155 0)
(-0.0110169 -0.00943037 8.83156e-20)
(0.233651 0.201569 -3.92151e-20)
(1.03854 0.893917 0)
(1.21615 1.06237 1.94977e-20)
(1.23025 1.09496 -1.58825e-20)
(1.18069 1.07457 8.63296e-21)
(1.11048 1.03807 -1.59611e-21)
(1.03473 0.998037 3.03499e-20)
(0.952391 0.953872 -3.73119e-21)
(0.862936 0.902802 0)
(0.766644 0.840888 -1.16939e-19)
(0.67955 0.772286 -2.65935e-19)
(0.617312 0.704965 1.09667e-20)
(0.565666 0.625754 1.29434e-19)
(0.483209 0.503845 0)
(0.355143 0.338484 1.04867e-19)
(0.218647 0.171709 0)
(0.113987 0.0455343 0)
(0.0548788 -0.0287379 -3.39639e-20)
(0.0374316 -0.0374066 0)
(0.0228168 0.00199937 2.37155e-20)
(0.233736 0.208542 -4.39188e-20)
(1.0312 0.91998 0)
(1.20476 1.09128 3.26539e-20)
(1.21748 1.1239 0)
(1.16788 1.10277 -5.42823e-21)
(1.09773 1.06555 0)
(1.02192 1.02487 1.29394e-21)
(0.939011 0.980217 6.28012e-21)
(0.848307 0.928789 7.31317e-21)
(0.749551 0.866578 -1.28749e-19)
(0.658401 0.797392 7.98929e-21)
(0.590742 0.727434 8.8893e-20)
(0.533076 0.640742 1.26836e-19)
(0.445516 0.504773 1.70553e-20)
(0.319639 0.325227 8.26107e-20)
(0.192654 0.143905 0)
(0.103128 -0.00179787 1.1244e-19)
(0.0603177 -0.0617144 -6.60275e-20)
(0.0281057 0.0465423 7.72164e-20)
(-0.0386257 0.458601 -9.17431e-20)
(0.233801 0.215364 3.64592e-20)
(1.02394 0.944693 5.49406e-20)
(1.19362 1.11862 0)
(1.20498 1.15139 1.01902e-21)
(1.1554 1.12976 1.64004e-20)
(1.08524 1.09209 -4.91646e-21)
(1.00941 1.05103 9.90819e-21)
(0.925894 1.00625 0)
(0.833884 0.954901 4.80208e-20)
(0.732522 0.892986 -6.67317e-21)
(0.636881 0.824032 0)
(0.562611 0.752135 0)
(0.496829 0.657232 1.14261e-19)
(0.401782 0.504649 -5.28409e-20)
(0.275446 0.310643 -8.42226e-20)
(0.152902 0.110961 0)
(0.0610752 0.0235935 5.72705e-20)
(0.00455927 0.458569 -6.64404e-20)
(0.0296477 1.93478 -3.7314e-20)
(0.0560254 2.82866 -4.5794e-20)
(0.233561 0.221659 -2.75245e-20)
(1.01682 0.96823 -7.07776e-20)
(1.18276 1.14438 1.95267e-20)
(1.19277 1.17728 1.58222e-20)
(1.14331 1.15537 0)
(1.07312 1.11742 -5.66109e-21)
(0.99743 1.07622 1.24924e-20)
(0.913245 1.03156 -3.00464e-21)
(0.819964 0.980629 7.23187e-21)
(0.71597 0.919521 1.2307e-19)
(0.615646 0.851588 1.3592e-19)
(0.53392 0.778982 1.00792e-19)
(0.457672 0.675592 1.15738e-19)
(0.353041 0.502902 -1.25253e-19)
(0.228063 0.298754 -1.28034e-19)
(0.10267 0.16956 0)
(0.0369487 0.898333 0)
(0.0837202 2.58792 3.18455e-20)
(0.0867899 3.2151 0)
(0.0884599 3.39045 8.30193e-20)
(0.23613 0.227571 0)
(1.01015 0.990984 0)
(1.17188 1.16844 0)
(1.18063 1.20146 4.82932e-21)
(1.13127 1.17934 1.51504e-20)
(1.06118 1.1414 -6.79785e-21)
(0.985902 1.10033 7.64942e-21)
(0.900997 1.05599 -2.90958e-21)
(0.806484 1.00579 5.97965e-20)
(0.699888 0.946021 -1.69187e-21)
(0.594794 0.879855 2.69639e-19)
(0.505039 0.808073 -1.17144e-20)
(0.415485 0.69683 1.41405e-20)
(0.301012 0.497937 1.8247e-20)
(0.169675 0.31669 -6.51794e-22)
(0.0855646 1.02157 3.50404e-22)
(0.119704 2.77019 -1.70225e-19)
(0.124306 3.30212 -6.41576e-20)
(0.115705 3.42344 3.38669e-20)
(0.105947 3.44306 -3.82656e-20)
(0.159469 0.173283 1.68809e-20)
(0.999274 1.0157 0)
(1.16075 1.19099 -4.02401e-20)
(1.16899 1.22436 -4.34804e-20)
(1.11974 1.20216 3.62483e-20)
(1.05011 1.16451 8.15159e-21)
(0.974624 1.12339 -7.37103e-21)
(0.88918 1.07961 3.09375e-20)
(0.793521 1.03048 -4.89771e-20)
(0.684502 0.972602 0)
(0.574632 0.908908 1.33291e-19)
(0.476507 0.839208 -8.28487e-20)
(0.373678 0.726345 0)
(0.240646 0.494574 1.77928e-20)
(0.123089 0.736249 4.20418e-20)
(0.134307 2.57705 -4.7422e-20)
(0.181316 3.32785 5.37874e-20)
(0.164902 3.43268 2.89385e-20)
(0.137357 3.45151 3.28292e-20)
(0.118685 3.4603 5.22715e-20)
(0.270717 0.265221 -3.25617e-20)
(0.981567 1.02572 0)
(1.14229 1.21686 4.35443e-20)
(1.15404 1.25556 4.80699e-20)
(1.10199 1.23583 -4.09878e-20)
(1.03176 1.19853 -1.30868e-20)
(0.955071 1.15896 3.98675e-21)
(0.869008 1.11648 2.46384e-21)
(0.771786 1.06959 4.62055e-20)
(0.659507 1.01586 1.06634e-19)
(0.543228 0.958424 7.47427e-21)
(0.432235 0.89145 7.41059e-20)
(0.294484 0.755601 1.34766e-20)
(0.200462 0.898244 -1.71757e-20)
(0.206502 2.45656 -3.8511e-20)
(0.257588 3.33106 3.78478e-20)
(0.240503 3.45682 -4.14569e-20)
(0.206732 3.47584 -2.38516e-20)
(0.173638 3.50042 -2.15253e-20)
(0.128836 3.49574 -3.12873e-21)
(0.260872 0.264092 0)
(0.978556 1.04854 1.26953e-20)
(1.13337 1.2405 -8.97913e-21)
(1.14277 1.27921 -5.74244e-21)
(1.09067 1.2592 -2.84183e-20)
(1.02042 1.22209 1.37097e-20)
(0.943385 1.18272 -9.29774e-22)
(0.857012 1.1411 2.16638e-21)
(0.759048 1.09573 -4.78856e-20)
(0.645048 1.04501 -2.73026e-21)
(0.525077 0.992486 -2.41466e-19)
(0.406891 0.927833 1.06399e-20)
(0.274924 0.8291 -1.27819e-20)
(0.236037 1.53733 -1.58087e-20)
(0.299488 3.14426 3.66832e-21)
(0.311854 3.45814 1.89278e-22)
(0.270787 3.50513 6.14214e-20)
(0.237201 3.52893 3.10393e-20)
(0.191743 3.54913 -9.88834e-21)
(0.142109 3.54601 -1.55108e-20)
(0.246913 0.262113 3.25264e-20)
(0.974625 1.07392 8.61047e-20)
(1.12411 1.26623 -2.56257e-20)
(1.13113 1.30448 -2.1593e-20)
(1.07889 1.28403 0)
(1.0087 1.24695 2.55239e-20)
(0.931599 1.20786 1.74965e-21)
(0.845174 1.16706 1.84385e-21)
(0.746785 1.12334 -5.38508e-21)
(0.63162 1.07593 -9.60126e-20)
(0.508931 1.02896 -1.11309e-19)
(0.384471 0.965563 -8.70369e-20)
(0.277529 0.977646 -9.62146e-20)
(0.302213 2.31777 9.9303e-20)
(0.38072 3.3862 8.3776e-20)
(0.351547 3.51384 0)
(0.303971 3.55123 0)
(0.267542 3.58513 -7.79761e-21)
(0.224103 3.63012 0)
(0.154845 3.61526 -1.19987e-20)
(0.237111 0.26404 -4.85498e-20)
(0.968771 1.10015 -7.29738e-20)
(1.11347 1.29319 0)
(1.11823 1.33059 1.2396e-21)
(1.06585 1.30953 -3.09577e-20)
(0.995902 1.2724 4.18441e-20)
(0.919059 1.23362 2.92609e-21)
(0.83281 1.19357 7.98781e-22)
(0.734258 1.15149 -3.2926e-20)
(0.618382 1.10744 4.71515e-21)
(0.493971 1.06615 0)
(0.364325 1.00725 0)
(0.299712 1.27601 -8.72659e-20)
(0.382257 2.97724 3.55242e-20)
(0.445969 3.4843 4.51321e-20)
(0.39238 3.54815 0)