/*--------------------------------*- C++ -*----------------------------------*\
  =========                 |
  \\      /  F ield         | OpenFOAM: The Open Source CFD Toolbox
   \\    /   O peration     | Website:  https://openfoam.org
    \\  /    A nd           | Version:  6
     \\/     M anipulation  |
\*---------------------------------------------------------------------------*/
FoamFile
{
    version     2.0;
    format      ascii;
    class       volScalarField;
    location    "117.5";
    object      p;
}
// * * * * * * * * * * * * * * * * * * * * * * * * * * * * * * * * * * * * * //

dimensions      [0 2 -2 0 0 0 0];

internalField   nonuniform List<scalar> 
8800
(
1.24075
1.19144
1.15347
1.12541
1.10525
1.09068
1.0801
1.07258
1.06772
1.06569
1.0671
1.07148
1.0783
1.08775
1.1005
1.11783
1.14172
1.17482
1.21776
1.27027
1.07523
1.08158
1.09073
1.09429
1.09168
1.08561
1.07868
1.07245
1.06768
1.06485
1.06466
1.06733
1.072
1.07816
1.08527
1.09232
1.09721
1.09709
1.09043
1.08153
1.04873
1.05497
1.05947
1.06335
1.06631
1.06727
1.0662
1.0641
1.06216
1.06136
1.06244
1.06494
1.06786
1.07015
1.07069
1.06892
1.06556
1.06156
1.05678
1.05307
1.0444
1.04717
1.04978
1.05195
1.0537
1.05528
1.0564
1.05679
1.05671
1.05686
1.05772
1.05891
1.05969
1.05957
1.05862
1.05729
1.05563
1.05334
1.05093
1.04937
1.03931
1.04073
1.04258
1.04467
1.0464
1.04771
1.04883
1.04985
1.0507
1.0515
1.05228
1.05279
1.05287
1.05254
1.0519
1.05081
1.04917
1.04729
1.04595
1.04514
1.03427
1.03517
1.03642
1.03806
1.03978
1.04133
1.04265
1.04381
1.04493
1.04602
1.04688
1.04735
1.04741
1.04709
1.04633
1.04517
1.04383
1.04258
1.04177
1.04125
1.02929
1.02995
1.03092
1.03225
1.03372
1.03527
1.03679
1.03821
1.03953
1.04083
1.04188
1.04246
1.04255
1.04217
1.04144
1.04054
1.03958
1.03869
1.03812
1.03774
1.02439
1.02489
1.02569
1.02685
1.02817
1.02963
1.03118
1.03278
1.03438
1.03594
1.03722
1.03794
1.03811
1.03786
1.03736
1.03672
1.03602
1.03539
1.03497
1.03467
1.01948
1.01989
1.02056
1.0216
1.02286
1.02427
1.02583
1.02755
1.02938
1.03125
1.03282
1.03376
1.03416
1.03416
1.03392
1.03352
1.03304
1.0326
1.0323
1.03205
1.0145
1.01483
1.01542
1.01639
1.01761
1.01902
1.02063
1.02247
1.02452
1.02674
1.02868
1.02997
1.03068
1.03099
1.03101
1.03085
1.03058
1.03032
1.0301
1.02989
1.00935
1.00963
1.01015
1.01108
1.0123
1.01375
1.01546
1.01746
1.01979
1.02239
1.0248
1.02654
1.02764
1.02828
1.02859
1.02869
1.02865
1.02853
1.02838
1.0282
1.00394
1.00417
1.00466
1.00558
1.00683
1.00837
1.01022
1.01245
1.01511
1.01821
1.02119
1.02346
1.02502
1.02605
1.02669
1.02705
1.02724
1.02727
1.02718
1.02702
0.998157
0.99835
0.998825
0.999767
1.0011
1.00276
1.00481
1.00734
1.01044
1.01414
1.01782
1.02072
1.02282
1.02429
1.02531
1.02599
1.02641
1.02658
1.02653
1.02638
0.991897
0.992063
0.992538
0.993529
0.994978
0.996829
0.999146
1.00206
1.00571
1.01014
1.01465
1.01832
1.02105
1.02306
1.02451
1.02554
1.02621
1.02651
1.02651
1.02637
0.985027
0.98517
0.98566
0.98673
0.988343
0.99044
0.993106
0.996513
1.00083
1.00616
1.01168
1.01625
1.01975
1.02237
1.02432
1.02576
1.02672
1.02717
1.0272
1.02706
0.977394
0.977514
0.978032
0.979209
0.981038
0.983453
0.986561
0.990578
0.995719
1.00215
1.00888
1.01453
1.01893
1.02228
1.02483
1.02674
1.02802
1.02862
1.02869
1.02854
0.96879
0.968893
0.969446
0.970768
0.972876
0.975692
0.979355
0.984129
0.990287
0.998045
1.00623
1.01317
1.01862
1.02283
1.0261
1.02856
1.03021
1.03096
1.03106
1.03091
0.95893
0.95903
0.959653
0.961156
0.963622
0.966945
0.971301
0.977015
0.984422
0.99379
1.00371
1.01217
1.01886
1.0241
1.02821
1.03131
1.03337
1.03428
1.03441
1.03424
0.947521
0.947599
0.948313
0.950068
0.952977
0.95694
0.96217
0.969058
0.978003
0.989322
1.00131
1.01155
1.0197
1.02613
1.03121
1.03507
1.03758
1.03865
1.03879
1.03861
0.934113
0.934179
0.935004
0.937075
0.940553
0.945339
0.951682
0.960048
0.970898
0.98458
0.999018
1.01133
1.02116
1.02896
1.03517
1.03988
1.04288
1.04409
1.04423
1.04404
0.918093
0.91815
0.91913
0.921628
0.925854
0.931714
0.939499
0.949751
0.962978
0.97952
0.996834
1.01154
1.02327
1.03264
1.04012
1.04577
1.04925
1.05057
1.0507
1.05048
0.898603
0.898656
0.899864
0.902962
0.908212
0.915522
0.925222
0.937924
0.954134
0.974132
0.994787
1.01219
1.02605
1.03717
1.04603
1.05269
1.0566
1.05797
1.05807
1.05783
0.874377
0.874436
0.876003
0.880006
0.886731
0.896079
0.90841
0.92435
0.944322
0.968458
0.992935
1.01332
1.0295
1.04252
1.05287
1.06051
1.06474
1.06607
1.06611
1.06586
0.843432
0.843523
0.845715
0.851194
0.860239
0.872601
0.888664
0.908923
0.933604
0.962621
0.991377
1.01499
1.03365
1.04864
1.06052
1.06902
1.07335
1.07453
1.07449
1.07423
0.802408
0.802641
0.80613
0.814344
0.827329
0.844402
0.865808
0.89176
0.922205
0.956835
0.990266
1.01728
1.03848
1.05549
1.06882
1.07788
1.08201
1.08293
1.08281
1.08256
0.744881
0.74609
0.753099
0.76705
0.786945
0.811333
0.840166
0.87332
0.910539
0.951391
0.989778
1.02028
1.04401
1.06293
1.0775
1.08667
1.09026
1.09085
1.09066
1.09043
0.661538
0.669747
0.685957
0.710454
0.740708
0.774899
0.812769
0.854151
0.898819
0.946381
0.99006
1.02431
1.05076
1.07167
1.08711
1.09589
1.09872
1.09898
1.09877
1.09858
0.572394
0.590519
0.616883
0.652728
0.69392
0.738019
0.784881
0.834527
0.886845
0.94155
0.991157
1.02979
1.05951
1.08257
1.09849
1.10608
1.10786
1.10786
1.10769
1.10758
0.495701
0.517896
0.552736
0.598281
0.649144
0.702585
0.758194
0.815931
0.875664
0.937126
0.992178
1.03472
1.06725
1.09195
1.10762
1.11378
1.11482
1.11475
1.11463
1.11456
0.432398
0.457089
0.497762
0.550261
0.60867
0.669874
0.733159
0.798266
0.864867
0.932599
0.992653
1.03871
1.07366
1.0995
1.11469
1.11984
1.12053
1.12044
1.12034
1.12028
0.379556
0.405794
0.450699
0.508584
0.57299
0.640529
0.710285
0.781819
0.85458
0.928027
0.992679
1.04198
1.07911
1.10587
1.12052
1.12488
1.12535
1.12526
1.12517
1.12512
0.334601
0.361761
0.409801
0.472031
0.541444
0.614343
0.689644
0.766789
0.845035
0.923662
0.992511
1.04478
1.0839
1.11138
1.12545
1.12918
1.12952
1.12942
1.12935
1.1293
0.29545
0.323213
0.373693
0.439517
0.513191
0.590744
0.670937
0.753095
0.836303
0.919649
0.992323
1.04728
1.08815
1.11617
1.12965
1.13292
1.13316
1.13305
1.13298
1.13294
0.260592
0.288808
0.341285
0.410165
0.487532
0.569173
0.653756
0.740488
0.828275
0.915993
0.992162
1.04953
1.09192
1.12033
1.13326
1.13616
1.13632
1.1362
1.13612
1.13608
0.228971
0.257574
0.311731
0.383283
0.463904
0.549182
0.637739
0.728688
0.820778
0.912615
0.992029
1.05154
1.09525
1.12389
1.1363
1.13892
1.139
1.13885
1.13877
1.13872
0.199733
0.228724
0.284381
0.358341
0.441859
0.530407
0.622588
0.717463
0.813638
0.909439
0.991932
1.05337
1.09814
1.12687
1.13876
1.14115
1.14117
1.141
1.1409
1.14085
0.172446
0.201769
0.258788
0.334913
0.421047
0.512563
0.608076
0.706624
0.806721
0.906428
0.991922
1.05509
1.10067
1.12926
1.14063
1.14282
1.1428
1.14261
1.1425
1.14244
0.146576
0.176306
0.234575
0.312682
0.401192
0.495416
0.594016
0.696023
0.799912
0.903536
0.992079
1.05684
1.10292
1.13112
1.14191
1.14393
1.14391
1.14372
1.14362
1.14354
0.121939
0.152069
0.211506
0.291422
0.38209
0.478799
0.580262
0.685537
0.793108
0.900721
0.992498
1.05882
1.10508
1.13255
1.14268
1.14457
1.14457
1.14443
1.14433
1.14425
0.0983344
0.128869
0.189396
0.270975
0.36361
0.46259
0.566704
0.675057
0.786208
0.897909
0.99324
1.06128
1.10742
1.13374
1.14306
1.14486
1.14495
1.14485
1.14477
1.14468
0.0756096
0.106597
0.168134
0.251241
0.345644
0.446701
0.553263
0.664509
0.779119
0.894993
0.994314
1.06449
1.11035
1.13496
1.14314
1.14488
1.14516
1.14511
1.145
1.14489
0.0536399
0.0851155
0.147664
0.232154
0.328148
0.431076
0.539888
0.653831
0.771761
0.89185
0.995651
1.06866
1.11442
1.13671
1.14301
1.1444
1.14503
1.14522
1.14514
1.14495
0.0325079
0.0644405
0.127945
0.213662
0.311083
0.415702
0.526546
0.642989
0.764072
0.888369
0.997104
1.07392
1.12026
1.13987
1.14316
1.1433
1.14412
1.14525
1.14574
1.14549
0.0121835
0.0445393
0.108936
0.195747
0.294439
0.400567
0.513243
0.631957
0.756007
0.884429
0.998476
1.0802
1.1284
1.14572
1.14525
1.14268
1.14299
1.14562
1.14795
1.14822
-0.0074333
0.0254076
0.0906074
0.178394
0.278228
0.38569
0.499996
0.620744
0.747534
0.879931
0.999519
1.08726
1.1391
1.15561
1.15171
1.14576
1.1447
1.14893
1.15421
1.15639
-0.026237
0.00703433
0.0729766
0.161627
0.26246
0.371106
0.486838
0.609378
0.738653
0.874801
0.999972
1.09469
1.15214
1.17002
1.16428
1.15546
1.15203
1.15514
1.16118
1.1642
-0.0443378
-0.0106259
0.0560119
0.145388
0.247072
0.356746
0.473689
0.597769
0.729247
0.868898
0.999571
1.10206
1.16712
1.18872
1.18314
1.17256
1.1653
1.15993
1.15409
1.15951
-0.061696
-0.0276456
0.0395576
0.129471
0.231764
0.342288
0.460149
0.585461
0.718826
0.861676
0.997795
1.10885
1.18404
1.21199
1.20803
1.19667
1.18333
1.16847
1.14586
1.15227
-0.0782127
-0.0440366
0.0237525
0.11405
0.216771
0.328001
0.446374
0.572708
0.707567
0.853164
0.994237
1.1136
1.20094
1.23775
1.23482
1.22055
1.20144
1.16891
1.11575
1.09514
-0.0938051
-0.0608668
0.0090128
0.0995581
0.202897
0.314372
0.432635
0.55977
0.695716
0.843449
0.988679
1.11518
1.21519
1.26287
1.25597
1.23505
1.20169
1.14231
1.08184
1.0458
-0.135749
-0.0775226
-0.00438713
0.0850124
0.189351
0.300374
0.419076
0.546492
0.683002
0.832041
0.980355
1.11213
1.22317
1.27996
1.27081
1.22478
1.15486
1.07846
1.00745
0.968297
-0.107928
-0.0885966
-0.0247546
0.065277
0.168304
0.279307
0.397643
0.525023
0.661715
0.811418
0.961805
1.09723
1.20633
1.27091
1.22545
1.08587
0.978646
0.90447
0.834734
0.852315
-0.137597
-0.105007
-0.0402499
0.0494014
0.152137
0.263115
0.381893
0.508998
0.645312
0.794429
0.944017
1.07765
1.17585
1.21172
1.12721
0.96105
0.835221
0.75057
0.66256
0.697602
-0.160078
-0.125195
-0.0587011
0.0310355
0.133774
0.24487
0.363751
0.490381
0.625846
0.773418
0.920249
1.04862
1.13449
1.13261
0.993705
0.817544
0.673851
0.570001
0.469366
0.490322
-0.181675
-0.145845
-0.0780481
0.0123298
0.115189
0.226268
0.344788
0.470702
0.604956
0.750266
0.892655
1.01138
1.07811
1.04208
0.85485
0.661613
0.490755
0.349212
0.219506
0.219828
-0.202795
-0.166689
-0.0980697
-0.00713548
0.0958761
0.206796
0.324755
0.44972
0.582329
0.724659
0.860998
0.968662
1.01305
0.922245
0.716777
0.506952
0.313214
0.154799
-0.0502719
-0.131751
-0.224129
-0.188212
-0.119171
-0.0278821
0.0752685
0.186025
0.303429
0.427316
0.55799
0.696743
0.82591
0.923302
0.937258
0.796079
0.589178
0.370594
0.173526
0.0111582
-0.109979
-0.219295
-0.246728
-0.210884
-0.141702
-0.0502947
0.0528271
0.163279
0.279976
0.402518
0.530759
0.665049
0.786261
0.868636
0.852989
0.675521
0.468844
0.257034
0.0769568
-0.0210292
-0.0463975
-0.0591073
-0.270755
-0.235001
-0.165786
-0.0744566
0.0284081
0.13833
0.254006
0.374787
0.499972
0.628754
0.740536
0.803203
0.763876
0.559312
0.355438
0.164436
0.0280993
-0.0101039
-0.0180379
-0.0184335
-0.296508
-0.260698
-0.191468
-0.100355
0.00205911
0.111158
0.22547
0.344029
0.465508
0.58783
0.68934
0.733617
0.654795
0.452031
0.255461
0.0894236
0.0133775
-0.000573217
-0.00142796
-0.00127951
-0.323987
-0.288012
-0.218776
-0.127998
-0.026251
0.0817503
0.194332
0.310196
0.42735
0.542336
0.632833
0.657881
0.540887
0.35417
0.169173
0.0378036
0.00916321
0.00852253
0.00800303
0.00841791
-0.35295
-0.31679
-0.247625
-0.157323
-0.0564565
0.0501366
0.160589
0.27328
0.385545
0.492413
0.571759
0.574991
0.44043
0.265252
0.102147
0.0264102
0.0118547
0.0137805
0.0140365
0.0144225
-0.382848
-0.34669
-0.277763
-0.188112
-0.0883872
0.0164536
0.124368
0.233381
0.340329
0.438683
0.50611
0.492142
0.348815
0.187375
0.0574967
0.0181777
0.0188382
0.0182984
0.0184745
0.0187539
-0.413238
-0.377187
-0.308712
-0.219961
-0.121706
-0.0189894
0.0859436
0.190776
0.292011
0.382169
0.43523
0.414576
0.267595
0.126462
0.0319522
0.0234945
0.0217319
0.0213401
0.0213647
0.021512
-0.443122
-0.407424
-0.339762
-0.252253
-0.155871
-0.0557208
0.0457795
0.145972
0.24104
0.323754
0.365157
0.336031
0.199021
0.0836573
0.0270146
0.0168212
0.0220596
0.0231438
0.0235148
0.0236811
-0.47097
-0.43615
-0.369889
-0.284114
-0.190113
-0.0930357
0.00455425
0.0997289
0.188254
0.26391
0.300356
0.256611
0.143718
0.0508474
0.0274449
0.0248223
0.0243776
0.0249637
0.0252394
0.0253959
-0.495438
-0.46188
-0.397721
-0.314355
-0.223379
-0.129991
-0.0368408
0.0529977
0.134957
0.203259
0.237125
0.189062
0.102524
0.0326455
0.0116597
0.0215541
0.025043
0.0262568
0.0266597
0.0268323
-0.513986
-0.482538
-0.421526
-0.341482
-0.254367
-0.165402
-0.0772829
0.00687293
0.0824766
0.143718
0.17448
0.136455
0.075879
0.0315859
0.0256066
0.0257485
0.0272061
0.0277028
0.0278644
0.0280056
-0.524668
-0.496101
-0.439277
-0.363782
-0.281567
-0.197888
-0.115442
-0.0373659
0.031941
0.0879162
0.117418
0.0922485
0.0598509
0.0356896
0.0342626
0.0299502
0.0281437
0.0277804
0.0276667
0.0277249
-0.524845
-0.500251
-0.448941
-0.379447
-0.30337
-0.225994
-0.149892
-0.0782124
-0.0153867
0.0363891
0.0695712
0.0513148
0.0435578
0.031317
0.02768
0.0263592
0.0253721
0.0249765
0.0248404
0.024859
-0.512094
-0.492272
-0.448394
-0.386777
-0.318343
-0.248359
-0.179309
-0.114144
-0.0577007
-0.0120767
0.0334153
0.0122149
0.0225629
0.0124273
0.0137385
0.0176495
0.0191737
0.0193982
0.0193733
0.0194145
-0.484634
-0.470242
-0.435934
-0.384618
-0.325471
-0.264014
-0.202668
-0.144072
-0.0932155
-0.0552855
-0.00768449
-0.00418292
0.00287514
-0.00676013
0.00161768
0.00776906
0.0113332
0.0119986
0.0118413
0.0118686
-0.445985
-0.436853
-0.412949
-0.373358
-0.324849
-0.272736
-0.219406
-0.167396
-0.121366
-0.0889935
-0.0577134
-0.0290595
0.000831356
0.000636391
-0.00515662
-0.000920722
-0.000215179
-0.000893349
-0.00148264
-0.00147422
-0.40319
-0.397981
-0.384336
-0.356135
-0.31861
-0.275408
-0.229654
-0.183737
-0.141593
-0.110414
-0.082747
-0.0544548
-0.017392
0.012191
0.028838
0.0144415
-0.0113999
-0.0251628
-0.0292722
-0.029944
-0.365833
-0.362629
-0.356095
-0.338191
-0.309579
-0.273839
-0.234434
-0.193111
-0.152894
-0.120142
-0.0946124
-0.0787057
-0.0755051
-0.0946132
-0.126917
-0.164308
-0.168804
-0.13046
-0.106888
-0.10814
-0.338888
-0.336986
-0.333717
-0.323165
-0.301326
-0.271113
-0.235664
-0.196505
-0.155975
-0.11921
-0.0918365
-0.0865249
-0.131989
-0.209347
-0.284779
-0.318958
-0.31983
-0.282602
-0.235348
-0.217604
-0.319134
-0.318468
-0.317387
-0.3122
-0.296272
-0.269675
-0.235362
-0.19583
-0.152283
-0.108561
-0.0778542
-0.0525898
-0.040971
-0.0589426
-0.104677
-0.115097
-0.0999409
-0.0749148
-0.0449506
-0.030165
-0.307488
-0.307268
-0.306676
-0.304369
-0.293629
-0.269209
-0.234504
-0.192708
-0.144416
-0.0908606
-0.0446796
0.0183259
0.0994385
0.17576
0.221119
0.25381
0.287352
0.320392
0.348317
0.362209
-0.299352
-0.299207
-0.298812
-0.29821
-0.291731
-0.269833
-0.234079
-0.188764
-0.134602
-0.0690145
-0.000869682
0.0866368
0.228859
0.406761
0.572881
0.70343
0.793424
0.850577
0.884785
0.899207
-0.293935
-0.293893
-0.293782
-0.293646
-0.289922
-0.271581
-0.234845
-0.185199
-0.124974
-0.0488517
0.0372081
0.13463
0.320097
0.579559
0.850371
1.08738
1.25626
1.35103
1.39283
1.40665
-0.289447
-0.28944
-0.28937
-0.289287
-0.28798
-0.273727
-0.236932
-0.183628
-0.118078
-0.0346381
0.0624053
0.165433
0.361972
0.654334
0.974655
1.26762
1.49022
1.61322
1.66039
1.67285
-0.285579
-0.285565
-0.28544
-0.285193
-0.285107
-0.275239
-0.240313
-0.185197
-0.115541
-0.0285908
0.0728186
0.177374
0.35592
0.634456
0.941355
1.226
1.4504
1.57686
1.62495
1.63667
-0.282602
-0.282591
-0.282525
-0.282472
-0.282874
-0.276058
-0.244856
-0.189361
-0.118125
-0.0310725
0.0678969
0.16541
0.312022
0.556413
0.816595
1.04989
1.23748
1.34725
1.38984
1.40019
-0.279612
-0.279666
-0.279828
-0.280146
-0.28039
-0.276854
-0.249657
-0.195853
-0.125496
-0.0410868
0.0503715
0.136595
0.248781
0.448039
0.658788
0.835168
0.974952
1.0594
1.0926
1.10048
-0.276487
-0.276574
-0.276697
-0.276827
-0.276999
-0.275845
-0.253558
-0.203295
-0.136246
-0.0573568
0.024881
0.0987575
0.180836
0.333324
0.497753
0.629348
0.730094
0.790675
0.814222
0.819199
-0.273475
-0.27359
-0.273759
-0.273982
-0.274391
-0.274005
-0.256284
-0.210618
-0.148908
-0.077256
-0.00457662
0.057744
0.117219
0.230267
0.354261
0.45086
0.523128
0.566009
0.582034
0.585034
-0.270384
-0.270533
-0.270767
-0.271152
-0.271815
-0.272121
-0.257771
-0.21714
-0.162224
-0.0983442
-0.034875
0.0171073
0.0603577
0.143451
0.235985
0.305891
0.357051
0.386522
0.396844
0.398368
-0.267395
-0.267513
-0.26757
-0.267523
-0.267616
-0.268094
-0.256858
-0.222737
-0.175203
-0.118443
-0.0635357
-0.0207172
0.0120828
0.0733751
0.141716
0.19172
0.227287
0.247639
0.254514
0.255242
-0.265677
-0.265641
-0.265186
-0.263751
-0.261406
-0.260505
-0.254447
-0.228101
-0.187071
-0.136372
-0.0899018
-0.0543189
-0.0291582
0.0173875
0.0680445
0.103488
0.128155
0.141644
0.145884
0.146074
-0.266517
-0.266383
-0.265776
-0.26403
-0.261075
-0.259278
-0.25556
-0.234814
-0.197221
-0.151874
-0.11319
-0.0831933
-0.0625317
-0.0273167
0.0108028
0.0365061
0.0540019
0.0633005
0.0661961
0.0660812
-0.269145
-0.269244
-0.269722
-0.271158
-0.273202
-0.273363
-0.268253
-0.244696
-0.206008
-0.165765
-0.133851
-0.106562
-0.0892197
-0.0614507
-0.0322788
-0.0128533
0.000516326
0.00756776
0.00969169
0.00941017
-0.269641
-0.270283
-0.27283
-0.280576
-0.29241
-0.29582
-0.285802
-0.253665
-0.213364
-0.179529
-0.15047
-0.124511
-0.110604
-0.0880724
-0.0635367
-0.0473172
-0.0362707
-0.0306332
-0.0289211
-0.0292761
-0.265202
-0.26598
-0.268939
-0.278085
-0.293862
-0.301523
-0.284915
-0.251594
-0.219008
-0.191039
-0.16108
-0.138037
-0.126633
-0.107124
-0.085819
-0.0710926
-0.060459
-0.0548432
-0.0532065
-0.0536624
-0.261187
-0.261617
-0.262094
-0.258631
-0.250354
-0.247631
-0.246107
-0.23659
-0.220275
-0.195386
-0.166577
-0.147298
-0.137892
-0.119148
-0.0989024
-0.0848843
-0.0748501
-0.0695913
-0.0680864
-0.0686047
-0.263708
-0.263343
-0.259648
-0.23937
-0.200095
-0.177064
-0.197012
-0.218372
-0.218382
-0.194524
-0.167779
-0.152721
-0.143368
-0.12553
-0.106481
-0.0926798
-0.0827426
-0.0775456
-0.0760446
-0.0766032
-0.278289
-0.276172
-0.271507
-0.255743
-0.227066
-0.207591
-0.221327
-0.23974
-0.227576
-0.194115
-0.16741
-0.15335
-0.143552
-0.125391
-0.107112
-0.0939845
-0.0846156
-0.0798637
-0.0785049
-0.0790485
-0.325974
-0.326438
-0.339542
-0.360785
-0.365957
-0.349566
-0.328389
-0.296335
-0.245938
-0.193965
-0.164503
-0.149054
-0.137681
-0.119651
-0.102103
-0.0892647
-0.0803607
-0.0759524
-0.0747336
-0.0752395
-0.406125
-0.415588
-0.444594
-0.475709
-0.485462
-0.467519
-0.424938
-0.345405
-0.255253
-0.188873
-0.156514
-0.138128
-0.1248
-0.107604
-0.0910808
-0.0783094
-0.0694124
-0.0649582
-0.0638323
-0.0643805
-0.448183
-0.460217
-0.48459
-0.506822
-0.51474
-0.496734
-0.444109
-0.341517
-0.239879
-0.172043
-0.137901
-0.117025
-0.105451
-0.0899021
-0.0738754
-0.0614195
-0.0527103
-0.048358
-0.0474555
-0.0481127
-0.397244
-0.407632
-0.427026
-0.444164
-0.451197
-0.435756
-0.380665
-0.27688
-0.192226
-0.137736
-0.104439
-0.0873145
-0.0804666
-0.0669119
-0.0523777
-0.0411757
-0.0333375
-0.0294127
-0.0289983
-0.029831
-0.248302
-0.259981
-0.279806
-0.29998
-0.309
-0.295953
-0.245661
-0.170247
-0.119164
-0.0829889
-0.0595933
-0.0515906
-0.0493576
-0.0384539
-0.028481
-0.0214912
-0.0153774
-0.0123931
-0.0126983
-0.0137108
-0.0036412
-0.00930428
-0.0301359
-0.0600327
-0.0730737
-0.0720844
-0.0624578
-0.0434413
-0.0327824
-0.0217359
-0.01506
-0.0119143
-0.00993135
-0.00912137
-0.00552272
-0.00619843
-0.00624883
-0.00635185
-0.00530537
-0.00452613
0.339905
0.519145
0.681862
0.818252
0.924748
1.00625
1.0729
1.12729
1.1405
1.13835
0.608787
0.722432
0.828464
0.91907
0.994167
1.05536
1.10339
1.13597
1.15369
1.17105
0.790655
0.865886
0.940202
1.00494
1.05969
1.10499
1.14087
1.16862
1.18961
1.20901
0.926177
0.979883
1.03376
1.08203
1.12366
1.1592
1.18924
1.21462
1.23418
1.25309
1.0368
1.07753
1.11772
1.15548
1.18935
1.21944
1.24588
1.26842
1.28601
1.3041
1.12971
1.1638
1.19727
1.22944
1.25921
1.28628
1.3103
1.33059
1.34603
1.36351
1.21537
1.24634
1.27753
1.30777
1.33596
1.36165
1.38424
1.4028
1.41646
1.43345
1.30062
1.33262
1.36439
1.39503
1.42332
1.44869
1.47047
1.48773
1.49992
1.51641
1.394
1.43018
1.46459
1.49669
1.52554
1.5506
1.57147
1.58756
1.59904
1.61514
1.50658
1.54726
1.584
1.61659
1.64481
1.66859
1.68805
1.7032
1.71499
1.73102
1.64791
1.68867
1.72375
1.75312
1.77816
1.79965
1.81805
1.83345
1.84651
1.86243
1.81906
1.85093
1.87785
1.90016
1.92018
1.93884
1.95652
1.97325
1.98813
2.00383
2.00502
2.02219
2.03924
2.05589
2.07196
2.08667
2.10055
2.115
2.13021
2.14751
2.18838
2.19826
2.21141
2.22237
2.23178
2.24142
2.252
2.26215
2.27143
2.29709
2.40612
2.40041
2.38746
2.37321
2.36689
2.37258
2.39071
2.41923
2.45299
2.48931
2.70896
2.57301
2.49348
2.4509
2.43356
2.43756
2.46497
2.52283
2.63048
2.80889
1.14444
1.13814
1.13041
1.1193
1.10574
1.09311
1.08273
1.07475
1.06907
1.0658
1.06553
1.06843
1.07372
1.08112
1.0907
1.10256
1.11613
1.12907
1.13807
1.14562
1.05349
1.05941
1.06749
1.07363
1.07671
1.07621
1.07315
1.06918
1.06564
1.06342
1.06337
1.0657
1.06952
1.07401
1.07815
1.08042
1.07936
1.07474
1.06769
1.05986
1.0467
1.04908
1.05235
1.05513
1.0576
1.05981
1.06101
1.0609
1.06001
1.05928
1.05958
1.06109
1.06294
1.06422
1.06419
1.06275
1.06062
1.05827
1.0553
1.05229
1.04187
1.04296
1.04488
1.04723
1.04912
1.05054
1.05179
1.05282
1.05348
1.05394
1.0546
1.05545
1.056
1.05595
1.05537
1.05448
1.05318
1.05123
1.04914
1.04766
1.03678
1.03741
1.03855
1.04032
1.04219
1.04381
1.0451
1.04621
1.04726
1.04826
1.04917
1.04981
1.05005
1.04992
1.04944
1.04852
1.04712
1.04554
1.04422
1.04342
1.03177
1.03221
1.03301
1.03433
1.03588
1.03747
1.039
1.04035
1.04159
1.04279
1.04389
1.04465
1.04495
1.0448
1.04422
1.04327
1.04216
1.04105
1.04017
1.03964
1.02684
1.02716
1.02779
1.02888
1.0302
1.03164
1.03317
1.03472
1.03621
1.03765
1.03898
1.0399
1.04028
1.04015
1.03964
1.03893
1.03814
1.03733
1.03669
1.0363
1.02194
1.0222
1.0227
1.02363
1.02484
1.0262
1.02769
1.0293
1.031
1.03272
1.03433
1.03547
1.03599
1.03604
1.03577
1.03532
1.03476
1.03418
1.03373
1.03343
1.01701
1.01721
1.01763
1.01846
1.0196
1.02092
1.02241
1.02409
1.02595
1.02795
1.0299
1.03135
1.03215
1.03248
1.03248
1.03227
1.03194
1.03156
1.03126
1.03102
1.01196
1.01212
1.01248
1.01325
1.01435
1.01566
1.01719
1.01897
1.02102
1.02333
1.02567
1.02754
1.02872
1.02939
1.02968
1.02974
1.02964
1.02946
1.02927
1.02908
1.00669
1.00682
1.00714
1.00786
1.00896
1.01031
1.01193
1.01386
1.01616
1.01883
1.02167
1.02405
1.02569
1.02674
1.02738
1.02772
1.02786
1.02786
1.02778
1.02763
1.00111
1.00121
1.0015
1.00221
1.00333
1.00477
1.00652
1.00867
1.01129
1.01442
1.01786
1.02087
1.02304
1.02455
1.02556
1.02622
1.02663
1.02682
1.02683
1.02671
0.9951
0.99518
0.99546
0.996178
0.997365
0.998926
1.00087
1.0033
1.00633
1.01003
1.0142
1.01796
1.02078
1.02282
1.02427
1.0253
1.026
1.02638
1.02647
1.02637
0.988552
0.988612
0.988887
0.989639
0.990928
0.992663
0.994862
0.997661
1.0012
1.00561
1.01068
1.01533
1.01891
1.02158
1.02354
1.025
1.02602
1.02661
1.02679
1.0267
0.981322
0.981359
0.981637
0.982446
0.983875
0.985841
0.988374
0.991637
0.995818
1.00109
1.00723
1.01297
1.01745
1.02087
1.02344
1.02538
1.02678
1.0276
1.02785
1.02778
0.973231
0.973249
0.973534
0.974422
0.976035
0.978297
0.981251
0.985096
0.99007
0.996399
1.00384
1.01086
1.01642
1.02071
1.02401
1.02654
1.02837
1.02943
1.02976
1.02969
0.964029
0.964035
0.964344
0.965337
0.96719
0.969827
0.973312
0.977882
0.983834
0.991452
1.00046
1.00902
1.01584
1.02117
1.02531
1.02854
1.03087
1.0322
1.03261
1.03254
0.953442
0.953422
0.953771
0.954915
0.957068
0.96018
0.964331
0.969807
0.97697
0.986163
0.997049
1.00742
1.01574
1.02229
1.02743
1.03147
1.03437
1.03598
1.03646
1.03639
0.941084
0.941043
0.941443
0.942778
0.945313
0.949032
0.95403
0.960648
0.969318
0.980438
0.993581
1.00609
1.01614
1.0241
1.03042
1.03539
1.03894
1.04084
1.04138
1.0413
0.926432
0.926368
0.926852
0.928441
0.931466
0.935974
0.942062
0.950138
0.9607
0.974185
0.990025
1.00503
1.01707
1.02665
1.03433
1.04034
1.04459
1.04677
1.04735
1.04725
0.908759
0.908672
0.909285
0.911232
0.914917
0.920472
0.928
0.937971
0.950936
0.967333
0.986378
1.00425
1.01856
1.02996
1.03913
1.04632
1.0513
1.05372
1.0543
1.05418
0.887017
0.886914
0.887739
0.890209
0.894824
0.901832
0.911322
0.923818
0.939875
0.959858
0.982676
1.00381
1.02063
1.03403
1.04484
1.05329
1.05895
1.06152
1.06206
1.0619
0.859617
0.859515
0.860699
0.863985
0.870022
0.879154
0.891442
0.907384
0.927442
0.951813
0.979002
1.00376
1.02329
1.03885
1.0514
1.06111
1.06732
1.0699
1.07034
1.07015
0.823977
0.823935
0.825773
0.830476
0.838907
0.851406
0.867832
0.888528
0.913722
0.943363
0.975509
1.00419
1.0266
1.0444
1.05872
1.06959
1.07608
1.07847
1.07876
1.07854
0.775511
0.775714
0.779008
0.786714
0.79963
0.817699
0.840303
0.867439
0.899031
0.934804
0.972413
1.00525
1.03059
1.05063
1.06666
1.07843
1.08479
1.08676
1.08688
1.08665
0.705616
0.707159
0.715223
0.729893
0.751136
0.778113
0.809455
0.844799
0.883939
0.926537
0.969942
1.00703
1.03531
1.05744
1.07494
1.08713
1.09286
1.09425
1.09422
1.09401
0.622024
0.624984
0.640746
0.666212
0.698914
0.736363
0.777122
0.821065
0.868112
0.918025
0.967905
1.01002
1.04195
1.06675
1.08564
1.09758
1.10239
1.10328
1.10321
1.10308
0.536106
0.543815
0.567568
0.603806
0.647542
0.695266
0.745434
0.797996
0.852949
0.910118
0.966392
1.01343
1.0489
1.07628
1.09641
1.10751
1.11088
1.11124
1.11114
1.11107
0.465436
0.475422
0.504211
0.548074
0.600434
0.656816
0.715435
0.776043
0.838487
0.902501
0.964709
1.01621
1.05477
1.08422
1.1048
1.11487
1.11739
1.11757
1.11749
1.11744
0.407254
0.418024
0.450666
0.500161
0.559018
0.62228
0.687941
0.755555
0.824731
0.895016
0.962677
1.01828
1.05964
1.09081
1.11161
1.12079
1.12274
1.12283
1.12277
1.12274
0.358268
0.369437
0.404752
0.458622
0.522744
0.591671
0.663224
0.736843
0.811943
0.887871
0.960511
1.01988
1.06383
1.09651
1.11737
1.12575
1.1273
1.12734
1.12729
1.12727
0.316073
0.327425
0.364726
0.422094
0.49059
0.564348
0.641001
0.719876
0.800247
0.881263
0.958441
1.02123
1.06753
1.10152
1.1223
1.12998
1.13126
1.13125
1.1312
1.13119
0.27895
0.29037
0.329223
0.389478
0.461686
0.539623
0.62078
0.704376
0.789543
0.875224
0.956557
1.02245
1.07084
1.10593
1.12655
1.13363
1.1347
1.13466
1.13461
1.13459
0.245646
0.257088
0.29716
0.359899
0.435328
0.516937
0.602112
0.690008
0.779609
0.869655
0.95485
1.02356
1.0738
1.10979
1.13017
1.13676
1.13767
1.13759
1.13752
1.1375
0.215126
0.226604
0.267752
0.332686
0.410971
0.495841
0.584634
0.676473
0.770228
0.864424
0.953283
1.02458
1.07642
1.11311
1.13321
1.13936
1.14014
1.14002
1.13993
1.1399
0.186804
0.198321
0.240422
0.307328
0.388168
0.475973
0.568058
0.66354
0.761212
0.859421
0.951841
1.02555
1.07876
1.11594
1.13563
1.1414
1.14207
1.14192
1.14181
1.14177
0.160179
0.171748
0.214729
0.28343
0.36658
0.457049
0.552152
0.651021
0.75242
0.854554
0.950545
1.02659
1.08091
1.11828
1.13745
1.14285
1.14345
1.14328
1.14317
1.14312
0.134849
0.146553
0.190351
0.260708
0.345961
0.438848
0.536734
0.638771
0.743722
0.849746
0.94942
1.02782
1.08305
1.12027
1.13872
1.14375
1.14431
1.14417
1.14407
1.14402
0.110657
0.122512
0.167083
0.238954
0.326124
0.421224
0.521669
0.626666
0.735013
0.844899
0.948461
1.02943
1.0854
1.12207
1.13957
1.14422
1.14478
1.1447
1.14463
1.14458
0.0873846
0.0994389
0.144748
0.21804
0.306949
0.404058
0.506856
0.614612
0.726201
0.83992
0.947619
1.03156
1.0883
1.12398
1.14013
1.14436
1.14502
1.14503
1.14496
1.1449
0.0650095
0.0772436
0.123256
0.197882
0.288358
0.387283
0.492236
0.602549
0.717209
0.834699
0.946799
1.0343
1.09216
1.12647
1.14064
1.14414
1.14499
1.14521
1.14514
1.14504
0.0433929
0.0558595
0.102585
0.178429
0.270298
0.370854
0.477763
0.590434
0.70798
0.829143
0.945862
1.03767
1.09737
1.13023
1.14158
1.14348
1.14427
1.14498
1.14533
1.14527
0.0226628
0.0352643
0.08269
0.159634
0.25275
0.354775
0.463425
0.578243
0.698476
0.82318
0.944646
1.04155
1.10423
1.13618
1.14404
1.14307
1.14288
1.1443
1.14608
1.14668
0.00263049
0.015446
0.06355
0.141468
0.235689
0.339023
0.449242
0.56597
0.688672
0.816752
0.942985
1.04569
1.1128
1.14521
1.14992
1.14528
1.14283
1.14466
1.14879
1.15124
-0.0165942
-0.00356416
0.0451345
0.123934
0.219151
0.323631
0.435238
0.553662
0.678576
0.809787
0.940721
1.04977
1.12287
1.15778
1.1609
1.15299
1.14778
1.14918
1.15553
1.16119
-0.0351117
-0.0218703
0.0274634
0.107055
0.203132
0.308622
0.42145
0.541338
0.668209
0.80229
0.937711
1.05339
1.13391
1.17354
1.17724
1.16758
1.15965
1.15764
1.15791
1.1547
-0.0528508
-0.0394628
0.0104367
0.0906487
0.187402
0.293715
0.407555
0.528618
0.657172
0.793841
0.933582
1.05622
1.14584
1.1928
1.1993
1.18944
1.17892
1.16846
1.15704
1.15952
-0.0698172
-0.0564447
-0.005979
0.0747552
0.171951
0.278923
0.393553
0.515445
0.645376
0.784219
0.927942
1.05741
1.15743
1.21454
1.2253
1.21592
1.20106
1.18667
1.15047
1.11513
-0.0858441
-0.0726891
-0.0217901
0.0594981
0.156754
0.264215
0.379412
0.501911
0.632819
0.773339
0.920459
1.05609
1.16654
1.23644
1.2527
1.23984
1.21831
1.18425
1.13135
1.08123
-0.103642
-0.0871212
-0.0368154
0.0453474
0.142083
0.249827
0.364732
0.488031
0.619546
0.761233
0.910884
1.0515
1.17042
1.25627
1.27947
1.25881
1.21309
1.15066
1.08064
1.02221
-0.0915331
-0.0661365
-0.0110106
0.0750522
0.17901
0.290087
0.411126
0.538571
0.675198
0.82459
0.973927
1.10733
1.21906
1.29388
1.28282
1.19094
1.12192
1.04759
0.977254
0.932874
-0.104573
-0.0964853
-0.0541132
0.0223779
0.119333
0.226364
0.34189
0.465384
0.597253
0.739655
0.89106
1.03592
1.16021
1.25295
1.28791
1.23432
1.10539
1.01482
0.948145
0.872503
-0.124719
-0.113848
-0.0678816
0.0100659
0.107688
0.214304
0.328943
0.45176
0.583265
0.725344
0.876948
1.02289
1.14612
1.22609
1.22759
1.10728
0.960991
0.865472
0.792886
0.714604
-0.146796
-0.134768
-0.0856391
-0.00671535
0.0908984
0.197824
0.312733
0.435633
0.566758
0.708231
0.858394
1.00161
1.11545
1.17906
1.13664
0.972634
0.818602
0.708862
0.622478
0.51222
-0.168237
-0.156219
-0.105471
-0.0254064
0.0722419
0.179343
0.294287
0.416872
0.547277
0.687464
0.834962
0.972842
1.07579
1.11314
1.02213
0.830283
0.656681
0.520571
0.41011
0.266684
-0.189353
-0.177429
-0.125702
-0.0446374
0.0533325
0.160467
0.275109
0.397008
0.526309
0.664582
0.808382
0.939253
1.03172
1.02695
0.88671
0.68394
0.486593
0.314467
0.168795
-0.0740642
-0.210602
-0.198878
-0.146611
-0.0649168
0.0333335
0.140496
0.254766
0.375872