/*--------------------------------*- C++ -*----------------------------------*\
  =========                 |
  \\      /  F ield         | OpenFOAM: The Open Source CFD Toolbox
   \\    /   O peration     | Website:  https://openfoam.org
    \\  /    A nd           | Version:  6
     \\/     M anipulation  |
\*---------------------------------------------------------------------------*/
FoamFile
{
    version     2.0;
    format      ascii;
    class       surfaceScalarField;
    location    "84";
    object      phi;
}
// * * * * * * * * * * * * * * * * * * * * * * * * * * * * * * * * * * * * * //

dimensions      [0 3 -1 0 0 0 0];

internalField   nonuniform List<scalar> 
17370
(
-0.0900002
0.0898491
0.289162
-0.0714625
0.0537525
0.364486
-0.0381192
0.0276899
0.426597
-0.0196378
0.0146045
0.504285
-0.0107622
0.00827156
0.601893
-0.00627158
0.00489492
0.720434
-0.003731
0.00289058
0.863747
-0.00214935
0.00159046
1.03601
-0.00107408
0.000661815
1.24292
-0.000254829
-0.000140608
1.49159
0.000519892
-0.00093011
1.4916
0.00132854
-0.00181767
1.24318
0.00234421
-0.00304865
1.03634
0.00386184
-0.0050057
0.86405
0.0063715
-0.00836411
0.72105
0.0108491
-0.0146846
0.60305
0.0197111
-0.027755
0.507483
0.0381764
-0.0538006
0.431792
0.0715019
-0.0898756
0.365149
0.0900162
0.198995
-0.128137
0.0882277
0.0399092
-0.364599
0.35338
-0.074671
0.0858905
-0.446477
0.454321
-0.0843868
0.0765422
-0.521191
0.529903
-0.0684445
0.0597323
-0.612789
0.62157
-0.0515426
0.0427619
-0.726895
0.734166
-0.0353
0.0280292
-0.867476
0.872593
-0.0224272
0.0173103
-1.03847
1.04193
-0.0134995
0.0100488
-1.2446
1.24703
-0.00743724
0.00500325
-1.49262
1.4946
-0.00305385
0.00107238
-1.4925
1.49423
0.000602008
-0.00232658
-1.24397
1.24586
0.00423172
-0.00611734
-1.03751
1.04003
0.008473
-0.0109984
-0.8661
0.869826
0.014347
-0.0180728
-0.72439
0.729932
0.0231116
-0.028654
-0.608697
0.61611
0.0358676
-0.0432805
-0.514896
0.523039
0.0520094
-0.0601524
-0.439856
0.447913
0.0688142
-0.0768718
-0.375295
0.376738
0.0846679
-0.0861114
-0.257329
0.222476
0.0748208
-0.039967
-0.0685214
0.0586967
0.00982475
-0.0518045
0.0583855
-0.37413
0.367549
-0.0574675
0.0537134
-0.453597
0.457351
-0.0486215
0.0446671
-0.52795
0.531904
-0.0408248
0.0371835
-0.621567
0.625208
-0.033079
0.0290006
-0.735352
0.739431
-0.0244274
0.0202654
-0.874344
0.878506
-0.0159167
0.0122201
-1.04349
1.04719
-0.00847971
0.00530432
-1.24856
1.25174
-0.00197381
-0.00110079
-1.49666
1.49974
0.00414925
-0.00741648
-1.4972
1.50047
0.0104973
-0.0141015
-1.25007
1.25367
0.0176533
-0.0218353
-1.04592
1.0501
0.025856
-0.0302924
-0.877757
0.882193
0.0342607
-0.0382559
-0.739896
0.743891
0.0418041
-0.04555
-0.62677
0.630516
0.0494214
-0.0544341
-0.534807
0.53982
0.0581013
-0.0589107
-0.457471
0.45828
0.0522018
-0.0319948
-0.335745
0.315538
0.0098894
-0.0683412
0.0584518
-0.0529475
0.048954
0.00399348
-0.0331482
0.0436872
-0.35812
0.347581
-0.0473801
0.0467487
-0.459292
0.459923
-0.0436889
0.0403325
-0.535809
0.539165
-0.0365557
0.0332479
-0.628536
0.631844
-0.0298057
0.0267699
-0.742657
0.745693
-0.0235068
0.0203962
-0.882028
0.885139
-0.0168615
0.013478
-1.05078
1.05417
-0.00968033
0.00613799
-1.25518
1.25872
-0.00216535
-0.00163384
-1.50325
1.50704
0.00540035
-0.00927503
-1.50413
1.50801
0.0126834
-0.0162928
-1.25741
1.26102
0.0194757
-0.0227774
-1.05391
1.05721
0.0256872
-0.0287519
-0.885679
0.888744
0.0316255
-0.0349059
-0.747147
0.750428
0.0380771
-0.0417146
-0.634297
0.637935
0.0449516
-0.0478752
-0.544127
0.54705
0.048363
-0.0444684
-0.456562
0.452667
0.0336888
-0.0162293
-0.296165
0.278706
0.00407403
-0.0526298
0.0485558
-0.0458786
0.043386
0.00249263
-0.0227867
0.0331551
-0.3369
0.326531
-0.0389671
0.0399774
-0.459612
0.458602
-0.0387811
0.0364895
-0.541887
0.544179
-0.0338166
0.0312153
-0.634899
0.6375
-0.0281462
0.0252414
-0.748743
0.751647
-0.0219706
0.0189713
-0.888097
0.891097
-0.01566
0.0125549
-1.0573
1.06041
-0.00902291
0.00560919
-1.26218
1.2656
-0.00164174
-0.002245
-1.51093
1.51482
0.00608768
-0.00992355
-1.5119
1.51573
0.0131586
-0.016442
-1.26445
1.26773
0.0192832
-0.0222885
-1.06031
1.06332
0.0250219
-0.0280269
-0.891789
0.894794
0.0307115
-0.0335592
-0.753629
0.756476
0.0359734
-0.0384586
-0.640995
0.64348
0.0405893
-0.0415737
-0.548848
0.549832
0.0403413
-0.0342051
-0.447377
0.441241
0.023482
-0.0102485
-0.263473
0.25024
0.00259222
-0.0453894
0.0427972
-0.0413142
0.0395508
0.00176336
-0.0167197
0.0259557
-0.316691
0.307455
-0.0325465
0.0346758
-0.45701
0.45488
-0.0342458
0.0325683
-0.546161
0.547839
-0.0303801
0.028278
-0.63981
0.641912
-0.0258389
0.023434
-0.754298
0.756703
-0.0205672
0.0177702
-0.893999
0.896796
-0.0145251
0.0114479
-1.06346
1.06654
-0.00794917
0.0046165
-1.26892
1.27225
-0.000777796
-0.00295882
-1.51861
1.52234
0.00663918
-0.0103101
-1.51946
1.52313
0.013415
-0.016597
-1.27097
1.27415
0.0193375
-0.0221912
-1.06635
1.0692
0.0246466
-0.02717
-0.897598
0.900121
0.0292897
-0.0314428
-0.758918
0.761071
0.0333055
-0.0352518
-0.645626
0.647573
0.0366961
-0.0368383
-0.55034
0.550482
0.0343684
-0.0273027
-0.434557
0.427492
0.0175883
-0.00742332
-0.238689
0.228524
0.00188503
-0.0406137
0.0387287
-0.0380329
0.0367084
0.00132443
-0.0127504
0.0206745
-0.29888
0.290956
-0.0274022
0.030308
-0.452333
0.449427
-0.0304987
0.0293678
-0.549277
0.550408
-0.0273646
0.0254383
-0.643955
0.645881
-0.0232272
0.0210794
-0.75895
0.761097
-0.0185521
0.0160569
-0.899379
0.901874
-0.013101
0.010209
-1.06948
1.07238
-0.00683358
0.00358135
-1.27552
1.27877
0.000175049
-0.00380905
-1.526
1.52963
0.00737262
-0.0109181
-1.52672
1.53027
0.013885
-0.0168644
-1.27727
1.28025
0.0193352
-0.0218016
-1.07193
1.0744
0.0238689
-0.0259645
-0.902395
0.90449
0.0277522
-0.0296006
-0.763044
0.764893
0.0312244
-0.0329338
-0.649382
0.651092
0.0337253
-0.0331317
-0.550258
0.549665
0.0297385
-0.0223598
-0.420211
0.412832
0.0138204
-0.00576366
-0.219513
0.211457
0.00147248
-0.0370747
0.0356022
-0.0355528
0.0345345
0.00101829
-0.00994364
0.0166294
-0.283677
0.276991
-0.0230805
0.0264291
-0.44628
0.442932
-0.0271899
0.0264746
-0.551324
0.55204
-0.0247014
0.0229038
-0.647786
0.649584
-0.0208181
0.0187865
-0.763181
0.765213
-0.016397
0.0140523
-0.904224
0.906569
-0.0112939
0.00859038
-1.0751
1.07781
-0.00541296
0.0023116
-1.28191
1.28501
0.00131307
-0.00483437
-1.5332
1.53672
0.00826806
-0.01163
-1.53371
1.53707
0.0143775
-0.0170652
-1.2831
1.28579
0.0192481
-0.0214022
-1.07678
1.07893
0.0232181
-0.025073
-0.90645
0.908305
0.0266578
-0.0282935
-0.766627
0.768262
0.0297158
-0.031082
-0.652658
0.654024
0.0313767
-0.0300442
-0.548712
0.54738
0.0260237
-0.0187149
-0.40546
0.398151
0.0112554
-0.00466642
-0.204201
0.197612
0.00119836
-0.0342813
0.0330829
-0.0336423
0.032852
0.000790256
-0.00785841
0.0134631
-0.270876
0.265271
-0.0194177
0.0229532
-0.439481
0.435945
-0.0241821
0.0237092
-0.552669
0.553141
-0.0221976
0.0205054
-0.651379
0.653071
-0.0185099
0.0165591
-0.767197
0.769147
-0.0142562
0.0119941
-0.908804
0.911066
-0.00933347
0.00673567
-1.08038
1.08298
-0.00369513
0.000733547
-1.28799
1.29095
0.0027231
-0.00607309
-1.54013
1.54348
0.00931549
-0.0124497
-1.54029
1.54342
0.0149781
-0.0174197
-1.28836
1.29081
0.01938
-0.0213003
-1.08106
1.08298
0.0229138
-0.0245595
-0.910046
0.911692
0.0259612
-0.0274035
-0.769792
0.771234
0.0286268
-0.029607
-0.655191
0.656172
0.0295251
-0.0275172
-0.545705
0.543697
0.0230843
-0.0160289
-0.39096
0.383905
0.00946244
-0.00391052
-0.191589
0.186037
0.00100914
-0.0319898
0.0309806
-0.0321604
0.0315476
0.000612799
-0.00624452
0.010924
-0.260158
0.255478
-0.0162763
0.0198005
-0.432417
0.428893
-0.0213422
0.0210889
-0.553544
0.553797
-0.019803
0.0181659
-0.654785
0.656422
-0.016221
0.0143143
-0.771065
0.772971
-0.012064
0.00985437
-0.913224
0.915434
-0.00725584
0.00472289
-1.08547
1.088
-0.00176762
-0.00109289
-1.29381
1.29667
0.00440247
-0.00757852
-1.54671
1.54988
0.0106236
-0.0135409
-1.54641
1.54933
0.0158753
-0.0181031
-1.29316
1.29539
0.0198606
-0.0215578
-1.08491
1.08661
0.0229766
-0.0244227
-0.913222
0.914669
0.0256556
-0.02692
-0.772576
0.77384
0.027999
-0.0285564
-0.656947
0.657504
0.0280876
-0.0255056
-0.541403
0.538821
0.0208115
-0.0140697
-0.377011
0.370269
0.00820257
-0.00338659
-0.180889
0.176073
0.000878684
-0.0300452
0.0291665
-0.0310158
0.0305475
0.000468371
-0.00494055
0.00882016
-0.251226
0.247347
-0.0135252
0.0168888
-0.42546
0.422097
-0.0186021
0.0185315
-0.554006
0.554076
-0.0174309
0.015824
-0.658111
0.659718
-0.013895
0.0119969
-0.774857
0.776755
-0.00975788
0.00756566
-0.917544
0.919736
-0.00499677
0.00250219
-1.09043
1.09292
0.000395462
-0.00318275
-1.29944
1.30222
0.00638016
-0.00941477
-1.55295
1.55598
0.0122899
-0.0150098
-1.55211
1.55483
0.0171581
-0.0191735
-1.29753
1.29954
0.020727
-0.0222023
-1.08833
1.08981
0.0234346
-0.024697
-0.916002
0.917265
0.0257789
-0.0268833
-0.77501
0.776114
0.0277571
-0.0279497
-0.657868
0.658061
0.027054
-0.0239779
-0.535991
0.532915
0.0191142
-0.0126719
-0.363692
0.357249
0.00733024
-0.00303053
-0.171545
0.167245
0.000791635
-0.0283391
0.0275474
-0.0301486
0.029803
0.000345561
-0.00384338
0.00701806
-0.243845
0.240671
-0.0110634
0.0141555
-0.418889
0.415797
-0.0159123
0.0159863
-0.55413
0.554056
-0.0149581
0.0134168
-0.661368
0.66291
-0.0114747
0.00955115
-0.778643
0.780566
-0.00728317
0.00507098
-0.921834
0.924047
-0.00249226
3.2832e-06
-1.09532
1.09781
0.00286857
-0.00561032
-1.30492
1.30766
0.0087269
-0.0116492
-1.55892
1.56184
0.0143778
-0.0169148
-1.55741
1.55995
0.0188828
-0.0206883
-1.30147
1.30328
0.0220402
-0.0232985
-1.09135
1.0926
0.024351
-0.0254373
-0.918412
0.919498
0.0263742
-0.0273153
-0.777112
0.778054
0.0279272
-0.0278202
-0.658107
0.658
0.0264638
-0.0229282
-0.529613
0.526077
0.0179315
-0.0117277
-0.350948
0.344744
0.00675747
-0.00280361
-0.163144
0.159191
0.000738336
-0.0267897
0.0260514
-0.0295201
0.0292848
0.000235349
-0.00287686
0.00541294
-0.23784
0.235304
-0.00879769
0.0115341
-0.412909
0.410172
-0.0132186
0.0133619
-0.554013
0.55387
-0.0123675
0.0108588
-0.664521
0.666029
-0.00887862
0.00689874
-0.782485
0.784465
-0.00456449
0.00229645
-0.926168
0.928436
0.00033342
-0.00285547
-1.10021
1.10273
0.00574296
-0.00847325
-1.31032
1.31306
0.0115399
-0.0143722
-1.56467
1.5675
0.0169713
-0.0193395
-1.56234
1.56471
0.0211382
-0.0227409
-1.305
1.30661
0.0238911
-0.0249268
-1.09396
1.09499
0.0257931
-0.0266953
-0.920464
0.921366
0.0274785
-0.0282557
-0.778846
0.779623
0.0285836
-0.028151
-0.657753
0.65732
0.0263305
-0.0223521
-0.522342
0.518364
0.017218
-0.011163
-0.338643
0.332588
0.00642613
-0.00267978
-0.155365
0.151618
0.000712005
-0.0253333
0.0246213
-0.0291092
0.0289791
0.000130086
-0.00197715
0.00391133
-0.233093
0.231159
-0.00662906
0.00893846
-0.407681
0.405372
-0.0104421
0.0105754
-0.553812
0.553679
-0.00957989
0.00806398
-0.667645
0.66916
-0.00601628
0.00394851
-0.786444
0.788512
-0.00151013
-0.000850195
-0.930614
0.932974
0.00357291
-0.0061666
-1.10517
1.10776
0.0091114
-0.0118665
-1.31572
1.31847
0.0149189
-0.0176881
-1.57025
1.57302
0.0201756
-0.0223852
-1.56694
1.56915
0.0240186
-0.0254182
-1.30813
1.30953
0.0263609
-0.0271684
-1.09615
1.09696
0.0278388
-0.0285428
-0.922138
0.922842
0.0291689
-0.029804
-0.780227
0.780862
0.0297875
-0.0289467
-0.656703
0.655862
0.0266515
-0.0222277
-0.514205
0.509781
0.0169234
-0.0109162
-0.326591
0.320583
0.00629093
-0.00263874
-0.147943
0.144291
0.000707222
-0.0239189
0.0232117
-0.0289093
0.0288858
2.35311e-05
-0.00109579
0.0024404
-0.229542
0.228197
-0.00447506
0.00629224
-0.403343
0.401526
-0.00751087
0.00755163
-0.553693
0.553652
-0.00650656
0.00494341
-0.670822
0.672385
-0.00278612
0.00059426
-0.79058
0.792772
0.00199142
-0.00448471
-0.935245
0.937738
0.00734502
-0.010051
-1.11028
1.11298
0.0130966
-0.0159137
-1.32116
1.32398
0.0189872
-0.0217183
-1.57571
1.57844
0.0241104
-0.0261694
-1.57121
1.57326
0.027639
-0.028832
-1.31084
1.31204
0.0295681
-0.0301448
-1.09793
1.0985
0.0306141
-0.0311095
-0.923413
0.923909
0.0315557
-0.0319371
-0.781235
0.781617
0.0316263
-0.0302996
-0.65483
0.653503
0.027488
-0.0225783
-0.50517
0.500261
0.0170377
-0.0109606
-0.31458
0.308503
0.00633062
-0.00267095
-0.140659
0.137
0.000721567
-0.0225047
0.0217832
-0.0289229
0.0290092
-8.63633e-05
-0.000185462
0.000931441
-0.22717
0.226424
-0.00225318
0.00351189
-0.400023
0.398764
-0.00434371
0.00420674
-0.553831
0.553968
-0.00305303
0.00138319
-0.674144
0.675814
0.000921695
-0.00328008
-0.794965
0.797324
0.00606079
-0.0087317
-0.940143
0.942814
0.0117801
-0.0146445
-1.11562
1.11849
0.0178391
-0.0207577
-1.32675
1.32967
0.0238895
-0.0266106
-1.5811
1.58382
0.0289258
-0.0308414
-1.57516
1.57708
0.0321465
-0.0331305
-1.31314
1.31412
0.0336541
-0.033991
-1.09924
1.09958
0.0342473
-0.0345221
-0.924261
0.924536
0.0347643
-0.0348197
-0.781679
0.781734
0.0341778
-0.0322836
-0.651979
0.650085
0.0288935
-0.0234267
-0.495147
0.48968
0.0175573
-0.0112804
-0.302372
0.296095
0.00653125
-0.00276949
-0.133314
0.129552
0.000752979
-0.0210536
0.0203006
-0.0291678
0.0293857
-0.000217908
0.000771682
-0.000677078
-0.226004
0.22591
0.000120267
0.000504638
-0.397852
0.397227
-0.000844641
0.000439156
-0.554411
0.554816
0.000893528
-0.00272847
-0.677734
0.679569
0.00523653
-0.00781107
-0.799683
0.802258
0.0108444
-0.013747
-0.945399
0.948302
0.0170422
-0.0201166
-1.1213
1.12437
0.0235132
-0.0265769
-1.33254
1.33561
0.0298065
-0.032541
-1.58647
1.58921
0.0347887
-0.0365619
-1.57882
1.5806
0.0377004
-0.0384696
-1.31498
1.31575
0.0387718
-0.0388507
-1.10008
1.10016
0.0388767
-0.0389174
-0.924646
0.924687
0.0389674
-0.0385967
-0.781455
0.781085
0.0375332
-0.0349827
-0.647999
0.645448
0.0309252
-0.0247953
-0.483973
0.477843
0.0184794
-0.0118608
-0.289697
0.283078
0.00687921
-0.0029268
-0.125721
0.121769
0.000798954
-0.0195323
0.0187333
-0.0296774
0.0300407
-0.000363278
0.00183715
-0.00237227
-0.226144
0.226679
0.00267562
-0.00280197
-0.396974
0.3971
0.00310445
-0.00389118
-0.555652
0.556439
0.00546772
-0.00753591
-0.681714
0.683783
0.0103238
-0.0131816
-0.804834
0.807692
0.0165367
-0.0197321
-0.951124
0.95432
0.0233393
-0.0266807
-1.1274
1.13074
0.0303361
-0.033588
-1.33864
1.34189
0.0369494
-0.039714
-1.59187
1.59464
0.041895
-0.0435141
-1.58217
1.58379
0.0444708
-0.0450223
-1.31635
1.3169
0.0450965
-0.0448957
-1.10039
1.10019
0.0446714
-0.0444642
-0.924516
0.924309
0.0442875
-0.0434103
-0.78038
0.779502
0.0418367
-0.0385048
-0.642706
0.639374
0.0336544
-0.0267149
-0.471421
0.464482
0.019807
-0.0126914
-0.276267
0.269151
0.00736298
-0.00313602
-0.117705
0.113478
0.000857131
-0.0179131
0.017056
-0.030478
0.0310199
-0.000541864
0.00312816
-0.0044493
-0.227639
0.22896
0.00565278
-0.00657921
-0.397594
0.39852
0.00762432
-0.00890456
-0.557794
0.559075
0.0108471
-0.0132279
-0.686228
0.688609
0.0163797
-0.0195939
-0.810546
0.813761
0.0233497
-0.0269099
-0.957443
0.961003
0.0309063
-0.0345793
-1.13405
1.13772
0.0385546
-0.0420401
-1.34511
1.3486
0.0455694
-0.0483814
-1.59734
1.60015
0.0504935
-0.0519398
-1.58518
1.58663
0.0526929
-0.0530112
-1.31721
1.31753
0.0528366
-0.0523338
-1.10012
1.09962
0.0518437
-0.0513684
-0.923831
0.923356
0.0508258
-0.0494837
-0.778372
0.77703
0.0472231
-0.0429458
-0.635843
0.631566
0.0371361
-0.0291991
-0.457182
0.449245
0.0215288
-0.0137502
-0.261766
0.253988
0.00796279
-0.00338563
-0.109103
0.104526
0.00092345
-0.0161734
0.0152499
-0.0316426
0.0324132
-0.000770567
0.00467154
-0.00688913
-0.230722
0.23294
0.0091788
-0.0110333
-0.399928
0.401782
0.0129342
-0.0148255
-0.561081
0.562973
0.0172694
-0.0200573
-0.691437
0.694225
0.0236851
-0.0273441
-0.816973
0.820632
0.0315969
-0.0356061
-0.964505
0.968515
0.0400757
-0.044147
-1.14137
1.14544
0.0485011
-0.0522563
-1.35206
1.35582
0.0559699
-0.0588214
-1.60288
1.60573
0.0608414
-0.0620829
-1.58782
1.58906
0.0625975
-0.0626589
-1.31749
1.31755
0.0622153
-0.0613807
-1.09923
1.0984
0.0606017
-0.0598476
-0.922536
0.921782
0.0588413
-0.0569265
-0.775463
0.773548
0.0538411
-0.0484029
-0.627067
0.621629
0.0414156
-0.0322436
-0.440858
0.431686
0.0236136
-0.0149988
-0.245858
0.237244
0.00864744
-0.00365884
-0.0997686
0.09478
0.000992464
-0.014299
0.0133065
-0.033262
0.034329
-0.00106701
0.00660126
-0.00991721
-0.235622
0.238938
0.0134688
-0.0163976
-0.40425
0.407178
0.0192914
-0.0219245
-0.5658
0.568433
0.0250217
-0.0283585
-0.697551
0.700888
0.0326021
-0.0368223
-0.824298
0.828518
0.0416866
-0.0462382
-0.972481
0.977033
0.05127
-0.0558036
-1.14951
1.15404
0.0605814
-0.0646202
-1.35954
1.36358
0.0685033
-0.0713568
-1.60848
1.61133
0.0732339
-0.0742163
-1.59002
1.591
0.0744369
-0.0741937
-1.31708
1.31684
0.0734666
-0.0722635
-1.09765
1.09645
0.0711775
-0.0701305
-0.920623
0.919576
0.0685628
-0.0659499
-0.771454
0.768841
0.0618258
-0.0549275
-0.61592
0.609021
0.0464769
-0.0357824
-0.421958
0.411264
0.0259777
-0.0163603
-0.228201
0.218584
0.00936146
-0.00392779
-0.0895921
0.0841585
0.00105543
-0.0122886
0.0112332
-0.0354631
0.0369436
-0.00148058
0.00914025
-0.0138177
-0.242697
0.247374
0.0188711
-0.0230431
-0.410924
0.415096
0.0270885
-0.0306156
-0.572278
0.575805
0.034548
-0.0385964
-0.704868
0.708917
0.0436275
-0.0485492
-0.832747
0.837668
0.0541569
-0.0593507
-0.981561
0.986755
0.0650265
-0.0700657
-1.15856
1.1636
0.0752781
-0.0795776
-1.36756
1.37186
0.0835704
-0.0863426
-1.61403
1.6168
0.0879843
-0.0886114
-1.59163
1.59226
0.0884785
-0.0878785
-1.3159
1.3153
0.0868091
-0.0852202
-1.09531
1.09372
0.0838202
-0.0823106
-0.91801
0.9165
0.0802393
-0.0766609
-0.766017
0.762439
0.0712227
-0.0624829
-0.601785
0.593045
0.0522138
-0.0396638
-0.399896
0.387346
0.0284659
-0.0177094
-0.208475
0.197718
0.0100214
-0.00415355
-0.0785264
0.0726585
0.001101
-0.0101594
0.00905844
-0.038453
0.0405205
-0.00206752
0.0126602
-0.0190674
-0.252445
0.258852
0.0259215
-0.0315403
-0.420446
0.426064
0.0369437
-0.0415651
-0.580905
0.585526
0.0465423
-0.051513
-0.713734
0.718705
0.0575628
-0.0633513
-0.842597
0.848386
0.0698358
-0.0757498
-0.991941
0.997855
0.0821054
-0.0876337
-1.16861
1.17414
0.0932085
-0.0976585
-1.37603
1.38048
0.101602
-0.104126
-1.61932
1.62185
0.105377
-0.105513
-1.59245
1.59258
0.104944
-0.103866
-1.31385
1.31278
0.102426
-0.100464
-1.09216
1.0902
0.0987297
-0.0966504
-0.914336
0.912257
0.0940049
-0.0891516
-0.758587
0.753734
0.0819903
-0.0708963
-0.583859
0.572765
0.0583694
-0.0436009
-0.374011
0.359243
0.0308193
-0.0188572
-0.186442
0.17448
0.0105104
-0.00428544
-0.0666243
0.0603993
0.00111533
-0.00795235
0.00683702
-0.0425578
0.0455389
-0.00298114
0.0177621
-0.0264479
-0.265604
0.274289
0.0355236
-0.0428813
-0.433488
0.440846
0.0499012
-0.0558405
-0.592182
0.598122
0.0621962
-0.0684167
-0.724593
0.730813
0.0756958
-0.0824659
-0.854151
0.860921
0.0898849
-0.0965052
-1.00374
1.01036
0.103452
-0.109326
-1.17955
1.18542
0.115052
-0.119426
-1.38468
1.38905
0.123052
-0.125082
-1.62399
1.62602
0.125719
-0.12517
-1.59217
1.59162
0.124019
-0.12236
-1.31075
1.30909
0.12053
-0.118153
-1.08815
1.08578
0.115994
-0.113347
-0.90937
0.906724
0.109834
-0.103265
-0.748488
0.741919
0.0938369
-0.0797516
-0.561081
0.546996
0.0644666
-0.0471343
-0.343619
0.326286
0.0326624
-0.0195555
-0.162039
0.148932
0.0106875
-0.00426716
-0.0540819
0.0476616
0.00108418
-0.00573547
0.00465129
-0.0483652
0.052883
-0.00451779
0.0256529
-0.0374181
-0.283351
0.295117
0.0493676
-0.0590592
-0.451114
0.460806
0.0681249
-0.0756577
-0.606694
0.614227
0.0836679
-0.0914063
-0.737885
0.745624
0.099977
-0.107674
-0.867613
0.87531
0.115868
-0.122966
-1.01686
1.02395
0.130172
-0.136044
-1.191
1.19688
0.141507
-0.145422
-1.39297
1.39689
0.148315
-0.149496
-1.62748
1.62866
0.149222
-0.147744
-1.5904
1.58892
0.14584
-0.143506
-1.30637
1.30403
0.141217
-0.138389
-1.08314
1.08031
0.135727
-0.132431
-0.90303
0.899734
0.127614
-0.118616
-0.734704
0.725707
0.106156
-0.0883093
-0.532115
0.514268
0.069756
-0.0496292
-0.308138
0.288011
0.0335291
-0.0195326
-0.135509
0.121513
0.010413
-0.00404833
-0.0412736
0.0349089
0.00099471
-0.00360182
0.00260711
-0.0569742
0.0646707
-0.00769641
0.0394302
-0.0557274
-0.307865
0.324162
0.0717318
-0.084612
-0.474953
0.487833
0.0958406
-0.104853
-0.624931
0.633944
0.114479
-0.123585
-0.753903
0.763008
0.133191
-0.141368
-0.882707
0.890884
0.149711
-0.156656
-1.03064
1.03759
0.163438
-0.168679
-1.20214
1.20738
0.173236
-0.176102
-1.40004
1.4029
0.177697
-0.177552
-1.62901
1.62886
0.175982
-0.173297
-1.58662
1.58393
0.17044
-0.167287
-1.30047
1.29732
0.16445
-0.161117
-1.07697
1.07364
0.157876
-0.153535
-0.894875
0.890534
0.146794
-0.134323
-0.715662
0.703191
0.117765
-0.095317
-0.495294
0.472846
0.0732299
-0.0504205
-0.267338
0.244529
0.0330401
-0.0186377
-0.107569
0.0931664
0.0096303
-0.0036114
-0.028755
0.0227361
0.000836595
-0.00165899
0.000822392
-0.0718171
0.0761279
-0.00431079
0.0301174
-0.0443853
-0.343141
0.357409
0.0587239
-0.0706041
-0.506395
0.518275
0.0813467
-0.0914897
-0.64665
0.656793
0.102976
-0.113639
-0.771487
0.78215
0.125553
-0.136171
-0.898029
0.908646
0.147555
-0.157771
-1.04363
1.05385
0.168611
-0.17807
-1.21158
1.22104
0.187737
-0.195734
-1.40466
1.41266
0.203302
-0.208803
-1.62761
1.63311
0.212246
-0.214278
-1.58021
1.58224
0.215053
-0.215368
-1.29275
1.29307
0.215646
-0.215037
-1.06927
1.06866
0.213536
-0.208827
-0.883698
0.878989
0.198619
-0.178704
-0.689055
0.66914
0.152377
-0.118566
-0.449146
0.415334
0.0875146
-0.0574508
-0.221746
0.191682
0.0361019
-0.019506
-0.0795325
0.0629366
0.00962539
-0.00338941
-0.0171918
0.0109558
0.000704877
2.78226e-05
-0.0007327
-0.0837408
0.0818061
0.00193473
0.00816396
-0.0174661
-0.374477
0.383779
0.0284098
-0.0370616
-0.534905
0.543556
0.0458458
-0.0543178
-0.669716
0.678188
0.0647902
-0.0746876
-0.79225
0.802147
0.0853614
-0.0951336
-0.918639
0.928411
0.105599
-0.114648
-1.06379
1.07284
0.124449
-0.132645
-1.23032
1.23851
0.141013
-0.147711
-1.42038
1.42708
0.153672
-0.157856
-1.63799
1.64217
0.160154
-0.161139
-1.58384
1.58483
0.160828
-0.160058
-1.29229
1.29152
0.15937
-0.15828
-1.06567
1.06458
0.155878
-0.14944
-0.869321
0.862883
0.137974
-0.118815
-0.645155
0.625997
0.096527
-0.0707855
-0.379524
0.353782
0.0495802
-0.0311289
-0.162493
0.144042
0.0189051
-0.00992857
-0.0475175
0.038541
0.00475602
-0.00162132
-0.00496253
0.00182783
0.00030576
0.00164535
-0.00195111
-0.0852879
0.0823261
0.00296184
-0.00100258
-0.00437171
-0.395849
0.401223
0.011677
-0.0180812
-0.556192
0.562597
0.0246233
-0.0319215
-0.689296
0.696594
0.041033
-0.0496268
-0.811017
0.819611
0.0591072
-0.0676293
-0.937339
0.945861
0.0765166
-0.0845962
-1.08172
1.0898
0.0931468
-0.100405
-1.24629
1.25355
0.107383
-0.112827
-1.43316
1.4386
0.117741
-0.120812
-1.64581
1.64888
0.122076
-0.122117
-1.58536
1.5854
0.121104
-0.119746
-1.29006
1.28871
0.118111
-0.11624
-1.06041
1.05854
0.113173
-0.106224
-0.852555
0.845606
0.0952856
-0.0785868
-0.603919
0.58722
0.0611215
-0.0428271
-0.326467
0.308173
0.0293385
-0.0184044
-0.125621
0.114687
0.0113375
-0.00614827
-0.0296742
0.0244849
0.00305619
-0.00109446
0.0015214
-0.00348312
0.000225374
0.00246671
-0.00269208
-0.0840193
0.081134
0.0028853
-0.00503048
0.00232961
-0.410136
0.412837
0.00243276
-0.00729139
-0.572122
0.576981
0.0127887
-0.0188989
-0.705394
0.711504
0.0267175
-0.0340835
-0.827446
0.834812
0.0421676
-0.0494622
-0.953783
0.961077
0.0574616
-0.0643135
-1.09741
1.10426
0.0717469
-0.0775928
-1.26037
1.26621
0.083535
-0.0880639
-1.44381
1.44833
0.0918156
-0.0936735
-1.65157
1.65343
0.0942131
-0.0936324
-1.58496
1.58438
0.092112
-0.0898161
-1.28675
1.28446
0.0875694
-0.0849187
-1.05391
1.05126
0.0812609
-0.074847
-0.834692
0.828278
0.0651477
-0.0519646
-0.568114
0.554931
0.0393878
-0.0275135
-0.288977
0.277103
0.0192803
-0.0127537
-0.10312
0.096593
0.00838545
-0.00495306
-0.0187143
0.0152819
0.00267766
-0.00106302
0.00589036
-0.007505
0.000255223
0.00309534
-0.00335056
-0.0824178
0.0798242
0.00259364
-0.00649443
0.00548452
-0.419707
0.420717
-0.00191938
-0.0017009
-0.584873
0.588494
0.0060707
-0.0115676
-0.718889
0.724386
0.0181178
-0.0245532
-0.841367
0.847802
0.0315164
-0.037816
-0.967861
0.974161
0.0446368
-0.0506579
-1.11093
1.11695
0.0568936
-0.062104
-1.27186
1.27707
0.0670626
-0.0707125
-1.45242
1.45607
0.0735141
-0.0745252
-1.65508
1.65609
0.0742894
-0.072784
-1.58306
1.58155
0.0706871
-0.0679308
-1.2818
1.27904
0.0651041
-0.061609
-1.04638
1.04289
0.0577221
-0.0518307
-0.81778
0.811889
0.0440354
-0.0341893
-0.539693
0.529847
0.0257094
-0.0183662
-0.26401
0.256667
0.0134625
-0.00962485
-0.0892174
0.0853797
0.00686704
-0.00441831
-0.0111765
0.0087278
0.00260329
-0.0011242
0.00953386
-0.0110129
0.000305727
0.0037426
-0.00404833
-0.0808489
0.0785899
0.00225898
-0.00665897
0.00624445
-0.426205
0.426619
-0.00413475
0.00121687
-0.594674
0.597592
0.00298145
-0.00765352
-0.730262
0.734934
0.0132321
-0.0187623
-0.853347
0.858877
0.0248767
-0.0304348
-0.980049
0.985607
0.0365699
-0.0417537
-1.12264
1.12782
0.047212
-0.0517263
-1.28191
1.28643
0.0558706
-0.0587743
-1.45934
1.46225
0.0607245
-0.0613385
-1.65689
1.65751
0.0603384
-0.0582728
-1.57947
1.5774
0.0555603
-0.0521597
-1.27579
1.27239
0.048981
-0.0447243
-1.03781
1.03355
0.0404502
-0.0351466
-0.802229
0.796926
0.0288702
-0.0216935
-0.518064
0.510887
0.0161844
-0.0119059
-0.248023
0.243745
0.00936963
-0.00733383
-0.0806071
0.0785713
0.00565681
-0.00397652
-0.00566675
0.00398646
0.0025241
-0.00118911
0.0128051
-0.01414
0.000354315
0.00443925
-0.00479356
-0.0795518
0.0777451
0.00180668
-0.00599316
0.00601222
-0.430895
0.430876
-0.00432878
0.00217433
-0.603129
0.605283
0.00168201
-0.00586988
-0.74002
0.744208
0.011073
-0.0157705
-0.863941
0.868639
0.0210579
-0.0258983
-0.991074
0.995914
0.0315783
-0.0361495
-1.13297
1.13754
0.0408348
-0.0448741
-1.29066
1.2947
0.0488027
-0.0511394
-1.46504
1.46738
0.0525965
-0.05251
-1.65756
1.65747
0.0512154
-0.04829
-1.57492
1.572
0.045211
-0.041375
-1.26848
1.26464
0.0375166
-0.0329237
-1.02822
1.02363
0.0282765
-0.0231037
-0.787992
0.782819
0.018102
-0.0126907
-0.501735
0.496323
0.00913811
-0.00700313
-0.238075
0.23594
0.00588238
-0.0050205
-0.0755186
0.0746567
0.0042172
-0.00323069
-0.00175809
0.000771586
0.00219892
-0.00112008
0.0156655
-0.0167444
0.00036842
0.00517176
-0.00554018
-0.0787121
0.077264
0.00144815
-0.00505878
0.00530688
-0.434429
0.434181
-0.00384149
0.00185848
-0.61035
0.612333
0.00172328
-0.00543902
-0.748651
0.752367
0.00982147
-0.0142526
-0.873241
0.877672
0.0190341
-0.0238944
-1.00049
1.00535
0.0286614
-0.0328638
-1.14215
1.14635
0.0374468
-0.0409865
-1.29852
1.30206
0.0440771
-0.0464408
-1.46948
1.47185
0.0475466
-0.0471543
-1.65727
1.65688
0.0453261
-0.0421867
-1.56903
1.56589
0.0386823
-0.0343219
-1.26012
1.25576
0.0300562
-0.0249293
-1.018
1.01287
0.0199315
-0.014952
-0.774596
0.769617
0.0103423
-0.00620319
-0.488979
0.48484
0.00394157
-0.00291944
-0.232081
0.231059
0.00266137
-0.0026477
-0.0728263
0.0728126
0.00248876
-0.00213635
0.000591436
-0.000943844
0.00159272
-0.00088868
0.017847
-0.018551
0.000327446
0.00585446
-0.0061819
-0.0783881
0.0771513
0.00123688
-0.00385562
0.0039261
-0.437413
0.437343
-0.00273552
0.000837065
-0.616824
0.618722
0.00243179
-0.00596252
-0.756544
0.760074
0.0100751
-0.0140069
-0.881863
0.885795
0.0188028
-0.0227343
-1.00956
1.01349
0.0273232
-0.0311901
-1.15064
1.15451
0.0354434
-0.0389421
-1.30548
1.30898
0.0420196
-0.0438069
-1.47383
1.47562
0.0447764
-0.0442327
-1.65622
1.65568
0.0424308
-0.0388712
-1.56238
1.55882
0.035111
-0.0303798
-1.25117
1.24644
0.0257907
-0.0202184
-1.00681
1.00123
0.0150483
-0.00978914
-0.761659
0.7564
0.00554106
-0.00199454
-0.478632
0.475086
0.000193979
0.000201726
-0.228186
0.22779
-4.51952e-05
-0.000383376
-0.071861
0.0722896
0.000706958
-0.00092732
0.0015748
-0.00135444
0.000857674
-0.000577638
0.019142
-0.0194221
0.00024147
0.00637752
-0.00661899
-0.0783358
0.0774345
0.000901347
-0.00274353
0.00237122
-0.440344
0.440716
-0.00139415
-0.000527562
-0.622436
0.624358
0.00342159
-0.00676464
-0.763768
0.767111
0.0106315
-0.0146229
-0.889567
0.893558
0.0186945
-0.0226972
-1.01758
1.02158
0.0271217
-0.0306359
-1.15875
1.16226
0.0348077
-0.0380656
-1.31218
1.31543
0.0409317
-0.0429622
-1.4777
1.47973
0.044019
-0.0432906
-1.65499
1.65426
0.0411779
-0.0377395
-1.55521
1.55177
0.0339615
-0.0289649
-1.24128
1.23629
0.0240513
-0.0184459
-0.995035
0.989429
0.0127028
-0.00736458
-0.748667
0.743329
0.00321625
0.00010943
-0.469509
0.466183
-0.00172789
0.00217141
-0.225357
0.224914
-0.00189867
0.00131862
-0.0718472
0.0724273
-0.000724019
0.000144104
0.00143844
-0.000858527
0.000161865
-0.000245706
0.0195578
-0.019474
0.000142294
0.00667681
-0.0068191
-0.0786928
0.0779691
0.000723694
-0.00178567
0.00146775
-0.443398
0.443715
-2.32426e-06
-0.00173921
-0.628028
0.62977
0.00477124
-0.00794186
-0.770371
0.773542
0.0116021
-0.015127
-0.897192
0.900717
0.0192547
-0.0228577
-1.02553
1.02914
0.0271267
-0.0309817
-1.16618
1.17003
0.0346385
-0.0380719
-1.31865
1.32209
0.0411593
-0.0430389
-1.48153
1.48341
0.0441399
-0.0438101
-1.65359
1.65326
0.041713
-0.038412
-1.54799
1.54469
0.0344018
-0.0293965
-1.23109
1.22609
0.0244995
-0.0186411
-0.982989
0.977131
0.0129399
-0.00726769
-0.735806
0.730134
0.00300267
0.000415207
-0.460568
0.45715
-0.00221229
0.00289367
-0.222715
0.222033
-0.00286634
0.00234438
-0.0721488
0.0726707
-0.00170505
0.000960669
0.000591938
0.000152438
-0.000432605
7.47357e-05
0.0192445
-0.0188867
3.00932e-05
0.00677146
-0.00680155
-0.0793537
0.0788092
0.000544441
-0.000709613
0.000221144
-0.446557
0.447045
0.00108393
-0.00311312
-0.633153
0.635182
0.00605486
-0.00903987
-0.776644
0.779629
0.0127518
-0.0160844
-0.904199
0.907531
0.019995
-0.0236612
-1.03318
1.03685
0.0277579
-0.0314905
-1.17368
1.17741
0.0352619
-0.0386016
-1.32536
1.3287
0.0417097
-0.0441644
-1.48548
1.48793
0.0454487
-0.04511
-1.65271
1.65238
0.0433502
-0.0399779
-1.54109
1.53771
0.0361816
-0.0313823
-1.22083
1.21603
0.026256
-0.0203696
-0.970691
0.964804
0.0146455
-0.00866179
-0.722901
0.716917
0.00419175
-0.000449287
-0.451659
0.447916
-0.00157791
0.00269617
-0.219672
0.218553
-0.00295705
0.00267294
-0.0722896
0.0725737
-0.00215199
0.0014125
-0.000546914
0.00128641
-0.000801211
0.000290284
0.0184249
-0.0179139
-4.17661e-05
0.00666784
-0.00662608
-0.0802604
0.0798437
0.00041673
0.000166514