/*--------------------------------*- C++ -*----------------------------------*\
  =========                 |
  \\      /  F ield         | OpenFOAM: The Open Source CFD Toolbox
   \\    /   O peration     | Website:  https://openfoam.org
    \\  /    A nd           | Version:  6
     \\/     M anipulation  |
\*---------------------------------------------------------------------------*/
FoamFile
{
    version     2.0;
    format      ascii;
    class       volScalarField;
    location    "97";
    object      p;
}
// * * * * * * * * * * * * * * * * * * * * * * * * * * * * * * * * * * * * * //

dimensions      [0 2 -2 0 0 0 0];

internalField   nonuniform List<scalar> 
8800
(
0.87804
0.828726
0.790762
0.762696
0.742539
0.727958
0.717369
0.70984
0.704972
0.702925
0.704319
0.708683
0.715492
0.72493
0.737675
0.755003
0.778885
0.811985
0.854925
0.907439
0.712528
0.718874
0.728026
0.731577
0.728972
0.722888
0.715955
0.709724
0.704938
0.702089
0.701882
0.704534
0.709197
0.71534
0.722451
0.729494
0.734379
0.734259
0.727588
0.718693
0.686031
0.692268
0.696771
0.700647
0.7036
0.704557
0.703478
0.701371
0.69941
0.698596
0.699657
0.702135
0.705042
0.707328
0.707861
0.706082
0.702723
0.698716
0.693938
0.690223
0.681713
0.684479
0.687089
0.689252
0.690996
0.692573
0.693689
0.694058
0.693967
0.694095
0.694933
0.696106
0.696872
0.696741
0.695781
0.694439
0.692779
0.690484
0.688077
0.686511
0.676632
0.678058
0.679901
0.681989
0.683709
0.685013
0.686126
0.687126
0.687962
0.688735
0.689486
0.689983
0.690037
0.689698
0.689049
0.687949
0.686306
0.684421
0.683073
0.68227
0.671608
0.672512
0.673764
0.675398
0.677102
0.678648
0.679951
0.681098
0.682196
0.683258
0.684093
0.684528
0.684576
0.684239
0.683461
0.682292
0.680948
0.679694
0.678878
0.678354
0.666659
0.667315
0.668282
0.669609
0.67107
0.672604
0.674111
0.675506
0.67681
0.67807
0.679083
0.679634
0.6797
0.679303
0.678554
0.677638
0.676668
0.675778
0.675205
0.67482
0.661778
0.662283
0.663075
0.664228
0.665544
0.666983
0.668521
0.6701
0.671663
0.673187
0.674419
0.6751
0.67524
0.67497
0.674447
0.673792
0.673083
0.672439
0.67202
0.671719
0.65691
0.657311
0.657979
0.659014
0.660264
0.661656
0.663197
0.664884
0.666678
0.668507
0.67002
0.670917
0.671271
0.671247
0.670979
0.670556
0.670062
0.669617
0.66931
0.669065
0.65197
0.652298
0.652879
0.653839
0.65505
0.656439
0.658026
0.65983
0.661842
0.663998
0.665875
0.667109
0.667776
0.66804
0.668031
0.667852
0.667566
0.667288
0.667066
0.66686
0.646868
0.64714
0.647662
0.648581
0.649784
0.651211
0.652889
0.654855
0.657126
0.659665
0.661998
0.663665
0.664712
0.665304
0.665577
0.665648
0.665574
0.665447
0.665294
0.665115
0.64151
0.641738
0.642224
0.643132
0.644367
0.645876
0.647691
0.649878
0.652483
0.655496
0.658385
0.660569
0.66206
0.66303
0.663623
0.663949
0.664101
0.664117
0.664022
0.663861
0.635798
0.635992
0.636461
0.637388
0.638696
0.640332
0.642341
0.644821
0.647849
0.65145
0.655013
0.657813
0.659825
0.661231
0.66219
0.66282
0.663198
0.663346
0.663298
0.66315
0.62962
0.629787
0.630256
0.63123
0.632654
0.63447
0.636742
0.639599
0.643158
0.64748
0.651858
0.655397
0.658027
0.659941
0.661321
0.66229
0.662915
0.663196
0.66319
0.663048
0.622849
0.622993
0.623476
0.624528
0.626112
0.62817
0.630784
0.63412
0.638336
0.643538
0.6489
0.653322
0.656688
0.6592
0.661061
0.662419
0.663324
0.663744
0.663776
0.663636
0.615333
0.615453
0.615966
0.617125
0.618921
0.621292
0.624341
0.628275
0.633303
0.639575
0.646122
0.651598
0.655831
0.659054
0.661489
0.663299
0.664517
0.66508
0.665147
0.665005
0.606878
0.606981
0.607528
0.608828
0.610896
0.613664
0.617259
0.621939
0.627965
0.635539
0.643506
0.650236
0.655494
0.659551
0.662678
0.665017
0.666586
0.6673
0.667398
0.667249
0.597194
0.597298
0.597915
0.599388
0.60181
0.605078
0.609359
0.614966
0.62222
0.631374
0.64104
0.649252
0.65572
0.660759
0.664697
0.667657
0.669625
0.670496
0.670619
0.67046
0.585987
0.586069
0.58677
0.5885
0.591367
0.595271
0.600416
0.607182
0.615953
0.627023
0.638714
0.648667
0.656549
0.662744
0.667617
0.671306
0.673714
0.674742
0.674884
0.674711
0.572836
0.572904
0.573717
0.57576
0.579193
0.583914
0.590163
0.598389
0.609038
0.622432
0.636525
0.648506
0.658021
0.665554
0.671517
0.676032
0.67891
0.680085
0.680234
0.680044
0.557137
0.557197
0.558162
0.560628
0.564807
0.570595
0.578272
0.588363
0.601354
0.617565
0.634482
0.6488
0.660173
0.669234
0.676431
0.681861
0.685219
0.686514
0.686655
0.686446
0.538056
0.538112
0.539301
0.542362
0.547558
0.554788
0.564361
0.576872
0.592806
0.612418
0.632618
0.64958
0.66304
0.673803
0.682353
0.688773
0.692577
0.693941
0.694054
0.693825
0.514355
0.514416
0.51596
0.519917
0.526579
0.53583
0.548006
0.563715
0.583357
0.607043
0.630996
0.650891
0.666634
0.679255
0.689259
0.696667
0.70082
0.702175
0.702237
0.701991
0.484101
0.484194
0.486353
0.491768
0.50073
0.512967
0.528831
0.5488
0.573081
0.601569
0.629729
0.652794
0.670969
0.685538
0.697063
0.705352
0.709672
0.710912
0.710902
0.710647
0.444019
0.444251
0.447686
0.455797
0.468653
0.485545
0.506682
0.532263
0.562215
0.596214
0.628968
0.655378
0.67605
0.6926
0.705598
0.714526
0.718743
0.719752
0.71966
0.719405
0.387866
0.389046
0.395924
0.409669
0.429346
0.453449
0.481905
0.514575
0.551182
0.591281
0.628885
0.658725
0.681884
0.700337
0.714618
0.723791
0.727561
0.728254
0.728089
0.727847
0.306596
0.314583
0.330446
0.354547
0.384431
0.418191
0.455545
0.496308
0.540231
0.586898
0.629663
0.66317
0.689023
0.709502
0.724733
0.733713
0.73682
0.737196
0.736991
0.736793
0.219926
0.237457
0.263233
0.298459
0.339108
0.382637
0.428858
0.477767
0.529225
0.582912
0.631487
0.669265
0.698345
0.721021
0.736996
0.745055
0.747188
0.747282
0.747112
0.74699
0.145478
0.166935
0.200984
0.245729
0.295901
0.348629
0.403469
0.460353
0.519114
0.579438
0.633331
0.674903
0.706741
0.731123
0.747158
0.754033
0.755447
0.755445
0.755317
0.755231
0.0842742
0.108121
0.147847
0.199423
0.257015
0.317401
0.379812
0.443965
0.509496
0.575975
0.634724
0.679667
0.713835
0.739475
0.755348
0.761419
0.762485
0.762449
0.762342
0.762268
0.0333941
0.0586847
0.102515
0.159387
0.222899
0.289548
0.358361
0.428875
0.500496
0.572596
0.635786
0.683769
0.719986
0.746659
0.762343
0.767813
0.768675
0.768621
0.768524
0.768451
-0.00976501
0.0163712
0.063232
0.124381
0.192851
0.264824
0.339149
0.41525
0.492335
0.569561
0.636808
0.687531
0.72553
0.753002
0.768429
0.773456
0.774207
0.774149
0.774057
0.77398
-0.047283
-0.020602
0.0286149
0.0933078
0.166011
0.242624
0.321838
0.402969
0.485053
0.567016
0.638005
0.691174
0.730657
0.758676
0.773795
0.778501
0.779204
0.779163
0.779083
0.778999
-0.0806814
-0.0535888
-0.0024436
0.0652713
0.141654
0.222358
0.305985
0.391741
0.478499
0.564949
0.639454
0.694859
0.735585
0.763927
0.778687
0.783141
0.783837
0.783842
0.783793
0.783705
-0.111025
-0.0835722
-0.0307986
0.039559
0.119195
0.203551
0.291191
0.381246
0.47245
0.563245
0.641177
0.698705
0.740532
0.769054
0.783426
0.787665
0.788377
0.788455
0.788456
0.788372
-0.139164
-0.111343
-0.0571174
0.0156317
0.0981685
0.185815
0.277127
0.371211
0.466686
0.561768
0.643159
0.702818
0.745714
0.774373
0.788372
0.792418
0.793143
0.793298
0.793361
0.793289
-0.165533
-0.137381
-0.0818319
-0.00693951
0.0782108
0.168844
0.26354
0.361405
0.461014
0.560397
0.645377
0.707277
0.751305
0.780121
0.793808
0.797673
0.798387
0.798599
0.798718
0.798661
-0.190656
-0.162096
-0.105323
-0.0284735
0.0590428
0.152395
0.250224
0.351648
0.455259
0.558996
0.647774
0.712117
0.757369
0.786428
0.799838
0.803528
0.804199
0.804432
0.804588
0.804549
-0.214707
-0.185737
-0.127818
-0.0491916
0.0404635
0.136298
0.237019
0.341795
0.44927
0.557423
0.650273
0.717335
0.763944
0.793275
0.806424
0.809923
0.810512
0.810729
0.810895
0.810871
-0.237875
-0.208476
-0.149493
-0.0692422
0.0223488
0.120438
0.223815
0.331722
0.442919
0.555512
0.652742
0.72289
0.771018
0.800589
0.813418
0.816667
0.817139
0.817309
0.817465
0.817457
-0.260298
-0.230432
-0.170446
-0.0887131
0.00460772
0.104741
0.210545
0.321356
0.436095
0.553109
0.655014
0.728727
0.77864
0.808356
0.820654
0.823515
0.823843
0.823952
0.824081
0.824091
-0.282081
-0.251704
-0.190725
-0.107653
-0.0127891
0.0891683
0.197174
0.310648
0.428715
0.550063
0.656911
0.734747
0.786881
0.81668
0.828033
0.830247
0.830381
0.830459
0.830558
0.83056
-0.303134
-0.272273
-0.210351
-0.126098
-0.0298619
0.0737242
0.183692
0.299589
0.420738
0.546268
0.658227
0.740796
0.795814
0.825841
0.835783
0.836757
0.836506
0.836654
0.836841
0.836823
-0.323468
-0.292148
-0.229351
-0.144049
-0.0466006
0.0584192
0.17013
0.288183
0.412152
0.541627
0.658768
0.746657
0.805446
0.836285
0.844563
0.843478
0.842208
0.842497
0.84318
0.843332
-0.343167
-0.311327
-0.24774
-0.161505
-0.0629785
0.0432949
0.15653
0.276472
0.402968
0.536089
0.658332
0.752061
0.81563
0.848336
0.855457
0.851786
0.848432
0.848525
0.850368
0.851507
-0.362113
-0.329807
-0.265487
-0.178428
-0.078968
0.0284039
0.142951
0.264519
0.393233
0.529651
0.656749
0.756676
0.826022
0.861947
0.869313
0.863771
0.857695
0.855782
0.857241
0.858509
-0.380404
-0.347621
-0.282614
-0.194868
-0.0946195
0.0136936
0.12933
0.252253
0.382863
0.522222
0.653821
0.760188
0.836329
0.876784
0.886204
0.880637
0.872273
0.864512
0.856278
0.859083
-0.397987
-0.364835
-0.299266
-0.211022
-0.110226
-0.00115458
0.11527
0.23922
0.371363
0.51325
0.649006
0.761998
0.846391
0.892775
0.905501
0.901714
0.890526
0.875374
0.853083
0.855464
-0.414753
-0.381443
-0.3153
-0.226714
-0.125541
-0.0158586
0.100946
0.225702
0.358957
0.502851
0.642103
0.761
0.85476
0.908202
0.922998
0.919489
0.905534
0.873832
0.817712
0.794433
-0.430605
-0.398463
-0.330323
-0.241514
-0.139763
-0.0299318
0.0866358
0.211968
0.345913
0.491161
0.633048
0.75635
0.859656
0.921081
0.932802
0.923429
0.896564
0.838015
0.775354
0.737604
-0.472383
-0.41526
-0.344038
-0.256386
-0.153665
-0.0443778
0.0724874
0.197879
0.331991
0.477758
0.62125
0.747066
0.857072
0.925703
0.930375
0.899984
0.837213
0.763545
0.691996
0.652463
-0.446025
-0.42724
-0.364833
-0.276538
-0.175275
-0.0661199
0.0502062
0.175245
0.308974
0.454313
0.597917
0.724169
0.828212
0.904247
0.873644
0.747416
0.646049
0.575645
0.507442
0.528788
-0.47579
-0.443901
-0.380614
-0.292754
-0.191851
-0.0827908
0.033839
0.158394
0.29139
0.435471
0.577193
0.700472
0.793325
0.835663
0.767824
0.613576
0.494347
0.413884
0.327765
0.367043
-0.498548
-0.464362
-0.399387
-0.311475
-0.210613
-0.101517
0.0150847
0.138977
0.270813
0.412815
0.551034
0.668308
0.748893
0.753122
0.630119
0.463195
0.325415
0.226105
0.127176
0.152693
-0.520524
-0.485375
-0.419107
-0.330577
-0.229641
-0.120637
-0.00450512
0.118505
0.24887
0.388213
0.521572
0.62936
0.69229
0.662455
0.489105
0.302763
0.136196
-0.00265944
-0.130507
-0.124051
-0.542119
-0.506665
-0.439566
-0.350495
-0.249447
-0.140664
-0.0251821
0.0967412
0.225255
0.361357
0.488621
0.586475
0.627869
0.547455
0.349713
0.145093
-0.0464379
-0.203793
-0.410101
-0.490387
-0.564024
-0.52871
-0.461162
-0.37174
-0.270581
-0.162008
-0.0471495
0.0735924
0.200028
0.332443
0.452788
0.541085
0.553578
0.422102
0.221876
0.00681865
-0.188921
-0.352066
-0.475689
-0.589974
-0.587301
-0.551987
-0.484252
-0.394697
-0.293579
-0.185344
-0.0712434
0.0480827
0.171999
0.299983
0.412669
0.487386
0.470389
0.302831
0.101871
-0.10674
-0.285719
-0.384372
-0.410376
-0.423528
-0.612089
-0.57679
-0.508961
-0.419451
-0.318588
-0.210899
-0.0978466
0.0196853
0.140528
0.263159
0.36755
0.422947
0.385176
0.188036
-0.0104997
-0.198687
-0.334099
-0.372598
-0.381141
-0.381477
-0.638676
-0.60325
-0.535333
-0.445992
-0.345559
-0.238687
-0.126997
-0.0116748
0.105526
0.22196
0.317211
0.354574
0.281731
0.0826087
-0.109077
-0.2726
-0.348699
-0.36283
-0.363866
-0.363738
-0.667068
-0.631398
-0.563393
-0.474327
-0.374519
-0.268713
-0.158719
-0.0460328
0.0669943
0.176508
0.261342
0.282162
0.170049
-0.0135521
-0.194162
-0.3236
-0.353006
-0.353681
-0.354279
-0.353887
-0.697017
-0.661083
-0.593051
-0.504384
-0.405394
-0.300938
-0.193004
-0.0833812
0.0249852
0.126936
0.20117
0.201954
0.0715541
-0.10128
-0.260723
-0.335329
-0.350224
-0.348416
-0.348161
-0.347794
-0.727974
-0.691957
-0.624051
-0.535941
-0.438007
-0.335216
-0.229713
-0.123609
-0.0202763
0.073709
0.137088
0.121299
-0.0183711
-0.178007
-0.305688
-0.344461
-0.343837
-0.343978
-0.343715
-0.343413
-0.759496
-0.723494
-0.655911
-0.568589
-0.472012
-0.371229
-0.268566
-0.166439
-0.0684921
0.0178146
0.0680032
0.0453737
-0.0987825
-0.238661
-0.332546
-0.34065
-0.341541
-0.341568
-0.341347
-0.341092
-0.790611
-0.754829
-0.687912
-0.601697
-0.50686
-0.408498
-0.309095
-0.211372
-0.119232
-0.0398491
-0.000788079
-0.0304322
-0.166845
-0.281209
-0.338351
-0.348075
-0.342141
-0.340868
-0.340354
-0.34007
-0.819638
-0.784691
-0.719021
-0.634384
-0.541772
-0.446314
-0.350622
-0.257658
-0.171692
-0.0988061
-0.0645413
-0.108054
-0.221569
-0.313782
-0.336401
-0.339593
-0.34035
-0.339853
-0.339547
-0.339373
-0.845369
-0.81158
-0.747848
-0.66545
-0.575687
-0.483731
-0.392258
-0.304367
-0.224595
-0.158562
-0.126456
-0.174718
-0.262568
-0.332469
-0.353248
-0.342866
-0.339436
-0.338364
-0.338092
-0.337987
-0.865176
-0.833406
-0.772644
-0.69338
-0.607291
-0.519558
-0.43289
-0.350411
-0.276631
-0.217311
-0.187869
-0.226687
-0.289093
-0.335029
-0.340381
-0.339547
-0.337625
-0.337075
-0.336953
-0.336818
-0.877037
-0.848081
-0.791349
-0.716437
-0.63506
-0.552409
-0.471198
-0.394519
-0.326738
-0.272425
-0.243964
-0.269969
-0.303975
-0.331714
-0.331665
-0.335569
-0.337351
-0.337572
-0.337547
-0.337438
-0.878278
-0.853246
-0.801881
-0.732785
-0.657364
-0.580825
-0.505746
-0.435233
-0.373677
-0.323125
-0.290682
-0.308832
-0.315957
-0.33033
-0.335062
-0.337091
-0.338853
-0.339439
-0.339582
-0.339592
-0.866546
-0.846284
-0.802115
-0.740692
-0.67274
-0.60343
-0.535211
-0.471051
-0.415619
-0.370694
-0.326065
-0.345216
-0.331302
-0.334117
-0.340244
-0.34169
-0.342377
-0.34286
-0.343116
-0.343224
-0.839679
-0.824881
-0.790226
-0.738946
-0.68015
-0.619226
-0.558599
-0.500834
-0.450822
-0.413564
-0.365887
-0.364497
-0.36219
-0.367153
-0.357531
-0.352908
-0.349455
-0.348491
-0.348417
-0.34841
-0.801137
-0.791708
-0.767429
-0.727838
-0.679615
-0.627992
-0.575298
-0.524042
-0.478832
-0.447238
-0.416517
-0.39272
-0.375838
-0.395596
-0.392513
-0.372226
-0.359125
-0.355228
-0.354766
-0.354501
-0.757952
-0.752576
-0.738643
-0.710461
-0.673241
-0.630553
-0.585461
-0.540309
-0.499085
-0.468659
-0.440146
-0.410315
-0.36884
-0.337351
-0.319057
-0.327224
-0.349476
-0.36427
-0.368538
-0.368747
-0.719926
-0.716641
-0.710001
-0.692116
-0.663885
-0.628755
-0.590079
-0.549603
-0.51022
-0.477729
-0.451708
-0.423121
-0.392428
-0.364124
-0.376139
-0.425705
-0.448322
-0.439756
-0.432206
-0.436145
-0.692538
-0.690589
-0.687208
-0.67665
-0.655217
-0.625697
-0.591104
-0.552856
-0.513167
-0.477572
-0.449451
-0.441483
-0.485262
-0.584779
-0.688571
-0.74574
-0.747704
-0.703724
-0.646159
-0.6273
-0.672474
-0.671784
-0.670639
-0.665425
-0.649776
-0.623928
-0.590602
-0.552169
-0.509974
-0.467494
-0.438011
-0.418267
-0.440949
-0.509159
-0.616182
-0.637946
-0.603415
-0.555903
-0.508222
-0.483775
-0.660797
-0.660569
-0.659952
-0.657536
-0.646929
-0.62324
-0.589499
-0.549083
-0.50223
-0.450398
-0.406117
-0.347147
-0.282749
-0.222634
-0.201486
-0.173191
-0.119631
-0.0732074
-0.0350498
-0.0166325
-0.652775
-0.652624
-0.652208
-0.651498
-0.645028
-0.623684
-0.589172
-0.54528
-0.492994
-0.429807
-0.364076
-0.280775
-0.14324
0.0508621
0.247276
0.415073
0.520212
0.571539
0.596641
0.605692
-0.647627
-0.647576
-0.647436
-0.647247
-0.643385
-0.625458
-0.589953
-0.542015
-0.483803
-0.409755
-0.325878
-0.22933
-0.0391098
0.235574
0.521341
0.77772
0.946976
1.02599
1.05081
1.05601
-0.643562
-0.643556
-0.643482
-0.643357
-0.641972
-0.627928
-0.592189
-0.540809
-0.476981
-0.395581
-0.300616
-0.196838
-0.00289282
0.284363
0.59089
0.8665
1.06464
1.16749
1.20493
1.21547
-0.640196
-0.640244
-0.640208
-0.640054
-0.639848
-0.630024
-0.595957
-0.542445
-0.474656
-0.389699
-0.289656
-0.185652
-0.00703504
0.262075
0.551459
0.816194
1.01627
1.12768
1.17423
1.18846
-0.63764
-0.637714
-0.637777
-0.637844
-0.638358
-0.631335
-0.600734
-0.547092
-0.478248
-0.392086
-0.293286
-0.196615
-0.0446097
0.198722
0.454798
0.686259
0.873037
0.986558
1.03406
1.04681
-0.6354
-0.635483
-0.635527
-0.635516
-0.63533
-0.631654
-0.6058
-0.555389
-0.487121
-0.402055
-0.310242
-0.224821
-0.109221
0.0970531
0.318478
0.507067
0.660806
0.757594
0.797178
0.806632
-0.635218
-0.635209
-0.634695
-0.633278
-0.631293
-0.63009
-0.611789
-0.566842
-0.499642
-0.418379
-0.335257
-0.26041
-0.172544
-0.0106978
0.166876
0.312439
0.42797
0.50038
0.528386
0.534089
-0.639011
-0.639084
-0.638894
-0.637978
-0.636317
-0.635741
-0.623984
-0.581071
-0.514154
-0.438371
-0.365107
-0.299303
-0.23495
-0.111355
0.0258118
0.133531
0.215616
0.265101
0.283746
0.286304
-0.643864
-0.644604
-0.647053
-0.653168
-0.661507
-0.664476
-0.648211
-0.596701
-0.528962
-0.462229
-0.396598
-0.338434
-0.29042
-0.201335
-0.0999175
-0.0216767
0.0366762
0.0695676
0.0804766
0.0814986
-0.645854
-0.647189
-0.652191
-0.666123
-0.687414
-0.694793
-0.670021
-0.606601
-0.544785
-0.487488
-0.425345
-0.373902
-0.335689
-0.268299
-0.195199
-0.142772
-0.10647
-0.0864061
-0.0799978
-0.0791418
-0.651732
-0.652756
-0.656167
-0.662565
-0.671153
-0.679347
-0.648394
-0.601364
-0.560459
-0.509755
-0.450824
-0.405726
-0.376284
-0.325261
-0.271155
-0.234601
-0.210937
-0.199228
-0.195238
-0.194921
-0.667711
-0.668219
-0.668372
-0.652999
-0.61079
-0.575895
-0.579749
-0.585147
-0.570844
-0.526337
-0.470812
-0.434068
-0.407536
-0.36723
-0.325436
-0.297953
-0.280381
-0.270951
-0.267633
-0.267322
-0.688806
-0.688165
-0.684562
-0.655761
-0.587823
-0.529415
-0.5444
-0.589439
-0.586555
-0.53994
-0.489411
-0.457481
-0.433752
-0.3965
-0.359002
-0.333995
-0.317087
-0.307812
-0.30432
-0.304253
-0.723488
-0.720386
-0.721557
-0.718804
-0.702195
-0.666585
-0.657838
-0.661469
-0.626775
-0.556419
-0.507075
-0.475159
-0.451449
-0.417038
-0.379596
-0.352459
-0.332191
-0.320919
-0.317345
-0.317648
-0.816701
-0.8217
-0.853995
-0.900723
-0.924546
-0.907157
-0.862672
-0.787557
-0.679054
-0.57827
-0.522119
-0.485194
-0.459283
-0.424324
-0.387589
-0.358681
-0.336551
-0.324036
-0.320166
-0.320768
-0.949489
-0.965759
-1.00869
-1.05519
-1.07878
-1.06444
-1.00135
-0.877234
-0.715048
-0.594024
-0.526899
-0.481766
-0.457777
-0.422495
-0.383719
-0.354419
-0.333548
-0.322477
-0.318999
-0.319699
-1.01752
-1.03333
-1.06474
-1.09692
-1.11609
-1.10224
-1.03231
-0.87274
-0.699523
-0.58425
-0.506222
-0.4619
-0.441035
-0.405588
-0.368832
-0.342729
-0.32497
-0.315728
-0.312781
-0.313352
-0.966852
-0.978161
-1.00044
-1.02536
-1.04225
-1.03142
-0.963232
-0.798329
-0.648331
-0.538762
-0.458714
-0.424842
-0.404212
-0.368407
-0.337459
-0.317354
-0.304382
-0.297799
-0.295637
-0.296026
-0.80597
-0.816856
-0.837535
-0.862757
-0.882889
-0.876365
-0.80799
-0.679368
-0.565016
-0.462209
-0.398159
-0.36915
-0.345777
-0.316179
-0.292595
-0.277361
-0.267536
-0.262807
-0.261233
-0.261636
-0.566278
-0.577752
-0.599952
-0.629001
-0.654368
-0.653688
-0.601429
-0.522316
-0.440972
-0.3695
-0.328443
-0.296119
-0.277501
-0.254853
-0.237039
-0.225058
-0.216697
-0.212227
-0.211066
-0.21169
-0.296496
-0.305507
-0.325376
-0.355706
-0.387134
-0.401068
-0.385296
-0.351816
-0.309603
-0.273777
-0.243343
-0.218661
-0.20666
-0.188704
-0.176054
-0.166642
-0.158984
-0.154681
-0.154055
-0.154963
-0.0780962
-0.0848903
-0.10208
-0.130524
-0.165349
-0.196192
-0.212044
-0.210434
-0.195342
-0.177921
-0.156971
-0.145777
-0.137928
-0.126484
-0.117806
-0.110332
-0.103313
-0.0999139
-0.0998863
-0.100853
0.0288034
0.0232026
0.00967442
-0.0130623
-0.0420229
-0.0712592
-0.0931384
-0.100751
-0.0979494
-0.0913475
-0.0841668
-0.0763372
-0.0748703
-0.068708
-0.063859
-0.0581826
-0.0529811
-0.0509368
-0.0516462
-0.0526706
0.0291368
0.0268896
0.0221206
0.0134678
0.00281291
-0.00662302
-0.013402
-0.0181725
-0.0196507
-0.0196183
-0.0189174
-0.0162082
-0.0140263
-0.014063
-0.0132264
-0.0138732
-0.0144165
-0.0149814
-0.0132492
-0.0124444
0.00153487
0.18606
0.354729
0.496699
0.608787
0.695661
0.766911
0.82456
0.838329
0.835386
0.281489
0.399213
0.509176
0.603701
0.682488
0.746918
0.797421
0.831516
0.849818
0.866746
0.470676
0.548686
0.625653
0.692919
0.749949
0.797102
0.834289
0.862838
0.884414
0.903696
0.610534
0.666057
0.721799
0.771722
0.814756
0.851392
0.882233
0.908181
0.928087
0.946998
0.723937
0.765764
0.807245
0.846094
0.880844
0.911631
0.938613
0.961563
0.979327
0.997422
0.818702
0.853492
0.887727
0.920581
0.950916
0.978443
1.00281
1.02335
1.03894
1.05643
0.905512
0.936928
0.968581
0.999233
1.02778
1.05376
1.07658
1.09531
1.10908
1.12609
0.991481
1.02373
1.05579
1.08669
1.1152
1.14075
1.16268
1.18006
1.19233
1.20884
1.08529
1.12161
1.15619
1.18845
1.21744
1.24262
1.2636
1.27978
1.29131
1.30742
1.19812
1.23885
1.2757
1.30842
1.33674
1.3606
1.38013
1.39533
1.40716
1.42321
1.33957
1.38043
1.41558
1.44501
1.47011
1.49165
1.51009
1.52553
1.53861
1.55454
1.51086
1.54282
1.56976
1.5921
1.61215
1.63084
1.64855
1.66529
1.68018
1.6959
1.69691
1.7141
1.73118
1.74785
1.76394
1.77866
1.79255
1.80702
1.82224
1.83954
1.88028
1.89019
1.90335
1.91433
1.92373
1.93339
1.94398
1.95415
1.96343
1.9891
2.09808
2.09237
2.07942
2.06517
2.05886
2.06456
2.0827
2.11122
2.14498
2.1813
2.40089
2.26496
2.18544
2.14288
2.12555
2.12954
2.15696
2.21482
2.32248
2.50089
0.781731
0.77543
0.767703
0.756592
0.743028
0.730389
0.720007
0.712017
0.706331
0.703044
0.70275
0.705639
0.710917
0.718308
0.727882
0.739729
0.753303
0.766241
0.775236
0.78278
0.690785
0.696705
0.704782
0.71092
0.713996
0.713496
0.710426
0.706454
0.7029
0.700663
0.70059
0.702905
0.706709
0.711191
0.71532
0.717585
0.716526
0.7119
0.704851
0.697021
0.684009
0.686382
0.689654
0.692434
0.694894
0.697097
0.698296
0.698176
0.697277
0.696523
0.696807
0.698292
0.70013
0.701402
0.701359
0.699916
0.697775
0.695427
0.692454
0.68944
0.679184
0.680273
0.682194
0.684541
0.686425
0.68784
0.689081
0.690105
0.69075
0.69119
0.691825
0.692651
0.693183
0.693116
0.692527
0.691633
0.690324
0.688371
0.686275
0.684801
0.674112
0.674746
0.67588
0.677649
0.679508
0.681121
0.6824
0.683501
0.684536
0.685508
0.68639
0.687008
0.687225
0.687079
0.68659
0.685652
0.684252
0.682662
0.681338
0.68054
0.669127
0.669565
0.670359
0.671677
0.673217
0.674806
0.676317
0.677658
0.678875
0.680051
0.681118
0.681837
0.682112
0.681951
0.681345
0.680391
0.679273
0.678154
0.677267
0.676736
0.664215
0.664542
0.665161
0.666246
0.667565
0.668994
0.670513
0.672041
0.673508
0.674915
0.6762
0.677086
0.67743
0.677278
0.676754
0.676027
0.675225
0.674402
0.673759
0.673371
0.659351
0.659604
0.660104
0.661034
0.662234
0.663579
0.665049
0.666641
0.66831
0.669997
0.671559
0.672649
0.673135
0.673151
0.67286
0.672386
0.671808
0.671221
0.670761
0.670465
0.654458
0.654659
0.655077
0.6559
0.657027
0.658333
0.659799
0.661449
0.663277
0.665236
0.667127
0.668518
0.669275
0.669563
0.669535
0.669306
0.668949
0.668564
0.668248
0.668015
0.64945
0.649611
0.64997
0.650723
0.651811
0.653107
0.654615
0.656367
0.658376
0.660625
0.662907
0.664706
0.665831
0.666446
0.666704
0.666729
0.666605
0.666407
0.66621
0.666024
0.644232
0.644361
0.64468
0.645392
0.646471
0.647803
0.649394
0.651294
0.653542
0.656147
0.658905
0.661209
0.662776
0.663772
0.664355
0.664658
0.664766
0.664753
0.66466
0.664511
0.63871
0.638813
0.639105
0.639802
0.640907
0.642319
0.644039
0.646145
0.648706
0.651761
0.655104
0.658013
0.660102
0.661539
0.662493
0.6631
0.66347
0.663641
0.663638
0.663515
0.632779
0.632861
0.633137
0.633844
0.635012
0.636546
0.638452
0.640834
0.643795
0.647409
0.651467
0.655104
0.657814
0.659766
0.661148
0.662121
0.662766
0.663119
0.663198
0.663097
0.626322
0.626383
0.626655
0.627394
0.628661
0.630366
0.632524
0.635265
0.638729
0.643033
0.647959
0.652472
0.655922
0.658485
0.66036
0.661739
0.662702
0.663255
0.663415
0.663329
0.619196
0.619238
0.619513
0.620308
0.621713
0.623645
0.626131
0.629328
0.63342
0.638569
0.644547
0.650111
0.654441
0.657726
0.660187
0.662034
0.663362
0.664133
0.664371
0.664297
0.611245
0.611262
0.61154
0.612412
0.614
0.616224
0.619124
0.622895
0.627764
0.633949
0.641198
0.648019
0.653392
0.657528
0.660686
0.663097
0.66484
0.665846
0.666162
0.666095
0.602196
0.602206
0.602511
0.603487
0.60531
0.607904
0.611328
0.615813
0.621646
0.629096
0.637878
0.646195
0.652805
0.657942
0.661919
0.665005
0.667226
0.668488
0.668882
0.668818
0.591789
0.591773
0.592119
0.593249
0.595374
0.598439
0.602522
0.607903
0.614928
0.623928
0.634555
0.644644
0.652707
0.659025
0.663968
0.667833
0.670608
0.672148
0.672614
0.672548
0.579662
0.579625
0.580022
0.581338
0.583843
0.587513
0.592437
0.598947
0.607459
0.618355
0.631199
0.643378
0.653132
0.660825
0.666903
0.671661
0.675062
0.67689
0.67742
0.677346
0.565295
0.565235
0.565714
0.567284
0.570279
0.574731
0.580737
0.588689
0.59907
0.612295
0.62779
0.642412
0.654113
0.66338
0.670771
0.676549
0.68063
0.682743
0.683318
0.683228
0.547983
0.547901
0.548508
0.550436
0.554085
0.559578
0.56701
0.576837
0.589591
0.605686
0.624331
0.641776
0.655687
0.666733
0.675582
0.682503
0.687304
0.689666
0.690257
0.690144
0.526703
0.526605
0.527421
0.529869
0.534442
0.541377
0.550755
0.563078
0.578883
0.598511
0.620866
0.641511
0.657885
0.670895
0.681338
0.689498
0.694995
0.697532
0.698096
0.697952
0.499906
0.499808
0.500977
0.504234
0.510215
0.519255
0.531404
0.547133
0.566883
0.590832
0.617487
0.641688
0.660737
0.675861
0.688013
0.697434
0.703516
0.706101
0.706585
0.706406
0.465075
0.465033
0.466839
0.471495
0.479848
0.492222
0.50846
0.52888
0.55369
0.582823
0.614352
0.642415
0.664281
0.68161
0.695514
0.706124
0.712561
0.715015
0.715365
0.715154
0.41775
0.41794
0.421162
0.428776
0.441556
0.459426
0.481759
0.508527
0.539635
0.574791
0.611675
0.643817
0.668572
0.6881
0.703719
0.715298
0.721712
0.723816
0.723997
0.723766
0.349574
0.351054
0.358919
0.373372
0.394344
0.420985
0.451926
0.486772
0.525298
0.567144
0.609694
0.645991
0.673631
0.695253
0.712345
0.724459
0.730393
0.731958
0.731979
0.731758
0.268145
0.27102
0.286354
0.311364
0.343583
0.38056
0.420785
0.464103
0.510414
0.559449
0.608343
0.649548
0.680765
0.705066
0.72367
0.735784
0.740958
0.742047
0.742011
0.741879
0.184662
0.192146
0.215211
0.250755
0.293824
0.340914
0.390411
0.442225
0.496326
0.552501
0.607665
0.653684
0.688352
0.71521
0.735219
0.746821
0.750717
0.751246
0.751171
0.751095
0.116244
0.125857
0.153815
0.196809
0.248359
0.303986
0.361811
0.421556
0.48304
0.545951
0.606919
0.657263
0.694939
0.723833
0.744528
0.755398
0.758539
0.75889
0.758823
0.758773
0.0600737
0.0704439
0.102126
0.150631
0.208575
0.270987
0.335766
0.40243
0.470562
0.539652
0.605947
0.660212
0.700532
0.731138
0.752311
0.762601
0.765249
0.765495
0.765438
0.7654
0.0129721
0.0236983
0.0579401
0.110721
0.173863
0.241886
0.312505
0.385126
0.459138
0.533814
0.604976
0.662813
0.705507
0.737574
0.759054
0.768845
0.771172
0.771366
0.771312
0.771279
-0.0275027
-0.0166261
0.0195153
0.075714
0.143182
0.216008
0.291706
0.369572
0.44886
0.528625
0.604264
0.665342
0.710114
0.743367
0.764985
0.774339
0.776467
0.776641
0.776597
0.776568
-0.0630694
-0.0521492
-0.0145298
0.0444947
0.115646
0.192639
0.272843
0.355452
0.439586
0.524091
0.603912
0.667968
0.714548
0.74871
0.770303
0.779269
0.781274
0.781462
0.781449
0.781429
-0.0950001
-0.0840721
-0.0452826
0.0161717
0.0905266
0.171194
0.255436
0.342392
0.43105
0.520073
0.603909
0.670781
0.718995
0.753859
0.775301
0.783898
0.78582
0.786053
0.786097
0.7861
-0.124327
-0.113373
-0.0735539
-0.00994585
0.0672612
0.151201
0.239089
0.330056
0.422994
0.516384
0.604189
0.673839
0.723617
0.759083
0.780316
0.788569
0.790423
0.790713
0.790834
0.790874
-0.151638
-0.140645
-0.0999073
-0.0343615
0.0453932
0.132278
0.223492
0.318176
0.415181
0.512851
0.604668
0.677184
0.728562
0.764635
0.785669
0.793621
0.795395
0.795732
0.795928
0.796012
-0.177426
-0.16638
-0.124783
-0.0574744
0.0245782
0.114129
0.208392
0.306537
0.40742
0.509317
0.605261
0.680833
0.733923
0.770666
0.791565
0.799245
0.800927
0.801283
0.801526
0.80165
-0.202087
-0.1909
-0.1485
-0.0795655
0.00456791
0.096531
0.193595
0.294972
0.399542
0.505625
0.605865
0.684755
0.739738
0.777239
0.79805
0.805465
0.807031
0.807364
0.807622
0.807774
-0.225767
-0.214415
-0.17125
-0.100834
-0.0148157
0.0793422
0.178968
0.283345
0.39142
0.501614
0.606339
0.688894
0.74601
0.784301
0.80502
0.812161
0.813577
0.813846
0.814086
0.814243
-0.248668
-0.2371
-0.193202
-0.121399
-0.0336815
0.0624562
0.164417
0.271561
0.382944
0.497156
0.60651
0.693146
0.752733
0.791879
0.812372
0.819125
0.820334
0.820517
0.820715
0.820854
-0.270802
-0.259035
-0.214433
-0.141331
-0.0520915
0.0458199
0.149897
0.259571
0.374038
0.49212
0.606207
0.69737
0.759915
0.800031
0.820071
0.826142
0.827054
0.827145
0.827298
0.827415
-0.292278
-0.280276
-0.234951
-0.160665
-0.0700812
0.0294082
0.135383
0.247356
0.364661
0.486413
0.605261
0.701386
0.767521
0.808925
0.82821
0.833133
0.833473
0.8335
0.833662
0.833777
-0.31298
-0.300815
-0.254782
-0.17943
-0.087653
0.0132426
0.120883
0.234916
0.354803
0.479985
0.60351
0.704983
0.775463
0.818789
0.837286
0.840372
0.839543
0.839404
0.839809
0.840056
-0.333056
-0.320655
-0.273936
-0.197644
-0.104814
-0.00267974
0.106444
0.222274
0.344476
0.472819
0.600823
0.707916
0.783551
0.829773
0.847976
0.848824
0.845886
0.845
0.846009
0.846979
-0.352391
-0.339758
-0.29243
-0.215286
-0.121513
-0.0183074
0.092109
0.209506
0.333725
0.464895
0.597105
0.709927
0.791484
0.841784
0.860888
0.860068
0.854417
0.851701
0.853098
0.855649
-0.371078
-0.358204
-0.31023
-0.232322
-0.137741
-0.0335997
0.0779379
0.196657
0.322612
0.456277
0.592306
0.710734
0.798859
0.854388
0.875926
0.875092
0.867538
0.86168
0.858186
0.852564
-0.389028
-0.375984
-0.32743
-0.248924
-0.15372
-0.0488302
0.0636123
0.183352
0.310738
0.446544
0.586035
0.709962
0.805555
0.867736
0.893198
0.89437
0.886391
0.87581
0.863001
0.862933
-0.406232
-0.393186
-0.344051
-0.26505
-0.16945
-0.0639752
0.0491456
0.169551
0.298037
0.435514
0.577998
0.706915
0.810514
0.880875
0.910802
0.914669
0.905998
0.893179
0.856729
0.819223
-0.422509
-0.409678
-0.360072
-0.280579
-0.184947
-0.0790536
0.0345178
0.155363
0.284538
0.423159
0.567981