/*--------------------------------*- C++ -*----------------------------------*\
  =========                 |
  \\      /  F ield         | OpenFOAM: The Open Source CFD Toolbox
   \\    /   O peration     | Website:  https://openfoam.org
    \\  /    A nd           | Version:  6
     \\/     M anipulation  |
\*---------------------------------------------------------------------------*/
FoamFile
{
    version     2.0;
    format      ascii;
    class       volVectorField;
    location    "97";
    object      U;
}
// * * * * * * * * * * * * * * * * * * * * * * * * * * * * * * * * * * * * * //

dimensions      [0 1 -1 0 0 0 0];

internalField   nonuniform List<vector> 
8800
(
(0.987184 -0.0766652 0)
(1.00189 -0.05519 0)
(0.999722 -0.0285477 0)
(1.00003 -0.0151425 0)
(1.0001 -0.0085435 0)
(1.00012 -0.00504531 0)
(1.00008 -0.00299944 0)
(1.00002 -0.00169853 0)
(0.999991 -0.000792053 0)
(1.00006 -7.59793e-05 0)
(0.999958 0.000656703 0)
(1.00001 0.00142488 0)
(1.00006 0.00243033 0)
(1.00007 0.00399913 0)
(1.00006 0.00663292 0)
(1.00005 0.0113723 0)
(0.999954 0.0208158 0)
(0.999173 0.0386706 0)
(1.0071 0.0724575 0)
(0.771215 0.0366617 0)
(0.36308 -0.0160163 0)
(1.04332 -0.0768112 0)
(1.0846 -0.0704392 0)
(1.04519 -0.0535325 0)
(1.02329 -0.0388825 0)
(1.01203 -0.0262029 0)
(1.00643 -0.0168389 0)
(1.0036 -0.0103033 0)
(1.00215 -0.00563883 0)
(1.00144 -0.00197581 0)
(1.00128 0.00134632 0)
(1.00166 0.00473518 0)
(1.00269 0.008658 0)
(1.00468 0.0139754 0)
(1.00861 0.0216833 0)
(1.01657 0.0326498 0)
(1.03251 0.0465612 0)
(1.06268 0.0616773 0)
(1.09187 0.0761054 0)
(0.838665 0.0565643 0)
(0.216873 -0.00242863 0)
(1.07592 -0.0501223 0)
(1.09989 -0.0482907 0)
(1.06465 -0.0404388 0)
(1.04005 -0.0335754 0)
(1.02393 -0.0260475 0)
(1.01413 -0.018456 0)
(1.00856 -0.0116261 0)
(1.00558 -0.00574821 0)
(1.0043 -0.000323165 0)
(1.00463 0.00492694 0)
(1.00661 0.0103189 0)
(1.01063 0.0163788 0)
(1.01794 0.0233953 0)
(1.03053 0.0308573 0)
(1.05062 0.0378805 0)
(1.08037 0.0445605 0)
(1.10627 0.051369 0)
(0.942496 0.0416298 0)
(0.216115 0.00246295 0)
(0.175219 -0.000815063 0)
(1.01776 -0.0354637 0)
(1.10523 -0.0413462 0)
(1.07829 -0.0360222 0)
(1.0535 -0.0300792 0)
(1.03624 -0.0244928 0)
(1.02403 -0.0187505 0)
(1.0159 -0.0126548 0)
(1.01102 -0.00645249 0)
(1.00879 -0.000106369 0)
(1.00934 0.00615527 0)
(1.01265 0.0121534 0)
(1.01889 0.0179464 0)
(1.02875 0.0235092 0)
(1.04318 0.0288029 0)
(1.0637 0.0342749 0)
(1.09356 0.0402522 0)
(1.09339 0.0420024 0)
(0.82704 0.0229324 0)
(0.173942 0.00085493 0)
(0.154044 -0.000608725 0)
(0.956321 -0.0254289 0)
(1.10352 -0.0350774 0)
(1.08773 -0.0325875 0)
(1.06178 -0.0279225 0)
(1.04417 -0.0228832 0)
(1.03169 -0.0176164 0)
(1.02282 -0.0120628 0)
(1.01698 -0.00610633 0)
(1.0141 0.00037874 0)
(1.01475 0.00684905 0)
(1.01877 0.01273 0)
(1.0258 0.0179713 0)
(1.03606 0.0228729 0)
(1.0506 0.0276212 0)
(1.07184 0.0321355 0)
(1.10005 0.0360573 0)
(1.06799 0.0340946 0)
(0.739313 0.0143407 0)
(0.152116 0.000654023 0)
(0.139706 -0.000464642 0)
(0.899531 -0.0190364 0)
(1.09591 -0.030006 0)
(1.09583 -0.0290944 0)
(1.06934 -0.0253456 0)
(1.0509 -0.0211851 0)
(1.03796 -0.0163853 0)
(1.02882 -0.0110689 0)
(1.02267 -0.00529796 0)
(1.01949 0.00105045 0)
(1.02007 0.00737358 0)
(1.02421 0.0130035 0)
(1.03135 0.0179025 0)
(1.04181 0.0223486 0)
(1.05692 0.0262997 0)
(1.07911 0.0297394 0)
(1.1022 0.0323467 0)
(1.03578 0.0282092 0)
(0.672582 0.0102479 0)
(0.136979 0.000516906 0)
(0.12921 -0.000358832 0)
(0.850097 -0.0146615 0)
(1.08362 -0.025847 0)
(1.10156 -0.026108 0)
(1.07624 -0.0227987 0)
(1.05727 -0.0191272 0)
(1.04386 -0.014846 0)
(1.03436 -0.00988371 0)
(1.02796 -0.00431528 0)
(1.02457 0.00186045 0)
(1.02499 0.00797463 0)
(1.02908 0.013327 0)
(1.03632 0.0178011 0)
(1.04704 0.0216386 0)
(1.06255 0.0249201 0)
(1.08517 0.0278333 0)
(1.10123 0.0295611 0)
(1.00067 0.023726 0)
(0.620526 0.00789534 0)
(0.125507 0.000420331 0)
(0.121222 -0.000277641 0)
(0.808163 -0.0114889 0)
(1.06849 -0.0222055 0)
(1.10517 -0.0234266 0)
(1.08256 -0.0205227 0)
(1.06317 -0.0170581 0)
(1.04948 -0.0130743 0)
(1.03969 -0.00843921 0)
(1.03299 -0.00313236 0)
(1.02933 0.00283308 0)
(1.02955 0.0087042 0)
(1.03359 0.0137073 0)
(1.04087 0.0176937 0)
(1.05167 0.0210205 0)
(1.06738 0.0238855 0)
(1.09035 0.0264919 0)
(1.09733 0.0273119 0)
(0.965133 0.0202259 0)
(0.57858 0.0063752 0)
(0.116335 0.000350817 0)
(0.115059 -0.000213795 0)
(0.772959 -0.00910908 0)
(1.05192 -0.01899 0)
(1.10766 -0.0209323 0)
(1.0885 -0.0183898 0)
(1.06872 -0.0150602 0)
(1.05479 -0.0112269 0)
(1.0448 -0.00678971 0)
(1.03783 -0.00171145 0)
(1.03387 0.00401086 0)
(1.03383 0.00958811 0)
(1.03774 0.0142141 0)
(1.04493 0.0177636 0)
(1.0557 0.0206999 0)
(1.0716 0.0232331 0)
(1.09421 0.0254849 0)
(1.09053 0.0254747 0)
(0.930439 0.0175452 0)
(0.543716 0.00534548 0)
(0.10873 0.000301325 0)
(0.110287 -0.000162154 0)
(0.743553 -0.00725456 0)
(1.035 -0.0161286 0)
(1.10923 -0.0185678 0)
(1.09418 -0.01632 0)
(1.07412 -0.0130708 0)
(1.0599 -0.00931285 0)
(1.04971 -0.00498179 0)
(1.04249 -6.23421e-05 0)
(1.03821 0.00543021 0)
(1.03785 0.0107013 0)
(1.04152 0.0149674 0)
(1.04853 0.0181262 0)
(1.05923 0.0207148 0)
(1.07532 0.0229494 0)
(1.09676 0.0248108 0)
(1.08122 0.0240076 0)
(0.89713 0.0155346 0)
(0.513864 0.00463718 0)
(0.102207 0.000267171 0)
(0.106625 -0.000118925 0)
(0.719136 -0.00575082 0)
(1.01855 -0.0135486 0)
(1.11002 -0.0162686 0)
(1.09978 -0.0142787 0)
(1.07945 -0.011027 0)
(1.06494 -0.00728194 0)
(1.0545 -0.0029946 0)
(1.04701 0.00182855 0)
(1.04237 0.00713671 0)
(1.0416 0.0121272 0)
(1.04494 0.0160569 0)
(1.05171 0.0188395 0)
(1.06233 0.0210919 0)
(1.07858 0.0230504 0)
(1.0979 0.0244822 0)
(1.06975 0.0229111 0)
(0.865293 0.0140791 0)
(0.487553 0.0041605 0)
(0.0964211 0.000245368 0)
(0.10389 -8.11068e-05 0)
(0.699078 -0.00448108 0)
(1.00321 -0.0111813 0)
(1.1102 -0.0139975 0)
(1.10526 -0.0121792 0)
(1.08482 -0.00887345 0)
(1.06998 -0.00507949 0)
(1.05926 -0.000772571 0)
(1.05143 0.00401437 0)
(1.04634 0.00919134 0)
(1.04507 0.0139379 0)
(1.04802 0.0175507 0)
(1.05451 0.0199607 0)
(1.065 0.0218824 0)
(1.08136 0.0235669 0)
(1.09795 0.0246482 0)
(1.05635 0.0222042 0)
(0.834725 0.0130966 0)
(0.463662 0.00386163 0)
(0.0911053 0.000233556 0)
(0.101964 -4.59733e-05 0)
(0.68292 -0.00335744 0)
(0.98943 -0.00895464 0)
(1.10998 -0.0116656 0)
(1.1106 -0.00993713 0)
(1.0903 -0.00654681 0)
(1.07511 -0.00263992 0)
(1.06405 0.00175583 0)
(1.0558 0.00657164 0)
(1.05016 0.0116717 0)
(1.0483 0.0162081 0)
(1.05077 0.0195188 0)
(1.05692 0.0215541 0)
(1.06725 0.0231435 0)
(1.08363 0.0245341 0)
(1.09709 0.0251583 0)
(1.04113 0.0218947 0)
(0.805043 0.0125113 0)
(0.441302 0.00370196 0)
(0.0860499 0.000229588 0)
(0.100792 -1.12239e-05 0)
(0.670376 -0.00230954 0)
(0.977595 -0.00679272 0)
(1.1097 -0.00921493 0)
(1.11595 -0.00749059 0)
(1.09598 -0.00396889 0)
(1.0804 0.000118906 0)
(1.06894 0.00467562 0)
(1.06019 0.00959065 0)
(1.05389 0.0146709 0)
(1.05129 0.0190297 0)
(1.05319 0.0220508 0)
(1.05894 0.0237059 0)
(1.06908 0.0249551 0)
(1.08543 0.0260499 0)
(1.09488 0.0261516 0)
(1.02411 0.0219898 0)
(0.775771 0.0122777 0)
(0.419745 0.00365744 0)
(0.0810878 0.000232198 0)
(0.100366 2.578e-05 0)
(0.661306 -0.00128064 0)
(0.968026 -0.00462175 0)
(1.1097 -0.00658386 0)
(1.12146 -0.00476552 0)
(1.10195 -0.0010509 0)
(1.08595 0.00329153 0)
(1.07401 0.00808626 0)
(1.06465 0.0131756 0)
(1.05755 0.0182984 0)
(1.05408 0.0225139 0)
(1.05529 0.0252512 0)
(1.06056 0.0265308 0)
(1.07045 0.0274173 0)
(1.08667 0.0281767 0)
(1.09124 0.0276597 0)
(1.00518 0.0225345 0)
(0.746361 0.0123717 0)
(0.398366 0.00371485 0)
(0.0760768 0.000240684 0)
(0.100697 5.88949e-05 0)
(0.655701 -0.000211724 0)
(0.961034 -0.00236534 0)
(1.11034 -0.00370372 0)
(1.12729 -0.00167652 0)
(1.10833 0.00230892 0)
(1.09186 0.00698973 0)
(1.07935 0.0121083 0)
(1.06925 0.0174541 0)
(1.06118 0.0226844 0)
(1.05666 0.0267889 0)
(1.05705 0.0292463 0)
(1.06177 0.0301484 0)
(1.07134 0.0306492 0)
(1.08705 0.0310289 0)
(1.08585 0.0297714 0)
(0.984104 0.0235659 0)
(0.716198 0.0127781 0)
(0.376587 0.00386424 0)
(0.0708908 0.000254145 0)
(0.101877 0.000114608 0)
(0.653722 0.00094051 0)
(0.956945 5.34766e-05 0)
(1.11198 -0.000494832 0)
(1.13365 0.00187802 0)
(1.11523 0.00623172 0)
(1.09824 0.0113472 0)
(1.08506 0.0168874 0)
(1.07406 0.02258 0)
(1.06482 0.0279861 0)
(1.05905 0.0320119 0)
(1.05846 0.0341911 0)
(1.06251 0.0346949 0)
(1.0717 0.0347875 0)
(1.08644 0.0347448 0)
(1.07845 0.0325703 0)
(0.960487 0.0251223 0)
(0.684595 0.0134862 0)
(0.35387 0.00409601 0)
(0.0654199 0.000271578 0)
(0.104053 0.000166773 0)
(0.655547 0.00206674 0)
(0.956124 0.0027297 0)
(1.11512 0.00314903 0)
(1.14076 0.00600972 0)
(1.12282 0.01086 0)
(1.10524 0.0165247 0)
(1.09123 0.0226001 0)
(1.07915 0.028739 0)
(1.06851 0.0343886 0)
(1.06123 0.0383522 0)
(1.0595 0.0402203 0)
(1.06275 0.0403268 0)
(1.07146 0.0399836 0)
(1.08459 0.0394231 0)
(1.06869 0.0361597 0)
(0.933797 0.0272481 0)
(0.650814 0.0144866 0)
(0.32971 0.00439965 0)
(0.0595741 0.000291776 0)
(0.107329 0.000231091 0)
(0.661825 0.00355883 0)
(0.958922 0.00568232 0)
(1.12021 0.00736728 0)
(1.14889 0.0108652 0)
(1.13128 0.0163798 0)
(1.113 0.02273 0)
(1.09801 0.0294691 0)
(1.0846 0.0361586 0)
(1.07225 0.0421114 0)
(1.0632 0.0460151 0)
(1.06015 0.0475542 0)
(1.06244 0.04723 0)
(1.07058 0.0464088 0)
(1.0815 0.0452329 0)
(1.05608 0.0406594 0)
(0.903327 0.0299778 0)
(0.614053 0.0157588 0)
(0.303648 0.00475914 0)
(0.0532872 0.000312933 0)
(0.111991 0.000318047 0)
(0.672865 0.00531167 0)
(0.965931 0.0091971 0)
(1.12775 0.0123223 0)
(1.15835 0.016659 0)
(1.14085 0.0230324 0)
(1.12173 0.0302268 0)
(1.1055 0.0377734 0)
(1.09046 0.0451183 0)
(1.07607 0.0514191 0)
(1.06493 0.0552351 0)
(1.06029 0.0564072 0)
(1.06153 0.0556076 0)
(1.06898 0.0542591 0)
(1.07708 0.0523493 0)
(1.03997 0.0461768 0)
(0.868177 0.0333168 0)
(0.573469 0.0172573 0)
(0.275296 0.00514767 0)
(0.0465302 0.000332392 0)
(0.118398 0.000434826 0)
(0.689491 0.00749696 0)
(0.977959 0.0134818 0)
(1.13834 0.0182489 0)
(1.16952 0.0236566 0)
(1.15182 0.0311418 0)
(1.13162 0.0393704 0)
(1.11386 0.047876 0)
(1.0968 0.0559621 0)
(1.07995 0.062611 0)
(1.06636 0.0662652 0)
(1.05982 0.0669812 0)
(1.05997 0.065664 0)
(1.06674 0.0637375 0)
(1.07098 0.0609706 0)
(1.01948 0.0527776 0)
(0.827252 0.0372159 0)
(0.528237 0.0188928 0)
(0.244415 0.00552304 0)
(0.0393299 0.000346592 0)
(0.127081 0.000597576 0)
(0.712727 0.0103516 0)
(0.99577 0.0188039 0)
(1.15262 0.0254907 0)
(1.1829 0.0322419 0)
(1.16452 0.041171 0)
(1.14291 0.0506489 0)
(1.12316 0.0602562 0)
(1.10359 0.0691168 0)
(1.08379 0.0760326 0)
(1.06738 0.0793779 0)
(1.05871 0.0795026 0)
(1.0577 0.0775992 0)
(1.06354 0.0749955 0)
(1.06261 0.0711092 0)
(0.993456 0.0604759 0)
(0.779273 0.0415293 0)
(0.477651 0.0205108 0)
(0.211007 0.00582543 0)
(0.0317895 0.000351244 0)
(0.138846 0.00083633 0)
(0.743954 0.0142583 0)
(1.02053 0.025641 0)
(1.1714 0.0345966 0)
(1.19914 0.0430197 0)
(1.17936 0.0537999 0)
(1.1558 0.0647472 0)
(1.13345 0.0755397 0)
(1.11074 0.0850973 0)
(1.08745 0.0920635 0)
(1.06786 0.0948365 0)
(1.0569 0.0941858 0)
(1.05476 0.0916629 0)
(1.05908 0.0882593 0)
(1.05114 0.0829557 0)
(0.960351 0.0691341 0)
(0.722862 0.0459595 0)
(0.421323 0.0218747 0)
(0.175446 0.00597836 0)
(0.0241059 0.0003419 0)
(0.154996 0.00120958 0)
(0.785171 0.0198686 0)
(1.05391 0.0347855 0)
(1.19565 0.0465254 0)
(1.21915 0.057403 0)
(1.1967 0.0701054 0)
(1.17036 0.0826632 0)
(1.14459 0.0945447 0)
(1.11801 0.104496 0)
(1.09067 0.111077 0)
(1.06758 0.112867 0)
(1.05423 0.111199 0)
(1.05103 0.107965 0)
(1.05318 0.103814 0)
(1.03536 0.0964521 0)
(0.918185 0.078384 0)
(0.656749 0.0500067 0)
(0.359491 0.0226671 0)
(0.138611 0.00589999 0)
(0.0165761 0.000315004 0)
(0.177778 0.00185647 0)
(0.839607 0.0283325 0)
(1.09883 0.0478321 0)
(1.22645 0.0631496 0)
(1.24334 0.0770049 0)
(1.21664 0.091765 0)
(1.18635 0.105759 0)
(1.15613 0.118245 0)
(1.12492 0.127928 0)
(1.09306 0.133424 0)
(1.06628 0.133652 0)
(1.0505 0.13063 0)
(1.04632 0.126543 0)
(1.04568 0.121381 0)
(1.01351 0.111313 0)
(0.864519 0.0875302 0)
(0.580262 0.0529494 0)
(0.293487 0.0225384 0)
(0.101995 0.00552577 0)
(0.00958422 0.000268344 0)
(0.21068 0.00328762 0)
(0.913133 0.0424168 0)
(1.15828 0.0686795 0)
(1.26415 0.0879857 0)
(1.27158 0.104942 0)
(1.23857 0.121213 0)
(1.2029 0.135688 0)
(1.16726 0.147639 0)
(1.13082 0.15593 0)
(1.09415 0.159334 0)
(1.06366 0.157276 0)
(1.04555 0.152489 0)
(1.04047 0.147416 0)
(1.03573 0.141 0)
(0.982975 0.126892 0)
(0.79662 0.0954103 0)
(0.494376 0.0539364 0)
(0.226461 0.0212863 0)
(0.0678128 0.00485202 0)
(0.00361323 0.00020104 0)
(0.255576 0.00973846 9.28762e-21)
(1.00954 0.0703107 7.97666e-21)
(1.22984 0.104151 -2.79055e-21)
(1.30588 0.125013 0)
(1.30088 0.144981 -7.1561e-35)
(1.26022 0.160866 1.04737e-21)
(1.21844 0.173992 -1.89421e-21)
(1.1769 0.18395 0)
(1.13494 0.18977 3.92641e-35)
(1.09325 0.190334 -2.37567e-21)
(1.05888 0.185605 0)
(1.03856 0.179091 -2.84895e-21)
(1.03334 0.173828 -8.42789e-21)
(1.02112 0.166193 -3.998e-21)
(0.937725 0.145099 -1.20552e-21)
(0.706467 0.10216 -7.16183e-22)
(0.394349 0.0526971 0)
(0.158007 0.0191885 5.00917e-22)
(0.036214 0.00401019 5.93205e-22)
(-0.00142367 8.29568e-05 1.08488e-20)
(0.286993 0.025498 6.48561e-21)
(1.08973 0.114459 1.18557e-22)
(1.28885 0.154671 7.28886e-22)
(1.34393 0.175539 0)
(1.32686 0.195553 -3.56305e-21)
(1.27917 0.209403 -4.0645e-21)
(1.23141 0.220379 -1.89316e-21)
(1.18404 0.22809 -6.76789e-21)
(1.13652 0.231528 0)
(1.08964 0.229528 1.00318e-20)
(1.0512 0.222482 9.98889e-21)
(1.02818 0.214382 2.97057e-21)
(1.02003 0.207998 1.09086e-20)
(0.992834 0.196583 1.54225e-20)
(0.862439 0.164205 0)
(0.580532 0.106543 2.17318e-20)
(0.27952 0.049623 3.11571e-20)
(0.0898209 0.0158957 3.46647e-20)
(0.00673169 0.00202389 -3.97594e-20)
(-0.00589423 -0.00047308 -7.58687e-22)
(0.289017 0.043365 0)
(1.14161 0.171444 1.04107e-21)
(1.32967 0.216423 0)
(1.37396 0.237079 -4.44509e-21)
(1.34769 0.253987 0)
(1.29409 0.263945 -7.84893e-21)
(1.24076 0.271247 3.82285e-21)
(1.18794 0.275525 -1.34747e-20)
(1.13523 0.275659 -3.31122e-22)
(1.0836 0.270415 5.13597e-21)
(1.04157 0.260668 2.18471e-20)
(1.01625 0.250828 -2.48958e-23)
(1.00433 0.242686 -7.89575e-21)
(0.960373 0.226217 -1.44004e-20)
(0.789413 0.180625 1.707e-20)
(0.482973 0.108179 -3.02005e-20)
(0.208055 0.0460599 -3.97415e-21)
(0.0518566 0.012529 0)
(-0.00864588 -0.000349529 -3.36504e-24)
(-0.00807246 -0.00113219 0)
(0.282568 0.0583052 1.15973e-20)
(1.17063 0.232231 -5.92785e-21)
(1.35575 0.28291 -4.90904e-21)
(1.39431 0.303891 2.03277e-21)
(1.36179 0.316694 -3.41319e-21)
(1.30383 0.322068 1.62506e-20)
(1.24601 0.324938 7.87733e-21)
(1.18856 0.325038 0)
(1.13137 0.3212 -2.54003e-20)
(1.0756 0.312159 0)
(1.03049 0.299346 -1.13465e-20)
(1.00318 0.287556 -1.41307e-20)
(0.98715 0.277031 -8.53653e-21)
(0.926804 0.254371 -1.04002e-20)
(0.72521 0.19495 0)
(0.412353 0.109991 0)
(0.161915 0.0438623 -2.56978e-20)
(0.0275957 0.00941381 5.06999e-21)
(-0.0187388 -0.0029416 -2.98998e-21)
(-0.00953623 -0.00185292 -3.54177e-21)
(0.274539 0.0713341 -2.90031e-21)
(1.18416 0.292896 0)
(1.37074 0.35036 9.03649e-21)
(1.40601 0.371889 5.43836e-21)
(1.36924 0.380681 7.94357e-21)
(1.30816 0.381439 0)
(1.24693 0.37972 7.55336e-21)
(1.1858 0.375372 1.46527e-20)
(1.1249 0.367218 1.28696e-20)
(1.06566 0.354025 2.38323e-20)
(1.01794 0.337869 0)
(0.988901 0.323914 -3.02017e-20)
(0.968657 0.310606 -1.82498e-20)
(0.893784 0.280862 -1.08039e-20)
(0.670806 0.208165 6.62334e-20)
(0.36153 0.112535 7.84505e-21)
(0.130803 0.0424247 3.69497e-20)
(0.0102147 0.00618128 -1.74637e-19)
(-0.0266966 -0.00585437 1.0343e-19)
(-0.0108003 -0.00264551 -1.26256e-19)
(0.266503 0.0829605 8.05447e-22)
(1.18757 0.351417 4.48866e-22)
(1.37755 0.416784 -7.43584e-22)
(1.41078 0.439179 -4.80232e-21)
(1.37099 0.444194 -6.26824e-21)
(1.30762 0.440475 3.56332e-22)
(1.24377 0.434258 -8.14951e-21)
(1.17974 0.425459 1.49404e-20)
(1.11583 0.412893 -2.74937e-20)
(1.05369 0.395379 0)
(1.00382 0.375703 -1.36179e-20)
(0.973313 0.359374 -3.01865e-22)
(0.949082 0.34299 -1.98754e-20)
(0.862037 0.305714 0)
(0.625449 0.220594 -1.42593e-20)
(0.324386 0.115805 -3.37227e-20)
(0.10819 0.0414213 8.96107e-20)
(-0.00365681 0.00272736 -8.82293e-20)
(-0.0337634 -0.00911805 1.25414e-19)
(-0.0120172 -0.00352018 -1.31965e-19)
(0.259354 0.093549 -1.15701e-22)
(1.18442 0.407022 5.12105e-22)
(1.37833 0.481106 -8.78116e-22)
(1.41007 0.504636 1.58152e-21)
(1.36811 0.506206 -3.05341e-21)
(1.30304 0.498239 0)
(1.23714 0.487708 -7.38663e-21)
(1.17074 0.474579 -1.55181e-20)
(1.10433 0.457629 -1.41821e-20)
(1.03977 0.435739 0)
(0.988129 0.412399 -1.39064e-20)
(0.956438 0.393508 -1.73172e-20)
(0.928699 0.373831 2.13987e-20)
(0.831963 0.3289 -1.30279e-20)
(0.587899 0.232367 -6.15273e-20)
(0.296658 0.119616 3.6369e-20)
(0.0907993 0.0405628 1.07377e-20)
(-0.0157217 -0.00111286 0)
(-0.0407585 -0.0128518 -1.20051e-19)
(-0.0133758 -0.00452494 -4.44929e-21)
(0.253296 0.103448 8.52008e-22)
(1.17702 0.459503 -1.16615e-21)
(1.3746 0.542761 1.55539e-22)
(1.4051 0.567594 5.99433e-21)
(1.36154 0.566079 -1.05549e-20)
(1.29521 0.554173 1.40797e-20)
(1.22768 0.539577 1.58226e-20)
(1.15931 0.522302 -2.46829e-20)
(1.09075 0.50107 8.81333e-21)
(1.0241 0.474787 -5.76766e-20)
(0.97098 0.447663 -1.57321e-20)
(0.938364 0.425992 0)
(0.907663 0.402768 2.3072e-20)
(0.803628 0.350254 2.76178e-20)
(0.556772 0.243428 3.29814e-20)
(0.275539 0.123584 -3.91419e-20)
(0.0769557 0.0394901 -1.1552e-20)
(-0.0265657 -0.00549065 1.36123e-20)
(-0.0479504 -0.0171771 0)
(-0.0150043 -0.00572267 -9.56907e-21)
(0.248264 0.112728 -1.41851e-20)
(1.16713 0.508902 7.53089e-21)
(1.36766 0.601696 2.35507e-22)
(1.3969 0.627714 3.1081e-21)
(1.35211 0.623436 -4.32707e-21)
(1.28485 0.607916 -8.51824e-22)
(1.21599 0.589569 -1.72998e-20)
(1.14596 0.568387 -8.92337e-21)
(1.0755 0.54302 -2.45072e-20)
(1.00696 0.512368 4.28292e-23)
(0.952537 0.481335 -4.88648e-20)
(0.91918 0.456649 4.14928e-20)
(0.88605 0.429617 -2.51861e-20)
(0.776853 0.369658 3.01853e-20)
(0.530698 0.25357 0)
(0.259186 0.12728 -2.108e-20)
(0.0659535 0.0379451 2.79376e-23)
(-0.0359955 -0.0104248 -5.87294e-20)
(-0.0550249 -0.0220719 -8.67854e-21)
(-0.0168628 -0.00713534 0)
(0.244234 0.121664 0)
(1.15582 0.555458 8.80853e-21)
(1.35838 0.657966 2.95925e-21)
(1.38628 0.684844 -2.30444e-21)
(1.34051 0.678084 -5.98737e-21)
(1.27255 0.659286 0)
(1.20261 0.63751 -7.61391e-21)
(1.13112 0.612697 -2.30953e-22)
(1.05894 0.583393 5.24073e-20)
(0.988621 0.548441 -7.86069e-21)
(0.932963 0.513379 -3.52604e-20)
(0.89894 0.485431 2.1499e-20)
(0.863818 0.454317 -4.03322e-22)
(0.751265 0.387036 3.20532e-20)
(0.508347 0.26262 1.93803e-20)
(0.246202 0.130349 -4.52708e-20)
(0.0575106 0.0358762 5.34487e-20)
(-0.0435248 -0.0156834 1.58176e-20)
(-0.0613222 -0.0272811 6.55033e-20)
(-0.0187808 -0.00871319 -1.77238e-19)
(0.241129 0.130418 -4.95709e-21)
(1.14392 0.599347 6.43675e-21)
(1.34742 0.711205 -4.17931e-21)
(1.37392 0.738947 7.46614e-22)
(1.32734 0.729944 0)
(1.25885 0.708187 -5.86396e-21)
(1.188 0.683312 2.58392e-20)
(1.11521 0.65517 1.94419e-20)
(1.04141 0.622162 0)
(0.96933 0.583025 -1.13453e-19)
(0.912394 0.543838 9.52998e-20)
(0.877689 0.512385 0)
(0.840872 0.476922 2.92493e-20)
(0.72643 0.402442 -3.47105e-22)
(0.488455 0.270552 -6.22006e-20)
(0.235464 0.132718 2.43206e-20)
(0.0512604 0.0335328 0)
(-0.0487411 -0.0208415 8.51054e-20)
(-0.066164 -0.0323965 0)
(-0.0205158 -0.0103484 -8.35246e-20)
(0.238872 0.139006 5.99153e-21)
(1.13193 0.640813 8.57299e-21)
(1.33528 0.761492 -4.08309e-21)
(1.36034 0.790052 0)
(1.31309 0.779023 -4.28617e-21)
(1.24419 0.754613 0)
(1.17256 0.726948 -2.51207e-20)
(1.09858 0.695786 -8.86644e-21)
(1.02321 0.659357 9.18723e-21)
(0.949315 0.616189 -5.61768e-20)
(0.890962 0.572822 9.83733e-21)
(0.855477 0.537618 0)
(0.817191 0.497572 -6.24932e-20)
(0.701828 0.416001 2.94011e-22)
(0.470037 0.277294 0)
(0.226123 0.134493 5.49462e-23)
(0.0467053 0.0311126 7.75399e-20)
(-0.0516857 -0.0254869 -7.33417e-20)
(-0.0691827 -0.0369591 2.17182e-20)
(-0.0218616 -0.0118879 0)
(0.237127 0.147402 0)
(1.1201 0.68006 1.04499e-20)
(1.32242 0.808952 6.31037e-21)
(1.34598 0.838236 -5.328e-22)
(1.29816 0.825371 -7.98328e-22)
(1.22894 0.79859 -1.32508e-20)
(1.15663 0.768436 9.56263e-21)
(1.08154 0.73456 -1.0648e-20)
(1.00462 0.695017 4.12736e-20)
(0.928794 0.648036 -9.01088e-20)
(0.868803 0.600465 -8.71265e-22)
(0.83237 0.561263 -2.74182e-20)
(0.792714 0.516397 1.01485e-19)
(0.677006 0.427906 -4.12541e-22)
(0.452372 0.282918 -4.82348e-20)
(0.217548 0.135739 -8.50586e-20)
(0.0435158 0.0289169 0)
(-0.0526297 -0.0293333 0)
(-0.0703703 -0.0407055 2.34189e-20)
(-0.0226881 -0.0132156 -1.39001e-20)
(0.236056 0.155794 8.52917e-21)
(1.10863 0.717106 -2.37963e-20)
(1.30917 0.853698 -6.76163e-21)
(1.33119 0.883589 0)
(1.28287 0.86906 -3.08767e-22)
(1.21341 0.840169 -1.14645e-20)
(1.1405 0.807817 2.26954e-20)
(1.06436 0.771531 4.15956e-20)
(0.985891 0.729198 5.371e-20)
(0.90799 0.678684 -7.38637e-20)
(0.84607 0.626938 -8.25929e-20)
(0.808446 0.583487 7.35459e-20)
(0.767512 0.533495 0)
(0.652008 0.438162 -2.21633e-20)
(0.434929 0.287411 -5.20167e-20)
(0.209284 0.136509 -6.1202e-20)
(0.0411873 0.0270581 -7.21304e-20)
(-0.0520938 -0.0322566 2.13668e-20)
(-0.0699581 -0.0435301 -1.26044e-20)
(-0.0229914 -0.0142658 5.94736e-23)
(0.235244 0.164003 0)
(1.09791 0.75205 0)
(1.29579 0.895845 5.08054e-22)
(1.31623 0.926219 0)
(1.26747 0.910192 -4.92428e-23)
(1.19783 0.879431 7.23409e-21)
(1.12439 0.845142 0)
(1.04726 0.806747 4.88165e-21)
(0.967243 0.761958 8.99494e-20)
(0.887121 0.708243 -1.70509e-19)
(0.822925 0.652437 0)
(0.78376 0.604454 -4.76822e-20)
(0.741529 0.548895 -5.19363e-22)
(0.626769 0.446638 -3.07926e-22)
(0.417519 0.290637 5.60815e-20)
(0.201193 0.13674 5.06928e-23)
(0.0394276 0.0256112 -1.55536e-19)
(-0.0506535 -0.0342147 4.59969e-20)
(-0.0683964 -0.0453849 1.36525e-20)
(-0.02283 -0.0150005 0)
(0.234683 0.171987 -3.4487e-20)
(1.08767 0.785285 -1.62278e-20)
(1.28237 0.935479 -2.04654e-20)
(1.30129 0.966237 1.83573e-20)
(1.25218 0.948849 -3.10333e-21)
(1.18241 0.916452 0)
(1.10851 0.880475 1.35996e-20)
(1.03045 0.840258 -1.10261e-20)
(0.948877 0.793355 8.02047e-22)
(0.866393 0.736817 1.26575e-20)
(0.799526 0.677154 1.0815e-19)
(0.758363 0.624385 -1.67983e-20)
(0.714712 0.562627 -6.31937e-20)
(0.601187 0.453121 -2.59557e-20)
(0.400336 0.292217 3.02953e-20)
(0.193546 0.136294 6.67048e-23)
(0.0383281 0.0247133 4.19465e-20)
(-0.048825 -0.0350533 -9.91027e-20)
(-0.0664765 -0.0463976 1.17665e-19)
(-0.0224316 -0.015499 1.7368e-20)
(0.234174 0.179736 1.31328e-20)
(1.07794 0.81687 -9.15069e-21)
(1.26911 0.972737 1.32107e-21)
(1.28656 1.00377 1.21543e-20)
(1.23714 0.985151 2.0438e-21)
(1.16729 0.951315 -1.22943e-20)
(1.09302 0.913882 3.74347e-21)
(1.01408 0.872107 -4.60686e-20)
(0.93097 0.823422 -1.00051e-19)
(0.845995 0.764476 -1.02607e-19)
(0.776056 0.701272 0)
(0.732303 0.643533 -7.44118e-20)
(0.686911 0.574762 9.15719e-20)
(0.575079 0.457168 0)
(0.383432 0.291391 -6.52098e-20)
(0.187317 0.134402 3.84569e-20)
(0.0390547 0.0243686 -4.52395e-20)
(-0.0463448 -0.0344249 -5.34667e-20)
(-0.0655395 -0.0468559 -9.4858e-20)
(-0.0224256 -0.016076 -7.49833e-20)
(0.233998 0.187339 -1.49173e-20)
(1.06858 0.846822 9.80561e-21)
(1.2561 1.0077 2.19313e-20)
(1.27215 1.03892 1.80455e-20)
(1.2225 1.0192 -3.41727e-21)
(1.15261 0.984113 -6.01723e-21)
(1.07802 0.945424 1.27738e-20)
(0.998272 0.90235 -4.7432e-20)
(0.913653 0.852201 -5.96915e-20)
(0.826104 0.791284 1.08361e-19)
(0.752689 0.724951 2.40656e-19)
(0.705642 0.662188 0)
(0.657899 0.585485 0)
(0.547874 0.458395 -2.99943e-20)
(0.36656 0.286843 0)
(0.18383 0.129317 8.27061e-20)
(0.0446335 0.0226878 9.73728e-20)
(-0.0400381 -0.033868 0)
(-0.0649891 -0.0479011 0)
(-0.0239255 -0.0175412 8.08178e-20)
(0.233685 0.194518 1.70102e-20)
(1.05964 0.87516 1.34238e-20)
(1.24344 1.04048 1.59652e-20)
(1.25815 1.07183 -1.76447e-20)
(1.20832 1.05111 -5.07159e-21)
(1.13845 1.01493 5.17048e-21)
(1.06361 0.975164 -1.75742e-20)
(0.983129 0.931024 -2.64984e-22)
(0.897051 0.879715 -1.06193e-21)
(0.806876 0.817271 -6.31633e-22)
(0.729624 0.74832 1.24718e-19)
(0.678478 0.680639 0)
(0.627448 0.595152 9.41652e-20)
(0.518772 0.456732 6.47932e-20)
(0.348669 0.277276 1.53363e-19)
(0.182509 0.117367 4.48059e-20)
(0.0585657 0.0116608 -5.25055e-20)
(-0.0188071 -0.0433453 -3.10058e-20)
(-0.0505449 -0.0524986 0)
(-0.0241825 -0.0194238 8.73423e-20)
(0.233733 0.201733 -3.86025e-20)
(1.05108 0.901991 0)
(1.23113 1.07116 1.89379e-20)
(1.24459 1.10259 -1.50521e-20)
(1.19468 1.08097 7.61651e-21)
(1.12486 1.04385 -3.66645e-21)
(1.04986 1.00316 3.36109e-20)
(0.968719 0.958166 -3.82863e-21)
(0.881249 0.90598 0)
(0.788446 0.84243 -1.21169e-19)
(0.707064 0.771466 -2.73841e-19)
(0.650965 0.699177 1.12539e-20)
(0.59544 0.604259 1.31869e-19)
(0.486879 0.45268 0)
(0.327295 0.262444 1.04404e-19)
(0.178766 0.0940424 0)
(0.0758469 -0.0216957 0)
(0.0242208 -0.0858023 -3.35554e-20)
(0.0177398 -0.0729493 0)
(0.0164721 -0.0050735 2.35349e-20)
(0.233487 0.20841 -4.32007e-20)
(1.04287 0.92764 0)
(1.21916 1.09992 3.17546e-20)
(1.23143 1.13144 0)
(1.18155 1.10906 -4.86873e-21)
(1.1118 1.07116 0)
(1.03672 1.02972 1.50709e-21)
(0.954955 0.984106 6.67159e-21)
(0.866135 0.931349 7.64991e-21)
(0.770656 0.867123 -1.33901e-19)
(0.684831 0.794839 8.26817e-21)
(0.622792 0.718541 9.14352e-20)
(0.561252 0.613726 1.29607e-19)
(0.450803 0.447052 1.73114e-20)
(0.2993 0.243651 8.26682e-20)
(0.164224 0.0604607 0)
(0.0776189 -0.0785994 1.11038e-19)
(0.0451811 -0.112643 -6.51791e-20)
(0.0217473 0.0308578 7.63866e-20)
(-0.0390492 0.462623 -9.0733e-20)
(0.233285 0.214932 3.58424e-20)
(1.03479 0.951931 5.38712e-20)
(1.20746 1.1271 0)
(1.21854 1.15882 9.90872e-22)
(1.16874 1.13597 1.4899e-20)
(1.09898 1.09754 -8.77988e-22)
(1.02385 1.05563 1.13204e-20)
(0.941413 1.00977 0)
(0.851158 0.956891 5.05121e-20)
(0.752801 0.892613 -6.97583e-21)
(0.661949 0.81986 0)
(0.592494 0.740283 0)
(0.522384 0.624558 1.17484e-19)
(0.40729 0.44002 -5.37615e-20)
(0.260917 0.222675 -8.49003e-20)
(0.133067 0.0199362 0)
(0.0483755 -0.0437016 5.67458e-20)
(0.00212853 0.448718 -6.56364e-20)
(0.0274546 1.94751 -3.68e-20)
(0.0534066 2.83475 -4.5266e-20)
(0.232819 0.220958 -2.70355e-20)
(1.02691 0.975047 -6.93598e-20)
(1.19606 1.15271 1.89562e-20)
(1.20594 1.18462 1.51058e-20)
(1.15632 1.16148 0)
(1.08651 1.12273 -2.74788e-21)
(1.01148 1.08059 1.47963e-20)
(0.928305 1.03473 -3.237e-21)
(0.83663 0.982108 7.63642e-21)
(0.735321 0.918342 1.28819e-19)
(0.639123 0.845997 1.41623e-19)
(0.561143 0.764544 1.0506e-19)
(0.479554 0.637596 1.19783e-19)
(0.356854 0.431513 -1.28587e-19)
(0.216652 0.204564 -1.30006e-19)
(0.0888978 0.0821496 0)
(0.0331869 0.920526 0)
(0.0783374 2.59869 3.16439e-20)
(0.081634 3.22044 0)
(0.0838407 3.39202 8.24164e-20)
(0.2352 0.226669 0)
(1.01959 0.997398 0)
(1.18465 1.17661 0)
(1.19342 1.20869 4.63924e-21)
(1.14394 1.18537 1.37096e-20)
(1.07422 1.14657 -4.52976e-21)
(0.999555 1.10449 9.3095e-21)
(0.915569 1.05887 -3.16103e-21)
(0.822493 1.00682 6.35965e-20)
(0.718221 0.944146 -1.49949e-21)
(0.616482 0.87307 2.82624e-19)
(0.529162 0.79152 -1.22564e-20)
(0.432736 0.654289 1.47683e-20)
(0.30063 0.42046 1.88437e-20)
(0.15971 0.220116 -8.61466e-22)
(0.0773406 1.03796 3.42965e-22)
(0.112151 2.78235 -1.71448e-19)
(0.11656 3.30325 -6.43293e-20)
(0.109428 3.4227 3.38411e-20)
(0.100784 3.442 -3.83174e-20)
(0.158067 0.172009 1.65696e-20)
(1.00785 1.02171 0)
(1.17298 1.19902 -3.908e-20)
(1.18143 1.23148 -4.15428e-20)
(1.13205 1.20811 3.33183e-20)
(1.06277 1.16956 5.7458e-21)
(0.987842 1.12737 -9.34141e-21)
(0.903238 1.08222 3.4453e-20)
(0.808833 1.03112 -5.2427e-20)
(0.701749 0.970144 0)
(0.594387 0.901171 1.40589e-19)
(0.49715 0.821104 -8.71122e-20)
(0.386442 0.684443 0)
(0.236397 0.41324 1.86138e-20)
(0.112444 0.7016 4.34118e-20)
(0.126826 2.59542 -4.84691e-20)
(0.172192 3.32629 5.47625e-20)
(0.157329 3.42954 2.94121e-20)
(0.131647 3.44849 3.31153e-20)
(0.113837 3.45751 5.28155e-20)
(0.269466 0.263692 -3.19054e-20)
(0.988991 1.03087 0)
(1.15359 1.22446 4.22675e-20)
(1.16597 1.26262 4.5987e-20)
(1.1138 1.24162 -3.79017e-20)
(1.04394 1.20338 -1.05054e-20)
(0.967777 1.16272 6.86395e-21)
(0.882445 1.11877 2.75053e-21)
(0.78626 1.0698 5.01544e-20)
(0.675436 1.01281 1.13548e-19)
(0.560586 0.949837 7.93638e-21)
(0.447321 0.869562 7.87755e-20)
(0.298581 0.705619 1.43036e-20)
(0.194061 0.848424 -1.81008e-20)
(0.20048 2.48257 -4.00551e-20)
(0.251435 3.32683 3.92181e-20)
(0.234198 3.45075 -4.28825e-20)
(0.201138 3.4705 -2.45263e-20)
(0.168891 3.49556 -2.22629e-20)
(0.124495 3.49183 -3.2046e-21)
(0.259318 0.262361 0)
(0.985393 1.05332 1.24196e-20)
(1.14422 1.24788 -8.73865e-21)
(1.1543 1.28615 -5.52406e-21)
(1.10213 1.2649 -2.63607e-20)
(1.03223 1.22681 1.11978e-20)
(0.955664 1.18632 -2.85802e-21)
(0.869926 1.14319 2.45523e-21)
(0.772816 1.09569 -5.24029e-20)
(0.659885 1.04165 -2.58608e-21)
(0.540546 0.983501 -2.57571e-19)
(0.418264 0.905006 1.1355e-20)
(0.27451 0.779338 -1.36367e-20)
(0.230379 1.52449 -1.67252e-20)
(0.294925 3.14523 3.65001e-21)
(0.306058 3.45044 6.26927e-23)
(0.26579 3.49746 6.44564e-20)
(0.23278 3.52278 3.26834e-20)
(0.187657 3.54367 -1.07153e-20)
(0.138526 3.54139 -1.62004e-20)
(0.245131 0.260106 3.18673e-20)
(0.98084 1.07827 8.41834e-20)
(1.13446 1.27339 -2.48744e-20)
(1.14224 1.31131 -2.07027e-20)
(1.08996 1.28964 0)
(1.02011 1.25157 2.1928e-20)
(0.943437 1.21132 -1.1105e-21)
(0.857551 1.16898 2.13334e-21)
(0.75984 1.12311 -5.90519e-21)
(0.645386 1.07242 -1.03863e-19)
(0.522599 1.01983 -1.19596e-19)
(0.392501 0.941944 -9.32464e-20)
(0.275118 0.935575 -1.03225e-19)
(0.298101 2.33006 1.05993e-19)
(0.377509 3.37889 8.91105e-20)
(0.346688 3.50396 0)
(0.300007 3.54328 0)
(0.263946 3.57814 -8.62478e-21)
(0.221737 3.62308 0)
(0.152737 3.60986 -1.33829e-20)
(0.235141 0.26178 -4.75431e-20)
(0.974341 1.10402 -7.13451e-20)
(1.12328 1.30011 0)
(1.12889 1.33729 1.20365e-21)
(1.07653 1.31505 -2.90032e-20)
(1.00689 1.27691 3.65486e-20)
(0.930432 1.23695 1.01825e-21)
(0.844634 1.19536 1.06961e-21)
(0.746588 1.15113 -3.69744e-20)
(0.631092 1.10388 5.15584e-21)
(0.505902 1.05703 0)
(0.368174 0.98209 0)
(0.296833 1.24651 -9.41676e-20)
(0.380225 2.98377 3.82362e-20)