/*--------------------------------*- C++ -*----------------------------------*\
  =========                 |
  \\      /  F ield         | OpenFOAM: The Open Source CFD Toolbox
   \\    /   O peration     | Website:  https://openfoam.org
    \\  /    A nd           | Version:  6
     \\/     M anipulation  |
\*---------------------------------------------------------------------------*/
FoamFile
{
    version     2.0;
    format      ascii;
    class       volVectorField;
    location    "30.9";
    object      U;
}
// * * * * * * * * * * * * * * * * * * * * * * * * * * * * * * * * * * * * * //

dimensions      [0 1 -1 0 0 0 0];

internalField   nonuniform List<vector> 
8800
(
(0.987189 -0.0766663 0)
(1.0019 -0.0551904 0)
(0.999757 -0.0285492 0)
(1.00004 -0.0151404 0)
(1.00004 -0.00853213 0)
(1.00001 -0.0050261 0)
(0.999995 -0.00299182 0)
(0.999986 -0.00171774 0)
(0.999981 -0.000835813 0)
(1.00005 -0.000128375 0)
(0.99999 0.000593555 0)
(1 0.00136292 0)
(1.00001 0.0023879 0)
(1.00002 0.00396702 0)
(1.00003 0.00660402 0)
(1.00006 0.0113501 0)
(0.999974 0.0208004 0)
(0.999177 0.0386593 0)
(1.00709 0.0724518 0)
(0.771215 0.0366599 0)
(0.363047 -0.0160196 0)
(1.04329 -0.0768286 0)
(1.08462 -0.0704716 0)
(1.04522 -0.0535748 0)
(1.02327 -0.0389334 0)
(1.01192 -0.0262624 0)
(1.0063 -0.0169152 0)
(1.00349 -0.0104082 0)
(1.00209 -0.00577106 0)
(1.00144 -0.00214799 0)
(1.00133 0.00110975 0)
(1.0017 0.00447188 0)
(1.00267 0.0084365 0)
(1.00464 0.0138221 0)
(1.00859 0.0215643 0)
(1.01659 0.0325423 0)
(1.03256 0.0464672 0)
(1.06273 0.0616009 0)
(1.0919 0.076047 0)
(0.838755 0.0565414 0)
(0.216777 -0.00243141 0)
(1.07586 -0.0501625 0)
(1.09987 -0.0483513 0)
(1.06459 -0.040504 0)
(1.0399 -0.0336434 0)
(1.02372 -0.0261341 0)
(1.01396 -0.0186179 0)
(1.00844 -0.0118773 0)
(1.00551 -0.00606524 0)
(1.00429 -0.000683373 0)
(1.00467 0.00454991 0)
(1.00663 0.00993259 0)
(1.01061 0.0160424 0)
(1.01793 0.0230854 0)
(1.03055 0.030575 0)
(1.05068 0.0376447 0)
(1.08045 0.0443704 0)
(1.10639 0.0512247 0)
(0.942759 0.0415589 0)
(0.216306 0.00245317 0)
(0.175065 -0.00081888 0)
(1.01756 -0.0355293 0)
(1.10516 -0.0414578 0)
(1.0782 -0.0361597 0)
(1.05328 -0.0302391 0)
(1.03594 -0.0246908 0)
(1.02373 -0.0190229 0)
(1.01566 -0.0130161 0)
(1.01088 -0.0068937 0)
(1.00877 -0.00064225 0)
(1.00939 0.00553369 0)
(1.01265 0.0115234 0)
(1.01885 0.0174139 0)
(1.02877 0.0230657 0)
(1.04328 0.0284192 0)
(1.06387 0.0339434 0)
(1.09376 0.0399731 0)
(1.09369 0.04179 0)
(0.827671 0.0228351 0)
(0.174275 0.000843593 0)
(0.153824 -0.000612174 0)
(0.955933 -0.0254993 0)
(1.1033 -0.0351995 0)
(1.08749 -0.0327478 0)
(1.06143 -0.0281216 0)
(1.0438 -0.0231411 0)
(1.03139 -0.0180017 0)
(1.02258 -0.0126043 0)
(1.01684 -0.00676361 0)
(1.01409 -0.000364816 0)
(1.01486 0.00606069 0)
(1.01888 0.0119264 0)
(1.0259 0.017244 0)
(1.03622 0.0222113 0)
(1.05082 0.0270277 0)
(1.07208 0.0316138 0)
(1.10034 0.0356073 0)
(1.06862 0.0337655 0)
(0.740517 0.0142014 0)
(0.15264 0.00064009 0)
(0.139415 -0.000468394 0)
(0.898905 -0.0191112 0)
(1.09556 -0.0301601 0)
(1.09553 -0.0292892 0)
(1.06888 -0.0255635 0)
(1.05035 -0.0214785 0)
(1.03746 -0.0168588 0)
(1.02842 -0.0117515 0)
(1.0224 -0.00614929 0)
(1.01941 7.70725e-05 0)
(1.02014 0.00631435 0)
(1.02431 0.0119117 0)
(1.03146 0.0168816 0)
(1.04201 0.0213837 0)
(1.05728 0.0254229 0)
(1.07956 0.0289747 0)
(1.10277 0.0317012 0)
(1.03698 0.0277503 0)
(0.674577 0.0100595 0)
(0.137749 0.000500501 0)
(0.128848 -0.000362031 0)
(0.84922 -0.0147254 0)
(1.08299 -0.0259945 0)
(1.10101 -0.0263615 0)
(1.07556 -0.0231839 0)
(1.05658 -0.0196417 0)
(1.04325 -0.0155126 0)
(1.03384 -0.0107265 0)
(1.02757 -0.00535423 0)
(1.02441 0.000607887 0)
(1.02503 0.00655286 0)
(1.02922 0.0118301 0)
(1.03655 0.0164319 0)
(1.04743 0.0204446 0)
(1.06307 0.0238609 0)
(1.08573 0.0268408 0)
(1.10205 0.0286501 0)
(1.00271 0.0230878 0)
(0.623599 0.00764414 0)
(0.126597 0.000400012 0)
(0.120797 -0.000279998 0)
(0.807092 -0.0115248 0)
(1.06764 -0.0223135 0)
(1.10437 -0.0235789 0)
(1.08159 -0.020715 0)
(1.06217 -0.0174368 0)
(1.04857 -0.0138135 0)
(1.03885 -0.00950094 0)
(1.03229 -0.00447626 0)
(1.02887 0.00124939 0)
(1.02939 0.00695409 0)
(1.03361 0.0118568 0)
(1.04109 0.0159145 0)
(1.05213 0.0192612 0)
(1.06806 0.0221704 0)
(1.09111 0.0249529 0)
(1.09871 0.0260126 0)
(0.96848 0.0193594 0)
(0.583108 0.0060418 0)
(0.117838 0.000325472 0)
(0.114587 -0.000215489 0)
(0.771766 -0.00909427 0)
(1.05077 -0.0190415 0)
(1.1066 -0.021135 0)
(1.08724 -0.0187456 0)
(1.06731 -0.0156233 0)
(1.05341 -0.0121054 0)
(1.04354 -0.00800238 0)
(1.0368 -0.00328843 0)
(1.03317 0.00203299 0)
(1.03354 0.00727048 0)
(1.03765 0.0117435 0)
(1.04508 0.015386 0)
(1.05619 0.0184412 0)
(1.07246 0.0211322 0)
(1.09532 0.0235431 0)
(1.09269 0.023733 0)
(0.935589 0.0163652 0)
(0.550192 0.00490538 0)
(0.110766 0.000269907 0)
(0.109801 -0.000161919 0)
(0.742488 -0.00715771 0)
(1.03361 -0.0160098 0)
(1.10763 -0.0185487 0)
(1.09239 -0.0165089 0)
(1.07235 -0.0135944 0)
(1.05824 -0.0102561 0)
(1.04814 -0.00638878 0)
(1.04114 -0.00201614 0)
(1.03727 0.00296573 0)
(1.03742 0.00784174 0)
(1.04146 0.0118146 0)
(1.04883 0.0149775 0)
(1.05998 0.0176462 0)
(1.07638 0.0199839 0)
(1.09815 0.0220265 0)
(1.08447 0.0215627 0)
(0.904897 0.0139428 0)
(0.522962 0.00406186 0)
(0.10493 0.000228189 0)
(0.106165 -0.000118188 0)
(0.718477 -0.00555706 0)
(1.01713 -0.0132549 0)
(1.10804 -0.016047 0)
(1.09743 -0.0142278 0)
(1.07702 -0.0113961 0)
(1.06262 -0.008273 0)
(1.05236 -0.00464857 0)
(1.04521 -0.000516259 0)
(1.04114 0.00411379 0)
(1.04099 0.00853938 0)
(1.04473 0.0120972 0)
(1.05194 0.014843 0)
(1.06308 0.0170349 0)
(1.07974 0.0189558 0)
(1.09988 0.0206915 0)
(1.07476 0.0196357 0)
(0.87665 0.0119806 0)
(0.500099 0.00342719 0)
(0.100015 0.000198457 0)
(0.103491 -7.98749e-05 0)
(0.699193 -0.00417192 0)
(1.00183 -0.0106486 0)
(1.10765 -0.0135954 0)
(1.10221 -0.0121331 0)
(1.08157 -0.00941248 0)
(1.06678 -0.00630912 0)
(1.05629 -0.00272992 0)
(1.04891 0.00124187 0)
(1.04448 0.00550814 0)
(1.04402 0.00944877 0)
(1.04748 0.012529 0)
(1.05449 0.0148459 0)
(1.06569 0.0167132 0)
(1.08268 0.0183913 0)
(1.10068 0.0196506 0)
(1.06374 0.0179391 0)
(0.85087 0.0103894 0)
(0.480645 0.00294747 0)
(0.0957681 0.000178432 0)
(0.101687 -4.21232e-05 0)
(0.684287 -0.00287352 0)
(0.988365 -0.00805081 0)
(1.10655 -0.010833 0)
(1.1063 -0.00961614 0)
(1.08593 -0.00704081 0)
(1.07089 -0.00396686 0)
(1.06004 -0.000548373 0)
(1.05222 0.00316149 0)
(1.04737 0.00717601 0)
(1.04646 0.0107869 0)
(1.04966 0.0133685 0)
(1.05663 0.0151714 0)
(1.06777 0.0166023 0)
(1.08468 0.0178427 0)
(1.10018 0.0185808 0)
(1.05175 0.0162494 0)
(0.827578 0.00901018 0)
(0.463976 0.00255244 0)
(0.0920381 0.000162713 0)
(0.100721 -4.78229e-06 0)
(0.673667 -0.00166214 0)
(0.977347 -0.00550718 0)
(1.10546 -0.00787502 0)
(1.11028 -0.00667246 0)
(1.09033 -0.00416438 0)
(1.07502 -0.00125525 0)
(1.06394 0.0020513 0)
(1.05586 0.00561257 0)
(1.05057 0.00924859 0)
(1.04912 0.0123043 0)
(1.0518 0.0143265 0)
(1.05836 0.0155864 0)
(1.06938 0.0164368 0)
(1.08628 0.0171313 0)
(1.09884 0.017478 0)
(1.0394 0.0147198 0)
(0.806739 0.00787945 0)
(0.449623 0.00225812 0)
(0.0886987 0.000153924 0)
(0.100564 2.3562e-05 0)
(0.667173 -0.000427916 0)
(0.968979 -0.00294474 0)
(1.10461 -0.00488923 0)
(1.11408 -0.00380955 0)
(1.09436 -0.00140308 0)
(1.07865 0.00149895 0)
(1.06725 0.00477903 0)
(1.05874 0.008282 0)
(1.05284 0.0117565 0)
(1.05074 0.0144662 0)
(1.05285 0.0160481 0)
(1.05904 0.0167655 0)
(1.06998 0.0170557 0)
(1.08681 0.0171776 0)
(1.09643 0.0169166 0)
(1.02668 0.0135397 0)
(0.787991 0.00699404 0)
(0.437078 0.00205127 0)
(0.0856037 0.000151953 0)
(0.101285 8.972e-05 0)
(0.664838 0.000821221 0)
(0.963455 -0.00029531 0)
(1.1039 -0.00161569 0)
(1.11752 -0.000655052 0)
(1.0985 0.00168871 0)
(1.0826 0.00474514 0)
(1.07083 0.00813333 0)
(1.06174 0.0115787 0)
(1.05507 0.0148499 0)
(1.05219 0.0171695 0)
(1.05366 0.0181025 0)
(1.05931 0.018254 0)
(1.06987 0.0180252 0)
(1.08638 0.0175373 0)
(1.09246 0.0165064 0)
(1.01348 0.0124806 0)
(0.771137 0.00630147 0)
(0.426016 0.00190449 0)
(0.0827103 0.000147216 0)
(0.102969 0.000123432 0)
(0.666264 0.00184659 0)
(0.961287 0.00218715 0)
(1.10407 0.00175843 0)
(1.12104 0.00295393 0)
(1.10278 0.00543157 0)
(1.08669 0.00860511 0)
(1.07453 0.0120627 0)
(1.06491 0.0155432 0)
(1.05745 0.0186742 0)
(1.05343 0.0205837 0)
(1.05388 0.0209679 0)
(1.05883 0.0203866 0)
(1.06886 0.0194171 0)
(1.08486 0.0184187 0)
(1.0871 0.0165909 0)
(1.0001 0.0121201 0)
(0.755589 0.00616218 0)
(0.41563 0.00194377 0)
(0.0799033 0.000153319 0)
(0.105553 0.000172712 0)
(0.671407 0.00286694 0)
(0.962513 0.00449823 0)
(1.10574 0.00506194 0)
(1.12502 0.00668827 0)
(1.10725 0.00955927 0)
(1.09082 0.0130917 0)
(1.07807 0.0168122 0)
(1.06757 0.0204234 0)
(1.05894 0.0233626 0)
(1.05372 0.0247624 0)
(1.05314 0.0245283 0)
(1.05728 0.023299 0)
(1.06686 0.0217042 0)
(1.08217 0.0200568 0)
(1.08063 0.017636 0)
(0.986371 0.0126613 0)
(0.740324 0.00662344 0)
(0.404823 0.00217867 0)
(0.0769145 0.000172769 0)
(0.109065 0.000224406 0)
(0.679935 0.00388458 0)
(0.966757 0.00666029 0)
(1.1092 0.00826397 0)
(1.12998 0.0104204 0)
(1.1125 0.0138165 0)
(1.09564 0.0178825 0)
(1.08225 0.0221342 0)
(1.07078 0.0261527 0)
(1.06075 0.0291751 0)
(1.05396 0.0302367 0)
(1.05205 0.0294471 0)
(1.05514 0.0275296 0)
(1.06401 0.025286 0)
(1.07838 0.0229453 0)
(1.07292 0.0197336 0)
(0.971825 0.0140915 0)
(0.72422 0.00762014 0)
(0.392591 0.00256669 0)
(0.0734675 0.000204021 0)
(0.113623 0.000294222 0)
(0.691971 0.00513503 0)
(0.974343 0.00919183 0)
(1.11442 0.0119183 0)
(1.1358 0.0146171 0)
(1.11853 0.0186507 0)
(1.10121 0.023464 0)
(1.08686 0.0284721 0)
(1.07401 0.0330539 0)
(1.06216 0.0363565 0)
(1.0535 0.0372052 0)
(1.05004 0.0357456 0)
(1.052 0.0330622 0)
(1.06009 0.0300894 0)
(1.07321 0.0268829 0)
(1.06351 0.0227029 0)
(0.955829 0.0162454 0)
(0.706192 0.00900951 0)
(0.378205 0.00305605 0)
(0.069372 0.000242826 0)
(0.119575 0.000392179 0)
(0.708088 0.00679456 0)
(0.985865 0.0123868 0)
(1.12212 0.016551 0)
(1.14292 0.0202867 0)
(1.12578 0.0252963 0)
(1.10788 0.0310063 0)
(1.09236 0.0368237 0)
(1.07776 0.0419215 0)
(1.06372 0.0452366 0)
(1.0527 0.0455335 0)
(1.04733 0.0432402 0)
(1.04783 0.0396554 0)
(1.05489 0.0355844 0)
(1.06642 0.031455 0)
(1.05233 0.0262927 0)
(0.938082 0.0190167 0)
(0.685289 0.0106506 0)
(0.361216 0.00359596 0)
(0.0645222 0.000284928 0)
(0.127447 0.00053612 0)
(0.729242 0.00912349 0)
(1.00215 0.0165716 0)
(1.1334 0.0224342 0)
(1.15243 0.027786 0)
(1.13467 0.0342189 0)
(1.11572 0.0411178 0)
(1.09848 0.0477647 0)
(1.08153 0.053202 0)
(1.06472 0.0561533 0)
(1.05098 0.0553523 0)
(1.04353 0.0516743 0)
(1.04248 0.0468244 0)
(1.04831 0.042012 0)
(1.05806 0.0370825 0)
(1.03958 0.0310818 0)
(0.917589 0.0226234 0)
(0.660542 0.0125006 0)
(0.341345 0.00419557 0)
(0.0588907 0.000329403 0)
(0.138025 0.0007478 0)
(0.75674 0.0124386 0)
(1.02377 0.0220968 0)
(1.14896 0.0297196 0)
(1.16524 0.0370158 0)
(1.14577 0.0452015 0)
(1.12492 0.0535958 0)
(1.10518 0.0611861 0)
(1.08525 0.0669943 0)
(1.06502 0.0695568 0)
(1.04811 0.0676799 0)
(1.03827 0.06259 0)
(1.03568 0.0562539 0)
(1.04061 0.0501607 0)
(1.04865 0.0447218 0)
(1.02468 0.0375091 0)
(0.892545 0.0268426 0)
(0.631371 0.0145883 0)
(0.318256 0.0048711 0)
(0.0524024 0.000376244 0)
(0.152495 0.00108438 0)
(0.792469 0.0174013 0)
(1.05165 0.0298289 0)
(1.16892 0.0392877 0)
(1.18162 0.0484855 0)
(1.15957 0.0586099 0)
(1.13569 0.0684912 0)
(1.11261 0.077224 0)
(1.089 0.0835634 0)
(1.06478 0.0859288 0)
(1.04435 0.0832598 0)
(1.03178 0.0771129 0)
(1.02725 0.0696302 0)
(1.03124 0.0622289 0)
(1.03745 0.055168 0)
(1.00487 0.0454026 0)
(0.861548 0.0314688 0)
(0.597522 0.017019 0)
(0.291563 0.00563817 0)
(0.0450175 0.000423528 0)
(0.172971 0.00168406 0)
(0.839786 0.025188 0)
(1.0882 0.0415103 0)
(1.19342 0.0534137 0)
(1.20133 0.0644934 0)
(1.17557 0.0761972 0)
(1.14795 0.0874444 0)
(1.12078 0.0971504 0)
(1.09277 0.103776 0)
(1.06407 0.105658 0)
(1.03981 0.101896 0)
(1.02434 0.0945502 0)
(1.01744 0.0858482 0)
(1.01942 0.0768412 0)
(1.02136 0.0668612 0)
(0.978011 0.0535337 0)
(0.824937 0.036641 0)
(0.55872 0.0198909 0)
(0.260937 0.00646969 0)
(0.0367684 0.000464011 0)
(0.202738 0.00302112 0)
(0.904413 0.0385367 0)
(1.13655 0.0608181 0)
(1.22242 0.0756446 0)
(1.22342 0.0886663 0)
(1.19319 0.101456 0)
(1.16121 0.113383 0)
(1.12911 0.123013 0)
(1.09602 0.128738 0)
(1.06244 0.128952 0)
(1.0341 0.123038 0)
(1.01549 0.11362 0)
(1.00576 0.102922 0)
(1.00398 0.091509 0)
(0.998986 0.0783414 0)
(0.944996 0.062011 0)
(0.783481 0.0428033 0)
(0.514561 0.0232987 0)
(0.226705 0.00737601 0)
(0.0279678 0.000491571 0)
(0.243652 0.00924291 3.06506e-20)
(0.990215 0.0652885 2.58676e-20)
(1.19476 0.0941947 -8.77992e-21)
(1.2544 0.110376 0)
(1.24591 0.12583 -1.97962e-34)
(1.21077 0.138146 2.82902e-21)
(1.1739 0.148932 -4.72675e-21)
(1.13629 0.156749 0)
(1.09764 0.160064 8.90239e-35)
(1.05867 0.157229 -5.09872e-21)
(1.02573 0.148002 0)
(1.00329 0.135527 -5.72384e-21)
(0.989739 0.122043 -1.66694e-20)
(0.982287 0.107859 -7.80512e-21)
(0.969199 0.0925362 -2.31531e-21)
(0.905212 0.0749191 -1.36771e-21)
(0.733047 0.0527118 0)
(0.460801 0.0287312 9.57709e-22)
(0.189324 0.00963767 1.13488e-21)
(0.0197983 0.00087527 2.07345e-20)
(0.270994 0.0247087 2.75926e-20)
(1.06075 0.107674 1.03407e-22)
(1.24195 0.142195 2.57705e-21)
(1.28393 0.159374 0)
(1.26577 0.174539 -1.07881e-20)
(1.22593 0.185171 -1.17741e-20)
(1.18405 0.193953 -4.9477e-21)
(1.14082 0.199372 -1.64267e-20)
(1.09621 0.199842 0)
(1.05103 0.193424 2.18015e-20)
(1.01214 0.180177 2.09948e-20)
(0.984198 0.163975 6.10699e-21)
(0.964872 0.147311 2.16454e-20)
(0.950164 0.130636 2.98321e-20)
(0.927894 0.113613 0)
(0.85568 0.0946301 4.15921e-20)
(0.675863 0.0682121 5.97398e-20)
(0.407361 0.0385903 6.65221e-20)
(0.158093 0.0139703 -7.63571e-20)
(0.0136995 0.00123532 -1.4539e-21)
(0.271102 0.0407307 0)
(1.10474 0.162934 5.99314e-21)
(1.27436 0.201396 0)
(1.30673 0.219322 -1.74138e-20)
(1.28128 0.231567 0)
(1.23715 0.239026 -2.4498e-20)
(1.19042 0.244378 1.04149e-20)
(1.14175 0.246233 -3.43275e-20)
(1.09145 0.242837 -3.16775e-22)
(1.0402 0.232198 1.15107e-20)
(0.995506 0.214755 4.56227e-20)
(0.962384 0.195201 -6.30088e-23)
(0.938052 0.176139 -1.56134e-20)
(0.918363 0.158208 -2.78429e-20)
(0.891705 0.140591 3.27892e-20)
(0.819151 0.119873 -5.80116e-20)
(0.644292 0.0885935 -7.6631e-21)
(0.390535 0.0524809 0)
(0.157948 0.0208922 4.46045e-24)
(0.0150643 0.00206874 0)
(0.264186 0.0545416 1.10593e-19)
(1.12801 0.221849 -4.8697e-20)
(1.29488 0.265603 -3.09875e-20)
(1.32147 0.28395 9.0253e-21)
(1.2909 0.292891 -1.47085e-20)
(1.24339 0.29665 5.2106e-20)
(1.19257 0.297994 2.21106e-20)
(1.13917 0.295705 0)
(1.0837 0.288015 -6.07035e-20)
(1.02699 0.272902 0)
(0.977018 0.251443 -2.42277e-20)
(0.939361 0.228981 -2.87048e-20)
(0.91117 0.208156 -1.68938e-20)
(0.888213 0.189201 -2.00844e-20)
(0.859699 0.170872 0)
(0.79122 0.148065 0)
(0.628632 0.11311 -4.9822e-20)
(0.393853 0.0712053 9.84598e-21)
(0.170051 0.0307616 -5.8038e-21)
(0.0194831 0.00372869 -6.87228e-21)
(0.256828 0.0668957 -6.7057e-20)
(1.1379 0.280584 0)
(1.30635 0.330872 7.47141e-20)
(1.3291 0.349675 2.80874e-20)
(1.29482 0.35541 3.21383e-20)
(1.24464 0.355511 0)
(1.19049 0.352857 2.29201e-20)
(1.13319 0.346347 3.88519e-20)
(1.07334 0.334315 3.19045e-20)
(1.01181 0.314769 5.35453e-20)
(0.957348 0.289456 0)
(0.915986 0.264343 -6.17457e-20)
(0.884833 0.241909 -3.6375e-20)
(0.859652 0.222111 -2.13081e-20)
(0.830382 0.203114 1.27937e-19)
(0.765872 0.179247 1.51926e-20)
(0.618669 0.140792 7.17432e-20)
(0.401585 0.0924807 -3.40178e-19)
(0.184116 0.0428894 2.0191e-19)
(0.0244608 0.00597724 -2.46483e-19)
(0.25021 0.0780919 -6.06953e-20)
(1.13946 0.337381 1.28709e-20)
(1.31117 0.395307 -1.08741e-20)
(1.33112 0.414679 -3.74443e-20)
(1.29398 0.417406 -3.24047e-20)
(1.24159 0.414013 3.48831e-22)
(1.18474 0.407563 -2.46424e-20)
(1.12419 0.397032 4.10444e-20)
(1.06062 0.380828 -6.8474e-20)
(0.995012 0.357002 0)
(0.936739 0.327964 -2.84904e-20)
(0.892432 0.300279 -3.19099e-22)
(0.859059 0.276249 -3.93751e-20)
(0.832338 0.255544 0)
(0.802936 0.235755 -2.75527e-20)
(0.742928 0.210668 -6.53226e-20)
(0.609227 0.169346 1.74823e-19)
(0.407811 0.114497 -1.72508e-19)
(0.195309 0.0556632 2.45521e-19)
(0.0285491 0.00841957 -2.58387e-19)
(0.244927 0.0885693 -1.04717e-22)
(1.13594 0.391601 -1.28968e-20)
(1.31126 0.458371 -4.44705e-20)
(1.32881 0.477958 1.91531e-20)
(1.28939 0.477934 -1.70889e-20)
(1.23515 0.471275 0)
(1.17601 0.461288 -2.51422e-20)
(1.11271 0.447005 -4.35482e-20)
(1.04597 0.426862 -3.61918e-20)
(0.976851 0.398934 0)
(0.915344 0.36627 -3.00178e-20)
(0.868645 0.335978 -3.56435e-20)
(0.833626 0.310223 4.24104e-20)
(0.805875 0.288461 -2.52178e-20)
(0.776653 0.268004 -1.19069e-19)
(0.720392 0.241624 7.07481e-20)
(0.598007 0.197747 2.11667e-20)
(0.408762 0.136198 0)
(0.200989 0.0678276 -2.35426e-19)
(0.0311293 0.0107228 -8.72709e-21)
(0.240961 0.0986272 -8.03267e-21)
(1.12937 0.443111 1.32408e-20)
(1.30769 0.519076 2.35147e-20)
(1.32317 0.538927 6.23634e-20)
(1.28192 0.536434 -7.08383e-20)
(1.22612 0.526794 6.20589e-20)
(1.16504 0.513553 5.38889e-20)
(1.09934 0.495807 -6.97573e-20)
(1.0298 0.471973 2.06059e-20)
(0.957573 0.440118 -1.31395e-19)
(0.893263 0.403873 -3.30029e-20)
(0.84456 0.37088 0)
(0.808333 0.343246 4.56606e-20)
(0.779993 0.320178 5.38682e-20)
(0.751209 0.298781 6.38204e-20)
(0.698226 0.270905 -7.61953e-20)
(0.58415 0.224264 -2.25706e-20)
(0.403911 0.155757 2.66717e-20)
(0.200663 0.0779508 0)
(0.0318722 0.0124915 -1.87843e-20)
(0.238132 0.108353 8.11964e-20)
(1.12127 0.491983 -5.43113e-20)
(1.30149 0.577052 -2.47785e-20)
(1.31506 0.59727 4.3387e-20)
(1.27227 0.592568 -3.6669e-20)
(1.21517 0.580234 -8.1006e-22)
(1.1524 0.564066 -5.80242e-20)
(1.0846 0.543158 -2.50092e-20)
(1.01254 0.515891 -6.243e-20)
(0.937471 0.480296 4.68128e-23)
(0.870586 0.44048 -1.04543e-19)
(0.820206 0.404632 8.36955e-20)
(0.783039 0.37486 -4.94681e-20)
(0.75442 0.350236 5.84779e-20)
(0.726149 0.327557 0)
(0.67571 0.297894 -4.09677e-20)
(0.567704 0.24777 -1.75801e-22)
(0.393914 0.172009 -1.15015e-19)
(0.195907 0.0854756 -1.70198e-20)
(0.0311932 0.0136196 0)
(0.236328 0.117932 0)
(1.11245 0.538447 -5.73446e-20)
(1.29336 0.632241 -5.07157e-20)
(1.30514 0.652854 -4.54357e-20)
(1.26104 0.646156 -4.04711e-20)
(1.20281 0.631423 0)
(1.13859 0.612638 -2.94572e-20)
(1.06892 0.588875 -2.40072e-22)
(0.99456 0.558464 1.33572e-19)
(0.916825 0.519324 -1.84296e-20)
(0.847524 0.475965 -7.49964e-20)
(0.795551 0.437111 4.41248e-20)
(0.757647 0.404945 -4.07034e-22)
(0.728849 0.378431 6.23186e-20)
(0.70105 0.354127 3.75475e-20)
(0.652462 0.322238 -8.81108e-20)
(0.548506 0.267976 1.045e-19)
(0.37943 0.184858 3.09618e-20)
(0.186987 0.090187 1.28325e-19)
(0.0291903 0.0140226 -3.47454e-19)
(0.235396 0.127487 1.69201e-20)
(1.10347 0.582645 -2.89991e-20)
(1.28394 0.684677 2.46372e-20)
(1.29396 0.705638 4.69226e-20)
(1.24873 0.697126 0)
(1.18953 0.680261 -3.53409e-20)
(1.12403 0.659159 9.57548e-20)
(1.05268 0.632848 5.62009e-20)
(0.976192 0.599594 0)
(0.895886 0.557147 -2.60254e-19)
(0.824185 0.510283 2.01466e-19)
(0.770647 0.468295 0)
(0.731971 0.43345 5.7143e-20)
(0.703053 0.404772 -4.04628e-22)
(0.675655 0.378479 -1.20052e-19)
(0.628282 0.343875 4.70488e-20)
(0.526873 0.284627 0)
(0.361354 0.193996 1.66341e-19)
(0.174885 0.0925164 0)
(0.0263783 0.013823 -1.63491e-19)
(0.235163 0.13702 -1.73956e-20)
(1.09468 0.624723 -2.93607e-20)
(1.27364 0.73437 2.66971e-20)
(1.28195 0.755616 0)
(1.23573 0.745473 -4.37254e-20)
(1.17569 0.726727 0)
(1.10905 0.703576 -9.9915e-20)
(1.03618 0.675014 -2.85388e-20)
(0.957688 0.639231 2.46238e-20)
(0.874858 0.593746 -1.28565e-19)
(0.800677 0.543478 2.11696e-20)
(0.745428 0.498215 0)
(0.705898 0.460478 -1.2211e-19)
(0.676842 0.429319 4.14242e-22)
(0.649708 0.400676 0)
(0.602938 0.362826 4.57174e-22)
(0.502786 0.297805 1.50805e-19)
(0.34002 0.19939 -1.43154e-19)
(0.160391 0.0923611 4.23949e-20)
(0.0230154 0.0130453 0)
(0.235285 0.146414 0)
(1.08625 0.664704 -3.01044e-20)
(1.26285 0.7814 -2.66274e-20)
(1.26943 0.802845 -4.61675e-22)
(1.22234 0.791223 -2.1974e-20)
(1.16158 0.770821 -8.02877e-20)
(1.09394 0.745876 3.61123e-20)
(1.01968 0.715349 -3.15935e-20)
(0.939276 0.677343 1.07126e-19)
(0.853914 0.629124 -2.05621e-19)
(0.777075 0.575612 -6.84571e-22)
(0.71992 0.527004 -5.5019e-20)
(0.679433 0.486115 1.97024e-19)
(0.650132 0.452204 -4.87987e-22)
(0.623113 0.42083 -9.24104e-20)
(0.576356 0.379103 -1.64439e-19)
(0.476516 0.307562 0)
(0.316041 0.201254 0)
(0.144111 0.0897541 4.56059e-20)
(0.0193188 0.0117698 -2.70382e-20)
(0.235913 0.155764 -1.81527e-20)
(1.07831 0.702583 6.27879e-20)
(1.25177 0.825854 2.83773e-20)
(1.25668 0.847391 0)
(1.20883 0.834432 -3.22443e-22)
(1.14744 0.812577 -8.30676e-20)
(1.07892 0.786072 9.36339e-20)
(1.00338 0.753851 1.31084e-19)
(0.921151 0.713935 1.41436e-19)
(0.833238 0.663318 -1.69494e-19)
(0.753576 0.606793 -1.725e-19)
(0.69426 0.554823 1.47112e-19)
(0.652523 0.510563 0)
(0.622833 0.473559 -4.2091e-20)
(0.595759 0.43904 -9.95538e-20)
(0.548449 0.392754 -1.1777e-19)
(0.447768 0.313779 -1.39782e-19)
(0.289863 0.199601 4.14211e-20)
(0.12642 0.0847629 -2.44842e-20)
(0.0153545 0.0100209 6.77698e-23)
(0.236712 0.164896 0)
(1.07086 0.738781 0)
(1.2406 0.867806 5.44713e-22)
(1.2439 0.889336 0)
(1.19538 0.875181 7.22032e-20)
(1.13345 0.852053 6.45478e-20)
(1.06417 0.824194 0)
(0.987456 0.790533 1.68061e-20)
(0.903493 0.749017 2.39289e-19)
(0.813035 0.696372 -3.88866e-19)
(0.730366 0.637139 0)
(0.66849 0.581857 -9.44633e-20)
(0.625153 0.534011 -5.94206e-22)
(0.594851 0.493517 -4.84447e-22)
(0.567575 0.455333 1.06427e-19)
(0.519248 0.403679 -8.08152e-23)
(0.416999 0.316403 -3.00292e-19)
(0.261509 0.194313 8.89782e-20)
(0.107939 0.0776961 2.63843e-20)
(0.0114171 0.00797006 0)
(0.237494 0.173857 5.66934e-20)
(1.06367 0.773277 3.31802e-20)
(1.22944 0.907329 5.96264e-20)
(1.23124 0.928779 -1.10361e-19)
(1.18214 0.913536 1.25329e-19)
(1.11976 0.889305 0)
(1.04981 0.860287 6.18706e-20)
(0.972052 0.825423 -3.64076e-20)
(0.886451 0.782609 7.80844e-22)
(0.79347 0.728321 2.81273e-20)
(0.707576 0.666735 2.24128e-19)
(0.642744 0.608315 -3.33829e-20)
(0.597328 0.556695 -1.20997e-19)
(0.566061 0.512243 -4.86874e-20)
(0.538396 0.469646 5.75483e-20)
(0.488721 0.411604 -5.03678e-23)
(0.384677 0.315169 8.07883e-20)
(0.232015 0.185541 -1.91113e-19)
(0.0894346 0.0689779 2.26736e-19)
(0.00765254 0.00574011 3.34976e-20)
(0.238014 0.18254 -1.93023e-20)
(1.05679 0.806145 1.7176e-20)
(1.21843 0.944533 1.26711e-21)
(1.2188 0.965835 -5.6475e-20)
(1.16923 0.949601 -2.54149e-20)
(1.10647 0.924401 -1.21012e-19)
(1.03597 0.894395 2.09606e-20)
(0.957273 0.858541 -1.54304e-19)
(0.870146 0.814712 -2.69201e-19)
(0.774666 0.759164 -2.34366e-19)
(0.685383 0.695655 0)
(0.617186 0.634371 -1.44606e-19)
(0.569099 0.578934 1.73436e-19)
(0.536281 0.529982 0)
(0.507912 0.48186 -1.23165e-19)
(0.456772 0.416018 7.33057e-20)
(0.351211 0.309616 -8.66836e-20)
(0.20252 0.173475 -1.02733e-19)
(0.0718518 0.0591535 -1.82469e-19)
(0.00429122 0.00351412 -1.44057e-19)
(0.238839 0.191032 1.96657e-20)
(1.05006 0.837361 -1.83526e-20)
(1.20762 0.979481 -4.64463e-20)
(1.20668 1.00059 -7.36089e-20)
(1.15671 0.983461 5.49922e-20)
(1.09366 0.95742 -7.54219e-20)
(1.02271 0.92657 6.78031e-20)
(0.943195 0.889929 -1.62695e-19)
(0.85465 0.845343 -1.6077e-19)
(0.756747 0.788917 2.47797e-19)
(0.663958 0.723955 4.93779e-19)
(0.591988 0.660173 0)
(0.540564 0.601051 0)
(0.505311 0.547128 -5.59329e-20)
(0.475554 0.491898 0)
(0.422971 0.416011 1.5757e-19)
(0.317207 0.298713 1.86357e-19)
(0.174713 0.157996 0)
(0.0565501 0.0488121 0)
(0.00153642 0.00148005 1.54688e-19)
(0.239264 0.199001 -1.98942e-20)
(1.04351 0.866912 -1.65451e-20)
(1.19708 1.01228 -3.26852e-20)
(1.19493 1.03315 6.04473e-20)
(1.14464 1.01521 5.72623e-20)
(1.08138 0.988432 9.15392e-20)
(1.01009 0.956867 -9.56948e-20)
(0.92987 0.919614 6.43903e-23)
(0.840034 0.874509 -1.01395e-21)
(0.739817 0.817575 -1.16962e-21)
(0.643467 0.751665 2.54767e-19)
(0.567343 0.685832 0)
(0.511916 0.623341 1.74408e-19)
(0.473024 0.564237 1.19345e-19)
(0.440471 0.50006 2.85485e-19)
(0.386133 0.410541 8.46001e-20)
(0.282958 0.280172 -1.00354e-19)
(0.151891 0.137188 -5.9161e-20)
(0.0478194 0.0375862 0)
(0.000356588 -0.000115247 1.66094e-19)
(0.24 0.206948 4.00138e-20)
(1.03712 0.894942 0)
(1.18682 1.04299 -3.29129e-20)
(1.18357 1.06361 4.73427e-20)
(1.13308 1.04494 -5.8799e-20)
(1.06966 1.01752 -1.22187e-19)
(0.998139 0.985342 1.99961e-19)
(0.917328 0.947632 -1.22825e-20)
(0.826338 0.90222 0)
(0.723948 0.845103 -2.78426e-19)
(0.624059 0.778784 -5.57817e-19)
(0.543481 0.711429 2.164e-20)
(0.48344 0.646024 2.39655e-19)
(0.439474 0.581943 0)
(0.401753 0.507335 1.91771e-19)
(0.343828 0.399446 0)
(0.245859 0.250268 0)
(0.137063 0.100565 -6.39075e-20)
(0.0670996 0.0121994 0)
(0.0243905 0.00577512 4.45134e-20)
(0.240259 0.214271 4.05503e-20)
(1.03088 0.921669 0)
(1.17682 1.07181 -5.02015e-20)
(1.17257 1.0922 0)
(1.12197 1.0729 2.95995e-20)
(1.05845 1.04496 0)
(0.986787 1.0123 1.21638e-20)
(0.905476 0.97432 2.31593e-20)
(0.813446 0.928846 2.0362e-20)
(0.708986 0.871887 -3.08996e-19)
(0.605603 0.80576 1.72488e-20)
(0.520233 0.737539 1.71972e-19)
(0.454889 0.669697 2.33707e-19)
(0.404132 0.601161 3.08776e-20)
(0.357924 0.515739 1.49474e-19)
(0.291953 0.384983 0)
(0.195228 0.209667 2.10507e-19)
(0.101974 0.0421085 -1.24074e-19)
(0.0349978 0.0577835 1.45468e-19)
(-0.0374522 0.442569 -1.72704e-19)
(0.240427 0.221377 -3.11819e-20)
(1.02457 0.946984 -5.39283e-20)
(1.16703 1.09905 0)
(1.16181 1.11934 1.10271e-21)
(1.11115 1.09967 -7.55745e-20)
(1.04749 1.07143 2.11632e-19)
(0.975739 1.03854 7.75424e-20)
(0.893927 1.00063 0)
(0.800854 0.955492 1.41912e-19)
(0.694286 0.899242 -1.69034e-20)
(0.58723 0.834088 0)
(0.496467 0.765957 0)
(0.424882 0.696178 2.0885e-19)
(0.365421 0.623457 -9.43446e-20)
(0.306536 0.528431 -1.50414e-19)
(0.226715 0.372775 0)
(0.109492 0.196577 1.0634e-19)
(0.0118111 0.458582 -1.24649e-19)
(0.0359901 1.8964 -7.16276e-20)
(0.0636932 2.80825 -8.66306e-20)
(0.24023 0.227878 2.05102e-20)
(1.01826 0.971064 6.39509e-20)
(1.15745 1.12472 -2.68022e-20)
(1.15131 1.14489 -3.32294e-20)
(1.10069 1.12504 0)
(1.03686 1.09667 1.44912e-19)
(0.965187 1.06375 1.17688e-19)
(0.882856 1.02612 -1.19774e-20)
(0.788821 0.981637 2.09245e-20)
(0.68022 0.92655 2.99488e-19)
(0.569547 0.863055 2.86712e-19)
(0.473175 0.796311 1.94097e-19)
(0.394547 0.725083 2.09693e-19)
(0.325381 0.647386 -2.2042e-19)
(0.25444 0.547746 -2.26082e-19)
(0.147456 0.405 0)
(0.0515836 0.861379 0)
(0.0990587 2.56039 6.0488e-20)
(0.101812 3.19803 0)
(0.102467 3.38416 1.62013e-19)
(0.242791 0.233886 0)
(1.01218 0.994224 0)
(1.14781 1.14867 0)
(1.14084 1.16868 -8.09338e-21)
(1.0903 1.14879 -6.54871e-20)
(1.02634 1.12052 1.02831e-19)
(0.955054 1.08783 8.02557e-20)
(0.872191 1.05066 -1.21478e-20)
(0.777283 1.00711 1.86209e-19)
(0.666778 0.953647 -2.07045e-21)
(0.552637 0.89244 5.73151e-19)
(0.450788 0.828598 -2.20506e-20)
(0.36424 0.756859 2.57866e-20)
(0.286201 0.67057 3.17041e-20)
(0.196238 0.573494 -9.42194e-24)
(0.11081 1.00298 3.29048e-22)
(0.140559 2.72396 -3.09975e-19)
(0.148527 3.29395 -1.19839e-19)
(0.136236 3.42442 6.68208e-20)
(0.122694 3.44537 -7.69698e-20)
(0.16459 0.178448 -1.01839e-20)
(1.00174 1.01924 0)
(1.13807 1.17116 4.56293e-20)
(1.13077 1.19099 7.85137e-20)
(1.08044 1.17141 -1.22126e-19)
(1.01659 1.14341 -1.06185e-19)
(0.945126 1.1108 -8.93485e-20)
(0.861966 1.0743 1.56558e-19)
(0.766362 1.03192 -1.58019e-19)
(0.654237 0.980534 0)
(0.536871 0.922163 2.87348e-19)
(0.429841 0.862564 -1.60615e-19)
(0.334591 0.794296 0)
(0.24722 0.699383 3.0843e-20)
(0.158592 0.85631 7.30198e-20)
(0.154809 2.50666 -8.52705e-20)
(0.210444 3.32842 9.86602e-20)
(0.189474 3.44023 5.56191e-20)
(0.156446 3.45928 6.49777e-20)
(0.134968 3.46784 1.09354e-19)
(0.27792 0.272528 2.14097e-20)
(0.984976 1.02968 0)
(1.12046 1.19682 -4.21416e-20)
(1.11679 1.22427 -7.3376e-20)
(1.06479 1.20515 1.16623e-19)
(1.00048 1.17767 1.00626e-19)
(0.928019 1.1464 1.16194e-19)
(0.844216 1.11113 1.19258e-20)
(0.747279 1.07093 1.60414e-19)
(0.632466 1.02351 2.76813e-19)
(0.51013 0.971154 1.70093e-20)
(0.395456 0.91987 1.45921e-19)
(0.282082 0.862619 2.48895e-20)
(0.218006 1.02171 -3.00682e-20)
(0.225947 2.37102 -6.95608e-20)
(0.279272 3.33656 7.47593e-20)
(0.263466 3.47224 -8.5265e-20)
(0.227287 3.49042 -5.00438e-20)
(0.191348 3.51422 -5.22074e-20)
(0.144141 3.50709 -7.43428e-21)
(0.268047 0.271406 0)
(0.982416 1.05254 -7.56491e-21)
(1.1125 1.2203 7.21027e-21)
(1.10699 1.24754 7.07764e-21)
(1.05481 1.22834 7.16518e-20)
(0.990602 1.2011 -9.52342e-20)
(0.917837 1.17008 -7.28778e-20)
(0.833897 1.13566 1.13207e-20)
(0.73657 1.09694 -1.72815e-19)
(0.62072 1.05238 -2.99582e-21)
(0.496092 1.00467 -5.39012e-19)
(0.3776 0.95912 2.06653e-20)
(0.271566 0.936745 -2.40567e-20)
(0.254611 1.55141 -2.86627e-20)
(0.317366 3.12366 3.65751e-21)
(0.335003 3.47621 4.76833e-22)
(0.291806 3.52633 1.48268e-19)
(0.256007 3.54635 8.23334e-20)
(0.20847 3.56566 -4.00212e-20)
(0.155922 3.5603 -4.52525e-20)
(0.253725 0.26916 -1.51583e-20)
(0.978898 1.07794 -4.713e-20)
(1.10412 1.24581 2.01256e-20)
(1.09679 1.27235 2.69179e-20)
(1.04448 1.253 0)
(0.980393 1.22576 -1.2332e-19)
(0.907577 1.19502 -1.02131e-19)
(0.82376 1.16138 1.06921e-20)
(0.726355 1.12421 -1.88424e-20)
(0.609993 1.0827 -2.68338e-19)
(0.483904 1.0401 -2.57219e-19)
(0.363898 1.00172 -1.76835e-19)
(0.277723 1.0774 -1.84834e-19)
(0.318389 2.25556 1.88394e-19)
(0.398139 3.39733 1.74132e-19)
(0.374994 3.53773 0)
(0.323687 3.57348 0)
(0.285961 3.60643 -3.31492e-20)
(0.237187 3.65352 0)
(0.165701 3.63296 -6.49617e-20)
(0.243437 0.270779 1.81899e-20)
(0.973365 1.10417 3.43007e-20)
(1.09438 1.27255 0)
(1.08542 1.29807 1.32033e-21)
(1.03304 1.27832 5.97887e-20)
(0.969174 1.25099 -1.71589e-19)
(0.896624 1.22051 -6.35657e-20)
(0.813159 1.18756 9.39002e-21)
(0.715934 1.15187 -1.37786e-19)
(0.599471 1.11336 1.46743e-20)
(0.47268 1.07605 0)
(0.35453 1.04846 0)
(0.30729 1.33822 -1.75326e-19)
(0.396031 2.92463 7.37264e-20)
(0.466016 3.50584 1.05078e-19)
(0.413799 3.57525 0)
(0.370257 3.62907 -4.59141e-20)
(0.325171 3.6776 4.41111e-20)