/*--------------------------------*- C++ -*----------------------------------*\
  =========                 |
  \\      /  F ield         | OpenFOAM: The Open Source CFD Toolbox
   \\    /   O peration     | Website:  https://openfoam.org
    \\  /    A nd           | Version:  6
     \\/     M anipulation  |
\*---------------------------------------------------------------------------*/
FoamFile
{
    version     2.0;
    format      ascii;
    class       volScalarField;
    location    "35";
    object      p;
}
// * * * * * * * * * * * * * * * * * * * * * * * * * * * * * * * * * * * * * //

dimensions      [0 2 -2 0 0 0 0];

internalField   nonuniform List<scalar> 
918
(
0.587895
1.32256
0.00828494
0.587778
0.0196405
1.29036
-0.440614
0.75369
0.568974
-0.0521751
0.00370844
0.565495
1.14749
0.913845
-1.12601
0.0818925
0.708124
-0.364653
0.566871
0.0170851
0.787523
0.575713
0.578186
0.568983
0.625554
0.873327
1.02407
0.010349
-0.0113352
-0.00206311
0.0730922
0.0783182
0.065957
1.17352
1.22542
1.24858
0.53616
0.365188
-0.328243
-0.382121
-0.363396
-0.464096
0.745729
0.745839
-0.12872
0.754182
0.762507
0.554886
0.568357
0.569194
0.570387
0.569232
0.570537
0.458623
-0.0568045
-0.0888446
-0.0330318
-0.0228822
0.117183
0.000854406
-0.00157945
0.00754655
0.0137034
0.486987
0.56162
0.558983
0.570535
0.579707
1.26273
1.23647
1.26252
1.17313
1.19069
1.1245
1.09742
0.936225
0.959449
0.896805
0.88545
-1.59233
-2.55174
-0.540976
-0.256773
-0.0115632
0.0758917
0.0795189
0.69851
0.69801
0.709141
0.718393
1.09184
-0.333847
-0.40581
0.567324
0.565866
0.575214
0.576119
0.571057
0.571077
0.0249605
0.0307465
0.00975014
0.017058
0.021309
0.778598
0.778028
0.568435
0.565898
0.588981
0.611536
0.600799
0.313335
0.632885
0.646669
0.728201
0.879966
0.867681
0.879598
0.999222
0.966725
1.05634
1.07803
-0.0213929
-0.0260026
0.0594262
0.0629677
0.0810762
0.531963
0.525654
0.552233
0.539709
0.542665
0.269185
0.117049
0.447891
0.472001
-0.244622
-0.288981
-0.395545
-0.393859
-0.504559
0.638132
0.741639
0.738691
-0.151398
-0.0730727
-0.200514
-0.0129497
-0.0706353
0.546035
0.552139
0.548299
0.56347
0.557682
0.56009
0.572469
0.56961
0.571227
0.517205
0.646735
0.377311
0.348266
-0.213683
-0.108103
-0.20033
-0.0121551
-0.00789182
0.126617
0.152025
0.104537
0.0956163
-0.00203809
0.00174498
-0.00143383
0.0221141
0.0230087
0.478858
0.466655
0.497786
0.50499
0.550718
0.551884
0.555813
0.553928
1.04858
1.07125
1.07743
1.05365
-3.54253
-6.19984
0.0964515
0.25993
-0.054978
-0.0339764
-0.0318155
0.0662867
0.000544951
0.00558304
0.0616491
0.067578
0.0731466
0.0708945
0.689302
0.687593
1.0578
1.08068
1.03819
1.01657
0.556628
0.558592
0.563198
0.560107
0.0279339
0.029123
0.0306755
0.764143
0.771524
0.771445
0.274287
0.188804
0.361742
0.391326
0.67809
0.65558
0.672965
0.788322
0.827439
1.09482
1.11901
1.10306
1.1159
1.16674
1.18964
1.15471
0.511191
0.521753
0.516214
0.555439
0.553015
0.554105
0.549939
0.551213
0.549651
0.00387991
-0.372356
0.529227
0.529129
0.513518
0.521016
0.722027
0.802522
0.719238
0.729558
0.727699
0.03254
-0.0146083
0.306943
0.27674
0.420538
0.453645
0.436457
1.02368
0.984201
1.03209
1.00737
0.972256
0.99577
-0.309964
-2.09006
-1.07636
0.669136
0.468649
0.561642
0.0839688
0.0669474
0.0755734
1.0691
1.10901
0.716392
0.90357
0.858143
0.855174
0.883411
0.940395
0.871725
0.906488
0.93945
0.918217
0.594441
0.537398
0.549689
0.879464
0.936008
0.154782
0.082472
0.0589335
0.174224
0.234731
0.204827
1.08839
0.994037
1.06041
0.566141
0.567047
-0.0103684
0.00722587
0.571111
0.57083
0.0696636
0.088823
0.580368
-0.900782
0.168896
0.560389
0.550481
0.567075
-0.016565
0.390279
-0.00180092
0.101846
0.0725925
0.561564
0.498467
0.457002
0.0091504
0.0683072
0.0265752
-0.156265
0.563889
0.56226
0.566452
0.567314
0.568054
0.0135613
0.0109815
-0.0245916
0.0192989
0.0156311
0.0154877
0.531129
0.54974
-0.127166
0.566716
0.56882
0.568532
0.562557
0.567576
0.566121
0.0692089
0.0734913
0.0610852
0.25739
0.386512
0.769732
0.849434
0.71543
0.544647
0.242335
0.701966
0.756906
0.679184
0.813201
0.732123
0.741244
0.231337
0.0909556
0.230624
0.167353
0.557392
0.556721
0.548014
0.545019
0.561867
0.559656
0.564684
0.561921
0.564994
0.566178
0.0206665
-0.0141577
-0.025701
-0.0790696
0.35557
0.615371
0.283199
0.314458
0.212748
0.0149339
0.0105824
-0.00180055
0.00229339
0.0556473
0.0578038
0.0974417
0.104831
0.0887156
0.0695371
0.0496137
0.0548104
0.0438114
0.555326
0.554448
0.560095
0.568368
0.507729
0.511452
0.477893
0.496937
0.483406
0.424953
0.455148
0.432685
0.0467978
0.0366657
0.0298626
0.0637748
0.0689201
0.027684
0.0346804
0.0178642
0.0272044
0.0365437
0.0391271
0.0388878
-0.119334
-0.235081
1.01168
0.940901
0.173164
0.553843
0.55948
0.556657
0.561219
0.564393
0.565084
0.562732
0.559299
0.550026
0.551522
0.54813
0.54904
-0.071251
-0.178141
-0.00714374
-0.0775597
0.191242
0.667671
0.395678
0.344842
0.329919
0.548716
0.754257
0.688834
0.766084
0.768635
-0.350871
0.0680151
-0.275867
0.272714
0.256179
0.791961
0.835949
0.854844
0.810544
0.765343
0.0117971
0.585051
0.00191509
0.0468115
0.23377
0.127339
0.750922
0.709917
0.715798
0.730036
0.749783
0.725844
0.709843
0.700801
0.730932
0.735632
0.545296
0.287494
0.250472
0.201781
0.691888
0.582555
0.637503
0.559861
0.552696
0.555323
0.554155
0.53578
0.542932
0.53876
0.545241
0.548694
0.556551
0.556689
0.552723
0.554615
-0.00161458
-0.00196076
-0.0181034
-0.0695717
-0.0640042
-0.105603
-0.0432549
0.156404
0.105919
0.283506
0.417644
0.126778
-0.00443175
0.00808168
0.0637485
0.230304
0.22732
0.11258
0.223797
0.186236
0.17801
0.269634
0.290517
0.0316036
0.0277994
0.0255345
0.0176407
0.0757705
0.164612
0.159582
0.0646709
0.0500555
0.0108866
0.0176904
0.0505285
0.0366134
0.0406618
0.0661318
0.00341457
0.0532349
0.0667356
0.0675058
0.0565256
0.0587559
0.548904
0.550886
0.550789
0.559666
0.573492
0.588117
0.552627
0.528535
0.519778
0.522844
0.496296
0.50528
0.501061
0.515596
0.536875
0.54558
0.543303
0.545839
0.528538
0.530103
0.515987
0.520577
0.492167
0.474338
0.464512
0.0159362
0.0171221
0.0246825
0.0237051
0.0334236
0.0342183
0.0690772
0.0814143
0.0620541
0.0693431
0.0627391
0.0400015
0.0428936
-0.0230326
0.0545471
-0.126181
-0.174171
-0.223998
0.934201
1.07006
0.852574
0.637186
0.638024
0.871688
0.997174
0.602868
0.794961
0.821367
0.612044
0.893839
0.557764
0.557403
0.555269
0.554471
0.555476
0.0314452
0.130247
0.15249
0.201987
0.316208
0.422898
0.347834
0.235337
0.369917
0.395427
0.668047
0.678424
0.625331
0.646578
0.64289
0.466905
0.548864
0.590193
0.539905
0.609911
0.642659
0.593111
0.634815
0.553749
0.505776
0.499517
0.452108
0.486693
0.468582
0.442713
0.548669
0.525908
0.536664
0.526973
0.547772
0.571055
0.571744
0.594672
0.609495
0.529655
0.480493
0.497069
0.523487
0.481011
0.49631
0.51678
0.216731
0.122414
0.28679
-0.0457335
0.0479149
0.0843413
0.0434971
-0.00409134
0.303718
-0.341701
-0.283552
-0.968478
0.525096
0.916608
0.712646
0.726279
0.746259
0.726672
0.734595
0.750443
0.758135
0.684416
0.699879
0.70366
0.66525
0.697073
0.697058
0.704728
0.545905
0.457126
0.456403
0.394268
0.262703
0.299662
0.472935
0.412684
0.346175
0.341099
0.512573
0.381552
0.456685
0.513049
0.445702
0.376192
0.605214
0.654367
0.641426
0.613372
0.524978
0.547926
0.569881
0.60982
0.635998
0.663696
0.544266
0.550384
0.551357
0.548654
0.546776
0.549816
0.549944
0.552259
0.552847
0.555353
0.55463
0.0128765
0.0235661
0.0112035
0.00581998
0.0746787
0.046606
0.0502319
0.0130812
0.0451968
0.0458382
0.025483
0.0126223
0.0202296
0.0320579
0.124467
0.140325
0.151923
0.113453
0.299777
0.462557
0.531703
0.397001
0.257567
0.281504
0.357237
0.064552
0.0824865
0.0673589
0.114999
0.0958817
0.0283685
0.0230926
0.0313625
0.0325339
0.0421972
0.0342594
0.0486022
0.0498994
0.0393002
0.0251947
0.0298964
0.529928
0.523059
0.526565
0.519332
0.517631
0.533681
0.537968
0.539167
0.544512
0.546809
0.536903
0.542737
0.546454
0.0656527
0.050168
0.0499235
0.0496584
0.0546897
0.0548528
0.0539579
0.165825
0.0724503
0.105409
0.0386036
-0.0814896
-0.0219037
0.53798
0.533958
0.530991
0.751876
0.594197
0.509988
0.606564
0.723955
0.30946
0.51568
0.347125
0.928495
0.826235
0.971553
0.596466
0.28756
0.449361
0.463151
0.298934
0.42515
0.391592
0.268206
0.307142
0.327729
0.411166
0.294944
0.273064
0.0323657
0.209933
0.323211
0.305099
0.434281
0.492051
0.298456
0.212999
0.162482
0.655269
0.671193
0.683343
0.654405
0.675715
0.610962
0.601377
0.619373
0.626974
0.621665
-0.607337
-0.196159
-1.39919
-0.807054
-0.357004
0.550615
0.540518
0.785515
0.692792
0.747953
0.732285
0.666535
0.632129
0.6644
0.692285
0.384236
0.488613
0.454608
0.464072
0.401895
0.329165
0.621432
0.623309
0.646303
0.670683
0.645253
0.673158
0.542759
0.542507
0.541568
0.537984
0.536414
0.539339
0.0815164
0.0569747
0.08992
0.0844241
0.0707692
0.0743567
0.0551695
0.0469805
0.0495487
0.0541426
0.0590915
0.0527422
0.210337
0.153632
0.0630645
0.108922
0.0402176
-0.0404056
-0.0431818
0.0445972
0.144103
0.125329
0.429023
0.703886
0.529439
0.696699
0.487803
0.589249
0.513679
0.48528
0.516085
0.412399
0.501624
0.0532923
-0.140322
-0.199673
0.848331
0.804951
0.592463
0.338074
0.226189
0.527636
0.564579
0.523704
0.558535
0.609287
0.597142
0.0385986
0.138042
0.200035
0.509512
0.311202
0.325409
0.319877
0.475172
0.453442
)
;

boundaryField
{
    wall-4
    {
        type            zeroGradient;
    }
    velocity-inlet-5
    {
        type            zeroGradient;
    }
    velocity-inlet-6
    {
        type            zeroGradient;
    }
    pressure-outlet-7
    {
        type            fixedValue;
        value           uniform 0;
    }
    wall-8
    {
        type            zeroGradient;
    }
    frontAndBackPlanes
    {
        type            empty;
    }
}


// ************************************************************************* //
