/*--------------------------------*- C++ -*----------------------------------*\
  =========                 |
  \\      /  F ield         | OpenFOAM: The Open Source CFD Toolbox
   \\    /   O peration     | Website:  https://openfoam.org
    \\  /    A nd           | Version:  6
     \\/     M anipulation  |
\*---------------------------------------------------------------------------*/
FoamFile
{
    version     2.0;
    format      ascii;
    class       volVectorField;
    location    "55";
    object      U;
}
// * * * * * * * * * * * * * * * * * * * * * * * * * * * * * * * * * * * * * //

dimensions      [0 1 -1 0 0 0 0];

internalField   nonuniform List<vector> 
8800
(
(0.987195 -0.0767063 0)
(1.0019 -0.0551791 0)
(0.999719 -0.0285532 0)
(1.00002 -0.0151589 0)
(1.00006 -0.00856209 0)
(1.00008 -0.0050618 0)
(1.00005 -0.00301446 0)
(1.00002 -0.00171253 0)
(0.999997 -0.000806096 0)
(1.00006 -9.0051e-05 0)
(0.999987 0.00063856 0)
(0.999995 0.00140216 0)
(1.00002 0.00242589 0)
(1.00004 0.00400152 0)
(1.00003 0.00663671 0)
(1.00001 0.0113773 0)
(0.99989 0.0208174 0)
(0.999146 0.0386584 0)
(1.0071 0.0724577 0)
(0.771225 0.0366896 0)
(0.363032 -0.0160163 0)
(1.04331 -0.0768317 0)
(1.08461 -0.0704525 0)
(1.04521 -0.0535594 0)
(1.02328 -0.0389147 0)
(1.01199 -0.0262452 0)
(1.0064 -0.0168922 0)
(1.00358 -0.0103662 0)
(1.00215 -0.00571088 0)
(1.00145 -0.0020581 0)
(1.00132 0.00126428 0)
(1.00169 0.00464455 0)
(1.00266 0.0085793 0)
(1.00465 0.0139224 0)
(1.00861 0.0216324 0)
(1.01658 0.0326029 0)
(1.03249 0.0465208 0)
(1.06265 0.0616443 0)
(1.09189 0.0760811 0)
(0.838678 0.0565758 0)
(0.216803 -0.00242263 0)
(1.07585 -0.050164 0)
(1.09985 -0.0483522 0)
(1.0646 -0.0405073 0)
(1.03997 -0.0336539 0)
(1.02385 -0.0261405 0)
(1.01408 -0.0185661 0)
(1.00854 -0.0117538 0)
(1.00558 -0.005893 0)
(1.00433 -0.000480113 0)
(1.00468 0.00476566 0)
(1.0066 0.0101551 0)
(1.0106 0.0162572 0)
(1.01793 0.0232925 0)
(1.03054 0.0307646 0)
(1.05062 0.0378071 0)
(1.08032 0.0445044 0)
(1.10625 0.0513296 0)
(0.942552 0.0416047 0)
(0.216179 0.0024514 0)
(0.175113 -0.000815943 0)
(1.0176 -0.0355145 0)
(1.10515 -0.0414301 0)
(1.0782 -0.0361273 0)
(1.05337 -0.030205 0)
(1.03611 -0.0246413 0)
(1.02393 -0.018924 0)
(1.01584 -0.0128539 0)
(1.011 -0.00667407 0)
(1.00881 -0.000345817 0)
(1.0094 0.00590891 0)
(1.01266 0.0119088 0)
(1.01886 0.0177585 0)
(1.02877 0.0233504 0)
(1.04322 0.028661 0)
(1.06374 0.0341571 0)
(1.09355 0.0401524 0)
(1.09343 0.0419264 0)
(0.827238 0.0228963 0)
(0.17406 0.000848738 0)
(0.153881 -0.000611214 0)
(0.956016 -0.0254958 0)
(1.10337 -0.0351936 0)
(1.08759 -0.0327343 0)
(1.0616 -0.0280969 0)
(1.04399 -0.0230923 0)
(1.03155 -0.0178637 0)
(1.02273 -0.0123454 0)
(1.01694 -0.00641877 0)
(1.01412 4.29336e-05 0)
(1.01481 0.00650508 0)
(1.0188 0.0123929 0)
(1.02581 0.0177065 0)
(1.03612 0.0226441 0)
(1.0507 0.0274118 0)
(1.07194 0.0319584 0)
(1.10009 0.0359082 0)
(1.06815 0.033985 0)
(0.739703 0.0142945 0)
(0.152297 0.000648411 0)
(0.139476 -0.000468146 0)
(0.899014 -0.0191212 0)
(1.09564 -0.03016 0)
(1.09562 -0.029291 0)
(1.0691 -0.0255787 0)
(1.05067 -0.0214632 0)
(1.03777 -0.0167136 0)
(1.02869 -0.0114476 0)
(1.0226 -0.00571828 0)
(1.0195 0.000600163 0)
(1.02015 0.00691351 0)
(1.02426 0.0125546 0)
(1.03139 0.0175398 0)
(1.04193 0.0220278 0)
(1.05708 0.0260056 0)
(1.07928 0.0294903 0)
(1.10233 0.0321357 0)
(1.03612 0.0280612 0)
(0.673228 0.0101889 0)
(0.137241 0.000511066 0)
(0.128898 -0.000363277 0)
(0.849299 -0.0147667 0)
(1.08317 -0.0260451 0)
(1.10126 -0.026366 0)
(1.07591 -0.0231054 0)
(1.05695 -0.0194913 0)
(1.0436 -0.0152746 0)
(1.03417 -0.0103764 0)
(1.02785 -0.00486285 0)
(1.02457 0.00127351 0)
(1.02509 0.00737337 0)
(1.02916 0.0127401 0)
(1.03641 0.0173196 0)
(1.04723 0.0212072 0)
(1.06278 0.0245225 0)
(1.08543 0.0274922 0)
(1.10147 0.0292737 0)
(1.0013 0.0235325 0)
(0.621502 0.00782099 0)
(0.125871 0.000413759 0)
(0.120814 -0.000283074 0)
(0.807008 -0.0116171 0)
(1.06779 -0.0224537 0)
(1.10472 -0.0237578 0)
(1.08212 -0.0209182 0)
(1.06275 -0.0175237 0)
(1.04912 -0.0136191 0)
(1.03942 -0.00906677 0)
(1.03282 -0.0038349 0)
(1.02931 0.00208085 0)
(1.02967 0.00793532 0)
(1.03369 0.0129553 0)
(1.04101 0.017067 0)
(1.05195 0.0204516 0)
(1.06772 0.0233588 0)
(1.0907 0.0260338 0)
(1.09774 0.0269272 0)
(0.966148 0.0199757 0)
(0.579978 0.00628164 0)
(0.116824 0.000343105 0)
(0.114534 -0.000220295 0)
(0.771364 -0.00926314 0)
(1.0509 -0.0192958 0)
(1.10704 -0.0213506 0)
(1.08794 -0.0188869 0)
(1.06818 -0.0156411 0)
(1.05431 -0.0119063 0)
(1.04442 -0.00757341 0)
(1.03758 -0.00259004 0)
(1.0338 0.00306161 0)
(1.03396 0.00860698 0)
(1.03787 0.0132498 0)
(1.04514 0.0169486 0)
(1.05609 0.0199479 0)
(1.07206 0.0225362 0)
(1.0947 0.0248778 0)
(1.09121 0.0249719 0)
(0.931988 0.0172247 0)
(0.545649 0.00522851 0)
(0.109375 0.000292152 0)
(0.109625 -0.000169836 0)
(0.741425 -0.00743736 0)
(1.03354 -0.0164988 0)
(1.10839 -0.0190868 0)
(1.09346 -0.0169396 0)
(1.07342 -0.0137939 0)
(1.05929 -0.0101567 0)
(1.04921 -0.00595343 0)
(1.04216 -0.00115629 0)
(1.0381 0.00424321 0)
(1.03799 0.00946855 0)
(1.04169 0.0137487 0)
(1.04882 0.0170883 0)
(1.05975 0.0197482 0)
(1.07592 0.0220443 0)
(1.09744 0.0240138 0)
(1.08227 0.0233534 0)
(0.89939 0.0151256 0)
(0.516475 0.00449108 0)
(0.103045 0.000256135 0)
(0.105801 -0.000128001 0)
(0.716371 -0.00596648 0)
(1.01656 -0.0139918 0)
(1.10889 -0.0168994 0)
(1.09888 -0.0150336 0)
(1.07857 -0.0119043 0)
(1.06414 -0.00830782 0)
(1.05384 -0.00418359 0)
(1.04656 0.000482977 0)
(1.0422 0.00566403 0)
(1.04173 0.0105818 0)
(1.04514 0.0145166 0)
(1.05209 0.017505 0)
(1.063 0.0198301 0)
(1.07934 0.0218675 0)
(1.09885 0.0234508 0)
(1.07131 0.0220679 0)
(0.868483 0.0135627 0)
(0.491013 0.00397952 0)
(0.0974954 0.000232123 0)
(0.102874 -9.18178e-05 0)
(0.695559 -0.00473445 0)
(1.00055 -0.0117075 0)
(1.10869 -0.0147576 0)
(1.10412 -0.0130943 0)
(1.08371 -0.00994138 0)
(1.06896 -0.00633085 0)
(1.05841 -0.00222202 0)
(1.05083 0.00236611 0)
(1.04609 0.00737191 0)
(1.04521 0.0120123 0)
(1.04826 0.0156198 0)
(1.05499 0.0182761 0)
(1.06585 0.0202714 0)
(1.08233 0.0220468 0)
(1.09932 0.023223 0)
(1.05863 0.0211212 0)
(0.83912 0.012444 0)
(0.468188 0.00363813 0)
(0.0924694 0.000217676 0)
(0.100725 -5.85652e-05 0)
(0.678519 -0.0036536 0)
(0.985971 -0.00957273 0)
(1.108 -0.0125678 0)
(1.10915 -0.0110326 0)
(1.0889 -0.00783313 0)
(1.07382 -0.00415292 0)
(1.06296 -6.5195e-06 0)
(1.05501 0.00455601 0)
(1.04981 0.00943906 0)
(1.04842 0.0138349 0)
(1.05104 0.0171181 0)
(1.05751 0.0194299 0)
(1.0683 0.0210836 0)
(1.08482 0.0225879 0)
(1.09878 0.0233706 0)
(1.0444 0.0205239 0)
(0.810993 0.0116964 0)
(0.447162 0.00342849 0)
(0.0877679 0.000210848 0)
(0.0992908 -2.60181e-05 0)
(0.66495 -0.00265432 0)
(0.97318 -0.00751437 0)
(1.10714 -0.0102764 0)
(1.11412 -0.00878477 0)
(1.09424 -0.00549415 0)
(1.07878 -0.0016885 0)
(1.06754 0.00255503 0)
(1.05915 0.0071508 0)
(1.05337 0.0119447 0)
(1.05136 0.0161049 0)
(1.05348 0.019067 0)
(1.05963 0.02103 0)
(1.07032 0.0223191 0)
(1.08687 0.023555 0)
(1.09705 0.0238956 0)
(1.02872 0.0202627 0)
(0.783709 0.0112656 0)
(0.42726 0.00332541 0)
(0.0832323 0.000210221 0)
(0.0985559 7.90892e-06 0)
(0.654698 -0.00168161 0)
(0.962485 -0.00545873 0)
(1.10641 -0.00782215 0)
(1.11915 -0.00629074 0)
(1.09979 -0.00286621 0)
(1.08391 0.00113428 0)
(1.07222 0.00554703 0)
(1.06328 0.0102341 0)
(1.05681 0.0149849 0)
(1.05405 0.0189278 0)
(1.05557 0.0215554 0)
(1.06135 0.0231525 0)
(1.07191 0.0240531 0)
(1.08838 0.024987 0)
(1.09405 0.0248341 0)
(1.01157 0.02036 0)
(0.756836 0.0111189 0)
(0.407924 0.00331355 0)
(0.0787317 0.000215138 0)
(0.0985416 4.1046e-05 0)
(0.647743 -0.000688157 0)
(0.954192 -0.00333011 0)
(1.10617 -0.00512641 0)
(1.12437 -0.00344273 0)
(1.10564 0.000184433 0)
(1.08931 0.00444363 0)
(1.07708 0.00908579 0)
(1.06747 0.0139254 0)
(1.06015 0.0186758 0)
(1.05649 0.0224108 0)
(1.05728 0.0246906 0)
(1.06261 0.0258811 0)
(1.07302 0.0263705 0)
(1.08913 0.026936 0)
(1.08957 0.0262176 0)
(0.992859 0.02084 0)
(0.729889 0.0112398 0)
(0.38865 0.00338542 0)
(0.0741477 0.000225106 0)
(0.0992857 7.97921e-05 0)
(0.644164 0.00034312 0)
(0.948618 -0.00105325 0)
(1.10677 -0.00211434 0)
(1.13003 -0.0001583 0)
(1.11191 0.00375935 0)
(1.09506 0.00836034 0)
(1.08221 0.0133157 0)
(1.07179 0.0183754 0)
(1.06343 0.0231551 0)
(1.05869 0.0266708 0)
(1.0586 0.0285725 0)
(1.06337 0.0293346 0)
(1.07359 0.0293878 0)
(1.08902 0.0295266 0)
(1.08349 0.0280925 0)
(0.972355 0.0217329 0)
(0.702338 0.0116178 0)
(0.368966 0.00353469 0)
(0.0693731 0.000239611 0)
(0.100996 0.000140575 0)
(0.644361 0.00150106 0)
(0.946128 0.00145136 0)
(1.10863 0.00131972 0)
(1.13628 0.00368103 0)
(1.11873 0.00798643 0)
(1.1013 0.0130251 0)
(1.08766 0.0183857 0)
(1.07624 0.0237399 0)
(1.06662 0.0285985 0)
(1.06057 0.0319079 0)
(1.05944 0.0333764 0)
(1.06356 0.0336513 0)
(1.07355 0.0332208 0)
(1.0878 0.032864 0)
(1.0755 0.0305496 0)
(0.949752 0.0230639 0)
(0.673627 0.0122507 0)
(0.348428 0.00375705 0)
(0.0643109 0.000258159 0)
(0.10372 0.000200562 0)
(0.648641 0.00289854 0)
(0.947168 0.00433775 0)
(1.11224 0.00532416 0)
(1.14335 0.00824584 0)
(1.12625 0.0130859 0)
(1.10813 0.0186712 0)
(1.09354 0.0245293 0)
(1.08088 0.0302467 0)
(1.06973 0.0352074 0)
(1.06211 0.0382717 0)
(1.05977 0.0392288 0)
(1.0631 0.0389603 0)
(1.0728 0.037982 0)
(1.08529 0.0370576 0)
(1.06532 0.0336772 0)
(0.924623 0.0248875 0)
(0.643145 0.0131419 0)
(0.326598 0.0040495 0)
(0.0588723 0.000280171 0)
(0.107743 0.000281956 0)
(0.657617 0.00457208 0)
(0.952179 0.0077065 0)
(1.11812 0.010053 0)
(1.15155 0.0137272 0)
(1.13467 0.0192711 0)
(1.11571 0.0255434 0)
(1.09994 0.032027 0)
(1.08575 0.0381795 0)
(1.07272 0.0432265 0)
(1.06324 0.0459502 0)
(1.05951 0.0463138 0)
(1.0619 0.0454258 0)
(1.07127 0.0438145 0)
(1.0815 0.0422686 0)
(1.05253 0.0375789 0)
(0.896411 0.02723 0)
(0.61023 0.0142845 0)
(0.303047 0.00440357 0)
(0.0529801 0.000304471 0)
(0.113404 0.00039157 0)
(0.671975 0.00666121 0)
(0.961957 0.0118318 0)
(1.12682 0.015746 0)
(1.16122 0.0203882 0)
(1.14426 0.0268483 0)
(1.12424 0.0339738 0)
(1.10699 0.0412018 0)
(1.0909 0.0478385 0)
(1.0756 0.0529383 0)
(1.06391 0.0552034 0)
(1.05854 0.0548394 0)
(1.05987 0.0532345 0)
(1.06881 0.0509086 0)
(1.07622 0.0486077 0)
(1.03661 0.0423383 0)
(0.864454 0.0301155 0)
(0.574188 0.0156624 0)
(0.277386 0.00480516 0)
(0.0465829 0.000329235 0)
(0.121215 0.000546289 0)
(0.692723 0.00939408 0)
(0.977316 0.0169903 0)
(1.13901 0.0227449 0)
(1.17278 0.0286308 0)
(1.15529 0.0363094 0)
(1.13388 0.0444655 0)
(1.1147 0.0525344 0)
(1.09622 0.0596571 0)
(1.07818 0.0646896 0)
(1.06392 0.066291 0)
(1.05663 0.0650047 0)
(1.05682 0.0625535 0)
(1.06531 0.0594169 0)
(1.06913 0.0562049 0)
(1.01692 0.0480391 0)
(0.827948 0.0335478 0)
(0.534306 0.0172384 0)
(0.24929 0.00523123 0)
(0.0396632 0.000352006 0)
(0.131915 0.000769303 0)
(0.721165 0.0131556 0)
(0.999404 0.0236455 0)
(1.15548 0.031584 0)
(1.18689 0.0390484 0)
(1.16812 0.04831 0)
(1.14479 0.0576787 0)
(1.1231 0.0666462 0)
(1.10161 0.0741407 0)
(1.08026 0.078843 0)
(1.0631 0.07948 0)
(1.05373 0.0770186 0)
(1.05266 0.0735343 0)
(1.0605 0.0694286 0)
(1.05969 0.0650873 0)
(0.992619 0.0547284 0)
(0.786006 0.0374752 0)
(0.489924 0.0189344 0)
(0.218572 0.00564295 0)
(0.0322593 0.000369091 0)
(0.146763 0.00112258 0)
(0.759275 0.0185609 0)
(1.02986 0.0325694 0)
(1.17718 0.0431849 0)
(1.20429 0.0526512 0)
(1.18308 0.0638565 0)
(1.15703 0.0745621 0)
(1.13202 0.0843204 0)
(1.10682 0.0918641 0)
(1.08164 0.0957675 0)
(1.06122 0.0949711 0)
(1.04961 0.0910315 0)
(1.04724 0.0863151 0)
(1.054 0.0811702 0)
(1.04723 0.0754511 0)
(0.962673 0.0623402 0)
(0.73771 0.0417689 0)
(0.440564 0.0206172 0)
(0.185295 0.00598215 0)
(0.0244891 0.000375603 0)
(0.167905 0.00173162 0)
(0.810245 0.0267495 0)
(1.0712 0.0452921 0)
(1.20519 0.0593797 0)
(1.22565 0.0716205 0)
(1.20026 0.084612 0)
(1.17036 0.0964623 0)
(1.14103 0.106502 0)
(1.11136 0.113421 0)
(1.08185 0.11582 0)
(1.05794 0.112986 0)
(1.04405 0.107173 0)
(1.04038 0.10102 0)
(1.04573 0.0948225 0)
(1.031 0.0871483 0)
(0.925804 0.0706994 0)
(0.682269 0.0461887 0)
(0.386205 0.022093 0)
(0.14997 0.00617061 0)
(0.0165888 0.000365162 0)
(0.198645 0.00306887 0)
(0.879722 0.040284 0)
(1.12708 0.0655537 0)
(1.23998 0.0837504 0)
(1.25067 0.0986875 0)
(1.21901 0.112931 0)
(1.18386 0.125001 0)
(1.14924 0.134222 0)
(1.11447 0.139402 0)
(1.0803 0.139254 0)
(1.05288 0.133618 0)
(1.03676 0.125484 0)
(1.03188 0.117642 0)
(1.03539 0.110256 0)
(1.00981 0.100124 0)
(0.880484 0.0793978 0)
(0.619383 0.0503028 0)
(0.327971 0.0231565 0)
(0.114046 0.00614197 0)
(0.00902942 0.000327923 0)
(0.240619 0.0091776 3.53827e-20)
(0.971654 0.0670188 3.10937e-20)
(1.19517 0.0998263 -1.0987e-20)
(1.27838 0.120028 0)
(1.27653 0.137411 -2.92649e-34)
(1.2372 0.151122 4.31127e-21)
(1.19608 0.16165 -7.96314e-21)
(1.1557 0.168638 0)
(1.11551 0.171015 1.6771e-34)
(1.07637 0.167557 -1.02414e-20)
(1.0451 0.158639 0)
(1.02651 0.147953 -1.23229e-20)
(1.02035 0.138423 -3.64519e-20)
(1.02159 0.13014 -1.72629e-20)
(0.980578 0.117186 -5.21027e-21)
(0.821717 0.0903731 -3.0995e-21)
(0.543549 0.0548511 0)
(0.264035 0.0242034 2.17022e-21)
(0.0779293 0.00625355 2.56241e-21)
(0.00197463 0.000293254 4.61171e-20)
(0.269758 0.0240998 2.32621e-20)
(1.04773 0.109221 5.28527e-22)
(1.25132 0.14865 2.80319e-21)
(1.31268 0.168782 0)
(1.29915 0.186451 -1.44758e-20)
(1.25267 0.198021 -1.66985e-20)
(1.20557 0.206254 -7.94553e-21)
(1.15928 0.210761 -2.8931e-20)
(1.11331 0.210358 0)
(1.06863 0.203666 4.36159e-20)
(1.03288 0.191489 4.35786e-20)
(1.01133 0.17825 1.3025e-20)
(1.00294 0.166688 4.77844e-20)
(0.99748 0.15578 6.74179e-20)
(0.935826 0.138214 0)
(0.743829 0.10365 9.52707e-20)
(0.455326 0.0607029 1.36736e-19)
(0.197035 0.0253702 1.51889e-19)
(0.0427784 0.00555256 -1.73665e-19)
(-0.00479018 -0.00030715 -3.26291e-21)
(0.271252 0.0406544 0)
(1.09612 0.163868 3.41434e-21)
(1.2892 0.208391 0)
(1.3393 0.228275 -1.69974e-20)
(1.31674 0.24329 0)
(1.26428 0.251016 -3.2102e-20)
(1.21157 0.255548 1.60916e-20)
(1.15965 0.256488 -5.76099e-20)
(1.10821 0.252489 -1.57978e-21)
(1.05827 0.241997 2.24856e-20)
(1.0182 0.226283 9.6335e-20)
(0.993717 0.210371 -2.62428e-22)
(0.982837 0.196707 -3.48388e-20)
(0.971088 0.183036 -6.3832e-20)
(0.895422 0.160554 7.56471e-20)
(0.689339 0.117652 -1.34066e-19)
(0.40616 0.0668763 -1.77457e-20)
(0.16592 0.0268205 0)
(0.0278259 0.00462129 -1.02235e-23)
(-0.00775529 -0.00104783 0)
(0.265026 0.0546238 2.72413e-20)
(1.12237 0.222219 -1.59773e-20)
(1.31259 0.272708 -1.57374e-20)
(1.35681 0.293118 7.57317e-21)
(1.32796 0.304514 -1.30067e-20)
(1.27102 0.307764 6.69823e-20)
(1.21367 0.30792 3.34511e-20)
(1.15686 0.30466 0)
(1.10045 0.296541 -1.11227e-19)
(1.04566 0.281879 0)
(1.00153 0.262354 -5.05111e-20)
(0.974173 0.243601 -6.30064e-20)
(0.960832 0.227812 -3.80874e-20)
(0.944228 0.21138 -4.65212e-20)
(0.861502 0.183858 0)
(0.654222 0.133839 0)
(0.382396 0.0759891 -1.15817e-19)
(0.155433 0.0303952 2.29306e-20)
(0.0233775 0.00437871 -1.34003e-20)
(-0.00910736 -0.00177282 -1.56746e-20)
(0.257669 0.0669566 2.26487e-21)
(1.13409 0.280563 0)
(1.32547 0.338088 2.54093e-20)
(1.36621 0.35946 1.97615e-20)
(1.33291 0.367219 3.1284e-20)
(1.27267 0.366015 0)
(1.21168 0.36171 3.20457e-20)
(1.15084 0.354089 6.34858e-20)
(1.09018 0.341629 5.65928e-20)
(1.03104 0.322571 1.06728e-19)
(0.983126 0.299083 0)
(0.952985 0.277387 -1.36244e-19)
(0.937311 0.259458 -8.2538e-20)
(0.91701 0.240345 -4.89176e-20)
(0.832236 0.208352 3.01546e-19)
(0.631307 0.152234 3.59485e-20)
(0.373493 0.0882058 1.68612e-19)
(0.157478 0.036163 -7.99235e-19)
(0.0261872 0.00549681 4.72794e-19)
(-0.00885543 -0.00221098 -5.7007e-19)
(0.250697 0.0780886 1.76884e-20)
(1.13665 0.337035 -9.03914e-22)
(1.33081 0.402692 -1.05122e-21)
(1.36916 0.425379 -1.46225e-20)
(1.33258 0.429681 -2.32582e-20)
(1.26984 0.424208 1.80653e-21)
(1.20599 0.415602 -3.48811e-20)
(1.14186 0.403722 6.52789e-20)
(1.07755 0.38696 -1.22081e-19)
(1.01451 0.363498 0)
(0.963108 0.336146 -6.14517e-20)
(0.930323 0.311636 -1.62292e-21)
(0.912262 0.291464 -9.06664e-20)
(0.889152 0.269795 0)
(0.805592 0.233789 -6.55902e-20)
(0.614414 0.172633 -1.56e-19)
(0.372143 0.102674 4.1616e-19)
(0.164999 0.0442705 -4.09946e-19)
(0.0335636 0.00837627 5.82578e-19)
(-0.00715122 -0.00217426 -6.05334e-19)
(0.244906 0.0884223 -5.04711e-22)
(1.13357 0.39098 5.37822e-21)
(1.33073 0.465497 5.97162e-21)
(1.36709 0.489709 3.30706e-21)
(1.32802 0.490871 -1.12496e-20)
(1.26339 0.4814 0)
(1.19723 0.468752 -3.11737e-20)
(1.13031 0.452829 -6.80857e-20)
(1.06283 0.431934 -6.31536e-20)
(0.99633 0.404224 0)
(0.941768 0.373132 -6.35899e-20)
(0.906472 0.345786 -7.96722e-20)
(0.886139 0.323335 9.86452e-20)
(0.860925 0.299464 -6.02237e-20)
(0.779566 0.259746 -2.87869e-19)
(0.599405 0.19427 1.7139e-19)
(0.372728 0.118403 5.11401e-20)
(0.174325 0.053968 0)
(0.0426788 0.0127196 -5.65839e-19)
(-0.00474339 -0.00171393 -2.07747e-20)
(0.240412 0.0982863 5.77958e-21)
(1.12711 0.44224 -8.54771e-21)
(1.32671 0.525946 -4.5529e-21)
(1.3612 0.551756 1.56029e-20)
(1.32019 0.550136 -3.66037e-20)
(1.2541 0.537015 5.63331e-20)
(1.18605 0.52064 6.73621e-20)
(1.11676 0.500936 -1.08752e-19)
(1.04649 0.476133 4.00311e-20)
(0.976871 0.444381 -2.63195e-19)
(0.919384 0.409564 -7.25082e-20)
(0.881736 0.379307 0)
(0.859437 0.354849 1.07273e-19)
(0.83256 0.328883 1.29148e-19)
(0.753142 0.286021 1.55167e-19)
(0.584036 0.216398 -1.86858e-19)
(0.371554 0.13501 -5.54055e-20)
(0.182055 0.0649491 6.50088e-20)
(0.051391 0.0179678 0)
(-0.0021332 -0.000922826 -4.52513e-20)
(0.237084 0.107778 -8.47309e-20)
(1.11889 0.490871 4.81874e-20)
(1.32005 0.58414 6.6091e-21)
(1.35247 0.611168 5.82573e-21)
(1.30987 0.607078 -1.34275e-20)
(1.24268 0.590663 -4.0912e-21)
(1.17308 0.570915 -7.41594e-20)
(1.10174 0.547737 -3.95022e-20)
(1.02895 0.519272 -1.10121e-19)
(0.956457 0.483671 3.00958e-22)
(0.896202 0.445152 -2.26446e-19)
(0.856449 0.41215 1.93726e-19)
(0.832448 0.385844 -1.18342e-19)
(0.804037 0.357778 1.42983e-19)
(0.726261 0.311636 0)
(0.567118 0.238038 -1.01768e-19)
(0.367273 0.151544 -1.66738e-23)
(0.186621 0.0759621 -2.84543e-19)
(0.0580959 0.0234012 -4.17571e-20)
(0.000178586 -3.63819e-06 0)
(0.234823 0.117112 0)
(1.10984 0.537083 5.51857e-20)
(1.31143 0.639802 2.57049e-20)
(1.34171 0.667764 -1.45428e-21)
(1.29777 0.661474 -2.09611e-20)
(1.22971 0.642119 0)
(1.15882 0.619342 -3.17489e-20)
(1.08567 0.593014 -1.08888e-21)
(1.0106 0.561182 2.36163e-19)
(0.935389 0.521903 -3.59347e-20)
(0.872507 0.479869 -1.63819e-19)
(0.830837 0.444332 1.00398e-19)
(0.805273 0.416092 -2.20855e-21)
(0.77538 0.385632 1.5196e-19)
(0.698929 0.336038 9.4399e-20)
(0.548227 0.258121 -2.20135e-19)
(0.359553 0.166896 2.60843e-19)
(0.186979 0.085994 7.72328e-20)
(0.0618304 0.0281941 3.18515e-19)
(0.00183582 0.000823783 -8.50617e-19)
(0.233531 0.126423 -2.73862e-20)
(1.10061 0.581055 3.76372e-20)
(1.30148 0.692693 -2.6081e-20)
(1.32954 0.721488 -6.68415e-21)
(1.28442 0.713213 0)
(1.21568 0.691245 -2.14958e-20)
(1.1437 0.665782 1.08615e-19)
(1.06895 0.63663 8.56979e-20)
(0.991779 0.601748 0)
(0.913939 0.559017 -5.20524e-19)
(0.848528 0.513714 4.4383e-19)
(0.805045 0.475661 0)
(0.77794 0.445099 1.38637e-19)
(0.746651 0.412007 -2.21566e-21)
(0.671029 0.35865 -3.01641e-19)
(0.527203 0.275901 1.18098e-19)
(0.348596 0.180222 0)
(0.183499 0.094105 4.16959e-19)
(0.0623364 0.031713 0)
(0.00272364 0.00139584 -4.03004e-19)
(0.233025 0.135738 3.26162e-20)
(1.09156 0.622945 4.8314e-20)
(1.29063 0.742837 -2.61246e-20)
(1.31644 0.772354 0)
(1.27027 0.762276 -1.14854e-20)
(1.20099 0.737994 0)
(1.12808 0.710157 -1.03699e-19)
(1.05189 0.678507 -3.82576e-20)
(0.972751 0.640902 4.09739e-20)
(0.892361 0.595018 -2.57562e-19)
(0.82445 0.546629 4.56034e-20)
(0.779133 0.505828 0)
(0.750526 0.472588 -2.95943e-19)
(0.717893 0.436677 2.19815e-21)
(0.642483 0.379067 0)
(0.504377 0.291183 1.53369e-21)
(0.334478 0.190865 3.81501e-19)
(0.176534 0.099788 -3.60552e-19)
(0.0602623 0.0335949 1.06342e-19)
(0.00288449 0.00161984 0)
(0.232961 0.14495 0)
(1.08291 0.66279 5.79971e-20)
(1.27928 0.790325 3.73387e-20)
(1.30281 0.820424 -2.48537e-21)
(1.25569 0.808688 1.08469e-21)
(1.18597 0.782359 -4.74422e-20)
(1.11226 0.752446 3.96785e-20)
(1.03477 0.718613 -4.64274e-20)
(0.953763 0.678608 1.84514e-19)
(0.870863 0.629911 -4.11298e-19)
(0.800394 0.578532 -3.82607e-21)
(0.753142 0.534688 -1.28653e-19)
(0.723087 0.498619 4.8076e-19)
(0.689044 0.459704 -2.57885e-21)
(0.613211 0.397107 -2.34338e-19)
(0.479571 0.303779 -4.18478e-19)
(0.317647 0.198613 0)
(0.166461 0.102848 0)
(0.0560946 0.0339591 1.14668e-19)
(0.00252933 0.0015443 -6.73539e-20)
(0.23345 0.154167 4.55128e-20)
(1.07478 0.700582 -1.31775e-19)
(1.2677 0.835245 -4.02085e-20)
(1.28893 0.865778 0)
(1.24095 0.852497 -1.56919e-21)
(1.17088 0.824365 -3.69887e-20)
(1.09649 0.792655 9.15376e-20)
(1.01783 0.756943 1.78436e-19)
(0.935027 0.714866 2.38245e-19)
(0.849629 0.663697 -3.34847e-19)
(0.776457 0.609389 -3.81386e-19)
(0.727109 0.562347 3.44047e-19)
(0.695626 0.523442 0)
(0.659956 0.480981 -1.0632e-19)
(0.583252 0.41246 -2.53666e-19)
(0.453366 0.313375 -3.00725e-19)
(0.298395 0.203255 -3.56073e-19)
(0.153721 0.103241 1.05224e-19)
(0.0500703 0.0328527 -6.18491e-20)
(0.00183166 0.00121885 2.73557e-22)
(0.234228 0.163192 0)
(1.06723 0.736745 0)
(1.25605 0.87768 2.59675e-21)
(1.27501 0.908475 0)
(1.22627 0.893788 -1.85409e-20)
(1.15593 0.864073 1.95127e-20)
(1.08097 0.830814 0)
(1.00122 0.793505 2.03519e-20)
(0.916722 0.749675 3.95076e-19)
(0.82882 0.696381 -7.70038e-19)
(0.752748 0.639257 0)
(0.701091 0.589085 -2.21411e-19)
(0.66805 0.547233 -3.05375e-21)
(0.630406 0.500205 -2.4199e-21)
(0.552668 0.42484 2.7106e-19)
(0.426178 0.319876 -2.16062e-22)
(0.277085 0.204662 -7.66809e-19)
(0.138988 0.100959 2.26337e-19)
(0.0429355 0.0303724 6.68895e-20)
(0.000913768 0.000697915 0)
(0.235047 0.172085 -1.8127e-19)
(1.06003 0.771255 -8.85069e-20)
(1.24443 0.917684 -1.1724e-19)
(1.26123 0.948614 1.20761e-19)
(1.21182 0.932632 -4.91677e-20)
(1.14129 0.901544 0)
(1.06583 0.866968 5.16036e-20)
(0.985117 0.828322 -4.59391e-20)
(0.898992 0.783049 3.90787e-21)
(0.808586 0.727975 5.70126e-20)
(0.729399 0.668268 4.92868e-19)
(0.675156 0.615216 -7.75067e-20)
(0.640192 0.570031 -2.96317e-19)
(0.600153 0.517036 -1.23979e-19)
(0.521587 0.43406 1.47436e-19)
(0.398453 0.323133 -2.84667e-23)
(0.254527 0.202704 2.06558e-19)
(0.123261 0.0962188 -4.86892e-19)
(0.0354568 0.0268971 5.75491e-19)
(-6.81688e-05 5.34549e-05 8.39033e-20)
(0.235658 0.180747 6.89e-20)
(1.05318 0.804196 -4.99226e-20)
(1.23297 0.955372 6.33253e-21)
(1.24773 0.986314 7.67548e-20)
(1.19773 0.969141 1.74031e-20)
(1.12706 0.936851 -2.78369e-20)
(1.0512 0.901166 1.29172e-20)
(0.969619 0.861411 -1.89635e-19)
(0.881965 0.814983 -4.31043e-19)
(0.789054 0.758476 -4.56773e-19)
(0.706565 0.696575 0)
(0.649372 0.64098 -3.41234e-19)
(0.611887 0.591809 4.27446e-19)
(0.568964 0.531283 0)
(0.490005 0.439979 -3.15641e-19)
(0.370486 0.322693 1.88345e-19)
(0.231821 0.197168 -2.21988e-19)
(0.107876 0.0894391 -2.61933e-19)
(0.028395 0.0228832 -4.63413e-19)
(-0.000978353 -0.000613781 -3.61297e-19)
(0.236598 0.189264 -7.78469e-20)
(1.04654 0.835543 5.34103e-20)
(1.22174 0.990802 1.22695e-19)
(1.23458 1.02166 1.11606e-19)
(1.18409 1.00341 -3.32567e-20)
(1.11334 0.970081 -7.39362e-21)
(1.03717 0.933458 4.44605e-20)
(0.954815 0.892813 -1.91751e-19)
(0.865725 0.845497 -2.54054e-19)
(0.770346 0.787907 4.75824e-19)
(0.684393 0.724314 1.08044e-18)
(0.623819 0.666505 0)
(0.583032 0.612574 0)
(0.536591 0.543075 -1.42786e-19)
(0.457579 0.442416 0)
(0.342303 0.317602 4.04972e-19)
(0.210224 0.187344 4.77323e-19)
(0.0948048 0.0807153 0)
(0.0229674 0.0187867 0)
(-0.00169375 -0.00121091 3.88127e-19)
(0.23718 0.197302 8.86036e-20)
(1.04013 0.865285 7.1834e-20)
(1.2108 1.02408 8.92411e-20)
(1.22185 1.05479 -1.07246e-19)
(1.17095 1.03554 -4.30883e-20)
(1.10018 1.00131 -3.08959e-21)
(1.0238 0.963902 -5.89142e-20)
(0.940766 0.922552 -1.55434e-22)
(0.85035 0.874593 -5.08034e-21)
(0.752563 0.816272 -5.11157e-21)
(0.663045 0.751575 5.5593e-19)
(0.598601 0.691817 0)
(0.553638 0.632444 4.32964e-19)
(0.502808 0.552888 3.04432e-19)
(0.423511 0.441373 7.36986e-19)
(0.313235 0.30653 2.18087e-19)
(0.191008 0.170876 -2.56952e-19)
(0.0881305 0.0675214 -1.50855e-19)
(0.0242656 0.0135035 0)
(-0.000958186 -0.00146184 4.16893e-19)
(0.238085 0.20535 -1.99882e-19)
(1.03392 0.893571 0)
(1.20016 1.05526 1.05007e-19)
(1.20956 1.08578 -9.10054e-20)
(1.15838 1.06563 5.77338e-20)
(1.08763 1.03062 2.21697e-20)
(1.01112 0.992551 1.03591e-19)
(0.927509 0.95066 -1.65908e-20)
(0.835881 0.902278 0)
(0.735792 0.843554 -5.20812e-19)
(0.64267 0.778384 -1.20469e-18)
(0.573859 0.716904 5.00567e-20)
(0.523856 0.651633 5.96949e-19)
(0.467499 0.561477 0)
(0.386639 0.437492 4.97478e-19)
(0.280959 0.288549 0)
(0.172429 0.14247 0)
(0.0929164 0.0357321 -1.63222e-19)
(0.0564966 -0.00712244 0)
(0.0273003 0.00707177 1.11638e-19)
(0.238539 0.212804 -2.2371e-19)
(1.02787 0.92059 0)
(1.18979 1.08454 1.74701e-19)
(1.19767 1.11487 0)
(1.14632 1.09394 -3.48305e-20)
(1.07562 1.0583 0)
(0.999069 1.01972 3.39695e-21)
(0.914952 0.977478 2.56701e-20)
(0.822201 0.928921 3.16046e-20)
(0.719868 0.870148 -5.68445e-19)
(0.623097 0.805182 3.58036e-20)
(0.549335 0.742292 4.04149e-19)
(0.49334 0.670878 5.82186e-19)
(0.429877 0.569794 7.89285e-20)
(0.345153 0.432459 3.90031e-19)
(0.24077 0.264811 0)
(0.143669 0.0986643 5.42252e-19)
(0.0798298 -0.00976532 -3.17425e-19)
(0.0330591 0.0586541 3.67203e-19)
(-0.0380637 0.453928 -4.37727e-19)
(0.238929 0.220086 1.85498e-19)
(1.02179 0.946232 2.86742e-19)
(1.17965 1.11225 0)
(1.18603 1.1425 5.23848e-21)
(1.13459 1.12107 1.02166e-19)
(1.06388 1.08505 -8.0709e-20)
(0.987338 1.0462 2.94667e-20)
(0.902687 1.00395 0)
(0.808781 0.955633 2.04493e-19)
(0.704122 0.897389 -2.91125e-20)
(0.603412 0.833459 0)
(0.523763 0.769626 0)
(0.460266 0.691721 5.20902e-19)
(0.387679 0.578695 -2.443e-19)
(0.296012 0.428368 -3.9495e-19)
(0.18861 0.238929 0)
(0.0814991 0.10597 2.73339e-19)
(0.00762989 0.465405 -3.16122e-19)
(0.0323417 1.92102 -1.76418e-19)
(0.058884 2.82206 -2.22706e-19)
(0.238931 0.226784 -1.39424e-19)
(1.0157 0.970667 -3.68197e-19)
(1.16973 1.13837 1.03989e-19)
(1.17464 1.16854 8.79528e-20)
(1.12325 1.1468 0)
(1.05252 1.11058 -6.79275e-20)
(0.976133 1.0717 3.06038e-20)
(0.890903 1.02966 -1.18088e-20)
(0.795897 0.981894 3.061e-20)
(0.688942 0.924673 5.37042e-19)
(0.584225 0.862472 6.03823e-19)
(0.49811 0.798517 4.5024e-19)
(0.425582 0.714244 5.23336e-19)
(0.342533 0.587371 -5.72765e-19)
(0.245699 0.428525 -5.95777e-19)
(0.123046 0.283573 0)
(0.0423915 0.871609 0)
(0.0903025 2.57628 1.50942e-19)
(0.0926605 3.20936 0)
(0.0937265 3.3887 3.64944e-19)
(0.241653 0.232984 0)
(1.00985 0.994248 0)
(1.15975 1.16277 0)
(1.1633 1.19284 2.63437e-20)
(1.11199 1.17091 9.41171e-20)
(1.04132 1.13475 -6.36901e-20)
(0.965379 1.0961 1.57636e-20)
(0.879533 1.05446 -1.1151e-20)
(0.783487 1.00753 2.47893e-19)
(0.674324 0.951846 -9.53005e-21)
(0.565607 0.891934 1.18616e-18)
(0.472774 0.828947 -5.2094e-20)
(0.389329 0.739281 6.31364e-20)
(0.296669 0.593899 8.28995e-20)
(0.185023 0.446637 -1.8227e-21)
(0.0966585 1.0098 1.70521e-21)
(0.128755 2.75674 -7.93399e-19)
(0.133519 3.30088 -2.97469e-19)
(0.123277 3.42464 1.53456e-19)
(0.111997 3.4446 -1.70214e-19)
(0.164138 0.177883 8.22549e-20)
(1.0002 1.01985 0)
(1.14959 1.18569 -2.09283e-19)
(1.15234 1.21572 -2.36236e-19)
(1.10126 1.19387 2.17745e-19)
(1.03096 1.15803 7.20027e-20)
(0.954945 1.11935 -1.07956e-20)
(0.868652 1.07835 1.08287e-19)
(0.771654 1.03259 -1.99066e-19)
(0.660475 0.97902 0)
(0.547814 0.921833 5.78526e-19)
(0.448331 0.860644 -3.64973e-19)
(0.352301 0.769989 0)
(0.243888 0.602697 7.71418e-20)
(0.138196 0.795047 1.87673e-19)
(0.142967 2.55685 -2.15947e-19)
(0.192137 3.33067 2.42942e-19)
(0.173878 3.43701 1.31261e-19)
(0.143721 3.45552 1.48034e-19)
(0.123993 3.46401 2.36542e-19)
(0.277371 0.272215 -1.56929e-19)
(0.983865 1.0311 0)
(1.13199 1.21216 2.27111e-19)
(1.13818 1.24827 2.60634e-19)
(1.08438 1.22778 -2.39777e-19)
(1.01355 1.19239 -9.67219e-20)
(0.936376 1.15524 -1.6304e-20)
(0.849538 1.11556 8.65235e-21)
(0.751166 1.07208 1.8159e-19)
(0.637179 1.02279 4.48664e-19)
(0.519286 0.971695 3.20018e-20)
(0.408722 0.913851 3.20516e-19)
(0.285941 0.81378 5.82972e-20)
(0.207925 0.969457 -7.52108e-20)
(0.213467 2.42979 -1.69784e-19)
(0.264168 3.33731 1.6346e-19)
(0.247191 3.465 -1.82258e-19)
(0.212506 3.48297 -1.06026e-19)
(0.178526 3.50676 -9.03804e-20)
(0.133562 3.50043 -1.07223e-20)
(0.267856 0.271347 0)
(0.981611 1.05461 6.50694e-20)
(1.12384 1.23617 -4.66918e-20)
(1.12773 1.27215 -3.08212e-20)
(1.07371 1.25131 -1.64949e-19)
(1.00294 1.21614 9.88401e-20)
(0.925478 1.17925 1.90522e-20)
(0.838426 1.14044 7.23198e-21)
(0.739496 1.0985 -1.8434e-19)
(0.624186 1.05225 -1.43169e-20)
(0.503391 1.00552 -1.02768e-18)
(0.38721 0.949768 4.57448e-20)
(0.274983 0.888548 -5.46218e-20)
(0.242284 1.56352 -6.88282e-20)
(0.303293 3.14576 1.76299e-20)
(0.317417 3.46865 1.70769e-21)
(0.275506 3.51514 2.61107e-19)
(0.241361 3.53691 1.29116e-19)
(0.195653 3.55606 -3.47056e-20)
(0.145812 3.55151 -5.05217e-20)
(0.253862 0.269536 1.64806e-19)
(0.978484 1.08076 4.43137e-19)
(1.11531 1.26228 -1.34077e-19)
(1.11682 1.29755 -1.16767e-19)
(1.0626 1.27633 0)
(0.991972 1.2412 1.69652e-19)
(0.91448 1.2046 4.32055e-20)
(0.827468 1.16661 5.6989e-21)
(0.728287 1.12628 -2.07375e-20)
(0.612172 1.0833 -3.90219e-19)
(0.489315 1.04116 -4.66651e-19)
(0.368563 0.987683 -3.68998e-19)
(0.27504 1.03209 -4.09068e-19)
(0.305526 2.31147 4.21063e-19)
(0.382207 3.39693 3.48821e-19)
(0.355396 3.52648 0)
(0.307098 3.56137 0)
(0.270264 3.5938 -2.68111e-20)
(0.225659 3.63848 0)
(0.156563 3.6216 -3.54231e-20)
(0.243955 0.271614 -2.46665e-19)
(0.973399 1.10784 -3.76311e-19)
(1.10542 1.28968 0)
(1.10471 1.32384 6.30292e-21)
(1.05031 1.30203 -1.76137e-19)
(0.979959 1.26685 2.7032e-19)
(0.902751 1.23056 3.70958e-20)
(0.816004 1.19329 7.676e-22)
(0.716825 1.15455 -1.17484e-19)
(0.600322 1.11481 1.85656e-20)
(0.476245 1.07713 0)
(0.352349 1.03114 0)
(0.299674 1.31943 -3.6588e-19)
(0.381866 2.97591 1.46144e-19)
(0.446261 3.49763 1.82417e-19)
(0.393715 3.56129 0)
(0.351834 3.61629 5.58098e-22)