/*--------------------------------*- C++ -*----------------------------------*\
  =========                 |
  \\      /  F ield         | OpenFOAM: The Open Source CFD Toolbox
   \\    /   O peration     | Website:  https://openfoam.org
    \\  /    A nd           | Version:  6
     \\/     M anipulation  |
\*---------------------------------------------------------------------------*/
FoamFile
{
    version     2.0;
    format      ascii;
    class       volScalarField;
    location    "76.8";
    object      p;
}
// * * * * * * * * * * * * * * * * * * * * * * * * * * * * * * * * * * * * * //

dimensions      [0 2 -2 0 0 0 0];

internalField   nonuniform List<scalar> 
8800
(
0.871687
0.822372
0.784406
0.756336
0.736174
0.721585
0.710984
0.70344
0.698549
0.696473
0.697837
0.702174
0.708964
0.718385
0.731121
0.748441
0.772318
0.805416
0.848353
0.900867
0.706181
0.712525
0.721675
0.725223
0.722613
0.716523
0.70958
0.703335
0.698528
0.695653
0.695414
0.698036
0.702675
0.708801
0.7159
0.722933
0.727812
0.727688
0.721013
0.712115
0.679696
0.685931
0.690431
0.694301
0.697248
0.698195
0.697103
0.694978
0.692992
0.692146
0.693172
0.695621
0.698505
0.700774
0.701295
0.699507
0.696141
0.692129
0.687349
0.683633
0.675395
0.678161
0.680766
0.682923
0.684659
0.686225
0.687325
0.687674
0.687555
0.687647
0.688446
0.689585
0.690325
0.690174
0.6892
0.687847
0.686178
0.683878
0.681468
0.679901
0.670339
0.671764
0.673603
0.675682
0.677393
0.678684
0.679779
0.680755
0.681559
0.68229
0.682996
0.683453
0.683476
0.683114
0.682448
0.681335
0.679681
0.677788
0.676436
0.675634
0.665348
0.666251
0.667497
0.669122
0.670814
0.672344
0.673626
0.674744
0.675804
0.676816
0.677598
0.677987
0.677998
0.677632
0.676833
0.675648
0.674289
0.673026
0.672207
0.671683
0.660438
0.661094
0.662054
0.663371
0.664817
0.666332
0.667814
0.669175
0.670434
0.671634
0.672583
0.673078
0.673099
0.672667
0.671892
0.670955
0.669967
0.669067
0.668489
0.668104
0.655606
0.656111
0.656896
0.658036
0.659335
0.660751
0.662258
0.663797
0.665306
0.666759
0.667914
0.668527
0.668612
0.668298
0.667742
0.667061
0.666331
0.665673
0.665248
0.664949
0.650798
0.6512
0.651859
0.65288
0.654109
0.655474
0.656978
0.658617
0.660347
0.66209
0.663509
0.664323
0.664609
0.664531
0.664222
0.663766
0.663245
0.662783
0.662471
0.662227
0.645932
0.646259
0.646832
0.647775
0.648961
0.650318
0.651862
0.653608
0.655543
0.657596
0.659359
0.660492
0.661075
0.661273
0.66121
0.660987
0.660669
0.660372
0.660144
0.659939
0.640918
0.64119
0.641703
0.642602
0.643776
0.645164
0.646792
0.648689
0.650868
0.653284
0.655479
0.657021
0.657964
0.658474
0.658681
0.658699
0.658584
0.658432
0.658272
0.658095
0.635666
0.635894
0.63637
0.637256
0.638457
0.639921
0.641675
0.643782
0.646276
0.649142
0.651864
0.653896
0.65526
0.656127
0.656637
0.6569
0.656997
0.656983
0.65688
0.656721
0.63008
0.630275
0.630733
0.631635
0.632904
0.634488
0.636426
0.63881
0.641708
0.645133
0.648494
0.65111
0.652965
0.654244
0.655097
0.655638
0.655956
0.656069
0.656013
0.655868
0.624055
0.624223
0.624681
0.625627
0.627005
0.628761
0.630951
0.633697
0.637101
0.641213
0.645348
0.648663
0.651101
0.652856
0.654104
0.654971
0.655515
0.655753
0.655738
0.6556
0.617466
0.617613
0.618085
0.619105
0.620637
0.622626
0.625146
0.628351
0.632387
0.637339
0.642411
0.646563
0.649692
0.65201
0.653708
0.654933
0.655738
0.656108
0.656131
0.655996
0.61017
0.610293
0.610794
0.611918
0.613656
0.615949
0.61889
0.622674
0.62749
0.633469
0.639669
0.644818
0.648765
0.651747
0.653981
0.655621
0.656719
0.657225
0.657282
0.657146
0.601973
0.602081
0.602622
0.603883
0.605886
0.608567
0.612041
0.616547
0.622327
0.629556
0.637112
0.64345
0.648361
0.652123
0.654998
0.657128
0.658552
0.659202
0.659289
0.659148
0.592623
0.592727
0.593328
0.594763
0.597112
0.600283
0.604426
0.609833
0.616802
0.625552
0.634733
0.642479
0.648529
0.65321
0.65684
0.659542
0.661336
0.662136
0.662251
0.662101
0.581809
0.581896
0.582583
0.584263
0.587051
0.590848
0.595837
0.602375
0.610814
0.621411
0.632533
0.641936
0.649321
0.655084
0.659581
0.662957
0.665165
0.666118
0.666256
0.666094
0.569142
0.569216
0.570007
0.571998
0.575349
0.57995
0.586022
0.593986
0.604252
0.617096
0.630523
0.641858
0.650787
0.657805
0.663314
0.667461
0.670115
0.671217
0.671368
0.67119
0.554042
0.554108
0.555047
0.557454
0.561544
0.567201
0.574677
0.584466
0.597013
0.612586
0.628729
0.642293
0.65298
0.661433
0.668098
0.673105
0.676223
0.677458
0.677609
0.677413
0.535706
0.535765
0.536921
0.539917
0.54502
0.5521
0.561443
0.573603
0.58902
0.607891
0.627196
0.643289
0.655953
0.666015
0.673955
0.679898
0.68347
0.684799
0.684934
0.684718
0.512936
0.513
0.514507
0.518388
0.524947
0.53403
0.545933
0.561223
0.580256
0.603078
0.626004
0.644904
0.659743
0.671566
0.680883
0.68779
0.69175
0.693111
0.693208
0.692973
0.483904
0.484
0.486111
0.491422
0.500245
0.51228
0.527804
0.547267
0.570822
0.598303
0.625282
0.647222
0.664375
0.678055
0.688824
0.696637
0.700849
0.702153
0.702189
0.701939
0.44546
0.445687
0.44904
0.456995
0.469643
0.486243
0.506942
0.531898
0.560984
0.593806
0.625201
0.650338
0.669874
0.685435
0.697657
0.706194
0.710437
0.711573
0.711531
0.711273
0.391606
0.392735
0.399416
0.412858
0.432199
0.455866
0.483732
0.515619
0.551191
0.589916
0.625954
0.654345
0.67625
0.693628
0.707149
0.716105
0.720075
0.720944
0.720822
0.720566
0.313673
0.321319
0.33667
0.360192
0.389529
0.422655
0.459234
0.499037
0.541748
0.586845
0.627821
0.65966
0.684121
0.703426
0.71803
0.727066
0.730579
0.731168
0.730994
0.730775
0.230793
0.247493
0.27242
0.306771
0.346635
0.389362
0.434671
0.482507
0.532649
0.584654
0.63129
0.667183
0.694628
0.716086
0.731668
0.740244
0.742973
0.743267
0.743114
0.742973
0.159746
0.180163
0.213083
0.256742
0.305957
0.357723
0.411529
0.467255
0.524647
0.583242
0.635102
0.674622
0.704599
0.727654
0.743577
0.751358
0.75346
0.753655
0.753544
0.753436
0.10157
0.124262
0.16267
0.212999
0.269525
0.328862
0.390173
0.45314
0.517319
0.582107
0.638832
0.681614
0.713716
0.737933
0.753951
0.761215
0.763048
0.763238
0.763175
0.763085
0.053376
0.0774174
0.119797
0.175329
0.237704
0.303271
0.370976
0.440339
0.510713
0.58129
0.642601
0.688461
0.722536
0.747801
0.763956
0.770911
0.772598
0.772803
0.772786
0.772711
0.0125276
0.037362
0.0826673
0.14243
0.209733
0.28062
0.353872
0.428918
0.504937
0.580942
0.646645
0.695488
0.731492
0.757857
0.774217
0.780983
0.782627
0.782874
0.782898
0.78284
-0.0230373
0.0023148
0.0499021
0.113175
0.184702
0.260243
0.338441
0.418644
0.499895
0.581027
0.650993
0.702782
0.740748
0.76821
0.784958
0.791825
0.793475
0.793714
0.793766
0.793725
-0.054838
-0.029075
0.0203872
0.086655
0.161855
0.241501
0.32417
0.409133
0.49531
0.581361
0.655499
0.710233
0.750186
0.778897
0.796222
0.803333
0.805017
0.805242
0.805287
0.805254
-0.0839208
-0.0577839
-0.00672564
0.062151
0.140591
0.223898
0.310626
0.4
0.490861
0.581705
0.659956
0.717651
0.759637
0.78967
0.807664
0.815055
0.816813
0.817008
0.817031
0.817013
-0.111115
-0.0845811
-0.0320967
0.0391333
0.12045
0.20704
0.297465
0.390947
0.486274
0.581813
0.66417
0.724842
0.768875
0.800219
0.818914
0.826572
0.828413
0.828583
0.828579
0.828566
-0.136837
-0.109925
-0.0561298
0.0171952
0.101084
0.190634
0.284442
0.381747
0.481322
0.58146
0.667979
0.731654
0.777726
0.810343
0.829644
0.83757
0.839477
0.839611
0.839562
0.839541
-0.161561
-0.134192
-0.0791842
-0.00395746
0.0822426
0.174467
0.271373
0.372222
0.475835
0.580505
0.671244
0.738002
0.786091
0.81988
0.839691
0.847764
0.849681
0.849772
0.849683
0.849652
-0.185441
-0.157608
-0.101458
-0.0245145
0.0637599
0.1584
0.258129
0.362265
0.469707
0.578825
0.673864
0.743835
0.793961
0.82879
0.848932
0.857011
0.858886
0.85893
0.858804
0.85876
-0.208629
-0.1803
-0.123093
-0.0445902
0.0455454
0.142355
0.244644
0.351809
0.462851
0.576294
0.675747
0.749126
0.801376
0.83713
0.857354
0.865302
0.867069
0.867063
0.866909
0.866855
-0.231237
-0.202395
-0.14416
-0.064241
0.0275438
0.126302
0.230902
0.340824
0.455213
0.572839
0.676798
0.753867
0.808442
0.845067
0.865148
0.872712
0.874288
0.874221
0.874048
0.873986
-0.253342
-0.22392
-0.164682
-0.083486
0.00976162
0.110241
0.216908
0.329312
0.446784
0.568396
0.676921
0.758011
0.815278
0.85284
0.872512
0.879405
0.880637
0.880486
0.880304
0.880237
-0.274818
-0.244847
-0.184654
-0.102329
-0.00778878
0.0942104
0.202694
0.317323
0.437586
0.562933
0.676016
0.761487
0.821952
0.860742
0.879826
0.885623
0.886227
0.88594
0.885776
0.885717
-0.295661
-0.265158
-0.204083
-0.120745
-0.0250704
0.0782526
0.188332
0.304905
0.427664
0.556439
0.673997
0.764165
0.828452
0.869063
0.887674
0.891927
0.891342
0.890696
0.890608
0.890627
-0.315926
-0.284836
-0.222955
-0.138716
-0.0420353
0.0624359
0.173893
0.292139
0.417084
0.548943
0.670767
0.765892
0.834635
0.877909
0.896731
0.899414
0.896868
0.895136
0.895052
0.895479
-0.335478
-0.30386
-0.241224
-0.156185
-0.0586374
0.0468337
0.159461
0.279118
0.40594
0.540507
0.666259
0.76647
0.840239
0.887056
0.907335
0.909489
0.904916
0.900789
0.899018
0.89846
-0.35441
-0.322245
-0.258902
-0.173191
-0.0749159
0.0314043
0.144985
0.265788
0.394163
0.531067
0.660314
0.765645
0.84503
0.896092
0.91918
0.922866
0.917883
0.910272
0.901163
0.902341
-0.372645
-0.340057
-0.276126
-0.189928
-0.0911618
0.015825
0.13006
0.251679
0.38123
0.520029
0.652324
0.762718
0.848677
0.904617
0.9311
0.938097
0.933186
0.920599
0.901091
0.900607
-0.390058
-0.357268
-0.292738
-0.206214
-0.107115
0.000391437
0.114881
0.237097
0.36741
0.507592
0.642256
0.756879
0.850167
0.911333
0.939079
0.946758
0.942403
0.914893
0.857677
0.833282
-0.406536
-0.374803
-0.308345
-0.221615
-0.121991
-0.0144138
0.099729
0.222318
0.352983
0.493917
0.630141
0.747459
0.84824
0.915012
0.938006
0.940495
0.922503
0.868543
0.806243
0.768439
-0.448868
-0.391974
-0.322653
-0.237048
-0.136542
-0.0295657
0.0847493
0.207216
0.337733
0.478628
0.615521
0.733717
0.838914
0.911579
0.924589
0.905937
0.853084
0.784874
0.714911
0.676417
-0.423736
-0.405431
-0.344429
-0.258105
-0.159099
-0.0523452
0.061305
0.183177
0.312901
0.452633
0.588585
0.705503
0.80299
0.883281
0.862119
0.74739
0.652884
0.587263
0.521662
0.54668
-0.454117
-0.42265
-0.360793
-0.274965
-0.176332
-0.0697232
0.0441215
0.165363
0.29412
0.432195
0.565752
0.67937
0.765632
0.811013
0.75408
0.609352
0.496603
0.420597
0.336993
0.38026
-0.477594
-0.443759
-0.380198
-0.294329
-0.195748
-0.0891527
0.0245786
0.14504
0.272464
0.408198
0.537984
0.645631
0.720263
0.72731
0.615265
0.455863
0.323609
0.228687
0.1319
0.161315
-0.500398
-0.465542
-0.400641
-0.314132
-0.215484
-0.109016
0.00419199
0.123687
0.249516
0.382443
0.507306
0.606308
0.66408
0.637397
0.474178
0.293751
0.131377
-0.00438783
-0.130058
-0.119233
-0.522911
-0.487691
-0.421904
-0.334821
-0.236057
-0.129824
-0.0172949
0.101062
0.22497
0.354611
0.47359
0.563954
0.60062
0.526885
0.3352
0.135293
-0.0535616
-0.208917
-0.414988
-0.494466
-0.54582
-0.510671
-0.444372
-0.356891
-0.257992
-0.151964
-0.0400635
0.0770957
0.198919
0.324934
0.437455
0.518385
0.52825
0.403275
0.208296
-0.00318435
-0.196863
-0.359474
-0.483645
-0.600963
-0.570196
-0.534969
-0.468402
-0.380725
-0.28183
-0.176116
-0.0649578
0.0508018
0.170157
0.291911
0.397479
0.465181
0.447049
0.285902
0.0894865
-0.115901
-0.292879
-0.390973
-0.417218
-0.430628
-0.596166
-0.560875
-0.494124
-0.406415
-0.307718
-0.202507
-0.0923569
0.0216616
0.138055
0.254743
0.352919
0.402323
0.364538
0.172931
-0.0213535
-0.20655
-0.340353
-0.378614
-0.387461
-0.387787
-0.624011
-0.588516
-0.52158
-0.433949
-0.335607
-0.231148
-0.122291
-0.0103897
0.102535
0.213403
0.30311
0.335697
0.265448
0.0695974
-0.11828
-0.27932
-0.354675
-0.368796
-0.369814
-0.369668
-0.653738
-0.617924
-0.55079
-0.463328
-0.365519
-0.262037
-0.154777
-0.0453792
0.0635999
0.167994
0.247901
0.265421
0.156344
-0.0241112
-0.201568
-0.329431
-0.358838
-0.359482
-0.360035
-0.359594
-0.685094
-0.648934
-0.581656
-0.494476
-0.397371
-0.295125
-0.189797
-0.0832933
0.0212973
0.11865
0.188589
0.186807
0.0596227
-0.110057
-0.266954
-0.340338
-0.355516
-0.354023
-0.353908
-0.353549
-0.71752
-0.681197
-0.613914
-0.52716
-0.430978
-0.330259
-0.227204
-0.124016
-0.0241546
0.065777
0.125603
0.107436
-0.0296672
-0.185371
-0.309844
-0.348434
-0.348363
-0.349309
-0.349409
-0.349201
-0.750571
-0.714179
-0.647073
-0.56096
-0.465982
-0.36711
-0.266711
-0.167269
-0.0724679
0.010296
0.0576738
0.0325453
-0.111077
-0.245426
-0.334128
-0.343564
-0.34578
-0.346407
-0.346403
-0.346344
-0.78328
-0.746994
-0.680396
-0.595231
-0.501824
-0.405193
-0.307849
-0.212558
-0.123231
-0.0469363
-0.0103993
-0.042429
-0.181267
-0.292867
-0.341332
-0.352828
-0.347603
-0.345273
-0.344559
-0.344361
-0.813824
-0.778346
-0.712835
-0.629073
-0.53771
-0.443788
-0.349935
-0.259142
-0.175663
-0.105502
-0.0736083
-0.120116
-0.239112
-0.337125
-0.35783
-0.355717
-0.350299
-0.346591
-0.345359
-0.344796
-0.841099
-0.806709
-0.742974
-0.661269
-0.572563
-0.481937
-0.392075
-0.306095
-0.228512
-0.164907
-0.135009
-0.187269
-0.281395
-0.36555
-0.386013
-0.367673
-0.358779
-0.355064
-0.353127
-0.352123
-0.86238
-0.829962
-0.769034
-0.690272
-0.605044
-0.518436
-0.433154
-0.35233
-0.280492
-0.223267
-0.196027
-0.237926
-0.3038
-0.356606
-0.361681
-0.362956
-0.363664
-0.362773
-0.361367
-0.360928
-0.875572
-0.845946
-0.78891
-0.71431
-0.633605
-0.551874
-0.471844
-0.396585
-0.330497
-0.277859
-0.251688
-0.27788
-0.308029
-0.335099
-0.341092
-0.351
-0.355658
-0.356947
-0.357629
-0.358032
-0.877942
-0.852241
-0.800466
-0.731505
-0.656581
-0.580768
-0.506683
-0.437391
-0.377252
-0.328114
-0.297742
-0.315602
-0.316947
-0.319272
-0.336102
-0.348163
-0.354013
-0.356147
-0.357124
-0.357384
-0.867184
-0.846303
-0.801553
-0.740078
-0.672456
-0.603724
-0.536307
-0.473214
-0.419014
-0.375449
-0.332448
-0.355861
-0.349893
-0.342624
-0.351038
-0.358977
-0.362715
-0.36435
-0.364965
-0.365169
-0.840786
-0.82546
-0.790222
-0.738765
-0.680162
-0.619693
-0.559703
-0.502865
-0.454058
-0.418031
-0.372483
-0.38792
-0.406823
-0.430372
-0.413331
-0.393644
-0.381211
-0.377981
-0.377346
-0.377163
-0.802177
-0.792384
-0.767558
-0.727773
-0.679675
-0.628383
-0.576274
-0.525739
-0.481595
-0.451498
-0.422916
-0.413279
-0.416643
-0.457013
-0.453805
-0.417917
-0.393655
-0.385676
-0.383655
-0.382989
-0.758416
-0.752848
-0.738515
-0.710164
-0.673045
-0.630684
-0.586028
-0.541528
-0.50101
-0.47145
-0.444224
-0.415531
-0.375071
-0.345005
-0.329849
-0.337758
-0.361619
-0.373742
-0.37541
-0.374992
-0.719556
-0.716189
-0.709382
-0.691335
-0.663232
-0.628439
-0.590096
-0.550134
-0.51117
-0.478996
-0.452064
-0.419052
-0.370018
-0.316277
-0.308121
-0.352153
-0.382064
-0.393262
-0.392438
-0.396812
-0.69156
-0.68957
-0.68607
-0.675378
-0.654046
-0.624755
-0.590534
-0.552634
-0.513395
-0.477048
-0.447928
-0.430374
-0.455226
-0.536479
-0.636468
-0.702207
-0.709828
-0.671265
-0.608284
-0.589869
-0.670984
-0.670263
-0.669053
-0.663766
-0.648159
-0.622488
-0.589527
-0.551664
-0.509693
-0.467182
-0.436911
-0.416626
-0.435601
-0.50716
-0.613563
-0.643316
-0.608789
-0.566741
-0.516069
-0.491853
-0.659158
-0.658914
-0.658295
-0.655815
-0.64512
-0.621496
-0.588125
-0.54841
-0.501911
-0.451134
-0.407901
-0.355782
-0.301016
-0.254794
-0.241506
-0.18817
-0.144073
-0.119591
-0.0998694
-0.0888995
-0.651096
-0.650983
-0.650659
-0.649964
-0.643282
-0.621708
-0.587615
-0.544214
-0.492447
-0.429192
-0.366509
-0.286864
-0.161445
0.00613311
0.171439
0.280381
0.337628
0.375501
0.392664
0.401191
-0.64553
-0.645505
-0.645378
-0.64523
-0.641025
-0.622983
-0.588269
-0.540842
-0.482239
-0.407827
-0.325723
-0.225868
-0.0551454
0.172479
0.399338
0.588448
0.730348
0.821505
0.876939
0.90136
-0.641341
-0.641216
-0.640765
-0.639995
-0.638287
-0.625025
-0.591266
-0.539029
-0.473076
-0.392437
-0.295275
-0.18977
0.0134446
0.296817
0.615002
0.907766
1.13522
1.27553
1.34464
1.36911
-0.639926
-0.639808
-0.639338
-0.638236
-0.637701
-0.63076
-0.598383
-0.540604
-0.470271
-0.383736
-0.281868
-0.173892
0.0190164
0.314111
0.651485
0.969733
1.23079
1.39348
1.46504
1.48417
-0.640377
-0.641245
-0.643517
-0.647416
-0.651533
-0.647264
-0.609325
-0.544864
-0.472742
-0.385862
-0.283975
-0.183079
-0.0277133
0.243011
0.542879
0.808915
1.03106
1.17283
1.23125
1.24546
-0.635074
-0.637428
-0.644762
-0.659946
-0.676572
-0.667416
-0.615127
-0.549875
-0.483378
-0.398026
-0.299602
-0.209808
-0.0952329
0.12495
0.368961
0.575849
0.74051
0.838464
0.877161
0.885528
-0.638984
-0.64111
-0.645007
-0.644756
-0.639915
-0.630247
-0.595166
-0.555207
-0.500835
-0.416817
-0.321501
-0.242977
-0.155339
0.010766
0.19845
0.34797
0.460681
0.524686
0.548999
0.552097
-0.669193
-0.670061
-0.66613
-0.631112
-0.569876
-0.540755
-0.55832
-0.56612
-0.521232
-0.436405
-0.349999
-0.281897
-0.216063
-0.0940636
0.0343926
0.136601
0.213696
0.254476
0.267733
0.269883
-0.706577
-0.704501
-0.697326
-0.663201
-0.603374
-0.566929
-0.601722
-0.610101
-0.552195
-0.456812
-0.380015
-0.316248
-0.262978
-0.175857
-0.0851947
-0.0218779
0.0179929
0.0352537
0.0415697
0.0418974
-0.782054
-0.782956
-0.808622
-0.845169
-0.856171
-0.830662
-0.795538
-0.718229
-0.598969
-0.48394
-0.407865
-0.347366
-0.299668
-0.23945
-0.18504
-0.151148
-0.135552
-0.127299
-0.12387
-0.122188
-0.935113
-0.954663
-1.00946
-1.0706
-1.09793
-1.07368
-0.989766
-0.829605
-0.64386
-0.51552
-0.427928
-0.368376
-0.334037
-0.282761
-0.234477
-0.212339
-0.204345
-0.200445
-0.196476
-0.194729
-1.04591
-1.0687
-1.11307
-1.15554
-1.17759
-1.15419
-1.05978
-0.848034
-0.653407
-0.525452
-0.430174
-0.380689
-0.357603
-0.31091
-0.264746
-0.23361
-0.214536
-0.203688
-0.198494
-0.198054
-1.00841
-1.0249
-1.05651
-1.08936
-1.10847
-1.0884
-0.979425
-0.769752
-0.613423
-0.492544
-0.410868
-0.380675
-0.361538
-0.315881
-0.264601
-0.227537
-0.198675
-0.181626
-0.177238
-0.177846
-0.802565
-0.820313
-0.853149
-0.891492
-0.91724
-0.898649
-0.79277
-0.648851
-0.522766
-0.422598
-0.376691
-0.348533
-0.340912
-0.297329
-0.248723
-0.21539
-0.187116
-0.172477
-0.168337
-0.169479
-0.47493
-0.490409
-0.521604
-0.563182
-0.596924
-0.595814
-0.543105
-0.470447
-0.397511
-0.347702
-0.316595
-0.297046
-0.290395
-0.255252
-0.222936
-0.199852
-0.18003
-0.169966
-0.167434
-0.168473
-0.143665
-0.153236
-0.174952
-0.209434
-0.249105
-0.273702
-0.285062
-0.284391
-0.276355
-0.263389
-0.243709
-0.234412
-0.226082
-0.205129
-0.191319
-0.179309
-0.169053
-0.163557
-0.162459
-0.163685
0.079247
0.0739995
0.0592734
0.0305131
-0.0131117
-0.0671545
-0.115039
-0.149998
-0.171259
-0.177621
-0.178267
-0.168731
-0.162248
-0.160127
-0.160487
-0.160079
-0.159358
-0.15939
-0.159922
-0.160974
0.17507
0.171979
0.161515
0.137795
0.0981602
0.0457094
-0.0103285
-0.0604427
-0.0938737
-0.114912
-0.118703
-0.10893
-0.107889
-0.120109
-0.132646
-0.1432
-0.151231
-0.156723
-0.158763
-0.159461
0.18778
0.185716
0.17817
0.160501
0.129029
0.0864722
0.0392216
-0.0067628
-0.0430776
-0.0649909
-0.0710428
-0.0654196
-0.0682041
-0.0847553
-0.105949
-0.124274
-0.13914
-0.148437
-0.151016
-0.151204
0.163127
0.161807
0.156675
0.144418
0.12257
0.0911982
0.0546357
0.0183035
-0.0112388
-0.0307484
-0.0371711
-0.0338272
-0.039248
-0.0577466
-0.0803741
-0.0997534
-0.115436
-0.124339
-0.126616
-0.126704
0.126056
0.125324
0.1221
0.11422
0.0998686
0.0790687
0.0536709
0.0263692
0.00333328
-0.0107058
-0.0134076
-0.0096654
-0.0168637
-0.0347471
-0.0543798
-0.0698281
-0.0816954
-0.0876505
-0.0893237
-0.089591
0.0865775
0.0862815
0.084477
0.0797527
0.0709084
0.0576711
0.0413379
0.0241544
0.00923837
0.000603708
-0.00054259
0.00396475
-0.0011123
-0.0159097
-0.0304816
-0.0408813
-0.0471945
-0.0497239
-0.0505109
-0.050914
0.0476344
0.0476249
0.0468888
0.0445503
0.0399998
0.0331738
0.024477
0.0151781
0.00693984
0.00290677
0.00211562
0.00207359
-0.000333254
-0.00713378
-0.0140848
-0.0172114
-0.0182272
-0.0186119
-0.0191497
-0.0198156
0.009253
0.00936986
0.00959886
0.00977366
0.00935643
0.0081117
0.00618339
0.00410355
0.0022257
0.000705129
9.8926e-05
-0.00252879
-0.00138228
-0.000171225
-0.00178195
-0.00342422
-0.00395113
-0.00392902
-0.00343961
-0.00360311
0.0109322
0.198973
0.371638
0.51768
0.634366
0.726196
0.802368
0.864195
0.879752
0.876294
0.29909
0.419892
0.533069
0.631065
0.713283
0.780981
0.834258
0.870268
0.889571
0.90624
0.494678
0.57527
0.654737
0.724272
0.783436
0.832468
0.871101
0.900606
0.922854
0.942094
0.639889
0.696764
0.753769
0.805059
0.849389
0.887135
0.918845
0.945493
0.965633
0.984519
0.755236
0.798085
0.840529
0.880333
0.915954
0.947465
0.97504
0.998422
1.01629
1.03434
0.851279
0.886694
0.921821
0.955361
0.986263
1.01426
1.03898
1.05975
1.07547
1.09294
0.939308
0.971119
1.00326
1.03434
1.06323
1.0895
1.11254
1.13142
1.14529
1.1623
1.02602
1.05851
1.09084
1.12197
1.15069
1.17642
1.1985
1.21598
1.22833
1.24485
1.12026
1.15666
1.19139
1.2238
1.25293
1.27824
1.29932
1.31557
1.32717
1.34331
1.23329
1.27396
1.31093
1.3438
1.37224
1.3962
1.41579
1.43105
1.44293
1.459
1.37474
1.41573
1.45096
1.48049
1.50566
1.52726
1.54574
1.56121
1.57432
1.59027
1.54619
1.57841
1.60533
1.62766
1.64774
1.66645
1.68419
1.70095
1.71586
1.73158
1.73242
1.74966
1.76677
1.78345
1.79954
1.81428
1.82818
1.84265
1.85789
1.87519
1.91581
1.92576
1.93894
1.94992
1.95933
1.96899
1.97959
1.98977
1.99906
2.02472
2.13366
2.12796
2.11502
2.10076
2.09446
2.10017
2.11831
2.14683
2.1806
2.21692
2.43648
2.30053
2.22103
2.1785
2.16117
2.16515
2.19258
2.25045
2.35811
2.53651
0.77538
0.769078
0.761349
0.750235
0.736666
0.724021
0.713629
0.705626
0.69992
0.696607
0.696282
0.699142
0.704396
0.711771
0.721332
0.733171
0.746739
0.759673
0.768665
0.776208
0.684442
0.690362
0.698436
0.70457
0.707642
0.707134
0.704054
0.700067
0.696492
0.694228
0.694122
0.696406
0.700184
0.70465
0.708765
0.71102
0.709954
0.705323
0.698272
0.69044
0.677682
0.680054
0.683323
0.686099
0.688553
0.690747
0.691933
0.691797
0.690875
0.690092
0.69034
0.691789
0.693599
0.694851
0.694792
0.693338
0.691189
0.688834
0.685857
0.682841
0.672878
0.673966
0.675885
0.678226
0.680102
0.681507
0.682734
0.683739
0.684358
0.684764
0.685358
0.686143
0.686643
0.686552
0.685944
0.685037
0.683717
0.681756
0.679655
0.678179
0.667834
0.668468
0.669599
0.671361
0.67321
0.674812
0.676073
0.677152
0.678157
0.679089
0.679922
0.680493
0.680671
0.680497
0.679985
0.67903
0.677617
0.676018
0.674688
0.673887
0.662884
0.663323
0.664114
0.665423
0.666952
0.668526
0.670017
0.671331
0.672513
0.67364
0.67465
0.675313
0.675541
0.675346
0.674712
0.673737
0.672602
0.671472
0.670577
0.670045
0.658017
0.658345
0.658959
0.660035
0.66134
0.662752
0.664247
0.665743
0.667167
0.668517
0.669733
0.670551
0.670839
0.670644
0.670085
0.669332
0.668509
0.667672
0.66702
0.66663
0.653207
0.653461
0.653957
0.654876
0.65606
0.657383
0.658825
0.660379
0.661997
0.663616
0.665094
0.666102
0.66652
0.666482
0.666148
0.66564
0.665036
0.66443
0.66396
0.663662
0.648381
0.648583
0.648997
0.649807
0.650915
0.652195
0.653627
0.655232
0.656999
0.658877
0.660667
0.661957
0.662629
0.662851
0.66277
0.662498
0.662109
0.6617
0.661371
0.661138
0.643453
0.643615
0.643971
0.644709
0.645775
0.64704
0.648508
0.650205
0.652142
0.654293
0.656453
0.65813
0.659152
0.659685
0.659875
0.659847
0.65968
0.659453
0.659242
0.659056
0.638332
0.638463
0.638777
0.639473
0.640525
0.641821
0.643365
0.645201
0.647363
0.649851
0.652462
0.654617
0.656058
0.656951
0.657451
0.657687
0.657744
0.657694
0.657584
0.657433
0.632926
0.633031
0.633318
0.633997
0.635072
0.636442
0.638107
0.640137
0.642595
0.64551
0.648677
0.651405
0.65334
0.654651
0.655501
0.656025
0.656324
0.656451
0.65643
0.656307
0.627135
0.627219
0.62749
0.628176
0.629309
0.630796
0.632637
0.634931
0.63777
0.641218
0.645065
0.648483
0.651004
0.652801
0.654052
0.654916
0.65548
0.655779
0.655836
0.655734
0.620846
0.62091
0.621175
0.621891
0.623119
0.62477
0.626853
0.629491
0.632813
0.63692
0.641594
0.645842
0.649063
0.651433
0.653148
0.654396
0.655253
0.655738
0.655873
0.655787
0.613921
0.613966
0.614233
0.615003
0.616366
0.618237
0.620636
0.623715
0.627641
0.632559
0.638237
0.643483
0.647535
0.650584
0.652845
0.654525
0.655723
0.656412
0.656623
0.656549
0.606209
0.606228
0.606499
0.607346
0.608887
0.611042
0.613846
0.61748
0.622158
0.628073
0.634967
0.641407
0.646444
0.650291
0.6532
0.655403
0.656987
0.657896
0.658182
0.658116
0.597457
0.597472
0.597764
0.59871
0.600482
0.603001
0.606316
0.610645
0.616255
0.623391
0.631754
0.63962
0.645825
0.650612
0.654284
0.657111
0.659137
0.660287
0.660648
0.660587
0.587399
0.587388
0.587724
0.588821
0.590895
0.593877
0.597837
0.60304
0.60981
0.618441
0.628577
0.638134
0.645715
0.651611
0.656183
0.659732
0.66227
0.663683
0.664117
0.664056
0.575705
0.575673
0.57606
0.577346
0.579794
0.583371
0.588156
0.594464
0.602681
0.613149
0.625418
0.636972
0.646157
0.653347
0.658973
0.663357
0.666478
0.668168
0.668668
0.668603
0.561874
0.561819
0.562286
0.563825
0.566758
0.571108
0.576958
0.58468
0.594719
0.607449
0.622274
0.636168
0.6472
0.655874
0.662723
0.668061
0.671825
0.673794
0.674349
0.674271
0.545224
0.545147
0.545741
0.547634
0.551218
0.556596
0.563854
0.573416
0.585774
0.601293
0.619163
0.635762
0.648895
0.659249
0.667474
0.673881
0.678334
0.680565
0.681151
0.681054
0.524773
0.52468
0.52548
0.527887
0.532389
0.539197
0.548376
0.560388
0.575728
0.594684
0.616141
0.635814
0.651294
0.663512
0.67324
0.68082
0.685966
0.688405
0.688987
0.688864
0.499047
0.498954
0.500095
0.503301
0.509192
0.518087
0.529995
0.545348
0.564543
0.587702
0.613318
0.636411
0.654441
0.668672
0.680021
0.68882
0.694587
0.697138
0.69767
0.697514
0.465635
0.465592
0.467352
0.471937
0.480155
0.492327
0.508255
0.528208
0.55235
0.58055
0.610875
0.637676
0.658397
0.67473
0.687747
0.697738
0.703955
0.706467
0.706896
0.706705
0.420251
0.420421
0.423534
0.431002
0.443575
0.461137
0.483041
0.509211
0.539505
0.573562
0.609051
0.639747
0.663221
0.681651
0.696321
0.707344
0.713702
0.715974
0.716254
0.716034
0.35489
0.356277
0.363847
0.377963
0.398538
0.42468
0.455012
0.489081
0.526611
0.567166
0.608104
0.642742
0.668933
0.689368
0.705467
0.717172
0.723292
0.725105
0.725217
0.724996
0.276907
0.279633
0.294349
0.318683
0.350212
0.386505
0.425956
0.468352
0.51353
0.561133
0.608243
0.64758
0.677139
0.700071
0.717763
0.729797
0.735439
0.736886
0.736938
0.736804
0.197122
0.204272
0.226368
0.260917
0.303058
0.349268
0.397837
0.44861
0.501488
0.556153
0.609437
0.653422
0.686206
0.711527
0.730679
0.74264
0.747343
0.748248
0.748234
0.748155
0.132001
0.141098
0.167912
0.209686
0.260166
0.314782
0.371566
0.430191
0.490415
0.551805
0.610878
0.659092
0.694698
0.721834
0.741747
0.753318
0.757441
0.758197
0.758219
0.758177
0.078672
0.0884982
0.118903
0.166043
0.222797
0.284134
0.347827
0.41335
0.480253
0.547907
0.612397
0.664554
0.702696
0.731407
0.751887
0.763209
0.767009
0.767715
0.767786
0.767784
0.0340821
0.0442239
0.0770768
0.128403
0.190297
0.257214
0.326744
0.398263
0.47115
0.544583
0.614197
0.670121
0.710694
0.740926
0.761993
0.773195
0.776776
0.777458
0.777593
0.777636
-0.00425039
0.00602217
0.0406987
0.095373
0.16157
0.233283
0.307917
0.384762
0.463081
0.541879
0.616381
0.675954
0.718943
0.750698
0.772437
0.783633
0.787148
0.787917
0.788087
0.788169
-0.0380284
-0.0277181
0.00838363
0.0658296
0.135699
0.211581
0.290755
0.372435
0.455786
0.539645
0.618845
0.68203
0.727427
0.760757
0.783287
0.794765
0.798408
0.799174
0.799344
0.799449
-0.0685274
-0.0581995
-0.0209491
0.0388776
0.111937
0.191491
0.274734
0.360845
0.448902
0.53761
0.62139
0.688155
0.735989
0.770979
0.794463
0.806374
0.810172
0.810936
0.811074
0.811168
-0.0967395
-0.0863746
-0.0481108
0.0138283
0.0897183
0.172534
0.25944
0.349623
0.442106
0.535503
0.623803
0.694134
0.744438
0.781097
0.805563
0.817985
0.821955
0.822698
0.822792
0.822866
-0.123243
-0.112827
-0.0736371
-0.00979706
0.0686014
0.154335
0.244563
0.338497
0.435149
0.533067
0.625865
0.699795
0.752581
0.790909
0.816366
0.829196
0.833356
0.834091
0.834126
0.83417
-0.148512
-0.138003
-0.0979441
-0.0323783
0.0482649
0.136621
0.229871
0.327263
0.427829
0.530108
0.627406
0.705016
0.760287
0.800225
0.826574
0.839754
0.844049
0.844756
0.844729
0.844738
-0.17289
-0.162204
-0.121323
-0.0541707
0.0284916
0.119202
0.2152
0.315773
0.420001
0.526508
0.628306
0.709692
0.767522
0.808996
0.83609
0.849507
0.853787
0.854453
0.854379
0.854356
-0.196498
-0.185605
-0.143937
-0.0753402
0.00913761
0.10197
0.200448
0.303937
0.41159
0.522138
0.628441
0.713766
0.774263
0.817237
0.844875
0.858313
0.862521
0.863117
0.863003
0.862953
-0.219503
-0.208351
-0.165925
-0.0959733
-0.00987247
0.0848552
0.185569
0.291712
0.402531
0.51692
0.627705
0.717177
0.780554
0.825052
0.853046
0.866295
0.870282
0.870781
0.870627
0.870557
-0.241884
-0.230511
-0.187332
-0.116114
-0.0285675
0.0678446
0.170563
0.279093
0.392803
0.510805
0.626016
0.719846
0.786439
0.832617
0.860814
0.87357
0.877165
0.87751
0.877321
0.877238
-0.263737
-0.252088
-0.208142
-0.135769
-0.0469494
0.0509485
0.155442
0.266108
0.382431
0.503776
0.62329
0.721684
0.791927
0.84013
0.868469
0.880394
0.883303
0.8834
0.883177
0.883092
-0.284894
-0.273059
-0.228358
-0.154942
-0.0649906
0.0342185
0.140251
0.252803
0.371459
0.495848
0.619464
0.722585
0.796968
0.847753
0.876445
0.887218
0.888943
0.888535
0.888282
0.888241
-0.305515
-0.29339
-0.247969
-0.173626
-0.0826756
0.0176786
0.125068
0.239242
0.359946
0.487072
0.614503
0.722416
0.801428
0.855525
0.885185
0.894842
0.894792
0.893244
0.892792
0.892942
-0.325427
-0.313051
-0.266968
-0.191782
-0.099937
0.00140198
0.109963
0.225528
0.347979
0.477492
0.608397
0.721041
0.80511
0.863281
0.894907
0.904255
0.902348
0.898696
0.897237
0.897566
-0.344742
-0.332076
-0.285308
-0.20936
-0.116747
-0.0145526
0.0950159
0.211735
0.335656
0.467221
0.601177
0.7183
0.807767
0.870644
0.905279
0.915921
0.913516
0.907623
0.902195
0.894474
-0.363351
-0.350464
-0.303078
-0.226527
-0.133327
-0.0304597
0.079901
0.197474
0.322553
0.455797
0.592388
0.713709
0.809121
0.87753
0.915969
0.929678
0.92901
0.92138
0.909694
0.909018
-0.381214
-0.368294
-0.320282
-0.243231
-0.149668
-0.0462854
0.0646436
0.182719
0.308627
0.443078
0.581814
0.70671
0.808329
0.883131
0.925141
0.941828
0.942685
0.935972
0.901249
0.863163
-0.398124
-0.385425
-0.336867
-0.259355
-0.165768
-0.0620385
0.0492378
0.167597
0.293934
0.429076