/*--------------------------------*- C++ -*----------------------------------*\
  =========                 |
  \\      /  F ield         | OpenFOAM: The Open Source CFD Toolbox
   \\    /   O peration     | Website:  https://openfoam.org
    \\  /    A nd           | Version:  6
     \\/     M anipulation  |
\*---------------------------------------------------------------------------*/
FoamFile
{
    version     2.0;
    format      ascii;
    class       volScalarField;
    location    "117.4";
    object      p;
}
// * * * * * * * * * * * * * * * * * * * * * * * * * * * * * * * * * * * * * //

dimensions      [0 2 -2 0 0 0 0];

internalField   nonuniform List<scalar> 
8800
(
1.2382
1.18889
1.15092
1.12286
1.1027
1.08813
1.07755
1.07003
1.06517
1.06314
1.06455
1.06893
1.07575
1.0852
1.09795
1.11528
1.13917
1.17227
1.21521
1.26772
1.07268
1.07903
1.08818
1.09174
1.08913
1.08306
1.07613
1.0699
1.06513
1.0623
1.06211
1.06478
1.06945
1.07561
1.08272
1.08977
1.09466
1.09454
1.08788
1.07898
1.04618
1.05242
1.05692
1.0608
1.06376
1.06472
1.06365
1.06155
1.05961
1.05881
1.05989
1.06239
1.06531
1.0676
1.06814
1.06637
1.06301
1.05901
1.05423
1.05052
1.04185
1.04462
1.04723
1.0494
1.05115
1.05273
1.05385
1.05424
1.05416
1.05431
1.05517
1.05636
1.05714
1.05702
1.05607
1.05473
1.05308
1.05079
1.04838
1.04682
1.03676
1.03818
1.04003
1.04212
1.04385
1.04516
1.04628
1.0473
1.04815
1.04895
1.04972
1.05024
1.05032
1.04999
1.04935
1.04826
1.04662
1.04474
1.04339
1.04259
1.03172
1.03262
1.03388
1.03552
1.03723
1.03878
1.0401
1.04126
1.04238
1.04347
1.04433
1.0448
1.04486
1.04454
1.04378
1.04262
1.04128
1.04003
1.03922
1.0387
1.02674
1.0274
1.02837
1.0297
1.03117
1.03272
1.03424
1.03566
1.03698
1.03828
1.03933
1.03991
1.04
1.03962
1.03889
1.03799
1.03703
1.03614
1.03557
1.03519
1.02184
1.02234
1.02314
1.0243
1.02562
1.02708
1.02863
1.03023
1.03183
1.03339
1.03467
1.03539
1.03556
1.03531
1.03481
1.03417
1.03347
1.03283
1.03242
1.03212
1.01693
1.01734
1.01801
1.01905
1.02031
1.02172
1.02328
1.025
1.02683
1.0287
1.03027
1.03121
1.03161
1.03161
1.03137
1.03096
1.03049
1.03005
1.02975
1.0295
1.01196
1.01228
1.01287
1.01384
1.01506
1.01647
1.01808
1.01992
1.02197
1.02419
1.02613
1.02742
1.02813
1.02843
1.02845
1.0283
1.02803
1.02777
1.02755
1.02734
1.00681
1.00708
1.0076
1.00853
1.00975
1.0112
1.01291
1.01491
1.01724
1.01984
1.02225
1.02399
1.02509
1.02573
1.02604
1.02614
1.02609
1.02598
1.02583
1.02565
1.00139
1.00162
1.00211
1.00303
1.00428
1.00582
1.00767
1.0099
1.01256
1.01566
1.01864
1.02091
1.02247
1.0235
1.02414
1.0245
1.02468
1.02472
1.02463
1.02446
0.995608
0.995801
0.996276
0.997218
0.998549
1.00021
1.00226
1.0048
1.00789
1.01159
1.01527
1.01817
1.02027
1.02174
1.02276
1.02344
1.02386
1.02402
1.02398
1.02383
0.989348
0.989514
0.989989
0.99098
0.99243
0.99428
0.996597
0.999516
1.00316
1.00759
1.0121
1.01576
1.0185
1.0205
1.02196
1.02299
1.02366
1.02396
1.02396
1.02382
0.982479
0.982621
0.983112
0.984181
0.985794
0.987891
0.990557
0.993964
0.998278
1.00361
1.00913
1.0137
1.0172
1.01982
1.02177
1.02321
1.02417
1.02461
1.02465
1.02451
0.974846
0.974966
0.975483
0.976661
0.97849
0.980904
0.984013
0.988029
0.99317
0.9996
1.00633
1.01198
1.01637
1.01973
1.02228
1.02418
1.02547
1.02606
1.02614
1.02599
0.966242
0.966345
0.966898
0.968221
0.970328
0.973144
0.976807
0.981581
0.987738
0.995496
1.00368
1.01062
1.01607
1.02028
1.02355
1.02601
1.02766
1.02841
1.02851
1.02836
0.956383
0.956483
0.957106
0.958608
0.961075
0.964397
0.968753
0.974467
0.981874
0.991241
1.00116
1.00962
1.01631
1.02155
1.02565
1.02876
1.03082
1.03173
1.03186
1.03169
0.944975
0.945053
0.945767
0.947521
0.95043
0.954393
0.959623
0.96651
0.975455
0.986773
0.998762
1.009
1.01715
1.02358
1.02865
1.03251
1.03503
1.0361
1.03624
1.03606
0.931567
0.931633
0.932458
0.934529
0.938007
0.942793
0.949135
0.957501
0.968351
0.982032
0.996469
1.00878
1.01861
1.02641
1.03262
1.03733
1.04033
1.04153
1.04168
1.04148
0.915548
0.915605
0.916585
0.919083
0.923309
0.929169
0.936953
0.947205
0.960431
0.976973
0.994286
1.00899
1.02072
1.03009
1.03757
1.04322
1.0467
1.04801
1.04815
1.04793
0.896059
0.896112
0.89732
0.900418
0.905667
0.912978
0.922677
0.935379
0.951588
0.971585
0.992239
1.00964
1.0235
1.03462
1.04348
1.05014
1.05405
1.05542
1.05551
1.05528
0.871835
0.871894
0.873461
0.877463
0.884188
0.893536
0.905867
0.921806
0.941777
0.965913
0.990388
1.01077
1.02696
1.03997
1.05032
1.05796
1.06218
1.06352
1.06356
1.06331
0.840892
0.840982
0.843174
0.848653
0.857698
0.87006
0.886122
0.906381
0.93106
0.960076
0.988831
1.01244
1.0311
1.04609
1.05797
1.06647
1.0708
1.07198
1.07194
1.07168
0.799869
0.800102
0.803592
0.811806
0.824791
0.841863
0.863268
0.88922
0.919663
0.954291
0.987721
1.01474
1.03593
1.05294
1.06627
1.07533
1.07947
1.08038
1.08026
1.08001
0.742347
0.743556
0.750565
0.764515
0.784409
0.808796
0.837628
0.870781
0.907998
0.948849
0.987234
1.01774
1.04146
1.06038
1.07496
1.08413
1.08772
1.0883
1.08811
1.08788
0.65901
0.667218
0.683427
0.707922
0.738175
0.772366
0.810234
0.851614
0.896281
0.943841
0.987518
1.02177
1.04821
1.06913
1.08456
1.09335
1.09618
1.09644
1.09622
1.09604
0.569873
0.587996
0.614358
0.650202
0.691392
0.735489
0.78235
0.831993
0.884309
0.939012
0.988617
1.02725
1.05697
1.08002
1.09594
1.10354
1.10532
1.10532
1.10515
1.10504
0.493186
0.515379
0.550217
0.595759
0.64662
0.700058
0.755665
0.8134
0.873131
0.934591
0.98964
1.03218
1.06471
1.08941
1.10508
1.11125
1.11229
1.11222
1.11209
1.11202
0.429889
0.454578
0.495248
0.547744
0.60615
0.667352
0.730634
0.795738
0.862337
0.930066
0.990118
1.03617
1.07112
1.09696
1.11215
1.1173
1.118
1.11791
1.11781
1.11775
0.377053
0.403288
0.448189
0.506071
0.570475
0.63801
0.707764
0.779295
0.852053
0.925497
0.990145
1.03944
1.07657
1.10334
1.118
1.12235
1.12283
1.12273
1.12265
1.1226
0.332104
0.35926
0.407296
0.469523
0.538932
0.611828
0.687126
0.764268
0.84251
0.921134
0.989979
1.04225
1.08136
1.10885
1.12292
1.12666
1.127
1.1269
1.12683
1.12678
0.292957
0.320717
0.371192
0.437013
0.510683
0.588233
0.668423
0.750577
0.833782
0.917123
0.989794
1.04475
1.08561
1.11365
1.12713
1.13041
1.13065
1.13054
1.13047
1.13042
0.258104
0.286316
0.338788
0.407665
0.485028
0.566665
0.651245
0.737974
0.825757
0.913471
0.989635
1.04699
1.08939
1.1178
1.13074
1.13365
1.13381
1.13369
1.13361
1.13357
0.226486
0.255086
0.309237
0.380785
0.461403
0.546677
0.635231
0.726177
0.818263
0.910096
0.989505
1.04901
1.09271
1.12136
1.13379
1.13641
1.1365
1.13635
1.13626
1.13622
0.197252
0.226239
0.281891
0.355847
0.439361
0.527906
0.620084
0.714955
0.811127
0.906924
0.989411
1.05084
1.09561
1.12434
1.13625
1.13864
1.13867
1.13849
1.13839
1.13834
0.169968
0.199287
0.256301
0.332421
0.418552
0.510064
0.605574
0.704119
0.804213
0.903916
0.989405
1.05256
1.09814
1.12673
1.13811
1.14031
1.1403
1.14011
1.14
1.13993
0.144101
0.173827
0.23209
0.310192
0.398699
0.49292
0.591517
0.693521
0.797407
0.901028
0.989567
1.05432
1.10039
1.12859
1.13939
1.14142
1.1414
1.14122
1.14111
1.14104
0.119467
0.149592
0.209024
0.288934
0.3796
0.476305
0.577765
0.683037
0.790606
0.898218
0.989992
1.05631
1.10256
1.13003
1.14016
1.14206
1.14207
1.14193
1.14184
1.14175
0.0958637
0.126394
0.186915
0.268489
0.36112
0.460097
0.564208
0.672559
0.783708
0.895409
0.990741
1.05878
1.10491
1.13123
1.14055
1.14236
1.14245
1.14236
1.14228
1.14219
0.0731403
0.104124
0.165655
0.248756
0.343156
0.444209
0.550768
0.662013
0.776622
0.892497
0.991821
1.062
1.10785
1.13247
1.14065
1.14239
1.14268
1.14264
1.14253
1.14242
0.0511718
0.0826429
0.145185
0.229671
0.325661
0.428586
0.537394
0.651336
0.769265
0.889357
0.993164
1.06618
1.11195
1.13425
1.14055
1.14194
1.14257
1.14277
1.1427
1.1425
0.0300406
0.0619688
0.125468
0.211179
0.308596
0.413212
0.524053
0.640494
0.761577
0.885878
0.994622
1.07145
1.11781
1.13744
1.14074
1.14088
1.1417
1.14282
1.14332
1.14307
0.00971675
0.0420682
0.106458
0.193264
0.291953
0.398077
0.51075
0.629462
0.753512
0.881938
0.995997
1.07774
1.12598
1.14334
1.14288
1.1403
1.14061
1.14324
1.14556
1.14583
-0.00989969
0.0229369
0.0881305
0.175911
0.275741
0.3832
0.497502
0.618248
0.745038
0.877439
0.99704
1.08481
1.1367
1.15325
1.14937
1.14343
1.14236
1.14657
1.15185
1.15402
-0.0287033
0.0045638
0.0704999
0.159145
0.259973
0.368615
0.484343
0.606881
0.736156
0.872308
0.997491
1.09224
1.14975
1.16769
1.16198
1.15316
1.14971
1.15281
1.15883
1.16186
-0.0468042
-0.0130964
0.0535351
0.142905
0.244585
0.354255
0.471193
0.595271
0.726748
0.866401
0.997085
1.0996
1.16473
1.18641
1.18087
1.17029
1.16301
1.15763
1.15177
1.15719
-0.0641626
-0.0301163
0.0370805
0.126988
0.229277
0.339796
0.457653
0.582961
0.716323
0.859175
0.995302
1.10638
1.18163
1.20967
1.20577
1.19442
1.18107
1.16619
1.14357
1.14996
-0.0806796
-0.0465075
0.021275
0.111567
0.214283
0.325508
0.443876
0.570206
0.705061
0.850657
0.991733
1.11112
1.19851
1.23541
1.23255
1.21831
1.19919
1.16665
1.11346
1.09284
-0.0962724
-0.0633379
0.00653477
0.0970738
0.200408
0.311878
0.430136
0.557265
0.693207
0.840936
0.986163
1.11267
1.21273
1.2605
1.25368
1.23278
1.19943
1.14002
1.07953
1.04349
-0.138214
-0.079994
-0.0068658
0.0825266
0.186861
0.297878
0.416575
0.543985
0.680489
0.829521
0.977826
1.10959
1.22066
1.27753
1.26845
1.22248
1.15255
1.07615
1.00512
0.965957
-0.110399
-0.0910705
-0.0272339
0.0627912
0.165813
0.27681
0.39514
0.522513
0.659196
0.808888
0.959257
1.09466
1.20376
1.26841
1.22302
1.08349
0.97627
0.902096
0.832356
0.849946
-0.140068
-0.107481
-0.0427299
0.046915
0.149645
0.260616
0.379388
0.506485
0.642789
0.791892
0.941455
1.07506
1.17325
1.20917
1.12474
0.958617
0.832805
0.748161
0.660151
0.695204
-0.162549
-0.12767
-0.0611819
0.0285482
0.13128
0.24237
0.361244
0.487866
0.623319
0.770874
0.917676
1.04601
1.13187
1.13004
0.991202
0.815073
0.671396
0.567558
0.466924
0.487893
-0.184147
-0.14832
-0.0805297
0.00984151
0.112694
0.223766
0.342279
0.468184
0.602426
0.747715
0.890071
1.00875
1.07549
1.0395
0.852327
0.659114
0.488268
0.346729
0.217025
0.217371
-0.205268
-0.169166
-0.100552
-0.00962491
0.09338
0.204293
0.322244
0.447199
0.579795
0.722102
0.858406
0.96603
1.01042
0.919675
0.71424
0.504432
0.310698
0.152281
-0.0528008
-0.134276
-0.226604
-0.19069
-0.121655
-0.0303729
0.0727709
0.18352
0.300916
0.424792
0.555453
0.694182
0.823312
0.920666
0.934627
0.793502
0.586632
0.36806
0.170992
0.00861642
-0.112536
-0.221875
-0.249204
-0.213363
-0.144187
-0.052787
0.0503279
0.160773
0.277461
0.399993
0.528218
0.662484
0.783659
0.866
0.850354
0.672943
0.466294
0.254495
0.0744191
-0.0235743
-0.0489467
-0.0616584
-0.273233
-0.237483
-0.168274
-0.0769507
0.025907
0.135822
0.251489
0.372259
0.497429
0.626187
0.737934
0.80057
0.761256
0.556735
0.352888
0.161897
0.0255614
-0.0126449
-0.0205824
-0.0209776
-0.298989
-0.263181
-0.193957
-0.102851
-0.000443877
0.108648
0.222951
0.341499
0.462963
0.585262
0.686741
0.730988
0.6522
0.449458
0.252915
0.086889
0.0108388
-0.00311326
-0.00396908
-0.0038209
-0.326471
-0.290498
-0.221268
-0.130497
-0.0287561
0.0792379
0.191811
0.307664
0.424804
0.539768
0.630236
0.655268
0.5383
0.351601
0.166631
0.0352724
0.00662401
0.00598238
0.00546244
0.00587707
-0.355437
-0.319279
-0.250119
-0.159824
-0.0589639
0.047622
0.158066
0.270747
0.382998
0.489848
0.569167
0.57239
0.437851
0.262683
0.0996043
0.0238774
0.00931534
0.011239
0.0114941
0.0118799
-0.385339
-0.349183
-0.280261
-0.190615
-0.090897
0.0139369
0.121844
0.230847
0.337783
0.436121
0.503526
0.489553
0.346247
0.184802
0.0549381
0.0156356
0.0162915
0.0157497
0.0159258
0.0162053
-0.415734
-0.379684
-0.311213
-0.222467
-0.124218
-0.0215083
0.0834173
0.188242
0.289466
0.379612
0.432659
0.411999
0.265041
0.123873
0.0293508
0.0209155
0.0191681
0.0187835
0.0188109
0.018959
-0.445622
-0.409925
-0.342266
-0.254762
-0.158386
-0.0582418
0.0432518
0.143436
0.238497
0.321203
0.3626
0.333479
0.19649
0.0810803
0.0243675
0.0142258
0.0194954
0.0205918
0.0209675
0.0211354
-0.473475
-0.438656
-0.372398
-0.286627
-0.192631
-0.095559
0.00202505
0.0971935
0.185712
0.261366
0.297816
0.254082
0.141237
0.0483668
0.0248941
0.0222831
0.021849
0.0224385
0.0227151
0.0228721
-0.497949
-0.464391
-0.400235
-0.316872
-0.2259
-0.132517
-0.0393715
0.0504617
0.132417
0.200722
0.2346
0.186555
0.100085
0.0303821
0.00928755
0.019109
0.022562
0.0237575
0.0241533
0.0243242
-0.516503
-0.485054
-0.424044
-0.344003
-0.256891
-0.16793
-0.0798153
0.00433607
0.0799363
0.141183
0.171964
0.133949
0.0734039
0.0293499
0.0233114
0.0233169
0.0247112
0.0251849
0.0253377
0.0254761
-0.527192
-0.498624
-0.441801
-0.366307
-0.284094
-0.200419
-0.117976
-0.039904
0.0293994
0.0853744
0.114894
0.0897195
0.0571346
0.033033
0.0316578
0.0273549
0.0255558
0.0251974
0.0250852
0.0251427
-0.527375
-0.50278
-0.45147
-0.381977
-0.305901
-0.228527
-0.152428
-0.080752
-0.0179309
0.033836
0.067015
0.0488012
0.0404864
0.0281105
0.0247398
0.0236102
0.0227156
0.0223584
0.0222372
0.02226
-0.514631
-0.494807
-0.450928
-0.389311
-0.320877
-0.250894
-0.181846
-0.116685
-0.0602471
-0.0146354
0.030815
0.00946913
0.0199915
0.00941969
0.0109387
0.0150242
0.0166231
0.0168776
0.0168647
0.0169107
-0.487177
-0.472783
-0.438473
-0.387155
-0.328007
-0.266551
-0.205206
-0.146612
-0.0957599
-0.0578435
-0.0102667
-0.00663445
0.00087225
-0.00845873
-0.000335303
0.00561034
0.00905728
0.00967478
0.00950126
0.00952488
-0.448531
-0.439398
-0.415491
-0.375898
-0.327388
-0.275274
-0.221944
-0.169934
-0.123907
-0.0915371
-0.06025
-0.0313918
-0.00109712
-0.000879197
-0.00695484
-0.00303199
-0.0024649
-0.00320837
-0.00382806
-0.00382937
-0.405737
-0.400527
-0.386879
-0.358676
-0.321149
-0.277946
-0.232192
-0.186275
-0.144128
-0.112946
-0.0852542
-0.0569689
-0.0200736
0.00929868
0.0259603
0.011665
-0.0140998
-0.0278189
-0.0319147
-0.0325846
-0.368378
-0.365173
-0.358638
-0.340732
-0.312118
-0.276377
-0.236972
-0.195648
-0.155429
-0.122666
-0.0971116
-0.081378
-0.0784542
-0.0981279
-0.130462
-0.167432
-0.171618
-0.133142
-0.109556
-0.110793
-0.341432
-0.339529
-0.336259
-0.325706
-0.303865
-0.273651
-0.238202
-0.199043
-0.158515
-0.121736
-0.0943384
-0.0890153
-0.134375
-0.211327
-0.286334
-0.320558
-0.321552
-0.284423
-0.237265
-0.219572
-0.321677
-0.321011
-0.319929
-0.314742
-0.298811
-0.272214
-0.237901
-0.198367
-0.154818
-0.111091
-0.0803651
-0.0550414
-0.0431888
-0.0608708
-0.106242
-0.116538
-0.101785
-0.0770745
-0.0472936
-0.0325264
-0.310032
-0.309812
-0.30922
-0.306912
-0.296169
-0.271749
-0.237043
-0.19525
-0.146957
-0.093409
-0.0472501
0.0156913
0.0967272
0.17293
0.217994
0.250258
0.283645
0.316754
0.344794
0.358759
-0.301897
-0.301752
-0.301357
-0.300755
-0.294273
-0.272374
-0.236622
-0.191307
-0.137146
-0.0715784
-0.00346721
0.0840025
0.226146
0.40382
0.569582
0.699809
0.789758
0.847142
0.881574
0.896093
-0.296482
-0.29644
-0.296329
-0.296193
-0.292466
-0.274123
-0.237388
-0.187744
-0.127528
-0.0514148
0.0346225
0.132021
0.317489
0.576972
0.847905
1.08513
1.2542
1.34895
1.39067
1.40443
-0.291996
-0.291988
-0.291918
-0.291835
-0.290527
-0.276269
-0.239475
-0.186175
-0.12063
-0.037193
0.0598373
0.162852
0.359414
0.651805
0.972145
1.26514
1.48785
1.61086
1.65787
1.67026
-0.288129
-0.288115
-0.287989
-0.287743
-0.287655
-0.277784
-0.242851
-0.187744
-0.118081
-0.031136
0.0702727
0.174833
0.353383
0.631885
0.938721
1.22323
1.44741
1.57372
1.62179
1.6335
-0.285153
-0.285142
-0.285077
-0.285023
-0.285425
-0.278604
-0.247391
-0.191898
-0.120657
-0.0335998
0.0653726
0.162893
0.309555
0.553911
0.814059
1.04731
1.23476
1.34442
1.38703
1.39741
-0.282165
-0.28222
-0.282382
-0.282701
-0.282944
-0.279404
-0.252198
-0.198379
-0.128017
-0.0435979
0.0478637
0.134092
0.246304
0.445583
0.656355
0.83283
0.972758
1.05729
1.09052
1.09842
-0.279044
-0.279132
-0.279256
-0.279389
-0.279563
-0.278406
-0.256111
-0.205823
-0.138766
-0.0598684
0.0223938
0.0962709
0.17838
0.330941
0.495494
0.627184
0.728059
0.788776
0.812365
0.817345
-0.276034
-0.27615
-0.276321
-0.276548
-0.276963
-0.276575
-0.258838
-0.213151
-0.151427
-0.0797538
-0.00704371
0.055314
0.11477
0.227969
0.352088
0.448775
0.52113
0.564086
0.580139
0.583115
-0.272946
-0.273096
-0.27333
-0.273713
-0.274376
-0.274685
-0.260319
-0.219675
-0.164745
-0.100829
-0.0373016
0.0147018
0.0579859
0.141084
0.23365
0.303603
0.354803
0.384274
0.394587
0.39613
-0.269976
-0.270092
-0.270141
-0.270074
-0.270137
-0.270604
-0.259374
-0.225268
-0.177732
-0.120892
-0.0659389
-0.0230825
0.00978922
0.0711861
0.139477
0.189408
0.224898
0.245191
0.252044
0.252774
-0.268315
-0.268275
-0.267809
-0.266343
-0.263942
-0.26299
-0.256968
-0.230674
-0.189605
-0.13882
-0.0922983
-0.0566438
-0.0314031
0.015119
0.0657479
0.101127
0.125709
0.139112
0.143339
0.143535
-0.269246
-0.269111
-0.268508
-0.266775
-0.26384
-0.262032
-0.258289
-0.237497
-0.199762
-0.154317
-0.115581
-0.0854986
-0.0646871
-0.0295014
0.00856934
0.0342863
0.0517844
0.0611054
0.0640065
0.0638965
-0.271941
-0.272048
-0.272559
-0.274093
-0.276284
-0.27648
-0.271267
-0.247484
-0.208569
-0.168241
-0.136287
-0.108827
-0.0914478
-0.0636001
-0.0343026
-0.014827
-0.00143016
0.00563164
0.00777443
0.00749885
-0.272421
-0.273074
-0.275664
-0.283546
-0.295597
-0.299085
-0.288915
-0.256466
-0.215949
-0.182084
-0.15282
-0.126814
-0.112854
-0.0903215
-0.0656147
-0.0491839
-0.0379847
-0.032214
-0.0304684
-0.0308255
-0.267972
-0.268746
-0.271685
-0.28074
-0.296557
-0.304285
-0.287586
-0.254172
-0.221592
-0.193482
-0.163362
-0.140317
-0.128889
-0.109177
-0.0876685
-0.072778
-0.061964
-0.0562614
-0.0546068
-0.0550736
-0.264084
-0.264509
-0.264934
-0.261133
-0.252125
-0.248979
-0.247925
-0.238873
-0.22271
-0.197663
-0.168725
-0.14946
-0.140051
-0.121169
-0.100752
-0.0865666
-0.0764392
-0.0711278
-0.0696072
-0.0701262
-0.266794
-0.266387
-0.262627
-0.242146
-0.202509
-0.179177
-0.199228
-0.220859
-0.220847
-0.196693
-0.169772
-0.15474
-0.145304
-0.127293
-0.108128
-0.094289
-0.0843304
-0.0791488
-0.0776441
-0.0782011
-0.28168
-0.279538
-0.275012
-0.259634
-0.231506
-0.212102
-0.225339
-0.243125
-0.23025
-0.196195
-0.169268
-0.15503
-0.145161
-0.126784
-0.10845
-0.0953485
-0.0860559
-0.081353
-0.0800028
-0.0805343
-0.33015
-0.330767
-0.344316
-0.365906
-0.371449
-0.355036
-0.333197
-0.299929
-0.248523
-0.19593
-0.166089
-0.150361
-0.13868
-0.120558
-0.103041
-0.090211
-0.0813311
-0.0769221
-0.0756938
-0.0761946
-0.410444
-0.420014
-0.449152
-0.480116
-0.489806
-0.471775
-0.428733
-0.348419
-0.257483
-0.190536
-0.157784
-0.138945
-0.12528
-0.108079
-0.0915355
-0.0787475
-0.0697773
-0.0652573
-0.0641157
-0.0646694
-0.451576
-0.463524
-0.487713
-0.509808
-0.517657
-0.499549
-0.446625
-0.343487
-0.24152
-0.173346
-0.138744
-0.117375
-0.105618
-0.0900612
-0.0739656
-0.0614038
-0.0525998
-0.0481793
-0.0472664
-0.0479371
-0.399152
-0.409676
-0.428979
-0.446042
-0.453038
-0.437499
-0.382112
-0.278013
-0.193237
-0.138567
-0.104863
-0.087498
-0.0805354
-0.0669187
-0.0523707
-0.0410911
-0.0331506
-0.0291559
-0.0287383
-0.0295855
-0.249419
-0.261082
-0.28086
-0.300994
-0.309976
-0.296811
-0.246288
-0.170909
-0.119734
-0.0833015
-0.0597519
-0.0517488
-0.0494448
-0.0384936
-0.0285071
-0.0214806
-0.015359
-0.0123994
-0.0127146
-0.0137243
-0.0037066
-0.00937146
-0.0304854
-0.0605023
-0.0733689
-0.0722567
-0.0624939
-0.0435924
-0.0329061
-0.0218062
-0.0151113
-0.0119449
-0.009993
-0.00914961
-0.00555598
-0.00623551
-0.00630379
-0.00643922
-0.00537269
-0.00457299
0.337465
0.516727
0.679469
0.815881
0.922397
1.00392
1.07057
1.12497
1.13817
1.13602
0.606386
0.720047
0.826094
0.916713
0.991821
1.05302
1.10105
1.13364
1.15136
1.16871
0.788278
0.863518
0.937844
1.00259
1.05734
1.10265
1.13853
1.16628
1.18727
1.20667
0.923812
0.977524
1.03141
1.07968
1.12132
1.15686
1.1869
1.21228
1.23184
1.25075
1.03445
1.07518
1.11537
1.15313
1.18701
1.2171
1.24353
1.26608
1.28366
1.30176
1.12736
1.16145
1.19492
1.22709
1.25686
1.28394
1.30796
1.32824
1.34368
1.36117
1.21302
1.24399
1.27518
1.30542
1.33361
1.3593
1.3819
1.40045
1.41412
1.43111
1.29827
1.33027
1.36204
1.39268
1.42097
1.44634
1.46812
1.48539
1.49757
1.51406
1.39165
1.42784
1.46225
1.49435
1.52319
1.54825
1.56912
1.58522
1.59669
1.61279
1.50423
1.54492
1.58165
1.61424
1.64246
1.66625
1.6857
1.70085
1.71264
1.72868
1.64557
1.68632
1.72141
1.75078
1.77581
1.7973
1.8157
1.83111
1.84416
1.86008
1.81672
1.84858
1.8755
1.89782
1.91784
1.93649
1.95418
1.97091
1.98578
2.00149
2.00268
2.01984
2.0369
2.05355
2.06962
2.08433
2.09821
2.11266
2.12787
2.14517
2.18604
2.19591
2.20906
2.22003
2.22943
2.23907
2.24965
2.25981
2.26908
2.29475
2.40377
2.39807
2.38512
2.37086
2.36455
2.37023
2.38837
2.41689
2.45065
2.48697
2.70661
2.57066
2.49113
2.44855
2.43121
2.43521
2.46263
2.52048
2.62813
2.80654
1.14189
1.13559
1.12786
1.11675
1.10319
1.09056
1.08018
1.0722
1.06652
1.06325
1.06298
1.06588
1.07117
1.07857
1.08815
1.10001
1.11358
1.12652
1.13552
1.14307
1.05094
1.05686
1.06494
1.07108
1.07416
1.07366
1.0706
1.06663
1.06309
1.06087
1.06082
1.06315
1.06697
1.07146
1.0756
1.07787
1.07681
1.07219
1.06514
1.05731
1.04415
1.04653
1.0498
1.05258
1.05505
1.05726
1.05846
1.05835
1.05746
1.05673
1.05703
1.05854
1.06039
1.06167
1.06164
1.0602
1.05807
1.05572
1.05275
1.04974
1.03932
1.04041
1.04233
1.04468
1.04657
1.04799
1.04924
1.05027
1.05093
1.05139
1.05205
1.0529
1.05345
1.0534
1.05282
1.05193
1.05063
1.04868
1.04659
1.04511
1.03423
1.03486
1.036
1.03777
1.03964
1.04126
1.04255
1.04366
1.04471
1.04571
1.04662
1.04726
1.0475
1.04737
1.04689
1.04597
1.04457
1.04299
1.04167
1.04087
1.02922
1.02966
1.03046
1.03178
1.03333
1.03492
1.03645
1.0378
1.03904
1.04024
1.04134
1.04209
1.0424
1.04225
1.04166
1.04072
1.03961
1.0385
1.03762
1.03709
1.02429
1.02461
1.02524
1.02633
1.02765
1.02909
1.03062
1.03217
1.03366
1.0351
1.03643
1.03735
1.03772
1.0376
1.03709
1.03638
1.03559
1.03478
1.03414
1.03375
1.01939
1.01965
1.02015
1.02109
1.02229
1.02365
1.02514
1.02675
1.02845
1.03017
1.03178
1.03292
1.03344
1.03349
1.03322
1.03277
1.03221
1.03163
1.03118
1.03088
1.01447
1.01467
1.01509
1.01592
1.01705
1.01837
1.01986
1.02154
1.0234
1.0254
1.02735
1.0288
1.0296
1.02993
1.02993
1.02972
1.02939
1.02901
1.0287
1.02847
1.00941
1.00957
1.00994
1.0107
1.0118
1.01311
1.01464
1.01642
1.01847
1.02078
1.02312
1.02499
1.02617
1.02684
1.02713
1.02719
1.02709
1.02691
1.02672
1.02653
1.00414
1.00427
1.00459
1.00531
1.00641
1.00776
1.00938
1.01131
1.01361
1.01628
1.01912
1.0215
1.02314
1.02419
1.02482
1.02517
1.0253
1.02531
1.02523
1.02508
0.998557
0.998659
0.998954
0.999661
1.00078
1.00222
1.00397
1.00612
1.00874
1.01187
1.01531
1.01832
1.02049
1.022
1.02301
1.02367
1.02407
1.02427
1.02428
1.02416
0.992551
0.992631
0.992911
0.993629
0.994817
0.996377
0.998319
1.00075
1.00378
1.00748
1.01165
1.01541
1.01822
1.02026
1.02172
1.02275
1.02345
1.02383
1.02392
1.02382
0.986004
0.986064
0.986338
0.98709
0.988379
0.990114
0.992314
0.995111
0.998653
1.00306
1.00813
1.01278
1.01636
1.01903
1.02099
1.02245
1.02347
1.02406
1.02424
1.02415
0.978774
0.978811
0.979089
0.979898
0.981327
0.983293
0.985825
0.989088
0.993269
0.998543
1.00468
1.01042
1.0149
1.01831
1.02089
1.02283
1.02423
1.02505
1.0253
1.02523
0.970683
0.970701
0.970986
0.971874
0.973487
0.975748
0.978703
0.982548
0.987521
0.99385
1.00129
1.00831
1.01387
1.01816
1.02146
1.02399
1.02582
1.02688
1.02721
1.02714
0.961482
0.961487
0.961796
0.962789
0.964643
0.96728
0.970764
0.975334
0.981285
0.988904
0.997907
1.00647
1.01329
1.01862
1.02276
1.02599
1.02832
1.02965
1.03006
1.02999
0.950895
0.950875
0.951224
0.952368
0.954521
0.957633
0.961784
0.96726
0.974422
0.983615
0.9945
1.00487
1.01319
1.01973
1.02488
1.02892
1.03182
1.03343
1.03391
1.03384
0.938537
0.938497
0.938897
0.940232
0.942766
0.946486
0.951483
0.958101
0.96677
0.97789
0.991032
1.00354
1.01359
1.02155
1.02787
1.03283
1.03638
1.03828
1.03883
1.03875
0.923886
0.923823
0.924306
0.925895
0.928921
0.933428
0.939516
0.947592
0.958153
0.971637
0.987476
1.00248
1.01452
1.0241
1.03177
1.03779
1.04203
1.04422
1.0448
1.0447
0.906214
0.906128
0.90674
0.908687
0.912372
0.917928
0.925455
0.935425
0.94839
0.964787
0.98383
1.0017
1.01601
1.02741
1.03658
1.04377
1.04874
1.05116
1.05175
1.05163
0.884474
0.88437
0.885196
0.887666
0.89228
0.899288
0.908778
0.921273
0.93733
0.957312
0.980129
1.00126
1.01808
1.03148
1.04229
1.05073
1.0564
1.05896
1.05951
1.05935
0.857075
0.856974
0.858157
0.861443
0.86748
0.876612
0.888899
0.904841
0.924899
0.949268
0.976456
1.00121
1.02075
1.03631
1.04885
1.05856
1.06477
1.06734
1.06779
1.0676
0.821437
0.821396
0.823234
0.827936
0.836367
0.848866
0.865291
0.885987
0.91118
0.940819
0.972965
1.00165
1.02405
1.04185
1.05617
1.06704
1.07353
1.07592
1.07621
1.07599
0.772975
0.773178
0.776471
0.784177
0.797093
0.815161
0.837765
0.8649
0.89649
0.932262
0.96987
1.0027
1.02805
1.04808
1.06411
1.07589
1.08224
1.08421
1.08434
1.0841
0.703084
0.704628
0.712691
0.72736
0.748602
0.775579
0.80692
0.842262
0.8814
0.923997
0.9674
1.00448
1.03277
1.0549
1.07239
1.08458
1.09032
1.09171
1.09168
1.09146
0.619499
0.622458
0.638219
0.663683
0.696384
0.733832
0.77459
0.818531
0.865576
0.915487
0.965365
1.00748
1.03941
1.0642
1.0831
1.09503
1.09984
1.10074
1.10067
1.10054
0.533588
0.541296
0.565047
0.601283
0.645017
0.692738
0.742905
0.795465
0.850416
0.907582
0.963854
1.01089
1.04636
1.07374
1.09386
1.10497
1.10834
1.1087
1.1086
1.10853
0.462925
0.472909
0.501695
0.545556
0.597913
0.654293
0.71291
0.773516
0.835956
0.899968
0.962173
1.01367
1.05224
1.08168
1.10226
1.11233
1.11486
1.11504
1.11496
1.11491
0.404749
0.415517
0.448156
0.497648
0.556502
0.619761
0.68542
0.753031
0.822204
0.892485
0.960144
1.01574
1.05711
1.08827
1.10908
1.11826
1.12022
1.12031
1.12024
1.12021
0.355767
0.366935
0.402246
0.456113
0.520232
0.589156
0.660706
0.734322
0.809419
0.885343
0.95798
1.01735
1.06129
1.09398
1.11484
1.12323
1.12478
1.12482
1.12476
1.12474
0.313578
0.324928
0.362226
0.41959
0.488082
0.561836
0.638486
0.717358
0.797726
0.878739
0.955912
1.0187
1.065
1.09899
1.11978
1.12746
1.12874
1.12874
1.12869
1.12867
0.27646
0.287878
0.326727
0.386978
0.459181
0.537115
0.618269
0.701862
0.787025
0.872702
0.954031
1.01992
1.06831
1.1034
1.12402
1.13112
1.13219
1.13215
1.13209
1.13208
0.243159
0.2546
0.294668
0.357402
0.432827
0.514432
0.599605
0.687497
0.777094
0.867137
0.952328
1.02103
1.07127
1.10726
1.12765
1.13425
1.13516
1.13508
1.13501
1.13499
0.212644
0.22412
0.265263
0.330192
0.408473
0.49334
0.582129
0.673965
0.767717
0.861909
0.950764
1.02205
1.07389
1.11058
1.13069
1.13685
1.13763
1.13751
1.13742
1.13739
0.184325
0.19584
0.237936
0.304837
0.385673
0.473475
0.565557
0.661036
0.758704
0.856909
0.949325
1.02303
1.07623
1.11341
1.13311
1.13889
1.13956
1.13941
1.1393
1.13926
0.157703
0.16927
0.212246
0.280941
0.364088
0.454553
0.549654
0.648519
0.749915
0.852046
0.948034
1.02407
1.07838
1.11575
1.13493
1.14033
1.14094
1.14078
1.14066
1.14061
0.132376
0.144078
0.18787
0.258222
0.343471
0.436355
0.534238
0.636271
0.74122
0.847242
0.946913
1.02531
1.08052
1.11774
1.1362
1.14124
1.1418
1.14167
1.14157
1.14152
0.108186
0.120038
0.164604
0.23647
0.323635
0.418732
0.519174
0.624168
0.732514
0.842398
0.945959
1.02692
1.08289
1.11955
1.13705
1.14171
1.14228
1.1422
1.14214
1.14209
0.0849146
0.0969669
0.14227
0.215558
0.304462
0.401568
0.504363
0.612116
0.723703
0.837422
0.945122
1.02906
1.0858
1.12147
1.13763
1.14186
1.14253
1.14254
1.14248
1.14242
0.0625408
0.074773
0.12078
0.1954
0.285872
0.384793
0.489743
0.600054
0.714713
0.832203
0.944307
1.03182
1.08968
1.12399
1.13817
1.14167
1.14252
1.14274
1.14268
1.14258
0.0409252
0.0533899
0.100109
0.175948
0.267813
0.368366
0.475271
0.58794
0.705485
0.826649
0.943374
1.0352
1.09491
1.12778
1.13914
1.14104
1.14182
1.14254
1.14289
1.14284
0.0201958
0.0327955
0.0802156
0.157154
0.250265
0.352287
0.460933
0.575749
0.69598
0.820686
0.94216
1.03908
1.10178
1.13376
1.14164
1.14067
1.14048
1.14189
1.14367
1.14427
0.00016396
0.0129777
0.0610761
0.138988
0.233205
0.336535
0.44675
0.563475
0.686176
0.814258
0.940499
1.04322
1.11037
1.14282
1.14757
1.14293
1.14047
1.14229
1.14642
1.14886
-0.0190606
-0.00603227
0.0426608
0.121454
0.216666
0.321142
0.432746
0.551167
0.676079
0.807292
0.938233
1.0473
1.12044
1.15541
1.15858
1.15067
1.14546
1.14684
1.15318
1.15883
-0.037578
-0.0243383
0.0249898
0.104575
0.200647
0.306133
0.418957
0.538841
0.66571
0.799793
0.935221
1.05091
1.13148
1.17119
1.17495
1.1653
1.15736
1.15533
1.15558
1.15237
-0.0553173
-0.0419309
0.00796294
0.0881687
0.184917
0.291226
0.405061
0.52612
0.654672
0.791341
0.931086
1.05374
1.14341
1.19045
1.19702
1.18718
1.17665
1.16618
1.15475
1.1572
-0.0722839
-0.0589131
-0.00845296
0.0722748
0.169465
0.276433
0.391058
0.512945
0.642873
0.781714
0.92544
1.05492
1.15498
1.21217
1.22301
1.21368
1.19881
1.18441
1.14819
1.11283
-0.0883112
-0.0751578
-0.0242643
0.0570172
0.154268
0.261724
0.376915
0.49941
0.630314
0.770831
0.917949
1.05359
1.16405
1.23404
1.25038
1.23758
1.21606
1.18199
1.12907
1.07893
-0.106109
-0.0895904
-0.0392898
0.0428656
0.139595
0.247335
0.362234
0.485528
0.617038
0.758719
0.908365
1.04898
1.16791
1.25382
1.27711
1.25652
1.21081
1.14837
1.07833
1.01988
-0.0940033
-0.0686102
-0.0134889
0.0725662
0.17652
0.287591
0.408625
0.536063
0.672683
0.822067
0.971392
1.10479
1.21653
1.29143
1.28045
1.18861
1.11958
1.04525
0.97491
0.930522
-0.107044
-0.098957
-0.0565891
0.0198959
0.116846
0.22387
0.339391
0.462879
0.59474
0.737134
0.888526
1.03337
1.15765
1.25043
1.28547
1.23195
1.10303
1.01246
0.945788
0.870136
-0.12719
-0.11632
-0.0703584
0.00758302
0.1052
0.211809
0.326442
0.449252
0.580749
0.722818
0.874405
1.02032
1.14353
1.22354
1.2251
1.10486
0.958591
0.863079
0.790495
0.712207
-0.149268
-0.137241
-0.0881164
-0.00919925
0.0884088
0.195328
0.31023
0.433123
0.564239
0.7057
0.855841
0.999021
1.11284
1.17648
1.13412
0.970166
0.816159
0.706432
0.620054
0.50979
-0.170709
-0.158691
-0.107949
-0.0278911
0.0697513
0.176846
0.291783
0.41436
0.544755
0.684928
0.832401
0.970242
1.07317
1.11054
1.0196
0.827785
0.654202
0.518104
0.40765
0.264224
-0.191826
-0.179903
-0.128181
-0.047123
0.0508406
0.157968
0.272603
0.394494
0.523783
0.66204
0.805814
0.936643
1.02909
1.02435
0.884163
0.681421
0.484088
0.311965
0.166295
-0.0765833
-0.213076
-0.201353
-0.149091
-0.0674035
0.0308402