/*--------------------------------*- C++ -*----------------------------------*\
  =========                 |
  \\      /  F ield         | OpenFOAM: The Open Source CFD Toolbox
   \\    /   O peration     | Website:  https://openfoam.org
    \\  /    A nd           | Version:  6
     \\/     M anipulation  |
\*---------------------------------------------------------------------------*/
FoamFile
{
    version     2.0;
    format      ascii;
    class       volScalarField;
    location    "16";
    object      p;
}
// * * * * * * * * * * * * * * * * * * * * * * * * * * * * * * * * * * * * * //

dimensions      [0 2 -2 0 0 0 0];

internalField   nonuniform List<scalar> 
8800
(
0.433873
0.384569
0.346618
0.318564
0.298414
0.283826
0.273222
0.265683
0.260783
0.258604
0.259677
0.263673
0.270165
0.279368
0.291949
0.309154
0.332947
0.365982
0.408878
0.461375
0.268327
0.274683
0.283856
0.287432
0.284868
0.278826
0.271938
0.265745
0.26091
0.257926
0.257469
0.25979
0.264138
0.26998
0.276831
0.283681
0.288421
0.288196
0.281452
0.272507
0.24177
0.248038
0.252612
0.256573
0.259621
0.260677
0.259659
0.257493
0.255375
0.254321
0.255068
0.257251
0.25988
0.261881
0.262121
0.260094
0.256539
0.252367
0.247488
0.243753
0.237395
0.240189
0.242878
0.245138
0.246991
0.248675
0.249839
0.250235
0.250039
0.249867
0.250384
0.251198
0.251543
0.251059
0.249776
0.24814
0.246242
0.243762
0.241238
0.239665
0.232257
0.233706
0.235711
0.237995
0.23986
0.241229
0.242347
0.243288
0.244015
0.244533
0.244854
0.244864
0.244513
0.243811
0.24284
0.241417
0.239429
0.237227
0.235712
0.234922
0.227337
0.228246
0.229676
0.231545
0.233473
0.235166
0.236544
0.237708
0.238726
0.239546
0.239847
0.239662
0.239139
0.238292
0.237062
0.235433
0.233641
0.232018
0.231025
0.230534
0.222776
0.223425
0.224706
0.2265
0.228404
0.230391
0.23227
0.233751
0.234814
0.235574
0.236076
0.236094
0.235516
0.234317
0.23269
0.230998
0.229303
0.227806
0.226992
0.226667
0.218706
0.219111
0.220218
0.22182
0.22345
0.225002
0.226544
0.228167
0.229683
0.23086
0.23135
0.231127
0.230388
0.229433
0.228346
0.227048
0.225604
0.224297
0.223666
0.223493
0.215894
0.216111
0.216975
0.218355
0.219838
0.221334
0.222822
0.224198
0.225497
0.226669
0.227408
0.227581
0.227303
0.226629
0.225677
0.224577
0.223374
0.222343
0.221922
0.221851
0.214009
0.214135
0.214631
0.215522
0.216601
0.217817
0.219162
0.220657
0.222175
0.223568
0.224506
0.224806
0.224632
0.22416
0.22357
0.222901
0.222223
0.221699
0.221492
0.221447
0.211733
0.211832
0.212105
0.212591
0.213281
0.214174
0.215244
0.216531
0.218003
0.219556
0.220811
0.221536
0.221847
0.221912
0.221691
0.221531
0.221343
0.221192
0.2211
0.221056
0.208538
0.208617
0.208856
0.209282
0.209834
0.210671
0.211853
0.213294
0.214984
0.216836
0.21844
0.219466
0.219993
0.220163
0.220362
0.220376
0.220376
0.220329
0.220277
0.220241
0.20465
0.204699
0.204936
0.205391
0.206016
0.20684
0.208005
0.209528
0.211418
0.213623
0.215677
0.217158
0.218111
0.218713
0.219086
0.219289
0.21936
0.219349
0.219337
0.219316
0.200329
0.20036
0.200598
0.201123
0.201895
0.202821
0.204162
0.205926
0.208144
0.210818
0.213426
0.215408
0.216771
0.217688
0.218249
0.218562
0.218674
0.218709
0.218736
0.218725
0.195641
0.195669
0.195904
0.196452
0.197281
0.19849
0.20001
0.202053
0.204711
0.207998
0.211302
0.213887
0.21571
0.216949
0.217755
0.218267
0.218512
0.21864
0.218703
0.218694
0.190448
0.190478
0.19073
0.191318
0.192256
0.193585
0.195413
0.197891
0.201148
0.205233
0.209398
0.212721
0.215123
0.216784
0.217872
0.218566
0.218975
0.219205
0.219298
0.219285
0.184459
0.184494
0.184805
0.185452
0.186526
0.188088
0.190303
0.19335
0.19739
0.20249
0.207724
0.211907
0.214971
0.217123
0.218578
0.219525
0.220113
0.220445
0.220566
0.220549
0.177394
0.177435
0.177809
0.178627
0.179887
0.181791
0.184532
0.188319
0.193365
0.199755
0.206324
0.211609
0.215474
0.218186
0.220039
0.221268
0.222046
0.222484
0.222636
0.222612
0.168964
0.169022
0.16949
0.170483
0.172104
0.174489
0.177912
0.182666
0.189014
0.197037
0.205264
0.21187
0.216684
0.220069
0.222396
0.223949
0.224937
0.225485
0.225675
0.225645
0.158786
0.158864
0.159465
0.16073
0.162795
0.165852
0.170209
0.176255
0.184279
0.194349
0.20461
0.212802
0.218755
0.222952
0.225841
0.227778
0.229013
0.229696
0.229931
0.229892
0.146308
0.146409
0.147198
0.148867
0.151568
0.155532
0.161179
0.16893
0.179099
0.191729
0.204467
0.214567
0.221886
0.227046
0.230605
0.233001
0.234532
0.235372
0.235659
0.23561
0.130745
0.130881
0.131947
0.134206
0.137822
0.143075
0.150469
0.160478
0.17342
0.189235
0.20496
0.217323
0.226264
0.232577
0.236946
0.2399
0.241797
0.242825
0.243171
0.243109
0.11098
0.111181
0.112668
0.115809
0.120763
0.127865
0.137702
0.150763
0.167265
0.186977
0.206235
0.22124
0.232082
0.23977
0.245126
0.248777
0.251139
0.252423
0.252839
0.252755
0.0851663
0.0854767
0.0876824
0.0922961
0.0993809
0.109295
0.122644
0.139794
0.160773
0.185145
0.208476
0.226492
0.239522
0.248832
0.255391
0.259924
0.262883
0.264497
0.265009
0.264897
0.0501626
0.050737
0.0544223
0.0617764
0.0724965
0.0868186
0.10519
0.127728
0.154211
0.18399
0.211872
0.233214
0.248698
0.259891
0.267917
0.273588
0.277359
0.279422
0.280049
0.279896
3.27552e-06
0.00177166
0.00926558
0.0222245
0.0392699
0.0603624
0.0856643
0.115011
0.147972
0.183776
0.216555
0.241442
0.259582
0.27289
0.282674
0.289809
0.294742
0.297524
0.298351
0.298135
-0.0744932
-0.0651915
-0.048237
-0.0252434
0.0012829
0.031371
0.0650914
0.102249
0.142395
0.184794
0.222949
0.25183
0.273092
0.289019
0.301141
0.310481
0.317304
0.321508
0.322977
0.322981
-0.15316
-0.133928
-0.106545
-0.0731592
-0.0368808
0.00228265
0.044483
0.0896229
0.137369
0.187122
0.23171
0.265685
0.291081
0.310564
0.325837
0.338014
0.347629
0.354325
0.356906
0.357078
-0.217966
-0.195044
-0.159655
-0.117836
-0.0729941
-0.0253894
0.0249284
0.0777821
0.13285
0.18957
0.240068
0.278492
0.307326
0.329579
0.347181
0.361272
0.372393
0.380128
0.382747
0.383128
-0.269705
-0.244524
-0.204215
-0.156525
-0.105136
-0.0506156
0.00670527
0.0664721
0.128244
0.191337
0.247064
0.289188
0.320581
0.344642
0.363481
0.378477
0.390214
0.398337
0.401389
0.401846
-0.311914
-0.2857
-0.241993
-0.189808
-0.13329
-0.0732302
-0.0100576
0.0557426
0.123462
0.19226
0.252557
0.297665
0.330902
0.356069
0.375553
0.3909
0.402792
0.410892
0.414142
0.414579
-0.347842
-0.321077
-0.274912
-0.2191
-0.158336
-0.0936086
-0.0254482
0.0455724
0.118587
0.192495
0.25687
0.304614
0.339404
0.36542
0.385285
0.400692
0.412492
0.42051
0.423865
0.424318
-0.379511
-0.352445
-0.304364
-0.245578
-0.181265
-0.112531
-0.0399462
0.0357517
0.113612
0.192309
0.260564
0.310749
0.346908
0.373601
0.393715
0.409127
0.420831
0.428726
0.432111
0.432565
-0.408373
-0.38107
-0.331408
-0.270122
-0.202722
-0.13046
-0.0539398
0.0260138
0.108366
0.191594
0.26352
0.316081
0.353618
0.381036
0.401476
0.416969
0.428631
0.43638
0.439769
0.44024
-0.435304
-0.407774
-0.356764
-0.293258
-0.223199
-0.14785
-0.0678185
0.016028
0.102544
0.19009
0.265774
0.320879
0.359947
0.388219
0.409072
0.424714
0.436374
0.444022
0.447337
0.447849
-0.460979
-0.433135
-0.380931
-0.315458
-0.243068
-0.164967
-0.0817866
0.00560382
0.0960617
0.187899
0.267445
0.325273
0.366064
0.395354
0.416751
0.432643
0.44436
0.45193
0.455147
0.455652
-0.485649
-0.457513
-0.404199
-0.336988
-0.262507
-0.181948
-0.0959347
-0.00528089
0.0889093
0.184927
0.268414
0.32922
0.372008
0.402547
0.424668
0.440928
0.452784
0.460311
0.463396
0.463845
-0.50965
-0.481107
-0.426806
-0.358039
-0.281693
-0.198941
-0.110351
-0.0167046
0.080937
0.181007
0.268592
0.332663
0.377756
0.409821
0.432882
0.449662
0.461741
0.469263
0.472199
0.472549
-0.533017
-0.504065
-0.448844
-0.378693
-0.30069
-0.215977
-0.125097
-0.0287574
0.0721023
0.176101
0.267861
0.335491
0.383259
0.417157
0.44139
0.458858
0.471256
0.478806
0.481606
0.481808
-0.55581
-0.526443
-0.470376
-0.39897
-0.319501
-0.233069
-0.140164
-0.0414028
0.0624115
0.170127
0.266067
0.337519
0.388363
0.424478
0.450157
0.468489
0.481294
0.488871
0.491529
0.491588
-0.578075
-0.548272
-0.49139
-0.418875
-0.33813
-0.250183
-0.155488
-0.0545855
0.0518702
0.163047
0.263087
0.338533
0.392824
0.431611
0.459099
0.478511
0.491822
0.499422
0.50189
0.501803
-0.59983
-0.569536
-0.511877
-0.438373
-0.356505
-0.267248
-0.171011
-0.068262
0.0405266
0.154839
0.258812
0.338337
0.396404
0.438364
0.468128
0.488875
0.502728
0.510266
0.512458
0.512232
-0.620915
-0.590171
-0.531785
-0.45742
-0.374576
-0.284197
-0.186659
-0.0823322
0.0284587
0.145539
0.253155
0.336717
0.398802
0.444464
0.477147
0.499611
0.513983
0.521246
0.523041
0.522665
-0.641286
-0.610127
-0.551077
-0.475958
-0.39228
-0.300959
-0.202328
-0.096701
0.0157633
0.135202
0.246077
0.333489
0.399654
0.449469
0.485926
0.510896
0.525818
0.532241
0.5333
0.532777
-0.660989
-0.629365
-0.569724
-0.493945
-0.409545
-0.317439
-0.217919
-0.111253
0.00255181
0.123919
0.237583
0.328539
0.398621
0.452786
0.493943
0.522881
0.539086
0.543734
0.542921
0.542203
-0.679879
-0.647861
-0.587672
-0.511312
-0.426311
-0.333556
-0.233336
-0.125868
-0.0110406
0.111829
0.227717
0.321786
0.395447
0.453713
0.500187
0.535067
0.555153
0.558632
0.553301
0.54962
-0.698038
-0.665629
-0.60493
-0.528091
-0.442611
-0.349358
-0.248634
-0.14061
-0.0250812
0.0988639
0.216366
0.313007
0.389842
0.451439
0.503052
0.545581
0.573381
0.581622
0.571716
0.564271
-0.715409
-0.682734
-0.621638
-0.544462
-0.458728
-0.365172
-0.264215
-0.155966
-0.0401295
0.0843411
0.202803
0.301282
0.38104
0.444657
0.499337
0.549103
0.584082
0.592278
0.582512
0.567109
-0.731887
-0.699164
-0.637646
-0.560223
-0.474445
-0.380707
-0.279861
-0.171603
-0.0558471
0.0685872
0.187277
0.286406
0.368762
0.433044
0.484551
0.534588
0.568116
0.563474
0.502292
0.467846
-0.747378
-0.715603
-0.652507
-0.574885
-0.489179
-0.395518
-0.295327
-0.187269
-0.071961
0.0518178
0.169928
0.268256
0.352404
0.417718
0.457904
0.492053
0.508554
0.469901
0.402673
0.359481
-0.78843
-0.730977
-0.666215
-0.589197
-0.503619
-0.410434
-0.310502
-0.203066
-0.0886355
0.0338
0.150467
0.24676
0.329673
0.400128
0.415209
0.420329
0.398359
0.342631
0.268527
0.227794
-0.761354
-0.743673
-0.686515
-0.610752
-0.525113
-0.432568
-0.333693
-0.227536
-0.114913
0.0046302
0.117429
0.209376
0.283564
0.349557
0.351646
0.246065
0.150314
0.0864649
0.0170018
0.056641
-0.790253
-0.759812
-0.70208
-0.626293
-0.541207
-0.449252
-0.350557
-0.245442
-0.134391
-0.0174449
0.091481
0.179075
0.244159
0.277617
0.22802
0.0797995
-0.0428602
-0.123531
-0.216394
-0.15257
-0.812011
-0.779312
-0.71997
-0.644008
-0.559248
-0.467563
-0.3693
-0.265328
-0.15618
-0.0422921
0.0618641
0.143412
0.197707
0.196822
0.0797995
-0.10696
-0.260272
-0.365853
-0.479395
-0.429647
-0.832684
-0.799087
-0.738609
-0.662212
-0.577493
-0.486086
-0.388577
-0.285877
-0.178845
-0.0682743
0.030411
0.104861
0.144483
0.101918
-0.0816319
-0.303064
-0.503461
-0.673077
-0.821401
-0.775474
-0.852656
-0.818909
-0.757824
-0.681068
-0.596337
-0.50529
-0.40863
-0.307343
-0.20261
-0.0956593
-0.00299706
0.0636085
0.0824344
-0.00300662
-0.244147
-0.498342
-0.744157
-0.954907
-1.22173
-1.31393
-0.872605
-0.839172
-0.77786
-0.700897
-0.616156
-0.525447
-0.429556
-0.329729
-0.227276
-0.124181
-0.0377369
0.0199949
0.0178202
-0.128039
-0.39511
-0.67316
-0.939123
-1.16128
-1.34099
-1.5566
-0.893313
-0.860224
-0.798964
-0.721984
-0.637355
-0.547068
-0.452044
-0.353824
-0.253897
-0.155175
-0.0755074
-0.0280169
-0.0592794
-0.264194
-0.536938
-0.818672
-1.06516
-1.21243
-1.25341
-1.27338
-0.914997
-0.882257
-0.821175
-0.744337
-0.65998
-0.570241
-0.476327
-0.379908
-0.283
-0.189192
-0.116972
-0.0814569
-0.147158
-0.394995
-0.67026
-0.929625
-1.12925
-1.19579
-1.21234
-1.21344
-0.937889
-0.905334
-0.844454
-0.767853
-0.683887
-0.594868
-0.502283
-0.407881
-0.314607
-0.226016
-0.161866
-0.141829
-0.239219
-0.520254
-0.793884
-1.02821
-1.16818
-1.18876
-1.19053
-1.19016
-0.961772
-0.929419
-0.868733
-0.792424
-0.708968
-0.620823
-0.529711
-0.437669
-0.348423
-0.265366
-0.209583
-0.206911
-0.337245
-0.634409
-0.910918
-1.11268
-1.17496
-1.18238
-1.1812
-1.18001
-0.986423
-0.954242
-0.893821
-0.817861
-0.735012
-0.64789
-0.558384
-0.469053
-0.383957
-0.307081
-0.259371
-0.275294
-0.443551
-0.732222
-1.02283
-1.19307
-1.1902
-1.18399
-1.17847
-1.1755
-1.01113
-0.979385
-0.919387
-0.84385
-0.761693
-0.675726
-0.587996
-0.501427
-0.420832
-0.350867
-0.310452
-0.352234
-0.54775
-0.806498
-1.09937
-1.27832
-1.24887
-1.1933
-1.16765
-1.16136
-1.03532
-1.00431
-0.944928
-0.869928
-0.788512
-0.703841
-0.618023
-0.534103
-0.458387
-0.396175
-0.360048
-0.435848
-0.658295
-0.845685
-1.06486
-1.22516
-1.25473
-1.21151
-1.1827
-1.17393
-1.05867
-1.02837
-0.969781
-0.895433
-0.814854
-0.731547
-0.647627
-0.566612
-0.494916
-0.442048
-0.408059
-0.517834
-0.797631
-0.905146
-0.833311
-1.00352
-1.28364
-1.49646
-1.48938
-1.4507
-1.07987
-1.05064
-0.993151
-0.919529
-0.839965
-0.757859
-0.675898
-0.598039
-0.528612
-0.48569
-0.457006
-0.586638
-0.990774
-1.16766
-0.846696
-0.945176
-1.47331
-1.76814
-1.75699
-1.74287
-1.09767
-1.07001
-1.01397
-0.941287
-0.862695
-0.781802
-0.701819
-0.626188
-0.559379
-0.521437
-0.505989
-0.64453
-1.23469
-1.8965
-2.17834
-2.4493
-2.45818
-2.15642
-1.90264
-1.90503
-1.11099
-1.08526
-1.03106
-0.959538
-0.88175
-0.802331
-0.723689
-0.64942
-0.585722
-0.545242
-0.554024
-0.710239
-1.43656
-2.61354
-3.60037
-3.94191
-3.83068
-3.38814
-2.88268
-2.69767
-1.11827
-1.09503
-1.04318
-0.97279
-0.896008
-0.817781
-0.740226
-0.666844
-0.603032
-0.559239
-0.568629
-0.746066
-1.41562
-2.44947
-3.57112
-3.81063
-3.70194
-3.45526
-3.16158
-2.95661
-1.11901
-1.09838
-1.04905
-0.979676
-0.903927
-0.826727
-0.750376
-0.677559
-0.61051
-0.551921
-0.570511
-0.606447
-1.04318
-1.48507
-1.97991
-2.26587
-2.18839
-1.95419
-1.72899
-1.59531
-1.1101
-1.09257
-1.04638
-0.978697
-0.903826
-0.828288
-0.753673
-0.681317
-0.608775
-0.534878
-0.490818
-0.423668
-0.410588
-0.361681
-0.181848
0.0770909
0.404539
0.66893
0.865307
0.952079
-1.09023
-1.07575
-1.03317
-0.967521
-0.894423
-0.821398
-0.749607
-0.677455
-0.600441
-0.504312
-0.39019
-0.287656
0.0357829
0.532747
1.13411
1.73444
2.20944
2.51189
2.66828
2.72198
-1.05725
-1.04578
-1.00701
-0.944136
-0.874571
-0.805722
-0.738726
-0.672056
-0.597347
-0.483125
-0.330999
-0.151713
0.134869
0.686932
1.34758
1.96186
2.42734
2.70461
2.84003
2.87755
-1.00801
-0.999199
-0.96506
-0.907763
-0.844014
-0.782392
-0.725291
-0.672079
-0.607802
-0.487519
-0.315067
-0.103376
0.148426
0.527004
1.04561
1.52471
1.87295
2.09116
2.19694
2.23127
-0.940164
-0.933493
-0.906138
-0.857979
-0.804002
-0.753746
-0.711775
-0.681365
-0.655534
-0.581781
-0.454968
-0.250597
0.0589854
0.284642
0.646845
0.991861
1.25916
1.42956
1.52166
1.55037
-0.860963
-0.855427
-0.835232
-0.799237
-0.758576
-0.723297
-0.70189
-0.707816
-0.75948
-0.870202
-0.959574
-0.736066
-0.339633
-0.0619072
0.214635
0.468561
0.677172
0.80833
0.872633
0.883666
-0.769098
-0.766374
-0.754657
-0.732817
-0.708429
-0.69081
-0.692668
-0.741756
-0.907024
-1.28859
-1.71037
-1.47863
-0.864315
-0.532142
-0.204511
0.0657267
0.264919
0.387439
0.447422
0.463398
-0.678367
-0.677716
-0.671743
-0.660567
-0.649515
-0.646685
-0.66658
-0.746853
-0.993762
-1.59962
-2.2558
-1.96204
-1.27289
-0.841333
-0.487636
-0.204768
-0.0164955
0.0804949
0.118743
0.122798
-0.584887
-0.585238
-0.582429
-0.576915
-0.573625
-0.578702
-0.605846
-0.691484
-0.942034
-1.56119
-2.19478
-1.9531
-1.38309
-0.93872
-0.576039
-0.334106
-0.205565
-0.150374
-0.12949
-0.127027
-0.482722
-0.483583
-0.482031
-0.479121
-0.478268
-0.483902
-0.505786
-0.569679
-0.749193
-1.18329
-1.59513
-1.44699
-1.06193
-0.707622
-0.458956
-0.323421
-0.272756
-0.256066
-0.249832
-0.248033
-0.373171
-0.374037
-0.373484
-0.371951
-0.371246
-0.373696
-0.384279
-0.415994
-0.503556
-0.709845
-0.889913
-0.763514
-0.538414
-0.346096
-0.253727
-0.231358
-0.233465
-0.239473
-0.241371
-0.241025
-0.266812
-0.267567
-0.267855
-0.267293
-0.26627
-0.26525
-0.265664
-0.271406
-0.291619
-0.335367
-0.333751
-0.294473
-0.18038
-0.129886
-0.119677
-0.135706
-0.15195
-0.162895
-0.167279
-0.168108
-0.173619
-0.174206
-0.175084
-0.17536
-0.174506
-0.171767
-0.166593
-0.158564
-0.14719
-0.128139
-0.0871977
-0.0506642
-0.0173908
-0.0214341
-0.0377386
-0.057631
-0.0732353
-0.0828921
-0.0872018
-0.088402
-0.0996663
-0.100102
-0.101216
-0.101975
-0.101391
-0.0984089
-0.0917793
-0.0797836
-0.0599261
-0.0286386
0.00980273
0.0297839
0.0377602
0.02726
0.0108506
-0.00451309
-0.0160921
-0.0231654
-0.0265323
-0.0276456
-0.0452986
-0.0456035
-0.0467198
-0.0477781
-0.0476017
-0.045122
-0.0391206
-0.0279017
-0.0093808
0.0179074
0.0456793
0.0580092
0.0578908
0.0492413
0.0375879
0.0269081
0.0188522
0.0138898
0.0114533
0.0105825
-0.00787537
-0.00808833
-0.00908506
-0.0102597
-0.0105233
-0.00886781
-0.00425832
0.00456166
0.0189059
0.0390183
0.0576201
0.0653479
0.0640338
0.0578599
0.0501282
0.0429576
0.0373695
0.0338506
0.0321292
0.0315034
0.0162944
0.0161438
0.0153134
0.0141793
0.0136341
0.0144557
0.0174923
0.0237351
0.033967
0.04787
0.0599724
0.0647183
0.063564
0.0594582
0.0543633
0.0494688
0.0455154
0.0429593
0.0417361
0.0412992
0.0308225
0.0307105
0.0300643
0.0290691
0.0284206
0.028723
0.0305403
0.034531
0.0412745
0.0504407
0.0582428
0.0612617
0.0604576
0.0576341
0.0541129
0.0506747
0.0477936
0.0458822
0.0449989
0.0446968
0.0387691
0.0386742
0.0381764
0.0373313
0.0366631
0.0366086
0.0376215
0.0401342
0.0444483
0.0502927
0.0551721
0.0568994
0.0561514
0.0541203
0.0516232
0.0491296
0.0469821
0.0455355
0.0448906
0.0446811
0.0424048
0.0423177
0.0419122
0.0411766
0.040512
0.0402105
0.040585
0.0419635
0.0445698
0.0481674
0.0511053
0.0520377
0.0513983
0.0498964
0.0480604
0.0462224
0.0446175
0.0435301
0.0430607
0.0429133
0.0432021
0.043122
0.0427782
0.0421351
0.0414974
0.0410765
0.0410896
0.041738
0.0431654
0.0452538
0.0469464
0.0473381
0.0467009
0.0455102
0.0441164
0.0427289
0.0415131
0.0406926
0.0403491
0.0402438
0.0420958
0.0420239
0.0417252
0.0411581
0.0405548
0.0400677
0.0398492
0.0400438
0.0407398
0.0418351
0.0426669
0.0426878
0.0420748
0.0411191
0.040042
0.0389835
0.0380606
0.0374427
0.0371896
0.0371131
0.0397019
0.0396402
0.0393845
0.0388911
0.0383385
0.0378384
0.0374921
0.0373927
0.0376051
0.0380737
0.038386
0.0381955
0.0376121
0.0368236
0.0359754
0.0351585
0.0344534
0.033985
0.0337959
0.0337396
0.0364488
0.0363982
0.0361869
0.0357684
0.0352805
0.0348057
0.0344134
0.0341645
0.0340987
0.0341771
0.034156
0.033835
0.033289
0.0326332
0.0319574
0.0313207
0.0307772
0.0304185
0.0302757
0.030234
0.0326316
0.0325911
0.0324215
0.0320758
0.0316582
0.0312298
0.0308355
0.0305151
0.0302955
0.0301525
0.029948
0.0295732
0.0290783
0.028532
0.0279908
0.0274911
0.0270691
0.0267931
0.0266852
0.0266543
0.0284562
0.0284239
0.0282914
0.0280152
0.0276708
0.0273035
0.0269412
0.0266089
0.0263235
0.0260699
0.0257776
0.0253951
0.0249574
0.0245044
0.0240705
0.0236774
0.023349
0.0231368
0.0230553
0.0230324
0.0240694
0.0240437
0.0239417
0.0237271
0.0234526
0.0231501
0.0228363
0.0225269
0.0222323
0.021943
0.0216285
0.021272
0.0208979
0.0205283
0.0201842
0.0198775
0.0196241
0.0194623
0.0194009
0.0193838
0.0195689
0.0195489
0.0194718
0.0193088
0.0190964
0.0188566
0.018599
0.0183331
0.0180653
0.0177892
0.0174961
0.0171879
0.0168814
0.0165884
0.0163211
0.0160861
0.015894
0.0157722
0.0157263
0.0157137
0.0150094
0.0149944
0.0149374
0.014817
0.014658
0.0144764
0.0142776
0.0140671
0.0138483
0.0136171
0.0133744
0.0131293
0.0128932
0.0126724
0.0124731
0.0122988
0.012157
0.0120675
0.0120339
0.0120247
0.0104173
0.0104065
0.0103663
0.0102814
0.0101698
0.0100434
0.00990484
0.00975661
0.00960046
0.00943381
0.00925958
0.00908705
0.00892386
0.00877242
0.00863573
0.00851532
0.0084162
0.00835321
0.00832962
0.00832298
0.0058027
0.00579565
0.00577087
0.00571886
0.0056534
0.00558209
0.0055052
0.00542303
0.00533601
0.00524363
0.00514687
0.0050515
0.00496189
0.00487867
0.00480291
0.00473445
0.00467562
0.00463711
0.00462251
0.00461774
0.00117615
0.00117732
0.00118356
0.0011805
0.00116712
0.00115008
0.001131
0.0011105
0.0010882
0.00106296
0.00103644
0.00101071
0.000987052
0.000965354
0.000945792
0.000928008
0.000912464
0.000902871
0.000905184
0.000909328
-0.612978
-0.375126
-0.150466
0.0329703
0.184363
0.308374
0.41509
0.502983
0.531545
0.527621
-0.23794
-0.083604
0.0596534
0.184743
0.291931
0.382374
0.455042
0.505543
0.533002
0.548912
0.0146997
0.114647
0.214125
0.302482
0.37878
0.442625
0.493164
0.531192
0.5583
0.577446
0.192272
0.262603
0.334029
0.398219
0.453876
0.50101
0.539996
0.571734
0.595352
0.614418
0.330085
0.381605
0.434326
0.48278
0.525531
0.562877
0.595021
0.621834
0.641785
0.660097
0.443363
0.483902
0.524467
0.563245
0.59858
0.630219
0.657891
0.680866
0.698005
0.715674
0.540304
0.575848
0.611171
0.645284
0.67695
0.705576
0.730503
0.750802
0.765663
0.782867
0.632394
0.666985
0.701591
0.734724
0.765189
0.792397
0.815687
0.834123
0.847165
0.86386
0.730073
0.767771
0.803922
0.837631
0.867863
0.894103
0.915979
0.932866
0.944883
0.961153
0.845304
0.886903
0.924687
0.958253
0.98737
1.01193
1.03204
1.04771
1.05986
1.07602
0.988269
1.02958
1.06531
1.09528
1.12087
1.14286
1.16168
1.1774
1.19069
1.2067
1.16041
1.19261
1.21994
1.24264
1.263
1.28195
1.29988
1.3168
1.33182
1.34758
1.34699
1.36433
1.38163
1.39853
1.4148
1.42966
1.44368
1.45825
1.47356
1.49092
1.53073
1.5407
1.55396
1.565
1.57446
1.58422
1.59495
1.60522
1.61457
1.64027
1.74876
1.74308
1.73014
1.71589
1.70968
1.71548
1.73366
1.76222
1.79603
1.83237
2.05152
1.91557
1.83617
1.79382
1.77654
1.7805
1.808
1.86586
1.97353
2.15194
0.337543
0.331247
0.323537
0.31245
0.298905
0.286288
0.275928
0.267929
0.262199
0.258816
0.25829
0.26082
0.265771
0.272897
0.282253
0.293932
0.307387
0.320235
0.329162
0.336673
0.246568
0.252498
0.260604
0.266785
0.269917
0.269478
0.266448
0.262504
0.258912
0.256539
0.256202
0.258179
0.261645
0.265814
0.269689
0.271742
0.270508
0.265749
0.258608
0.250726
0.239702
0.242079
0.245418
0.248295
0.250872
0.253198
0.254523
0.254459
0.253478
0.252461
0.25243
0.253636
0.255183
0.256107
0.255701
0.253945
0.251543
0.248985
0.245852
0.242774
0.234835
0.235921
0.237923
0.240405
0.242422
0.243944
0.245239
0.246232
0.246799
0.24706
0.247352
0.247776
0.247887
0.247476
0.246574
0.245365
0.243766
0.241542
0.239243
0.237706
0.229758
0.23037
0.231604
0.233563
0.235603
0.237324
0.238619
0.239743
0.240768
0.24164
0.242171
0.242193
0.241833
0.241198
0.240336
0.239069
0.237306
0.235361
0.233775
0.232922
0.22501
0.22541
0.22635
0.228
0.229916
0.231872
0.233693
0.235145
0.236237
0.237087
0.237691
0.237888
0.237651
0.236918
0.235643
0.233994
0.232237
0.230547
0.229282
0.228695
0.220637
0.220884
0.221659
0.223185
0.224951
0.226724
0.228546
0.230326
0.231872
0.233039
0.233783
0.233976
0.233491
0.232469
0.231116
0.229654
0.228121
0.226571
0.225462
0.22505
0.217119
0.217227
0.217816
0.219155
0.220722
0.222252
0.223677
0.225077
0.226495
0.227827
0.228764
0.229012
0.228745
0.228149
0.227333
0.226253
0.22497
0.223645
0.222734
0.222496
0.214918
0.214964
0.215335
0.216302
0.217575
0.21893
0.220431
0.22195
0.223401
0.224742
0.225818
0.226362
0.226334
0.225839
0.22504
0.224163
0.223206
0.222279
0.22172
0.221594
0.212984
0.213023
0.213233
0.213744
0.214506
0.215422
0.216471
0.217714
0.219155
0.220671
0.222002
0.222794
0.223048
0.223015
0.222778
0.222378
0.221983
0.221617
0.221398
0.221322
0.210238
0.210269
0.21042
0.21074
0.21122
0.212058
0.213019
0.214273
0.215733
0.217368
0.218973
0.220142
0.220773
0.221018
0.221016
0.22094
0.220903
0.22084
0.220761
0.220709
0.20666
0.206677
0.206818
0.207159
0.207681
0.208311
0.20932
0.21063
0.212274
0.214197
0.216178
0.217728
0.218684
0.219241
0.219554
0.219746
0.219843
0.219842
0.219805
0.219778
0.202534
0.202532
0.202656
0.203037
0.203649
0.204381
0.205428
0.206871
0.208703
0.21094
0.213388
0.215454
0.216875
0.217811
0.218409
0.218762
0.218936
0.218969
0.218974
0.218974
0.198034
0.19803
0.198132
0.198523
0.199173
0.200132
0.201434
0.203026
0.20517
0.207874
0.21092
0.213577
0.215468
0.216753
0.217666
0.218205
0.218461
0.218574
0.218637
0.218653
0.193135
0.193123
0.193247
0.193654
0.194376
0.195413
0.196842
0.198793
0.201377
0.204685
0.208486
0.211897
0.214433
0.216176
0.217307
0.218087
0.218535
0.218784
0.218915
0.21894
0.187587
0.187572
0.187725
0.188162
0.188947
0.19013
0.191828
0.194184
0.197357
0.201458
0.206221
0.210547
0.213682
0.215993
0.217563
0.218598
0.219255
0.219649
0.219842
0.219873
0.181111
0.181094
0.181278
0.181806
0.182704
0.184112
0.186167
0.189061
0.192997
0.198116
0.204087
0.209517
0.213565
0.216458
0.218458
0.219804
0.220688
0.221229
0.221485
0.221526
0.173404
0.173381
0.17361
0.17425
0.175397
0.177135
0.179672
0.183289
0.188224
0.194641
0.202123
0.208926
0.214008
0.217634
0.220146
0.221852
0.222984
0.223681
0.224005
0.224058
0.164132
0.164101
0.164403
0.165232
0.166668
0.168884
0.172118
0.176699
0.182921
0.19099
0.200361
0.208845
0.215154
0.219659
0.22279
0.224918
0.226336
0.227214
0.227619
0.227683
0.152853
0.152815
0.153225
0.154315
0.156176
0.159027
0.163195
0.169048
0.176953
0.187133
0.198847
0.209371
0.217157
0.222718
0.226588
0.229224
0.230984
0.232077
0.23258
0.232656
0.138923
0.138884
0.139456
0.140914
0.143366
0.147108
0.152537
0.160108
0.170231
0.183081
0.197671
0.210646
0.220197
0.227015
0.23177
0.235019
0.237193
0.238549
0.239173
0.239262
0.121376
0.121341
0.122161
0.124164
0.127492
0.13253
0.139757
0.149683
0.162694
0.178894
0.196964
0.212838
0.224463
0.232768
0.238582
0.242576
0.245262
0.246938
0.247715
0.247823
0.0987334
0.0987228
0.0999602
0.10283
0.107525
0.114518
0.124356
0.137522
0.154318
0.174685
0.196887
0.216115
0.230139
0.240189
0.247274
0.252186
0.255514
0.257602
0.258563
0.258694
0.0686712
0.0687564
0.0707584
0.0750978
0.0820638
0.0921624
0.105876
0.123538
0.145231
0.170647
0.197624
0.220632
0.237363
0.24943
0.258042
0.2641
0.268265
0.270894
0.272094
0.27225
0.0268675
0.0272374
0.0309148
0.0383559
0.0495381
0.0648091
0.0842957
0.108023
0.135798
0.167103
0.199396
0.226518
0.246205
0.260532
0.270941
0.278438
0.283733
0.287125
0.288643
0.288822
-0.0345427
-0.0327379
-0.0240618
-0.00985717
0.0092075
0.0327018
0.0602461
0.0916421
0.126574
0.164435
0.202399
0.233813
0.256592
0.273338
0.285758
0.295
0.301745
0.306196
0.30823
0.308481
-0.108793
-0.105163
-0.0885064
-0.0636137
-0.0340513
-0.0010501
0.0352505
0.0748525
0.117493
0.162655
0.207316
0.244221
0.271286
0.291619
0.307157
0.319186
0.32857
0.334713
0.337245
0.338
-0.184116
-0.175018
-0.150236
-0.115407
-0.0761053
-0.0339249
0.0110584
0.0588197
0.109153
0.161634
0.213061
0.255504
0.286823
0.310645
0.329234
0.343955
0.355611
0.36359
0.367769
0.369157
-0.242349
-0.232063
-0.202393
-0.160839
-0.114162
-0.064312
-0.0116368
0.0436274
0.101177
0.160528
0.218168
0.265456
0.300251
0.326693
0.347275
0.36357
0.376391
0.385496
0.390495
0.392087
-0.289516
-0.27858
-0.245596
-0.19928
-0.147127
-0.091293
-0.0323271
0.0293724
0.0933532
0.158913
0.22211
0.273533
0.311004
0.33918
0.360877
0.377871
0.391212
0.400855
0.406157
0.407783
-0.328587
-0.317573
-0.282515
-0.232537
-0.175977
-0.115272
-0.0510693
0.0161529
0.0857354
0.156836
0.224963
0.279899
0.319519
0.34896
0.371366
0.388713
0.402156
0.411803
0.417062
0.41871
-0.362531
-0.351527
-0.314934
-0.26203
-0.201828
-0.137018
-0.0683243
0.00372471
0.0783035
0.154408
0.227084
0.285312
0.326875
0.357382
0.380282
0.397765
0.411164
0.420775
0.426015
0.427596
-0.392898
-0.381957
-0.344193
-0.288903
-0.225663
-0.157328
-0.0846395
-0.00826342
0.0709094
0.151694
0.228698
0.290007
0.333366
0.364843
0.388193
0.405828
0.419225
0.428814
0.434059
0.435503
-0.420873
-0.409961
-0.371286
-0.313958
-0.248036
-0.176626
-0.100426
-0.0201582
0.0632411
0.148426
0.229542
0.293955
0.339219
0.371781
0.395687
0.413552
0.427
0.436557
0.441778
0.443125
-0.447271
-0.436347
-0.396835
-0.337675
-0.269456
-0.195364
-0.116042
-0.0322484
0.055027
0.144405
0.229709
0.297389
0.34473
0.378524
0.403106
0.421293
0.434854
0.444403
0.449601
0.450855
-0.472502
-0.461563
-0.42126
-0.36049
-0.290236
-0.213732
-0.131617
-0.0446389
0.0462481
0.13969
0.229179
0.300283
0.349937
0.385184
0.410624
0.429273
0.443043
0.452623
0.457769
0.458967
-0.496906
-0.485888
-0.444865
-0.382626
-0.310556
-0.231905
-0.147287
-0.0573937
0.0368616
0.134142
0.227793
0.302569
0.354846
0.391834
0.418339
0.437605
0.451687
0.461351
0.466409
0.467571
-0.520684
-0.509498
-0.467776
-0.40424
-0.330556
-0.249999
-0.163122
-0.0705965
0.0267214
0.127649
0.225475
0.304137
0.359362
0.398425
0.426258
0.446316
0.460828
0.470647
0.475618
0.476735
-0.54385
-0.532479
-0.490104
-0.425393
-0.350264
-0.268011
-0.179149
-0.0842808
0.0158389
0.120198
0.222119
0.304833
0.363328
0.404827
0.434321
0.455407
0.470487
0.480515
0.485409
0.486407
-0.566497
-0.554888
-0.511896
-0.446099
-0.369695
-0.285958
-0.195347
-0.0983939
0.0042501
0.111759
0.217621
0.304503
0.366605
0.410938
0.442455
0.464819
0.480613
0.49089
0.495686
0.49654
-0.58855
-0.576727
-0.533124
-0.466348
-0.388825
-0.303785
-0.21164
-0.112875
-0.00801914
0.10233
0.211909
0.302958
0.368949
0.416586
0.450562
0.474511
0.491156
0.501699
0.506367
0.507022
-0.610036
-0.597973
-0.553758
-0.486102
-0.407597
-0.321429
-0.227973
-0.127654
-0.0208884
0.0919611
0.204946
0.300045
0.370063
0.421439
0.458451
0.484431
0.502065
0.512762
0.517141
0.517574
-0.630779
-0.618555
-0.573747
-0.505312
-0.425954
-0.338816
-0.244268
-0.142639
-0.0342647
0.0807255
0.196728
0.295644
0.369693
0.425116
0.465848
0.494577
0.513472
0.524071
0.527843
0.527966
-0.65088
-0.638431
-0.593052
-0.523943
-0.443851
-0.355891
-0.26042
-0.15773
-0.0480417
0.0687289
0.187284
0.289673
0.367615
0.427194
0.472284
0.504865
0.525808
0.535936
0.538253
0.537811
-0.670197
-0.65753
-0.611661
-0.541943
-0.461204
-0.372564
-0.276339
-0.172805
-0.062094
0.0560681
0.176707
0.282089
0.36362
0.427183
0.476983
0.514776
0.539673
0.549921
0.549117
0.546743
-0.688789
-0.675918
-0.629518
-0.559256
-0.477975
-0.388769
-0.291943
-0.187772
-0.0762981
0.0429021
0.165123
0.272893
0.357625
0.42465
0.478888
0.522927
0.554562
0.568676
0.565771
0.553619
-0.706566
-0.693566
-0.646714
-0.576046
-0.494371
-0.40479
-0.30757
-0.203049
-0.091127
0.0286826
0.151932
0.261391
0.348946
0.418855
0.47638
0.526747