/*--------------------------------*- C++ -*----------------------------------*\
  =========                 |
  \\      /  F ield         | OpenFOAM: The Open Source CFD Toolbox
   \\    /   O peration     | Website:  https://openfoam.org
    \\  /    A nd           | Version:  6
     \\/     M anipulation  |
\*---------------------------------------------------------------------------*/
FoamFile
{
    version     2.0;
    format      ascii;
    class       surfaceScalarField;
    location    "16";
    object      phi;
}
// * * * * * * * * * * * * * * * * * * * * * * * * * * * * * * * * * * * * * //

dimensions      [0 3 -1 0 0 0 0];

internalField   nonuniform List<scalar> 
17370
(
-0.0899957
0.0898395
0.289167
-0.0714484
0.0537316
0.364492
-0.0380887
0.0276439
0.426613
-0.0195729
0.0145263
0.504298
-0.0106794
0.00819207
0.601889
-0.0061924
0.0048117
0.720438
-0.00364849
0.00282035
0.863735
-0.00210738
0.00157863
1.03598
-0.00109034
0.000704951
1.24289
-0.000320659
-5.57198e-05
1.49157
0.000418779
-0.000798732
1.49157
0.00118284
-0.00166865
1.24318
0.00219133
-0.00289651
1.03634
0.00371941
-0.00487702
0.864064
0.00625132
-0.00824272
0.721049
0.0107229
-0.0145645
0.603056
0.0196075
-0.0276748
0.507507
0.038116
-0.0537547
0.431807
0.0714673
-0.0898522
0.36516
0.0900033
0.199008
-0.128151
0.0882713
0.0398794
-0.364611
0.353421
-0.0745985
0.0857885
-0.446483
0.45431
-0.0842674
0.0764404
-0.521236
0.529887
-0.0683889
0.0597387
-0.61277
0.621579
-0.0515842
0.0427751
-0.726815
0.734154
-0.03523
0.0278908
-0.86745
0.872473
-0.0222948
0.0172718
-1.03846
1.04181
-0.0135628
0.0102094
-1.24461
1.24699
-0.00765308
0.00526404
-1.49269
1.49463
-0.00333269
0.00139611
-1.49245
1.49416
0.000286309
-0.00199562
-1.244
1.24589
0.00391025
-0.00580619
-1.03749
1.04001
0.00815055
-0.0106646
-0.866085
0.869753
0.0139702
-0.0176385
-0.724339
0.729911
0.0226246
-0.0281967
-0.608657
0.616177
0.0355153
-0.0430352
-0.514948
0.523073
0.0518113
-0.0599365
-0.439898
0.44793
0.0685582
-0.0765902
-0.37531
0.376803
0.0843955
-0.0858891
-0.257375
0.222614
0.0746667
-0.0399057
-0.0685931
0.0587992
0.00979391
-0.0516168
0.0581416
-0.374178
0.367653
-0.0571485
0.0533175
-0.453554
0.457385
-0.0481611
0.0441712
-0.527876
0.531866
-0.0403288
0.0367325
-0.621579
0.625176
-0.0327069
0.0286931
-0.735371
0.739384
-0.0241668
0.0200181
-0.874229
0.878378
-0.0157276
0.0121151
-1.04332
1.04694
-0.00855134
0.00555994
-1.24843
1.25143
-0.00244156
-0.000511624
-1.49653
1.49948
0.00343416
-0.00651219
-1.49712
1.5002
0.00946437
-0.0129806
-1.24996
1.25347
0.0165398
-0.0207699
-1.04586
1.05009
0.0248597
-0.0293173
-0.877824
0.882282
0.0332689
-0.0372366
-0.740055
0.744023
0.0407904
-0.0445865
-0.626833
0.630629
0.0485358
-0.0536537
-0.534806
0.539924
0.0574421
-0.0583828
-0.457567
0.458508
0.0517987
-0.0317755
-0.335979
0.315956
0.00982422
-0.0685108
0.0586866
-0.0531022
0.0491852
0.003917
-0.0326652
0.0430463
-0.35834
0.347958
-0.0466637
0.0460042
-0.459424
0.460083
-0.0429073
0.0394869
-0.535867
0.539287
-0.0356458
0.0323343
-0.628471
0.631782
-0.0289407
0.0259816
-0.742456
0.745415
-0.0228569
0.0199175
-0.881709
0.884649
-0.0166105
0.0134546
-1.05037
1.05352
-0.00991089
0.00658442
-1.25474
1.25807
-0.00282773
-0.000777659
-1.50293
1.50653
0.00437365
-0.00807567
-1.50377
1.50747
0.0113293
-0.0147774
-1.25709
1.26054
0.0178438
-0.0210584
-1.05371
1.05692
0.0239192
-0.0269539
-0.885618
0.888653
0.029825
-0.0331231
-0.747277
0.750575
0.0363555
-0.0401247
-0.634504
0.638273
0.043485
-0.0465127
-0.544428
0.547456
0.0471023
-0.0433909
-0.456965
0.453254
0.0329015
-0.0158313
-0.296885
0.279815
0.00395222
-0.0529587
0.0490064
-0.0461904
0.0437987
0.0023917
-0.0219688
0.0319858
-0.337477
0.32746
-0.037574
0.0385539
-0.459708
0.458728
-0.0374473
0.0353393
-0.541889
0.543997
-0.0328375
0.0303194
-0.634814
0.637332
-0.0273164
0.0244815
-0.748415
0.75125
-0.0213152
0.0184822
-0.887568
0.890401
-0.015379
0.0124877
-1.05657
1.05946
-0.00920853
0.00607946
-1.2613
1.26443
-0.00247023
-0.00103771
-1.51005
1.51356
0.00452485
-0.00806701
-1.51109
1.51464
0.0111131
-0.0142703
-1.26388
1.26704
0.0170297
-0.0199834
-1.06003
1.06299
0.0226864
-0.0257203
-0.89176
0.894794
0.0284536
-0.0313582
-0.753835
0.75674
0.0337837
-0.036185
-0.641391
0.643792
0.0382137
-0.039223
-0.549229
0.550239
0.0381451
-0.0324192
-0.44818
0.442454
0.0222554
-0.0096717
-0.265056
0.252472
0.0024341
-0.0459717
0.0435376
-0.041851
0.0402417
0.00160927
-0.0154135
0.0240174
-0.31812
0.309516
-0.0301342
0.032032
-0.457311
0.455413
-0.0315078
0.0298422
-0.545871
0.547536
-0.0277761
0.0258584
-0.639403
0.641321
-0.0236872
0.0215961
-0.753698
0.75579
-0.0191164
0.0166916
-0.893041
0.895466
-0.0138811
0.0112444
-1.06219
1.06483
-0.00822549
0.00533187
-1.26745
1.27034
-0.00194615
-0.00139684
-1.51707
1.52042
0.00470106
-0.00798748
-1.51809
1.52137
0.0107575
-0.0136308
-1.27002
1.27289
0.0161242
-0.0187686
-1.06578
1.06843
0.0210352
-0.0233471
-0.897492
0.899804
0.0252978
-0.0273075
-0.759084
0.761094
0.0290887
-0.0310169
-0.645842
0.64777
0.0325603
-0.0329398
-0.55092
0.551299
0.0308854
-0.0245659
-0.436385
0.430065
0.0157677
-0.0065945
-0.241747
0.232574
0.00166202
-0.0415428
0.0398808
-0.0389157
0.0378248
0.00109087
-0.0106743
0.0175033
-0.301761
0.294932
-0.0233636
0.0259308
-0.453087
0.450519
-0.0261583
0.0251905
-0.548881
0.549848
-0.0234927
0.021864
-0.64313
0.644759
-0.0200602
0.0183631
-0.757655
0.759352
-0.016404
0.0144575
-0.897655
0.899602
-0.0121334
0.00980193
-1.06736
1.06969
-0.00705251
0.00436246
-1.27313
1.27582
-0.00123667
-0.00178965
-1.52356
1.52658
0.00477988
-0.00779855
-1.52451
1.52753
0.010334
-0.0128748
-1.27564
1.27818
0.0150023
-0.017094
-1.07083
1.07293
0.0188261
-0.0205465
-0.901772
0.903493
0.0220432
-0.0236428
-0.762934
0.764534
0.0250978
-0.0266312
-0.64955
0.651083
0.0274382
-0.0270288
-0.551261
0.550851
0.0242636
-0.0181537
-0.423725
0.417615
0.0110931
-0.00454573
-0.22478
0.218233
0.00115379
-0.0384976
0.0373438
-0.0369327
0.0362461
0.000686656
-0.00668591
0.0116284
-0.289038
0.284095
-0.0166664
0.0194187
-0.44785
0.445097
-0.0202339
0.0199567
-0.550469
0.550746
-0.0189506
0.0179118
-0.646115
0.647154
-0.0166445
0.0152808
-0.76088
0.762243
-0.0136164
0.0119639
-0.901366
0.903018
-0.0099858
0.00802156
-1.0718
1.07377
-0.0056614
0.00330665
-1.27836
1.28071
-0.000490683
-0.0023005
-1.52951
1.5323
0.00504113
-0.00771206
-1.53039
1.53306
0.0098703
-0.011972
-1.28048
1.28258
0.013677
-0.0153585
-1.07477
1.07645
0.0167441
-0.0181341
-0.905044
0.906434
0.0192179
-0.0202242
-0.765853
0.766859
0.0210448
-0.0218179
-0.652283
0.653056
0.021868
-0.0207918
-0.550137
0.549061
0.0177651
-0.0124043
-0.411852
0.406491
0.00718409
-0.00289448
-0.212832
0.208542
0.000764686
-0.036381
0.0356163
-0.0357808
0.0355207
0.000260061
-0.00313392
0.00615022
-0.280132
0.277116
-0.0099878
0.012685
-0.442298
0.439601
-0.0140974
0.0143958
-0.550692
0.550393
-0.0140171
0.0133905
-0.647945
0.648572
-0.0125616
0.0117127
-0.763382
0.764231
-0.0106089
0.00938063
-0.904508
0.905737
-0.00780738
0.0061578
-1.0756
1.07725
-0.00411854
0.00205834
-1.28291
1.28497
0.000438821
-0.00293636
-1.53494
1.53744
0.00536181
-0.00765789
-1.53553
1.53783
0.00947028
-0.0111812
-1.28451
1.28622
0.0124913
-0.0136697
-1.07795
1.07913
0.0145136
-0.0152081
-0.907551
0.908245
0.0157062
-0.0161938
-0.767574
0.768061
0.0165303
-0.0166108
-0.653416
0.653497
0.0160351
-0.0142927
-0.547585
0.545842
0.0112676
-0.00706144
-0.401639
0.397433
0.00372755
-0.00139429
-0.205309
0.202975
0.000352963
-0.0350666
0.0347136
-0.0354198
0.0354142
5.66833e-06
-0.00114668
0.00278646
-0.274904
0.273265
-0.00525792
0.00729209
-0.437196
0.435162
-0.00860325
0.0090227
-0.54999
0.54957
-0.00894405
0.00862599
-0.649049
0.649367
-0.00818418
0.0077013
-0.764838
0.765321
-0.00702484
0.00625123
-0.906681
0.907455
-0.00516242
0.003928
-1.07867
1.0799
-0.00231752
0.000601385
-1.28686
1.28858
0.00152026
-0.0036467
-1.53977
1.5419
0.0056929
-0.00757316
-1.53993
1.54181
0.00896172
-0.010138
-1.28765
1.28883
0.0109418
-0.0115468
-1.07995
1.08056
0.0119034
-0.0121388
-0.908571
0.908806
0.0122718
-0.0122832
-0.768332
0.768344
0.0122354
-0.0119076
-0.653385
0.653057
0.0110996
-0.00935197
-0.544034
0.542287
0.00689891
-0.0039616
-0.393918
0.390981
0.00191388
-0.000628511
-0.201299
0.200014
0.000125325
-0.0345063
0.034381
-0.0354477
0.0354871
-3.93754e-05
-0.000648276
0.00181612
-0.27195
0.270782
-0.00370406
0.00537837
-0.433401
0.431727
-0.00658504
0.00711024
-0.549118
0.548593
-0.00725956
0.00715185
-0.649546
0.649653
-0.00677948
0.0062772
-0.765789
0.766291
-0.00556442
0.00474916
-0.908216
0.909031
-0.00364988
0.00244673
-1.08107
1.08228
-0.000889114
-0.000730718
-1.29019
1.29181
0.00268164
-0.00455989
-1.54384
1.54572
0.00634367
-0.008006
-1.54352
1.54519
0.00924893
-0.0103128
-1.28989
1.29096
0.011024
-0.0115602
-1.08111
1.08165
0.0118665
-0.012013
-0.909053
0.909199
0.0119253
-0.011631
-0.768131
0.767836
0.011182
-0.0105566
-0.652517
0.651891
0.00960868
-0.00789143
-0.540604
0.538887
0.00571231
-0.00325231
-0.388396
0.385936
0.00158245
-0.000529866
-0.198905
0.197853
0.000105611
-0.0342821
0.0341765
-0.0355245
0.0355654
-4.08343e-05
-0.000424026
0.0014184
-0.269697
0.268703
-0.00325323
0.00515719
-0.429988
0.428084
-0.00684263
0.00771852
-0.547962
0.547086
-0.00801569
0.00798986
-0.649735
0.64976
-0.00774927
0.00720067
-0.766804
0.767352
-0.00634898
0.00534371
-0.90991
0.910916
-0.00397502
0.00247709
-1.08358
1.08508
-0.000577503
-0.00136006
-1.29354
1.29548
0.00364202
-0.00580853
-1.54768
1.54985
0.00785053
-0.00976257
-1.54691
1.54883
0.0112007
-0.0124288
-1.29207
1.2933
0.0132555
-0.0138692
-1.08215
1.08277
0.0141553
-0.0142143
-0.90921
0.909269
0.0140656
-0.0137234
-0.767588
0.767245
0.013284
-0.0122871
-0.651192
0.650195
0.0107745
-0.00836726
-0.536937
0.53453
0.0057864
-0.00321842
-0.383446
0.380878
0.00159575
-0.000584335
-0.196818
0.195806
0.00014187
-0.0340534
0.0339115
-0.0356119
0.0356767
-6.47666e-05
-1.84999e-05
0.000703119
-0.267836
0.267152
-0.00232311
0.00443893
-0.426007
0.423892
-0.00690018
0.00868876
-0.545754
0.543966
-0.00988029
0.0101704
-0.649634
0.649343
-0.00993073
0.00933101
-0.768009
0.768608
-0.00827699
0.00690569
-0.912116
0.913487
-0.00502633
0.00302474
-1.08683
1.08883
-0.00056748
-0.00186907
-1.29767
1.3001
0.00471977
-0.00744626
-1.55229
1.55502
0.0100147
-0.0123877
-1.55098
1.55336
0.0141828
-0.0158089
-1.29474
1.29636
0.0169794
-0.0178839
-1.08355
1.08445
0.0183903
-0.0185087
-0.909466
0.909584
0.0182074
-0.017592
-0.766709
0.766093
0.0164871
-0.0143541
-0.648664
0.646531
0.0117322
-0.00836719
-0.531587
0.528222
0.00543466
-0.00293803
-0.37829
0.375793
0.00148898
-0.000590895
-0.194842
0.193944
0.000163721
-0.0337568
0.0335931
-0.0357626
0.0358802
-0.000117623
0.000469532
-0.000286335
-0.266684
0.2665
-0.000693059
0.00237418
-0.42191
0.420228
-0.00479787
0.0069913
-0.541886
0.539693
-0.0088825
0.00969963
-0.648918
0.648101
-0.00967589
0.00920397
-0.769082
0.769554
-0.00799576
0.00643446
-0.914985
0.916547
-0.00431311
0.00207267
-1.09099
1.09323
0.000660015
-0.00335832
-1.30271
1.30541
0.0064946
-0.00948103
-1.55794
1.56093
0.0122576
-0.0147787
-1.55588
1.5584
0.0166413
-0.018231
-1.29804
1.29963
0.0193175
-0.0201234
-1.08537
1.08618
0.0204051
-0.0202952
-0.909545
0.909435
0.0199159
-0.0187179
-0.765298
0.7641
0.016715
-0.0137751
-0.643897
0.640957
0.0106323
-0.00717083
-0.524683
0.521221
0.00453666
-0.00249653
-0.373496
0.371456
0.00133576
-0.000572227
-0.193121
0.192358
0.000170738
-0.0334282
0.0332575
-0.036025
0.0362056
-0.000180601
0.00104229
-0.00128372
-0.266522
0.266764
0.00111791
-0.000311123
-0.418957
0.41815
-0.00120834
0.00277703
-0.53776
0.536192
-0.00427029
0.00522312
-0.647025
0.646072
-0.00552548
0.00510171
-0.770127
0.770551
-0.00409071
0.00272201
-0.918059
0.919428
-0.000804027
-0.0012584
-1.09538
1.09745
0.00380526
-0.00632842
-1.30803
1.31056
0.00923506
-0.011923
-1.56381
1.56649
0.0143482
-0.016416
-1.56077
1.56284
0.0178344
-0.0190211
-1.30107
1.30225
0.0197054
-0.0200575
-1.08673
1.08708
0.0200027
-0.0194676
-0.909213
0.908678
0.0183273
-0.0164334
-0.762416
0.760522
0.0141918
-0.0113486
-0.637989
0.635146
0.0085962
-0.00581103
-0.518065
0.51528
0.00380882
-0.0022633
-0.369686
0.368141
0.00131183
-0.000599836
-0.191641
0.190929
0.00018583
-0.0330884
0.0329026
-0.036421
0.0366618
-0.000240826
0.00148011
-0.00213205
-0.267186
0.267838
0.0025618
-0.0025708
-0.417809
0.417818
0.00207082
-0.00138589
-0.53516
0.534475
0.000681669
-0.000299829
-0.645491
0.64511
0.000302188
-0.000725272
-0.77092
0.771343
0.00162242
-0.00279655
-0.920599
0.921773
0.00442094
-0.00616473
-1.09929
1.10103
0.00831881
-0.0104365
-1.31284
1.31495
0.0128219
-0.0149337
-1.56888
1.57099
0.0166971
-0.0180505
-1.5646
1.56595
0.0187833
-0.0191588
-1.30301
1.30339
0.0191498
-0.018753
-1.08702
1.08662
0.0180601
-0.0169101
-0.907744
0.906594
0.0155141
-0.0136606
-0.758643
0.75679
0.011699
-0.00937683
-0.632599
0.630276
0.00726981
-0.00519855
-0.512927
0.510855
0.00367686
-0.00239163
-0.366776
0.365491
0.00148039
-0.000705041
-0.190214
0.189438
0.000222621
-0.0327166
0.0324939
-0.0369508
0.037257
-0.000306186
0.00192523
-0.00285502
-0.268639
0.269569
0.00375246
-0.0043147
-0.418148
0.41871
0.00459438
-0.00468272
-0.534377
0.534465
0.00477245
-0.00500726
-0.645148
0.645383
0.00552316
-0.00625555
-0.771828
0.77256
0.00733658
-0.00855352
-0.922804
0.924021
0.0101105
-0.011695
-1.10259
1.10417
0.0135624
-0.0153169
-1.3168
1.31856
0.0171807
-0.0186933
-1.57275
1.57426
0.0197783
-0.0203546
-1.56697
1.56755
0.0203882
-0.0200253
-1.30336
1.303
0.0194653
-0.0184959
-1.08576
1.08479
0.0173406
-0.0158565
-0.905177
0.903693
0.0143432
-0.012549
-0.75494
0.753146
0.0108184
-0.00888903
-0.628234
0.626304
0.00718849
-0.00548512
-0.509097
0.507394
0.00412996
-0.00283623
-0.364278
0.362984
0.0018128
-0.000878971
-0.188625
0.187691
0.00028028
-0.0322729
0.0319926
-0.0376323
0.0380168
-0.000384485
0.00243913
-0.00365881
-0.270705
0.271925
0.00493224
-0.00591931
-0.419586
0.420574
0.00675749
-0.00744095
-0.535061
0.535744
0.00824377
-0.00908851
-0.646005
0.646849
0.0101628
-0.0113046
-0.773395
0.774537
0.012742
-0.0141988
-0.925159
0.926616
0.0159209
-0.0175595
-1.1056
1.10724
0.0193578
-0.0209136
-1.32009
1.32164
0.0224031
-0.0234204
-1.57545
1.57647
0.0239074
-0.0237922
-1.5678
1.56768
0.0232504
-0.0223186
-1.30234
1.30141
0.0211649
-0.0197057
-1.08346
1.082
0.0182228
-0.0165042
-0.901987
0.900268
0.0148875
-0.0130946
-0.751297
0.749504
0.0114532
-0.00967467
-0.624533
0.622754
0.00809947
-0.0064451
-0.505885
0.50423
0.00500621
-0.00350438
-0.361731
0.360229
0.00225364
-0.00109516
-0.186709
0.185551
0.000348657
-0.0317191
0.0313704
-0.0384962
0.0389924
-0.000496271
0.00311897
-0.00469457
-0.27342
0.274996
0.00639005
-0.00779966
-0.421945
0.423355
0.00913507
-0.0102872
-0.5369
0.538052
0.0116131
-0.0129894
-0.647989
0.649366
0.0146548
-0.0163152
-0.775804
0.777465
0.0182799
-0.0201487
-0.928009
0.929878
0.0222125
-0.0240466
-1.10875
1.11058
0.0259276
-0.0274331
-1.32303
1.32454
0.0287103
-0.029369
-1.57723
1.57789
0.0293796
-0.0287186
-1.56727
1.5666
0.027644
-0.0261014
-1.30014
1.2986
0.0244615
-0.0225168
-1.08024
1.07829
0.0206844
-0.0186713
-0.898286
0.896273
0.0168598
-0.0149239
-0.747534
0.745598
0.0131949
-0.0113341
-0.620995
0.619134
0.00965302
-0.00781401
-0.50271
0.500871
0.0061544
-0.00436544
-0.358782
0.356993
0.00282945
-0.00137281
-0.184339
0.182882
0.000436231
-0.031027
0.0305908
-0.0396002
0.0402642
-0.000663996
0.00409433
-0.00615728
-0.276916
0.278979
0.00839807
-0.0102819
-0.425192
0.427075
0.0121102
-0.0137173
-0.539769
0.541376
0.0155708
-0.0174627
-0.651042
0.652934
0.0197651
-0.0220164
-0.779176
0.781427
0.0245739
-0.0269078
-0.931661
0.933995
0.0294034
-0.0315528
-1.11234
1.11449
0.0336671
-0.0352529
-1.32593
1.32751
0.03644
-0.0368279
-1.57832
1.57871
0.0364124
-0.0352012
-1.56563
1.56442
0.0335976
-0.0314709
-1.29675
1.29462
0.0293232
-0.0268639
-1.07604
1.07358
0.0246044
-0.0221806
-0.893924
0.8915
0.0200482
-0.0178153
-0.743355
0.741122
0.0158486
-0.0137394
-0.61718
0.615071
0.0118088
-0.00964643
-0.499148
0.496985
0.00764429
-0.00543568
-0.355225
0.353016
0.00352514
-0.00171023
-0.181385
0.17957
0.000541894
-0.0301672
0.0296253
-0.0410391
0.0419368
-0.000897735
0.00545459
-0.00818664
-0.28142
0.284152
0.0111497
-0.0136268
-0.429449
0.431926
0.0160361
-0.0181754
-0.543686
0.545825
0.0206608
-0.0231834
-0.655209
0.657731
0.0261989
-0.0290846
-0.783685
0.78657
0.0322963
-0.0351885
-0.936307
0.939199
0.0382306
-0.0407914
-1.11662
1.11919
0.0432236
-0.0449433
-1.329
1.33072
0.0460704
-0.0461892
-1.57885
1.57897
0.0453262
-0.0435206
-1.56286
1.56106
0.0413318
-0.0385542
-1.29215
1.28937
0.0358262
-0.0327555
-1.07078
1.06771
0.0299684
-0.0270082
-0.888669
0.885709
0.0244291
-0.021756
-0.738459
0.735786
0.01942
-0.0169229
-0.612749
0.610252
0.0146183
-0.0119959
-0.494912
0.49229
0.00952809
-0.0067798
-0.35084
0.348091
0.00439276
-0.00212621
-0.177707
0.17544
0.000672913
-0.0291048
0.0284319
-0.0429467
0.0441729
-0.0012262
0.00735701
-0.0109831
-0.287263
0.290889
0.014849
-0.0180288
-0.435
0.43818
0.0211093
-0.0238766
-0.548849
0.551616
0.0271399
-0.0304415
-0.660688
0.663989
0.0343389
-0.0380176
-0.789511
0.79319
0.0420624
-0.0456548
-0.942126
0.945718
0.0493708
-0.0524182
-1.12174
1.12479
0.0552046
-0.0570552
-1.33233
1.33418
0.0580822
-0.0578624
-1.57881
1.57859
0.0564628
-0.0539553
-1.55885
1.55634
0.051077
-0.0475278
-1.28618
1.28263
0.0441029
-0.0402909
-1.06422
1.0604
0.0368561
-0.0332258
-0.882255
0.878625
0.0300772
-0.0268299
-0.732555
0.729308
0.0240057
-0.0209969
-0.607413
0.604404
0.0182077
-0.0150008
-0.48973
0.486523
0.0119139
-0.00847919
-0.345403
0.341968
0.00548842
-0.00265409
-0.173145
0.17031
0.000838128
-0.0278016
0.0269634
-0.0455173
0.0472553
-0.00173795
0.0101649
-0.015011
-0.294934
0.29978
0.0200339
-0.0241001
-0.442243
0.446309
0.0280451
-0.0316476
-0.555566
0.559169
0.0359279
-0.0402105
-0.667783
0.672066
0.0451919
-0.0498243
-0.796921
0.801553
0.0548419
-0.0592165
-0.949327
0.953702
0.0636362
-0.0671588
-1.1278
1.13133
0.0702524
-0.0721595
-1.33588
1.33779
0.0729701
-0.0722752
-1.57802
1.57733
0.0701879
-0.0668153
-1.55335
1.54998
0.0631032
-0.0586269
-1.27859
1.27412
0.054363
-0.0496546
-1.05608
1.05137
0.0454334
-0.0409847
-0.874391
0.869943
0.0371346
-0.0331716
-0.725353
0.72139
0.0297348
-0.0260846
-0.60089
0.59724
0.0226903
-0.0187609
-0.483313
0.479384
0.0149353
-0.0105873
-0.338656
0.334308
0.00682598
-0.00327521
-0.167493
0.163942
0.00102388
-0.0262001
0.0251763
-0.0490639
0.0516466
-0.00258266
0.0146083
-0.0212392
-0.305107
0.311738
0.0277973
-0.0329872
-0.451734
0.456923
0.0380285
-0.0427187
-0.564359
0.569049
0.0483113
-0.0538374
-0.676911
0.682437
0.0601405
-0.0658661
-0.806253
0.811979
0.0719222
-0.0770689
-0.958085
0.963231
0.0821143
-0.0859862
-1.13476
1.13863
0.0891977
-0.0909526
-1.33942
1.34117
0.0912944
-0.0898845
-1.57615
1.57474
0.0868863
-0.082442
-1.54601
1.54157
0.0777292
-0.0721585
-1.26906
1.26349
0.0669114
-0.0611522
-1.04606
1.0403
0.0560054
-0.0505875
-0.864778
0.85936
0.045899
-0.0410732
-0.716556
0.71173
0.0368956
-0.0324683
-0.592882
0.588455
0.0283309
-0.023501
-0.475344
0.470514
0.0187364
-0.0132789
-0.330169
0.324711
0.00850383
-0.00403731
-0.160488
0.156022
0.00124546
-0.024249
0.0230036
-0.0541935
0.0582424
-0.00404885
0.0218676
-0.031075
-0.319003
0.32821
0.0397002
-0.0463854
-0.464371
0.471056
0.0528903
-0.0590446
-0.575933
0.582087
0.0663564
-0.0733747
-0.68856
0.695578
0.0811222
-0.0879366
-0.817716
0.824531
0.0949189
-0.100658
-0.968274
0.974012
0.106061
-0.109979
-1.14224
1.14616
0.11292
-0.11415
-1.34246
1.34369
0.113613
-0.111135
-1.57264
1.57016
0.106924
-0.101152
-1.53637
1.5306
0.0952524
-0.0884197
-1.25724
1.25041
0.0820601
-0.0751249
-1.03387
1.02694
0.0689454
-0.0624372
-0.853132
0.846624
0.0567941
-0.0509766
-0.705872
0.700055
0.0459506
-0.0406283
-0.583051
0.577729
0.0355962
-0.0296508
-0.465397
0.459452
0.0236844
-0.0167835
-0.319513
0.312612
0.0107072
-0.00503497
-0.151761
0.146089
0.00152779
-0.0218802
0.0203524
-0.0620226
0.0692421
-0.00721956
0.0353794
-0.048752
-0.338883
0.352255
0.0603429
-0.068772
-0.481366
0.489795
0.0769269
-0.0848206
-0.590995
0.598888
0.0939698
-0.102336
-0.702982
0.711348
0.111145
-0.118567
-0.831097
0.838519
0.125878
-0.131615
-0.979334
0.98507
0.136721
-0.140085
-1.14949
1.15285
0.142153
-0.142312
-1.34417
1.34433
0.140375
-0.136382
-1.56676
1.56277
0.130598
-0.123219
-1.52391
1.51653
0.115937
-0.107695
-1.2428
1.23456
0.10012
-0.0919308
-1.01928
1.01109
0.0846631
-0.0770229
-0.83925
0.83161
0.0703886
-0.0635265
-0.693066
0.686204
0.0575836
-0.0512782
-0.571086
0.564781
0.0452313
-0.0378519
-0.452932
0.445552
0.0303261
-0.0215486
-0.305921
0.297143
0.0137105
-0.00636705
-0.140827
0.133484
0.00184247
-0.0190116
0.0171692
-0.0762274
0.0796714
-0.00344397
0.0248566
-0.0363689
-0.36862
0.380132
0.0467352
-0.0548623
-0.503509
0.511636
0.063712
-0.073335
-0.609268
0.618891
0.0841215
-0.0937534
-0.719273
0.728905
0.10446
-0.113903
-0.845128
0.854571
0.123708
-0.132106
-0.989861
0.998259
0.140452
-0.147117
-1.15513
1.16179
0.15302
-0.156823
-1.34332
1.34713
0.158743
-0.157927
-1.55756
1.55674
0.154255
-0.148134
-1.50806
1.50194
0.140997
-0.131973
-1.22545
1.21643
0.12318
-0.112672
-1.00214
0.991627
0.103067
-0.0925371
-0.82309
0.81256
0.0831595
-0.0732538
-0.678124
0.668218
0.0642926
-0.0549315
-0.556763
0.547402
0.0463011
-0.0357552
-0.437338
0.426792
0.0258694
-0.0158917
-0.288306
0.278328
0.00838976
-0.00292637
-0.126775
0.121312
0.000440067
-0.0155814
0.0151413
-0.0871391
0.0840034
0.0031357
0.00259751
-0.00906598
-0.394502
0.400971
0.0169399
-0.023567
-0.524506
0.531133
0.0319785
-0.040434
-0.629072
0.637528
0.0501986
-0.0590918
-0.73839
0.747283
0.0685557
-0.077111
-0.86357
0.872125
0.0860102
-0.0933537
-1.00639
1.01374
0.100866
-0.106545
-1.1683
1.17398
0.111548
-0.114498
-1.35067
1.35362
0.11537
-0.113779
-1.55515
1.55356
0.109471
-0.102861
-1.49504
1.48843
0.0952383
-0.0859075
-1.20693
1.1976
0.0769401
-0.066718
-0.98083
0.970608
0.0571696
-0.0466324
-0.801182
0.790645
0.0372446
-0.0276769
-0.656233
0.646666
0.0195277
-0.0112014
-0.535217
0.526891
0.00412609
0.00213991
-0.415044
0.408778
-0.00578061
0.00724308
-0.267102
0.265639
-0.00664986
0.00425782
-0.114531
0.116923
-0.00180845
-0.0135252
0.0153336
-0.0866152
0.0832493
0.00336585
-0.00523412
0.00225041
-0.411075
0.414058
0.00256313
-0.0077994
-0.541742
0.546979
0.0147229
-0.0219709
-0.646334
0.653582
0.030283
-0.0378898
-0.755593
0.763199
0.046205
-0.0535993
-0.880027
0.887421
0.0610928
-0.0676476
-1.02095
1.02751
0.0741951
-0.0792762
-1.17931
1.18439
0.0833778
-0.0856307
-1.35602
1.35827
0.0862402
-0.0844535
-1.55145
1.54966
0.0801893
-0.0738949
-1.48146
1.47516
0.066843
-0.0585095
-1.18843
1.1801
0.0502575
-0.0412
-0.96039
0.951333
0.0328167
-0.0236567
-0.780518
0.771358
0.0157489
-0.00766753
-0.63636
0.628279
0.00100675
0.00560987
-0.516611
0.509994
-0.0105033
0.0138344
-0.399865
0.396534
-0.0146162
0.0125618
-0.260351
0.262406
-0.00930331
0.00517317
-0.116842
0.120972
-0.0018871
-0.015466
0.0173531
-0.0844374
0.0812005
0.00323687
-0.00810441
0.0071348
-0.4214
0.422369
-0.0041748
-7.44147e-06
-0.555149
0.559331
0.00601038
-0.0120633
-0.660694
0.666747
0.0191579
-0.0256705
-0.770488
0.777
0.0327557
-0.0390916
-0.894386
0.900722
0.0459132
-0.0515338
-1.03371
1.03933
0.0573607
-0.0614852
-1.18919
1.19332
0.0651557
-0.06719
-1.36047
1.3625
0.0676041
-0.0657299
-1.54766
1.54579
0.0620416
-0.0566476
-1.46868
1.46329
0.0505975
-0.0432155
-1.17199
1.16461
0.0363081
-0.0288254
-0.942529
0.935047
0.0218491
-0.0145957
-0.762778
0.755524
0.00804186
-0.00158353
-0.619768
0.61331
-0.00366318
0.00839234
-0.501996
0.497267
-0.0115613
0.013439
-0.390022
0.388144
-0.0132761
0.0105398
-0.259444
0.26218
-0.00754165
0.00403733
-0.12197
0.125474
-0.00143731
-0.0177329
0.0191702
-0.082251
0.0795778
0.00267314
-0.00845076
0.00869697
-0.428065
0.427819
-0.00641305
0.00315016
-0.566251
0.569514
0.00171498
-0.00715001
-0.672863
0.678298
0.0131345
-0.0188834
-0.783097
0.788846
0.0250539
-0.0306038
-0.906729
0.912279
0.0365373
-0.0416443
-1.04488
1.04999
0.0467248
-0.0506966
-1.19743
1.2014
0.054053
-0.0559346
-1.36437
1.36625
0.0564051
-0.0548237
-1.544
1.54242
0.0516778
-0.0469014
-1.45757
1.45279
0.0417403
-0.0355975
-1.15759
1.15144
0.0297949
-0.0234342
-0.927741
0.92138
0.0177602
-0.0118178
-0.748493
0.742551
0.00671059
-0.00165441
-0.606793
0.601737
-0.00226351
0.00563011
-0.491173
0.487806
-0.00788652
0.00898553
-0.383486
0.382387
-0.00843879
0.00649028
-0.259669
0.261618
-0.00452564
0.0023435
-0.125524
0.127706
-0.000886494
-0.0191786
0.0200651
-0.0805034
0.0782907
0.00221262
-0.00778789
0.00822354
-0.432444
0.432009
-0.00694705
0.00415995
-0.574965
0.577752
0.000431792
-0.00508107
-0.683294
0.687943
0.010281
-0.0153306
-0.794059
0.799109
0.0208753
-0.0259024
-0.917612
0.922639
0.0314184
-0.0359971
-1.0549
1.05948
0.0407126
-0.0444673
-1.20519
1.20895
0.0476474
-0.0494923
-1.36804
1.36988
0.0500602
-0.0491032
-1.54097
1.54001
0.0463654
-0.0423494
-1.44783
1.44381
0.03784
-0.0324991
-1.1454
1.14006
0.027709
-0.0221748
-0.915225
0.909691
0.0173423
-0.0124721
-0.736853
0.731983
0.00824607
-0.00407106
-0.596726
0.592551
0.000794339
0.00217967
-0.48313
0.480156
-0.00387358
0.00482909
-0.37861
0.377655
-0.00485184
0.00378191
-0.258888
0.259958
-0.00266558
0.00148282
-0.126728
0.127911
-0.00062483
-0.0196552
0.02028
-0.0792809
0.0775864
0.00169448
-0.00651849
0.00708685
-0.435653
0.435085
-0.00593163
0.00371026
-0.582701
0.584922
0.000471016
-0.00468021
-0.692446
0.696655
0.00964877
-0.0140558
-0.803962
0.808369
0.0189944
-0.0235221
-0.927747
0.932275
0.028836
-0.0330939
-1.06416
1.06841
0.0374308
-0.0411245
-1.2126
1.21629
0.0446169
-0.0465397
-1.37185
1.37378
0.047449
-0.0467354
-1.53886
1.53814
0.0447016
-0.0409621
-1.43976
1.43602
0.0371164
-0.032507
-1.13473
1.13012
0.0281435
-0.0233938
-0.904359
0.89961
0.0190584
-0.0145495
-0.726991
0.722483
0.0109949
-0.00716272
-0.58815
0.584318
0.00407427
-0.0014704
-0.476144
0.47354
-0.000317626
0.00159558
-0.374289
0.373011
-0.00197862
0.00175018
-0.257186
0.257414
-0.0013817
0.000877676
-0.126241
0.126745
-0.000447801
-0.0196346
0.0200824
-0.0786536
0.0773328
0.00132076
-0.00521844
0.00583788
-0.43824
0.43762
-0.0046949
0.00243636
-0.589464
0.591722
0.00143708
-0.00521664
-0.700753
0.704532
0.00953168
-0.0138207
-0.812885
0.817174
0.0184459
-0.0231578
-0.936721
0.941432
0.0278318
-0.0319792
-1.07285
1.077
0.0365273
-0.0400815
-1.21994
1.22349
0.0432536
-0.045714
-1.37569
1.37815
0.0469636
-0.0467063
-1.5376
1.53734
0.0449841
-0.0419295
-1.43254
1.42949
0.0384765
-0.034233
-1.12526
1.12102
0.0302642
-0.02582
-0.894751
0.890307
0.0217782
-0.01769
-0.718
0.713911
0.0140468
-0.010462
-0.580222
0.576637
0.00757602
-0.00479304
-0.469896
0.467113
0.00278977
-0.00144431
-0.369605
0.368259
0.00055653
3.32598e-05
-0.254427
0.253837
-0.000378341
0.000451436
-0.12466
0.124587
-0.000339879
-0.0192767
0.0196166
-0.0785984
0.0774858
0.00111266
-0.00381514
0.00418465
-0.440678
0.440308
-0.00317514
0.00083475
-0.595681
0.598021
0.00272829
-0.00636957
-0.708528
0.712169
0.0105207
-0.014451
-0.821403
0.825333
0.0192232
-0.0232119
-0.945675
0.949663
0.0279082
-0.0319469
-1.08137
1.08541
0.0364537
-0.0402656
-1.2271
1.23091
0.0438156
-0.046153
-1.38044
1.38278
0.0478327
-0.0480476
-1.53708
1.53729
0.04701
-0.0442663
-1.42632
1.42358
0.0411755
-0.0372004
-1.11681
1.11284
0.0334566
-0.0291182
-0.885564
0.881226
0.0252706
-0.0211255
-0.709504
0.705359
0.0175173
-0.0138575
-0.572703
0.569043
0.0107806
-0.00803487
-0.463521
0.460776
0.00573343
-0.00396464
-0.364597
0.362829
0.00255148
-0.00141049
-0.250656
0.249515
0.000541047
0.000109785
-0.122158
0.121508
-0.000247924
-0.0186473
0.0188952
-0.0788189
0.0780232
0.000795758
-0.0026034
0.00246822
-0.443306
0.443442
-0.00158611
-0.00080615
-0.601223
0.603616
0.00400883
-0.00751551
-0.715806
0.719312
0.01151
-0.0155826
-0.829251
0.833324
0.0197961
-0.023973
-0.953931
0.958108
0.0286695
-0.0325446
-1.08992
1.0938
0.0371927
-0.0410276
-1.23461
1.23844
0.0447042
-0.047625
-1.38558
1.3885
0.0498728
-0.0504432
-1.5376
1.53817
0.0496634
-0.0475457
-1.42096
1.41885
0.0448489
-0.0410267
-1.10862
1.1048
0.0373042
-0.0332122
-0.876627
0.872535
0.0290336
-0.0249693
-0.700853
0.696788
0.0212617
-0.0173853
-0.56522
0.561344
0.014286
-0.0111808
-0.456948
0.453843
0.00868202
-0.00634506
-0.35922
0.356883
0.00461342
-0.00293116
-0.246057
0.244374
0.00144029
-0.000296269
-0.118921
0.117777
-0.000150799
-0.0177888
0.0179396
-0.0794277
0.0787798
0.000647973
-0.0016257
0.00148104
-0.446186
0.446331
-1.80936e-05
-0.00212671
-0.606842
0.608986
0.00543344
-0.008806
-0.722607
0.725979
0.0126634
-0.0163685
-0.837179
0.840884
0.0207243
-0.0246204
-0.96235
0.966246
0.029291
-0.0336154
-1.09816
1.10249
0.0379532
-0.0421522
-1.24238
1.24658
0.0462971
-0.0493839
-1.39141
1.39449
0.052071
-0.0534398
-1.53901
1.54037
0.0531117
-0.0515459
-1.41659
1.41502
0.0489358
-0.0453498
-1.10089
1.0973
0.0417814
-0.037574
-0.86782
0.863613
0.0334966
-0.0292575
-0.692117
0.687878
0.0254094
-0.0212578
-0.55719
0.553038
0.0178338
-0.0145338
-0.44998
0.44668
0.0115827
-0.0088556
-0.353016
0.350289
0.00663029
-0.00438319
-0.240552
0.238305
0.00244699
-0.000803251
-0.114977
0.113333
1.60366e-05
-0.0167694
0.0167533
-0.0802826
0.0797901
0.000492416
-0.000573643
0.000176776
-0.449209
0.449606
0.00117338
-0.00347992
-0.612058
0.614364
0.00666465
-0.00987576
-0.729167
0.732379
0.0138112
-0.0173808
-0.844644
0.848214
0.0215978
-0.0256201
-0.970653
0.974675
0.0302173
-0.0345259
-1.10672
1.11103
0.0391047
-0.0433628
-1.25076
1.25502
0.0477312
-0.0516005
-1.39792
1.40179
0.0548048
-0.0565533
-1.54177
1.54352
0.0569452
-0.0556904
-1.41337
1.41212
0.0535572
-0.0503528
-1.0936
1.09039
0.0466574
-0.0424058
-0.858922
0.854671
0.0382695
-0.0337563
-0.683095
0.678581
0.0298311
-0.0254192
-0.548852
0.54444
0.0217755
-0.0179897
-0.442531
0.438746
0.0147922
-0.0116128
-0.346082
0.342902
0.00874395
-0.00589941
-0.234119
0.231275
0.00347814