/*--------------------------------*- C++ -*----------------------------------*\
  =========                 |
  \\      /  F ield         | OpenFOAM: The Open Source CFD Toolbox
   \\    /   O peration     | Website:  https://openfoam.org
    \\  /    A nd           | Version:  6
     \\/     M anipulation  |
\*---------------------------------------------------------------------------*/
FoamFile
{
    version     2.0;
    format      ascii;
    class       surfaceScalarField;
    location    "49";
    object      phi;
}
// * * * * * * * * * * * * * * * * * * * * * * * * * * * * * * * * * * * * * //

dimensions      [0 3 -1 0 0 0 0];

internalField   nonuniform List<scalar> 
1300
(
3.75095
5.62643
-3.30429
3.75095
-7.75283
5.62643
-4.22603
4.22603
-0.682947
0.682947
1.87646
1.87449
-2.58118
2.58118
-2.01793
2.01793
-2.54199
2.54199
-5.24804
5.24804
-5.0692
5.0692
4.71096
-4.71096
-6.31187
6.31187
-1.0417
1.0417
-3.63639
3.63639
3.17278
-3.17278
-1.98909
1.98909
-0.122489
0.122489
-0.554103
4.30506
3.19685
3.19685
-1.96611
1.96611
-4.87461
4.87461
6.22238
-6.22238
5.25012
-5.25012
-1.94583
-2.44404
1.80995
-11.5538
-5.94288
-5.94288
-8.44101
8.44101
-2.81458
2.81185
2.94614
-2.94614
-1.73445
1.73445
-4.22403
-0.00200124
-4.22403
4.20279
0.0232426
4.20279
-0.759548
0.0766012
-0.759548
3.87574
-3.87574
0.56421
0.118737
0.56421
3.06705
-3.06705
-1.87688
3.75334
1.87408
-1.87207
6.17713
-1.87888
3.75337
-6.06068
6.06068
-2.8018
0.220625
-2.8018
2.37906
0.202113
2.37906
-6.85824
6.85824
-2.06383
0.0458992
-2.06383
2.01304
0.00489752
2.01304
2.88341
-2.88341
-2.63975
0.0977685
-2.63975
2.40785
0.134139
2.40785
0.353433
5.273
-5.97986
8.79171
-5.273
0.0249542
5.21035
0.0376956
5.21035
-5.10508
0.0358793
-5.10508
5.01309
0.0561182
5.01309
4.80423
-0.0932697
4.80423
-4.82632
0.115358
-4.82632
-3.38091
-4.07334
-6.47246
0.160589
-6.47246
-1.07991
0.0382096
-1.07991
0.970973
0.0707279
0.970973
-3.68858
3.68858
-3.95302
0.316626
-3.95302
3.12777
0.0450096
3.12777
1.86812
1.88283
5.61908
-5.61908
2.4463
-1.95581
-0.0332869
-1.95581
-2.0608
-3.18932
2.0608
-0.0717078
-0.337465
0.214975
-0.337465
3.15704
0.0398103
3.15704
2.24588
0.161965
-2.24588
0.279774
3.282
-3.282
1.30197
0.664142
1.30197
-5.55964
5.55964
4.96127
0.0518109
-4.96127
0.0866663
6.15676
0.06562
6.15676
-6.20779
-0.014589
-6.20779
2.51123
-4.95527
-2.60638
6.1264
0.185468
-6.1264
0.183527
2.91715
0.0289943
2.91715
-2.92034
2.92034
-2.98351
0.0373662
-2.98351
-2.15887
0.424423
-2.15887
1.41761
0.31684
1.41761
-4.12522
-0.0988089
-4.12522
-4.08402
0.131008
4.08402
0.118768
1.09074
-1.09074
-0.82403
0.0644815
-0.82403
-3.9728
-0.152425
3.9728
-0.0970639
-3.82649
-0.0492426
-3.82649
-3.02143
0.0379243
3.02143
0.0456173
3.11197
0.0450707
-3.11197
0.0449212
-1.87099
3.75382
-1.87997
3.75404
-5.67804
-0.382648
-5.67804
6.34839
-0.287703
6.34839
3.19113
0.445264
-3.19113
0.389326
2.23161
0.147449
2.23161
-6.83306
-0.0251779
-6.83306
6.86252
-0.00427584
6.86252
2.1338
0.0978144
-2.1338
0.0699655
1.98953
0.0235033
1.98953
2.909
-0.0255948
2.909
-2.87862
-0.00478383
-2.87862
2.79496
-2.79496
2.72278
0.0721762
-2.72278
0.0830304
-11.1239
11.1093
-0.0363398
-11.0876
5.17401
5.17401
4.25993
0.544305
4.25993
-5.0177
0.191379
-5.0177
2.66842
-5.2748
3.08122
-6.46213
4.68509
-16.2389
4.31594
-8.38928
6.71603
-6.71603
6.60101
0.115022
-6.60101
0.128546
-1.15712
0.0772109
-1.15712
-3.09575
-0.592826
-3.09575
4.33731
-0.648729
4.33731
-3.02809
3.02809
-3.07675
0.0486626
3.07675
0.0510198
1.96359
0.0259436
-1.96359
0.00778193
0.437869
0.12634
-0.437869
0.100404
3.49617
-0.214172
3.49617
-3.08393
-0.198069
-3.08393
-1.23276
0.0756405
1.23276
0.0692032
-5.80816
0.248521
-5.80816
-11.1816
0.0940141
-11.1439
-6.11378
-6.11378
2.32723
11.1189
-2.89485
0.0162233
2.89485
0.0222975
2.97572
0.0523635
-2.97572
0.0553846
-2.8605
0.0655403
2.8605
0.0598379
-2.5286
0.369728
-2.5286
-1.0255
1.0255
-1.17969
0.154187
1.17969
0.237921
1.38068
-0.28995
1.38068
0.901758
0.0692153
-0.901758
0.0777281
-3.78642
-0.0400773
-3.78642
6.58262
-0.234235
6.58262
-2.95786
-0.126068
2.95786
-0.0488568
-0.034982
11.1443
-5.13902
0.033942
5.13902
-11.2099
11.2439
-3.23664
0.708038
3.23664
1.02329
5.28496
0.274677
-5.28496
0.267267
6.80441
0.0581015
-6.80441
0.0883863
-2.59114
-0.504612
-2.59114
-5.07661
-0.601423
5.07661
-0.739306
-11.4824
-0.202026
11.6845
-11.4263
6.01019
0.146575
-6.01019
11.3904
-0.981987
-0.108748
0.981987
0.0435146
1.7177
-0.337017
1.7177
3.70367
-0.207504
-3.70367
-0.0827415
-6.73147
-0.101595
6.73147
-0.148844
-2.14651
-0.444635
2.14651
-0.428804
-4.26729
4.3071
1.90984
-2.36245
-2.59283
-5.55177
1.85505
1.89876
4.30135
-10.1965
-6.04239
-10.0129
7.21238
-6.94511
-9.35101
9.25774
7.83699
-7.88624
-5.77797
5.82899
6.48417
-6.43855
1.87928
1.87406
7.99478
-7.77415
-15.7122
15.3295
7.56413
-7.51823
15.8442
-15.8694
-17.8947
17.9528
-5.69909
5.79686
-6.73763
6.73284
-6.96983
6.92097
-2.82615
-3.63599
13.1712
-13.0106
8.57164
-8.60493
-8.6398
8.95643
3.38453
0.922567
3.4296
-1.88193
3.76121
-1.87144
3.78128
2.70891
-5.53506
2.56589
-5.15872
4.35123
4.22041
-4.27952
-1.27225
-5.92691
5.95591
-5.81163
5.87146
9.06321
-9.06521
-1.88496
3.75902
-1.86908
3.76785
-3.42339
-2.35458
3.37838
0.922974
8.10495
5.06624
-8.29042
-1.72251
-7.97808
7.77057
-8.19716
7.99909
-0.436069
5.83711
-5.40104
4.43854
-1.65389
7.491
5.55849
5.74987
5.86042
-5.58574
1.08469
-6.48573
-6.39906
-2.43774
2.50222
2.36599
-2.24725
6.05709
1.7799
5.96003
-5.75803
-2.12821
-5.79811
3.82023
2.00876
3.8689
4.0813
2.40286
4.11923
3.02995
-3.03625
0.00630589
-3.059
6.08895
0.722765
-5.41359
-4.49061
5.00293
2.99185
5.20504
-5.56543
-2.20873
-5.1761
-9.58625
-6.12592
-10.1877
10.1081
5.22142
9.82039
-11.983
11.8341
4.85412
2.71001
4.85902
-4.9659
-2.55234
-4.89593
11.668
-2.62572
-9.04226
-10.3415
-7.55319
10.3458
5.49842
10.9953
6.95752
11.0837
4.43275
7.23523
-9.93117
2.37798
-3.86362
-1.83547
-3.78059
3.65668
2.14018
3.79082
-4.21719
-2.52043
-4.20097
-4.29229
-2.67754
4.31789
2.41496
-4.40905
-3.78811
4.53512
2.38585
4.05883
-10.1012
4.33045
-7.96644
-9.22949
-3.78111
-9.10095
3.49785
2.61179
-6.10964
-2.03721
8.46818
-4.24777
7.19593
-5.20528
-3.39965
-5.1975
-6.90048
-1.73932
-6.76947
-8.96121
8.4566
-9.24471
8.59598
12.6199
-5.67759
-6.94235
-3.96684
-2.47171
3.92192
-0.492317
-3.71022
3.71653
0.0509848
3.83227
4.75483
4.26252
-3.88291
-1.92872
-3.82752
3.82374
2.04772
3.88928
6.78503
2.27818
6.80827
-6.5185
-2.54671
-6.61731
9.12925
-8.70483
2.83997
-2.76433
5.3496
2.64949
-5.13542
-2.84266
6.23654
-3.18956
-3.04699
-12.3543
10.8361
1.51816
-4.8633
-0.424757
-0.302268
-5.58131
-3.76971
5.46595
0.283918
11.12
7.35034
-5.51515
5.76367
6.16933
6.22114
-0.177925
5.91133
-5.2033
5.31562
-2.6403
-2.67532
5.40305
-5.55547
-1.21426
-5.47298
4.25872
0.404561
1.65343
-1.43845
-1.88091
-0.556825
-1.80319
1.37003
0.995958
1.49637
0.91084
1.59138
-2.91521
0.57927
2.33594
-2.00437
-1.66798
-3.72893
-1.13791
4.86683
5.67307
2.09751
-5.59033
-0.20778
2.63465
-2.56392
-0.78456
-2.94437
2.1799
-2.96446
-3.50636
-1.88187
5.38824
-3.36915
-0.458369
3.31679
0.552105
-3.82749
-2.09942
3.79013
0.329101
-3.12779
6.19013
-3.06233
-5.05651
2.52893
3.56002
4.53768
-4.79054
2.44871
2.34183
-1.23051
4.282
0.923042
4.42945
-6.98374
4.77502
5.71313
3.2433
-6.15839
0.982289
-6.00145
8.45314
-7.29755
-1.15559
4.00637
4.44678
7.06324
5.55671
-5.71095
12.7742
-1.09206
-6.20549
7.09351
-3.85021
4.80613
-8.65634
-10.3628
4.15735
-9.24527
11.0479
-1.80267
-3.60987
-8.37311
12.8551
-1.21305
-11.6421
8.60735
-4.2617
-4.29912
8.56082
-6.88742
6.85146
-1.97969
-4.87177
-10.1546
-5.71481
10.2562
1.57794
-9.88739
12.2654
-2.65216
4.138
0.72102
4.1615
3.30795
-5.43914
2.13119
3.57947
-5.55916
2.07358
-7.51272
-6.7644
12.1121
-5.34775
-10.5455
-9.55841
-0.987101
2.55592
9.70945
-9.51344
7.46063
2.05281
3.30083
0.588449
-3.37301
-0.40758
0.240565
4.51617
-4.75674
4.03138
4.19335
3.24119
1.27498
3.84783
2.10808
-3.87013
-0.330842
-4.16455
1.48701
-1.74959
-3.68895
5.17596
-4.0626
0.373648
-2.74401
-3.49633
6.24034
-4.57947
3.03697
3.15316
5.08469
-4.91402
1.41769
-2.39276
-2.52126
2.64491
-4.39451
1.99132
3.18464
4.37718
0.589069
5.89992
6.21222
-8.51171
0.545269
11.2785
-9.55595
2.47547
8.60823
-9.9361
0.377698
-8.72325
0.985208
-5.23297
-5.12443
5.1463
-6.88562
-3.51004
6.21915
0.589117
-6.33792
-0.431555
-6.08349
-2.87772
-6.52813
-3.06379
-6.18091
-8.77474
-1.68286
-7.09189
6.77374
-6.70563
-3.48204
7.44493
1.15105
-7.48726
7.37852
-7.55337
7.21635
0.0944699
3.62206
4.35699
1.88528
-2.39155
4.27682
-5.07246
7.35065
-8.70795
3.63548
4.17226
-6.71898
-4.53569
5.0718
4.05745
5.38864
8.96635
-10.4456
1.47924
-10.7216
12.0612
-1.33956
-16.5201
5.79849
-7.55375
2.50422
0.335743
2.58144
0.586707
2.49378
-3.08048
-2.17762
-2.10842
-2.41277
-3.49569
5.90846
1.1006
-3.43586
2.33526
-3.574
4.6746
-0.0173567
-3.41851
5.20932
-2.71554
5.54506
-3.59136
1.95371
3.521
5.83128
-2.31028
4.421
-1.77151
1.91735
-4.22762
-1.57835
-2.95719
5.09737
-3.28315
3.6568
-0.340632
3.99743
-4.08004
0.890486
-0.838849
3.3545
3.63427
4.32805
-3.05308
2.94655
-4.71806
-1.28107
-4.12899
-0.944354
-0.208867
-3.83869
4.04756
6.04991
-6.25878
-5.2995
9.55498
-4.25548
7.72327
-5.4544
-2.26887
-4.30695
-4.39788
3.93722
1.97412
9.69739
0.17963
-5.63403
-5.02367
-4.00038
3.15341
2.16222
-1.84199
3.36016
2.14426
-0.490834
0.458662
1.03771
1.81076
-1.3521
0.300338
1.51042
-1.13811
1.83134
0.803303
-1.90056
0.0973719
-1.25836
3.43826
1.07759
-2.07355
0.721447
0.920069
-3.56037
5.00169
-2.6935
-2.30819
5.92176
1.13165
-3.82514
4.34134
-3.93677
2.40982
-3.54773
-1.41532
-5.35209
-3.57219
-2.51482
4.85008
-3.39364
5.49115
1.34372
-5.28337
6.62709
-3.61817
1.7363
-3.06587
3.86917
-1.05643
-2.00943
2.91896
2.46928
-3.09613
0.151767
-0.177176
2.39727
-2.57445
-0.56719
-2.57156
-4.57512
4.90422
-2.10457
4.55328
2.17226
-1.91673
6.47001
1.80868
-3.72541
-3.24783
-3.7062
-1.38359
3.1541
-0.593748
-4.30219
-5.46552
4.20437
0.225081
-6.89002
7.80298
-0.912956
-3.89817
-0.876843
4.88321
-6.03602
0.476859
-3.96244
3.84053
4.76358
4.98866
-11.4217
-0.220396
-6.20028
1.11876
-7.31903
5.56553
-3.54246
7.69981
-10.3828
6.90073
-9.23173
6.54422
-0.774815
6.23599
-4.1048
2.80627
-8.52108
-6.94314
5.48254
-2.77252
6.20356
-3.13614
9.33969
-5.7883
5.26175
4.07795
-1.00932
-4.18818
-5.26101
4.25169
0.000733799
4.16223
4.9849
-2.87682
4.65406
2.26088
-4.65364
-2.13362
-6.48882
1.83517
-3.33566
-1.92051
3.75568
3.16418
3.75263
1.23443
-3.34505
7.20862
-8.19572
-1.86088
-3.26356
5.24493
-0.993236
3.38769
-6.65125
-1.84528
4.80292
-0.742324
-4.0606
0.874675
-4.38472
1.68423
-6.06895
5.20139
-5.63295
2.24945
-9.80321
-5.23781
-5.19429
-2.2807
-5.27267
-7.61439
5.33369
-1.8159
5.56262
-8.57584
7.83352
-3.48532
8.81901
-5.47304
-1.05509
5.90184
1.31451
10.1335
0.135763
-4.67145
-1.94346
3.81684
-1.87338
1.20994
-3.70293
0.113912
2.46757
3.45419
-6.7263
0.0073202
-4.66413
-3.91736
7.97481
5.63762
11.6875
1.24195
9.16888
-1.19407
10.4108
4.19457
4.4325
-3.04825
4.52749
0.99931
4.63479
-0.86985
2.82356
1.71159
1.74979
0.814123
2.29673
1.33754
3.18722
0.106736
-2.00168
4.64641
-8.64678
-0.987624
-8.10248
1.15526
5.42752
-4.27226
2.969
-0.806784
1.09562
-0.0700215
-1.43222
1.50224
-2.74534
-1.92305
-0.412629
-1.60263
2.32408
1.83563
-1.91145
-0.833891
0.324018
-3.89621
3.22371
-3.07194
-0.602665
6.02442
-2.84886
0.274407
-1.11256
-2.29716
-2.85398
2.75661
6.17484
0.295176
3.1125
5.1994
3.09998
0.223156
3.88839
-5.69106
-3.62433
-5.91145
-0.345923
4.53729
1.72598
7.98347
5.80393
4.81069
-1.84055
-10.0363
6.55852
-2.03103
5.21896
-1.15837
-4.91058
5.05628
2.29437
-5.6454
0.012455
-4.89813
-6.92916
-0.487217
8.32074
-9.64631
8.59122
5.7135
1.37838
-4.44575
-0.748542
4.29157
0.140929
10.5518
-0.905673
-7.1337
8.03937
-4.52185
3.53422
0.711306
2.64885
2.21354
1.40676
-5.72693
-9.99919
-2.01786
-1.54251
-4.32605
0.540778
-2.3764
6.09401
-2.55979
3.82514
5.47958
6.57521
-2.06115
-4.19763
6.31663
-2.49149
4.08372
)
;

boundaryField
{
    wall-4
    {
        type            calculated;
        value           uniform 0;
    }
    velocity-inlet-5
    {
        type            calculated;
        value           uniform -3.75095;
    }
    velocity-inlet-6
    {
        type            calculated;
        value           uniform -5.62643;
    }
    pressure-outlet-7
    {
        type            calculated;
        value           nonuniform List<scalar> 8(3.30429 7.75283 4.38987 9.74381 7.45425 5.11762 5.74965 9.00103);
    }
    wall-8
    {
        type            calculated;
        value           uniform 0;
    }
    frontAndBackPlanes
    {
        type            empty;
        value           nonuniform 0();
    }
}


// ************************************************************************* //
