/*--------------------------------*- C++ -*----------------------------------*\
  =========                 |
  \\      /  F ield         | OpenFOAM: The Open Source CFD Toolbox
   \\    /   O peration     | Website:  https://openfoam.org
    \\  /    A nd           | Version:  6
     \\/     M anipulation  |
\*---------------------------------------------------------------------------*/
FoamFile
{
    version     2.0;
    format      ascii;
    class       volScalarField;
    location    "0.006";
    object      p;
}
// * * * * * * * * * * * * * * * * * * * * * * * * * * * * * * * * * * * * * //

dimensions      [1 -1 -2 0 0 0 0];

internalField   nonuniform List<scalar> 
1000
(
100000
100000
100000
100000
100000
100000
100000
100000
100000
100000
100000
100000
100000
100000
100000
100000
100000
100000
100000
100000
100000
100000
100000
100000
100000
100000
100000
100000
100000
100000
100000
100000
100000
100000
100000
100000
100000
100000
100000
100000
100000
100000
100000
100000
100000
100000
100000
100000
100000
100000
100000
100000
100000
100000
100000
100000
100000
100000
100000
100000
100000
100000
100000
100000
100000
100000
100000
100000
100000
100000
100000
100000
100000
100000
100000
100000
100000
100000
100000
100000
100000
100000
100000
100000
100000
100000
100000
100000
100000
100000
100000
100000
100000
100000
100000
100000
100000
100000
100000
100000
100000
100000
100000
100000
100000
100000
100000
100000
100000
100000
100000
100000
100000
100000
100000
100000
100000
100000
100000
100000
100000
100000
100000
100000
100000
100000
100000
100000
100000
100000
100000
100000
100000
100000
100000
100000
100000
100000
100000
100000
100000
100000
100000
100000
100000
100000
100000
100000
100000
100000
100000
100000
100000
100000
100000
100000
100000
100000
100000
100000
100000
100000
100000
100000
100000
100000
100000
100000
100000
100000
100000
100000
100000
100000
100000
100000
100000
100000
100000
100000
100000
100000
100000
100000
100000
100000
100000
100000
100000
100000
100000
100000
100000
100000
100000
100000
100000
100000
100000
100000
100000
100000
100000
100000
100000
100000
100000
100000
100000
100000
100000
100000
100000
100000
100000
100000
100000
100000
100000
100000
100000
100000
100000
100000
100000
100000
100000
100000
100000
99999.9
99999.9
99999.9
99999.8
99999.7
99999.6
99999.4
99999.2
99998.8
99998.3
99997.6
99996.6
99995.3
99993.5
99991.1
99987.9
99983.7
99978.2
99971.1
99962
99950.4
99935.8
99917.5
99894.9
99867.2
99833.6
99793.1
99744.8
99687.8
99621
99543.6
99454.6
99353.2
99238.5
99110.1
98967.3
98809.8
98637.2
98449.6
98247
98029.4
97797.3
97551
97291
97017.8
96732.2
96434.7
96126
95807
95478.1
95140.3
94794.1
94440.3
94079.5
93712.2
93339.1
92960.8
92577.6
92190.2
91798.9
91404.1
91006.4
90605.8
90203
89798
89391.1
88982.8
88573
88162.2
87750.4
87337.8
86924.6
86511
86097.1
85682.9
85268.7
84854.6
84440.6
84026.8
83613.4
83200.4
82787.8
82375.9
81964.5
81553.9
81143.9
80734.8
80326.6
79919.2
79512.8
79107.4
78703.1
78299.8
77897.6
77496.6
77096.7
76698.1
76300.6
75904.5
75509.6
75116.1
74723.8
74333
73943.5
73555.3
73168.6
72783.3
72399.5
72017
71636.1
71256.5
70878.5
70502
70126.9
69753.3
69381.3
69010.7
68641.7
68274.2
67908.2
67543.8
67180.9
66819.5
66459.7
66101.4
65744.6
65389.4
65035.8
64683.7
64333.1
63984.1
63636.6
63290.7
62946.4
62603.5
62262.2
61922.5
61584.3
61247.7
60912.5
60579
60246.9
59916.4
59587.4
59260
58934
58609.6
58286.7
57965.3
57645.5
57327.1
57010.3
56694.9
56381.1
56068.8
55757.9
55448.6
55140.7
54834.3
54529.4
54226
53924
53623.5
53324.5
53027
52730.9
52436.2
52143.1
51851.3
51561
51272.2
50984.8
50698.8
50414.3
50131.1
49849.5
49569.2
49290.3
49012.9
48736.9
48462.3
48189.1
47917.3
47646.9
47377.9
47110.3
46844.1
46579.2
46315.8
46053.8
45793.1
45533.9
45276
45019.5
44764.4
44510.6
44258.3
44007.3
43757.7
43509.5
43262.6
43017.2
42773.1
42530.4
42289.1
42049.2
41810.7
41573.5
41337.8
41103.5
40870.6
40639.1
40409
40180.4
39953.1
39727.4
39503.1
39280.2
39058.8
38839
38620.6
38403.7
38188.4
37974.6
37762.4
37551.9
37342.9
37135.5
36929.9
36725.9
36523.7
36323.3
36124.6
35927.8
35732.9
35540
35349
35160.1
34973.4
34788.8
34606.4
34426.4
34248.8
34073.7
33901.1
33731.3
33564.3
33400.1
33239.1
33081.1
32926.5
32775.3
32627.7
32483.8
32343.8
32207.9
32076.2
31948.9
31826.2
31708.2
31595.1
31487
31384.1
31286.6
31194.4
31107.7
31026.6
30951.2
30881.3
30816.9
30758.1
30704.6
30656.3
30613.1
30574.6
30540.7
30511.1
30485.3
30463.2
30444.3
30428.4
30415
30404
30394.8
30387.4
30381.3
30376.5
30372.5
30369.4
30366.9
30364.9
30363.2
30361.9
30360.8
30359.9
30359.2
30358.6
30358
30357.6
30357.2
30356.9
30356.6
30356.3
30356.1
30355.9
30355.8
30355.7
30355.5
30355.5
30355.4
30355.3
30355.3
30355.2
30355.2
30355.1
30355.1
30355.1
30355
30355
30355
30355
30354.9
30354.9
30354.9
30354.9
30354.9
30354.8
30354.8
30354.8
30354.8
30354.8
30354.8
30354.7
30354.7
30354.7
30354.7
30354.7
30354.7
30354.6
30354.6
30354.6
30354.6
30354.6
30354.5
30354.5
30354.5
30354.5
30354.5
30354.5
30354.4
30354.4
30354.4
30354.4
30354.4
30354.4
30354.3
30354.3
30354.3
30354.3
30354.3
30354.3
30354.3
30354.3
30354.2
30354.2
30354.2
30354.2
30354.2
30354.2
30354.2
30354.1
30354.1
30354.1
30354.1
30354.1
30354.1
30354.1
30354
30354
30354
30354
30354
30354
30353.9
30353.9
30353.9
30353.9
30353.8
30353.8
30353.8
30353.8
30353.8
30353.8
30353.8
30353.8
30353.8
30353.8
30353.8
30353.8
30353.8
30353.8
30353.8
30353.8
30353.8
30353.8
30353.8
30353.8
30353.8
30353.8
30353.8
30353.8
30353.8
30353.8
30353.8
30353.7
30353.7
30353.7
30353.7
30353.7
30353.7
30353.7
30353.7
30353.7
30353.7
30353.7
30353.7
30353.6
30353.6
30353.6
30353.5
30353.4
30353.4
30353.3
30353.2
30353
30352.9
30352.8
30352.7
30352.6
30352.6
30352.5
30352.6
30352.6
30352.7
30352.8
30352.9
30353
30353.2
30353.3
30353.4
30353.5
30353.6
30353.6
30353.6
30353.6
30353.6
30353.6
30353.6
30353.5
30353.5
30353.4
30353.3
30353.3
30353.2
30353.2
30353.1
30353.1
30353.1
30353
30353
30353
30353
30353
30353
30353
30353
30353
30353
30353
30352.9
30352.9
30352.9
30352.8
30352.8
30352.8
30352.7
30352.7
30352.7
30352.7
30352.7
30352.7
30352.7
30352.7
30352.7
30352.8
30352.7
30352.7
30352.7
30352.7
30352.6
30352.6
30352.5
30352.5
30352.5
30352.4
30352.4
30352.4
30352.4
30352.4
30352.4
30352.5
30352.5
30352.5
30352.5
30352.5
30352.5
30352.4
30352.4
30352.3
30352.3
30352.2
30352.1
30352.1
30352.1
30352
30352
30352
30352.1
30352.1
30352.1
30352.1
30352.1
30352.1
30352.1
30352.1
30352
30352
30351.9
30351.8
30351.7
30351.6
30351.6
30351.5
30351.5
30351.5
30351.5
30351.6
30351.6
30351.6
30351.7
30351.7
30351.7
30351.6
30351.6
30351.5
30351.4
30351.2
30351.1
30351
30350.9
30350.9
30350.8
30350.8
30350.8
30350.8
30350.9
30350.9
30351
30351
30351
30351
30351
30350.8
30350.6
30350.4
30350.2
30350.1
30350
30349.9
30349.9
30349.8
30349.7
30349.6
30349.5
30349.4
30349.4
30349.4
30349.3
30348.8
30347.6
30344.9
30340.9
30334
30322.2
30308.7
30280.4
30217.6
30111.2
29744.6
29103.3
27374
23880.4
18749.5
14242.8
11535.4
10425.1
10097.9
10020.7
10004.3
10000.9
10000.2
10000
10000
10000
10000
10000
10000
10000
10000
10000
10000
10000
10000
10000
10000
10000
10000
10000
10000
10000
10000
10000
10000
10000
10000
10000
10000
10000
10000
10000
10000
10000
10000
10000
10000
10000
10000
10000
10000
10000
10000
10000
10000
10000
10000
10000
10000
10000
10000
10000
10000
10000
10000
10000
10000
10000
10000
10000
10000
10000
10000
10000
10000
10000
10000
10000
10000
10000
10000
10000
10000
10000
10000
10000
10000
10000
10000
10000
10000
10000
10000
10000
10000
10000
10000
10000
10000
10000
10000
10000
10000
10000
10000
10000
10000
10000
10000
10000
10000
10000
10000
10000
10000
10000
10000
10000
10000
10000
10000
10000
10000
10000
10000
10000
10000
10000
10000
10000
10000
10000
10000
10000
10000
10000
10000
10000
10000
10000
10000
10000
10000
10000
10000
10000
10000
10000
10000
10000
10000
10000
10000
10000
10000
10000
10000
10000
10000
10000
10000
10000
10000
10000
10000
10000
10000
10000
10000
10000
10000
10000
10000
)
;

boundaryField
{
    sides
    {
        type            zeroGradient;
    }
    empty
    {
        type            empty;
    }
}


// ************************************************************************* //
