/*--------------------------------*- C++ -*----------------------------------*\
  =========                 |
  \\      /  F ield         | OpenFOAM: The Open Source CFD Toolbox
   \\    /   O peration     | Website:  https://openfoam.org
    \\  /    A nd           | Version:  6
     \\/     M anipulation  |
\*---------------------------------------------------------------------------*/
FoamFile
{
    version     2.0;
    format      ascii;
    class       volScalarField;
    location    "0.006";
    object      T;
}
// * * * * * * * * * * * * * * * * * * * * * * * * * * * * * * * * * * * * * //

dimensions      [0 0 0 1 0 0 0];

internalField   nonuniform List<scalar> 
1000
(
348.432
348.432
348.432
348.432
348.432
348.432
348.432
348.432
348.432
348.432
348.432
348.432
348.432
348.432
348.432
348.432
348.432
348.432
348.432
348.432
348.432
348.432
348.432
348.432
348.432
348.432
348.432
348.432
348.432
348.432
348.432
348.432
348.432
348.432
348.432
348.432
348.432
348.432
348.432
348.432
348.432
348.432
348.432
348.432
348.432
348.432
348.432
348.432
348.432
348.432
348.432
348.432
348.432
348.432
348.432
348.432
348.432
348.432
348.432
348.432
348.432
348.432
348.432
348.432
348.432
348.432
348.432
348.432
348.432
348.432
348.432
348.432
348.432
348.432
348.432
348.432
348.432
348.432
348.432
348.432
348.432
348.432
348.432
348.432
348.432
348.432
348.432
348.432
348.432
348.432
348.432
348.432
348.432
348.432
348.432
348.432
348.432
348.432
348.432
348.432
348.432
348.432
348.432
348.432
348.432
348.432
348.432
348.432
348.432
348.432
348.432
348.432
348.432
348.432
348.432
348.432
348.432
348.432
348.432
348.432
348.432
348.432
348.432
348.432
348.432
348.432
348.432
348.432
348.432
348.432
348.432
348.432
348.432
348.432
348.432
348.432
348.432
348.432
348.432
348.432
348.432
348.432
348.432
348.432
348.432
348.432
348.432
348.432
348.432
348.432
348.432
348.432
348.432
348.432
348.432
348.432
348.432
348.432
348.432
348.432
348.432
348.432
348.432
348.432
348.432
348.432
348.432
348.432
348.432
348.432
348.432
348.432
348.432
348.432
348.432
348.432
348.432
348.432
348.432
348.432
348.432
348.432
348.432
348.432
348.432
348.432
348.432
348.432
348.432
348.432
348.432
348.432
348.432
348.432
348.432
348.432
348.432
348.432
348.432
348.432
348.432
348.432
348.432
348.432
348.432
348.432
348.432
348.432
348.432
348.432
348.432
348.432
348.432
348.432
348.432
348.432
348.432
348.432
348.432
348.432
348.432
348.432
348.432
348.432
348.432
348.432
348.432
348.432
348.432
348.432
348.432
348.432
348.432
348.432
348.432
348.431
348.431
348.431
348.43
348.43
348.429
348.427
348.426
348.423
348.42
348.416
348.41
348.403
348.394
348.383
348.368
348.35
348.327
348.3
348.266
348.225
348.177
348.12
348.054
347.976
347.887
347.785
347.671
347.542
347.398
347.24
347.066
346.877
346.673
346.453
346.218
345.969
345.705
345.427
345.135
344.831
344.515
344.188
343.85
343.501
343.143
342.776
342.401
342.019
341.629
341.232
340.829
340.421
340.007
339.588
339.165
338.737
338.306
337.871
337.432
336.991
336.546
336.099
335.649
335.197
334.743
334.287
333.828
333.369
332.907
332.444
331.979
331.513
331.046
330.577
330.108
329.637
329.165
328.693
328.219
327.745
327.27
326.795
326.319
325.842
325.365
324.887
324.409
323.93
323.451
322.972
322.492
322.013
321.533
321.052
320.572
320.091
319.611
319.13
318.649
318.168
317.687
317.206
316.725
316.244
315.763
315.283
314.802
314.321
313.841
313.36
312.88
312.4
311.92
311.44
310.96
310.481
310.002
309.522
309.044
308.565
308.087
307.608
307.13
306.653
306.175
305.698
305.221
304.745
304.269
303.793
303.317
302.842
302.367
301.892
301.417
300.943
300.469
299.996
299.523
299.05
298.578
298.106
297.634
297.163
296.692
296.221
295.751
295.281
294.812
294.343
293.875
293.406
292.939
292.47
292.006
291.534
291.078
290.595
290.157
289.65
289.246
288.699
288.342
287.751
287.431
286.825
286.493
285.931
285.53
285.052
284.577
284.149
283.661
283.217
282.763
282.292
281.847
281.387
280.926
280.479
280.02
279.564
279.115
278.66
278.206
277.757
277.304
276.853
276.404
275.954
275.505
275.057
274.61
274.163
273.717
273.272
272.827
272.383
271.94
271.498
271.057
270.615
270.176
269.737
269.299
268.862
268.426
267.991
267.556
267.123
266.691
266.261
265.831
265.402
264.976
264.55
264.125
263.702
263.281
262.861
262.443
262.027
261.612
261.2
260.789
260.381
259.975
259.571
259.17
258.772
258.376
257.984
257.594
257.209
256.826
256.448
256.073
255.703
255.338
254.977
254.622
254.272
253.928
253.59
253.259
252.935
252.619
252.31
252.01
251.718
251.436
251.164
250.901
250.65
250.409
250.18
249.963
249.758
249.565
249.384
249.217
249.062
248.92
248.79
248.672
248.566
248.472
248.388
248.315
248.251
248.196
248.15
248.11
248.077
248.05
248.028
248.009
247.995
247.984
247.975
247.968
247.963
247.959
247.956
247.955
247.953
247.953
247.952
247.952
247.953
247.953
247.954
247.955
247.956
247.957
247.958
247.96
247.961
247.963
247.964
247.966
247.967
247.97
247.971
247.974
247.975
247.978
247.979
247.982
247.983
247.986
247.987
247.99
247.992
247.995
247.997
248
248.001
248.005
248.006
248.01
248.012
248.015
248.017
248.021
248.022
248.027
248.028
248.032
248.034
248.039
248.04
248.045
248.046
248.051
248.053
248.058
248.06
248.065
248.067
248.073
248.074
248.08
248.082
248.088
248.09
248.097
248.099
248.105
248.107
248.114
248.117
248.124
248.126
248.134
248.136
248.144
248.147
248.155
248.158
248.167
248.169
248.179
248.182
248.191
248.195
248.205
248.208
248.219
248.222
248.234
248.238
248.25
248.254
248.266
248.271
248.284
248.289
248.303
248.308
248.324
248.329
248.345
248.352
248.366
248.377
248.392
248.403
248.418
248.431
248.447
248.462
248.479
248.495
248.513
248.531
248.551
248.571
248.593
248.615
248.639
248.664
248.69
248.718
248.747
248.779
248.812
248.848
248.887
248.927
248.971
249.018
249.07
249.127
249.189
249.255
249.317
249.372
249.417
249.458
249.511
249.605
249.782
250.098
250.618
251.414
252.564
254.143
256.222
258.864
262.12
266.024
270.594
275.824
281.689
288.136
295.093
302.465
310.137
317.98
325.858
333.632
341.169
348.349
355.074
361.265
366.871
371.866
376.246
380.029
383.25
385.953
388.191
390.02
391.496
392.674
393.602
394.326
394.885
395.311
395.634
395.876
396.056
396.189
396.287
396.359
396.412
396.45
396.479
396.5
396.516
396.528
396.538
396.546
396.552
396.558
396.562
396.567
396.57
396.574
396.577
396.58
396.582
396.584
396.587
396.589
396.59
396.592
396.593
396.595
396.596
396.597
396.597
396.598
396.599
396.599
396.6
396.6
396.601
396.601
396.602
396.602
396.603
396.603
396.603
396.604
396.604
396.604
396.604
396.605
396.605
396.605
396.605
396.605
396.605
396.605
396.605
396.605
396.605
396.605
396.606
396.606
396.606
396.606
396.607
396.607
396.607
396.607
396.607
396.607
396.607
396.606
396.606
396.606
396.606
396.606
396.606
396.607
396.607
396.607
396.607
396.608
396.608
396.608
396.608
396.608
396.608
396.608
396.608
396.607
396.607
396.607
396.607
396.606
396.606
396.606
396.607
396.607
396.607
396.608
396.608
396.608
396.608
396.608
396.608
396.607
396.607
396.606
396.606
396.605
396.605
396.605
396.604
396.604
396.604
396.604
396.604
396.603
396.605
396.604
396.605
396.598
396.599
396.58
396.58
396.532
396.521
396.426
396.393
396.029
395.78
393.923
391.515
383.805
367.604
338.217
309.681
290.221
281.896
279.473
278.901
278.778
278.753
278.747
278.746
278.746
278.746
278.746
278.746
278.746
278.746
278.746
278.746
278.746
278.746
278.746
278.746
278.746
278.746
278.746
278.746
278.746
278.746
278.746
278.746
278.746
278.746
278.746
278.746
278.746
278.746
278.746
278.746
278.746
278.746
278.746
278.746
278.746
278.746
278.746
278.746
278.746
278.746
278.746
278.746
278.746
278.746
278.746
278.746
278.746
278.746
278.746
278.746
278.746
278.746
278.746
278.746
278.746
278.746
278.746
278.746
278.746
278.746
278.746
278.746
278.746
278.746
278.746
278.746
278.746
278.746
278.746
278.746
278.746
278.746
278.746
278.746
278.746
278.746
278.746
278.746
278.746
278.746
278.746
278.746
278.746
278.746
278.746
278.746
278.746
278.746
278.746
278.746
278.746
278.746
278.746
278.746
278.746
278.746
278.746
278.746
278.746
278.746
278.746
278.746
278.746
278.746
278.746
278.746
278.746
278.746
278.746
278.746
278.746
278.746
278.746
278.746
278.746
278.746
278.746
278.746
278.746
278.746
278.746
278.746
278.746
278.746
278.746
278.746
278.746
278.746
278.746
278.746
278.746
278.746
278.746
278.746
278.746
278.746
278.746
278.746
278.746
278.746
278.746
278.746
278.746
278.746
278.746
278.746
278.746
278.746
278.746
278.746
278.746
278.746
278.746
278.746
278.746
278.746
278.746
278.746
278.746
278.746
278.746
)
;

boundaryField
{
    sides
    {
        type            zeroGradient;
    }
    empty
    {
        type            empty;
    }
}


// ************************************************************************* //
