/*--------------------------------*- C++ -*----------------------------------*\
  =========                 |
  \\      /  F ield         | OpenFOAM: The Open Source CFD Toolbox
   \\    /   O peration     | Website:  https://openfoam.org
    \\  /    A nd           | Version:  6
     \\/     M anipulation  |
\*---------------------------------------------------------------------------*/
FoamFile
{
    version     2.0;
    format      ascii;
    class       volScalarField;
    location    "26";
    object      p;
}
// * * * * * * * * * * * * * * * * * * * * * * * * * * * * * * * * * * * * * //

dimensions      [0 2 -2 0 0 0 0];

internalField   nonuniform List<scalar> 
2200
(
0.467339
0.452124
0.434646
0.418345
0.403867
0.391819
0.382193
0.374706
0.36926
0.366212
0.366525
0.370122
0.375971
0.383766
0.393611
0.405819
0.420412
0.43678
0.454292
0.469524
0.411005
0.407093
0.402101
0.396516
0.390207
0.383581
0.377167
0.371492
0.367103
0.364537
0.364837
0.367979
0.372808
0.378817
0.385478
0.392273
0.398706
0.404371
0.409406
0.413336
0.369308
0.369002
0.369988
0.371383
0.37195
0.37097
0.368625
0.365684
0.362971
0.36115
0.36149
0.363927
0.367155
0.370469
0.37308
0.374243
0.373795
0.37251
0.371614
0.371942
0.344227
0.345253
0.34769
0.351084
0.354377
0.356724
0.357844
0.357864
0.357123
0.356371
0.356788
0.358275
0.359567
0.359967
0.359159
0.357054
0.353941
0.350623
0.348224
0.347228
0.329443
0.330911
0.33365
0.337136
0.340716
0.34406
0.34679
0.348556
0.349464
0.350215
0.3507
0.350823
0.350571
0.349302
0.346943
0.343864
0.340475
0.337108
0.334436
0.33299
0.321625
0.322939
0.325223
0.328116
0.331232
0.334305
0.336988
0.339021
0.340745
0.342677
0.343268
0.342407
0.341512
0.340063
0.337809
0.335041
0.332142
0.329397
0.327188
0.325891
0.317899
0.318778
0.320296
0.322332
0.324525
0.326674
0.328744
0.330801
0.333082
0.335344
0.336113
0.335164
0.333852
0.33249
0.330946
0.329194
0.327263
0.325387
0.323955
0.323098
0.315544
0.316112
0.317009
0.318175
0.319378
0.320553
0.322007
0.324043
0.326516
0.328398
0.329298
0.328957
0.327674
0.326588
0.325806
0.325097
0.32423
0.323282
0.322494
0.321944
0.3128
0.313228
0.313865
0.314631
0.31543
0.316285
0.317407
0.31902
0.320846
0.322058
0.32311
0.323826
0.323524
0.323071
0.32275
0.322439
0.322019
0.321517
0.321007
0.320597
0.309097
0.309416
0.310036
0.311002
0.312238
0.313583
0.314856
0.316132
0.317377
0.318422
0.319754
0.321105
0.321717
0.321732
0.321413
0.320813
0.320093
0.319447
0.318974
0.318679
0.304958
0.305138
0.305724
0.306957
0.308725
0.31064
0.312376
0.313982
0.315474
0.316989
0.318545
0.319822
0.320521
0.320592
0.320189
0.319268
0.318184
0.317341
0.316924
0.316772
0.301
0.301065
0.301533
0.302697
0.304349
0.306188
0.308233
0.310503
0.312716
0.314936
0.316798
0.317896
0.318364
0.318302
0.317944
0.31735
0.316544
0.315889
0.31564
0.315605
0.297199
0.297201
0.297545
0.298389
0.299562
0.300971
0.302878
0.305314
0.307977
0.310879
0.313367
0.314875
0.315659
0.31593
0.315978
0.315973
0.315731
0.315476
0.315385
0.315389
0.293209
0.293191
0.293473
0.29411
0.295044
0.29626
0.297954
0.300134
0.302793
0.306094
0.309355
0.311905
0.313678
0.314745
0.315243
0.315614
0.315806
0.315849
0.315847
0.315849
0.288745
0.288754
0.289019
0.289685
0.290731
0.292168
0.294038
0.296301
0.299181
0.30283
0.306783
0.310218
0.312806
0.31453
0.31559
0.316302
0.316691
0.316842
0.316879
0.31688
0.283589
0.283622
0.283899
0.284672
0.285996
0.287794
0.290105
0.293005
0.296679
0.301116
0.305873
0.30996
0.313004
0.315196
0.316724
0.317714
0.318236
0.318493
0.318597
0.318609
0.27764
0.27767
0.278014
0.278843
0.280221
0.282216
0.28494
0.288551
0.293188
0.298832
0.304835
0.309916
0.313664
0.316447
0.31843
0.319743
0.320557
0.321005
0.321173
0.321185
0.270235
0.270271
0.270647
0.271552
0.273065
0.275285
0.278378
0.282608
0.288207
0.29527
0.302964
0.309554
0.314491
0.318109
0.320717
0.322504
0.323666
0.324312
0.324551
0.324563
0.261238
0.261266
0.261677
0.262721
0.264518
0.267192
0.27096
0.276117
0.282953
0.291696
0.30136
0.309703
0.315987
0.320583
0.323881
0.326171
0.3277
0.328537
0.328828
0.328831
0.250209
0.250286
0.250839
0.252164
0.25446
0.25791
0.26273
0.269244
0.277839
0.288784
0.300744
0.31103
0.318695
0.324318
0.328312
0.331044
0.332823
0.333788
0.334141
0.33415
0.236687
0.236757
0.237463
0.239206
0.242225
0.24668
0.252856
0.261242
0.272254
0.286056
0.300864
0.313408
0.32265
0.329324
0.33404
0.337326
0.339456
0.340603
0.341013
0.341011
0.219766
0.219908
0.220869
0.223156
0.22705
0.232787
0.240838
0.251686
0.265759
0.283114
0.301384
0.316535
0.327598
0.335602
0.34128
0.345194
0.347704
0.349048
0.349525
0.34952
0.198567
0.198733
0.199999
0.203015
0.208208
0.215896
0.226494
0.240611
0.258611
0.280318
0.302548
0.320678
0.333838
0.34331
0.350084
0.35478
0.357781
0.359388
0.359942
0.359912
0.170701
0.171116
0.173121
0.177522
0.184824
0.195356
0.209694
0.228395
0.251435
0.278212
0.304774
0.326062
0.341505
0.352672
0.360662
0.366241
0.369822
0.371703
0.372328
0.372284
0.133952
0.13479
0.138014
0.144742
0.155553
0.170753
0.190698
0.215439
0.244531
0.276967
0.308162
0.332758
0.350614
0.36367
0.373121
0.379741
0.383994
0.386221
0.386909
0.386797
0.0849677
0.0863652
0.0922035
0.103466
0.120256
0.142596
0.170046
0.202162
0.23813
0.276643
0.312561
0.340664
0.361131
0.376155
0.387176
0.395036
0.400115
0.402694
0.40335
0.403137
0.0210528
0.0249845
0.0369729
0.0563975
0.0819734
0.113095
0.149091
0.189273
0.23253
0.277519
0.318887
0.35129
0.375047
0.392915
0.406343
0.416028
0.422297
0.425471
0.42629
0.426163
-0.0512472
-0.0412698
-0.0203691
0.00862624
0.0438144
0.0842191
0.128947
0.177136
0.22749
0.279032
0.326833
0.364423
0.391937
0.412902
0.429314
0.441656
0.44998
0.454557
0.456239
0.456605
-0.116711
-0.102286
-0.0746361
-0.0371131
0.00719346
0.0566824
0.109911
0.16562
0.222617
0.280715
0.334956
0.377388
0.408219
0.431621
0.450051
0.464438
0.474562
0.480384
0.482547
0.482905
-0.168139
-0.153161
-0.121661
-0.0778188
-0.0261906
0.0309679
0.0916222
0.154082
0.217529
0.282468
0.342664
0.388979
0.42277
0.448413
0.46839
0.48377
0.494529
0.500603
0.502934
0.503348
-0.211174
-0.195442
-0.161118
-0.112803
-0.0557327
0.0073889
0.0740859
0.142447
0.212105
0.283713
0.348973
0.39845
0.434919
0.462344
0.483044
0.498742
0.5097
0.515923
0.518419
0.518919
-0.248137
-0.231524
-0.194813
-0.143091
-0.0818913
-0.0141529
0.0573852
0.130888
0.206406
0.284287
0.354131
0.406675
0.44469
0.472962
0.494285
0.510205
0.521334
0.52784
0.530515
0.531079
-0.280757
-0.263397
-0.224503
-0.16983
-0.105319
-0.0339382
0.0415575
0.119674
0.200654
0.284069
0.357679
0.412581
0.451808
0.480699
0.50235
0.518668
0.530282
0.537086
0.53995
0.5405
-0.31015
-0.292236
-0.251413
-0.194054
-0.126673
-0.05223
0.0266457
0.108936
0.194793
0.282613
0.359342
0.416667
0.457437
0.48693
0.508989
0.525706
0.537561
0.544587
0.54734
0.547608
-0.33715
-0.318743
-0.276198
-0.216397
-0.146416
-0.0692612
0.0125768
0.0985253
0.188542
0.279991
0.3601
0.42026
0.46242
0.492892
0.515636
0.532508
0.54431
0.551223
0.553983
0.554189
-0.362434
-0.343558
-0.299432
-0.237337
-0.164939
-0.0853473
-0.000908504
0.0881513
0.181709
0.276653
0.360543
0.423554
0.467498
0.4992
0.52231
0.539163
0.550901
0.557795
0.560607
0.560862
-0.386365
-0.366978
-0.321454
-0.257303
-0.182702
-0.100909
-0.0141748
0.0775335
0.1742
0.272633
0.360703
0.426895
0.473025
0.505563
0.529059
0.546116
0.557805
0.564543
0.567295
0.567563
-0.409255
-0.389363
-0.342599
-0.276604
-0.200049
-0.116333
-0.0275885
0.0664544
0.165985
0.268056
0.360732
0.430365
0.478355
0.512027
0.536113
0.553334
0.564979
0.571641
0.574273
0.574525
-0.431241
-0.410858
-0.36309
-0.29555
-0.217312
-0.131914
-0.0413278
0.0549217
0.157172
0.262912
0.359807
0.433027
0.483513
0.518758
0.543367
0.560784
0.572467
0.578967
0.581478
0.581681
-0.452522
-0.431769
-0.383145
-0.314261
-0.234559
-0.147677
-0.0553614
0.0429959
0.14764
0.256374
0.356949
0.43453
0.488657
0.52565
0.551111
0.56865
0.580218
0.586506
0.588736
0.588862
-0.473234
-0.452178
-0.402813
-0.332746
-0.251754
-0.163551
-0.0696403
0.030633
0.137221
0.248441
0.35304
0.435311
0.493367
0.533159
0.559723
0.577266
0.588286
0.593994
0.595941
0.595957
-0.493516
-0.472185
-0.422079
-0.350887
-0.268714
-0.179344
-0.0840216
0.0179673
0.126222
0.239642
0.347449
0.434052
0.497266
0.541173
0.569681
0.587134
0.597094
0.601825
0.603096
0.60289
-0.513358
-0.491761
-0.440889
-0.368562
-0.285256
-0.194845
-0.0983416
0.00506655
0.114682
0.229619
0.340057
0.43164
0.499958
0.548865
0.581019
0.599352
0.607678
0.610068
0.609856
0.609325
-0.532737
-0.510889
-0.459184
-0.385668
-0.301255
-0.209966
-0.112567
-0.008038
0.102671
0.218932
0.332313
0.427378
0.500325
0.555431
0.593293
0.61478
0.621864
0.620326
0.616478
0.61535
-0.551544
-0.529492
-0.476918
-0.402165
-0.316677
-0.224683
-0.126623
-0.0212292
0.0904038
0.208239
0.323804
0.420986
0.498554
0.559752
0.605056
0.633147
0.642343
0.635947
0.624948
0.620362
-0.569731
-0.547491
-0.494014
-0.418023
-0.331539
-0.239026
-0.14051
-0.0344736
0.0780277
0.197353
0.314281
0.413488
0.494359
0.560953
0.61409
0.651711
0.66962
0.662457
0.637882
0.610441
-0.587191
-0.564796
-0.51045
-0.433367
-0.346118
-0.253309
-0.154523
-0.0479943
0.0652675
0.185668
0.303778
0.40453
0.487521
0.558521
0.618696
0.666457
0.696865
0.703176
0.705809
0.712403
-0.603883
-0.581412
-0.526309
-0.448388
-0.360716
-0.267881
-0.169003
-0.062206
0.051482
0.172816
0.291884
0.393115
0.477175
0.550691
0.615131
0.667997
0.700418
0.705061
0.679848
0.671002
-0.619782
-0.597358
-0.541597
-0.46301
-0.375242
-0.282697
-0.183902
-0.07703
0.0368811
0.158822
0.277995
0.378735
0.462126
0.534865
0.597387
0.644321
0.653711
0.623971
0.580126
0.564067
-0.634842
-0.612689
-0.556351
-0.47722
-0.389708
-0.297777
-0.199173
-0.0923574
0.0215133
0.143496
0.261997
0.361092
0.441524
0.507876
0.559261
0.579635
0.563383
0.506853
0.444208
0.430257
-0.648985
-0.627446
-0.570612
-0.491079
-0.404184
-0.313112
-0.214744
-0.108111
0.0053541
0.126767
0.243936
0.339961
0.413525
0.467547
0.496746
0.492422
0.448641
0.362116
0.284969
0.272777
-0.662603
-0.641849
-0.58483
-0.50526
-0.419199
-0.328955
-0.230789
-0.124505
-0.0117991
0.108475
0.223139
0.314267
0.378814
0.41592
0.415244
0.389627
0.294119
0.189053
0.103229
0.0933087
-0.676609
-0.656363
-0.59982
-0.520843
-0.435519
-0.345705
-0.247658
-0.141885
-0.0302144
0.0884336
0.20012
0.284257
0.336108
0.351575
0.325773
0.254777
0.127197
-0.000158191
-0.105495
-0.119736
-0.691576
-0.671486
-0.61594
-0.538087
-0.45326
-0.363394
-0.265385
-0.160296
-0.0499795
0.0663637
0.173992
0.250684
0.286988
0.276206
0.232447
0.109361
-0.0515105
-0.223001
-0.363074
-0.384632
-0.707691
-0.687613
-0.633163
-0.556584
-0.472082
-0.38188
-0.283878
-0.179688
-0.0711807
0.0423067
0.145039
0.21351
0.231064
0.190566
0.112515
-0.044678
-0.234254
-0.452013
-0.660326
-0.735006
-0.725117
-0.705052
-0.651511
-0.57602
-0.491729
-0.401154
-0.303214
-0.200094
-0.0937139
0.016304
0.113904
0.172865
0.169511
0.0969094
-0.0317583
-0.204346
-0.405531
-0.684305
-1.11754
-1.45565
-0.74395
-0.723864
-0.670958
-0.596226
-0.512046
-0.421148
-0.323293
-0.221352
-0.117497
-0.0116621
0.0800152
0.129175
0.106965
0.00603165
-0.183833
-0.381493
-0.564909
-0.828232
-1.36406
-2.20733
-0.764264
-0.744083
-0.691556
-0.617315
-0.533188
-0.442092
-0.344454
-0.243788
-0.142665
-0.0415223
0.0437808
0.0822666
0.0407523
-0.075951
-0.316733
-0.536446
-0.693207
-0.839624
-1.03544
-1.34275
-0.786019
-0.765685
-0.713459
-0.639684
-0.555671
-0.464541
-0.367299
-0.268024
-0.169975
-0.0745171
0.00437698
0.0319057
-0.0278883
-0.159882
-0.421974
-0.631514
-0.760395
-0.829635
-0.872803
-0.907079
-0.809198
-0.788723
-0.736736
-0.663385
-0.579599
-0.488672
-0.392052
-0.294261
-0.199487
-0.110309
-0.0389187
-0.0220465
-0.0941501
-0.241699
-0.497268
-0.684267
-0.784552
-0.815284
-0.845641
-0.851073
-0.833643
-0.813031
-0.761277
-0.688432
-0.605065
-0.514594
-0.418749
-0.322379
-0.230722
-0.148273
-0.0857162
-0.0790182
-0.155309
-0.322779
-0.55436
-0.710896
-0.786692
-0.806807
-0.813549
-0.813838
-0.859264
-0.838511
-0.786943
-0.714593
-0.631852
-0.542171
-0.447323
-0.352329
-0.263665
-0.187924
-0.136693
-0.140913
-0.212073
-0.400479
-0.596804
-0.719522
-0.768356
-0.793591
-0.790526
-0.787888
-0.885606
-0.864719
-0.81334
-0.741593
-0.659738
-0.571276
-0.477804
-0.384146
-0.297747
-0.227634
-0.188031
-0.204514
-0.274207
-0.462986
-0.630461
-0.729612
-0.754117
-0.767578
-0.769
-0.766689
-0.912234
-0.891309
-0.840095
-0.768931
-0.68817
-0.601414
-0.509811
-0.417465
-0.332554
-0.267232
-0.24065
-0.271334
-0.346598
-0.516362
-0.64915
-0.725724
-0.749257
-0.750367
-0.753027
-0.753418
-0.938326
-0.917554
-0.866618
-0.796029
-0.71648
-0.631986
-0.543159
-0.452542
-0.368173
-0.304568
-0.290798
-0.342226
-0.432242
-0.568248
-0.65289
-0.699375
-0.736154
-0.741025
-0.743859
-0.74552
-0.963068
-0.942716
-0.892293
-0.822237
-0.743863
-0.661969
-0.576971
-0.489042
-0.404134
-0.339719
-0.337295
-0.414232
-0.529525
-0.637422
-0.683151
-0.685322
-0.714032
-0.735834
-0.747729
-0.752776
-0.985347
-0.965842
-0.91644
-0.846919
-0.76933
-0.689939
-0.609746
-0.526677
-0.441665
-0.3726
-0.377559
-0.483674
-0.632414
-0.73912
-0.763228
-0.745973
-0.758319
-0.782955
-0.795546
-0.801154
-1.00385
-0.985569
-0.937903
-0.869397
-0.792257
-0.714617
-0.639616
-0.563614
-0.480746
-0.403453
-0.402302
-0.535618
-0.729111
-0.876031
-0.937532
-0.958136
-0.957022
-0.943102
-0.928558
-0.921042
-1.01758
-1.00096
-0.955859
-0.889099
-0.812105
-0.734297
-0.662896
-0.596178
-0.520315
-0.435108
-0.415553
-0.555447
-0.805
-1.03911
-1.18172
-1.2484
-1.25091
-1.21598
-1.16647
-1.13415
-1.02509
-1.01039
-0.968396
-0.904476
-0.828528
-0.749202
-0.677338
-0.618521
-0.557603
-0.469957
-0.412892
-0.52694
-0.810098
-1.13451
-1.37146
-1.45566
-1.46105
-1.43113
-1.37837
-1.33147
-1.02589
-1.01329
-0.974635
-0.914094
-0.840298
-0.759533
-0.682946
-0.624288
-0.579121
-0.507631
-0.408263
-0.448287
-0.67921
-1.01569
-1.3326
-1.45779
-1.46091
-1.41687
-1.36426
-1.31711
-1.01904
-1.00808
-0.972061
-0.914597
-0.844772
-0.765476
-0.682619
-0.614721
-0.571403
-0.525111
-0.409857
-0.342221
-0.431385
-0.640966
-0.898332
-0.997322
-0.958365
-0.874902
-0.794385
-0.752976
-1.00106
-0.991583
-0.959644
-0.905195
-0.839195
-0.764938
-0.679751
-0.596604
-0.538551
-0.49674
-0.392807
-0.23881
-0.127825
-0.0623575
-0.0624935
-0.0289319
0.0718563
0.177531
0.254875
0.296154
-0.968116
-0.96078
-0.936007
-0.887053
-0.823071
-0.752597
-0.672044
-0.577791
-0.496323
-0.433039
-0.328543
-0.130848
0.109212
0.396671
0.675198
0.91071
1.11398
1.27044
1.36644
1.40465
-0.92229
-0.918398
-0.903517
-0.863147
-0.801099
-0.729266
-0.652534
-0.557928
-0.454546
-0.36204
-0.241721
-0.0365322
0.24751
0.632555
1.06232
1.44317
1.72717
1.90994
2.00039
2.02544
-0.877562
-0.87758
-0.869071
-0.835665
-0.776971
-0.702067
-0.621567
-0.531392
-0.420258
-0.307982
-0.187185
-0.00177376
0.280963
0.61674
0.990871
1.33935
1.59363
1.74256
1.80994
1.82979
-0.837492
-0.838822
-0.831551
-0.802969
-0.747488
-0.672404
-0.589281
-0.503754
-0.402216
-0.290273
-0.191795
-0.0543174
0.182609
0.44094
0.695894
0.928303
1.0994
1.20297
1.25469
1.27418
-0.78852
-0.790228
-0.78531
-0.761425
-0.71062
-0.640332
-0.561256
-0.482981
-0.398773
-0.297141
-0.219942
-0.142494
0.0172929
0.217087
0.41454
0.575378
0.688929
0.768582
0.814085
0.829641
-0.724257
-0.726029
-0.723643
-0.705218
-0.662505
-0.603484
-0.53713
-0.470005
-0.402626
-0.31744
-0.251102
-0.219862
-0.140485
0.00157273
0.159437
0.282482
0.374389
0.440467
0.476886
0.488989
-0.643059
-0.644644
-0.643641
-0.630407
-0.598867
-0.556864
-0.50963
-0.456243
-0.40177
-0.336241
-0.272949
-0.260057
-0.230271
-0.124719
-0.000927162
0.0986609
0.178471
0.231729
0.255283
0.258465
-0.553787
-0.55504
-0.554795
-0.546551
-0.526583
-0.501241
-0.472509
-0.434622
-0.389904
-0.342334
-0.285412
-0.275155
-0.258982
-0.173418
-0.0766075
0.0046964
0.0609683
0.0942521
0.110063
0.113796
-0.472069
-0.472889
-0.473175
-0.469625
-0.460195
-0.447508
-0.431648
-0.408007
-0.371479
-0.335926
-0.289813
-0.280064
-0.260482
-0.19079
-0.116201
-0.0570392
-0.0254566
-0.00876008
-0.0017265
0.00157435
-0.411425
-0.411905
-0.412529
-0.412013
-0.409854
-0.405585
-0.396981
-0.38252
-0.353782
-0.323583
-0.285364
-0.271708
-0.258067
-0.204709
-0.150636
-0.116848
-0.0994864
-0.0888969
-0.0846749
-0.0824889
-0.375254
-0.37552
-0.376228
-0.37692
-0.377583
-0.376958
-0.371273
-0.360274
-0.340352
-0.312818
-0.275437
-0.258965
-0.257961
-0.221565
-0.184689
-0.168013
-0.157896
-0.147344
-0.143055
-0.143377
-0.359558
-0.359603
-0.35988
-0.360834
-0.361763
-0.360892
-0.355691
-0.345095
-0.331231
-0.307499
-0.271688
-0.26213
-0.262098
-0.238045
-0.210563
-0.205252
-0.201683
-0.197549
-0.196386
-0.198782
-0.360429
-0.360308
-0.360284
-0.360756
-0.360927
-0.359521
-0.354747
-0.344547
-0.330432
-0.311611
-0.281124
-0.273177
-0.265163
-0.254737
-0.237912
-0.236235
-0.236068
-0.239205
-0.242864
-0.243887
-0.375132
-0.374802
-0.374542
-0.374972
-0.37536
-0.374402
-0.371125
-0.363819
-0.352495
-0.329595
-0.303289
-0.298992
-0.28031
-0.280948
-0.2675
-0.25772
-0.250637
-0.247098
-0.250498
-0.250287
-0.402475
-0.402037
-0.401556
-0.401764
-0.402591
-0.402839
-0.402189
-0.400068
-0.395511
-0.376639
-0.358714
-0.349075
-0.32955
-0.322183
-0.294775
-0.268685
-0.243608
-0.219951
-0.215951
-0.219806
-0.436669
-0.436486
-0.436668
-0.43738
-0.438968
-0.441635
-0.44625
-0.454405
-0.461905
-0.458391
-0.445575
-0.417195
-0.392053
-0.364148
-0.327259
-0.29446
-0.262845
-0.234529
-0.223238
-0.228064
-0.473448
-0.473517
-0.474219
-0.476062
-0.479818
-0.487066
-0.500765
-0.524453
-0.547797
-0.574301
-0.570173
-0.513807
-0.457302
-0.413465
-0.376614
-0.344021
-0.309325
-0.296184
-0.286938
-0.288583
-0.505828
-0.506397
-0.508073
-0.511592
-0.518643
-0.532531
-0.559052
-0.603923
-0.659675
-0.730013
-0.732229
-0.653781
-0.561932
-0.497475
-0.446561
-0.402118
-0.356129
-0.347566
-0.351196
-0.352387
-0.523531
-0.524842
-0.528049
-0.533608
-0.544267
-0.565415
-0.605871
-0.674967
-0.780635
-0.896341
-0.907986
-0.809242
-0.698427
-0.610489
-0.525203
-0.469538
-0.448217
-0.427443
-0.43197
-0.432076
-0.516972
-0.518294
-0.521647
-0.529458
-0.54405
-0.570639
-0.620793
-0.70766
-0.845423
-1.00666
-1.05056
-0.923146
-0.791345
-0.675198
-0.590566
-0.534863
-0.523858
-0.519851
-0.517866
-0.51588
-0.483
-0.484733
-0.487796
-0.494319
-0.509214
-0.537835
-0.590666
-0.682721
-0.827837
-1.00093
-1.0541
-0.931397
-0.784862
-0.668238
-0.606129
-0.579945
-0.554003
-0.561611
-0.558441
-0.556558
-0.420635
-0.422236
-0.425301
-0.43097
-0.44334
-0.468321
-0.514812
-0.596538
-0.723885
-0.872629
-0.914278
-0.807289
-0.669143
-0.607837
-0.579211
-0.55957
-0.560498
-0.559039
-0.553771
-0.550954
-0.338677
-0.339777
-0.341846
-0.345947
-0.354665
-0.372915
-0.407481
-0.46868
-0.562805
-0.66871
-0.69423
-0.602997
-0.515057
-0.502091
-0.496418
-0.490006
-0.502958
-0.500909
-0.49742
-0.495717
-0.250036
-0.250622
-0.251587
-0.253496
-0.258244
-0.26909
-0.290306
-0.328714
-0.387493
-0.455367
-0.466888
-0.384219
-0.368573
-0.378272
-0.381965
-0.403407
-0.411775
-0.409146
-0.40814
-0.407582
-0.167802
-0.167939
-0.168078
-0.168269
-0.169735
-0.174267
-0.183791
-0.202002
-0.229063
-0.266601
-0.258465
-0.228112
-0.254296
-0.267997
-0.288462
-0.30877
-0.3108
-0.311006
-0.312223
-0.311872
-0.0999671
-0.099752
-0.0994177
-0.0986636
-0.0981973
-0.0987412
-0.100453
-0.104697
-0.107933
-0.109421
-0.111285
-0.133515
-0.154868
-0.182817
-0.20563
-0.217946
-0.218344
-0.220923
-0.221236
-0.221146
-0.0512997
-0.0509736
-0.0505726
-0.0496392
-0.0485604
-0.0474233
-0.045544
-0.043019
-0.0365938
-0.0189764
-0.0302071
-0.0655837
-0.0882185
-0.113689
-0.130262
-0.137378
-0.139817
-0.141006
-0.141384
-0.14158
-0.0200652
-0.0197204
-0.0194545
-0.0189364
-0.0181311
-0.0171756
-0.0152011
-0.0122068
-0.00698348
0.00608535
0.00264199
-0.0250567
-0.0428338
-0.0568317
-0.0692391
-0.0735271
-0.0752843
-0.0751586
-0.0752817
-0.0754796
-0.00379478
-0.00357078
-0.00349375
-0.00361961
-0.00336725
-0.00307087
-0.00214114
-0.000497853
0.00177545
0.00657451
0.00464639
-0.00680043
-0.0133297
-0.0177829
-0.0219394
-0.0206031
-0.0206923
-0.0212812
-0.0217052
-0.0219775
-0.955281
-0.467625
-0.17482
0.0474097
0.228817
0.379955
0.505286
0.612504
0.696014
0.72686
-0.24801
-0.0196295
0.106098
0.2361
0.362736
0.470296
0.55063
0.597033
0.598066
0.597818
0.04465
0.186018
0.28875
0.380323
0.462508
0.530973
0.580363
0.606336
0.614658
0.649563
0.245821
0.340534
0.421831
0.489416
0.544988
0.58979
0.624303
0.650682
0.672244
0.703535
0.405989
0.467086
0.527839
0.577443
0.617854
0.651075
0.679336
0.705029
0.730306
0.754966
0.534802
0.576992
0.62014
0.657253
0.688671
0.715832
0.74054
0.76425
0.787178
0.80596
0.644169
0.673174
0.70476
0.733207
0.758633
0.781863
0.803727
0.824495
0.843922
0.859932
0.73962
0.759888
0.784413
0.807829
0.829329
0.849223
0.867964
0.885852
0.902672
0.916365
0.826103
0.843839
0.863862
0.882669
0.900311
0.917092
0.933256
0.948731
0.963331
0.975626
0.910545
0.924302
0.941228
0.957509
0.972795
0.987179
1.00085
1.01403
1.02667
1.03718
0.997982
1.00659
1.01971
1.0338
1.04723
1.05964
1.0712
1.08206
1.09244
1.10153
1.0864
1.09201
1.10189
1.11369
1.12524
1.13564
1.14484
1.15323
1.16128
1.1684
1.17831
1.18182
1.18869
1.19686
1.20507
1.2129
1.22014
1.22665
1.23283
1.23867
1.27429
1.27455
1.27637
1.27921
1.28289
1.2876
1.29345
1.30022
1.30715
1.31318
1.37622
1.36746
1.35802
1.35084
1.34753
1.34905
1.35572
1.36692
1.38117
1.39461
1.48283
1.44578
1.41495
1.39597
1.38704
1.38664
1.39478
1.41393
1.44534
1.48417
)
;

boundaryField
{
    wall-4
    {
        type            zeroGradient;
    }
    pressure-outlet-7
    {
        type            fixedValue;
        value           uniform 0;
    }
    velocity-inlet-6
    {
        type            zeroGradient;
    }
    velocity-inlet-5
    {
        type            zeroGradient;
    }
    frontAndBackPlanes
    {
        type            empty;
    }
}


// ************************************************************************* //
