/*--------------------------------*- C++ -*----------------------------------*\
  =========                 |
  \\      /  F ield         | OpenFOAM: The Open Source CFD Toolbox
   \\    /   O peration     | Website:  https://openfoam.org
    \\  /    A nd           | Version:  6
     \\/     M anipulation  |
\*---------------------------------------------------------------------------*/
FoamFile
{
    version     2.0;
    format      ascii;
    class       volVectorField;
    location    "26";
    object      U;
}
// * * * * * * * * * * * * * * * * * * * * * * * * * * * * * * * * * * * * * //

dimensions      [0 1 -1 0 0 0 0];

internalField   nonuniform List<vector> 
2200
(
(0.877649 -0.0201768 0)
(1.00474 -0.0399657 0)
(1.00268 -0.0342002 0)
(1.00006 -0.023043 0)
(0.999673 -0.0154195 0)
(0.999909 -0.0102017 0)
(1.00009 -0.00652536 0)
(1.00018 -0.00397661 0)
(1.00023 -0.0021051 0)
(1.00012 -0.000579027 0)
(1.00012 0.000833648 0)
(1.00024 0.00236431 0)
(1.00019 0.0041744 0)
(1.00005 0.00666666 0)
(0.999856 0.0103741 0)
(0.999636 0.0154899 0)
(1.00007 0.0231221 0)
(1.00277 0.0342664 0)
(1.00475 0.0399878 0)
(0.877661 0.0201989 0)
(0.700977 -0.0265869 0)
(0.993725 -0.058595 0)
(1.03013 -0.0597187 0)
(1.022 -0.048879 0)
(1.01377 -0.0360147 0)
(1.00817 -0.0246708 0)
(1.00488 -0.016351 0)
(1.00302 -0.0105837 0)
(1.00193 -0.0060986 0)
(1.00166 -0.00188944 0)
(1.00157 0.00251887 0)
(1.00177 0.00666841 0)
(1.00285 0.0112002 0)
(1.00484 0.016882 0)
(1.00812 0.0250989 0)
(1.01371 0.0364604 0)
(1.02191 0.0492235 0)
(1.02989 0.0599308 0)
(0.993566 0.0587484 0)
(0.700715 0.026623 0)
(0.530459 -0.0213311 0)
(0.966409 -0.0552731 0)
(1.05272 -0.0607411 0)
(1.04871 -0.053662 0)
(1.03273 -0.0419864 0)
(1.02135 -0.0318975 0)
(1.01363 -0.0230527 0)
(1.00894 -0.0153153 0)
(1.00624 -0.00863333 0)
(1.00515 -0.00254932 0)
(1.00515 0.00364615 0)
(1.00635 0.00973818 0)
(1.00886 0.0163052 0)
(1.01336 0.0240675 0)
(1.02101 0.0327294 0)
(1.03238 0.0426589 0)
(1.04837 0.0541541 0)
(1.05247 0.0610271 0)
(0.965828 0.0555091 0)
(0.529653 0.0213973 0)
(0.393808 -0.0132894 0)
(0.910366 -0.0450122 0)
(1.05607 -0.0509352 0)
(1.06633 -0.0465989 0)
(1.05104 -0.038703 0)
(1.03562 -0.0315957 0)
(1.02451 -0.0246883 0)
(1.01685 -0.0174138 0)
(1.01224 -0.0103967 0)
(1.01016 -0.00300232 0)
(1.01003 0.0049054 0)
(1.01179 0.0121643 0)
(1.01635 0.0189955 0)
(1.02397 0.0259121 0)
(1.03505 0.0326877 0)
(1.05035 0.0396103 0)
(1.06553 0.0473233 0)
(1.05497 0.051504 0)
(0.908965 0.0452977 0)
(0.392182 0.0134006 0)
(0.310356 -0.00611078 0)
(0.847267 -0.0330214 0)
(1.04831 -0.042542 0)
(1.07694 -0.0388809 0)
(1.06497 -0.0328434 0)
(1.04872 -0.0270031 0)
(1.0357 -0.021615 0)
(1.02585 -0.016243 0)
(1.01946 -0.0104088 0)
(1.01534 -0.00313104 0)
(1.0151 0.00522028 0)
(1.01889 0.0124367 0)
(1.02513 0.0181484 0)
(1.0349 0.0234523 0)
(1.04775 0.0285193 0)
(1.06389 0.0341283 0)
(1.07579 0.0399171 0)
(1.04671 0.0432821 0)
(0.844777 0.0334322 0)
(0.307857 0.00623006 0)
(0.266781 -0.00173946 0)
(0.790056 -0.0217758 0)
(1.03293 -0.0337077 0)
(1.08204 -0.0318791 0)
(1.07498 -0.0269273 0)
(1.05839 -0.021902 0)
(1.04552 -0.0184265 0)
(1.03592 -0.0144082 0)
(1.02904 -0.00880643 0)
(1.02352 -0.00200086 0)
(1.02337 0.00505612 0)
(1.02847 0.0117274 0)
(1.03492 0.0170714 0)
(1.04412 0.0206667 0)
(1.05682 0.023877 0)
(1.07352 0.0286953 0)
(1.08021 0.03324 0)
(1.03024 0.034684 0)
(0.786006 0.0222293 0)
(0.263371 0.00187766 0)
(0.24264 -0.000312469 0)
(0.740359 -0.0135859 0)
(1.0137 -0.0260875 0)
(1.08302 -0.0257491 0)
(1.08159 -0.0221162 0)
(1.06618 -0.0181788 0)
(1.05325 -0.0159491 0)
(1.04359 -0.0129118 0)
(1.03583 -0.00719659 0)
(1.03034 -0.000704902 0)
(1.02977 0.0047702 0)
(1.03447 0.0109905 0)
(1.04175 0.0162474 0)
(1.05139 0.0189407 0)
(1.06431 0.0207866 0)
(1.07916 0.0241232 0)
(1.08003 0.0273966 0)
(1.00947 0.0271495 0)
(0.734466 0.0141181 0)
(0.238228 0.000501213 0)
(0.22838 2.26104e-05 0)
(0.699196 -0.00901004 0)
(0.993429 -0.0208628 0)
(1.08128 -0.0218568 0)
(1.08601 -0.0191264 0)
(1.07298 -0.0159902 0)
(1.06024 -0.0135371 0)
(1.05011 -0.0101577 0)
(1.04137 -0.00475442 0)
(1.03662 0.00056841 0)
(1.03606 0.00462133 0)
(1.03999 0.0096228 0)
(1.04826 0.0144085 0)
(1.05768 0.0172141 0)
(1.06986 0.0191091 0)
(1.08269 0.0217725 0)
(1.07738 0.0238535 0)
(0.987769 0.0222192 0)
(0.691276 0.00971163 0)
(0.222789 0.000203072 0)
(0.21907 0.000326675 0)
(0.665423 -0.00629484 0)
(0.974252 -0.0179599 0)
(1.07819 -0.0199322 0)
(1.0886 -0.0177647 0)
(1.07736 -0.0147558 0)
(1.06522 -0.0116467 0)
(1.05556 -0.00769422 0)
(1.04788 -0.00292579 0)
(1.04414 0.00136885 0)
(1.04353 0.00505489 0)
(1.04597 0.00888034 0)
(1.05268 0.0131867 0)
(1.06158 0.0163449 0)
(1.07351 0.0187975 0)
(1.08418 0.0212108 0)
(1.07251 0.0226804 0)
(0.965677 0.0197768 0)
(0.654274 0.00720714 0)
(0.211844 -4.57351e-05 0)
(0.212132 0.000543929 0)
(0.637289 -0.00388253 0)
(0.955741 -0.0153631 0)
(1.07459 -0.0181949 0)
(1.09015 -0.0161221 0)
(1.07946 -0.0130573 0)
(1.06717 -0.00989456 0)
(1.05757 -0.00602763 0)
(1.05064 -0.00197123 0)
(1.04682 0.00184561 0)
(1.04588 0.00600836 0)
(1.048 0.00947402 0)
(1.05352 0.0127817 0)
(1.06256 0.0159 0)
(1.07465 0.0179912 0)
(1.08426 0.0199734 0)
(1.06709 0.0211976 0)
(0.944866 0.0174686 0)
(0.623246 0.00489883 0)
(0.203159 -0.000197946 0)
(0.207674 0.000557894 0)
(0.617031 -0.00143441 0)
(0.940323 -0.0113062 0)
(1.07168 -0.0140515 0)
(1.09194 -0.012076 0)
(1.08186 -0.00992999 0)
(1.06877 -0.0080454 0)
(1.05873 -0.00456756 0)
(1.05161 -0.000950292 0)
(1.04697 0.00287819 0)
(1.0458 0.00719042 0)
(1.04852 0.0103901 0)
(1.05432 0.0129785 0)
(1.0633 0.0151934 0)
(1.07513 0.0160869 0)
(1.08418 0.0172681 0)
(1.06148 0.0181673 0)
(0.925156 0.0139391 0)
(0.598534 0.0027853 0)
(0.196165 -9.12122e-05 0)
(0.205668 0.000413446 0)
(0.604298 0.000200828 0)
(0.927318 -0.00684447 0)
(1.06919 -0.0092028 0)
(1.0946 -0.00748604 0)
(1.08566 -0.0061707 0)
(1.07213 -0.0048671 0)
(1.06116 -0.00207893 0)
(1.05334 0.000821321 0)
(1.04818 0.00433746 0)
(1.0469 0.00827442 0)
(1.04979 0.0109602 0)
(1.05583 0.0126377 0)
(1.0653 0.0139037 0)
(1.0778 0.0141228 0)
(1.08467 0.0140765 0)
(1.05591 0.014105 0)
(0.908212 0.00989704 0)
(0.581723 0.0015355 0)
(0.19127 0.000137916 0)
(0.205754 0.000318652 0)
(0.59901 0.000988332 0)
(0.918578 -0.00298844 0)
(1.06735 -0.00500727 0)
(1.0974 -0.00388324 0)
(1.08991 -0.0028044 0)
(1.07675 -0.00130712 0)
(1.06585 0.000980508 0)
(1.05759 0.00314563 0)
(1.05148 0.00586816 0)
(1.04963 0.00894005 0)
(1.05237 0.0109044 0)
(1.05818 0.0118716 0)
(1.06701 0.0128131 0)
(1.07874 0.0126546 0)
(1.08422 0.0122629 0)
(1.04983 0.0113849 0)
(0.893318 0.00722124 0)
(0.569948 0.00128099 0)
(0.187525 0.00030672 0)
(0.207041 0.000317508 0)
(0.59852 0.00134002 0)
(0.912428 -0.000790791 0)
(1.06546 -0.00245802 0)
(1.09955 -0.00170638 0)
(1.09317 -0.000336994 0)
(1.08038 0.00168872 0)
(1.07018 0.00387069 0)
(1.06219 0.00588266 0)
(1.05602 0.00833998 0)
(1.05341 0.0106927 0)
(1.05459 0.0120534 0)
(1.05907 0.0126251 0)
(1.06686 0.0129452 0)
(1.07828 0.0124643 0)
(1.08207 0.0114808 0)
(1.04221 0.0098753 0)
(0.880279 0.00587325 0)
(0.561191 0.00149859 0)
(0.184208 0.000391713 0)
(0.209458 0.000514213 0)
(0.599568 0.00155593 0)
(0.909792 0.0010842 0)
(1.06438 0.000198224 0)
(1.1007 0.000851248 0)
(1.09509 0.00196507 0)
(1.08237 0.00399268 0)
(1.07237 0.00594296 0)
(1.06438 0.00813971 0)
(1.05839 0.0107857 0)
(1.05524 0.0129502 0)
(1.05546 0.0141257 0)
(1.05896 0.0141375 0)
(1.06615 0.0136213 0)
(1.07695 0.0126825 0)
(1.07904 0.0115031 0)
(1.03546 0.00940295 0)
(0.869628 0.00545043 0)
(0.553232 0.00172085 0)
(0.180609 0.000442509 0)
(0.212382 0.000730068 0)
(0.602681 0.00218403 0)
(0.910409 0.00287538 0)
(1.06438 0.00257293 0)
(1.10216 0.00361865 0)
(1.09683 0.00504513 0)
(1.08408 0.0069672 0)
(1.07343 0.00894529 0)
(1.06476 0.0113172 0)
(1.05829 0.0139445 0)
(1.05442 0.0159212 0)
(1.0541 0.0167483 0)
(1.05739 0.016286 0)
(1.06427 0.0151671 0)
(1.07394 0.0137225 0)
(1.07405 0.0117556 0)
(1.02699 0.00886352 0)
(0.85856 0.00504431 0)
(0.545257 0.00191523 0)
(0.176834 0.000542432 0)
(0.218046 0.000958361 0)
(0.610702 0.00316711 0)
(0.914003 0.00466775 0)
(1.06645 0.00579308 0)
(1.10424 0.00703017 0)
(1.09952 0.00836853 0)
(1.08709 0.0104345 0)
(1.07596 0.0126866 0)
(1.06667 0.0150748 0)
(1.05917 0.0175019 0)
(1.05415 0.0191884 0)
(1.05273 0.0196774 0)
(1.05549 0.0187486 0)
(1.0618 0.0170316 0)
(1.07038 0.0150623 0)
(1.0696 0.0125739 0)
(1.0202 0.00929053 0)
(0.849714 0.005491 0)
(0.537623 0.00233296 0)
(0.172755 0.000677184 0)
(0.22343 0.00108746 0)
(0.617831 0.00350082 0)
(0.918669 0.00582291 0)
(1.06942 0.00730116 0)
(1.10782 0.00905129 0)
(1.10354 0.0114082 0)
(1.09149 0.0139473 0)
(1.08033 0.0167624 0)
(1.07063 0.0196332 0)
(1.0621 0.0223089 0)
(1.05553 0.023898 0)
(1.05252 0.0241171 0)
(1.0537 0.0229637 0)
(1.05896 0.0207926 0)
(1.06589 0.018174 0)
(1.06297 0.0147023 0)
(1.0098 0.0105554 0)
(0.837005 0.0061829 0)
(0.527565 0.00292672 0)
(0.167671 0.000863031 0)
(0.232113 0.00140009 0)
(0.631765 0.00468711 0)
(0.928239 0.00798769 0)
(1.07439 0.010349 0)
(1.11192 0.0122992 0)
(1.10825 0.0144747 0)
(1.09643 0.0175158 0)
(1.08501 0.0211267 0)
(1.07458 0.0248787 0)
(1.06469 0.0281072 0)
(1.05623 0.0299656 0)
(1.05166 0.0300206 0)
(1.05121 0.0284207 0)
(1.05515 0.0252749 0)
(1.06034 0.0220161 0)
(1.05574 0.0175523 0)
(1.00061 0.01261 0)
(0.826932 0.00777408 0)
(0.517576 0.00376694 0)
(0.161776 0.00106543 0)
(0.24083 0.00172637 0)
(0.644545 0.00532956 0)
(0.937926 0.00950936 0)
(1.08027 0.01268 0)
(1.11677 0.0153326 0)
(1.11337 0.0187829 0)
(1.10163 0.0227946 0)
(1.08976 0.027195 0)
(1.07825 0.0317202 0)
(1.06659 0.0355352 0)
(1.05631 0.0375301 0)
(1.04992 0.0370094 0)
(1.04773 0.0348374 0)
(1.04998 0.0310088 0)
(1.05316 0.0267002 0)
(1.04547 0.0212694 0)
(0.98609 0.0151801 0)
(0.80936 0.00915751 0)
(0.502076 0.00455314 0)
(0.153664 0.00129717 0)
(0.253961 0.00235355 0)
(0.664416 0.00756902 0)
(0.952718 0.0128535 0)
(1.0885 0.0173506 0)
(1.12286 0.020987 0)
(1.12005 0.0249736 0)
(1.10842 0.0295009 0)
(1.09581 0.0348845 0)
(1.08251 0.040284 0)
(1.06831 0.0445645 0)
(1.05527 0.0464388 0)
(1.04659 0.0453787 0)
(1.04267 0.0420385 0)
(1.04301 0.0370639 0)
(1.04414 0.0311808 0)
(1.03387 0.0242998 0)
(0.972905 0.0172444 0)
(0.796131 0.0109645 0)
(0.488004 0.00550671 0)
(0.145138 0.00152519 0)
(0.269726 0.00288895 0)
(0.688447 0.00890613 0)
(0.971545 0.016379 0)
(1.1004 0.0225381 0)
(1.13196 0.0276916 0)
(1.12894 0.033157 0)
(1.11684 0.0394392 0)
(1.10301 0.046005 0)
(1.08751 0.0521299 0)
(1.07054 0.056445 0)
(1.0546 0.0576993 0)
(1.04339 0.0550784 0)
(1.03697 0.0500373 0)
(1.03473 0.0437028 0)
(1.03327 0.0366377 0)
(1.01967 0.029084 0)
(0.953918 0.0208969 0)
(0.772029 0.0130124 0)
(0.465271 0.00648239 0)
(0.133497 0.00180967 0)
(0.291271 0.0041919 0)
(0.72002 0.0129681 0)
(0.996172 0.0219529 0)
(1.11587 0.0303763 0)
(1.14344 0.0370047 0)
(1.14001 0.0446274 0)
(1.12702 0.0522466 0)
(1.11125 0.0599241 0)
(1.09289 0.0666783 0)
(1.07205 0.0707519 0)
(1.05219 0.0706601 0)
(1.03778 0.0663567 0)
(1.02933 0.0596422 0)
(1.02483 0.0516209 0)
(1.02054 0.0426265 0)
(1.004 0.033201 0)
(0.936013 0.0239121 0)
(0.753649 0.0155795 0)
(0.445656 0.00790968 0)
(0.121943 0.00212554 0)
(0.321678 0.00527512 0)
(0.763012 0.0155463 0)
(1.0285 0.0283053 0)
(1.13739 0.0395086 0)
(1.16026 0.0494093 0)
(1.15424 0.0595623 0)
(1.13875 0.0692718 0)
(1.11962 0.0785087 0)
(1.09719 0.0855876 0)
(1.07218 0.0887464 0)
(1.04897 0.086687 0)
(1.03161 0.079824 0)
(1.01979 0.0704367 0)
(1.01242 0.0604959 0)
(1.00578 0.0503623 0)
(0.985864 0.0399935 0)
(0.911916 0.0292508 0)
(0.72051 0.0186379 0)
(0.412411 0.00904301 0)
(0.105748 0.0024349 0)
(0.357738 0.00893311 0)
(0.814902 0.0246023 0)
(1.06929 0.0401032 0)
(1.16479 0.0552867 0)
(1.18049 0.0667487 0)
(1.17121 0.0803403 0)
(1.15139 0.0922601 0)
(1.12766 0.102428 0)
(1.10037 0.108883 0)
(1.07076 0.110066 0)
(1.04288 0.104884 0)
(1.02196 0.0951738 0)
(1.00843 0.0837495 0)
(0.998692 0.0715122 0)
(0.988844 0.0591147 0)
(0.965165 0.0466308 0)
(0.886447 0.0340738 0)
(0.693234 0.0221774 0)
(0.38593 0.0111945 0)
(0.0913956 0.00283745 0)
(0.438899 0.014091 0)
(0.894239 0.0339564 0)
(1.12358 0.056322 0)
(1.19886 0.0757828 0)
(1.20732 0.0922082 1.67158e-34)
(1.19015 0.109985 -8.86618e-35)
(1.16416 0.123277 0)
(1.13471 0.132923 0)
(1.1019 0.137401 0)
(1.06719 0.135147 0)
(1.03576 0.126247 0)
(1.01196 0.11318 0)
(0.994344 0.0988464 0)
(0.981713 0.0847116 0)
(0.969476 0.0706553 0)
(0.941425 0.0564768 0)
(0.854271 0.0417726 0)
(0.646285 0.0266463 0)
(0.335846 0.0117863 0)
(0.0692836 0.0026402 0)
(0.502014 0.0285913 2.95931e-21)
(0.984658 0.0554719 -2.7194e-21)
(1.18213 0.0847777 0)
(1.23554 0.108635 5.39196e-21)
(1.234 0.13091 -4.36837e-21)
(1.20775 0.150124 9.35426e-35)
(1.17515 0.163122 0)
(1.13932 0.171135 6.83244e-21)
(1.10079 0.172724 -2.37685e-20)
(1.06106 0.166556 5.10055e-21)
(1.0248 0.15357 0)
(0.995997 0.136992 -1.53677e-20)
(0.976303 0.120171 -1.89545e-20)
(0.960647 0.10331 3.32771e-20)
(0.943423 0.0870669 -2.6614e-20)
(0.90764 0.0698907 0)
(0.807438 0.0513734 -1.00076e-20)
(0.58547 0.0329682 0)
(0.285758 0.0162409 -5.43408e-20)
(0.0519943 0.00316268 6.42695e-20)
(0.532489 0.0540193 -1.05822e-21)
(1.03958 0.0926043 -1.53572e-20)
(1.22736 0.12737 7.65462e-21)
(1.26831 0.153814 2.50714e-21)
(1.25733 0.178824 -8.53204e-21)
(1.22268 0.19805 1.45925e-20)
(1.18323 0.210042 0)
(1.14091 0.215884 0)
(1.09675 0.213888 3.75904e-20)
(1.0515 0.203816 0)
(1.00865 0.187154 5.37199e-20)
(0.975309 0.168476 1.64877e-20)
(0.95025 0.14986 3.12771e-22)
(0.930012 0.132424 -3.70394e-20)
(0.90908 0.113826 0)
(0.869142 0.0936362 0)
(0.766298 0.070684 -1.67312e-19)
(0.552664 0.050778 4.18937e-19)
(0.273302 0.0240837 -2.48926e-19)
(0.049867 0.00609571 -2.94893e-19)
(0.53805 0.0737747 4.99498e-20)
(1.06884 0.140051 -1.37768e-20)
(1.26049 0.182404 -2.70693e-21)
(1.29449 0.209734 -7.57789e-21)
(1.27566 0.234857 1.37168e-20)
(1.23372 0.252403 -3.43399e-20)
(1.18785 0.261543 1.52473e-20)
(1.13988 0.263587 0)
(1.09093 0.257215 -7.86681e-20)
(1.04064 0.243883 8.06299e-20)
(0.992601 0.225364 -1.46322e-19)
(0.954717 0.203379 7.05327e-20)
(0.926643 0.182334 -4.99443e-20)
(0.904103 0.164364 1.10292e-19)
(0.880515 0.146943 0)
(0.838766 0.124542 -4.2455e-20)
(0.738916 0.0991407 0)
(0.540542 0.069714 2.38167e-19)
(0.275392 0.0399353 -5.66088e-19)
(0.0583157 0.0103467 3.55117e-19)
(0.534831 0.104748 -2.64112e-19)
(1.08926 0.192576 1.04144e-19)
(1.28287 0.242646 1.70009e-20)
(1.31236 0.272101 0)
(1.28761 0.296469 1.20445e-22)
(1.24008 0.310987 2.27859e-21)
(1.18922 0.315909 -1.66902e-20)
(1.13684 0.313006 0)
(1.08317 0.302155 5.56907e-20)
(1.02634 0.285703 -5.57996e-20)
(0.97119 0.264098 1.28531e-19)
(0.92874 0.238391 0)
(0.896883 0.215699 -1.05717e-19)
(0.870775 0.197427 5.85606e-20)
(0.845875 0.180302 1.55823e-19)
(0.806753 0.159929 -1.3716e-19)
(0.714498 0.130683 2.24261e-19)
(0.532419 0.0938836 -4.97114e-19)
(0.285801 0.0563894 3.15221e-19)
(0.0694429 0.0157132 -3.95184e-19)
(0.521357 0.132065 1.73609e-19)
(1.09456 0.2434 -1.28172e-19)
(1.29475 0.303438 5.31638e-20)
(1.32205 0.335981 -6.74733e-20)
(1.29306 0.359677 4.09634e-20)
(1.24164 0.371147 -3.55608e-21)
(1.18731 0.371452 3.69983e-21)
(1.13153 0.36344 -4.6877e-20)
(1.07346 0.348656 -5.66522e-20)
(1.0111 0.329457 -1.20416e-19)
(0.953321 0.304319 -2.77315e-19)
(0.910102 0.276469 -9.08532e-20)
(0.875758 0.252833 2.5457e-21)
(0.848884 0.233519 -2.08653e-19)
(0.822332 0.21538 -6.29117e-21)
(0.782151 0.191881 2.01427e-19)
(0.696288 0.160922 -6.21396e-20)
(0.529569 0.119862 -3.61395e-20)
(0.297414 0.0739153 0)
(0.0788863 0.0218753 8.47418e-19)
(0.505087 0.156517 0)
(1.09119 0.292333 4.16734e-20)
(1.29934 0.363341 2.88148e-20)
(1.32518 0.399483 -1.21447e-20)
(1.29302 0.422745 -5.40706e-20)
(1.23894 0.430996 1.08551e-21)
(1.18235 0.426673 1.51482e-20)
(1.124 0.413781 8.04527e-20)
(1.06187 0.39551 -3.32347e-20)
(0.993988 0.372659 5.46806e-20)
(0.932348 0.342346 1.49571e-19)
(0.88416 0.311497 2.00346e-19)
(0.846517 0.286724 -1.23972e-19)
(0.815734 0.264779 2.26618e-19)
(0.792257 0.246699 -1.81294e-19)
(0.759505 0.225844 0)
(0.682048 0.191456 -4.74838e-19)
(0.527543 0.146237 6.38554e-19)
(0.30579 0.0914587 4.81171e-20)
(0.0854018 0.028163 -8.98875e-19)
(0.489216 0.179088 -6.85598e-21)
(1.08252 0.339223 -2.90871e-19)
(1.29812 0.420647 -2.18034e-19)
(1.32341 0.46056 1.76136e-19)
(1.28872 0.483657 -2.81787e-20)
(1.23274 0.489168 9.16685e-21)
(1.17465 0.48063 1.90347e-20)
(1.11396 0.463635 -1.50908e-20)
(1.04777 0.442657 -1.22557e-19)
(0.975488 0.416561 4.16351e-22)
(0.912445 0.382779 -1.6317e-19)
(0.863827 0.349008 -2.14203e-19)
(0.828485 0.321889 1.38616e-19)
(0.80284 0.301276 -8.15678e-20)
(0.77419 0.280962 1.97137e-19)
(0.73706 0.254455 0)
(0.66498 0.22108 -2.94619e-19)
(0.520801 0.171886 4.35546e-19)
(0.308171 0.108527 8.31954e-19)
(0.0881673 0.033992 -9.76633e-19)
(0.475435 0.200066 -5.71048e-19)
(1.07214 0.384749 2.85905e-19)
(1.29316 0.476464 2.16416e-19)
(1.31781 0.519614 -1.92557e-19)
(1.28113 0.54224 1.10233e-20)
(1.22381 0.544983 3.46272e-20)
(1.1646 0.532703 -1.68835e-20)
(1.10168 0.512304 -3.01647e-20)
(1.03208 0.488614 -7.36963e-20)
(0.957573 0.458694 1.2472e-19)
(0.893425 0.419127 1.57592e-19)
(0.842367 0.381701 3.37042e-19)
(0.802622 0.353965 0)
(0.770628 0.329354 5.50731e-21)
(0.749558 0.308203 -5.45303e-19)
(0.720582 0.288817 1.25728e-19)
(0.652303 0.24976 6.33708e-19)
(0.512167 0.195828 -1.86292e-19)
(0.301053 0.123868 3.94188e-19)
(0.086792 0.0367767 -3.26014e-20)
(0.463563 0.219774 8.3188e-21)
(1.06017 0.427927 2.70628e-19)
(1.28531 0.52944 1.67355e-19)
(1.30954 0.575652 -3.54966e-19)
(1.27105 0.597819 2.1082e-19)
(1.21257 0.598083 -4.91772e-20)
(1.15243 0.582516 1.45434e-20)
(1.08741 0.559451 7.70107e-20)
(1.01489 0.533435 1.35999e-19)
(0.939021 0.500057 -1.54615e-19)
(0.873657 0.456137 0)
(0.820975 0.41774 -1.30998e-19)
(0.78484 0.385875 1.50398e-19)
(0.759235 0.360811 1.98596e-19)
(0.730608 0.341074 -1.14113e-19)
(0.695918 0.311362 -2.85954e-19)
(0.632367 0.275553 -8.64776e-20)
(0.498448 0.215087 -1.22972e-21)
(0.290857 0.133143 0)
(0.0826218 0.0386378 0)
(0.45471 0.238702 -2.93426e-19)
(1.04855 0.46972 0)
(1.27539 0.580405 1.94963e-19)
(1.29896 0.629199 -9.21068e-20)
(1.25899 0.650626 -2.16819e-19)
(1.19975 0.648306 6.04772e-20)
(1.13886 0.629808 9.62361e-21)
(1.07212 0.604659 -4.48735e-20)
(0.997675 0.576303 9.24691e-20)
(0.921027 0.5386 -5.9027e-20)
(0.852972 0.491055 8.86651e-20)
(0.797983 0.448536 4.10532e-19)
(0.757889 0.414174 1.35575e-20)
(0.725072 0.387389 -2.03831e-19)
(0.703309 0.362395 3.89434e-19)
(0.677964 0.340701 4.52801e-21)
(0.616366 0.296567 9.25201e-20)
(0.483955 0.232532 -4.47116e-19)
(0.279524 0.13986 4.53562e-19)
(0.0771942 0.0397934 -5.4173e-19)
(0.448202 0.257427 7.87844e-23)
(1.03697 0.509558 0)
(1.26426 0.628884 0)
(1.28709 0.679947 8.34841e-20)
(1.24573 0.700513 8.79802e-20)
(1.18585 0.695729 -4.42226e-20)
(1.12436 0.674587 5.0416e-21)
(1.05608 0.647762 0)
(0.979551 0.61741 -1.44525e-19)
(0.901548 0.57687 2.24925e-19)
(0.83115 0.525877 2.64852e-19)
(0.776045 0.479436 -1.53652e-19)
(0.737272 0.442678 -1.90632e-19)
(0.710586 0.413264 4.49725e-19)
(0.684448 0.389763 -1.37889e-19)
(0.652081 0.357319 -1.66778e-19)
(0.593747 0.317221 -1.01476e-19)
(0.464677 0.24546 -4.84127e-19)
(0.265707 0.144539 6.85865e-20)
(0.0708357 0.0399711 5.8733e-19)
(0.443415 0.276669 -1.20766e-19)
(1.02585 0.547793 -1.85434e-19)
(1.25207 0.674928 2.27884e-20)
(1.27409 0.728021 3.58895e-22)
(1.23168 0.747701 2.2298e-20)
(1.17151 0.740458 -1.31293e-19)
(1.10958 0.716943 0)
(1.04006 0.688779 3.06685e-20)
(0.962304 0.656879 -2.41825e-20)
(0.883326 0.612656 3.61213e-19)
(0.808709 0.556938 -6.41353e-20)
(0.750293 0.508146 7.21148e-20)
(0.708521 0.467383 0)
(0.677248 0.435779 -2.44951e-19)
(0.655984 0.406714 3.02927e-19)
(0.632373 0.381764 0)
(0.573605 0.32984 -2.21192e-19)
(0.444791 0.255707 6.48277e-19)
(0.250879 0.147265 7.68179e-20)
(0.0640244 0.0392407 -7.26529e-19)
(0.43978 0.295288 -2.71413e-19)
(1.0154 0.584524 3.40889e-19)
(1.23972 0.718931 0)
(1.26078 0.773609 2.11455e-19)
(1.21746 0.79222 0)
(1.15718 0.782604 1.15657e-19)
(1.09493 0.75698 0)
(1.02412 0.727713 0)
(0.944395 0.694204 -4.76068e-20)
(0.86272 0.646848 -3.49196e-19)
(0.784991 0.590262 -4.91782e-19)
(0.725944 0.537354 8.91526e-20)
(0.687153 0.494056 3.29997e-19)
(0.659505 0.458274 2.74007e-19)
(0.635682 0.431 -9.72092e-19)
(0.605268 0.391073 -3.98914e-19)
(0.548663 0.345938 2.32325e-19)
(0.42354 0.262731 0)
(0.23473 0.148173 6.64632e-19)
(0.0569317 0.0377243 -7.86878e-19)
(0.437148 0.312986 3.01774e-19)
(1.00534 0.619203 -3.76753e-19)
(1.22708 0.760096 0)
(1.24724 0.816383 -1.0316e-20)
(1.20327 0.834142 -8.6081e-20)
(1.14305 0.822358 0)
(1.08038 0.79488 -2.19537e-21)
(1.00823 0.764646 3.01701e-20)
(0.9272 0.73018 -7.1311e-20)
(0.844193 0.681189 3.82653e-20)
(0.763632 0.621958 0)
(0.701985 0.564382 3.60407e-19)
(0.656025 0.515932 4.68035e-21)
(0.625535 0.477138 1.48587e-19)
(0.604661 0.440833 1.7829e-19)
(0.583471 0.41224 0)
(0.526384 0.352285 -3.89015e-19)
(0.399069 0.267339 7.63397e-19)
(0.217359 0.1469 -8.1111e-19)
(0.0496487 0.0354001 1.70482e-18)
(0.43549 0.329599 0)
(0.996464 0.652648 0)
(1.2149 0.799619 -2.07523e-19)
(1.23389 0.856984 0)
(1.1893 0.873654 0)
(1.12919 0.859741 1.8273e-19)
(1.06617 0.830737 -5.20059e-21)
(0.992936 0.799749 1.73957e-20)
(0.9109 0.764075 -1.04611e-20)
(0.826655 0.712752 0)
(0.743829 0.650952 -7.76348e-20)
(0.677202 0.590905 -2.97447e-19)
(0.633438 0.538817 -3.68757e-19)
(0.60535 0.495326 -1.51723e-19)
(0.583685 0.462226 1.95532e-19)
(0.554581 0.415853 -4.63508e-19)
(0.498767 0.363906 8.40603e-19)
(0.376918 0.268294 6.22964e-21)
(0.199176 0.143748 -7.83028e-19)
(0.0426737 0.032428 -1.1608e-19)
(0.434419 0.345276 0)
(0.987802 0.683785 -2.96171e-19)
(1.20272 0.836163 2.31446e-19)
(1.22067 0.894746 0)
(1.17563 0.910626 0)
(1.11575 0.894918 -4.08741e-19)
(1.05237 0.86461 0)
(0.978052 0.832768 0)
(0.895131 0.796413 -1.36983e-19)
(0.808634 0.744377 6.52915e-20)
(0.720296 0.68255 -6.35504e-19)
(0.651991 0.619369 0)
(0.602318 0.561652 -4.01018e-19)
(0.568212 0.512552 1.12097e-20)
(0.548417 0.465977 -6.27451e-19)
(0.5302 0.431406 2.50733e-19)
(0.476065 0.360994 3.45853e-21)
(0.350597 0.266005 -8.96728e-19)
(0.18176 0.138091 4.25091e-19)
(0.037289 0.0291297 1.24195e-19)
(0.433834 0.360065 0)
(0.980285 0.713993 -3.53429e-19)
(1.1911 0.871417 2.48248e-19)
(1.20769 0.930605 5.07835e-19)
(1.16219 0.945365 9.69916e-20)
(1.10252 0.927797 -6.46944e-20)
(1.03886 0.896437 3.68082e-20)
(0.963743 0.864144 -2.63979e-21)
(0.880174 0.826914 1.46533e-19)
(0.792864 0.773684 4.27394e-19)
(0.705113 0.711593 5.27273e-19)
(0.630622 0.646423 9.87922e-20)
(0.575444 0.585711 5.80641e-19)
(0.543519 0.528622 3.72327e-19)
(0.523455 0.483923 4.52217e-19)
(0.498408 0.423945 -2.79691e-19)
(0.445809 0.365329 -3.29909e-19)
(0.331532 0.259839 3.88953e-19)
(0.16566 0.129105 -2.30834e-19)
(0.0339926 0.0254223 4.04544e-19)
(0.433376 0.374135 4.68958e-19)
(0.972697 0.741862 5.61496e-19)
(1.17951 0.903796 1.38073e-19)
(1.19491 0.963766 1.67971e-20)
(1.14907 0.977679 -3.43058e-19)
(1.08972 0.958567 1.19293e-19)
(1.0259 0.926434 -4.3198e-20)
(0.950204 0.893663 -2.17327e-20)
(0.866394 0.855591 -1.50793e-19)
(0.777668 0.802812 -4.72485e-19)
(0.682641 0.740878 3.287e-20)
(0.602474 0.674023 0)
(0.546777 0.608986 0)
(0.50442 0.54792 -1.90556e-19)
(0.479546 0.480991 -7.45675e-19)
(0.466248 0.431308 6.05419e-19)
(0.423389 0.347274 3.66497e-19)
(0.310196 0.24463 0)
(0.166213 0.115796 7.38619e-19)
(0.040137 0.0226812 -4.38989e-19)
(0.433061 0.387427 -2.49009e-19)
(0.966061 0.76902 2.18058e-19)
(1.16847 0.935205 -3.07799e-19)
(1.18241 0.995342 -3.24439e-19)
(1.13627 1.00803 -1.38299e-19)
(1.07737 0.987286 2.76706e-20)
(1.01356 0.954471 0)
(0.937339 0.921378 1.9855e-20)
(0.853169 0.882728 2.22338e-20)
(0.762421 0.82938 0)
(0.666968 0.767262 0)
(0.587302 0.701619 6.71628e-20)
(0.519904 0.637232 9.99901e-20)
(0.476384 0.565558 -2.0505e-19)
(0.449523 0.502454 5.38745e-19)
(0.4198 0.410141 -6.65958e-19)
(0.384067 0.333492 -7.86992e-19)
(0.308394 0.212841 6.97498e-19)
(0.203987 0.0993797 -2.69514e-19)
(0.0922501 0.0316894 1.55389e-19)
(0.432566 0.399899 2.91099e-19)
(0.959165 0.793825 0)
(1.15744 0.963893 0)
(1.1702 1.02445 -1.08227e-19)
(1.12393 1.03618 8.76142e-20)
(1.06556 1.01405 -2.11089e-20)
(1.00167 0.980764 -1.61581e-19)
(0.925195 0.947581 -8.50316e-20)
(0.840897 0.908336 2.28497e-19)
(0.74824 0.854947 -3.71383e-20)
(0.647762 0.794329 8.50138e-20)
(0.559179 0.730052 -5.6362e-19)
(0.490894 0.662659 -6.03909e-19)
(0.436816 0.593757 -1.09208e-19)
(0.394483 0.501536 0)
(0.377286 0.421676 -1.05222e-20)
(0.341875 0.282398 4.34713e-19)
(0.2689 0.142176 -7.48266e-19)
(0.213899 -0.00228581 5.71474e-19)
(0.0658786 -0.0221229 4.85508e-19)
(0.432104 0.411878 -6.352e-19)
(0.95279 0.817931 -2.76996e-19)
(1.14678 0.991825 7.92845e-21)
(1.15825 1.05245 1.42573e-19)
(1.11195 1.06296 0)
(1.05418 1.03947 3.78931e-19)
(0.990426 1.00585 1.96252e-19)
(0.913545 0.972548 -3.95254e-20)
(0.828525 0.932826 -1.074e-19)
(0.733896 0.879708 -3.5448e-20)
(0.633501 0.82001 3.29237e-20)
(0.545801 0.756579 4.97369e-19)
(0.467466 0.693323 5.90325e-19)
(0.404975 0.615995 1.05262e-19)
(0.362795 0.542088 5.71263e-19)
(0.304531 0.403616 0)
(0.207149 0.276953 0)
(0.0676166 0.302032 5.14584e-19)
(-0.0293938 0.708536 -1.95524e-20)
(-0.000821902 1.65607 -5.83326e-19)
(0.431383 0.423325 3.47075e-19)
(0.946187 0.840047 8.27516e-19)
(1.1361 1.01749 -1.23937e-18)
(1.14658 1.07853 7.33144e-19)
(1.10047 1.08834 -8.08947e-20)
(1.04335 1.06385 5.08195e-19)
(0.979386 1.03015 0)
(0.902087 0.997257 1.09911e-19)
(0.817 0.957521 0)
(0.720744 0.905349 3.94775e-19)
(0.614218 0.847407 -4.76416e-20)
(0.516515 0.786844 5.34172e-20)
(0.436824 0.723335 6.58918e-19)
(0.366377 0.659624 -2.36265e-19)
(0.277697 0.551827 -2.97731e-19)
(0.215247 0.474476 0)
(0.104793 0.613241 0)
(0.0382606 1.37429 0)
(0.0619918 2.48085 -2.97536e-19)
(0.0786517 2.91445 -1.78977e-19)
(0.430663 0.434065 0)
(0.940172 0.861697 0)
(1.12592 1.04264 4.44859e-19)
(1.1353 1.10372 -6.09513e-19)
(1.08949 1.11261 4.07966e-19)
(1.03306 1.08731 -4.64237e-19)
(0.969142 1.05377 -2.24674e-20)
(0.89154 1.02117 1.7493e-20)
(0.805743 0.981697 1.81826e-20)
(0.706636 0.930015 -4.50789e-19)
(0.601281 0.873007 7.68946e-20)
(0.506527 0.815489 4.76172e-19)
(0.414967 0.761809 -6.51364e-19)
(0.328204 0.685212 -7.50973e-19)
(0.261471 0.625477 2.60627e-19)
(0.177372 0.78461 0)
(0.106234 1.62569 3.78317e-19)
(0.115096 2.70321 4.32662e-19)
(0.118211 3.07896 -4.88291e-19)
(0.105982 3.20705 5.33573e-19)
(0.429402 0.444453 0)
(0.933938 0.881355 6.80893e-19)
(1.11579 1.06556 -1.1477e-19)
(1.12438 1.12699 7.74503e-19)
(1.07912 1.1355 -4.28224e-19)
(1.02347 1.10974 0)
(0.95925 1.07644 0)
(0.881178 1.04464 0)
(0.795096 1.00543 6.24338e-21)
(0.695239 0.955512 1.18297e-20)
(0.584797 0.902368 0)
(0.480192 0.848944 -4.67418e-19)
(0.390305 0.792983 0)
(0.295633 0.739333 5.33476e-19)
(0.215207 0.836215 -3.50252e-19)
(0.165293 1.53797 -2.88193e-19)
(0.161033 2.70377 -7.11199e-19)
(0.174845 3.12539 -3.72838e-19)
(0.151276 3.25648 -4.78686e-19)
(0.132838 3.29197 4.35503e-19)
(0.427477 0.453633 -2.32259e-19)
(0.928223 0.900539 1.66596e-20)
(1.10623 1.08814 -1.2417e-19)
(1.11398 1.14955 -6.17444e-19)
(1.06939 1.15741 0)
(1.01439 1.13136 0)
(0.949951 1.09863 0)
(0.871532 1.06734 -7.86146e-21)
(0.784898 1.02905 -1.63234e-20)
(0.682077 0.980745 0)
(0.573036 0.928712 0)
(0.472622 0.880125 0)
(0.366473 0.837528 0)
(0.302192 0.842253 3.62369e-19)
(0.26233 1.27285 9.26683e-19)
(0.22693 2.4567 2.86909e-19)
(0.23201 3.09806 5.51218e-19)
(0.218433 3.27965 -3.7964e-19)
(0.178118 3.33469 1.38689e-19)
(0.157429 3.34561 0)
(0.424594 0.461402 2.35984e-19)
(0.92135 0.917418 -1.47664e-18)
(1.09638 1.10897 -4.18409e-19)
(1.10385 1.171 -1.00589e-19)
(1.06013 1.17867 1.09831e-19)
(1.00576 1.15256 -7.64575e-19)
(0.94083 1.12025 5.04303e-20)
(0.861999 1.08995 2.90722e-19)
(0.775196 1.05236 0)
(0.672986 1.0062 -2.61161e-20)
(0.561269 0.958435 2.37566e-20)
(0.454594 0.913401 0)
(0.37444 0.883532 0)
(0.30826 1.0529 -4.47131e-19)
(0.26205 1.94488 1.72301e-20)
(0.252006 2.97732 -1.77005e-19)
(0.274049 3.28703 3.35523e-19)
(0.255424 3.37235 2.0327e-19)
(0.198842 3.39367 -1.89832e-19)
(0.177841 3.40149 9.7774e-20)
(0.421245 0.468904 4.56214e-19)
(0.914261 0.935207 1.41634e-18)
(1.08646 1.13137 5.12577e-19)
(1.09382 1.19379 0)
(1.05094 1.20067 0)
(0.996781 1.17419 5.86344e-19)
(0.931416 1.14259 -3.48892e-19)
(0.852506 1.11287 -2.68987e-19)
(0.765671 1.07635 -9.33827e-21)
(0.660656 1.03221 1.9229e-19)
(0.551487 0.986985 -4.24631e-19)
(0.447029 0.947621 0)
(0.377116 0.975765 0)
(0.331621 1.42127 -2.55914e-19)
(0.316266 2.58109 -3.3956e-19)
(0.348443 3.21346 0)
(0.36802 3.3614 -1.89314e-19)
(0.293799 3.41472 1.24707e-19)
(0.21938 3.44634 -1.37042e-19)
(0.191635 3.46359 1.13612e-19)
(0.416999 0.476592 -8.66315e-19)
(0.905827 0.952501 -6.7459e-19)
(1.07557 1.15359 0)
(1.08322 1.21705 0)
(1.04119 1.22361 0)
(0.987309 1.19676 0)
(0.921551 1.16532 3.71516e-19)
(0.842635 1.13637 -3.75074e-19)
(0.75577 1.10073 0)
(0.65271 1.05939 -1.70076e-19)
(0.542143 1.01686 7.25288e-19)
(0.448054 0.990624 3.34488e-20)
(0.396558 1.11089 4.96661e-20)
(0.368275 1.86529 3.83184e-19)
(0.370648 2.95797 -1.56702e-19)
(0.402336 3.32366 0)
(0.376514 3.42857 2.38863e-20)
(0.288884 3.50093 7.8661e-20)
(0.231243 3.54592 2.14001e-19)
(0.199492 3.54609 -1.71843e-19)
(0.412816 0.48504 4.11037e-19)
(0.897567 0.972034 -6.66038e-19)
(1.06458 1.1781 0)
(1.07224 1.24209 -1.61605e-19)
(1.03082 1.24761 6.11588e-19)
(0.976819 1.2199 0)
(0.910753 1.18895 0)
(0.832313 1.16057 7.10421e-19)
(0.74645 1.12599 3.90867e-21)
(0.641855 1.08644 6.69136e-20)
(0.534418 1.04789 -3.2457e-19)
(0.454453 1.04204 2.09354e-19)
(0.415943 1.3135 0)
(0.407779 2.30953 -1.84798e-19)
(0.434426 3.18587 1.43223e-19)
(0.477946 3.42339 1.44018e-20)
(0.454308 3.50526 0)
(0.388152 3.56509 -1.10597e-19)
(0.334764 3.58535 -5.30941e-19)
(0.248131 3.52105 -1.2319e-19)
(0.40772 0.494271 -7.98469e-19)
(0.887925 0.991001 9.49166e-19)
(1.05234 1.20194 7.077e-19)
(1.06007 1.26707 -1.824e-19)