/*--------------------------------*- C++ -*----------------------------------*\
  =========                 |
  \\      /  F ield         | OpenFOAM: The Open Source CFD Toolbox
   \\    /   O peration     | Website:  https://openfoam.org
    \\  /    A nd           | Version:  6
     \\/     M anipulation  |
\*---------------------------------------------------------------------------*/
FoamFile
{
    version     2.0;
    format      ascii;
    class       surfaceScalarField;
    location    "93";
    object      phi;
}
// * * * * * * * * * * * * * * * * * * * * * * * * * * * * * * * * * * * * * //

dimensions      [0 3 -1 0 0 0 0];

internalField   nonuniform List<scalar> 
17370
(
-0.09
0.0898489
0.289162
-0.0714622
0.0537521
0.364486
-0.0381187
0.0276893
0.426598
-0.0196372
0.0146039
0.504285
-0.0107618
0.00827125
0.601893
-0.00627149
0.00489494
0.720434
-0.00373098
0.00289039
0.863747
-0.00214889
0.00158978
1.03601
-0.00107324
0.000660918
1.24292
-0.000253986
-0.000143039
1.49159
0.000522481
-0.000932223
1.4916
0.00132998
-0.00181678
1.24318
0.00234063
-0.00304389
1.03634
0.00385768
-0.00500256
0.864051
0.00636898
-0.00836205
0.721051
0.0108474
-0.0146835
0.603051
0.0197102
-0.0277543
0.507483
0.0381757
-0.0538
0.431792
0.0715016
-0.0898754
0.365149
0.0900163
0.198995
-0.128138
0.0882293
0.0399085
-0.3646
0.353382
-0.0746691
0.0858877
-0.446477
0.454322
-0.0843833
0.076538
-0.521191
0.529904
-0.0684398
0.0597272
-0.61279
0.621571
-0.0515371
0.0427562
-0.726896
0.734167
-0.035294
0.0280228
-0.867477
0.872594
-0.0224202
0.0173025
-1.03848
1.04193
-0.0134906
0.0100387
-1.2446
1.24703
-0.00742611
0.00499115
-1.49262
1.49461
-0.00304054
0.00105689
-1.49251
1.49423
0.000615475
-0.00233868
-1.24397
1.24586
0.00424575
-0.00613122
-1.03751
1.04003
0.00848309
-0.0110031
-0.866099
0.869825
0.0143491
-0.0180757
-0.724389
0.729932
0.0231157
-0.0286584
-0.608696
0.616109
0.0358718
-0.0432845
-0.514895
0.523038
0.0520134
-0.0601564
-0.439855
0.447912
0.0688179
-0.0768754
-0.375294
0.376737
0.0846701
-0.0861134
-0.257329
0.222474
0.074822
-0.0399673
-0.068524
0.0587
0.00982394
-0.0517993
0.0583784
-0.374133
0.367553
-0.0574591
0.053704
-0.453599
0.457354
-0.0486114
0.0446563
-0.527952
0.531907
-0.0408133
0.0371712
-0.621569
0.625212
-0.0330656
0.028986
-0.735355
0.739435
-0.024411
0.0202472
-0.874347
0.878511
-0.0158964
0.012198
-1.0435
1.04719
-0.00845571
0.00527909
-1.24857
1.25174
-0.0019478
-0.00112775
-1.49666
1.49974
0.00417685
-0.00744437
-1.4972
1.50047
0.0105242
-0.0141234
-1.25006
1.25366
0.017669
-0.0218478
-1.04592
1.0501
0.0258688
-0.0303056
-0.877753
0.88219
0.0342734
-0.0382676
-0.739893
0.743887
0.0418148
-0.04556
-0.626767
0.630512
0.0494311
-0.0544435
-0.534805
0.539817
0.0581095
-0.0589177
-0.457469
0.458277
0.0522067
-0.0319973
-0.335742
0.315532
0.00989012
-0.0683381
0.058448
-0.0529519
0.0489595
0.00399241
-0.0331408
0.0436765
-0.358127
0.347591
-0.0473668
0.0467338
-0.459297
0.45993
-0.0436727
0.0403152
-0.535814
0.539171
-0.0365373
0.0332281
-0.628542
0.631851
-0.0297842
0.0267464
-0.742663
0.745701
-0.0234805
0.0203671
-0.882035
0.885148
-0.0168294
0.0134433
-1.05079
1.05417
-0.00964325
0.00609923
-1.25518
1.25873
-0.00212517
-0.00167526
-1.50325
1.50705
0.0054429
-0.00931813
-1.50413
1.508
0.0127251
-0.0163278
-1.25741
1.26101
0.0195026
-0.0228002
-1.0539
1.0572
0.0257101
-0.0287748
-0.885671
0.888736
0.0316473
-0.0349262
-0.747141
0.750419
0.0380957
-0.0417319
-0.634291
0.637927
0.0449681
-0.0478905
-0.544121
0.547044
0.0483767
-0.0444796
-0.456555
0.452658
0.0336967
-0.016233
-0.296155
0.278691
0.0040751
-0.0526249
0.0485498
-0.0458855
0.0433942
0.00249128
-0.0227769
0.0331404
-0.336914
0.326551
-0.0389482
0.0399559
-0.459621
0.458614
-0.0387574
0.0364643
-0.541896
0.544189
-0.0337896
0.0311865
-0.634909
0.637512
-0.0281149
0.0252073
-0.748754
0.751661
-0.0219329
0.01893
-0.888109
0.891112
-0.0156146
0.0125061
-1.05731
1.06042
-0.00897058
0.00555418
-1.26219
1.26561
-0.00158454
-0.00230369
-1.51093
1.51482
0.00614751
-0.00998394
-1.51189
1.51573
0.0132174
-0.016493
-1.26444
1.26772
0.0193248
-0.0223255
-1.0603
1.0633
0.0250586
-0.0280627
-0.891776
0.89478
0.0307453
-0.0335904
-0.753616
0.756461
0.0360019
-0.0384849
-0.640984
0.643467
0.0406143
-0.0415965
-0.548838
0.54982
0.0403615
-0.0342209
-0.447363
0.441222
0.0234926
-0.0102534
-0.263453
0.250214
0.00259362
-0.0453817
0.0427881
-0.041324
0.0395623
0.00176171
-0.0167074
0.0259367
-0.316717
0.307488
-0.0325212
0.0346463
-0.457026
0.454901
-0.0342132
0.0325334
-0.546175
0.547855
-0.030343
0.0282385
-0.639826
0.641931
-0.0257961
0.0233876
-0.754316
0.756724
-0.0205159
0.017714
-0.894017
0.896819
-0.0144636
0.0113817
-1.06348
1.06656
-0.00787845
0.00454218
-1.26893
1.27227
-0.000700344
-0.00303851
-1.51861
1.52235
0.00672057
-0.010392
-1.51945
1.52312
0.0134946
-0.0166667
-1.27096
1.27413
0.0193961
-0.0222447
-1.06633
1.06918
0.0246995
-0.0272213
-0.897577
0.900099
0.0293382
-0.0314879
-0.758899
0.761049
0.0333469
-0.03529
-0.645609
0.647552
0.036732
-0.036871
-0.550323
0.550462
0.0343966
-0.0273239
-0.434532
0.427459
0.017602
-0.00742963
-0.238656
0.228484
0.00188684
-0.0406027
0.0387158
-0.0380464
0.0367239
0.00132244
-0.0127354
0.0206509
-0.298921
0.291005
-0.0273698
0.0302696
-0.45236
0.449461
-0.0304557
0.0293211
-0.549298
0.550433
-0.0273151
0.0253856
-0.643978
0.645908
-0.0231703
0.0210176
-0.758976
0.761129
-0.0184842
0.0159829
-0.899406
0.901908
-0.0130203
0.0101224
-1.06951
1.07241
-0.00674107
0.00348412
-1.27554
1.2788
0.000276355
-0.00391323
-1.52601
1.52965
0.00747902
-0.0110254
-1.52671
1.53026
0.0139895
-0.0169568
-1.27725
1.28022
0.0194148
-0.0218757
-1.07191
1.07437
0.0239422
-0.0260352
-0.902364
0.904457
0.0278192
-0.0296631
-0.763016
0.76486
0.0312822
-0.0329867
-0.649358
0.651063
0.0337747
-0.0331764
-0.550231
0.549633
0.0297762
-0.0223874
-0.420168
0.412779
0.0138379
-0.00577162
-0.219463
0.211397
0.00147475
-0.0370594
0.0355846
-0.0355707
0.0345549
0.00101586
-0.00992529
0.0166002
-0.283737
0.277062
-0.0230398
0.0263799
-0.446323
0.442983
-0.0271339
0.026414
-0.551356
0.552075
-0.0246368
0.0228354
-0.647819
0.649621
-0.0207446
0.0187069
-0.763218
0.765256
-0.0163097
0.0139574
-0.904263
0.906615
-0.0111904
0.00847953
-1.07514
1.07785
-0.00529476
0.00218753
-1.28194
1.28505
0.00144243
-0.00496768
-1.53321
1.53673
0.00840455
-0.0117681
-1.53369
1.53705
0.0145123
-0.0171857
-1.28307
1.28575
0.0193541
-0.0215026
-1.07674
1.07888
0.0233175
-0.0251687
-0.906407
0.908259
0.0267487
-0.0283787
-0.766588
0.768218
0.0297947
-0.031153
-0.652625
0.653983
0.0314431
-0.0301038
-0.548671
0.547331
0.0260731
-0.0187503
-0.405393
0.39807
0.0112775
-0.0046764
-0.20413
0.197529
0.00120118
-0.0342608
0.0330596
-0.0336655
0.0328782
0.000787315
-0.00783617
0.0134275
-0.27096
0.265368
-0.0193673
0.0228911
-0.439544
0.43602
-0.0241105
0.0236314
-0.552712
0.553192
-0.0221145
0.0204177
-0.651424
0.653121
-0.0184157
0.0164573
-0.767247
0.769205
-0.0141445
0.011873
-0.908858
0.911129
-0.00920206
0.0065952
-1.08044
1.08304
-0.00354537
0.000576154
-1.28804
1.29101
0.0028874
-0.00624238
-1.54015
1.5435
0.00948871
-0.012625
-1.54027
1.54341
0.0151494
-0.0175737
-1.28833
1.29075
0.0195171
-0.0214315
-1.08101
1.08292
0.0230438
-0.024685
-0.909989
0.91163
0.026081
-0.0275161
-0.769739
0.771174
0.0287307
-0.0296994
-0.655146
0.656115
0.0296122
-0.0275948
-0.545642
0.543625
0.0231479
-0.0160737
-0.390861
0.383787
0.00949016
-0.00392297
-0.191492
0.185924
0.00101264
-0.0319628
0.0309502
-0.0321899
0.0315806
0.000609278
-0.00621782
0.0108811
-0.260271
0.255608
-0.0162146
0.0197235
-0.432507
0.428999
-0.0212523
0.0209909
-0.553604
0.553866
-0.0196979
0.0180553
-0.654844
0.656486
-0.0161023
0.0141862
-0.771131
0.773047
-0.0119239
0.00970285
-0.913296
0.915517
-0.00709166
0.00454743
-1.08554
1.08808
-0.00158042
-0.00128995
-1.29387
1.29674
0.00460908
-0.00779281
-1.54673
1.54992
0.0108443
-0.013765
-1.54639
1.54931
0.0160943
-0.0183004
-1.29311
1.29532
0.0200379
-0.0217289
-1.08484
1.08653
0.0231458
-0.0245859
-0.913148
0.914588
0.0258115
-0.0270678
-0.772507
0.773763
0.0281392
-0.0286867
-0.656882
0.65743
0.0282027
-0.0256068
-0.541311
0.538715
0.020893
-0.0141263
-0.376869
0.370102
0.00823729
-0.0034021
-0.180758
0.175923
0.000883036
-0.0300103
0.0291273
-0.0310529
0.0305888
0.000464168
-0.00490864
0.00876862
-0.251375
0.247515
-0.0134505
0.0167946
-0.425585
0.422241
-0.0184912
0.0184103
-0.554088
0.554169
-0.0173008
0.0156871
-0.658186
0.6598
-0.0137478
0.0118377
-0.774942
0.776853
-0.00958361
0.007377
-0.917637
0.919844
-0.00479252
0.00228431
-1.09052
1.09303
0.000627481
-0.00342681
-1.29951
1.30231
0.00663616
-0.00968053
-1.55299
1.55603
0.012564
-0.0152888
-1.55208
1.55481
0.0174309
-0.0194197
-1.29747
1.29946
0.0209502
-0.0224206
-1.08824
1.08971
0.0236524
-0.0249081
-0.915906
0.917161
0.0259813
-0.027076
-0.774921
0.776015
0.0279381
-0.0281169
-0.657779
0.657957
0.0272062
-0.0241071
-0.535862
0.532763
0.0192162
-0.0127417
-0.363495
0.35702
0.00737272
-0.00304935
-0.171372
0.167049
0.000796877
-0.0282946
0.0274977
-0.0301947
0.0298542
0.000340518
-0.00380518
0.00695616
-0.244037
0.240886
-0.0109732
0.0140409
-0.419058
0.41599
-0.0157767
0.0158374
-0.554241
0.554181
-0.0147988
0.0132478
-0.661464
0.663015
-0.0112924
0.00935398
-0.778752
0.780691
-0.00706783
0.00483848
-0.921955
0.924184
-0.00224086
-0.000265238
-1.09544
1.09795
0.00315516
-0.00591207
-1.30502
1.30778
0.00904327
-0.0119775
-1.55897
1.56191
0.014717
-0.0172618
-1.55738
1.55992
0.0192245
-0.0209991
-1.3014
1.30317
0.0223247
-0.0235783
-1.09123
1.09248
0.0246296
-0.0257073
-0.918292
0.91937
0.0266346
-0.0275683
-0.777
0.777934
0.0281686
-0.0280451
-0.657986
0.657862
0.026662
-0.0230929
-0.529431
0.525862
0.0180602
-0.011815
-0.35068
0.344435
0.0068104
-0.00282698
-0.162921
0.158937
0.000744836
-0.0267335
0.0259887
-0.0295768
0.0293476
0.000229273
-0.002831
0.00533858
-0.238082
0.235575
-0.00868918
0.0113961
-0.413131
0.410425
-0.0130551
0.0131819
-0.554161
0.554034
-0.0121746
0.0106537
-0.664643
0.666164
-0.00865699
0.00665903
-0.782624
0.784622
-0.00430275
0.00201364
-0.926321
0.92861
0.000639711
-0.00318294
-1.10036
1.10291
0.0060929
-0.00884268
-1.31046
1.31321
0.0119292
-0.0147783
-1.56474
1.56759
0.0173923
-0.0197709
-1.56231
1.56469
0.0215633
-0.0231285
-1.30492
1.30648
0.0242484
-0.0252824
-1.09381
1.09485
0.0261491
-0.0270399
-0.920315
0.921206
0.0278089
-0.0285753
-0.778704
0.77947
0.0288908
-0.0284273
-0.657605
0.657142
0.026578
-0.0225573
-0.522089
0.518068
0.017377
-0.01127
-0.338285
0.332178
0.00649046
-0.0027079
-0.155077
0.151295
0.000719724
-0.0252628
0.0245431
-0.0291786
0.0290558
0.000122745
-0.00192191
0.00382209
-0.233396
0.231496
-0.00649927
0.00877348
-0.407969
0.405695
-0.0102462
0.010359
-0.554006
0.553893
-0.00934681
0.00781472
-0.6678
0.669332
-0.0057457
0.00365523
-0.786617
0.788708
-0.0011897
-0.00119614
-0.930808
0.933193
0.00394711
-0.00656666
-1.10537
1.10799
0.00953942
-0.0123188
-1.31589
1.31867
0.0153954
-0.0181849
-1.57035
1.57314
0.0206913
-0.0229159
-1.5669
1.56913
0.0245446
-0.0259004
-1.30802
1.30938
0.0268114
-0.0276193
-1.09598
1.09679
0.0282908
-0.0289835
-0.921957
0.922649
0.0295958
-0.0302167
-0.780058
0.780679
0.0301742
-0.0292982
-0.6565
0.655624
0.0269632
-0.022484
-0.513856
0.509377
0.0171203
-0.0110474
-0.326119
0.320046
0.00636918
-0.00267264
-0.147578
0.143881
0.000716449
-0.0238314
0.023115
-0.0289938
0.0289789
1.48322e-05
-0.00102914
0.00233364
-0.229916
0.228611
-0.00432098
0.00609698
-0.40371
0.401934
-0.00727935
0.00729525
-0.553945
0.553929
-0.0062292
0.00464468
-0.671018
0.672603
-0.00246104
0.000241938
-0.790796
0.793015
0.00237579
-0.00489962
-0.935488
0.938012
0.00779465
-0.0105329
-1.11053
1.11327
0.0136134
-0.0164611
-1.32139
1.32424
0.0195662
-0.0223253
-1.57585
1.5786
0.0247432
-0.0268235
-1.57118
1.57326
0.0282911
-0.0294384
-1.31072
1.31187
0.0301408
-0.0307215
-1.09772
1.0983
0.031192
-0.0316739
-0.923196
0.923678
0.0321014
-0.032456
-0.781031
0.781385
0.0321123
-0.0307429
-0.654561
0.653192
0.0278805
-0.0228984
-0.504697
0.499715
0.0172816
-0.0111215
-0.313966
0.307806
0.00642573
-0.00271174
-0.140198
0.136484
0.000732549
-0.022397
0.0216645
-0.0290244
0.0291215
-9.71156e-05
-0.000102547
0.000803033
-0.227627
0.226927
-0.00207065
0.0032818
-0.400483
0.399272
-0.00407178
0.0039054
-0.554153
0.554319
-0.00272616
0.00102981
-0.674392
0.676088
0.00130791
-0.00370006
-0.795233
0.797625
0.00652077
-0.00922975
-0.940446
0.943155
0.0123209
-0.0152248
-1.11594
1.11885
0.0184627
-0.0214199
-1.32704
1.32999
0.024592
-0.0273477
-1.58129
1.58404
0.0296955
-0.0316394
-1.57515
1.57709
0.0329468
-0.0338854
-1.313
1.31394
0.0343741
-0.0347164
-1.099
1.09935
0.0349759
-0.0352375
-0.924004
0.924265
0.0354567
-0.0354733
-0.78143
0.781447
0.0347886
-0.032842
-0.65162
0.649673
0.0293848
-0.023823
-0.49451
0.488948
0.017856
-0.0114751
-0.301577
0.295196
0.00664496
-0.00281756
-0.132737
0.128909
0.000765708
-0.020922
0.0201563
-0.02929
0.0295219
-0.000231891
0.000860402
-0.000826421
-0.22656
0.226526
0.000336315
0.000233921
-0.398422
0.397852
-0.000527401
8.71933e-05
-0.554818
0.555258
0.00127747
-0.00314656
-0.678042
0.679911
0.00569795
-0.00831426
-0.800015
0.802631
0.0113953
-0.0143429
-0.945778
0.948725
0.0176896
-0.0208125
-1.12169
1.12482
0.0242627
-0.0273744
-1.33291
1.33602
0.0306539
-0.0334322
-1.58672
1.5895
0.0357212
-0.0375333
-1.57883
1.58064
0.0386809
-0.0394078
-1.31483
1.31556
0.039674
-0.0397581
-1.09981
1.09989
0.0397868
-0.0398123
-0.924348
0.924374
0.0398408
-0.0394183
-0.781146
0.780723
0.038303
-0.0356829
-0.647522
0.644902
0.0315363
-0.0252823
-0.483123
0.476869
0.0188418
-0.0120935
-0.288677
0.281928
0.00701307
-0.00298238
-0.125003
0.120973
0.000813364
-0.0193734
0.01856
-0.0298247
0.0302025
-0.000377816
0.00194705
-0.00254089
-0.22681
0.227404
0.00291896
-0.00311265
-0.39767
0.397864
0.00347038
-0.00429588
-0.556164
0.55699
0.00590938
-0.00802059
-0.682098
0.684209
0.0108608
-0.0137687
-0.805242
0.80815
0.0171812
-0.0204319
-0.951592
0.954843
0.0241031
-0.0275049
-1.1279
1.1313
0.0312276
-0.034541
-1.33911
1.34242
0.0379684
-0.0407913
-1.59221
1.59503
0.0430253
-0.0446933
-1.58221
1.58388
0.0456661
-0.0461823
-1.3162
1.31671
0.0462211
-0.0460287
-1.10008
1.09989
0.0458097
-0.0455859
-0.924177
0.923953
0.0453831
-0.0444488
-0.779992
0.779058
0.0428039
-0.0393753
-0.642075
0.638647
0.0344044
-0.0273034
-0.470295
0.463194
0.0202383
-0.0129629
-0.274967
0.267692
0.00751616
-0.00319803
-0.116822
0.112504
0.000872695
-0.0177235
0.0168508
-0.0306567
0.0312134
-0.000556709
0.0032368
-0.00462333
-0.22843
0.229817
0.00592224
-0.00692209
-0.398439
0.399439
0.00803071
-0.00936154
-0.558427
0.559758
0.0113572
-0.0137934
-0.6867
0.689136
0.0170108
-0.0202871
-0.811048
0.814324
0.0241133
-0.0277408
-0.958023
0.961651
0.0318143
-0.0355606
-1.13467
1.13842
0.0396184
-0.0431791
-1.34571
1.34927
0.0467885
-0.0496716
-1.59778
1.60066
0.0518502
-0.0533605
-1.58528
1.58679
0.0541463
-0.0544355
-1.31707
1.31736
0.054226
-0.0537354
-1.09979
1.0993
0.053256
-0.0527587
-0.923455
0.922958
0.0521711
-0.0507601
-0.777905
0.776494
0.0484175
-0.0440142
-0.635
0.630597
0.0380459
-0.0299003
-0.455695
0.44755
0.0220328
-0.0140597
-0.260123
0.25215
0.00813292
-0.00345232
-0.108027
0.103347
0.00093952
-0.0159507
0.0150112
-0.0318562
0.0326428
-0.000786638
0.00479165
-0.00709593
-0.231658
0.233963
0.0094705
-0.0114034
-0.400935
0.402868
0.0133856
-0.015343
-0.56185
0.563808
0.0178554
-0.0207122
-0.692019
0.694876
0.0244211
-0.0281539
-0.817592
0.821325
0.0324904
-0.0365806
-0.965222
0.969312
0.0411446
-0.0453063
-1.14215
1.14631
0.0497622
-0.0536106
-1.35282
1.35667
0.0574254
-0.0603684
-1.60347
1.60641
0.0624734
-0.0637977
-1.58799
1.58932
0.0643601
-0.0643957
-1.31737
1.31741
0.0639169
-0.0630999
-1.09888
1.09806
0.0623398
-0.0615696
-0.922129
0.921358
0.0604929
-0.0584971
-0.774906
0.77291
0.0553075
-0.0496989
-0.625933
0.620325
0.0424998
-0.033059
-0.438907
0.429466
0.0241844
-0.0153372
-0.2438
0.234953
0.00882655
-0.00372562
-0.0984772
0.0933763
0.00100744
-0.014043
0.0130356
-0.033516
0.0346045
-0.00108845
0.00674916
-0.0101526
-0.236733
0.240136
0.0137959
-0.0168105
-0.405446
0.40846
0.0197988
-0.0225101
-0.566723
0.569434
0.0256925
-0.0291068
-0.69827
0.701684
0.0334472
-0.037756
-0.825057
0.829366
0.042722
-0.0473729
-0.973363
0.978014
0.0525202
-0.0571641
-1.15047
1.15511
0.0620672
-0.0662223
-1.36049
1.36465
0.070232
-0.073199
-1.60924
1.61221
0.0751828
-0.0762723
-1.5903
1.59139
0.0765687
-0.0763012
-1.31699
1.31672
0.0755425
-0.0743657
-1.09729
1.09612
0.0733157
-0.072251
-0.920203
0.919139
0.0706104
-0.0678787
-0.770784
0.768052
0.0636067
-0.0564706
-0.614394
0.607258
0.0477376
-0.0366997
-0.419411
0.408373
0.0265964
-0.016709
-0.225649
0.215761
0.00953575
-0.00398774
-0.0880694
0.0825214
0.00106722
-0.0120022
0.010935
-0.0357684
0.0372709
-0.00150246
0.00932184
-0.014088
-0.244003
0.248769
0.0192379
-0.0235021
-0.412332
0.416596
0.0276557
-0.0312767
-0.573374
0.576995
0.0353136
-0.0394619
-0.70574
0.709889
0.044609
-0.0496392
-0.83368
0.83871
0.0553717
-0.0606864
-0.982648
0.987962
0.0665019
-0.0716742
-1.15976
1.16493
0.0770361
-0.0814727
-1.36875
1.37319
0.0856141
-0.0885208
-1.61502
1.61792
0.0902908
-0.091053
-1.59206
1.59282
0.0910277
-0.0904492
-1.31586
1.31528
0.089334
-0.0877731
-1.09498
1.09342
0.086422
-0.0848859
-0.91756
0.916024
0.082737
-0.0789937
-0.765167
0.761423
0.0733436
-0.0642697
-0.599716
0.590643
0.0536239
-0.0406414
-0.39659
0.383607
0.0290892
-0.0180331
-0.205354
0.194298
0.0101675
-0.00419597
-0.0767731
0.0708017
0.00110658
-0.00985022
0.00874364
-0.0388188
0.0409203
-0.00210152
0.012864
-0.0193735
-0.253966
0.260476
0.0263371
-0.0320569
-0.422083
0.427803
0.0375804
-0.0423108
-0.582193
0.586923
0.0474073
-0.0524961
-0.714801
0.71989
0.0586897
-0.0646107
-0.843746
0.849667
0.0712456
-0.0773049
-0.993276
0.999335
0.0838292
-0.0895186
-1.17008
1.17577
0.0952757
-0.0998948
-1.37752
1.38213
0.104023
-0.106714
-1.62059
1.62328
0.108119
-0.10841
-1.59307
1.59336
0.107968
-0.106953
-1.3139
1.31288
0.105465
-0.10353
-1.0919
1.08997
0.101871
-0.0997793
-0.91384
0.911748
0.0970245
-0.0919239
-0.757478
0.752377
0.0844457
-0.0728783
-0.581037
0.56947
0.059855
-0.0445554
-0.369755
0.354455
0.0313722
-0.0191019
-0.182699
0.170429
0.0105958
-0.00429688
-0.0646696
0.0583706
0.00111128
-0.00763419
0.0065229
-0.0430026
0.046028
-0.00302533
0.0180151
-0.0268151
-0.267369
0.276169
0.0360055
-0.043474
-0.435382
0.44285
0.0506169
-0.0566817
-0.593683
0.599748
0.0631845
-0.0695688
-0.725886
0.73227
0.0770065
-0.0839277
-0.855562
0.862483
0.0915256
-0.0983211
-1.00538
1.01218
0.10547
-0.111537
-1.18135
1.18742
0.117478
-0.122052
-1.38651
1.39109
0.125895
-0.128119
-1.62559
1.62781
0.128939
-0.128578
-1.59303
1.59266
0.127584
-0.126025
-1.31093
1.30938
0.124158
-0.12181
-1.08799
1.08564
0.119716
-0.117082
-0.90884
0.906207
0.113388
-0.106457
-0.74696
0.740029
0.0965596
-0.0818095
-0.55721
0.54246
0.0658809
-0.047923
-0.338204
0.320246
0.0330308
-0.0196491
-0.157669
0.144288
0.0106734
-0.00423335
-0.0519953
0.0455553
0.00106741
-0.00542901
0.0043616
-0.0489082
0.0534911
-0.00458294
0.0259812
-0.0378705
-0.285394
0.297283
0.0499357
-0.0597532
-0.453307
0.463125
0.068948
-0.076624
-0.608421
0.616097
0.084827
-0.0927399
-0.739472
0.747385
0.101508
-0.109394
-0.869342
0.877227
0.117804
-0.12511
-1.01886
1.02616
0.132553
-0.138648
-1.19321
1.1993
0.144361
-0.148506
-1.39522
1.39936
0.151651
-0.153061
-1.62947
1.63088
0.152999
-0.151737
-1.59154
1.59028
0.150019
-0.147826
-1.30673
1.30453
0.14552
-0.142702
-1.08312
1.0803
0.140135
-0.136819
-0.902448
0.899131
0.131715
-0.122144
-0.732508
0.722936
0.108985
-0.0902189
-0.526799
0.508033
0.0708572
-0.050046
-0.301377
0.280565
0.0335678
-0.0193967
-0.1306
0.116429
0.0102637
-0.00395874
-0.0391737
0.0328687
0.000963541
-0.00333323
0.00236969
-0.0576495
0.065464
-0.00781447
0.0399194
-0.0563629
-0.310228
0.326671
0.0724786
-0.0854485
-0.477476
0.490446
0.0967904
-0.105999
-0.626923
0.636131
0.115873
-0.125183
-0.755815
0.765126
0.135014
-0.143405
-0.884819
0.89321
0.151996
-0.15918
-1.03307
1.04025
0.166235
-0.171733
-1.2048
1.2103
0.17658
-0.179716
-1.40276
1.4059
0.181608
-0.18173
-1.63147
1.63159
0.180406
-0.177963
-1.58811
1.58567
0.175324
-0.172362
-1.30104
1.29807
0.169541
-0.166182
-1.07712
1.07376
0.163012
-0.158581
-0.894112
0.889681
0.151355
-0.137968
-0.712357
0.69897
0.12038
-0.0967376
-0.488025
0.464383
0.0736949
-0.0502306
-0.259142
0.235678
0.0326072
-0.0182101
-0.102345
0.0879478
0.0093246
-0.003463
-0.0268038
0.0209422
0.0007927
-0.00145615
0.000663448
-0.0727189
0.077116
-0.00439713
0.0305726
-0.0449857
-0.34589
0.360303
0.0594505
-0.0714103
-0.509222
0.521182
0.0822984
-0.0926423
-0.648982
0.659326
0.104429
-0.115323
-0.773777
0.78467
0.1275
-0.138388
-0.900587
0.911475
0.150104
-0.160654
-1.04655
1.0571
0.171898
-0.181763
-1.21478
1.22464
0.191915
-0.200397
-1.40795
1.41643
0.208544
-0.214616
-1.63062
1.63669
0.218632
-0.221265
-1.58211
1.58475
0.222599
-0.223509
-1.29355
1.29446
0.224151
-0.223642
-1.06957
1.06906
0.222145
-0.217124
-0.882489
0.877468
0.20588
-0.18416
-0.683954
0.662234
0.155873
-0.120021
-0.439355
0.403503
0.0875969
-0.0567537
-0.212251
0.181408
0.0352505
-0.0188183
-0.0743704
0.0579382
0.00918233
-0.00319074
-0.0155637
0.0095721
0.000650802
0.000142691
-0.000793493
-0.0848358
0.082926
0.00190975
0.00846943
-0.0179402
-0.377591
0.387062
0.029029
-0.0377791
-0.537997
0.546747
0.0467012
-0.055397
-0.672443
0.681139
0.0661588
-0.0763096
-0.794994
0.805145
0.0872694
-0.0973272
-0.921767
0.931825
0.108139
-0.11754
-1.0674
1.0768
0.12777
-0.136402
-1.23435
1.24299
0.145306
-0.152552
-1.42469
1.43193
0.159185
-0.164047
-1.64222
1.64708
0.16704
-0.168747
-1.58693
1.58864
0.169098
-0.169077
-1.29395
1.29392
0.168946
-0.168088
-1.06644
1.06559
0.165498
-0.158391
-0.867119
0.860012
0.145518
-0.124158
-0.636298
0.614937
0.0997187
-0.0720042
-0.36549
0.337776
0.0496861
-0.030625
-0.151653
0.132592
0.0182663
-0.00939521
-0.0427757
0.0339046
0.00440162
-0.00145814
-0.00386768
0.000924204
0.000259414
0.00163772
-0.00189713
-0.086489
0.0835156
0.00297344
-0.000779555
-0.00476067
-0.399312
0.404852
0.0122058
-0.018745
-0.559578
0.566117
0.0254586
-0.0329561
-0.692448
0.699945
0.0423413
-0.0511763
-0.814231
0.823066
0.060931
-0.0697316
-0.941055
0.949855
0.0789636
-0.087401
-1.08605
1.09449
0.0963965
-0.104117
-1.25123
1.25895
0.111674
-0.117722
-1.43862
1.44467
0.123396
-0.127259
-1.65149
1.65536
0.129348
-0.130255
-1.58992
1.59083
0.130013
-0.129502
-1.29293
1.29241
0.128562
-0.127135
-1.06165
1.06023
0.123877
-0.115842
-0.848791
0.840756
0.103131
-0.0839634
-0.590507
0.57134
0.0642583
-0.0440723
-0.308381
0.288195
0.0295458
-0.0180111
-0.113774
0.10224
0.0107561
-0.00561416
-0.0252253
0.0200834
0.00268211
-0.000912105
0.0021978
-0.00396781
0.000172262
0.0023567
-0.00252896
-0.0852552
0.0823658
0.00288938
-0.00487436
0.00203517
-0.413947
0.416786
0.00285846
-0.0078543
-0.575843
0.580839
0.0135375
-0.0198361
-0.708933
0.715231
0.0279013
-0.0354909
-0.831112
0.838701
0.0438351
-0.0513961
-0.958068
0.965629
0.0597301
-0.0669327
-1.10247
1.10968
0.074811
-0.0811262
-1.26626
1.27257
0.0876685
-0.0928391
-1.45052
1.4557
0.0974185
-0.100167
-1.65893
1.66168
0.101658
-0.102097
-1.59133
1.59177
0.101484
-0.100159
-1.29112
1.28979
0.0987239
-0.0966791
-1.05564
1.0536
0.09292
-0.085236
-0.828864
0.821181
0.0736004
-0.0578385
-0.549718
0.533956
0.0430144
-0.0292242
-0.267061
0.253271
0.019813
-0.0125078
-0.0900871
0.082782
0.00780855
-0.00431701
-0.0144324
0.0109409
0.00219247
-0.000803738
0.00609289
-0.00748162
0.000172193
0.00284695
-0.00301914
-0.0836803
0.081068
0.00261234
-0.00641664
0.00528794
-0.423815
0.424943
-0.00160332
-0.00215117
-0.588908
0.592663
0.00669772
-0.0123546
-0.722782
0.728439
0.0191153
-0.0257544
-0.845463
0.852102
0.0329605
-0.0395108
-0.972689
0.979239
0.0466479
-0.0530044
-1.11671
1.12307
0.0596692
-0.065341
-1.27871
1.28438
0.0708997
-0.075205
-1.46047
1.46477
0.0788695
-0.0808382
-1.6643
1.66627
0.0816643
-0.0813334
-1.59156
1.59123
0.0803085
-0.0786989
-1.28804
1.28643
0.0768203
-0.0740894
-1.04887
1.04614
0.0702996
-0.0632749
-0.809601
0.802576
0.053555
-0.041165
-0.516143
0.503753
0.0304651
-0.0211268
-0.238224
0.228886
0.0148518
-0.00996315
-0.0746121
0.0697235
0.00663795
-0.00393051
-0.00680713
0.00409969
0.00214267
-0.000843414
0.0092269
-0.0105262
0.000204635
0.00329824
-0.00350288
-0.0821112
0.0798218
0.00228945
-0.00665651
0.00615107
-0.430563
0.431069
-0.00394082
0.000900821
-0.598986
0.602026
0.00345107
-0.00825457
-0.73447
0.739273
0.0140172
-0.0197276
-0.85783
0.863541
0.0260586
-0.0318416
-0.985381
0.991164
0.0382638
-0.0437541
-1.12909
1.13458
0.0496093
-0.0545561
-1.2897
1.29464
0.0592727
-0.0628154
-1.46873
1.47227
0.0656294
-0.0672332
-1.6681
1.66971
0.0673667
-0.0666061
-1.59043
1.58967
0.0651188
-0.0630474
-1.28434
1.28227
0.0609869
-0.0577053
-1.04144
1.03816
0.0537975
-0.0476643
-0.791917
0.785784
0.0397241
-0.0302966
-0.489492
0.480065
0.0227233
-0.0164025
-0.218244
0.211923
0.0122639
-0.00884735
-0.0638789
0.0604623
0.00628134
-0.00398109
-0.000760021
-0.00154023
0.00230119
-0.000974178
0.0121236
-0.0134507
0.000257534
0.00377199
-0.00402953
-0.0807873
0.0789415
0.00184583
-0.00606322
0.00602579
-0.435441
0.435478
-0.00426157
0.00200427
-0.607673
0.60993
0.00197005
-0.00626427
-0.744499
0.748794
0.0116306
-0.0164821
-0.868764
0.873615
0.021953
-0.0269848
-0.996854
1.00189
0.0329124
-0.0377489
-1.14003
1.14487
0.0427819
-0.0472073
-1.29932
1.30374
0.0516564
-0.0545834
-1.47572
1.47864
0.0568628
-0.0577467
-1.6708
1.67168
0.0575979
-0.0560255
-1.58857
1.587
0.0542651
-0.0519122
-1.27974
1.27739
0.0493319
-0.0459053
-1.0335
1.03008
0.041891
-0.0362547
-0.776028
0.770392
0.0300324
-0.0228722
-0.468664
0.461504
0.0175346
-0.0134139
-0.204359
0.200239
0.0106218
-0.00817124
-0.0561256
0.053675
0.00615329
-0.00413929
0.00441481
-0.00642881
0.00252031
-0.00113285
0.0150324
-0.0164198
0.000324994
0.0043187
-0.00464369
-0.0798978
0.0784047
0.00149309
-0.00519519
0.00542119
-0.439094
0.438868
-0.00389499
0.00183332
-0.615077
0.617139
0.00182453
-0.00562254
-0.753354
0.757152
0.0101455
-0.014704
-0.878348
0.882906
0.0196329
-0.0246498
-1.00665
1.01166
0.0296149
-0.0340339
-1.14973
1.15415
0.0389064
-0.0427694
-1.30793
1.3118
0.0463017
-0.0491825
-1.48134
1.48422
0.051024
-0.0515244
-1.67247
1.67297
0.0507803
-0.0489632
-1.58544
1.58362
0.0467764
-0.0439302
-1.27438
1.27154
0.0410042
-0.0371564
-1.02537
1.02152
0.0330208
-0.0280161
-0.76167
0.756666
0.0226678
-0.0172937
-0.452435
0.447061
0.0136112
-0.0108521
-0.194847
0.192088
0.00900833
-0.00732135
-0.0503678
0.0486808
0.0057842
-0.00409778
0.00892335
-0.0106098
0.00261533
-0.00123886
0.0179804
-0.0193568
0.000382292
0.0049652
-0.00534749
-0.0795062
0.0782177
0.00128851
-0.00404941
0.00412822
-0.442129
0.44205
-0.0029025
0.000947444
-0.621688
0.623643
0.00235501
-0.00594842
-0.761421
0.765014
0.0101786
-0.0142072
-0.887196
0.891225
0.0191154
-0.0231608
-1.01601
1.02006
0.0278996
-0.0319303
-1.15865
1.16268
0.0364058
-0.0401581
-1.31552
1.31927
0.0435882
-0.0457924
-1.48669
1.4889
0.0473708
-0.0475855
-1.67319
1.6734
0.0467328
-0.0443584
-1.58144
1.57906
0.0418089
-0.0384872
-1.26845
1.26513
0.0351679
-0.0308297
-1.01651
1.01217
0.0265644
-0.0216532
-0.748582
0.743671
0.0170864
-0.0128062
-0.439779
0.435499
0.0100657
-0.0082887
-0.188133
0.186356
0.00707807
-0.00598547
-0.046148
0.0450554
0.00493363
-0.00366345
0.0126717
-0.0139419
0.002435
-0.00122583
0.0207662
-0.0219754
0.000400094
0.00566942
-0.00606951
-0.0793674
0.078414
0.000953388
-0.00298267
0.00264534
-0.445049
0.445386
-0.00165983
-0.000287086
-0.627383
0.62933
0.00318802
-0.00657619
-0.768769
0.772157
0.010532
-0.014592
-0.895065
0.899124
0.0187372
-0.0228185
-1.02425
1.02833
0.0273456
-0.0309708
-1.16706
1.17069
0.0352974
-0.0387321
-1.3227
1.32614
0.041849
-0.0441863
-1.49137
1.4937
0.0456986
-0.0455492
-1.67343
1.67328
0.0441861
-0.0417155
-1.57659
1.57412
0.0389469
-0.0351353
-1.26131
1.2575
0.0312975
-0.0267497
-1.00699
1.00245
0.0218028
-0.0170544
-0.735971
0.731223
0.0128893
-0.00920224
-0.429454
0.425767
0.00707878
-0.00572525
-0.183209
0.181856
0.00494644
-0.00429102
-0.0431724
0.042517
0.00367476
-0.00286195
0.0154758
-0.0162886
0.00200217
-0.00106963
0.023114
-0.0240465
0.000377575
0.00634386
-0.00672144
-0.0796253
0.0788503
0.000775013
-0.00206053
0.00180237
-0.448036
0.448294
-0.000350174
-0.00138829
-0.633008
0.634747
0.00441133
-0.00760904
-0.775449
0.778647
0.011327
-0.0148908
-0.902801
0.906365
0.0190613
-0.0227069
-1.03235
1.036
0.0270335
-0.0309534
-1.1747
1.17862
0.034696
-0.0382331
-1.32951
1.33304
0.0414696
-0.0435344
-1.49577
1.49783
0.0449246
-0.0449815
-1.67313
1.67319
0.0433991
-0.0407918
-1.57121
1.5686
0.037517
-0.033392
-1.25337
1.24925
0.0292926
-0.0242056
-0.996839
0.991752
0.0190857
-0.014032
-0.723754
0.718701
0.00996391
-0.00654017
-0.420176
0.416753
0.00457207
-0.0034373
-0.179275
0.17814
0.00284052
-0.00250387
-0.0411187
0.040782
0.00224624
-0.00187744
0.0172871
-0.0176559
0.00140168
-0.000813877
0.0248139
-0.0254017
0.000312738
0.0069132
-0.00722593
-0.0801821
0.0795846
0.000597523
-0.00100682
0.00059621
-0.451081
0.451491
0.000669579
-0.00267641
-0.63812
0.640126
0.005596
-0.00859226
-0.781756
0.784752
0.0123334
-0.0156796
-0.909867
0.913213
0.0196039
-0.0232831
-1.04008
1.04376
0.0273963
-0.0311481
-1.18231
1.18607
0.0349454
-0.0383184
-1.33639
1.33976
0.0414777
-0.044007
-1.50004
1.50257
0.0454167
-0.0452643
-1.67295
1.67279
0.0437798
-0.0408028
-1.56558
1.5626
0.0374537
-0.0332014
-1.24473
1.24048
0.0285574
-0.0231177
-0.985862
0.980422
0.0177289
-0.0122299
-0.711402
0.705903
0.00812143
-0.0046735
-0.411569
0.408121
0.0027697
-0.00158612
-0.175792
0.174609
0.00108297
-0.000917423
-0.0397117
0.0395461
0.000910413
-0.000893383
0.0182049
-0.018222
0.000760856
-0.00051389
0.0257807
-0.0260277
0.00023332
0.007313
-0.00754632
-0.080981
0.0805097
0.000471249
-0.000141934
-0.000369075
-0.45423
0.454741
0.00168692
-0.00371433