/*--------------------------------*- C++ -*----------------------------------*\
  =========                 |
  \\      /  F ield         | OpenFOAM: The Open Source CFD Toolbox
   \\    /   O peration     | Website:  https://openfoam.org
    \\  /    A nd           | Version:  6
     \\/     M anipulation  |
\*---------------------------------------------------------------------------*/
FoamFile
{
    version     2.0;
    format      ascii;
    class       surfaceScalarField;
    location    "68.4";
    object      phi;
}
// * * * * * * * * * * * * * * * * * * * * * * * * * * * * * * * * * * * * * //

dimensions      [0 3 -1 0 0 0 0];

internalField   nonuniform List<scalar> 
17370
(
-0.0900008
0.0898502
0.289161
-0.0714642
0.0537546
0.364485
-0.0381218
0.027693
0.426597
-0.0196417
0.0146092
0.504284
-0.010768
0.00827851
0.601892
-0.00627976
0.00490394
0.720433
-0.00374044
0.00289996
0.863747
-0.0021583
0.0015989
1.03601
-0.00108188
0.000668943
1.24292
-0.000260529
-0.000132238
1.49158
0.000511788
-0.00092168
1.4916
0.00131973
-0.00181039
1.24318
0.00234046
-0.00304859
1.03635
0.00386273
-0.0050058
0.86405
0.00637071
-0.00836265
0.721049
0.0108472
-0.0146826
0.60305
0.0197093
-0.0277538
0.507484
0.0381761
-0.0538006
0.431793
0.0715019
-0.0898754
0.365149
0.0900159
0.198995
-0.128135
0.0882238
0.0399111
-0.364597
0.353375
-0.074676
0.0858978
-0.446475
0.454318
-0.0843962
0.0765531
-0.52119
0.5299
-0.068457
0.059747
-0.612788
0.621566
-0.0515594
0.0427815
-0.726893
0.734161
-0.0353223
0.0280545
-0.867474
0.872589
-0.0224548
0.0173401
-1.03847
1.04192
-0.0135308
0.0100814
-1.2446
1.24703
-0.00747077
0.00503791
-1.49262
1.4946
-0.00309042
0.00111264
-1.4925
1.49423
0.000566479
-0.00229152
-1.24398
1.24586
0.00419486
-0.00607975
-1.03751
1.04004
0.0084377
-0.0109695
-0.866101
0.86983
0.0143259
-0.0180545
-0.724392
0.729935
0.0230932
-0.0286359
-0.608699
0.616113
0.0358508
-0.0432652
-0.514898
0.523042
0.0519951
-0.0601393
-0.439857
0.447916
0.0688029
-0.076862
-0.375296
0.376741
0.0846613
-0.0861059
-0.257331
0.22248
0.0748174
-0.039966
-0.0685158
0.0586889
0.00982692
-0.0518177
0.0584027
-0.374124
0.367539
-0.0574884
0.0537373
-0.453592
0.457344
-0.0486484
0.0446973
-0.527945
0.531896
-0.0408592
0.0372218
-0.621561
0.625198
-0.0331217
0.0290472
-0.735346
0.73942
-0.0244779
0.0203192
-0.874338
0.878496
-0.0159737
0.0122799
-1.04349
1.04718
-0.00854214
0.0053685
-1.24856
1.25173
-0.00203883
-0.00103564
-1.49666
1.49973
0.00408419
-0.00735096
-1.4972
1.50047
0.0104321
-0.01404
-1.25007
1.25368
0.0176002
-0.0217914
-1.04593
1.05012
0.0258156
-0.030253
-0.877765
0.882203
0.034223
-0.0382215
-0.739903
0.743901
0.041773
-0.0455215
-0.626777
0.630525
0.0493953
-0.0544101
-0.534813
0.539827
0.0580807
-0.0588936
-0.457476
0.458289
0.0521899
-0.0319887
-0.335754
0.315553
0.00988764
-0.0683481
0.0584604
-0.0529374
0.0489413
0.00399614
-0.0331661
0.0437131
-0.358104
0.347557
-0.0474128
0.0467863
-0.459281
0.459908
-0.0437313
0.0403793
-0.535798
0.53915
-0.0366079
0.0333051
-0.628523
0.631826
-0.0298686
0.0268382
-0.742642
0.745673
-0.0235811
0.0204756
-0.882013
0.885119
-0.0169462
0.013567
-1.05077
1.05415
-0.0097734
0.00623399
-1.25517
1.2587
-0.00226364
-0.00153473
-1.50324
1.50704
0.00530099
-0.0091757
-1.50414
1.50801
0.0125855
-0.0162008
-1.25742
1.26104
0.0193948
-0.0227085
-1.05392
1.05724
0.0256228
-0.0286889
-0.885697
0.888763
0.0315652
-0.0348507
-0.747163
0.750448
0.038027
-0.0416687
-0.634311
0.637953
0.0449091
-0.0478368
-0.544139
0.547066
0.0483293
-0.0444412
-0.456577
0.452689
0.0336698
-0.0162203
-0.296189
0.27874
0.00407142
-0.0526412
0.0485698
-0.045863
0.0433671
0.00249589
-0.0228098
0.03319
-0.336866
0.326486
-0.0390128
0.0400306
-0.459591
0.458574
-0.0388415
0.0365556
-0.541868
0.544154
-0.0338894
0.0312946
-0.634875
0.63747
-0.0282327
0.0253348
-0.748716
0.751614
-0.0220716
0.0190793
-0.88807
0.891062
-0.0157757
0.0126775
-1.05728
1.06037
-0.00915226
0.00574357
-1.26216
1.26557
-0.00177999
-0.00210476
-1.51092
1.51481
0.00594689
-0.00978342
-1.51191
1.51574
0.0130208
-0.0163118
-1.26447
1.26776
0.0191669
-0.0221866
-1.06034
1.06336
0.0249258
-0.0279338
-0.891821
0.894829
0.0306231
-0.0334784
-0.753656
0.756511
0.0359
-0.0383908
-0.64102
0.643511
0.0405256
-0.0415167
-0.548871
0.549862
0.0402919
-0.034167
-0.447409
0.441284
0.0234568
-0.0102368
-0.26352
0.2503
0.00258884
-0.045407
0.0428182
-0.0412917
0.0395244
0.00176731
-0.0167486
0.0260006
-0.316632
0.30738
-0.0326072
0.0347478
-0.456973
0.454832
-0.0343275
0.0326577
-0.546131
0.547801
-0.0304779
0.0283837
-0.639774
0.641868
-0.0259538
0.023558
-0.754257
0.756653
-0.0207017
0.0179143
-0.893955
0.896742
-0.0146795
0.0116112
-1.06342
1.06649
-0.0081213
0.00479548
-1.26889
1.27221
-0.000962195
-0.00277146
-1.51859
1.52233
0.00645059
-0.0101219
-1.51948
1.52315
0.01323
-0.0164229
-1.27101
1.2742
0.0191823
-0.0220543
-1.06639
1.06926
0.0245157
-0.0270417
-0.897648
0.900174
0.0291669
-0.0313298
-0.758961
0.761124
0.0332024
-0.0351569
-0.645666
0.64762
0.0366077
-0.036759
-0.550379
0.550531
0.0343009
-0.0272523
-0.434616
0.427568
0.017556
-0.00740855
-0.238766
0.228619
0.00188086
-0.0406394
0.0387585
-0.0380022
0.036673
0.00132917
-0.0127857
0.0207303
-0.298787
0.290843
-0.0274796
0.0304015
-0.452272
0.44935
-0.0306055
0.0294856
-0.54923
0.55035
-0.0274922
0.0255757
-0.643902
0.645818
-0.0233761
0.0212393
-0.758889
0.761026
-0.0187247
0.0162415
-0.899314
0.901797
-0.0132993
0.0104199
-1.06942
1.0723
-0.0070574
0.00381495
-1.27547
1.27871
-6.56686e-05
-0.00356494
-1.52598
1.52961
0.00712743
-0.0106735
-1.52674
1.53029
0.0136436
-0.0166362
-1.27732
1.28031
0.0191313
-0.0216216
-1.072
1.07449
0.0236965
-0.0257953
-0.902467
0.904566
0.0275897
-0.0294497
-0.763109
0.764968
0.0310858
-0.032806
-0.649439
0.651159
0.0336063
-0.0330257
-0.550321
0.54974
0.0296497
-0.0222953
-0.42031
0.412955
0.0137798
-0.00574525
-0.219629
0.211595
0.00146732
-0.0371103
0.035643
-0.0355122
0.0344882
0.00102394
-0.00998637
0.0166977
-0.283541
0.276829
-0.0231771
0.0265475
-0.446185
0.442814
-0.0273264
0.0266243
-0.551254
0.551956
-0.0248635
0.0230773
-0.647712
0.649498
-0.0210054
0.0189876
-0.763096
0.765114
-0.0166148
0.0142864
-0.904133
0.906461
-0.0115457
0.0088577
-1.07501
1.0777
-0.00569578
0.00260688
-1.28184
1.28493
0.00100711
-0.00452166
-1.53316
1.53668
0.00795186
-0.0113136
-1.53374
1.5371
0.0140645
-0.0167674
-1.28317
1.28587
0.0189791
-0.0211603
-1.07686
1.07904
0.0229842
-0.0248439
-0.906551
0.908411
0.0264384
-0.0280894
-0.766716
0.768367
0.0295282
-0.030912
-0.652735
0.654118
0.0312181
-0.0299043
-0.548808
0.547494
0.0259084
-0.0186328
-0.405615
0.39834
0.0112042
-0.00464332
-0.204367
0.197806
0.00119189
-0.0343291
0.0331373
-0.0335897
0.0327927
0.00079698
-0.00790968
0.0135457
-0.270686
0.26505
-0.019536
0.0231001
-0.439338
0.435774
-0.0243534
0.0238977
-0.552569
0.553025
-0.0224024
0.020725
-0.651279
0.652956
-0.0187468
0.0168135
-0.767081
0.769014
-0.0145313
0.0122889
-0.908679
0.910921
-0.00965008
0.00707198
-1.08026
1.08284
-0.0040517
0.00110621
-1.28789
1.29084
0.00233725
-0.00567997
-1.54008
1.54342
0.00891947
-0.0120545
-1.54033
1.54346
0.0145874
-0.0170483
-1.28846
1.29092
0.0190452
-0.0209982
-1.08118
1.08313
0.0226198
-0.0242696
-0.910182
0.911831
0.025681
-0.027139
-0.769914
0.771372
0.0283817
-0.0293867
-0.655298
0.656303
0.029318
-0.0273354
-0.545848
0.543866
0.0229361
-0.0159247
-0.391192
0.38418
0.00939799
-0.00388163
-0.191817
0.186301
0.00100107
-0.0320528
0.0310517
-0.0320935
0.0314727
0.000620788
-0.00630575
0.0110231
-0.259902
0.255185
-0.0164193
0.0199798
-0.432213
0.428652
-0.021553
0.0213215
-0.553406
0.553638
-0.0200565
0.0184355
-0.654651
0.656272
-0.0165105
0.0146243
-0.770911
0.772798
-0.012399
0.0102143
-0.913058
0.915243
-0.00764427
0.005137
-1.0853
1.08781
-0.00220796
-0.000631343
-1.29367
1.29651
0.00392171
-0.00708462
-1.54664
1.5498
0.0101217
-0.0130364
-1.54646
1.54938
0.0153735
-0.0176224
-1.29328
1.29553
0.0194215
-0.0211549
-1.08506
1.0868
0.0225825
-0.0240363
-0.913399
0.914853
0.0252844
-0.0265705
-0.772734
0.77402
0.0276711
-0.0282569
-0.657095
0.65768
0.027816
-0.025269
-0.541615
0.539068
0.0206211
-0.0139376
-0.377342
0.370659
0.00812143
-0.00335043
-0.181195
0.176424
0.000868602
-0.0301268
0.0292582
-0.0309321
0.0304542
0.000477852
-0.00501334
0.00893825
-0.250891
0.246966
-0.0136968
0.0171059
-0.425178
0.421768
-0.01886
0.0188178
-0.55382
0.553862
-0.017744
0.0161571
-0.657941
0.659528
-0.0142533
0.0123817
-0.774658
0.77653
-0.0101751
0.00801398
-0.917326
0.919487
-0.00547928
0.00301538
-1.09021
1.09267
-0.000150241
-0.00260952
-1.29925
1.30201
0.00578096
-0.00879712
-1.55285
1.55587
0.0116603
-0.0143759
-1.55216
1.55488
0.0165284
-0.0185734
-1.29768
1.29972
0.0201812
-0.0216997
-1.08853
1.09005
0.0229406
-0.0242113
-0.916227
0.917498
0.0253094
-0.0264349
-0.775216
0.776341
0.0273337
-0.0275527
-0.658078
0.658297
0.0267024
-0.0236749
-0.536294
0.533267
0.0188736
-0.012507
-0.364152
0.357785
0.00722988
-0.00298616
-0.171949
0.167705
0.000779375
-0.0284434
0.027664
-0.0300448
0.029688
0.000356781
-0.00392943
0.00715774
-0.243415
0.240187
-0.0112669
0.0144146
-0.418508
0.41536
-0.0162228
0.0163338
-0.553879
0.553768
-0.0153379
0.013823
-0.661149
0.662664
-0.0119115
0.0100193
-0.778387
0.78028
-0.00778949
0.00561496
-0.921554
0.923728
-0.0030796
0.00063068
-1.09503
1.09748
0.00219889
-0.00490553
-1.30467
1.30738
0.00798933
-0.0108878
-1.55879
1.56169
0.0135997
-0.0161268
-1.55747
1.56
0.0180934
-0.0199283
-1.30166
1.30349
0.0213416
-0.0226475
-1.09159
1.0929
0.0237085
-0.0248063
-0.918692
0.91979
0.0257616
-0.0267204
-0.77737
0.778329
0.0273627
-0.0272907
-0.658385
0.658313
0.0259985
-0.0225415
-0.530036
0.526579
0.0176295
-0.0115228
-0.351574
0.345468
0.00663352
-0.0027491
-0.16367
0.159786
0.000723333
-0.0269218
0.0261985
-0.0293926
0.029144
0.000248633
-0.00297836
0.00557768
-0.237297
0.234698
-0.00903841
0.0118424
-0.412408
0.409604
-0.0135906
0.013779
-0.55368
0.553491
-0.012822
0.0113436
-0.664239
0.665718
-0.00939939
0.00745838
-0.782164
0.784105
-0.00517305
0.00295307
-0.92581
0.92803
-0.0003769
-0.00209664
-1.09984
1.10231
0.0049324
-0.00761773
-1.31
1.31269
0.0106399
-0.013438
-1.56449
1.56728
0.0160122
-0.0183648
-1.5624
1.56475
0.0201593
-0.0217975
-1.30522
1.30686
0.0230203
-0.0241093
-1.09426
1.09534
0.0249825
-0.0259003
-0.920809
0.921727
0.0267097
-0.0275028
-0.779176
0.779969
0.0278551
-0.027491
-0.658096
0.657732
0.0257444
-0.0218664
-0.522934
0.519056
0.0168408
-0.0109089
-0.339483
0.333551
0.00627338
-0.00261315
-0.156042
0.152382
0.000693844
-0.0254993
0.0248055
-0.0289538
0.0288081
0.000145686
-0.00209604
0.00410417
-0.232417
0.230409
-0.00691134
0.00930194
-0.407034
0.404644
-0.0108839
0.0110742
-0.553376
0.553185
-0.010127
0.0086523
-0.667288
0.668763
-0.00665195
0.00463347
-0.78604
0.788058
-0.00225428
-4.90772e-05
-0.93016
0.932463
0.00270709
-0.00524015
-1.1047
1.10723
0.00811876
-0.0108165
-1.31529
1.31799
0.0138139
-0.0165418
-1.56999
1.57272
0.0189981
-0.0211851
-1.56698
1.56917
0.0228084
-0.0242453
-1.30838
1.30982
0.02527
-0.0261272
-1.09652
1.09738
0.0268017
-0.0275272
-0.922552
0.923277
0.0281837
-0.0288311
-0.780625
0.781272
0.0288656
-0.028115
-0.65716
0.656409
0.0259111
-0.0216184
-0.515018
0.510726
0.0164546
-0.0106034
-0.327701
0.321849
0.00610447
-0.00255812
-0.148807
0.145261
0.000685428
-0.0241256
0.0234401
-0.0287208
0.0286793
4.15195e-05
-0.00123493
0.00266605
-0.22871
0.227279
-0.00480591
0.00671938
-0.402523
0.40061
-0.00803016
0.00813683
-0.553126
0.55302
-0.00714672
0.00563214
-0.670367
0.671882
-0.00353005
0.001397
-0.790075
0.792208
0.00111594
-0.00353733
-0.934676
0.937098
0.00631513
-0.00894435
-1.10968
1.11231
0.0119063
-0.014649
-1.32062
1.32336
0.0176459
-0.0203146
-1.57536
1.57803
0.0226573
-0.0246818
-1.57123
1.57325
0.0261367
-0.0273734
-1.31112
1.31236
0.0281935
-0.0288152
-1.09836
1.09898
0.0292809
-0.0297979
-0.92391
0.924427
0.0302857
-0.0307175
-0.781701
0.782133
0.0304734
-0.0292475
-0.655451
0.654226
0.0265571
-0.021818
-0.506279
0.50154
0.0164575
-0.0105772
-0.316032
0.310152
0.00610407
-0.00257404
-0.141752
0.138222
0.00069568
-0.0227599
0.0220643
-0.0286969
0.0287631
-6.6152e-05
-0.000353484
0.00119963
-0.226157
0.225311
-0.00264353
0.00401507
-0.399
0.397629
-0.0049541
0.00489469
-0.553108
0.553167
-0.0038076
0.00219926
-0.673575
0.675183
3.48614e-05
-0.00231899
-0.794341
0.796625
0.00501031
-0.00759534
-0.939429
0.942014
0.0105465
-0.0133195
-1.11487
1.11764
0.016412
-0.0192381
-1.32604
1.32887
0.0222731
-0.0249128
-1.58062
1.58326
0.0271596
-0.029021
-1.57514
1.577
0.0302956
-0.0313186
-1.31344
1.31447
0.0319294
-0.0323089
-1.09975
1.10013
0.0325602
-0.0328562
-0.924844
0.92514
0.0331484
-0.0332829
-0.782245
0.782379
0.0327297
-0.0309588
-0.652808
0.651037
0.0277255
-0.0224813
-0.496641
0.491397
0.0168431
-0.0108139
-0.304254
0.298225
0.00625868
-0.00265442
-0.134688
0.131083
0.000722694
-0.0213661
0.0206434
-0.0288982
0.0290835
-0.000185229
0.00057663
-0.000351939
-0.224784
0.22456
-0.000344986
0.00109353
-0.39659
0.395841
-0.00154811
0.00122951
-0.553495
0.553813
2.21009e-05
-0.00177953
-0.677021
0.678778
0.00419509
-0.00667856
-0.798911
0.801394
0.00960409
-0.0124018
-0.944513
0.947311
0.0155753
-0.0185338
-1.12035
1.12331
0.0218013
-0.0247494
-1.33164
1.33459
0.0278593
-0.0304939
-1.58583
1.58846
0.0326567
-0.0343553
-1.57872
1.58042
0.0354438
-0.036229
-1.31531
1.31609
0.0366095
-0.0367296
-1.10065
1.10077
0.0367478
-0.0368076
-0.925318
0.925378
0.0369043
-0.0366533
-0.782144
0.781893
0.0357096
-0.0333205
-0.649097
0.646708
0.0294714
-0.0236324
-0.485972
0.480133
0.0176108
-0.0113015
-0.292119
0.28581
0.00655702
-0.00279319
-0.127433
0.123669
0.000764549
-0.0199114
0.0191468
-0.0293529
0.029686
-0.000333082
0.00161177
-0.0020274
-0.224682
0.225097
0.00217329
-0.0021435
-0.395443
0.395413
0.00230381
-0.00299035
-0.554505
0.555191
0.00447788
-0.0064529
-0.680829
0.682804
0.00912928
-0.0118754
-0.803881
0.806627
0.0150974
-0.0181625
-0.950023
0.953088
0.0216191
-0.0248169
-1.12621
1.1294
0.0283098
-0.0314113
-1.33749
1.34059
0.0346101
-0.0372337
-1.59102
1.59364
0.0392931
-0.0408064
-1.58196
1.58347
0.0416976
-0.0422513
-1.31666
1.31721
0.0423997
-0.0422376
-1.10101
1.10085
0.0419978
-0.0418034
-0.925279
0.925085
0.041686
-0.0409564
-0.781238
0.780509
0.0395367
-0.036424
-0.644167
0.641055
0.0318527
-0.0252934
-0.474078
0.467518
0.0187604
-0.0120293
-0.279362
0.272631
0.00698841
-0.00298409
-0.119821
0.115816
0.000819047
-0.0183671
0.0175481
-0.0300905
0.0306
-0.000509472
0.00289448
-0.00407205
-0.225918
0.227095
0.0050843
-0.00585427
-0.395748
0.396518
0.0067425
-0.00789667
-0.556379
0.557534
0.00971531
-0.0119746
-0.685138
0.687397
0.0149838
-0.0180601
-0.809374
0.812451
0.0216559
-0.0250613
-0.956078
0.959484
0.0288776
-0.0323769
-1.13256
1.13606
0.0361536
-0.039454
-1.34365
1.34695
0.0427828
-0.0454184
-1.59619
1.59882
0.0473753
-0.0486804
-1.5848
1.58611
0.049324
-0.0496161
-1.31748
1.31777
0.0495029
-0.049033
-1.10078
1.10031
0.0485163
-0.0480483
-0.924668
0.9242
0.0475892
-0.0464008
-0.779412
0.778223
0.0443488
-0.0403702
-0.637793
0.633814
0.0349347
-0.0274922
-0.460693
0.45325
0.0202947
-0.0129876
-0.265694
0.258387
0.00754183
-0.00322019
-0.111691
0.10737
0.000883679
-0.0167092
0.0158256
-0.031185
0.0319161
-0.000731041
0.00439593
-0.00645437
-0.228695
0.230753
0.00855122
-0.0102297
-0.397732
0.399411
0.0119497
-0.0136949
-0.559362
0.561107
0.0159901
-0.0186349
-0.690091
0.692736
0.0220859
-0.025579
-0.815528
0.819021
0.0296369
-0.0334552
-0.962823
0.966641
0.0377016
-0.0415583
-1.13952
1.14338
0.0456687
-0.0491975
-1.35021
1.35374
0.0526637
-0.0552942
-1.60137
1.604
0.0571153
-0.0581701
-1.58722
1.58827
0.0585302
-0.0585193
-1.31769
1.31768
0.0581141
-0.0573074
-1.0999
1.09909
0.0564864
-0.0557151
-0.923431
0.92266
0.0548399
-0.0531125
-0.7767
0.774972
0.0502896
-0.0452546
-0.629679
0.624644
0.0387663
-0.0302338
-0.445476
0.436943
0.022195
-0.0141495
-0.250802
0.242756
0.00819429
-0.00348854
-0.102895
0.0981895
0.000954015
-0.0149193
0.0139653
-0.0327182
0.0337411
-0.00102288
0.00629501
-0.00941519
-0.233261
0.236381
0.0127611
-0.015503
-0.40166
0.404402
0.0181994
-0.0206679
-0.563738
0.566206
0.0235893
-0.0267541
-0.695907
0.699072
0.0307879
-0.0348062
-0.822527
0.826545
0.0394345
-0.0437554
-0.970405
0.974726
0.0485167
-0.0527889
-1.1472
1.15147
0.0572663
-0.0610215
-1.35721
1.36096
0.0645893
-0.0671574
-1.60649
1.60906
0.0687752
-0.0695114
-1.5891
1.58983
0.069527
-0.0691524
-1.31717
1.31679
0.0684393
-0.0672594
-1.09827
1.09709
0.0660959
-0.0650216
-0.921517
0.920443
0.0636083
-0.0612469
-0.772928
0.770567
0.0574796
-0.0511424
-0.619439
0.613102
0.0433618
-0.0334895
-0.428003
0.418131
0.0244123
-0.0154647
-0.234363
0.225416
0.00890734
-0.00376887
-0.0933073
0.0881688
0.00102345
-0.012989
0.0119655
-0.0348203
0.0362448
-0.00142455
0.00877096
-0.0132507
-0.239942
0.244421
0.0180863
-0.0220597
-0.407903
0.411876
0.0258869
-0.0292233
-0.569839
0.573175
0.0329425
-0.0367795
-0.702867
0.706704
0.0415548
-0.0462327
-0.830579
0.835257
0.051558
-0.0564763
-0.979011
0.983929
0.0618288
-0.0665539
-1.15572
1.16044
0.0714037
-0.07536
-1.36463
1.36859
0.0789691
-0.0813901
-1.61145
1.61387
0.0827083
-0.0830227
-1.59028
1.59059
0.082623
-0.0817738
-1.31579
1.31494
0.0806863
-0.0791148
-1.09581
1.09424
0.077619
-0.0761086
-0.918885
0.917375
0.0741787
-0.0709535
-0.767856
0.764631
0.0660037
-0.0580444
-0.606561
0.598602
0.04867
-0.0371646
-0.407767
0.396261
0.0268415
-0.0168431
-0.216061
0.206062
0.00961829
-0.00403056
-0.0828455
0.0772578
0.00108259
-0.0109243
0.00984172
-0.0376871
0.0396888
-0.00200166
0.0122271
-0.0184247
-0.249264
0.255462
0.0250544
-0.0304661
-0.416953
0.422365
0.0356311
-0.040035
-0.57805
0.582453
0.0447711
-0.049491
-0.711298
0.716018
0.0552232
-0.0607124
-0.839945
0.845434
0.0668539
-0.0724345
-0.988819
0.9944
0.0783992
-0.0835494
-1.1651
1.17025
0.0886905
-0.09273
-1.37238
1.37642
0.096211
-0.0983072
-1.61601
1.61811
0.0991577
-0.0989068
-1.59053
1.59028
0.0980063
-0.0965948
-1.3134
1.31199
0.0950718
-0.0930772
-1.09244
1.09044
0.0912042
-0.0891359
-0.915236
0.913168
0.0866514
-0.082317
-0.760983
0.756649
0.0758725
-0.0658798
-0.590376
0.580383
0.0545421
-0.041073
-0.384186
0.370717
0.029303
-0.018146
-0.195622
0.184465
0.010237
-0.00423239
-0.0715005
0.0654959
0.00111955
-0.00875106
0.00763151
-0.0416445
0.0445355
-0.002891
0.0172559
-0.0257116
-0.261954
0.270409
0.0345522
-0.0416859
-0.429487
0.436621
0.0484641
-0.0541615
-0.588874
0.594571
0.0602208
-0.0661016
-0.721645
0.727525
0.0730283
-0.0794592
-0.850908
0.857339
0.0864767
-0.092702
-0.999932
1.00616
0.0991857
-0.104613
-1.17526
1.18068
0.109822
-0.113704
-1.38017
1.38405
0.11677
-0.118278
-1.61978
1.62129
0.118422
-0.117396
-1.58954
1.58851
0.115831
-0.113764
-1.30982
1.30776
0.11173
-0.109287
-1.08806
1.08562
0.107023
-0.104285
-0.910315
0.907578
0.101076
-0.0952765
-0.751748
0.745948
0.0869139
-0.0743794
-0.570019
0.557484
0.0606535
-0.0448864
-0.356638
0.340871
0.031514
-0.0191731
-0.172885
0.160544
0.0106419
-0.00432208
-0.059373
0.0530532
0.0011199
-0.0065193
0.0053994
-0.0472647
0.0516581
-0.00439331
0.0250248
-0.0365457
-0.279182
0.290703
0.0482573
-0.0577066
-0.44653
0.45598
0.0665252
-0.0737773
-0.602909
0.610161
0.081408
-0.0887878
-0.734313
0.741693
0.0969348
-0.104224
-0.863671
0.87096
0.111943
-0.11858
-1.01223
1.01887
0.125249
-0.130601
-1.18579
1.19114
0.135463
-0.138803
-1.38743
1.39077
0.141041
-0.141601
-1.62218
1.62274
0.140728
-0.138658
-1.58685
1.58478
0.136237
-0.133372
-1.30483
1.30197
0.130743
-0.127814
-1.08256
1.07963
0.125033
-0.121634
-0.903955
0.900556
0.117361
-0.109588
-0.739367
0.731594
0.0987216
-0.0830308
-0.544413
0.528723
0.0664728
-0.048133
-0.324538
0.306198
0.0331042
-0.0196875
-0.147903
0.134486
0.0106986
-0.00424541
-0.0467151
0.0402619
0.00106878
-0.00430555
0.00323677
-0.0556287
0.0631107
-0.00748194
0.0385385
-0.0545605
-0.303103
0.319125
0.0703379
-0.0830192
-0.469758
0.482439
0.0940221
-0.102665
-0.620606
0.629249
0.111834
-0.120525
-0.749643
0.758334
0.129653
-0.137369
-0.877938
0.885654
0.145174
-0.151596
-1.02507
1.03149
0.157769
-0.16242
-1.19585
1.2005
0.166293
-0.1685
-1.3933
1.39551
0.16933
-0.168448
-1.62241
1.62152
0.166162
-0.162762
-1.58193
1.57853
0.159278
-0.155442
-1.29813
1.2943
0.152133
-0.148673
-1.07578
1.07232
0.145309
-0.141014
-0.895914
0.891618
0.13517
-0.124644
-0.722663
0.712138
0.110455
-0.0908905
-0.512189
0.492625
0.0712161
-0.0502679
-0.287503
0.266555
0.0337338
-0.0195298
-0.121083
0.106879
0.0103316
-0.00397252
-0.0339571
0.027598
0.000948394
-0.00220795
0.00125956
-0.0700615
0.07423
-0.00416851
0.0293488
-0.043356
-0.337684
0.351692
0.0574486
-0.0691648
-0.500605
0.512322
0.079629
-0.0894067
-0.641637
0.651415
0.100341
-0.110538
-0.766453
0.77665
0.121902
-0.131958
-0.892319
0.902375
0.142653
-0.152166
-1.03699
1.0465
0.162145
-0.17072
-1.20408
1.21265
0.179289
-0.18615
-1.39654
1.4034
0.192311
-0.19636
-1.61946
1.62351
0.198288
-0.198706
-1.57412
1.57454
0.197995
-0.196648
-1.28938
1.28804
0.195537
-0.19395
-1.06743
1.06584
0.192067
-0.18765
-0.885318
0.880902
0.179361
-0.163345
-0.699888
0.683872
0.14157
-0.112864
-0.472086
0.44338
0.0856025
-0.0580898
-0.245634
0.218121
0.0376339
-0.0210079
-0.0933389
0.0767129
0.0106913
-0.00390423
-0.0216928
0.0149058
0.000853584
-0.000299725
-0.000553858
-0.0816545
0.0797094
0.00194504
0.00773418
-0.0167631
-0.368384
0.377413
0.0274466
-0.0359154
-0.528625
0.537094
0.0444438
-0.0525215
-0.663961
0.672039
0.0624712
-0.0718871
-0.786309
0.795725
0.0820006
-0.0912089
-0.911772
0.92098
0.100985
-0.10933
-1.0557
1.06405
0.118252
-0.125534
-1.22099
1.22827
0.132747
-0.138225
-1.4099
1.41538
0.142624
-0.145137
-1.62675
1.62926
0.145635
-0.144667
-1.57438
1.57341
0.142547
-0.139711
-1.28595
1.28312
0.137176
-0.134408
-1.06191
1.05915
0.13135
-0.126008
-0.872052
0.866709
0.116998
-0.102399
-0.663932
0.649333
0.0850753
-0.064453
-0.413047
0.392425
0.0466978
-0.0306191
-0.191102
0.175024
0.0194231
-0.0107556
-0.0611319
0.0524645
0.00546144
-0.00200753
-0.00828994
0.00483604
0.000434152
0.00165725
-0.00209141
-0.0830761
0.0801665
0.00290956
-0.00123462
-0.00389727
-0.38919
0.394322
0.0109683
-0.0171373
-0.549411
0.55558
0.0234067
-0.0303789
-0.682755
0.689727
0.0389991
-0.0471455
-0.804191
0.812337
0.0561102
-0.0641093
-0.929335
0.937334
0.0723467
-0.0797437
-1.0722
1.07959
0.0874325
-0.0937786
-1.23508
1.24143
0.0995887
-0.103768
-1.42015
1.42433
0.107028
-0.10828
-1.63104
1.6323
0.107534
-0.105339
-1.57181
1.56961
0.102238
-0.0985233
-1.27982
1.27611
0.0947336
-0.0907339
-1.05403
1.05003
0.086599
-0.0807336
-0.857106
0.851241
0.0725032
-0.0604555
-0.631848
0.6198
0.0478602
-0.0344026
-0.370426
0.356969
0.0242359
-0.0158655
-0.158739
0.150369
0.0103323
-0.0060824
-0.0438135
0.0395636
0.0033199
-0.00135588
-0.0011452
-0.000818817
0.000342112
0.00276918
-0.00311129
-0.0818112
0.0789759
0.0028353
-0.0051041
0.00257853
-0.402966
0.405492
0.00198155
-0.00661092
-0.564811
0.569441
0.0118635
-0.0176895
-0.698166
0.703992
0.0250583
-0.0320209
-0.819799
0.826761
0.0396436
-0.0464685
-0.94473
0.951555
0.0538757
-0.0601025
-1.08651
1.09274
0.0667338
-0.0717218
-1.24731
1.2523
0.0765414
-0.0798375
-1.42821
1.4315
0.0819523
-0.0819635
-1.63303
1.63304
0.0804023
-0.0774107
-1.56677
1.56377
0.0735983
-0.0687263
-1.27188
1.267
0.0641424
-0.0591144
-1.04417
1.03914
0.0539613
-0.0480108
-0.841008
0.835058
0.0406518
-0.0314921
-0.60511
0.59595
0.0231099
-0.0155685
-0.342483
0.334942
0.0107166
-0.00723982
-0.141283
0.137807
0.00501813
-0.00329621
-0.0347738
0.0330519
0.001991
-0.000917896
0.00318866
-0.00426176
0.000262207
0.00364979
-0.003912
-0.0802405
0.0777217
0.00251881
-0.00640786
0.00550832
-0.412147
0.413047
-0.00210901
-0.00131309
-0.577087
0.580509
0.0054818
-0.0107321
-0.711075
0.716325
0.0168995
-0.0229905
-0.832989
0.83908
0.0295571
-0.0354498
-0.957873
0.963766
0.0417564
-0.0472302
-1.09879
1.10426
0.0527614
-0.0572062
-1.25709
1.26153
0.0611558
-0.0636807
-1.43434
1.43687
0.0649538
-0.0642039
-1.63277
1.63202
0.0619286
-0.0580372
-1.55994
1.55605
0.0536189
-0.0482185
-1.2618
1.2564
0.0429942
-0.0370591
-1.03265
1.02671
0.0314675
-0.0253887
-0.82516
0.819081
0.0192157
-0.0123939
-0.584622
0.5778
0.00726935
-0.00374775
-0.325902
0.32238
0.00215183
-0.00153349
-0.132991
0.132373
0.00134303
-0.00118881
-0.0305995
0.0304453
0.000906361
-0.000517219
0.00568483
-0.00607397
0.000180769
0.00432424
-0.00450501
-0.0787531
0.0765872
0.00216596
-0.00642632
0.00606611
-0.418384
0.418744
-0.00406026
0.00129945
-0.586511
0.589272
0.00274647
-0.00722404
-0.721961
0.726439
0.0124884
-0.017738
-0.84435
0.849599
0.023528
-0.0287528
-0.96926
0.974485
0.0344652
-0.0392004
-1.10942
1.11415
0.0440748
-0.0479473
-1.26563
1.2695
0.0512366
-0.0531745
-1.43903
1.44097
0.0537938
-0.0528473
-1.63105
1.63011
0.0500236
-0.0457911
-1.55157
1.54734
0.0409369
-0.0350605
-1.25058
1.2447
0.029632
-0.0231005
-1.01981
1.01328
0.0170916
-0.0110067
-0.809917
0.803832
0.00562855
-0.000492609
-0.568907
0.563771
-0.00260025
0.00386283
-0.316555
0.315292
-0.00351174
0.00254523
-0.130286
0.131253
-0.00165855
0.000744768
-0.0297793
0.0306931
-0.00020586
-5.92926e-05
0.00663734
-0.00637218
6.30501e-05
0.00475043
-0.00481348
-0.0775831
0.0758796
0.00170344
-0.00563483
0.005642
-0.422937
0.42293
-0.00401399
0.00196473
-0.594689
0.596738
0.00179819
-0.0058401
-0.73134
0.735382
0.0107912
-0.0152749
-0.854446
0.85893
0.0203154
-0.0249017
-0.979635
0.984221
0.0302544
-0.03448
-1.11888
1.1231
0.0387154
-0.0422563
-1.27314
1.27668
0.0455114
-0.0470831
-1.44284
1.44441
0.0474761
-0.0461324
-1.62866
1.62731
0.0433271
-0.0385798
-1.54275
1.53801
0.0336888
-0.0277616
-1.23848
1.23255
0.0220008
-0.0154831
-1.0062
0.999678
0.00932071
-0.00303573
-0.79521
0.788925
-0.00148931
0.00570083
-0.556172
0.551961
-0.00790753
0.00805085
-0.311309
0.311165
-0.00698425
0.0053871
-0.130858
0.132455
-0.00382133
0.00223588
-0.031183
0.0327685
-0.00113304
0.00036397
0.00618929
-0.00542022
-5.36354e-05
0.00486471
-0.00481108
-0.0769053
0.0755641
0.00134112
-0.00459713
0.00476826
-0.426468
0.426297
-0.00331088
0.00138587
-0.601737
0.603662
0.00215204
-0.00576797
-0.739696
0.743312
0.00996685
-0.0142437
-0.863373
0.86765
0.0188519
-0.0235299
-0.988568
0.993246
0.0280739
-0.0320365
-1.12739
1.13136
0.0363035
-0.0394987
-1.28004
1.28324
0.0421242
-0.0439411
-1.44582
1.44764
0.0442778
-0.0429599
-1.62595
1.62463
0.040006
-0.0354905
-1.53334
1.52883
0.0306198
-0.0246982
-1.22619
1.22027
0.0190391
-0.0125454
-0.992617
0.986124
0.00648089
-0.000429926
-0.781018
0.774967
-0.0042201
0.00784023
-0.545185
0.541564
-0.00964723
0.00973062
-0.308201
0.308117
-0.00852729
0.00665351
-0.132686
0.134559
-0.00493232
0.0030862
-0.0338741
0.0357203
-0.00171195
0.000656126
0.00473559
-0.00367976
-0.000144914
0.00471311
-0.00456819
-0.0767648
0.0756405
0.00112431
-0.00331625
0.00326151
-0.429571
0.429626
-0.00203243
0.000152084
-0.60814
0.61002
0.00311958
-0.00659468
-0.747406
0.750881
0.0105854
-0.0144227
-0.871737
0.875574
0.0191099
-0.0229396
-0.997297
1.00113
0.0273979
-0.0311273
-1.13545
1.13918
0.0351969
-0.0384913
-1.28636
1.28966
0.0412922
-0.0427614
-1.44915
1.45062
0.0432648
-0.0421349
-1.62315
1.62202
0.039606
-0.0351729
-1.52412
1.51969
0.0305349
-0.0248012
-1.21437
1.20864
0.0193435
-0.0129735
-0.97913
0.97276
0.00718956
-0.00112986
-0.767452
0.761392
-0.0034786
0.00696887
-0.535253
0.531763
-0.00889489
0.0092368
-0.30551
0.305168
-0.00850179
0.00693342
-0.134878
0.136446
-0.0053377
0.00348663
-0.0369962
0.0388473
-0.00203618
0.000845094
0.00276591
-0.00157482
-0.000217888
0.00438364
-0.00416575
-0.0769189
0.0761217
0.000797243
-0.00215828
0.00162615
-0.432725
0.433257
-0.000579224
-0.00138674
-0.613769
0.615735
0.00431974
-0.00764642
-0.754537
0.757864
0.0114472
-0.0153918
-0.879293
0.883238
0.0194214
-0.0233825
-1.00514
1.0091
0.0277577
-0.0312268
-1.1433
1.14677
0.0353322
-0.0385192
-1.29271
1.29589
0.0412873
-0.0431964
-1.45245
1.45436
0.0440659
-0.0430881
-1.62088
1.6199
0.0406454
-0.0367851
-1.51539
1.51153
0.0325698
-0.0270854
-1.20274
1.19726
0.021793
-0.0159163
-0.966151
0.960274
0.0100185
-0.00424755
-0.754195
0.748424
-0.000449709
0.00416227
-0.525765
0.522053
-0.00611037
0.00702062
-0.30238
0.301469
-0.0068679
0.00595755
-0.136492
0.137402
-0.00474575
0.00324063
-0.0399556
0.0414607
-0.00197871
0.000867842
0.000628746
0.000482125
-0.000240469
0.00392773
-0.00368726
-0.0774939
0.0768657
0.000628219
-0.00117097
0.000669065
-0.436085
0.436587
0.000905891
-0.00272646
-0.619461
0.621282
0.00582419
-0.00901314
-0.761128
0.764317
0.0126561
-0.0161809
-0.886863
0.890388
0.0203149
-0.0239339
-1.01303
1.01665
0.0282246
-0.0321058
-1.15067
1.15455
0.0358055
-0.0392794
-1.29909
1.30257
0.0424196
-0.0443548
-1.45612
1.45806
0.0455113
-0.0452219
-1.6191
1.61881
0.0431414
-0.0397997
-1.50749
1.50415
0.0357248
-0.0306654
-1.1918
1.18674
0.0257983
-0.0201108
-0.953889
0.948202
0.0146349
-0.00895261
-0.741522
0.73584
0.00417228
5.91153e-06
-0.515996
0.511817
-0.00248558
0.00386664
-0.298404
0.297023
-0.00440899
0.00415468
-0.136942
0.137196
-0.00351072
0.00253442
-0.0421613
0.0431376
-0.0016219
0.000752754
-0.0012632
0.00213234
-0.000224971
0.00345402
-0.00322905
-0.0783655
0.0779174
0.000448044
-8.53322e-05
-0.000608566
-0.439608
0.440302
0.00205583
-0.00418725
-0.624753
0.626884
0.00721581
-0.0102473
-0.767456
0.770488
0.0139803
-0.017349
-0.893897
0.897266
0.0213095
-0.0250344
-1.02073
1.02445
0.0292122
-0.0330355
-1.15826
1.16208
0.0369309
-0.0404057
-1.30593
1.3094
0.0436947
-0.0463433
-1.46024
1.46289
0.0478881
-0.0478367
-1.61842
1.61837
0.0463706
-0.0432833
-1.50066
1.49758
0.0397322
-0.0352345
-1.18164
1.17714
0.0304736
-0.0250871
-0.942202
0.936816
0.0198512
-0.0141469
-0.729267
0.723562
0.00935935
-0.00471698
-0.506018
0.501376
0.00174911
0.000402311
-0.293427
0.291276
-0.00150773
0.00193639
-0.136038
0.13561
-0.00192499
0.0015364
-0.0432735
0.043662
-0.0010619
0.000531122
-0.00262203
0.00315281
-0.000168691
0.00303785
-0.00286916
-0.0794798
0.0791595
0.000320268