/*--------------------------------*- C++ -*----------------------------------*\
  =========                 |
  \\      /  F ield         | OpenFOAM: The Open Source CFD Toolbox
   \\    /   O peration     | Website:  https://openfoam.org
    \\  /    A nd           | Version:  6
     \\/     M anipulation  |
\*---------------------------------------------------------------------------*/
FoamFile
{
    version     2.0;
    format      ascii;
    class       volScalarField;
    location    "28";
    object      p;
}
// * * * * * * * * * * * * * * * * * * * * * * * * * * * * * * * * * * * * * //

dimensions      [0 2 -2 0 0 0 0];

internalField   nonuniform List<scalar> 
918
(
0.269626
1.0072
0.0215829
0.269484
-0.0239173
0.975152
-0.763377
0.44309
0.250661
-0.363023
-0.352625
0.244641
0.832055
0.601174
-1.44723
-0.27712
0.398651
-0.694875
0.248573
-0.19339
0.478308
0.257445
0.259914
0.250696
0.305704
0.559675
0.708963
-0.0267257
0.00806264
-0.0141001
-0.0355332
-0.105185
-0.150948
0.858307
0.910219
0.933348
0.218132
0.0496563
-0.647839
-0.705556
-0.683979
-0.78349
0.435691
0.4368
-0.445663
0.442282
0.450401
0.236692
0.250031
0.250862
0.252108
0.250946
0.252265
0.160473
-0.373586
-0.400208
-0.343166
-0.344324
-0.161922
-0.338222
-0.334541
-0.359407
-0.366123
0.170905
0.241185
0.238924
0.249678
0.257812
0.947367
0.921111
0.947136
0.857804
0.875378
0.809056
0.78193
0.621278
0.644403
0.586181
0.572729
-1.91538
-2.87865
-0.860464
-0.575414
-0.00854846
-0.250817
-0.229136
0.386986
0.38819
0.400592
0.409875
0.767683
-0.671627
-0.746014
0.248965
0.247499
0.25692
0.257826
0.25276
0.252784
-0.241253
-0.276806
-0.0699619
-0.162007
-0.127042
0.4674
0.465324
0.250149
0.247633
0.267344
0.291459
0.279447
0.00218554
0.314297
0.331787
0.414622
0.565639
0.554028
0.566089
0.684278
0.652966
0.740464
0.762209
-0.010723
-0.00764907
-0.273079
-0.190999
-0.239078
0.214125
0.207993
0.233751
0.221812
0.22484
-0.0466776
-0.200147
0.132585
0.155558
-0.564457
-0.609227
-0.7103
-0.714586
-0.807612
0.293311
0.430147
0.428935
-0.465277
-0.3853
-0.517701
-0.326039
-0.385603
0.228064
0.233931
0.230205
0.245236
0.239488
0.241856
0.254162
0.251274
0.252899
0.213764
0.339792
0.0827421
0.0453749
-0.524023
-0.419912
-0.508025
-0.340992
-0.34127
-0.162441
-0.148908
-0.174284
-0.170396
-0.329613
-0.334877
-0.332295
-0.372888
-0.365033
0.162812
0.151336
0.180817
0.187963
0.231356
0.232647
0.236205
0.234492
0.732539
0.755624
0.761754
0.737859
-3.87344
-6.54041
-0.221243
-0.0570018
-0.0255213
-0.00779541
-0.00360841
-0.00569425
-0.00115146
-0.00690419
-0.154499
-0.156565
-0.196892
-0.181977
0.378581
0.378032
0.72483
0.746966
0.717518
0.696281
0.238236
0.240195
0.244884
0.24175
-0.363209
-0.316185
-0.339043
0.448882
0.456705
0.457868
-0.0359415
-0.119663
0.0493322
0.0783213
0.367034
0.341951
0.360381
0.475317
0.516516
0.77947
0.803588
0.787598
0.800577
0.851524
0.874425
0.839392
0.194065
0.204313
0.198883
0.236939
0.23454
0.235492
0.230768
0.232469
0.230595
-0.314371
-0.693084
0.215014
0.221136
0.195641
0.209446
0.371116
0.450517
0.408089
0.41841
0.418611
-0.27796
-0.326753
0.00915041
-0.0145981
0.105534
0.139171
0.121237
0.708168
0.668807
0.716524
0.691851
0.656346
0.67962
-0.631859
-2.41849
-1.40207
0.354775
0.152896
0.246744
-0.174024
-0.173836
-0.15914
0.747756
0.789214
0.408628
0.587849
0.548043
0.540872
0.567516
0.627881
0.562774
0.595315
0.624744
0.600021
0.258752
0.217097
0.224588
0.530811
0.59148
-0.154529
-0.225938
-0.25124
-0.1378
-0.0672225
-0.0955477
0.762312
0.653322
0.724882
0.247867
0.248761
-0.0532235
-0.0955851
0.252804
0.252534
-0.0522915
-0.161202
0.26508
-1.22087
-0.143278
0.242168
0.232171
0.248728
-0.335167
0.086503
-0.317258
-0.179968
-0.188682
0.240268
0.181144
0.142618
-0.0406733
-0.315587
-0.256293
-0.469026
0.2456
0.244004
0.248111
0.249019
0.249766
-0.0832582
-0.0850282
-0.0598961
-0.22281
-0.152896
-0.173749
0.213249
0.231066
-0.443804
0.248358
0.250488
0.250193
0.244169
0.249211
0.247718
-0.225311
-0.180821
-0.301695
-0.0526187
0.0735888
0.45553
0.536547
0.400184
0.228833
-0.0755857
0.387205
0.442341
0.364363
0.498964
0.419152
0.425794
-0.0846947
-0.221636
-0.0789699
-0.141641
0.239236
0.238356
0.229779
0.226959
0.24354
0.241341
0.24635
0.243469
0.246575
0.247793
-0.295355
-0.322027
-0.344347
-0.391776
0.053645
0.310367
-0.0194569
0.0174062
-0.107627
-0.345114
-0.352751
-0.306467
-0.324466
-0.232666
-0.213754
-0.193467
-0.168871
-0.213529
-0.214673
-0.255425
-0.263515
-0.268589
0.234717
0.234664
0.239654
0.247513
0.1904
0.19408
0.160291
0.179717
0.165076
0.110802
0.140906
0.117153
-0.0481565
-0.0676265
-0.0356043
-0.313103
-0.271215
-0.229582
-0.161499
-0.227591
-0.144875
-0.131703
-0.342744
-0.337374
-0.433558
-0.549171
0.700894
0.630855
-0.157136
0.235659
0.241231
0.238517
0.242923
0.246085
0.246833
0.244457
0.240969
0.231476
0.233129
0.22943
0.229897
-0.390862
-0.495452
-0.32378
-0.395775
-0.126412
0.355551
0.0835012
0.0318687
0.0179579
0.232522
0.43192
0.372828
0.455418
0.459201
-0.668955
-0.251589
-0.594645
-0.0477523
-0.0591439
0.477458
0.520017
0.538792
0.495709
0.450609
-0.309005
0.258589
-0.311372
-0.271671
-0.0890001
-0.186808
0.437627
0.398422
0.402527
0.415116
0.432445
0.410361
0.386004
0.385742
0.411978
0.421264
0.226017
-0.0212929
-0.0581116
-0.105815
0.382406
0.262911
0.317274
0.241179
0.234261
0.236978
0.23564
0.217903
0.224948
0.220934
0.22693
0.230224
0.238517
0.238696
0.234534
0.236697
-0.313222
-0.330625
-0.319796
-0.379354
-0.379189
-0.415986
-0.351086
-0.169065
-0.196793
-0.0333431
0.103162
-0.203443
-0.334652
-0.319691
-0.267158
-0.0861817
-0.0842851
-0.176546
-0.0892881
-0.108824
-0.111877
-0.0264331
-0.014086
-0.311514
-0.272579
-0.28923
-0.303712
-0.207552
-0.156922
-0.147689
-0.338158
-0.292079
-0.372008
-0.376037
-0.269981
-0.283517
-0.268596
-0.24308
-0.314266
-0.298657
-0.31279
-0.370614
-0.311737
-0.304012
0.229738
0.231398
0.231421
0.24172
0.252967
0.267167
0.235827
0.210872
0.201974
0.205207
0.179413
0.189102
0.183577
0.198052
0.219085
0.226508
0.225026
0.227206
0.210681
0.212504
0.19888
0.202372
0.175305
0.15873
0.149661
-0.231819
-0.137907
-0.214739
-0.174573
-0.0907499
-0.126218
-0.25499
-0.300607
-0.291938
-0.266286
-0.217717
-0.304428
-0.293797
-0.343291
-0.272482
-0.447963
-0.49289
-0.544747
0.608413
0.736084
0.530889
0.327112
0.324692
0.556698
0.651205
0.29355
0.477877
0.506404
0.273666
0.545689
0.239662
0.239214
0.237128
0.236252
0.237475
-0.294189
-0.196752
-0.167394
-0.122048
-0.00331969
0.105708
0.00872742
-0.102687
0.0349754
0.0585851
0.353824
0.365209
0.308128
0.332826
0.328803
0.155593
0.236173
0.275777
0.228969
0.290869
0.323874
0.275389
0.314257
0.239243
0.197541
0.191829
0.139443
0.174052
0.154282
0.127815
0.230098
0.208305
0.219063
0.209471
0.22993
0.256755
0.255555
0.276101
0.291613
0.212929
0.167139
0.182228
0.206442
0.166841
0.180985
0.200606
-0.11403
-0.204793
-0.0362706
-0.361685
-0.270535
-0.234941
-0.27497
-0.323233
-0.0170032
-0.662604
-0.605439
-1.29388
0.20302
0.596727
0.399761
0.413677
0.429507
0.410373
0.416455
0.435047
0.442024
0.372024
0.385205
0.389828
0.344967
0.376605
0.384526
0.390519
0.220829
0.135736
0.131248
0.0736517
-0.056325
-0.0210656
0.152833
0.0916832
0.025121
0.0224277
0.198063
0.072402
0.145268
0.196541
0.133556
0.0671971
0.288573
0.341902
0.327597
0.295796
0.214937
0.232418
0.257831
0.298022
0.321438
0.352538
0.226187
0.232185
0.233197
0.23054
0.228517
0.231401
0.231477
0.233842
0.234483
0.237145
0.236344
-0.310255
-0.289409
-0.322672
-0.325775
-0.263136
-0.281907
-0.247124
-0.281796
-0.273955
-0.267803
-0.292687
-0.299421
-0.300717
-0.288018
-0.171777
-0.148383
-0.143028
-0.18327
-0.0285105
0.144054
0.204618
0.0804348
-0.0702095
-0.0362935
0.044613
-0.247957
-0.214271
-0.226095
-0.18655
-0.197467
-0.36724
-0.394353
-0.402882
-0.315215
-0.33953
-0.429997
-0.3722
-0.405265
-0.404964
-0.386348
-0.376583
0.212654
0.205458
0.208772
0.201857
0.200184
0.215714
0.220007
0.220917
0.225776
0.227792
0.21881
0.224206
0.227501
-0.396633
-0.403176
-0.404478
-0.441888
-0.445249
-0.390924
-0.399268
-0.168076
-0.253626
-0.223625
-0.283896
-0.401309
-0.342194
0.19439
0.195825
0.204776
0.410066
0.259139
0.174412
0.266352
0.374295
-0.0262685
0.183119
0.0114691
0.594361
0.485875
0.630075
0.266171
-0.0372516
0.122413
0.136224
-0.0300863
0.093797
0.0663508
-0.0552096
-0.0172857
0.00150481
0.0830991
-0.0287329
-0.0520023
-0.296996
-0.124624
-0.000230072
-0.0204536
0.11629
0.176589
-0.039437
-0.119922
-0.169083
0.336721
0.356736
0.370148
0.342232
0.365744
0.294726
0.287649
0.30403
0.310792
0.303895
-0.935303
-0.52565
-1.72499
-1.12695
-0.675587
0.237626
0.221815
0.462245
0.36797
0.428802
0.412281
0.354104
0.317707
0.344814
0.374157
0.0694969
0.174765
0.137368
0.155776
0.0893866
0.0178671
0.309598
0.308909
0.336932
0.360268
0.331955
0.360003
0.224556
0.224366
0.223443
0.219971
0.218818
0.221397
-0.225302
-0.246333
-0.221971
-0.22445
-0.242878
-0.243359
-0.414194
-0.431412
-0.479106
-0.490164
-0.450444
-0.40912
-0.12673
-0.183397
-0.266302
-0.227383
-0.288554
-0.360089
-0.36683
-0.281646
-0.188079
-0.205962
0.0991993
0.379438
0.20479
0.371363
0.158328
0.264159
0.193509
0.173208
0.208141
0.0837782
0.164683
-0.27529
-0.473637
-0.532357
0.527523
0.485474
0.281717
0.0218071
-0.0879317
0.212845
0.243402
0.204736
0.240677
0.291021
0.280972
-0.286406
-0.179114
-0.125975
0.18901
-0.0137192
0.00607125
-0.00301472
0.152996
0.12596
)
;

boundaryField
{
    wall-4
    {
        type            zeroGradient;
    }
    velocity-inlet-5
    {
        type            zeroGradient;
    }
    velocity-inlet-6
    {
        type            zeroGradient;
    }
    pressure-outlet-7
    {
        type            fixedValue;
        value           uniform 0;
    }
    wall-8
    {
        type            zeroGradient;
    }
    frontAndBackPlanes
    {
        type            empty;
    }
}


// ************************************************************************* //
