/*--------------------------------*- C++ -*----------------------------------*\
  =========                 |
  \\      /  F ield         | OpenFOAM: The Open Source CFD Toolbox
   \\    /   O peration     | Website:  https://openfoam.org
    \\  /    A nd           | Version:  6
     \\/     M anipulation  |
\*---------------------------------------------------------------------------*/
FoamFile
{
    version     2.0;
    format      ascii;
    class       volScalarField;
    location    "18";
    object      p;
}
// * * * * * * * * * * * * * * * * * * * * * * * * * * * * * * * * * * * * * //

dimensions      [0 2 -2 0 0 0 0];

internalField   nonuniform List<scalar> 
8800
(
0.432451
0.383146
0.34519
0.317126
0.296961
0.282357
0.271739
0.264176
0.259242
0.25703
0.258141
0.262188
0.268726
0.277954
0.290559
0.307787
0.331595
0.364643
0.407539
0.460056
0.266901
0.273253
0.282417
0.285982
0.283394
0.277328
0.270413
0.264158
0.259286
0.256299
0.255859
0.258186
0.262574
0.268488
0.275391
0.282272
0.28704
0.286836
0.280103
0.271173
0.240426
0.24668
0.251211
0.255121
0.258114
0.259107
0.258037
0.255892
0.253809
0.252761
0.253529
0.255703
0.258322
0.260347
0.260663
0.258701
0.255204
0.251088
0.246243
0.242511
0.236078
0.238863
0.241541
0.243783
0.245605
0.247245
0.248393
0.248724
0.248454
0.24827
0.248802
0.249698
0.250138
0.249698
0.248455
0.24687
0.245003
0.242537
0.240029
0.238459
0.231023
0.232464
0.234388
0.236572
0.238366
0.239701
0.240778
0.241695
0.242404
0.242908
0.243263
0.243315
0.242993
0.242354
0.241429
0.240069
0.238177
0.236083
0.234619
0.233822
0.226078
0.226985
0.228354
0.230144
0.231979
0.233593
0.234914
0.236038
0.237033
0.237837
0.238168
0.238032
0.237576
0.236793
0.235648
0.23412
0.232429
0.230887
0.229937
0.229434
0.221396
0.222046
0.223211
0.224836
0.226597
0.228421
0.230133
0.231525
0.232592
0.233417
0.23391
0.233929
0.23342
0.23238
0.230954
0.229421
0.227896
0.226566
0.225817
0.225474
0.217099
0.217565
0.218574
0.22007
0.221665
0.223287
0.224963
0.226632
0.228105
0.229218
0.229782
0.229659
0.228953
0.227917
0.226732
0.225449
0.224097
0.222933
0.222339
0.222108
0.21327
0.213564
0.214442
0.215819
0.217313
0.218791
0.220225
0.221655
0.223083
0.224372
0.225094
0.225189
0.224861
0.224236
0.223351
0.222257
0.221068
0.220048
0.219595
0.219469
0.210382
0.210547
0.211236
0.212439
0.213812
0.215275
0.216855
0.218438
0.219961
0.221352
0.22234
0.222701
0.222518
0.221913
0.221116
0.220224
0.219247
0.218463
0.218166
0.218109
0.208062
0.20816
0.20857
0.209368
0.210359
0.211463
0.212685
0.214135
0.215754
0.217406
0.218678
0.21934
0.219542
0.21949
0.219203
0.218761
0.21827
0.217895
0.217758
0.21772
0.205388
0.205472
0.205733
0.206246
0.206983
0.207972
0.209217
0.210706
0.212427
0.214319
0.215976
0.217061
0.217646
0.217793
0.217804
0.217762
0.217653
0.217567
0.217512
0.217473
0.201893
0.201964
0.202193
0.20261
0.203311
0.204201
0.205446
0.207062
0.209057
0.21135
0.213448
0.214915
0.215839
0.216417
0.216704
0.216933
0.217067
0.217104
0.217083
0.217047
0.19763
0.197678
0.197928
0.198414
0.199076
0.200081
0.201472
0.203296
0.205596
0.208351
0.21102
0.213033
0.214394
0.215314
0.215929
0.216315
0.216545
0.216623
0.216633
0.216606
0.19276
0.192796
0.193067
0.193667
0.19453
0.195652
0.197301
0.199471
0.202253
0.205649
0.209014
0.211624
0.213469
0.214724
0.215564
0.216101
0.216373
0.216491
0.216538
0.21652
0.187341
0.187371
0.187658
0.188349
0.189443
0.190798
0.192726
0.195329
0.1987
0.20289
0.207137
0.210487
0.212925
0.214629
0.215735
0.216444
0.216827
0.217026
0.217109
0.217093
0.181287
0.181323
0.181634
0.182394
0.183599
0.185339
0.187688
0.190849
0.195003
0.200216
0.205542
0.2098
0.212878
0.21504
0.216546
0.217498
0.218061
0.218371
0.218487
0.218467
0.174297
0.174337
0.174743
0.17559
0.177003
0.179065
0.18194
0.185858
0.191033
0.197542
0.204212
0.209571
0.213465
0.216259
0.21815
0.219395
0.22017
0.2206
0.220749
0.220723
0.165976
0.166025
0.166493
0.167564
0.169278
0.171803
0.175363
0.180267
0.186751
0.194896
0.20323
0.209911
0.214827
0.218285
0.220671
0.222267
0.223279
0.223838
0.224024
0.22399
0.155888
0.155955
0.15656
0.157878
0.160046
0.163224
0.167734
0.173927
0.182084
0.192285
0.202668
0.210973
0.217032
0.22132
0.224288
0.22629
0.227569
0.228266
0.228496
0.228453
0.143501
0.143588
0.144378
0.146095
0.148888
0.152977
0.158754
0.166642
0.176958
0.189736
0.202613
0.212839
0.220281
0.225556
0.229216
0.231696
0.233284
0.234144
0.234426
0.23437
0.128054
0.128177
0.129234
0.13152
0.135216
0.140577
0.148092
0.158249
0.171347
0.187316
0.20319
0.215692
0.224765
0.231207
0.235695
0.238753
0.240718
0.241768
0.242106
0.242035
0.108382
0.108555
0.110024
0.113195
0.11825
0.12547
0.13544
0.14864
0.165284
0.185149
0.204557
0.219701
0.230675
0.238493
0.243975
0.247742
0.250181
0.251487
0.251891
0.251797
0.082676
0.082946
0.0851249
0.089774
0.0969691
0.107003
0.120477
0.137761
0.158888
0.183415
0.206892
0.225035
0.238186
0.247615
0.254295
0.25894
0.26197
0.26359
0.264076
0.263953
0.0478849
0.0484054
0.0520101
0.0593729
0.0701767
0.0845959
0.103092
0.125778
0.152416
0.182349
0.210368
0.23182
0.247402
0.25869
0.266816
0.272579
0.276393
0.278426
0.279006
0.278839
-0.00196176
-0.000299914
0.00703574
0.0199623
0.0370796
0.0582712
0.083697
0.11318
0.146287
0.182238
0.215136
0.240106
0.258306
0.271667
0.281501
0.288668
0.293568
0.296235
0.296964
0.29673
-0.0757929
-0.0668498
-0.0502123
-0.0273536
-0.000760026
0.0294221
0.0632576
0.100548
0.140843
0.18339
0.221651
0.250582
0.271856
0.28777
0.299878
0.309149
0.315787
0.319665
0.320892
0.320843
-0.153859
-0.135248
-0.108446
-0.0751994
-0.0388456
0.000428987
0.0427592
0.0880554
0.13597
0.185889
0.23059
0.264596
0.289961
0.30937
0.324528
0.336559
0.345747
0.351737
0.353877
0.353988
-0.218653
-0.196368
-0.161519
-0.119768
-0.0748501
-0.0271257
0.0233481
0.0763765
0.131624
0.18853
0.239164
0.277648
0.306469
0.32866
0.346157
0.360057
0.370876
0.377903
0.380011
0.380295
-0.270529
-0.245992
-0.206186
-0.158552
-0.107019
-0.0523296
0.00520279
0.0652101
0.127217
0.190538
0.24645
0.288682
0.320138
0.344225
0.363073
0.378011
0.389509
0.396999
0.399558
0.39997
-0.312948
-0.287338
-0.244069
-0.191874
-0.135157
-0.0748624
-0.0114438
0.0546048
0.122621
0.191693
0.252241
0.297555
0.330949
0.356247
0.375838
0.391241
0.402997
0.410659
0.413445
0.413805
-0.349086
-0.322886
-0.277122
-0.221265
-0.160256
-0.0952494
-0.0267762
0.0445591
0.117895
0.192151
0.256808
0.304772
0.339753
0.365943
0.385972
0.401497
0.41322
0.420808
0.423739
0.424118
-0.380964
-0.354421
-0.306729
-0.247821
-0.183192
-0.114115
-0.0412008
0.0348509
0.113036
0.192066
0.260625
0.311086
0.347485
0.374388
0.394682
0.410214
0.421848
0.429357
0.432357
0.432732
-0.410021
-0.383181
-0.333889
-0.272423
-0.204697
-0.132062
-0.0551618
0.0251842
0.1079
0.191484
0.263772
0.316608
0.354373
0.381987
0.402593
0.418203
0.429794
0.4372
0.440219
0.440598
-0.437128
-0.410031
-0.35936
-0.295667
-0.22521
-0.149431
-0.0689719
0.0152856
0.102219
0.190142
0.266121
0.321478
0.360766
0.38923
0.410246
0.425999
0.437596
0.444879
0.447856
0.448288
-0.462975
-0.435548
-0.383627
-0.31794
-0.245101
-0.166537
-0.082888
0.00495238
0.0958151
0.188005
0.267843
0.325911
0.366898
0.396367
0.417918
0.433909
0.445557
0.452767
0.455652
0.456078
-0.487821
-0.460056
-0.407019
-0.339561
-0.264597
-0.183538
-0.0970136
-0.00589069
0.0887122
0.185097
0.268872
0.329872
0.372816
0.403509
0.425778
0.44214
0.45392
0.461085
0.463835
0.464193
-0.512003
-0.483814
-0.429748
-0.360689
-0.283827
-0.200531
-0.111409
-0.0172689
0.0808241
0.181248
0.269071
0.333311
0.378539
0.410717
0.433898
0.450769
0.46276
0.469911
0.472508
0.472769
-0.53557
-0.506943
-0.451918
-0.381429
-0.302878
-0.217589
-0.126131
-0.0292575
0.0720449
0.176382
0.268357
0.336109
0.383976
0.417952
0.442269
0.459803
0.47209
0.479244
0.481705
0.481828
-0.55858
-0.529502
-0.473592
-0.401815
-0.321757
-0.234704
-0.141183
-0.0418714
0.0623963
0.170456
0.266587
0.338113
0.388979
0.425128
0.450855
0.46922
0.48187
0.489008
0.491313
0.491303
-0.581073
-0.551537
-0.494766
-0.421831
-0.34045
-0.251844
-0.156511
-0.0550302
0.0519018
0.163414
0.263632
0.339135
0.393393
0.432134
0.459598
0.478972
0.492042
0.499126
0.501227
0.50109
-0.603065
-0.573011
-0.515419
-0.441449
-0.358907
-0.268955
-0.17204
-0.068679
0.0405931
0.155241
0.259385
0.338955
0.396976
0.438813
0.468444
0.489036
0.502534
0.509474
0.511288
0.511028
-0.624396
-0.593863
-0.535505
-0.460629
-0.37707
-0.285949
-0.187697
-0.0827351
0.0285502
0.145972
0.253763
0.337373
0.3994
0.444894
0.477324
0.499463
0.513285
0.519827
0.521247
0.520864
-0.645026
-0.614049
-0.554985
-0.479307
-0.394869
-0.302762
-0.203385
-0.0970997
0.0158759
0.135657
0.246727
0.33422
0.40035
0.449988
0.486088
0.510486
0.52455
0.5301
0.530816
0.530326
-0.664998
-0.633527
-0.573828
-0.497443
-0.41224
-0.319306
-0.219004
-0.111655
0.00267658
0.124389
0.238267
0.329364
0.39949
0.453536
0.494298
0.522385
0.537249
0.540786
0.539744
0.53913
-0.684166
-0.65227
-0.591983
-0.514969
-0.42912
-0.335494
-0.234455
-0.126283
-0.0109129
0.112303
0.228434
0.322724
0.396539
0.45483
0.501
0.534825
0.552933
0.554799
0.549377
0.545985
-0.702607
-0.670293
-0.609454
-0.531915
-0.44554
-0.351372
-0.249792
-0.141046
-0.0249626
0.0993354
0.217101
0.31406
0.39121
0.453059
0.504641
0.546104
0.57134
0.577096
0.566486
0.559775
-0.720263
-0.687655
-0.62638
-0.548462
-0.461784
-0.367272
-0.265424
-0.156431
-0.0400352
0.0847994
0.203537
0.302449
0.382732
0.446914
0.502085
0.551089
0.583303
0.588177
0.577777
0.563067
-0.737026
-0.704341
-0.642615
-0.564406
-0.477636
-0.3829
-0.281131
-0.172105
-0.0557924
0.0690213
0.187983
0.287652
0.370794
0.435954
0.488702
0.538456
0.570309
0.562639
0.500719
0.467238
-0.75279
-0.721047
-0.657723
-0.579248
-0.492497
-0.397804
-0.296665
-0.187812
-0.0719565
0.0522078
0.170584
0.269508
0.354744
0.421175
0.462782
0.498652
0.513274
0.473028
0.405509
0.362952
-0.794141
-0.737053
-0.671636
-0.593708
-0.507061
-0.412816
-0.311911
-0.203655
-0.088695
0.03411
0.151053
0.247917
0.332156
0.403915
0.419514
0.42655
0.403966
0.348426
0.275105
0.234722
-0.767581
-0.74973
-0.692227
-0.615498
-0.528781
-0.435116
-0.335215
-0.228208
-0.115094
0.00475965
0.117874
0.210343
0.285824
0.353598
0.356406
0.253382
0.159295
0.0960674
0.0281297
0.0690579
-0.796801
-0.76618
-0.708079
-0.631324
-0.545081
-0.451962
-0.35221
-0.246229
-0.134692
-0.0174971
0.091756
0.179715
0.246245
0.281269
0.233884
0.0892594
-0.0303017
-0.109435
-0.200656
-0.136687
-0.818936
-0.786065
-0.726271
-0.649308
-0.563348
-0.470462
-0.37109
-0.266258
-0.156577
-0.042527
0.0619781
0.14384
0.198942
0.199764
0.0862702
-0.0942816
-0.24306
-0.345743
-0.456906
-0.406268
-0.840042
-0.806241
-0.745246
-0.667798
-0.581834
-0.489183
-0.390518
-0.286964
-0.179334
-0.0687726
0.0302061
0.104859
0.144363
0.105337
-0.0730679
-0.286263
-0.480025
-0.644317
-0.789372
-0.745163
-0.86051
-0.826512
-0.764843
-0.68698
-0.600949
-0.508597
-0.410758
-0.308578
-0.203234
-0.0964995
-0.00365207
0.063097
0.0826704
0.000371152
-0.232358
-0.476948
-0.71255
-0.915292
-1.17277
-1.26616
-0.881012
-0.847282
-0.785318
-0.707179
-0.621078
-0.52899
-0.431908
-0.331099
-0.228117
-0.125374
-0.0389274
0.0188554
0.0161036
-0.125127
-0.37942
-0.646967
-0.900954
-1.11396
-1.28604
-1.48789
-0.902379
-0.868914
-0.80692
-0.728695
-0.642637
-0.5509
-0.454643
-0.355376
-0.255029
-0.156719
-0.077224
-0.029782
-0.0627207
-0.259444
-0.517594
-0.787693
-1.02271
-1.16268
-1.20206
-1.22055
-0.924807
-0.891611
-0.829704
-0.751546
-0.665679
-0.574434
-0.479184
-0.381758
-0.284402
-0.191053
-0.119237
-0.0844834
-0.151638
-0.389095
-0.646199
-0.893634
-1.08442
-1.14403
-1.15997
-1.16119
-0.94853
-0.915444
-0.853645
-0.77564
-0.690072
-0.599492
-0.505434
-0.410141
-0.316173
-0.228244
-0.164971
-0.14632
-0.245266
-0.515366
-0.765302
-0.985236
-1.11731
-1.13755
-1.13799
-1.13775
-0.973376
-0.940392
-0.878681
-0.800882
-0.715731
-0.625934
-0.533267
-0.440317
-0.350226
-0.267995
-0.214206
-0.210841
-0.349479
-0.638392
-0.87741
-1.05565
-1.11812
-1.12598
-1.12627
-1.12562
-0.999117
-0.966205
-0.904635
-0.8271
-0.742458
-0.653566
-0.562469
-0.472005
-0.386352
-0.309784
-0.266479
-0.278882
-0.457881
-0.758832
-0.994431
-1.10287
-1.1125
-1.12051
-1.12245
-1.12184
-1.02507
-0.992467
-0.931197
-0.853993
-0.769943
-0.68209
-0.592648
-0.504819
-0.423979
-0.353205
-0.319934
-0.356149
-0.552107
-0.866173
-1.14529
-1.16898
-1.16341
-1.13426
-1.11739
-1.1143
-1.05066
-1.01865
-0.957884
-0.881107
-0.797733
-0.711021
-0.62331
-0.538126
-0.462163
-0.398078
-0.371338
-0.441042
-0.638965
-0.920906
-1.32148
-1.39206
-1.25752
-1.17817
-1.1356
-1.12145
-1.07542
-1.04408
-0.984044
-0.907825
-0.825225
-0.739675
-0.653828
-0.571033
-0.4995
-0.44381
-0.41912
-0.522275
-0.740951
-0.881847
-1.22687
-1.45577
-1.36667
-1.35691
-1.31214
-1.28047
-1.09821
-1.06787
-1.00887
-0.933375
-0.851641
-0.767229
-0.68319
-0.602668
-0.534025
-0.488773
-0.463278
-0.591601
-0.847372
-0.816412
-0.676155
-0.808444
-1.31408
-1.52462
-1.506
-1.49113
-1.11774
-1.0889
-1.03137
-0.956841
-0.87602
-0.79276
-0.709999
-0.631996
-0.564037
-0.528686
-0.506641
-0.640717
-1.00832
-1.04968
-0.714088
-0.993684
-1.38207
-1.48216
-1.47378
-1.49328
-1.13283
-1.10596
-1.05045
-0.977107
-0.897298
-0.815036
-0.733135
-0.656869
-0.589194
-0.555936
-0.557547
-0.690204
-1.28028
-1.95616
-2.35349
-2.67066
-2.63396
-2.29917
-1.95424
-1.91053
-1.1424
-1.118
-1.06496
-0.993128
-0.914243
-0.832761
-0.75164
-0.674964
-0.607684
-0.567889
-0.572076
-0.788761
-1.50039
-2.71735
-3.4707
-3.80111
-3.72812
-3.43691
-3.05099
-2.8312
-1.14505
-1.12357
-1.07389
-1.0038
-0.9257
-0.844889
-0.763967
-0.685438
-0.616158
-0.564816
-0.559647
-0.74942
-1.39011
-2.35313
-3.41976
-3.68921
-3.572
-3.25877
-2.94266
-2.74817
-1.14001
-1.12218
-1.07636
-1.00812
-0.930975
-0.850503
-0.768853
-0.688314
-0.613028
-0.534005
-0.532969
-0.484745
-0.868132
-1.24216
-1.5238
-1.51396
-1.19675
-0.836812
-0.591621
-0.476271
-1.12628
-1.11205
-1.07094
-1.0055
-0.929143
-0.849007
-0.76658
-0.683875
-0.596733
-0.504615
-0.416112
-0.314249
-0.1375
0.178877
0.635545
1.1652
1.61153
1.89744
2.04142
2.09359
-1.10369
-1.09331
-1.05746
-0.994975
-0.919442
-0.840323
-0.758855
-0.672912
-0.577731
-0.464539
-0.326468
-0.210108
0.107823
0.703843
1.4256
2.07328
2.53209
2.80214
2.92902
2.96741
-1.0718
-1.06497
-1.03433
-0.97501
-0.901592
-0.825405
-0.746205
-0.661158
-0.563656
-0.435904
-0.28265
-0.144843
0.0500781
0.578368
1.18461
1.71401
2.10274
2.3345
2.44819
2.48556
-1.02715
-1.02326
-0.998006
-0.943406
-0.875365
-0.804219
-0.731798
-0.655381
-0.561996
-0.433366
-0.261582
-0.112999
0.030026
0.350396
0.797299
1.18914
1.4747
1.65348
1.74856
1.78376
-0.965563
-0.962572
-0.943218
-0.897834
-0.838883
-0.778303
-0.719496
-0.659774
-0.584704
-0.465012
-0.287908
-0.138835
0.0398826
0.204402
0.457652
0.702032
0.895426
1.03236
1.10284
1.12464
-0.88251
-0.880298
-0.867303
-0.836268
-0.793857
-0.750445
-0.710937
-0.674946
-0.63045
-0.542478
-0.408276
-0.256369
-0.0584533
0.0741244
0.234048
0.403133
0.53327
0.620734
0.672493
0.688487
-0.802054
-0.80025
-0.792582
-0.775264
-0.75129
-0.727805
-0.711095
-0.706463
-0.712353
-0.714692
-0.661625
-0.506768
-0.274494
-0.151927
-0.036622
0.100034
0.214591
0.288378
0.325902
0.332857
-0.741134
-0.740274
-0.737021
-0.729923
-0.721028
-0.716456
-0.725347
-0.763964
-0.856142
-1.01097
-1.11322
-0.914518
-0.599145
-0.438225
-0.309176
-0.178193
-0.0602725
0.015116
0.0517828
0.0553791
-0.692966
-0.693644
-0.693669
-0.693143
-0.695526
-0.707383
-0.741689
-0.827749
-1.03032
-1.39859
-1.70341
-1.48389
-1.03959
-0.790216
-0.592947
-0.411655
-0.277234
-0.192809
-0.159204
-0.159777
-0.637746
-0.639566
-0.641946
-0.645944
-0.656018
-0.679445
-0.732186
-0.853561
-1.13868
-1.69244
-2.12623
-1.86803
-1.38013
-1.07027
-0.81651
-0.604148
-0.459831
-0.382551
-0.357422
-0.35815
-0.563195
-0.565482
-0.569104
-0.57554
-0.588772
-0.616153
-0.673366
-0.800427
-1.09738
-1.67874
-2.10959
-1.85332
-1.42839
-1.12822
-0.861178
-0.684002
-0.589742
-0.55464
-0.542514
-0.540296
-0.469112
-0.471212
-0.474843
-0.481213
-0.493229
-0.516655
-0.563587
-0.664672
-0.895966
-1.34671
-1.67934
-1.52399
-1.22432
-0.948748
-0.750667
-0.644967
-0.622064
-0.622645
-0.618281
-0.614549
-0.364324
-0.365789
-0.368559
-0.373008
-0.381163
-0.396191
-0.425057
-0.484794
-0.616559
-0.871049
-1.0568
-0.953297
-0.76794
-0.593592
-0.511761
-0.506721
-0.528663
-0.543017
-0.544361
-0.542576
-0.261549
-0.26229
-0.2639
-0.266223
-0.270066
-0.276568
-0.288354
-0.311454
-0.359271
-0.445684
-0.501838
-0.432806
-0.338977
-0.292514
-0.313392
-0.351044
-0.378948
-0.392691
-0.396232
-0.396223
-0.171378
-0.171569
-0.172273
-0.173083
-0.173925
-0.174631
-0.175282
-0.176158
-0.177732
-0.175232
-0.152391
-0.11171
-0.101939
-0.128658
-0.172503
-0.211106
-0.233812
-0.244808
-0.249293
-0.250242
-0.0995373
-0.0994292
-0.0996496
-0.0997458
-0.0992039
-0.0972978
-0.0930856
-0.0850349
-0.0708845
-0.047038
-0.0195031
-0.00525018
-0.015551
-0.048696
-0.0840498
-0.110903
-0.126613
-0.1346
-0.138333
-0.139457
-0.0469024
-0.0466918
-0.0467432
-0.046689
-0.0458541
-0.0434038
-0.0383099
-0.0289581
-0.0135003
0.00875659
0.0275292
0.0293042
0.0157569
-0.00875768
-0.032179
-0.0491737
-0.0592834
-0.0646081
-0.0672636
-0.0681488
-0.0111142
-0.0109156
-0.0109524
-0.0109966
-0.0104069
-0.00838421
-0.00408008
0.00358934
0.0156022
0.0312539
0.0417574
0.0394409
0.0277814
0.011689
-0.00297465
-0.0136465
-0.0202244
-0.0237911
-0.0255612
-0.0261391
0.011505
0.0116449
0.0115651
0.0113487
0.0115643
0.0128399
0.0158282
0.0212386
0.0294171
0.0391801
0.044296
0.0409847
0.0323157
0.0219694
0.0127667
0.0058978
0.0014692
-0.000985728
-0.00216237
-0.00253404
0.024633
0.0247088
0.0245758
0.0242245
0.0241137
0.0247237
0.0264782
0.0297889
0.0347688
0.0403595
0.0424879
0.0393736
0.0333002
0.0265476
0.0206018
0.0160458
0.0129762
0.0112451
0.010458
0.0102112
0.0312903
0.0313161
0.0311455
0.0307103
0.0303895
0.0305131
0.0313788
0.0332108
0.0359685
0.0388513
0.0393649
0.0366709
0.0323735
0.0278378
0.0238658
0.0207483
0.0185716
0.0173302
0.0167921
0.016629
0.0336871
0.0336816
0.0334869
0.033015
0.032567
0.0323625
0.0326009
0.0334143
0.0347396
0.0359823
0.0356465
0.0334037
0.0303201
0.0271882
0.0244517
0.0222673
0.0207027
0.0198052
0.0194327
0.0193225
0.0333244
0.0333026
0.033105
0.0326434
0.0321429
0.0317583
0.0316198
0.0317936
0.0322173
0.0325008
0.0317789
0.0299395
0.0276655
0.0254331
0.0234925
0.0219265
0.0207853
0.0201302
0.0198686
0.0197935
0.0312095
0.0311818
0.0309981
0.0305754
0.0300779
0.029617
0.0292779
0.0290966
0.029019
0.0287774
0.02789
0.0263734
0.024661
0.0230315
0.0216236
0.020481
0.0196399
0.0191575
0.0189711
0.0189189
0.0280031
0.0279756
0.0278155
0.0274454
0.0269862
0.0265167
0.0260916
0.0257289
0.0253878
0.0248961
0.0239985
0.0227609
0.021456
0.0202466
0.0192097
0.018367
0.0177431
0.017386
0.0172516
0.0172149
0.0241287
0.0241046
0.0239727
0.0236633
0.0232628
0.0228305
0.0223995
0.021979
0.0215383
0.0209648
0.0201355
0.019136
0.0181389
0.0172348
0.0164653
0.0158403
0.0153762
0.0151111
0.0150139
0.014988
0.0198541
0.0198345
0.0197309
0.019483
0.0191509
0.0187805
0.018391
0.0179867
0.0175462
0.0169977
0.0162894
0.0155051
0.0147531
0.0140824
0.0135153
0.013054
0.0127104
0.0125152
0.0124457
0.0124274
0.0153448
0.0153297
0.0152524
0.015063
0.0148031
0.0145082
0.0141899
0.0138492
0.0134717
0.0130128
0.0124567
0.0118722
0.0113263
0.0108446
0.0104376
0.0101046
0.00985533
0.00971496
0.0096665
0.00965386
0.0107004
0.0106894
0.0106351
0.0104996
0.0103124
0.0101008
0.00987117
0.00962323
0.00934734
0.00901713
0.0086305
0.00823635
0.00787418
0.00755541
0.00728366
0.00705783
0.00688636
0.0067902
0.00675779
0.00674906
0.00597711
0.00596978
0.00593676
0.00585331
0.00574176
0.00562071
0.00549123
0.00535164
0.00519684
0.00501433
0.00480342
0.00459118
0.00439791
0.00422695
0.0040789
0.00395182
0.00385144
0.00379476
0.00377574
0.00376947
0.00121903
0.00122185
0.00123667
0.00124171
0.00122272
0.00119279
0.00115845
0.00112195
0.00108145
0.00103332
0.000977211
0.000919848
0.000867962
0.000821961
0.000782978
0.000750617
0.000726387
0.00071808
0.000728588
0.00073664
-0.586514
-0.354839
-0.136267
0.0434554
0.191316
0.312303
0.415968
0.501195
0.528096
0.524327
-0.221806
-0.071263
0.068881
0.191265
0.296031
0.384275
0.455018
0.504071
0.530703
0.546663
0.0247122
0.12255
0.220016
0.306576
0.381233
0.443629
0.492984
0.530172
0.556782
0.575917
0.1988
0.267806
0.337953
0.400941
0.455446
0.501616
0.539865
0.571076
0.594358
0.613394
0.334642
0.385488
0.437089
0.484546
0.526531
0.563265
0.594949
0.62142
0.641165
0.659443
0.446441
0.486282
0.526058
0.564314
0.599223
0.630513
0.657896
0.680649
0.697644
0.715287
0.541785
0.577017
0.612167
0.64601
0.677431
0.705822
0.730569
0.75074
0.765493
0.782673
0.633491
0.667905
0.702325
0.735276
0.765576
0.792651
0.815825
0.834161
0.847125
0.863809
0.730891
0.76848
0.804502
0.838074
0.8682
0.894352
0.916141
0.932972
0.944941
0.961212
0.845914
0.887432
0.925143
0.95864
0.987671
1.01217
1.03224
1.04786
1.05998
1.07616
0.988747
1.03001
1.06569
1.09563
1.12117
1.14312
1.16192
1.17762
1.19088
1.20692
1.16086
1.19304
1.22035
1.24304
1.26339
1.28231
1.30022
1.3171
1.33211
1.34795
1.34746
1.36478
1.38208
1.39896
1.41521
1.43006
1.44405
1.45858
1.47389
1.49135
1.53102
1.54092
1.55413
1.56515
1.5746
1.58433
1.59503
1.60531
1.6147
1.64012
1.74856
1.74282
1.72981
1.71556
1.70934
1.71512
1.73326
1.7618
1.79561
1.83193
2.05177
1.91592
1.83654
1.79414
1.77678
1.78078
1.80834
1.86626
1.97391
2.15214
0.336099
0.329804
0.322081
0.310979
0.297424
0.284791
0.2744
0.266375
0.260636
0.257248
0.256727
0.25928
0.264256
0.271414
0.280811
0.29252
0.305991
0.318854
0.3278
0.335314
0.245171
0.251103
0.259196
0.265352
0.268458
0.267987
0.264943
0.260984
0.257354
0.254944
0.254612
0.256632
0.260159
0.264364
0.268258
0.270344
0.269146
0.26442
0.257298
0.249424
0.238385
0.240761
0.244069
0.24691
0.249433
0.251699
0.252952
0.252817
0.251786
0.250801
0.250792
0.251982
0.253556
0.254569
0.254248
0.252565
0.250228
0.247717
0.244625
0.241565
0.233561
0.234648
0.236617
0.239036
0.240992
0.242464
0.243721
0.244712
0.245304
0.245536
0.245836
0.246305
0.246439
0.246023
0.245161
0.24401
0.242475
0.240324
0.238081
0.23656
0.228522
0.229143
0.230345
0.232246
0.234231
0.235922
0.237209
0.238266
0.239187
0.239982
0.240499
0.24062
0.240383
0.239859
0.239043
0.237798
0.236091
0.23421
0.232679
0.231836
0.223693
0.224107
0.224984
0.226486
0.228233
0.230007
0.231645
0.233038
0.234187
0.235141
0.23579
0.235924
0.235628
0.234922
0.233801
0.232364
0.230793
0.229281
0.228134
0.227565
0.219206
0.219487
0.220218
0.221618
0.223293
0.225044
0.22687
0.228575
0.229971
0.231018
0.23176
0.232073
0.23177
0.230887
0.229581
0.228135
0.226679
0.225262
0.224259
0.22384
0.215092
0.215266
0.215846
0.217078
0.218574
0.220075
0.221535
0.223057
0.224649
0.226102
0.227074
0.227281
0.226889
0.226174
0.225315
0.224271
0.223059
0.221847
0.22102
0.220734
0.211705
0.211785
0.212237
0.213361
0.214793
0.216291
0.217841
0.219357
0.220774
0.22212
0.223238
0.223826
0.223874
0.223447
0.222661
0.221679
0.220587
0.219505
0.218826
0.218657
0.209209
0.209243
0.209533
0.210342
0.211477
0.21271
0.214058
0.215541
0.21717
0.218788
0.220158
0.220937
0.221091
0.220862
0.220384
0.219778
0.219052
0.218352
0.217956
0.217868
0.206813
0.206841
0.207019
0.207494
0.208241
0.209161
0.210261
0.21157
0.213073
0.214767
0.216424
0.217624
0.218281
0.218537
0.218529
0.218332
0.218088
0.217829
0.217688
0.217634
0.203748
0.203772
0.203919
0.204264
0.204834
0.205656
0.206747
0.208164
0.209895
0.211895
0.213936
0.21552
0.216483
0.21698
0.217156
0.217297
0.217354
0.217367
0.21734
0.217301
0.199841
0.199857
0.2
0.200344
0.200875
0.201643
0.202751
0.204225
0.206131
0.208466
0.210985
0.213082
0.21449
0.215412
0.216088
0.216461
0.216717
0.216842
0.216859
0.216836
0.195265
0.195267
0.195409
0.195811
0.196455
0.197351
0.19863
0.200367
0.20263
0.205426
0.208553
0.211263
0.213186
0.214483
0.215362
0.21594
0.216309
0.216473
0.216528
0.216528
0.190129
0.190123
0.19026
0.190721
0.191491
0.192634
0.194098
0.196151
0.198855
0.202283
0.206182
0.209633
0.212154
0.213926
0.21513
0.215937
0.216392
0.216627
0.216736
0.216754
0.184429
0.184409
0.184557
0.185065
0.185954
0.187295
0.189183
0.191613
0.194893
0.199105
0.20396
0.208344
0.211589
0.213883
0.215463
0.21652
0.217152
0.217512
0.21769
0.217721
0.177956
0.17793
0.17812
0.178686
0.179736
0.181301
0.1835
0.186536
0.190599
0.195832
0.201902
0.207412
0.2115
0.214405
0.216477
0.217846
0.218718
0.219239
0.219488
0.219528
0.170347
0.170318
0.170549
0.171258
0.17247
0.174334
0.177036
0.180804
0.185869
0.192408
0.200002
0.206902
0.21203
0.215757
0.218322
0.220065
0.221213
0.221915
0.222239
0.222287
0.161176
0.161139
0.161439
0.162296
0.163832
0.166154
0.169525
0.174241
0.180602
0.18881
0.198307
0.206898
0.213312
0.21791
0.221121
0.223315
0.224778
0.225677
0.226082
0.22614
0.15001
0.149968
0.150376
0.151486
0.153413
0.156369
0.160653
0.166644
0.174702
0.185024
0.196874
0.207526
0.215431
0.221101
0.225072
0.227797
0.229625
0.230751
0.231255
0.231324
0.136167
0.136119
0.13668
0.138157
0.140684
0.144531
0.150088
0.157806
0.168068
0.181058
0.195791
0.208905
0.218585
0.225526
0.230395
0.233749
0.236007
0.237404
0.238028
0.23811
0.118699
0.118651
0.119456
0.121482
0.124886
0.130033
0.137386
0.147445
0.160599
0.176953
0.195175
0.211193
0.222954
0.231389
0.237327
0.241438
0.244219
0.245942
0.246714
0.246809
0.096199
0.096177
0.0973893
0.100258
0.104995
0.112086
0.122039
0.135342
0.152295
0.172819
0.195178
0.21455
0.228706
0.238885
0.246099
0.251132
0.254565
0.256693
0.257635
0.257747
0.066286
0.0663491
0.068293
0.0726225
0.0796356
0.0898434
0.103678
0.121475
0.14331
0.168877
0.196003
0.219143
0.235989
0.248167
0.256891
0.263064
0.267324
0.269971
0.27113
0.271258
0.0247242
0.0250548
0.0286191
0.0360083
0.0472501
0.0626207
0.0822236
0.106076
0.133988
0.165445
0.197879
0.225111
0.244882
0.259285
0.269768
0.277345
0.282705
0.286052
0.287475
0.287612
-0.0362461
-0.0345377
-0.0260718
-0.0120086
0.00703098
0.0306087
0.0582624
0.089793
0.124874
0.162885
0.200983
0.232487
0.255317
0.27209
0.28453
0.293773
0.300475
0.304785
0.306617
0.30679
-0.109913
-0.106462
-0.0902086
-0.0656045
-0.0360557
-0.00299519
0.0334141
0.0731478
0.115938
0.161254
0.206051
0.243031
0.270106
0.290408
0.305873
0.317815
0.326985
0.332783
0.335012
0.335593
-0.18476
-0.176055
-0.151841
-0.117345
-0.0780622
-0.0357791
0.00932932
0.0572465
0.107758
0.160419
0.211991
0.254508
0.285829
0.309596
0.328085
0.342636
0.354002
0.361368
0.365022
0.366156
-0.24313
-0.233151
-0.204079
-0.162815
-0.116084
-0.0661
-0.0132708
0.0421771
0.0999336
0.159506
0.217339
0.264747
0.299587
0.326017
0.346552
0.362759
0.375357
0.383893
0.388351
0.389694
-0.290462
-0.27983
-0.247431
-0.201366
-0.149101
-0.0930747
-0.0338779
0.0280653
0.0922778
0.158099
0.221538
0.273144
0.310752
0.339033
0.360808
0.377854
0.391115
0.400369
0.40524
0.406604
-0.329746
-0.319001
-0.284488
-0.234714
-0.177972
-0.117033
-0.0525703
0.0149345
0.0848258
0.15621
0.224651
0.279853
0.319663
0.349265
0.371813
0.389277
0.402734
0.412118
0.416993
0.418433
-0.363896
-0.353136
-0.317069
-0.264344
-0.203904
-0.138799
-0.0697706
0.00260053
0.0775262
0.153963
0.226938
0.28543
0.327224
0.35794
0.38103
0.39867
0.412113
0.421482
0.426335
0.427726
-0.394465
-0.383746
-0.346491
-0.291292
-0.227763
-0.15909
-0.0860546
-0.00931454
0.0702117
0.151355
0.228684
0.290317
0.333935
0.365631
0.389167
0.406949
0.420386
0.429748
0.434606
0.435883
-0.422621
-0.411912
-0.373704
-0.316432
-0.250234
-0.178427
-0.101822
-0.0211401
0.062641
0.148218
0.229714
0.294408
0.339907
0.37267
0.396758
0.414766
0.428251
0.437603
0.442466
0.443618
-0.449186
-0.438455
-0.399383
-0.340279
-0.2717
-0.19715
-0.117385
-0.0331481
0.0545576
0.144314
0.22994
0.297894
0.34547
0.37946
0.404213
0.42254
0.436133
0.445467
0.450288
0.451354
-0.474588
-0.463825
-0.423928
-0.363186
-0.292535
-0.215554
-0.132952
-0.0454905
0.0458369
0.13965
0.229464
0.300837
0.350699
0.386124
0.41171
0.430484
0.444278
0.453632
0.458403
0.459429
-0.49917
-0.488309
-0.44766
-0.385434
-0.312925
-0.23376
-0.148611
-0.0582169
0.0364924
0.134179
0.228144
0.303129
0.355563
0.392704
0.419346
0.438725
0.452832
0.462263
0.466935
0.467926
-0.523137
-0.512098
-0.470734
-0.407144
-0.332984
-0.251875
-0.164442
-0.0713796
0.026431
0.127756
0.225864
0.304697
0.360023
0.399183
0.427143
0.447314
0.461846
0.471417
0.475984
0.47692
-0.546513
-0.535271
-0.493216
-0.428415
-0.352778
-0.269934
-0.180469
-0.0850255
0.0155945
0.120346
0.222541
0.305406
0.363976
0.405508
0.435067
0.45623
0.471301
0.481042
0.48551
0.486326
-0.569382
-0.55789
-0.515185
-0.44925
-0.372297
-0.287923
-0.196671
-0.0991223
0.00403875
0.111956
0.218076
0.305078
0.367222
0.411556
0.443056
0.465432
0.481155
0.491077
0.495408
0.49608
-0.591667
-0.579952
-0.536602
-0.469638
-0.391518
-0.305804
-0.212986
-0.11359
-0.0081907
0.10257
0.212399
0.303549
0.369534
0.417114
0.451002
0.474879
0.49136
0.501454
0.505606
0.506089
-0.613392
-0.601426
-0.557428
-0.48954
-0.410398
-0.323518
-0.229344
-0.128359
-0.0210327
0.0922298
0.205469
0.300672
0.370675
0.421935
0.458779
0.48456
0.501886
0.511997
0.515807
0.516083
-0.634388
-0.622246
-0.577623
-0.508909
-0.428869
-0.340974
-0.245668
-0.143346
-0.0343906
0.0810199
0.197278
0.296319
0.370379
0.425685
0.466169
0.494525
0.512869
0.522674
0.525827
0.525829
-0.654753
-0.642374
-0.597143
-0.527708
-0.446889
-0.358127
-0.26186
-0.158449
-0.0481559
0.0690404
0.187861
0.290404
0.3684
0.427914
0.472737
0.50478
0.524814
0.533827
0.535493
0.535006
-0.674345
-0.661733
-0.615976
-0.545885
-0.464374
-0.374888
-0.277828
-0.173539
-0.0622078
0.056389
0.1773
0.282887
0.36456
0.428152
0.477765
0.514926
0.538467
0.547059
0.545548
0.543341
-0.693216
-0.680387
-0.634067
-0.563384
-0.481283
-0.391186
-0.293487
-0.188531
-0.076422
0.0432256
0.165722
0.273755
0.358743
0.425954
0.480208
0.523679
0.553569
0.565276
0.561203
0.549269
-0.711277
-0.698306
-0.6515
-0.580368
-0.497828
-0.407309
-0.309177
-0.20384
-0.0912721
0.0289967
0.152521
0.262305
0.350267
0.420582
0.47848
0.5286
0.56728
0.585704
0.583799
0.577534
-0.728514