/*--------------------------------*- C++ -*----------------------------------*\
  =========                 |
  \\      /  F ield         | OpenFOAM: The Open Source CFD Toolbox
   \\    /   O peration     | Website:  https://openfoam.org
    \\  /    A nd           | Version:  6
     \\/     M anipulation  |
\*---------------------------------------------------------------------------*/
FoamFile
{
    version     2.0;
    format      ascii;
    class       surfaceScalarField;
    location    "18";
    object      phi;
}
// * * * * * * * * * * * * * * * * * * * * * * * * * * * * * * * * * * * * * //

dimensions      [0 3 -1 0 0 0 0];

internalField   nonuniform List<scalar> 
17370
(
-0.0899961
0.0898464
0.289161
-0.0714505
0.0537431
0.364483
-0.0381107
0.0276903
0.426589
-0.0196478
0.0146173
0.504282
-0.010764
0.00825216
0.601914
-0.00623211
0.00485629
0.720433
-0.00371372
0.00289928
0.863721
-0.00218038
0.001633
1.036
-0.00112313
0.000713236
1.24291
-0.000315509
-6.428e-05
1.49157
0.000423951
-0.000831058
1.4916
0.00123682
-0.00173916
1.24319
0.00227688
-0.00298344
1.03634
0.00378767
-0.00492185
0.864041
0.00629374
-0.00831142
0.721075
0.0108187
-0.014665
0.603061
0.0196889
-0.027725
0.507475
0.0381406
-0.053768
0.431795
0.0714708
-0.0898599
0.365165
0.0900041
0.199007
-0.128144
0.0882383
0.0399053
-0.364603
0.353429
-0.0746531
0.0858273
-0.446482
0.45433
-0.0843226
0.0764754
-0.521169
0.529916
-0.068367
0.0596201
-0.612756
0.62155
-0.051401
0.0426063
-0.726899
0.734096
-0.03517
0.0279732
-0.867481
0.872543
-0.0224352
0.0173726
-1.03844
1.04187
-0.0135809
0.0101488
-1.24459
1.24698
-0.007564
0.00517638
-1.49267
1.49458
-0.00328042
0.00136421
-1.49246
1.49415
0.000272463
-0.0019626
-1.24398
1.24585
0.00383536
-0.00570764
-1.03748
1.04003
0.00806536
-0.0106193
-0.866085
0.869848
0.0140201
-0.0177829
-0.724419
0.72992
0.0228047
-0.0283052
-0.608699
0.616109
0.0354655
-0.0428757
-0.514891
0.523086
0.0516437
-0.0598386
-0.439869
0.447955
0.0685581
-0.0766439
-0.375322
0.376795
0.0844645
-0.0859378
-0.257367
0.222574
0.0747278
-0.0399345
-0.0685519
0.0587561
0.00979585
-0.0516794
0.0582377
-0.374154
0.367596
-0.0573117
0.0535659
-0.453614
0.457359
-0.0485046
0.0445649
-0.527979
0.531919
-0.0407099
0.0370229
-0.621533
0.62522
-0.0328351
0.0287136
-0.735237
0.739358
-0.0241609
0.0200634
-0.874196
0.878293
-0.0158332
0.0122555
-1.04336
1.04693
-0.00869152
0.00565391
-1.24849
1.25153
-0.00246094
-0.000553572
-1.49659
1.49961
0.00353844
-0.00669911
-1.49719
1.50035
0.00968452
-0.0131779
-1.25003
1.25352
0.0166917
-0.0208576
-1.04585
1.05002
0.0248962
-0.0293846
-0.877706
0.882194
0.0334468
-0.03757
-0.739923
0.744047
0.0412038
-0.0450045
-0.626875
0.630675
0.0488989
-0.0539178
-0.534922
0.53994
0.0576195
-0.0584914
-0.457575
0.458446
0.0518703
-0.0318044
-0.335935
0.315869
0.00982667
-0.0684648
0.0586381
-0.0530326
0.0490793
0.00395337
-0.0328556
0.0432829
-0.358208
0.347781
-0.046901
0.0462376
-0.459272
0.459935
-0.0431701
0.0398367
-0.53575
0.539083
-0.0360978
0.0328426
-0.628521
0.631776
-0.0294765
0.0264866
-0.742617
0.745607
-0.0232576
0.0201978
-0.881848
0.884908
-0.0167751
0.0135344
-1.0505
1.05374
-0.00992272
0.00656378
-1.25483
1.25819
-0.00281213
-0.000793091
-1.50293
1.50654
0.00437824
-0.00807814
-1.50384
1.50754
0.0113742
-0.0149005
-1.2572
1.26073
0.0180489
-0.0213623
-1.05386
1.05718
0.0243269
-0.0274582
-0.885791
0.888922
0.0303667
-0.0336551
-0.747389
0.750677
0.0368361
-0.0404986
-0.634462
0.638125
0.0437681
-0.0467649
-0.544244
0.547241
0.0473568
-0.0436422
-0.456809
0.453095
0.0331033
-0.0159424
-0.296694
0.279533
0.00399081
-0.0528799
0.0488891
-0.0460579
0.0436281
0.00242976
-0.0223177
0.032494
-0.337258
0.327082
-0.0381738
0.0391103
-0.459706
0.45877
-0.0378388
0.0354887
-0.541839
0.544189
-0.0327838
0.0302064
-0.634742
0.63732
-0.0272492
0.0245157
-0.748504
0.751237
-0.0214868
0.0187323
-0.887732
0.890486
-0.0156689
0.0127769
-1.0567
1.0596
-0.00946232
0.00626654
-1.26147
1.26467
-0.00253789
-0.0011042
-1.51028
1.51392
0.0047281
-0.00838679
-1.51129
1.51495
0.0114887
-0.0146859
-1.26402
1.26722
0.0174617
-0.0203919
-1.06018
1.06311
0.0230228
-0.0259215
-0.891905
0.894804
0.0285384
-0.0313659
-0.753822
0.756649
0.0338332
-0.0364293
-0.641268
0.643864
0.0386914
-0.0398525
-0.549216
0.550377
0.0388052
-0.0329713
-0.44807
0.442236
0.0226327
-0.0098432
-0.264673
0.251883
0.00247638
-0.0458263
0.0433499
-0.0416286
0.0399581
0.00167049
-0.0159148
0.0247583
-0.317513
0.30867
-0.0310764
0.0331419
-0.457201
0.455135
-0.0327992
0.0312764
-0.5461
0.547622
-0.0292525
0.0272554
-0.639554
0.641551
-0.0249187
0.0226574
-0.753727
0.755989
-0.0199906
0.0174204
-0.893188
0.895758
-0.0144485
0.0116452
-1.06248
1.06528
-0.00845225
0.00542458
-1.26778
1.27081
-0.0019309
-0.0014585
-1.51741
1.5208
0.00481522
-0.00821319
-1.51847
1.52187
0.0111241
-0.0141561
-1.27036
1.2734
0.0167951
-0.0195779
-1.06601
1.0688
0.0219765
-0.024458
-0.897521
0.900002
0.0265663
-0.0287431
-0.759128
0.761305
0.0306048
-0.0324914
-0.646056
0.647943
0.0338932
-0.034094
-0.550962
0.551163
0.0318715
-0.0253435
-0.435935
0.429407
0.0162931
-0.00683444
-0.240901
0.231442
0.00172547
-0.0412998
0.0395743
-0.0385489
0.0373697
0.00117916
-0.0114671
0.018719
-0.300595
0.293344
-0.024907
0.027572
-0.452719
0.450054
-0.0277388
0.0266906
-0.548884
0.549932
-0.0249229
0.0232556
-0.643356
0.645024
-0.0213567
0.0194883
-0.758059
0.759927
-0.0173
0.0151502
-0.89814
0.90029
-0.0126364
0.0101904
-1.06793
1.07037
-0.00734026
0.00456937
-1.27371
1.27648
-0.00132369
-0.00188279
-1.5241
1.5273
0.00504643
-0.00816954
-1.52512
1.52824
0.0107803
-0.0134254
-1.27625
1.27889
0.0156697
-0.0179552
-1.07136
1.07365
0.0198873
-0.021833
-0.902252
0.904198
0.0234907
-0.0251885
-0.763244
0.764942
0.0266862
-0.028284
-0.649646
0.651244
0.0291577
-0.028792
-0.551074
0.550708
0.0259041
-0.0194344
-0.422825
0.416356
0.0119249
-0.00491456
-0.223275
0.216265
0.00124701
-0.0381038
0.0368567
-0.0363941
0.035584
0.000810065
-0.00797323
0.013548
-0.286944
0.281369
-0.0190376
0.0219232
-0.447236
0.444351
-0.0225932
0.0220111
-0.55075
0.551332
-0.0205161
0.0190289
-0.646619
0.648107
-0.0173789
0.015831
-0.761611
0.763159
-0.0140773
0.0123717
-0.902169
0.903875
-0.0103575
0.00833234
-1.07259
1.07461
-0.00589251
0.00343462
-1.27912
1.28157
-0.00050118
-0.00238705
-1.5304
1.53329
0.00522235
-0.0080017
-1.53123
1.53401
0.0102547
-0.0124244
-1.2813
1.28347
0.0141847
-0.0158982
-1.0756
1.07732
0.0173268
-0.0187988
-0.905849
0.907321
0.0200772
-0.0214646
-0.766462
0.76785
0.0227312
-0.0239968
-0.652724
0.65399
0.0243545
-0.0234147
-0.550055
0.549115
0.0202416
-0.0144044
-0.410155
0.404318
0.00852131
-0.00347226
-0.210296
0.205247
0.000892246
-0.0358065
0.0349143
-0.0349228
0.0344203
0.000502539
-0.00499227
0.00896355
-0.276593
0.272622
-0.0135014
0.0163686
-0.441451
0.438583
-0.017555
0.0174677
-0.551681
0.551768
-0.0166377
0.0156576
-0.649374
0.650354
-0.0144622
0.0132448
-0.764556
0.765773
-0.0117265
0.0101789
-0.905511
0.907058
-0.00827783
0.00639983
-1.07655
1.07843
-0.00417349
0.00200126
-1.28386
1.28603
0.000547832
-0.00302147
-1.53592
1.5384
0.00543247
-0.00779518
-1.53655
1.53891
0.00971519
-0.0116085
-1.28548
1.28737
0.0131452
-0.0146452
-1.07893
1.08043
0.0158429
-0.0169859
-0.908641
0.909784
0.0178923
-0.0187394
-0.769021
0.769868
0.0194228
-0.0199428
-0.654916
0.655436
0.0197325
-0.0181866
-0.547875
0.546329
0.0149473
-0.00998188
-0.398889
0.393924
0.00564602
-0.00226998
-0.201046
0.19767
0.000603458
-0.0341614
0.033558
-0.0340855
0.0339047
0.00018082
-0.00233094
0.00474273
-0.269457
0.267045
-0.00807997
0.0106643
-0.435811
0.433227
-0.0122105
0.0126109
-0.551577
0.551176
-0.0123689
0.0118046
-0.651079
0.651643
-0.0109915
0.010108
-0.766822
0.767706
-0.00898537
0.00778499
-0.908449
0.909649
-0.00630088
0.00474251
-1.08017
1.08173
-0.00280865
0.000842111
-1.28812
1.29009
0.00152093
-0.00385624
-1.54081
1.54314
0.00610206
-0.0082088
-1.54116
1.54327
0.00984317
-0.0113358
-1.28911
1.2906
0.0124605
-0.0134741
-1.08172
1.08274
0.0142205
-0.0148495
-0.910706
0.911335
0.015288
-0.0156454
-0.770418
0.770775
0.0158133
-0.0156434
-0.655556
0.655386
0.014856
-0.0128504
-0.544502
0.542496
0.00981503
-0.0059757
-0.389493
0.385654
0.00313219
-0.00118724
-0.19507
0.193125
0.000305394
-0.0331119
0.0328065
-0.0338418
0.0338533
-1.14997e-05
-0.000809593
0.00211884
-0.265269
0.26396
-0.00425653
0.00618437
-0.430942
0.429014
-0.00757351
0.00806953
-0.550677
0.550181
-0.00803072
0.00768282
-0.652105
0.652453
-0.0071844
0.00661834
-0.768415
0.768981
-0.00583238
0.00494857
-0.91067
0.911553
-0.00375255
0.00246406
-1.08312
1.08441
-0.000852123
-0.000805065
-1.29188
1.29354
0.00282239
-0.00482072
-1.54532
1.54732
0.00670735
-0.00840667
-1.54517
1.54687
0.00964281
-0.0106976
-1.29185
1.2929
0.0114039
-0.01192
-1.08347
1.08399
0.0122183
-0.0123776
-0.911669
0.911828
0.0124296
-0.0124373
-0.77098
0.770988
0.0123662
-0.0118899
-0.655044
0.654567
0.0109081
-0.00894644
-0.54046
0.538498
0.00645732
-0.00369119
-0.382399
0.379633
0.00183201
-0.000645369
-0.191656
0.190469
0.000145381
-0.0326049
0.0324596
-0.0339002
0.0339639
-6.37784e-05
-0.00033007
0.00118291
-0.262943
0.26209
-0.00266392
0.00406224
-0.427405
0.426007
-0.0051132
0.00550917
-0.549737
0.549341
-0.00553637
0.00526703
-0.652719
0.652989
-0.00477362
0.00423423
-0.769512
0.770052
-0.00353916
0.0027445
-0.912358
0.913152
-0.00167682
0.000520668
-1.08561
1.08676
0.000951459
-0.00246886
-1.2951
1.29662
0.00428181
-0.00601785
-1.54917
1.5509
0.00762668
-0.00905944
-1.54842
1.54985
0.0100825
-0.010919
-1.29383
1.29466
0.0114547
-0.0117937
-1.08441
1.08475
0.0119121
-0.0118946
-0.911867
0.91185
0.011729
-0.011408
-0.770788
0.770467
0.0109974
-0.0103082
-0.653963
0.653274
0.00928775
-0.00751019
-0.536649
0.534872
0.00540784
-0.00313973
-0.377201
0.374933
0.00160021
-0.000581417
-0.189414
0.188396
0.000132569
-0.0323338
0.0322012
-0.0340309
0.0341042
-7.32802e-05
-0.000127784
0.000810176
-0.26132
0.260638
-0.00212954
0.00349127
-0.424681
0.423319
-0.00462006
0.00509522
-0.548962
0.548486
-0.00508739
0.00477954
-0.653338
0.653646
-0.00427872
0.00366385
-0.770651
0.771266
-0.00282715
0.00189483
-0.913996
0.914928
-0.000670834
-0.000636804
-1.08792
1.08923
0.00227721
-0.00392801
-1.29813
1.29978
0.00583038
-0.00758095
-1.55258
1.55433
0.00917329
-0.0105779
-1.55121
1.55262
0.0115456
-0.0122853
-1.29541
1.29615
0.0126854
-0.012886
-1.08502
1.08522
0.012888
-0.0127894
-0.911802
0.911704
0.012635
-0.0123169
-0.770092
0.769774
0.0119171
-0.0110831
-0.652554
0.65172
0.00984116
-0.00779564
-0.533057
0.531011
0.00554127
-0.00322962
-0.372688
0.370376
0.00169037
-0.000655342
-0.187377
0.186342
0.000167222
-0.0320571
0.0318898
-0.0341832
0.0342854
-0.000102226
0.000226092
0.000254338
-0.260034
0.259553
-0.00147249
0.00303771
-0.421842
0.420276
-0.00474143
0.00582158
-0.547802
0.546721
-0.00632012
0.00632629
-0.653819
0.653813
-0.0058501
0.00511244
-0.772016
0.772754
-0.00404646
0.0027713
-0.916031
0.917306
-0.0010759
-0.000702364
-1.09071
1.09249
0.00286333
-0.00497856
-1.3016
1.30372
0.00739792
-0.00962566
-1.55625
1.55848
0.011644
-0.0134258
-1.5542
1.55599
0.0146906
-0.0157874
-1.29703
1.29813
0.016519
-0.0169862
-1.08552
1.08599
0.0171635
-0.0170597
-0.911555
0.911451
0.0166443
-0.0160218
-0.769309
0.768686
0.015118
-0.013459
-0.650593
0.648934
0.0113078
-0.00839512
-0.528583
0.52567
0.00570635
-0.00327411
-0.367987
0.365554
0.00175281
-0.000725953
-0.185311
0.184284
0.000205809
-0.0317107
0.0315049
-0.0344069
0.0345593
-0.000152396
0.000706584
-0.000639063
-0.259263
0.259195
-0.000175173
0.00161457
-0.418737
0.417297
-0.00364039
0.00534796
-0.545342
0.543634
-0.00655266
0.0067458
-0.653665
0.653471
-0.00648242
0.00589004
-0.773535
0.774128
-0.00465947
0.00307423
-0.918746
0.920331
-0.000933857
-0.00129259
-1.09445
1.09667
0.0039564
-0.00653785
-1.30604
1.30862
0.00948389
-0.0122179
-1.56097
1.5637
0.0146794
-0.0168229
-1.55802
1.56017
0.0183614
-0.0196543
-1.29934
1.30064
0.0204755
-0.0210392
-1.08654
1.0871
0.0211773
-0.0209055
-0.911193
0.910921
0.0203775
-0.019234
-0.76785
0.766706
0.0174149
-0.0146778
-0.646744
0.644007
0.0116318
-0.0081481
-0.522426
0.518943
0.00538014
-0.00311477
-0.363188
0.360923
0.00173524
-0.00076315
-0.183302
0.18233
0.000230991
-0.0313014
0.0310704
-0.0347467
0.0349653
-0.000218576
0.00130431
-0.00167136
-0.259321
0.259688
0.00155662
-0.000711618
-0.416181
0.415336
-0.000922824
0.00258329
-0.541946
0.540286
-0.00405512
0.00482315
-0.652912
0.652144
-0.00474125
0.00403617
-0.774856
0.775562
-0.00261545
0.000841437
-0.921986
0.92376
0.00150498
-0.00391307
-1.09894
1.10134
0.00677029
-0.0095153
-1.31126
1.314
0.012612
-0.0154189
-1.56649
1.5693
0.0178927
-0.0199499
-1.56238
1.56444
0.0213171
-0.0223941
-1.3019
1.30298
0.0229942
-0.0231951
-1.08747
1.08767
0.0230383
-0.0225637
-0.910431
0.909956
0.0215448
-0.0196204
-0.765107
0.763182
0.0171544
-0.013936
-0.640994
0.637776
0.0107385
-0.00743425
-0.51555
0.512245
0.00499666
-0.00304246
-0.358863
0.356909
0.00179197
-0.000826942
-0.181405
0.18044
0.000258465
-0.0308534
0.0305949
-0.035245
0.0355449
-0.000299962
0.00188498
-0.00272327
-0.260281
0.261119
0.00329335
-0.00330358
-0.415055
0.415065
0.00261836
-0.00171641
-0.539146
0.538244
0.000840312
-0.00040757
-0.651481
0.651049
0.000553852
-0.00129513
-0.776266
0.777007
0.00266371
-0.00433648
-0.925338
0.92701
0.00654924
-0.00883145
-1.10355
1.10583
0.011537
-0.0141023
-1.31659
1.31915
0.0169178
-0.0193631
-1.57192
1.57436
0.0213742
-0.0228962
-1.56631
1.56783
0.0237126
-0.0241178
-1.30383
1.30424
0.0241094
-0.023794
-1.08752
1.08721
0.0231954
-0.0219781
-0.909012
0.907795
0.0203506
-0.0180865
-0.760956
0.758691
0.0155995
-0.0125895
-0.634659
0.631649
0.00981567
-0.00706009
-0.509337
0.506581
0.00501305
-0.00325686
-0.355185
0.353429
0.00200746
-0.000950521
-0.179497
0.17844
0.000299019
-0.0303524
0.0300534
-0.0359269
0.0363257
-0.00039878
0.00252153
-0.00375139
-0.262204
0.263434
0.00493303
-0.00567119
-0.415529
0.416267
0.00599575
-0.0060356
-0.53801
0.538049
0.00605308
-0.00626167
-0.651047
0.651256
0.00686865
-0.00783903
-0.777752
0.778723
0.00934365
-0.0110357
-0.928438
0.93013
0.0131658
-0.0152899
-1.10784
1.10996
0.017741
-0.0199924
-1.32145
1.3237
0.0223353
-0.0242085
-1.57647
1.57834
0.0255533
-0.0263135
-1.56899
1.56975
0.0264231
-0.0260114
-1.30432
1.3039
0.0253433
-0.0242536
-1.08638
1.08529
0.0228984
-0.0211143
-0.90609
0.904306
0.0192527
-0.0169686
-0.756316
0.754032
0.0146846
-0.0120757
-0.628904
0.626296
0.00974529
-0.00740303
-0.504242
0.5019
0.00554881
-0.00378241
-0.351847
0.350081
0.00239211
-0.00114522
-0.177371
0.176124
0.000360241
-0.0297627
0.0294024
-0.0368166
0.0373376
-0.000521027
0.00327202
-0.0049209
-0.264974
0.266623
0.00665779
-0.00800722
-0.417406
0.418755
0.00909657
-0.00990006
-0.53871
0.539513
0.0107655
-0.0117358
-0.651962
0.652932
0.0130681
-0.0145525
-0.779789
0.781274
0.016443
-0.018345
-0.931642
0.933544
0.0205767
-0.0226896
-1.11187
1.11399
0.0250082
-0.0270127
-1.32569
1.32769
0.0289193
-0.0302164
-1.57984
1.58114
0.0308502
-0.0307707
-1.57008
1.57
0.0301395
-0.0289994
-1.30314
1.302
0.0276392
-0.0258451
-1.0837
1.08191
0.023995
-0.0218365
-0.902201
0.900042
0.0197774
-0.0174564
-0.751609
0.749288
0.0152894
-0.0129042
-0.623883
0.621498
0.0107706
-0.00852789
-0.499862
0.49762
0.00660002
-0.00460494
-0.348398
0.346403
0.00295305
-0.0014204
-0.174837
0.173304
0.000446698
-0.0290486
0.0286019
-0.0379514
0.0386403
-0.000688889
0.00429077
-0.00647915
-0.26861
0.270798
0.00885584
-0.0108159
-0.420557
0.422517
0.0125997
-0.014056
-0.540961
0.542417
0.0156594
-0.0173277
-0.654336
0.656005
0.0194117
-0.0215087
-0.78283
0.784927
0.0239555
-0.0262629
-0.93538
0.937688
0.0288222
-0.0311163
-1.11598
1.11828
0.0334836
-0.0353753
-1.32948
1.33138
0.0369625
-0.0377662
-1.58208
1.58288
0.0377615
-0.0369243
-1.56948
1.56864
0.0355919
-0.0336958
-1.30046
1.29856
0.0316712
-0.0292562
-1.07975
1.07734
0.0269576
-0.0244107
-0.897557
0.895011
0.0221008
-0.0196173
-0.746732
0.744249
0.0173808
-0.0149531
-0.619155
0.616727
0.0127381
-0.0102974
-0.49558
0.49314
0.00808213
-0.00569693
-0.344457
0.342072
0.00366748
-0.00176539
-0.171718
0.169816
0.000555114
-0.0281655
0.0276104
-0.0394333
0.0403503
-0.000917006
0.00565797
-0.00852935
-0.273337
0.276208
0.0116492
-0.0142405
-0.424949
0.42754
0.0166848
-0.0187751
-0.544615
0.546706
0.0211393
-0.0235387
-0.658121
0.66052
0.0264304
-0.0292292
-0.787088
0.789887
0.032387
-0.0352692
-0.939991
0.942873
0.0383531
-0.0409976
-1.12052
1.12316
0.0435727
-0.0454708
-1.33311
1.335
0.0468408
-0.0472177
-1.58337
1.58374
0.0466119
-0.0450411
-1.56739
1.56582
0.0430138
-0.0403551
-1.29625
1.29359
0.0376789
-0.0346159
-1.07454
1.07147
0.0317953
-0.0287571
-0.892066
0.889028
0.0260741
-0.0232569
-0.741392
0.738575
0.0207624
-0.0180652
-0.614187
0.61149
0.015559
-0.0127064
-0.490853
0.488
0.0100412
-0.00709436
-0.339719
0.336772
0.0045652
-0.00219299
-0.167859
0.165487
0.00068831
-0.0270784
0.0263901
-0.0413829
0.0426408
-0.00125795
0.00760384
-0.0113905
-0.279471
0.283257
0.0154522
-0.0187993
-0.430758
0.434105
0.0219919
-0.0247829
-0.549716
0.552507
0.0279852
-0.0312083
-0.663393
0.666616
0.035026
-0.03865
-0.792742
0.796366
0.0426575
-0.0462318
-0.945754
0.949329
0.0499461
-0.0530196
-1.12577
1.12884
0.0558764
-0.0578304
-1.33676
1.33871
0.0590099
-0.0589544
-1.5838
1.58374
0.0577157
-0.055352
-1.5638
1.56144
0.0525693
-0.0490851
-1.29049
1.28701
0.0456863
-0.0418763
-1.06797
1.06416
0.0384243
-0.0347576
-0.885493
0.881826
0.0315595
-0.0282374
-0.735229
0.731906
0.0253182
-0.0221674
-0.608521
0.60537
0.0192077
-0.0157757
-0.485264
0.481832
0.0124739
-0.00882217
-0.333882
0.33023
0.00567343
-0.00272145
-0.163077
0.160125
0.000851041
-0.025745
0.0248939
-0.0439927
0.0457734
-0.00178077
0.0105039
-0.0155797
-0.28746
0.292536
0.0208806
-0.0251546
-0.438341
0.442615
0.0292193
-0.0328241
-0.556494
0.560099
0.0370366
-0.0412599
-0.670379
0.674602
0.0461921
-0.0507863
-0.800049
0.804643
0.0557693
-0.06012
-0.952918
0.957269
0.0645271
-0.0680541
-1.13188
1.13541
0.0711767
-0.0731335
-1.34048
1.34244
0.0740249
-0.0734239
-1.5833
1.58269
0.0714344
-0.0681543
-1.55856
1.55528
0.0645053
-0.0600751
-1.28302
1.27859
0.0558358
-0.0511404
-1.05984
1.05514
0.0469227
-0.0424722
-0.877552
0.873101
0.0386113
-0.0346201
-0.727894
0.723903
0.0311278
-0.0273649
-0.601774
0.598011
0.0238053
-0.0196361
-0.478437
0.474267
0.0155602
-0.0109601
-0.326678
0.322078
0.00701062
-0.00332681
-0.157173
0.153489
0.00102723
-0.0241123
0.0230851
-0.0476018
0.0502056
-0.00260381
0.0149198
-0.0217846
-0.298035
0.3049
0.0286752
-0.034099
-0.448291
0.453715
0.0392708
-0.0439683
-0.565354
0.570052
0.0495379
-0.055026
-0.679443
0.684931
0.0612935
-0.066997
-0.809289
0.814992
0.0730374
-0.0781791
-0.961601
0.966743
0.0832309
-0.0871095
-1.13882
1.1427
0.0903274
-0.0920945
-1.34411
1.34587
0.092462
-0.0910922
-1.58158
1.58021
0.0881455
-0.083757
-1.55138
1.547
0.0790888
-0.073559
-1.27358
1.26805
0.0683442
-0.0626177
-1.04986
1.04413
0.0575001
-0.0521135
-0.867933
0.862547
0.0474488
-0.0426363
-0.719054
0.714241
0.0384381
-0.0339133
-0.593595
0.58907
0.0295888
-0.0244718
-0.470019
0.464902
0.0194036
-0.013639
-0.317661
0.311896
0.00866085
-0.00407162
-0.14988
0.145291
0.00124198
-0.0221394
0.0208974
-0.0527846
0.0568534
-0.00406886
0.0221852
-0.0316252
-0.312359
0.321799
0.0406647
-0.0476428
-0.461479
0.468458
0.0542792
-0.0604423
-0.576985
0.583148
0.067749
-0.0747459
-0.691023
0.69802
0.0824656
-0.0892521
-0.820667
0.827453
0.0962024
-0.101911
-0.971732
0.977441
0.107291
-0.111198
-1.14627
1.15018
0.114141
-0.115374
-1.34716
1.34839
0.114847
-0.112384
-1.57815
1.57569
0.108197
-0.102456
-1.54185
1.53611
0.0965894
-0.0897944
-1.26184
1.25504
0.0834745
-0.0765896
-1.03773
1.03085
0.0704618
-0.0640155
-0.856346
0.8499
0.0584297
-0.052666
-0.708397
0.702634
0.0476457
-0.0422166
-0.583622
0.578193
0.0369435
-0.0306314
-0.459559
0.453247
0.0243024
-0.0170591
-0.306369
0.299126
0.0107767
-0.00500944
-0.140867
0.135099
0.00150064
-0.0197645
0.0182638
-0.0606467
0.067849
-0.0072023
0.0356339
-0.0493257
-0.332696
0.346387
0.061427
-0.0702597
-0.479122
0.487955
0.0785709
-0.0864365
-0.592164
0.600029
0.0955803
-0.103915
-0.705374
0.713709
0.112676
-0.12004
-0.833969
0.841334
0.127283
-0.132963
-0.98272
0.988399
0.138017
-0.141347
-1.15345
1.15678
0.143397
-0.143551
-1.34882
1.34897
0.14161
-0.137616
-1.57227
1.56828
0.131838
-0.124474
-1.52944
1.52208
0.117214
-0.109007
-1.24748
1.23927
0.101472
-0.0933401
-1.02323
1.0151
0.0861372
-0.0785803
-0.842577
0.83502
0.0720254
-0.0652406
-0.695683
0.688898
0.0593167
-0.052887
-0.571522
0.565092
0.0465353
-0.038689
-0.446461
0.438614
0.0307243
-0.0215764
-0.292063
0.282915
0.0135758
-0.00623674
-0.129702
0.122363
0.0017864
-0.0169292
0.0151428
-0.0748059
0.0783263
-0.00352041
0.0253674
-0.0372337
-0.3631
0.374966
0.0479306
-0.0563279
-0.501995
0.510392
0.0651614
-0.0747527
-0.610599
0.62019
0.0855406
-0.0951841
-0.721562
0.731205
0.105883
-0.115306
-0.847894
0.857316
0.125085
-0.133455
-0.993148
1.00152
0.14177
-0.148407
-1.15901
1.16565
0.154289
-0.158085
-1.34791
1.35171
0.160021
-0.159225
-1.56303
1.56223
0.155573
-0.149481
-1.51359
1.5075
0.142378
-0.133411
-1.23018
1.22122
0.124689
-0.114275
-1.0062
0.995784
0.104781
-0.0944106
-0.82656
0.816189
0.0852167
-0.0755323
-0.680835
0.67115
0.066713
-0.0573142
-0.556972
0.547573
0.0483115
-0.0371559
-0.430048
0.418892
0.0268405
-0.0164709
-0.273706
0.263336
0.00872331
-0.00310496
-0.115634
0.110015
0.000517404
-0.0136093
0.0130919
-0.0857648
0.0828081
0.00295662
0.00327791
-0.0100687
-0.389728
0.396519
0.0181173
-0.0248124
-0.523477
0.530173
0.0331473
-0.0415518
-0.630529
0.638933
0.0513092
-0.0601946
-0.740653
0.749538
0.0696446
-0.0781949
-0.866279
0.87483
0.0870834
-0.0944036
-1.00963
1.01695
0.101881
-0.107521
-1.17215
1.17779
0.112473
-0.11537
-1.35524
1.35813
0.116188
-0.114556
-1.56059
1.55896
0.110207
-0.103552
-1.50057
1.49391
0.0958911
-0.0865228
-1.21172
1.20235
0.0775279
-0.0672881
-0.985029
0.974789
0.0577344
-0.0472028
-0.804864
0.794332
0.0378378
-0.0283338
-0.659156
0.649652
0.0202662
-0.0120509
-0.53524
0.527025
0.00513602
0.000948866
-0.406914
0.400829
-0.00452372
0.00605792
-0.251878
0.250343
-0.00568833
0.00364322
-0.103191
0.105236
-0.00157222
-0.011487
0.0130592
-0.0855151
0.0822376
0.0032775
-0.00467604
0.00147424
-0.406865
0.410067
0.00343379
-0.00862016
-0.540881
0.546068
0.0155129
-0.0227816
-0.647823
0.655091
0.0311178
-0.0387326
-0.757819
0.765434
0.0470452
-0.0544267
-0.882708
0.890089
0.0619038
-0.0684517
-1.02413
1.03068
0.074983
-0.0800253
-1.18308
1.18813
0.0840693
-0.0862458
-1.36049
1.36267
0.0867466
-0.0848393
-1.55676
1.55486
0.0804592
-0.074051
-1.48682
1.48041
0.0668851
-0.0584239
-1.19307
1.18461
0.0500433
-0.040838
-0.964462
0.955256
0.0323119
-0.0230022
-0.784107
0.774797
0.0149713
-0.00678999
-0.639203
0.631022
8.13877e-05
0.0065091
-0.516615
0.510024
-0.0112593
0.0143081
-0.39222
0.389171
-0.0146474
0.0122973
-0.245218
0.247568
-0.0090364
0.00496163
-0.105142
0.109217
-0.00179626
-0.0131279
0.0149242
-0.0834815
0.0803345
0.003147
-0.00761502
0.00648529
-0.417553
0.418682
-0.00347416
-0.000644907
-0.554415
0.558534
0.00662479
-0.0126873
-0.662237
0.668299
0.0198023
-0.0263248
-0.772713
0.779236
0.0334054
-0.0397241
-0.897047
0.903365
0.0465247
-0.0521266
-1.03684
1.04244
0.057936
-0.0620455
-1.19287
1.19698
0.0656674
-0.0676232
-1.36479
1.36674
0.0679365
-0.0659218
-1.55277
1.55075
0.0620674
-0.0564791
-1.47377
1.46818
0.0502394
-0.0426305
-1.17629
1.16868
0.0355027
-0.0277743
-0.946212
0.938483
0.0205594
-0.0130432
-0.765952
0.758436
0.00624863
0.000449487
-0.622228
0.61553
-0.00588276
0.01073
-0.50187
0.497022
-0.0138666
0.0154434
-0.38266
0.381084
-0.0148386
0.0116063
-0.245153
0.248386
-0.00827638
0.00434619
-0.110619
0.11455
-0.00151122
-0.0153489
0.0168601
-0.081427
0.0788131
0.00261386
-0.00804533
0.00815685
-0.424485
0.424374
-0.00583528
0.00262048
-0.565589
0.568804
0.00222721
-0.00766443
-0.674447
0.679884
0.0136763
-0.0194427
-0.785336
0.791103
0.0256139
-0.0311518
-0.909377
0.914915
0.0370551
-0.0421251
-1.04798
1.05305
0.0471658
-0.0511011
-1.20103
1.20496
0.0544121
-0.056254
-1.36851
1.37036
0.0566269
-0.0549138
-1.54883
1.54711
0.0515966
-0.0466096
-1.46227
1.45728
0.0412517
-0.03489
-1.16142
1.15506
0.0288825
-0.022286
-0.930909
0.924312
0.0163895
-0.0101924
-0.751093
0.744895
0.0048538
0.000432234
-0.608656
0.603369
-0.00450518
0.00794058
-0.490651
0.487215
-0.0101353
0.0109569
-0.376524
0.375703
-0.0100128
0.00756149
-0.246584
0.249035
-0.00520394
0.00262022
-0.115128
0.117711
-0.00095161
-0.0170649
0.0180165
-0.0797734
0.0776056
0.0021678
-0.00744903
0.00777282
-0.429095
0.428772
-0.00647342
0.00369588
-0.574357
0.577134
0.000912681
-0.00554598
-0.684921
0.689554
0.0107521
-0.0158075
-0.796319
0.801374
0.0213523
-0.0263758
-0.920246
0.925269
0.0318812
-0.0364417
-1.05795
1.06251
0.0411199
-0.0448156
-1.20871
1.21241
0.0479392
-0.0497325
-1.37206
1.37385
0.0502143
-0.0491516
-1.54552
1.54446
0.0462759
-0.0420915
-1.45214
1.44796
0.0374146
-0.0318816
-1.14882
1.14328
0.0269108
-0.0211702
-0.917918
0.912177
0.0161478
-0.0110789
-0.738931
0.733862
0.00668876
-0.00237068
-0.598082
0.593764
-0.000979686
0.00393823
-0.482358
0.4794
-0.00552036
0.00621174
-0.372057
0.371365
-0.00586209
0.00437224
-0.2468
0.24829
-0.00295159
0.0015737
-0.117261
0.118639
-0.000624848
-0.0177873
0.0184121
-0.0786208
0.0769604
0.0016604
-0.00623348
0.00669276
-0.432504
0.432045
-0.00549675
0.00329061
-0.582165
0.584371
0.000914009
-0.00510138
-0.694107
0.698295
0.0100683
-0.0144901
-0.806237
0.810659
0.0194387
-0.0239718
-0.930379
0.934912
0.0292886
-0.0335374
-1.06718
1.07143
0.0378432
-0.0414922
-1.21603
1.21968
0.0449298
-0.0467615
-1.37575
1.37758
0.0475702
-0.0467561
-1.54316
1.54235
0.0446146
-0.040759
-1.44372
1.43987
0.0367896
-0.0320362
-1.13778
1.13302
0.0275444
-0.022653
-0.906649
0.901757
0.0181879
-0.0135475
-0.728682
0.724042
0.00989197
-0.00598292
-0.589194
0.585285
0.00286898
-0.000306757
-0.475303
0.472741
-0.0013683
0.00242471
-0.368133
0.367076
-0.00254921
0.00205472
-0.245848
0.246343
-0.00151438
0.000908656
-0.117366
0.117972
-0.000436
-0.017896
0.018332
-0.0780458
0.0767536
0.00129219
-0.00496602
0.00545976
-0.435253
0.43476
-0.00427636
0.00203687
-0.589015
0.591254
0.00183398
-0.00560255
-0.702448
0.706217
0.00992231
-0.0142257
-0.81519
0.819494
0.0188674
-0.0235946
-0.939363
0.94409
0.028275
-0.0324191
-1.07586
1.08
0.0369502
-0.040484
-1.22331
1.22684
0.0435955
-0.0459777
-1.37943
1.38181
0.0471469
-0.046803
-1.54168
1.54134
0.0449944
-0.0418249
-1.43624
1.43307
0.0382637
-0.0339165
-1.128
1.12365
0.0298662
-0.0253445
-0.896746
0.892224
0.0212284
-0.0170623
-0.719441
0.715275
0.0133593
-0.00973777
-0.581082
0.577461
0.00685039
-0.00411603
-0.469053
0.466319
0.0022097
-0.00103014
-0.363792
0.362612
0.000301708
0.00014394
-0.243584
0.243138
-0.000398977
0.000431459
-0.116115
0.116082
-0.000316795
-0.0176249
0.0179417
-0.0780372
0.0769531
0.00108407
-0.00358306
0.00383163
-0.437856
0.437608
-0.00276476
0.00045782
-0.595315
0.597622
0.00307081
-0.00671857
-0.71026
0.713908
0.0108982
-0.0148566
-0.823737
0.827696
0.0196593
-0.0236653
-0.948347
0.952353
0.0283687
-0.032405
-1.08437
1.08841
0.0368994
-0.0406937
-1.23043
1.23422
0.0441947
-0.0464861
-1.38406
1.38635
0.0480946
-0.0482247
-1.54098
1.54111
0.0470895
-0.0442263
-1.42979
1.42693
0.0410385
-0.0369875
-1.11933
1.11528
0.0332005
-0.028837
-0.887381
0.883018
0.0249679
-0.0207926
-0.710816
0.706641
0.017151
-0.0134752
-0.573479
0.569804
0.010421
-0.00774741
-0.462691
0.460017
0.00555333
-0.00393295
-0.358979
0.357359
0.00261293
-0.00148499
-0.240116
0.238988
0.000606889
6.43107e-05
-0.113787
0.113116
-0.000227458
-0.0170379
0.0172654
-0.0783066
0.0775347
0.000771879
-0.00239676
0.00216265
-0.440649
0.440883
-0.00121866
-0.00116413
-0.600922
0.603304
0.00435811
-0.00788521
-0.717587
0.721115
0.0119144
-0.0160172
-0.831634
0.835737
0.0202587
-0.0244524
-0.956636
0.96083
0.0291612
-0.0330388
-1.09292
1.0968
0.0376807
-0.0414924
-1.23789
1.24171
0.0451288
-0.0480129
-1.3891
1.39199
0.050191
-0.0506794
-1.54134
1.54183
0.049809
-0.0476029
-1.42422
1.42201
0.0448437
-0.040964
-1.11101
1.10714
0.0371957
-0.033081
-0.878385
0.87427
0.0289091
-0.0248667
-0.702114
0.698071
0.0211797
-0.0173233
-0.565977
0.56212
0.0142628
-0.0112285
-0.456144
0.45311
0.00880539
-0.00655087
-0.353701
0.351447
0.0048261
-0.00307585
-0.235604
0.233854
0.0015354
-0.000349751
-0.110594
0.109408
-0.000125077
-0.0162036
0.0163287
-0.0789632
0.0783394
0.000623845
-0.00141684
0.00117933
-0.443695
0.443932
0.000329384
-0.00249233
-0.60662
0.608783
0.00581142
-0.00920733
-0.724445
0.727841
0.0130963
-0.0168327
-0.839619
0.843355
0.0212166
-0.025131
-0.965088
0.969003
0.029818
-0.0341496
-1.10116
1.1055
0.0384853
-0.042663
-1.24562
1.2498
0.0467772
-0.0498154
-1.39484
1.39787
0.0524398
-0.0537441
-1.54257
1.54387
0.0533515
-0.0517375
-1.41967
1.41806
0.0491051
-0.045509
-1.1032
1.09961
0.041919
-0.0376781
-0.869583
0.865342
0.0335977
-0.0293807
-0.693391
0.689174
0.0255777
-0.0214852
-0.557957
0.553864
0.0180997
-0.0148254
-0.449227
0.445953
0.0118849
-0.00915337
-0.34751
0.344779
0.00687903
-0.00454215
-0.230031
0.227694
0.00254328
-0.000862889
-0.106639
0.104959
5.09518e-05
-0.0152173
0.0151663
-0.0798682
0.0794009
0.000467256
-0.000377835
-9.99947e-05
-0.446894
0.447371
0.00150113
-0.00385275
-0.611922
0.614274
0.00706555
-0.0103042
-0.731066
0.734305
0.014276
-0.0178779
-0.847144
0.850746
0.0221231
-0.0261683
-0.97343
0.977475
0.0307832
-0.0351008
-1.10973
1.11405
0.0396798
-0.0439228
-1.25395
1.2582
0.0482659
-0.0520862
-1.40125
1.40507
0.0552103
-0.0568642
-1.54517
1.54682
0.0571787
-0.0558728
-1.41631
1.415
0.0537314
-0.0505365
-1.09585
1.09265
0.0468567
-0.0426042
-0.860693
0.856441
0.0384563
-0.0339504
-0.684447
0.679941
0.0300487
-0.0256891
-0.549697
0.545337
0.0220966
-0.0183381
-0.441813
0.438055
0.0151305
-0.0119055
-0.34048
0.337255
0.00896705
-0.0060225
-0.223437
0.220492
0.00353588