/*--------------------------------*- C++ -*----------------------------------*\
  =========                 |
  \\      /  F ield         | OpenFOAM: The Open Source CFD Toolbox
   \\    /   O peration     | Website:  https://openfoam.org
    \\  /    A nd           | Version:  6
     \\/     M anipulation  |
\*---------------------------------------------------------------------------*/
FoamFile
{
    version     2.0;
    format      ascii;
    class       volScalarField;
    location    "70";
    object      p;
}
// * * * * * * * * * * * * * * * * * * * * * * * * * * * * * * * * * * * * * //

dimensions      [0 2 -2 0 0 0 0];

internalField   nonuniform List<scalar> 
2200
(
0.787888
0.772668
0.755193
0.73891
0.724472
0.712467
0.702866
0.695426
0.690091
0.687204
0.687702
0.691483
0.697498
0.705418
0.715353
0.727591
0.742208
0.758648
0.776193
0.791424
0.731564
0.727643
0.722643
0.717068
0.710792
0.704207
0.697837
0.692229
0.687917
0.685582
0.686091
0.689349
0.694358
0.700495
0.707262
0.714134
0.720595
0.72626
0.731296
0.735253
0.690013
0.689703
0.690658
0.691983
0.692444
0.691431
0.689198
0.686415
0.683884
0.68246
0.683014
0.685439
0.688749
0.692137
0.694807
0.696111
0.695823
0.694606
0.6938
0.69417
0.664881
0.665912
0.668323
0.671657
0.674903
0.677223
0.678321
0.678366
0.677902
0.677643
0.678272
0.679669
0.681019
0.681647
0.681067
0.679146
0.676191
0.673004
0.670673
0.669692
0.649967
0.651427
0.654188
0.657728
0.661343
0.664636
0.667301
0.669217
0.670496
0.671412
0.672152
0.672565
0.672347
0.671245
0.669189
0.666356
0.66309
0.659784
0.657141
0.655717
0.642286
0.6436
0.645896
0.648784
0.651822
0.654822
0.657688
0.660282
0.662476
0.664169
0.665066
0.664981
0.664054
0.662437
0.660307
0.657857
0.655217
0.652597
0.650444
0.649168
0.638473
0.639383
0.640931
0.642965
0.645161
0.647406
0.649768
0.652215
0.654575
0.65658
0.657678
0.657632
0.656805
0.655544
0.65408
0.652509
0.650799
0.649084
0.647701
0.646826
0.635648
0.636235
0.637196
0.638517
0.639994
0.64155
0.643289
0.645282
0.647428
0.649449
0.650769
0.651149
0.650906
0.650373
0.649737
0.648994
0.648094
0.647147
0.64637
0.645816
0.632277
0.632667
0.633309
0.634244
0.635333
0.636503
0.63782
0.639392
0.641232
0.643204
0.644846
0.645802
0.646285
0.646498
0.646521
0.64634
0.64595
0.645462
0.645032
0.644675
0.628033
0.628303
0.628796
0.629585
0.630551
0.631612
0.6328
0.634208
0.635911
0.637895
0.639888
0.641488
0.642622
0.6434
0.643873
0.644055
0.643953
0.6437
0.643445
0.643201
0.62315
0.623356
0.623792
0.624532
0.625486
0.626585
0.62786
0.629375
0.63121
0.633463
0.635929
0.638075
0.639683
0.640832
0.641591
0.642017
0.64208
0.641981
0.641828
0.641652
0.617728
0.617891
0.618305
0.61907
0.620127
0.621416
0.622949
0.624784
0.626999
0.629709
0.632715
0.635384
0.637391
0.638803
0.639734
0.640294
0.640522
0.640546
0.640464
0.640327
0.611868
0.612007
0.612419
0.613229
0.614436
0.615983
0.617865
0.620143
0.622919
0.626274
0.629917
0.633117
0.635521
0.637216
0.638369
0.639095
0.639484
0.639632
0.639609
0.639494
0.605657
0.605775
0.606198
0.607061
0.608376
0.610128
0.612358
0.615142
0.618579
0.622746
0.627194
0.631031
0.633938
0.636058
0.637536
0.638521
0.639126
0.639416
0.639441
0.639334
0.598864
0.598966
0.599406
0.60034
0.601816
0.603841
0.60648
0.609839
0.614006
0.619061
0.624482
0.629158
0.632701
0.635346
0.637279
0.638627
0.639484
0.639913
0.63999
0.639892
0.591378
0.591406
0.591853
0.592916
0.594639
0.597011
0.60011
0.604077
0.609057
0.615134
0.621709
0.627429
0.631859
0.635231
0.637753
0.639526
0.640663
0.641249
0.641379
0.641284
0.582928
0.582972
0.583444
0.584625
0.586565
0.58928
0.592863
0.597493
0.603377
0.610704
0.618718
0.625823
0.631398
0.635697
0.638904
0.641184
0.642663
0.643437
0.643631
0.643535
0.573226
0.573293
0.573782
0.575109
0.577344
0.580493
0.584678
0.590133
0.597099
0.605838
0.615566
0.624395
0.631397
0.636796
0.640852
0.643741
0.645629
0.646619
0.64687
0.646766
0.561997
0.562079
0.562666
0.564139
0.566686
0.570384
0.575358
0.581857
0.590195
0.600701
0.612619
0.62345
0.632055
0.638684
0.643652
0.647265
0.64963
0.650834
0.651131
0.651011
0.548512
0.548598
0.549322
0.551118
0.554202
0.558653
0.564654
0.572526
0.582699
0.595572
0.610061
0.623206
0.633571
0.641518
0.647524
0.651872
0.654697
0.656108
0.656441
0.656301
0.53251
0.532559
0.533367
0.535539
0.53935
0.544822
0.552179
0.561876
0.574444
0.590333
0.607944
0.623644
0.635888
0.645333
0.652463
0.657615
0.660916
0.662499
0.662845
0.662675
0.51315
0.513265
0.514297
0.516929
0.521567
0.52833
0.537562
0.549842
0.565688
0.585385
0.606574
0.624924
0.639155
0.650142
0.65847
0.664458
0.668218
0.669961
0.670291
0.670084
0.489051
0.489166
0.490502
0.493966
0.500053
0.508886
0.520866
0.536617
0.556563
0.580677
0.6059
0.627291
0.643661
0.656147
0.665573
0.672326
0.676501
0.67832
0.678594
0.678346
0.458302
0.458575
0.460505
0.465252
0.473552
0.485498
0.501378
0.521716
0.546771
0.576226
0.606089
0.630687
0.649109
0.663058
0.673566
0.681042
0.685513
0.687331
0.687521
0.687237
0.4183
0.418953
0.422047
0.429115
0.440948
0.457453
0.478805
0.505299
0.536756
0.57238
0.607202
0.635002
0.655458
0.670804
0.682348
0.690429
0.695026
0.696701
0.69676
0.69645
0.365643
0.366791
0.372366
0.384052
0.402092
0.425592
0.454251
0.48819
0.526968
0.569377
0.609372
0.640291
0.662592
0.679266
0.691749
0.700181
0.704546
0.705836
0.705747
0.705457
0.29886
0.302492
0.313978
0.333509
0.360007
0.392116
0.429192
0.471248
0.517758
0.567343
0.612919
0.647623
0.672544
0.690821
0.703879
0.71222
0.716183
0.71715
0.71704
0.716818
0.224822
0.234133
0.254136
0.282869
0.318446
0.359478
0.405359
0.455667
0.509765
0.566357
0.617969
0.657164
0.685019
0.704782
0.718429
0.726572
0.730006
0.730684
0.730572
0.730422
0.15656
0.17003
0.196915
0.234418
0.279208
0.329317
0.384033
0.442479
0.503742
0.566566
0.623315
0.666357
0.696671
0.71804
0.732357
0.740374
0.743507
0.743972
0.743889
0.743815
0.10124
0.11603
0.146972
0.191059
0.243707
0.302094
0.365063
0.431147
0.499014
0.567567
0.628911
0.675221
0.707845
0.730939
0.746199
0.754571
0.757579
0.757951
0.757956
0.757937
0.0557368
0.0709957
0.104854
0.153897
0.212749
0.277992
0.348071
0.421037
0.495125
0.568992
0.634194
0.683275
0.718623
0.743703
0.760159
0.769096
0.772422
0.773043
0.773028
0.772991
0.0171404
0.033105
0.06934
0.122212
0.185912
0.256685
0.332713
0.411671
0.491328
0.569756
0.638534
0.691001
0.729002
0.75593
0.773872
0.783723
0.787421
0.788134
0.788089
0.788048
-0.0165339
0.000163143
0.0386164
0.0947847
0.162444
0.237705
0.318576
0.402479
0.486871
0.569689
0.642637
0.698559
0.738851
0.767877
0.787257
0.797749
0.801774
0.802567
0.802513
0.802462
-0.0463389
-0.0291002
0.0112638
0.070376
0.141413
0.220374
0.305232
0.393306
0.482042
0.569639
0.647105
0.705879
0.748297
0.779133
0.799581
0.81072
0.815015
0.815871
0.815811
0.815744
-0.0734271
-0.0557357
-0.0136629
0.0481026
0.122118
0.204285
0.292549
0.384305
0.477337
0.569835
0.651305
0.712555
0.757195
0.789352
0.810586
0.822223
0.826813
0.827784
0.827733
0.827647
-0.0984267
-0.0803615
-0.0367775
0.0274162
0.104142
0.189168
0.280447
0.375626
0.47278
0.569641
0.654585
0.718617
0.76515
0.798235
0.820217
0.832373
0.837182
0.838251
0.838207
0.838099
-0.121893
-0.10346
-0.0584879
0.00792535
0.0871521
0.174834
0.268898
0.36713
0.467724
0.568292
0.656935
0.724026
0.772091
0.806118
0.82876
0.841235
0.846258
0.847395
0.84734
0.847216
-0.144123
-0.125281
-0.0790695
-0.0106194
0.0709416
0.16108
0.257597
0.358288
0.461585
0.565617
0.658496
0.72879
0.77834
0.813284
0.836414
0.849157
0.854254
0.85538
0.855305
0.855168
-0.165344
-0.14611
-0.0987536
-0.0284357
0.0552737
0.14762
0.246182
0.34876
0.454311
0.561911
0.659375
0.732937
0.784417
0.820311
0.84364
0.856362
0.861406
0.862358
0.862194
0.86205
-0.185706
-0.166132
-0.117753
-0.0457126
0.0399582
0.134227
0.234439
0.338503
0.446144
0.557382
0.659491
0.736897
0.790857
0.827587
0.850826
0.86314
0.867706
0.868314
0.868092
0.867969
-0.205419
-0.185569
-0.136237
-0.0626163
0.0248294
0.120783
0.222383
0.327744
0.437344
0.552
0.658714
0.74076
0.797881
0.835766
0.858594
0.869804
0.873418
0.873485
0.873264
0.873184
-0.224626
-0.204536
-0.15432
-0.0792291
0.00985485
0.107329
0.210163
0.3167
0.428015
0.54559
0.656866
0.744287
0.805375
0.845148
0.867621
0.877158
0.878935
0.878179
0.877883
0.877847
-0.243507
-0.223137
-0.172043
-0.0955587
-0.00492758
0.0939619
0.197899
0.305451
0.418124
0.538044
0.653746
0.746815
0.812907
0.855903
0.878719
0.886183
0.885121
0.882796
0.882051
0.882077
-0.261998
-0.24136
-0.189403
-0.111564
-0.0194358
0.0807654
0.185614
0.29394
0.407622
0.529447
0.649182
0.74788
0.81985
0.867513
0.892278
0.898389
0.89374
0.888175
0.885901
0.88597
-0.280096
-0.259182
-0.206352
-0.127195
-0.0336335
0.0677342
0.17324
0.282083
0.396577
0.520056
0.643189
0.74708
0.825283
0.879118
0.908148
0.915001
0.907944
0.896782
0.889796
0.888494
-0.297648
-0.276487
-0.222804
-0.142407
-0.0475396
0.0547825
0.160678
0.269871
0.385152
0.510146
0.635963
0.74433
0.828573
0.88936
0.924941
0.935942
0.928853
0.911978
0.890078
0.867353
-0.314594
-0.293205
-0.23871
-0.157249
-0.0613933
0.0415258
0.147573
0.257074
0.373252
0.499733
0.627628
0.739485
0.829026
0.897067
0.941151
0.958457
0.954411
0.93889
0.941435
0.958032
-0.330812
-0.309302
-0.254145
-0.171895
-0.0754976
0.0275512
0.133515
0.243358
0.360566
0.488454
0.617792
0.731983
0.82567
0.899858
0.951825
0.975905
0.973066
0.949727
0.916167
0.916544
-0.346302
-0.324826
-0.269138
-0.186305
-0.0897492
0.0130089
0.118688
0.228928
0.347251
0.476353
0.606409
0.721464
0.817171
0.894767
0.949518
0.971558
0.953122
0.902718
0.852797
0.836863
-0.360962
-0.339792
-0.283716
-0.200471
-0.104099
-0.00198641
0.103234
0.213868
0.333259
0.463262
0.593225
0.707512
0.802649
0.877505
0.92396
0.923477
0.891333
0.820589
0.753481
0.733719
-0.37475
-0.354252
-0.297886
-0.214416
-0.118553
-0.0173418
0.0873047
0.19825
0.318493
0.448953
0.577976
0.689595
0.779726
0.845541
0.870849
0.852836
0.790006
0.697155
0.617065
0.597871
-0.388044
-0.368341
-0.311976
-0.22868
-0.133623
-0.0333679
0.0707483
0.181895
0.302617
0.432974
0.560188
0.667143
0.74845
0.798174
0.79371
0.759688
0.651013
0.541977
0.452957
0.435421
-0.40177
-0.382569
-0.326693
-0.244176
-0.150099
-0.0505987
0.0532401
0.164498
0.285223
0.414816
0.539401
0.639176
0.707748
0.733916
0.709011
0.62661
0.496436
0.368043
0.260241
0.240079
-0.416475
-0.397342
-0.342357
-0.261167
-0.16812
-0.0690767
0.0347653
0.146011
0.266182
0.394215
0.515253
0.606506
0.657912
0.656295
0.617433
0.488098
0.329895
0.162544
0.024861
-0.00245011
-0.432392
-0.413195
-0.3591
-0.279368
-0.187315
-0.0885429
0.015421
0.126452
0.245496
0.371086
0.487318
0.569851
0.601589
0.570861
0.496504
0.343124
0.162413
-0.0449318
-0.241734
-0.322724
-0.449699
-0.430352
-0.377036
-0.298619
-0.207443
-0.108882
-0.00485323
0.105713
0.223106
0.345414
0.455817
0.528842
0.540219
0.480198
0.354344
0.194055
0.00894172
-0.252579
-0.65911
-0.980521
-0.468634
-0.449107
-0.396274
-0.318805
-0.228313
-0.129959
-0.0260068
0.0838688
0.199235
0.317569
0.421422
0.484236
0.47593
0.396231
0.212994
0.0317382
-0.13289
-0.370597
-0.857328
-1.61745
-0.48919
-0.469366
-0.416854
-0.340086
-0.250134
-0.152044
-0.0483611
0.060586
0.173588
0.287281
0.384286
0.43623
0.40918
0.31718
0.0928153
-0.103156
-0.241659
-0.36929
-0.543635
-0.820053
-0.511454
-0.491361
-0.439015
-0.362815
-0.273395
-0.175744
-0.0726319
0.0350313
0.145241
0.253551
0.343639
0.384057
0.341613
0.234152
0.000533045
-0.182099
-0.291954
-0.348973
-0.388934
-0.420055
-0.535318
-0.514884
-0.462766
-0.387137
-0.298311
-0.201302
-0.0990751
0.00695821
0.114061
0.216755
0.299326
0.32824
0.277264
0.152357
-0.0673041
-0.223948
-0.309346
-0.331488
-0.357966
-0.362761
-0.560744
-0.54016
-0.488136
-0.413027
-0.324884
-0.228757
-0.127772
-0.0237281
0.0800467
0.17707
0.251322
0.268777
0.218084
0.0715064
-0.120954
-0.243143
-0.299814
-0.321316
-0.327392
-0.327776
-0.587316
-0.566639
-0.514881
-0.440383
-0.353081
-0.258096
-0.158712
-0.0570417
0.0431596
0.134862
0.200871
0.206881
0.160169
-0.00684679
-0.165457
-0.255426
-0.282909
-0.306948
-0.308478
-0.308203
-0.615025
-0.594276
-0.542734
-0.46891
-0.38261
-0.289064
-0.191703
-0.0928648
0.00340649
0.0905408
0.149322
0.145357
0.0964435
-0.0701483
-0.202887
-0.27303
-0.286225
-0.293085
-0.294954
-0.295273
-0.643098
-0.622354
-0.571189
-0.498224
-0.413203
-0.321426
-0.226465
-0.130905
-0.0388596
0.044353
0.0975013
0.0850645
0.0278356
-0.120275
-0.226006
-0.279273
-0.29677
-0.287805
-0.284779
-0.284271
-0.670993
-0.650357
-0.599652
-0.527757
-0.444277
-0.354625
-0.262512
-0.170658
-0.0831365
-0.00374511
0.0453608
0.0279542
-0.0421638
-0.158906
-0.233454
-0.26558
-0.286326
-0.278854
-0.273603
-0.271856
-0.697367
-0.677159
-0.627333
-0.556832
-0.475335
-0.388218
-0.299272
-0.21146
-0.128581
-0.0534764
-0.00740762
-0.0242843
-0.0988524
-0.188976
-0.23895
-0.249747
-0.262276
-0.264685
-0.26342
-0.261881
-0.721206
-0.701778
-0.653288
-0.584625
-0.505479
-0.4213
-0.335953
-0.252465
-0.174421
-0.104131
-0.0606671
-0.0710026
-0.139357
-0.208358
-0.244211
-0.250929
-0.252239
-0.256419
-0.257871
-0.257462
-0.740714
-0.722591
-0.676332
-0.610203
-0.533999
-0.453212
-0.371714
-0.292675
-0.219428
-0.153972
-0.112737
-0.11621
-0.169982
-0.218027
-0.244575
-0.25763
-0.255812
-0.255803
-0.256272
-0.256251
-0.754759
-0.738542
-0.695329
-0.632448
-0.559566
-0.482574
-0.405426
-0.331086
-0.262449
-0.20111
-0.161499
-0.161645
-0.198664
-0.226654
-0.24213
-0.255358
-0.255759
-0.255692
-0.25595
-0.256179
-0.761888
-0.748205
-0.709023
-0.650038
-0.581159
-0.508513
-0.435962
-0.366415
-0.302297
-0.244242
-0.204484
-0.207036
-0.234022
-0.24556
-0.246342
-0.253233
-0.258124
-0.261989
-0.263911
-0.265071
-0.762058
-0.751194
-0.716181
-0.661407
-0.596916
-0.529246
-0.461984
-0.397479
-0.337964
-0.282615
-0.238447
-0.249162
-0.27765
-0.288902
-0.283711
-0.290622
-0.294058
-0.296948
-0.298206
-0.299813
-0.754728
-0.745333
-0.714363
-0.664691
-0.606068
-0.544412
-0.482666
-0.423038
-0.367658
-0.314356
-0.267241
-0.281442
-0.324318
-0.363786
-0.388577
-0.404331
-0.399832
-0.386876
-0.376156
-0.371544
-0.734614
-0.726118
-0.700889
-0.658806
-0.607797
-0.552749
-0.496982
-0.442092
-0.390295
-0.338035
-0.288397
-0.296738
-0.351302
-0.433724
-0.504978
-0.53277
-0.529041
-0.506159
-0.481488
-0.463338
-0.695898
-0.689794
-0.675097
-0.644682
-0.603293
-0.555474
-0.50465
-0.453614
-0.405259
-0.3553
-0.295044
-0.278112
-0.318545
-0.403733
-0.493463
-0.531869
-0.531663
-0.508224
-0.481898
-0.462875
-0.653561
-0.651939
-0.645924
-0.625681
-0.593098
-0.551965
-0.505717
-0.457502
-0.410444
-0.361842
-0.287309
-0.216119
-0.185342
-0.200813
-0.239965
-0.244112
-0.214855
-0.176952
-0.143686
-0.124152
-0.624402
-0.624177
-0.618586
-0.606001
-0.581384
-0.546214
-0.50262
-0.453942
-0.403237
-0.348778
-0.261258
-0.12698
0.0177015
0.154885
0.252139
0.343769
0.422948
0.483748
0.521701
0.539234
-0.598861
-0.598354
-0.596462
-0.590584
-0.571882
-0.540888
-0.498577
-0.446553
-0.38817
-0.31846
-0.219511
-0.0548603
0.158996
0.393132
0.60928
0.780935
0.905615
0.986882
1.02849
1.04307
-0.582036
-0.582085
-0.582301
-0.576742
-0.563438
-0.535874
-0.49347
-0.43707
-0.36973
-0.28648
-0.175363
-0.00180353
0.234079
0.50025
0.766924
0.988953
1.14812
1.24714
1.29771
1.31621
-0.568908
-0.568944
-0.568731
-0.566356
-0.558446
-0.533834
-0.491456
-0.431184
-0.354965
-0.260888
-0.142848
0.0204182
0.24445
0.50781
0.782694
1.0251
1.20785
1.32127
1.37632
1.39411
-0.560257
-0.56013
-0.560027
-0.560598
-0.554212
-0.532069
-0.491149
-0.430085
-0.349094
-0.248828
-0.131156
0.0122957
0.208079
0.44133
0.689647
0.916566
1.0942
1.20642
1.2599
1.27635
-0.554201
-0.553996
-0.553866
-0.554445
-0.549071
-0.530624
-0.493356
-0.434268
-0.351768
-0.24981
-0.137248
-0.0150095
0.14801
0.341016
0.542893
0.729258
0.878406
0.974665
1.02014
1.03337
-0.551779
-0.551059
-0.549584
-0.547258
-0.542641
-0.532999
-0.502677
-0.445655
-0.361786
-0.259111
-0.154386
-0.0531136
0.0783662
0.233034
0.388772
0.528153
0.639288
0.711801
0.74573
0.75491
-0.561333
-0.559641
-0.556421
-0.551562
-0.548748
-0.545051
-0.518989
-0.460905
-0.374194
-0.272329
-0.17819
-0.0959214
0.00770939
0.128801
0.246308
0.346724
0.425136
0.476496
0.499066
0.502849
-0.586949
-0.584984
-0.582619
-0.581457
-0.584607
-0.577244
-0.542164
-0.474861
-0.383272
-0.28439
-0.204277
-0.140041
-0.0592241
0.0351959
0.124912
0.198573
0.254444
0.290948
0.307533
0.311074
-0.621264
-0.62091
-0.623698
-0.629451
-0.633136
-0.617757
-0.568453
-0.485726
-0.386227
-0.292767
-0.228509
-0.181849
-0.119228
-0.0434996
0.0280863
0.0851932
0.127905
0.156536
0.170788
0.172827
-0.646498
-0.649523
-0.656608
-0.664556
-0.665993
-0.644193
-0.579032
-0.481323
-0.379403
-0.297964
-0.250119
-0.217034
-0.16769
-0.104911
-0.0451098
0.00195883
0.0370252
0.0611195
0.0740398
0.076209
-0.635263
-0.639305
-0.649055
-0.658982
-0.659561
-0.631012
-0.551838
-0.449547
-0.359248
-0.298433
-0.26584
-0.239833
-0.199461
-0.146464
-0.0953848
-0.0555339
-0.0261848
-0.00667021
0.00228725
0.00410162
-0.559786
-0.565544
-0.577521
-0.589132
-0.588938
-0.555995
-0.480188
-0.394333
-0.328397
-0.289198
-0.266445
-0.244392
-0.210741
-0.166535
-0.123688
-0.0913595
-0.0687643
-0.0550026
-0.0498755
-0.0494968
-0.422313
-0.428171
-0.438366
-0.449457
-0.450661
-0.426221
-0.376101
-0.323636
-0.286526
-0.263329
-0.245625
-0.229237
-0.203644
-0.168276
-0.133908
-0.110185
-0.0953434
-0.0876949
-0.0861804
-0.0872834
-0.255701
-0.259568
-0.267064
-0.276469
-0.282707
-0.277082
-0.260156
-0.242583
-0.228866
-0.21553
-0.204396
-0.19959
-0.1873
-0.158601
-0.132009
-0.116791
-0.109356
-0.10709
-0.108374
-0.1103
-0.105766
-0.108146
-0.113111
-0.121143
-0.131843
-0.142787
-0.152283
-0.159627
-0.160573
-0.15404
-0.150791
-0.15974
-0.171711
-0.140775
-0.121991
-0.115049
-0.113851
-0.115342
-0.118142
-0.120262
-0.00211233
-0.00345131
-0.00713485
-0.014508
-0.0273789
-0.0461532
-0.0680667
-0.0879717
-0.0971166
-0.0960835
-0.100961
-0.118161
-0.138107
-0.117636
-0.108348
-0.108232
-0.11119
-0.114584
-0.117913
-0.119914
0.0523353
0.0515129
0.0482287
0.0408005
0.0279169
0.0086749
-0.0151234
-0.0383755
-0.0520329
-0.0556791
-0.0657841
-0.0839192
-0.0973263
-0.0937933
-0.0930506
-0.0972851
-0.102505
-0.106876
-0.110095
-0.111707
0.0723189
0.0718316
0.069089
0.0618586
0.0495248
0.0317849
0.00951483
-0.0132358
-0.0290912
-0.0360677
-0.045742
-0.0611046
-0.0702885
-0.0727849
-0.0764952
-0.083559
-0.0902214
-0.0948128
-0.0973498
-0.0984755
0.0733462
0.0730988
0.0712488
0.0650988
0.0537061
0.037541
0.0171135
-0.0042769
-0.0209108
-0.0295995
-0.0361576
-0.0477514
-0.0536923
-0.0560188
-0.061439
-0.0699392
-0.0768463
-0.0807475
-0.0824328
-0.0832157
0.0655107
0.0653597
0.0643102
0.0599656
0.0505512
0.0364309
0.0184475
-0.000306311
-0.0157472
-0.0255171
-0.0297465
-0.0389833
-0.0438848
-0.0452661
-0.0503287
-0.0579464
-0.0634694
-0.0660914
-0.0671132
-0.0677207
0.0544331
0.0543262
0.053728
0.0512043
0.0448182
0.0337754
0.0186879
0.00345964
-0.00845545
-0.0176098
-0.0214503
-0.0296021
-0.0357648
-0.0379814
-0.042231
-0.0476853
-0.0508948
-0.0519462
-0.0525297
-0.0531342
0.0428441
0.0427975
0.0423689
0.0409469
0.0374971
0.0306223
0.0192622
0.00685961
-0.00159176
-0.00766225
-0.0117234
-0.0183454
-0.0262434
-0.0301733
-0.0339352
-0.037672
-0.0393634
-0.0396141
-0.0401575
-0.040758
0.031951
0.0319678
0.0316719
0.0307242
0.0290496
0.0259834
0.0192835
0.00956268
0.00209917
-0.00144705
-0.0025868
-0.00848916
-0.016734
-0.0203127
-0.0236643
-0.0268392
-0.0282614
-0.0286941
-0.0294136
-0.0299127
0.0219298
0.0219764
0.0218586
0.0211369
0.0200133
0.0190453
0.0165596
0.0105775
0.0035116
-0.000864345
0.00516679
-0.00383708
-0.0103198
-0.0098493
-0.0127712
-0.0161063
-0.0181018
-0.0192494
-0.019986
-0.020225
0.0126203
0.0126365
0.0127026
0.0123671
0.0113001
0.0106282
0.0104476
0.00832303
0.00335086
-0.0020862
0.00758413
-0.00225245
-0.00772709
-0.00392773
-0.00516333
-0.00872728
-0.0104973
-0.0111389
-0.0112881
-0.0113143
0.00418517
0.00420101
0.00435163
0.00449358
0.00390212
0.00305106
0.00322251
0.00314081
0.00118996
-0.00205846
0.00499485
-0.000398097
-0.00628885
-0.0011845
-0.00124002
-0.00485332
-0.0054137
-0.00497605
-0.0045839
-0.00453749
-0.553814
-0.0997865
0.177131
0.384391
0.54975
0.683267
0.790001
0.87995
0.952812
0.988629
0.10617
0.31623
0.431339
0.549915
0.663494
0.757592
0.826197
0.864674
0.861321
0.860635
0.371139
0.502738
0.595659
0.67793
0.751186
0.811405
0.854018
0.8752
0.880713
0.91654
0.555265
0.642869
0.716714
0.777506
0.827122
0.866955
0.897568
0.921
0.940479
0.973368
0.70252
0.759536
0.815248
0.860266
0.896771
0.926856
0.95274
0.976836
1.00137
1.02653
0.822717
0.862696
0.902698
0.93689
0.965874
0.991163
1.01448
1.03726
1.05973
1.0785
0.927065
0.954329
0.984021
1.01084
1.03494
1.0571
1.07813
1.09838
1.11751
1.13335
1.01963
1.03851
1.06176
1.08426
1.10507
1.12441
1.14273
1.1603
1.17691
1.19049
1.10398
1.12111
1.14032
1.15854
1.17579
1.19231
1.20826
1.22359
1.23809
1.25032
1.18719
1.20072
1.21728
1.23324
1.24828
1.26251
1.27608
1.28918
1.30174
1.31222
1.27404
1.28256
1.29553
1.30947
1.32279
1.33513
1.34661
1.35743
1.36777
1.3768
1.36213
1.36774
1.37762
1.38942
1.40094
1.4113
1.42043
1.42872
1.43668
1.44376
1.45381
1.45737
1.46431
1.47253
1.48076
1.48857
1.49571
1.50215
1.50828
1.51409
1.54966
1.54995
1.55183
1.55472
1.55835
1.56297
1.56878
1.57555
1.5825
1.58856
1.65152
1.64275
1.63327
1.62603
1.62264
1.62411
1.6308
1.64209
1.65643
1.66989
1.75815
1.72107
1.6902
1.67117
1.66223
1.66185
1.67001
1.68897
1.72027
1.75915
)
;

boundaryField
{
    wall-4
    {
        type            zeroGradient;
    }
    pressure-outlet-7
    {
        type            fixedValue;
        value           uniform 0;
    }
    velocity-inlet-6
    {
        type            zeroGradient;
    }
    velocity-inlet-5
    {
        type            zeroGradient;
    }
    frontAndBackPlanes
    {
        type            empty;
    }
}


// ************************************************************************* //
