/*--------------------------------*- C++ -*----------------------------------*\
  =========                 |
  \\      /  F ield         | OpenFOAM: The Open Source CFD Toolbox
   \\    /   O peration     | Website:  https://openfoam.org
    \\  /    A nd           | Version:  6
     \\/     M anipulation  |
\*---------------------------------------------------------------------------*/
FoamFile
{
    version     2.0;
    format      ascii;
    class       volVectorField;
    location    "70";
    object      U;
}
// * * * * * * * * * * * * * * * * * * * * * * * * * * * * * * * * * * * * * //

dimensions      [0 1 -1 0 0 0 0];

internalField   nonuniform List<vector> 
2200
(
(0.87762 -0.020179 0)
(1.0047 -0.0399806 0)
(1.00281 -0.0342627 0)
(1.0003 -0.0231782 0)
(0.999902 -0.01545 0)
(1.00002 -0.0100856 0)
(0.999997 -0.00637259 0)
(0.999977 -0.00386044 0)
(1.00001 -0.00206284 0)
(1.00013 -0.000548559 0)
(1.00017 0.000847932 0)
(1.00042 0.00227878 0)
(1.00037 0.00414765 0)
(1.00028 0.00667188 0)
(1.00012 0.0103428 0)
(0.999899 0.0156584 0)
(1.00043 0.023242 0)
(1.00307 0.0341162 0)
(1.00472 0.0400575 0)
(0.87765 0.020192 0)
(0.700834 -0.0265888 0)
(0.993618 -0.0586168 0)
(1.02977 -0.0596826 0)
(1.02182 -0.0488096 0)
(1.01388 -0.0360764 0)
(1.00831 -0.0249973 0)
(1.00509 -0.0166876 0)
(1.00325 -0.0105924 0)
(1.00216 -0.00577385 0)
(1.00161 -0.00155528 0)
(1.00145 0.00278647 0)
(1.00169 0.00706533 0)
(1.00278 0.0115992 0)
(1.0047 0.0174388 0)
(1.00804 0.0255983 0)
(1.01368 0.0366061 0)
(1.02148 0.0494795 0)
(1.02926 0.0605301 0)
(0.993516 0.058723 0)
(0.700556 0.0266211 0)
(0.530475 -0.0214091 0)
(0.966295 -0.0552513 0)
(1.05274 -0.0605978 0)
(1.04843 -0.0532502 0)
(1.03238 -0.0414915 0)
(1.0213 -0.0315864 0)
(1.01378 -0.0227861 0)
(1.00907 -0.0151884 0)
(1.00633 -0.00848039 0)
(1.00508 -0.00215541 0)
(1.00521 0.00396898 0)
(1.00655 0.0100856 0)
(1.00918 0.0167513 0)
(1.01364 0.0242984 0)
(1.02092 0.0329556 0)
(1.03192 0.0426642 0)
(1.04808 0.0540433 0)
(1.05269 0.0604785 0)
(0.965454 0.0556547 0)
(0.529243 0.0215633 0)
(0.393186 -0.0132608 0)
(0.909915 -0.0453546 0)
(1.05584 -0.051263 0)
(1.06655 -0.0472053 0)
(1.05113 -0.0388707 0)
(1.03576 -0.0310178 0)
(1.02473 -0.0237881 0)
(1.01707 -0.0166897 0)
(1.01205 -0.00957537 0)
(1.00918 -0.00224115 0)
(1.00891 0.00529462 0)
(1.01131 0.0125598 0)
(1.01611 0.0192974 0)
(1.02372 0.025961 0)
(1.0348 0.0327394 0)
(1.05014 0.0402121 0)
(1.06528 0.0481373 0)
(1.05404 0.0520431 0)
(0.907628 0.0458383 0)
(0.390294 0.0134562 0)
(0.309266 -0.00618051 0)
(0.846385 -0.0330449 0)
(1.04814 -0.0428481 0)
(1.07719 -0.0391046 0)
(1.06532 -0.0330206 0)
(1.04877 -0.0270477 0)
(1.03594 -0.021807 0)
(1.02641 -0.0160566 0)
(1.01987 -0.00947421 0)
(1.01629 -0.00207022 0)
(1.01615 0.00564508 0)
(1.01951 0.0128139 0)
(1.02576 0.0191643 0)
(1.03491 0.0247426 0)
(1.04734 0.0297623 0)
(1.06368 0.0353722 0)
(1.07543 0.040826 0)
(1.04553 0.0441215 0)
(0.842007 0.0336789 0)
(0.304813 0.00638572 0)
(0.265519 -0.00190129 0)
(0.789024 -0.0218564 0)
(1.03241 -0.033736 0)
(1.08177 -0.032071 0)
(1.07508 -0.0274703 0)
(1.05863 -0.0223745 0)
(1.0454 -0.018111 0)
(1.03496 -0.0133289 0)
(1.02711 -0.00759368 0)
(1.02225 -0.000909815 0)
(1.02184 0.00631355 0)
(1.02582 0.0128039 0)
(1.03301 0.0180603 0)
(1.04311 0.0221462 0)
(1.05625 0.0257401 0)
(1.07259 0.030235 0)
(1.07843 0.0342297 0)
(1.02767 0.0353337 0)
(0.782049 0.0226426 0)
(0.259626 0.00216139 0)
(0.241308 -0.000326023 0)
(0.738679 -0.0139479 0)
(1.0127 -0.0265786 0)
(1.08239 -0.0264305 0)
(1.08136 -0.0229621 0)
(1.06639 -0.018587 0)
(1.05342 -0.0150916 0)
(1.04319 -0.0111334 0)
(1.03558 -0.00612895 0)
(1.03094 -5.58073e-05 0)
(1.03034 0.00629244 0)
(1.03415 0.0120014 0)
(1.04119 0.0165418 0)
(1.05079 0.0201079 0)
(1.06318 0.0231104 0)
(1.07752 0.0267741 0)
(1.07801 0.0293548 0)
(1.00603 0.0286174 0)
(0.728597 0.0149514 0)
(0.233649 0.000677434 0)
(0.226702 -4.14042e-06 0)
(0.696163 -0.00913064 0)
(0.992625 -0.0216388 0)
(1.08098 -0.0227734 0)
(1.08557 -0.01986 0)
(1.07245 -0.0158587 0)
(1.05972 -0.0122374 0)
(1.04965 -0.00837484 0)
(1.04177 -0.00378926 0)
(1.03655 0.00149564 0)
(1.03584 0.00702553 0)
(1.0395 0.0119458 0)
(1.04611 0.0158661 0)
(1.05539 0.0187643 0)
(1.06777 0.0214938 0)
(1.08029 0.0245701 0)
(1.07398 0.0265413 0)
(0.981988 0.0242225 0)
(0.681495 0.0104195 0)
(0.216731 0.000454927 0)
(0.216984 -2.7093e-05 0)
(0.660605 -0.00629987 0)
(0.972183 -0.018195 0)
(1.07852 -0.0203108 0)
(1.08922 -0.0177543 0)
(1.07759 -0.0140366 0)
(1.06521 -0.010495 0)
(1.05569 -0.00679236 0)
(1.04849 -0.00245286 0)
(1.04386 0.00249349 0)
(1.04273 0.00763582 0)
(1.04568 0.0121935 0)
(1.0516 0.0157281 0)
(1.06009 0.0186981 0)
(1.07169 0.0213357 0)
(1.08194 0.0238907 0)
(1.06935 0.0250176 0)
(0.957921 0.0213647 0)
(0.641138 0.00793978 0)
(0.20436 0.000580812 0)
(0.209976 -7.49137e-05 0)
(0.6325 -0.00453512 0)
(0.953766 -0.0153358 0)
(1.07574 -0.0181756 0)
(1.09264 -0.0160239 0)
(1.08251 -0.0125636 0)
(1.06994 -0.00887797 0)
(1.06024 -0.00498825 0)
(1.05274 -0.000561669 0)
(1.04759 0.00430126 0)
(1.04628 0.00893335 0)
(1.04886 0.013096 0)
(1.05427 0.0166092 0)
(1.06256 0.0191236 0)
(1.07433 0.0214384 0)
(1.08304 0.0234419 0)
(1.06247 0.0240367 0)
(0.933318 0.0192886 0)
(0.60614 0.006578 0)
(0.193835 0.000732146 0)
(0.204204 -5.05355e-05 0)
(0.609386 -0.0033084 0)
(0.936299 -0.0128836 0)
(1.07297 -0.0160631 0)
(1.09612 -0.0141504 0)
(1.08737 -0.0109071 0)
(1.07494 -0.00740415 0)
(1.06536 -0.00362866 0)
(1.05815 0.000680574 0)
(1.05328 0.0054518 0)
(1.05147 0.0104645 0)
(1.05333 0.0147515 0)
(1.05839 0.0178282 0)
(1.06627 0.0203649 0)
(1.0773 0.0224127 0)
(1.08342 0.023945 0)
(1.05575 0.0234868 0)
(0.909436 0.0177738 0)
(0.575596 0.0058768 0)
(0.18405 0.000864579 0)
(0.19972 3.98558e-07 0)
(0.591333 -0.00234643 0)
(0.920913 -0.010695 0)
(1.07009 -0.0142569 0)
(1.09962 -0.0126205 0)
(1.0923 -0.00942141 0)
(1.07948 -0.00567407 0)
(1.06924 -0.00173118 0)
(1.06119 0.00287666 0)
(1.05536 0.00795181 0)
(1.05309 0.0125379 0)
(1.05478 0.0164211 0)
(1.05951 0.0196021 0)
(1.06751 0.0216232 0)
(1.07889 0.0233487 0)
(1.08307 0.0242836 0)
(1.04641 0.0231588 0)
(0.884541 0.0166559 0)
(0.547502 0.00554896 0)
(0.17431 0.000969187 0)
(0.196137 0.000128464 0)
(0.576811 -0.00153789 0)
(0.906831 -0.00840345 0)
(1.06757 -0.0117943 0)
(1.10318 -0.0101977 0)
(1.09715 -0.00710443 0)
(1.08434 -0.00351266 0)
(1.07398 0.000367922 0)
(1.06593 0.00477097 0)
(1.06008 0.0096034 0)
(1.05727 0.0146555 0)
(1.05823 0.0187591 0)
(1.06275 0.0213258 0)
(1.07041 0.0231984 0)
(1.08063 0.0245457 0)
(1.08212 0.0249207 0)
(1.03712 0.023057 0)
(0.860062 0.0158518 0)
(0.521689 0.00544195 0)
(0.164736 0.00104356 0)
(0.194111 0.000311892 0)
(0.566478 -0.000503274 0)
(0.895554 -0.00627561 0)
(1.06537 -0.00942412 0)
(1.10699 -0.00772035 0)
(1.10249 -0.00443739 0)
(1.08939 -0.00056189 0)
(1.07821 0.00347692 0)
(1.06885 0.00810222 0)
(1.06165 0.0132963 0)
(1.05824 0.0179402 0)
(1.05911 0.0213577 0)
(1.06312 0.0236774 0)
(1.07097 0.024964 0)
(1.08098 0.0258881 0)
(1.07971 0.0258882 0)
(1.02477 0.0232041 0)
(0.834051 0.0154574 0)
(0.496454 0.00546466 0)
(0.155026 0.00110019 0)
(0.193418 0.000472404 0)
(0.559062 0.000146763 0)
(0.885819 -0.00404605 0)
(1.06409 -0.00690745 0)
(1.1112 -0.00511564 0)
(1.108 -0.00165311 0)
(1.09489 0.00237123 0)
(1.08348 0.00654069 0)
(1.07437 0.0112068 0)
(1.06713 0.0160902 0)
(1.06262 0.0207914 0)
(1.06203 0.0243288 0)
(1.06584 0.0264964 0)
(1.07319 0.0275807 0)
(1.08131 0.027996 0)
(1.07707 0.0271596 0)
(1.01215 0.0239409 0)
(0.807868 0.0153909 0)
(0.472029 0.00561785 0)
(0.145356 0.00117844 0)
(0.194241 0.000525442 0)
(0.555584 0.00142714 0)
(0.879646 -0.00187368 0)
(1.06355 -0.0040231 0)
(1.11576 -0.00183135 0)
(1.11382 0.00207474 0)
(1.10037 0.00658907 0)
(1.08806 0.011124 0)
(1.07719 0.0160159 0)
(1.06825 0.0211932 0)
(1.06301 0.0253485 0)
(1.06272 0.0283528 0)
(1.06566 0.0297766 0)
(1.07281 0.0303582 0)
(1.08033 0.0303394 0)
(1.07181 0.0291988 0)
(0.996093 0.0247446 0)
(0.77971 0.0155879 0)
(0.447096 0.00588894 0)
(0.135345 0.00126722 0)
(0.196853 0.000710616 0)
(0.556327 0.00213419 0)
(0.876015 0.000814222 0)
(1.06515 -0.000600631 0)
(1.12129 0.00187634 0)
(1.12038 0.00604943 0)
(1.10693 0.0107513 0)
(1.09442 0.0154826 0)
(1.08387 0.020499 0)
(1.07494 0.0256284 0)
(1.06832 0.0303012 0)
(1.06525 0.0330585 0)
(1.06735 0.0343657 0)
(1.07371 0.0346578 0)
(1.07876 0.0339806 0)
(1.06614 0.0315815 0)
(0.979273 0.026399 0)
(0.750498 0.0162665 0)
(0.42177 0.00636856 0)
(0.125029 0.00139086 0)
(0.201465 0.00107232 0)
(0.559663 0.00304139 0)
(0.877048 0.00356423 0)
(1.06779 0.00278068 0)
(1.12752 0.00595269 0)
(1.12776 0.0108305 0)
(1.11393 0.0162445 0)
(1.10043 0.0215884 0)
(1.08784 0.0271163 0)
(1.07609 0.0321456 0)
(1.06819 0.036224 0)
(1.06572 0.0385067 0)
(1.06671 0.0395278 0)
(1.0722 0.038973 0)
(1.07634 0.0377318 0)
(1.05782 0.034818 0)
(0.958414 0.0281106 0)
(0.718534 0.0173068 0)
(0.394871 0.0069236 0)
(0.114016 0.00151185 0)
(0.208728 0.00155067 0)
(0.568014 0.00447931 0)
(0.882147 0.00619313 0)
(1.07387 0.00734251 0)
(1.13513 0.0110597 0)
(1.13607 0.0164651 0)
(1.12181 0.0223203 0)
(1.10775 0.0280772 0)
(1.09506 0.0337523 0)
(1.08362 0.0395277 0)
(1.07395 0.0444085 0)
(1.06771 0.0465274 0)
(1.06725 0.0466845 0)
(1.07173 0.0457859 0)
(1.07248 0.043506 0)
(1.048 0.0388291 0)
(0.935799 0.0311927 0)
(0.684131 0.0189246 0)
(0.366186 0.00765332 0)
(0.10229 0.00166469 0)
(0.21754 0.00198005 0)
(0.579422 0.00592623 0)
(0.89057 0.00887108 0)
(1.08172 0.01129 0)
(1.14411 0.0163335 0)
(1.14583 0.022956 0)
(1.13086 0.0297775 0)
(1.11546 0.0363054 0)
(1.10023 0.0427682 0)
(1.08496 0.0486122 0)
(1.07224 0.0524391 0)
(1.06665 0.0543891 0)
(1.06515 0.0546131 0)
(1.06811 0.0523121 0)
(1.06776 0.0494082 0)
(1.03509 0.0441111 0)
(0.9076 0.034277 0)
(0.645205 0.0207911 0)
(0.334616 0.00843053 0)
(0.0895331 0.00179838 0)
(0.230935 0.00257553 0)
(0.599645 0.00838441 0)
(0.907429 0.0137556 0)
(1.09417 0.0179163 0)
(1.15531 0.0237296 0)
(1.15696 0.0311747 0)
(1.14076 0.0388701 0)
(1.12395 0.0462125 0)
(1.10763 0.0532251 0)
(1.09138 0.0596776 0)
(1.07719 0.0649067 0)
(1.06735 0.066432 0)
(1.06401 0.0646561 0)
(1.0658 0.0619234 0)
(1.06052 0.0574753 0)
(1.01907 0.0496686 0)
(0.87636 0.0386227 0)
(0.60257 0.0230596 0)
(0.300357 0.00921994 0)
(0.0759714 0.00190114 0)
(0.247539 0.00326906 0)
(0.624795 0.0102301 0)
(0.929894 0.0178293 0)
(1.11037 0.0243394 0)
(1.16881 0.0319383 0)
(1.17053 0.0408408 0)
(1.15296 0.04972 0)
(1.13403 0.0581665 0)
(1.11411 0.0663079 0)
(1.09305 0.0733786 0)
(1.07442 0.0774925 0)
(1.06406 0.077572 0)
(1.06011 0.0760967 0)
(1.05962 0.0716076 0)
(1.05206 0.0656146 0)
(0.999233 0.0570162 0)
(0.837489 0.0427843 0)
(0.553072 0.0253788 0)
(0.262358 0.00986597 0)
(0.06152 0.00193873 0)
(0.269971 0.00448505 0)
(0.657791 0.0144208 0)
(0.958884 0.0244779 0)
(1.13131 0.0333363 0)
(1.18535 0.0423768 0)
(1.1855 0.0533443 0)
(1.16525 0.0641268 0)
(1.14328 0.0741255 0)
(1.12049 0.083057 0)
(1.09711 0.0899468 0)
(1.07657 0.09347 0)
(1.06309 0.0929974 0)
(1.05647 0.0892063 0)
(1.05471 0.0838985 0)
(1.04003 0.076487 0)
(0.974156 0.0641994 0)
(0.793561 0.0483288 0)
(0.49884 0.0279056 0)
(0.221886 0.0103156 0)
(0.0467786 0.00191206 0)
(0.302171 0.00559178 0)
(0.705718 0.0177266 0)
(1.00046 0.0324304 0)
(1.15927 0.0449134 0)
(1.20577 0.0564392 0)
(1.20361 0.0698805 0)
(1.17987 0.0823038 0)
(1.15442 0.0934572 0)
(1.12698 0.102852 0)
(1.09787 0.109352 0)
(1.0723 0.111799 0)
(1.05674 0.109029 0)
(1.04957 0.104083 0)
(1.04506 0.09648 0)
(1.02585 0.0863653 0)
(0.943793 0.0731516 0)
(0.739082 0.0529355 0)
(0.435139 0.029599 0)
(0.177982 0.0102889 0)
(0.0318136 0.00176441 0)
(0.338018 0.00891065 0)
(0.762547 0.0262561 0)
(1.04881 0.0447157 0)
(1.19294 0.0615481 0)
(1.23066 0.0756594 0)
(1.22404 0.0922582 0)
(1.19525 0.106494 0)
(1.16459 0.11873 0)
(1.13228 0.128237 0)
(1.09953 0.133472 0)
(1.07134 0.132893 0)
(1.05321 0.127535 0)
(1.0439 0.120016 0)
(1.03732 0.110715 0)
(1.00722 0.099232 0)
(0.905046 0.0810889 0)
(0.677373 0.0583468 0)
(0.368494 0.0311879 0)
(0.134524 0.00988943 0)
(0.0184021 0.00158222 0)
(0.41654 0.0137958 0)
(0.848757 0.0364955 0)
(1.11665 0.0626354 0)
(1.23533 0.0846965 0)
(1.25967 0.101726 6.31923e-34)
(1.24647 0.122091 -2.84129e-34)
(1.21091 0.137896 0)
(1.17468 0.150225 0)
(1.13642 0.158153 0)
(1.09705 0.160439 0)
(1.06374 0.156764 0)
(1.04438 0.148422 0)
(1.03424 0.137912 0)
(1.02319 0.125806 0)
(0.983801 0.11034 0)
(0.858704 0.090323 0)
(0.602003 0.0614495 0)
(0.288634 0.030078 0)
(0.0864869 0.0086903 0)
(0.00412013 0.00137757 0)
(0.482351 0.0284407 4.74569e-20)
(0.948975 0.0573007 -3.58938e-20)
(1.18639 0.0921764 0)
(1.27719 0.120511 2.73381e-20)
(1.28968 0.139843 -2.21597e-20)
(1.26636 0.162574 2.99796e-34)
(1.22343 0.178287 0)
(1.18121 0.189995 1.61119e-20)
(1.13741 0.196443 -5.31347e-20)
(1.09426 0.195806 1.08985e-20)
(1.05926 0.187212 0)
(1.03654 0.172854 -2.80013e-20)
(1.02373 0.159267 -3.36144e-20)
(1.00789 0.144977 5.88194e-20)
(0.947939 0.127413 -4.63995e-20)
(0.786491 0.0983556 0)
(0.497274 0.0635524 -1.65875e-20)
(0.198726 0.0283152 0)
(0.0402513 0.00767156 -9.18362e-20)
(-0.0107223 0.000637576 1.08229e-19)
(0.518499 0.0538855 -6.20598e-21)
(1.0132 0.0949177 1.07671e-19)
(1.23865 0.135772 -6.72164e-21)
(1.31226 0.164996 -6.72556e-20)
(1.31605 0.18646 -4.63381e-20)
(1.28377 0.209299 7.52592e-20)
(1.23394 0.224939 0)
(1.18578 0.235878 0)
(1.13598 0.239907 8.44342e-20)
(1.08613 0.235033 0)
(1.04383 0.221345 1.00734e-19)
(1.01946 0.205457 3.00458e-20)
(1.00401 0.188406 4.96802e-22)
(0.977825 0.16851 -6.38135e-20)
(0.900983 0.141762 0)
(0.711923 0.109183 0)
(0.40951 0.0665142 -2.69487e-19)
(0.137845 0.0269322 6.77763e-19)
(0.00741242 0.00474867 -4.00647e-19)
(-0.0220188 -0.00149579 -4.71776e-19)
(0.529797 0.0785698 -6.14478e-20)
(1.04945 0.142985 2.34754e-20)
(1.27358 0.188886 1.25522e-20)
(1.33927 0.219227 1.16016e-19)
(1.33587 0.241261 1.38795e-20)
(1.29583 0.26271 -1.9577e-19)
(1.23962 0.27646 6.68991e-20)
(1.18548 0.284844 0)
(1.13038 0.286472 -1.78573e-19)
(1.07721 0.278662 1.60089e-19)
(1.03494 0.26109 -2.71684e-19)
(1.00648 0.238015 1.27425e-19)
(0.986658 0.214803 -8.20724e-20)
(0.957321 0.190627 1.85573e-19)
(0.864277 0.162417 0)
(0.65808 0.118835 -6.68877e-20)
(0.355645 0.0694323 0)
(0.111223 0.0255077 3.68624e-19)
(-0.00770076 0.00125795 -8.72919e-19)
(-0.028148 -0.0038426 5.46274e-19)
(0.529845 0.103504 1.66204e-19)
(1.07446 0.196567 -7.37451e-20)
(1.2994 0.249831 -1.49823e-20)
(1.35822 0.280253 0)
(1.34937 0.300441 -8.50144e-20)
(1.3035 0.319325 1.04979e-19)
(1.24156 0.330599 -7.20358e-20)
(1.18214 0.335853 0)
(1.1224 0.333062 1.26917e-19)
(1.06406 0.319362 -1.12368e-19)
(1.01507 0.296055 2.34705e-19)
(0.985001 0.270555 0)
(0.965599 0.244743 -1.744e-19)
(0.927963 0.215489 9.85761e-20)
(0.830736 0.175924 2.45355e-19)
(0.621223 0.130006 -2.15874e-19)
(0.331102 0.0755682 3.40271e-19)
(0.10537 0.0253609 -7.52796e-19)
(-0.0136302 -0.00132958 4.75753e-19)
(-0.032031 -0.00616544 -5.94772e-19)
(0.517375 0.131123 -5.51365e-20)
(1.07978 0.245843 3.93512e-20)
(1.31107 0.308623 -4.90586e-20)
(1.36827 0.342683 9.94293e-20)
(1.35555 0.362761 -9.4282e-20)
(1.3049 0.3791 3.30719e-20)
(1.23863 0.386914 3.49319e-21)
(1.1749 0.387344 -1.42972e-19)
(1.11108 0.380146 -1.33587e-19)
(1.05001 0.362836 -2.41431e-19)
(1.00214 0.336495 -5.04159e-19)
(0.970364 0.304086 -1.55066e-19)
(0.944886 0.271663 2.13494e-21)
(0.907101 0.238817 -3.34815e-19)
(0.805454 0.199547 -4.32777e-21)
(0.597384 0.144166 3.13227e-19)
(0.325385 0.0821579 -9.37373e-20)
(0.108156 0.0292592 -5.43937e-20)
(-0.0107588 -0.00241402 0)
(-0.0322997 -0.00819342 1.26141e-18)
(0.502912 0.156082 0)
(1.08089 0.296221 -2.70084e-21)
(1.31724 0.369483 -7.3292e-21)
(1.37156 0.405908 -1.25782e-20)
(1.35591 0.424684 9.02496e-20)
(1.30211 0.438286 -7.73342e-20)
(1.23242 0.44292 7.87273e-20)
(1.16519 0.439378 2.35214e-19)
(1.09789 0.426937 -7.45329e-20)
(1.03373 0.403396 1.19295e-19)
(0.980942 0.369707 2.70735e-19)
(0.94636 0.33548 3.37704e-19)
(0.921649 0.304037 -2.02669e-19)
(0.879476 0.26615 3.62137e-19)
(0.77863 0.216457 -2.86479e-19)
(0.578566 0.160248 0)
(0.322104 0.0936997 -7.11647e-19)
(0.116004 0.0349977 9.57972e-19)
(-0.0024488 -0.00137245 7.14601e-20)
(-0.0294346 -0.00913576 -1.33367e-18)
(0.485154 0.177517 -6.59413e-21)
(1.07008 0.340844 -6.25251e-21)
(1.31436 0.425053 5.26015e-20)
(1.36911 0.466296 -7.58803e-20)
(1.35123 0.485636 7.57387e-20)
(1.29461 0.497267 -7.4962e-20)
(1.22249 0.498713 1.56162e-19)
(1.153 0.490258 -7.00749e-20)
(1.08376 0.472676 -3.00402e-19)
(1.01862 0.444517 2.81928e-23)
(0.966575 0.408478 -2.93546e-19)
(0.928913 0.369636 -3.62834e-19)
(0.899234 0.33132 2.23784e-19)
(0.858427 0.290534 -1.29904e-19)
(0.757346 0.243767 3.11609e-19)
(0.565849 0.177172 0)
(0.323396 0.106701 -4.4243e-19)
(0.126218 0.0425193 6.53475e-19)
(0.00805584 0.0015176 1.23543e-18)
(-0.0249427 -0.00909402 -1.45307e-18)
(0.471251 0.198504 -7.91655e-20)
(1.06149 0.387121 3.25233e-20)
(1.30956 0.481796 -3.15474e-20)
(1.36271 0.525716 7.76232e-20)
(1.34295 0.544176 1.19469e-20)
(1.28456 0.553583 -1.46178e-19)
(1.21072 0.552156 -9.13959e-20)
(1.13955 0.539975 -9.09697e-20)
(1.06861 0.517493 -1.69833e-19)
(1.00033 0.483741 2.73383e-19)
(0.941667 0.440994 2.96804e-19)
(0.90224 0.400276 5.75832e-19)
(0.874662 0.363937 0)
(0.829214 0.320304 6.07845e-21)
(0.732262 0.261589 -8.55989e-19)
(0.550109 0.196568 2.01163e-19)
(0.323164 0.120385 9.60953e-19)
(0.135811 0.0512205 -2.83617e-19)
(0.0190908 0.00598681 5.87823e-19)
(-0.0196139 -0.00815295 -4.90813e-20)
(0.457355 0.216928 7.99502e-21)
(1.04666 0.427761 5.38421e-20)
(1.29989 0.533061 -9.58991e-21)
(1.35328 0.581336 7.85914e-20)
(1.33206 0.600277 -1.43824e-19)
(1.27188 0.608093 1.44954e-19)
(1.19662 0.604045 9.46646e-20)
(1.12428 0.587599 2.70813e-19)
(1.0518 0.560662 3.40516e-19)
(0.981357 0.522655 -3.16589e-19)
(0.923384 0.477492 0)
(0.883443 0.432985 -2.17848e-19)
(0.849877 0.390237 2.50113e-19)
(0.807332 0.344217 3.14857e-19)
(0.712284 0.289822 -1.82499e-19)
(0.538681 0.214611 -4.41313e-19)
(0.323848 0.134931 -1.3134e-19)
(0.144725 0.0611745 -2.07841e-21)
(0.0293726 0.011482 0)
(-0.0143327 -0.00665003 0)
(0.447456 0.23538 -8.20266e-20)
(1.0358 0.469984 0)
(1.28988 0.585024 5.5643e-21)
(1.34169 0.635592 -1.54457e-20)
(1.31907 0.653635 1.65646e-19)
(1.2577 0.659434 -4.12528e-20)
(1.18144 0.652864 9.66523e-20)
(1.10791 0.63339 -1.82959e-19)
(1.03339 0.602589 2.59107e-19)
(0.960298 0.559625 -1.04615e-19)
(0.898266 0.508239 1.70486e-19)
(0.856263 0.461856 6.91767e-19)
(0.824147 0.421605 1.42636e-20)
(0.779392 0.372995 -3.2938e-19)
(0.687961 0.306529 6.07528e-19)
(0.522397 0.234307 3.09447e-21)
(0.32046 0.148786 1.40516e-19)
(0.149923 0.070977 -6.69704e-19)
(0.0371602 0.0169739 6.90083e-19)
(-0.00984464 -0.00500204 -8.12755e-19)
(0.438765 0.252459 4.56217e-23)
(1.02166 0.507165 0)
(1.27705 0.631691 0)
(1.3285 0.685921 5.19423e-22)
(1.30478 0.704186 -4.81882e-20)
(1.24212 0.708431 6.81278e-20)
(1.1648 0.699678 -1.78173e-19)
(1.09009 0.676916 0)
(1.01434 0.642573 -3.82137e-19)
(0.940574 0.595818 4.59253e-19)
(0.8797 0.542468 4.86579e-19)
(0.835835 0.492606 -2.53715e-19)
(0.80012 0.445658 -3.07203e-19)
(0.758025 0.394067 7.2017e-19)
(0.667586 0.334018 -2.16273e-19)
(0.508909 0.250323 -2.57139e-19)
(0.315834 0.162247 -1.53621e-19)
(0.152568 0.0801369 -7.24001e-19)
(0.0428253 0.0219069 1.06238e-19)
(-0.00623334 -0.00344735 8.8028e-19)
(0.433327 0.269541 -4.06592e-20)
(1.01118 0.545701 -5.25677e-20)
(1.26468 0.678845 2.31267e-20)
(1.3142 0.734841 1.25515e-22)
(1.2893 0.752177 -5.32666e-20)
(1.22567 0.754475 1.09586e-19)
(1.14762 0.743447 0)
(1.07235 0.718296 1.116e-19)
(0.995845 0.681093 -8.79968e-20)
(0.920444 0.630439 7.67272e-19)
(0.854692 0.571274 -1.09566e-19)
(0.808492 0.518822 1.26106e-19)
(0.774898 0.474227 0)
(0.730414 0.42079 -3.89872e-19)
(0.642829 0.347593 4.71461e-19)
(0.490105 0.267848 0)
(0.307409 0.17396 -3.30691e-19)
(0.152387 0.0876202 9.7354e-19)
(0.0461646 0.0258843 1.15703e-19)
(-0.00350847 -0.0021276 -1.08549e-18)
(0.428202 0.287462 -1.01461e-19)
(0.998542 0.579651 1.26533e-19)
(1.25066 0.720974 0)
(1.29918 0.779958 2.04482e-20)
(1.27333 0.797371 0)
(1.20878 0.798113 -1.4332e-19)
(1.13031 0.785134 0)
(1.05479 0.757416 0)
(0.977769 0.717678 -1.16917e-19)
(0.901124 0.664254 -7.29388e-19)
(0.835032 0.603428 -8.99662e-19)
(0.78768 0.547379 1.47367e-19)
(0.751343 0.494812 5.31526e-19)
(0.708179 0.437863 4.29025e-19)
(0.621617 0.372245 -1.51315e-18)
(0.473832 0.28025 -6.0417e-19)
(0.297754 0.183992 3.54327e-19)
(0.149025 0.0933587 0)
(0.0471774 0.0283671 9.94891e-19)
(-0.00171367 -0.00119646 -1.1708e-18)
(0.425061 0.304532 1.2123e-19)
(0.989247 0.614955 -1.46968e-19)
(1.23758 0.763506 0)
(1.2838 0.823736 -1.16139e-20)
(1.25696 0.840244 -2.16449e-21)
(1.19185 0.839101 0)
(1.11335 0.823997 5.59094e-20)
(1.03807 0.794413 7.77213e-20)
(0.96043 0.752727 -2.19748e-19)
(0.881194 0.696547 9.66201e-20)
(0.809914 0.630256 0)
(0.76009 0.570874 6.12416e-19)
(0.724198 0.519989 6.41512e-21)
(0.679981 0.461304 2.31472e-19)
(0.59568 0.380672 2.74398e-19)
(0.452292 0.293953 0)
(0.285321 0.190881 -5.76706e-19)
(0.144035 0.0961127 1.1267e-18)
(0.0464235 0.0295737 -1.2019e-18)
(-0.000905891 -0.000614413 2.52221e-18)
(0.422675 0.320929 0)
(0.97844 0.645926 0)
(1.22364 0.801373 -7.32129e-20)
(1.26837 0.863965 0)
(1.24075 0.880429 0)
(1.17522 0.877717 -1.21144e-19)
(1.09697 0.860834 5.73726e-20)
(1.02182 0.829253 1.80978e-20)
(0.943262 0.78587 -5.01908e-20)
(0.861929 0.727821 0)
(0.789905 0.660592 -1.37325e-19)
(0.737467 0.597086 -4.99284e-19)
(0.698731 0.53681 -6.00468e-19)
(0.655758 0.472308 -2.41202e-19)
(0.573042 0.400587 2.97041e-19)
(0.435501 0.300385 -6.99511e-19)
(0.275533 0.195335 1.23935e-18)
(0.140045 0.0966627 1.26158e-21)
(0.0452624 0.0299453 -1.14874e-18)
(-0.00058617 -0.000423714 -1.70115e-19)
(0.421629 0.336233 0)
(0.970701 0.67816 -1.198e-19)
(1.2109 0.839644 8.81386e-20)
(1.2531 0.902991 0)
(1.22467 0.918536 0)
(1.15896 0.913987 2.43914e-19)
(1.08104 0.895105 0)
(1.00616 0.862019 0)
(0.92682 0.817469 -4.81764e-19)
(0.842981 0.757865 1.3387e-19)
(0.765313 0.686109 -1.22076e-18)
(0.708394 0.618404 0)
(0.66841 0.558733 -6.56081e-19)
(0.625004 0.491197 9.58333e-21)
(0.54548 0.401086 -9.56932e-19)
(0.414337 0.307129 3.76071e-19)
(0.264773 0.195111 1.13242e-21)
(0.138553 0.0950723 -1.29504e-18)
(0.0454456 0.0298229 6.18633e-19)
(0.000111753 -0.000385571 1.8198e-19)
(0.421002 0.350817 0)
(0.961691 0.706261 -1.63863e-19)
(1.19768 0.873555 9.40028e-20)
(1.23811 0.938728 1.22687e-19)
(1.20903 0.954111 -1.12644e-20)
(1.14317 0.947987 2.67074e-20)
(1.06574 0.927467 -3.42639e-20)
(0.991036 0.892766 4.62833e-19)
(0.910833 0.847208 5.15356e-19)
(0.825134 0.786938 1.01779e-18)
(0.745729 0.715356 1.01425e-18)
(0.68465 0.644072 1.78577e-19)
(0.640931 0.573006 9.42575e-19)
(0.596329 0.495049 5.81269e-19)
(0.519987 0.413538 6.86234e-19)
(0.398389 0.302752 -4.1099e-19)
(0.259551 0.188776 -4.73027e-19)
(0.141105 0.0914979 5.59713e-19)
(0.0508784 0.0288934 -3.3338e-19)
(0.00289882 -0.000276974 5.87807e-19)
(0.421 0.364627 2.31736e-19)
(0.955238 0.7356 2.57246e-19)
(1.18569 0.907925 5.48631e-20)
(1.22349 0.973418 1.58188e-20)
(1.19369 0.987829 3.84637e-22)
(1.12785 0.979914 -6.71767e-20)
(1.05097 0.957551 3.33215e-20)
(0.97665 0.921641 -1.93226e-20)
(0.895997 0.875573 -5.99235e-19)
(0.808232 0.815037 -1.10481e-18)
(0.722578 0.740228 7.03687e-20)
(0.655991 0.665159 0)
(0.607728 0.593693 0)
(0.560859 0.511079 -3.03974e-19)
(0.486491 0.402865 -1.12691e-18)
(0.376403 0.296591 8.84851e-19)
(0.257368 0.175151 5.17351e-19)
(0.151698 0.0807199 0)
(0.0694668 0.0251121 1.06985e-18)
(0.0153061 0.00170053 -6.32005e-19)
(0.420964 0.3779 -1.21881e-19)
(0.947511 0.760943 1.08975e-19)
(1.17333 0.93816 -1.30244e-19)
(1.20925 1.00506 -1.05281e-19)
(1.17886 1.0192 -1.57622e-20)
(1.11313 1.00973 -2.02068e-20)
(1.03707 0.985932 0)
(0.963185 0.948791 -5.82543e-19)
(0.881861 0.902213 7.3813e-20)
(0.792111 0.841821 0)
(0.704553 0.76878 0)
(0.632896 0.692112 1.14537e-19)
(0.579062 0.608638 1.5315e-19)
(0.526631 0.510207 -3.29595e-19)
(0.454239 0.408303 8.08898e-19)
(0.352604 0.271792 -9.63813e-19)
(0.253811 0.148569 -1.11101e-18)
(0.179823 0.0534416 9.86264e-19)
(0.142218 0.0148461 -3.82323e-19)
(0.0878536 0.0212677 2.21958e-19)
(0.421128 0.390345 1.53361e-19)
(0.941892 0.787493 0)
(1.16212 0.968946 0)
(1.19546 1.03583 -2.84283e-20)
(1.16451 1.04897 2.30169e-20)
(1.09913 1.03779 -1.9336e-20)
(1.02397 1.01237 1.51829e-19)
(0.950625 0.974339 5.97557e-19)
(0.8688 0.927612 1.08545e-18)
(0.776953 0.867616 -8.33038e-20)
(0.683522 0.792918 1.72867e-19)
(0.606001 0.713832 -1.02665e-18)
(0.544989 0.631082 -1.02567e-18)
(0.486513 0.53002 -1.77416e-19)
(0.406422 0.389457 0)
(0.318601 0.256568 -3.51471e-21)
(0.241265 0.0912891 6.13033e-19)
(0.202378 -0.025492 -1.05049e-18)
(0.156139 -0.0935869 8.04127e-19)
(0.0768029 -0.0521801 6.82361e-19)
(0.420978 0.402563 -3.38914e-19)
(0.934674 0.809954 -1.52753e-19)
(1.15034 0.99569 8.47008e-21)
(1.18202 1.06394 6.05256e-20)
(1.1507 1.0769 0)
(1.0857 1.06435 -7.39095e-20)
(1.01149 1.03775 -2.17851e-19)
(0.938447 0.998832 -1.94997e-21)
(0.855533 0.951823 -5.68648e-19)
(0.761324 0.892287 -8.1778e-20)
(0.66642 0.820904 7.59565e-20)
(0.583806 0.743305 9.02212e-19)
(0.516212 0.650829 1.0005e-18)
(0.446775 0.530409 1.73339e-19)
(0.365594 0.402372 8.76859e-19)
(0.254691 0.209148 0)
(0.154564 0.0745308 0)
(0.011082 0.199798 6.92067e-19)
(-0.0442369 0.70003 -1.58706e-20)
(0.00388958 1.67795 -7.86068e-19)
(0.421033 0.414126 1.87487e-19)
(0.929454 0.834039 4.31135e-19)
(1.13967 1.02353 -5.96776e-19)
(1.16899 1.09176 2.95892e-19)
(1.13743 1.104 -7.37619e-21)
(1.07315 1.09019 -2.65639e-20)
(0.99988 1.06245 0)
(0.926977 1.02308 -4.9776e-19)
(0.84297 0.976293 0)
(0.74628 0.9177 1.14891e-18)
(0.645125 0.845806 -9.34151e-20)
(0.556664 0.767521 1.04747e-19)
(0.480087 0.679399 1.15274e-18)
(0.400852 0.567243 -3.74526e-19)
(0.277006 0.384171 -4.44129e-19)
(0.178367 0.268692 0)
(0.069707 0.515982 0)
(0.019675 1.48456 0)
(0.0540392 2.52016 -4.00765e-19)
(0.0659407 2.93041 -2.41935e-19)
(0.420412 0.425206 0)
(0.922727 0.854051 0)
(1.12857 1.04745 2.18072e-19)
(1.15644 1.11703 -2.39718e-19)
(1.12486 1.12945 1.03544e-19)
(1.06132 1.11485 3.39034e-20)
(0.98898 1.08654 2.78008e-20)
(0.915859 1.04676 -2.1645e-20)
(0.830121 0.999976 8.05269e-20)
(0.730655 0.942202 -1.31895e-18)
(0.628452 0.874982 1.69057e-19)
(0.535043 0.80147 9.08665e-19)
(0.451063 0.707477 -1.14838e-18)
(0.352777 0.569432 -1.26339e-18)
(0.245393 0.451552 4.23372e-19)
(0.142369 0.666118 0)
(0.076393 1.73062 5.74805e-19)
(0.0908949 2.73438 6.3168e-19)
(0.0957749 3.08834 -7.11973e-19)
(0.0854778 3.21051 7.71022e-19)
(0.419958 0.435806 0)
(0.917981 0.875827 3.81157e-19)
(1.1187 1.07265 -5.42586e-20)
(1.14446 1.1421 3.36063e-19)
(1.11298 1.15406 -1.08687e-19)
(1.0504 1.13873 0)
(0.978799 1.10983 0)
(0.905313 1.07002 0)
(0.818103 1.02377 4.52501e-19)
(0.716361 0.967427 6.0881e-20)
(0.608157 0.900485 0)
(0.509945 0.827593 -9.02994e-19)
(0.417333 0.740263 0)
(0.301532 0.620908 8.99612e-19)
(0.194727 0.702604 -6.13516e-19)
(0.131557 1.57695 -4.87217e-19)
(0.130426 2.73083 -1.11743e-18)
(0.146206 3.12485 -5.98259e-19)
(0.125305 3.24965 -8.44476e-19)
(0.110956 3.28489 7.36877e-19)
(0.418233 0.445114 -1.34111e-19)
(0.911641 0.893219 1.63103e-20)
(1.1084 1.09386 -6.04284e-20)
(1.13301 1.16467 -2.58943e-19)
(1.10181 1.17708 0)
(1.04008 1.16146 0)
(0.969122 1.13255 0)
(0.89498 1.0928 3.45451e-20)
(0.805835 1.04691 -5.72301e-19)
(0.701444 0.991671 0)
(0.593376 0.930301 0)
(0.491893 0.864753 0)
(0.382871 0.764386 0)
(0.30754 0.733547 6.62909e-19)
(0.231477 1.24411 1.62818e-18)
(0.187331 2.52552 4.76017e-19)
(0.200879 3.09761 9.62373e-19)
(0.189011 3.26681 -7.39916e-19)
(0.153983 3.31955 2.6184e-19)
(0.13546 3.33088 0)
(0.416622 0.453544 1.38205e-19)
(0.9065 0.912498 -8.47348e-19)
(1.09892 1.11701 -2.30376e-19)
(1.12198 1.18794 -5.02768e-20)
(1.09122 1.20004 2.56913e-20)
(1.03034 1.18399 -9.31792e-20)
(0.959745 1.15486 -2.36144e-21)
(0.884949 1.11552 -3.78728e-19)
(0.794475 1.07063 0)
(0.688587 1.01735 -7.84879e-20)
(0.575425 0.956639 7.13995e-20)
(0.471022 0.890613 0)
(0.370972 0.825771 0)
(0.299348 0.996441 -8.32446e-19)
(0.225114 1.96845 1.09567e-19)
(0.220593 2.99155 -3.6627e-19)
(0.248429 3.26996 7.82726e-19)
(0.227839 3.35096 5.85329e-19)
(0.176052 3.37119 -8.78729e-19)
(0.157309 3.38092 4.39171e-19)
(0.413705 0.461709 2.7165e-19)
(0.898746 0.928066 8.25496e-19)
(1.08806 1.13743 2.7622e-19)
(1.11079 1.21044 0)
(1.0806 1.22311 0)
(1.02039 1.20683 7.26778e-20)
(0.950077 1.1778 6.01289e-20)
(0.874525 1.13878 3.37347e-19)
(0.78249 1.09463 2.22113e-20)
(0.674608 1.04273 1.00367e-18)
(0.563649 0.987851 -1.19663e-18)
(0.451735 0.927527 0)
(0.380004 0.912221 0)
(0.316729 1.36561 -5.66605e-19)
(0.279034 2.6404 -6.88229e-19)
(0.319269 3.2046 0)
(0.336782 3.33746 -8.75365e-19)
(0.263026 3.38847 -1.12395e-20)
(0.198135 3.42231 5.84322e-19)
(0.174426 3.43963 -2.47426e-19)
(0.410959 0.470477 -5.16018e-19)
(0.892512 0.948648 -3.96129e-19)
(1.07763 1.16248 0)
(1.09919 1.23568 0)
(1.06961 1.24788 0)
(1.01007 1.23088 0)
(0.939824 1.20133 -7.17381e-20)
(0.863736 1.16277 2.89668e-19)
(0.771091 1.11999 0)
(0.663196 1.0706 -9.13438e-19)
(0.548327 1.01579 2.14607e-18)
(0.445435 0.96569 8.75807e-20)
(0.388827 1.06087 1.16073e-19)
(0.341706 1.90028 9.15899e-19)
(0.333252 2.97977 -5.03968e-19)
(0.372744 3.30403 0)
(0.34588 3.40069 2.603e-19)
(0.26542 3.47286 7.19507e-20)
(0.218526 3.51461 4.49776e-20)
(0.183728 3.508 9.53732e-20)
(0.407176 0.480275 2.44449e-19)
(0.883281 0.965224 -4.03342e-19)
(1.06541 1.18422 0)
(1.08692 1.25994 -7.41274e-20)
(1.05785 1.27288 2.5668e-19)
(0.998777 1.25546 0)
(0.928776 1.22581 0)
(0.852257 1.18751 -4.9924e-19)
(0.758855 1.1457 -5.80152e-20)
(0.65008 1.09794 8.95471e-19)
(0.535241 1.047 -1.02221e-18)
(0.453375 1.02459 5.91097e-19)
(0.408182 1.29899 0)
(0.37711 2.34343 -4.84375e-19)
(0.39987 3.18723 3.145e-19)
(0.448417 3.39644 2.19187e-19)
(0.419974 3.47178 0)
(0.363141 3.52214 1.9415e-20)
(0.315045 3.53331 -2.10698e-19)
(0.23555 3.47207 -3.5912e-20)