/*--------------------------------*- C++ -*----------------------------------*\
  =========                 |
  \\      /  F ield         | OpenFOAM: The Open Source CFD Toolbox
   \\    /   O peration     | Website:  https://openfoam.org
    \\  /    A nd           | Version:  6
     \\/     M anipulation  |
\*---------------------------------------------------------------------------*/
FoamFile
{
    version     2.0;
    format      ascii;
    class       surfaceScalarField;
    location    "92";
    object      phi;
}
// * * * * * * * * * * * * * * * * * * * * * * * * * * * * * * * * * * * * * //

dimensions      [0 3 -1 0 0 0 0];

internalField   nonuniform List<scalar> 
17370
(
-0.09
0.0898489
0.289162
-0.0714622
0.0537521
0.364486
-0.0381187
0.0276893
0.426598
-0.0196372
0.0146039
0.504285
-0.0107617
0.00827111
0.601893
-0.00627131
0.00489475
0.720434
-0.00373081
0.00289026
0.863747
-0.00214881
0.00158975
1.03601
-0.00107325
0.000660972
1.24292
-0.000254058
-0.000142857
1.49159
0.000522328
-0.000932118
1.4916
0.00132994
-0.00181699
1.24318
0.0023411
-0.00304446
1.03634
0.0038582
-0.005003
0.864051
0.00636935
-0.00836235
0.72105
0.0108477
-0.0146836
0.603051
0.0197103
-0.0277544
0.507483
0.0381758
-0.0538001
0.431792
0.0715016
-0.0898754
0.365149
0.0900163
0.198995
-0.128138
0.0882291
0.0399085
-0.3646
0.353381
-0.0746693
0.085888
-0.446477
0.454322
-0.0843837
0.0765383
-0.521191
0.529904
-0.0684402
0.0597276
-0.61279
0.621571
-0.0515375
0.0427566
-0.726896
0.734167
-0.0352944
0.0280233
-0.867476
0.872594
-0.0224207
0.0173031
-1.03848
1.04193
-0.0134914
0.0100396
-1.2446
1.24703
-0.00742717
0.00499236
-1.49262
1.49461
-0.00304198
0.00105877
-1.49251
1.49423
0.000613491
-0.00233665
-1.24397
1.24586
0.00424353
-0.00612925
-1.03751
1.04003
0.0084819
-0.0110027
-0.866099
0.869825
0.0143489
-0.0180754
-0.724389
0.729932
0.0231153
-0.028658
-0.608697
0.616109
0.0358714
-0.043284
-0.514895
0.523038
0.052013
-0.060156
-0.439855
0.447913
0.0688175
-0.076875
-0.375294
0.376737
0.0846699
-0.0861131
-0.257329
0.222474
0.0748219
-0.0399672
-0.0685237
0.0586997
0.00982402
-0.0517998
0.0583791
-0.374132
0.367553
-0.0574599
0.0537049
-0.453598
0.457353
-0.0486124
0.0446573
-0.527952
0.531907
-0.0408143
0.0371723
-0.621569
0.625211
-0.0330668
0.0289873
-0.735355
0.739434
-0.0244125
0.0202489
-0.874347
0.87851
-0.0158982
0.0122
-1.0435
1.04719
-0.00845788
0.00528133
-1.24857
1.25174
-0.00195002
-0.0011255
-1.49666
1.49974
0.00417446
-0.00744178
-1.4972
1.50047
0.0105215
-0.0141212
-1.25007
1.25366
0.0176673
-0.0218463
-1.04592
1.0501
0.0258672
-0.030304
-0.877754
0.88219
0.0342719
-0.0382663
-0.739893
0.743888
0.0418136
-0.0455589
-0.626767
0.630512
0.04943
-0.0544425
-0.534805
0.539817
0.0581087
-0.0589169
-0.457469
0.458277
0.0522061
-0.031997
-0.335742
0.315533
0.00989003
-0.0683384
0.0584484
-0.0529515
0.0489589
0.00399252
-0.0331415
0.0436775
-0.358126
0.34759
-0.0473682
0.0467353
-0.459296
0.459929
-0.0436743
0.0403169
-0.535813
0.539171
-0.0365391
0.0332301
-0.628541
0.63185
-0.0297863
0.0267486
-0.742663
0.7457
-0.023483
0.0203699
-0.882034
0.885147
-0.0168325
0.0134467
-1.05079
1.05417
-0.00964692
0.00610304
-1.25518
1.25872
-0.00212902
-0.00167146
-1.50325
1.50705
0.00543913
-0.00931427
-1.50413
1.508
0.0127213
-0.0163246
-1.25741
1.26101
0.0195
-0.0227979
-1.05391
1.0572
0.0257077
-0.0287724
-0.885672
0.888737
0.0316451
-0.0349241
-0.747141
0.75042
0.0380938
-0.0417301
-0.634291
0.637928
0.0449664
-0.0478889
-0.544122
0.547044
0.0483753
-0.0444785
-0.456556
0.452659
0.0336959
-0.0162327
-0.296156
0.278693
0.00407499
-0.0526254
0.0485504
-0.0458848
0.0433934
0.00249141
-0.0227779
0.0331419
-0.336913
0.326549
-0.0389501
0.0399581
-0.45962
0.458612
-0.0387598
0.0364669
-0.541895
0.544188
-0.0337923
0.0311894
-0.634908
0.637511
-0.028118
0.0252107
-0.748753
0.75166
-0.0219366
0.018934
-0.888108
0.89111
-0.015619
0.0125109
-1.05731
1.06042
-0.00897582
0.00555986
-1.26219
1.26561
-0.00159073
-0.00229706
-1.51093
1.51482
0.00614064
-0.00997709
-1.51189
1.51573
0.013211
-0.0164877
-1.26444
1.26772
0.0193203
-0.0223213
-1.0603
1.0633
0.0250544
-0.0280587
-0.891777
0.894782
0.0307416
-0.033587
-0.753618
0.756463
0.0359989
-0.0384821
-0.640985
0.643468
0.0406117
-0.0415941
-0.548839
0.549821
0.0403594
-0.0342193
-0.447364
0.441224
0.0234915
-0.0102529
-0.263455
0.250217
0.00259348
-0.0453825
0.042789
-0.041323
0.0395612
0.00176187
-0.0167087
0.0259386
-0.316714
0.307484
-0.0325237
0.0346492
-0.457024
0.454899
-0.0342165
0.0325369
-0.546174
0.547853
-0.0303466
0.0282423
-0.639825
0.641929
-0.0258002
0.023392
-0.754314
0.756722
-0.0205209
0.0177195
-0.894015
0.896817
-0.0144697
0.0113882
-1.06348
1.06656
-0.00788531
0.00454932
-1.26893
1.27227
-0.000707829
-0.00303061
-1.51861
1.52235
0.00671227
-0.0103836
-1.51945
1.52312
0.0134866
-0.0166601
-1.27096
1.27413
0.0193906
-0.0222395
-1.06633
1.06918
0.0246943
-0.0272162
-0.897579
0.900101
0.0293333
-0.0314832
-0.758901
0.761051
0.0333426
-0.035286
-0.645611
0.647554
0.0367282
-0.0368676
-0.550324
0.550464
0.0343937
-0.0273217
-0.434534
0.427462
0.0176006
-0.00742898
-0.23866
0.228488
0.00188665
-0.0406038
0.0387171
-0.038045
0.0367224
0.00132264
-0.0127369
0.0206532
-0.298917
0.291
-0.027373
0.0302734
-0.452358
0.449457
-0.03046
0.0293258
-0.549296
0.55043
-0.02732
0.0253908
-0.643976
0.645905
-0.0231759
0.0210237
-0.758973
0.761125
-0.0184909
0.0159903
-0.899403
0.901904
-0.0130284
0.0101311
-1.06951
1.07241
-0.00675033
0.00349379
-1.27554
1.2788
0.000266466
-0.00390326
-1.52601
1.52965
0.00746888
-0.011015
-1.52671
1.53026
0.0139792
-0.0169477
-1.27725
1.28022
0.0194067
-0.0218678
-1.07191
1.07437
0.0239344
-0.0260277
-0.902367
0.90446
0.0278121
-0.0296565
-0.763019
0.764863
0.0312761
-0.0329812
-0.649361
0.651066
0.0337696
-0.0331718
-0.550234
0.549636
0.0297724
-0.0223846
-0.420172
0.412784
0.0138361
-0.00577082
-0.219469
0.211403
0.00147452
-0.0370609
0.0355864
-0.0355689
0.0345528
0.0010161
-0.00992713
0.0166031
-0.283731
0.277055
-0.0230439
0.0263848
-0.446319
0.442978
-0.0271396
0.0264201
-0.551352
0.552072
-0.0246432
0.0228421
-0.647816
0.649617
-0.0207517
0.0187147
-0.763214
0.765251
-0.0163182
0.0139668
-0.904259
0.906611
-0.0112007
0.00849064
-1.07514
1.07785
-0.00530676
0.0022003
-1.28194
1.28505
0.00142889
-0.00495353
-1.53321
1.53673
0.00838999
-0.0117535
-1.53369
1.53705
0.0144986
-0.0171739
-1.28307
1.28575
0.0193437
-0.0214926
-1.07674
1.07889
0.0233075
-0.025159
-0.906412
0.908263
0.0267395
-0.0283701
-0.766592
0.768222
0.0297867
-0.0311458
-0.652628
0.653987
0.0314364
-0.0300977
-0.548675
0.547336
0.0260681
-0.0187467
-0.4054
0.398078
0.0112753
-0.00467541
-0.204138
0.197538
0.0012009
-0.0342628
0.0330619
-0.0336631
0.0328755
0.000787607
-0.0078384
0.0134311
-0.270951
0.265359
-0.0193724
0.0228974
-0.439537
0.436013
-0.0241177
0.0236391
-0.552708
0.553186
-0.0221228
0.0204263
-0.651419
0.653116
-0.018425
0.0164674
-0.767242
0.769199
-0.0141557
0.0118851
-0.908852
0.911123
-0.0092152
0.00660918
-1.08043
1.08304
-0.00356019
0.0005917
-1.28803
1.291
0.00287109
-0.00622534
-1.54014
1.5435
0.00947101
-0.0126069
-1.54027
1.54341
0.0151318
-0.0175582
-1.28833
1.29076
0.0195033
-0.021418
-1.08101
1.08293
0.0230305
-0.0246723
-0.909994
0.911636
0.0260689
-0.0275049
-0.769744
0.77118
0.0287203
-0.0296902
-0.655151
0.65612
0.0296036
-0.027587
-0.545649
0.543632
0.0231415
-0.0160692
-0.390871
0.383799
0.0094874
-0.00392173
-0.191501
0.185936
0.0010123
-0.0319655
0.0309532
-0.0321869
0.0315773
0.000609624
-0.00622049
0.0108854
-0.26026
0.255595
-0.0162208
0.0197312
-0.432498
0.428988
-0.0212613
0.0210006
-0.553598
0.553859
-0.0197083
0.0180662
-0.654838
0.65648
-0.0161141
0.014199
-0.771124
0.773039
-0.0119379
0.00971794
-0.913288
0.915508
-0.00710803
0.00456496
-1.08553
1.08808
-0.00159914
-0.0012703
-1.29386
1.29673
0.00458857
-0.00777151
-1.54673
1.54991
0.0108222
-0.0137424
-1.54639
1.54931
0.0160723
-0.0182811
-1.29312
1.29532
0.0200205
-0.0217119
-1.08485
1.08654
0.0231289
-0.0245696
-0.913155
0.914596
0.0257959
-0.027053
-0.772514
0.773771
0.0281251
-0.0286736
-0.656889
0.657437
0.028191
-0.0255966
-0.54132
0.538726
0.0208847
-0.0141205
-0.376883
0.370119
0.00823376
-0.00340051
-0.180771
0.175938
0.000882587
-0.0300138
0.0291312
-0.0310492
0.0305846
0.000464585
-0.00491185
0.00877382
-0.25136
0.247498
-0.0134581
0.016804
-0.425573
0.422227
-0.0185023
0.0184223
-0.55408
0.55416
-0.0173136
0.0157006
-0.658179
0.659792
-0.0137624
0.0118535
-0.774934
0.776843
-0.00960103
0.00739593
-0.917628
0.919833
-0.00481308
0.00230627
-1.09051
1.09302
0.000604051
-0.00340205
-1.29951
1.3023
0.00661003
-0.00965324
-1.55298
1.55603
0.0125357
-0.01526
-1.55208
1.55481
0.0174032
-0.0193954
-1.29747
1.29947
0.0209281
-0.0223984
-1.08825
1.08972
0.0236299
-0.0248863
-0.915916
0.917172
0.0259606
-0.0270565
-0.77493
0.776026
0.0279199
-0.0281001
-0.657788
0.657968
0.0271909
-0.024094
-0.535875
0.532778
0.0192059
-0.0127346
-0.363515
0.357044
0.0073684
-0.00304743
-0.17139
0.167069
0.000796337
-0.0282991
0.0275027
-0.03019
0.029849
0.000341025
-0.00380905
0.00696243
-0.244017
0.240864
-0.0109823
0.0140524
-0.41904
0.41597
-0.0157903
0.0158523
-0.55423
0.554168
-0.0148147
0.0132647
-0.661455
0.663005
-0.0113107
0.00937383
-0.778741
0.780678
-0.00708956
0.00486196
-0.921943
0.92417
-0.00226623
-0.00023814
-1.09543
1.09793
0.00312625
-0.00588169
-1.30501
1.30777
0.0090115
-0.0119445
-1.55897
1.5619
0.0146828
-0.0172266
-1.55738
1.55993
0.0191901
-0.0209685
-1.30141
1.30319
0.0222966
-0.0235503
-1.09124
1.0925
0.0246017
-0.0256802
-0.918304
0.919382
0.0266084
-0.0275428
-0.777011
0.777946
0.0281443
-0.0280223
-0.657998
0.657876
0.0266419
-0.0230762
-0.529449
0.525884
0.0180471
-0.0118062
-0.350707
0.344466
0.00680503
-0.0028246
-0.162943
0.158963
0.000744169
-0.0267392
0.025995
-0.0295711
0.0293412
0.000229882
-0.00283564
0.00534609
-0.238058
0.235547
-0.00870009
0.0114099
-0.413109
0.410399
-0.0130714
0.0131998
-0.554146
0.554017
-0.0121938
0.0106741
-0.664631
0.666151
-0.00867903
0.00668286
-0.78261
0.784606
-0.00432875
0.00204177
-0.926306
0.928593
0.00060917
-0.00315025
-1.10035
1.10289
0.00605802
-0.00880594
-1.31045
1.31319
0.0118904
-0.0147378
-1.56474
1.56758
0.0173501
-0.0197274
-1.56232
1.56469
0.0215207
-0.0230901
-1.30492
1.30649
0.0242125
-0.0252458
-1.09383
1.09486
0.0261123
-0.0270044
-0.92033
0.921222
0.0277749
-0.0285426
-0.778718
0.779486
0.0288596
-0.0283989
-0.65762
0.65716
0.0265526
-0.0225363
-0.522114
0.518098
0.0173608
-0.0112591
-0.338321
0.33222
0.00648391
-0.00270503
-0.155106
0.151327
0.00071893
-0.0252699
0.024551
-0.0291715
0.029048
0.000123471
-0.00192746
0.00383105
-0.233365
0.231461
-0.00651231
0.00879005
-0.40794
0.405662
-0.0102659
0.0103807
-0.553986
0.553872
-0.00937005
0.00783955
-0.667784
0.669315
-0.00577273
0.00368469
-0.7866
0.788688
-0.0012221
-0.00116102
-0.930788
0.933171
0.00390906
-0.00652597
-1.10535
1.10796
0.00949581
-0.0122727
-1.31587
1.31865
0.015347
-0.0181348
-1.57034
1.57313
0.0206395
-0.0228627
-1.56691
1.56913
0.0244921
-0.0258528
-1.30804
1.3094
0.0267668
-0.0275741
-1.096
1.09681
0.0282455
-0.0289393
-0.921975
0.922669
0.0295529
-0.0301751
-0.780075
0.780698
0.0301351
-0.0292626
-0.65652
0.655648
0.0269316
-0.022458
-0.513891
0.509418
0.0171004
-0.0110341
-0.326167
0.320101
0.00636131
-0.00266925
-0.147614
0.143922
0.000715531
-0.0238402
0.0231247
-0.0289852
0.0289695
1.5689e-05
-0.00103573
0.00234426
-0.229878
0.228569
-0.00433636
0.0061165
-0.403673
0.401892
-0.0073025
0.00732093
-0.553919
0.553901
-0.00625702
0.00467473
-0.670998
0.672581
-0.00249388
0.00027753
-0.790774
0.792991
0.00233709
-0.00485798
-0.935464
0.937984
0.00774958
-0.0104845
-1.11051
1.11324
0.0135614
-0.0164059
-1.32137
1.32421
0.0195076
-0.0222634
-1.57583
1.57859
0.0246782
-0.0267562
-1.57118
1.57326
0.0282244
-0.0293771
-1.31074
1.31189
0.0300827
-0.0306626
-1.09774
1.09832
0.0311333
-0.0316168
-0.923218
0.923701
0.0320463
-0.0324036
-0.781051
0.781409
0.0320631
-0.0306982
-0.654588
0.653223
0.0278411
-0.0228663
-0.504745
0.49977
0.0172571
-0.0111054
-0.314028
0.307876
0.00641623
-0.00270768
-0.140245
0.136536
0.000731461
-0.0224079
0.0216764
-0.0290141
0.02911
-9.59334e-05
-0.000110778
0.00081579
-0.227581
0.226876
-0.00208889
0.00330486
-0.400436
0.39922
-0.00409905
0.00393556
-0.55412
0.554284
-0.00275876
0.00106494
-0.674367
0.67606
0.00126949
-0.00365825
-0.795206
0.797595
0.00647484
-0.00917984
-0.940416
0.943121
0.0122666
-0.0151666
-1.11591
1.11881
0.0184002
-0.0213536
-1.32701
1.32996
0.0245215
-0.0272737
-1.58127
1.58402
0.0296181
-0.0315592
-1.57515
1.57709
0.0328667
-0.0338102
-1.31302
1.31396
0.0343019
-0.0346429
-1.09903
1.09937
0.034902
-0.0351651
-0.92403
0.924293
0.0353863
-0.0354064
-0.781456
0.781476
0.0347264
-0.0327856
-0.651656
0.649715
0.0293354
-0.0237832
-0.494574
0.489022
0.0178261
-0.0114556
-0.301657
0.295287
0.00663355
-0.00281273
-0.132795
0.128974
0.000764425
-0.0209352
0.0201708
-0.0292775
0.0295082
-0.000230659
0.000851506
-0.00081163
-0.226504
0.226464
0.000314665
0.000261127
-0.398364
0.397788
-0.00055942
0.000122842
-0.554776
0.555213
0.00123849
-0.00310396
-0.678011
0.679877
0.00565077
-0.00826257
-0.799981
0.802593
0.0113386
-0.0142818
-0.945739
0.948683
0.0176233
-0.0207414
-1.12165
1.12477
0.0241861
-0.0272931
-1.33288
1.33598
0.0305679
-0.0333419
-1.5867
1.58947
0.0356265
-0.0374347
-1.57883
1.58064
0.0385819
-0.039314
-1.31485
1.31558
0.039584
-0.0396673
-1.09983
1.09992
0.0396957
-0.0397226
-0.924378
0.924405
0.0397531
-0.0393358
-0.781177
0.78076
0.0382256
-0.0356126
-0.64757
0.644957
0.031475
-0.0252336
-0.483209
0.476968
0.0188056
-0.0120702
-0.288779
0.282044
0.00699972
-0.00297685
-0.125076
0.121053
0.000811935
-0.0193893
0.0185774
-0.0298097
0.0301861
-0.000376407
0.00193606
-0.00252408
-0.226742
0.22733
0.00289381
-0.00308103
-0.397599
0.397787
0.00343345
-0.00425524
-0.556112
0.556934
0.00586516
-0.00797206
-0.682059
0.684166
0.010807
-0.01371
-0.805201
0.808104
0.017117
-0.0203622
-0.951546
0.954791
0.024027
-0.0274227
-1.12785
1.13124
0.0311384
-0.0344453
-1.33906
1.34237
0.0378653
-0.0406816
-1.59218
1.59499
0.0429096
-0.0445726
-1.58221
1.58387
0.0455446
-0.0460655
-1.31621
1.31673
0.0461078
-0.0459139
-1.10011
1.09992
0.0456945
-0.0454725
-0.924211
0.923989
0.0452731
-0.0443446
-0.780031
0.779102
0.042707
-0.039288
-0.642139
0.63872
0.0343291
-0.0272443
-0.470408
0.463323
0.020195
-0.0129357
-0.275098
0.267839
0.00750086
-0.00319185
-0.116911
0.112601
0.000871147
-0.0177425
0.0168713
-0.0306385
0.0311936
-0.000555145
0.0032253
-0.00460527
-0.228349
0.229729
0.00589561
-0.00688734
-0.398353
0.399345
0.00798958
-0.00931542
-0.558363
0.559689
0.0113058
-0.0137364
-0.686653
0.689083
0.016947
-0.0202167
-0.810998
0.814268
0.0240355
-0.0276559
-0.957965
0.961585
0.0317217
-0.0354609
-1.13461
1.13835
0.0395107
-0.0430643
-1.34565
1.34921
0.0466663
-0.0495427
-1.59774
1.60061
0.0517145
-0.0532174
-1.58527
1.58677
0.0539999
-0.0542928
-1.31709
1.31738
0.0540868
-0.053594
-1.09982
1.09933
0.0531131
-0.052618
-0.923494
0.922999
0.0520347
-0.0506313
-0.777951
0.776548
0.0482973
-0.0439068
-0.635085
0.630695
0.0379546
-0.0298301
-0.455845
0.44772
0.0219824
-0.0140288
-0.260288
0.252335
0.00811597
-0.00344569
-0.108135
0.103465
0.000937925
-0.015973
0.0150351
-0.0318342
0.0326194
-0.000785181
0.00478045
-0.00707525
-0.231563
0.233858
0.00944126
-0.0113662
-0.400832
0.402757
0.0133401
-0.0152904
-0.561772
0.563722
0.0177954
-0.0206448
-0.69196
0.69481
0.0243452
-0.0280704
-0.817529
0.821255
0.0323987
-0.0364809
-0.965149
0.969232
0.0410355
-0.045188
-1.14207
1.14622
0.0496335
-0.0534726
-1.35274
1.35658
0.0572774
-0.0602112
-1.60341
1.60634
0.0623076
-0.0636236
-1.58798
1.58929
0.0641822
-0.0642221
-1.31738
1.31742
0.0637473
-0.0629279
-1.09892
1.0981
0.062166
-0.0613977
-0.92217
0.921401
0.0603281
-0.0583402
-0.774963
0.772975
0.0551607
-0.0495691
-0.626048
0.620456
0.0423914
-0.0329776
-0.439103
0.42969
0.0241276
-0.0153037
-0.244007
0.235183
0.00880885
-0.00371905
-0.0986066
0.0935168
0.00100598
-0.0140686
0.0130626
-0.0334902
0.0345766
-0.00108636
0.00673333
-0.0101284
-0.236619
0.240014
0.0137622
-0.016768
-0.405324
0.408329
0.019747
-0.0224507
-0.566629
0.569333
0.0256248
-0.0290315
-0.698197
0.701604
0.0333625
-0.0376626
-0.824981
0.829281
0.0426185
-0.0472594
-0.973275
0.977915
0.052395
-0.0570279
-1.15037
1.15501
0.0619181
-0.066061
-1.3604
1.36454
0.0700572
-0.0730125
-1.60917
1.61212
0.0749855
-0.0760645
-1.59027
1.59135
0.076354
-0.0760904
-1.317
1.31674
0.0753346
-0.0741543
-1.09733
1.09615
0.0731008
-0.0720385
-0.920246
0.919183
0.0704053
-0.0676854
-0.770851
0.768132
0.0634285
-0.0563166
-0.614548
0.607436
0.0476121
-0.0366087
-0.419667
0.408664
0.0265353
-0.0166748
-0.225905
0.216044
0.00951871
-0.00398193
-0.0882216
0.0826848
0.00106609
-0.0120307
0.0109647
-0.0357371
0.0372371
-0.00149997
0.0093034
-0.0140603
-0.243869
0.248626
0.0192002
-0.023455
-0.412188
0.416443
0.0275972
-0.0312084
-0.573263
0.576874
0.0352344
-0.0393724
-0.705653
0.709791
0.0445074
-0.0495262
-0.833586
0.838605
0.0552457
-0.060548
-0.982538
0.98784
0.0663494
-0.0715085
-1.15964
1.1648
0.0768561
-0.0812803
-1.36864
1.37306
0.0854085
-0.0883028
-1.61492
1.61781
0.09006
-0.0908074
-1.59202
1.59277
0.0907717
-0.0901947
-1.31586
1.31528
0.0890839
-0.0875169
-1.09501
1.09345
0.0861603
-0.0846275
-0.917606
0.916073
0.0824872
-0.0787611
-0.765253
0.761527
0.0731324
-0.0640921
-0.599926
0.590885
0.0534842
-0.0405451
-0.396923
0.383984
0.0290282
-0.0180018
-0.205667
0.19464
0.0101535
-0.00419199
-0.0769479
0.0709864
0.00110609
-0.00988089
0.0087748
-0.038781
0.0408791
-0.00209807
0.012843
-0.019342
-0.25381
0.260309
0.0262943
-0.0320038
-0.421915
0.427625
0.0375155
-0.0422343
-0.582062
0.586781
0.0473179
-0.0523942
-0.714693
0.719769
0.058573
-0.0644807
-0.843629
0.849537
0.0711008
-0.0771459
-0.993142
0.999187
0.0836535
-0.0893267
-1.16993
1.1756
0.0950651
-0.0996667
-1.37737
1.38197
0.103775
-0.106449
-1.62046
1.62314
0.107838
-0.108115
-1.59301
1.59328
0.107662
-0.106644
-1.3139
1.31288
0.105162
-0.103224
-1.09193
1.08999
0.101558
-0.099468
-0.913892
0.911802
0.0967247
-0.0916485
-0.757592
0.752515
0.0842021
-0.0726825
-0.581322
0.569803
0.0597091
-0.0444627
-0.370183
0.354936
0.0313192
-0.019079
-0.183073
0.170833
0.0105882
-0.00429611
-0.0648636
0.0585715
0.00111178
-0.00766559
0.00655381
-0.0429568
0.0459776
-0.00302083
0.0179893
-0.0267777
-0.267188
0.275976
0.0359563
-0.043413
-0.435188
0.442645
0.0505422
-0.0565946
-0.59353
0.599582
0.0630832
-0.0694514
-0.725755
0.732123
0.0768737
-0.0837797
-0.85542
0.862326
0.0913593
-0.0981366
-1.00522
1.01199
0.105265
-0.111312
-1.18117
1.18722
0.117232
-0.121785
-1.38633
1.39089
0.125606
-0.127813
-1.62543
1.62764
0.128615
-0.128235
-1.59295
1.59257
0.127224
-0.125657
-1.31092
1.30935
0.123797
-0.121445
-1.08801
1.08566
0.119343
-0.116709
-0.908895
0.906261
0.113034
-0.10614
-0.747116
0.740223
0.0962911
-0.0816082
-0.557602
0.542919
0.0657441
-0.0478483
-0.338747
0.320851
0.0329972
-0.0196418
-0.158104
0.144749
0.0106759
-0.00423715
-0.0522013
0.0457625
0.00106918
-0.00545903
0.00438985
-0.0488521
0.053428
-0.00457595
0.025946
-0.0378221
-0.285183
0.297059
0.0498752
-0.0596796
-0.453082
0.462887
0.068861
-0.0765221
-0.608245
0.615906
0.0847049
-0.0925996
-0.739311
0.747206
0.101347
-0.109213
-0.869167
0.877032
0.117602
-0.124886
-1.01865
1.02594
0.132305
-0.138379
-1.19298
1.19906
0.144068
-0.148192
-1.39499
1.39912
0.151314
-0.152701
-1.62928
1.63066
0.152618
-0.151335
-1.59143
1.59015
0.1496
-0.147395
-1.30669
1.30449
0.145093
-0.142273
-1.08313
1.08031
0.139696
-0.136383
-0.902509
0.899196
0.13131
-0.121797
-0.732733
0.72322
0.108709
-0.0900353
-0.527337
0.508663
0.070754
-0.05001
-0.302053
0.281309
0.0335679
-0.0194125
-0.131086
0.116931
0.0102797
-0.00396804
-0.0393795
0.0330678
0.000966718
-0.00335926
0.00239254
-0.0575792
0.0653811
-0.00780194
0.0398676
-0.0562957
-0.309983
0.326411
0.0723999
-0.0853603
-0.477216
0.490177
0.0966899
-0.105877
-0.626719
0.635906
0.115724
-0.125013
-0.75562
0.764909
0.134821
-0.143191
-0.884605
0.892974
0.151757
-0.158917
-1.03283
1.03998
0.165945
-0.171417
-1.20454
1.21001
0.176234
-0.179342
-1.40249
1.4056
0.181204
-0.181301
-1.63123
1.63133
0.179955
-0.17749
-1.58797
1.58551
0.174831
-0.171855
-1.30099
1.29801
0.169038
-0.165681
-1.07711
1.07376
0.162502
-0.158081
-0.894195
0.889774
0.150907
-0.137614
-0.712696
0.699403
0.120131
-0.0966072
-0.48876
0.465236
0.0736584
-0.0502566
-0.259959
0.236557
0.0326547
-0.0182548
-0.102858
0.0884583
0.00935585
-0.00347796
-0.0269933
0.0211154
0.00079708
-0.0014755
0.000678422
-0.0726246
0.0770123
-0.00438771
0.0305233
-0.0449211
-0.345604
0.360002
0.0593727
-0.0713244
-0.50893
0.520882
0.0821975
-0.0925205
-0.648742
0.659065
0.104277
-0.115147
-0.773543
0.784413
0.127297
-0.138157
-0.900327
0.911187
0.149839
-0.160355
-1.04625
1.05677
0.171557
-0.18138
-1.21446
1.22428
0.191485
-0.19992
-1.40762
1.41606
0.208011
-0.214027
-1.63033
1.63635
0.217987
-0.22056
-1.58194
1.58451
0.221839
-0.22269
-1.29348
1.29433
0.223302
-0.222792
-1.06955
1.06904
0.221299
-0.216319
-0.882619
0.877639
0.205183
-0.183644
-0.684478
0.662939
0.155553
-0.119902
-0.440342
0.404691
0.0876084
-0.0568354
-0.213191
0.182418
0.0353422
-0.0188898
-0.0748728
0.0584203
0.00922762
-0.00321082
-0.0157197
0.00970294
0.000656232
0.00013211
-0.000788342
-0.0847205
0.0828075
0.00191302
0.00843472
-0.0178869
-0.377266
0.386718
0.0289601
-0.0376998
-0.537677
0.546417
0.0466073
-0.0552792
-0.672163
0.680834
0.0660103
-0.0761344
-0.794713
0.804837
0.087064
-0.0970916
-0.921448
0.931475
0.107867
-0.117231
-1.06703
1.0764
0.127417
-0.136005
-1.23395
1.24254
0.144855
-0.152046
-1.42426
1.43145
0.158612
-0.163409
-1.64181
1.64661
0.166337
-0.167975
-1.58664
1.58828
0.168262
-0.168171
-1.2938
1.29371
0.167993
-0.167126
-1.06638
1.06551
0.16456
-0.157527
-0.867357
0.860325
0.144803
-0.123663
-0.637207
0.616067
0.099437
-0.0719133
-0.366895
0.339371
0.0496951
-0.0306856
-0.152711
0.133701
0.0183344
-0.00944909
-0.0432278
0.0343425
0.00443632
-0.00147376
-0.003969
0.00100644
0.000263751
0.00163945
-0.0019032
-0.0863613
0.0833886
0.00297276
-0.000806236
-0.00471524
-0.398949
0.40447
0.0121449
-0.0186691
-0.559226
0.56575
0.0253634
-0.0328385
-0.692122
0.699597
0.0421939
-0.051003
-0.8139
0.822709
0.0607286
-0.0694998
-0.940673
0.949444
0.078696
-0.0870964
-1.08561
1.09401
0.0960462
-0.103719
-1.25073
1.25841
0.111217
-0.117205
-1.43808
1.44407
0.122805
-0.126591
-1.65095
1.65473
0.128601
-0.129428
-1.5895
1.59032
0.129113
-0.12852
-1.29268
1.29208
0.127517
-0.126058
-1.06155
1.06009
0.122838
-0.114925
-0.849207
0.841294
0.102404
-0.08349
-0.59188
0.572966
0.0640038
-0.0439929
-0.310176
0.290165
0.0295583
-0.0180681
-0.114912
0.103422
0.0108207
-0.00566743
-0.0256409
0.0204876
0.00271726
-0.000928434
0.00213759
-0.00392641
0.000176826
0.00236777
-0.0025446
-0.0851225
0.0822329
0.00288967
-0.00489444
0.00207122
-0.413544
0.416367
0.00280765
-0.0077881
-0.575454
0.580434
0.0134498
-0.0197271
-0.708565
0.714842
0.0277658
-0.0353315
-0.830732
0.838298
0.0436482
-0.0511811
-0.957626
0.965159
0.05948
-0.0666456
-1.10196
1.10912
0.0744772
-0.0807433
-1.26566
1.27193
0.0872233
-0.092328
-1.44986
1.45496
0.0968231
-0.0994824
-1.65822
1.66088
0.10088
-0.101221
-1.59074
1.59108
0.100525
-0.0991141
-1.29073
1.28932
0.0976128
-0.0955284
-1.05552
1.05343
0.0917996
-0.0842661
-0.82951
0.821977
0.0728428
-0.0573477
-0.551605
0.53611
0.0427436
-0.029129
-0.269213
0.255598
0.0198165
-0.0125689
-0.0913117
0.084064
0.00788748
-0.00438843
-0.0148161
0.0113171
0.00224181
-0.000827765
0.00607925
-0.00749329
0.000179296
0.00286967
-0.00304896
-0.0835435
0.0809324
0.00261112
-0.00642894
0.00531446
-0.423378
0.424493
-0.00164338
-0.00209624
-0.588484
0.592223
0.00662207
-0.012261
-0.722374
0.728013
0.0189994
-0.0256167
-0.845036
0.851653
0.0327965
-0.0393195
-0.97219
0.978713
0.0464217
-0.0527412
-1.11612
1.12244
0.0593588
-0.0649807
-1.27802
1.28364
0.0704752
-0.0747106
-1.45966
1.4639
0.0782846
-0.0801564
-1.6634
1.66527
0.0808788
-0.0804361
-1.59077
1.59033
0.0793114
-0.0775976
-1.2875
1.28579
0.0756337
-0.0728459
-1.04872
1.04593
0.0690833
-0.0622188
-0.810528
0.803663
0.0527249
-0.040609
-0.518568
0.506452
0.0301348
-0.0209856
-0.240733
0.231584
0.0148295
-0.01002
-0.0759522
0.0711427
0.00672607
-0.00401765
-0.00716831
0.00445989
0.00220826
-0.000877571
0.00927309
-0.0106038
0.00021547
0.0033385
-0.00355397
-0.0819728
0.0796858
0.00228703
-0.00666145
0.00616767
-0.430097
0.430591
-0.00396926
0.000942768
-0.598529
0.601556
0.00339095
-0.00817921
-0.734028
0.738816
0.0139221
-0.0196127
-0.857361
0.863052
0.0259191
-0.0316764
-0.984826
0.990583
0.0380656
-0.0435208
-1.12842
1.13388
0.0493312
-0.0542298
-1.2889
1.2938
0.0588833
-0.0623571
-1.46778
1.47125
0.0650796
-0.0665797
-1.667
1.6685
0.0665966
-0.0657054
-1.5894
1.58851
0.0640985
-0.0619016
-1.28359
1.28139
0.059745
-0.0563986
-1.04122
1.03787
0.0525004
-0.0465041
-0.79314
0.787144
0.0387774
-0.0296166
-0.492469
0.483308
0.022268
-0.0161497
-0.221138
0.21502
0.0121543
-0.00884602
-0.065381
0.0620727
0.0063354
-0.00405697
-0.00111734
-0.00116108
0.00236732
-0.00101308
0.0122386
-0.0135929
0.000271239
0.00383713
-0.00410837
-0.0806501
0.0788077
0.0018424
-0.00606062
0.00603149
-0.434951
0.43498
-0.00427743
0.00203206
-0.607189
0.609435
0.00192706
-0.0062084
-0.744027
0.748308
0.0115571
-0.0163911
-0.868257
0.873091
0.0218402
-0.026849
-0.996247
1.00126
0.0327474
-0.0375531
-1.13929
1.1441
0.0425464
-0.0469278
-1.29842
1.3028
0.0513177
-0.0541787
-1.47463
1.47749
0.0563674
-0.0571444
-1.66948
1.67026
0.0568703
-0.0551534
-1.58727
1.58556
0.0532572
-0.0507584
-1.27873
1.27623
0.0480578
-0.0445298
-1.03318
1.02965
0.0404882
-0.0349609
-0.777511
0.771983
0.0289272
-0.0220037
-0.472173
0.465249
0.0168785
-0.0129688
-0.207662
0.203752
0.0103415
-0.00803113
-0.0578495
0.0555391
0.00610592
-0.00415648
0.00401012
-0.00595955
0.00255741
-0.00116345
0.0152016
-0.0165955
0.00033814
0.00441266
-0.0047508
-0.0797643
0.0782754
0.00148887
-0.00518508
0.00541579
-0.438587
0.438356
-0.00389794
0.00184635
-0.614571
0.616623
0.0017994
-0.00558696
-0.752856
0.756643
0.0100949
-0.0146383
-0.877807
0.88235
0.0195491
-0.0245469
-1.006
1.01099
0.0294881
-0.0338815
-1.14893
1.15332
0.0387198
-0.0425446
-1.30695
1.31078
0.0460248
-0.0488438
-1.48012
1.48293
0.0505974
-0.050994
-1.67094
1.67133
0.0501254
-0.0481581
-1.58384
1.58187
0.0458262
-0.042817
-1.27308
1.27007
0.0397506
-0.0357801
-1.02487
1.0209
0.0315886
-0.0266404
-0.763358
0.75841
0.021428
-0.0162382
-0.456416
0.451227
0.0127375
-0.0101786
-0.198563
0.196004
0.00850467
-0.00698788
-0.0523743
0.0508575
0.00558527
-0.00401077
0.00838844
-0.00996295
0.00258949
-0.0012434
0.018154
-0.0195001
0.000389534
0.00508368
-0.00547321
-0.0793786
0.0780951
0.00128343
-0.00403249
0.00411255
-0.441612
0.441532
-0.00289248
0.000945577
-0.621163
0.62311
0.00234864
-0.00593347
-0.7609
0.764485
0.010151
-0.0141676
-0.886627
0.890644
0.0190616
-0.0230929
-1.01532
1.01935
0.0278133
-0.0318236
-1.1578
1.16181
0.0362709
-0.0399909
-1.31446
1.31818
0.0433765
-0.0455275
-1.48535
1.4875
0.0470278
-0.047147
-1.67145
1.67157
0.0461782
-0.0436595
-1.57953
1.57701
0.040962
-0.0374699
-1.26681
1.26332
0.0340034
-0.0295327
-1.01579
1.01131
0.0251806
-0.0202788
-0.750384
0.745482
0.0157932
-0.0116345
-0.444132
0.439973
0.00903474
-0.00743276
-0.192211
0.190609
0.00638471
-0.00547151
-0.0484802
0.047567
0.00457402
-0.00345271
0.011906
-0.0130273
0.00232662
-0.00119002
0.020861
-0.0219976
0.000395472
0.00579502
-0.00619049
-0.0792479
0.0782998
0.000948099
-0.00296029
0.00262109
-0.44453
0.444869
-0.00163803
-0.00030396
-0.626846
0.628788
0.00320004
-0.00658134
-0.768231
0.771612
0.0105271
-0.0145783
-0.894474
0.898525
0.0187138
-0.0227847
-1.02354
1.02761
0.0272982
-0.0309082
-1.16618
1.16979
0.035213
-0.0386226
-1.32158
1.32499
0.0417039
-0.0439987
-1.48992
1.49221
0.0454492
-0.0452201
-1.6715
1.67127
0.0437548
-0.0411543
-1.5744
1.5718
0.0382496
-0.0342777
-1.25933
1.25536
0.030296
-0.0256084
-1.00603
1.00134
0.020558
-0.0157919
-0.737807
0.733041
0.0116684
-0.00805553
-0.434035
0.430422
0.00602294
-0.00480975
-0.18758
0.186367
0.00417494
-0.00368282
-0.0458467
0.0453545
0.00321779
-0.00256614
0.0144056
-0.0150573
0.0018323
-0.00100086
0.0230476
-0.023879
0.000361361
0.00645151
-0.00681287
-0.0795155
0.0787458
0.000769682
-0.00203385
0.00177092
-0.44752
0.447783
-0.000318899
-0.0014184
-0.632464
0.634201
0.00443939
-0.00763202
-0.7749
0.778092
0.011343
-0.0149012
-0.902195
0.905753
0.0190653
-0.0227043
-1.03162
1.03526
0.0270216
-0.0309307
-1.17379
1.17769
0.0346588
-0.0381787
-1.32834
1.33186
0.0413902
-0.043425
-1.49424
1.49627
0.0447707
-0.0447679
-1.67104
1.67104
0.0431053
-0.0403909
-1.56876
1.56605
0.0370037
-0.0327459
-1.25108
1.24682
0.0285261
-0.0233215
-0.995615
0.99041
0.018117
-0.0129903
-0.725544
0.720417
0.00891814
-0.00552466
-0.424886
0.421492
0.00360657
-0.00256948
-0.183872
0.182835
0.00208432
-0.00188524
-0.0441124
0.0439133
0.00176159
-0.00154563
0.0158974
-0.0161134
0.0011996
-0.000724978
0.0245361
-0.0250107
0.00028827
0.00698053
-0.0072688
-0.0800827
0.0794907
0.000591957
-0.000977268
0.000559651
-0.450574
0.450991
0.000709042
-0.00271747
-0.637573
0.639582
0.00563708
-0.00862959
-0.7812
0.784193
0.0123669
-0.0157103
-0.909251
0.912594
0.0196314
-0.023307
-1.03933
1.04301
0.0274151
-0.0311609
-1.18138
1.18512
0.0349502
-0.0383141
-1.33519
1.33856
0.0414601
-0.0439721
-1.49846
1.50097
0.0453541
-0.0451636
-1.67075
1.67056
0.043625
-0.0405724
-1.56293
1.55987
0.0371402
-0.032787
-1.24219
1.23783
0.0280498
-0.0225176
-0.98442
0.978888
0.0170615
-0.0114961
-0.713108
0.707542
0.0073568
-0.00389824
-0.416298
0.412839
0.00201148
-0.000880502
-0.180528
0.179397
0.000449097
-0.000379024
-0.0429676
0.0428975
0.00047121
-0.000576654
0.0165216
-0.0164161
0.000556534
-0.000414565
0.0252776
-0.0254196
0.000201239
0.00732796
-0.0075292
-0.0808925
0.0804271
0.000465436
-0.000110581
-0.00040919
-0.453737
0.454257
0.00173203
-0.00376255