/*--------------------------------*- C++ -*----------------------------------*\
  =========                 |
  \\      /  F ield         | OpenFOAM: The Open Source CFD Toolbox
   \\    /   O peration     | Website:  https://openfoam.org
    \\  /    A nd           | Version:  6
     \\/     M anipulation  |
\*---------------------------------------------------------------------------*/
FoamFile
{
    version     2.0;
    format      ascii;
    class       volScalarField;
    location    "22";
    object      p;
}
// * * * * * * * * * * * * * * * * * * * * * * * * * * * * * * * * * * * * * //

dimensions      [0 2 -2 0 0 0 0];

internalField   nonuniform List<scalar> 
8800
(
0.443495
0.394178
0.356209
0.328132
0.307953
0.293334
0.282688
0.275082
0.270112
0.267905
0.269036
0.273148
0.27976
0.289047
0.301686
0.318938
0.342766
0.37583
0.418745
0.47125
0.277993
0.284338
0.293487
0.297034
0.294422
0.288323
0.281357
0.275072
0.2702
0.267204
0.266767
0.269158
0.27358
0.27953
0.286502
0.293438
0.298244
0.298068
0.291356
0.282436
0.251527
0.257765
0.26227
0.266147
0.2691
0.270049
0.268951
0.266761
0.264627
0.263591
0.264378
0.266626
0.26933
0.271416
0.271784
0.269882
0.26643
0.262352
0.257532
0.253807
0.247264
0.250035
0.252656
0.254829
0.256575
0.258143
0.259221
0.259503
0.259252
0.259123
0.25967
0.260556
0.26107
0.260716
0.25957
0.258078
0.256297
0.253906
0.251443
0.249873
0.242256
0.243686
0.245556
0.24767
0.249408
0.250702
0.251761
0.252665
0.253318
0.253782
0.254196
0.254379
0.254121
0.253528
0.25266
0.251367
0.249557
0.24754
0.246122
0.245322
0.237353
0.238257
0.239548
0.241231
0.242961
0.244494
0.245725
0.246744
0.247674
0.248451
0.248854
0.248832
0.248508
0.247879
0.246837
0.245428
0.243866
0.242438
0.241542
0.241027
0.232626
0.23328
0.234308
0.235724
0.237269
0.238856
0.240379
0.24172
0.242831
0.243739
0.244245
0.244263
0.243826
0.242952
0.241801
0.240527
0.239245
0.238122
0.237453
0.237086
0.228064
0.22856
0.229451
0.230758
0.232223
0.233796
0.235421
0.23695
0.238271
0.239335
0.239989
0.240063
0.239589
0.2387
0.237598
0.236444
0.2353
0.234331
0.233796
0.233526
0.223734
0.2241
0.224869
0.22609
0.227485
0.228918
0.230413
0.232008
0.233601
0.234959
0.235738
0.235805
0.23538
0.234712
0.233891
0.232923
0.231903
0.231074
0.230658
0.230465
0.219634
0.219906
0.22058
0.221726
0.223085
0.224532
0.22603
0.227546
0.229073
0.230567
0.2316
0.232034
0.23199
0.231564
0.230868
0.230021
0.229127
0.228422
0.2281
0.227962
0.215794
0.215969
0.216592
0.217743
0.219119
0.220604
0.222245
0.223998
0.225801
0.227522
0.228869
0.229529
0.22959
0.22923
0.22865
0.227921
0.227098
0.226464
0.226221
0.226144
0.212439
0.212538
0.213021
0.213983
0.215171
0.216486
0.217951
0.219637
0.221554
0.223625
0.225335
0.226372
0.226885
0.227023
0.22684
0.226439
0.225918
0.22551
0.225378
0.225339
0.209254
0.209311
0.209655
0.210423
0.211475
0.212757
0.214307
0.216157
0.21829
0.220687
0.222886
0.224423
0.225291
0.225723
0.225843
0.225772
0.225573
0.225425
0.225384
0.225354
0.205688
0.205747
0.206012
0.206625
0.207552
0.208756
0.210318
0.212311
0.214805
0.217738
0.220516
0.22255
0.22393
0.22478
0.225315
0.225605
0.225735
0.225805
0.225819
0.225785
0.201337
0.201398
0.201656
0.202209
0.203093
0.204347
0.206057
0.20832
0.211217
0.214761
0.218283
0.221029
0.222966
0.224303
0.225199
0.225812
0.22622
0.22643
0.226467
0.226427
0.196005
0.196067
0.196376
0.197009
0.198002
0.199439
0.201475
0.204195
0.207752
0.212145
0.216547
0.220013
0.222522
0.224293
0.22554
0.226413
0.227009
0.22729
0.22735
0.22731
0.189614
0.189671
0.190045
0.19084
0.192037
0.193811
0.196265
0.199607
0.203965
0.209393
0.214911
0.219316
0.222521
0.224785
0.226419
0.227615
0.228316
0.228649
0.22874
0.228702
0.182141
0.182186
0.182618
0.183641
0.185166
0.187409
0.19049
0.194644
0.200059
0.206806
0.213687
0.219194
0.223226
0.226113
0.228161
0.229566
0.230416
0.230832
0.230967
0.23093
0.173471
0.173513
0.174032
0.175297
0.177273
0.180023
0.183902
0.189073
0.195811
0.204207
0.21276
0.21963
0.224678
0.228301
0.230869
0.232555
0.233606
0.234149
0.234328
0.234288
0.163291
0.163336
0.163973
0.165435
0.16792
0.171475
0.176285
0.182767
0.1912
0.201657
0.212265
0.220774
0.22703
0.231519
0.234679
0.236804
0.23813
0.238832
0.239053
0.239001
0.150968
0.15103
0.151821
0.15367
0.156764
0.161206
0.167324
0.175537
0.186139
0.199172
0.212282
0.222737
0.230405
0.235937
0.239819
0.242463
0.244139
0.245019
0.245285
0.245219
0.135631
0.135716
0.136756
0.139177
0.14313
0.148836
0.156703
0.167191
0.180583
0.196821
0.212945
0.2257
0.235045
0.241755
0.246497
0.249759
0.251845
0.252925
0.253244
0.253158
0.116149
0.116282
0.117721
0.120982
0.126255
0.133778
0.144076
0.157611
0.174571
0.194723
0.214397
0.229806
0.241062
0.249167
0.254923
0.258917
0.261491
0.262822
0.263194
0.263083
0.090673
0.0908864
0.0930003
0.0976858
0.105077
0.115387
0.129176
0.146794
0.16824
0.193064
0.216814
0.235219
0.24864
0.258347
0.265299
0.270171
0.273325
0.274937
0.275372
0.275229
0.0561688
0.0565935
0.0600764
0.0674258
0.0784253
0.0931019
0.111896
0.134898
0.161856
0.192097
0.220383
0.242069
0.257878
0.269396
0.277753
0.283699
0.287574
0.289529
0.29002
0.289831
0.00682261
0.00829977
0.0153277
0.0281602
0.0454456
0.0668742
0.0925914
0.122398
0.155837
0.192107
0.22526
0.250419
0.268775
0.282282
0.292253
0.299507
0.304317
0.306728
0.307284
0.307029
-0.066162
-0.0577622
-0.0416853
-0.0190448
0.00769265
0.0381211
0.072264
0.109892
0.150536
0.193416
0.231923
0.260988
0.28232
0.298255
0.310358
0.31947
0.325722
0.329013
0.32988
0.329744
-0.143467
-0.125823
-0.0998814
-0.0668871
-0.0303167
0.00922486
0.0518888
0.0975676
0.14588
0.196168
0.241129
0.275228
0.300569
0.319842
0.33481
0.34651
0.354878
0.359589
0.361059
0.361091
-0.208311
-0.186983
-0.153129
-0.111559
-0.066364
-0.0182989
0.0325734
0.0860597
0.141792
0.199146
0.250083
0.288689
0.317477
0.339555
0.356808
0.370274
0.380291
0.385892
0.387272
0.387434
-0.260577
-0.237036
-0.198099
-0.150478
-0.0986277
-0.0435034
0.0145278
0.0750852
0.13766
0.201554
0.257892
0.300359
0.331907
0.355974
0.374743
0.389383
0.400224
0.406373
0.408062
0.40836
-0.303613
-0.278899
-0.23643
-0.184157
-0.12698
-0.0661233
-0.00206589
0.0646641
0.133375
0.203148
0.264268
0.309982
0.343661
0.369165
0.38889
0.404234
0.415511
0.422079
0.424131
0.424441
-0.340382
-0.314988
-0.269914
-0.213879
-0.152292
-0.0865907
-0.0173586
0.0547654
0.128942
0.204006
0.269402
0.317907
0.353296
0.379825
0.400139
0.415791
0.427169
0.433866
0.436068
0.43633
-0.372888
-0.347067
-0.299971
-0.240811
-0.175479
-0.105583
-0.0317911
0.04518
0.124315
0.204279
0.273608
0.324666
0.361566
0.388903
0.409563
0.425288
0.436642
0.443337
0.445654
0.445913
-0.402562
-0.376375
-0.327605
-0.265794
-0.197238
-0.123665
-0.0457729
0.0356087
0.119352
0.203952
0.277117
0.33065
0.368948
0.397001
0.41796
0.433751
0.445074
0.451724
0.454105
0.454352
-0.430299
-0.40377
-0.353542
-0.289404
-0.218029
-0.141202
-0.0596391
0.0257842
0.113867
0.202933
0.27986
0.335867
0.375643
0.404514
0.425866
0.44179
0.453106
0.459655
0.462041
0.462342
-0.45679
-0.429869
-0.378315
-0.31209
-0.238229
-0.158501
-0.0736153
0.0155221
0.107676
0.201055
0.281793
0.3405
0.381963
0.411801
0.433659
0.4498
0.46116
0.467616
0.469927
0.470216
-0.482303
-0.454987
-0.402232
-0.334151
-0.258055
-0.175716
-0.0878366
0.00469869
0.100684
0.198317
0.283048
0.344651
0.388001
0.418995
0.441513
0.45799
0.469459
0.475856
0.478036
0.478254
-0.507181
-0.479365
-0.425516
-0.355749
-0.277655
-0.192991
-0.102388
-0.00671931
0.0928811
0.194696
0.283488
0.348238
0.393756
0.426158
0.449522
0.466458
0.478094
0.48444
0.486464
0.48659
-0.531482
-0.503177
-0.448286
-0.376993
-0.29712
-0.210351
-0.117288
-0.0187503
0.0842238
0.190044
0.282992
0.351195
0.399223
0.433288
0.457692
0.47521
0.487057
0.493349
0.495226
0.49523
-0.555266
-0.526438
-0.470581
-0.397911
-0.31644
-0.227796
-0.13254
-0.0314134
0.0746512
0.184309
0.281476
0.353387
0.404281
0.440342
0.466
0.484222
0.496307
0.502497
0.504197
0.504088
-0.578576
-0.549225
-0.49241
-0.4185
-0.335619
-0.24531
-0.148113
-0.0446791
0.0641997
0.177479
0.278813
0.354656
0.408793
0.447238
0.474414
0.493442
0.505752
0.511752
0.513224
0.513014
-0.601424
-0.571481
-0.513761
-0.438734
-0.354596
-0.262832
-0.163931
-0.058468
0.0529294
0.169521
0.274896
0.354805
0.412573
0.453875
0.482922
0.502861
0.515304
0.520992
0.522179
0.521877
-0.623642
-0.593149
-0.534579
-0.45856
-0.373312
-0.280273
-0.179908
-0.0726856
0.0409019
0.160459
0.269649
0.353651
0.415341
0.460069
0.491551
0.512588
0.524938
0.53003
0.530838
0.530454
-0.645185
-0.614175
-0.554816
-0.477912
-0.391697
-0.297566
-0.195948
-0.0872476
0.0282068
0.150345
0.263026
0.351027
0.416807
0.465507
0.500269
0.522943
0.534908
0.538774
0.538957
0.538522
-0.666094
-0.634519
-0.574441
-0.496748
-0.409681
-0.314618
-0.211953
-0.10204
0.0149615
0.139264
0.255008
0.3468
0.416648
0.469694
0.508797
0.534399
0.546208
0.547725
0.546361
0.545925
-0.686217
-0.654145
-0.593396
-0.514994
-0.427197
-0.331341
-0.227821
-0.116939
0.00129391
0.127342
0.245624
0.340877
0.414578
0.471964
0.516332
0.54694
0.560696
0.5598
0.554343
0.55141
-0.705628
-0.673064
-0.611682
-0.532678
-0.444276
-0.347781
-0.243606
-0.132009
-0.0128709
0.114514
0.234745
0.333013
0.410302
0.471529
0.521435
0.559185
0.578741
0.580237
0.568483
0.563154
-0.724255
-0.691337
-0.629437
-0.54999
-0.461212
-0.36428
-0.259728
-0.147751
-0.0281084
0.10009
0.221639
0.322307
0.403107
0.467117
0.521181
0.566299
0.592131
0.59107
0.579632
0.567347
-0.741978
-0.708941
-0.646503
-0.566718
-0.477776
-0.380535
-0.275968
-0.163829
-0.0440839
0.0843847
0.206526
0.308442
0.392675
0.457996
0.510855
0.556342
0.583932
0.570633
0.508989
0.478906
-0.758694
-0.726605
-0.662445
-0.582355
-0.493345
-0.396081
-0.292068
-0.179978
-0.060519
0.0676004
0.18954
0.291185
0.378349
0.444827
0.48736
0.522291
0.532303
0.490242
0.424465
0.383364
-0.801467
-0.743332
-0.677223
-0.597604
-0.508637
-0.411782
-0.30791
-0.196304
-0.0775882
0.0494644
0.170379
0.270398
0.357284
0.429194
0.445834
0.453656
0.428511
0.373422
0.303128
0.264221
-0.775646
-0.757631
-0.699231
-0.620503
-0.531558
-0.435187
-0.332243
-0.221742
-0.104659
0.0198566
0.137553
0.233749
0.311722
0.383413
0.383337
0.285737
0.196612
0.13646
0.0711355
0.107208
-0.806118
-0.774986
-0.715911
-0.637308
-0.548727
-0.452843
-0.349966
-0.240397
-0.124761
-0.00264784
0.111567
0.20365
0.272674
0.310393
0.266105
0.129571
0.0179571
-0.0565937
-0.143018
-0.0857382
-0.829509
-0.796026
-0.735202
-0.656384
-0.568009
-0.472305
-0.369737
-0.261229
-0.147333
-0.0281512
0.0817046
0.16805
0.225999
0.229288
0.122778
-0.0438264
-0.181215
-0.277502
-0.383034
-0.339205
-0.85204
-0.817551
-0.75544
-0.676055
-0.587617
-0.492102
-0.390182
-0.282874
-0.170914
-0.0550046
0.0497149
0.129316
0.171196
0.138224
-0.0286827
-0.224972
-0.401417
-0.550692
-0.688217
-0.65586
-0.874083
-0.839306
-0.776421
-0.69654
-0.607969
-0.512709
-0.411558
-0.305565
-0.195784
-0.0834806
0.0154691
0.0873649
0.109949
0.0349693
-0.178766
-0.403389
-0.618302
-0.79817
-1.03506
-1.12399
-0.896304
-0.861712
-0.798425
-0.718185
-0.629474
-0.534429
-0.433979
-0.329305
-0.22179
-0.113284
-0.0203672
0.0426715
0.0441916
-0.0888092
-0.316851
-0.560709
-0.789868
-0.981714
-1.1334
-1.30213
-0.919623
-0.88517
-0.821742
-0.74133
-0.652597
-0.557855
-0.458197
-0.355002
-0.250067
-0.145853
-0.0594833
-0.00719774
-0.0355567
-0.214998
-0.446626
-0.688731
-0.899131
-1.02148
-1.05504
-1.07149
-0.944212
-0.909911
-0.846451
-0.766022
-0.677423
-0.583134
-0.48449
-0.383066
-0.281107
-0.181851
-0.102428
-0.0635861
-0.122056
-0.337377
-0.566453
-0.788109
-0.954549
-1.00515
-1.01843
-1.01907
-0.970321
-0.936017
-0.872542
-0.792188
-0.703844
-0.610195
-0.512794
-0.413475
-0.314848
-0.221304
-0.149414
-0.127538
-0.214511
-0.454579
-0.676074
-0.874118
-0.979003
-0.997533
-0.998611
-0.998597
-0.997836
-0.963482
-0.899973
-0.819751
-0.731795
-0.638936
-0.543002
-0.446155
-0.351143
-0.264084
-0.200641
-0.193742
-0.325113
-0.566164
-0.777999
-0.93935
-0.985504
-0.988158
-0.98949
-0.989161
-1.0265
-0.992079
-0.928571
-0.848554
-0.761102
-0.669194
-0.574933
-0.48093
-0.389881
-0.309705
-0.256066
-0.266631
-0.441525
-0.67836
-0.866021
-0.972508
-0.984461
-0.985366
-0.985089
-0.984899
-1.05567
-1.0214
-0.958027
-0.878298
-0.791472
-0.700696
-0.608248
-0.517428
-0.43089
-0.357284
-0.314601
-0.346188
-0.548615
-0.793887
-0.958993
-0.983388
-0.992578
-0.987244
-0.982051
-0.980473
-1.08485
-1.05088
-0.98784
-0.908515
-0.822449
-0.73299
-0.642474
-0.554988
-0.47385
-0.405697
-0.37519
-0.423777
-0.641498
-0.913114
-1.07796
-1.08002
-1.04023
-1.00659
-0.99075
-0.985673
-1.11302
-1.07971
-1.01729
-0.938547
-0.853394
-0.765434
-0.677001
-0.592622
-0.517901
-0.454129
-0.437442
-0.505867
-0.70999
-1.00027
-1.22256
-1.18099
-1.11916
-1.06568
-1.03944
-1.03207
-1.13945
-1.10691
-1.04545
-0.967531
-0.883474
-0.797122
-0.711025
-0.629185
-0.5611
-0.503275
-0.496429
-0.591559
-0.765868
-0.957516
-1.26627
-1.25277
-1.30417
-1.30902
-1.26521
-1.24035
-1.16236
-1.13121
-1.07121
-0.994399
-0.911633
-0.826931
-0.743364
-0.663738
-0.600443
-0.553637
-0.542891
-0.675792
-0.848125
-0.779446
-0.776759
-1.05245
-1.36333
-1.43045
-1.41353
-1.4094
-1.18023
-1.15104
-1.09316
-1.01791
-0.936671
-0.853571
-0.772324
-0.6955
-0.632895
-0.600777
-0.578787
-0.741325
-1.00803
-0.887216
-0.649828
-0.996693
-1.34917
-1.3899
-1.39586
-1.4074
-1.19177
-1.16507
-1.1099
-1.03669
-0.957227
-0.8757
-0.79607
-0.722304
-0.65869
-0.633299
-0.624146
-0.818494
-1.33019
-1.77603
-2.03671
-2.26246
-2.21587
-1.86634
-1.65185
-1.64702
-1.19497
-1.17168
-1.12018
-1.04946
-0.971812
-0.892013
-0.813126
-0.740808
-0.679066
-0.644153
-0.664009
-0.918727
-1.63706
-2.65451
-3.17638
-3.34744
-3.22068
-2.89316
-2.52586
-2.38809
-1.18938
-1.16978
-1.12273
-1.0552
-0.97941
-0.901118
-0.822287
-0.749889
-0.683686
-0.651291
-0.658367
-0.899324
-1.52444
-2.4218
-3.0921
-3.17216
-3.04031
-2.81808
-2.5922
-2.44327
-1.173
-1.15764
-1.11667
-1.0533
-0.979718
-0.902019
-0.823286
-0.74634
-0.677804
-0.627476
-0.608629
-0.687207
-0.976085
-1.27967
-1.55148
-1.55768
-1.40201
-1.16329
-0.983737
-0.881372
-1.14783
-1.13675
-1.10253
-1.04433
-0.972822
-0.8953
-0.815139
-0.732296
-0.658532
-0.563746
-0.526934
-0.395787
-0.294865
-0.0250721
0.342149
0.723688
1.08887
1.30027
1.41087
1.45286
-1.11627
-1.10936
-1.08269
-1.03007
-0.960194
-0.8826
-0.79927
-0.713533
-0.61765
-0.524241
-0.40813
-0.306749
0.0633049
0.657126
1.33335
1.91944
2.33814
2.59287
2.70629
2.73883
-1.08237
-1.0786
-1.06018
-1.01305
-0.944281
-0.865493
-0.781033
-0.690277
-0.592198
-0.478892
-0.354075
-0.239758
-0.00532047
0.558972
1.15771
1.69615
2.09668
2.33893
2.45486
2.49243
-1.0506
-1.04892
-1.03743
-0.995241
-0.926221
-0.846487
-0.761621
-0.671624
-0.574013
-0.458933
-0.335352
-0.230609
-0.107527
0.2459
0.672441
1.05605
1.34549
1.52797
1.61748
1.64663
-1.01244
-1.01372
-1.00675
-0.968774
-0.901053
-0.822345
-0.741424
-0.656775
-0.563879
-0.456033
-0.342932
-0.24593
-0.157904
0.0331038
0.335439
0.615573
0.825978
0.95355
1.02025
1.04263
-0.942971
-0.945149
-0.940159
-0.909225
-0.852114
-0.784795
-0.714439
-0.640527
-0.557118
-0.458625
-0.358509
-0.280153
-0.213162
-0.116702
0.0940303
0.29804
0.433884
0.517724
0.556067
0.566124
-0.839058
-0.839635
-0.835272
-0.815711
-0.77886
-0.732302
-0.680348
-0.621638
-0.550276
-0.465789
-0.373971
-0.320124
-0.284309
-0.230846
-0.084566
0.0424467
0.13383
0.18822
0.213073
0.218017
-0.741315
-0.740512
-0.73743
-0.728228
-0.709222
-0.682071
-0.648129
-0.605183
-0.546224
-0.465928
-0.379787
-0.334195
-0.315151
-0.293332
-0.196634
-0.115338
-0.0528856
-0.0201358
-0.00650732
-0.00566934
-0.681465
-0.68017
-0.677932
-0.67406
-0.664843
-0.649674
-0.628336
-0.597815
-0.549307
-0.468024
-0.387406
-0.340855
-0.301558
-0.272394
-0.220462
-0.175497
-0.147694
-0.132559
-0.128231
-0.128652
-0.661353
-0.660221
-0.658486
-0.655958
-0.650656
-0.641598
-0.628411
-0.608215
-0.570241
-0.493687
-0.410916
-0.351084
-0.277196
-0.252967
-0.22444
-0.209391
-0.192503
-0.181951
-0.176887
-0.176942
-0.669503
-0.668638
-0.667599
-0.666416
-0.664106
-0.660572
-0.656183
-0.649132
-0.62719
-0.566524
-0.494249
-0.40486
-0.301303
-0.26887
-0.257391
-0.241777
-0.220612
-0.203366
-0.194003
-0.194669
-0.695733
-0.69538
-0.695586
-0.696643
-0.69877
-0.703395
-0.712906
-0.729461
-0.745137
-0.736612
-0.702294
-0.585235
-0.441788
-0.371721
-0.354331
-0.307483
-0.260832
-0.228788
-0.212498
-0.215207
-0.728356
-0.728913
-0.730949
-0.735308
-0.744004
-0.760954
-0.792842
-0.851592
-0.947644
-1.05012
-1.0783
-0.903816
-0.698756
-0.617182
-0.535059
-0.424432
-0.32863
-0.262837
-0.244343
-0.249708
-0.752498
-0.754213
-0.758394
-0.766792
-0.783579
-0.815896
-0.877198
-0.996157
-1.21922
-1.51779
-1.62044
-1.31468
-1.00198
-0.86375
-0.730114
-0.576345
-0.442996
-0.367027
-0.354327
-0.357691
-0.751866
-0.754524
-0.760336
-0.77233
-0.796306
-0.842372
-0.931009
-1.10928
-1.46276
-1.99155
-2.178
-1.75992
-1.31692
-1.09549
-0.920691
-0.75283
-0.621072
-0.557047
-0.552833
-0.558437
-0.713457
-0.716576
-0.723155
-0.736623
-0.763633
-0.815727
-0.916721
-1.12264
-1.54215
-2.17037
-2.40419
-2.01792
-1.53665
-1.30506
-1.12116
-0.995837
-0.923754
-0.892267
-0.877193
-0.875718
-0.634628
-0.637438
-0.643305
-0.655349
-0.679915
-0.727352
-0.819478
-1.00723
-1.39223
-1.95445
-2.10856
-1.80493
-1.50957
-1.33495
-1.22086
-1.19175
-1.17986
-1.15349
-1.12995
-1.12073
-0.524915
-0.526827
-0.530825
-0.539272
-0.55705
-0.591642
-0.65871
-0.794236
-1.07412
-1.49656
-1.61674
-1.453
-1.28002
-1.14038
-1.10672
-1.13676
-1.15683
-1.13942
-1.12196
-1.1135
-0.402018
-0.402846
-0.404656
-0.408896
-0.418552
-0.437829
-0.47528
-0.550265
-0.70606
-0.968164
-1.07977
-1.01321
-0.890089
-0.809417
-0.827978
-0.902497
-0.920945
-0.916102
-0.910287
-0.906583
-0.284356
-0.284292
-0.284377
-0.28523
-0.288186
-0.294758
-0.307942
-0.334244
-0.388368
-0.498407
-0.559263
-0.503271
-0.448274
-0.465734
-0.556131
-0.618677
-0.634735
-0.638441
-0.639257
-0.638737
-0.184947
-0.184377
-0.183512
-0.182465
-0.181438
-0.180306
-0.178942
-0.177029
-0.172944
-0.15246
-0.138129
-0.139031
-0.161748
-0.254872
-0.335526
-0.375717
-0.392126
-0.398712
-0.402617
-0.403622
-0.109301
-0.10858
-0.107463
-0.10585
-0.103345
-0.0991478
-0.092112
-0.0801741
-0.0595755
-0.025265
0.00729629
-0.000403509
-0.061571
-0.132968
-0.185012
-0.209616
-0.222629
-0.229899
-0.23429
-0.235747
-0.056764
-0.0561128
-0.0551471
-0.053745
-0.0513224
-0.0469438
-0.0394837
-0.0272544
-0.00813143
0.0178958
0.0342294
0.0190896
-0.0233171
-0.0677353
-0.0988884
-0.116151
-0.12449
-0.129111
-0.132061
-0.133096
-0.023302
-0.0228079
-0.0221208
-0.0212057
-0.0194742
-0.0161157
-0.010295
-0.00100659
0.0124086
0.0278712
0.033165
0.0185798
-0.0086355
-0.0350655
-0.0536315
-0.064105
-0.0692931
-0.0721102
-0.0738668
-0.0744833
-0.00397226
-0.00363617
-0.00321156
-0.00276559
-0.001784
0.000352467
0.0041897
0.0102278
0.0184108
0.0264141
0.026408
0.0148214
-0.00227472
-0.0179482
-0.0289653
-0.0353286
-0.0385347
-0.0402228
-0.0412233
-0.0415668
0.00565123
0.00586182
0.00608548
0.00620483
0.00662682
0.00777521
0.010005
0.0135298
0.0180468
0.0216736
0.0197736
0.0114258
0.00078216
-0.00857544
-0.0151748
-0.0190997
-0.0211283
-0.022159
-0.0227428
-0.0229368
0.00898129
0.00910481
0.00920048
0.00913675
0.00921157
0.00970212
0.0108418
0.0127079
0.0149891
0.016362
0.014212
0.00858542
0.0020627
-0.00351308
-0.00747171
-0.00990106
-0.0112011
-0.0118435
-0.0121685
-0.0122807
0.00840345
0.00847069
0.00849232
0.00835075
0.00824566
0.0083681
0.00886362
0.00975082
0.010795
0.0111719
0.00948747
0.00600893
0.00221265
-0.000978066
-0.00326421
-0.00470907
-0.00550252
-0.0058925
-0.00606922
-0.00613446
0.00548747
0.00551968
0.00550541
0.00535724
0.00521205
0.00518731
0.00535877
0.00572212
0.00614085
0.00619179
0.00522575
0.00345227
0.00158832
3.68728e-05
-0.00108534
-0.00181523
-0.0022265
-0.00242737
-0.00252366
-0.00256172
0.00123314
0.00124703
0.00132033
0.00138741
0.00136731
0.00132496
0.00129799
0.00130191
0.0013219
0.00130357
0.0011366
0.000773528
0.000347231
-3.74707e-05
-0.000330578
-0.000520314
-0.000592896
-0.000551254
-0.000482584
-0.000446836
-0.504668
-0.288392
-0.0852406
0.0837313
0.22256
0.33565
0.432144
0.510928
0.533985
0.530096
-0.165035
-0.024284
0.107353
0.222425
0.320715
0.403229
0.469024
0.514131
0.538409
0.554487
0.0656355
0.15804
0.250047
0.331619
0.401786
0.460301
0.506493
0.541328
0.566572
0.585707
0.231023
0.296206
0.362473
0.422065
0.473595
0.517251
0.553537
0.583336
0.605693
0.624697
0.360377
0.409223
0.458063
0.503209
0.543299
0.578462
0.60889
0.634399
0.653681
0.671891
0.467932
0.506477
0.544761
0.581536
0.615233
0.645539
0.672128
0.694296
0.710948
0.728551
0.560814
0.595003
0.629337
0.662396
0.693061
0.720821
0.745067
0.764862
0.77938
0.796513
0.651065
0.684927
0.718718
0.751145
0.780984
0.807665
0.830524
0.848618
0.861425
0.878058
0.74755
0.784805
0.820422
0.853631
0.88347
0.90939
0.930987
0.94766
0.959541
0.975765
0.861945
0.903134
0.940658
0.974014
1.0029
1.02726
1.04721
1.06273
1.0748
1.09093
1.00416
1.04547
1.08108
1.11095
1.1364
1.15825
1.17696
1.1926
1.20583
1.22182
1.1762
1.20859
1.23571
1.25827
1.27854
1.2974
1.31526
1.33212
1.34711
1.36286
1.36276
1.38008
1.39732
1.41413
1.43034
1.44516
1.45913
1.47367
1.48895
1.50628
1.54638
1.55635
1.56959
1.58061
1.59005
1.59977
1.61045
1.62068
1.63002
1.6557
1.76437
1.75869
1.74574
1.73148
1.72522
1.731
1.74916
1.77771
1.8115
1.84784
2.06712
1.93116
1.85173
1.80934
1.79205
1.796
1.82348
1.88135
1.98902
2.16743
0.347184
0.340881
0.33315
0.322033
0.308458
0.295798
0.285379
0.277333
0.271555
0.268125
0.267613
0.270237
0.275287
0.282499
0.291939
0.303691
0.317194
0.330082
0.339042
0.346569
0.256264
0.262184
0.270261
0.276395
0.279464
0.27895
0.275858
0.271824
0.268162
0.265774
0.265468
0.267502
0.271069
0.275368
0.279344
0.281489
0.280343
0.275652
0.268555
0.260698
0.249521
0.251893
0.255173
0.257966
0.260436
0.262644
0.263832
0.263676
0.262668
0.261697
0.261709
0.262935
0.264534
0.265565
0.265322
0.263718
0.261448
0.259
0.255953
0.252911
0.244771
0.24586
0.247793
0.250157
0.252056
0.253473
0.254693
0.255649
0.256139
0.25634
0.256667
0.257189
0.257453
0.257143
0.256331
0.25525
0.253787
0.251706
0.249521
0.248018
0.239789
0.240418
0.241571
0.243371
0.245252
0.246865
0.248101
0.249107
0.250033
0.250791
0.251327
0.251539
0.251357
0.250902
0.250171
0.249017
0.247425
0.245669
0.244228
0.243403
0.234958
0.235386
0.23621
0.237601
0.239218
0.240851
0.242357
0.243631
0.244686
0.245612
0.246274
0.246496
0.246334
0.245785
0.244832
0.243567
0.242158
0.240789
0.239744
0.239189
0.230333
0.230647
0.231304
0.232482
0.233908
0.235444
0.237044
0.238595
0.239951
0.241069
0.241881
0.24218
0.241937
0.241214
0.240166
0.23898
0.237788
0.236652
0.235819
0.235405
0.225854
0.226076
0.226623
0.227725
0.229124
0.230615
0.232178
0.233781
0.235316
0.236639
0.237615
0.238038
0.237822
0.237159
0.236233
0.235191
0.234086
0.233038
0.232325
0.232018
0.221668
0.221827
0.222269
0.223229
0.224511
0.225891
0.2273
0.228774
0.230358
0.231937
0.233155
0.233659
0.233593
0.233205
0.232601
0.231804
0.230885
0.230018
0.229456
0.22923
0.217658
0.217756
0.218134
0.219078
0.220392
0.221837
0.223406
0.225044
0.226646
0.228222
0.229649
0.230578
0.230896
0.230673
0.230086
0.229324
0.22846
0.227637
0.227149
0.226992
0.214067
0.21411
0.214406
0.21525
0.216466
0.217809
0.219269
0.220899
0.222769
0.224731
0.226501
0.227643
0.228095
0.22813
0.227868
0.227385
0.226744
0.226098
0.225738
0.225652
0.210859
0.210874
0.211079
0.211723
0.21273
0.213928
0.215314
0.21691
0.218738
0.220825
0.22297
0.224654
0.225676
0.226176
0.22629
0.226148
0.225853
0.225512
0.225343
0.225303
0.207557
0.207566
0.207717
0.208202
0.209051
0.21018
0.21157
0.213323
0.215467
0.21799
0.220633
0.222769
0.224155
0.224955
0.225405
0.225613
0.225642
0.225605
0.225593
0.225573
0.203626
0.203636
0.203778
0.204176
0.204903
0.205949
0.207338
0.209162
0.211525
0.21447
0.217741
0.220575
0.22259
0.223972
0.224876
0.225457
0.225819
0.226044
0.226135
0.226121
0.198808
0.198815
0.198978
0.199395
0.200142
0.201263
0.202833
0.205011
0.207862
0.211445
0.215506
0.219098
0.221713
0.223539
0.224823
0.225721
0.226358
0.226745
0.226881
0.226871
0.192948
0.192946
0.193136
0.193656
0.194537
0.195859
0.197741
0.20032
0.20378
0.208191
0.213256
0.217784
0.221127
0.223537
0.225251
0.226416
0.227304
0.227797
0.227972
0.227977
0.186018
0.186
0.186205
0.186856
0.187988
0.189633
0.191967
0.195189
0.19946
0.204927
0.211224
0.216908
0.22114
0.224179
0.226342
0.227916
0.228933
0.229504
0.22973
0.229753
0.177973
0.177939
0.178183
0.178969
0.180456
0.18253
0.185443
0.189454
0.194771
0.201564
0.209391
0.216482
0.221772
0.225598
0.228327
0.230241
0.231471
0.232177
0.232485
0.232524
0.168589
0.168538
0.168834
0.169782
0.171549
0.174263
0.177947
0.182936
0.189574
0.198032
0.207762
0.216561
0.22315
0.227931
0.231319
0.233665
0.235201
0.236104
0.236503
0.236553
0.157416
0.157361
0.157751
0.15896
0.161127
0.164439
0.169062
0.175384
0.183729
0.194311
0.206401
0.217275
0.22539
0.231269
0.235467
0.238372
0.240303
0.241463
0.241965
0.242022
0.14368
0.143619
0.14416
0.145704
0.148419
0.152582
0.158488
0.166544
0.177124
0.190396
0.205381
0.218737
0.228663
0.235875
0.240991
0.244559
0.246962
0.248413
0.249032
0.249098
0.126384
0.126318
0.127089
0.129136
0.132705
0.138133
0.145818
0.156224
0.169706
0.186348
0.204836
0.221115
0.233145
0.241864
0.248082
0.252442
0.255405
0.257189
0.257936
0.258008
0.104075
0.104025
0.105182
0.108048
0.112935
0.120296
0.130562
0.144194
0.161463
0.182287
0.204924
0.224564
0.23899
0.249452
0.256949
0.262249
0.265884
0.268068
0.268966
0.269042
0.0744177
0.0744416
0.0762963
0.0805863
0.0876997
0.0981545
0.112272
0.130385
0.152548
0.178428
0.205842
0.229242
0.246337
0.258767
0.267747
0.274166
0.278607
0.281263
0.282333
0.28241
0.0332346
0.0335039
0.0368804
0.0441587
0.0554488
0.0710327
0.0909033
0.115073
0.143318
0.175094
0.207817
0.235287
0.255261
0.269856
0.280527
0.288283
0.293737
0.296981
0.298227
0.29829
-0.0271702
-0.0256013
-0.0175087
-0.00365239
0.0153703
0.0391405
0.0670647
0.0989064
0.134322
0.172669
0.211055
0.242762
0.265724
0.282597
0.295119
0.304406
0.311059
0.315032
0.316506
0.316568
-0.100109
-0.0969354
-0.0813159
-0.0571773
-0.0276707
0.00562373
0.0423201
0.0823811
0.12554
0.171233
0.216339
0.253491
0.280621
0.30088
0.316244
0.327997
0.33664
0.341818
0.343596
0.343914
-0.17432
-0.166228
-0.142969
-0.109008
-0.0696578
-0.027117
0.0183305
0.0666357
0.117563
0.170647
0.222586
0.265295
0.296627
0.320305
0.338589
0.352854
0.363561
0.369802
0.372528
0.373272
-0.233007
-0.223496
-0.195397
-0.154654
-0.107781
-0.0574786
-0.00422561
0.0517133
0.109986
0.170057
0.228331
0.27601
0.310947
0.337332
0.357742
0.373655
0.385627
0.39301
0.396556
0.39748
-0.28083
-0.270652
-0.239223
-0.193556
-0.141016
-0.0845377
-0.0248208
0.0377215
0.10257
0.169033
0.233043
0.285052
0.322897
0.351311
0.373142
0.390145
0.402976
0.411211
0.415155
0.416156
-0.320758
-0.310404
-0.276766
-0.227301
-0.17019
-0.108661
-0.0435234
0.0247033
0.0953417
0.167514
0.236659
0.292437
0.332664
0.362585
0.38538
0.403006
0.416316
0.424987
0.429137
0.430157
-0.355527
-0.345114
-0.309847
-0.257325
-0.196402
-0.130584
-0.0607658
0.0124362
0.0882484
0.165566
0.239406
0.298557
0.34084
0.371964
0.395416
0.413331
0.426737
0.435504
0.43964
0.440718
-0.386712
-0.376298
-0.33977
-0.284723
-0.220596
-0.151075
-0.077122
0.000572389
0.0810975
0.163211
0.241438
0.303813
0.348036
0.380219
0.404162
0.422237
0.435661
0.444459
0.448579
0.449586
-0.415488
-0.405052
-0.367502
-0.310283
-0.243366
-0.170612
-0.0929852
-0.0112307
0.0736487
0.16031
0.242816
0.308338
0.35443
0.387659
0.412121
0.430408
0.443875
0.452684
0.456827
0.457683
-0.442675
-0.432193
-0.393704
-0.334556
-0.265183
-0.189579
-0.108676
-0.0232293
0.0657027
0.156688
0.243378
0.312085
0.360205
0.39464
0.419753
0.438337
0.4519
0.460695
0.464809
0.465586
-0.468729
-0.458183
-0.418817
-0.357948
-0.286394
-0.208237
-0.124375
-0.0355756
0.0571024
0.152205
0.24309
0.31524
0.365607
0.401418
0.427325
0.446324
0.460069
0.468865
0.472915
0.473664
-0.493995
-0.483306
-0.443112
-0.380691
-0.307183
-0.226741
-0.140227
-0.0483744
0.0477967
0.146864
0.242008
0.317753
0.370613
0.408037
0.434928
0.454491
0.468512
0.477352
0.481284
0.481995
-0.518676
-0.507779
-0.466808
-0.402941
-0.327681
-0.245208
-0.156289
-0.0616475
0.0377632
0.14063
0.239968
0.319504
0.375172
0.414514
0.442612
0.46289
0.477273
0.486184
0.489991
0.490633
-0.542807
-0.531674
-0.48995
-0.424775
-0.347946
-0.263639
-0.172566
-0.0754103
0.0269702
0.133379
0.236869
0.320426
0.379218
0.420792
0.450354
0.471512
0.486335
0.495318
0.498977
0.499505
-0.566463
-0.555052
-0.5126
-0.446202
-0.367975
-0.282039
-0.189057
-0.0896561
0.0154023
0.125115
0.232659
0.320354
0.382614
0.4268
0.458118
0.480324
0.495646
0.504679
0.508136
0.508514
-0.589578
-0.577921
-0.534737
-0.467226
-0.387749
-0.300371
-0.205704
-0.104325
0.00312437
0.115864
0.227257
0.31914
0.385156
0.432398
0.465853
0.489302
0.505129
0.51411
0.517302
0.517518
-0.612186
-0.60023
-0.55632
-0.487802
-0.407213
-0.318568
-0.222432
-0.119325
-0.00978002
0.105646
0.220618
0.316644
0.386635
0.437382
0.473497
0.498491
0.514792
0.52351
0.526284
0.526323
-0.634079
-0.62192
-0.577301
-0.507875
-0.426301
-0.336543
-0.23916
-0.134571
-0.0232312
0.0945308
0.212736
0.312743
0.386806
0.441473
0.480932
0.508034
0.5248
0.532827
0.534887
0.534711
-0.655373
-0.642935
-0.597634
-0.527403
-0.444966
-0.354246
-0.255785
-0.14997
-0.037129
0.0826279
0.203631
0.307349
0.385437
0.444271
0.487838
0.51809
0.535737
0.542407
0.542979
0.54244
-0.675904
-0.663209
-0.6173
-0.546331
-0.46312
-0.371583
-0.272217
-0.165395
-0.0513441
0.0700265
0.193378
0.300405
0.382341
0.445328
0.493594
0.528487
0.548592
0.553908
0.551297
0.549383
-0.695745
-0.682784
-0.636237
-0.564597
-0.480718
-0.388481
-0.288367
-0.18075
-0.0657565
0.0568828
0.182092
0.291884
0.377387
0.444189
0.497211
0.538154
0.563552
0.570619
0.564747
0.553158
-0.714781
-0.701645
-0.654534
-0.582367
-0.497978
-0.405234
-0.304584
-0.196463
-0.0808511
0.042639
0.169176
0.28109
0.369945
0.440158
0.497246
0.544888
0.578321
0.590636