/*--------------------------------*- C++ -*----------------------------------*\
  =========                 |
  \\      /  F ield         | OpenFOAM: The Open Source CFD Toolbox
   \\    /   O peration     | Website:  https://openfoam.org
    \\  /    A nd           | Version:  6
     \\/     M anipulation  |
\*---------------------------------------------------------------------------*/
FoamFile
{
    version     2.0;
    format      ascii;
    class       volVectorField;
    location    "73.2";
    object      U;
}
// * * * * * * * * * * * * * * * * * * * * * * * * * * * * * * * * * * * * * //

dimensions      [0 1 -1 0 0 0 0];

internalField   nonuniform List<vector> 
8800
(
(0.987184 -0.076666 0)
(1.00189 -0.0551914 0)
(0.999722 -0.0285498 0)
(1.00003 -0.0151452 0)
(1.0001 -0.0085467 0)
(1.00012 -0.00504885 0)
(1.00007 -0.00300359 0)
(1.00003 -0.0017032 0)
(0.999997 -0.000796615 0)
(1.00006 -8.01259e-05 0)
(0.999972 0.000651357 0)
(0.999984 0.00141942 0)
(1.00003 0.00243709 0)
(1.00006 0.00400359 0)
(1.00004 0.00663482 0)
(1.00002 0.0113733 0)
(0.999916 0.020816 0)
(0.999158 0.0386716 0)
(1.0071 0.0724575 0)
(0.771213 0.0366614 0)
(0.363068 -0.0160175 0)
(1.04331 -0.0768174 0)
(1.08459 -0.0704494 0)
(1.04519 -0.0535459 0)
(1.02328 -0.0388989 0)
(1.01202 -0.0262225 0)
(1.00643 -0.0168621 0)
(1.00359 -0.0103307 0)
(1.00215 -0.00567003 0)
(1.00144 -0.00201059 0)
(1.0013 0.00131315 0)
(1.00166 0.00469863 0)
(1.00265 0.00863248 0)
(1.00466 0.0139609 0)
(1.0086 0.0216665 0)
(1.01655 0.0326356 0)
(1.03248 0.0465486 0)
(1.06265 0.0616653 0)
(1.09187 0.0761011 0)
(0.83867 0.056562 0)
(0.216844 -0.00242994 0)
(1.07589 -0.050138 0)
(1.09987 -0.0483137 0)
(1.06464 -0.0404671 0)
(1.04003 -0.0336097 0)
(1.02391 -0.0260884 0)
(1.01412 -0.0185047 0)
(1.00855 -0.0116827 0)
(1.00558 -0.00581162 0)
(1.00432 -0.000390694 0)
(1.00465 0.00485821 0)
(1.00658 0.0102526 0)
(1.01061 0.0163402 0)
(1.01794 0.0233569 0)
(1.03052 0.0308217 0)
(1.05061 0.0378516 0)
(1.08034 0.0445344 0)
(1.10625 0.0513487 0)
(0.94252 0.0416191 0)
(0.216145 0.00246189 0)
(0.17517 -0.000816603 0)
(1.01769 -0.0354866 0)
(1.10519 -0.0413828 0)
(1.07826 -0.036067 0)
(1.05346 -0.0301319 0)
(1.0362 -0.024555 0)
(1.024 -0.0188249 0)
(1.01588 -0.0127419 0)
(1.01101 -0.00654944 0)
(1.0088 -0.000209659 0)
(1.00936 0.0060491 0)
(1.01262 0.0120515 0)
(1.01887 0.0178805 0)
(1.02876 0.0234441 0)
(1.04319 0.0287438 0)
(1.06371 0.0342267 0)
(1.09354 0.0402099 0)
(1.0934 0.0419701 0)
(0.827121 0.0229177 0)
(0.173992 0.0008534 0)
(0.153969 -0.000610455 0)
(0.956182 -0.0254594 0)
(1.10345 -0.0351296 0)
(1.08767 -0.0326523 0)
(1.06172 -0.0279978 0)
(1.04411 -0.0229714 0)
(1.03164 -0.0177213 0)
(1.02279 -0.0121852 0)
(1.01696 -0.00624306 0)
(1.01411 0.000233107 0)
(1.01477 0.00670003 0)
(1.01874 0.0125858 0)
(1.02579 0.0178703 0)
(1.03609 0.0227746 0)
(1.05063 0.0275333 0)
(1.07187 0.0320635 0)
(1.10005 0.0359951 0)
(1.06805 0.0340485 0)
(0.739478 0.0143213 0)
(0.152194 0.000652216 0)
(0.139601 -0.000466613 0)
(0.899293 -0.0190753 0)
(1.09579 -0.030076 0)
(1.09574 -0.0291824 0)
(1.06925 -0.0254473 0)
(1.05081 -0.0213033 0)
(1.03788 -0.0165254 0)
(1.02877 -0.0112327 0)
(1.02264 -0.00548121 0)
(1.0195 0.000854106 0)
(1.0201 0.00717153 0)
(1.02419 0.0128106 0)
(1.03136 0.0177644 0)
(1.04187 0.0222125 0)
(1.05698 0.0261768 0)
(1.07917 0.0296376 0)
(1.10224 0.0322582 0)
(1.03592 0.0281468 0)
(0.672858 0.010223 0)
(0.137092 0.000514779 0)
(0.129066 -0.000361117 0)
(0.849728 -0.01471 0)
(1.08341 -0.0259377 0)
(1.10143 -0.0262242 0)
(1.07611 -0.0229326 0)
(1.05714 -0.0192823 0)
(1.04376 -0.01503 0)
(1.03428 -0.0100979 0)
(1.02791 -0.00455495 0)
(1.02457 0.00160312 0)
(1.02502 0.00770843 0)
(1.02906 0.0130711 0)
(1.03634 0.0176122 0)
(1.04713 0.0214528 0)
(1.06264 0.024753 0)
(1.08527 0.0276931 0)
(1.10132 0.0294404 0)
(1.00094 0.0236444 0)
(0.620945 0.00786389 0)
(0.125664 0.000417792 0)
(0.121033 -0.000280315 0)
(0.807627 -0.0115484 0)
(1.06817 -0.0223199 0)
(1.10498 -0.023576 0)
(1.08237 -0.0206949 0)
(1.06299 -0.0172563 0)
(1.04933 -0.0133085 0)
(1.03958 -0.00871246 0)
(1.03292 -0.00343934 0)
(1.02932 0.00250237 0)
(1.02959 0.00835994 0)
(1.03357 0.0133756 0)
(1.04092 0.0174449 0)
(1.0518 0.0207748 0)
(1.06752 0.0236639 0)
(1.09049 0.0263022 0)
(1.09749 0.0271503 0)
(0.965569 0.0201202 0)
(0.579183 0.00633558 0)
(0.116546 0.000347721 0)
(0.114815 -0.000216944 0)
(0.772215 -0.00918143 0)
(1.05145 -0.0191323 0)
(1.10738 -0.0211224 0)
(1.08826 -0.0186081 0)
(1.06849 -0.0153112 0)
(1.05459 -0.0115237 0)
(1.04464 -0.00713477 0)
(1.03773 -0.00209776 0)
(1.03384 0.0035947 0)
(1.03388 0.00915466 0)
(1.03773 0.0137919 0)
(1.04501 0.0174402 0)
(1.05588 0.0203773 0)
(1.07179 0.0229415 0)
(1.09441 0.0252329 0)
(1.09082 0.0252629 0)
(0.931108 0.0174093 0)
(0.54455 0.00529583 0)
(0.109009 0.000297553 0)
(0.109977 -0.000165867 0)
(0.742555 -0.00734169 0)
(1.03433 -0.0163028 0)
(1.10886 -0.0188054 0)
(1.09386 -0.0165942 0)
(1.07382 -0.013386 0)
(1.05964 -0.00968347 0)
(1.0495 -0.00541199 0)
(1.04236 -0.00054708 0)
(1.03817 0.00490727 0)
(1.0379 0.0101569 0)
(1.04152 0.0144336 0)
(1.04865 0.017708 0)
(1.05947 0.0202973 0)
(1.07558 0.0225703 0)
(1.09704 0.024478 0)
(1.08167 0.0237305 0)
(0.898108 0.0153616 0)
(0.514988 0.00457536 0)
(0.102569 0.00026258 0)
(0.106238 -0.00012332 0)
(0.71783 -0.00585517 0)
(1.01762 -0.0137599 0)
(1.10951 -0.016561 0)
(1.09938 -0.0146171 0)
(1.07907 -0.011415 0)
(1.0646 -0.00773873 0)
(1.05422 -0.00352523 0)
(1.04683 0.00122995 0)
(1.0423 0.00648339 0)
(1.04164 0.0114382 0)
(1.04495 0.0153793 0)
(1.05188 0.0183 0)
(1.06264 0.0205486 0)
(1.07891 0.0225576 0)
(1.09832 0.024054 0)
(1.07043 0.0225562 0)
(0.866669 0.0138625 0)
(0.489035 0.00408464 0)
(0.0968828 0.000239838 0)
(0.103409 -8.63397e-05 0)
(0.697399 -0.00460556 0)
(1.00196 -0.0114357 0)
(1.10952 -0.0143544 0)
(1.10475 -0.012595 0)
(1.08433 -0.00935386 0)
(1.06955 -0.00564527 0)
(1.0589 -0.00142728 0)
(1.05118 0.00327512 0)
(1.04624 0.00838428 0)
(1.04512 0.0130858 0)
(1.04804 0.0167059 0)
(1.05474 0.0192798 0)
(1.0654 0.0211934 0)
(1.08179 0.022937 0)
(1.09856 0.0240422 0)
(1.05734 0.0217501 0)
(0.836614 0.0128233 0)
(0.465594 0.00376808 0)
(0.09169 0.000226869 0)
(0.101373 -5.22368e-05 0)
(0.680797 -0.00350544 0)
(0.987789 -0.00925896 0)
(1.10908 -0.0120953 0)
(1.10995 -0.0104393 0)
(1.08969 -0.0071287 0)
(1.07456 -0.00332419 0)
(1.06358 0.000960595 0)
(1.05548 0.00567009 0)
(1.05003 0.0106815 0)
(1.04834 0.0151538 0)
(1.0508 0.0184612 0)
(1.05721 0.0206806 0)
(1.06774 0.0222559 0)
(1.08417 0.0237277 0)
(1.09778 0.024419 0)
(1.04256 0.0213249 0)
(0.80759 0.0121736 0)
(0.443792 0.00358833 0)
(0.0867839 0.000221741 0)
(0.100068 -1.87724e-05 0)
(0.667723 -0.00248534 0)
(0.975478 -0.00715605 0)
(1.10852 -0.00972948 0)
(1.11514 -0.00809412 0)
(1.09522 -0.00467344 0)
(1.0797 -0.000713509 0)
(1.06835 0.00370806 0)
(1.05976 0.00849032 0)
(1.05369 0.0134546 0)
(1.05132 0.0177288 0)
(1.05323 0.0207397 0)
(1.05929 0.022603 0)
(1.06966 0.0238267 0)
(1.08608 0.025013 0)
(1.09578 0.0252291 0)
(1.02611 0.0212723 0)
(0.779151 0.0118592 0)
(0.422922 0.00351985 0)
(0.0819999 0.000222945 0)
(0.0994813 1.6885e-05 0)
(0.658026 -0.00149179 0)
(0.965341 -0.00505522 0)
(1.10818 -0.00719247 0)
(1.12043 -0.0054862 0)
(1.10101 -0.00190149 0)
(1.08508 0.00228812 0)
(1.07326 0.00691759 0)
(1.0641 0.0118393 0)
(1.05728 0.0168145 0)
(1.05408 0.0209171 0)
(1.05533 0.0236292 0)
(1.06097 0.0251172 0)
(1.07115 0.0259787 0)
(1.08745 0.0268442 0)
(1.09247 0.0265019 0)
(1.00795 0.0216354 0)
(0.750798 0.0118564 0)
(0.402385 0.00354936 0)
(0.0772018 0.000229925 0)
(0.0996331 4.80939e-05 0)
(0.651692 -0.000480278 0)
(0.957688 -0.00288338 0)
(1.10839 -0.00441397 0)
(1.12599 -0.00252155 0)
(1.10717 0.00130452 0)
(1.09077 0.00579918 0)
(1.0784 0.0107138 0)
(1.06853 0.0158518 0)
(1.0608 0.0208873 0)
(1.05662 0.0248342 0)
(1.05707 0.0272426 0)
(1.06223 0.0283561 0)
(1.07216 0.0288252 0)
(1.08803 0.0293129 0)
(1.08752 0.0283051 0)
(0.987878 0.0224434 0)
(0.721962 0.0121487 0)
(0.381632 0.00366784 0)
(0.072265 0.000241952 0)
(0.100596 9.50484e-05 0)
(0.648849 0.000570702 0)
(0.952833 -0.000555687 0)
(1.10954 -0.00131659 0)
(1.13205 0.000882279 0)
(1.1138 0.0050335 0)
(1.09689 0.00992209 0)
(1.08386 0.0152159 0)
(1.07314 0.0206502 0)
(1.0643 0.0258136 0)
(1.05894 0.0296369 0)
(1.05845 0.0317261 0)
(1.06302 0.0324453 0)
(1.07264 0.0324999 0)
(1.08768 0.0325566 0)
(1.08072 0.030726 0)
(0.965579 0.023733 0)
(0.692023 0.0127269 0)
(0.360148 0.0038673 0)
(0.0670805 0.000258214 0)
(0.102526 0.000152573 0)
(0.649813 0.00175537 0)
(0.951145 0.00199714 0)
(1.11205 0.0022114 0)
(1.13878 0.00485651 0)
(1.12106 0.00945823 0)
(1.10356 0.0148496 0)
(1.08974 0.0206197 0)
(1.07797 0.0264356 0)
(1.0678 0.0317728 0)
(1.06103 0.0354737 0)
(1.05942 0.0372022 0)
(1.06329 0.0375196 0)
(1.07253 0.0371203 0)
(1.08613 0.0366764 0)
(1.07176 0.0338559 0)
(0.940608 0.0255436 0)
(0.660308 0.0135848 0)
(0.337448 0.0041403 0)
(0.0615538 0.000277836 0)
(0.105505 0.000216073 0)
(0.655036 0.00320591 0)
(0.953066 0.00493508 0)
(1.11641 0.0063071 0)
(1.14645 0.00954585 0)
(1.12912 0.0147494 0)
(1.11093 0.0207666 0)
(1.09614 0.0271329 0)
(1.0831 0.0334234 0)
(1.07132 0.0389783 0)
(1.06287 0.0425389 0)
(1.05997 0.0438716 0)
(1.06297 0.0437512 0)
(1.07177 0.0428469 0)
(1.08329 0.0418758 0)
(1.06023 0.0378027 0)
(0.912373 0.0279179 0)
(0.626088 0.0147133 0)
(0.313075 0.00447623 0)
(0.0556081 0.000299529 0)
(0.109824 0.000300141 0)
(0.664914 0.00490112 0)
(0.959067 0.00839561 0)
(1.12312 0.0111233 0)
(1.15534 0.0151425 0)
(1.1382 0.0211263 0)
(1.11916 0.0279207 0)
(1.10318 0.0350142 0)
(1.08857 0.0418674 0)
(1.07483 0.0476809 0)
(1.06441 0.0510735 0)
(1.06 0.0519375 0)
(1.06202 0.0513289 0)
(1.07028 0.0498548 0)
(1.07919 0.04827 0)
(1.0456 0.0426763 0)
(0.880114 0.030873 0)
(0.588583 0.0160841 0)
(0.286614 0.00485639 0)
(0.0491925 0.000321223 0)
(0.115824 0.000414045 0)
(0.680303 0.0070291 0)
(0.969846 0.0125837 0)
(1.13275 0.0169019 0)
(1.1658 0.0219345 0)
(1.14856 0.0289524 0)
(1.12847 0.0366976 0)
(1.11097 0.0446479 0)
(1.09441 0.0521295 0)
(1.07832 0.0581619 0)
(1.06558 0.0612745 0)
(1.05935 0.061563 0)
(1.06035 0.0604358 0)
(1.06805 0.0583331 0)
(1.07354 0.0560279 0)
(1.02715 0.0485483 0)
(0.84291 0.0343943 0)
(0.547004 0.0176416 0)
(0.257752 0.00525093 0)
(0.0422988 0.000340116 0)
(0.12403 0.000571936 0)
(0.702097 0.00980809 0)
(0.986252 0.0178032 0)
(1.14597 0.0239757 0)
(1.17836 0.0302955 0)
(1.16053 0.0386551 0)
(1.13903 0.0475482 0)
(1.1196 0.0564843 0)
(1.1006 0.0646083 0)
(1.08168 0.0707683 0)
(1.06628 0.0734398 0)
(1.05802 0.0729976 0)
(1.05788 0.071221 0)
(1.06495 0.0684088 0)
(1.06592 0.0650767 0)
(1.00394 0.0554788 0)
(0.799674 0.0384075 0)
(0.500615 0.0192836 0)
(0.226334 0.00561506 0)
(0.0349786 0.000352521 0)
(0.135179 0.000801279 0)
(0.731612 0.0136285 0)
(1.00944 0.0245242 0)
(1.16356 0.0328978 0)
(1.19362 0.0408261 0)
(1.17447 0.0508996 0)
(1.15105 0.0611388 0)
(1.12907 0.071123 0)
(1.10702 0.0797992 0)
(1.08476 0.0858599 0)
(1.06633 0.0878181 0)
(1.05589 0.0864517 0)
(1.05455 0.0839509 0)
(1.06061 0.0802446 0)
(1.05557 0.0757248 0)
(0.974736 0.0634105 0)
(0.749215 0.0427293 0)
(0.448869 0.020841 0)
(0.192483 0.00588652 0)
(0.0273631 0.000354032 0)
(0.150535 0.00116063 0)
(0.770833 0.0191116 0)
(1.04108 0.0335295 0)
(1.18648 0.0446088 0)
(1.21239 0.0547443 0)
(1.19071 0.0667794 0)
(1.16456 0.0784765 0)
(1.13923 0.0893896 0)
(1.11343 0.0982908 0)
(1.08727 0.103788 0)
(1.06553 0.104598 0)
(1.0528 0.102055 0)
(1.05024 0.0987088 0)
(1.05479 0.0942291 0)
(1.0416 0.0879615 0)
(0.937976 0.0721404 0)
(0.69037 0.0470295 0)
(0.39163 0.0220728 0)
(0.156718 0.00599039 0)
(0.0196794 0.000340323 0)
(0.172293 0.00178355 0)
(0.823009 0.0273934 0)
(1.08384 0.0463677 0)
(1.21589 0.0609813 0)
(1.23524 0.0739714 0)
(1.20935 0.087906 0)
(1.17929 0.100877 0)
(1.14962 0.112229 0)
(1.11931 0.120678 0)
(1.08881 0.124897 0)
(1.06358 0.123976 0)
(1.04856 0.119903 0)
(1.04483 0.115511 0)
(1.04747 0.110069 0)
(1.0227 0.101643 0)
(0.891714 0.081196 0)
(0.622344 0.0508041 0)
(0.329569 0.0226796 0)
(0.120117 0.00585067 0)
(0.012259 0.000307264 0)
(0.203837 0.00315188 0)
(0.893907 0.0411048 0)
(1.14121 0.0668556 0)
(1.25213 0.0855989 0)
(1.26189 0.101358 0)
(1.22974 0.116647 0)
(1.1944 0.12995 0)
(1.15941 0.140601 0)
(1.12402 0.147478 0)
(1.08889 0.149402 0)
(1.06016 0.146013 0)
(1.04299 0.140003 0)
(1.03818 0.134355 0)
(1.03803 0.127858 0)
(0.99703 0.116318 0)
(0.833678 0.0897621 0)
(0.545459 0.0533895 0)
(0.264911 0.0224384 0)
(0.0845892 0.00543503 0)
(0.00559082 0.000250125 0)
(0.246879 0.00939519 7.57869e-21)
(0.987478 0.068242 6.53456e-21)
(1.21082 0.101595 -2.30217e-21)
(1.2921 0.122152 0)
(1.28943 0.140586 -6.08069e-35)
(1.24966 0.155402 8.94639e-22)
(1.2083 0.16723 -1.64696e-21)
(1.16753 0.175732 0)
(1.12675 0.179938 3.46741e-35)
(1.08674 0.178757 -2.11598e-21)
(1.05436 0.172428 0)
(1.03499 0.164369 -2.55372e-21)
(1.02946 0.15776 -7.56453e-21)
(1.02501 0.15081 -3.59037e-21)
(0.959984 0.134398 -1.08522e-21)
(0.757297 0.0988445 -6.457e-22)
(0.454757 0.0548832 0)
(0.196559 0.0216968 4.52391e-22)
(0.050299 0.00496822 5.35765e-22)
(-0.000341067 0.000160452 9.78527e-21)
(0.276714 0.0247044 4.95629e-21)
(1.06498 0.111131 1.12252e-22)
(1.26824 0.151095 5.86374e-22)
(1.32807 0.171614 0)
(1.31365 0.190231 -2.99192e-21)
(1.2668 0.202925 -3.44624e-21)
(1.21951 0.21247 -1.63777e-21)
(1.17294 0.218528 -5.94593e-21)
(1.1266 0.220068 0)
(1.08143 0.215908 8.95717e-21)
(1.04507 0.206762 8.95284e-21)
(1.02334 0.196714 2.67233e-21)
(1.01546 0.188461 9.83008e-21)
(1.00098 0.179204 1.39104e-20)
(0.900691 0.154728 0)
(0.652547 0.107745 1.96768e-20)
(0.347817 0.0558302 2.82435e-20)
(0.125857 0.0202006 3.14316e-20)
(0.0163279 0.00334489 -3.60556e-20)
(-0.00614685 -0.000450908 -6.87629e-22)
(0.278174 0.0416772 0)
(1.11442 0.166601 7.11914e-22)
(1.30727 0.211629 0)
(1.35617 0.231832 -3.51158e-21)
(1.33273 0.24765 0)
(1.27993 0.256438 -6.59328e-21)
(1.22709 0.262231 3.30192e-21)
(1.17502 0.264702 -1.17984e-20)
(1.12344 0.262673 -3.21365e-22)
(1.07344 0.254837 4.59412e-21)
(1.03344 0.24238 1.96919e-20)
(1.00959 0.230071 -3.72475e-23)
(0.999181 0.219882 -7.13847e-21)
(0.974634 0.206858 -1.3061e-20)
(0.846115 0.174079 1.55028e-20)
(0.575089 0.115355 -2.74703e-20)
(0.282595 0.056375 -3.62632e-21)
(0.0865889 0.0184272 0)
(-0.00240994 0.00104994 -3.44964e-24)
(-0.00952409 -0.00128293 0)
(0.27155 0.0559303 5.60822e-21)
(1.14128 0.225736 -3.28203e-21)
(1.33153 0.27671 -3.23243e-21)
(1.37485 0.297342 1.55567e-21)
(1.34521 0.30938 -2.65527e-21)
(1.28798 0.313598 1.36833e-20)
(1.23058 0.31492 6.82427e-21)
(1.17379 0.313108 0)
(1.11755 0.306878 -2.26432e-20)
(1.06321 0.294809 0)
(1.01992 0.278616 -1.02694e-20)
(0.994093 0.263618 -1.28255e-20)
(0.981167 0.251028 -7.75711e-21)
(0.948087 0.233542 -9.46935e-21)
(0.801208 0.192216 0)
(0.523451 0.123429 0)
(0.245668 0.0583295 -2.35597e-20)
(0.0639406 0.0168205 4.65741e-21)
(-0.0151062 -0.00182575 -2.73805e-21)
(-0.0124351 -0.00235769 -3.24381e-21)
(0.263603 0.0684353 6.61037e-22)
(1.15311 0.28475 0)
(1.34492 0.342756 5.09606e-21)
(1.38513 0.364266 4.00951e-21)
(1.35119 0.372511 6.35858e-21)
(1.29074 0.372154 0)
(1.2298 0.368878 6.50353e-21)
(1.16916 0.362558 1.29001e-20)
(1.10895 0.351831 1.14796e-20)
(1.05073 0.335209 2.16086e-20)
(1.00442 0.314974 0)
(0.976673 0.296995 -2.75893e-20)
(0.961384 0.281677 -1.67043e-20)
(0.921312 0.259477 -9.90206e-21)
(0.765435 0.210085 6.08955e-20)
(0.490738 0.132701 7.24638e-21)
(0.225709 0.0614622 3.40996e-20)
(0.0513477 0.0154847 -1.61305e-19)
(-0.0236975 -0.004977 9.55651e-20)
(-0.014939 -0.00360287 -1.16652e-19)
(0.255894 0.0796278 3.96993e-21)
(1.15531 0.341716 -2.2903e-22)
(1.35045 0.407892 -1.81441e-22)
(1.38867 0.430669 -2.89868e-21)
(1.35164 0.435322 -4.68107e-21)
(1.28878 0.430557 3.62884e-22)
(1.22507 0.422808 -7.06163e-21)
(1.16127 0.412023 1.32035e-20)
(1.09768 0.396774 -2.46853e-20)
(1.03604 0.375505 0)
(0.986901 0.351069 -1.24316e-20)
(0.957238 0.329908 -3.1506e-22)
(0.939655 0.31162 -1.82939e-20)
(0.894573 0.284796 0)
(0.736205 0.228318 -1.31845e-20)
(0.470269 0.143286 -3.13234e-20)
(0.216219 0.0661315 8.34646e-20)
(0.046316 0.01491 -8.22221e-20)
(-0.0282505 -0.00788037 1.16916e-19)
(-0.0167797 -0.0048857 -1.23034e-19)
(0.249274 0.08991 -1.07829e-22)
(1.15147 0.395949 1.17799e-21)
(1.35028 0.471088 1.40734e-21)
(1.38696 0.495392 6.11715e-22)
(1.34764 0.49679 -2.2465e-21)
(1.28295 0.487868 0)
(1.21701 0.475877 -6.28939e-21)
(1.15056 0.460808 -1.37458e-20)
(1.08404 0.441148 -1.27501e-20)
(1.01933 0.415298 0)
(0.967521 0.386644 -1.2816e-20)
(0.935917 0.362188 -1.6044e-20)
(0.916194 0.340887 1.9847e-20)
(0.867821 0.309563 -1.2084e-20)
(0.71134 0.246947 -5.75612e-20)
(0.456826 0.15537 3.41796e-20)
(0.213719 0.0721285 1.01457e-20)
(0.0467056 0.0154903 0)
(-0.0290569 -0.00998735 -1.13069e-19)
(-0.0177128 -0.00601932 -4.20277e-21)
(0.243904 0.0996217 1.26204e-21)
(1.14391 0.447281 -1.84563e-21)
(1.34592 0.53179 -1.03895e-21)
(1.38121 0.557742 2.96069e-21)
(1.34015 0.556263 -7.23432e-21)
(1.27407 0.543518 1.13067e-20)
(1.2063 0.527581 1.35725e-20)
(1.13761 0.508475 -2.19398e-20)
(1.06848 0.484602 8.07399e-21)
(1.00092 0.454308 -5.30508e-20)
(0.946573 0.421524 -1.46007e-20)
(0.913032 0.393764 0)
(0.891276 0.369503 2.15691e-20)
(0.840639 0.333963 2.59387e-20)
(0.688401 0.266018 3.10492e-20)
(0.446313 0.168554 -3.71996e-20)
(0.213722 0.0794005 -1.10172e-20)
(0.0502394 0.0175263 1.29287e-20)
(-0.0268146 -0.0109309 0)
(-0.0176673 -0.00683084 -9.14266e-21)
(0.239688 0.108862 -1.83291e-20)
(1.13434 0.495791 1.03166e-20)
(1.33865 0.589845 1.47097e-21)
(1.37244 0.617366 1.01965e-21)
(1.32999 0.613349 -2.60926e-21)
(1.26285 0.597129 -8.33422e-22)
(1.19358 0.577596 -1.49507e-20)
(1.12293 0.554762 -7.97091e-21)
(1.05143 0.526923 -2.22161e-20)
(0.98119 0.492361 6.60064e-23)
(0.924409 0.455577 -4.56174e-20)
(0.888963 0.424607 3.89808e-20)
(0.865244 0.397431 -2.3795e-20)
(0.813046 0.357933 2.86832e-20)
(0.666116 0.284834 0)
(0.436285 0.182278 -2.02876e-20)
(0.214229 0.0875468 6.80985e-23)
(0.0550723 0.0207876 -5.66032e-20)
(-0.0227953 -0.0107748 -8.33198e-21)
(-0.0169169 -0.00730357 0)
(0.236549 0.117879 0)
(1.12376 0.54171 1.17717e-20)
(1.32935 0.64555 5.52065e-21)
(1.36146 0.674101 -1.16493e-22)
(1.31787 0.667835 -4.14639e-21)
(1.2499 0.648496 0)
(1.17938 0.625721 -6.39296e-21)
(1.10699 0.599492 -2.11937e-22)
(1.03333 0.567977 4.76842e-20)
(0.960561 0.529379 -7.2527e-21)
(0.901367 0.48873 -3.30225e-20)
(0.864049 0.454646 2.02242e-20)
(0.838464 0.4246 -4.49383e-22)
(0.784999 0.381314 3.05837e-20)
(0.643414 0.303248 1.87906e-20)
(0.4251 0.195974 -4.38263e-20)
(0.213719 0.0958943 5.19202e-20)
(0.0597191 0.0247579 1.54033e-20)
(-0.0179566 -0.00974752 6.36637e-20)
(-0.0156678 -0.00745054 -1.72194e-19)
(0.234398 0.12681 -5.85444e-21)
(1.11291 0.585218 7.96607e-21)
(1.31862 0.698378 -5.47316e-21)
(1.34894 0.727897 -1.54017e-21)
(1.30436 0.719621 0)
(1.23574 0.697502 -4.29618e-21)
(1.16416 0.67184 2.19498e-20)
(1.09025 0.642551 1.73484e-20)
(1.01457 0.607682 0)
(0.939309 0.5653 -1.05235e-19)
(0.877734 0.520937 8.96633e-20)
(0.838564 0.483759 0)
(0.811198 0.450899 2.79664e-20)
(0.756552 0.403836 -4.42703e-22)
(0.619696 0.320763 -6.05014e-20)
(0.412102 0.208952 2.36623e-20)
(0.210938 0.104024 0)
(0.0630453 0.0290377 8.33706e-20)
(-0.013285 -0.00815868 0)
(-0.014185 -0.00734374 -8.17657e-20)
(0.233099 0.135692 6.94524e-21)
(1.10222 0.626529 1.01648e-20)
(1.3069 0.748387 -5.48567e-21)
(1.33537 0.778772 0)
(1.28993 0.7687 -2.24933e-21)
(1.2208 0.744112 0)
(1.14833 0.71589 -2.09885e-20)
(1.07302 0.683872 -7.7564e-21)
(0.995415 0.645988 8.3075e-21)
(0.917718 0.600112 -5.21452e-20)
(0.853733 0.552167 9.23165e-21)
(0.812722 0.511932 0)
(0.783653 0.47618 -5.98709e-20)
(0.727785 0.425219 4.20848e-22)
(0.594682 0.337011 0)
(0.397144 0.220517 1.70241e-22)
(0.205667 0.111271 7.63607e-20)
(0.0642939 0.0329548 -7.22113e-20)
(-0.00960148 -0.00651637 2.13747e-20)
(-0.0127554 -0.00710287 0)
(0.232305 0.144455 0)
(1.09186 0.665819 1.2143e-20)
(1.29463 0.795686 7.77421e-21)
(1.32119 0.826798 -5.19376e-22)
(1.27497 0.815104 2.70381e-22)
(1.20544 0.788328 -9.6331e-21)
(1.13219 0.757855 8.07407e-21)
(1.0556 0.723434 -9.44763e-21)
(0.976171 0.68287 3.74959e-20)
(0.896044 0.63383 -8.35874e-20)
(0.829551 0.582441 -8.64463e-22)
(0.786669 0.539141 -2.60847e-20)
(0.755928 0.500319 9.74464e-20)
(0.698785 0.445183 -5.13145e-22)
(0.568622 0.35163 -4.72555e-20)
(0.380224 0.230267 -8.39031e-20)
(0.198096 0.117129 0)
(0.0634099 0.0359685 0)
(-0.00720585 -0.00521134 2.31194e-20)
(-0.0115348 -0.00685411 -1.37362e-20)
(0.232146 0.153265 9.62054e-21)
(1.0821 0.702889 -2.74741e-20)
(1.2821 0.840367 -8.35179e-21)
(1.30671 0.872056 0)
(1.25977 0.858889 -3.10153e-22)
(1.18994 0.830183 -7.57887e-21)
(1.11602 0.797745 1.87003e-20)
(1.03826 0.761236 3.64211e-20)
(0.957076 0.718336 4.85807e-20)
(0.87448 0.666463 -6.82809e-20)
(0.805354 0.611824 -7.76601e-20)
(0.760487 0.565388 6.99117e-20)
(0.728081 0.523189 0)
(0.669594 0.4634 -2.15545e-20)
(0.54185 0.364139 -5.11384e-20)
(0.36168 0.237827 -6.04536e-20)
(0.188466 0.121138 -7.14222e-20)
(0.0607515 0.0377219 2.11485e-20)
(-0.00600539 -0.00447064 -1.24664e-20)
(-0.0105667 -0.00666371 6.61456e-23)
(0.232194 0.161899 0)
(1.07304 0.738251 0)
(1.26953 0.882533 5.14361e-22)
(1.29216 0.914652 0)
(1.24459 0.900143 -3.78232e-21)
(1.17451 0.869739 4.08199e-21)
(1.10002 0.835593 0)
(1.0212 0.797288 4.17865e-21)
(0.938318 0.752394 8.09189e-20)
(0.853222 0.698043 -1.57426e-19)
(0.781295 0.640389 0)
(0.734239 0.590715 -4.51834e-20)
(0.700054 0.544699 -6.01449e-22)
(0.640136 0.479626 -4.41611e-22)
(0.514529 0.374166 5.49007e-20)
(0.341805 0.242845 6.83317e-24)
(0.177212 0.123064 -1.54073e-19)
(0.0566087 0.0381581 4.55358e-20)
(-0.0057859 -0.00429475 1.35108e-20)
(-0.00982276 -0.00653267 0)
(0.232509 0.170344 -3.82943e-20)
(1.06444 0.77196 -1.83578e-20)
(1.25699 0.922251 -2.41621e-20)
(1.27771 0.954692 2.47216e-20)
(1.2296 0.938939 -9.86985e-21)
(1.15935 0.907058 0)
(1.08438 0.871445 1.07324e-20)
(1.00457 0.831618 -9.47864e-21)
(0.920065 0.785058 7.98864e-22)
(0.832456 0.728613 1.16942e-20)
(0.757508 0.66822 1.01034e-19)
(0.707953 0.615221 -1.58574e-20)
(0.671756 0.564857 -6.04633e-20)
(0.610328 0.493611 -2.52198e-20)
(0.486794 0.381279 2.97968e-20)
(0.321001 0.244979 3.68164e-23)
(0.164999 0.122765 4.15452e-20)
(0.0515241 0.0372972 -9.81125e-20)
(-0.00620392 -0.0045975 1.16405e-19)
(-0.00923975 -0.00645091 1.71829e-20)
(0.232693 0.178554 1.45148e-20)
(1.0563 0.804096 -1.03237e-20)
(1.24466 0.959643 1.29776e-21)
(1.26353 0.992301 1.56259e-20)
(1.21493 0.975387 3.49773e-21)
(1.14458 0.942211 -6.10023e-21)
(1.06921 0.905351 2.72079e-21)
(0.98852 0.864249 -3.93114e-20)
(0.902465 0.816332 -8.9062e-20)
(0.812322 0.758186 -9.40267e-20)
(0.734136 0.695401 0)
(0.681673 0.639067 -7.00899e-20)
(0.643043 0.583757 8.74593e-20)
(0.579882 0.505111 0)
(0.458657 0.385001 -6.39602e-20)
(0.300208 0.243785 3.79891e-20)
(0.15285 0.120064 -4.47401e-20)
(0.046514 0.0353804 -5.28522e-20)
(-0.00684046 -0.0051599 -9.38398e-20)
(-0.00880516 -0.00641038 -7.41067e-20)
(0.23326 0.186642 -1.64183e-20)
(1.04849 0.834653 1.1059e-20)
(1.23258 0.994775 2.51838e-20)
(1.24969 1.02756 2.27122e-20)
(1.20071 1.00958 -6.60665e-21)
(1.13029 0.975288 -1.91654e-21)
(1.05462 0.937362 9.41842e-21)
(0.973139 0.895224 -4.00094e-20)
(0.885613 0.846238 -5.27901e-20)
(0.792955 0.786787 9.85339e-20)
(0.711311 0.722007 2.23052e-19)
(0.655452 0.662446 0)
(0.613769 0.60159 0)
(0.548408 0.514047 -2.91063e-20)
(0.429843 0.384766 0)
(0.279883 0.238223 8.16897e-20)
(0.142573 0.114099 9.62453e-20)
(0.0437398 0.0321764 0)
(-0.00657822 -0.00582084 0)
(-0.00855812 -0.00645905 7.97272e-20)
(0.233512 0.194281 1.86527e-20)
(1.04102 0.863625 1.4794e-20)
(1.22085 1.02776 1.83191e-20)
(1.23628 1.06059 -2.17476e-20)
(1.18699 1.04163 -8.54531e-21)
(1.11658 1.00636 -3.07627e-23)
(1.04068 0.967538 -1.26546e-20)
(0.958502 0.924569 -1.35805e-22)
(0.8696 0.874782 -1.04677e-21)
(0.77447 0.814421 -8.75649e-22)
(0.689185 0.748106 1.15159e-19)
(0.629377 0.685532 0)
(0.583838 0.618635 8.92006e-20)
(0.515418 0.52059 6.23597e-20)
(0.399535 0.380184 1.49815e-19)
(0.259669 0.226553 4.41153e-20)
(0.136036 0.101575 -5.18246e-20)
(0.048509 0.0238434 -3.05179e-20)
(0.00114694 -0.00817085 0)
(-0.00699143 -0.00630247 8.57719e-20)
(0.234149 0.201953 -4.21771e-20)
(1.03385 0.891146 0)
(1.20944 1.05865 2.15229e-20)
(1.22333 1.09148 -1.84216e-20)
(1.17384 1.07164 1.14342e-20)
(1.10347 1.03553 3.59541e-21)
(1.02743 0.995934 2.27915e-20)
(0.944655 0.952317 -3.38654e-21)
(0.854479 0.901971 0)
(0.756956 0.841061 -1.08862e-19)
(0.667906 0.773744 -2.5094e-19)
(0.603574 0.708485 1.04109e-20)
(0.553253 0.635219 1.23766e-19)
(0.480513 0.525255 0)
(0.366384 0.371595 1.01461e-19)
(0.236981 0.207156 0)
(0.131307 0.0750011 0)
(0.0675188 -0.00714758 -3.30105e-20)
(0.0444408 -0.0256345 0)
(0.0248346 0.00417166 2.30144e-20)
(0.234369 0.209069 -4.71173e-20)
(1.02695 0.917445 0)
(1.19836 1.08764 3.58683e-20)
(1.21078 1.12047 0)
(1.16122 1.09986 -6.90374e-21)
(1.0909 1.06306 0)
(1.01482 1.02286 8.07758e-22)
(0.931504 0.978805 5.48156e-21)
(0.840128 0.928169 6.67039e-21)
(0.740239 0.867079 -1.19514e-19)
(0.647284 0.799381 7.50213e-21)
(0.577739 0.731961 8.44036e-20)
(0.521494 0.652152 1.21162e-19)
(0.442674 0.528783 1.63598e-20)
(0.328317 0.36046 7.98408e-20)
(0.206249 0.180755 0)
(0.11498 0.0298865 1.09357e-19)
(0.066023 -0.0429076 -6.42222e-20)
(0.0302084 0.0518496 7.50348e-20)
(-0.0384293 0.457023 -8.91573e-20)
(0.234554 0.216032 3.90439e-20)
(1.02009 0.942392 5.91281e-20)
(1.18752 1.11507 0)
(1.19851 1.148 1.03471e-21)
(1.14893 1.12689 2.02942e-20)
(1.07861 1.08965 -1.44372e-20)
(1.00252 1.04911 6.82774e-21)
(0.918628 1.00497 0)
(0.826004 0.954471 4.33708e-20)
(0.723624 0.89378 -6.14575e-21)
(0.626377 0.826517 0)
(0.550525 0.757636 0)
(0.486422 0.670747 1.08905e-19)
(0.399229 0.531553 -5.06972e-20)
(0.282026 0.34849 -8.12246e-20)
(0.162891 0.150252 0)
(0.0665045 0.0505414 5.56743e-20)
(0.00544842 0.461775 -6.46468e-20)
(0.0305112 1.92984 -3.62636e-20)
(0.0570372 2.82623 -4.45052e-20)
(0.234403 0.22245 -2.93953e-20)
(1.01333 0.966159 -7.6021e-20)
(1.17695 1.14092 2.13674e-20)
(1.18651 1.17394 1.78407e-20)
(1.13704 1.15253 0)
(1.06669 1.11504 -1.23445e-20)
(0.990758 1.07438 7.64062e-21)
(0.906227 1.03039 -2.56692e-21)
(0.812397 0.980363 6.53087e-21)
(0.707511 0.920567 1.1368e-19)
(0.605822 0.854514 1.27405e-19)
(0.522917 0.785342 9.5114e-20)
(0.448821 0.691216 1.10047e-19)
(0.351409 0.532794 -1.19792e-19)
(0.23343 0.339444 -1.23181e-19)
(0.10856 0.205826 0)
(0.0384467 0.889301 0)
(0.0858707 2.58375 3.08633e-20)
(0.0887955 3.21304 0)
(0.0902475 3.38976 8.03401e-20)
(0.237046 0.228456 0)
(1.00697 0.989132 0)
(1.16634 1.16506 0)
(1.17459 1.19817 5.36169e-21)
(1.12519 1.17653 1.86433e-20)
(1.05496 1.13906 -1.17508e-20)
(0.979445 1.09857 4.2607e-21)
(0.894234 1.05492 -2.45241e-21)
(0.799241 1.00567 5.33057e-20)
(0.691893 0.947278 -1.77126e-21)
(0.585712 0.883157 2.51798e-19)
(0.495283 0.815154 -1.10518e-20)
(0.40858 0.714394 1.33828e-20)
(0.301123 0.530739 1.7422e-20)
(0.174254 0.357321 -5.70616e-22)
(0.0889714 1.01639 3.49647e-22)
(0.122705 2.76531 -1.64265e-19)
(0.127404 3.30158 -6.19539e-20)
(0.11822 3.42372 3.26245e-20)
(0.108001 3.44349 -3.67687e-20)
(0.160431 0.17421 1.79586e-20)
(0.99648 1.01405 0)
(1.1555 1.18768 -4.37185e-20)
(1.16314 1.22112 -4.85934e-20)
(1.11385 1.19938 4.31669e-20)
(1.04408 1.16221 1.33402e-20)
(0.968404 1.12167 -3.48886e-21)
(0.882678 1.07863 2.46804e-20)
(0.786614 1.03048 -4.32918e-20)
(0.676989 0.97403 0)
(0.566334 0.912507 1.23909e-19)
(0.468159 0.846856 -7.77955e-20)
(0.368562 0.743759 0)
(0.242368 0.529626 1.68824e-20)
(0.127653 0.752675 4.01492e-20)
(0.137343 2.56946 -4.54348e-20)
(0.18506 3.3285 5.15695e-20)
(0.167958 3.43397 2.76738e-20)
(0.139636 3.45275 3.14522e-20)
(0.120584 3.46146 4.98036e-20)
(0.271838 0.266461 -3.47186e-20)
(0.979312 1.02449 0)
(1.13746 1.21377 4.70888e-20)
(1.14852 1.25236 5.326e-20)
(1.09636 1.2331 -4.79713e-20)
(1.02599 1.1963 -1.83534e-20)
(0.949125 1.15732 -1.42018e-21)
(0.862824 1.11558 1.98052e-21)
(0.765279 1.0697 4.00843e-20)
(0.652579 1.01743 9.69143e-20)
(0.535953 0.962273 6.88991e-21)
(0.425928 0.900595 6.91e-20)
(0.293157 0.777438 1.2639e-20)
(0.203173 0.920394 -1.62235e-20)
(0.209056 2.44577 -3.65505e-20)
(0.260195 3.33269 3.57426e-20)
(0.243132 3.45936 -3.9055e-20)
(0.209028 3.47809 -2.25038e-20)
(0.175548 3.5025 -1.99626e-20)
(0.130523 3.49743 -2.92327e-21)
(0.262133 0.265415 0)
(0.976567 1.04749 1.35227e-20)
(1.12878 1.23751 -9.64934e-21)
(1.13746 1.27606 -6.2891e-21)
(1.08524 1.25651 -3.29081e-20)
(1.01485 1.2199 1.87768e-20)
(0.937656 1.18114 2.58243e-21)
(0.851085 1.14027 1.69287e-21)
(0.752869 1.09592 -4.10909e-20)
(0.638593 1.04665 -2.7884e-21)
(0.518569 0.996423 -2.22391e-19)
(0.402047 0.93744 9.91033e-21)
(0.275331 0.850827 -1.19382e-20)
(0.238503 1.54362 -1.48637e-20)
(0.301443 3.14371 3.67446e-21)
(0.314339 3.46133 2.39109e-22)
(0.272935 3.50835 5.65377e-20)
(0.239087 3.53158 2.82204e-20)
(0.193392 3.55154 -8.28124e-21)
(0.1435 3.54808 -1.40077e-20)
(0.248227 0.263535 3.44878e-20)
(0.972917 1.07307 9.16072e-20)
(1.11976 1.26334 -2.75603e-20)
(1.12603 1.30139 -2.36996e-20)
(1.07365 1.28137 0)
(1.00333 1.2448 3.25348e-20)
(0.926092 1.20633 6.8594e-21)
(0.839506 1.16627 1.381e-21)
(0.74093 1.12356 -4.63546e-21)
(0.62562 1.07758 -8.57639e-20)
(0.503138 1.03288 -1.01773e-19)
(0.380869 0.975675 -8.0612e-20)
(0.278729 0.996239 -8.94159e-20)
(0.304086 2.31261 9.26128e-20)
(0.38216 3.38918 7.76626e-20)
(0.353678 3.51792 0)
(0.305731 3.55459 0)
(0.269123 3.58816 -6.38435e-21)
(0.225213 3.6332 0)
(0.155749 3.61777 -9.19628e-21)
(0.238464 0.265554 -5.13474e-20)
(0.96735 1.09954 -7.74568e-20)
(1.10936 1.29042 0)
(1.11335 1.32756 1.25774e-21)
(1.06083 1.30691 -3.50771e-20)
(0.990749 1.27029 5.19718e-20)
(0.913781 1.23213 6.23756e-21)
(0.827408 1.19282 3.56212e-22)
(0.728731 1.15173 -2.70998e-20)
(0.612829 1.10906 4.13069e-21)
(0.488842 1.06999 0)
(0.361981 1.01822 0)
(0.301125 1.28937 -8.05459e-20)
(0.383308 2.97434 3.27316e-20)