/*--------------------------------*- C++ -*----------------------------------*\
  =========                 |
  \\      /  F ield         | OpenFOAM: The Open Source CFD Toolbox
   \\    /   O peration     | Website:  https://openfoam.org
    \\  /    A nd           | Version:  6
     \\/     M anipulation  |
\*---------------------------------------------------------------------------*/
FoamFile
{
    version     2.0;
    format      ascii;
    class       volVectorField;
    location    "0.003";
    object      U;
}
// * * * * * * * * * * * * * * * * * * * * * * * * * * * * * * * * * * * * * //

dimensions      [0 1 -1 0 0 0 0];

internalField   nonuniform List<vector> 
100
(
(8.60651e-14 0 0)
(5.93703e-13 0 0)
(-1.16698e-14 0 0)
(-9.71514e-13 0 0)
(-4.52206e-14 0 0)
(9.36505e-13 0 0)
(1.86426e-12 0 0)
(1.56084e-12 0 0)
(-1.44414e-13 0 0)
(1.45873e-14 0 0)
(5.47024e-13 0 0)
(-5.70363e-13 0 0)
(-1.29243e-12 0 0)
(-1.18449e-12 0 0)
(-7.55622e-13 0 0)
(3.01957e-13 0 0)
(9.00036e-13 0 0)
(1.0284e-12 0 0)
(7.97925e-13 0 0)
(-4.44913e-13 0 0)
(-1.13781e-13 0 0)
(1.53458e-12 0 0)
(1.11155e-11 0 0)
(1.77716e-10 0 0)
(2.702e-09 0 0)
(3.80411e-08 0 0)
(4.94324e-07 0 0)
(5.89781e-06 0 0)
(6.42015e-05 0 0)
(0.000632861 0 0)
(0.00559618 0 0)
(0.0437686 0 0)
(0.293527 0 0)
(1.55646 0 0)
(5.75496 0 0)
(14.6849 0 0)
(27.6975 0 0)
(41.3644 0 0)
(53.0754 0 0)
(63.5257 0 0)
(74.3341 0 0)
(86.1111 0 0)
(98.645 0 0)
(111.48 0 0)
(124.952 0 0)
(138.554 0 0)
(152.557 0 0)
(166.733 0 0)
(179.983 0 0)
(192.942 0 0)
(205.723 0 0)
(216.779 0 0)
(225.553 0 0)
(232.23 0 0)
(234.631 0 0)
(236.554 0 0)
(247.257 0 0)
(272.839 0 0)
(323.591 0 0)
(422.243 0 0)
(632.718 0 0)
(544.779 0 0)
(7.58011 0 0)
(24.6597 0 0)
(14.6564 0 0)
(2.18666 0 0)
(0.253445 0 0)
(0.0290793 0 0)
(0.00298395 0 0)
(0.000276553 0 0)
(2.32564e-05 0 0)
(1.78537e-06 0 0)
(1.25932e-07 0 0)
(8.20848e-09 0 0)
(4.96385e-10 0 0)
(2.85634e-11 0 0)
(2.71762e-12 0 0)
(5.83493e-13 0 0)
(-1.63378e-13 0 0)
(2.31938e-13 0 0)
(4.9451e-13 0 0)
(-8.31477e-14 0 0)
(8.75239e-14 0 0)
(-1.7213e-13 0 0)
(-3.36967e-13 0 0)
(-6.27255e-13 0 0)
(-1.05029e-13 0 0)
(6.76852e-13 0 0)
(-7.39577e-13 0 0)
(-7.3666e-13 0 0)
(2.50902e-13 0 0)
(-4.43455e-13 0 0)
(-7.54165e-13 0 0)
(-6.85604e-14 0 0)
(0 0 0)
(0 0 0)
(0 0 0)
(0 0 0)
(-4.3762e-13 0 0)
(-2.27562e-13 0 0)
)
;

boundaryField
{
    sides
    {
        type            zeroGradient;
    }
    empty
    {
        type            empty;
    }
}


// ************************************************************************* //
