/*--------------------------------*- C++ -*----------------------------------*\
  =========                 |
  \\      /  F ield         | OpenFOAM: The Open Source CFD Toolbox
   \\    /   O peration     | Website:  https://openfoam.org
    \\  /    A nd           | Version:  6
     \\/     M anipulation  |
\*---------------------------------------------------------------------------*/
FoamFile
{
    version     2.0;
    format      ascii;
    class       surfaceScalarField;
    location    "9.9";
    object      phi;
}
// * * * * * * * * * * * * * * * * * * * * * * * * * * * * * * * * * * * * * //

dimensions      [0 3 -1 0 0 0 0];

internalField   nonuniform List<scalar> 
17370
(
-0.0899884
0.0898343
0.289165
-0.0714571
0.0537849
0.364448
-0.0382111
0.0278467
0.426533
-0.0198204
0.0147535
0.504319
-0.0108209
0.00823591
0.601987
-0.00616497
0.00479675
0.720426
-0.00368821
0.00290136
0.863693
-0.00220018
0.0016605
1.03599
-0.00114308
0.000721717
1.24292
-0.000310543
-5.01822e-05
1.49155
0.000410519
-0.000831809
1.49161
0.00124902
-0.00175738
1.2432
0.0022879
-0.00297673
1.03633
0.00375024
-0.00484374
0.864
0.0062017
-0.00826836
0.721124
0.0108542
-0.0147887
0.603149
0.0198558
-0.0278796
0.507463
0.0382393
-0.0538077
0.431736
0.0714748
-0.0898458
0.365147
0.089995
0.199016
-0.128241
0.0885142
0.0397269
-0.364684
0.353688
-0.0742289
0.0852243
-0.446412
0.45455
-0.0835143
0.0753754
-0.521013
0.529971
-0.0669692
0.0580109
-0.61276
0.62138
-0.049783
0.0411629
-0.727098
0.733951
-0.0339783
0.027126
-0.867568
0.872533
-0.0217374
0.0167722
-1.03843
1.04176
-0.0130461
0.0097152
-1.24455
1.2468
-0.00723645
0.00498625
-1.49265
1.49445
-0.00319628
0.00140318
-1.49237
1.494
0.0002318
-0.00186751
-1.24392
1.2457
0.00363434
-0.00540729
-1.03742
1.03988
0.00763601
-0.0100906
-0.866077
0.869779
0.0133959
-0.0170986
-0.724524
0.729885
0.0220326
-0.0273938
-0.608792
0.615948
0.0342119
-0.0413675
-0.514817
0.523025
0.0499588
-0.0581668
-0.439718
0.448112
0.067108
-0.0755016
-0.375314
0.377001
0.083623
-0.0853091
-0.257477
0.222939
0.0742867
-0.0397489
-0.0689314
0.0593022
0.00962922
-0.0506611
0.0570369
-0.374468
0.368092
-0.0561274
0.0524607
-0.453904
0.457571
-0.047568
0.0435839
-0.528143
0.532127
-0.0395128
0.0355659
-0.621425
0.625372
-0.0312191
0.0271383
-0.734982
0.739063
-0.0227745
0.0188767
-0.873887
0.877785
-0.0148994
0.0115167
-1.04302
1.0464
-0.00818443
0.00533885
-1.24819
1.25104
-0.00235955
-0.000468014
-1.49645
1.49927
0.0032675
-0.00622263
-1.49692
1.49988
0.009024
-0.0122994
-1.24966
1.25294
0.0156257
-0.019536
-1.04552
1.04943
0.023368
-0.0276667
-0.877381
0.88168
0.0316976
-0.0360005
-0.739708
0.74401
0.0399181
-0.0439433
-0.626893
0.630918
0.0478824
-0.0527304
-0.535289
0.540137
0.0563518
-0.0572123
-0.45792
0.45878
0.050791
-0.0311772
-0.336441
0.316828
0.00965024
-0.0688623
0.0592121
-0.0539511
0.0503905
0.00356061
-0.0302297
0.0396771
-0.359337
0.34989
-0.0426755
0.0418656
-0.459372
0.460182
-0.0389595
0.0359497
-0.535681
0.538691
-0.0326328
0.029886
-0.628455
0.631202
-0.0270266
0.0243651
-0.742175
0.744836
-0.0214089
0.0186709
-0.881154
0.883892
-0.0156207
0.0127125
-1.04977
1.05267
-0.00938241
0.00625978
-1.25413
1.25725
-0.00273713
-0.000658668
-1.50235
1.50575
0.00402975
-0.00750641
-1.50313
1.5066
0.0105752
-0.0138339
-1.25639
1.25965
0.0166605
-0.0196123
-1.05307
1.05603
0.0222636
-0.0251279
-0.885114
0.887978
0.0277103
-0.0305082
-0.747206
0.750004
0.0331957
-0.0364508
-0.634436
0.637691
0.0394104
-0.042265
-0.544138
0.546992
0.0430239
-0.0399544
-0.457332
0.454263
0.0304206
-0.0145842
-0.298746
0.28291
0.00359021
-0.0538388
0.0502486
-0.0477078
0.0457555
0.00195228
-0.0181326
0.0268659
-0.340422
0.331689
-0.0318196
0.0326354
-0.460243
0.459427
-0.0314649
0.0294696
-0.541166
0.543162
-0.0272615
0.0251836
-0.633753
0.635831
-0.0228431
0.0207086
-0.747289
0.749424
-0.0183234
0.0161102
-0.886308
0.888522
-0.0135426
0.0111032
-1.05522
1.05766
-0.00828103
0.00554723
-1.26017
1.2629
-0.00231159
-0.000898884
-1.5092
1.51241
0.0040994
-0.00728069
-1.51001
1.51319
0.00993665
-0.0126608
-1.26253
1.26525
0.0150064
-0.0174552
-1.05862
1.06107
0.0195619
-0.0218343
-0.89056
0.892832
0.023848
-0.0260485
-0.752716
0.754916
0.0280252
-0.0301285
-0.640455
0.642559
0.0320418
-0.0331154
-0.549042
0.550115
0.0322098
-0.027147
-0.45001
0.444947
0.0183142
-0.00776023
-0.269509
0.258955
0.0019814
-0.0475349
0.0455535
-0.0445895
0.0440662
0.000523305
-0.00723277
0.0127213
-0.324485
0.318997
-0.0174617
0.0197123
-0.45772
0.455469
-0.0204957
0.0203447
-0.544252
0.544403
-0.0198256
0.0190429
-0.637181
0.637963
-0.0180673
0.0171227
-0.750999
0.751943
-0.0157918
0.0142443
-0.890495
0.892043
-0.0122421
0.0101336
-1.06
1.06211
-0.00756556
0.00497436
-1.26556
1.26815
-0.00189773
-0.00113057
-1.51544
1.51847
0.00412636
-0.00711204
-1.51622
1.51921
0.00959462
-0.0120114
-1.26787
1.27029
0.0139579
-0.0157801
-1.06332
1.06514
0.017164
-0.0183291
-0.894586
0.895751
0.0191873
-0.0200665
-0.756338
0.757217
0.0207214
-0.0211308
-0.643838
0.644247
0.0211963
-0.0203129
-0.550054
0.54917
0.0179619
-0.0130972
-0.439706
0.434841
0.00748797
-0.00262708
-0.251517
0.246656
0.000566609
-0.0443518
0.0437852
-0.0438529
0.0437272
0.000125676
-0.00326146
0.0067366
-0.31477
0.311295
-0.0108292
0.0137067
-0.452947
0.450069
-0.0156659
0.0166267
-0.543951
0.54299
-0.0171123
0.0173338
-0.63806
0.637839
-0.0171561
0.0163834
-0.752806
0.753579
-0.0151132
0.0136714
-0.893359
0.8948
-0.0117675
0.00974702
-1.06402
1.06605
-0.00720974
0.00463114
-1.27067
1.27325
-0.00154186
-0.00148296
-1.52148
1.5245
0.00448232
-0.00748015
-1.52216
1.52516
0.00992824
-0.0123068
-1.27257
1.27495
0.0141796
-0.0159125
-1.06672
1.06845
0.0171907
-0.0182589
-0.896827
0.897895
0.0187598
-0.0187113
-0.757711
0.757662
0.0183734
-0.0177396
-0.643912
0.643278
0.0166354
-0.0145146
-0.547694
0.545573
0.0114823
-0.0072111
-0.430395
0.426124
0.00357486
-0.00108108
-0.243344
0.24085
0.000176945
-0.0435237
0.0433468
-0.0436565
0.0436389
1.76152e-05
-0.00167628
0.00413941
-0.308351
0.305888
-0.0079565
0.0115425
-0.446768
0.443182
-0.0147725
0.016867
-0.541462
0.539367
-0.0180059
0.0183263
-0.637607
0.637287
-0.0180605
0.0174368
-0.754218
0.754842
-0.0163273
0.0148677
-0.896292
0.897752
-0.0128045
0.0105489
-1.0682
1.07046
-0.00771509
0.00482714
-1.27598
1.27887
-0.0013628
-0.00207107
-1.52771
1.53114
0.00545441
-0.00877714
-1.52831
1.53164
0.0114781
-0.014061
-1.27745
1.28003
0.0160554
-0.0178154
-1.07025
1.07201
0.0190023
-0.0198561
-0.898868
0.899722
0.0203011
-0.0202845
-0.757506
0.757489
0.0197255
-0.0183302
-0.64236
0.640964
0.0160098
-0.0125496
-0.542732
0.539272
0.00875232
-0.00470949
-0.42192
0.417877
0.0020523
-0.000556664
-0.238914
0.237418
7.86309e-05
-0.0432217
0.0431431
-0.0436379
0.0436374
4.8153e-07
-0.000850298
0.00240298
-0.303886
0.302334
-0.00529304
0.00854561
-0.439607
0.436355
-0.0120353
0.0146924
-0.53686
0.534203
-0.0166655
0.0175106
-0.636837
0.635992
-0.0176206
0.0171245
-0.755341
0.755837
-0.0159669
0.0144636
-0.899273
0.900776
-0.0123847
0.0101349
-1.07276
1.07501
-0.00729692
0.00438761
-1.28183
1.28474
-0.00084118
-0.0027187
-1.53471
1.53827
0.00622613
-0.00960422
-1.53505
1.53843
0.0122682
-0.0147669
-1.28263
1.28513
0.0166747
-0.0183547
-1.07377
1.07545
0.0194725
-0.0201706
-0.900471
0.901169
0.0202803
-0.0199345
-0.757378
0.757033
0.0187721
-0.0164867
-0.639105
0.636819
0.0135547
-0.00977562
-0.535473
0.531694
0.00626896
-0.0031101
-0.41419
0.411031
0.00132136
-0.000393462
-0.236245
0.235317
7.72643e-05
-0.0430739
0.0429966
-0.0436518
0.0436894
-3.75955e-05
-0.000214574
0.00095416
-0.301212
0.300472
-0.00256679
0.00462301
-0.433661
0.431604
-0.00709699
0.00915128
-0.531748
0.529694
-0.0109174
0.0120264
-0.63483
0.633721
-0.0125831
0.012527
-0.756187
0.756243
-0.0119212
0.0109258
-0.902076
0.903071
-0.00937551
0.00757447
-1.07708
1.07889
-0.00519816
0.00269419
-1.28749
1.29
0.000391631
-0.0034683
-1.54166
1.54473
0.00646179
-0.00929945
-1.54161
1.54445
0.0114806
-0.0134378
-1.28741
1.28937
0.0148153
-0.0158758
-1.07689
1.07795
0.0164222
-0.0165446
-0.901737
0.901859
0.0161675
-0.0150924
-0.756194
0.755119
0.0135914
-0.0114059
-0.634437
0.632252
0.00899759
-0.00615999
-0.528287
0.52545
0.00378981
-0.00184193
-0.40849
0.406542
0.000802997
-0.000261545
-0.234602
0.23406
5.9138e-05
-0.0429242
0.042865
-0.0437445
0.0438111
-6.65952e-05
0.000170716
6.49828e-05
-0.30002
0.299784
-0.000754599
0.00175149
-0.430131
0.429134
-0.00306719
0.00425141
-0.528084
0.5269
-0.00536991
0.00613855
-0.632761
0.631992
-0.00665069
0.00679532
-0.756145
0.756001
-0.00658019
0.00604037
-0.9038
0.90434
-0.00506476
0.00383498
-1.08039
1.08162
-0.00212748
0.000271783
-1.29218
1.29404
0.00203712
-0.00431943
-1.54742
1.5497
0.0064898
-0.00848692
-1.54687
1.54887
0.00994281
-0.0111044
-1.29093
1.29209
0.0117853
-0.0121458
-1.07863
1.07899
0.0121166
-0.0117126
-0.901663
0.901259
0.0110209
-0.00993289
-0.754002
0.752914
0.00867153
-0.00704809
-0.630334
0.628711
0.00543201
-0.00367335
-0.523192
0.521433
0.00228827
-0.00118104
-0.405078
0.403971
0.000571318
-0.000214485
-0.233636
0.233279
5.53446e-05
-0.0428121
0.0427568
-0.0438888
0.0439747
-8.58587e-05
0.000395403
-0.00042921
-0.299718
0.299752
0.000258254
0.000101356
-0.428499
0.428139
-0.000638771
0.00115564
-0.526083
0.525566
-0.00166771
0.00203371
-0.631428
0.631062
-0.00228048
0.00233599
-0.755879
0.755824
-0.00217867
0.00181516
-0.904762
0.905125
-0.00115523
0.000311793
-1.08263
1.08347
0.000873496
-0.00216837
-1.29559
1.29689
0.00377582
-0.00533765
-1.5516
1.55316
0.00677259
-0.0079822
-1.55045
1.55166
0.00875794
-0.00929088
-1.29292
1.29345
0.0094846
-0.00938312
-1.07909
1.07899
0.00904022
-0.00843837
-0.900728
0.900126
0.00771099
-0.00676141
-0.751887
0.750938
0.00579009
-0.00465648
-0.627356
0.626222
0.00360899
-0.00252477
-0.520065
0.51898
0.00168254
-0.000982334
-0.40311
0.40241
0.00054679
-0.000237313
-0.232957
0.232648
6.92736e-05
-0.0426953
0.042626
-0.0440707
0.0441761
-0.000105455
0.000571625
-0.000773585
-0.299869
0.300071
0.000876699
-0.000874788
-0.427982
0.427981
0.000795609
-0.000705747
-0.525287
0.525197
0.000628831
-0.000605234
-0.630877
0.630854
0.000654732
-0.000789351
-0.755858
0.755993
0.00105795
-0.00143182
-0.905477
0.905851
0.00199928
-0.00266599
-1.0842
1.08487
0.0035562
-0.00449208
-1.29798
1.29891
0.00561216
-0.00665056
-1.55444
1.55548
0.00753163
-0.00819866
-1.55258
1.55324
0.00852333
-0.00856103
-1.2937
1.29374
0.00839159
-0.00800469
-1.07874
1.07835
0.00750744
-0.00683251
-0.899484
0.898809
0.00613316
-0.00531055
-0.750061
0.749238
0.004534
-0.00368331
-0.625256
0.624405
0.00293217
-0.00216897
-0.518091
0.517328
0.00156095
-0.001012
-0.401808
0.401259
0.000617832
-0.000289956
-0.232335
0.232007
8.97679e-05
-0.0425473
0.0424575
-0.0442932
0.0444247
-0.000131491
0.000756558
-0.00108792
-0.300341
0.300672
0.0013923
-0.00161085
-0.428098
0.428317
0.0018134
-0.00199852
-0.525257
0.525443
0.00222378
-0.00246383
-0.63097
0.63121
0.00277569
-0.0031158
-0.75623
0.75657
0.00356051
-0.00404113
-0.90627
0.906751
0.00465584
-0.00529561
-1.08551
1.08615
0.00607191
-0.00682316
-1.29974
1.30049
0.00764719
-0.00833068
-1.55632
1.557
0.00881585
-0.00904664
-1.55368
1.55391
0.009015
-0.00879616
-1.29365
1.29343
0.00839114
-0.00781789
-1.07786
1.07729
0.00720093
-0.00646307
-0.898103
0.897365
0.00575941
-0.00497981
-0.748448
0.747668
0.00427776
-0.0035353
-0.623626
0.622884
0.00289333
-0.00224001
-0.516639
0.515986
0.00169872
-0.00116977
-0.400731
0.400202
0.000748109
-0.000364092
-0.231655
0.231271
0.000115786
-0.0423554
0.0422396
-0.0445734
0.0447398
-0.000166386
0.000981787
-0.0014425
-0.301067
0.301528
0.00191254
-0.00230816
-0.428625
0.429021
0.00272759
-0.00312493
-0.525737
0.526134
0.00359248
-0.00405562
-0.631564
0.632027
0.00460681
-0.00515378
-0.757013
0.75756
0.00580273
-0.00644022
-0.907305
0.907943
0.00718281
-0.00788949
-1.08681
1.08752
0.00867282
-0.0093615
-1.3012
1.30188
0.0100313
-0.0104901
-1.55756
1.55802
0.0107016
-0.0106303
-1.55398
1.5539
0.0103419
-0.00983458
-1.29305
1.29255
0.00924421
-0.00849692
-1.07663
1.07588
0.00776011
-0.00692627
-0.896586
0.895752
0.0061625
-0.0053424
-0.746878
0.746058
0.00462105
-0.00387058
-0.62215
0.621399
0.0032263
-0.00256564
-0.51534
0.514679
0.00200074
-0.00141906
-0.399654
0.399073
0.000927114
-0.000458469
-0.230848
0.230379
0.000147452
-0.0421088
0.0419613
-0.0449287
0.0451398
-0.000211122
0.00126112
-0.00187076
-0.302059
0.302669
0.00251771
-0.00308799
-0.4295
0.43007
0.00371303
-0.00431018
-0.526629
0.527226
0.00500812
-0.00568882
-0.632598
0.633279
0.00648208
-0.00724888
-0.758215
0.758982
0.00812996
-0.00896343
-0.908673
0.909507
0.00989216
-0.0107318
-1.08828
1.08912
0.0116067
-0.0123174
-1.30257
1.30329
0.0129299
-0.0132523
-1.5584
1.55872
0.0132622
-0.0129435
-1.55371
1.55339
0.0124201
-0.0116661
-1.29192
1.29116
0.0108689
-0.00991972
-1.07504
1.07409
0.00902171
-0.00803341
-0.894849
0.893861
0.00714752
-0.00621121
-0.745189
0.744253
0.00539689
-0.00455584
-0.620613
0.619772
0.0038353
-0.00309187
-0.513986
0.513243
0.002444
-0.00175744
-0.398445
0.397758
0.00115919
-0.000577115
-0.229858
0.229276
0.000186434
-0.0417955
0.0416091
-0.0453821
0.0456524
-0.000270309
0.00162182
-0.00241559
-0.303363
0.304157
0.00327195
-0.00404034
-0.430727
0.431495
0.00489132
-0.00570556
-0.527924
0.528738
0.00665226
-0.00757027
-0.634077
0.634995
0.00863209
-0.00964916
-0.759873
0.76089
0.0108035
-0.0118781
-0.910455
0.91153
0.0130502
-0.0140811
-1.09005
1.09108
0.0151158
-0.0159122
-1.30403
1.30483
0.0165339
-0.016773
-1.559
1.55924
0.0166178
-0.0160664
-1.55295
1.5524
0.0153077
-0.0142844
-1.29028
1.28926
0.0132449
-0.0120444
-1.07302
1.07182
0.010931
-0.00972378
-0.89277
0.891563
0.00865347
-0.00753099
-0.743231
0.742109
0.00655984
-0.00555976
-0.618861
0.617861
0.00470311
-0.0038158
-0.512438
0.51155
0.00303482
-0.00219546
-0.397003
0.396163
0.00145388
-0.000725632
-0.228626
0.227897
0.000234749
-0.0414003
0.0411656
-0.045965
0.0463151
-0.00035009
0.00209641
-0.00312637
-0.305056
0.306086
0.00424549
-0.00525492
-0.432358
0.433368
0.00637195
-0.0074375
-0.529671
0.530737
0.00866974
-0.00986265
-0.63606
0.637253
0.0112403
-0.0125577
-0.76206
0.763377
0.0140466
-0.0154229
-0.912744
0.91412
0.0169071
-0.0181917
-1.09222
1.09351
0.0194512
-0.0203861
-1.30568
1.30662
0.0210635
-0.0212457
-1.55945
1.55963
0.0209307
-0.0201283
-1.55173
1.55093
0.0191015
-0.017763
-1.28808
1.28674
0.0164292
-0.0149115
-1.07047
1.06895
0.0135194
-0.0120221
-0.890215
0.888718
0.0107022
-0.00932324
-0.740864
0.739485
0.00813245
-0.00690655
-0.616761
0.615535
0.00585514
-0.00476288
-0.510577
0.509485
0.00379698
-0.00275289
-0.395233
0.394189
0.00182566
-0.000911913
-0.227083
0.226169
0.000295258
-0.0409042
0.040609
-0.046719
0.0471794
-0.000460326
0.00273263
-0.00407121
-0.307246
0.308584
0.00552527
-0.00682927
-0.434489
0.435793
0.00825826
-0.00961447
-0.531969
0.533326
0.0111796
-0.0127013
-0.638652
0.640174
0.0144675
-0.0161622
-0.764887
0.766582
0.0180773
-0.0198412
-0.915657
0.91742
0.0217279
-0.0233403
-1.09492
1.09653
0.0248937
-0.0260155
-1.30762
1.30874
0.0267813
-0.0269119
-1.55978
1.55991
0.0264166
-0.0253177
-1.54998
1.54888
0.0239656
-0.0222402
-1.28522
1.28349
0.0205415
-0.0186254
-1.06723
1.06532
0.0168801
-0.0150127
-0.887031
0.885164
0.0133728
-0.0116628
-0.73794
0.73623
0.0101862
-0.00866331
-0.614178
0.612655
0.00735279
-0.00598592
-0.508288
0.506921
0.00477382
-0.00346182
-0.393032
0.39172
0.00229681
-0.00114806
-0.22515
0.224002
0.000372619
-0.0402846
0.0399119
-0.0477028
0.0483158
-0.00061292
0.00359228
-0.00533436
-0.310083
0.311825
0.00720827
-0.00886173
-0.437264
0.438917
0.0106477
-0.0123415
-0.534968
0.536662
0.0143113
-0.016256
-0.642002
0.643947
0.0185413
-0.0207419
-0.768505
0.770705
0.0232157
-0.0254689
-0.919345
0.921598
0.0278592
-0.0298817
-1.09826
1.10029
0.0317993
-0.0331494
-1.30993
1.31128
0.0340189
-0.0340799
-1.55998
1.56004
0.0333568
-0.0318877
-1.54759
1.54612
0.03013
-0.0279213
-1.28153
1.27932
0.025767
-0.0233525
-1.06315
1.06073
0.0211655
-0.0188362
-0.88304
0.880711
0.0167978
-0.0146763
-0.734291
0.732169
0.0128434
-0.0109468
-0.610963
0.609067
0.0093046
-0.00757895
-0.505443
0.503717
0.00604153
-0.00437624
-0.390284
0.388619
0.00290327
-0.0014531
-0.22273
0.22128
0.000474195
-0.0395142
0.03904
-0.0490039
0.0498245
-0.000820571
0.00474965
-0.0070197
-0.313783
0.316053
0.00942363
-0.011505
-0.440879
0.44296
0.0137255
-0.0158453
-0.538863
0.540983
0.0183537
-0.0208802
-0.646296
0.648822
0.02388
-0.0267611
-0.773102
0.775983
0.0299633
-0.0328335
-0.923993
0.926863
0.0358243
-0.0383256
-1.1024
1.1049
0.0406567
-0.0422504
-1.31266
1.31425
0.0432018
-0.0431377
-1.55999
1.55993
0.0421033
-0.0401557
-1.5444
1.54245
0.0378857
-0.0350714
-1.2768
1.27399
0.0323486
-0.0293141
-1.05798
1.05495
0.0265783
-0.0236779
-0.878029
0.875129
0.0211508
-0.0185296
-0.729718
0.727097
0.0162666
-0.0139186
-0.606941
0.604593
0.0118685
-0.00968716
-0.501888
0.499707
0.00772219
-0.0055825
-0.38685
0.38471
0.00369939
-0.00185266
-0.219705
0.217859
0.000608597
-0.0385601
0.0379515
-0.0507516
0.0518676
-0.00111602
0.00637109
-0.00937024
-0.318639
0.321638
0.0124937
-0.0151519
-0.445583
0.448241
0.0179605
-0.0206648
-0.543912
0.546616
0.0239167
-0.0272087
-0.651825
0.655117
0.0311125
-0.0348253
-0.778956
0.782668
0.0389081
-0.0425328
-0.929808
0.933432
0.0462656
-0.0493089
-1.10747
1.11051
0.0520645
-0.0538698
-1.31582
1.31763
0.0548241
-0.0545256
-1.55968
1.55938
0.0530489
-0.0504746
-1.54017
1.53759
0.0475566
-0.0439871
-1.27078
1.26721
0.0405604
-0.0367595
-1.05148
1.04768
0.0333438
-0.0297357
-0.871753
0.868145
0.0266059
-0.0233762
-0.723993
0.720763
0.020598
-0.0177176
-0.601896
0.599015
0.0151854
-0.0124524
-0.49743
0.494697
0.00994626
-0.00717996
-0.382555
0.379789
0.00474553
-0.00236866
-0.215931
0.213554
0.000778824
-0.037378
0.0365992
-0.0531326
0.0547259
-0.00159323
0.00889579
-0.0129578
-0.325056
0.329118
0.0170498
-0.0204556
-0.451749
0.455155
0.0240412
-0.0275496
-0.550468
0.553977
0.0318338
-0.0361678
-0.658915
0.663249
0.0412266
-0.0459386
-0.786413
0.791125
0.0510365
-0.0554773
-0.937063
0.941504
0.0599486
-0.0635087
-1.11355
1.11711
0.0666283
-0.0685509
-1.31934
1.32126
0.0693646
-0.0686642
-1.5588
1.5581
0.0665665
-0.0631799
-1.53458
1.53119
0.059452
-0.0549573
-1.26316
1.25866
0.0506747
-0.0459413
-1.04336
1.03863
0.0416927
-0.0372082
-0.863933
0.859448
0.0333245
-0.0293319
-0.716855
0.712862
0.0259144
-0.0223883
-0.595582
0.592056
0.0192843
-0.0159083
-0.491822
0.488447
0.01276
-0.0092239
-0.377153
0.373617
0.00608102
-0.00301336
-0.211209
0.208142
0.000981439
-0.0359046
0.0349231
-0.0564574
0.0588853
-0.00242795
0.0130986
-0.0186786
-0.333698
0.339278
0.0240092
-0.0283742
-0.459964
0.464329
0.0330174
-0.0376567
-0.559054
0.563693
0.0433288
-0.0489582
-0.668081
0.67371
0.0553727
-0.0611981
-0.795833
0.801658
0.0673564
-0.0726034
-0.945919
0.951166
0.0777645
-0.0817446
-1.12059
1.12457
0.0850651
-0.086911
-1.32295
1.32479
0.0873389
-0.0859966
-1.55698
1.55563
0.0830506
-0.0786356
-1.52725
1.52283
0.0739249
-0.0683351
-1.2536
1.24801
0.0630502
-0.0572267
-1.0333
1.02747
0.0519983
-0.0464666
-0.854263
0.848731
0.0416628
-0.0367202
-0.708011
0.703068
0.0324949
-0.0281493
-0.587722
0.583376
0.0243333
-0.020183
-0.484771
0.480621
0.0162667
-0.0118127
-0.370302
0.365848
0.00779003
-0.00383667
-0.205254
0.201301
0.00123335
-0.0340581
0.0328248
-0.0613319
0.0652732
-0.00394134
0.020254
-0.0280745
-0.345648
0.353468
0.0351862
-0.0409291
-0.471018
0.47676
0.0471118
-0.0533563
-0.570342
0.576586
0.0608368
-0.0679828
-0.67986
0.687006
0.0758317
-0.0827353
-0.807487
0.814391
0.0898168
-0.0956614
-0.956305
0.962149
0.101196
-0.105252
-1.12827
1.13232
0.108355
-0.109739
-1.32618
1.32756
0.109367
-0.107035
-1.55365
1.55131
0.102945
-0.0972592
-1.51771
1.51202
0.0913974
-0.0845643
-1.24177
1.23493
0.078167
-0.0711479
-1.021
1.01398
0.0648478
-0.0581631
-0.842442
0.835758
0.0523346
-0.0463101
-0.697137
0.691113
0.0411375
-0.0358126
-0.577973
0.572648
0.0311418
-0.026026
-0.475907
0.470791
0.0210965
-0.0153989
-0.361588
0.35589
0.01017
-0.00499322
-0.197668
0.192491
0.00158554
-0.0317361
0.0301505
-0.0689664
0.0761977
-0.0072313
0.0339081
-0.0453879
-0.363012
0.374492
0.0549611
-0.0623914
-0.486143
0.493574
0.070421
-0.0785018
-0.585127
0.593208
0.0878608
-0.0963722
-0.6945
0.703011
0.105316
-0.112871
-0.821112
0.828667
0.120333
-0.126216
-0.967628
0.973511
0.131485
-0.135014
-1.13581
1.13934
0.137278
-0.137637
-1.32821
1.32857
0.135928
-0.132148
-1.54808
1.5443
0.126554
-0.119331
-1.50544
1.49822
0.112142
-0.10395
-1.22735
1.21915
0.0963711
-0.0881168
-1.00625
0.997995
0.0807302
-0.0728934
-0.828277
0.82044
0.0660403
-0.0589153
-0.683994
0.676869
0.0527608
-0.0464168
-0.566
0.559656
0.0408613
-0.0346978
-0.46476
0.458596
0.0284971
-0.0209658
-0.350328
0.342797
0.0137922
-0.00660217
-0.187766
0.180576
0.00198153
-0.0287915
0.02681
-0.0833336
0.0864655
-0.00313181
0.0224319
-0.032222
-0.389092
0.398883
0.0412265
-0.0490372
-0.506385
0.514196
0.058243
-0.0680212
-0.603126
0.612904
0.0788214
-0.0884464
-0.711121
0.720746
0.0991413
-0.10858
-0.835477
0.844915
0.11838
-0.126784
-0.978493
0.986897
0.135153
-0.14186
-1.14182
1.14853
0.147834
-0.151737
-1.32779
1.33169
0.153806
-0.153166
-1.53934
1.5387
0.149688
-0.143752
-1.48995
1.48401
0.13676
-0.127851
-1.21013
1.20122
0.119098
-0.108551
-0.98902
0.978474
0.0988169
-0.0880442
-0.811818
0.801045
0.0783413
-0.0679619
-0.668647
0.658267
0.0585614
-0.048955
-0.551751
0.542145
0.0406912
-0.0313299
-0.450949
0.441587
0.0226625
-0.0136787
-0.33537
0.326386
0.00688271
-0.00206136
-0.174007
0.169186
2.8309e-05
-0.0248779
0.0248496
-0.0940129
0.0900612
0.00395169
-0.000696226
-0.00461427
-0.411919
0.41723
0.0117697
-0.0187346
-0.526135
0.5331
0.0275965
-0.0361538
-0.622836
0.631394
0.0458747
-0.0547303
-0.730345
0.7392
0.0641767
-0.0727293
-0.853973
0.862526
0.0816391
-0.0890105
-0.995112
1.00248
0.0965507
-0.102286
-1.15516
1.16089
0.107389
-0.110493
-1.33543
1.33853
0.111611
-0.110343
-1.53742
1.53615
0.106413
-0.100233
-1.47748
1.4713
0.0930104
-0.0841069
-1.19201
1.18311
0.0755259
-0.0657075
-0.967862
0.958044
0.0565022
-0.0462742
-0.789778
0.77955
0.0370843
-0.0276136
-0.646469
0.636998
0.0194852
-0.0111252
-0.530231
0.521871
0.00394774
0.0027865
-0.429856
0.423122
-0.00725094
0.00960436
-0.315958
0.313604
-0.00912163
0.00605796
-0.162382
0.165445
-0.00260734
-0.0231764
0.0257837
-0.0923028
0.0883511
0.00395163
-0.00805988
0.00596848
-0.426806
0.428897
-0.00163066
-0.00406557
-0.542815
0.548511
0.0113177
-0.0185807
-0.640069
0.647332
0.0267878
-0.0343116
-0.747536
0.75506
0.0425712
-0.0499379
-0.870435
0.877802
0.0574251
-0.0639864
-1.00973
1.0163
0.0705654
-0.0757102
-1.16635
1.1715
0.0799386
-0.0823792
-1.34119
1.34363
0.0832731
-0.0818682
-1.53448
1.53307
0.0781042
-0.0724335
-1.46493
1.45925
0.0660253
-0.0584437
-1.17459
1.16701
0.0509318
-0.0427154
-0.948514
0.940298
0.0351582
-0.0269316
-0.770142
0.761915
0.0198941
-0.0127032
-0.627553
0.620362
0.00680444
-0.000845293
-0.512414
0.506455
-0.00373109
0.00759762
-0.414479
0.410613
-0.00969322
0.00959782
-0.306982
0.307078
-0.0075878
0.00448743
-0.163803
0.166904
-0.00180628
-0.0258501
0.0276563
-0.089238
0.0855765
0.00366157
-0.0103558
0.0100633
-0.436013
0.436305
-0.00732093
0.00264419
-0.55585
0.560527
0.00358258
-0.00954675
-0.654268
0.660232
0.0164384
-0.022778
-0.762288
0.768628
0.0297107
-0.0359297
-0.884725
0.890944
0.0426402
-0.0482059
-1.02247
1.02804
0.0540289
-0.0582112
-1.17637
1.18055
0.0620083
-0.0642291
-1.34606
1.34828
0.0649839
-0.0635637
-1.53159
1.53017
0.0604391
-0.055746
-1.45357
1.44887
0.0504115
-0.0438707
-1.15981
1.15327
0.0377893
-0.0312509
-0.932512
0.925973
0.025186
-0.0189539
-0.754454
0.748222
0.013335
-0.00783583
-0.613126
0.607627
0.00335339
0.000785909
-0.49963
0.49549
-0.0037457
0.00608985
-0.404213
0.401869
-0.00718556
0.00643345
-0.302257
0.30301
-0.0048881
0.00283631
-0.165463
0.167515
-0.00118029
-0.0272555
0.0284358
-0.0864393
0.0834937
0.00294556
-0.0101141
0.0109311
-0.441873
0.441056
-0.00880428
0.00509106
-0.566623
0.570336
-9.02836e-05
-0.00517478
-0.666134
0.671399
0.0108802
-0.0163939
-0.77457
0.780084
0.0223395
-0.0276974
-0.896809
0.902167
0.03345
-0.0384362
-1.03352
1.0385
0.0434367
-0.0473979
-1.1847
1.18866
0.0508288
-0.0528874
-1.35035
1.35241
0.0536781
-0.0525501
-1.52888
1.52775
0.0499757
-0.0458882
-1.44396
1.43987
0.0414113
-0.0360625
-1.14717
1.14182
0.0310116
-0.0254913
-0.919661
0.91414
0.0205899
-0.0154862
-0.742226
0.737123
0.0111082
-0.00675925
-0.6022
0.597851
0.00333952
-0.000251692
-0.490348
0.487261
-0.00206734
0.00376677
-0.397135
0.395436
-0.00440654
0.00412785
-0.298999
0.299277
-0.00329705
0.00188143
-0.165335
0.16675
-0.000872778
-0.0276718
0.0285446
-0.0843393
0.0819582
0.00238114
-0.00898256
0.00990871
-0.445623
0.444697
-0.00879073
0.00561933
-0.574956
0.578128
-0.000980251
-0.00342764
-0.676133
0.680541
0.00827956
-0.0130267
-0.78508
0.789827
0.0182604
-0.0230287
-0.907278
0.912047
0.028304
-0.0326941
-1.04327
1.04766
0.0372575
-0.040939
-1.19242
1.1961
0.0441473
-0.0461475
-1.35437
1.35637
0.0470312
-0.0465182
-1.52678
1.52626
0.0443353
-0.0409602
-1.43566
1.43229
0.0370577
-0.0323851
-1.1366
1.13192
0.0281915
-0.0232951
-0.90881
0.903913
0.0190191
-0.0147173
-0.732209
0.727907
0.0109674
-0.00723217
-0.593583
0.589848
0.00423936
-0.00135708
-0.483203
0.480321
-0.000499269
0.00200159
-0.391519
0.390017
-0.00292428
0.00290421
-0.29553
0.29555
-0.00238217
0.00146853
-0.164174
0.165087
-0.000703762
-0.0275928
0.0282965
-0.0829121
0.0811127
0.00179941
-0.00736277
0.00837707
-0.448318
0.447304
-0.0073393
0.00486438
-0.582288
0.584763
-0.000763207
-0.00313957
-0.684729
0.688632
0.00771191
-0.0117777
-0.794392
0.798458
0.0163547
-0.0205738
-0.916873
0.921092
0.025574
-0.0295907
-1.05214
1.05615
0.0337227
-0.0372948
-1.19969
1.20326
0.0407681
-0.0427829
-1.35848
1.3605
0.0439437
-0.0436259
-1.52553
1.52521
0.0420864
-0.0389233
-1.42887
1.42571
0.0355924
-0.0315324
-1.12726
1.1232
0.0276424
-0.0233756
-0.8992
0.894933
0.0194493
-0.0153442
-0.723475
0.71937
0.0121144
-0.00857346
-0.585966
0.582425
0.00565128
-0.00305534
-0.476745
0.474149
0.00109638
0.00060499
-0.386598
0.384897
-0.00154642
0.00178797
-0.292183
0.291942
-0.00158111
0.00105752
-0.162522
0.163045
-0.000556797
-0.0272777
0.0278345
-0.0821713
0.0807786
0.00139269
-0.0057971
0.0067839
-0.45042
0.449434
-0.00571091
0.00338246
-0.58859
0.590918
0.000264978
-0.0036923
-0.692374
0.695801
0.00756425
-0.0114552
-0.802621
0.806512
0.0156616
-0.0200049
-0.925204
0.929548
0.0243006
-0.0281419
-1.06032
1.06416
0.0324141
-0.0358035
-1.20678
1.21017
0.0389022
-0.0414101
-1.3625
1.36501
0.0428893
-0.0429983
-1.52503
1.52514
0.0417527
-0.0392232
-1.4228
1.42027
0.0362288
-0.0324661
-1.11889
1.11512
0.0288872
-0.0248269
-0.890569
0.886509
0.0210987
-0.0173083
-0.715319
0.711528
0.0138919
-0.0104997
-0.578704
0.575312
0.00771302
-0.00491002
-0.470834
0.468031
0.0027739
-0.0011736
-0.381591
0.379991
1.92776e-05
0.000613805
-0.288628
0.287995
-0.000829025
0.00068206
-0.160507
0.160653
-0.000442644
-0.0267881
0.0272307
-0.0820545
0.0808842
0.00117033
-0.00419493
0.00483878
-0.452407
0.451763
-0.0039046
0.00168161
-0.594269
0.596492
0.00151392
-0.00475208
-0.699376
0.702614
0.00841065
-0.0118831
-0.810319
0.813792
0.0161626
-0.0197262
-0.933384
0.936948
0.023985
-0.0276684
-1.06821
1.0719
0.031848
-0.0354575
-1.21362
1.21723
0.0388981
-0.041275
-1.36738
1.36976
0.0431749
-0.0437533
-1.52523
1.52581
0.0431756
-0.0409399
-1.41765
1.41542
0.038283
-0.0347423
-1.11141
1.10787
0.0313359
-0.0273171
-0.882193
0.878174
0.0237243
-0.0198241
-0.70747
0.70357
0.0163955
-0.0128794
-0.57167
0.568154
0.00988197
-0.00714188
-0.46471
0.46197
0.00478576
-0.00291653
-0.376524
0.374655
0.00143929
-0.000523781
-0.284728
0.283812
-2.11026e-05
0.000367988
-0.157999
0.157652
-0.000327378
-0.0261046
0.026432
-0.0822372
0.0813822
0.00085502
-0.00290506
0.00298702
-0.454629
0.454547
-0.00220801
6.82933e-05
-0.599146
0.601286
0.00269105
-0.00574569
-0.705766
0.70882
0.00918806
-0.0127415
-0.817221
0.820774
0.0164046
-0.0200942
-0.940744
0.944433
0.0242979
-0.0277768
-1.07603
1.0795
0.0320695
-0.0356687
-1.22074
1.22434
0.0392118
-0.0421638
-1.37263
1.37558
0.044614
-0.0455412
-1.52651
1.52743
0.0452438
-0.0436686
-1.41333
1.41176
0.041432
-0.0380469
-1.10414
1.10076
0.0346374
-0.0308186
-0.873987
0.870169
0.0268602
-0.0230196
-0.69935
0.695509
0.0194939
-0.0157613
-0.564565
0.560832
0.01274
-0.00966034
-0.458391
0.455311
0.00715791
-0.004809
-0.371381
0.369032
0.00314853
-0.00183018
-0.280448
0.27913
0.000766901
2.4723e-06
-0.154985
0.154215
-0.000236774
-0.0251846
0.0254213
-0.0828005
0.0820817
0.000718733
-0.00192166
0.00197187
-0.457109
0.457059
-0.000645834
-0.00114724
-0.603999
0.605792
0.00395159
-0.00681758
-0.711568
0.714434
0.0100607
-0.0132008
-0.824079
0.827219
0.0169457
-0.0203109
-0.948146
0.951511
0.0244459
-0.0283284
-1.08345
1.08733
0.0322778
-0.0362197
-1.22805
1.23199
0.0402247
-0.0433312
-1.37856
1.38166
0.0462464
-0.0480089
-1.52869
1.53046
0.0481963
-0.0472426
-1.41006
1.40911
0.0451528
-0.0420509
-1.09734
1.09424
0.038818
-0.034873
-0.865874
0.861929
0.0309763
-0.0269059
-0.691083
0.687013
0.0232101
-0.019193
-0.556832
0.552815
0.0158394
-0.012572
-0.451691
0.448423
0.00965137
-0.00699067
-0.365607
0.362947
0.00493909
-0.00315879
-0.275572
0.273792
0.00172774
-0.000482086
-0.151443
0.150197
-9.12119e-05
-0.0240946
0.0241858
-0.083579
0.0830051
0.0005739
-0.000928514
0.000739897
-0.459737
0.459925
0.000406894
-0.00231399
-0.608341
0.610248
0.00495119
-0.00761031
-0.717023
0.719683
0.010881
-0.0138437
-0.83038
0.833343
0.0174042
-0.0208572
-0.955339
0.958792
0.0248784
-0.0287114
-1.0911
1.09493
0.0328664
-0.0368513
-1.2359
1.23989
0.041083
-0.04499
-1.38517
1.38908
0.0484425
-0.0506261
-1.53234
1.53453
0.0515887
-0.0510007
-1.40811
1.40752
0.049453
-0.0467927
-1.09105
1.08839
0.0434892
-0.039538
-0.857636
0.853684
0.0355734
-0.0311821
-0.682465
0.678074
0.0273456
-0.0229919
-0.548741
0.544387
0.0193942