/*--------------------------------*- C++ -*----------------------------------*\
  =========                 |
  \\      /  F ield         | OpenFOAM: The Open Source CFD Toolbox
   \\    /   O peration     | Website:  https://openfoam.org
    \\  /    A nd           | Version:  6
     \\/     M anipulation  |
\*---------------------------------------------------------------------------*/
FoamFile
{
    version     2.0;
    format      ascii;
    class       surfaceScalarField;
    location    "34";
    object      phi;
}
// * * * * * * * * * * * * * * * * * * * * * * * * * * * * * * * * * * * * * //

dimensions      [0 3 -1 0 0 0 0];

internalField   nonuniform List<scalar> 
17370
(
-0.0900012
0.0898496
0.289162
-0.0714626
0.0537516
0.364486
-0.0381172
0.0276866
0.426599
-0.0196315
0.0145945
0.504289
-0.0107472
0.00825188
0.601897
-0.00624852
0.00487339
0.720433
-0.00371823
0.00289089
0.863734
-0.00216623
0.00162073
1.036
-0.00111514
0.000709882
1.24291
-0.000306348
-8.06978e-05
1.49158
0.000455706
-0.000857979
1.49159
0.00125365
-0.00174636
1.24318
0.00228117
-0.00299644
1.03635
0.00381711
-0.00496593
0.864055
0.00633456
-0.00832985
0.721053
0.010818
-0.0146584
0.603055
0.0196896
-0.0277382
0.507488
0.0381631
-0.0537901
0.431795
0.0714936
-0.08987
0.365152
0.090013
0.198998
-0.128129
0.0882149
0.0399141
-0.364591
0.353364
-0.0746852
0.0859125
-0.446472
0.45431
-0.0844139
0.0765762
-0.521184
0.529892
-0.0684818
0.0597738
-0.612779
0.621557
-0.0515874
0.0428098
-0.726884
0.734147
-0.0353516
0.0280885
-0.86747
0.872563
-0.0225003
0.0174073
-1.03847
1.0419
-0.01362
0.0101932
-1.2446
1.24701
-0.00759977
0.0051838
-1.49263
1.4946
-0.00324815
0.00128566
-1.49249
1.49421
0.000396324
-0.00211348
-1.24399
1.24587
0.00401584
-0.005901
-1.03751
1.04006
0.00826684
-0.0108141
-0.866103
0.869849
0.0141917
-0.017938
-0.724397
0.729947
0.0229888
-0.0285393
-0.608704
0.616124
0.0357603
-0.0431802
-0.514903
0.523055
0.0519176
-0.0600694
-0.439862
0.447927
0.0687408
-0.0768065
-0.375301
0.376756
0.0846119
-0.0860666
-0.257342
0.222507
0.0747902
-0.0399553
-0.0684985
0.0586665
0.00983202
-0.0518499
0.0584468
-0.374106
0.367509
-0.0575395
0.0537923
-0.453579
0.457326
-0.0487021
0.0447483
-0.527924
0.531878
-0.0409045
0.0372623
-0.621537
0.625179
-0.0331609
0.0290967
-0.735321
0.739385
-0.0245547
0.020433
-0.87431
0.878432
-0.0161373
0.0124829
-1.04346
1.04711
-0.00878519
0.00563618
-1.24854
1.25169
-0.00232449
-0.000748942
-1.49665
1.49972
0.00379953
-0.00705143
-1.49722
1.50047
0.0101233
-0.0137265
-1.25009
1.25369
0.0172936
-0.0214998
-1.04594
1.05014
0.0255444
-0.0300049
-0.877785
0.882246
0.0339957
-0.0380172
-0.739931
0.743953
0.0415888
-0.04536
-0.626802
0.630573
0.0492537
-0.0542867
-0.534835
0.539868
0.0579742
-0.0588061
-0.457503
0.458335
0.0521235
-0.0319537
-0.335799
0.315629
0.00987722
-0.0683787
0.0585015
-0.052909
0.0489077
0.00400132
-0.0332044
0.0437694
-0.358057
0.347492
-0.0474854
0.0468732
-0.459249
0.459861
-0.043833
0.0404949
-0.535763
0.539101
-0.0367391
0.0334523
-0.628482
0.631768
-0.0300371
0.0270301
-0.742597
0.745604
-0.023801
0.0207176
-0.881953
0.885036
-0.0172089
0.0138473
-1.05069
1.05405
-0.0100784
0.00656991
-1.25509
1.2586
-0.00264688
-0.00110568
-1.50321
1.50696
0.00482968
-0.00867277
-1.50413
1.50797
0.0120787
-0.0157141
-1.25744
1.26108
0.0189481
-0.0223169
-1.05396
1.05733
0.0252813
-0.0283928
-0.885757
0.888869
0.0312976
-0.0346018
-0.747234
0.750538
0.0377881
-0.0414388
-0.634379
0.63803
0.0446888
-0.0476323
-0.544195
0.547138
0.0481458
-0.0442922
-0.456647
0.452793
0.0335655
-0.0161691
-0.296309
0.278913
0.00405596
-0.0526961
0.0486401
-0.0458224
0.0433205
0.00250185
-0.0228538
0.0332577
-0.336776
0.326373
-0.0391003
0.0401288
-0.459525
0.458496
-0.0389462
0.0366615
-0.541794
0.544079
-0.0339953
0.031405
-0.634787
0.637377
-0.028362
0.0255009
-0.748629
0.75149
-0.0223022
0.0193793
-0.88798
0.890903
-0.0161502
0.0131105
-1.05716
1.0602
-0.00963819
0.00626486
-1.26203
1.2654
-0.00233338
-0.00152761
-1.51082
1.51468
0.00535247
-0.0091777
-1.51187
1.5157
0.0124038
-0.0156909
-1.26452
1.26781
0.0185534
-0.0215917
-1.06044
1.06348
0.0243545
-0.0273927
-0.89194
0.894978
0.0301144
-0.0330082
-0.753768
0.756662
0.0354648
-0.037992
-0.641121
0.643648
0.0401596
-0.0411939
-0.54897
0.550005
0.0400138
-0.0339534
-0.447561
0.441501
0.0233147
-0.0101699
-0.263757
0.250613
0.00256931
-0.0454959
0.0429266
-0.0412369
0.0394634
0.0017735
-0.0167935
0.0260744
-0.316487
0.307206
-0.0327147
0.0348842
-0.456869
0.4547
-0.0344919
0.0328457
-0.546037
0.547683
-0.0306894
0.0286209
-0.639654
0.641722
-0.0262285
0.0238791
-0.754106
0.756455
-0.0210828
0.0183481
-0.893762
0.896497
-0.0151661
0.0121424
-1.0632
1.06622
-0.00870356
0.00543419
-1.26868
1.27195
-0.00166477
-0.00200577
-1.51843
1.5221
0.00563068
-0.0092668
-1.51943
1.52307
0.0123599
-0.0155697
-1.27107
1.27428
0.0183659
-0.0212984
-1.0665
1.06943
0.0238209
-0.0264066
-0.897803
0.900389
0.0285773
-0.0307804
-0.759147
0.76135
0.0326793
-0.0346555
-0.645851
0.647828
0.0361315
-0.0363195
-0.550571
0.550759
0.0339175
-0.0269607
-0.434912
0.427955
0.017366
-0.00732084
-0.239168
0.229123
0.00185585
-0.0407716
0.0389158
-0.0379327
0.0365983
0.00133437
-0.0128219
0.0207903
-0.298582
0.290613
-0.0275677
0.0305139
-0.452097
0.449151
-0.0307427
0.029648
-0.549058
0.550152
-0.0276821
0.0257995
-0.643696
0.645579
-0.0236557
0.0215922
-0.758666
0.760729
-0.0191751
0.0167823
-0.899053
0.901446
-0.0139356
0.0111433
-1.06911
1.0719
-0.00787097
0.00470632
-1.27513
1.2783
-0.00101812
-0.0025794
-1.5257
1.5293
0.00612417
-0.00964988
-1.52665
1.53018
0.0125976
-0.0155772
-1.27742
1.2804
0.0180763
-0.0205972
-1.0722
1.07472
0.0227098
-0.0248532
-0.902721
0.904865
0.0266915
-0.0286015
-0.763358
0.765268
0.0302753
-0.0320262
-0.649666
0.651417
0.0328784
-0.0323691
-0.5506
0.55009
0.0290961
-0.0218904
-0.420818
0.413612
0.0135223
-0.00562793
-0.220257
0.212362
0.00143409
-0.0372983
0.0358642
-0.0354297
0.0344009
0.00102876
-0.0100138
0.0167473
-0.283281
0.276548
-0.0232622
0.0266678
-0.44595
0.442544
-0.0274759
0.0267938
-0.551022
0.551704
-0.0250487
0.0232895
-0.647428
0.649187
-0.0212796
0.0193503
-0.762742
0.764671
-0.0170998
0.0148885
-0.903696
0.905907
-0.0122706
0.00968997
-1.07452
1.0771
-0.00664315
0.00365696
-1.28135
1.28434
-0.000155923
-0.00326431
-1.53281
1.53623
0.00662018
-0.00992608
-1.53361
1.53692
0.0126479
-0.0153377
-1.28326
1.28595
0.0175594
-0.0197758
-1.07707
1.07929
0.0216401
-0.0235466
-0.90684
0.908747
0.02519
-0.0269091
-0.76705
0.768769
0.0284098
-0.0298593
-0.653068
0.654518
0.0302322
-0.0290252
-0.549265
0.548058
0.0251714
-0.0180984
-0.406451
0.399378
0.0108677
-0.00449216
-0.205298
0.198923
0.00115002
-0.0345904
0.0334404
-0.0334953
0.032696
0.000799281
-0.00791006
0.0135499
-0.270385
0.264745
-0.0195577
0.023156
-0.439011
0.435413
-0.0244667
0.0240802
-0.552238
0.552624
-0.0226721
0.021077
-0.650888
0.652483
-0.0191925
0.0173468
-0.766592
0.768437
-0.0151617
0.0130068
-0.908071
0.910226
-0.0104772
0.00801631
-1.07956
1.08202
-0.0051507
0.00235811
-1.28718
1.28998
0.000913312
-0.00410552
-1.53951
1.5427
0.00721533
-0.0102377
-1.54009
1.54311
0.0126984
-0.0151255
-1.28854
1.29097
0.0171434
-0.0191702
-1.08145
1.08348
0.0208816
-0.0226168
-0.910576
0.912311
0.0240933
-0.0256134
-0.770348
0.771868
0.0268933
-0.0279369
-0.655737
0.656781
0.027939
-0.0261017
-0.546535
0.544698
0.0219176
-0.0152022
-0.392481
0.385766
0.00894933
-0.00368209
-0.193154
0.187887
0.000946293
-0.0324071
0.0314608
-0.0319937
0.0313732
0.000620493
-0.00626988
0.0109673
-0.259598
0.254901
-0.0163583
0.0199316
-0.431818
0.428244
-0.0215294
0.0213294
-0.552932
0.553132
-0.02011
0.0185574
-0.65408
0.655632
-0.0167549
0.0150221
-0.770246
0.771979
-0.0129944
0.010996
-0.91225
0.914249
-0.00863295
0.00631511
-1.08434
1.08666
-0.00359443
0.000939294
-1.29266
1.29531
0.00215684
-0.00515151
-1.54578
1.54877
0.00804461
-0.0108356
-1.54603
1.54882
0.0130796
-0.0152486
-1.2933
1.29547
0.0170107
-0.0187467
-1.08539
1.08712
0.0201897
-0.0216618
-0.913904
0.915376
0.0229456
-0.0243054
-0.773259
0.774619
0.025485
-0.0262061
-0.657662
0.658383
0.0258806
-0.0235814
-0.542652
0.540353
0.0192508
-0.012977
-0.379282
0.373008
0.00753071
-0.00309105
-0.183074
0.178635
0.000798518
-0.0306023
0.0298038
-0.0308329
0.0303581
0.000474813
-0.00493024
0.00880024
-0.250637
0.246767
-0.0135235
0.0169467
-0.424742
0.421319
-0.0187661
0.0188122
-0.553249
0.553202
-0.0178491
0.0163792
-0.657216
0.658686
-0.0146281
0.0129185
-0.773713
0.775422
-0.0109075
0.00893362
-0.916148
0.918122
-0.00661377
0.00435909
-1.08886
1.09111
-0.00174095
-0.000771156
-1.29784
1.30035
0.00364959
-0.00638748
-1.5516
1.55434
0.00900287
-0.0115108
-1.55148
1.55399
0.0135243
-0.0154771
-1.29759
1.29954
0.0170592
-0.0186106
-1.08881
1.09036
0.0199008
-0.0212192
-0.916735
0.918053
0.022359
-0.0235458
-0.775841
0.777027
0.0245249
-0.024869
-0.6589
0.659244
0.0241919
-0.0214698
-0.537882
0.53516
0.0170855
-0.0112642
-0.366988
0.361167
0.00647368
-0.00265919
-0.174546
0.170732
0.000692956
-0.0290738
0.0283808
-0.0299527
0.0296045
0.000348147
-0.00377725
0.00689921
-0.243288
0.240166
-0.010914
0.0140322
-0.418052
0.414933
-0.0158884
0.0161091
-0.553089
0.552868
-0.015285
0.0139654
-0.660137
0.661456
-0.0122918
0.0106243
-0.777132
0.7788
-0.00864006
0.00669399
-0.920006
0.921952
-0.00443266
0.00226168
-1.09323
1.09541
0.000235426
-0.00262336
-1.30274
1.30513
0.00535998
-0.00795827
-1.55697
1.55957
0.0104028
-0.012679
-1.55638
1.55866
0.0144457
-0.0161151
-1.3014
1.30307
0.0174628
-0.0187917
-1.09183
1.09316
0.0198981
-0.0210002
-0.919284
0.920386
0.0219326
-0.0228972
-0.778079
0.779044
0.023584
-0.0236381
-0.65942
0.659474
0.0225736
-0.0195663
-0.532322
0.529315
0.0152525
-0.00989563
-0.35561
0.350253
0.00565456
-0.00233016
-0.167197
0.163873
0.000613399
-0.0277417
0.0271283
-0.0293196
0.0290862
0.000233449
-0.00274791
0.00518421
-0.237407
0.234971
-0.00848752
0.0112153
-0.412032
0.409304
-0.0129763
0.0132524
-0.552668
0.552392
-0.0124533
0.0111712
-0.662827
0.664109
-0.00949795
0.00784734
-0.780458
0.782109
-0.00591819
0.00404459
-0.923751
0.925625
-0.00187031
-0.000218047
-1.09742
1.09951
0.00261572
-0.00489274
-1.30739
1.30966
0.00746481
-0.00985126
-1.56203
1.56442
0.0120519
-0.0140532
-1.56082
1.56282
0.0155799
-0.0169828
-1.30467
1.30607
0.0180624
-0.0190777
-1.09438
1.09539
0.0199006
-0.0207471
-0.921371
0.922217
0.0214946
-0.022278
-0.779859
0.780642
0.0227743
-0.0225833
-0.659388
0.659197
0.0212129
-0.0180015
-0.526248
0.523037
0.0137917
-0.0088464
-0.345141
0.340195
0.00504597
-0.00209496
-0.16077
0.157819
0.000560345
-0.0265584
0.0259981
-0.0289125
0.0287898
0.000122625
-0.00175245
0.00351333
-0.232889
0.231128
-0.00607502
0.00834196
-0.406837
0.40457
-0.00994004
0.0102591
-0.552175
0.551856
-0.00953596
0.00832164
-0.665465
0.666679
-0.00666855
0.00501028
-0.783751
0.785409
-0.00306098
0.00117172
-0.927354
0.929243
0.00100733
-0.00308365
-1.10145
1.10353
0.0054316
-0.00761997
-1.31182
1.314
0.0100293
-0.0122115
-1.56665
1.56883
0.0141544
-0.0158689
-1.56469
1.5664
0.0171199
-0.0182286
-1.30737
1.30848
0.0190674
-0.0198383
-1.0963
1.09707
0.0204463
-0.021038
-0.922947
0.923539
0.0215585
-0.022091
-0.781336
0.781868
0.0222242
-0.0217733
-0.658799
0.658348
0.0200904
-0.0166805
-0.519785
0.516375
0.0125824
-0.00800791
-0.335488
0.330913
0.00457625
-0.00192227
-0.155058
0.152404
0.000524757
-0.0254766
0.0249518
-0.0287307
0.0287204
1.02857e-05
-0.000783206
0.00187924
-0.229719
0.228623
-0.00366909
0.00539076
-0.40262
0.400899
-0.00670867
0.00700809
-0.551645
0.551345
-0.00637468
0.00526145
-0.667942
0.669055
-0.00363845
0.00194392
-0.787035
0.788729
9.0804e-05
-0.0020598
-0.931019
0.932988
0.00429746
-0.00638036
-1.10549
1.10757
0.00869727
-0.0108141
-1.31606
1.31817
0.013107
-0.0151171
-1.57086
1.57287
0.016845
-0.0182825
-1.56798
1.56942
0.0192631
-0.0200677
-1.30952
1.31032
0.0206215
-0.0210904
-1.09779
1.09826
0.0214262
-0.0217326
-0.924051
0.924358
0.0219907
-0.0222403
-0.782174
0.782423
0.0220568
-0.0212073
-0.657563
0.656714
0.0191569
-0.01558
-0.512941
0.509364
0.0116177
-0.00737717
-0.326573
0.322332
0.00424303
-0.00181004
-0.14991
0.147477
0.000505744
-0.02446
0.0239542
-0.0287676
0.0288847
-0.000117065
0.000256358
0.000155999
-0.227876
0.227463
-0.00114366
0.00224192
-0.399558
0.398459
-0.00312687
0.00323603
-0.551278
0.551169
-0.00251957
0.00135328
-0.670303
0.671469
0.00031911
-0.00205209
-0.79037
0.792103
0.00409688
-0.00605041
-0.934763
0.936716
0.0082603
-0.0103214
-1.10948
1.11154
0.0125983
-0.0146661
-1.32016
1.32223
0.0168509
-0.0186921
-1.57475
1.57659
0.0201935
-0.0213304
-1.5707
1.57184
0.0219744
-0.0223815
-1.311
1.3114
0.022574
-0.0226491
-1.0986
1.09867
0.0226529
-0.0226364
-0.924554
0.924537
0.0226196
-0.0225231
-0.782375
0.782279
0.0220551
-0.0207752
-0.655511
0.654231
0.0184637
-0.0147838
-0.505866
0.502186
0.010937
-0.00695156
-0.318314
0.314328
0.00403564
-0.00175358
-0.145179
0.142896
0.000502643
-0.0234794
0.0229768
-0.0290723
0.0293209
-0.000248598
0.00130304
-0.00158327
-0.227431
0.227711
0.00146044
-0.00103942
-0.397784
0.397363
0.000648351
-0.000773836
-0.551393
0.551518
0.00159139
-0.00283858
-0.672828
0.674075
0.00459358
-0.00640197
-0.793756
0.795564
0.00853187
-0.010572
-0.938485
0.940525
0.0128853
-0.0150273
-1.11347
1.11561
0.0173626
-0.0194085
-1.32416
1.32621
0.0214723
-0.0231071
-1.57824
1.57987
0.0243049
-0.025115
-1.57279
1.5736
0.0254695
-0.0255251
-1.31171
1.31177
0.025377
-0.0250681
-1.0986
1.0983
0.0247087
-0.0243017
-0.924328
0.923921
0.0239314
-0.0234697
-0.781858
0.781396
0.0226619
-0.0209236
-0.652728
0.65099
0.0182509
-0.0143678
-0.498582
0.494699
0.0105534
-0.00672972
-0.31054
0.306717
0.00394806
-0.00174354
-0.140726
0.138522
0.000509411
-0.0225035
0.0219941
-0.0296467
0.0300394
-0.00039272
0.00239467
-0.00339325
-0.228315
0.229314
0.00413632
-0.00447208
-0.397382
0.397718
0.00466572
-0.00505757
-0.552048
0.55244
0.00594051
-0.00725182
-0.675504
0.676816
0.00911953
-0.0110821
-0.797291
0.799254
0.0134156
-0.0156399
-0.942415
0.944639
0.0181344
-0.0204179
-1.11763
1.11992
0.0228672
-0.0249823
-1.32815
1.33027
0.0270575
-0.0286173
-1.58138
1.58294
0.0296398
-0.0301146
-1.57421
1.57469
0.0301279
-0.0297846
-1.31168
1.31134
0.0292601
-0.0285514
-1.09779
1.09708
0.0278252
-0.0269883
-0.923238
0.922401
0.0262353
-0.0252911
-0.780523
0.779578
0.0239697
-0.0216463
-0.649045
0.646721
0.0185797
-0.0144785
-0.490914
0.486813
0.0106369
-0.00684758
-0.303065
0.299276
0.00406413
-0.00181338
-0.136387
0.134136
0.000532864
-0.0215118
0.0209789
-0.0305292
0.0310974
-0.000568139
0.00356608
-0.00526433
-0.230694
0.232392
0.00689421
-0.00804882
-0.398477
0.399632
0.00900503
-0.00986843
-0.553394
0.554257
0.0110431
-0.0125696
-0.678382
0.679908
0.0146815
-0.0168845
-0.80113
0.803333
0.0194918
-0.0219614
-0.946719
0.949188
0.0247039
-0.0271714
-1.12209
1.12456
0.029765
-0.0319344
-1.33226
1.33443
0.0339782
-0.0353872
-1.58434
1.58575
0.0361358
-0.0362302
-1.57493
1.57502
0.0358442
-0.0350317
-1.31077
1.30996
0.0340628
-0.0328742
-1.0961
1.09492
0.0317464
-0.0305046
-0.921249
0.920007
0.0293751
-0.0278893
-0.778202
0.776716
0.0260555
-0.0232223
-0.644288
0.641455
0.0197957
-0.0154314
-0.482846
0.478482
0.0114277
-0.00745887
-0.295595
0.291627
0.00447566
-0.00200723
-0.131889
0.129421
0.000587944
-0.0204638
0.0198759
-0.0317612
0.0325278
-0.000766646
0.00484681
-0.00729126
-0.234506
0.23695
0.00983613
-0.011831
-0.401238
0.403233
0.0136212
-0.0151053
-0.555812
0.557297
0.0168222
-0.0187679
-0.681799
0.683744
0.0213154
-0.0239002
-0.805479
0.808064
0.0269011
-0.0296975
-0.951517
0.954314
0.032762
-0.035477
-1.12691
1.12963
0.0382621
-0.0405149
-1.33647
1.33873
0.0425078
-0.0436921
-1.58694
1.58812
0.0441006
-0.0437416
-1.57484
1.57448
0.0428793
-0.0415528
-1.30887
1.30755
0.0401209
-0.0384329
-1.09341
1.09172
0.0368607
-0.0351688
-0.918375
0.916683
0.0336588
-0.0316598
-0.774778
0.772779
0.0293821
-0.026045
-0.638598
0.635261
0.0221846
-0.0173879
-0.474236
0.469439
0.0130005
-0.00858537
-0.287669
0.283254
0.00518908
-0.00233151
-0.126884
0.124026
0.000680309
-0.0192919
0.0186116
-0.0333821
0.0344007
-0.00101861
0.00642453
-0.0097351
-0.239814
0.243124
0.0132947
-0.016177
-0.40578
0.408662
0.0188437
-0.0210207
-0.559626
0.561803
0.023392
-0.0258877
-0.686168
0.688663
0.0290244
-0.0321271
-0.810624
0.813727
0.0356733
-0.0389439
-0.957
0.96027
0.0424786
-0.0455585
-1.13225
1.13533
0.0486386
-0.0510289
-1.34086
1.34325
0.0529745
-0.0539373
-1.58905
1.59002
0.0539523
-0.0530762
-1.5738
1.57292
0.0516982
-0.0497852
-1.30587
1.30396
0.0478342
-0.0455955
-1.08963
1.0874
0.0435574
-0.0414142
-0.914549
0.912406
0.0394714
-0.0369563
-0.770374
0.767859
0.0341577
-0.0301856
-0.63189
0.627918
0.0257125
-0.0202412
-0.464708
0.459237
0.0152281
-0.0101147
-0.278765
0.273651
0.00612602
-0.00274832
-0.121053
0.117675
0.000798209
-0.0179291
0.0171309
-0.0355016
0.0368761
-0.00137452
0.00857392
-0.0129955
-0.246865
0.251286
0.0177811
-0.0216859
-0.412256
0.416161
0.0252849
-0.0281748
-0.564966
0.567856
0.0312114
-0.0342982
-0.691698
0.694785
0.0381097
-0.0418456
-0.816806
0.820542
0.0460986
-0.0499839
-0.963474
0.967359
0.0541394
-0.0577007
-1.13835
1.14192
0.0611885
-0.0637932
-1.34553
1.34813
0.0657835
-0.0665766
-1.59075
1.59154
0.0662332
-0.0648077
-1.57169
1.57026
0.0628594
-0.0602764
-1.30165
1.29906
0.0576991
-0.0548255
-1.0847
1.08182
0.0522577
-0.0495274
-0.909658
0.906928
0.0470006
-0.043837
-0.764889
0.761726
0.0403327
-0.0354973
-0.623847
0.619012
0.0302102
-0.0238408
-0.453799
0.44743
0.0179754
-0.0119348
-0.268408
0.262367
0.00720874
-0.00322077
-0.114158
0.11017
0.000931548
-0.016328
0.0153965
-0.0383106
0.0402212
-0.0019106
0.0116833
-0.0175952
-0.256124
0.262036
0.0239135
-0.0290572
-0.421078
0.426222
0.0337781
-0.037567
-0.572036
0.575825
0.0414735
-0.045343
-0.698509
0.702379
0.0500392
-0.0545797
-0.824265
0.828805
0.0596586
-0.0642391
-0.971195
0.975776
0.0690573
-0.0730928
-1.14541
1.14944
0.0769048
-0.0796166
-1.35057
1.35328
0.0814919
-0.0819341
-1.59203
1.59248
0.0810506
-0.0789376
-1.56843
1.56632
0.0763198
-0.0729916
-1.29605
1.29272
0.0697296
-0.0660517
-1.07833
1.07465
0.0627135
-0.0591833
-0.903412
0.899882
0.055931
-0.051988
-0.757944
0.754001
0.0476706
-0.041866
-0.614044
0.608239
0.0356338
-0.0281226
-0.441102
0.433591
0.0211432
-0.0139519
-0.256175
0.248984
0.0083715
-0.00371196
-0.106051
0.101391
0.0010646
-0.0144711
0.0134065
-0.0421383
0.0449013
-0.00276295
0.0163876
-0.0243553
-0.268333
0.276301
0.0326513
-0.0393727
-0.432983
0.439704
0.045556
-0.0505904
-0.581395
0.586429
0.0558404
-0.0609411
-0.707077
0.712178
0.0668078
-0.0722748
-0.83333
0.838797
0.0782499
-0.0834974
-0.980278
0.985526
0.0888379
-0.0931128
-1.1533
1.15757
0.0969178
-0.0993623
-1.35562
1.35807
0.100627
-0.100225
-1.59235
1.59195
0.0983004
-0.0950229
-1.56355
1.56027
0.0913776
-0.0869991
-1.28882
1.28444
0.0828695
-0.0783763
-1.07036
1.06586
0.074399
-0.0701445
-0.895473
0.891218
0.066144
-0.0614561
-0.749313
0.744625
0.0563966
-0.049605
-0.602299
0.595507
0.0421765
-0.0331057
-0.426079
0.417008
0.0246934
-0.0161435
-0.241661
0.233111
0.00960262
-0.00421356
-0.0966306
0.0912415
0.00119306
-0.0123617
0.0111687
-0.0475615
0.0517765
-0.00421496
0.0238311
-0.0346488
-0.284674
0.295492
0.0455162
-0.054293
-0.449052
0.457829
0.0623185
-0.068925
-0.593869
0.600476
0.0759386
-0.0825699
-0.718176
0.724808
0.0898683
-0.0963646
-0.844252
0.850748
0.103149
-0.108828
-0.990573
0.996253
0.114304
-0.118421
-1.16143
1.16555
0.12175
-0.123476
-1.35987
1.3616
0.12366
-0.122011
-1.59069
1.58904
0.118739
-0.114033
-1.55613
1.55142
0.109145
-0.103474
-1.2793
1.27363
0.0982554
-0.0927208
-1.06061
1.05507
0.087965
-0.0830928
-0.886047
0.881174
0.0786492
-0.0733088
-0.739132
0.733791
0.0673188
-0.0590025
-0.58832
0.580003
0.0497867
-0.0386767
-0.407816
0.396706
0.0285889
-0.0185159
-0.224546
0.214473
0.0108987
-0.00471346
-0.0858196
0.0796344
0.00130903
-0.0100162
0.00870721
-0.055639
0.0628595
-0.00722049
0.0369875
-0.0520709
-0.307275
0.322358
0.0665622
-0.0779975
-0.470657
0.482092
0.0878666
-0.0959987
-0.609992
0.618124
0.104776
-0.112828
-0.732129
0.74018
0.121228
-0.128254
-0.857011
0.864037
0.135194
-0.140697
-1.00145
1.00695
0.145706
-0.14916
-1.16897
1.17242
0.151536
-0.152177
-1.36245
1.36309
0.151007
-0.147958
-1.58639
1.58334
0.143312
-0.13725
-1.54581
1.53975
0.13121
-0.124386
-1.26719
1.26037
0.118174
-0.111629
-1.04873
1.04219
0.106039
-0.100319
-0.875211
0.869491
0.0950257
-0.0883597
-0.727243
0.720577
0.0803989
-0.0695014
-0.570647
0.559749
0.0579754
-0.0446846
-0.385394
0.372103
0.0328633
-0.021145
-0.2046
0.192881
0.0123012
-0.00521956
-0.0735911
0.0665095
0.00140511
-0.0074731
0.00606799
-0.0696472
0.0734983
-0.00385104
0.0274363
-0.0404615
-0.340025
0.353051
0.0533524
-0.0636101
-0.498802
0.50906
0.0730199
-0.0821895
-0.629515
0.638685
0.0927139
-0.10216
-0.747786
0.757233
0.112618
-0.121831
-0.870127
0.87934
0.131505
-0.139952
-1.01152
1.01996
0.148602
-0.155796
-1.17483
1.18202
0.162611
-0.167593
-1.36263
1.36761
0.171273
-0.172558
-1.5792
1.58048
0.171345
-0.16806
-1.53273
1.52945
0.163593
-0.157558
-1.25278
1.24675
0.151517
-0.14401
-1.0348
1.0273
0.137025
-0.128822
-0.862259
0.854056
0.120371
-0.109411
-0.711563
0.700602
0.0965974
-0.0806035
-0.547512
0.531518
0.0651424
-0.0481165
-0.35853
0.341504
0.0337533
-0.0203512
-0.181493
0.168091
0.0109502
-0.00420393
-0.0600767
0.0533304
0.000948588
-0.00481426
0.00386567
-0.0807387
0.0784504
0.00228829
0.00581984
-0.0137222
-0.368802
0.376704
0.023158
-0.0304749
-0.523719
0.531036
0.0379647
-0.0455424
-0.650111
0.657689
0.0548573
-0.0635053
-0.766237
0.774885
0.0727461
-0.0811907
-0.887986
0.896431
0.090148
-0.0977444
-1.02818
1.03578
0.105808
-0.11224
-1.18916
1.19559
0.118404
-0.122758
-1.37249
1.37684
0.125651
-0.126389
-1.58124
1.58197
0.124693
-0.120907
-1.52571
1.52193
0.115717
-0.108789
-1.24035
1.23342
0.101634
-0.0927589
-1.0189
1.01003
0.0835973
-0.0724202
-0.842675
0.831498
0.0615775
-0.0499432
-0.684239
0.672605
0.0393668
-0.0282511
-0.513162
0.502046
0.0190842
-0.0111664
-0.324078
0.316161
0.00594327
-0.00230825
-0.155093
0.151458
0.000429668
0.00028754
-0.0468855
0.0461683
-0.000290097
-0.00255773
0.00284783
-0.0815027
0.07853
0.00297268
-0.00264603
-0.00145385
-0.387748
0.391848
0.00726175
-0.0124745
-0.541888
0.547101
0.0180177
-0.0242713
-0.667091
0.673344
0.032009
-0.039278
-0.782582
0.789851
0.0473805
-0.0547392
-0.904139
0.911497
0.0624166
-0.0693762
-1.04328
1.05024
0.0766222
-0.0825568
-1.20172
1.20765
0.0878658
-0.0914668
-1.38069
1.38429
0.0938427
-0.0938871
-1.58209
1.58214
0.0914598
-0.0868773
-1.51742
1.51284
0.0809773
-0.0734059
-1.22601
1.21844
0.0652706
-0.0556349
-1.00009
0.990456
0.046015
-0.0349077
-0.819297
0.808189
0.0250057
-0.0150071
-0.658257
0.648258
0.00705254
0.000235024
-0.489225
0.481937
-0.00468985
0.00690486
-0.306569
0.304354
-0.00711408
0.00595357
-0.146055
0.147216
-0.00426006
0.00224057
-0.0446612
0.0466807
-0.000805195
-0.00244755
0.00325274
-0.0800047
0.0771552
0.00284951
-0.00587565
0.00408785
-0.39984
0.401628
-0.000657004
-0.00308383
-0.555223
0.558963
0.00770579
-0.0127698
-0.680517
0.685581
0.0191937
-0.0253187
-0.796539
0.802664
0.0322111
-0.0385657
-0.918382
0.924736
0.0456401
-0.0516803
-1.05683
1.06287
0.0581746
-0.0630725
-1.21325
1.21815
0.0677621
-0.0708291
-1.3877
1.39077
0.0724493
-0.0716181
-1.58167
1.58084
0.0687266
-0.0637343
-1.50747
1.50248
0.057564
-0.0495002
-1.21037
1.2023
0.041435
-0.0321417
-0.980282
0.970989
0.0230488
-0.0132526
-0.796723
0.786927
0.00447699
0.00371289
-0.636393
0.628203
-0.00956186
0.0137758
-0.472756
0.468542
-0.0153855
0.0145857
-0.298758
0.299558
-0.0124123
0.00911949
-0.146599
0.149892
-0.0060977
0.00295552
-0.0476884
0.0508306
-0.000949847
-0.00338095
0.0043308
-0.0783815
0.0759692
0.00241227
-0.00654478
0.00610076
-0.407838
0.408282
-0.0035983
0.000881625
-0.565732
0.568449
0.00280895
-0.00735632
-0.691467
0.696015
0.0126572
-0.0180038
-0.808182
0.813529
0.0239772
-0.0295476
-0.930714
0.936285
0.0357047
-0.0411673
-1.06881
1.07427
0.0467794
-0.0513372
-1.22294
1.22749
0.0553975
-0.057933
-1.39345
1.39598
0.0590251
-0.0577998
-1.57973
1.57851
0.0546424
-0.0493589
-1.49668
1.4914
0.0432928
-0.0357131
-1.19412
1.18654
0.0282154
-0.0196536
-0.961453
0.952891
0.0117419
-0.0032948
-0.776856
0.768409
-0.00390093
0.0106373
-0.618756
0.61202
-0.0152336
0.0180532
-0.461741
0.458921
-0.0186826
0.0168425
-0.296309
0.298149
-0.0137123
0.00992993
-0.151078
0.154861
-0.00650029
0.00307132
-0.0528102
0.0562392
-0.000971903
-0.0047589
0.0057308
-0.0770495
0.075059
0.00199049
-0.00604737
0.00586684
-0.413377
0.413558
-0.00446227
0.00219626
-0.573827
0.576093
0.00151752
-0.00542711
-0.700666
0.704576
0.00999525
-0.0146508
-0.818201
0.822857
0.0199906
-0.0250126
-0.941574
0.946596
0.0306968
-0.0355388
-1.07948
1.08432
0.0406295
-0.044753
-1.23177
1.23589
0.0483325
-0.0504882
-1.39822
1.40037
0.0512333
-0.0501826
-1.57712
1.57607
0.0469845
-0.0420588
-1.48566
1.48074
0.0363772
-0.0294208
-1.1789
1.17194
0.0229069
-0.0152664
-0.944416
0.936775
0.0084192
-0.00139714
-0.759976
0.752954
-0.00455986
0.0100677
-0.604498
0.59899
-0.0138152
0.016263
-0.453293
0.450845
-0.0165667
0.0149271
-0.296099
0.297738
-0.0122748
0.00880981
-0.156441
0.159906
-0.00567392
0.00269688
-0.0581646
0.0611416
-0.000854518
-0.0061551
0.00700962
-0.0761835
0.0746842
0.00149926
-0.00489603
0.00484885
-0.417691
0.417738
-0.00352513
0.00175299
-0.581121
0.582893
0.00179861
-0.00542137
-0.708743
0.712366
0.00986734
-0.0139291
-0.827248
0.831309
0.0186699
-0.0231638
-0.951646
0.95614
0.0285821
-0.0330025
-1.08921
1.09363
0.0375579
-0.0414498
-1.23983
1.24372
0.0451224
-0.0470855
-1.40251
1.40447
0.0478661
-0.0467783
-1.5746
1.57351
0.0440844
-0.0393208
-1.47563
1.47087
0.0343068
-0.0282122
-1.16496
1.15887
0.0223505
-0.0158554
-0.929379
0.922884
0.00987959
-0.00365036
-0.745719
0.73949
-0.00124579
0.00608757
-0.592599
0.587757
-0.00946554
0.0114602
-0.44615
0.444155
-0.011949
0.0110224
-0.296097
0.297023
-0.00906468
0.00641659
-0.160884
0.163532
-0.00411117
0.00197564
-0.062457
0.0645925
-0.00064678
-0.00727301
0.00791979
-0.0758882
0.0747493
0.0011389
-0.00366014
0.00359892
-0.421348
0.42141
-0.00215982
0.000290582
-0.587714
0.589583
0.00308703
-0.00642327
-0.716209
0.719545
0.0103229
-0.0143329
-0.835447
0.839457
0.0187805
-0.0234507
-0.960501
0.965171
0.0281559
-0.0323796
-1.09816
1.10238
0.0370304
-0.0406562
-1.24748
1.25111
0.0438227
-0.0461689
-1.40633
1.40868
0.0471196
-0.0463696
-1.57248
1.57173
0.0439376
-0.0399078
-1.46633
1.4623
0.0354374
-0.0299764
-1.15257
1.14711
0.0248259
-0.0190596
-0.916388
0.910622
0.0138186
-0.00850482
-0.7333
0.727986
0.00391922
0.000319747
-0.582152
0.577913
-0.00331038
0.00549482
-0.439944
0.437759
-0.00628419
0.00583189
-0.295217
0.295669
-0.00482719
0.00333598
-0.163539
0.16503
-0.00211141
0.00102462
-0.0650706
0.0661574
-0.000366441
-0.00800728
0.00837372
-0.0761597
0.0752152
0.00094449
-0.00231554
0.00194924
-0.424867
0.425233
-0.000617312
-0.00144688
-0.593977
0.596041
0.00464761
-0.00799438
-0.723383
0.72673
0.0118606
-0.0155802
-0.843384
0.847104
0.020221
-0.0241469
-0.969326
0.973252
0.0288336
-0.0328828
-1.10678
1.11083
0.0373997
-0.0411887
-1.25471
1.2585
0.0446245
-0.046755
-1.41078
1.41291
0.0480546
-0.0477303
-1.5709
1.57057
0.0459954
-0.0423791
-1.45817
1.45455
0.0384513
-0.0335412
-1.14178
1.13687
0.0289406
-0.0236917
-0.90471
0.899461
0.0190679
-0.0141649
-0.722431
0.717528
0.0100058
-0.00601982
-0.572993
0.569007
0.00302181
-0.000884775
-0.433808
0.431671
-0.000347069
0.000702048
-0.293182
0.292827
-0.000835044
0.000657147
-0.163973
0.164151
-0.000505775
0.000369018
-0.065739
0.0658757
-0.000192747
-0.00822525
0.008418
-0.0767308
0.0760826
0.000648181
-0.00116768
0.000331558
-0.428632
0.429468
0.000912547
-0.0031772
-0.599725
0.601989
0.00618583
-0.0095242
-0.73029
0.733628
0.0133364
-0.0172718
-0.850801
0.854736
0.0213787
-0.0255045
-0.97744
0.981566
0.0301741
-0.0340198
-1.11531
1.11916
0.0386252
-0.0423684
-1.2621
1.26584
0.0458556
-0.048514
-1.41545
1.41811
0.0503159
-0.0503093
-1.57029
1.57028
0.0488508
-0.0459822
-1.4511
1.44823
0.0426382
-0.0381443
-1.13184
1.12735
0.0338445
-0.0291848
-0.894139
0.889479
0.0245657
-0.0201342
-0.712335
0.707903
0.0162171
-0.0122852
-0.564594
0.560662
0.0093666
-0.00680188
-0.427585
0.42502
0.00510684
-0.00376214
-0.289909
0.288564
0.00271509
-0.0016615
-0.162228
0.161175
0.000762606
-0.000110289
-0.0646207
0.0639684
-0.000105456
-0.00795255
0.008058
-0.077684
0.0771907
0.000493362
-0.000224095
-0.000580162
-0.43268
0.433484
0.00242704
-0.00458309
-0.605713
0.607869
0.00784842
-0.0111491
-0.736913
0.740213
0.0149025
-0.0185216
-0.858448
0.862067
0.0228159
-0.0266726
-0.985745
0.989602
0.0313149
-0.0356051
-1.12347
1.12776
0.0398619
-0.0439328
-1.26964
1.27371
0.0478473
-0.0506099
-1.42067
1.42343
0.0528072
-0.0535896
-1.57049
1.57127
0.0526067
-0.0503717
-1.44522
1.44299
0.0472401
-0.0431908
-1.12285
1.1188
0.0392896
-0.0347939
-0.884395
0.8799
0.0305399
-0.0262111
-0.702931
0.698602
0.022389
-0.0183771
-0.556204
0.552192
0.0151783
-0.0122669
-0.420948
0.418036
0.00983251
-0.00762963
-0.284971
0.282768
0.00565017
-0.00359974
-0.158352
0.156301
0.00195985
-0.00067435
-0.0620719
0.0607864
7.51046e-05
-0.00742884
0.00735374
-0.0788943
0.0785705
0.000323743
0.000791915
-0.00179721
-0.436904
0.437909
0.00354112
-0.0060099
-0.611417
0.613886
0.00927203
-0.0124858
-0.743456
0.74667
0.0163916
-0.0199278
-0.865749
0.869285
0.0241227
-0.0281333
-0.993976
0.997987
0.03271
-0.0369794
-1.13193
1.1362
0.041465
-0.0455739
-1.27771
1.28182
0.0496838
-0.0532007
-1.42648
1.43
0.0558589
-0.0569619
-1.57199
1.5731
0.0566733
-0.0547638
-1.44062
1.43872
0.0521674
-0.0486147
-1.11465
1.11109
0.0447487
-0.0404303
-0.87508
0.870762
0.0363127
-0.0319133
-0.693846
0.689447
0.0281666
-0.0240086
-0.547938
0.54378
0.0206111
-0.0170968
-0.41369
0.410175
0.0141337
-0.0110731
-0.278468
0.275408
0.00815159
-0.00523431
-0.152601
0.149683
0.00294088
-0.00111524
-0.0583526
0.056527