/*--------------------------------*- C++ -*----------------------------------*\
  =========                 |
  \\      /  F ield         | OpenFOAM: The Open Source CFD Toolbox
   \\    /   O peration     | Website:  https://openfoam.org
    \\  /    A nd           | Version:  6
     \\/     M anipulation  |
\*---------------------------------------------------------------------------*/
FoamFile
{
    version     2.0;
    format      ascii;
    class       volVectorField;
    location    "34";
    object      U;
}
// * * * * * * * * * * * * * * * * * * * * * * * * * * * * * * * * * * * * * //

dimensions      [0 1 -1 0 0 0 0];

internalField   nonuniform List<vector> 
8800
(
(0.987189 -0.076666 0)
(1.0019 -0.0551895 0)
(0.999756 -0.0285465 0)
(1.00005 -0.0151359 0)
(1.00005 -0.00852794 0)
(1.00002 -0.00502331 0)
(0.999995 -0.00299266 0)
(0.999977 -0.00172034 0)
(0.999974 -0.000832296 0)
(1.00005 -0.000124259 0)
(0.999989 0.000594766 0)
(1 0.0013586 0)
(1.00001 0.00238709 0)
(1.00002 0.00396757 0)
(1.00003 0.00660445 0)
(1.00004 0.0113488 0)
(0.999949 0.0208002 0)
(0.999168 0.0386611 0)
(1.00709 0.072453 0)
(0.771215 0.0366602 0)
(0.363045 -0.0160197 0)
(1.04329 -0.0768295 0)
(1.08461 -0.0704705 0)
(1.04521 -0.0535732 0)
(1.02326 -0.038929 0)
(1.01191 -0.0262584 0)
(1.00631 -0.0169197 0)
(1.0035 -0.0104208 0)
(1.00208 -0.00578194 0)
(1.0014 -0.00214832 0)
(1.00128 0.00115142 0)
(1.00168 0.00451902 0)
(1.00266 0.00847025 0)
(1.00463 0.0138457 0)
(1.00857 0.0215764 0)
(1.01656 0.0325563 0)
(1.03251 0.0464802 0)
(1.06269 0.0616119 0)
(1.09189 0.0760591 0)
(0.838732 0.0565455 0)
(0.216772 -0.00243258 0)
(1.07585 -0.0501748 0)
(1.09987 -0.0483665 0)
(1.06461 -0.0405215 0)
(1.03993 -0.0336576 0)
(1.02376 -0.0261435 0)
(1.01398 -0.0186132 0)
(1.00845 -0.0118634 0)
(1.00552 -0.00604326 0)
(1.00432 -0.000650984 0)
(1.00468 0.00458249 0)
(1.0066 0.0099629 0)
(1.01059 0.0160721 0)
(1.01792 0.0231279 0)
(1.03055 0.0306251 0)
(1.05066 0.0376922 0)
(1.0804 0.0444119 0)
(1.10635 0.0512591 0)
(0.942702 0.041575 0)
(0.216277 0.00245578 0)
(0.175055 -0.00081937 0)
(1.01754 -0.0355331 0)
(1.10513 -0.0414635 0)
(1.07818 -0.0361748 0)
(1.0533 -0.0302691 0)
(1.03601 -0.0247305 0)
(1.02384 -0.0190584 0)
(1.01576 -0.0130182 0)
(1.01094 -0.00685754 0)
(1.00879 -0.000589513 0)
(1.00941 0.00560442 0)
(1.0127 0.0115997 0)
(1.01891 0.0175045 0)
(1.0288 0.023154 0)
(1.04328 0.0285035 0)
(1.06381 0.0340083 0)
(1.09366 0.0400131 0)
(1.09361 0.0418162 0)
(0.827564 0.0228487 0)
(0.174222 0.00084529 0)
(0.153805 -0.00061335 0)
(0.955893 -0.0255164 0)
(1.10331 -0.0352272 0)
(1.08751 -0.0327641 0)
(1.06146 -0.0281134 0)
(1.04382 -0.023119 0)
(1.03141 -0.0179835 0)
(1.0226 -0.0125783 0)
(1.01685 -0.00672712 0)
(1.01408 -0.000297476 0)
(1.01481 0.00615147 0)
(1.01883 0.0120163 0)
(1.02586 0.0173113 0)
(1.03617 0.0222609 0)
(1.05079 0.0270806 0)
(1.07203 0.0316796 0)
(1.10026 0.0356807 0)
(1.06849 0.0338243 0)
(0.740306 0.0142267 0)
(0.152556 0.000642841 0)
(0.139378 -0.000469517 0)
(0.898814 -0.0191374 0)
(1.09553 -0.0302038 0)
(1.09553 -0.0293618 0)
(1.06892 -0.0256731 0)
(1.05044 -0.0215956 0)
(1.03756 -0.0169185 0)
(1.02853 -0.0117244 0)
(1.02251 -0.00605733 0)
(1.01949 0.000166078 0)
(1.0202 0.00638886 0)
(1.02434 0.0120072 0)
(1.03148 0.0170266 0)
(1.04202 0.0215927 0)
(1.05726 0.0256473 0)
(1.07949 0.0291656 0)
(1.10264 0.0318366 0)
(1.03673 0.0278379 0)
(0.674218 0.0100959 0)
(0.137621 0.000503651 0)
(0.128785 -0.000363665 0)
(0.849051 -0.0147653 0)
(1.08296 -0.0260529 0)
(1.10102 -0.0263878 0)
(1.07559 -0.0231518 0)
(1.05664 -0.0196013 0)
(1.04335 -0.0155165 0)
(1.03393 -0.0107492 0)
(1.02763 -0.00536486 0)
(1.02442 0.000694465 0)
(1.02504 0.00675931 0)
(1.02923 0.0120897 0)
(1.03656 0.0166455 0)
(1.04741 0.020566 0)
(1.06301 0.0239453 0)
(1.08565 0.0269644 0)
(1.10191 0.028803 0)
(1.00234 0.0232088 0)
(0.623038 0.00769299 0)
(0.12641 0.000403789 0)
(0.120696 -0.000282867 0)
(0.806755 -0.0115968 0)
(1.06756 -0.022447 0)
(1.10446 -0.02376 0)
(1.08173 -0.0209102 0)
(1.06226 -0.0175886 0)
(1.04864 -0.0138562 0)
(1.03898 -0.00947141 0)
(1.03247 -0.00439075 0)
(1.02909 0.00136374 0)
(1.02957 0.00709139 0)
(1.0337 0.0120494 0)
(1.04107 0.0161446 0)
(1.05208 0.0195599 0)
(1.06803 0.0225333 0)
(1.09111 0.0253053 0)
(1.0985 0.0262956 0)
(0.967844 0.0195414 0)
(0.582246 0.00611309 0)
(0.117571 0.000330735 0)
(0.114426 -0.000218816 0)
(0.771202 -0.00920163 0)
(1.05057 -0.0192089 0)
(1.10659 -0.0213091 0)
(1.08736 -0.0189417 0)
(1.06755 -0.015809 0)
(1.05369 -0.0121996 0)
(1.04381 -0.0080003 0)
(1.03701 -0.00322688 0)
(1.03334 0.00217385 0)
(1.03369 0.0075192 0)
(1.03782 0.0120246 0)
(1.04523 0.0157159 0)
(1.05631 0.0188234 0)
(1.07245 0.0214983 0)
(1.09518 0.0238928 0)
(1.0923 0.024068 0)
(0.934609 0.0166188 0)
(0.548918 0.00500172 0)
(0.110393 0.000276127 0)
(0.109557 -0.000167445 0)
(0.741501 -0.00732167 0)
(1.03326 -0.0163116 0)
(1.10777 -0.0188723 0)
(1.09262 -0.0167393 0)
(1.07253 -0.0137462 0)
(1.05843 -0.0103775 0)
(1.04835 -0.00647031 0)
(1.04138 -0.00197149 0)
(1.03752 0.00316045 0)
(1.03761 0.00815573 0)
(1.04154 0.0122622 0)
(1.04887 0.0154687 0)
(1.05998 0.0180989 0)
(1.07633 0.0204355 0)
(1.09812 0.0225599 0)
(1.08396 0.0220882 0)
(0.903342 0.0143013 0)
(0.52109 0.00419236 0)
(0.104417 0.000236204 0)
(0.105804 -0.000124855 0)
(0.716879 -0.00578161 0)
(1.01637 -0.0136768 0)
(1.10817 -0.0166115 0)
(1.09785 -0.0148522 0)
(1.07738 -0.0119246 0)
(1.06298 -0.00858546 0)
(1.05279 -0.00474137 0)
(1.04564 -0.000420708 0)
(1.04149 0.00434215 0)
(1.04132 0.00885461 0)
(1.04503 0.012537 0)
(1.05215 0.0154324 0)
(1.06318 0.0177885 0)
(1.07983 0.0198704 0)
(1.09988 0.0215814 0)
(1.0739 0.020414 0)
(0.874269 0.01248 0)
(0.497414 0.00360009 0)
(0.0993163 0.00020862 0)
(0.102984 -8.68463e-05 0)
(0.696782 -0.00445336 0)
(1.0006 -0.0111871 0)
(1.10761 -0.0142159 0)
(1.1026 -0.0127379 0)
(1.08212 -0.00992249 0)
(1.06743 -0.00664149 0)
(1.05694 -0.00289431 0)
(1.04948 0.00123289 0)
(1.045 0.0057477 0)
(1.04447 0.00997683 0)
(1.04791 0.0132184 0)
(1.05493 0.0156921 0)
(1.06604 0.0177127 0)
(1.0828 0.0193946 0)
(1.1005 0.0206632 0)
(1.06237 0.0188453 0)
(0.84742 0.0109981 0)
(0.476932 0.00314883 0)
(0.0948473 0.00018816 0)
(0.100995 -5.15231e-05 0)
(0.680824 -0.00326481 0)
(0.986571 -0.00882967 0)
(1.10668 -0.0117267 0)
(1.10706 -0.0103244 0)
(1.08672 -0.00749344 0)
(1.07168 -0.00430597 0)
(1.06085 -0.000727916 0)
(1.0531 0.00323211 0)
(1.04824 0.00747241 0)
(1.04728 0.0112828 0)
(1.05035 0.0140991 0)
(1.05718 0.0160783 0)
(1.06829 0.0175801 0)
(1.08511 0.0189418 0)
(1.10026 0.0198866 0)
(1.04991 0.0175252 0)
(0.822678 0.00984153 0)
(0.458914 0.00281969 0)
(0.0908422 0.000176163 0)
(0.0997802 -1.6881e-05 0)
(0.668782 -0.00211528 0)
(0.974606 -0.00646006 0)
(1.10563 -0.009109 0)
(1.11143 -0.00784186 0)
(1.09133 -0.0050499 0)
(1.07589 -0.00182381 0)
(1.06478 0.00176741 0)
(1.05659 0.00562307 0)
(1.05118 0.00959411 0)
(1.0497 0.0129781 0)
(1.05241 0.0152988 0)
(1.05895 0.0168372 0)
(1.06999 0.0179525 0)
(1.08706 0.0189285 0)
(1.09903 0.019342 0)
(1.03667 0.0164064 0)
(0.799838 0.00890267 0)
(0.442839 0.00257589 0)
(0.0871563 0.000169978 0)
(0.0993418 2.00854e-05 0)
(0.660587 -0.00100107 0)
(0.965086 -0.00407191 0)
(1.10454 -0.00627538 0)
(1.11554 -0.00515956 0)
(1.096 -0.00242158 0)
(1.08027 0.000932596 0)
(1.0688 0.00461937 0)
(1.06021 0.00842017 0)
(1.05426 0.0121745 0)
(1.05209 0.0151785 0)
(1.05417 0.0170054 0)
(1.06031 0.0180651 0)
(1.0712 0.0186933 0)
(1.08806 0.0191601 0)
(1.09659 0.0190521 0)
(1.02269 0.0154365 0)
(0.778732 0.0081834 0)
(0.428277 0.00241359 0)
(0.083666 0.000169045 0)
(0.099687 5.51041e-05 0)
(0.65627 0.000155234 0)
(0.958485 -0.00155606 0)
(1.10394 -0.00306381 0)
(1.11949 -0.00180236 0)
(1.10063 0.00102579 0)
(1.08452 0.00440136 0)
(1.07246 0.00802334 0)
(1.06317 0.0117528 0)
(1.05639 0.0153334 0)
(1.05342 0.01795 0)
(1.05491 0.0192097 0)
(1.06075 0.0195829 0)
(1.07152 0.0196037 0)
(1.08807 0.0195723 0)
(1.09272 0.0188227 0)
(1.00835 0.0147258 0)
(0.759107 0.00768384 0)
(0.414805 0.00232703 0)
(0.0802703 0.000173309 0)
(0.10096 0.000112376 0)
(0.656018 0.00137885 0)
(0.955012 0.00106138 0)
(1.10439 0.0003358 0)
(1.12384 0.00179905 0)
(1.10546 0.00475601 0)
(1.08896 0.00826436 0)
(1.07649 0.0120647 0)
(1.0666 0.0158621 0)
(1.05892 0.0192268 0)
(1.05495 0.0213572 0)
(1.05553 0.0220825 0)
(1.06065 0.0218553 0)
(1.07112 0.0212377 0)
(1.08722 0.0205179 0)
(1.08775 0.0191371 0)
(0.993518 0.0143719 0)
(0.740552 0.00740889 0)
(0.402046 0.00231162 0)
(0.0768767 0.000179802 0)
(0.103198 0.000159201 0)
(0.659506 0.0025845 0)
(0.95492 0.0038124 0)
(1.10593 0.00397189 0)
(1.12841 0.00558983 0)
(1.11053 0.00873092 0)
(1.09363 0.0125719 0)
(1.08054 0.0166528 0)
(1.06976 0.0206336 0)
(1.06092 0.0240126 0)
(1.0557 0.0258418 0)
(1.05525 0.0259488 0)
(1.05964 0.025059 0)
(1.06961 0.0237608 0)
(1.08514 0.022308 0)
(1.08113 0.0199942 0)
(0.977901 0.0144783 0)
(0.722598 0.00750348 0)
(0.389458 0.00241317 0)
(0.0734037 0.000190586 0)
(0.106585 0.000225106 0)
(0.667463 0.00391643 0)
(0.95833 0.00655009 0)
(1.10897 0.00798907 0)
(1.13339 0.0100873 0)
(1.11604 0.013645 0)
(1.09876 0.0179353 0)
(1.08491 0.0224087 0)
(1.07301 0.0266163 0)
(1.06273 0.0299058 0)
(1.05594 0.0312842 0)
(1.05424 0.0307103 0)
(1.05769 0.0290042 0)
(1.06702 0.0269949 0)
(1.08162 0.0248242 0)
(1.0728 0.0215139 0)
(0.961496 0.0153586 0)
(0.704455 0.00813646 0)
(0.376185 0.00268444 0)
(0.0696847 0.000211257 0)
(0.111243 0.000301782 0)
(0.67974 0.00533433 0)
(0.965702 0.00947055 0)
(1.11431 0.0122804 0)
(1.13948 0.0152562 0)
(1.12244 0.0195619 0)
(1.10461 0.0244828 0)
(1.08979 0.0294716 0)
(1.07656 0.0339872 0)
(1.06455 0.0371795 0)
(1.05584 0.03796 0)
(1.05257 0.0365891 0)
(1.05486 0.0340418 0)
(1.06346 0.0312365 0)
(1.07658 0.0283136 0)
(1.06299 0.0241471 0)
(0.943915 0.0172131 0)
(0.684937 0.00933762 0)
(0.361212 0.00312731 0)
(0.0654724 0.000244261 0)
(0.117363 0.000401247 0)
(0.696552 0.00707749 0)
(0.977448 0.0128802 0)
(1.12258 0.0171227 0)
(1.1473 0.021146 0)
(1.12997 0.0264657 0)
(1.11119 0.0322671 0)
(1.09504 0.0380224 0)
(1.07999 0.042995 0)
(1.06569 0.046132 0)
(1.05482 0.0462797 0)
(1.0498 0.0439625 0)
(1.05084 0.0404879 0)
(1.05873 0.036848 0)
(1.07023 0.033196 0)
(1.05146 0.0279905 0)
(0.924329 0.0199755 0)
(0.66281 0.0109927 0)
(0.343684 0.00369309 0)
(0.0605573 0.000285504 0)
(0.125412 0.000543527 0)
(0.71868 0.00944224 0)
(0.993885 0.017238 0)
(1.13388 0.0230174 0)
(1.15715 0.0281063 0)
(1.1391 0.0345962 0)
(1.11911 0.0415309 0)
(1.1012 0.0482886 0)
(1.08388 0.0539273 0)
(1.06682 0.0571506 0)
(1.05325 0.0567129 0)
(1.04615 0.05336 0)
(1.0458 0.0487616 0)
(1.05276 0.0441511 0)
(1.06236 0.0395585 0)
(1.03762 0.0329457 0)
(0.901873 0.0234887 0)
(0.637017 0.0129981 0)
(0.322992 0.00433372 0)
(0.0547955 0.000331375 0)
(0.136158 0.000759383 0)
(0.747452 0.012842 0)
(1.01601 0.0231082 0)
(1.14878 0.0307559 0)
(1.1693 0.0372716 0)
(1.15009 0.0452417 0)
(1.12846 0.0535286 0)
(1.10819 0.0613725 0)
(1.08791 0.0675769 0)
(1.0675 0.0706402 0)
(1.05079 0.0692976 0)
(1.0413 0.0647343 0)
(1.0392 0.0588585 0)
(1.04509 0.0528868 0)
(1.05241 0.0470904 0)
(1.02082 0.038853 0)
(0.875804 0.0277428 0)
(0.606601 0.0152475 0)
(0.298794 0.00500999 0)
(0.0481631 0.000375344 0)
(0.150878 0.00110568 0)
(0.784882 0.0179334 0)
(1.04577 0.0313377 0)
(1.16853 0.041532 0)
(1.18476 0.0503894 0)
(1.16336 0.0600902 0)
(1.13932 0.0698709 0)
(1.11587 0.0785988 0)
(1.09184 0.0848429 0)
(1.06744 0.0869575 0)
(1.04715 0.0838258 0)
(1.03508 0.0773543 0)
(1.0311 0.0698954 0)
(1.03544 0.0626853 0)
(1.04016 0.0554471 0)
(1.00091 0.0459859 0)
(0.845028 0.0328175 0)
(0.570749 0.0177179 0)
(0.270883 0.00571303 0)
(0.0406935 0.000415008 0)
(0.171726 0.00170894 0)
(0.83405 0.0258131 0)
(1.08574 0.043274 0)
(1.1947 0.05678 0)
(1.20453 0.0685968 0)
(1.17918 0.0804786 0)
(1.15143 0.0916339 0)
(1.12359 0.100689 0)
(1.09494 0.106197 0)
(1.06589 0.106557 0)
(1.04167 0.101056 0)
(1.02688 0.0922577 0)
(1.02118 0.0827712 0)
(1.02418 0.0741135 0)
(1.02589 0.0659554 0)
(0.977071 0.054909 0)
(0.807764 0.0385337 0)
(0.529062 0.0204239 0)
(0.239227 0.00643143 0)
(0.0324944 0.000445901 0)
(0.201932 0.00303856 0)
(0.900511 0.0390627 0)
(1.13838 0.0625741 0)
(1.22748 0.0794135 0)
(1.22872 0.0943873 0)
(1.1972 0.108012 0)
(1.1639 0.119513 0)
(1.13058 0.127872 0)
(1.09664 0.131842 0)
(1.06259 0.129918 0)
(1.03433 0.121936 0)
(1.01667 0.110955 0)
(1.00922 0.0996357 0)
(1.01122 0.0894118 0)
(1.00913 0.0796121 0)
(0.946459 0.0652007 0)
(0.7628 0.0446166 0)
(0.481814 0.0234512 0)
(0.204457 0.00718064 0)
(0.0239053 0.000462981 0)
(0.243142 0.00922252 1.70686e-20)
(0.988182 0.0655699 1.4487e-20)
(1.20104 0.0958879 -4.9658e-21)
(1.26435 0.113801 0)
(1.25422 0.131326 -1.16969e-34)
(1.21498 0.144427 1.68572e-21)
(1.17531 0.154528 -2.90215e-21)
(1.1361 0.161117 0)
(1.09658 0.162975 5.66705e-35)
(1.05725 0.158656 -3.31996e-21)
(1.02462 0.148375 0)
(1.0037 0.13565 -3.82176e-21)
(0.993895 0.122934 -1.11952e-20)
(0.993841 0.110959 -5.2644e-21)
(0.984721 0.0977968 -1.57376e-21)
(0.904858 0.0788698 -9.32544e-22)
(0.706717 0.053592 0)
(0.425751 0.0280966 6.54423e-22)
(0.167154 0.00903888 7.75508e-22)
(0.0158391 0.000755108 1.41406e-20)
(0.270531 0.0246234 1.43394e-20)
(1.05963 0.107612 1.05061e-22)
(1.25124 0.143731 1.40914e-21)
(1.29741 0.161624 0)
(1.27635 0.178168 -6.20808e-21)
(1.23027 0.188956 -6.87571e-21)
(1.18467 0.197162 -2.99409e-21)
(1.13965 0.201964 -1.02321e-20)
(1.09433 0.20199 0)
(1.04918 0.195655 1.41802e-20)
(1.01127 0.183287 1.3839e-20)
(0.985765 0.168587 4.06854e-21)
(0.971233 0.153715 1.4606e-20)
(0.963395 0.138178 2.03076e-20)
(0.940779 0.119974 0)
(0.847864 0.0970486 2.85364e-20)
(0.643251 0.0669034 4.10409e-20)
(0.370173 0.0361831 4.57184e-20)
(0.135524 0.012272 -5.2486e-20)
(0.00969113 0.000905645 -9.97651e-22)
(0.270479 0.0405517 0)
(1.10338 0.162421 2.91734e-21)
(1.2843 0.202576 0)
(1.32185 0.22044 -9.29552e-21)
(1.29315 0.233055 0)
(1.24196 0.239995 -1.40086e-20)
(1.19121 0.245061 6.23305e-21)
(1.14078 0.247019 -2.1067e-20)
(1.08995 0.244219 -3.16157e-22)
(1.03923 0.234758 7.43099e-21)
(0.996029 0.21906 3.02976e-20)
(0.965547 0.201239 -6.20108e-23)
(0.945294 0.183384 -1.05905e-20)
(0.929608 0.16529 -1.91028e-20)
(0.899272 0.14515 2.25828e-20)
(0.806423 0.120034 -4.00339e-20)
(0.609593 0.0851041 -5.30694e-21)
(0.351898 0.0478031 0)
(0.133087 0.0176719 2.34524e-24)
(0.0102739 0.00139739 0)
(0.263229 0.054241 4.97103e-20)
(1.12543 0.220906 -2.23405e-20)
(1.30364 0.26644 -1.48648e-20)
(1.33647 0.284469 4.67669e-21)
(1.30327 0.29293 -7.69727e-21)
(1.24893 0.295746 2.96574e-20)
(1.19423 0.296985 1.3159e-20)
(1.13916 0.295293 0)
(1.08332 0.288762 -3.83575e-20)
(1.02722 0.275248 0)
(0.978858 0.255429 -1.60272e-20)
(0.943564 0.234188 -1.93643e-20)
(0.918218 0.213741 -1.15186e-20)
(0.897159 0.193949 -1.38478e-20)
(0.864024 0.1731 0)
(0.77665 0.146448 0)
(0.593804 0.107496 -3.46695e-20)
(0.354599 0.0640879 6.8626e-21)
(0.143229 0.0258116 -4.03351e-21)
(0.0137632 0.00261107 -4.77614e-21)
(0.255542 0.0664896 -2.79633e-20)
(1.1341 0.279325 0)
(1.31317 0.331514 3.44336e-20)
(1.34289 0.35013 1.41239e-20)
(1.30695 0.354984 1.71517e-20)
(1.25085 0.353851 0)
(1.19326 0.351121 1.33427e-20)
(1.13437 0.345411 2.36678e-20)
(1.07413 0.334667 1.99518e-20)
(1.01318 0.316636 3.48596e-20)
(0.960048 0.29258 0)
(0.920523 0.26806 -4.17625e-20)
(0.891252 0.245544 -2.4877e-20)
(0.866763 0.22469 -1.46388e-20)
(0.832795 0.203333 8.89819e-20)
(0.753046 0.175075 1.06152e-20)
(0.5852 0.132701 5.01609e-20)
(0.362794 0.083063 -2.38049e-19)
(0.156825 0.0361917 1.41305e-19)
(0.0183339 0.00444272 -1.72493e-19)
(0.248731 0.0775893 -2.35046e-20)
(1.13468 0.335858 5.32113e-21)
(1.31591 0.395863 -4.712e-21)
(1.34315 0.415426 -1.74883e-20)
(1.3054 0.417205 -1.63455e-20)
(1.24823 0.41245 3.53371e-22)
(1.18844 0.405853 -1.43961e-20)
(1.12645 0.396057 2.48027e-20)
(1.06245 0.381003 -4.29029e-20)
(0.997211 0.358413 0)
(0.939956 0.330223 -1.91034e-20)
(0.896928 0.302765 -3.21923e-22)
(0.864728 0.278397 -2.70802e-20)
(0.838103 0.256761 0)
(0.804247 0.234921 -1.92243e-20)
(0.730315 0.205668 -4.57666e-20)
(0.577863 0.159621 1.22878e-19)
(0.370628 0.103376 -1.21271e-19)
(0.168765 0.0476945 1.72636e-19)
(0.0224699 0.00659257 -1.81686e-19)
(0.2434 0.0879958 -1.03384e-22)
(1.13057 0.389888 -4.82233e-21)
(1.31411 0.458564 -1.81007e-20)
(1.33895 0.479104 8.47182e-21)
(1.29981 0.478282 -8.50182e-21)
(1.24191 0.470266 0)
(1.18038 0.460016 -1.41778e-20)
(1.11579 0.44628 -2.61775e-20)
(1.04855 0.427031 -2.25167e-20)
(0.979612 0.400016 0)
(0.918822 0.367867 -1.99862e-20)
(0.87298 0.337594 -2.42208e-20)
(0.838684 0.311439 2.92663e-20)
(0.810777 0.288814 -1.75916e-20)
(0.777432 0.266149 -8.34632e-20)
(0.708558 0.235481 4.9832e-20)
(0.568677 0.186392 1.49807e-20)
(0.373963 0.123468 0)
(0.176252 0.0589022 -1.66193e-19)
(0.0253488 0.00869212 -6.16613e-21)
(0.239488 0.0980136 -2.71285e-21)
(1.12378 0.441247 4.60481e-21)
(1.30918 0.519288 9.41739e-21)
(1.33159 0.540453 2.81315e-20)
(1.29125 0.537402 -3.40857e-20)
(1.23276 0.526488 3.26252e-20)
(1.16977 0.512885 3.04368e-20)
(1.10296 0.495456 -4.18871e-20)
(1.0329 0.472238 1.32932e-20)
(0.960697 0.441004 -8.56867e-20)
(0.896834 0.40504 -2.22748e-20)
(0.848712 0.371943 0)
(0.812871 0.343891 3.16091e-20)
(0.784127 0.319992 3.75715e-20)
(0.751345 0.296383 4.47855e-20)
(0.686583 0.264047 -5.38447e-20)
(0.556828 0.211944 -1.59835e-20)
(0.371791 0.142227 1.88762e-20)
(0.178132 0.0687457 0)
(0.0267317 0.0104445 -1.33154e-20)
(0.236763 0.107728 2.43507e-20)
(1.11573 0.490003 -1.7371e-20)
(1.30199 0.577234 -9.71747e-21)
(1.32203 0.599086 1.89877e-20)
(1.28056 0.594096 -1.70068e-20)
(1.22152 0.58062 -8.1412e-22)
(1.15727 0.56401 -3.29436e-20)
(1.08853 0.543208 -1.50727e-20)
(1.01596 0.516303 -3.8965e-20)
(0.940809 0.481077 4.96683e-23)
(0.874201 0.441389 -7.01325e-20)
(0.824132 0.405391 5.75822e-20)
(0.787153 0.375255 -3.44469e-20)
(0.757948 0.349867 4.10551e-20)
(0.725784 0.325024 0)
(0.6643 0.290703 -2.90263e-20)
(0.541998 0.235057 -1.53186e-22)
(0.364237 0.158223 -8.17049e-20)
(0.175425 0.076264 -1.20807e-20)
(0.0266948 0.0116386 0)
(0.235087 0.117311 0)
(1.10712 0.536396 -1.7847e-20)
(1.29322 0.632377 -1.84892e-20)
(1.31096 0.654869 -1.93433e-20)
(1.2684 0.648141 -1.94569e-20)
(1.20881 0.632407 0)
(1.14344 0.613128 -1.60366e-20)
(1.07297 0.5893 -2.36467e-22)
(0.998146 0.559036 8.3394e-20)
(0.920265 0.520064 -1.18954e-20)
(0.851099 0.476722 -5.04595e-20)
(0.799324 0.437715 3.01554e-20)
(0.761415 0.405245 -4.10223e-22)
(0.731942 0.37806 4.36813e-20)
(0.700314 0.351595 2.66676e-20)
(0.641243 0.314843 -6.25494e-20)
(0.524169 0.254973 7.43544e-20)
(0.351827 0.170806 2.20531e-20)
(0.168429 0.0810433 9.13856e-20)
(0.0252853 0.0121265 -2.47372e-19)
(0.234286 0.126889 3.92202e-21)
(1.09846 0.580562 -7.88834e-21)
(1.28342 0.68478 7.41428e-21)
(1.29888 0.707785 1.90163e-20)
(1.25528 0.699461 0)
(1.19513 0.681732 -1.73231e-20)
(1.12874 0.660108 5.27081e-20)
(1.05673 0.633601 3.34745e-20)
(0.979813 0.600318 0)
(0.899345 0.557879 -1.69423e-19)
(0.827708 0.510958 1.35888e-19)
(0.774268 0.468826 0)
(0.735533 0.433773 3.99598e-20)
(0.705854 0.404514 -4.06245e-22)
(0.674633 0.376042 -8.5126e-20)
(0.617182 0.336356 3.33884e-20)
(0.503582 0.271405 0)
(0.335496 0.179836 1.1866e-19)
(0.157966 0.0834376 0)
(0.0229811 0.0120328 -1.16639e-19)
(0.23418 0.136453 -3.49694e-21)
(1.09001 0.622646 -6.78851e-21)
(1.27292 0.734456 8.27269e-21)
(1.28618 0.757857 0)
(1.2416 0.748076 -1.96892e-20)
(1.18089 0.728581 0)
(1.11357 0.704896 -5.38574e-20)
(1.04015 0.676042 -1.63793e-20)
(0.961268 0.640091 1.50576e-20)
(0.878281 0.594486 -8.37242e-20)
(0.804138 0.544101 1.41543e-20)
(0.748975 0.498725 0)
(0.709379 0.460865 -8.53333e-20)
(0.679505 0.429205 4.14342e-22)
(0.648534 0.398334 0)
(0.591942 0.355178 4.41611e-22)
(0.480344 0.284313 1.07675e-19)
(0.31561 0.185071 -1.02319e-19)
(0.144868 0.0833806 3.03021e-20)
(0.0200717 0.0113716 0)
(0.234414 0.145872 0)
(1.08195 0.662626 -5.96177e-21)
(1.26203 0.781493 -6.93515e-21)
(1.27315 0.805163 -4.68503e-22)
(1.22765 0.794033 -9.10829e-21)
(1.16641 0.772978 -3.909e-20)
(1.09824 0.747495 1.97017e-20)
(1.0235 0.716604 -1.85949e-20)
(0.942765 0.678323 6.62126e-20)
(0.857269 0.629877 -1.33714e-19)
(0.780502 0.576192 -6.91656e-22)
(0.723444 0.527492 -3.79274e-20)
(0.682881 0.486557 1.38009e-19)
(0.652774 0.452214 -4.86314e-22)
(0.621879 0.418548 -6.57366e-20)
(0.565447 0.371262 -1.17442e-19)
(0.454747 0.293718 0)
(0.292844 0.186732 0)
(0.129805 0.0808983 3.26526e-20)
(0.016787 0.0102277 -1.93661e-20)
(0.235186 0.155254 -2.26439e-21)
(1.07436 0.700591 1.11456e-20)
(1.25094 0.82598 7.32308e-21)
(1.26 0.84978 0)
(1.21366 0.837406 -3.20318e-22)
(1.15193 0.814973 -3.90051e-20)
(1.08298 0.787934 4.97352e-20)
(1.00704 0.755292 7.54608e-20)
(0.924514 0.715017 8.67389e-20)
(0.836504 0.664077 -1.09668e-19)
(0.756943 0.607311 -1.16341e-19)
(0.697755 0.555257 1.01398e-19)
(0.656037 0.511012 0)
(0.62557 0.473643 -2.98721e-20)
(0.594586 0.436718 -7.10004e-20)
(0.537707 0.384555 -8.42278e-20)
(0.426785 0.299425 -1.00192e-19)
(0.267812 0.184802 2.97117e-20)
(0.113275 0.0760591 -1.75507e-20)
(0.0132063 0.00862607 6.3465e-23)
(0.236096 0.164435 0)
(1.06723 0.736882 0)
(1.2398 0.867992 5.39651e-22)
(1.2469 0.891799 0)
(1.19982 0.87829 2.80897e-20)
(1.13762 0.854641 2.92032e-20)
(1.06798 0.826252 0)
(0.990927 0.792129 9.37195e-21)
(0.906706 0.750182 1.45707e-19)
(0.816173 0.697121 -2.51737e-19)
(0.733642 0.637567 0)
(0.672009 0.582196 -6.51215e-20)
(0.628786 0.534397 -5.91694e-22)
(0.597776 0.493586 -4.81125e-22)
(0.566523 0.452828 7.58603e-20)
(0.508677 0.394932 -7.8774e-23)
(0.396685 0.301376 -2.15501e-19)
(0.240712 0.179261 6.38952e-20)
(0.096152 0.0693195 1.8952e-20)
(0.00967123 0.00676068 0)
(0.236981 0.173456 2.22526e-21)
(1.06036 0.771493 3.63651e-21)
(1.22869 0.907593 1.14777e-20)
(1.23399 0.931318 -3.23195e-20)
(1.18624 0.916761 4.66881e-20)
(1.12365 0.892053 0)
(1.05339 0.862508 3.17579e-20)
(0.975325 0.827149 -2.05047e-20)
(0.889492 0.78384 7.81925e-22)
(0.796453 0.729049 1.83525e-20)
(0.710761 0.667059 1.50696e-19)
(0.646273 0.608498 -2.29227e-20)
(0.601118 0.556941 -8.4844e-20)
(0.56924 0.512171 -3.46824e-20)
(0.537538 0.466786 4.11796e-20)
(0.478384 0.402141 -4.58113e-23)
(0.36512 0.29943 5.8072e-20)
(0.212712 0.170434 -1.37385e-19)
(0.0791326 0.0611355 1.63042e-19)
(0.00632524 0.00476022 2.40758e-20)
(0.237606 0.182204 1.16919e-22)
(1.05376 0.804495 1.38169e-21)
(1.21774 0.944891 1.26562e-21)
(1.22136 0.968457 -1.4743e-20)
(1.17303 0.952931 -8.59643e-21)
(1.1101 0.927285 -5.36334e-20)
(1.03932 0.896758 1.02233e-20)
(0.960342 0.860379 -8.62717e-20)
(0.873001 0.815998 -1.62164e-19)
(0.777484 0.759865 -1.50728e-19)
(0.688451 0.695855 0)
(0.620695 0.634346 -9.98543e-20)
(0.573048 0.578943 1.21878e-19)
(0.539757 0.529587 0)
(0.507329 0.478405 -8.81374e-20)
(0.446802 0.405643 5.26995e-20)
(0.332642 0.293161 -6.2365e-20)
(0.184977 0.158553 -7.39484e-20)
(0.063135 0.052043 -1.31327e-19)
(0.0033578 0.0027806 -1.03685e-19)
(0.238532 0.19077 -1.08532e-21)
(1.04731 0.835859 -1.46028e-21)
(1.207 0.979944 -5.17772e-21)
(1.20907 1.00329 -1.78335e-20)
(1.16026 0.986888 1.90557e-20)
(1.09705 0.960426 -3.22022e-20)
(1.02584 0.929056 3.33599e-20)
(0.946058 0.891867 -8.99474e-20)
(0.857312 0.846678 -9.6382e-20)
(0.759385 0.789587 1.58384e-19)
(0.666878 0.724017 3.31062e-19)
(0.595447 0.659902 0)
(0.544647 0.600717 0)
(0.509086 0.546183 -3.9899e-20)
(0.475324 0.487538 0)
(0.413586 0.404498 1.13421e-19)
(0.300016 0.281615 1.3425e-19)
(0.159291 0.143602 0)
(0.0494834 0.0426389 0)
(0.000948602 0.000990125 1.11448e-19)
(0.239058 0.198821 2.30911e-21)
(1.04101 0.865572 1.50804e-21)
(1.19653 1.01286 -3.26917e-21)
(1.19718 1.03596 1.2744e-20)
(1.14797 1.01873 1.88146e-20)
(1.08455 0.99155 3.76328e-20)
(1.01301 0.959468 -4.65908e-20)
(0.932529 0.921643 4.85111e-23)
(0.842499 0.875888 -1.01546e-21)
(0.742257 0.81821 -1.15231e-21)
(0.646215 0.751584 1.70576e-19)
(0.570713 0.685284 0)
(0.516077 0.622557 1.22794e-19)
(0.477054 0.562492 8.50638e-20)
(0.440646 0.494414 2.05216e-19)
(0.37763 0.397581 6.09814e-20)
(0.26777 0.262533 -7.24102e-20)
(0.139139 0.12367 -4.26502e-20)
(0.0425574 0.032368 0)
(7.77856e-05 -0.000380372 1.19773e-19)
(0.23989 0.206853 -7.40981e-21)
(1.03487 0.89379 0)
(1.18633 1.04369 -1.45629e-21)
(1.1857 1.06652 9.1015e-21)
(1.13621 1.04856 -1.76812e-20)
(1.07263 1.02074 -4.80666e-20)
(1.00086 0.988048 9.49688e-20)
(0.919788 0.949746 -7.07058e-21)
(0.8286 0.903642 0)
(0.726182 0.845704 -1.76166e-19)
(0.626613 0.778558 -3.71712e-19)
(0.546703 0.710586 1.48003e-20)
(0.4876 0.644701 1.68733e-19)
(0.443666 0.579153 0)
(0.402313 0.499962 1.38136e-19)
(0.336505 0.384548 0)
(0.233559 0.23198 0)
(0.12798 0.0877047 -4.61992e-20)
(0.0644278 0.00783543 0)
(0.0249562 0.0059588 3.21153e-20)
(0.240246 0.214266 -1.01064e-20)
(1.02885 0.920701 0)
(1.1764 1.07264 -4.39494e-22)
(1.1746 1.0952 0)
(1.12492 1.07661 8.1915e-21)
(1.06123 1.04828 0)
(0.989318 1.01511 5.4329e-21)
(0.907739 0.976519 1.25931e-20)
(0.815503 0.930314 1.21288e-20)
(0.711005 0.872463 -1.94357e-19)
(0.607933 0.805396 1.13223e-20)
(0.523243 0.736394 1.18306e-19)
(0.458939 0.66777 1.64519e-19)
(0.408352 0.597058 2.19854e-20)
(0.358793 0.506177 1.07931e-19)
(0.285953 0.367439 0)
(0.186878 0.189931 1.52693e-19)
(0.0977509 0.0307534 -8.99699e-20)
(0.034015 0.0574475 1.05163e-19)
(-0.0376073 0.44538 -1.24862e-19)
(0.240512 0.221472 9.44029e-21)
(1.02276 0.94621 1.14299e-20)
(1.16666 1.10002 0)
(1.16374 1.12246 1.09556e-21)
(1.11394 1.10347 -1.93314e-20)
(1.05009 1.07486 7.80686e-20)
(0.978084 1.04145 3.55215e-20)
(0.895991 1.00291 0)
(0.802695 0.957012 8.26257e-20)
(0.69607 0.899802 -1.03916e-20)
(0.589295 0.833591 0)
(0.49919 0.764488 0)
(0.428666 0.693585 1.46825e-19)
(0.369455 0.617622 -6.74981e-20)
(0.307617 0.516061 -1.0872e-19)
(0.22205 0.35165 0)
(0.105235 0.179433 7.74168e-20)
(0.0108539 0.460196 -9.0559e-20)
(0.0351512 1.90334 -5.14696e-20)
(0.0626233 2.81209 -6.25631e-20)
(0.240394 0.228072 -8.41046e-21)
(1.01665 0.970492 -1.70729e-20)
(1.15713 1.12582 1.12363e-21)
(1.15314 1.14813 -3.45285e-21)
(1.10332 1.12893 0)
(1.03929 1.1002 5.18967e-20)
(0.967352 1.06677 5.2198e-20)
(0.884721 1.02849 -6.33062e-21)
(0.790441 0.983214 1.22251e-20)
(0.681752 0.927102 1.86484e-19)
(0.571313 0.86244 1.88822e-19)
(0.475534 0.794508 1.32347e-19)
(0.397878 0.721846 1.4718e-19)
(0.328989 0.63938 -1.57507e-19)
(0.255963 0.532261 -1.63373e-19)
(0.143808 0.384646 0)
(0.0500341 0.863648 0)
(0.0974596 2.5653 4.34521e-20)
(0.099828 3.20104 0)
(0.100322 3.38527 1.15057e-19)
(0.24304 0.234169 0)
(1.01074 0.993872 0)
(1.14755 1.1499 0)
(1.14257 1.17203 -2.53176e-22)
(1.09278 1.15278 -1.59696e-20)
(1.02862 1.12415 3.49111e-20)
(0.957044 1.09095 3.49639e-20)
(0.873859 1.05313 -6.31947e-21)
(0.778675 1.00875 1.05867e-19)
(0.668041 0.954199 -2.05299e-21)
(0.554074 0.891723 3.74502e-19)
(0.452706 0.826486 -1.51174e-20)
(0.366855 0.75297 1.79197e-20)
(0.28934 0.660088 2.26841e-20)
(0.197454 0.555551 -1.34791e-22)
(0.108634 1.00401 3.29495e-22)
(0.1388 2.73266 -2.23657e-19)
(0.145197 3.29565 -8.59154e-20)
(0.133159 3.42458 4.68913e-20)
(0.120105 3.44524 -5.34549e-20)
(0.164889 0.17877 6.16628e-21)
(1.00062 1.01909 0)
(1.13785 1.17254 -6.38903e-21)
(1.1324 1.19446 4.32387e-21)
(1.08278 1.17549 -2.47524e-20)
(1.01871 1.14716 -3.53009e-20)
(0.946944 1.11403 -3.80931e-20)
(0.863443 1.07686 7.72464e-20)
(0.767526 1.03362 -8.85376e-20)
(0.65522 0.981084 0)
(0.537948 0.921361 1.85798e-19)
(0.431248 0.860194 -1.08416e-19)
(0.336115 0.789673 0)
(0.246744 0.686201 2.18328e-20)
(0.15342 0.848395 5.24288e-20)
(0.153771 2.52016 -6.08272e-20)
(0.206193 3.3296 7.00699e-20)
(0.185848 3.43979 3.87634e-20)
(0.153399 3.45859 4.50869e-20)
(0.132268 3.46706 7.39578e-20)
(0.278443 0.273166 -1.11971e-20)
(0.984254 1.03 0)
(1.1204 1.19846 9.83441e-21)
(1.11834 1.22783 7.90796e-22)
(1.06696 1.2094 1.95142e-20)
(1.00236 1.18157 2.99097e-20)
(0.929529 1.14979 4.58426e-20)
(0.845327 1.11384 5.92367e-21)
(0.748014 1.07273 8.72643e-20)
(0.632922 1.02408 1.66315e-19)
(0.510563 0.970227 1.0717e-20)
(0.395907 0.917166 9.69174e-20)
(0.282093 0.855298 1.69715e-20)
(0.216504 1.02011 -2.10192e-20)
(0.223906 2.38685 -4.85638e-20)
(0.275492 3.33818 5.04424e-20)
(0.259434 3.47127 -5.66842e-20)
(0.223552 3.48909 -3.32071e-20)
(0.188023 3.5127 -3.25355e-20)
(0.141393 3.50574 -4.71351e-21)
(0.268731 0.272139 0)
(0.981856 1.05309 4.70445e-21)
(1.11249 1.22211 -2.61031e-21)
(1.10849 1.25125 -7.42772e-22)
(1.05685 1.23271 9.89224e-21)
(0.992325 1.20512 -2.74404e-20)
(0.91916 1.17358 -2.76721e-20)
(0.834783 1.13847 5.50121e-21)
(0.737034 1.09883 -9.25823e-20)
(0.620831 1.05299 -2.98405e-21)
(0.496088 1.00372 -3.40601e-19)
(0.377383 0.956174 1.37411e-20)
(0.271587 0.930052 -1.61998e-20)
(0.252478 1.56383 -1.96488e-20)
(0.31372 3.13151 3.6393e-21)
(0.329917 3.47566 4.58495e-22)
(0.287363 3.52433 9.12863e-20)
(0.251984 3.54447 4.88613e-20)
(0.204879 3.56362 -2.05104e-20)
(0.153109 3.55834 -2.6214e-20)
(0.254493 0.270029 1.37714e-20)
(0.978534 1.07878 3.36815e-20)
(1.10417 1.24782 -7.71657e-21)
(1.09823 1.27622 -2.77295e-21)
(1.0464 1.25749 0)
(0.981953 1.22993 -3.05384e-20)
(0.908703 1.19866 -3.67924e-20)
(0.824407 1.16431 5.05656e-21)
(0.726527 1.1262 -1.01586e-20)
(0.60973 1.08338 -1.55542e-19)
(0.48343 1.03913 -1.59525e-19)
(0.362757 0.998525 -1.1518e-19)
(0.277024 1.07065 -1.22527e-19)
(0.315419 2.27755 1.25684e-19)
(0.393144 3.39914 1.12205e-19)
(0.369227 3.53607 0)
(0.318672 3.57114 0)
(0.281259 3.60372 -1.65483e-20)
(0.233868 3.6498 0)
(0.162772 3.63018 -3.07222e-20)
(0.244304 0.271799 -2.24151e-20)
(0.973217 1.10534 -3.08791e-20)
(1.09451 1.27479 0)
(1.0868 1.30212 1.3153e-21)
(1.03482 1.28297 3.71252e-21)
(0.970566 1.2553 -3.84085e-20)
(0.897545 1.2243 -2.16635e-20)
(0.813557 1.19063 3.93764e-21)
(0.715804 1.15399 -7.01889e-20)
(0.598823 1.11415 8.17651e-21)
(0.471764 1.07509 0)
(0.352934 1.04531 0)
(0.305655 1.34038 -1.13495e-19)
(0.391971 2.94523 4.70858e-20)
(0.459359 3.50554 6.39035e-20)
(0.407695 3.57257 0)
(0.364317 3.62654 -1.79219e-20)
(0.320541 3.67348 1.14478e-20)
(0.269991 3.63919 -7.58507e-21)