/*--------------------------------*- C++ -*----------------------------------*\
  =========                 |
  \\      /  F ield         | OpenFOAM: The Open Source CFD Toolbox
   \\    /   O peration     | Website:  https://openfoam.org
    \\  /    A nd           | Version:  6
     \\/     M anipulation  |
\*---------------------------------------------------------------------------*/
FoamFile
{
    version     2.0;
    format      ascii;
    class       surfaceScalarField;
    location    "4.1";
    object      phi;
}
// * * * * * * * * * * * * * * * * * * * * * * * * * * * * * * * * * * * * * //

dimensions      [0 3 -1 0 0 0 0];

internalField   nonuniform List<scalar> 
17370
(
-0.0901564
0.0900904
0.289077
-0.0716284
0.0535554
0.364849
-0.0376087
0.0272954
0.426481
-0.0191359
0.0139799
0.504408
-0.0100388
0.00766074
0.60178
-0.00574692
0.00465348
0.720151
-0.00374544
0.00309386
0.863558
-0.00238406
0.00184667
1.03599
-0.00127151
0.000812652
1.24296
-0.000326837
-4.17499e-05
1.49156
0.000420049
-0.000910331
1.49168
0.0013668
-0.00193604
1.24326
0.00246596
-0.00316709
1.03634
0.00382286
-0.00472426
0.863808
0.00580023
-0.0077092
0.720966
0.0100777
-0.0140111
0.603148
0.0191607
-0.0273154
0.507594
0.0376254
-0.0535689
0.432112
0.0716383
-0.0900965
0.365234
0.0901606
0.19885
-0.128807
0.0918134
0.0369932
-0.36471
0.353798
-0.0690015
0.0799128
-0.447541
0.454706
-0.0787622
0.0715968
-0.521587
0.530134
-0.063449
0.0549021
-0.612601
0.620855
-0.0469232
0.0386696
-0.726727
0.73284
-0.0318201
0.0257067
-0.866974
0.871294
-0.0209056
0.0165857
-1.03796
1.04104
-0.0131614
0.0100824
-1.24439
1.2466
-0.00766517
0.00545454
-1.49259
1.49455
-0.00358036
0.00162266
-1.49235
1.49416
0.000182724
-0.00199101
-1.24385
1.2457
0.00392815
-0.00577813
-1.03714
1.03954
0.00796921
-0.0103715
-0.865512
0.868921
0.0134325
-0.016842
-0.724017
0.728798
0.021145
-0.0259257
-0.60851
0.61533
0.0319979
-0.0388174
-0.515002
0.522964
0.0470402
-0.0550024
-0.440539
0.448681
0.0635404
-0.0716831
-0.375809
0.376945
0.0788373
-0.0799732
-0.257198
0.225165
0.069043
-0.0370096
-0.0763113
0.0701084
0.00620293
-0.0295828
0.0342943
-0.373383
0.368671
-0.0361275
0.0364636
-0.451194
0.450858
-0.0358008
0.0348696
-0.526384
0.527316
-0.03323
0.0312834
-0.619622
0.621568
-0.0286237
0.0257474
-0.733297
0.736173
-0.0221916
0.0187646
-0.872789
0.876216
-0.0151005
0.0118902
-1.04261
1.04582
-0.00858115
0.0056963
-1.24832
1.25121
-0.00260508
-0.00035339
-1.49676
1.49972
0.00329305
-0.00635887
-1.4972
1.50026
0.00920583
-0.0124655
-1.24947
1.25273
0.0156327
-0.0192697
-1.04458
1.04821
0.0226658
-0.02617
-0.875753
0.879257
0.0289937
-0.0316061
-0.737587
0.740199
0.0335182
-0.0351239
-0.624855
0.626461
0.0360172
-0.03663
-0.533051
0.533663
0.0362599
-0.0343956
-0.455058
0.453194
0.0296592
-0.0186209
-0.340582
0.329543
0.0062186
-0.0762651
0.0700465
-0.0678957
0.0677829
0.000112786
-0.00924813
0.0154779
-0.362649
0.356419
-0.0214672
0.0258638
-0.448704
0.444307
-0.0287671
0.0298149
-0.527394
0.526346
-0.0296319
0.0286875
-0.622585
0.623529
-0.0270185
0.0250951
-0.73825
0.740174
-0.0226126
0.0200948
-0.878942
0.88146
-0.0169464
0.0138733
-1.04892
1.05199
-0.0103182
0.00693726
-1.25454
1.25792
-0.0030245
-0.000792629
-1.50341
1.50723
0.00459897
-0.0084777
-1.50402
1.5079
0.0118005
-0.0152435
-1.25625
1.2597
0.0181782
-0.0211884
-1.05139
1.0544
0.0235861
-0.0259591
-0.881849
0.884222
0.0277987
-0.0293872
-0.741873
0.743461
0.0302548
-0.0303522
-0.62702
0.627117
0.0292303
-0.0262488
-0.533078
0.530096
0.0217772
-0.0157107
-0.449088
0.443021
0.00940472
-0.00311299
-0.320491
0.314199
0.000135938
-0.0678081
0.0676721
-0.0681375
0.0681195
1.79384e-05
-0.0027032
0.00569386
-0.351813
0.348823
-0.00946911
0.0127374
-0.43996
0.436692
-0.0158295
0.0180325
-0.524096
0.521893
-0.0196661
0.0204629
-0.623415
0.622618
-0.0206202
0.0200954
-0.741598
0.742123
-0.0188631
0.0172137
-0.883781
0.88543
-0.0149368
0.0124851
-1.05486
1.05731
-0.00942362
0.00631807
-1.2612
1.2643
-0.00261331
-0.00105347
-1.511
1.51467
0.00469256
-0.00831246
-1.51168
1.5153
0.011316
-0.0142627
-1.26293
1.26588
0.0166012
-0.0187308
-1.05713
1.05926
0.0202429
-0.0213276
-0.886189
0.887273
0.0217162
-0.0214084
-0.744196
0.743888
0.0204769
-0.0186974
-0.625699
0.62392
0.0163742
-0.0131621
-0.526236
0.523024
0.0097942
-0.00592135
-0.437567
0.433694
0.00285154
-0.00070824
-0.310643
0.3085
4.21089e-05
-0.0680055
0.0679634
-0.0679359
0.0678565
7.94252e-05
-0.00137198
0.00273764
-0.346806
0.34544
-0.00459644
0.00637276
-0.434291
0.432514
-0.00822231
0.00973477
-0.520063
0.518551
-0.0110941
0.0120119
-0.621725
0.620807
-0.0125843
0.0127058
-0.742231
0.74211
-0.0123641
0.0116404
-0.886482
0.887206
-0.0103759
0.00882388
-1.05925
1.0608
-0.00669941
0.00441784
-1.26699
1.26927
-0.00156289
-0.00131736
-1.51803
1.52091
0.00417242
-0.00693268
-1.51855
1.52131
0.00908239
-0.0110363
-1.2683
1.27025
0.0124215
-0.0134917
-1.06074
1.06181
0.0140306
-0.0141693
-0.887755
0.887894
0.0138694
-0.0131123
-0.743308
0.742551
0.0120388
-0.0105242
-0.62228
0.620766
0.00888069
-0.00690007
-0.520538
0.518558
0.00501236
-0.00303758
-0.430957
0.428982
0.0015723
-0.000543698
-0.307005
0.305976
0.000113822
-0.06775
0.0676362
-0.067834
0.0678031
3.08997e-05
-0.000613978
0.00121791
-0.344539
0.343935
-0.00206272
0.00291104
-0.431268
0.43042
-0.00385432
0.00468002
-0.517396
0.51657
-0.00550277
0.00613312
-0.620001
0.61937
-0.00664006
0.00689339
-0.741871
0.741617
-0.00689963
0.00662336
-0.887664
0.88794
-0.00598643
0.00509323
-1.062
1.06289
-0.00377118
0.00226746
-1.27115
1.27265
-0.000339212
-0.00160235
-1.52328
1.52522
0.00348411
-0.00527224
-1.52355
1.52534
0.00661875
-0.00773857
-1.27177
1.27289
0.00842833
-0.00883362
-1.06251
1.06292
0.00889799
-0.00866191
-0.887789
0.887553
0.00820395
-0.00748166
-0.741758
0.741036
0.00666438
-0.00564899
-0.619482
0.618467
0.00465833
-0.00354745
-0.51705
0.515939
0.0025585
-0.00157227
-0.427592
0.426606
0.000849547
-0.000316626
-0.305264
0.304731
7.06173e-05
-0.0675777
0.0675071
-0.0677774
0.0677679
9.52147e-06
-0.000277921
0.000560985
-0.343519
0.343236
-0.000957367
0.00136012
-0.429835
0.429433
-0.00181646
0.00222718
-0.515986
0.515575
-0.00264961
0.00298796
-0.618902
0.618563
-0.00327636
0.00343688
-0.741403
0.741243
-0.00346567
0.00332966
-0.88812
0.888256
-0.00297265
0.00244123
-1.06357
1.0641
-0.00162102
0.000664207
-1.27384
1.2748
0.000599064
-0.00190806
-1.52683
1.52814
0.00317686
-0.00430498
-1.52677
1.5279
0.00507467
-0.00564354
-1.27369
1.27426
0.00592526
-0.00599889
-1.06313
1.0632
0.0058745
-0.00556481
-0.887263
0.886953
0.00515605
-0.00460799
-0.740408
0.73986
0.00404533
-0.0033927
-0.617663
0.617011
0.0027863
-0.00213123
-0.515101
0.514446
0.00156102
-0.000995053
-0.425873
0.425307
0.000568044
-0.000231758
-0.304312
0.303975
5.90251e-05
-0.0674371
0.0673781
-0.0677704
0.0677818
-1.13967e-05
-5.5574e-05
0.000166644
-0.343051
0.34294
-0.000331171
0.000501153
-0.429163
0.428993
-0.000695187
0.000870065
-0.515297
0.515122
-0.00104889
0.00118856
-0.618333
0.618193
-0.00129936
0.0013447
-0.741139
0.741094
-0.00131154
0.00118585
-0.888378
0.888504
-0.000921794
0.000551177
-1.06453
1.0649
7.7445e-06
-0.00065361
-1.27558
1.27623
0.00149525
-0.00234543
-1.52919
1.53004
0.00313923
-0.0038075
-1.52877
1.52944
0.00422069
-0.00447543
-1.27465
1.27491
0.0045442
-0.00446104
-1.06318
1.0631
0.00426664
-0.00395488
-0.886639
0.886327
0.00360518
-0.00317642
-0.739378
0.738949
0.00276276
-0.00230317
-0.616469
0.61601
0.00189004
-0.00145428
-0.51392
0.513484
0.00108036
-0.000708536
-0.424856
0.424485
0.000420964
-0.000182519
-0.303698
0.303459
5.02416e-05
-0.0673256
0.0672753
-0.0678025
0.0678308
-2.82826e-05
8.35211e-05
-8.08433e-05
-0.342889
0.342886
5.54862e-05
-2.5036e-05
-0.428899
0.428869
-7.71374e-06
3.20995e-05
-0.515029
0.515005
-4.73047e-05
4.43102e-05
-0.61813
0.618133
-1.3872e-05
-4.83542e-05
-0.741104
0.741166
0.000166369
-0.000331079
-0.888645
0.88881
0.000586505
-0.000896299
-1.06523
1.06554
0.00132473
-0.00179162
-1.27677
1.27724
0.00236979
-0.0029223
-1.53073
1.53128
0.00340341
-0.00377153
-1.52994
1.53031
0.00395941
-0.00399899
-1.27504
1.27508
0.00392884
-0.00374992
-1.06296
1.06279
0.00351589
-0.0032041
-0.886018
0.885706
0.00288727
-0.00252198
-0.738559
0.738194
0.00218396
-0.00181922
-0.615607
0.615243
0.00149802
-0.00116401
-0.513109
0.512775
0.000879283
-0.000594597
-0.424166
0.423881
0.000368206
-0.000169879
-0.303246
0.303048
5.04849e-05
-0.0672256
0.0671751
-0.0678665
0.0679094
-4.29187e-05
0.000204652
-0.000271425
-0.342917
0.342984
0.000341489
-0.000409489
-0.428893
0.428961
0.000491776
-0.00057687
-0.51504
0.515125
0.000683976
-0.0007979
-0.618195
0.618308
0.000944749
-0.00110374
-0.741278
0.741437
0.00131095
-0.0015354
-0.889003
0.889227
0.00182486
-0.00213051
-1.06585
1.06615
0.00250886
-0.00288417
-1.27765
1.27803
0.0033079
-0.00367125
-1.53173
1.53209
0.00394301
-0.0040912
-1.53056
1.53071
0.00410582
-0.00403298
-1.27506
1.27499
0.00385516
-0.00359791
-1.06257
1.06231
0.00331974
-0.00298626
-0.885386
0.885053
0.00266854
-0.00231759
-0.737841
0.73749
0.00200242
-0.00166947
-0.6149
0.614567
0.00138058
-0.0010831
-0.512466
0.512168
0.000830508
-0.000576345
-0.423617
0.423363
0.000368905
-0.000178201
-0.302856
0.302666
5.57272e-05
-0.0671226
0.0670669
-0.0679609
0.0680216
-6.06966e-05
0.000322585
-0.000458721
-0.343088
0.343224
0.000609588
-0.000756418
-0.429068
0.429215
0.000931595
-0.00110665
-0.515255
0.51543
0.00131683
-0.00152728
-0.618471
0.618682
0.00177981
-0.00203219
-0.741642
0.741895
0.00233386
-0.00263261
-0.889487
0.889785
0.00298406
-0.00332278
-1.06647
1.06681
0.00370452
-0.00404753
-1.27838
1.27872
0.00439177
-0.00464082
-1.53239
1.53264
0.00477433
-0.00477553
-1.53078
1.53078
0.00466383
-0.00444312
-1.27484
1.27462
0.00418562
-0.00385124
-1.06202
1.06168
0.00351838
-0.00313902
-0.8847
0.884321
0.00279047
-0.00241536
-0.737131
0.736756
0.00208487
-0.0017405
-0.614233
0.613889
0.0014446
-0.00114188
-0.511873
0.51157
0.000885426
-0.000625997
-0.42311
0.42285
0.00040989
-0.000204002
-0.30247
0.302264
6.58049e-05
-0.0670067
0.0669409
-0.0680917
0.0681718
-8.0183e-05
0.00044416
-0.000645048
-0.343392
0.343593
0.000875013
-0.00110029
-0.429401
0.429626
0.00136774
-0.00163242
-0.51565
0.515914
0.00194611
-0.00225497
-0.61894
0.619249
0.00261787
-0.00297114
-0.742196
0.742549
0.00338024
-0.00377041
-0.890128
0.890518
0.00420965
-0.00461163
-1.06718
1.06758
0.00503733
-0.00539112
-1.27906
1.27942
0.00570793
-0.00589176
-1.53285
1.53303
0.00592957
-0.00581233
-1.53072
1.5306
0.00559272
-0.00525746
-1.27434
1.27401
0.004896
-0.00446305
-1.0613
1.06087
0.00405075
-0.00359516
-0.883907
0.883451
0.00318564
-0.00275188
-0.736356
0.735922
0.00237411
-0.00198378
-0.613525
0.613135
0.00165037
-0.00131061
-0.511252
0.510913
0.00102317
-0.00073133
-0.422578
0.422286
0.000485061
-0.000245348
-0.302043
0.301804
8.04152e-05
-0.0668683
0.0667879
-0.0682635
0.068368
-0.000104549
0.000589049
-0.000862464
-0.343829
0.344102
0.00117865
-0.00148907
-0.429892
0.430203
0.00185714
-0.00222022
-0.516227
0.51659
0.00264851
-0.00306755
-0.619611
0.62003
0.0035558
-0.00402604
-0.742959
0.743429
0.00456325
-0.00506695
-0.890961
0.891465
0.00562185
-0.00611599
-1.06802
1.06852
0.00662063
-0.0070189
-1.27979
1.28019
0.00734517
-0.00749399
-1.5332
1.53334
0.00745715
-0.00723105
-1.53043
1.5302
0.00689924
-0.00643908
-1.27361
1.27315
0.00596342
-0.00540936
-1.06038
1.05982
0.00489252
-0.00432998
-0.882946
0.882384
0.00382994
-0.0033048
-0.735447
0.734922
0.00285028
-0.00238287
-0.61271
0.612243
0.00198495
-0.00158039
-0.510544
0.510139
0.0012384
-0.00089045
-0.421969
0.421621
0.00059466
-0.000303313
-0.30154
0.301249
0.000100205
-0.0666983
0.0665981
-0.0684871
0.0686227
-0.000135587
0.000768834
-0.00112929
-0.344417
0.344777
0.00154771
-0.00195874
-0.430561
0.430972
0.00244574
-0.00292538
-0.517008
0.517488
0.00348997
-0.00404074
-0.620512
0.621063
0.00467999
-0.00529255
-0.743966
0.744579
0.00598775
-0.00663406
-0.892036
0.892682
0.00733819
-0.00795609
-1.06907
1.06969
0.00857419
-0.00904697
-1.28062
1.28109
0.00941138
-0.00954438
-1.53348
1.53362
0.00944124
-0.00910274
-1.52992
1.52958
0.0086461
-0.0080373
-1.27262
1.27201
0.00742151
-0.0067142
-1.0592
1.05849
0.0060613
-0.00535619
-0.881755
0.881049
0.00473314
-0.00408161
-0.734338
0.733686
0.00351957
-0.00294294
-0.611725
0.611148
0.00245293
-0.00195535
-0.509692
0.509194
0.00153493
-0.00110677
-0.421236
0.420808
0.000741466
-0.000379602
-0.300925
0.300563
0.000125817
-0.0664859
0.0663601
-0.068777
0.0689527
-0.000175682
0.000997422
-0.00146641
-0.345189
0.345658
0.00201147
-0.00254694
-0.431442
0.431977
0.00318111
-0.00380509
-0.518035
0.518659
0.00453862
-0.00525297
-0.62169
0.622405
0.00608023
-0.00687062
-0.745275
0.746066
0.00776424
-0.00859094
-0.893413
0.89424
0.00948578
-0.0102642
-1.07038
1.07116
0.0110332
-0.0116099
-1.28161
1.28219
0.0120365
-0.0121645
-1.53375
1.53387
0.0119922
-0.0115247
-1.52918
1.52871
0.0109188
-0.0101267
-1.27132
1.27052
0.00933489
-0.00843247
-1.05769
1.05679
0.00760427
-0.0067136
-0.880258
0.879367
0.00592916
-0.0051109
-0.732957
0.732139
0.00440634
-0.00368454
-0.610504
0.609782
0.00307176
-0.00244988
-0.508639
0.508017
0.00192454
-0.00138925
-0.42033
0.419794
0.000931817
-0.000477623
-0.300158
0.299704
0.000158422
-0.066219
0.0660605
-0.0691528
0.069381
-0.000228143
0.00129288
-0.00190025
-0.346191
0.346799
0.0026062
-0.0032996
-0.432587
0.43328
0.00412035
-0.00492727
-0.519369
0.520176
0.00587491
-0.00679656
-0.623216
0.624138
0.00786202
-0.00887779
-0.746962
0.747978
0.010023
-0.0110787
-0.895174
0.89623
0.0122159
-0.013199
-1.07203
1.07302
0.0141615
-0.0148729
-1.28283
1.28354
0.0153827
-0.0155096
-1.534
1.53413
0.0152549
-0.0146286
-1.52817
1.52755
0.0138366
-0.0128136
-1.26962
1.2686
0.0117985
-0.0106475
-1.05577
1.05462
0.00959491
-0.00846604
-0.878365
0.877236
0.00747371
-0.00644018
-0.73122
0.730186
0.00555126
-0.00464135
-0.608972
0.608062
0.00386938
-0.00308635
-0.50732
0.506537
0.00242503
-0.00175109
-0.419194
0.41852
0.00117481
-0.000602178
-0.299194
0.298621
0.000199631
-0.0658827
0.065683
-0.0696413
0.0699389
-0.000297553
0.00167945
-0.00246582
-0.34749
0.348276
0.00337923
-0.00427613
-0.434069
0.434966
0.00533691
-0.00637895
-0.521093
0.522135
0.00760134
-0.00878857
-0.625184
0.626371
0.0101587
-0.0114621
-0.749128
0.750432
0.0129276
-0.0142738
-0.897422
0.898769
0.0157177
-0.0169585
-1.07412
1.07536
0.0181632
-0.0190418
-1.28433
1.28521
0.0196529
-0.0197746
-1.53425
1.53438
0.0194126
-0.0185829
-1.52682
1.52599
0.0175538
-0.016237
-1.26744
1.26612
0.014938
-0.0134707
-1.05332
1.05185
0.0121325
-0.0107002
-0.875964
0.874532
0.00944292
-0.00813483
-0.729023
0.727715
0.00701065
-0.00586058
-0.607039
0.605889
0.00488525
-0.00389617
-0.505657
0.504668
0.00306097
-0.00220983
-0.417763
0.416912
0.00148205
-0.000759061
-0.297978
0.297255
0.0002513
-0.065459
0.0652077
-0.0702796
0.0706702
-0.000390608
0.00219138
-0.00321193
-0.349171
0.350192
0.00439585
-0.00555784
-0.435986
0.437148
0.00693052
-0.00827754
-0.52332
0.524667
0.0098555
-0.0113855
-0.627719
0.629249
0.0131474
-0.0148191
-0.751908
0.75358
0.0166926
-0.0184066
-0.900288
0.902002
0.0202355
-0.0217968
-1.07675
1.07831
0.0232984
-0.024377
-1.28619
1.28727
0.0251017
-0.0252033
-1.53449
1.53459
0.0246942
-0.0235987
-1.52504
1.52395
0.0222648
-0.0205733
-1.26463
1.26294
0.0189135
-0.0170451
-1.0502
1.04833
0.0153452
-0.0135285
-0.872918
0.871102
0.0119357
-0.0102798
-0.726244
0.724588
0.00885757
-0.00740314
-0.604596
0.603142
0.00617006
-0.00491985
-0.503556
0.502305
0.00386424
-0.00278857
-0.415955
0.414879
0.00186897
-0.000956084
-0.296443
0.29553
0.000315952
-0.0649258
0.0646099
-0.0711199
0.0716374
-0.000517562
0.00287986
-0.00421096
-0.351356
0.352687
0.00575216
-0.00726343
-0.438472
0.439983
0.00904569
-0.0107918
-0.5262
0.527946
0.0128331
-0.0148078
-0.630987
0.632961
0.0170753
-0.0192193
-0.755473
0.757617
0.0216116
-0.0237889
-0.903935
0.906112
0.0260965
-0.0280494
-1.08006
1.08202
0.0299051
-0.0312125
-1.28846
1.28976
0.0320512
-0.0321008
-1.53467
1.53472
0.0313844
-0.0299382
-1.52269
1.52124
0.0282116
-0.026043
-1.26102
1.25885
0.0239267
-0.0215523
-1.04622
1.04385
0.0193966
-0.0170958
-0.869057
0.866756
0.0150803
-0.0129862
-0.722725
0.720631
0.0111881
-0.0093497
-0.601506
0.599668
0.00779122
-0.00621109
-0.5009
0.49932
0.00487685
-0.00351724
-0.41367
0.412311
0.0023553
-0.00120305
-0.294504
0.293352
0.000396698
-0.0642558
0.0638591
-0.0722384
0.0729332
-0.000694739
0.00382484
-0.00557605
-0.354208
0.355959
0.0075975
-0.0095758
-0.441708
0.443686
0.0119015
-0.0141738
-0.529937
0.532209
0.0168221
-0.0193757
-0.635208
0.637762
0.0222963
-0.0250447
-0.760046
0.762794
0.0280933
-0.0308473
-0.908562
0.911316
0.033739
-0.0361573
-1.08419
1.08661
0.0384172
-0.0399675
-1.29119
1.29274
0.0408967
-0.0408351
-1.53473
1.53466
0.0398234
-0.0379138
-1.51958
1.51767
0.0356837
-0.0329123
-1.2564
1.25363
0.0302231
-0.027216
-1.04117
1.03816
0.0244907
-0.0215849
-0.864169
0.861263
0.0190407
-0.0163975
-0.718277
0.715634
0.014128
-0.0118071
-0.597602
0.595281
0.00983896
-0.00784274
-0.497544
0.495548
0.00615638
-0.00443737
-0.410783
0.409064
0.00296861
-0.00151382
-0.292058
0.290603
0.00049804
-0.0634146
0.0629165
-0.0737507
0.0747049
-0.000954214
0.00517188
-0.00751226
-0.357958
0.360298
0.0101965
-0.0128085
-0.445947
0.448559
0.0158588
-0.0188254
-0.534813
0.53778
0.0222679
-0.0255739
-0.640678
0.643984
0.0293354
-0.0328522
-0.765908
0.769425
0.0367199
-0.0401767
-0.914405
0.917862
0.0437575
-0.0467017
-1.08928
1.09223
0.0493887
-0.0511616
-1.29441
1.29618
0.0521136
-0.0518395
-1.53451
1.53424
0.0504067
-0.0478886
-1.51548
1.51296
0.0450206
-0.0414984
-1.2505
1.24698
0.0381018
-0.034315
-1.03479
1.031
0.0308879
-0.0272347
-0.858001
0.854348
0.0240356
-0.0207104
-0.712665
0.709339
0.0178534
-0.0149293
-0.592672
0.589748
0.0124469
-0.00992543
-0.493306
0.490785
0.00779175
-0.00561367
-0.407136
0.404958
0.00375202
-0.0019105
-0.28897
0.287129
0.000627606
-0.062358
0.0617304
-0.0758374
0.0772127
-0.00137531
0.00724349
-0.0104523
-0.362936
0.366145
0.0140673
-0.0175316
-0.451559
0.455023
0.0215291
-0.0253972
-0.541229
0.545097
0.029867
-0.0341434
-0.647792
0.652068
0.0389797
-0.0434597
-0.773408
0.777888
0.0483234
-0.0526017
-0.92171
0.925988
0.0569456
-0.0604304
-1.09544
1.09892
0.0635027
-0.0654129
-1.29804
1.29995
0.066248
-0.0655998
-1.5338
1.53315
0.063573
-0.0602672
-1.51007
1.50676
0.0566066
-0.0521714
-1.24302
1.23859
0.0479229
-0.0431996
-1.02676
1.02204
0.0389279
-0.0343716
-0.850254
0.845698
0.0303769
-0.0262184
-0.705602
0.701444
0.0226399
-0.0189703
-0.586456
0.582786
0.015847
-0.0126637
-0.487953
0.48477
0.00995688
-0.00717999
-0.402527
0.39975
0.00479835
-0.00244253
-0.285068
0.282713
0.000804212
-0.0610276
0.0602234
-0.0787976
0.0809585
-0.00216087
0.0107894
-0.0152783
-0.369664
0.374153
0.0201353
-0.0246743
-0.459133
0.463672
0.0298519
-0.0348703
-0.549772
0.55479
0.040672
-0.046203
-0.657065
0.662596
0.0524017
-0.0580554
-0.782922
0.788576
0.0640657
-0.0692239
-0.930661
0.935819
0.074311
-0.0782478
-1.10262
1.10656
0.081545
-0.0834016
-1.30184
1.3037
0.0838786
-0.0826185
-1.53222
1.53096
0.0797728
-0.0754713
-1.50298
1.49868
0.0708537
-0.0653465
-1.23363
1.22812
0.0601117
-0.0543085
-1.01678
1.01098
0.0490625
-0.0434588
-0.840604
0.835
0.0385353
-0.0333953
-0.696751
0.691611
0.0289595
-0.0243977
-0.578615
0.574053
0.0204986
-0.0164984
-0.481175
0.477174
0.0130606
-0.00948498
-0.396687
0.393111
0.00636878
-0.00325684
-0.280126
0.277014
0.00108493
-0.0593433
0.0582583
-0.0832163
0.0869843
-0.00376801
0.0173834
-0.0236116
-0.379134
0.385362
0.0299477
-0.0357955
-0.469634
0.475481
0.0425141
-0.0490733
-0.561237
0.567796
0.0566637
-0.0638026
-0.669042
0.676181
0.0716212
-0.0785468
-0.794711
0.801637
0.085665
-0.0915586
-0.941208
0.947102
0.0971394
-0.101239
-1.1105
1.1146
0.104401
-0.105858
-1.30532
1.30678
0.105595
-0.103393
-1.52922
1.52702
0.0994514
-0.0939262
-1.49376
1.48824
0.0881957
-0.0814875
-1.222
1.21529
0.0751729
-0.0682027
-1.00457
0.997598
0.0619067
-0.0551728
-0.828753
0.822019
0.0492406
-0.0430242
-0.685762
0.679545
0.0376377
-0.0320776
-0.568739
0.563179
0.0272947
-0.022333
-0.472531
0.467569
0.0179946
-0.0133401
-0.389208
0.384554
0.00909597
-0.00472039
-0.273813
0.269438
0.00159804
-0.0571785
0.0555805
-0.0904724
0.0979182
-0.00744584
0.03133
-0.0400775
-0.393251
0.401998
0.0481494
-0.0555952
-0.484419
0.491865
0.0643992
-0.0729539
-0.576357
0.584912
0.0825893
-0.0912933
-0.683998
0.692702
0.100409
-0.108119
-0.808611
0.816321
0.115705
-0.121691
-0.952801
0.958786
0.127046
-0.13066
-1.1183
1.12191
0.133013
-0.133484
-1.30764
1.30812
0.131921
-0.128326
-1.52405
1.52046
0.122947
-0.11596
-1.48193
1.47494
0.10898
-0.100994
-1.20789
1.19991
0.093574
-0.0854483
-0.989972
0.981846
0.0781303
-0.070305
-0.814564
0.806739
0.0633984
-0.0561393
-0.672425
0.665166
0.0498238
-0.0432663
-0.556482
0.549925
0.037581
-0.0316418
-0.461489
0.45555
0.0263142
-0.0201407
-0.379432
0.373258
0.013978
-0.00720859
-0.265372
0.258603
0.00234741
-0.0542554
0.051908
-0.105775
0.108254
-0.0024793
0.0183514
-0.0264896
-0.41452
0.422658
0.0349798
-0.0432973
-0.504222
0.512539
0.0532901
-0.0634826
-0.594891
0.605083
0.0745063
-0.0842627
-0.701123
0.71088
0.0950495
-0.104546
-0.823356
0.832853
0.114365
-0.122749
-0.963956
0.972341
0.131047
-0.137656
-1.12457
1.13118
0.143513
-0.147334
-1.30753
1.31135
0.149374
-0.148803
-1.51576
1.51519
0.145508
-0.139861
-1.467
1.46136
0.133186
-0.124643
-1.19118
1.18264
0.116234
-0.10606
-0.973076
0.962902
0.0966018
-0.0860394
-0.79824
0.787677
0.0764392
-0.0660762
-0.656974
0.646611
0.0566058
-0.0468153
-0.54202
0.532229
0.0385094
-0.0295604
-0.44797
0.439021
0.0216738
-0.0132547
-0.366485
0.358066
0.0063702
-0.00130265
-0.252478
0.24741
-0.000678588
-0.0494937
0.0501723
-0.11556
0.110002
0.00555764
-0.00460216
-0.00023806
-0.435309
0.440149
0.0080243
-0.0157361
-0.523838
0.53155
0.0251574
-0.0338727
-0.615214
0.623929
0.0436351
-0.0524947
-0.720607
0.729467
0.0619063
-0.0703914
-0.841894
0.850379
0.0791711
-0.0863953
-0.980441
0.987666
0.0937341
-0.0992929
-1.13769
1.14325
0.104186
-0.107148
-1.31507
1.31803
0.108158
-0.106946
-1.51413
1.51292
0.103257
-0.097519
-1.45532
1.44958
0.0908506
-0.0826505
-1.1741
1.1659
0.0748031
-0.0658331
-0.953011
0.944041
0.0574433
-0.0481058
-0.777199
0.767862
0.0397321
-0.0310831
-0.635672
0.627023
0.0236854
-0.0160908
-0.521214
0.513619
0.00973783
-0.00365693
-0.42773
0.421649
-0.00111855
0.00498099
-0.347275
0.343413
-0.00660805
0.00583345
-0.239001
0.239775
-0.00309313
-0.0476395
0.0507326
-0.111801
0.107431
0.00437018
-0.00845701
0.0060861
-0.450188
0.452558
-0.0011041
-0.00472335
-0.540836
0.546664
0.0118976
-0.0189475
-0.632557
0.639607
0.0269214
-0.0342223
-0.737701
0.745002
0.0422056
-0.0492954
-0.858082
0.865171
0.0564461
-0.0626767
-0.994635
1.00087
0.0688525
-0.0736298
-1.14842
1.1532
0.077466
-0.0795841
-1.32049
1.32261
0.0802265
-0.0787504
-1.51136
1.50989
0.0751297
-0.0698475
-1.44376
1.43848
0.0639687
-0.0571285
-1.15822
1.15138
0.0504157
-0.0431646
-0.935547
0.928296
0.0365702
-0.0294326
-0.759674
0.752537
0.0233925
-0.0172191
-0.619051
0.612878
0.0121996
-0.00707045
-0.505841
0.500712
0.00318785
0.000222458
-0.414103
0.410692
-0.00268835
0.00446138
-0.336348
0.334575
-0.00483176
0.00348211
-0.233802
0.235152
-0.0018347
-0.0491396
0.0509743
-0.108702
0.105369
0.00333298
-0.0080013
0.00702336
-0.460385
0.461363
-0.00362757
-0.000951061
-0.5535
0.558079
0.00679171
-0.0122829
-0.646171
0.651662
0.0186427
-0.0245142
-0.751832
0.757703
0.030943
-0.0366862
-0.871653
0.877396
0.0428487
-0.0478763
-1.00657
1.0116
0.053066
-0.0566557
-1.15753
1.16112
0.0597977
-0.0614485
-1.32458
1.32624
0.0616724
-0.0599293
-1.50826
1.50652
0.0567372
-0.0522456
-1.4332
1.42871
0.0473085
-0.0413949
-1.14495
1.13904
0.0359938
-0.0302901
-0.921499
0.915795
0.0250425
-0.0197322
-0.746175
0.740864
0.0149456
-0.0102866
-0.606925
0.602266
0.0064588
-0.0028304
-0.495378
0.491749
0.000146836
0.0022484
-0.405307
0.402911
-0.00393822
0.00466603
-0.329205
0.328478
-0.00470129
0.00327722
-0.230053
0.231477
-0.0016531
-0.0492296
0.0508827
-0.107338
0.104954
0.00238318
-0.0062562
0.00601564
-0.467793
0.468033
-0.00314351
-0.000391241
-0.563544
0.567079
0.00485319
-0.00952251
-0.656992
0.661661
0.0145898
-0.0195269
-0.763061
0.767998
0.0248241
-0.0295734
-0.882638
0.887387
0.0346089
-0.038876
-1.01639
1.02066
0.0430383
-0.0461855
-1.1645
1.16765
0.0486835
-0.0498902
-1.32756
1.32876
0.0498214
-0.0480441
-1.50477
1.50299
0.0450962
-0.0409511
-1.42396
1.41981
0.0366902
-0.0318145
-1.13355
1.12868
0.0273482
-0.022562
-0.910334
0.905548
0.0183796
-0.0140672
-0.735798
0.731486
0.010381
-0.00668839
-0.5978
0.594107
0.0037405
-0.000972144
-0.487631
0.484863
-0.00121826
0.00302423
-0.398884
0.397078
-0.00400144
0.00455622
-0.32424
0.323685
-0.00448975
0.0029132
-0.227167
0.228743
-0.0014712
-0.0493547
0.0508259
-0.107139
0.105119
0.00202003
-0.00502835
0.00458197
-0.473649
0.474095
-0.00243701
-0.000710009
-0.571147
0.574294
0.0048731
-0.00872364
-0.6658
0.66965
0.0129546
-0.0171165
-0.772339
0.776501
0.0216752
-0.0257817
-0.89178
0.895887
0.0302371
-0.0338052
-1.02458
1.02815
0.0373603
-0.0400055
-1.17043
1.17308
0.0419652
-0.0427532
-1.32965
1.33044
0.04233
-0.0407446
-1.50115
1.49956
0.0378191
-0.0341072
-1.41547
1.41176
0.0302478
-0.0259168
-1.12394
1.11961
0.0222399
-0.0180317
-0.900989
0.896781
0.0144463
-0.0109259
-0.727398
0.723878
0.00786982
-0.00482573
-0.590655
0.587611
0.00237232
8.76123e-05
-0.481656
0.479196
-0.0017042
0.00311722
-0.393862
0.392449
-0.00408509
0.00441463
-0.320114
0.319785
-0.00413199
0.00274575
-0.22498
0.226366
-0.00133723
-0.049456
0.0507932
-0.107354
0.105747
0.00160684
-0.00377633
0.00326284
-0.47891
0.479423
-0.000997383
-0.00163753
-0.578045
0.58068
0.00543768
-0.00891876
-0.673351
0.676832
0.012974
-0.0165375
-0.780461
0.784024
0.0205056
-0.0240814
-0.899966
0.903541
0.0282448
-0.0313708
-1.03167
1.0348
0.0343315
-0.0366505
-1.17543
1.17775
0.0385433
-0.0389703
-1.3311
1.33153
0.0383089
-0.0364206
-1.4975
1.49561
0.0336881
-0.029814
-1.40788
1.40401
0.0263186
-0.0224643
-1.1153
1.11144
0.0190293
-0.0154608
-0.89283
0.889261
0.0122853
-0.0090525
-0.720323
0.71709
0.0066254
-0.00391956
-0.584602
0.581896
0.00168353
0.000297183
-0.476529
0.474549
-0.00182064
0.00320283
-0.389861
0.388479
-0.00393994
0.00417358
-0.316915
0.316681
-0.00382234
0.0025523
-0.223204
0.224474
-0.00125848
-0.0495799
0.0508384
-0.108003
0.106681
0.00132188
-0.00269764
0.00211911
-0.483783
0.484362
0.000330613
-0.00299959
-0.584272
0.586941
0.00654091
-0.00972563
-0.68024
0.683424
0.0132765
-0.0168074
-0.787706
0.791237
0.0205247
-0.0242818
-0.906968
0.910725
0.0277849
-0.0307128
-1.03795
1.04088
0.0336963
-0.0356341
-1.17983
1.18177
0.0368207
-0.0373031
-1.33165
1.33213
0.0363547
-0.0342583
-1.49353
1.49143
0.031227
-0.0274983
-1.40019
1.39647
0.0240442
-0.0203301
-1.10734
1.10363
0.0171677
-0.0138504
-0.885699
0.882381
0.0109747
-0.00821544
-0.714052
0.711293
0.00577691
-0.00344316
-0.579214
0.57688
0.00156353
0.000364416
-0.472285
0.470357
-0.0018288
0.00286488
-0.386209
0.385173
-0.00358884
0.00388769
-0.314138
0.313839
-0.00360171
0.00239429
-0.221783
0.22299
-0.00119778
-0.049825
0.0510228
-0.109084
0.10791
0.0011735
-0.00147747
0.000589747
-0.488572
0.48946
0.00178875
-0.00452096
-0.590253
0.592985
0.00784689
-0.0110597
-0.686845
0.690058
0.0146179
-0.0179239
-0.794731
0.798037
0.0218803
-0.0250033
-0.914003
0.917126
0.0285356
-0.0312842
-1.0439
1.04665
0.0340817
-0.0360329
-1.18354
1.18549
0.0371819
-0.0370535
-1.33211
1.33198
0.0358239
-0.0334252
-1.48889
1.48649
0.0303061
-0.0262464
-1.39238
1.38832
0.022745
-0.0190284
-1.09994
1.09622
0.0159979
-0.0127956
-0.87894
0.875737
0.0102001
-0.00755367
-0.708454
0.705808
0.00533139
-0.00315196
-0.574512
0.572332
0.00132996
0.000235532
-0.468311
0.466745
-0.0016511
0.00264856
-0.382989
0.381992
-0.00342427
0.00367141
-0.311618
0.31137
-0.00334987
0.00234034
-0.220546
0.221556
-0.00110348
-0.0501439
0.0512473
-0.110312
0.109481
0.000830406
-0.000466471
-0.000958563
-0.493551
0.494976
0.00323712
-0.00605634
-0.595808
0.598627
0.00919255
-0.0124507
-0.693275
0.696533
0.0160429
-0.0196361
-0.801363
0.804956
0.0231926
-0.0265818
-0.920488
0.923877
0.0301672
-0.0327592
-1.04977
1.05236
0.0355791
-0.0373325
-1.1871
1.18885
0.0382129
-0.0381191
-1.33191
1.33181
0.0366159
-0.0336399
-1.48363
1.48066
0.029881
-0.025641
-1.38402
1.37978
0.0220427
-0.0181971
-1.09227
1.08843
0.0150841
-0.012178
-0.872531
0.869625
0.00940334
-0.007083
-0.703069
0.700749
0.00504648
-0.00297085
-0.570344
0.568269
0.00144047
0.000108621
-0.464728
0.463179
-0.00133769
0.00246268
-0.380265
0.37914
-0.00309957
0.00336597
-0.309386
0.309119
-0.0032291
0.00227497
-0.219533
0.220487
-0.00107772
-0.0504638
0.0515415
-0.111887
0.111244
0.000643392
0.000428402
-0.00183902
-0.498744
0.500155
0.0047522
-0.00738303
-0.601705
0.604335
0.0107882
-0.0140835
-0.699584
0.702879
0.0177305
-0.0211444
-0.80837
0.811784
0.0250093
-0.0282596
-0.927322
0.930573
0.0319226
-0.034974
-1.05533
1.05838
0.0374495
-0.0393804
-1.19049
1.19242
0.0403396
-0.0398479
-1.33126
1.33077
0.0379116
-0.0346572
-1.47727
1.47401
0.0302069
-0.0255307
-1.37492
1.37024
0.021403
-0.0174134
-1.08444
1.08045
0.0143726
-0.0114273
-0.866415
0.86347
0.00894107
-0.00672436
-0.698146
0.695929
0.00486856
-0.0029114
-0.566266
0.564309
0.00140645
-6.98245e-05
-0.461495
0.460158
-0.00121521
0.00224565
-0.37759
0.37656
-0.00291623
0.00323393
-0.307293
0.306975
-0.00305674
0.00214537
-0.21879
0.219702
-0.00100272
-0.0508892
0.0518919
-0.11373
0.113292
0.000437862
0.00144191
-0.00312647
-0.503997
0.505682
0.005938
-0.00884864
-0.60746
0.61037
0.0123131
-0.0156251
-0.706017
0.709329
0.0195455
-0.0230031
-0.815295
0.818753
0.0269221
-0.0304616
-0.934329
0.937869
0.0341919
-0.0373256
-1.06127
1.0644
0.040045
-0.0419246
-1.19413
1.19601
0.0427938
-0.0425217
-1.33016
1.32988
0.0401236
-0.0360372
-1.46999
1.4659
0.030934
-0.0252494
-1.36476
1.35908
0.0207572
-0.0166267