/*--------------------------------*- C++ -*----------------------------------*\
  =========                 |
  \\      /  F ield         | OpenFOAM: The Open Source CFD Toolbox
   \\    /   O peration     | Website:  https://openfoam.org
    \\  /    A nd           | Version:  6
     \\/     M anipulation  |
\*---------------------------------------------------------------------------*/
FoamFile
{
    version     2.0;
    format      ascii;
    class       volVectorField;
    location    "4.1";
    object      U;
}
// * * * * * * * * * * * * * * * * * * * * * * * * * * * * * * * * * * * * * //

dimensions      [0 1 -1 0 0 0 0];

internalField   nonuniform List<vector> 
8800
(
(0.98834 -0.0764594 0)
(1.00217 -0.0551342 0)
(0.998998 -0.0282301 0)
(0.99941 -0.0145574 0)
(1.0009 -0.00792478 0)
(1.00152 -0.00468557 0)
(1.00112 -0.00310607 0)
(1.00066 -0.00188894 0)
(1.00031 -0.000930787 0)
(1.00005 -0.000141322 0)
(1.00018 0.000604107 0)
(1.00049 0.00146931 0)
(1.00088 0.0025302 0)
(1.00139 0.00394071 0)
(1.0014 0.0059876 0)
(1.00024 0.0106933 0)
(0.999081 0.0203007 0)
(0.998394 0.0382961 0)
(1.00882 0.0732673 0)
(0.771587 0.0369182 0)
(0.367998 -0.0135677 0)
(1.0433 -0.0731647 0)
(1.08482 -0.0648515 0)
(1.04154 -0.0502908 0)
(1.01763 -0.0359022 0)
(1.0057 -0.0243024 0)
(1.00025 -0.0158897 0)
(0.998796 -0.00991121 0)
(0.99882 -0.0056334 0)
(0.999552 -0.00224455 0)
(0.999856 0.000908944 0)
(0.999028 0.00417282 0)
(0.998591 0.00785367 0)
(0.999189 0.0128792 0)
(1.00223 0.0199285 0)
(1.01071 0.0298082 0)
(1.02726 0.0431549 0)
(1.06215 0.0571157 0)
(1.09182 0.0708181 0)
(0.836023 0.0518927 0)
(0.250653 -0.0012529 0)
(1.07627 -0.0284493 0)
(1.09094 -0.0315578 0)
(1.06125 -0.0306271 0)
(1.04035 -0.0279596 0)
(1.02608 -0.0234719 0)
(1.01674 -0.017599 0)
(1.01094 -0.0115419 0)
(1.00775 -0.00607811 0)
(1.00621 -0.00095566 0)
(1.00677 0.00410828 0)
(1.00903 0.00924598 0)
(1.01328 0.0149536 0)
(1.02085 0.021037 0)
(1.03224 0.0262461 0)
(1.04949 0.0297232 0)
(1.075 0.031453 0)
(1.0985 0.0309143 0)
(0.9693 0.0248962 0)
(0.250475 0.00126211 0)
(0.233972 0.000555872 0)
(1.03511 -0.0111721 0)
(1.07184 -0.0208561 0)
(1.05469 -0.0256722 0)
(1.03887 -0.0253316 0)
(1.02778 -0.0225851 0)
(1.02001 -0.018483 0)
(1.0147 -0.0133121 0)
(1.01132 -0.0074332 0)
(1.00971 -0.000951831 0)
(1.01017 0.00563271 0)
(1.01259 0.0116788 0)
(1.01681 0.0170246 0)
(1.02321 0.0214557 0)
(1.03244 0.0247834 0)
(1.04577 0.0265612 0)
(1.06367 0.0244179 0)
(1.0707 0.0168176 0)
(0.912298 0.00585331 0)
(0.233626 -0.000547704 0)
(0.235796 1.23313e-05 0)
(1.00942 -0.00353364 0)
(1.05312 -0.00979112 0)
(1.04808 -0.014894 0)
(1.04014 -0.0175384 0)
(1.032 -0.0177595 0)
(1.02498 -0.0156551 0)
(1.01943 -0.0118601 0)
(1.01557 -0.0067868 0)
(1.01372 -0.000660201 0)
(1.01418 0.00560417 0)
(1.01683 0.0110495 0)
(1.02146 0.0153042 0)
(1.02766 0.0180865 0)
(1.03529 0.0188866 0)
(1.04343 0.0171236 0)
(1.05067 0.0130115 0)
(1.04626 0.00692596 0)
(0.892032 0.00121209 0)
(0.235297 -2.19939e-06 0)
(0.23486 9.19324e-07 0)
(0.997698 -0.00173711 0)
(1.04098 -0.00479827 0)
(1.03992 -0.00786084 0)
(1.03646 -0.0100994 0)
(1.03238 -0.0110331 0)
(1.02817 -0.0104534 0)
(1.02427 -0.00834143 0)
(1.0212 -0.00482567 0)
(1.01967 -0.000103034 0)
(1.01995 0.00480714 0)
(1.02195 0.00872873 0)
(1.02525 0.0112703 0)
(1.02922 0.0122877 0)
(1.03331 0.0117875 0)
(1.03709 0.00986962 0)
(1.03992 0.00691385 0)
(1.0327 0.0035076 0)
(0.883548 0.000802553 0)
(0.234156 1.31691e-05 0)
(0.234643 6.5355e-07 0)
(0.992513 -0.000770165 0)
(1.03509 -0.00216544 0)
(1.03539 -0.00372658 0)
(1.03376 -0.00508426 0)
(1.03149 -0.00591302 0)
(1.02878 -0.00590636 0)
(1.02598 -0.00483472 0)
(1.02356 -0.00262984 0)
(1.022 0.000545009 0)
(1.02215 0.00379743 0)
(1.02375 0.00624612 0)
(1.02607 0.00752266 0)
(1.02864 0.00766327 0)
(1.031 0.00685084 0)
(1.03288 0.00537711 0)
(1.034 0.00358095 0)
(1.02608 0.00178569 0)
(0.879415 0.000451547 0)
(0.23369 1.6208e-05 0)
(0.234488 4.95066e-06 0)
(0.990124 -0.000354579 0)
(1.03227 -0.00100767 0)
(1.03305 -0.00176283 0)
(1.03222 -0.00246151 0)
(1.03098 -0.00293513 0)
(1.02934 -0.00297563 0)
(1.02747 -0.00237536 0)
(1.02568 -0.0010119 0)
(1.02441 0.00107661 0)
(1.02431 0.00325606 0)
(1.02524 0.00467131 0)
(1.02663 0.0051991 0)
(1.02807 0.00498864 0)
(1.0293 0.00425664 0)
(1.0302 0.0032402 0)
(1.03063 0.00214007 0)
(1.02256 0.00110543 0)
(0.877012 0.00032058 0)
(0.233228 1.61405e-05 0)
(0.234503 8.55469e-06 0)
(0.989057 -9.16265e-05 0)
(1.03098 -0.000362191 0)
(1.03193 -0.000683193 0)
(1.03144 -0.000979007 0)
(1.03067 -0.00116075 0)
(1.02959 -0.00110233 0)
(1.02828 -0.000660897 0)
(1.0269 0.000266406 0)
(1.02579 0.00165458 0)
(1.02544 0.00302093 0)
(1.02584 0.00378964 0)
(1.02656 0.00392259 0)
(1.02731 0.00358165 0)
(1.02794 0.00295229 0)
(1.02838 0.00220355 0)
(1.02852 0.00145325 0)
(1.02039 0.000774031 0)
(0.875408 0.000245831 0)
(0.232862 1.64188e-05 0)
(0.234644 1.59598e-05 0)
(0.988767 7.78169e-05 0)
(1.03053 3.40022e-05 0)
(1.03155 -1.98344e-05 0)
(1.03123 -4.47728e-05 0)
(1.0307 6.28193e-06 0)
(1.02993 0.00020262 0)
(1.02892 0.000626088 0)
(1.02778 0.00133332 0)
(1.02671 0.00228283 0)
(1.02612 0.00311187 0)
(1.02606 0.00348836 0)
(1.0263 0.00334073 0)
(1.0266 0.00292206 0)
(1.02686 0.00235102 0)
(1.02704 0.00173875 0)
(1.02702 0.00115545 0)
(1.01886 0.000637882 0)
(0.874177 0.000222586 0)
(0.232518 1.85912e-05 0)
(0.234893 2.0334e-05 0)
(0.988943 0.000204605 0)
(1.03064 0.000325554 0)
(1.03169 0.000461743 0)
(1.03144 0.000639235 0)
(1.03101 0.000882293 0)
(1.03037 0.00122464 0)
(1.02951 0.00170161 0)
(1.02845 0.00232229 0)
(1.02732 0.00301326 0)
(1.02646 0.00348334 0)
(1.02603 0.00353951 0)
(1.02588 0.00323833 0)
(1.02585 0.00273822 0)
(1.02587 0.00216442 0)
(1.02589 0.00159331 0)
(1.02578 0.00106867 0)
(1.01759 0.000609094 0)
(0.873073 0.00022882 0)
(0.232154 2.20455e-05 0)
(0.23525 2.72524e-05 0)
(0.989545 0.000337795 0)
(1.03116 0.000591808 0)
(1.03222 0.000882478 0)
(1.03198 0.00123068 0)
(1.03158 0.00164834 0)
(1.03098 0.00214592 0)
(1.03013 0.00272324 0)
(1.02902 0.00334611 0)
(1.02772 0.00390198 0)
(1.02655 0.00413304 0)
(1.02578 0.00393711 0)
(1.02531 0.00348448 0)
(1.02503 0.00288828 0)
(1.02487 0.00225829 0)
(1.02477 0.00165915 0)
(1.02459 0.00112164 0)
(1.01637 0.000654621 0)
(0.871943 0.000258591 0)
(0.231738 2.71046e-05 0)
(0.235735 3.52612e-05 0)
(0.990516 0.000470158 0)
(1.03205 0.000855904 0)
(1.0331 0.00129952 0)
(1.03285 0.00181898 0)
(1.03242 0.00241888 0)
(1.03177 0.00309299 0)
(1.03084 0.00381305 0)
(1.02957 0.00450489 0)
(1.028 0.0050109 0)
(1.02647 0.00507863 0)
(1.02533 0.00469866 0)
(1.02457 0.00405551 0)
(1.02407 0.00331424 0)
(1.02375 0.00257392 0)
(1.02356 0.0018891 0)
(1.02331 0.00128353 0)
(1.01506 0.000759912 0)
(0.870669 0.000308797 0)
(0.231235 3.37758e-05 0)
(0.23637 4.56114e-05 0)
(0.991877 0.000626215 0)
(1.03334 0.00115596 0)
(1.03436 0.00176644 0)
(1.03406 0.00247571 0)
(1.03357 0.00328264 0)
(1.03281 0.00416748 0)
(1.0317 0.00507642 0)
(1.03018 0.00589449 0)
(1.02822 0.00641093 0)
(1.02624 0.00635162 0)
(1.02469 0.00577447 0)
(1.02362 0.00492636 0)
(1.02289 0.00399622 0)
(1.02243 0.00309203 0)
(1.02213 0.00226806 0)
(1.02183 0.00154527 0)
(1.01353 0.000922151 0)
(0.869149 0.000380386 0)
(0.230614 4.25083e-05 0)
(0.237195 5.89486e-05 0)
(0.993695 0.000818738 0)
(1.03506 0.00151934 0)
(1.03604 0.00232715 0)
(1.03567 0.00326198 0)
(1.03507 0.00431838 0)
(1.03414 0.00546313 0)
(1.03277 0.00661593 0)
(1.03087 0.00761661 0)
(1.02841 0.00818989 0)
(1.02586 0.00801793 0)
(1.02384 0.00722102 0)
(1.0224 0.00612198 0)
(1.02143 0.0049465 0)
(1.0208 0.00381962 0)
(1.0204 0.00280061 0)
(1.02004 0.00191045 0)
(1.01168 0.00114433 0)
(0.867278 0.000475366 0)
(0.229837 5.3599e-05 0)
(0.238265 7.63196e-05 0)
(0.996073 0.00106272 0)
(1.03733 0.00197492 0)
(1.03824 0.00302699 0)
(1.03778 0.00424146 0)
(1.03701 0.00560832 0)
(1.03584 0.00707951 0)
(1.03412 0.00854395 0)
(1.03172 0.00978807 0)
(1.02858 0.0104565 0)
(1.02532 0.0101677 0)
(1.02271 0.00910832 0)
(1.02085 0.00769416 0)
(1.01959 0.0062026 0)
(1.01876 0.00478357 0)
(1.01824 0.00350609 0)
(1.01781 0.0023929 0)
(1.00938 0.00143554 0)
(0.86494 0.000597885 0)
(0.22886 6.75723e-05 0)
(0.239652 9.92204e-05 0)
(0.999157 0.0013773 0)
(1.04026 0.00255825 0)
(1.04109 0.00392012 0)
(1.0405 0.00548891 0)
(1.03952 0.00724908 0)
(1.03802 0.00913401 0)
(1.03581 0.0109946 0)
(1.03275 0.0125511 0)
(1.02875 0.0133481 0)
(1.02458 0.0129206 0)
(1.02125 0.0115338 0)
(1.01888 0.00971994 0)
(1.01726 0.00782388 0)
(1.0162 0.00602865 0)
(1.01553 0.00441674 0)
(1.01501 0.00301435 0)
(1.00649 0.00180908 0)
(0.861997 0.000753942 0)
(0.227628 8.51585e-05 0)
(0.241457 0.000129651 0)
(1.00315 0.00178805 0)
(1.04406 0.00331541 0)
(1.04478 0.00507607 0)
(1.044 0.00709946 0)
(1.04273 0.00936238 0)
(1.04079 0.0117737 0)
(1.03796 0.0141352 0)
(1.03403 0.016083 0)
(1.02892 0.017037 0)
(1.02361 0.0164293 0)
(1.01938 0.0146248 0)
(1.01636 0.0123022 0)
(1.0143 0.00989087 0)
(1.01295 0.00761602 0)
(1.01211 0.00557741 0)
(1.01148 0.00380556 0)
(1.00284 0.00228329 0)
(0.858283 0.000950827 0)
(0.226076 0.000107144 0)
(0.243819 0.00017078 0)
(1.00832 0.00233093 0)
(1.04898 0.00431022 0)
(1.04954 0.00658905 0)
(1.04852 0.00920054 0)
(1.04686 0.0121096 0)
(1.04433 0.0151913 0)
(1.04066 0.0181819 0)
(1.0356 0.0206096 0)
(1.02907 0.0217401 0)
(1.02232 0.0208852 0)
(1.01696 0.0185425 0)
(1.01315 0.0155726 0)
(1.01055 0.0125083 0)
(1.00885 0.00962572 0)
(1.00778 0.00704628 0)
(1.00702 0.00480606 0)
(0.998239 0.00288204 0)
(0.853593 0.00119855 0)
(0.224124 0.000134557 0)
(0.246934 0.000227333 0)
(1.01505 0.00305909 0)
(1.05536 0.00563539 0)
(1.0557 0.0085944 0)
(1.05434 0.0119716 0)
(1.05214 0.0157138 0)
(1.04882 0.0196472 0)
(1.04404 0.0234196 0)
(1.03751 0.0264205 0)
(1.02917 0.0277284 0)
(1.02062 0.0265252 0)
(1.01387 0.0234865 0)
(1.00906 0.0196963 0)
(1.00579 0.0158086 0)
(1.00365 0.0121607 0)
(1.00231 0.00889954 0)
(1.00138 0.00606813 0)
(0.992421 0.00363632 0)
(0.847673 0.00150941 0)
(0.221672 0.000168782 0)
(0.251092 0.000307203 0)
(1.02382 0.00405593 0)
(1.06365 0.00743497 0)
(1.06369 0.0112958 0)
(1.06184 0.0156751 0)
(1.05891 0.0204923 0)
(1.0545 0.0255016 0)
(1.04823 0.0302282 0)
(1.03979 0.0338861 0)
(1.02915 0.0353352 0)
(1.01837 0.0336338 0)
(1.0099 0.0296984 0)
(1.00388 0.0248765 0)
(0.999777 0.0199595 0)
(0.997088 0.0153539 0)
(0.995401 0.0112378 0)
(0.994259 0.00766244 0)
(0.985071 0.00458905 0)
(0.840204 0.001901 0)
(0.218593 0.000211731 0)
(0.256742 0.000425534 0)
(1.03532 0.0054739 0)
(1.07446 0.00996138 0)
(1.07405 0.0150226 0)
(1.07152 0.0207116 0)
(1.06751 0.026911 0)
(1.06159 0.0332626 0)
(1.05331 0.0391177 0)
(1.04239 0.0434748 0)
(1.02887 0.0449594 0)
(1.01537 0.0425442 0)
(1.00482 0.0374651 0)
(0.99732 0.0313645 0)
(0.992185 0.0251769 0)
(0.988805 0.019385 0)
(0.986681 0.014204 0)
(0.985274 0.00969512 0)
(0.975797 0.00580713 0)
(0.830777 0.00240086 0)
(0.214723 0.000266806 0)
(0.264665 0.000616759 0)
(1.05051 0.00764679 0)
(1.08866 0.0136907 0)
(1.08759 0.0203152 0)
(1.08397 0.0276951 0)
(1.07835 0.0356592 0)
(1.07025 0.0436458 0)
(1.05924 0.0507587 0)
(1.04513 0.055757 0)
(1.02808 0.0570556 0)
(1.01135 0.0536261 0)
(0.998336 0.0471151 0)
(0.98905 0.0394685 0)
(0.982638 0.0317484 0)
(0.97838 0.0245143 0)
(0.975691 0.0180257 0)
(0.973947 0.0123554 0)
(0.964104 0.0074254 0)
(0.818852 0.00307017 0)
(0.209825 0.000341836 0)
(0.27634 0.000961806 0)
(1.07101 0.0113104 0)
(1.10786 0.0194279 0)
(1.10561 0.0279781 0)
(1.1001 0.0375501 0)
(1.09189 0.0477586 0)
(1.08058 0.0576389 0)
(1.06587 0.0659936 0)
(1.04769 0.0713822 0)
(1.02643 0.0721034 0)
(1.00596 0.067264 0)
(0.990122 0.0590108 0)
(0.978731 0.0495664 0)
(0.970739 0.0400712 0)
(0.96533 0.0311483 0)
(0.961861 0.0231036 0)
(0.959645 0.0160305 0)
(0.949324 0.00977621 0)
(0.803669 0.00409104 0)
(0.203514 0.000458942 0)
(0.294449 0.00166763 0)
(1.09999 0.017912 0)
(1.13487 0.0284372 0)
(1.13008 0.0394786 0)
(1.12108 0.052042 0)
(1.1087 0.064942 0)
(1.09273 0.0766759 0)
(1.07305 0.0858792 0)
(1.04986 0.0910704 0)
(1.02369 0.0905816 0)
(0.999036 0.0838393 0)
(0.980036 0.0735471 0)
(0.966205 0.0621285 0)
(0.956247 0.050714 0)
(0.949253 0.039948 0)
(0.944546 0.0301636 0)
(0.941448 0.0214891 0)
(0.930402 0.0135899 0)
(0.784211 0.00590315 0)
(0.19521 0.000675293 0)
(0.32236 0.00345266 0)
(1.14241 0.031313 0)
(1.1724 0.04444 0)
(1.16227 0.0592742 0)
(1.1474 0.0752541 0)
(1.12882 0.0903108 0)
(1.1065 0.102843 0)
(1.08059 0.111695 0)
(1.0515 0.115547 0)
(1.01986 0.112891 0)
(0.990701 0.10364 0)
(0.968267 0.0910545 0)
(0.951667 0.0776119 0)
(0.9393 0.0643299 0)
(0.930112 0.0517844 0)
(0.923363 0.0402899 0)
(0.918409 0.0299533 0)
(0.906041 0.0202203 0)
(0.75916 0.00891885 0)
(0.18494 0.00107147 0)
(0.364862 0.012653 4.27508e-21)
(1.1978 0.0602629 3.94708e-21)
(1.21827 0.077259 -1.46413e-21)
(1.19926 0.0947715 0)
(1.17611 0.111779 -4.19646e-35)
(1.14957 0.126487 6.21799e-22)
(1.11976 0.137773 -1.174e-21)
(1.08692 0.144665 0)
(1.05144 0.145985 2.52796e-35)
(1.0139 0.14039 -1.55728e-21)
(0.979792 0.128281 0)
(0.953446 0.113406 -1.89646e-21)
(0.933485 0.0981821 -5.62756e-21)
(0.917999 0.0834649 -2.67349e-21)
(0.905683 0.0697343 -8.12627e-22)
(0.895691 0.0573818 -4.86658e-22)
(0.887242 0.0464075 0)
(0.872346 0.0368291 3.48876e-22)
(0.725554 0.0229183 4.16189e-22)
(0.174326 0.00592429 7.57981e-21)
(0.382454 0.0343108 1.71807e-21)
(1.24918 0.111124 1.00441e-22)
(1.2605 0.130064 3.4582e-22)
(1.23267 0.144962 0)
(1.20089 0.159779 -1.99373e-21)
(1.16653 0.172195 -2.34122e-21)
(1.12955 0.181193 -1.15245e-21)
(1.09 0.185659 -4.27771e-21)
(1.04814 0.184444 0)
(1.00429 0.176179 6.58093e-21)
(0.964348 0.16186 6.61355e-21)
(0.933017 0.145611 1.98239e-21)
(0.908659 0.129733 7.33806e-21)
(0.889031 0.114918 1.04522e-20)
(0.872715 0.101576 0)
(0.858702 0.0900916 1.50868e-20)
(0.846171 0.0807622 2.19897e-20)
(0.827601 0.0736472 2.46752e-20)
(0.692777 0.0555472 -2.87784e-20)
(0.171706 0.0157298 -5.27863e-22)
(0.369745 0.0566094 0)
(1.28225 0.180408 1.45188e-22)
(1.29218 0.196128 0)
(1.25782 0.206347 -2.03748e-21)
(1.21963 0.216371 0)
(1.17884 0.224556 -4.39475e-21)
(1.13557 0.229679 2.31002e-21)
(1.08999 0.230538 -8.41357e-21)
(1.04234 0.225912 -2.53769e-22)
(0.992917 0.214524 3.35358e-21)
(0.948154 0.197862 1.45278e-20)
(0.913035 0.180413 -1.32778e-23)
(0.885591 0.164371 -5.32518e-21)
(0.863416 0.150231 -9.80671e-21)
(0.845043 0.138191 1.17709e-20)
(0.829506 0.128374 -2.09651e-20)
(0.816041 0.120876 -2.82169e-21)
(0.79818 0.11527 0)
(0.674718 0.0941777 1.57732e-22)
(0.173334 0.0257236 0)
(0.358148 0.0757716 -5.84298e-21)
(1.29834 0.252374 1.05452e-21)
(1.30955 0.266752 -8.14164e-22)
(1.27207 0.272144 8.54072e-22)
(1.23006 0.277062 -1.55071e-21)
(1.18499 0.280416 9.22667e-21)
(1.13719 0.281005 4.78843e-21)
(1.08692 0.277644 0)
(1.0346 0.269073 -1.63483e-20)
(0.980642 0.254139 0)
(0.932068 0.234928 -7.49429e-21)
(0.894184 0.216197 -9.4413e-21)
(0.864861 0.199835 -5.73871e-21)
(0.841484 0.185937 -7.07653e-21)
(0.822469 0.174419 0)
(0.806747 0.16525 0)
(0.793395 0.158338 -1.83289e-20)
(0.775958 0.152779 3.64386e-21)
(0.658082 0.126967 -2.18171e-21)
(0.171501 0.0346094 -2.57085e-21)
(0.35127 0.0935328 6.34668e-21)
(1.30381 0.322568 0)
(1.3163 0.336458 6.62487e-22)
(1.27739 0.337621 2.22466e-21)
(1.23316 0.338202 4.05511e-21)
(1.18532 0.337074 0)
(1.13415 0.33323 4.56814e-21)
(1.0802 0.325516 9.20742e-21)
(1.02413 0.312763 8.25121e-21)
(0.966603 0.293973 1.55512e-20)
(0.915234 0.271873 0)
(0.875569 0.25154 -2.0007e-20)
(0.845196 0.234442 -1.21246e-20)
(0.821263 0.220328 -7.14012e-21)
(0.802031 0.208871 4.48188e-20)
(0.786316 0.19976 5.39086e-21)
(0.773147 0.192938 2.58382e-20)
(0.756174 0.187136 -1.24739e-19)
(0.642918 0.156884 7.49873e-20)
(0.169577 0.042832 -9.16915e-20)
(0.346806 0.110247 8.04789e-21)
(1.30366 0.388849 -9.07879e-22)
(1.31657 0.403336 2.20968e-22)
(1.27666 0.401291 -1.17894e-21)
(1.23091 0.398061 -2.86878e-21)
(1.18095 0.392961 3.28944e-22)
(1.12725 0.384996 -5.02287e-21)
(1.07044 0.373054 9.48192e-21)
(1.01141 0.356057 -1.77113e-20)
(0.951126 0.333172 0)
(0.897792 0.307887 -8.98449e-21)
(0.857054 0.285633 -1.66403e-22)
(0.82617 0.26747 -1.30898e-20)
(0.802082 0.252802 0)
(0.782906 0.241045 -9.55593e-21)
(0.767382 0.23174 -2.28378e-20)
(0.75447 0.224679 6.24013e-20)
(0.737908 0.218439 -6.24946e-20)
(0.628587 0.184052 8.97004e-20)
(0.167502 0.0504486 -9.46307e-20)
(0.343324 0.126134 -2.10728e-22)
(1.30006 0.451607 1.44877e-21)
(1.31237 0.46685 2.3826e-21)
(1.27166 0.462258 2.9853e-23)
(1.22474 0.455947 -1.51677e-21)
(1.17315 0.447386 0)
(1.11735 0.435669 -4.51848e-21)
(1.05814 0.419665 -9.94428e-21)
(0.996662 0.398376 -9.1475e-21)
(0.934259 0.371181 0)
(0.879631 0.342435 -8.97241e-21)
(0.838388 0.31798 -1.11636e-20)
(0.807449 0.298515 1.38868e-20)
(0.783478 0.283084 -8.61555e-21)
(0.764542 0.270801 -4.04698e-20)
(0.749324 0.261127 2.45054e-20)
(0.736724 0.253703 7.57742e-21)
(0.720632 0.246859 0)
(0.614864 0.208763 -8.45552e-20)
(0.165456 0.0575398 -3.12247e-21)
(0.340641 0.141424 1.49762e-21)
(1.29424 0.511104 -1.8165e-21)
(1.30525 0.527098 -1.19385e-21)
(1.26374 0.520427 1.79426e-21)
(1.21574 0.511541 -5.23753e-21)
(1.16267 0.500013 8.27774e-21)
(1.10505 0.484842 1.00886e-20)
(1.04374 0.464976 -1.60017e-20)
(0.980139 0.439369 5.67991e-21)
(0.916053 0.407635 -3.69676e-20)
(0.860715 0.375128 -1.00481e-20)
(0.819512 0.348264 0)
(0.788853 0.327363 1.4676e-20)
(0.765261 0.311003 1.75456e-20)
(0.746702 0.29813 2.13031e-20)
(0.731849 0.287998 -2.59183e-20)
(0.719627 0.280168 -7.71987e-21)
(0.704024 0.272657 9.32579e-21)
(0.601656 0.231246 0)
(0.163618 0.0642186 -6.6638e-21)
(0.338595 0.156156 -1.82683e-20)
(1.28696 0.567566 9.41995e-21)
(1.29622 0.584285 9.72173e-22)
(1.25385 0.575904 9.92182e-22)
(1.20476 0.564869 -2.17645e-21)
(1.15029 0.550702 -5.40897e-22)
(1.09088 0.532418 -1.14089e-20)
(1.02758 0.508845 -5.84386e-21)
(0.962011 0.478848 -1.59076e-20)
(0.896602 0.442296 -2.61997e-23)
(0.841066 0.405715 -3.03814e-20)
(0.800397 0.376289 2.57889e-20)
(0.770373 0.353878 -1.5597e-20)
(0.747377 0.336579 1.88639e-20)
(0.729305 0.323082 0)
(0.714873 0.31247 -1.3551e-20)
(0.703021 0.304229 -3.69762e-22)
(0.687956 0.296092 -3.90983e-20)
(0.589069 0.251871 -5.90654e-21)
(0.161949 0.0705297 0)
(0.337204 0.170445 0)
(1.27884 0.621299 9.01324e-21)
(1.28601 0.638639 3.4397e-21)
(1.24269 0.628823 -7.42897e-22)
(1.19245 0.615959 -3.56389e-21)
(1.13651 0.599511 0)
(1.07531 0.578377 -5.12551e-21)
(1.00997 0.551196 -3.76717e-23)
(0.942509 0.516764 3.40699e-20)
(0.875939 0.47503 -4.97691e-21)
(0.820695 0.434034 -2.16044e-20)
(0.781082 0.401906 1.31319e-20)
(0.752086 0.378018 -1.29773e-22)
(0.729866 0.359844 1.94173e-20)
(0.712372 0.34577 1.23242e-20)
(0.698394 0.33468 -2.89762e-20)
(0.686962 0.326049 3.47106e-20)
(0.672417 0.317338 1.03431e-20)
(0.577026 0.270674 4.36546e-20)
(0.160427 0.0764842 -1.18438e-19)
(0.336512 0.184587 -4.84632e-21)
(1.27027 0.672581 5.79543e-21)
(1.27511 0.690435 -3.31961e-21)
(1.23078 0.679386 3.16701e-22)
(1.17931 0.66494 0)
(1.12178 0.646485 -4.16113e-21)
(1.05869 0.622722 1.82597e-20)
(0.991201 0.592093 1.32533e-20)
(0.921736 0.553157 0)
(0.854061 0.505834 -7.0274e-20)
(0.79962 0.459905 5.6074e-20)
(0.761706 0.424949 0)
(0.734134 0.399744 1.7108e-20)
(0.712854 0.380864 -1.26488e-22)
(0.695991 0.366284 -3.76796e-20)
(0.682483 0.354811 1.49642e-20)
(0.671411 0.345806 0)
(0.657419 0.336573 5.46606e-20)
(0.565622 0.287996 0)
(0.159114 0.0821891 -5.48281e-20)
(0.336479 0.198558 5.31233e-21)
(1.26138 0.721586 7.21481e-21)
(1.26388 0.739851 -3.04772e-21)
(1.2185 0.72781 0)
(1.16575 0.711981 -3.52586e-21)
(1.10656 0.691715 0)
(1.04139 0.665543 -1.84309e-20)
(0.971524 0.63164 -6.29747e-21)
(0.899809 0.588129 6.15222e-21)
(0.830998 0.534718 -3.44851e-20)
(0.777761 0.483176 5.72298e-21)
(0.742339 0.445259 0)
(0.716765 0.41902 -3.4729e-20)
(0.696592 0.399777 1.59956e-22)
(0.680297 0.384908 0)
(0.667135 0.373131 4.96617e-22)
(0.656391 0.363727 4.80061e-20)
(0.642929 0.354021 -4.67061e-20)
(0.554872 0.30394 1.39535e-20)
(0.157849 0.0875892 0)
(0.336751 0.212166 0)
(1.25259 0.768479 8.16107e-21)
(1.25261 0.787014 4.26725e-21)
(1.20609 0.774164 -4.93359e-22)
(1.15202 0.757221 -9.49573e-22)
(1.09108 0.735386 -1.14476e-20)
(1.02372 0.707003 7.31559e-21)
(0.95122 0.669954 -7.56463e-21)
(0.876865 0.621826 2.74286e-20)
(0.80662 0.561766 -5.40179e-20)
(0.755008 0.503709 7.09362e-22)
(0.723195 0.462566 -1.4649e-20)
(0.700357 0.435772 5.41255e-20)
(0.68139 0.416766 -1.85009e-22)
(0.66547 0.40196 -2.75094e-20)
(0.652381 0.389903 -5.10248e-20)
(0.641798 0.380109 0)
(0.628806 0.369915 0)
(0.544704 0.318765 1.5195e-20)
(0.156402 0.0926233 -8.85075e-21)
(0.337826 0.22582 6.73457e-21)
(1.24407 0.813387 -1.69366e-20)
(1.24158 0.832145 -4.09638e-21)
(1.19381 0.818584 0)
(1.13829 0.800711 -8.0116e-23)
(1.07553 0.777553 -1.1351e-20)
(1.00595 0.747247 1.84742e-20)
(0.930554 0.707196 3.09502e-20)
(0.853027 0.654427 3.64138e-20)
(0.780786 0.58714 -4.40533e-20)
(0.73124 0.521295 -4.27933e-20)
(0.704439 0.476549 3.73666e-20)
(0.685382 0.449992 0)
(0.667732 0.432213 -1.16237e-20)
(0.651694 0.417978 -2.94889e-20)
(0.638107 0.405709 -3.58925e-20)
(0.62734 0.39536 -4.41486e-20)
(0.614731 0.384519 1.3303e-20)
(0.534717 0.332479 -7.9738e-21)
(0.154311 0.0970712 4.36112e-23)
(0.339137 0.239247 0)
(1.23589 0.856449 0)
(1.23092 0.875303 1.52861e-22)
(1.18189 0.86119 0)
(1.12482 0.842523 3.57262e-21)
(1.06017 0.818237 8.62237e-21)
(0.988186 0.786293 0)
(0.909752 0.743599 3.92716e-21)
(0.82852 0.686203 6.26682e-20)
(0.753471 0.610985 -1.00243e-19)
(0.70604 0.535735 0)
(0.686129 0.48661 -2.13481e-20)
(0.672626 0.461404 -4.9492e-22)
(0.6564 0.446432 -6.27526e-22)
(0.639231 0.43374 2.98062e-20)
(0.624089 0.421562 -2.84251e-22)
(0.612468 0.410353 -9.46068e-20)
(0.600124 0.398243 2.90519e-20)
(0.524034 0.344974 8.72323e-21)
(0.150814 0.100465 0)
(0.340576 0.252527 -2.57488e-20)
(1.22804 0.89772 -1.06043e-20)
(1.22068 0.916625 -1.08794e-20)
(1.17042 0.902016 5.75986e-21)
(1.11184 0.882735 6.23596e-21)
(1.0452 0.857517 0)
(0.970652 0.824177 1.31355e-20)
(0.888944 0.779245 -9.01182e-21)
(0.803579 0.717521 2.40067e-22)
(0.724616 0.633757 7.01045e-21)
(0.67894 0.546881 5.00974e-20)
(0.668348 0.491843 -7.14737e-21)
(0.663215 0.469615 -2.77362e-20)
(0.648591 0.460428 -1.19245e-20)
(0.628802 0.450885 1.65147e-20)
(0.610718 0.438399 -3.03253e-22)
(0.596391 0.425666 2.60273e-20)
(0.58268 0.411422 -6.27981e-20)
(0.510357 0.356093 7.66261e-20)
(0.145017 0.102041 1.12691e-20)
(0.341814 0.265529 9.55718e-21)
(1.2206 0.937287 -5.52918e-21)
(1.21091 0.956127 9.8484e-22)
(1.15941 0.941129 3.66005e-21)
(1.09937 0.921333 -6.60936e-22)
(1.03083 0.895424 -1.76933e-20)
(0.953683 0.860997 4.11485e-21)
(0.86833 0.814142 -3.92424e-20)
(0.778286 0.748614 -7.35869e-20)
(0.694268 0.655909 -6.00582e-20)
(0.649337 0.554703 0)
(0.650847 0.491022 -2.57654e-20)
(0.658544 0.473163 3.5216e-20)
(0.647104 0.47482 0)
(0.621879 0.471904 -3.39682e-20)
(0.597127 0.45856 2.25031e-20)
(0.576863 0.443214 -2.79782e-20)
(0.562872 0.424444 -3.54326e-20)
(0.49474 0.364906 -6.36419e-20)
(0.135328 0.100796 -5.08201e-20)
(0.343489 0.27852 -1.0506e-20)
(1.21344 0.975225 5.90065e-21)
(1.20164 0.993885 1.11448e-20)
(1.14896 0.97853 5.68555e-21)
(1.08747 0.958347 2.75099e-21)
(1.01712 0.931931 -1.15518e-20)
(0.937457 0.896753 1.43131e-20)
(0.848285 0.848461 -4.26377e-20)
(0.752767 0.779562 -4.54113e-20)
(0.662355 0.678098 6.41302e-20)
(0.616552 0.559344 9.78736e-20)
(0.632922 0.482471 0)
(0.660707 0.472062 0)
(0.654192 0.49163 -1.32675e-20)
(0.620816 0.502191 0)
(0.585072 0.487325 4.96686e-20)
(0.555958 0.46504 6.27288e-20)
(0.539822 0.441228 0)
(0.471229 0.372696 0)
(0.118139 0.0944386 5.77912e-20)
(0.344899 0.29088 1.18903e-20)
(1.20659 1.01143 8.30482e-21)
(1.19286 1.02989 7.84661e-21)
(1.13908 1.01425 -5.27181e-21)
(1.07627 0.993758 2.67327e-21)
(1.00415 0.967013 1.38396e-20)
(0.922034 0.931409 -2.12327e-20)
(0.829154 0.882204 -1.05755e-21)
(0.727491 0.810662 -2.66696e-22)
(0.628795 0.700829 3.31954e-22)
(0.579812 0.56141 4.76098e-20)
(0.613405 0.46403 0)
(0.671841 0.461244 2.29245e-20)
(0.676254 0.509968 2.27332e-20)
(0.628945 0.54183 7.3797e-20)
(0.568952 0.537995 2.59395e-20)
(0.522519 0.50259 -3.72097e-20)
(0.498074 0.460916 -2.2934e-20)
(0.429775 0.375079 0)
(0.0897586 0.07961 6.67627e-20)
(0.346844 0.303444 -2.65852e-20)
(1.20007 1.04601 0)
(1.18457 1.06417 9.13416e-21)
(1.12975 1.04827 -4.19104e-21)
(1.06576 1.02756 -2.37384e-21)
(0.992025 1.00067 -1.79363e-20)
(0.9076 0.964906 4.5818e-20)
(0.811005 0.915343 -2.55402e-21)
(0.703058 0.842074 0)
(0.593892 0.724617 -7.51478e-20)
(0.537991 0.562095 -9.64603e-20)
(0.590246 0.433375 1.95448e-21)
(0.693542 0.435373 9.6308e-21)
(0.720397 0.533398 0)
(0.654971 0.588374 4.69833e-20)
(0.555953 0.587222 0)
(0.473808 0.547502 0)
(0.435329 0.477092 -2.797e-20)
(0.366623 0.356605 0)
(0.0710053 0.0555882 1.89355e-20)
(0.348307 0.31532 -2.93844e-20)
(1.19376 1.07911 0)
(1.17666 1.09684 1.55866e-20)
(1.12097 1.08072 0)
(1.05593 1.05993 1.02492e-21)
(0.980656 1.03307 0)
(0.894219 0.99752 2.62835e-21)
(0.79393 0.94817 6.89415e-21)
(0.679448 0.874334 6.26016e-21)
(0.557953 0.750878 -8.60821e-20)
(0.4893 0.562963 3.35809e-21)
(0.559973 0.38723 4.38568e-21)
(0.729819 0.384317 -1.69723e-21)
(0.790091 0.551226 1.58748e-21)
(0.665499 0.693147 3.59072e-20)
(0.49776 0.716049 0)
(0.371961 0.644913 9.02014e-20)
(0.310788 0.500357 -5.70264e-20)
(0.177622 0.307599 6.87612e-20)
(-0.00683785 0.55102 -8.43321e-20)
(0.349914 0.327221 2.44102e-20)
(1.18757 1.11093 3.19465e-20)
(1.16898 1.12815 0)
(1.11265 1.11199 3.8344e-22)
(1.04662 1.09144 -1.66821e-21)
(0.969844 1.06495 3.15552e-20)
(0.881469 1.03016 1.85195e-20)
(0.777547 0.981886 0)
(0.655919 0.908937 4.54707e-20)
(0.519666 0.781961 -5.11361e-21)
(0.428451 0.566483 0)
(0.514227 0.31734 0)
(0.789977 0.286263 -2.69557e-20)
(0.927279 0.537623 -2.58877e-21)
(0.755294 0.779178 -3.14456e-20)
(0.5013 0.849984 0)
(0.291182 0.751511 4.89535e-20)
(0.0925238 0.803427 -6.05189e-20)
(0.110419 2.06848 -3.45633e-20)
(0.120643 2.87949 -3.9961e-20)
(0.351137 0.338299 -1.83627e-20)
(1.18116 1.14147 -4.06758e-20)
(1.16147 1.15785 8.82502e-21)
(1.1049 1.1419 4.79211e-21)
(1.03786 1.12178 0)
(0.959703 1.09591 2.17906e-20)
(0.869738 1.06237 2.84452e-20)
(0.76228 1.01596 -3.81235e-21)
(0.633435 0.945702 7.00676e-21)
(0.480216 0.818609 8.95383e-20)
(0.356104 0.577606 4.32761e-20)
(0.439422 0.217323 -3.41318e-20)
(0.839935 0.0597525 -6.83653e-20)
(1.16723 0.526602 4.57062e-20)
(0.931096 0.951812 -3.13415e-20)
(0.579032 1.08632 0)
(0.222773 1.18595 0)
(0.231953 2.55465 2.51352e-20)
(0.219728 3.12005 0)
(0.198356 3.26448 6.03589e-20)
(0.355642 0.348153 0)
(1.17356 1.1705 0)
(1.15423 1.18561 0)
(1.09748 1.17022 1.72056e-21)
(1.02943 1.15068 -2.31764e-21)
(0.950057 1.12574 1.58517e-20)
(0.859001 1.09403 1.99222e-20)
(0.748249 1.05031 -3.98907e-21)
(0.612511 0.984626 6.47751e-20)
(0.440225 0.861904 2.21334e-21)
(0.271238 0.604912 9.00076e-20)
(0.298456 0.100278 9.73967e-21)
(0.722694 0.0168198 -1.73516e-20)
(1.26346 0.794046 -1.33757e-20)
(1.15214 1.30526 7.12032e-21)
(0.54714 1.58769 -5.04283e-22)
(0.344061 2.52576 -1.01176e-19)
(0.366736 3.2026 -4.02161e-20)
(0.292145 3.31274 1.88908e-20)
(0.242334 3.34584 -1.74846e-20)
(0.235489 0.26382 1.14303e-20)
(1.16453 1.19751 0)
(1.14798 1.21179 -1.84945e-20)
(1.09066 1.19734 -1.33552e-20)
(1.0218 1.1786 -1.00028e-21)
(0.941585 1.15481 -1.62846e-20)
(0.850048 1.12406 -2.28735e-20)
(0.737327 1.08362 5.16754e-20)
(0.596584 1.0243 -5.73082e-20)
(0.407912 0.917138 0)
(0.184128 0.679969 5.25544e-20)
(0.145906 0.193666 4.71095e-20)
(0.510568 0.322616 0)
(1.20622 1.31756 -3.83967e-20)
(1.13628 1.892 -1.3703e-20)
(0.55005 2.29758 -5.4558e-21)
(0.531345 3.30246 9.32094e-21)
(0.41673 3.40005 3.14828e-21)
(0.322595 3.4242 9.63236e-21)
(0.264434 3.43029 6.37336e-21)
(0.420219 0.422148 -1.83588e-20)
(1.14663 1.21614 0)
(1.13954 1.25114 2.02284e-20)
(1.07874 1.23818 1.55889e-20)
(1.00849 1.2209 -8.93935e-22)
(0.926375 1.199 1.4856e-20)
(0.830465 1.17113 2.97009e-20)
(0.713041 1.13555 4.21343e-21)
(0.562211 1.08517 6.29174e-20)
(0.345248 0.995087 1.0398e-19)
(0.022539 0.780728 4.81465e-21)
(-0.393849 0.459023 -5.33978e-20)
(-0.23039 1.38575 -3.73152e-20)
(0.695919 2.49596 4.96456e-20)
(0.650211 2.93672 4.55913e-20)
(0.540546 3.52245 -3.44359e-20)
(0.463224 3.60079 3.29583e-20)
(0.388068 3.55563 1.27673e-20)
(0.31846 3.55486 2.13588e-20)
(0.253096 3.51906 1.68555e-21)
(0.415748 0.425064 0)
(1.14666 1.24379 7.31337e-21)
(1.13327 1.27864 -4.4767e-21)
(1.07195 1.26664 -2.17883e-21)
(1.00099 1.25022 -1.44654e-21)
(0.918113 1.2294 -1.38115e-20)
(0.820959 1.20347 -1.89205e-20)
(0.701867 1.17176 4.10391e-21)
(0.547011 1.12946 -7.0384e-20)
(0.31576 1.06097 2.39859e-21)
(-0.0626822 0.9218 -1.53443e-19)
(-0.645618 0.846731 -1.5193e-20)
(-0.665181 1.91538 3.24986e-20)
(0.325357 3.03396 3.8086e-20)
(0.419657 3.60039 6.47065e-21)
(0.443046 3.73367 5.12492e-21)
(0.409745 3.689 -1.0198e-19)
(0.362717 3.64382 -5.94697e-20)
(0.297809 3.64255 3.95144e-20)
(0.240073 3.6028 2.75484e-20)
(0.398861 0.42252 2.08707e-20)
(1.14626 1.27637 4.95038e-20)
(1.12742 1.30919 -1.22844e-20)
(1.06524 1.29749 -7.69238e-21)
(0.993493 1.28161 0)
(0.909992 1.2617 -1.55973e-20)
(0.812129 1.23785 -2.60369e-20)
(0.692166 1.20997 3.96015e-21)
(0.535123 1.17693 -8.01603e-21)
(0.298327 1.13628 -1.18732e-19)
(-0.103227 1.09239 -9.13592e-20)
(-0.733408 1.24349 3.60028e-20)
(-0.840252 2.36709 1.97756e-19)
(-0.028476 3.41601 -2.27191e-19)
(0.25992 3.75868 -1.82486e-19)
(0.369436 3.76096 0)
(0.372332 3.72487 0)
(0.349721 3.71409 3.98207e-20)
(0.280774 3.73316 0)
(0.215249 3.68794 7.10559e-20)
(0.383825 0.422791 -3.23804e-20)
(1.14351 1.31151 -4.31693e-20)
(1.12075 1.34222 0)
(1.05771 1.3301 8.23255e-22)
(0.985221 1.31431 -4.57726e-21)
(0.90138 1.29531 -1.97883e-20)
(0.803285 1.27328 -1.62881e-20)
(0.683278 1.24917 3.15938e-21)
(0.526806 1.22661 -5.96176e-20)
(0.292197 1.2142 6.71109e-21)
(-0.0967474 1.25625 0)
(-0.675292 1.55349 0)
(-0.784158 2.60303 9.99547e-20)
(-0.101095 3.44663 -6.41975e-20)
(0.217193 3.69106 -1.09579e-19)
(0.355016 3.69376 0)
(0.386625 3.73155 8.84686e-20)