/*--------------------------------*- C++ -*----------------------------------*\
  =========                 |
  \\      /  F ield         | OpenFOAM: The Open Source CFD Toolbox
   \\    /   O peration     | Website:  https://openfoam.org
    \\  /    A nd           | Version:  6
     \\/     M anipulation  |
\*---------------------------------------------------------------------------*/
FoamFile
{
    version     2.0;
    format      ascii;
    class       volVectorField;
    location    "96.3";
    object      U;
}
// * * * * * * * * * * * * * * * * * * * * * * * * * * * * * * * * * * * * * //

dimensions      [0 1 -1 0 0 0 0];

internalField   nonuniform List<vector> 
8800
(
(0.987184 -0.0766652 0)
(1.00189 -0.05519 0)
(0.999722 -0.0285477 0)
(1.00003 -0.0151424 0)
(1.0001 -0.00854341 0)
(1.00012 -0.00504517 0)
(1.00008 -0.0029993 0)
(1.00002 -0.00169844 0)
(0.999991 -0.000791992 0)
(1.00006 -7.59938e-05 0)
(0.999958 0.000656731 0)
(1 0.00142483 0)
(1.00006 0.00243057 0)
(1.00007 0.00399924 0)
(1.00006 0.006633 0)
(1.00005 0.0113724 0)
(0.999953 0.0208159 0)
(0.999173 0.0386706 0)
(1.0071 0.0724575 0)
(0.771215 0.0366617 0)
(0.36308 -0.0160164 0)
(1.04332 -0.0768113 0)
(1.0846 -0.0704394 0)
(1.04519 -0.0535327 0)
(1.02329 -0.0388827 0)
(1.01203 -0.0262032 0)
(1.00643 -0.0168392 0)
(1.00359 -0.0103036 0)
(1.00215 -0.00563941 0)
(1.00144 -0.00197668 0)
(1.00128 0.00134522 0)
(1.00166 0.00473412 0)
(1.00269 0.00865777 0)
(1.00468 0.0139753 0)
(1.00861 0.0216831 0)
(1.01657 0.0326495 0)
(1.03251 0.046561 0)
(1.06268 0.0616771 0)
(1.09187 0.0761053 0)
(0.838665 0.0565643 0)
(0.216872 -0.00242865 0)
(1.07592 -0.0501226 0)
(1.09989 -0.0482911 0)
(1.06465 -0.0404393 0)
(1.04005 -0.033576 0)
(1.02393 -0.0260481 0)
(1.01413 -0.0184567 0)
(1.00856 -0.011627 0)
(1.00558 -0.00574935 0)
(1.0043 -0.000324406 0)
(1.00463 0.00492548 0)
(1.0066 0.0103176 0)
(1.01063 0.0163781 0)
(1.01794 0.0233945 0)
(1.03053 0.0308565 0)
(1.05062 0.0378799 0)
(1.08037 0.0445599 0)
(1.10627 0.0513686 0)
(0.942497 0.0416296 0)
(0.216116 0.00246293 0)
(0.175218 -0.000815094 0)
(1.01776 -0.0354642 0)
(1.10523 -0.0413469 0)
(1.07829 -0.036023 0)
(1.0535 -0.0300801 0)
(1.03624 -0.0244939 0)
(1.02403 -0.0187518 0)
(1.01589 -0.0126565 0)
(1.01102 -0.00645441 0)
(1.00879 -0.000108308 0)
(1.00934 0.00615324 0)
(1.01265 0.0121515 0)
(1.01889 0.0179453 0)
(1.02875 0.0235079 0)
(1.04318 0.0288017 0)
(1.0637 0.0342739 0)
(1.09356 0.0402513 0)
(1.09339 0.0420017 0)
(0.827042 0.0229321 0)
(0.173943 0.000854896 0)
(0.154042 -0.000608762 0)
(0.956318 -0.0254296 0)
(1.10352 -0.0350785 0)
(1.08773 -0.0325888 0)
(1.06178 -0.0279239 0)
(1.04416 -0.0228848 0)
(1.03168 -0.0176185 0)
(1.02282 -0.0120653 0)
(1.01698 -0.00610931 0)
(1.0141 0.000375272 0)
(1.01475 0.00684524 0)
(1.01877 0.0127266 0)
(1.0258 0.0179689 0)
(1.03606 0.0228706 0)
(1.05061 0.0276192 0)
(1.07184 0.0321339 0)
(1.10005 0.036056 0)
(1.06799 0.0340936 0)
(0.739317 0.0143402 0)
(0.152118 0.000653984 0)
(0.139704 -0.000464685 0)
(0.899526 -0.0190372 0)
(1.09591 -0.0300075 0)
(1.09583 -0.0290962 0)
(1.06934 -0.0253475 0)
(1.0509 -0.0211874 0)
(1.03795 -0.0163881 0)
(1.02882 -0.0110723 0)
(1.02267 -0.00530176 0)
(1.01949 0.00104617 0)
(1.02007 0.0073688 0)
(1.02421 0.0129995 0)
(1.03135 0.0178998 0)
(1.04181 0.0223458 0)
(1.05692 0.0262971 0)
(1.07911 0.0297372 0)
(1.1022 0.0323448 0)
(1.03578 0.0282079 0)
(0.672588 0.0102473 0)
(0.136981 0.000516859 0)
(0.129206 -0.000358879 0)
(0.850088 -0.0146626 0)
(1.08361 -0.025849 0)
(1.10156 -0.0261105 0)
(1.07624 -0.0228014 0)
(1.05727 -0.0191303 0)
(1.04386 -0.0148498 0)
(1.03436 -0.00988819 0)
(1.02796 -0.00432027 0)
(1.02457 0.00185516 0)
(1.02499 0.00796889 0)
(1.02908 0.0133214 0)
(1.03632 0.0177969 0)
(1.04704 0.0216343 0)
(1.06255 0.0249163 0)
(1.08518 0.0278301 0)
(1.10123 0.0295584 0)
(1.00068 0.0237242 0)
(0.620535 0.00789462 0)
(0.125511 0.000420271 0)
(0.121218 -0.000277697 0)
(0.808151 -0.0114902 0)
(1.06848 -0.022208 0)
(1.10517 -0.0234297 0)
(1.08255 -0.0205261 0)
(1.06316 -0.0170622 0)
(1.04947 -0.0130792 0)
(1.03969 -0.00844499 0)
(1.03299 -0.00313899 0)
(1.02933 0.00282568 0)
(1.02955 0.00869629 0)
(1.03359 0.0137004 0)
(1.04087 0.0176886 0)
(1.05167 0.0210151 0)
(1.06739 0.0238806 0)
(1.09035 0.0264876 0)
(1.09733 0.0273082 0)
(0.965143 0.0202235 0)
(0.578594 0.00637427 0)
(0.116339 0.00035074 0)
(0.115053 -0.000213863 0)
(0.772942 -0.00911066 0)
(1.05191 -0.0189931 0)
(1.10765 -0.0209363 0)
(1.0885 -0.0183943 0)
(1.06872 -0.0150654 0)
(1.05478 -0.0112332 0)
(1.04479 -0.00679713 0)
(1.03783 -0.0017197 0)
(1.03386 0.00400179 0)
(1.03383 0.00957811 0)
(1.03774 0.0142046 0)
(1.04493 0.0177561 0)
(1.0557 0.0206923 0)
(1.07161 0.0232264 0)
(1.09422 0.0254792 0)
(1.09054 0.0254699 0)
(0.930454 0.0175421 0)
(0.543734 0.00534436 0)
(0.108736 0.000301239 0)
(0.11028 -0.000162234 0)
(0.743531 -0.00725647 0)
(1.03498 -0.0161324 0)
(1.10922 -0.0185729 0)
(1.09417 -0.0163257 0)
(1.07411 -0.0130774 0)
(1.0599 -0.00932072 0)
(1.0497 -0.00499105 0)
(1.04249 -7.28627e-05 0)
(1.03821 0.00541889 0)
(1.03785 0.0106892 0)
(1.04152 0.0149562 0)
(1.04853 0.0181173 0)
(1.05924 0.0207056 0)
(1.07533 0.0229409 0)
(1.09677 0.0248034 0)
(1.08123 0.0240014 0)
(0.897152 0.0155308 0)
(0.513889 0.00463583 0)
(0.102215 0.000267069 0)
(0.106617 -0.000119019 0)
(0.719107 -0.00575311 0)
(1.01853 -0.0135532 0)
(1.11001 -0.0162748 0)
(1.09977 -0.0142857 0)
(1.07944 -0.0110352 0)
(1.06493 -0.00729178 0)
(1.0545 -0.00300611 0)
(1.04701 0.00181551 0)
(1.04236 0.00712232 0)
(1.0416 0.0121116 0)
(1.04493 0.0160419 0)
(1.05172 0.0188271 0)
(1.06234 0.0210795 0)
(1.07859 0.0230393 0)
(1.09791 0.0244727 0)
(1.06977 0.0229031 0)
(0.865325 0.0140742 0)
(0.487586 0.00415881 0)
(0.0964313 0.000245243 0)
(0.103879 -8.12187e-05 0)
(0.69904 -0.00448383 0)
(1.00318 -0.0111869 0)
(1.11018 -0.0140051 0)
(1.10525 -0.0121879 0)
(1.08481 -0.00888368 0)
(1.06997 -0.00509175 0)
(1.05925 -0.00078686 0)
(1.05143 0.00399815 0)
(1.04633 0.00917358 0)
(1.04507 0.0139189 0)
(1.04801 0.0175326 0)
(1.05451 0.0199458 0)
(1.06501 0.0218673 0)
(1.08137 0.0235529 0)
(1.09797 0.024635 0)
(1.05637 0.0221942 0)
(0.834767 0.0130906 0)
(0.463705 0.00385959 0)
(0.0911182 0.00023341 0)
(0.101951 -4.61076e-05 0)
(0.682873 -0.00336073 0)
(0.989394 -0.00896137 0)
(1.10996 -0.0116748 0)
(1.11059 -0.0099478 0)
(1.09028 -0.00655937 0)
(1.0751 -0.00265475 0)
(1.06404 0.00173859 0)
(1.0558 0.00655206 0)
(1.05016 0.0116499 0)
(1.04829 0.0161841 0)
(1.05077 0.0194955 0)
(1.05693 0.0215343 0)
(1.06726 0.0231237 0)
(1.08364 0.0245161 0)
(1.0971 0.0251424 0)
(1.04116 0.0218822 0)
(0.8051 0.0125039 0)
(0.441357 0.00369948 0)
(0.0860661 0.000229416 0)
(0.100775 -1.13871e-05 0)
(0.670316 -0.00231344 0)
(0.977548 -0.00680079 0)
(1.10968 -0.00922608 0)
(1.11593 -0.00750347 0)
(1.09596 -0.00398415 0)
(1.08039 0.000100631 0)
(1.06893 0.00465426 0)
(1.06018 0.00956636 0)
(1.05388 0.0146441 0)
(1.05129 0.0190009 0)
(1.05319 0.0220229 0)
(1.05895 0.0236815 0)
(1.06909 0.0249303 0)
(1.08544 0.0260267 0)
(1.0949 0.0261313 0)
(1.02416 0.0219741 0)
(0.775846 0.0122685 0)
(0.419815 0.00365444 0)
(0.0811078 0.000231994 0)
(0.100346 2.55897e-05 0)
(0.661232 -0.0012853 0)
(0.967967 -0.00463146 0)
(1.10967 -0.00659716 0)
(1.12143 -0.00478109 0)
(1.10193 -0.0010696 0)
(1.08593 0.00326943 0)
(1.074 0.00806059 0)
(1.06464 0.0131462 0)
(1.05754 0.0182655 0)
(1.05408 0.0224778 0)
(1.05529 0.025218 0)
(1.06057 0.0264996 0)
(1.07047 0.0273859 0)
(1.08668 0.0281475 0)
(1.09127 0.0276341 0)
(1.00525 0.0225149 0)
(0.74646 0.0123605 0)
(0.398454 0.00371126 0)
(0.0761014 0.000240451 0)
(0.100672 5.85762e-05 0)
(0.655611 -0.000217414 0)
(0.96096 -0.00237686 0)
(1.11029 -0.00371908 0)
(1.12726 -0.00169471 0)
(1.1083 0.00228695 0)
(1.09184 0.00696365 0)
(1.07933 0.0120778 0)
(1.06924 0.0174192 0)
(1.06117 0.0226452 0)
(1.05666 0.0267455 0)
(1.05705 0.0292055 0)
(1.06178 0.0301086 0)
(1.07136 0.030609 0)
(1.08708 0.030991 0)
(1.08589 0.0297391 0)
(0.984189 0.0235414 0)
(0.716325 0.0127644 0)
(0.376698 0.00386 0)
(0.0709207 0.000253883 0)
(0.101848 0.000114292 0)
(0.653612 0.000933579 0)
(0.956853 3.98609e-05 0)
(1.11193 -0.000512953 0)
(1.13361 0.00185618 0)
(1.1152 0.00620497 0)
(1.09821 0.0113152 0)
(1.08503 0.0168498 0)
(1.07404 0.0225367 0)
(1.06481 0.0279381 0)
(1.05904 0.0319591 0)
(1.05845 0.0341376 0)
(1.06252 0.0346458 0)
(1.07172 0.0347379 0)
(1.08647 0.0346973 0)
(1.0785 0.0325301 0)
(0.9606 0.0250922 0)
(0.684758 0.0134698 0)
(0.354007 0.00409113 0)
(0.0654559 0.000271294 0)
(0.104019 0.000166485 0)
(0.655417 0.00205887 0)
(0.956012 0.0027131 0)
(1.11505 0.0031281 0)
(1.14072 0.00598393 0)
(1.12278 0.0108287 0)
(1.1052 0.0164878 0)
(1.0912 0.0225566 0)
(1.07913 0.0286885 0)
(1.06849 0.0343307 0)
(1.06122 0.038288 0)
(1.0595 0.0401547 0)
(1.06276 0.0402654 0)
(1.07148 0.0399216 0)
(1.08462 0.0393639 0)
(1.06876 0.0361097 0)
(0.933948 0.0272113 0)
(0.651022 0.0144673 0)
(0.329878 0.00439417 0)
(0.0596168 0.000291487 0)
(0.107289 0.000230853 0)
(0.661674 0.00355041 0)
(0.958788 0.00566369 0)
(1.12012 0.00734329 0)
(1.14883 0.0108356 0)
(1.13123 0.0163434 0)
(1.11296 0.0226859 0)
(1.09797 0.0294167 0)
(1.08456 0.036098 0)
(1.07223 0.0420426 0)
(1.06319 0.0459385 0)
(1.06015 0.0474747 0)
(1.06245 0.0471543 0)
(1.07061 0.0463312 0)
(1.08154 0.0451608 0)
(1.05617 0.0405977 0)
(0.903527 0.0299335 0)
(0.614316 0.0157366 0)
(0.303852 0.00475324 0)
(0.053337 0.000312662 0)
(0.111942 0.000317654 0)
(0.672692 0.00530227 0)
(0.965778 0.00917955 0)
(1.12765 0.0122953 0)
(1.15828 0.0166244 0)
(1.14079 0.0229885 0)
(1.12167 0.0301742 0)
(1.10545 0.0377109 0)
(1.09042 0.0450451 0)
(1.07605 0.0513358 0)
(1.06492 0.0551421 0)
(1.06028 0.0563106 0)
(1.06154 0.0555156 0)
(1.06901 0.0541641 0)
(1.07713 0.0522612 0)
(1.0401 0.0461014 0)
(0.86844 0.0332647 0)
(0.573798 0.0172328 0)
(0.275539 0.00514174 0)
(0.0465868 0.000332178 0)
(0.11834 0.000434374 0)
(0.689286 0.00748687 0)
(0.977776 0.0134621 0)
(1.13821 0.0182185 0)
(1.16944 0.0236174 0)
(1.15175 0.0310925 0)
(1.13155 0.0393107 0)
(1.11379 0.0478044 0)
(1.09675 0.0558776 0)
(1.07991 0.0625124 0)
(1.06634 0.0661545 0)
(1.0598 0.0668629 0)
(1.05998 0.0655517 0)
(1.06677 0.0636215 0)
(1.07104 0.0608642 0)
(1.01966 0.0526877 0)
(0.827596 0.0371566 0)
(0.528643 0.0188673 0)
(0.2447 0.00551774 0)
(0.0393925 0.000346491 0)
(0.127011 0.000596935 0)
(0.712484 0.0103396 0)
(0.995552 0.0187811 0)
(1.15247 0.0254555 0)
(1.1828 0.0321966 0)
(1.16443 0.0411129 0)
(1.14283 0.0505772 0)
(1.12309 0.0601695 0)
(1.10353 0.0690149 0)
(1.08375 0.0759166 0)
(1.06736 0.0792479 0)
(1.05869 0.0793599 0)
(1.05771 0.0774632 0)
(1.06358 0.0748538 0)
(1.06269 0.0709807 0)
(0.993691 0.0603705 0)
(0.779719 0.0414649 0)
(0.478144 0.0204867 0)
(0.211331 0.00582171 0)
(0.0318557 0.000351319 0)
(0.13876 0.000835513 0)
(0.743668 0.0142435 0)
(1.02028 0.0256148 0)
(1.17122 0.0345565 0)
(1.19902 0.0429672 0)
(1.17925 0.0537311 0)
(1.15569 0.0646629 0)
(1.13336 0.0754382 0)
(1.11066 0.0849773 0)
(1.0874 0.0919242 0)
(1.06783 0.0946798 0)
(1.05687 0.0940151 0)
(1.05476 0.0915014 0)
(1.05912 0.0880888 0)
(1.05124 0.0828037 0)
(0.960673 0.0690153 0)
(0.723436 0.045895 0)
(0.421909 0.0218559 0)
(0.1758 0.00597742 0)
(0.0241724 0.000342208 0)
(0.154891 0.00120838 0)
(0.784834 0.01985 0)
(1.05361 0.0347551 0)
(1.19544 0.0464787 0)
(1.219 0.0573391 0)
(1.19656 0.0700276 0)
(1.17023 0.0825663 0)
(1.14447 0.0944263 0)
(1.11791 0.104355 0)
(1.0906 0.110914 0)
(1.06754 0.112684 0)
(1.05419 0.110996 0)
(1.05102 0.107774 0)
(1.05322 0.103613 0)
(1.0355 0.0962763 0)
(0.918626 0.0782573 0)
(0.657476 0.0499507 0)
(0.360165 0.0226591 0)
(0.138982 0.00590309 0)
(0.0166379 0.000315584 0)
(0.177646 0.00185462 0)
(0.839213 0.0283088 0)
(1.09848 0.0477959 0)
(1.22621 0.0630959 0)
(1.24316 0.07693 0)
(1.21648 0.091671 0)
(1.18619 0.105641 0)
(1.15599 0.118102 0)
(1.12481 0.127761 0)
(1.09298 0.133233 0)
(1.06623 0.133438 0)
(1.05046 0.130394 0)
(1.0463 0.126317 0)
(1.04573 0.121144 0)
(1.01372 0.111116 0)
(0.865123 0.0874067 0)
(0.581163 0.0529152 0)
(0.294231 0.022547 0)
(0.102357 0.00553374 0)
(0.00963565 0.00026918 0)
(0.210513 0.0032841 0)
(0.91267 0.0423829 0)
(1.15787 0.0686335 0)
(1.26387 0.0879259 0)
(1.27136 0.104851 0)
(1.23837 0.121099 0)
(1.20272 0.135548 0)
(1.16709 0.14747 0)
(1.13068 0.155731 0)
(1.09405 0.159106 0)
(1.0636 0.157025 0)
(1.0455 0.152213 0)
(1.04043 0.147153 0)
(1.03579 0.140727 0)
(0.983304 0.126682 0)
(0.797439 0.0953093 0)
(0.495455 0.0539404 0)
(0.227234 0.0213161 0)
(0.0681371 0.00486487 0)
(0.00364917 0.000202035 0)
(0.25536 0.00972979 9.30291e-21)
(1.00901 0.070256 7.98922e-21)
(1.22938 0.104085 -2.79464e-21)
(1.30556 0.12494 0)
(1.30062 0.144868 -7.16382e-35)
(1.25998 0.16073 1.04844e-21)
(1.21821 0.173826 -1.89581e-21)
(1.17669 0.183751 0)
(1.13477 0.189537 3.92871e-35)
(1.09312 0.19007 -2.37675e-21)
(1.0588 0.185312 0)
(1.03848 0.178765 -2.84971e-21)
(1.03327 0.17349 -8.42983e-21)
(1.02123 0.165878 -3.99876e-21)
(0.938245 0.144897 -1.20572e-21)
(0.707578 0.102121 -7.16309e-22)
(0.395597 0.05276 0)
(0.158757 0.0192438 5.01017e-22)
(0.0364746 0.00402926 5.93324e-22)
(-0.00140647 8.43336e-05 1.08508e-20)
(0.286732 0.0254792 6.50392e-21)
(1.08912 0.11437 1.18396e-22)
(1.28836 0.154577 7.30303e-22)
(1.34355 0.175432 0)
(1.32656 0.195413 -3.5683e-21)
(1.27889 0.209235 -4.06991e-21)
(1.23114 0.220176 -1.89508e-21)
(1.1838 0.22785 -6.77362e-21)
(1.13632 0.231249 0)
(1.08948 0.229208 1.00372e-20)
(1.0511 0.22213 9.99325e-21)
(1.0281 0.213998 2.97171e-21)
(1.01995 0.207587 1.09116e-20)
(0.993069 0.196237 1.54256e-20)
(0.863327 0.164056 0)
(0.582074 0.106613 2.17367e-20)
(0.280864 0.0497726 3.11648e-20)
(0.0904704 0.0159831 3.46734e-20)
(0.00688616 0.00204778 -3.97694e-20)
(-0.00590489 -0.00047313 -7.58873e-22)
(0.288734 0.0433205 0)
(1.14093 0.171314 1.04596e-21)
(1.32913 0.216295 0)
(1.37354 0.236927 -4.45634e-21)
(1.34734 0.253815 0)
(1.29376 0.263743 -7.86221e-21)
(1.24046 0.271009 3.82759e-21)
(1.18766 0.275246 -1.3489e-20)
(1.13499 0.275332 -3.30833e-22)
(1.08341 0.270041 5.13957e-21)
(1.04145 0.260251 2.18574e-20)
(1.01615 0.250375 -2.50881e-23)
(1.00427 0.242209 -7.89804e-21)
(0.96078 0.225862 -1.44041e-20)
(0.790725 0.180576 1.70746e-20)
(0.484889 0.108401 -3.02092e-20)
(0.209438 0.0462888 -3.97548e-21)
(0.0524362 0.0126401 0)
(-0.00856396 -0.000328595 -3.38224e-24)
(-0.0081021 -0.00113575 0)
(0.282271 0.0582402 1.1708e-20)
(1.16988 0.232054 -5.97429e-21)
(1.35515 0.282742 -4.93589e-21)
(1.39384 0.303706 2.03939e-21)
(1.3614 0.316491 -3.42418e-21)
(1.30346 0.321836 1.62821e-20)
(1.24566 0.324668 7.88902e-21)
(1.18824 0.324723 0)
(1.13108 0.320831 -2.54253e-20)
(1.07537 0.311729 0)
(1.03032 0.298859 -1.13535e-20)
(1.00306 0.287029 -1.41367e-20)
(0.987106 0.276494 -8.53936e-21)
(0.92743 0.25403 -1.04032e-20)
(0.726978 0.195033 0)
(0.414593 0.110379 0)
(0.16336 0.0441864 -2.57079e-20)
(0.0281024 0.00955271 5.07208e-21)
(-0.0187447 -0.0029287 -2.99111e-21)
(-0.00958924 -0.00186229 -3.54312e-21)
(0.274235 0.0712525 -2.9793e-21)
(1.18335 0.292671 0)
(1.3701 0.350151 9.11039e-21)
(1.4055 0.371671 5.46242e-21)
(1.3688 0.380451 7.96809e-21)
(1.30775 0.38118 0)
(1.24654 0.37942 7.56796e-21)
(1.18543 0.375021 1.46732e-20)
(1.12457 0.366806 1.28851e-20)
(1.06538 0.353538 2.38543e-20)
(1.01774 0.337312 0)
(0.988756 0.323301 -3.02177e-20)
(0.968656 0.310002 -1.82576e-20)
(0.894666 0.280543 -1.08079e-20)
(0.673041 0.208415 6.62586e-20)
(0.364079 0.113105 7.84859e-21)
(0.132331 0.0428536 3.69666e-20)
(0.010648 0.00634412 -1.74718e-19)
(-0.026818 -0.00586205 1.03478e-19)
(-0.0108878 -0.00266532 -1.26314e-19)
(0.266199 0.0828637 7.23692e-22)
(1.18672 0.351143 4.64425e-22)
(1.37686 0.416535 -7.56079e-22)
(1.41023 0.438932 -4.84056e-21)
(1.37052 0.44394 -6.29764e-21)
(1.30717 0.440192 3.56537e-22)
(1.24334 0.433931 -8.16611e-21)
(1.17932 0.425077 1.49662e-20)
(1.11544 0.412441 -2.75314e-20)
(1.05336 0.39484 0)
(1.00356 0.375069 -1.36264e-20)
(0.973127 0.358664 -3.01832e-22)
(0.949123 0.342319 -1.98845e-20)
(0.863194 0.305429 0)
(0.628165 0.221027 -1.42654e-20)
(0.327268 0.116568 -3.37393e-20)
(0.109841 0.0419608 8.96593e-20)
(-0.00329327 0.00290521 -8.82775e-20)
(-0.0340317 -0.00916519 1.25482e-19)
(-0.0121552 -0.00355795 -1.32037e-19)
(0.259055 0.0934398 -1.15466e-22)
(1.18353 0.406704 4.93612e-22)
(1.37761 0.48082 -9.35247e-22)
(1.40949 0.504362 1.60343e-21)
(1.36761 0.505931 -3.07048e-21)
(1.30256 0.497934 0)
(1.23666 0.487357 -7.4065e-21)
(1.17028 0.474172 -1.55483e-20)
(1.10389 0.457146 -1.42044e-20)
(1.03938 0.435153 0)
(0.9878 0.411689 -1.39202e-20)
(0.956197 0.392699 -1.73308e-20)
(0.928774 0.373069 2.14104e-20)
(0.833402 0.328642 -1.30333e-20)
(0.591103 0.232984 -6.15604e-20)
(0.299918 0.120567 3.63913e-20)
(0.0926404 0.0412049 1.07454e-20)
(-0.015382 -0.000932975 0)
(-0.0411808 -0.0129592 -1.2013e-19)
(-0.0135807 -0.0045907 -4.45238e-21)
(0.253007 0.103329 8.38925e-22)
(1.1761 0.459145 -1.14524e-21)
(1.37385 0.542443 1.87091e-22)
(1.4045 0.567298 6.06768e-21)
(1.36101 0.565785 -1.06324e-20)
(1.29469 0.55385 1.41385e-20)
(1.22716 0.53921 1.58686e-20)
(1.15881 0.521878 -2.4735e-20)
(1.09026 0.500566 8.8259e-21)
(1.02364 0.474162 -5.77538e-20)
(0.970565 0.446887 -1.57472e-20)
(0.938038 0.42508 0)
(0.907742 0.401912 2.30878e-20)
(0.805324 0.350024 2.76358e-20)
(0.560444 0.244223 3.30018e-20)
(0.279212 0.124705 -3.91716e-20)
(0.0790796 0.0402213 -1.15616e-20)
(-0.026141 -0.00531024 1.36228e-20)
(-0.0484731 -0.0173516 0)
(-0.0152791 -0.00582397 -9.57736e-21)
(0.24799 0.112603 -1.40365e-20)
(1.1662 0.50851 7.43724e-21)
(1.36689 0.601347 2.00025e-22)
(1.39628 0.6274 3.16315e-21)
(1.35155 0.623128 -4.37058e-21)
(1.2843 0.607582 -8.51162e-22)
(1.21544 0.589194 -1.73514e-20)
(1.14541 0.567954 -8.94296e-21)
(1.07495 0.542503 -2.45514e-20)
(1.00641 0.511718 4.39604e-23)
(0.952019 0.480504 -4.89285e-20)
(0.91874 0.455647 4.15336e-20)
(0.886094 0.428673 -2.52085e-20)
(0.778754 0.369444 3.02113e-20)
(0.53478 0.254531 0)
(0.263282 0.128551 -2.11018e-20)
(0.0684564 0.038766 2.89058e-23)
(-0.0353379 -0.0102156 -5.87919e-20)
(-0.0555272 -0.0222884 -8.6871e-21)
(-0.0171869 -0.00727058 0)
(0.243979 0.121537 0)
(1.1549 0.555039 8.70691e-21)
(1.35759 0.657595 2.88034e-21)
(1.38564 0.684516 -2.36517e-21)
(1.33993 0.677767 -6.0342e-21)
(1.27197 0.658946 0)
(1.20203 0.637132 -7.64294e-21)
(1.13053 0.612263 -2.29925e-22)
(1.05834 0.582872 5.25099e-20)
(0.987997 0.547783 -7.87412e-21)
(0.932328 0.512515 -3.53092e-20)
(0.898358 0.484362 2.1525e-20)
(0.863777 0.453312 -4.04768e-22)
(0.75329 0.386865 3.20891e-20)
(0.512742 0.263753 1.9404e-20)
(0.250676 0.131777 -4.53247e-20)
(0.0604356 0.0368299 5.35148e-20)
(-0.0424957 -0.0153825 1.58399e-20)
(-0.0616514 -0.0274792 6.55917e-20)
(-0.0191118 -0.00886793 -1.77473e-19)
(0.240895 0.130292 -4.92076e-21)
(1.143 0.598908 6.3802e-21)
(1.34663 0.710817 -4.13427e-21)
(1.37326 0.738608 8.14174e-22)
(1.32675 0.729622 0)
(1.25825 0.707847 -5.90547e-21)
(1.18739 0.682936 2.59352e-20)
(1.11458 0.654742 1.94917e-20)
(1.04075 0.621649 0)
(0.968625 0.582376 -1.13655e-19)
(0.911634 0.542967 9.54516e-20)
(0.87694 0.511285 0)
(0.840696 0.475899 2.92901e-20)
(0.728488 0.402356 -3.50912e-22)
(0.493012 0.271885 -6.22999e-20)
(0.240209 0.134345 2.43563e-20)
(0.0545636 0.0346779 0)
(-0.047255 -0.020365 8.52488e-20)
(-0.0661903 -0.0324946 0)
(-0.0208033 -0.0104982 -8.36632e-20)
(0.238661 0.138884 5.95209e-21)
(1.13103 0.640361 8.51051e-21)
(1.33449 0.761091 -4.03528e-21)
(1.35967 0.789705 0)
(1.31248 0.778699 -4.3437e-21)
(1.24358 0.754275 0)
(1.17193 0.726578 -2.52255e-20)
(1.09792 0.695368 -8.89382e-21)
(1.02251 0.658864 9.20871e-21)
(0.948534 0.615562 -5.62794e-20)
(0.890079 0.571971 9.85431e-21)
(0.854553 0.536525 0)
(0.816839 0.496587 -6.25982e-20)
(0.703753 0.416057 2.98989e-22)
(0.474638 0.278837 0)
(0.231027 0.136373 5.6295e-23)
(0.0503513 0.0325093 7.76939e-20)
(-0.0497491 -0.0247695 -7.3489e-20)
(-0.0688388 -0.036882 2.17612e-20)
(-0.0220627 -0.0120049 0)
(0.23694 0.147287 0)
(1.11923 0.6796 1.03821e-20)
(1.32163 0.808542 6.25752e-21)
(1.34531 0.837885 -5.3257e-22)
(1.29754 0.825048 -8.2983e-22)
(1.22832 0.798257 -1.33483e-20)
(1.15598 0.768076 9.6004e-21)
(1.08085 0.734159 -1.06776e-20)
(1.00388 0.694551 4.13671e-20)
(0.927944 0.647447 -9.02818e-20)
(0.867803 0.599661 -8.75137e-22)
(0.831272 0.560223 -2.74668e-20)
(0.792178 0.515508 1.01674e-19)
(0.678784 0.428163 -4.17751e-22)
(0.456863 0.28472 -4.83452e-20)
(0.222482 0.137903 -8.52524e-20)
(0.0474009 0.0306048 0)
(-0.0503107 -0.0283372 0)
(-0.0696537 -0.0404226 2.34723e-20)
(-0.0227755 -0.013278 -1.3933e-20)
(0.235893 0.155688 8.48309e-21)
(1.1078 0.716639 -2.36513e-20)
(1.30839 0.853282 -6.70536e-21)
(1.33052 0.883237 0)
(1.28224 0.86874 -3.08627e-22)
(1.21277 0.839842 -1.15696e-20)
(1.13984 0.807469 2.27972e-20)
(1.06365 0.771151 4.17229e-20)
(0.985113 0.728765 5.38361e-20)
(0.907084 0.678145 -7.40078e-20)
(0.844968 0.626205 -8.27429e-20)
(0.807189 0.582537 7.36804e-20)
(0.766783 0.532754 0)
(0.653574 0.438648 -2.22155e-20)
(0.43919 0.28948 -5.2148e-20)
(0.214122 0.138955 -6.13602e-20)
(0.0451841 0.0290364 -7.23118e-20)
(-0.0495036 -0.0309814 2.14225e-20)
(-0.0689025 -0.0430184 -1.26361e-20)
(-0.0229638 -0.0142604 6.1135e-23)
(0.235105 0.163908 0)
(1.09711 0.751587 0)
(1.29502 0.895425 5.07971e-22)
(1.31556 0.925866 0)
(1.26684 0.909875 5.9964e-23)
(1.19719 0.879111 7.31843e-21)
(1.12372 0.844807 0)
(1.04655 0.806391 4.89862e-21)
(0.966441 0.761561 9.01632e-20)
(0.886171 0.70776 -1.70838e-19)
(0.82174 0.651794 0)
(0.782363 0.603633 -4.77701e-20)
(0.740618 0.548349 -5.22958e-22)
(0.628088 0.447392 -3.12776e-22)
(0.421476 0.292961 5.62295e-20)
(0.205818 0.139436 5.15609e-23)
(0.0434172 0.0278413 -1.55954e-19)
(-0.0479083 -0.032691 4.61211e-20)
(-0.0670825 -0.0446471 1.369e-20)
(-0.022691 -0.0149214 0)
(0.234566 0.171903 -3.43281e-20)
(1.08691 0.784829 -1.61442e-20)
(1.28162 0.935059 -2.03356e-20)
(1.30063 0.965884 1.81568e-20)
(1.25155 0.948536 -2.90942e-21)
(1.18177 0.91614 0)
(1.10784 0.880155 1.36681e-20)
(1.02973 0.839927 -1.10619e-20)
(0.94806 0.792997 8.0216e-22)
(0.865412 0.736398 1.26808e-20)
(0.798278 0.676614 1.08338e-19)
(0.756856 0.623723 -1.68285e-20)
(0.713638 0.562315 -6.33216e-20)
(0.602244 0.454163 -2.60224e-20)
(0.403918 0.294786 3.03813e-20)
(0.197867 0.139169 6.76897e-23)
(0.0422006 0.027101 4.20634e-20)
(-0.0459691 -0.0333727 -9.93826e-20)
(-0.0649443 -0.0454802 1.18002e-19)
(-0.022199 -0.0153521 1.74165e-20)
(0.234079 0.179664 1.30764e-20)
(1.07722 0.816424 -9.10652e-21)
(1.26838 0.972318 1.32032e-21)
(1.28591 1.00342 1.20478e-20)
(1.23652 0.984842 2.00223e-21)
(1.16666 0.951011 -1.24525e-20)
(1.09235 0.913578 3.76795e-21)
(1.01335 0.871801 -4.62188e-20)
(0.930146 0.823102 -1.00284e-19)
(0.844996 0.764123 -1.02797e-19)
(0.774767 0.700842 0)
(0.730718 0.643051 -7.45382e-20)
(0.685702 0.574712 9.17562e-20)
(0.575855 0.458502 0)
(0.386501 0.294152 -6.5394e-20)
(0.191201 0.137403 3.85729e-20)
(0.0427002 0.0267738 -4.53732e-20)
(-0.0434072 -0.0326846 -5.36211e-20)
(-0.0637225 -0.0457756 -9.51883e-20)
(-0.0220778 -0.0158488 -7.51986e-20)
(0.233923 0.18728 -1.48574e-20)
(1.0679 0.846388 9.75832e-21)
(1.25539 1.00728 2.18204e-20)
(1.27151 1.03858 1.79033e-20)
(1.22188 1.01889 -3.33003e-21)
(1.15198 0.983818 -6.11634e-21)
(1.07735 0.945135 1.28508e-20)
(0.997547 0.902068 -4.75886e-20)
(0.912829 0.85192 -5.9825e-20)
(0.8251 0.790997 1.08548e-19)
(0.75138 0.724632 2.41027e-19)
(0.704013 0.661897 0)
(0.656586 0.585725 0)
(0.548371 0.460054 -3.00706e-20)
(0.36912 0.289816 0)
(0.187116 0.132362 8.29544e-20)
(0.0478416 0.0250777 9.76636e-20)
(-0.0371832 -0.0320541 0)
(-0.0628772 -0.0465751 0)
(-0.0233819 -0.0171715 8.10474e-20)
(0.233628 0.194471 1.69465e-20)
(1.059 0.87474 1.33731e-20)
(1.24275 1.04007 1.58869e-20)
(1.25752 1.07149 -1.7525e-20)
(1.20771 1.0508 -4.97932e-21)
(1.13782 1.01464 5.29234e-21)
(1.06295 0.97489 -1.76812e-20)
(0.98241 0.930765 -2.61898e-22)
(0.896234 0.879471 -1.06175e-21)
(0.805876 0.817046 -6.3865e-22)
(0.728317 0.748111 1.24897e-19)
(0.676839 0.680541 0)
(0.626075 0.595705 9.43286e-20)
(0.519006 0.458737 6.49391e-20)
(0.350675 0.280489 1.5378e-19)
(0.185129 0.120554 4.49377e-20)
(0.0610665 0.0142456 -5.26595e-20)
(-0.0165086 -0.0411653 -3.10919e-20)
(-0.048603 -0.0508679 0)
(-0.0234833 -0.0189005 8.75739e-20)
(0.233699 0.201699 -3.84669e-20)
(1.05047 0.901587 0)
(1.23046 1.07075 1.88552e-20)
(1.24397 1.10225 -1.49577e-20)
(1.19408 1.08067 7.51982e-21)
(1.12424 1.04357 -3.83166e-21)
(1.04921 1.0029 3.38327e-20)
(0.968009 0.957929 -3.84217e-21)
(0.880442 0.905771 0)
(0.787461 0.842263 -1.21352e-19)
(0.705777 0.771361 -2.74182e-19)
(0.64935 0.699269 1.12672e-20)
(0.594056 0.605131 1.32049e-19)
(0.486898 0.455048 0)
(0.328792 0.265958 1.04662e-19)
(0.180689 0.0975492 0)
(0.0776534 -0.018559 0)
(0.0256991 -0.0829432 -3.36473e-20)
(0.0186724 -0.0710779 0)
(0.0167479 -0.00472162 2.35926e-20)
(0.233464 0.208389 -4.30589e-20)
(1.0423 0.927251 0)
(1.21851 1.09952 3.16239e-20)
(1.23083 1.1311 0)
(1.18097 1.10877 -4.81939e-21)
(1.11119 1.07089 0)
(1.03608 1.02947 1.52116e-21)
(0.954258 0.983889 6.6916e-21)
(0.865343 0.931172 7.66443e-21)
(0.769693 0.867009 -1.34087e-19)
(0.683579 0.79483 8.27761e-21)
(0.621233 0.718812 9.15277e-20)
(0.559906 0.614916 1.29763e-19)
(0.450674 0.44979 1.73373e-20)
(0.300371 0.247505 8.28463e-20)
(0.165579 0.0643608 0)
(0.0788449 -0.0748264 1.11345e-19)
(0.045944 -0.110188 -6.53846e-20)
(0.0221113 0.0316139 7.65889e-20)
(-0.0390345 0.462426 -9.0975e-20)
(0.233276 0.214924 3.57297e-20)
(1.03426 0.951558 5.36934e-20)
(1.20684 1.12671 0)
(1.21795 1.15848 9.91808e-22)
(1.16817 1.13568 1.47704e-20)
(1.09838 1.09728 -5.91175e-22)
(1.02322 1.0554 1.14052e-20)
(0.94073 1.00957 0)
(0.850386 0.956743 5.06134e-20)
(0.751869 0.892549 -6.98589e-21)
(0.66075 0.819945 0)
(0.591024 0.740728 0)
(0.521138 0.626072 1.17585e-19)
(0.407094 0.443141 -5.38322e-20)
(0.26166 0.22692 -8.50466e-20)
(0.13395 0.0242592 0)
(0.0490239 -0.0403827 5.68911e-20)
(0.00225089 0.449339 -6.58107e-20)
(0.0275582 1.94689 -3.69057e-20)
(0.0535369 2.83445 -4.53878e-20)
(0.232821 0.220961 -2.69567e-20)
(1.02641 0.974691 -6.91423e-20)
(1.19546 1.15232 1.88851e-20)
(1.20536 1.18428 1.50345e-20)
(1.15575 1.1612 0)
(1.08593 1.12247 -2.55182e-21)
(1.01087 1.08037 1.49245e-20)
(0.927639 1.03455 -3.24674e-21)
(0.835881 0.981988 7.64962e-21)
(0.734426 0.918323 1.28972e-19)
(0.637992 0.846165 1.41728e-19)
(0.559795 0.765144 1.05098e-19)
(0.47847 0.639412 1.19843e-19)
(0.356702 0.435005 -1.28691e-19)
(0.217238 0.209187 -1.30177e-19)
(0.0894072 0.0864265 0)
(0.0333778 0.919449 0)
(0.0786 2.59815 3.17228e-20)
(0.0818845 3.22017 0)
(0.0840662 3.39194 8.26324e-20)
(0.235211 0.226681 0)
(1.01912 0.997057 0)
(1.18406 1.17623 0)
(1.19286 1.20836 4.62044e-21)
(1.14338 1.18509 1.36007e-20)
(1.07365 1.14632 -4.39187e-21)
(0.998955 1.10428 9.39552e-21)
(0.914921 1.0587 -3.1706e-21)
(0.82177 1.00673 6.37151e-20)
(0.717369 0.944166 -1.50875e-21)
(0.615431 0.873308 2.82767e-19)
(0.527964 0.792247 -1.22576e-20)
(0.431871 0.656359 1.47693e-20)
(0.300665 0.424282 1.88523e-20)
(0.160174 0.224949 -8.50621e-22)
(0.0777149 1.03707 3.43674e-22)
(0.112519 2.78174 -1.71744e-19)
(0.116942 3.30319 -6.44595e-20)
(0.109737 3.42273 3.39229e-20)
(0.101038 3.44204 -3.84096e-20)
(0.158109 0.172045 1.65261e-20)
(1.00741 1.02139 0)
(1.17242 1.19864 -3.89511e-20)
(1.18088 1.23116 -4.13702e-20)
(1.13151 1.20783 3.31074e-20)
(1.06222 1.16932 5.60336e-21)
(0.987259 1.12717 -9.43526e-21)
(0.90261 1.08207 3.45792e-20)
(0.808138 1.03105 -5.25222e-20)
(0.700945 0.970199 0)
(0.593428 0.901469 1.40629e-19)
(0.496124 0.821922 -8.71099e-20)
(0.38579 0.686492 0)
(0.236618 0.417263 1.86104e-20)
(0.112973 0.703182 4.34321e-20)
(0.127195 2.5945 -4.852e-20)
(0.172644 3.32636 5.48332e-20)
(0.157707 3.42969 2.9458e-20)
(0.131933 3.44863 3.31821e-20)
(0.114078 3.45764 5.2932e-20)
(0.269489 0.263728 -3.18204e-20)
(0.988602 1.03058 0)
(1.15307 1.2241 4.21425e-20)
(1.16543 1.26229 4.58196e-20)
(1.11328 1.24135 -3.76974e-20)
(1.0434 1.20315 -1.03703e-20)
(0.967211 1.16253 6.98563e-21)
(0.881843 1.11863 2.75917e-21)
(0.785599 1.06975 5.02402e-20)
(0.674688 1.01291 1.13635e-19)
(0.559741 0.950193 7.93819e-21)
(0.446575 0.870597 7.87381e-20)
(0.298373 0.708062 1.42942e-20)
(0.19439 0.850825 -1.80919e-20)
(0.200799 2.48118 -4.00655e-20)
(0.251765 3.32705 3.92505e-20)
(0.234528 3.45104 -4.29291e-20)
(0.201428 3.47076 -2.45617e-20)
(0.169135 3.4958 -2.23061e-20)
(0.124713 3.49202 -3.2119e-21)
(0.259355 0.262407 0)
(0.98503 1.05305 1.23888e-20)
(1.14372 1.24753 -8.7149e-21)
(1.15378 1.28583 -5.50631e-21)
(1.10162 1.26463 -2.62343e-20)
(1.0317 1.22659 1.10696e-20)
(0.955114 1.18614 -2.93299e-21)
(0.869345 1.14306 2.46313e-21)
(0.772185 1.09565 -5.24885e-20)
(0.659185 1.04176 -2.59321e-21)
(0.539786 0.983888 -2.57552e-19)
(0.417712 0.906096 1.13469e-20)
(0.274547 0.781784 -1.36253e-20)
(0.230681 1.52501 -1.67164e-20)
(0.295188 3.14516 3.65179e-21)
(0.306379 3.45081 6.91014e-23)
(0.266059 3.49784 6.45375e-20)
(0.233017 3.52308 3.27375e-20)
(0.187873 3.54395 -1.07526e-20)
(0.13871 3.54162 -1.62427e-20)
(0.245181 0.260166 3.17944e-20)
(0.980504 1.07802 8.39842e-20)
(1.13397 1.27305 -2.48097e-20)
(1.14174 1.31099 -2.06376e-20)
(1.08947 1.28938 0)
(1.0196 1.25135 2.17586e-20)
(0.942903 1.21115 -1.21587e-21)
(0.856991 1.16886 2.14057e-21)
(0.759242 1.12308 -5.91302e-21)
(0.644734 1.07254 -1.03914e-19)
(0.521921 1.02024 -1.19567e-19)
(0.392149 0.943082 -9.3181e-20)
(0.275305 0.937543 -1.03121e-19)
(0.298335 2.32934 1.05911e-19)
(0.37771 3.37925 8.90971e-20)
(0.346964 3.50445 0)
(0.300231 3.54367 0)
(0.264149 3.57849 -8.65054e-21)
(0.221874 3.62344 0)
(0.152851 3.61015 -1.34509e-20)
(0.235202 0.261853 -4.74437e-20)
(0.974034 1.10379 -7.11869e-20)
(1.12282 1.29978 0)
(1.12841 1.33698 1.20496e-21)
(1.07605 1.3148 -2.88915e-20)
(1.0064 1.2767 3.63107e-20)
(0.929916 1.23679 9.53688e-22)
(0.844095 1.19525 1.07702e-21)
(0.746024 1.15111 -3.70351e-20)
(0.63049 1.10401 5.15929e-21)
(0.505304 1.05744 0)
(0.368144 0.983277 0)
(0.297035 1.24777 -9.40624e-20)
(0.380358 2.98338 3.82065e-20)