/*--------------------------------*- C++ -*----------------------------------*\
  =========                 |
  \\      /  F ield         | OpenFOAM: The Open Source CFD Toolbox
   \\    /   O peration     | Website:  https://openfoam.org
    \\  /    A nd           | Version:  6
     \\/     M anipulation  |
\*---------------------------------------------------------------------------*/
FoamFile
{
    version     2.0;
    format      ascii;
    class       volScalarField;
    location    "30.3";
    object      p;
}
// * * * * * * * * * * * * * * * * * * * * * * * * * * * * * * * * * * * * * //

dimensions      [0 2 -2 0 0 0 0];

internalField   nonuniform List<scalar> 
8800
(
1.51543
1.46611
1.42814
1.40005
1.37987
1.36524
1.35459
1.34698
1.342
1.33979
1.34099
1.34518
1.35185
1.36119
1.37386
1.39114
1.41499
1.44807
1.49099
1.5435
1.34994
1.35628
1.36542
1.36896
1.36633
1.36022
1.35324
1.34694
1.34205
1.33905
1.33866
1.34111
1.34561
1.35163
1.35865
1.36563
1.37047
1.37031
1.36362
1.35471
1.3235
1.32973
1.33422
1.33808
1.341
1.34191
1.34078
1.33857
1.33647
1.33547
1.33632
1.3386
1.34136
1.34353
1.34397
1.34212
1.33871
1.33467
1.32987
1.32615
1.31926
1.32203
1.32462
1.32677
1.32848
1.33001
1.33106
1.33133
1.33108
1.33099
1.3316
1.33256
1.33315
1.33287
1.3318
1.33037
1.32864
1.3263
1.32386
1.32229
1.3143
1.31572
1.31755
1.31962
1.3213
1.32255
1.32358
1.32446
1.32511
1.32562
1.3261
1.32637
1.32622
1.32571
1.32493
1.32372
1.32199
1.32005
1.31867
1.31786
1.30943
1.31033
1.31157
1.31318
1.31485
1.31633
1.31754
1.31854
1.31944
1.32023
1.32073
1.32085
1.32065
1.32011
1.31917
1.31786
1.31641
1.31507
1.31422
1.3137
1.30468
1.30533
1.30629
1.3076
1.30903
1.3105
1.3119
1.31314
1.31422
1.31515
1.31577
1.31594
1.31569
1.31504
1.31407
1.31297
1.31185
1.31085
1.31024
1.30986
1.30006
1.30056
1.30135
1.30249
1.30377
1.30516
1.30661
1.30803
1.30935
1.31051
1.31125
1.31145
1.31118
1.31055
1.30973
1.30884
1.30793
1.30715
1.30668
1.30639
1.29552
1.29592
1.29659
1.29763
1.29887
1.30021
1.30166
1.30319
1.30468
1.30605
1.30699
1.30732
1.30715
1.30667
1.30602
1.30528
1.30452
1.30389
1.30353
1.3033
1.29102
1.29134
1.29193
1.2929
1.29409
1.2954
1.29685
1.29841
1.30006
1.30167
1.30286
1.3034
1.30346
1.30321
1.30275
1.30218
1.30156
1.30106
1.30078
1.3006
1.28649
1.28674
1.28727
1.2882
1.28938
1.29072
1.29222
1.29389
1.29571
1.29758
1.29909
1.29994
1.30026
1.30023
1.29995
1.29953
1.29905
1.29867
1.29845
1.2983
1.28187
1.28208
1.28256
1.28349
1.28471
1.28614
1.28779
1.28965
1.2917
1.2939
1.2958
1.29704
1.29766
1.29782
1.29769
1.29741
1.29703
1.29674
1.29658
1.29646
1.27715
1.27731
1.27778
1.27873
1.28003
1.28155
1.28332
1.28543
1.28788
1.29055
1.29294
1.29452
1.29544
1.29589
1.296
1.29586
1.2956
1.29538
1.29527
1.29518
1.27225
1.27237
1.27282
1.27378
1.27512
1.27674
1.27867
1.28097
1.28372
1.2869
1.2899
1.29211
1.29354
1.29439
1.29479
1.2949
1.29479
1.29468
1.29462
1.29455
1.26712
1.2672
1.26764
1.26865
1.27012
1.27193
1.27415
1.27688
1.28018
1.28405
1.28779
1.29063
1.29252
1.2937
1.29439
1.2947
1.29476
1.29475
1.29475
1.29469
1.2617
1.26175
1.26217
1.26319
1.26475
1.26673
1.2692
1.27233
1.27626
1.28099
1.28565
1.28929
1.29187
1.29359
1.29471
1.29536
1.29569
1.29584
1.29589
1.29584
1.25564
1.25569
1.25611
1.25716
1.25883
1.26103
1.26389
1.26759
1.27228
1.27803
1.28387
1.28852
1.29188
1.29426
1.29592
1.29698
1.29762
1.29794
1.29803
1.29798
1.24864
1.24868
1.24914
1.25026
1.25213
1.25468
1.25807
1.26254
1.2683
1.27541
1.28262
1.2884
1.29267
1.29577
1.29799
1.29952
1.3005
1.301
1.30112
1.30107
1.24018
1.24022
1.24075
1.24204
1.24421
1.24724
1.25133
1.25676
1.2638
1.27255
1.2815
1.28873
1.29412
1.29807
1.30097
1.30302
1.30435
1.30501
1.30517
1.3051
1.22987
1.22992
1.23057
1.23214
1.2348
1.23855
1.24362
1.25038
1.25912
1.26996
1.28098
1.28988
1.29652
1.30143
1.30504
1.30761
1.30929
1.31011
1.31031
1.31023
1.21719
1.21724
1.21807
1.22006
1.2234
1.22812
1.2345
1.24298
1.25389
1.2673
1.28085
1.29174
1.29986
1.30588
1.31032
1.31351
1.31557
1.31655
1.31678
1.31668
1.20137
1.20145
1.20252
1.20512
1.20943
1.2155
1.22369
1.23448
1.24819
1.2648
1.28135
1.29454
1.30436
1.31163
1.31704
1.32092
1.32341
1.32456
1.32483
1.32471
1.18126
1.18137
1.18283
1.18633
1.1921
1.20011
1.21083
1.22471
1.242
1.26252
1.28258
1.29841
1.31015
1.31886
1.32539
1.33006
1.33301
1.33434
1.33464
1.3345
1.15511
1.15527
1.15736
1.16233
1.17037
1.18133
1.19564
1.21368
1.23548
1.26065
1.28474
1.30352
1.31742
1.32776
1.33553
1.34109
1.34452
1.34605
1.34638
1.34621
1.12007
1.12039
1.12374
1.13133
1.14315
1.15866
1.1781
1.2016
1.22893
1.25946
1.28801
1.31001
1.32628
1.33844
1.34758
1.3541
1.35806
1.35979
1.36013
1.35992
1.07056
1.0718
1.07847
1.09141
1.1097
1.13214
1.15863
1.18898
1.22277
1.25926
1.29259
1.31801
1.33677
1.35085
1.36144
1.36901
1.37359
1.37552
1.37583
1.37557
0.998306
1.00599
1.02124
1.04387
1.07167
1.10318
1.13817
1.17638
1.21737
1.26043
1.29905
1.32828
1.34989
1.36623
1.37865
1.3876
1.39306
1.39539
1.39581
1.39561
0.921874
0.938243
0.962902
0.995827
1.0335
1.07416
1.11772
1.16401
1.21271
1.2632
1.30825
1.34243
1.36786
1.38718
1.40205
1.41298
1.41975
1.42257
1.42321
1.42318
0.856996
0.877016
0.909471
0.951008
0.997262
1.04649
1.09833
1.15255
1.20877
1.26643
1.31754
1.3562
1.385
1.40692
1.42377
1.43617
1.44398
1.44739
1.44798
1.44802
0.80441
0.826627
0.864185
0.911828
0.964788
1.02111
1.08022
1.14168
1.20493
1.26931
1.32598
1.36864
1.40023
1.42421
1.44257
1.45626
1.46516
1.46889
1.4696
1.46972
0.760843
0.784319
0.825519
0.877904
0.936194
0.998343
1.06362
1.13142
1.20102
1.27155
1.33325
1.37939
1.41333
1.43896
1.45857
1.47311
1.48261
1.48682
1.48778
1.48795
0.723506
0.747757
0.791669
0.847901
0.910669
0.97776
1.04835
1.12173
1.19701
1.2731
1.33935
1.38854
1.42448
1.45141
1.4719
1.48705
1.49697
1.50159
1.5028
1.50297
0.690413
0.715206
0.761241
0.820683
0.887284
0.958688
1.03398
1.11237
1.19282
1.274
1.34443
1.39638
1.43403
1.46202
1.48313
1.49868
1.50881
1.51369
1.51501
1.51516
0.66017
0.685435
0.733254
0.795446
0.86537
0.940559
1.02007
1.10303
1.18826
1.27424
1.34862
1.40318
1.44239
1.47124
1.4928
1.50855
1.51878
1.52376
1.52514
1.52525
0.631876
0.657588
0.706964
0.771573
0.844416
0.922964
1.00628
1.09343
1.18315
1.27373
1.35199
1.4091
1.44983
1.47951
1.50147
1.51739
1.52766
1.5327
1.53414
1.53422
0.604825
0.631019
0.681823
0.748624
0.824066
0.905626
0.992386
1.08339
1.17733
1.27238
1.3545
1.41425
1.45656
1.48716
1.50959
1.5257
1.53599
1.54094
1.5424
1.54252
0.57875
0.605419
0.657532
0.726291
0.804064
0.888338
0.97823
1.07279
1.1707
1.27009
1.35615
1.41869
1.46279
1.49444
1.51743
1.53379
1.54414
1.54902
1.55038
1.55044
0.553291
0.580531
0.633851
0.704384
0.78426
0.870981
0.963723
1.06155
1.16321
1.26683
1.35694
1.42252
1.46862
1.50149
1.52518
1.54187
1.55228
1.55708
1.5583
1.55829
0.528382
0.556203
0.61065
0.682811
0.764579
0.853505
0.948826
1.04966
1.15482
1.26257
1.35684
1.4257
1.47406
1.50837
1.53289
1.54997
1.56044
1.5651
1.56619
1.56608
0.503951
0.532351
0.587886
0.661533
0.744993
0.835898
0.933544
1.03711
1.14552
1.25725
1.35572
1.42813
1.47909
1.5151
1.54059
1.55811
1.56858
1.57304
1.57394
1.57376
0.479951
0.508968
0.565565
0.640545
0.725512
0.818194
0.917917
1.02394
1.13534
1.25081
1.35349
1.42972
1.48366
1.52168
1.54831
1.56626
1.57665
1.58079
1.5815
1.58126
0.456367
0.486075
0.543683
0.619877
0.706196
0.800444
0.902008
1.01022
1.1243
1.24325
1.35008
1.43032
1.48765
1.52813
1.55612
1.57445
1.58455
1.58825
1.58872
1.58843
0.433379
0.463726
0.52229
0.599572
0.687097
0.782727
0.88589
0.996018
1.11247
1.2346
1.34541
1.42977
1.49087
1.53437
1.56416
1.58285
1.59231
1.59529
1.59548
1.59516
0.411031
0.441983
0.501438
0.579699
0.668286
0.765118
0.869667
0.981435
1.09996
1.2249
1.33942
1.42792
1.49308
1.54025
1.57262
1.59189
1.60018
1.60189
1.60165
1.60134
0.38928
0.420891
0.481167
0.560309
0.64984
0.747709
0.853438
0.966586
1.08686
1.21422
1.33208
1.42462
1.49398
1.54539
1.58145
1.60231
1.60924
1.60853
1.60716
1.60698
0.368291
0.400487
0.461538
0.541475
0.631825
0.730592
0.837308
0.951587
1.0733
1.20266
1.3234
1.41975
1.4933
1.54918
1.59011
1.61458
1.62165
1.61793
1.61311
1.61081
0.347981
0.38077
0.44255
0.523171
0.61421
0.713721
0.821218
0.936374
1.0592
1.19018
1.31323
1.41305
1.49071
1.55091
1.59733
1.62789
1.6388
1.63536
1.62333
1.62022
0.328436
0.361668
0.424067
0.505202
0.596696
0.696744
0.804738
0.920433
1.04398
1.17608
1.30085
1.40365
1.48554
1.5495
1.60046
1.6379
1.65386
1.64768
1.63152
1.62346
0.309798
0.343222
0.406261
0.487781
0.579524
0.679972
0.788092
0.904106
1.02797
1.16065
1.28643
1.39115
1.47729
1.54397
1.59469
1.63182
1.65162
1.6331
1.5728
1.54501
0.292177
0.324701
0.389544
0.471434
0.563347
0.663885
0.771544
0.887662
1.01144
1.1441
1.27009
1.37518
1.4653
1.5341
1.57672
1.60469
1.60805
1.56355
1.50048
1.46135
0.247967
0.30704
0.373954
0.455535
0.547406
0.647592
0.75522
0.870987
0.994219
1.12611
1.25151
1.35545
1.44641
1.52031
1.54345
1.54595
1.51509
1.45846
1.39078
1.35336
0.273179
0.291429
0.350689
0.43179
0.523366
0.623215
0.730029
0.844874
0.966756
1.09654
1.21938
1.32001
1.4023
1.47819
1.47557
1.38077
1.29662
1.23854
1.17644
1.209
0.241411
0.273168
0.333179
0.4139
0.505356
0.604793
0.711629
0.825667
0.946291
1.07392
1.19367
1.29038
1.36349
1.40431
1.36287
1.23308
1.12914
1.05919
0.978118
1.03013
0.216711
0.250939
0.312784
0.393711
0.485096
0.584402
0.691023
0.804117
0.923177
1.04812
1.16381
1.25495
1.31645
1.32265
1.22394
1.07139
0.944583
0.854639
0.75849
0.796717
0.192685
0.228033
0.291291
0.37288
0.464399
0.56356
0.669619
0.781623
0.898922
1.02085
1.13166
1.21634
1.26103
1.23457
1.08099
0.903066
0.741898
0.605943
0.479747
0.502298
0.16898
0.204744
0.268912
0.35109
0.442816
0.541777
0.647146
0.757932
0.873222
0.991788
1.09705
1.17438
1.19938
1.13305
0.940532
0.73888
0.545995
0.386486
0.17168
0.0905819
0.144928
0.180626
0.245332
0.327961
0.41991
0.518722
0.62347
0.733022
0.846207
0.961238
1.06064
1.12899
1.13266
1.01142
0.812159
0.59547
0.394017
0.223951
0.0924107
-0.0434804
0.119505
0.155228
0.22022
0.303115
0.395161
0.493733
0.597766
0.705914
0.816664
0.927695
1.02074
1.078
1.05467
0.893451
0.69173
0.479486
0.29585
0.192109
0.163848
0.149254
0.0925635
0.12829
0.193464
0.276472
0.368439
0.46661
0.569692
0.676126
0.783992
0.890387
0.976613
1.01877
0.972476
0.780295
0.580214
0.387336
0.24685
0.206418
0.195932
0.195545
0.0638294
0.0997013
0.165049
0.248069
0.339819
0.437372
0.539257
0.643631
0.748142
0.849256
0.927876
0.953841
0.880553
0.674746
0.482123
0.313148
0.230656
0.215152
0.214336
0.214531
0.0333428
0.0694507
0.134986
0.217948
0.309327
0.406065
0.506492
0.608457
0.709145
0.804348
0.87426
0.884949
0.772078
0.576855
0.393321
0.259283
0.226066
0.225209
0.223922
0.224287
0.0013765
0.037738
0.103425
0.186233
0.2771
0.372793
0.471472
0.5707
0.667064
0.755775
0.816571
0.807474
0.669177
0.483994
0.317134
0.241528
0.227558
0.228737
0.229354
0.22968
-0.0314549
0.004951
0.0706647
0.153202
0.243391
0.337792
0.434395
0.530579
0.622175
0.703798
0.7559
0.726037
0.571261
0.401133
0.26427
0.220497
0.22431
0.231572
0.235005
0.235635
-0.0646911
-0.0283411
0.0372126
0.119322
0.208626
0.301491
0.395622
0.488435
0.575
0.649008
0.69096
0.643703
0.475244
0.323912
0.226129
0.22254
0.224066
0.226215
0.230948
0.234331
-0.0971945
-0.0612327
0.00384904
0.0852818
0.17343
0.264509
0.355783
0.444725
0.526279
0.592328
0.623629
0.565239
0.381512
0.249507
0.183482
0.179586
0.198303
0.212997
0.218511
0.220826
-0.127713
-0.092527
-0.0283866
0.0520193
0.138651
0.227684
0.315876
0.400164
0.476805
0.535257
0.558112
0.484
0.292752
0.166019
0.152513
0.136098
0.166008
0.19255
0.196622
0.196374
-0.154718
-0.120784
-0.0581378
0.0207761
0.105438
0.192046
0.277189
0.356138
0.427104
0.479609
0.491294
0.404812
0.222478
0.0613866
0.0357078
0.0296079
-0.00083908
0.00694307
0.0263516
0.0396771
-0.175988
-0.144057
-0.0837721
-0.00691467
0.0752675
0.158885
0.241011
0.315074
0.378042
0.425899
0.425316
0.316714
0.177086
0.0399249
-0.0122223
-0.1339
-0.235635
-0.237175
-0.210215
-0.197489
-0.189733
-0.160487
-0.10338
-0.0294166
0.0498654
0.12994
0.208506
0.27962
0.333069
0.372059
0.371955
0.209782
0.113378
0.0835505
0.0655171
-0.132495
-0.242175
-0.234636
-0.234191
-0.234798
-0.193445
-0.167928
-0.115113
-0.0449722
0.0309173
0.107326
0.181544
0.25042
0.299107
0.321069
0.328104
0.118156
-0.0308403
0.0281953
0.0739458
-0.129665
-0.238262
-0.223992
-0.227432
-0.232229
-0.185773
-0.16452
-0.117169
-0.0518835
0.0198166
0.0928232
0.163071
0.228026
0.278898
0.293776
0.264884
0.0299144
-0.306925
-0.593528
-0.844329
-0.999145
-0.917987
-0.634862
-0.446755
-0.437389
-0.164128
-0.147836
-0.108007
-0.0490796
0.017784
0.0871747
0.155275
0.217495
0.268365
0.291935
0.235848
-0.0205711
-0.580263
-1.21042
-1.57095
-1.7158
-1.61872
-1.38543
-1.11866
-1.00579
-0.130988
-0.11982
-0.0881914
-0.036866
0.0250692
0.0910485
0.15801
0.222283
0.274647
0.298296
0.282778
0.0745764
-0.343161
-0.897849
-1.14996
-1.2464
-1.23199
-1.12401
-0.975284
-0.870935
-0.0906657
-0.08404
-0.0613173
-0.0174673
0.0397407
0.103972
0.171667
0.238395
0.306995
0.354316
0.404035
0.374612
0.228922
0.0391206
-0.111236
-0.0122069
0.260935
0.497953
0.667306
0.746441
-0.0496506
-0.0460286
-0.031803
0.00464894
0.0588649
0.122308
0.193944
0.269759
0.348014
0.452107
0.534444
0.711717
0.911666
1.2812
1.74098
2.19918
2.59513
2.84616
2.95855
2.99443
-0.013657
-0.0117089
-0.00374523
0.0256142
0.0771295
0.143671
0.217981
0.305765
0.399423
0.516229
0.66863
0.831441
1.22998
1.77166
2.43008
3.02203
3.45388
3.70757
3.82427
3.85455
0.0211338
0.0217599
0.0245667
0.0447629
0.0924587
0.161114
0.242385
0.331011
0.437177
0.552899
0.689385
0.82956
1.04051
1.53222
2.07622
2.54235
2.89322
3.10678
3.20241
3.23085
0.0494683
0.0505184
0.0510719
0.063536
0.107054
0.177758
0.261514
0.35322
0.45217
0.564476
0.679633
0.794193
0.889486
1.16352
1.5859
1.95657
2.22779
2.38713
2.46118
2.48193
0.0663884
0.0664389
0.065093
0.0758724
0.12225
0.198159
0.283051
0.371699
0.464943
0.566513
0.661703
0.747519
0.817997
0.971917
1.25226
1.51406
1.70166
1.81002
1.85592
1.86592
0.0916088
0.0880626
0.0846101
0.0977408
0.150372
0.22975
0.312726
0.394392
0.477611
0.56693
0.645412
0.708533
0.757647
0.874869
1.06757
1.22922
1.33735
1.39825
1.42408
1.42971
0.169023
0.163692
0.159427
0.172954
0.220655
0.287354
0.355576
0.42494
0.49425
0.567496
0.632505
0.680792
0.71194
0.78616
0.922097
1.02676
1.09292
1.12717
1.14107
1.14284
0.306348
0.302583
0.299506
0.306703
0.333271
0.371038
0.414805
0.462236
0.515169
0.572382
0.622617
0.660742
0.684911
0.732387
0.818057
0.884615
0.926896
0.951281
0.960694
0.961304
0.446623
0.44528
0.442943
0.441625
0.445425
0.455753
0.474665
0.500628
0.53664
0.579308
0.618484
0.651906
0.687257
0.720008
0.773537
0.81189
0.835263
0.848272
0.853532
0.853023
0.54003
0.539568
0.537126
0.530846
0.522989
0.518805
0.521922
0.533451
0.55467
0.585746
0.616705
0.647394
0.687965
0.712889
0.744621
0.765598
0.781187
0.790918
0.794495
0.793499
0.585317
0.584898
0.582501
0.576082
0.566466
0.557956
0.554329
0.557216
0.568814
0.590676
0.612553
0.641152
0.671045
0.68935
0.708845
0.724505
0.737566
0.746889
0.750525
0.74965
0.601776
0.601261
0.599211
0.594313
0.586718
0.578985
0.573683
0.573094
0.577952
0.5918
0.603088
0.620455
0.643398
0.651836
0.666148
0.684354
0.701402
0.713419
0.717972
0.716415
0.605417
0.604883
0.603244
0.599759
0.59472
0.589177
0.584607
0.582986
0.583692
0.590269
0.592788
0.589217
0.590465
0.591512
0.612878
0.637846
0.660967
0.6741
0.679865
0.678502
0.604413
0.603979
0.602779
0.600211
0.596726
0.593036
0.58978
0.588357
0.588979
0.588394
0.581712
0.558987
0.533947
0.535067
0.568082
0.59954
0.622707
0.634511
0.639302
0.63902
0.601008
0.60078
0.600108
0.598363
0.595961
0.593503
0.591666
0.591373
0.594098
0.590783
0.578421
0.551227
0.51203
0.520471
0.557092
0.588235
0.606864
0.616646
0.619339
0.618382
0.594178
0.594179
0.594047
0.59323
0.591872
0.590764
0.590702
0.592599
0.597703
0.601107
0.591729
0.571483
0.54617
0.560798
0.585655
0.607102
0.619071
0.623879
0.625669
0.625462
0.58217
0.582366
0.582682
0.582762
0.582781
0.583519
0.586003
0.591581
0.602144
0.614044
0.616371
0.612808
0.608823
0.622073
0.639455
0.646152
0.650095
0.654019
0.656727
0.656481
0.563533
0.563962
0.564768
0.565719
0.567207
0.570178
0.575969
0.586301
0.604289
0.628387
0.643574
0.658698
0.671008
0.685912
0.688798
0.692643
0.696626
0.701287
0.701299
0.698974
0.536891
0.537558
0.538768
0.540546
0.543426
0.548563
0.557538
0.573089
0.599278
0.635509
0.662015
0.693959
0.726743
0.730658
0.723881
0.724781
0.724658
0.724959
0.724585
0.724254
0.49934
0.500298
0.501982
0.504527
0.508571
0.515276
0.526435
0.545995
0.579344
0.621998
0.656127
0.700189
0.736932
0.740534
0.742224
0.749575
0.758582
0.762668
0.760398
0.759441
0.448005
0.449238
0.451257
0.454302
0.458884
0.46578
0.476623
0.496437
0.532029
0.572048
0.615029
0.667357
0.698622
0.703591
0.731313
0.771878
0.789209
0.793741
0.789131
0.789575
0.381045
0.382357
0.384352
0.387277
0.39106
0.395456
0.401023
0.412458
0.43683
0.460853
0.521964
0.589776
0.628034
0.644763
0.716455
0.782006
0.832365
0.839704
0.833241
0.83236
0.299602
0.300651
0.302045
0.303793
0.304583
0.302196
0.294312
0.281662
0.267537
0.267159
0.360985
0.480728
0.514126
0.56174
0.685587
0.779751
0.839914
0.843208
0.837355
0.834137
0.210122
0.210491
0.210693
0.21004
0.205295
0.191085
0.159049
0.0996548
0.0172467
-0.0199379
0.137549
0.343688
0.408585
0.495066
0.6204
0.729111
0.764365
0.758275
0.751644
0.748235
0.125084
0.124486
0.123379
0.119938
0.108729
0.0801605
0.0156246
-0.10995
-0.29342
-0.338262
-0.110152
0.172229
0.286543
0.407786
0.527433
0.592852
0.595412
0.594206
0.592698
0.591465
0.0599094
0.0586773
0.0565583
0.0515629
0.0368027
-0.000787184
-0.0898842
-0.268154
-0.503897
-0.559164
-0.280705
0.0390546
0.159613
0.321149
0.422186
0.433973
0.426484
0.421858
0.420978
0.420808
0.022359
0.0210467
0.0202034
0.017707
0.00702855
-0.022776
-0.103553
-0.278839
-0.492938
-0.527413
-0.257018
-0.0480401
0.0906734
0.246167
0.298452
0.283835
0.269986
0.259365
0.254775
0.253716
0.00816878
0.0080225
0.00924616
0.0107676
0.01044
0.00682499
-0.00736781
-0.0528229
-0.120665
-0.169889
-0.125419
-0.0202018
0.0142106
-0.00445179
0.115912
0.106906
0.0770258
0.0601625
0.0550928
0.0532762
0.643181
0.842966
1.02823
1.1852
1.31319
1.41666
1.50412
1.575
1.59395
1.58992
0.954704
1.08438
1.20605
1.31249
1.40303
1.47858
1.53843
1.57903
1.60071
1.61696
1.16726
1.25338
1.33861
1.4141
1.47894
1.5329
1.57539
1.60754
1.63129
1.65046
1.32223
1.38267
1.44423
1.4998
1.5479
1.58871
1.62275
1.65099
1.6722
1.69115
1.44322
1.48916
1.53552
1.57825
1.61616
1.64952
1.67854
1.70299
1.72154
1.73965
1.54646
1.58335
1.61984
1.65505
1.68736
1.71649
1.74213
1.76358
1.77975
1.79728
1.63676
1.66988
1.70302
1.73501
1.76475
1.79173
1.81535
1.83468
1.84887
1.86595
1.72527
1.75841
1.79143
1.82315
1.85237
1.87856
1.90103
1.91883
1.93141
1.94799
1.82059
1.85725
1.89237
1.92518
1.95467
1.9803
2.00166
2.01814
2.02989
2.04608
1.93413
1.97479
2.01208
2.04533
2.07405
2.09824
2.11802
2.13343
2.14541
2.16152
2.0757
2.11703
2.15245
2.18222
2.20757
2.2293
2.2479
2.26346
2.27664
2.29261
2.24758
2.28029
2.30718
2.32955
2.34971
2.3685
2.38629
2.40311
2.41805
2.43379
2.43416
2.4515
2.46868
2.4854
2.50153
2.5163
2.53024
2.54474
2.56
2.57731
2.61759
2.62763
2.64087
2.65188
2.66129
2.67097
2.68161
2.69181
2.70112
2.72679
2.83562
2.82992
2.81698
2.80272
2.79643
2.80217
2.82033
2.84886
2.88263
2.91897
3.13841
3.00244
2.92297
2.88052
2.86321
2.86717
2.89462
2.95249
3.06016
3.23856
1.41913
1.41282
1.40509
1.39396
1.38037
1.3677
1.35727
1.34921
1.34343
1.34
1.33952
1.34221
1.34733
1.35461
1.36409
1.37588
1.38941
1.40232
1.4113
1.41883
1.32822
1.33413
1.3422
1.34833
1.35138
1.35085
1.34774
1.34369
1.34003
1.33764
1.33737
1.33948
1.34312
1.34747
1.35151
1.3537
1.35259
1.34792
1.34084
1.333
1.32152
1.32389
1.32715
1.32991
1.33235
1.33451
1.33566
1.33547
1.33444
1.33351
1.33358
1.33485
1.33651
1.33763
1.33747
1.33594
1.33373
1.33134
1.32833
1.3253
1.31679
1.31788
1.31979
1.32212
1.32398
1.32535
1.32653
1.32747
1.32797
1.32821
1.32859
1.32917
1.3295
1.32926
1.32853
1.32754
1.32614
1.32413
1.32198
1.32049
1.31185
1.31248
1.31361
1.31536
1.31719
1.31876
1.31997
1.32096
1.32184
1.32258
1.32317
1.3235
1.32347
1.32312
1.32246
1.32139
1.31988
1.31821
1.31683
1.31601
1.30704
1.30748
1.30826
1.30957
1.31108
1.31262
1.31405
1.31526
1.31629
1.31721
1.31794
1.3183
1.31826
1.31785
1.31705
1.31592
1.31466
1.31343
1.31248
1.31193
1.30236
1.30268
1.3033
1.30437
1.30567
1.30706
1.3085
1.3099
1.31119
1.31232
1.3132
1.31363
1.31357
1.31308
1.31228
1.31132
1.31033
1.30936
1.30863
1.30823
1.29778
1.29803
1.29853
1.29946
1.30065
1.30196
1.30337
1.30485
1.30631
1.30764
1.30872
1.30928
1.30928
1.30886
1.30819
1.30741
1.30658
1.30579
1.30523
1.30492
1.29327
1.29347
1.29388
1.29471
1.29584
1.29712
1.2985
1.3
1.30159
1.30315
1.30447
1.3052
1.30534
1.3051
1.30462
1.30401
1.30332
1.30268
1.30224
1.302
1.28876
1.28892
1.28927
1.29004
1.29112
1.29238
1.29377
1.2953
1.29697
1.29872
1.30029
1.30133
1.30175
1.30176
1.3015
1.30106
1.30053
1.30002
1.29967
1.29949
1.2842
1.28431
1.28462
1.28534
1.28642
1.2877
1.28917
1.29083
1.29267
1.29468
1.2966
1.29797
1.2987
1.29895
1.29886
1.29857
1.29818
1.2978
1.29754
1.29739
1.27953
1.27962
1.27989
1.28061
1.28174
1.28312
1.28471
1.28656
1.28868
1.291
1.29335
1.29517
1.29624
1.29673
1.29684
1.2967
1.29641
1.29611
1.29592
1.29581
1.27473
1.27479
1.27504
1.27575
1.27691
1.27835
1.28003
1.28203
1.28444
1.28724
1.29014
1.29242
1.29388
1.29477
1.29522
1.29533
1.29521
1.29503
1.29491
1.29483
1.26971
1.26974
1.26997
1.2707
1.27191
1.27346
1.27534
1.27762
1.28034
1.28355
1.28708
1.29012
1.29221
1.29351
1.29426
1.29462
1.2947
1.29465
1.29461
1.29456
1.26447
1.26447
1.26468
1.2654
1.2667
1.2684
1.2705
1.27313
1.27643
1.28042
1.28478
1.28852
1.29116
1.29295
1.29406
1.2947
1.29504
1.29516
1.2952
1.29519
1.25877
1.25876
1.25898
1.25969
1.26102
1.26283
1.26516
1.26815
1.27194
1.27667
1.28204
1.28685
1.2904
1.29288
1.29454
1.29567
1.29635
1.2967
1.29685
1.29685
1.2523
1.25228
1.2525
1.25325
1.25468
1.25671
1.25942
1.26299
1.26763
1.27345
1.28008
1.28604
1.29047
1.29367
1.29597
1.29755
1.29862
1.29923
1.29947
1.29948
1.24462
1.24459
1.24484
1.24568
1.24728
1.24961
1.25281
1.25709
1.2627
1.26982
1.27802
1.28546
1.29108
1.29519
1.29816
1.30032
1.30181
1.30268
1.30302
1.30303
1.23528
1.23524
1.23554
1.23654
1.23844
1.24126
1.24517
1.25043
1.25737
1.26616
1.27629
1.28549
1.29244
1.29758
1.30136
1.30413
1.30604
1.30716
1.30759
1.3076
1.22384
1.22378
1.22419
1.22544
1.22778
1.23132
1.2362
1.24277
1.2514
1.26233
1.27483
1.28613
1.29466
1.30099
1.30565
1.30908
1.31146
1.31284
1.31335
1.31337
1.20966
1.20959
1.21013
1.21176
1.21474
1.21924
1.22545
1.23379
1.24465
1.25825
1.27364
1.28744
1.29782
1.30551
1.31122
1.31541
1.31833
1.31999
1.32059
1.32061
1.1918
1.19173
1.19249
1.19467
1.19858
1.20445
1.21253
1.22326
1.23706
1.25405
1.27293
1.28964
1.30211
1.31135
1.31822
1.32331
1.32685
1.3288
1.32949
1.32951
1.16883
1.16876
1.16988
1.17289
1.17822
1.18616
1.19694
1.21098
1.22862
1.2498
1.27279
1.29282
1.30768
1.31868
1.32691
1.33299
1.33719
1.33946
1.34025
1.34026
1.13852
1.13851
1.14026
1.14466
1.15234
1.16355
1.17834
1.19697
1.21953
1.24574
1.27346
1.29718
1.31468
1.32766
1.33739
1.34459
1.34948
1.3521
1.35298
1.35298
1.09695
1.09715
1.10029
1.10756
1.11948
1.136
1.15669
1.18147
1.21015
1.24223
1.27518
1.30289
1.32322
1.33834
1.34971
1.35813
1.36377
1.36675
1.36771
1.36767
1.03669
1.03808
1.04566
1.05938
1.07895
1.10378
1.13264
1.16518
1.20105
1.23966
1.2782
1.31007
1.33332
1.35063
1.36367
1.37331
1.37985
1.38319
1.38414
1.38406
0.964518
0.967362
0.981978
1.00562
1.03566
1.07009
1.10779
1.14859
1.19221
1.23816
1.28338
1.32063
1.3479
1.36836
1.3839
1.39543
1.40324
1.40732
1.40854
1.40856
0.891064
0.89836
0.920231
0.953568
0.993467
1.03718
1.08368
1.13279
1.18427
1.23768
1.28979
1.33258
1.36396
1.3876
1.40571
1.41944
1.42869
1.43302
1.43442
1.43473
0.832072
0.840962
0.867553
0.90768
0.955157
1.00666
1.06102
1.11786
1.17683
1.23739
1.29596
1.34382
1.3788
1.40513
1.42523
1.44041
1.45062
1.45588
1.45797
1.45841
0.783866
0.793437
0.823407
0.868471
0.92167
0.979369
1.0403
1.10393
1.16965
1.2368
1.30134
1.35373
1.3918
1.42027
1.442
1.45845
1.46978
1.47582
1.4782
1.47868
0.743377
0.753205
0.785479
0.834398
0.892251
0.955079
1.02154
1.091
1.16272
1.23582
1.30578
1.3622
1.40291
1.43317
1.45613
1.47347
1.48551
1.49213
1.49478
1.49532
0.708044
0.717994
0.751975
0.804028
0.865778
0.932989
1.00426
1.07886
1.15595
1.23444
1.30932
1.36938
1.4124
1.44412
1.46802
1.48599
1.49854
1.50563
1.50843
1.50897
0.676279
0.68629
0.721647
0.776306
0.841368
0.912389
0.987915
1.06714
1.14912
1.23259
1.31206
1.3755
1.4206
1.45358
1.47818
1.49656
1.50935
1.51663
1.5195
1.52006
0.646952
0.657022
0.693512
0.750449
0.818386
0.892743
0.972055
1.05549
1.14198
1.23014
1.31401
1.38072
1.42781
1.46193
1.48713
1.50577
1.51869
1.52608
1.52893
1.52948
0.619225
0.629368
0.666898
0.725854
0.796358
0.873673
0.956384
1.04364
1.13434
1.22696
1.31515
1.3851
1.43422
1.46949
1.49531
1.51425
1.52728
1.53471
1.53757
1.53797
0.592607
0.602869
0.641363
0.702145
0.774939
0.854909
0.940687
1.03144
1.12604
1.22294
1.31538
1.38869
1.43994
1.47651
1.50306
1.52235
1.53551
1.5429
1.54572
1.54611
0.566771
0.577214
0.616626
0.679063
0.753906
0.836263
0.924825
1.01877
1.11701
1.21798
1.31468
1.39151
1.44513
1.48318
1.51058
1.53032
1.54366
1.55104
1.55375
1.55411
0.541494
0.552194
0.592484
0.656441
0.733144
0.817648
0.908725
1.00559
1.10719
1.21207
1.31302
1.39358
1.44982
1.48956
1.51798
1.53827
1.55183
1.55918
1.56175
1.56204
0.516743
0.527708
0.568824
0.634207
0.712591
0.799024
0.892366
0.991884
1.09659
1.20516
1.31035
1.39482
1.45397
1.49567
1.5253
1.54624
1.56004
1.56729
1.56967
1.56987
0.492443
0.503692
0.545641
0.612352
0.692229
0.780389
0.875764
0.97767
1.08522
1.19726
1.30656
1.39511
1.45751
1.50152
1.53256
1.55423
1.56822
1.57532
1.57747
1.57754
0.468622
0.480164
0.522942
0.590866
0.672089
0.761791
0.858976
0.963004
1.07311
1.18833
1.30161
1.39434
1.46033
1.50705
1.53981
1.56228
1.57635
1.58313
1.58498
1.58494
0.445251
0.457146
0.500754
0.569786
0.652215
0.743284
0.842061
0.947963
1.06033
1.17842
1.29546
1.3924
1.46225
1.51218
1.5471
1.57049
1.58445
1.59066
1.5921
1.59195
0.422575
0.434706
0.479125
0.549166
0.632675
0.724955
0.825102
0.932632
1.04697
1.16761
1.28809
1.38916
1.46309
1.51671
1.55446
1.57914
1.59273
1.59788
1.59869
1.59843
0.400449
0.412915
0.458111
0.529054
0.613519
0.706858
0.808205
0.917106
1.03313
1.15598
1.27952
1.38453
1.46262
1.52034
1.56176
1.5886
1.60187
1.60517
1.60472
1.60427
0.379067
0.391825
0.437735
0.509512
0.594839
0.68909
0.79146
0.901518
1.01894
1.14363
1.2698
1.37844
1.46065
1.52267
1.56857
1.59908
1.61315
1.61414
1.61088
1.60953
0.358338
0.371417
0.418063
0.490601
0.576682
0.671724
0.77496
0.885956
1.0045
1.13069
1.25903
1.37082
1.45701
1.52324
1.57397
1.60984
1.62746
1.62838
1.62133
1.61065
0.33838
0.351698
0.399002
0.472155
0.558822
0.654462
0.758347
0.869987
0.989336
1.11663
1.24663
1.36101
1.4511
1.52148
1.57677
1.61903
1.64341
1.64763
1.63835
1.63321
0.31925
0.332592
0.380558
0.454248
0.541289
0.637327
0.74166
0.8536
0.973423
1.10133
1.23245
1.34863
1.44233
1.51663
1.57456
1.62072
1.64895
1.65825
1.62646
1.5859
0.301155
0.314249
0.362777
0.437004
0.52411
0.6203
0.724922
0.836937
0.95685
1.08487
1.21648
1.33347
1.42985
1.50824
1.56582
1.60454
1.63303
1.62487
1.57322
1.5153
0.281389
0.297831
0.346005
0.420831
0.507434
0.603646
0.707812
0.820053
0.939719
1.06738
1.19869
1.31546
1.41223
1.4973
1.5495
1.59299
1.57747
1.54323
1.48179
1.42097
0.29158
0.315562
0.365821
0.444851
0.536394
0.63659
0.746121
0.86162
0.984454
1.11576
1.24061
1.34387
1.43308
1.51935
1.55866
1.50084
1.46401
1.41022
1.34621
1.30491
0.277288
0.285015
0.325118
0.394966
0.481366
0.577267
0.681549
0.793289
0.912097
1.03836
1.16764
1.2823
1.37429
1.4586
1.52271
1.5199
1.42363
1.35309
1.29972
1.22688
0.255334
0.265976
0.309495
0.380616
0.467416
0.562912
0.665983
0.776674
0.894403
1.01907
1.14623
1.2587
1.34659
1.41786
1.44406
1.37551
1.25685
1.18003
1.11902
1.04438
0.231222
0.243121
0.289799
0.36193
0.448765
0.544313
0.647337
0.757678
0.874385
0.997371
1.1214
1.22942
1.3101
1.36158
1.34138
1.2219
1.09161
0.998837
0.923816
0.814361
0.207457
0.219415
0.267893
0.341188
0.428204
0.523727
0.626597
0.736275
0.851737
0.972649
1.09299
1.19568
1.26768
1.29654
1.23684
1.0682
0.910974
0.787136
0.684784
0.544858
0.183838
0.195773
0.245374
0.319675
0.407115
0.502608
0.60508
0.71383
0.827796
0.946274
1.06247
1.15913
1.2213
1.21816
1.1044
0.915249
0.726165
0.558052
0.41438
0.155236
0.159949
0.171738
0.222001
0.296982
0.384816
0.480336
0.582394
0.690193
0.802538
0.918345
1.03005
1.11975
1.16999
1.13287
0.972793
0.770395
0.560739
0.376132
0.199592
-0.0879919
0.135232
0.146872
0.197441
0.272872
0.361012
0.456562
0.55824
0.665108
0.775763
0.888713
0.9957
1.07761
1.11264
1.05153
0.849899
0.641983
0.431981
0.254241
0.162932
0.110811
0.10902
0.120567
0.171354
0.247039
0.335292
0.430708
0.531846
0.637544
0.746159
0.855721
0.957401
1.0304
1.04758
0.944872
0.735075
0.528743
0.342006
0.224118
0.18577
0.178945
0.0811374
0.0926546
0.143658
0.219495
0.307724
0.402834
0.503214
0.60747
0.713648
0.819245
0.914949
0.978504
0.968411
0.830387
0.6284
0.434573
0.276609
0.219932
0.209304
0.206652
0.0514674
0.0630254
0.114309
0.190258
0.278347
0.372968
0.472368
0.57488
0.678215
0.779316
0.868272
0.921386
0.883706
0.7208
0.531296
0.351148
0.244732
0.22085
0.220081
0.219814
0.020164
0.0317846
0.0833741
0.159395
0.247238
0.341196
0.439356
0.539835
0.639915
0.735959
0.817636
0.857979
0.803473
0.61764
0.440708
0.285834
0.234786
0.22916
0.227105
0.226806
-0.0123728
-0.000734534
0.0511131
0.127114
0.214579
0.307687
0.404323
0.502465
0.598902
0.68933
0.76335
0.790176
0.719382
0.525421
0.359096
0.24768
0.224803
0.228359
0.231271
0.232106
-0.0456598
-0.0340344
0.017947
0.0937961
0.180727
0.272772
0.367586
0.46302
0.555541
0.639837
0.705596
0.720479
0.620865
0.437838
0.293343
0.230659
0.221823
0.228782
0.233902
0.236804
-0.0789229
-0.0673907
-0.0154662
0.0600492
0.146222
0.236971
0.329654
0.4219
0.510327
0.588225
0.645056