/*--------------------------------*- C++ -*----------------------------------*\
  =========                 |
  \\      /  F ield         | OpenFOAM: The Open Source CFD Toolbox
   \\    /   O peration     | Website:  https://openfoam.org
    \\  /    A nd           | Version:  6
     \\/     M anipulation  |
\*---------------------------------------------------------------------------*/
FoamFile
{
    version     2.0;
    format      ascii;
    class       volScalarField;
    location    "74.8";
    object      p;
}
// * * * * * * * * * * * * * * * * * * * * * * * * * * * * * * * * * * * * * //

dimensions      [0 2 -2 0 0 0 0];

internalField   nonuniform List<scalar> 
8800
(
0.840105
0.79079
0.752824
0.724753
0.70459
0.69
0.679398
0.671851
0.666958
0.664878
0.666237
0.670571
0.677358
0.686777
0.699511
0.716831
0.740707
0.773804
0.816741
0.869255
0.674599
0.680944
0.690093
0.693641
0.691031
0.684939
0.677995
0.671748
0.666938
0.664059
0.663816
0.666434
0.67107
0.677194
0.68429
0.691323
0.696201
0.696076
0.689401
0.680503
0.648116
0.654352
0.658851
0.66272
0.665666
0.666612
0.665518
0.66339
0.661401
0.66055
0.661571
0.664016
0.666898
0.669164
0.669684
0.667894
0.664528
0.660515
0.655735
0.652019
0.643818
0.646583
0.649188
0.651344
0.653079
0.654644
0.655741
0.656087
0.655965
0.656052
0.656846
0.65798
0.658716
0.658563
0.657587
0.656232
0.654563
0.652261
0.649851
0.648285
0.638764
0.640189
0.642027
0.644106
0.645816
0.647105
0.648197
0.64917
0.64997
0.650695
0.651395
0.651847
0.651866
0.651501
0.650832
0.649717
0.648062
0.646169
0.644816
0.644014
0.633777
0.63468
0.635925
0.637549
0.63924
0.640768
0.642047
0.643161
0.644216
0.645222
0.645996
0.646379
0.646385
0.646016
0.645214
0.644026
0.642667
0.641402
0.640582
0.640058
0.628872
0.629528
0.630487
0.631803
0.633247
0.634759
0.636238
0.637595
0.638848
0.640041
0.640981
0.641469
0.641484
0.641048
0.640268
0.639329
0.638339
0.637437
0.636859
0.636474
0.624047
0.624551
0.625336
0.626474
0.627771
0.629184
0.630687
0.632221
0.633723
0.635166
0.636311
0.636915
0.636993
0.636674
0.636114
0.635429
0.634696
0.634037
0.633611
0.633312
0.619246
0.619648
0.620306
0.621325
0.622552
0.623913
0.625413
0.627046
0.628767
0.6305
0.631906
0.63271
0.632986
0.632902
0.632587
0.632127
0.631602
0.631138
0.630825
0.630582
0.614389
0.614716
0.615288
0.616229
0.617412
0.618765
0.620304
0.622042
0.623967
0.626008
0.627756
0.628875
0.629448
0.629637
0.629567
0.629339
0.629016
0.628716
0.628488
0.628283
0.609387
0.609658
0.610171
0.611067
0.612237
0.613621
0.615242
0.617131
0.619298
0.621699
0.623876
0.625402
0.626332
0.62683
0.627028
0.627039
0.626919
0.626764
0.626603
0.626426
0.604148
0.604377
0.604851
0.605734
0.606931
0.608389
0.610136
0.612232
0.614713
0.61756
0.620261
0.622273
0.62362
0.624474
0.624974
0.625228
0.625318
0.6253
0.625196
0.625038
0.598578
0.598773
0.59923
0.600129
0.601393
0.60297
0.6049
0.607272
0.610154
0.613556
0.616891
0.619484
0.621319
0.622581
0.623421
0.623949
0.62426
0.624369
0.624312
0.624167
0.592573
0.592741
0.593197
0.59414
0.595513
0.597261
0.599441
0.602172
0.605557
0.609643
0.613747
0.617034
0.619447
0.621182
0.622413
0.623267
0.623799
0.624032
0.624016
0.623878
0.586007
0.586153
0.586624
0.58764
0.589167
0.591147
0.593655
0.596845
0.600857
0.605778
0.610813
0.61493
0.618029
0.620322
0.622
0.623206
0.623998
0.624363
0.624384
0.624249
0.578739
0.578862
0.579361
0.580482
0.582212
0.584496
0.587424
0.591189
0.59598
0.601922
0.608077
0.613185
0.617095
0.620045
0.622252
0.623872
0.624953
0.625452
0.625507
0.625372
0.570574
0.570684
0.571224
0.57248
0.574476
0.577146
0.580604
0.585089
0.590839
0.598025
0.605529
0.611817
0.616683
0.620407
0.623249
0.625352
0.626757
0.627398
0.627484
0.627344
0.561266
0.56137
0.561968
0.5634
0.56574
0.5689
0.573026
0.57841
0.585344
0.594043
0.603162
0.610849
0.616845
0.621479
0.62507
0.627738
0.629509
0.630299
0.630414
0.630265
0.550503
0.55059
0.551276
0.552949
0.555729
0.559513
0.564483
0.570993
0.579391
0.58993
0.600979
0.610312
0.617634
0.62334
0.627788
0.631124
0.633305
0.634249
0.634385
0.634225
0.537896
0.53797
0.53876
0.540745
0.544086
0.548674
0.554724
0.562658
0.572876
0.585653
0.598996
0.610248
0.619101
0.626052
0.631502
0.635601
0.638224
0.639316
0.639467
0.639291
0.52287
0.522936
0.523873
0.526273
0.530353
0.535995
0.543448
0.553202
0.565696
0.581191
0.597237
0.610704
0.621302
0.629674
0.636276
0.641221
0.644307
0.645533
0.645685
0.645491
0.504626
0.504685
0.505839
0.508828
0.51392
0.520984
0.530301
0.54242
0.557776
0.576557
0.595751
0.611732
0.624295
0.634262
0.642121
0.648001
0.65154
0.652864
0.653001
0.652786
0.481972
0.482036
0.483539
0.487411
0.493958
0.503022
0.514895
0.530138
0.5491
0.571821
0.594619
0.613393
0.628114
0.639831
0.649055
0.655894
0.659825
0.661186
0.661287
0.661053
0.453085
0.453181
0.455287
0.460587
0.469396
0.481409
0.496896
0.516303
0.539777
0.567139
0.593976
0.615773
0.632793
0.646352
0.657021
0.664765
0.668958
0.670269
0.670311
0.670062
0.414834
0.41506
0.418404
0.426342
0.438969
0.455539
0.476192
0.501081
0.530074
0.562762
0.593994
0.61897
0.638358
0.653783
0.6659
0.674377
0.678616
0.679768
0.679733
0.679475
0.361246
0.362369
0.369029
0.382439
0.401744
0.425366
0.453171
0.484976
0.520437
0.559013
0.59487
0.623079
0.644821
0.662049
0.675461
0.684376
0.688366
0.689258
0.689143
0.688886
0.283687
0.291294
0.30659
0.33005
0.359329
0.39239
0.428891
0.468598
0.511185
0.556119
0.596897
0.628533
0.652814
0.671952
0.686458
0.695485
0.699045
0.699664
0.699495
0.699274
0.201218
0.21783
0.242666
0.276926
0.316709
0.359355
0.404575
0.452306
0.502324
0.554166
0.600602
0.636287
0.663526
0.684814
0.700309
0.708931
0.711735
0.712061
0.711913
0.711769
0.130534
0.150843
0.183643
0.227188
0.276304
0.327975
0.381683
0.437304
0.494576
0.553019
0.604701
0.644015
0.673779
0.696652
0.712524
0.720382
0.722572
0.722803
0.722702
0.722594
0.0726677
0.0952417
0.133511
0.183711
0.240129
0.299364
0.36057
0.423432
0.487504
0.552167
0.608742
0.651354
0.683275
0.707337
0.723347
0.730734
0.732671
0.732901
0.732853
0.732766
0.024735
0.0486514
0.0908794
0.146275
0.208534
0.273994
0.341596
0.410866
0.48115
0.551643
0.612856
0.658609
0.692552
0.717761
0.733993
0.741139
0.742917
0.743155
0.743154
0.743085
-0.0159006
0.00880662
0.0539517
0.113572
0.180756
0.251536
0.32469
0.399651
0.475603
0.55156
0.617229
0.666025
0.701994
0.728377
0.744958
0.752001
0.753779
0.754032
0.754064
0.754013
-0.0512958
-0.0260706
0.0213518
0.0844773
0.155883
0.231315
0.309416
0.389545
0.47075
0.551864
0.621855
0.673674
0.711677
0.739286
0.756374
0.763628
0.765424
0.765676
0.765721
0.765683
-0.0829664
-0.0573276
-0.00803405
0.058081
0.133155
0.212691
0.295265
0.380156
0.466295
0.552362
0.626566
0.681392
0.721454
0.750409
0.768184
0.775741
0.777604
0.777841
0.777875
0.777851
-0.111956
-0.085939
-0.0350514
0.0336669
0.111976
0.195168
0.281796
0.371098
0.461934
0.552822
0.631158
0.688982
0.731118
0.761441
0.779968
0.787844
0.78982
0.790034
0.790048
0.790033
-0.13909
-0.112671
-0.0603581
0.0107077
0.0918852
0.178354
0.268675
0.362086
0.457388
0.552963
0.635435
0.696247
0.74046
0.772125
0.791374
0.799566
0.801651
0.801862
0.801842
0.801828
-0.164783
-0.137979
-0.0843554
-0.0112007
0.0725407
0.161963
0.255662
0.352882
0.452421
0.552598
0.639236
0.703057
0.749304
0.782258
0.80214
0.810613
0.812777
0.812959
0.8129
0.812875
-0.189503
-0.162235
-0.107398
-0.0323474
0.0536985
0.145784
0.242568
0.343321
0.446891
0.551594
0.642435
0.709343
0.757607
0.791727
0.812129
0.820747
0.822929
0.823079
0.822982
0.822945
-0.213401
-0.185661
-0.12968
-0.0529186
0.035193
0.129683
0.229277
0.333312
0.440692
0.549812
0.644946
0.715054
0.765362
0.800531
0.82125
0.829881
0.832025
0.832131
0.831999
0.831949
-0.236624
-0.20838
-0.151341
-0.0730247
0.0169392
0.11359
0.215734
0.322777
0.433733
0.547154
0.646681
0.720193
0.772629
0.808742
0.829563
0.838048
0.840078
0.840137
0.839978
0.839916
-0.25928
-0.230518
-0.172445
-0.0927176
-0.00111215
0.0974771
0.201917
0.311696
0.425978
0.543557
0.647551
0.72474
0.779524
0.816552
0.837251
0.845346
0.84717
0.847161
0.846983
0.846913
-0.281443
-0.252092
-0.193015
-0.112014
-0.0189531
0.0813453
0.187838
0.300084
0.417423
0.538947
0.64747
0.728663
0.786161
0.824184
0.844519
0.851939
0.8534
0.853297
0.853108
0.853034
-0.302985
-0.273076
-0.213042
-0.130916
-0.0365689
0.0652395
0.173536
0.287988
0.40809
0.533307
0.646344
0.731886
0.792603
0.831934
0.851752
0.858085
0.858891
0.858629
0.858453
0.858387
-0.323898
-0.29345
-0.23253
-0.149394
-0.0539192
0.0492041
0.159083
0.275459
0.398029
0.526634
0.644088
0.734284
0.798831
0.84007
0.859517
0.864347
0.86394
0.863277
0.863157
0.863164
-0.344236
-0.313194
-0.251465
-0.167429
-0.0709542
0.0333085
0.144552
0.262582
0.387311
0.518956
0.640615
0.735707
0.804694
0.848672
0.868455
0.871796
0.869431
0.86763
0.867443
0.867831
-0.363863
-0.332286
-0.269799
-0.184964
-0.0876268
0.0176278
0.13003
0.249455
0.376032
0.510341
0.635863
0.735965
0.809933
0.857499
0.878855
0.881788
0.877463
0.873238
0.871273
0.870609
-0.38287
-0.350739
-0.287542
-0.202035
-0.103976
0.00212094
0.115466
0.236019
0.364124
0.500726
0.629672
0.734803
0.814313
0.866122
0.890366
0.894969
0.890397
0.882855
0.873674
0.874709
-0.401181
-0.368621
-0.304832
-0.218838
-0.120291
-0.0135353
0.100453
0.221805
0.351059
0.489511
0.621427
0.731513
0.817483
0.874108
0.901764
0.909788
0.905503
0.893166
0.873864
0.873124
-0.418667
-0.3859
-0.321508
-0.23519
-0.136314
-0.0290447
0.0851883
0.207122
0.337112
0.476901
0.611109
0.725305
0.818461
0.88018
0.909025
0.917709
0.914241
0.887098
0.829783
0.805281
-0.435214
-0.403493
-0.337179
-0.250655
-0.151258
-0.0439251
0.0699532
0.192244
0.322561
0.463059
0.598754
0.715521
0.816018
0.883164
0.907092
0.910606
0.893393
0.83984
0.777573
0.739757
-0.47763
-0.420706
-0.351551
-0.266147
-0.165878
-0.0591486
0.0548918
0.177047
0.307193
0.447612
0.583913
0.701435
0.806171
0.879116
0.892822
0.875119
0.823132
0.755409
0.685597
0.647184
-0.452583
-0.434313
-0.373432
-0.287306
-0.188532
-0.0820325
0.0313338
0.152876
0.282199
0.421404
0.556695
0.67282
0.769721
0.850266
0.829865
0.716136
0.622241
0.557045
0.491691
0.517004
-0.483041
-0.451594
-0.38986
-0.304232
-0.205831
-0.099481
0.0140713
0.134972
0.263311
0.400834
0.533696
0.646512
0.732185
0.777726
0.721687
0.577792
0.465627
0.390024
0.306671
0.350271
-0.506601
-0.472775
-0.409332
-0.323661
-0.225314
-0.11898
-0.00554733
0.114564
0.241557
0.376725
0.5058
0.612659
0.686771
0.693964
0.582836
0.424097
0.292344
0.197825
0.101257
0.131024
-0.529496
-0.494642
-0.429851
-0.343536
-0.245121
-0.138916
-0.0260106
0.0931287
0.218517
0.350869
0.475026
0.573342
0.630647
0.604169
0.441796
0.261894
0.0999065
-0.0355561
-0.160996
-0.149783
-0.552108
-0.516882
-0.451198
-0.364304
-0.26577
-0.159801
-0.0475752
0.0704221
0.193887
0.322946
0.441252
0.531072
0.567316
0.494076
0.302899
0.10341
-0.0851872
-0.240331
-0.446333
-0.525709
-0.575121
-0.53996
-0.473756
-0.386457
-0.287785
-0.182018
-0.0704207
0.0463784
0.167758
0.293194
0.405103
0.485473
0.495144
0.370649
0.176103
-0.0350546
-0.22853
-0.391067
-0.515253
-0.632814
-0.599608
-0.564361
-0.497881
-0.410379
-0.311706
-0.20625
-0.0953913
0.0200101
0.138922
0.260114
0.365144
0.432349
0.41414
0.253439
0.0574093
-0.147683
-0.324457
-0.422468
-0.448736
-0.46217
-0.625695
-0.590378
-0.523705
-0.436161
-0.337679
-0.232721
-0.122866
-0.00920116
0.106754
0.222904
0.320581
0.369642
0.331812
0.140588
-0.0533051
-0.238212
-0.371868
-0.410085
-0.418958
-0.419287
-0.653662
-0.618135
-0.551267
-0.463791
-0.365656
-0.261442
-0.152874
-0.0413196
0.0711766
0.181528
0.270763
0.303231
0.233019
0.0373223
-0.1501
-0.310846
-0.386198
-0.400309
-0.40132
-0.401176
-0.683518
-0.647665
-0.580588
-0.493271
-0.395657
-0.292411
-0.185431
-0.0763715
0.0321947
0.136089
0.215537
0.233056
0.124062
-0.0563883
-0.233327
-0.360757
-0.390258
-0.390985
-0.391558
-0.391125
-0.715006
-0.678799
-0.611568
-0.52452
-0.4276
-0.325579
-0.220518
-0.114341
-0.0101454
0.0867161
0.156194
0.154425
0.0274775
-0.142528
-0.299055
-0.371514
-0.386936
-0.385621
-0.385564
-0.385216
-0.747566
-0.71119
-0.643942
-0.557307
-0.461297
-0.360789
-0.257988
-0.155111
-0.0556297
0.0338369
0.0931792
0.0750279
-0.0614153
-0.218254
-0.343058
-0.380487
-0.380342
-0.381262
-0.38134
-0.38112
-0.780753
-0.744301
-0.677217
-0.59121
-0.49639
-0.397713
-0.297553
-0.198403
-0.103965
-0.0216219
0.0251616
9.5418e-05
-0.142129
-0.27823
-0.36955
-0.377483
-0.378449
-0.378592
-0.378358
-0.378234
-0.8136
-0.777243
-0.710653
-0.62558
-0.532315
-0.435865
-0.33874
-0.243725
-0.154727
-0.078831
-0.042898
-0.074591
-0.211014
-0.322777
-0.376498
-0.385913
-0.379411
-0.376549
-0.375626
-0.37538
-0.844268
-0.808718
-0.743201
-0.659516
-0.568279
-0.474521
-0.380867
-0.290332
-0.207142
-0.137352
-0.105859
-0.152005
-0.266813
-0.358839
-0.383789
-0.38397
-0.379168
-0.375593
-0.374503
-0.374005
-0.871663
-0.837196
-0.77344
-0.691796
-0.6032
-0.512721
-0.423047
-0.337286
-0.25999
-0.196668
-0.167233
-0.219335
-0.309857
-0.377235
-0.402211
-0.392522
-0.386663
-0.384071
-0.382559
-0.381626
-0.893051
-0.860552
-0.799588
-0.72087
-0.635738
-0.549255
-0.464153
-0.383522
-0.311969
-0.254981
-0.228241
-0.272676
-0.340681
-0.382281
-0.386475
-0.39472
-0.399254
-0.399278
-0.397701
-0.397185
-0.906326
-0.87662
-0.819535
-0.74496
-0.664333
-0.582715
-0.502829
-0.427804
-0.361927
-0.309688
-0.284105
-0.318115
-0.364511
-0.394246
-0.392153
-0.397408
-0.399808
-0.399886
-0.399954
-0.400321
-0.908751
-0.882971
-0.831138
-0.762183
-0.687313
-0.611609
-0.537623
-0.468596
-0.408654
-0.360141
-0.331134
-0.358492
-0.38392
-0.408666
-0.404946
-0.401714
-0.400261
-0.399352
-0.39918
-0.399101
-0.898021
-0.877068
-0.832241
-0.770755
-0.703164
-0.63451
-0.567204
-0.504253
-0.450401
-0.407395
-0.365646
-0.395483
-0.390474
-0.406214
-0.402312
-0.399312
-0.398352
-0.398118
-0.397937
-0.397814
-0.871588
-0.856202
-0.820887
-0.769397
-0.710823
-0.650375
-0.590509
-0.533675
-0.485197
-0.449471
-0.404262
-0.405388
-0.401423
-0.407864
-0.409864
-0.402317
-0.39552
-0.395091
-0.395658
-0.395716
-0.832879
-0.823044
-0.79815
-0.758325
-0.710234
-0.658976
-0.606887
-0.556426
-0.512212
-0.482088
-0.452586
-0.42512
-0.401369
-0.412143
-0.428091
-0.414313
-0.403906
-0.401427
-0.401614
-0.401517
-0.78896
-0.783369
-0.768983
-0.740613
-0.703462
-0.661162
-0.616518
-0.572038
-0.531415
-0.501646
-0.473787
-0.443093
-0.404875
-0.37632
-0.356546
-0.372026
-0.402592
-0.416424
-0.418153
-0.417845
-0.74992
-0.746539
-0.739709
-0.721646
-0.69355
-0.658724
-0.620552
-0.58042
-0.541725
-0.509546
-0.48183
-0.461519
-0.439156
-0.431552
-0.432111
-0.455585
-0.467156
-0.463899
-0.45651
-0.459365
-0.72181
-0.719802
-0.716295
-0.705608
-0.684255
-0.654964
-0.620687
-0.582974
-0.543531
-0.507247
-0.481418
-0.472487
-0.503651
-0.570092
-0.656978
-0.730043
-0.741096
-0.700656
-0.639192
-0.620914
-0.701253
-0.700538
-0.69935
-0.694061
-0.678305
-0.652483
-0.619498
-0.581319
-0.539323
-0.498148
-0.467078
-0.447347
-0.452049
-0.514585
-0.583176
-0.577978
-0.586984
-0.588568
-0.568545
-0.556639
-0.689348
-0.689126
-0.688548
-0.686055
-0.675206
-0.651299
-0.617738
-0.577515
-0.531346
-0.480048
-0.43827
-0.390253
-0.351456
-0.333123
-0.366765
-0.416345
-0.412343
-0.369851
-0.321378
-0.296674
-0.681057
-0.680929
-0.680548
-0.679735
-0.672921
-0.651313
-0.616795
-0.573749
-0.521107
-0.456385
-0.393623
-0.30879
-0.198092
-0.0785493
0.0139794
0.0760818
0.163053
0.263352
0.341418
0.377818
-0.675589
-0.675488
-0.675186
-0.674799
-0.670599
-0.65288
-0.61777
-0.570016
-0.509303
-0.435309
-0.346825
-0.242934
-0.0544204
0.207964
0.504937
0.77077
0.991384
1.1376
1.20706
1.23226
-0.672176
-0.672028
-0.671554
-0.670798
-0.669426
-0.656655
-0.621905
-0.567788
-0.50163
-0.417143
-0.317255
-0.205695
0.00915309
0.342116
0.73037
1.09808
1.38995
1.55537
1.6228
1.63946
-0.671204
-0.671339
-0.671571
-0.671653
-0.672261
-0.665236
-0.629458
-0.568805
-0.497752
-0.409923
-0.305711
-0.191725
0.000414969
0.321802
0.678625
1.00739
1.27297
1.4266
1.48016
1.49048
-0.669191
-0.670667
-0.67464
-0.681808
-0.689143
-0.680949
-0.636547
-0.571797
-0.501234
-0.414908
-0.31101
-0.20998
-0.0606785
0.206223
0.486737
0.741337
0.93773
1.03909
1.0725
1.0777
-0.662853
-0.665091
-0.67122
-0.684783
-0.697962
-0.683927
-0.632839
-0.577142
-0.515592
-0.429011
-0.328014
-0.239595
-0.122993
0.0748314
0.278162
0.439527
0.548795
0.602046
0.62281
0.628418
-0.677288
-0.678824
-0.678021
-0.662542
-0.635791
-0.622578
-0.607367
-0.586909
-0.534696
-0.446835
-0.35456
-0.279852
-0.194325
-0.0458664
0.0925133
0.191897
0.252875
0.285964
0.303547
0.310296
-0.714344
-0.714094
-0.705541
-0.661813
-0.590705
-0.559752
-0.598552
-0.609546
-0.558587
-0.466286
-0.385412
-0.319416
-0.25582
-0.144792
-0.0307729
0.0523061
0.103833
0.133734
0.148897
0.153879
-0.762323
-0.759472
-0.760698
-0.749471
-0.731131
-0.703726
-0.71453
-0.680421
-0.593014
-0.488755
-0.413526
-0.356994
-0.307615
-0.21509
-0.117711
-0.039104
0.0189225
0.0562749
0.07068
0.0729886
-0.879707
-0.889835
-0.934861
-0.990841
-1.01528
-0.99001
-0.921295
-0.795842
-0.638467
-0.516657
-0.43609
-0.381498
-0.345655
-0.262012
-0.169083
-0.101394
-0.0512582
-0.0199122
-0.0096181
-0.00842667
-1.03101
-1.05403
-1.1079
-1.15977
-1.1838
-1.15684
-1.06345
-0.866356
-0.667921
-0.53738
-0.443576
-0.38815
-0.361344
-0.290326
-0.211787
-0.15652
-0.110587
-0.0849146
-0.0748966
-0.0743811
-1.07404
-1.09529
-1.13145
-1.16688
-1.18467
-1.16033
-1.05178
-0.829889
-0.653349
-0.526835
-0.426777
-0.382004
-0.350298
-0.295139
-0.232241
-0.188729
-0.154486
-0.135448
-0.128885
-0.129295
-0.949451
-0.966425
-0.997696
-1.03164
-1.05186
-1.02927
-0.908577
-0.728267
-0.588278
-0.469334
-0.397987
-0.351161
-0.3307
-0.286865
-0.242269
-0.210369
-0.185027
-0.170881
-0.166617
-0.167769
-0.667824
-0.685457
-0.719321
-0.761006
-0.791296
-0.773808
-0.687519
-0.578099
-0.475639
-0.39532
-0.351718
-0.310424
-0.294469
-0.267804
-0.241517
-0.22163
-0.206197
-0.198057
-0.195933
-0.197334
-0.317129
-0.329586
-0.355819
-0.393107
-0.427422
-0.436833
-0.420102
-0.389524
-0.350315
-0.322588
-0.289363
-0.26708
-0.256737
-0.245252
-0.236886
-0.230915
-0.226292
-0.225155
-0.225289
-0.226469
-0.0336177
-0.0405071
-0.0580908
-0.0893924
-0.132067
-0.175389
-0.207729
-0.2304
-0.242601
-0.240368
-0.233305
-0.224357
-0.223794
-0.223872
-0.229396
-0.23574
-0.243155
-0.249459
-0.251548
-0.252059
0.117212
0.113465
0.101379
0.0753174
0.0327521
-0.0233778
-0.0802412
-0.126224
-0.155829
-0.176905
-0.18532
-0.182716
-0.188935
-0.200044
-0.216425
-0.231924
-0.246252
-0.255486
-0.257821
-0.257859
0.161146
0.158658
0.149776
0.129073
0.0930579
0.045169
-0.00816388
-0.059507
-0.101256
-0.130145
-0.144581
-0.148765
-0.157993
-0.174664
-0.195333
-0.214078
-0.229384
-0.237181
-0.239032
-0.23914
0.151439
0.14971
0.143283
0.12819
0.101377
0.0632853
0.0200756
-0.0245803
-0.0640508
-0.0959398
-0.118943
-0.127948
-0.13779
-0.155233
-0.172855
-0.187295
-0.198185
-0.202877
-0.203813
-0.204
0.123022
0.121927
0.11758
0.107197
0.0885815
0.0616047
0.0281107
-0.00870919
-0.0436732
-0.0762387
-0.105551
-0.127291
-0.14119
-0.147196
-0.153651
-0.158324
-0.161366
-0.16227
-0.162409
-0.162798
0.0911227
0.0905387
0.0878001
0.081012
0.0684878
0.0496992
0.025765
-0.00188689
-0.0311974
-0.0617827
-0.0975487
-0.134206
-0.15088
-0.139473
-0.13373
-0.129982
-0.12768
-0.126037
-0.125479
-0.125745
0.0606457
0.0604438
0.0589212
0.0548477
0.0470096
0.0348736
0.0187683
-0.00015709
-0.0215252
-0.0471453
-0.0811972
-0.120704
-0.134834
-0.116177
-0.102572
-0.0978527
-0.0941334
-0.0920273
-0.0914418
-0.0916376
0.0327678
0.0327707
0.0321579
0.0301758
0.0260685
0.0195701
0.0107185
8.51235e-05
-0.0126456
-0.0270626
-0.0502693
-0.076275
-0.0802617
-0.0684899
-0.0606954
-0.0585169
-0.0576597
-0.0571107
-0.0567949
-0.0567652
0.00610326
0.00621319
0.00634208
0.00651406
0.00621112
0.0052153
0.0035319
0.00145122
-0.000838324
-0.00367535
-0.0067092
-0.0131159
-0.0154936
-0.0154444
-0.015541
-0.0151859
-0.0142305
-0.0142335
-0.014287
-0.0135616
-0.0191628
0.169128
0.341996
0.488251
0.605238
0.697452
0.774039
0.836243
0.851966
0.848489
0.269648
0.390527
0.503776
0.60197
0.684476
0.752501
0.806059
0.842268
0.861682
0.87835
0.465346
0.545911
0.625568
0.695412
0.754874
0.804143
0.842961
0.87258
0.894895
0.914147
0.610276
0.667401
0.72493
0.776525
0.821061
0.858941
0.890746
0.917464
0.937641
0.956534
0.726632
0.769578
0.812173
0.852088
0.887781
0.919352
0.946971
0.970387
0.988276
1.00632
0.823129
0.858654
0.893684
0.927231
0.95816
0.986179
1.01093
1.0317
1.04743
1.06491
0.911163
0.943017
0.975171
1.00626
1.03516
1.06143
1.08448
1.10336
1.11724
1.13426
0.997917
1.03041
1.06275
1.09388
1.1226
1.14834
1.17042
1.18792
1.20027
1.21679
1.09217
1.12855
1.16328
1.1957
1.22483
1.25015
1.27124
1.2875
1.2991
1.31524
1.20518
1.24581
1.28279
1.3157
1.34415
1.36811
1.38772
1.40297
1.41486
1.43093
1.34661
1.38762
1.42284
1.45239
1.47758
1.49917
1.51766
1.53314
1.54625
1.56219
1.51808
1.55035
1.57725
1.59958
1.61966
1.63837
1.65611
1.67287
1.68778
1.70351
1.70433
1.72158
1.73869
1.75537
1.77147
1.7862
1.8001
1.81458
1.82981
1.84711
1.88772
1.89768
1.91086
1.92185
1.93125
1.94091
1.95152
1.96169
1.97098
1.99664
2.10559
2.09989
2.08694
2.07268
2.06638
2.07209
2.09023
2.11875
2.15252
2.18884
2.4084
2.27245
2.19295
2.15042
2.13309
2.13707
2.1645
2.22237
2.33003
2.50844
0.743799
0.737496
0.729767
0.718653
0.705084
0.692437
0.682044
0.674038
0.66833
0.665014
0.664684
0.66754
0.672792
0.680164
0.689723
0.701561
0.715128
0.728061
0.737053
0.744596
0.652862
0.658782
0.666855
0.672989
0.67606
0.675551
0.672469
0.668481
0.664902
0.662635
0.662525
0.664804
0.668579
0.673042
0.677155
0.679409
0.678342
0.673711
0.666659
0.658827
0.646103
0.648476
0.651744
0.654519
0.656972
0.659165
0.66035
0.660211
0.659286
0.658499
0.658742
0.660187
0.661993
0.663242
0.663181
0.661725
0.659575
0.65722
0.654242
0.651226
0.641301
0.64239
0.644308
0.646649
0.648524
0.649927
0.651153
0.652155
0.65277
0.653172
0.65376
0.654539
0.655036
0.654941
0.65433
0.653422
0.652101
0.650139
0.648037
0.646561
0.636261
0.636895
0.638026
0.639787
0.641635
0.643235
0.644494
0.64557
0.646571
0.647498
0.648325
0.648889
0.649062
0.648884
0.648369
0.647412
0.645997
0.644397
0.643066
0.642265
0.631316
0.631755
0.632545
0.633853
0.635381
0.636952
0.638441
0.639752
0.640929
0.64205
0.643052
0.643707
0.64393
0.64373
0.643093
0.642115
0.640978
0.639846
0.63895
0.638417
0.626454
0.626782
0.627396
0.628471
0.629774
0.631183
0.632675
0.634167
0.635585
0.636929
0.638135
0.638945
0.639225
0.639024
0.638461
0.637704
0.636879
0.63604
0.635387
0.634996
0.621651
0.621905
0.622401
0.623318
0.6245
0.625821
0.627259
0.628808
0.630419
0.632029
0.633497
0.634494
0.634903
0.634858
0.634519
0.634007
0.633399
0.632791
0.632319
0.632021
0.616834
0.617035
0.617448
0.618257
0.619363
0.62064
0.622068
0.623667
0.625426
0.627293
0.62907
0.630348
0.631009
0.631222
0.631134
0.630857
0.630463
0.630051
0.629721
0.629487
0.611915
0.612078
0.612433
0.61317
0.614232
0.615494
0.616957
0.618647
0.620575
0.622714
0.624858
0.626519
0.627527
0.628049
0.628232
0.628197
0.628024
0.627793
0.627581
0.627394
0.606807
0.606938
0.607252
0.607946
0.608994
0.610286
0.611824
0.613652
0.615803
0.618276
0.620869
0.623004
0.624429
0.625309
0.625798
0.626025
0.626075
0.62602
0.625908
0.625758
0.601415
0.601521
0.601808
0.602484
0.603555
0.60492
0.606578
0.608599
0.611044
0.613942
0.617086
0.619791
0.621706
0.623
0.623837
0.624351
0.624641
0.624762
0.624738
0.624615
0.595642
0.595726
0.595997
0.596681
0.59781
0.599291
0.601124
0.603406
0.60623
0.609657
0.613477
0.616867
0.619365
0.621141
0.622375
0.623225
0.623779
0.62407
0.624125
0.624023
0.589374
0.589439
0.589703
0.590417
0.59164
0.593284
0.595358
0.597984
0.601288
0.60537
0.610012
0.614227
0.617418
0.619763
0.621457
0.622688
0.623531
0.624008
0.624139
0.624053
0.582476
0.582521
0.582788
0.583554
0.584911
0.586775
0.589164
0.592228
0.596133
0.601023
0.606663
0.611868
0.615884
0.618902
0.621137
0.622797
0.623977
0.624656
0.624863
0.624789
0.574793
0.574814
0.575083
0.575927
0.577463
0.57961
0.582402
0.586019
0.590673
0.596554
0.603403
0.609796
0.614789
0.618599
0.621476
0.623651
0.625215
0.626111
0.626392
0.626327
0.566079
0.566095
0.566386
0.567328
0.569094
0.571604
0.574905
0.579216
0.584799
0.591895
0.600206
0.608014
0.614167
0.618909
0.622542
0.625335
0.627336
0.628471
0.628827
0.628767
0.556065
0.556055
0.556389
0.557483
0.559551
0.562523
0.566469
0.571651
0.578389
0.586974
0.597048
0.606538
0.614057
0.619898
0.624423
0.627931
0.630438
0.631834
0.632263
0.632203
0.544428
0.544396
0.544781
0.546064
0.548505
0.552071
0.55684
0.563123
0.571304
0.58172
0.593917
0.605392
0.614503
0.621628
0.627195
0.631529
0.634615
0.636285
0.636782
0.636717
0.530662
0.530608
0.531074
0.532609
0.535535
0.539873
0.545706
0.5534
0.563398
0.576068
0.59081
0.604611
0.615557
0.624153
0.630932
0.636215
0.639934
0.641883
0.642435
0.642359
0.514095
0.514018
0.514611
0.516499
0.520076
0.525442
0.532681
0.542212
0.554524
0.569974
0.587748
0.60424
0.617271
0.627534
0.635681
0.642016
0.646422
0.648635
0.64922
0.649125
0.493746
0.493654
0.494451
0.496854
0.501348
0.508143
0.517299
0.529276
0.544561
0.563438
0.584785
0.604336
0.619701
0.631815
0.641448
0.648951
0.654047
0.656472
0.657056
0.656935
0.46815
0.468058
0.469196
0.472396
0.478276
0.487156
0.499038
0.514349
0.533482
0.556549
0.582041
0.604996
0.622896
0.637007
0.648247
0.656961
0.662683
0.665227
0.665765
0.665612
0.434906
0.434862
0.436617
0.441194
0.449399
0.461549
0.477445
0.497347
0.521416
0.549512
0.579695
0.606339
0.626913
0.643112
0.656011
0.665915
0.672095
0.674612
0.675051
0.674863
0.389749
0.389916
0.393018
0.40047
0.413021
0.430551
0.45241
0.478519
0.508726
0.542663
0.577991
0.608511
0.631823
0.650101
0.664644
0.675583
0.681924
0.684216
0.684509
0.684292
0.324707
0.326084
0.333622
0.347701
0.368234
0.394324
0.424593
0.458582
0.496009
0.536429
0.577189
0.611631
0.637638
0.657909
0.67387
0.685505
0.69164
0.693485
0.69361
0.69339
0.247107
0.249815
0.264465
0.288726
0.320182
0.356405
0.395779
0.438084
0.48315
0.53061
0.577537
0.616666
0.646015
0.668773
0.686325
0.698319
0.704013
0.705507
0.705574
0.705441
0.16772
0.174834
0.196828
0.231271
0.273315
0.319435
0.367913
0.418587
0.471354
0.52588
0.57899
0.622769
0.655349
0.680464
0.699469
0.711442
0.716232
0.717193
0.717194
0.717117
0.102942
0.111985
0.138681
0.180327
0.230696
0.285211
0.341895
0.400416
0.460532
0.521797
0.580713
0.628747
0.66415
0.691092
0.710887
0.722504
0.726737
0.727553
0.727596
0.727563
0.0498979
0.0596682
0.089942
0.13694
0.193574
0.254802
0.318389
0.38381
0.450614
0.518169
0.582543
0.634571
0.672559
0.701132
0.721539
0.732965
0.736915
0.737684
0.737775
0.737783
0.00554601
0.0156294
0.0483428
0.0995167
0.161285
0.228089
0.297516
0.368941
0.441744
0.515104
0.584659
0.640502
0.680996
0.711166
0.732292
0.743698
0.747422
0.748191
0.748345
0.748397
-0.0325945
-0.0223807
0.0121512
0.0666669
0.132736
0.204335
0.278866
0.355621
0.433872
0.512628
0.587112
0.646685
0.689664
0.721454
0.743361
0.754879
0.758631
0.759464
0.759643
0.759734
-0.0662213
-0.055969
-0.0200143
0.0372678
0.107005
0.18277
0.26184
0.343435
0.42673
0.510565
0.589787
0.653035
0.698493
0.731948
0.754781
0.766702
0.770634
0.771479
0.771644
0.77174
-0.0966085
-0.086336
-0.0492329
0.0104249
0.083346
0.162781
0.245918
0.331943
0.419943
0.508654
0.592489
0.659356
0.707306
0.74248
0.766345
0.778793
0.782922
0.783776
0.783905
0.783986
-0.124742
-0.11443
-0.0763134
-0.0145473
0.0611984
0.143888
0.230682
0.320775
0.413212
0.506615
0.59499
0.66544
0.715897
0.752777
0.777694
0.790672
0.795011
0.795866
0.795956
0.796017
-0.1512
-0.140835
-0.101789
-0.0381255
0.0401207
0.125719
0.215832
0.309673
0.40627
0.504184
0.597065
0.671137
0.724072
0.762632
0.788552
0.801987
0.806563
0.807421
0.807449
0.807476
-0.176454
-0.16599
-0.126072
-0.0606857
0.0197976
0.108011
0.201137
0.298424
0.398919
0.501198
0.598572
0.676319
0.731749
0.771918
0.79874
0.812536
0.817234
0.818081
0.81806
0.818054
-0.200839
-0.190194
-0.149449
-0.082479
1.59478e-05
0.0905751
0.186434
0.286893
0.391044
0.497532
0.599389
0.680903
0.738888
0.780596
0.808167
0.82219
0.826885
0.827696
0.827633
0.827595
-0.224474
-0.213617
-0.172081
-0.103668
-0.0193652
0.0733059
0.171635
0.274998
0.382558
0.493057
0.599397
0.684843
0.745492
0.788712
0.816827
0.83088
0.835495
0.836236
0.836138
0.836075
-0.24752
-0.236399
-0.194102
-0.124335
-0.0384158
0.0561417
0.156698
0.262696
0.373398
0.487717
0.598512
0.688081
0.751614
0.796381
0.824886
0.838747
0.843131
0.843768
0.843629
0.843548
-0.26995
-0.25861
-0.215551
-0.14452
-0.0571611
0.0390716
0.141619
0.249988
0.36356
0.481467
0.596649
0.690545
0.757299
0.803789
0.832539
0.845923
0.8499
0.850371
0.850193
0.850098
-0.291866
-0.280243
-0.236413
-0.164227
-0.0756017
0.022108
0.126417
0.236908
0.353074
0.474286
0.593729
0.692155
0.762555
0.811117
0.840084
0.852663
0.855938
0.85614
0.85592
0.855824
-0.313093
-0.301277
-0.256687
-0.183459
-0.0937067
0.00530627
0.111143
0.223505
0.341979
0.466202
0.589701
0.692803
0.767327
0.818527
0.847943
0.859428
0.861511
0.861175
0.860903
0.860847
-0.333786
-0.321676
-0.27636
-0.202205
-0.111458
-0.0113071
0.0958763
0.209843
0.330341
0.45727
0.58453
0.692365
0.771484
0.826036
0.856533
0.866997
0.867324
0.86581
0.865293
0.865402
-0.353772
-0.341407
-0.295424
-0.220425
-0.128786
-0.027658
0.0806872
0.19603
0.318254
0.447534
0.578213
0.690711
0.77483
0.833469
0.866035
0.876313
0.874854
0.871222
0.869605
0.869812
-0.373163
-0.360504
-0.31383
-0.238068
-0.145664
-0.0436862
0.0656568
0.18214
0.305813
0.437111
0.570786
0.687685
0.777124
0.840447
0.876089
0.887783
0.885952
0.880163
0.874626
0.866737
-0.391847
-0.378964
-0.331666
-0.2553
-0.162312
-0.0596668
0.0504597
0.167783
0.292593
0.425536
0.561787
0.682793
0.778074
0.84686
0.886317
0.901171
0.90126
0.893939
0.882381
0.881621
-0.409786
-0.396865
-0.348937
-0.272069
-0.17872
-0.075565
0.0351211
0.152935
0.278552
0.412667
0.551005
0.675486
0.77685
0.851907
0.894875
0.912723
0.914474
0.908332
0.873745
0.835592
-0.426767
-0.414068
-0.365585
-0.288258
-0.194885
-0.0913889
0.0196365
0.137722