/*--------------------------------*- C++ -*----------------------------------*\
  =========                 |
  \\      /  F ield         | OpenFOAM: The Open Source CFD Toolbox
   \\    /   O peration     | Website:  https://openfoam.org
    \\  /    A nd           | Version:  6
     \\/     M anipulation  |
\*---------------------------------------------------------------------------*/
FoamFile
{
    version     2.0;
    format      ascii;
    class       volScalarField;
    location    "35.5";
    object      p;
}
// * * * * * * * * * * * * * * * * * * * * * * * * * * * * * * * * * * * * * //

dimensions      [0 2 -2 0 0 0 0];

internalField   nonuniform List<scalar> 
8800
(
0.957075
0.907755
0.869782
0.841699
0.821515
0.806892
0.796243
0.788638
0.783666
0.781478
0.782702
0.786922
0.793621
0.802974
0.815661
0.832947
0.856802
0.889885
0.932813
0.985323
0.791586
0.797927
0.807067
0.810604
0.807978
0.801864
0.794887
0.78859
0.783707
0.780728
0.780355
0.78284
0.787366
0.79341
0.80045
0.80744
0.812287
0.812141
0.805452
0.796545
0.765143
0.771374
0.775862
0.779715
0.782639
0.783554
0.782416
0.780222
0.778136
0.777154
0.77803
0.780349
0.783129
0.785319
0.78578
0.783947
0.78055
0.776513
0.771718
0.767999
0.760907
0.763668
0.766262
0.7684
0.770109
0.771637
0.772685
0.772956
0.772725
0.772668
0.7733
0.774291
0.774915
0.774669
0.773622
0.772213
0.770502
0.76817
0.765742
0.764174
0.755937
0.757359
0.759185
0.761244
0.762924
0.764171
0.765205
0.766092
0.766763
0.767313
0.767828
0.768123
0.768007
0.767532
0.766778
0.765596
0.763887
0.761954
0.760581
0.759779
0.751062
0.751962
0.753195
0.754797
0.756454
0.757932
0.759139
0.760151
0.761057
0.761866
0.762418
0.762604
0.762449
0.761948
0.761043
0.759772
0.758343
0.757029
0.756186
0.755664
0.746296
0.74695
0.747898
0.749192
0.750601
0.752061
0.753461
0.754703
0.755797
0.756763
0.757434
0.757671
0.757477
0.756875
0.75596
0.754909
0.753828
0.752861
0.752256
0.751875
0.741652
0.742155
0.742928
0.744045
0.745306
0.746666
0.748086
0.749495
0.750815
0.751988
0.752809
0.753105
0.75292
0.752381
0.751643
0.750812
0.749959
0.749217
0.748762
0.748468
0.737077
0.737475
0.738125
0.739126
0.740318
0.741627
0.743046
0.744549
0.746067
0.747491
0.748503
0.748915
0.748851
0.748477
0.747925
0.747273
0.746591
0.746022
0.745675
0.745439
0.732502
0.732825
0.73339
0.734317
0.735468
0.736758
0.738195
0.739771
0.741433
0.743087
0.744367
0.745036
0.745203
0.745041
0.74468
0.744206
0.743674
0.743245
0.74298
0.742787
0.727861
0.728127
0.728631
0.729512
0.730643
0.73195
0.733434
0.735109
0.736968
0.738914
0.740523
0.74149
0.741939
0.742026
0.74187
0.741574
0.741204
0.740894
0.740693
0.740531
0.723073
0.723292
0.723759
0.724628
0.725786
0.727162
0.728761
0.730608
0.732707
0.734992
0.73702
0.738384
0.739148
0.739483
0.739532
0.739403
0.739171
0.738962
0.738816
0.738679
0.718082
0.718263
0.718709
0.719597
0.720827
0.722319
0.724095
0.726203
0.728656
0.731416
0.733938
0.735726
0.736827
0.73743
0.737698
0.737735
0.737641
0.737526
0.737426
0.737308
0.712811
0.71296
0.713404
0.714339
0.715675
0.717317
0.719291
0.721701
0.724592
0.727921
0.731068
0.733383
0.734912
0.735869
0.736415
0.736653
0.73669
0.736661
0.736601
0.736499
0.707178
0.707298
0.707744
0.708733
0.710189
0.712019
0.714268
0.717037
0.720426
0.724446
0.728362
0.73136
0.733457
0.73483
0.735678
0.736173
0.736385
0.736456
0.736439
0.736349
0.701071
0.70115
0.701616
0.7027
0.70435
0.706459
0.709091
0.712394
0.71647
0.72135
0.726215
0.730032
0.732713
0.73454
0.735739
0.736469
0.736869
0.737043
0.737068
0.736988
0.694341
0.694417
0.694903
0.696089
0.697954
0.700381
0.703453
0.707373
0.712312
0.718325
0.724309
0.729057
0.732521
0.734955
0.736603
0.737678
0.738303
0.738594
0.73866
0.738588
0.686749
0.686807
0.687336
0.688656
0.690786
0.693597
0.697231
0.701912
0.707844
0.715143
0.722586
0.728591
0.732995
0.736165
0.738423
0.739924
0.74084
0.741278
0.741388
0.741318
0.678047
0.678087
0.678685
0.680172
0.682643
0.685989
0.69038
0.69611
0.703441
0.712458
0.721576
0.728935
0.73441
0.738419
0.741356
0.743364
0.744634
0.745246
0.745398
0.745323
0.667743
0.667777
0.668457
0.67018
0.673087
0.6771
0.682426
0.689415
0.698374
0.709424
0.720679
0.729797
0.736626
0.741672
0.745426
0.74807
0.749766
0.750571
0.750759
0.750669
0.655172
0.655211
0.656033
0.658111
0.661656
0.66662
0.673247
0.681965
0.693104
0.706738
0.720486
0.731574
0.739904
0.746127
0.750787
0.754128
0.75628
0.757279
0.757499
0.757389
0.639487
0.639538
0.640587
0.643223
0.647704
0.653994
0.662386
0.673362
0.687248
0.704041
0.720779
0.7342
0.744266
0.751822
0.757518
0.761633
0.764259
0.765448
0.765697
0.765563
0.61953
0.619601
0.62101
0.624524
0.630407
0.638632
0.649507
0.663536
0.680947
0.701579
0.721807
0.737854
0.749872
0.75892
0.765763
0.770711
0.773829
0.775204
0.775476
0.775317
0.593551
0.593668
0.595699
0.600666
0.608794
0.619909
0.634343
0.652459
0.674316
0.699533
0.723724
0.742692
0.756863
0.767552
0.775643
0.781518
0.785146
0.786688
0.786968
0.786779
0.558612
0.558884
0.562187
0.569778
0.581666
0.597259
0.616757
0.640264
0.667577
0.698107
0.726704
0.748839
0.765321
0.777794
0.787283
0.794148
0.79828
0.799942
0.800202
0.799977
0.508984
0.510182
0.516806
0.52979
0.548169
0.570633
0.597117
0.627435
0.661185
0.697655
0.730984
0.75643
0.775312
0.789634
0.800622
0.808547
0.813119
0.814836
0.815038
0.814768
0.436052
0.443648
0.458856
0.481707
0.509745
0.541366
0.576352
0.614509
0.655458
0.698488
0.737048
0.766211
0.787844
0.804386
0.817181
0.82627
0.831427
0.833325
0.833556
0.833331
0.358475
0.374654
0.399285
0.432668
0.470922
0.511894
0.555494
0.601756
0.650393
0.700821
0.745751
0.779787
0.805176
0.824748
0.83993
0.850601
0.856515
0.858627
0.858925
0.858854
0.292152
0.311948
0.34438
0.386727
0.433989
0.483752
0.535752
0.589941
0.646083
0.703601
0.75453
0.793099
0.821947
0.844155
0.86122
0.873068
0.879586
0.882046
0.882379
0.882367
0.238207
0.260148
0.297813
0.346534
0.400834
0.457957
0.51736
0.578831
0.641979
0.706199
0.762725
0.805362
0.837154
0.861388
0.879787
0.892744
0.900275
0.902923
0.903347
0.903405
0.19361
0.216739
0.258102
0.31175
0.371683
0.434868
0.500565
0.568464
0.637994
0.708382
0.770059
0.816327
0.850543
0.876465
0.896022
0.909907
0.918094
0.921132
0.921731
0.921834
0.155656
0.179514
0.223563
0.281139
0.345731
0.41405
0.485211
0.558789
0.634066
0.710123
0.776466
0.825964
0.862283
0.889564
0.910077
0.924638
0.933329
0.936785
0.937563
0.937674
0.122342
0.146696
0.192831
0.25359
0.322079
0.394836
0.470833
0.549528
0.630077
0.711342
0.782001
0.834366
0.872498
0.900868
0.922082
0.937101
0.946117
0.949886
0.950799
0.950912
0.0921511
0.116953
0.164767
0.228202
0.300017
0.376637
0.456969
0.540352
0.625792
0.711957
0.786671
0.841717
0.881458
0.910769
0.93252
0.947856
0.957084
0.961066
0.962033
0.962115
0.0640795
0.0893323
0.138609
0.204333
0.279002
0.359025
0.443266
0.530952
0.620992
0.711846
0.790489
0.848135
0.889416
0.919604
0.94181
0.957388
0.966751
0.970814
0.971802
0.971839
0.0373295
0.0630851
0.11371
0.181489
0.258661
0.341704
0.429472
0.521131
0.615495
0.710888
0.793435
0.853694
0.896554
0.927627
0.950291
0.966074
0.975461
0.979538
0.980583
0.980624
0.0115678
0.0378131
0.08969
0.159313
0.238719
0.324466
0.415432
0.510747
0.609187
0.708994
0.795477
0.858481
0.903039
0.935103
0.958283
0.974282
0.983698
0.987705
0.988697
0.988711
-0.0135989
0.0132365
0.0662896
0.137585
0.219
0.307178
0.401048
0.499724
0.601997
0.706097
0.796605
0.862548
0.909
0.942191
0.965976
0.982225
0.991672
0.995604
0.996478
0.996426
-0.0382548
-0.0108144
0.043357
0.116192
0.199416
0.289779
0.386275
0.488035
0.593893
0.702167
0.796797
0.865927
0.914514
0.948998
0.973487
0.990011
0.999434
1.00323
1.00398
1.00385
-0.0624838
-0.0344329
0.020825
0.0950837
0.179935
0.272256
0.371115
0.475678
0.584871
0.697166
0.795988
0.868569
0.919586
0.955586
0.980872
0.997665
1.00699
1.01055
1.01115
1.01097
-0.0863307
-0.057632
-0.00130587
0.0742503
0.160554
0.254634
0.355605
0.462696
0.574949
0.691059
0.794088
0.870377
0.924206
0.962014
0.988208
1.00522
1.01433
1.01757
1.01801
1.01778
-0.109809
-0.0803886
-0.0230285
0.0537142
0.141328
0.236961
0.339805
0.449143
0.564159
0.683826
0.791013
0.871247
0.928311
0.968338
0.99561
1.01273
1.02141
1.02421
1.02446
1.02419
-0.132735
-0.102642
-0.0442991
0.0335157
0.122304
0.219314
0.323789
0.435104
0.552574
0.675493
0.786699
0.871042
0.931752
0.974566
1.00328
1.02039
1.02825
1.03038
1.03041
1.03013
-0.155056
-0.124327
-0.0650652
0.0137231
0.103555
0.201763
0.307656
0.42067
0.540283
0.666101
0.781102
0.869603
0.934319
0.980598
1.01145
1.02866
1.03515
1.03609
1.03578
1.03553
-0.176818
-0.145396
-0.0852828
-0.00561166
0.0851527
0.184401
0.291504
0.405952
0.527392
0.655723
0.774174
0.866797
0.935743
0.986119
1.02024
1.03837
1.04314
1.04181
1.04057
1.04049
-0.197843
-0.165807
-0.104884
-0.0244133
0.0671641
0.167315
0.275435
0.391069
0.514026
0.644471
0.765919
0.86249
0.935738
0.990577
1.02921
1.0502
1.05446
1.05011
1.04574
1.04367
-0.21822
-0.185555
-0.12387
-0.0427083
0.0495574
0.150462
0.259394
0.375957
0.500106
0.632274
0.756188
0.856416
0.933998
0.993293
1.03722
1.06362
1.07086
1.06603
1.05427
1.05212
-0.237852
-0.204709
-0.142373
-0.0606907
0.0320323
0.133491
0.242948
0.360103
0.485054
0.618454
0.744262
0.847724
0.929857
0.993257
1.04178
1.07468
1.08627
1.07848
1.06109
1.05465
-0.256597
-0.223225
-0.160214
-0.0781495
0.0148379
0.11671
0.22632
0.343846
0.469191
0.603301
0.730287
0.835968
0.922743
0.989421
1.03806
1.07074
1.08653
1.06609
1.00627
0.979132
-0.274331
-0.241853
-0.17699
-0.0945618
-0.00135872
0.100605
0.209778
0.327459
0.452801
0.587002
0.714371
0.82073
0.911927
0.981295
1.02221
1.04724
1.04695
1.00093
0.938502
0.899855
-0.318706
-0.259722
-0.192658
-0.110512
-0.017329
0.084273
0.19345
0.310824
0.43569
0.569245
0.696179
0.801634
0.894223
0.968053
0.994125
0.993332
0.958428
0.900288
0.83287
0.795642
-0.29372
-0.275479
-0.21611
-0.134247
-0.0414872
0.0598156
0.168203
0.284719
0.408338
0.539948
0.664562
0.766919
0.851016
0.928403
0.922927
0.827046
0.743723
0.685779
0.624103
0.655203
-0.325691
-0.293859
-0.233704
-0.152292
-0.0596122
0.0413083
0.149747
0.265499
0.38792
0.517482
0.639119
0.737621
0.8123
0.854362
0.812768
0.682771
0.579678
0.510316
0.430223
0.480504
-0.350623
-0.316285
-0.254268
-0.172648
-0.0800215
0.0207836
0.129038
0.24389
0.364805
0.491766
0.609454
0.702196
0.76513
0.772156
0.674501
0.524525
0.399482
0.310509
0.216131
0.252474
-0.374942
-0.339451
-0.275973
-0.19366
-0.100886
-0.000215392
0.107501
0.221303
0.340511
0.464527
0.577411
0.663483
0.709835
0.684615
0.533527
0.359523
0.201521
0.0685546
-0.0553138
-0.0362995
-0.398989
-0.363041
-0.298603
-0.215667
-0.122668
-0.022187
0.0848628
0.197486
0.314731
0.435446
0.542857
0.621607
0.648101
0.583028
0.395439
0.199008
0.0112104
-0.143657
-0.3528
-0.432389
-0.423438
-0.38751
-0.322483
-0.239064
-0.14582
-0.045473
0.0609789
0.172406
0.287592
0.404817
0.506447
0.576209
0.580396
0.462014
0.269589
0.0590803
-0.13561
-0.300146
-0.426986
-0.554438
-0.449346
-0.413328
-0.347959
-0.264238
-0.170876
-0.0707527
0.0350064
0.145068
0.257872
0.371111
0.466505
0.525027
0.502756
0.345932
0.151662
-0.0531375
-0.230864
-0.330589
-0.357531
-0.371558
-0.476856
-0.44077
-0.375154
-0.291285
-0.19798
-0.0982423
0.00658206
0.114964
0.224951
0.33352
0.422226
0.465006
0.422532
0.23496
0.0420798
-0.142966
-0.277514
-0.3165
-0.326134
-0.326204
-0.506249
-0.469953
-0.404097
-0.320176
-0.227068
-0.127937
-0.0243025
0.0820481
0.18876
0.292002
0.373084
0.400326
0.329989
0.132964
-0.0533956
-0.214507
-0.291362
-0.305471
-0.30692
-0.306776
-0.537509
-0.500905
-0.434788
-0.350888
-0.258136
-0.159806
-0.0576342
0.0463162
0.149297
0.246667
0.318691
0.332172
0.223593
0.0395744
-0.136977
-0.264905
-0.295192
-0.29579
-0.296476
-0.296137
-0.570371
-0.533431
-0.467091
-0.383311
-0.291065
-0.19377
-0.0933575
0.00781906
0.106589
0.197625
0.260013
0.254347
0.126369
-0.0477502
-0.20418
-0.277702
-0.293202
-0.290287
-0.289322
-0.288911
-0.604231
-0.567158
-0.500717
-0.417181
-0.325628
-0.229629
-0.131284
-0.0332743
0.0608425
0.14513
0.197874
0.17362
0.0352188
-0.124496
-0.250907
-0.287356
-0.28698
-0.287888
-0.287163
-0.286076
-0.638642
-0.601529
-0.53516
-0.452038
-0.361415
-0.267005
-0.171078
-0.0766296
0.0124075
0.0898336
0.131131
0.0923805
-0.0515219
-0.185692
-0.282477
-0.289628
-0.289316
-0.287965
-0.286385
-0.285738
-0.672523
-0.635622
-0.56964
-0.487192
-0.3978
-0.305335
-0.212212
-0.121689
-0.0381754
0.0323097
0.0635295
0.00771324
-0.139477
-0.230021
-0.293235
-0.307992
-0.292917
-0.28027
-0.278192
-0.278484
-0.704284
-0.668173
-0.603095
-0.521706
-0.433916
-0.343772
-0.253921
-0.167626
-0.0900811
-0.0270085
0.00035093
-0.0853968
-0.239286
-0.283815
-0.277398
-0.300308
-0.309331
-0.308109
-0.302117
-0.299251
-0.732635
-0.697682
-0.634112
-0.554328
-0.468624
-0.381187
-0.2951
-0.213439
-0.142046
-0.0868869
-0.0629931
-0.167921
-0.364352
-0.421264
-0.382593
-0.394843
-0.413844
-0.417143
-0.407384
-0.401707
-0.755057
-0.722087
-0.660944
-0.583478
-0.50052
-0.416233
-0.334153
-0.257909
-0.192506
-0.145105
-0.132717
-0.231831
-0.475878
-0.725415
-0.694716
-0.591735
-0.542426
-0.537958
-0.529345
-0.52537
-0.769559
-0.739334
-0.681549
-0.60735
-0.52793
-0.447407
-0.369284
-0.298884
-0.239793
-0.2004
-0.197602
-0.29615
-0.471094
-0.769091
-0.806325
-0.669564
-0.632457
-0.613561
-0.603678
-0.60105
-0.773465
-0.74709
-0.693912
-0.62405
-0.548964
-0.472993
-0.399068
-0.333001
-0.281876
-0.251036
-0.234397
-0.347382
-0.319554
-0.257055
-0.255198
-0.494244
-0.604577
-0.598004
-0.598019
-0.597111
-0.765119
-0.743259
-0.696017
-0.631848
-0.561862
-0.491116
-0.421935
-0.358675
-0.312901
-0.290263
-0.277648
-0.363309
-0.261639
-0.0651698
-0.15099
-0.390891
-0.551646
-0.565327
-0.572437
-0.572576
-0.74158
-0.725019
-0.686044
-0.629511
-0.565672
-0.500098
-0.43564
-0.376017
-0.329012
-0.312565
-0.347364
-0.460501
-0.599918
-0.709968
-0.98847
-1.15408
-1.11448
-0.8753
-0.734884
-0.734535
-0.705658
-0.694565
-0.664682
-0.617177
-0.56029
-0.499499
-0.438743
-0.381325
-0.334159
-0.308748
-0.365432
-0.566146
-1.06195
-1.52669
-1.81508
-1.95527
-1.88431
-1.69416
-1.46984
-1.38194
-0.662679
-0.656243
-0.63602
-0.597393
-0.54713
-0.490572
-0.431214
-0.371887
-0.320691
-0.294912
-0.289866
-0.481408
-0.865376
-1.44335
-1.70483
-1.81924
-1.80195
-1.67148
-1.51346
-1.40467
-0.62072
-0.617121
-0.605465
-0.575213
-0.529727
-0.474842
-0.414633
-0.351489
-0.283955
-0.224194
-0.155135
-0.159947
-0.363844
-0.577367
-0.661544
-0.460524
-0.139601
0.131636
0.303993
0.380767
-0.586469
-0.584399
-0.578381
-0.555483
-0.5131
-0.457167
-0.391508
-0.31876
-0.235282
-0.123525
-0.00978109
0.186306
0.44505
0.887261
1.41406
1.90315
2.326
2.59725
2.71665
2.74885
-0.557368
-0.556636
-0.554907
-0.54005
-0.500841
-0.44187
-0.370447
-0.283906
-0.190702
-0.0666191
0.0834708
0.253555
0.6151
1.08304
1.71993
2.29475
2.69311
2.93143
3.04311
3.07713
-0.535648
-0.535165
-0.535076
-0.526805
-0.492237
-0.430437
-0.351905
-0.261774
-0.155154
-0.0426414
0.0979069
0.223052
0.426598
0.883064
1.40792
1.86603
2.22508
2.4497
2.55393
2.58193
-0.519472
-0.518287
-0.518269
-0.515225
-0.485343
-0.420839
-0.335764
-0.243834
-0.140956
-0.0283792
0.0800102
0.190655
0.279843
0.603036
1.03369
1.39062
1.65416
1.80432
1.87029
1.88782
-0.513397
-0.512739
-0.514779
-0.512806
-0.480121
-0.407741
-0.318038
-0.224794
-0.129292
-0.0266058
0.0686614
0.156894
0.235058
0.416924
0.711504
0.974454
1.15664
1.25435
1.29388
1.30376
-0.503407
-0.506504
-0.511814
-0.506966
-0.465073
-0.382803
-0.290537
-0.201233
-0.112212
-0.0215277
0.0577582
0.120489
0.179122
0.321437
0.516114
0.675708
0.783278
0.843402
0.870547
0.876624
-0.447006
-0.452832
-0.459899
-0.451924
-0.405834
-0.327338
-0.24644
-0.167883
-0.0928008
-0.017083
0.0467283
0.0974037
0.126791
0.227951
0.370333
0.472966
0.538144
0.572532
0.586401
0.588672
-0.313033
-0.318923
-0.324985
-0.319128
-0.286351
-0.235473
-0.181308
-0.123923
-0.0667851
-0.00836867
0.0402461
0.0794932
0.102045
0.154464
0.249728
0.32184
0.366514
0.391808
0.401396
0.402241
-0.14342
-0.146693
-0.151397
-0.15286
-0.144591
-0.128294
-0.104097
-0.0739378
-0.0374602
0.00489137
0.0393797
0.0698651
0.0949581
0.132074
0.188651
0.232452
0.262188
0.279239
0.286542
0.286685
-0.00753451
-0.00897389
-0.0133215
-0.0221877
-0.032503
-0.0386919
-0.0372285
-0.0281866
-0.00898145
0.0186254
0.045004
0.0692372
0.0983935
0.12414
0.162733
0.187596
0.203443
0.212776
0.215685
0.214703
0.067492
0.0667103
0.0626653
0.051953
0.0357791
0.0202969
0.0104909
0.00787894
0.0146586
0.0303142
0.0509551
0.0705781
0.0937772
0.109819
0.133657
0.149298
0.160784
0.16775
0.169971
0.168703
0.0964457
0.0958092
0.0924884
0.0833573
0.0687673
0.0531775
0.0406611
0.0331938
0.0319916
0.0397332
0.0517741
0.0655208
0.0826142
0.090269
0.103039
0.113815
0.124409
0.131312
0.133218
0.132005
0.101625
0.101107
0.0987173
0.092286
0.0815145
0.0689191
0.0574896
0.0488825
0.0439677
0.0439675
0.0480603
0.0501269
0.0590946
0.0608064
0.069159
0.0807706
0.0922298
0.0987191
0.100966
0.0996079
0.0972268
0.0967969
0.0951651
0.0910321
0.0838719
0.0749781
0.0656229
0.0579571
0.0515722
0.0470737
0.0428084
0.0295508
0.0201665
0.0182545
0.0347971
0.0514108
0.0634604
0.0690412
0.0706541
0.0694306
0.0905034
0.0901435
0.0890355
0.0865036
0.082025
0.076134
0.0693022
0.0632225
0.0568213
0.0514426
0.0396563
0.0152863
-0.00729577
-0.00838091
0.0130016
0.0306728
0.0405232
0.0442797
0.0451253
0.0448678
0.0845085
0.0842202
0.0834577
0.0819089
0.0792539
0.0755326
0.071264
0.0666108
0.0624288
0.0573763
0.0457443
0.0232809
0.00212859
0.00811662
0.0271599
0.0380095
0.0422802
0.0424174
0.0422599
0.0418676
0.0798912
0.079675
0.0791301
0.0780564
0.0764675
0.0741963
0.0716779
0.0691783
0.0672428
0.065427
0.061101
0.0540992
0.0479579
0.0554467
0.0625668
0.0655603
0.0655616
0.0642357
0.0635997
0.0630428
0.0762114
0.0760617
0.0756842
0.0748582
0.073644
0.0724528
0.0711523
0.0702635
0.0707993
0.0725173
0.0804446
0.0937889
0.104744
0.111316
0.109727
0.102531
0.0991637
0.0987292
0.0987487
0.0979901
0.0727072
0.0726193
0.0724018
0.0717445
0.0709606
0.0697676
0.0693209
0.0691995
0.0712155
0.0766091
0.0941769
0.126149
0.158726
0.15904
0.142092
0.131756
0.129082
0.129731
0.129043
0.127282
0.0686523
0.0686274
0.068585
0.0682639
0.0673705
0.0667236
0.0658684
0.0663818
0.0676079
0.074417
0.09244
0.131838
0.17046
0.16916
0.146951
0.138335
0.133376
0.136265
0.134718
0.132882
0.0634507
0.0634535
0.0635077
0.0634078
0.0629067
0.0622951
0.0618161
0.0613021
0.0609782
0.0647984
0.0743426
0.104667
0.129489
0.120777
0.106672
0.100072
0.106363
0.108365
0.106316
0.104667
0.0567209
0.0567394
0.0568772
0.0571814
0.0573398
0.0569583
0.0564736
0.0560015
0.0550247
0.0492459
0.0433925
0.0494908
0.0441465
0.0355828
0.0344369
0.0411612
0.0453419
0.0465801
0.0433025
0.0410547
0.0487509
0.0487291
0.0489421
0.0493069
0.0498685
0.0504106
0.0502387
0.0496673
0.0475685
0.0347816
0.0153723
-0.0145825
-0.0550933
-0.0652698
-0.0573495
-0.0500821
-0.0541911
-0.0551138
-0.0550591
-0.0549887
0.0399777
0.0400018
0.0404646
0.0414163
0.0425745
0.043784
0.0450574
0.0446845
0.0409007
0.0273506
0.00322834
-0.0432318
-0.101649
-0.113648
-0.109538
-0.116711
-0.135342
-0.144956
-0.144159
-0.143344
0.0293418
0.0293492
0.030068
0.0313673
0.0333223
0.0357757
0.038141
0.0403903
0.0389955
0.02673
0.0111237
-0.0257569
-0.0739573
-0.0934928
-0.10994
-0.145863
-0.178186
-0.190611
-0.186374
-0.181521
0.0166693
0.0164753
0.0168924
0.0183509
0.0207013
0.0235248
0.0273512
0.0322937
0.0331159
0.0231565
0.0196778
0.0115006
-0.0164495
-0.0440261
-0.0638474
-0.0908649
-0.116138
-0.125988
-0.125577
-0.123058
0.00413243
0.0038951
0.00344172
0.0028735
0.00264488
0.00263317
0.00338894
0.00470297
0.00664117
0.00488724
0.0110477
0.0225403
0.0201963
0.00206669
-0.00932308
-0.0208048
-0.0223717
-0.0250281
-0.0230198
-0.0211732
0.101974
0.297217
0.477668
0.630934
0.755608
0.856002
0.940544
1.009
1.02683
1.02282
0.405581
0.531988
0.650669
0.754483
0.842675
0.916105
0.97415
1.01341
1.03436
1.0507
0.612314
0.696534
0.779964
0.853753
0.917041
0.969647
1.01104
1.0424
1.06571
1.08492
0.764094
0.823275
0.883708
0.938158
0.985236
1.02519
1.05855
1.08633
1.10719
1.12613
0.883381
0.928495
0.973918
1.01586
1.05311
1.08592
1.11451
1.13864
1.15696
1.17503
0.985258
1.02166
1.05755
1.09222
1.1241
1.15287
1.17822
1.19945
1.21547
1.23298
1.07469
1.10747
1.14026
1.17192
1.20138
1.22812
1.25155
1.27072
1.28481
1.30186
1.16264
1.19559
1.22839
1.2599
1.28894
1.31497
1.33731
1.355
1.36751
1.38407
1.25762
1.29419
1.32917
1.36183
1.3912
1.41673
1.438
1.4544
1.46611
1.48228
1.37097
1.41156
1.44876
1.48191
1.51055
1.53467
1.5544
1.56975
1.58171
1.5978
1.51242
1.55367
1.58904
1.61875
1.64405
1.66574
1.6843
1.69983
1.71299
1.72895
1.6842
1.71684
1.74371
1.76605
1.78618
1.80494
1.82272
1.83951
1.85445
1.87018
1.87071
1.88803
1.90519
1.92189
1.938
1.95276
1.96668
1.98117
1.99643
2.01373
2.05411
2.06414
2.07736
2.08836
2.09777
2.10744
2.11807
2.12826
2.13756
2.16323
2.2721
2.2664
2.25346
2.2392
2.23291
2.23864
2.25679
2.28531
2.31908
2.35541
2.5749
2.43894
2.35945
2.31697
2.29966
2.30363
2.33107
2.38894
2.49661
2.67501
0.860771
0.854466
0.84673
0.835605
0.82202
0.809351
0.798924
0.790866
0.785087
0.781674
0.781219
0.783945
0.789091
0.796385
0.80589
0.817688
0.831229
0.844143
0.853122
0.860657
0.769863
0.77578
0.783847
0.789969
0.793023
0.79249
0.789375
0.785334
0.781679
0.779307
0.779063
0.781203
0.784867
0.789247
0.793299
0.795508
0.794408
0.789753
0.782684
0.774843
0.763158
0.765529
0.768789
0.771551
0.773985
0.776151
0.777297
0.7771
0.776092
0.775185
0.775279
0.776579
0.778263
0.779416
0.779281
0.77777
0.775578
0.773191
0.770191
0.767165
0.758428
0.759516
0.761426
0.76375
0.765602
0.766974
0.768153
0.76909
0.769605
0.769865
0.770282
0.770898
0.771263
0.771055
0.770356
0.76938
0.768008
0.766007
0.763878
0.762393
0.753485
0.754119
0.755241
0.756986
0.75881
0.760374
0.761581
0.762579
0.763465
0.764233
0.764862
0.765229
0.765239
0.764928
0.764306
0.763265
0.761784
0.760131
0.758765
0.757955
0.748665
0.749104
0.749887
0.751176
0.752676
0.754207
0.755632
0.756851
0.757899
0.758831
0.759598
0.760018
0.760043
0.759678
0.758911
0.757826
0.756603
0.755404
0.754466
0.753926
0.743962
0.74429
0.744897
0.745956
0.747232
0.748599
0.750023
0.751414
0.752691
0.753837
0.754769
0.755275
0.755292
0.754882
0.754148
0.753251
0.752311
0.751382
0.750678
0.750279
0.739363
0.739617
0.740107
0.741011
0.742167
0.743445
0.744818
0.746265
0.74772
0.749091
0.750225
0.750865
0.750948
0.750626
0.750057
0.749356
0.748598
0.747874
0.747339
0.747034
0.734796
0.734997
0.735405
0.736203
0.737285
0.738517
0.739873
0.74136
0.742934
0.744518
0.7459
0.746735
0.747002
0.746867
0.746487
0.745968
0.745378
0.74482
0.744415
0.744174
0.730198
0.730358
0.730708
0.731436
0.732478
0.733692
0.735061
0.7366
0.738301
0.740095
0.741762
0.742896
0.743423
0.743536
0.743374
0.743037
0.742614
0.742191
0.74189
0.741699
0.725494
0.725622
0.725928
0.726612
0.727634
0.728866
0.730293
0.73193
0.733791
0.735841
0.737856
0.739367
0.74023
0.740623
0.74069
0.740543
0.740283
0.74
0.739786
0.739634
0.720611
0.720711
0.720988
0.721658
0.722707
0.724012
0.725556
0.727383
0.729507
0.731915
0.734375
0.736322
0.737542
0.738213
0.738502
0.73854
0.73843
0.738264
0.738124
0.738004
0.715493
0.715569
0.715829
0.716507
0.717617
0.719035
0.720736
0.722796
0.725252
0.728101
0.731113
0.7336
0.735252
0.736265
0.736829
0.737081
0.737123
0.737066
0.736991
0.736897
0.710048
0.7101
0.710347
0.71105
0.712245
0.713801
0.715698
0.718021
0.72088
0.724303
0.727996
0.731123
0.7333
0.734754
0.735667
0.736186
0.736411
0.736485
0.736475
0.736405
0.704186
0.704214
0.704457
0.705203
0.706508
0.708248
0.710423
0.713137
0.716474
0.72052
0.725041
0.729035
0.731916
0.733873
0.735146
0.73594
0.7364
0.736614
0.736673
0.736627
0.697797
0.697806
0.698048
0.698847
0.700309
0.702309
0.704839
0.708049
0.712108
0.717099
0.722669
0.727585
0.731178
0.733719
0.735442
0.736549
0.737262
0.737622
0.737751
0.737725
0.690668
0.690657
0.690912
0.691785
0.693424
0.695697
0.69863
0.7024
0.707201
0.713196
0.720038
0.726223
0.730839
0.734162
0.736478
0.738073
0.739114
0.739668
0.739879
0.739871
0.682562
0.682526
0.682806
0.683781
0.685643
0.688292
0.691783
0.696344
0.702221
0.70959
0.718001
0.72562
0.731342
0.735528
0.738543
0.740694
0.742126
0.74292
0.743223
0.743229
0.673115
0.673061
0.673381
0.674501
0.676644
0.67977
0.683966
0.689501
0.696679
0.70573
0.71608
0.725464
0.732577
0.737836
0.741694
0.744503
0.746417
0.747499
0.747901
0.747912
0.661747
0.661678
0.662073
0.663392
0.665922
0.669694
0.674827
0.681643
0.690503
0.701639
0.714361
0.725886
0.734622
0.741135
0.745985
0.749567
0.752046
0.753443
0.753942
0.753951
0.647691
0.647608
0.648134
0.649791
0.652908
0.65762
0.664065
0.672625
0.683708
0.69752
0.713108
0.727114
0.737697
0.745628
0.751574
0.755999
0.75909
0.760809
0.761402
0.761404
0.629966
0.629874
0.630612
0.632783
0.636776
0.64284
0.651111
0.662025
0.675977
0.693104
0.712147
0.729058
0.741791
0.751324
0.75853
0.763909
0.767646
0.769688
0.770371
0.770365
0.607155
0.607068
0.608158
0.611144
0.616527
0.624626
0.63556
0.649749
0.667483
0.688738
0.711837
0.73203
0.74713
0.758444
0.767029
0.773435
0.777868
0.780239
0.780999
0.780979
0.577009
0.576975
0.578696
0.583065
0.590778
0.602102
0.616986
0.63568
0.658273
0.684495
0.712255
0.736096
0.753798
0.767072
0.777148
0.784718
0.789884
0.792559
0.793372
0.793328
0.535477
0.535657
0.53876
0.546013
0.557964
0.574555
0.595279
0.620057
0.64871
0.680761
0.713711
0.741477
0.761928
0.777258
0.788963
0.797788
0.803707
0.806603
0.807422
0.807341
0.474843
0.476203
0.483719
0.497503
0.517206
0.542118
0.571015
0.603515
0.639331
0.677908
0.716427
0.748279
0.77154
0.788978
0.802335
0.812438
0.819005
0.82204
0.822772
0.822647
0.401695
0.404498
0.419015
0.442847
0.47326
0.507982
0.545784
0.586548
0.63012
0.676022
0.721187
0.758327
0.785506
0.806028
0.821817
0.833529
0.841068
0.844539
0.845479
0.845493
0.32698
0.334128
0.355786
0.389496
0.430174
0.474527
0.52125
0.570374
0.621791
0.675132
0.727101
0.769724
0.801025
0.824806
0.843237
0.856876
0.865456
0.868922
0.869787
0.869941
0.266545
0.275329
0.301642
0.342336
0.390985
0.443443
0.498219
0.555149
0.614053
0.674468
0.732882
0.780591
0.815605
0.842142
0.862505
0.877456
0.886599
0.890728
0.892165
0.892427
0.217093
0.226549
0.256265
0.302048
0.35671
0.415673
0.477214
0.541002
0.6067
0.673712
0.738114
0.790479
0.828687
0.85745
0.879305
0.89539
0.905581
0.910448
0.912142
0.912447
0.175765
0.185452
0.217433
0.267137
0.326667
0.391008
0.458248
0.527997
0.599755
0.672767
0.742679
0.79923
0.840225
0.870827
0.89399
0.910996
0.922015
0.927396
0.929312
0.92966
0.140017
0.1498
0.183492
0.236274
0.299775
0.368652
0.440858
0.515876
0.593081
0.671589
0.746547
0.806881
0.850318
0.882457
0.906611
0.924342
0.935948
0.941822
0.943881
0.944229
0.10819
0.118008
0.152995
0.208325
0.27514
0.347894
0.424468
0.504233
0.586448
0.670029
0.749701
0.813523
0.859125
0.892578
0.917504
0.935724
0.947696
0.953876
0.956067
0.956436
0.0790155
0.0888861
0.124965
0.182445
0.252059
0.328165
0.408621
0.492708
0.579551
0.66793
0.752083
0.819242
0.866882
0.901532
0.927121
0.94573
0.957939
0.964308
0.96653
0.966897
0.0515641
0.0615036
0.0986006
0.157987
0.230038
0.309073
0.392991
0.481012
0.572173
0.665114
0.753639
0.824082
0.87374
0.909557
0.935783
0.954717
0.967073
0.97353
0.975732
0.976018
0.0252636
0.035333
0.0733721
0.134476
0.208695
0.290332
0.37736
0.468974
0.564148
0.661451
0.754286
0.828065
0.879825
0.916883
0.943796
0.963066
0.975551
0.981984
0.98418
0.984409
-0.000265498
0.00999678
0.0489467
0.111623
0.187777
0.271744
0.361582
0.456475
0.555384
0.656852
0.753969
0.83122
0.88525
0.923696
0.951392
0.97104
0.983665
0.990064
0.99217
0.992387
-0.0252678
-0.0147345
0.0251006
0.0892359
0.167145
0.253199
0.345574
0.443459
0.545828
0.651271
0.752656
0.833557
0.890095
0.930115
0.958715
0.978813
0.991575
0.997912
0.999891
1.00005
-0.0497762
-0.0389751
0.00171098
0.0672196
0.146727
0.234658
0.329311
0.429909
0.535467
0.644675
0.750304
0.835056
0.894375
0.9362
0.965849
0.986446
0.99931
1.0055
1.00732
1.00739
-0.0738937
-0.0627919
-0.0212608
0.0455542
0.126497
0.21611
0.312805
0.415845
0.52432
0.637064
0.746851
0.835624
0.898042
0.941987
0.97286
0.993985
1.00689
1.01286
1.01444
1.01442
-0.0975891
-0.0861776
-0.0437857
0.0242341
0.106475
0.197592
0.296109
0.401323
0.512428
0.628432
0.742239
0.835151
0.901027
0.947493
0.979836
1.0015
1.01429
1.01988
1.02119
1.02109
-0.120877
-0.1091
-0.0658409
0.00328948
0.0867019
0.179158
0.279279
0.386416
0.499854
0.618811
0.736427
0.833541
0.903201
0.952673
0.986886
1.00915
1.02158
1.02653
1.02748
1.0273
-0.143509
-0.13148
-0.0873754
-0.0172283
0.0672428
0.16089
0.262396
0.371207
0.486687
0.608271
0.729409
0.830692
0.904382
0.957398
0.994119
1.01723
1.02896
1.03282
1.03324
1.03298
-0.165629
-0.153246
-0.108333
-0.0372683
0.0481476
0.142842
0.245563
0.35579
0.473027
0.596908
0.721197
0.826498
0.904373
0.961407
1.0015
1.02622
1.03715
1.03912
1.03845
1.03808
-0.187037
-0.174347
-0.128683
-0.0567666
0.0295083
0.125107
0.228869
0.340296
0.458992
0.584803
0.711838
0.820881
0.902979
0.96432
1.00867
1.03645
1.04751
1.047
1.0438
1.04269
-0.207819
-0.194792
-0.148354
-0.0756579
0.0113706
0.107759
0.212407
0.324811
0.444699
0.572106
0.701421
0.81377
0.900017
0.965702
1.0148
1.04742
1.06119
1.06001
1.05299
1.04268
-0.227854
-0.21457
-0.167439
-0.0941063
-0.00649058
0.0905005
0.195818
0.308907
0.429664
0.558267
0.689374
0.804512
0.894912
0.965025
1.01878
1.05747
1.07732
1.07847
1.06827
1.06387
-0.247089
-0.233757
-0.185925
-0.112039
-0.0240454
0.0733549
0.179141
0.292569
0.413866
0.543183
0.675548
0.792705
0.887039
0.961514
1.01827
1.06088
1.08428
1.09058
1.05767
1.01743
-0.26529
-0.252205
-0.203753
-0.129331
-0.0412646
0.056303
0.162396
0.275938
0.397387
0.526916
0.659915
0.778121
0.87551
0.95456
1.01156
1.04735
1.07132
1.06029
1.00857
0.951544
-0.28518
-0.268677
-0.22058
-0.145534
-0.0579735
0.0396089
0.145256
0.259068
0.380327
0.509589
0.642441
0.760618
0.858848
0.944919
0.997442
1.03276
1.02068
0.983533
0.921576
0.861451
-0.275142
-0.251253
-0.200749
-0.121149
-0.0284136
0.0732003
0.184324