/*--------------------------------*- C++ -*----------------------------------*\
  =========                 |
  \\      /  F ield         | OpenFOAM: The Open Source CFD Toolbox
   \\    /   O peration     | Website:  https://openfoam.org
    \\  /    A nd           | Version:  6
     \\/     M anipulation  |
\*---------------------------------------------------------------------------*/
FoamFile
{
    version     2.0;
    format      ascii;
    class       volScalarField;
    location    "62.1";
    object      p;
}
// * * * * * * * * * * * * * * * * * * * * * * * * * * * * * * * * * * * * * //

dimensions      [0 2 -2 0 0 0 0];

internalField   nonuniform List<scalar> 
8800
(
0.839327
0.790011
0.752042
0.723969
0.7038
0.689203
0.67859
0.671028
0.666114
0.664006
0.665335
0.669644
0.676413
0.685817
0.698541
0.715853
0.739725
0.772819
0.815754
0.868267
0.673827
0.680171
0.689318
0.692863
0.690248
0.68415
0.677196
0.670935
0.666107
0.663202
0.662929
0.665518
0.67013
0.676237
0.683322
0.690345
0.695217
0.695088
0.68841
0.679509
0.647355
0.653589
0.658085
0.661949
0.664889
0.665826
0.66472
0.662574
0.660561
0.65968
0.660668
0.663084
0.665943
0.668194
0.668701
0.666903
0.663531
0.659513
0.654729
0.651013
0.643073
0.645837
0.648438
0.650589
0.652316
0.65387
0.654954
0.65528
0.655131
0.655183
0.655939
0.657042
0.657753
0.657581
0.656591
0.655225
0.653548
0.65124
0.648827
0.64726
0.638043
0.639466
0.6413
0.643372
0.645072
0.646349
0.647425
0.648375
0.649144
0.649829
0.650484
0.6509
0.65089
0.650501
0.649816
0.648688
0.647023
0.645122
0.643766
0.642963
0.633085
0.633987
0.635227
0.636843
0.638523
0.640036
0.641295
0.642383
0.643401
0.644359
0.645082
0.64542
0.645391
0.644995
0.644171
0.642968
0.641595
0.640322
0.639498
0.638974
0.628217
0.628873
0.629827
0.631132
0.632563
0.634058
0.635513
0.636838
0.638047
0.639183
0.640062
0.640497
0.640469
0.639998
0.639193
0.638233
0.637227
0.636314
0.635731
0.635347
0.623439
0.623943
0.624721
0.625847
0.627129
0.628521
0.629996
0.631492
0.632943
0.634319
0.635389
0.635928
0.635953
0.63559
0.634998
0.634288
0.633534
0.63286
0.63243
0.632131
0.618695
0.619096
0.619747
0.620753
0.621961
0.623298
0.624764
0.626352
0.628013
0.629666
0.630982
0.631704
0.631915
0.631777
0.631421
0.630928
0.630378
0.629897
0.629578
0.629336
0.613906
0.614234
0.614798
0.615724
0.616885
0.618208
0.619708
0.621394
0.623247
0.625191
0.62683
0.627849
0.62834
0.628462
0.62834
0.628071
0.627715
0.627395
0.62716
0.626957
0.608987
0.609259
0.609763
0.610642
0.611786
0.613136
0.614711
0.616538
0.61862
0.620905
0.622949
0.624353
0.625182
0.625597
0.625729
0.625686
0.625524
0.625346
0.625179
0.625003
0.603849
0.604077
0.604543
0.605406
0.606573
0.607991
0.609684
0.611706
0.614084
0.616792
0.619332
0.621198
0.622422
0.623173
0.62359
0.623782
0.623816
0.623767
0.623655
0.623499
0.5984
0.598595
0.599042
0.599919
0.601149
0.60268
0.604547
0.606831
0.609591
0.612826
0.615968
0.618383
0.620067
0.621203
0.621938
0.62238
0.622626
0.622699
0.622633
0.622491
0.592539
0.592708
0.593153
0.594071
0.595406
0.597101
0.599207
0.601836
0.605079
0.608967
0.61284
0.615909
0.618136
0.619713
0.620813
0.621556
0.622011
0.622201
0.622176
0.622042
0.586147
0.586294
0.586752
0.587742
0.589226
0.591147
0.593572
0.596645
0.600492
0.60518
0.609938
0.613791
0.61666
0.618755
0.620269
0.621341
0.622033
0.622347
0.622358
0.622229
0.579087
0.57921
0.579697
0.580789
0.582473
0.58469
0.587525
0.591156
0.595755
0.601426
0.607252
0.612041
0.615669
0.618377
0.62038
0.621829
0.622787
0.623226
0.623272
0.623143
0.57117
0.571273
0.571806
0.573035
0.57498
0.577576
0.58093
0.585261
0.590788
0.597654
0.604771
0.610679
0.615207
0.618635
0.621223
0.623114
0.624368
0.624941
0.625018
0.624886
0.56217
0.562274
0.562856
0.564257
0.566541
0.56962
0.573627
0.578836
0.585514
0.593842
0.602506
0.609744
0.615334
0.619607
0.622884
0.62529
0.626882
0.627597
0.627703
0.627565
0.551774
0.551864
0.552538
0.554174
0.556892
0.560587
0.565425
0.571738
0.579845
0.589956
0.600475
0.609279
0.616115
0.621383
0.625449
0.628468
0.630436
0.631299
0.631431
0.631282
0.539608
0.539684
0.54046
0.542409
0.545689
0.55018
0.556086
0.563802
0.573695
0.585985
0.598711
0.609342
0.617618
0.624047
0.629035
0.63275
0.635133
0.636144
0.636295
0.636133
0.525123
0.525192
0.526114
0.528475
0.532489
0.538029
0.545322
0.55483
0.566953
0.581896
0.597237
0.609986
0.619917
0.627669
0.633722
0.638221
0.641044
0.642197
0.642358
0.642179
0.507542
0.507604
0.50874
0.511687
0.516709
0.52366
0.5328
0.544641
0.559575
0.577731
0.596131
0.611297
0.623089
0.632336
0.639558
0.644933
0.648203
0.649475
0.649634
0.649435
0.485713
0.485779
0.487258
0.491078
0.497548
0.506486
0.518157
0.533086
0.551574
0.573594
0.595506
0.613363
0.627205
0.638097
0.646602
0.652887
0.656576
0.657923
0.65806
0.65784
0.457861
0.457957
0.46003
0.465262
0.473971
0.485839
0.501087
0.520134
0.54308
0.569666
0.595515
0.616288
0.632328
0.644957
0.65483
0.662014
0.666028
0.667383
0.667476
0.667237
0.420944
0.421163
0.424447
0.432283
0.444763
0.461131
0.481488
0.505949
0.534338
0.566173
0.59633
0.620188
0.638505
0.652927
0.664172
0.672135
0.676315
0.677583
0.677609
0.677353
0.369139
0.37022
0.376742
0.389953
0.409017
0.432346
0.459764
0.491058
0.525837
0.563485
0.5982
0.625203
0.645786
0.661914
0.674437
0.682968
0.687064
0.68814
0.688087
0.687821
0.294019
0.30139
0.316342
0.339401
0.368304
0.400953
0.436964
0.476085
0.517946
0.561919
0.601523
0.631896
0.654934
0.672928
0.68662
0.695459
0.699323
0.700187
0.700082
0.699847
0.21413
0.230237
0.254519
0.288196
0.327447
0.369581
0.414251
0.461374
0.510685
0.561638
0.607031
0.641585
0.667642
0.687849
0.702787
0.711643
0.714998
0.715601
0.715521
0.715377
0.145701
0.165382
0.197462
0.240297
0.288772
0.339828
0.392916
0.447912
0.504541
0.562257
0.613107
0.651535
0.68036
0.702451
0.718211
0.72681
0.729707
0.730201
0.730173
0.730083
0.0897034
0.1116
0.149049
0.198449
0.254153
0.312714
0.373284
0.435552
0.499069
0.56319
0.619223
0.661279
0.692635
0.716401
0.73295
0.741651
0.744421
0.744905
0.744904
0.744843
0.0432992
0.066516
0.10786
0.162399
0.223901
0.288656
0.355606
0.424295
0.494101
0.564246
0.625242
0.670795
0.704563
0.730006
0.747488
0.75651
0.759428
0.759883
0.759904
0.759866
0.00387103
0.0278836
0.0721049
0.130825
0.197208
0.267248
0.339735
0.414151
0.489731
0.565494
0.6312
0.680128
0.716279
0.743365
0.761885
0.771445
0.774547
0.775035
0.775071
0.775053
-0.0306078
-0.00605739
0.0404205
0.102606
0.17317
0.247835
0.32526
0.404848
0.485717
0.566756
0.636945
0.689133
0.727608
0.756308
0.775853
0.786023
0.789391
0.789941
0.789995
0.789989
-0.0616291
-0.0366311
0.0117122
0.0768523
0.151042
0.22977
0.311625
0.395949
0.481768
0.567846
0.642341
0.697649
0.738325
0.768591
0.789107
0.799821
0.8035
0.804154
0.804209
0.804207
-0.0902032
-0.0647901
-0.0148525
0.0528616
0.130231
0.21256
0.298427
0.387137
0.477632
0.56851
0.647194
0.705496
0.74828
0.779973
0.801399
0.812639
0.816576
0.817348
0.817386
0.817377
-0.117131
-0.0912657
-0.0398912
0.030133
0.110314
0.195865
0.285373
0.37813
0.473022
0.568547
0.651345
0.712614
0.757404
0.790455
0.812644
0.824276
0.828421
0.82925
0.829274
0.829249
-0.1428
-0.116496
-0.0637909
0.00829134
0.0909814
0.179422
0.272232
0.368725
0.467784
0.567838
0.654726
0.718954
0.765716
0.799988
0.822814
0.834707
0.838958
0.839814
0.839812
0.839765
-0.167633
-0.140808
-0.0868736
-0.0129297
0.0720073
0.163045
0.258866
0.358813
0.461807
0.566262
0.65727
0.724525
0.773261
0.808672
0.831991
0.844007
0.848257
0.849107
0.849074
0.849006
-0.191763
-0.16441
-0.109313
-0.0336868
0.053261
0.146639
0.245197
0.348321
0.455002
0.563745
0.658934
0.729349
0.78014
0.816648
0.840316
0.852299
0.85649
0.857297
0.857244
0.857155
-0.215312
-0.187404
-0.131219
-0.0540632
0.0346851
0.130158
0.231183
0.33721
0.447336
0.560226
0.659665
0.733452
0.786454
0.824077
0.847979
0.85978
0.863798
0.864523
0.86444
0.864333
-0.238372
-0.209891
-0.152637
-0.0740933
0.0162484
0.113594
0.216832
0.325496
0.438806
0.555661
0.659403
0.736832
0.792323
0.831146
0.855143
0.866572
0.870296
0.870895
0.87077
0.870648
-0.260997
-0.231864
-0.17358
-0.0937758
-0.00202071
0.0969722
0.202185
0.31321
0.429426
0.55002
0.658088
0.739444
0.797827
0.838058
0.862036
0.872839
0.876076
0.876481
0.876318
0.87619
-0.283039
-0.25329
-0.194023
-0.113096
-0.0200918
0.0803547
0.187296
0.300419
0.419245
0.543314
0.655645
0.741207
0.802973
0.845029
0.868998
0.878842
0.881279
0.881373
0.881171
0.881049
-0.30447
-0.27413
-0.21395
-0.132015
-0.0379142
0.0637975
0.172251
0.287195
0.408337
0.535557
0.652013
0.742002
0.807683
0.852197
0.876489
0.885129
0.886225
0.885677
0.885402
0.885336
-0.325344
-0.294355
-0.233337
-0.150501
-0.0554275
0.0473819
0.157136
0.273636
0.396785
0.526801
0.647128
0.741695
0.811768
0.859501
0.884943
0.89265
0.891816
0.889796
0.889125
0.889313
-0.345506
-0.313937
-0.252129
-0.168488
-0.0725729
0.0311916
0.142046
0.259849
0.3847
0.517134
0.640953
0.740124
0.814959
0.866583
0.894385
0.902485
0.900102
0.895527
0.89258
0.891316
-0.365049
-0.332879
-0.27033
-0.186008
-0.0893851
0.0151872
0.126931
0.245778
0.372012
0.506491
0.633332
0.737032
0.817004
0.872921
0.904188
0.914894
0.913254
0.906267
0.896599
0.896778
-0.383887
-0.351249
-0.288075
-0.203257
-0.106158
-0.0009626
0.111375
0.230936
0.358175
0.494245
0.623607
0.731651
0.81744
0.877882
0.912742
0.927697
0.927627
0.916815
0.898503
0.896203
-0.401884
-0.369007
-0.305194
-0.220044
-0.122628
-0.0169561
0.0955865
0.215646
0.343481
0.480631
0.611822
0.723309
0.815448
0.880278
0.915921
0.931279
0.933556
0.908719
0.850739
0.82556
-0.418917
-0.387008
-0.321287
-0.235915
-0.138032
-0.0323131
0.0798441
0.200182
0.328209
0.465822
0.598046
0.711413
0.809992
0.879208
0.908993
0.919132
0.906819
0.85581
0.793803
0.755966
-0.462096
-0.404507
-0.336106
-0.25172
-0.153122
-0.0479839
0.0642855
0.184421
0.312156
0.449467
0.581884
0.695334
0.797199
0.871631
0.889752
0.877897
0.831309
0.766643
0.697813
0.659984
-0.437235
-0.419053
-0.358698
-0.273709
-0.176403
-0.0715118
0.0400378
0.159481
0.286239
0.422054
0.552955
0.664269
0.757648
0.839194
0.823666
0.716129
0.626117
0.56357
0.499736
0.526932
-0.468319
-0.436768
-0.375575
-0.291075
-0.194108
-0.0894007
0.0222967
0.141055
0.266748
0.400734
0.528981
0.636702
0.71951
0.765133
0.71458
0.575924
0.46745
0.394347
0.312429
0.358215
-0.49248
-0.458473
-0.395499
-0.310913
-0.214015
-0.10934
0.00222174
0.120162
0.244459
0.376001
0.500398
0.60215
0.67322
0.681051
0.575584
0.421051
0.29246
0.200425
0.105147
0.136914
-0.516031
-0.480928
-0.416537
-0.331271
-0.234289
-0.12974
-0.0187009
0.0982546
0.220925
0.349613
0.469131
0.562888
0.616875
0.592046
0.43493
0.25844
0.0989076
-0.0346262
-0.158679
-0.145404
-0.539327
-0.503796
-0.438461
-0.352578
-0.255444
-0.151109
-0.0407344
0.0750849
0.195836
0.321244
0.435055
0.520718
0.554045
0.484411
0.296668
0.100021
-0.086846
-0.240593
-0.446048
-0.524796
-0.563051
-0.527538
-0.461628
-0.375295
-0.277982
-0.173819
-0.0640454
0.0506001
0.169301
0.291154
0.398835
0.475061
0.483216
0.361978
0.170696
-0.0380375
-0.23005
-0.392078
-0.516199
-0.634937
-0.588285
-0.552644
-0.4864
-0.399807
-0.302448
-0.198555
-0.089482
0.0238082
0.140106
0.25784
0.358935
0.422485
0.403438
0.245807
0.0529421
-0.149821
-0.325128
-0.42274
-0.449132
-0.462601
-0.615156
-0.579404
-0.51291
-0.426214
-0.328991
-0.225545
-0.117423
-0.005807
0.107626
0.220498
0.314514
0.360716
0.322463
0.134313
-0.0566443
-0.239142
-0.371521
-0.409674
-0.418703
-0.419016
-0.643945
-0.607945
-0.541198
-0.454502
-0.357563
-0.254799
-0.147896
-0.0383059
0.0717876
0.179084
0.264996
0.29505
0.225778
0.0325365
-0.152344
-0.310858
-0.38513
-0.399366
-0.400512
-0.400395
-0.674663
-0.638298
-0.571277
-0.484669
-0.388181
-0.286309
-0.180912
-0.0737131
0.0325995
0.133701
0.210223
0.225879
0.118423
-0.0595569
-0.234576
-0.360424
-0.389263
-0.389841
-0.390299
-0.389868
-0.70705
-0.67029
-0.603046
-0.516631
-0.420758
-0.320026
-0.216451
-0.112014
-0.00988529
0.0844631
0.151411
0.14819
0.0231371
-0.1444
-0.299303
-0.371298
-0.386234
-0.384107
-0.383739
-0.383281
-0.740539
-0.703571
-0.636235
-0.550152
-0.455102
-0.355788
-0.254361
-0.153089
-0.0554583
0.031763
0.0889855
0.0697773
-0.0649243
-0.21883
-0.340847
-0.37863
-0.378539
-0.379534
-0.379463
-0.379108
-0.774679
-0.737598
-0.670348
-0.584802
-0.490848
-0.393264
-0.294357
-0.196663
-0.103857
-0.0234655
0.0215125
-0.00411689
-0.14527
-0.277072
-0.363371
-0.372569
-0.375534
-0.376617
-0.376606
-0.376488
-0.808505
-0.771467
-0.704624
-0.619923
-0.527425
-0.431962
-0.335969
-0.242246
-0.154677
-0.0804057
-0.045974
-0.0784836
-0.214938
-0.323254
-0.369379
-0.380282
-0.37611
-0.374331
-0.373707
-0.37359
-0.840095
-0.803861
-0.738006
-0.654598
-0.564028
-0.471153
-0.378521
-0.289108
-0.20717
-0.13869
-0.108585
-0.155933
-0.2739
-0.368017
-0.388459
-0.384684
-0.377317
-0.37145
-0.369688
-0.369213
-0.868395
-0.833232
-0.769052
-0.687588
-0.599561
-0.509862
-0.421125
-0.336338
-0.260141
-0.197725
-0.170097
-0.222269
-0.318567
-0.398638
-0.421387
-0.401345
-0.382597
-0.373166
-0.370204
-0.368967
-0.89061
-0.857422
-0.795954
-0.717321
-0.632662
-0.546858
-0.462642
-0.382898
-0.312352
-0.255706
-0.231835
-0.273251
-0.34224
-0.400508
-0.405699
-0.408636
-0.40911
-0.404784
-0.400032
-0.397435
-0.904582
-0.874217
-0.816569
-0.741979
-0.66174
-0.580713
-0.501663
-0.427607
-0.362626
-0.310454
-0.28772
-0.318548
-0.34363
-0.380158
-0.389591
-0.418701
-0.439569
-0.440575
-0.436646
-0.435598
-0.90752
-0.881132
-0.8287
-0.759637
-0.685061
-0.609918
-0.536654
-0.468917
-0.409694
-0.362271
-0.333323
-0.366729
-0.353892
-0.33444
-0.367919
-0.406477
-0.424076
-0.42958
-0.432202
-0.433829
-0.897134
-0.875639
-0.830147
-0.768455
-0.70106
-0.632941
-0.566325
-0.504809
-0.45239
-0.411912
-0.370632
-0.42074
-0.431659
-0.38187
-0.419947
-0.439079
-0.443479
-0.447289
-0.449707
-0.450425
-0.870649
-0.854831
-0.818894
-0.767085
-0.708635
-0.648554
-0.58957
-0.533875
-0.488718
-0.455419
-0.423242
-0.47919
-0.616182
-0.687739
-0.664112
-0.57121
-0.512142
-0.491352
-0.484811
-0.48289
-0.83147
-0.821358
-0.795899
-0.7557
-0.707554
-0.656559
-0.605157
-0.555954
-0.514944
-0.491619
-0.478134
-0.526443
-0.632549
-0.811425
-0.705275
-0.546783
-0.483125
-0.454242
-0.443754
-0.440656
-0.78668
-0.78097
-0.766118
-0.737288
-0.69981
-0.657601
-0.613105
-0.56996
-0.531099
-0.508761
-0.488335
-0.451617
-0.30826
-0.175747
-0.0936722
-0.160059
-0.256664
-0.299463
-0.306896
-0.304934
-0.746459
-0.743047
-0.735939
-0.717255
-0.68863
-0.653282
-0.614971
-0.574493
-0.537348
-0.505476
-0.485927
-0.398146
-0.228114
-0.0983211
-0.128727
-0.266652
-0.354441
-0.328323
-0.305839
-0.313971
-0.71701
-0.714999
-0.711278
-0.699968
-0.67778
-0.647499
-0.611951
-0.573234
-0.532141
-0.49721
-0.484472
-0.432914
-0.43249
-0.453612
-0.56938
-0.752939
-0.879918
-0.903772
-0.858901
-0.840266
-0.694911
-0.694147
-0.692836
-0.687089
-0.670342
-0.643013
-0.608093
-0.567157
-0.521666
-0.48133
-0.441468
-0.461197
-0.567816
-0.914259
-1.22392
-1.36499
-1.41517
-1.32651
-1.20589
-1.14795
-0.682005
-0.681744
-0.681091
-0.67832
-0.666298
-0.640436
-0.603599
-0.558488
-0.508812
-0.445847
-0.391277
-0.33978
-0.486372
-0.680626
-0.952627
-1.0532
-0.914513
-0.639472
-0.431371
-0.343116
-0.673352
-0.673099
-0.672456
-0.671447
-0.664165
-0.640067
-0.600099
-0.550653
-0.488251
-0.409755
-0.32171
-0.184908
-0.0385371
0.0834786
0.277212
0.458101
0.749513
0.99549
1.13172
1.178
-0.669236
-0.669043
-0.668603
-0.668367
-0.664445
-0.642788
-0.599381
-0.54176
-0.470776
-0.382937
-0.262625
-0.122882
0.0890328
0.425344
0.893913
1.34949
1.70148
1.91929
2.00576
2.0268
-0.666078
-0.667015
-0.669314
-0.672089
-0.670577
-0.647668
-0.600397
-0.539817
-0.464961
-0.359316
-0.240896
-0.107966
0.117381
0.503606
0.979779
1.40166
1.72001
1.88841
1.95133
1.9642
-0.659999
-0.661434
-0.663444
-0.665341
-0.664252
-0.6433
-0.603
-0.54907
-0.466366
-0.355669
-0.23955
-0.119953
0.047093
0.388951
0.774482
1.10738
1.34724
1.46991
1.51426
1.52346
-0.674306
-0.67371
-0.663669
-0.639841
-0.620967
-0.622727
-0.613675
-0.567413
-0.477884
-0.365193
-0.252955
-0.148812
-0.0292256
0.227867
0.508518
0.748498
0.918978
1.00292
1.03361
1.03761
-0.72269
-0.718874
-0.703568
-0.672788
-0.649629
-0.656006
-0.660045
-0.597248
-0.490875
-0.379012
-0.271089
-0.18462
-0.0883263
0.0867826
0.279373
0.439068
0.544832
0.592571
0.607938
0.610996
-0.817268
-0.820077
-0.839359
-0.864699
-0.863776
-0.844477
-0.777104
-0.643395
-0.506457
-0.390083
-0.291899
-0.220877
-0.146985
-0.0152144
0.097089
0.171271
0.215928
0.24167
0.250112
0.252502
-0.953043
-0.971945
-1.01809
-1.05709
-1.05996
-1.01623
-0.883039
-0.683358
-0.520316
-0.398756
-0.305498
-0.249974
-0.202877
-0.114498
-0.034735
-0.0012056
-0.00304421
-0.00582966
0.00627127
0.0129949
-1.0038
-1.02593
-1.06145
-1.09042
-1.09194
-1.0408
-0.874341
-0.666429
-0.513377
-0.389175
-0.308748
-0.269596
-0.232809
-0.16208
-0.107179
-0.0819855
-0.0745119
-0.0633827
-0.0553006
-0.0522693
-0.875714
-0.895311
-0.928903
-0.960421
-0.965712
-0.904929
-0.742973
-0.587611
-0.456834
-0.353829
-0.299677
-0.262047
-0.249722
-0.176204
-0.116098
-0.0748228
-0.0528946
-0.0380305
-0.0316172
-0.0305748
-0.569965
-0.588645
-0.622729
-0.660538
-0.677102
-0.634892
-0.544204
-0.451263
-0.358367
-0.302572
-0.257175
-0.235747
-0.218871
-0.160475
-0.103614
-0.0672398
-0.033733
-0.0150013
-0.00921432
-0.00948119
-0.215698
-0.22656
-0.249702
-0.282715
-0.309756
-0.315085
-0.309575
-0.287484
-0.262621
-0.228783
-0.201875
-0.178533
-0.154427
-0.110097
-0.0694054
-0.0451488
-0.0214226
-0.00808212
-0.0032071
-0.00388246
0.0345699
0.0293344
0.0142969
-0.0144924
-0.0563012
-0.100961
-0.134785
-0.160375
-0.169051
-0.159755
-0.144725
-0.114874
-0.0904801
-0.0706819
-0.0499113
-0.0333477
-0.0186216
-0.0101489
-0.00857413
-0.00950687
0.143757
0.14103
0.130592
0.10612
0.0656522
0.0146168
-0.0356256
-0.0748043
-0.0992338
-0.105174
-0.0933741
-0.0680622
-0.0445
-0.0412863
-0.0344806
-0.0277092
-0.0195248
-0.014014
-0.012816
-0.0142566
0.16239
0.160644
0.153337
0.135178
0.103645
0.0624064
0.0179518
-0.02276
-0.0527832
-0.0646394
-0.0598248
-0.0359701
-0.0234086
-0.0266653
-0.0299359
-0.0302469
-0.0276154
-0.0275015
-0.0289351
-0.0305767
0.143537
0.142426
0.137539
0.125188
0.103013
0.0723965
0.0372546
0.00285059
-0.0254333
-0.0408445
-0.0390719
-0.0244652
-0.0181478
-0.0310132
-0.0406754
-0.0458643
-0.0498834
-0.05512
-0.0577531
-0.0586266
0.114236
0.113547
0.110353
0.102165
0.0871306
0.0654571
0.038761
0.0106078
-0.0152656
-0.0323948
-0.0361886
-0.0278797
-0.0273011
-0.0456819
-0.0592734
-0.067581
-0.0736258
-0.0791632
-0.0818386
-0.0824201
0.084918
0.0845687
0.0825166
0.0771236
0.066935
0.0515786
0.0315875
0.00887383
-0.0148958
-0.0359799
-0.0495946
-0.0525238
-0.0561343
-0.073831
-0.0857213
-0.0914093
-0.0957164
-0.0996113
-0.101325
-0.101895
0.0596545
0.0593633
0.0579841
0.0543701
0.0473304
0.0362873
0.0210144
0.00209263
-0.020528
-0.0470479
-0.0765872
-0.103763
-0.121891
-0.129739
-0.127743
-0.123392
-0.122466
-0.122048
-0.122223
-0.122724
0.0391517
0.0389776
0.0380362
0.0356045
0.030716
0.0226722
0.0108341
-0.00526028
-0.0271471
-0.0587304
-0.105727
-0.164312
-0.199165
-0.185435
-0.164072
-0.151567
-0.147051
-0.146267
-0.145617
-0.145671
0.0235119
0.0233849
0.0227478
0.0211847
0.0179211
0.0122361
0.00332257
-0.00973526
-0.0296589
-0.0624349
-0.117779
-0.19249
-0.227207
-0.200144
-0.172782
-0.161661
-0.159286
-0.158723
-0.157447
-0.15681
0.0123952
0.0123032
0.0119113
0.0110061
0.00900084
0.00528121
-0.000935405
-0.0106068
-0.0260079
-0.0535937
-0.10172
-0.163599
-0.183519
-0.160086
-0.143607
-0.139901
-0.141241
-0.141948
-0.140745
-0.13983
0.00512817
0.00509712
0.00493318
0.00450942
0.00353975
0.00162266
-0.00173389
-0.00739494
-0.016831
-0.0336312
-0.0623744
-0.0989789
-0.0988348
-0.086758
-0.0807415
-0.0857096
-0.0907882
-0.0927533
-0.0919053
-0.0908898
0.000612818
0.000643282
0.000592483
0.000609566
0.000745875
0.000673099
0.000238246
-0.000615702
-0.00192724
-0.00451793
-0.00837866
-0.012798
-0.0199972
-0.019372
-0.0219591
-0.0205052
-0.0217806
-0.0200628
-0.018952
-0.0187345
-0.0124058
0.177369
0.351846
0.499845
0.618907
0.713478
0.792458
0.856675
0.873185
0.869498
0.280075
0.402234
0.516769
0.616445
0.70057
0.77017
0.825119
0.862287
0.882167
0.898738
0.478512
0.560012
0.640674
0.711572
0.772196
0.822485
0.862062
0.892203
0.914817
0.934057
0.625236
0.68279
0.741296
0.793758
0.839025
0.877549
0.909804
0.93683
0.95719
0.97609
0.742468
0.785906
0.829446
0.870035
0.90615
0.938061
0.965973
0.989587
1.00758
1.02563
0.840753
0.876551
0.911642
0.945514
0.976732
1.00495
1.02986
1.05076
1.06656
1.08404
0.929061
0.961244
0.993553
1.02475
1.0538
1.08022
1.10336
1.12231
1.13624
1.15326
1.01616
1.0488
1.08127
1.11251
1.1413
1.16711
1.18926
1.20679
1.21919
1.23571
1.11064
1.1471
1.18187
1.21436
1.24355
1.26891
1.29004
1.30633
1.31796
1.3341
1.22375
1.26439
1.30141
1.33436
1.36286
1.38686
1.40649
1.42177
1.43368
1.44976
1.36511
1.40622
1.44151
1.4711
1.49631
1.51793
1.53643
1.55192
1.56504
1.58099
1.53671
1.56909
1.59599
1.61832
1.63841
1.65713
1.67487
1.69165
1.70656
1.72229
1.72305
1.74031
1.75744
1.77412
1.79022
1.80496
1.81886
1.83334
1.84858
1.86588
1.90645
1.91641
1.9296
1.94059
1.95
1.95966
1.97027
1.98045
1.98974
2.01541
2.12433
2.11863
2.10569
2.09143
2.08513
2.09085
2.10899
2.13751
2.17128
2.2076
2.42715
2.2912
2.2117
2.16918
2.15185
2.15583
2.18326
2.24113
2.34879
2.5272
0.743023
0.73672
0.728989
0.717872
0.704298
0.691645
0.681243
0.673224
0.667498
0.664157
0.663797
0.666624
0.671853
0.679209
0.688757
0.700586
0.714148
0.727077
0.736066
0.743607
0.652095
0.658014
0.666085
0.672215
0.675281
0.674765
0.671673
0.667671
0.664073
0.661779
0.661638
0.663886
0.667637
0.672082
0.676183
0.678428
0.677354
0.672718
0.665664
0.65783
0.64535
0.647722
0.650988
0.653758
0.656205
0.65839
0.659564
0.659409
0.658463
0.657647
0.657855
0.659266
0.661046
0.662274
0.662198
0.660731
0.658573
0.656212
0.65323
0.650212
0.640568
0.641656
0.643572
0.645907
0.647775
0.649168
0.65038
0.651365
0.651955
0.652324
0.652873
0.653613
0.654079
0.65396
0.653332
0.65241
0.651079
0.649109
0.647002
0.645525
0.635554
0.636188
0.637315
0.63907
0.640909
0.642497
0.643741
0.644796
0.645767
0.646656
0.647436
0.647955
0.648092
0.647886
0.647349
0.646376
0.644949
0.643339
0.642001
0.641199
0.630642
0.631081
0.631868
0.633169
0.634686
0.636243
0.637714
0.638999
0.640141
0.641217
0.642164
0.642765
0.642944
0.64271
0.642046
0.641047
0.639894
0.63875
0.637847
0.637313
0.625822
0.62615
0.626761
0.627827
0.629118
0.63051
0.63198
0.633442
0.63482
0.636109
0.637249
0.637993
0.63822
0.637977
0.63738
0.636597
0.635752
0.634898
0.634236
0.633844
0.62107
0.621325
0.621817
0.622725
0.623892
0.625193
0.626604
0.628118
0.629681
0.631227
0.632615
0.633532
0.633875
0.633778
0.633397
0.632851
0.632219
0.631591
0.631109
0.63081
0.616315
0.616517
0.616927
0.617725
0.618814
0.620067
0.621464
0.623021
0.624724
0.626515
0.628196
0.629376
0.629955
0.630102
0.629962
0.629642
0.629217
0.628781
0.628439
0.628203
0.611473
0.611636
0.611987
0.612712
0.613754
0.614988
0.616415
0.618056
0.619916
0.621964
0.623993
0.625535
0.626442
0.626883
0.626999
0.62691
0.626698
0.626437
0.62621
0.626022
0.606455
0.606587
0.606897
0.607577
0.608603
0.609863
0.611358
0.613127
0.615198
0.617561
0.620015
0.622007
0.623308
0.624088
0.624494
0.624653
0.624653
0.62456
0.624431
0.624279
0.601173
0.60128
0.601563
0.602224
0.603269
0.604597
0.606205
0.608156
0.610506
0.613273
0.616249
0.618781
0.620546
0.621717
0.622452
0.622881
0.623101
0.623178
0.623135
0.623011
0.595532
0.595618
0.595884
0.596552
0.59765
0.599089
0.600864
0.603066
0.605777
0.609049
0.612667
0.615847
0.618162
0.619786
0.620893
0.621638
0.622103
0.62234
0.622373
0.62227
0.589421
0.589488
0.589748
0.590444
0.591633
0.59323
0.595238
0.597771
0.600946
0.604847
0.60925
0.613211
0.616176
0.618332
0.619865
0.620962
0.621698
0.622107
0.622214
0.622128
0.582712
0.58276
0.583023
0.58377
0.58509
0.586901
0.589216
0.592175
0.59593
0.600609
0.605965
0.610866
0.614607
0.617392
0.619425
0.620917
0.621966
0.622562
0.62274
0.622667
0.575249
0.575278
0.57555
0.57637
0.577865
0.579955
0.582664
0.586162
0.590645
0.596279
0.602794
0.608823
0.613486
0.61701
0.619637
0.621602
0.623003
0.623799
0.624049
0.623985
0.566826
0.566844
0.567119
0.568041
0.569766
0.572214
0.575423
0.579597
0.584981
0.591791
0.599711
0.60709
0.612847
0.617245
0.620572
0.623103
0.624904
0.625922
0.626244
0.626187
0.557145
0.557139
0.557467
0.558532
0.560554
0.563458
0.567301
0.57233
0.578842
0.587097
0.596715
0.605703
0.612752
0.618175
0.622324
0.625511
0.627777
0.629038
0.629432
0.629379
0.545909
0.545881
0.546258
0.547516
0.54991
0.553402
0.558058
0.564171
0.572099
0.58214
0.593812
0.604699
0.613252
0.619876
0.62499
0.628931
0.631729
0.633251
0.633715
0.63366
0.532632
0.532581
0.533036
0.534544
0.537425
0.541686
0.547396
0.554903
0.564617
0.576862
0.591002
0.60412
0.614417
0.62242
0.628654
0.633469
0.636856
0.638647
0.639174
0.639112
0.516665
0.516592
0.517171
0.51903
0.522558
0.52784
0.534945
0.544266
0.556255
0.571223
0.588317
0.604029
0.616313
0.625887
0.63339
0.639185
0.643217
0.645276
0.64585
0.645774
0.497055
0.496965
0.497745
0.500114
0.504557
0.511259
0.520266
0.532006
0.546925
0.565255
0.585839
0.604516
0.619031
0.630348
0.639239
0.646133
0.650829
0.653127
0.653723
0.653627
0.472381
0.472289
0.473404
0.476561
0.482379
0.491157
0.502864
0.517902
0.536627
0.559088
0.583728
0.605701
0.622645
0.635853
0.646259
0.654295
0.659634
0.662104
0.662685
0.66256
0.440313
0.440267
0.441986
0.446505
0.454619
0.46663
0.482313
0.501891
0.525488
0.552908
0.582152
0.607716
0.627237
0.642435
0.654412
0.663599
0.669463
0.671994
0.672513
0.672353
0.396695
0.396848
0.399876
0.407217
0.419621
0.436941
0.458512
0.484223
0.513881
0.547065
0.581379
0.610732
0.632899
0.6501
0.663627
0.673868
0.680032
0.682451
0.682856
0.682662
0.333766
0.335084
0.342428
0.356259
0.376512
0.402269
0.432139
0.465631
0.502428
0.542023
0.581711
0.614919
0.639686
0.658804
0.673699
0.684719
0.690874
0.692956
0.693199
0.692991
0.258633
0.261222
0.275481
0.299279
0.330258
0.366031
0.40492
0.44667
0.491092
0.537744
0.583634
0.621574
0.649692
0.671267
0.687823
0.699447
0.705433
0.707289
0.707494
0.707386
0.181727
0.188614
0.210016
0.243802
0.285226
0.330772
0.378674
0.428744
0.48086
0.534646
0.58687
0.62966
0.661183
0.68525
0.703514
0.715572
0.721019
0.722401
0.722536
0.722499
0.119034
0.127769
0.153786
0.194647
0.244304
0.298154
0.354193
0.412092
0.471609
0.532274
0.590525
0.637837
0.672497
0.698758
0.718226
0.730509
0.735747
0.737009
0.737168
0.737187
0.0676887
0.0771373
0.106669
0.152802
0.208663
0.269177
0.332097
0.396904
0.463152
0.53022
0.594194
0.645849
0.683448
0.711786
0.732565
0.745343
0.750489
0.751793
0.752035
0.75209
0.024711
0.0344667
0.0664014
0.11666
0.177613
0.243664
0.312393
0.383197
0.455504
0.528521
0.597912
0.653723
0.69419
0.724537
0.746636
0.76001
0.765439
0.766956
0.767226
0.767302
-0.0123611
-0.00246864
0.0312696
0.0848306
0.15004
0.220846
0.294662
0.370808
0.448614
0.527127
0.601603
0.661405
0.704666
0.736997
0.760456
0.77462
0.780506
0.782132
0.782409
0.782485
-0.0451989
-0.0352525
-9.08842e-05
0.056209
0.125044
0.199983
0.278311
0.359271
0.442112
0.525768
0.605116
0.668734
0.714673
0.748937
0.773681
0.788679
0.795003
0.79679
0.797078
0.797138
-0.0750551
-0.0650657
-0.0287429
0.0299166
0.101893
0.180449
0.262793
0.348147
0.435688
0.524233
0.608259
0.67554
0.724048
0.760099
0.786082
0.801812
0.808626
0.81055
0.810837
0.810876
-0.10287
-0.092818
-0.0554626
0.0052906
0.0800392
0.161793
0.247746
0.33713
0.429057
0.522247
0.610794
0.681688
0.732655
0.770426
0.797521
0.8139
0.821092
0.823136
0.823412
0.823423
-0.129201
-0.119081
-0.0807599
-0.0181202
0.0590798
0.143687
0.232895
0.325957
0.421971
0.519613
0.612615
0.687085
0.740476
0.779861
0.807955
0.824811
0.832252
0.834386
0.834652
0.834631
-0.154509
-0.144244
-0.105018
-0.0406648
0.0387219
0.125884
0.218032
0.314463
0.414305
0.516214
0.613617
0.691693
0.747524
0.788455
0.817396
0.834633
0.842159
0.844296
0.844556
0.844507
-0.179071
-0.168588
-0.128499
-0.0625704
0.018779
0.108225
0.20304
0.302561
0.405957
0.511951
0.61372
0.695491
0.753843
0.79631
0.825994
0.843432
0.850931
0.853025
0.853255
0.853188
-0.202989
-0.192262
-0.151342
-0.0839714
-0.000858125
0.0906401
0.187855
0.29019
0.396872
0.506748
0.612858
0.698472
0.759501
0.803556
0.833895
0.851383
0.858756
0.860751
0.860932
0.860837
-0.226378
-0.215382
-0.173656
-0.104926
-0.0202383
0.0730887
0.172454
0.277334
0.387041
0.500582
0.610967
0.700607
0.76456
0.810348
0.841298
0.858666
0.865763
0.867595
0.867713
0.867594
-0.249239
-0.237988
-0.195456
-0.12546
-0.0393684
0.0555798
0.156864
0.264024
0.376482
0.493434
0.607999
0.701838
0.769061
0.816845
0.848389
0.865432
0.872069
0.873645
0.873673
0.873531
-0.271645
-0.26007
-0.21672
-0.145566
-0.0582292
0.0381452
0.141124
0.250316
0.365237
0.485317
0.603911
0.702092
0.772979
0.823184
0.855443
0.871937
0.877801
0.878961
0.878881
0.878729
-0.293384
-0.281586
-0.23743
-0.165225
-0.0767788
0.0208536
0.1253
0.236273
0.353376
0.47628
0.598669
0.701275
0.776235
0.829429
0.862776
0.878606
0.883275
0.883693
0.883422
0.88328
-0.314608
-0.302485
-0.257558
-0.184415
-0.09499
0.00374284
0.10948
0.221976
0.340981
0.466397
0.592265
0.699284
0.778682
0.8355
0.870647
0.886099
0.889171
0.888182
0.887393
0.887301
-0.335134
-0.322727
-0.277087
-0.203085
-0.112782
-0.013102
0.0937476
0.207545
0.328156
0.455732
0.58472
0.696015
0.780132
0.841147
0.879036
0.895118
0.896868
0.893674
0.891319
0.890915
-0.355065
-0.342338
-0.29596
-0.221179
-0.130117
-0.0296123
0.0781907
0.193059
0.315008
0.444416
0.57609
0.691348
0.780372
0.845972
0.887408
0.905744
0.907937
0.903101
0.897037
0.888205
-0.374283
-0.361308
-0.314265
-0.238862
-0.147218
-0.0460696
0.0624732
0.178116
0.301091
0.431952
0.565867
0.684719
0.779007
0.849716
0.895124
0.917297
0.922571
0.917409
0.90651
0.905106
-0.392748
-0.379715
-0.331998
-0.256075
-0.164068
-0.0624383
0.0466255
0.162698
0.286371
0.418215
0.553868
0.675632
0.775285
0.851589
0.900228
0.92558
0.933287
0.930929
0.896995
0.858331
-0.410225
-0.397422