/*--------------------------------*- C++ -*----------------------------------*\
  =========                 |
  \\      /  F ield         | OpenFOAM: The Open Source CFD Toolbox
   \\    /   O peration     | Website:  https://openfoam.org
    \\  /    A nd           | Version:  6
     \\/     M anipulation  |
\*---------------------------------------------------------------------------*/
FoamFile
{
    version     2.0;
    format      ascii;
    class       volScalarField;
    location    "68";
    object      p;
}
// * * * * * * * * * * * * * * * * * * * * * * * * * * * * * * * * * * * * * //

dimensions      [0 2 -2 0 0 0 0];

internalField   nonuniform List<scalar> 
2200
(
0.787695
0.772476
0.755
0.738716
0.724276
0.712268
0.702665
0.69522
0.689885
0.687002
0.687493
0.69126
0.697265
0.705184
0.71512
0.727358
0.741978
0.758416
0.775961
0.791193
0.731369
0.727447
0.722447
0.716873
0.710598
0.704012
0.697641
0.692036
0.687724
0.685372
0.685877
0.689141
0.694143
0.700276
0.707039
0.713903
0.72036
0.726025
0.731063
0.735019
0.689825
0.689515
0.690469
0.691795
0.692257
0.691242
0.689008
0.686219
0.683673
0.682224
0.682775
0.685215
0.68853
0.691913
0.694579
0.695886
0.695597
0.694379
0.693569
0.693937
0.664694
0.665725
0.668136
0.671468
0.674708
0.677022
0.678113
0.678151
0.677687
0.677432
0.678051
0.679429
0.680775
0.681404
0.680823
0.678902
0.675952
0.672772
0.670445
0.669463
0.649784
0.651245
0.654004
0.657538
0.661152
0.664448
0.667115
0.66903
0.670306
0.671221
0.671954
0.672356
0.672132
0.671027
0.668961
0.666113
0.662834
0.659521
0.656876
0.655452
0.642099
0.643412
0.645708
0.648599
0.651642
0.654642
0.657504
0.660087
0.662258
0.663936
0.664828
0.664746
0.663819
0.662196
0.660065
0.657613
0.654968
0.652339
0.650181
0.648905
0.638306
0.639216
0.64076
0.642788
0.644974
0.647205
0.649555
0.651999
0.654355
0.656349
0.657429
0.657375
0.656544
0.655276
0.653816
0.652251
0.650548
0.648836
0.647453
0.646578
0.635489
0.636078
0.637038
0.638354
0.639828
0.641384
0.643115
0.645098
0.647238
0.64925
0.650562
0.650921
0.650671
0.650133
0.649487
0.648731
0.647822
0.646873
0.646095
0.645541
0.632104
0.632492
0.633134
0.634072
0.635168
0.636345
0.637661
0.639216
0.641035
0.642979
0.644604
0.645555
0.646031
0.646244
0.646256
0.646063
0.645667
0.645173
0.644741
0.644384
0.627906
0.628176
0.628668
0.629447
0.630393
0.631431
0.632609
0.634007
0.635691
0.637656
0.639631
0.641223
0.642337
0.643101
0.643574
0.643762
0.643663
0.643411
0.643155
0.642911
0.62304
0.623247
0.623683
0.624419
0.625362
0.626449
0.627715
0.629222
0.631044
0.633282
0.635733
0.637854
0.639434
0.640553
0.641294
0.641721
0.641778
0.641673
0.641518
0.641342
0.617606
0.617767
0.618179
0.618948
0.620023
0.621329
0.622865
0.624693
0.626902
0.629583
0.632545
0.635185
0.637173
0.638551
0.639454
0.639994
0.640201
0.640216
0.640132
0.639995
0.611811
0.611952
0.612365
0.613167
0.614357
0.615882
0.617745
0.620007
0.622771
0.626118
0.629729
0.632875
0.635249
0.636936
0.638068
0.638774
0.639152
0.639297
0.63927
0.639154
0.605628
0.605746
0.60617
0.607028
0.608324
0.610052
0.612269
0.61505
0.618472
0.622605
0.627023
0.630807
0.633656
0.635736
0.637194
0.638161
0.63876
0.639042
0.639063
0.638957
0.598835
0.598935
0.599374
0.600318
0.601814
0.603854
0.6065
0.609857
0.614014
0.619027
0.624363
0.628967
0.632449
0.63504
0.636945
0.638265
0.639098
0.639509
0.639581
0.639484
0.591411
0.59144
0.591887
0.592951
0.594674
0.59704
0.600121
0.604063
0.609006
0.615052
0.621526
0.627199
0.63158
0.63492
0.637399
0.63913
0.640235
0.640807
0.640935
0.640841
0.583012
0.583056
0.583517
0.584682
0.586615
0.589321
0.592884
0.597489
0.603336
0.610587
0.618513
0.625523
0.631072
0.635336
0.638502
0.640741
0.642196
0.642962
0.643155
0.64306
0.573359
0.573429
0.57392
0.575231
0.577451
0.580597
0.584776
0.590204
0.597129
0.605758
0.615404
0.624148
0.631071
0.636408
0.64041
0.643271
0.645145
0.646124
0.64637
0.646266
0.562173
0.562255
0.562846
0.564321
0.566856
0.570549
0.575517
0.581982
0.59027
0.600751
0.612522
0.623254
0.631777
0.638307
0.643202
0.646764
0.649096
0.650282
0.650576
0.65046
0.548747
0.548829
0.549547
0.551347
0.554438
0.558875
0.564846
0.572668
0.582772
0.595601
0.610025
0.623064
0.633299
0.641153
0.647087
0.65137
0.654147
0.655534
0.655866
0.655729
0.532924
0.532976
0.53378
0.535921
0.539675
0.545085
0.552393
0.562063
0.574609
0.590472
0.607981
0.623497
0.635599
0.644956
0.65201
0.657104
0.660363
0.661929
0.662274
0.662107
0.513638
0.513757
0.514798
0.51744
0.522074
0.528825
0.538043
0.550305
0.566125
0.585724
0.606735
0.624901
0.639013
0.649854
0.658065
0.663959
0.667669
0.669396
0.669728
0.669525
0.489622
0.489729
0.49106
0.494551
0.500696
0.509594
0.52158
0.537255
0.557083
0.581054
0.606138
0.627402
0.643624
0.655944
0.665208
0.671856
0.67598
0.677785
0.678066
0.677825
0.459143
0.45942
0.461338
0.466043
0.474288
0.486203
0.502073
0.522384
0.547365
0.576716
0.60645
0.630885
0.649135
0.662901
0.673269
0.68066
0.68508
0.686893
0.687096
0.686818
0.419299
0.419955
0.423055
0.430117
0.441924
0.458385
0.479701
0.506162
0.537552
0.573053
0.607704
0.635293
0.655555
0.670747
0.682178
0.690173
0.694736
0.696419
0.696497
0.696189
0.366864
0.367994
0.373558
0.385263
0.403312
0.426785
0.455374
0.489216
0.527887
0.570179
0.609984
0.640703
0.662848
0.67939
0.691733
0.700082
0.704438
0.705756
0.705687
0.705399
0.300432
0.304048
0.315473
0.33492
0.361359
0.39342
0.430422
0.472371
0.518768
0.568207
0.613614
0.648195
0.673057
0.691215
0.704185
0.712477
0.716447
0.717449
0.717353
0.717132
0.226725
0.235981
0.255905
0.28455
0.320053
0.361026
0.406844
0.457066
0.511023
0.567403
0.61885
0.658009
0.685765
0.705513
0.719184
0.727363
0.73088
0.73162
0.731527
0.73138
0.158767
0.172191
0.198978
0.236377
0.281083
0.331135
0.385826
0.444226
0.505327
0.568003
0.624653
0.667612
0.69785
0.719347
0.733761
0.741922
0.745188
0.745704
0.745633
0.745561
0.103692
0.118408
0.149244
0.193224
0.245784
0.304141
0.367107
0.433184
0.501016
0.569495
0.630634
0.676673
0.709475
0.732786
0.748255
0.756891
0.760077
0.760527
0.760535
0.760507
0.0583813
0.0735803
0.10734
0.156269
0.21502
0.280209
0.350274
0.423273
0.497397
0.570984
0.635789
0.684905
0.720507
0.745791
0.762606
0.771889
0.775481
0.776205
0.776193
0.776152
0.0199094
0.0358211
0.0719609
0.124727
0.188328
0.259017
0.334983
0.413869
0.493329
0.571405
0.640148
0.692935
0.731
0.758278
0.776657
0.786843
0.790813
0.791647
0.79162
0.791574
-0.0136837
0.00295643
0.0413108
0.0973752
0.164914
0.240033
0.32076
0.404466
0.488579
0.571434
0.644761
0.70064
0.741012
0.77047
0.790186
0.801052
0.805368
0.80628
0.80624
0.806179
-0.043428
-0.0262456
0.0140067
0.0729782
0.143863
0.222658
0.307322
0.395192
0.483913
0.57186
0.649451
0.707947
0.750691
0.781721
0.802431
0.813978
0.818568
0.819561
0.819526
0.81945
-0.0705029
-0.0528637
-0.0108977
0.0507275
0.124584
0.206571
0.294634
0.386342
0.479602
0.57225
0.653399
0.714678
0.759581
0.791754
0.813278
0.825316
0.830209
0.831342
0.83133
0.831239
-0.0954912
-0.0774781
-0.0340047
0.0300396
0.106608
0.191498
0.282688
0.377918
0.475121
0.571735
0.656484
0.720847
0.767316
0.80046
0.822756
0.835285
0.840412
0.841661
0.841664
0.841553
-0.118972
-0.10058
-0.0557161
0.0105553
0.0896521
0.17726
0.271265
0.369379
0.469681
0.569922
0.658807
0.726149
0.774043
0.808228
0.831136
0.843992
0.849365
0.850683
0.850674
0.850548
-0.141228
-0.122407
-0.0762909
-0.00797246
0.0734692
0.163518
0.259869
0.36021
0.463101
0.567042
0.660323
0.730612
0.780175
0.815295
0.838657
0.851828
0.857282
0.858579
0.85854
0.858395
-0.162483
-0.143266
-0.0959932
-0.0258017
0.0577614
0.14994
0.248207
0.350323
0.455589
0.563365
0.661037
0.734588
0.786226
0.822211
0.845803
0.858962
0.864347
0.865465
0.865306
0.865148
-0.182875
-0.163323
-0.115039
-0.0431559
0.0423092
0.136333
0.23621
0.339898
0.447431
0.558877
0.660951
0.738543
0.792613
0.829409
0.852951
0.865659
0.870523
0.871311
0.871114
0.870991
-0.202637
-0.182815
-0.133598
-0.0601772
0.0270088
0.122693
0.224033
0.329196
0.438745
0.553395
0.660057
0.742346
0.799483
0.837548
0.860709
0.87228
0.876236
0.876483
0.876253
0.876159
-0.221913
-0.201845
-0.151756
-0.0768942
0.0119117
0.109141
0.21181
0.318262
0.429443
0.546769
0.65811
0.745659
0.806806
0.846887
0.869749
0.879688
0.881839
0.881142
0.880834
0.880782
-0.240888
-0.22052
-0.169544
-0.0932819
-0.00290965
0.0957688
0.199572
0.307023
0.419441
0.539043
0.654812
0.747905
0.814183
0.857545
0.880851
0.88877
0.888095
0.885756
0.884958
0.884961
-0.259471
-0.238817
-0.186955
-0.109309
-0.0174077
0.0825913
0.187257
0.29538
0.408767
0.530342
0.649993
0.748701
0.820888
0.868958
0.894373
0.901075
0.896776
0.891144
0.888756
0.888784
-0.277654
-0.256714
-0.203955
-0.124962
-0.031611
0.0695323
0.174779
0.283338
0.397555
0.520853
0.643774
0.747626
0.82601
0.88028
0.91012
0.917761
0.911112
0.899876
0.892683
0.891258
-0.295279
-0.27409
-0.220465
-0.140221
-0.0455725
0.0564876
0.162075
0.270966
0.386009
0.510862
0.636404
0.744599
0.828892
0.890159
0.926677
0.938691
0.932224
0.915398
0.893263
0.870334
-0.312293
-0.290879
-0.236439
-0.155141
-0.059529
0.0430961
0.148832
0.258075
0.374061
0.500372
0.627933
0.739436
0.828937
0.897459
0.942509
0.961047
0.957934
0.942766
0.94522
0.961563
-0.328576
-0.307046
-0.251949
-0.169877
-0.0737473
0.0289906
0.134667
0.244317
0.361369
0.489014
0.617933
0.731645
0.825186
0.899773
0.952644
0.978007
0.976271
0.953551
0.920126
0.920238
-0.344132
-0.322636
-0.267011
-0.184368
-0.0880945
0.0143498
0.119764
0.229856
0.348045
0.476858
0.606407
0.720876
0.816338
0.894185
0.949687
0.972962
0.955457
0.905617
0.855829
0.839892
-0.358857
-0.337665
-0.281649
-0.198596
-0.102506
-0.000702496
0.104261
0.21475
0.334013
0.463716
0.593076
0.706714
0.801522
0.876396
0.923532
0.92409
0.892622
0.822327
0.755314
0.735845
-0.372711
-0.352183
-0.295869
-0.212588
-0.116998
-0.0160896
0.088295
0.199072
0.319167
0.449319
0.5777
0.68862
0.778289
0.843995
0.869925
0.85269
0.790707
0.698194
0.618263
0.59932
-0.386072
-0.366329
-0.310007
-0.226892
-0.132095
-0.0321361
0.0717098
0.182656
0.303193
0.433215
0.559811
0.666008
0.746776
0.796403
0.792468
0.759151
0.651222
0.542559
0.453779
0.436508
-0.399867
-0.380621
-0.324779
-0.242434
-0.148606
-0.0493935
0.0541722
0.165206
0.2857
0.414897
0.53891
0.637936
0.706005
0.732154
0.70761
0.626061
0.496398
0.368356
0.260823
0.240888
-0.414645
-0.395467
-0.340511
-0.259483
-0.166672
-0.0679058
0.0356675
0.146675
0.266576
0.394162
0.514635
0.60521
0.656172
0.654658
0.616102
0.487501
0.329719
0.162676
0.025178
-0.00193322
-0.430643
-0.4114
-0.357332
-0.277753
-0.185925
-0.0874183
0.016285
0.12707
0.245822
0.370945
0.486594
0.56857
0.599976
0.569319
0.495396
0.342506
0.162133
-0.0449704
-0.241765
-0.322578
-0.448038
-0.428646
-0.375354
-0.297079
-0.206113
-0.107804
-0.00402906
0.106283
0.223373
0.345213
0.454975
0.527485
0.53875
0.478724
0.353433
0.19344
0.00857681
-0.252798
-0.659581
-0.981175
-0.467068
-0.447494
-0.39468
-0.317342
-0.227048
-0.128933
-0.0252273
0.0843911
0.199447
0.317321
0.420563
0.482879
0.474517
0.394779
0.212151
0.0311004
-0.133316
-0.37099
-0.858224
-1.61956
-0.487724
-0.467855
-0.415356
-0.338705
-0.248931
-0.151064
-0.0476215
0.0610667
0.17375
0.286971
0.383432
0.434949
0.40779
0.31585
0.0919694
-0.103752
-0.242132
-0.369677
-0.544122
-0.820964
-0.510094
-0.489956
-0.437614
-0.361516
-0.272261
-0.174821
-0.0719348
0.0354738
0.145361
0.25321
0.342831
0.382814
0.340237
0.233065
-0.00017916
-0.182658
-0.292394
-0.349331
-0.38926
-0.420403
-0.534068
-0.51359
-0.46147
-0.385928
-0.297244
-0.200425
-0.0984186
0.00736239
0.114142
0.21639
0.29854
0.327129
0.276022
0.151451
-0.0679579
-0.2244
-0.309698
-0.331785
-0.358272
-0.363068
-0.559611
-0.538982
-0.486943
-0.411903
-0.323893
-0.227943
-0.127162
-0.0233669
0.0800867
0.176715
0.250606
0.267793
0.216966
0.070814
-0.121491
-0.24357
-0.30008
-0.32156
-0.327665
-0.328061
-0.586302
-0.565577
-0.513797
-0.439357
-0.352159
-0.257332
-0.158153
-0.0567328
0.0431442
0.134491
0.200222
0.206048
0.159307
-0.00749861
-0.165998
-0.255797
-0.283139
-0.307205
-0.308784
-0.308536
-0.614141
-0.593344
-0.541762
-0.46797
-0.38177
-0.288372
-0.191192
-0.0925942
0.00335423
0.0901625
0.148727
0.144669
0.0957592
-0.0707219
-0.203412
-0.27346
-0.286599
-0.293444
-0.295333
-0.295669
-0.64234
-0.621539
-0.570327
-0.497387
-0.412434
-0.320778
-0.226002
-0.130675
-0.0389401
0.0439607
0.0969701
0.0845382
0.0274982
-0.120726
-0.226572
-0.279856
-0.297332
-0.288241
-0.28513
-0.284599
-0.670375
-0.649678
-0.598907
-0.527008
-0.443591
-0.354048
-0.262076
-0.170425
-0.083205
-0.00413793
0.0448461
0.0275679
-0.0424035
-0.159223
-0.233936
-0.266129
-0.286772
-0.279114
-0.273727
-0.271927
-0.696873
-0.676595
-0.626699
-0.556189
-0.474714
-0.387669
-0.298861
-0.211247
-0.128658
-0.0538729
-0.00791913
-0.0245482
-0.0988286
-0.188874
-0.238989
-0.249925
-0.262436
-0.264735
-0.263347
-0.261733
-0.720849
-0.701353
-0.652774
-0.58407
-0.504941
-0.420814
-0.335555
-0.252223
-0.174448
-0.104529
-0.0612922
-0.071325
-0.13919
-0.207876
-0.243741
-0.250591
-0.252086
-0.256272
-0.257657
-0.257185
-0.74048
-0.722283
-0.675928
-0.609754
-0.533524
-0.452743
-0.371318
-0.292426
-0.219423
-0.154349
-0.113413
-0.116801
-0.170009
-0.217293
-0.243306
-0.256202
-0.254993
-0.255456
-0.256164
-0.256157
-0.754642
-0.738355
-0.695033
-0.632085
-0.559183
-0.482179
-0.405036
-0.330779
-0.262355
-0.201489
-0.162507
-0.162873
-0.199363
-0.226477
-0.241317
-0.254037
-0.255459
-0.256107
-0.256753
-0.257077
-0.761884
-0.748133
-0.708843
-0.649782
-0.580846
-0.508154
-0.435567
-0.366053
-0.302122
-0.244552
-0.205661
-0.209073
-0.236455
-0.24751
-0.24776
-0.25526
-0.260733
-0.264869
-0.266989
-0.268254
-0.762122
-0.751196
-0.716072
-0.661216
-0.59668
-0.528965
-0.461621
-0.397084
-0.337707
-0.282763
-0.23933
-0.252449
-0.282177
-0.294994
-0.290353
-0.297864
-0.301172
-0.3035
-0.304337
-0.305882
-0.754897
-0.745471
-0.714399
-0.664615
-0.605896
-0.544159
-0.482308
-0.422578
-0.367221
-0.314182
-0.267488
-0.284842
-0.330951
-0.373844
-0.401445
-0.41936
-0.414723
-0.400023
-0.38765
-0.38221
-0.734864
-0.72633
-0.700955
-0.658727
-0.60759
-0.552491
-0.49666
-0.44164
-0.389707
-0.337336
-0.288003
-0.298306
-0.357287
-0.444631
-0.51948
-0.548246
-0.543487
-0.51958
-0.493899
-0.474954
-0.696206
-0.690043
-0.67525
-0.644713
-0.6032
-0.555166
-0.504258
-0.453188
-0.404513
-0.354236
-0.293867
-0.277786
-0.320365
-0.408329
-0.498519
-0.535483
-0.534189
-0.50978
-0.482886
-0.463719
-0.653773
-0.652136
-0.64606
-0.625634
-0.59276
-0.551431
-0.505166
-0.45685
-0.409433
-0.360386
-0.285135
-0.212585
-0.179755
-0.192635
-0.228821
-0.230832
-0.200005
-0.161019
-0.127632
-0.108237
-0.624513
-0.624295
-0.618652
-0.605949
-0.581216
-0.545911
-0.502087
-0.453058
-0.401871
-0.346439
-0.257551
-0.120518
0.0279531
0.170102
0.272205
0.366829
0.447559
0.509056
0.54694
0.564229
-0.598854
-0.598354
-0.596451
-0.590506
-0.571541
-0.539967
-0.497435
-0.445087
-0.385943
-0.315184
-0.214478
-0.0478066
0.169105
0.406162
0.62515
0.798771
0.924486
1.00646
1.0484
1.06292
-0.58193
-0.58198
-0.582224
-0.576615
-0.562965
-0.535166
-0.492303
-0.435031
-0.36695
-0.282609
-0.169805
0.00510463
0.2424
0.50933
0.776691
0.999631
1.15986
1.25975
1.31058
1.32887
-0.56869
-0.568739
-0.568541
-0.566001
-0.557827
-0.533284
-0.490355
-0.4294
-0.352354
-0.256441
-0.137127
0.0262197
0.250117
0.513047
0.787753
1.03041
1.21387
1.32801
1.38334
1.40132
-0.55984
-0.559685
-0.559496
-0.55993
-0.55354
-0.530828
-0.489501
-0.428179
-0.345776
-0.243538
-0.125166
0.0172041
0.211963
0.444355
0.692079
0.918749
1.0966
1.20944
1.26344
1.28031
-0.554428
-0.554065
-0.553601
-0.553732
-0.548457
-0.530728
-0.493479
-0.432908
-0.347829
-0.243482
-0.130749
-0.00993622
0.151686
0.343696
0.544908
0.730624
0.879437
0.975724
1.02145
1.03486
-0.554838
-0.553793
-0.551834
-0.549028
-0.544394
-0.53549
-0.50477
-0.444529
-0.356441
-0.251702
-0.148188
-0.0476629
0.0831907
0.236522
0.391206
0.529996
0.640623
0.712962
0.746871
0.755975
-0.568917
-0.566934
-0.563687
-0.559601
-0.558488
-0.553485
-0.522454
-0.457908
-0.366019
-0.26303
-0.172067
-0.0908512
0.0137228
0.134448
0.250859
0.350393
0.428161
0.47908
0.501302
0.504962
-0.598085
-0.59635
-0.595246
-0.596314
-0.60077
-0.589706
-0.546581
-0.470386
-0.372822
-0.273188
-0.196856
-0.135659
-0.0537987
0.0419134
0.131627
0.204249
0.258929
0.294623
0.311075
0.314842
-0.628897
-0.629701
-0.634146
-0.641133
-0.643824
-0.624202
-0.566438
-0.475289
-0.372334
-0.281201
-0.220888
-0.176849
-0.114507
-0.0379546
0.0340395
0.0910365
0.133467
0.162178
0.176808
0.179035
-0.641232
-0.64507
-0.653763
-0.662334
-0.662878
-0.636309
-0.561788
-0.459308
-0.360274
-0.286027
-0.24227
-0.208958
-0.16083
-0.0988394
-0.0391928
0.00830547
0.0442288
0.0690148
0.082304
0.0846356
-0.609713
-0.614426
-0.624714
-0.634664
-0.633672
-0.599979
-0.517412
-0.418839
-0.337361
-0.284799
-0.254111
-0.226562
-0.187297
-0.136061
-0.0858016
-0.0460189
-0.0165656
0.00299682
0.0119566
0.0137677
-0.506952
-0.512715
-0.524497
-0.535773
-0.534647
-0.501463
-0.432938
-0.359375
-0.304885
-0.271319
-0.248275
-0.225799
-0.193466
-0.150821
-0.10931
-0.0781676
-0.056682
-0.0436816
-0.039046
-0.0389259
-0.352452
-0.357561
-0.366701
-0.376787
-0.379254
-0.360966
-0.323688
-0.285622
-0.257769
-0.237241
-0.221048
-0.207135
-0.184115
-0.150246
-0.117323
-0.0949534
-0.0814071
-0.0749256
-0.0740802
-0.0754497
-0.188749
-0.191923
-0.198035
-0.206354
-0.214184
-0.215882
-0.210897
-0.204367
-0.195719
-0.183256
-0.175262
-0.174965
-0.166614
-0.14039
-0.115192
-0.101079
-0.0949377
-0.0936405
-0.0954446
-0.0975571
-0.0566454
-0.0584758
-0.0626252
-0.0699377
-0.0815776
-0.0968482
-0.112991
-0.126505
-0.129856
-0.123217
-0.123103
-0.135808
-0.1511
-0.121974
-0.104727
-0.0992669
-0.0993796
-0.101502
-0.104711
-0.106927
0.0250249
0.0239609
0.020491
0.01332
0.000772184
-0.0184799
-0.0419097
-0.063722
-0.0742255
-0.073251
-0.0797072
-0.0994456
-0.121317
-0.0999621
-0.0911433
-0.0922811
-0.0963901
-0.100596
-0.104175
-0.106056
0.0630861
0.0624292
0.0593171
0.0519432
0.0397321
0.0216038
-0.00147296
-0.0243188
-0.0386716
-0.0432973
-0.0517076
-0.0707609
-0.0840294
-0.0782678
-0.0769166
-0.082168
-0.0885887
-0.0936193
-0.0966391
-0.0980169
0.0738466
0.0734877
0.0711246
0.0642018
0.052387
0.0359547
0.0148534
-0.00691457
-0.0228954
-0.0312644
-0.0377666
-0.0520279
-0.0599741
-0.0591314
-0.0627098
-0.0709541
-0.0782775
-0.0825847
-0.0846206
-0.0856442
0.0704049
0.0702149
0.068761
0.0633002
0.052601
0.037642
0.0187678
-0.000872666
-0.0166044
-0.0268573
-0.0313632
-0.0408813
-0.0480099
-0.0460356
-0.0514239
-0.0600805
-0.0662617
-0.0690717
-0.0703917
-0.0712649
0.0608274
0.0606894
0.0598574
0.0563192
0.0480718
0.0352744
0.0188177
0.00219959
-0.0108166
-0.0210272
-0.0252324
-0.0319506
-0.0395332
-0.0396956
-0.0440938
-0.0506468
-0.0545373
-0.0557424
-0.0565925
-0.0573889
0.0495232
0.0494319
0.0488834
0.0468811
0.0418096
0.0325329
0.0189603
0.00491202
-0.00473075
-0.0119681
-0.016927
-0.0215478
-0.0293648
-0.0332328
-0.0373333
-0.0417056
-0.0435207
-0.0437467
-0.0444718
-0.045175
0.0385203
0.0385001
0.0380979
0.0368479
0.0342328
0.0291839
0.0199551
0.00812713
-0.000177984
-0.00429002
-0.00774304
-0.0114324
-0.0190959
-0.0242302
-0.028154
-0.0312157
-0.0322594
-0.0328589
-0.0338219
-0.0343564
0.0284794
0.0285112
0.0282813
0.0273852
0.0259372
0.0239647
0.0195453
0.0112023
0.00293591
-0.00127794
0.000201294
-0.00506079
-0.0114915
-0.0131744
-0.0171831
-0.0202904
-0.021951
-0.0234296
-0.0244415
-0.0247495
0.0193784
0.0194071
0.0193402
0.0187037
0.017528
0.0167585
0.0156373
0.0114623
0.00464941
-0.000781535
0.00457279
-0.00356779
-0.00862915
-0.00676175
-0.0090472
-0.0119599
-0.0142001
-0.0158969
-0.016549
-0.0166111
0.0111503
0.0111507
0.0112286
0.0110051
0.00997291
0.00906544
0.00903702
0.00789253
0.00350526
-0.00197076
0.00597209
-0.00355291
-0.00878905
-0.00521034
-0.00487497
-0.00791195
-0.00936878
-0.0095734
-0.00939928
-0.00940954
0.00374655
0.00375619
0.00388741
0.00406769
0.00360155
0.00260663
0.00245472
0.00264263
0.00106652
-0.00236275
0.00460596
-0.000781423
-0.00671194
-0.00170383
-0.00169869
-0.00523212
-0.00564057
-0.00468128
-0.00408984
-0.00410737
-0.553464
-0.0989299
0.178179
0.385673
0.551382
0.685358
0.792676
0.883042
0.956109
0.991753
0.10726
0.317628
0.432932
0.551752
0.665658
0.760127
0.829067
0.867671
0.86436
0.863641
0.37278
0.504562
0.597689
0.680173
0.75365
0.814074
0.85685
0.878114
0.883653
0.91947
0.557268
0.645027
0.719036
0.779982
0.829739
0.869689
0.900389
0.923873
0.943373
0.976249
0.704809
0.761925
0.817747
0.862867
0.899461
0.929617
0.95555
0.979676
1.00423
1.02937
0.825204
0.865231
0.905304
0.939562
0.968602
0.993933
1.01728
1.04008
1.06255
1.08133
0.929665
0.956967
0.986703
1.01356
1.03769
1.05988
1.08093
1.10118
1.12032
1.13616
1.02229
1.04121
1.06449
1.08701
1.10783
1.12718
1.14552
1.16309
1.1797
1.19328
1.10669
1.12384
1.14307
1.1613
1.17856
1.19508
1.21104
1.22637
1.24087
1.2531
1.18993
1.20346
1.22003
1.236
1.25105
1.26528
1.27886
1.29196
1.30452
1.315
1.2768
1.28531
1.29829
1.31224
1.32556
1.33789
1.34938
1.3602
1.37054
1.37957
1.36489
1.3705
1.38038
1.39218
1.4037
1.41406
1.42319
1.43148
1.43945
1.44653
1.45657
1.46013
1.46707
1.47529
1.48351
1.49132
1.49847
1.50491
1.51105
1.51685
1.55243
1.55272
1.5546
1.55748
1.56111
1.56574
1.57155
1.57831
1.58527
1.59133
1.65429
1.64552
1.63605
1.62881
1.62543
1.62689
1.63358
1.64487
1.6592
1.67266
1.76093
1.72384
1.69298
1.67395
1.66501
1.66463
1.67279
1.69175
1.72305
1.76194
)
;

boundaryField
{
    wall-4
    {
        type            zeroGradient;
    }
    pressure-outlet-7
    {
        type            fixedValue;
        value           uniform 0;
    }
    velocity-inlet-6
    {
        type            zeroGradient;
    }
    velocity-inlet-5
    {
        type            zeroGradient;
    }
    frontAndBackPlanes
    {
        type            empty;
    }
}


// ************************************************************************* //
