/*--------------------------------*- C++ -*----------------------------------*\
  =========                 |
  \\      /  F ield         | OpenFOAM: The Open Source CFD Toolbox
   \\    /   O peration     | Website:  https://openfoam.org
    \\  /    A nd           | Version:  6
     \\/     M anipulation  |
\*---------------------------------------------------------------------------*/
FoamFile
{
    version     2.0;
    format      ascii;
    class       surfaceScalarField;
    location    "84.4";
    object      phi;
}
// * * * * * * * * * * * * * * * * * * * * * * * * * * * * * * * * * * * * * //

dimensions      [0 3 -1 0 0 0 0];

internalField   nonuniform List<scalar> 
17370
(
-0.0900002
0.0898491
0.289162
-0.0714625
0.0537524
0.364486
-0.0381191
0.0276898
0.426597
-0.0196378
0.0146045
0.504285
-0.0107622
0.00827148
0.601893
-0.00627149
0.00489484
0.720434
-0.00373091
0.0028905
0.863747
-0.00214926
0.00159037
1.03601
-0.00107398
0.000661699
1.24292
-0.000254697
-0.000140877
1.49159
0.00052024
-0.000930438
1.4916
0.00132882
-0.00181784
1.24318
0.00234425
-0.00304862
1.03634
0.00386181
-0.0050057
0.86405
0.0063715
-0.00836411
0.72105
0.0108491
-0.0146846
0.60305
0.0197111
-0.027755
0.507483
0.0381764
-0.0538006
0.431792
0.0715019
-0.0898756
0.365149
0.0900162
0.198995
-0.128137
0.0882278
0.0399091
-0.364599
0.35338
-0.0746709
0.0858904
-0.446477
0.454321
-0.0843867
0.076542
-0.521191
0.529903
-0.0684442
0.059732
-0.612789
0.62157
-0.0515423
0.0427616
-0.726895
0.734166
-0.0352996
0.0280288
-0.867476
0.872593
-0.0224267
0.0173098
-1.03847
1.04193
-0.013499
0.0100483
-1.2446
1.24703
-0.00743665
0.00500266
-1.49262
1.4946
-0.00305327
0.00107179
-1.4925
1.49423
0.000602416
-0.00232687
-1.24397
1.24586
0.0042321
-0.00611784
-1.03751
1.04003
0.00847352
-0.0109987
-0.8661
0.869826
0.0143473
-0.0180731
-0.72439
0.729932
0.0231119
-0.0286543
-0.608697
0.61611
0.0358679
-0.0432808
-0.514896
0.523039
0.0520096
-0.0601526
-0.439856
0.447913
0.0688144
-0.076872
-0.375295
0.376738
0.084668
-0.0861115
-0.257329
0.222476
0.0748209
-0.039967
-0.0685215
0.0586968
0.00982471
-0.0518042
0.0583851
-0.37413
0.367549
-0.057467
0.0537129
-0.453597
0.457351
-0.048621
0.0446665
-0.52795
0.531904
-0.0408241
0.0371828
-0.621567
0.625208
-0.0330782
0.0289999
-0.735353
0.739431
-0.0244266
0.0202645
-0.874344
0.878507
-0.0159157
0.012219
-1.04349
1.04719
-0.00847851
0.00530308
-1.24856
1.25174
-0.00197259
-0.001102
-1.49666
1.49974
0.00415041
-0.00741761
-1.4972
1.50047
0.0104984
-0.0141025
-1.25007
1.25367
0.0176541
-0.0218359
-1.04592
1.0501
0.0258566
-0.0302931
-0.877757
0.882193
0.0342614
-0.0382565
-0.739896
0.743891
0.0418047
-0.0455505
-0.62677
0.630516
0.0494219
-0.0544346
-0.534807
0.53982
0.0581018
-0.058911
-0.457471
0.45828
0.0522021
-0.0319949
-0.335745
0.315538
0.00988944
-0.068341
0.0584516
-0.0529477
0.0489542
0.00399343
-0.0331479
0.0436866
-0.35812
0.347581
-0.0473794
0.0467479
-0.459292
0.459923
-0.0436881
0.0403315
-0.535809
0.539165
-0.0365547
0.0332468
-0.628536
0.631844
-0.0298045
0.0267686
-0.742657
0.745693
-0.0235053
0.0203946
-0.882029
0.885139
-0.0168597
0.0134762
-1.05078
1.05417
-0.00967834
0.00613587
-1.25518
1.25872
-0.00216308
-0.00163624
-1.50325
1.50705
0.00540287
-0.00927758
-1.50413
1.50801
0.0126859
-0.0162949
-1.25741
1.26102
0.0194773
-0.0227787
-1.05391
1.05721
0.0256884
-0.028753
-0.885679
0.888743
0.0316266
-0.0349069
-0.747147
0.750428
0.0380781
-0.0417155
-0.634297
0.637934
0.0449525
-0.0478759
-0.544126
0.54705
0.0483637
-0.0444689
-0.456561
0.452667
0.0336891
-0.0162295
-0.296165
0.278705
0.00407408
-0.0526296
0.0485555
-0.0458789
0.0433864
0.00249256
-0.0227862
0.0331544
-0.3369
0.326532
-0.0389662
0.0399764
-0.459612
0.458602
-0.0387799
0.0364882
-0.541888
0.54418
-0.0338152
0.0312138
-0.634899
0.6375
-0.0281446
0.0252397
-0.748743
0.751648
-0.0219687
0.0189692
-0.888098
0.891097
-0.0156577
0.0125525
-1.0573
1.06041
-0.00902035
0.00560648
-1.26218
1.2656
-0.0016389
-0.00224792
-1.51093
1.51482
0.00609069
-0.00992658
-1.5119
1.51573
0.0131615
-0.0164444
-1.26445
1.26773
0.019285
-0.02229
-1.06031
1.06332
0.0250234
-0.0280285
-0.891789
0.894794
0.030713
-0.0335607
-0.753628
0.756476
0.0359748
-0.0384598
-0.640994
0.64348
0.0405905
-0.0415748
-0.548847
0.549832
0.0403423
-0.0342059
-0.447376
0.44124
0.0234826
-0.0102488
-0.263472
0.250239
0.00259229
-0.045389
0.0427967
-0.0413146
0.0395514
0.00176327
-0.0167191
0.0259548
-0.316692
0.307456
-0.0325452
0.0346743
-0.45701
0.454881
-0.0342441
0.0325665
-0.546162
0.54784
-0.0303782
0.028276
-0.639811
0.641913
-0.0258367
0.0234317
-0.754299
0.756704
-0.0205646
0.0177673
-0.894
0.896797
-0.014522
0.0114445
-1.06346
1.06654
-0.00794571
0.00461298
-1.26892
1.27225
-0.000774295
-0.00296223
-1.51861
1.52235
0.00664255
-0.0103135
-1.51946
1.52313
0.0134187
-0.0166006
-1.27097
1.27415
0.0193406
-0.0221939
-1.06635
1.0692
0.0246492
-0.0271726
-0.897597
0.90012
0.0292921
-0.0314451
-0.758917
0.76107
0.0333075
-0.0352536
-0.645626
0.647572
0.0366978
-0.0368398
-0.550339
0.550481
0.0343698
-0.0273037
-0.434556
0.42749
0.0175889
-0.00742362
-0.238688
0.228523
0.00188512
-0.0406132
0.038728
-0.0380335
0.0367092
0.00132434
-0.0127497
0.0206734
-0.298882
0.290958
-0.0274006
0.0303061
-0.452334
0.449429
-0.0304965
0.0293654
-0.549278
0.550409
-0.0273621
0.0254356
-0.643956
0.645882
-0.0232243
0.0210762
-0.758951
0.761099
-0.0185487
0.0160532
-0.89938
0.901875
-0.013097
0.0102047
-1.06949
1.07238
-0.00682889
0.00357637
-1.27552
1.27877
0.000180247
-0.00381435
-1.526
1.52964
0.0073779
-0.0109232
-1.52672
1.53027
0.0138899
-0.0168687
-1.27727
1.28025
0.0193388
-0.0218047
-1.07193
1.0744
0.023872
-0.0259675
-0.902393
0.904489
0.0277551
-0.0296033
-0.763043
0.764891
0.031227
-0.0329362
-0.649381
0.65109
0.0337276
-0.0331338
-0.550257
0.549663
0.0297403
-0.0223611
-0.420209
0.412829
0.0138213
-0.00576405
-0.219511
0.211454
0.00147259
-0.0370739
0.0356013
-0.0355537
0.0345355
0.00101817
-0.00994274
0.0166279
-0.28368
0.276995
-0.0230785
0.0264267
-0.446282
0.442934
-0.0271871
0.0264717
-0.551326
0.552041
-0.0246982
0.0229004
-0.647788
0.649586
-0.0208145
0.0187825
-0.763183
0.765215
-0.0163926
0.0140476
-0.904226
0.906571
-0.0112887
0.00858483
-1.07511
1.07781
-0.00540709
0.00230544
-1.28191
1.28501
0.00131962
-0.00484131
-1.5332
1.53672
0.00827532
-0.0116374
-1.5337
1.53707
0.0143847
-0.0170717
-1.2831
1.28579
0.0192537
-0.0214074
-1.07677
1.07893
0.0232232
-0.0250779
-0.906448
0.908303
0.0266624
-0.0282977
-0.766625
0.76826
0.0297197
-0.0310855
-0.652656
0.654022
0.0313799
-0.0300471
-0.54871
0.547378
0.0260261
-0.0187167
-0.405457
0.398147
0.0112565
-0.00466691
-0.204198
0.197608
0.0011985
-0.0342803
0.0330818
-0.0336434
0.0328533
0.000790111
-0.00785731
0.0134613
-0.27088
0.265276
-0.0194153
0.0229502
-0.439484
0.435949
-0.0241786
0.0237054
-0.552671
0.553144
-0.0221935
0.0205011
-0.651381
0.653074
-0.0185052
0.016554
-0.767199
0.76915
-0.0142506
0.011988
-0.908807
0.911069
-0.00932696
0.00672872
-1.08039
1.08298
-0.00368772
0.000725831
-1.288
1.29096
0.00273095
-0.00608094
-1.54013
1.54348
0.00932333
-0.0124576
-1.54029
1.54342
0.014986
-0.0174269
-1.28836
1.2908
0.0193863
-0.021306
-1.08106
1.08298
0.0229195
-0.024565
-0.910043
0.911689
0.0259665
-0.0274086
-0.769789
0.771231
0.0286317
-0.0296114
-0.655189
0.656169
0.0295293
-0.027521
-0.545702
0.543693
0.0230874
-0.0160311
-0.390956
0.383899
0.0094638
-0.00391113
-0.191585
0.186032
0.00100931
-0.0319885
0.0309792
-0.0321618
0.0315492
0.00061262
-0.00624319
0.0109219
-0.260163
0.255485
-0.0162732
0.0197967
-0.432422
0.428898
-0.0213378
0.0210841
-0.553547
0.5538
-0.0197978
0.0181603
-0.654788
0.656425
-0.0162151
0.014308
-0.771068
0.772975
-0.0120571
0.00984703
-0.913228
0.915438
-0.00724787
0.00471435
-1.08547
1.08801
-0.00175851
-0.00110248
-1.29381
1.29668
0.00441253
-0.00758897
-1.54671
1.54988
0.0106344
-0.013552
-1.54641
1.54933
0.0158865
-0.0181137
-1.29316
1.29538
0.0198703
-0.0215671
-1.08491
1.0866
0.0229856
-0.0244313
-0.913219
0.914665
0.0256637
-0.0269276
-0.772573
0.773836
0.0280061
-0.0285629
-0.656944
0.657501
0.0280933
-0.0255106
-0.541398
0.538816
0.0208155
-0.0140725
-0.377004
0.370261
0.00820429
-0.00338736
-0.180882
0.176065
0.0008789
-0.0300435
0.0291646
-0.0310176
0.0305495
0.000468158
-0.00493897
0.00881762
-0.251234
0.247355
-0.0135216
0.0168842
-0.425467
0.422104
-0.0185966
0.0185254
-0.55401
0.554081
-0.0174243
0.0158171
-0.658115
0.659722
-0.0138876
0.0119889
-0.774861
0.77676
-0.00974908
0.00755611
-0.917548
0.919741
-0.00498648
0.00249125
-1.09043
1.09293
0.000407161
-0.00319517
-1.29944
1.30223
0.00639327
-0.0094283
-1.55295
1.55599
0.0123035
-0.0150233
-1.55211
1.55483
0.0171709
-0.0191849
-1.29752
1.29954
0.020737
-0.0222119
-1.08833
1.08981
0.0234443
-0.0247068
-0.915998
0.91726
0.0257885
-0.0268925
-0.775005
0.776109
0.0277659
-0.0279579
-0.657864
0.658056
0.0270615
-0.0239842
-0.535985
0.532907
0.0191192
-0.0126753
-0.363682
0.357238
0.00733232
-0.00303145
-0.171536
0.167235
0.00079189
-0.0283369
0.027545
-0.0301508
0.0298055
0.000345312
-0.00384152
0.00701506
-0.243855
0.240681
-0.011059
0.0141499
-0.418897
0.415806
-0.0159056
0.0159789
-0.554136
0.554062
-0.0149501
0.0134083
-0.661373
0.662915
-0.0114655
0.00954135
-0.778648
0.780572
-0.00727263
0.00505971
-0.92184
0.924053
-0.00248013
-9.68219e-06
-1.09532
1.09781
0.00288236
-0.00562476
-1.30493
1.30767
0.00874203
-0.011665
-1.55892
1.56184
0.0143944
-0.0169321
-1.55741
1.55995
0.0189004
-0.020705
-1.30147
1.30328
0.0220557
-0.0233134
-1.09134
1.0926
0.0243654
-0.0254509
-0.918406
0.919492
0.0263871
-0.0273279
-0.777107
0.778048
0.0279392
-0.0278313
-0.658101
0.657993
0.0264736
-0.0229363
-0.529604
0.526067
0.0179379
-0.011732
-0.350935
0.344729
0.00676009
-0.00280476
-0.163133
0.159178
0.000738659
-0.026787
0.0260483
-0.0295229
0.0292878
0.000235052
-0.00287465
0.00540934
-0.237852
0.235317
-0.0087924
0.0115273
-0.41292
0.410185
-0.0132106
0.013353
-0.55402
0.553878
-0.0123581
0.010849
-0.664527
0.666036
-0.00886804
0.00688726
-0.782492
0.784473
-0.00455179
0.00228254
-0.926175
0.928445
0.000348602
-0.00287167
-1.10021
1.10274
0.00576018
-0.00849136
-1.31033
1.31306
0.0115588
-0.0143917
-1.56468
1.56751
0.0169911
-0.0193595
-1.56234
1.56471
0.0211579
-0.022759
-1.305
1.3066
0.0239078
-0.0249435
-1.09395
1.09498
0.0258101
-0.026712
-0.920456
0.921358
0.0274947
-0.0282716
-0.778839
0.779616
0.0285991
-0.028165
-0.657746
0.657312
0.0263429
-0.0223623
-0.52233
0.518349
0.0172259
-0.0111683
-0.338625
0.332568
0.00642933
-0.00268118
-0.155351
0.151602
0.000712391
-0.0253298
0.0246175
-0.0291126
0.0289829
0.000129722
-0.00197445
0.00390696
-0.233108
0.231175
-0.00662267
0.00893032
-0.407695
0.405387
-0.0104324
0.0105646
-0.553822
0.553689
-0.00956812
0.00805128
-0.667652
0.669169
-0.0060024
0.00393344
-0.786452
0.788521
-0.00149377
-0.000867661
-0.930623
0.932985
0.00359163
-0.00618663
-1.10518
1.10777
0.00913299
-0.0118894
-1.31572
1.31848
0.0149429
-0.0177129
-1.57026
1.57303
0.0202011
-0.0224114
-1.56694
1.56915
0.0240448
-0.0254429
-1.30812
1.30952
0.0263838
-0.0271906
-1.09614
1.09695
0.0278609
-0.0285641
-0.922129
0.922832
0.0291894
-0.0298241
-0.780219
0.780854
0.0298063
-0.0289638
-0.656693
0.655851
0.0266667
-0.0222403
-0.514187
0.509761
0.016933
-0.0109226
-0.326567
0.320557
0.00629474
-0.00264038
-0.147925
0.144271
0.000707659
-0.0239146
0.0232069
-0.0289134
0.0288903
2.31003e-05
-0.00109251
0.00243514
-0.22956
0.228217
-0.00446747
0.00628266
-0.403361
0.401546
-0.00749957
0.00753919
-0.553706
0.553666
-0.00649316
0.00492906
-0.670832
0.672396
-0.00277067
0.000577697
-0.79059
0.792783
0.0020094
-0.00450418
-0.935257
0.937752
0.00736627
-0.0100738
-1.11029
1.113
0.0131211
-0.0159397
-1.32118
1.32399
0.0190151
-0.0217482
-1.57572
1.57845
0.0241419
-0.0262019
-1.5712
1.57326
0.0276713
-0.0288622
-1.31084
1.31203
0.0295967
-0.0301736
-1.09791
1.09849
0.0306431
-0.0311379
-0.923402
0.923897
0.0315831
-0.0319631
-0.781225
0.781605
0.0316504
-0.0303214
-0.654817
0.653488
0.0275072
-0.022594
-0.505147
0.500234
0.0170497
-0.0109685
-0.31455
0.308469
0.0063353
-0.00267297
-0.140637
0.136974
0.000722111
-0.0224994
0.0217773
-0.0289278
0.0290147
-8.68883e-05
-0.000181335
0.000925093
-0.227192
0.226448
-0.00224421
0.00350056
-0.400045
0.398789
-0.00433023
0.00419174
-0.553847
0.553985
-0.00303673
0.0013656
-0.674156
0.675827
0.00094093
-0.00330115
-0.794978
0.797338
0.00608406
-0.00875696
-0.940158
0.942831
0.0118074
-0.0146737
-1.11564
1.11851
0.0178704
-0.0207908
-1.32676
1.32968
0.0239241
-0.0266463
-1.58111
1.58383
0.0289626
-0.0308796
-1.57516
1.57708
0.0321851
-0.0331675
-1.31313
1.31411
0.0336892
-0.0340259
-1.09923
1.09957
0.0342823
-0.0345566
-0.924248
0.924523
0.0347975
-0.0348505
-0.781667
0.78172
0.0342067
-0.0323104
-0.651962
0.650065
0.0289173
-0.023446
-0.495115
0.489644
0.0175719
-0.0112899
-0.302333
0.296051
0.00653682
-0.00277184
-0.133286
0.129521
0.000753593
-0.0210471
0.0202935
-0.0291737
0.0293924
-0.000218638
0.000776132
-0.000684553
-0.226031
0.22594
0.000130897
0.000491403
-0.39788
0.397257
-0.000829191
0.000421966
-0.554431
0.554838
0.00091249
-0.00274929
-0.677749
0.679586
0.00525953
-0.00783597
-0.7997
0.802276
0.0108713
-0.0137759
-0.945418
0.948322
0.0170735
-0.0201504
-1.12131
1.12439
0.0235496
-0.0266158
-1.33256
1.33563
0.029848
-0.0325849
-1.58649
1.58922
0.0348348
-0.03661
-1.57882
1.5806
0.0377491
-0.0385164
-1.31497
1.31574
0.0388166
-0.0388951
-1.10007
1.10015
0.038921
-0.0389609
-0.924632
0.924671
0.0390096
-0.0386359
-0.781441
0.781067
0.0375701
-0.0350167
-0.647975
0.645422
0.0309551
-0.0248193
-0.483931
0.477795
0.0184972
-0.0118723
-0.289646
0.283022
0.00688583
-0.00292956
-0.125686
0.121729
0.000799672
-0.0195245
0.0187248
-0.0296846
0.0300485
-0.000363995
0.00184249
-0.00238044
-0.226176
0.226714
0.00268743
-0.00281728
-0.397008
0.397138
0.00312244
-0.00391088
-0.555677
0.556466
0.00548889
-0.00755884
-0.681733
0.683803
0.0103489
-0.013209
-0.804854
0.807714
0.0165671
-0.0197654
-0.951147
0.954345
0.023376
-0.0267204
-1.12742
1.13077
0.0303791
-0.0336343
-1.33866
1.34191
0.0369994
-0.0397673
-1.59189
1.59466
0.0419512
-0.0435726
-1.58217
1.58379
0.0445301
-0.04508
-1.31634
1.31689
0.0451524
-0.044952
-1.10037
1.10017
0.0447282
-0.0445203
-0.924499
0.924291
0.0443426
-0.0434626
-0.780361
0.779481
0.0418854
-0.0385485
-0.642675
0.639339
0.033692
-0.0267444
-0.471366
0.464419
0.0198286
-0.012705
-0.276203
0.269079
0.00737069
-0.00313915
-0.117662
0.11343
0.000857924
-0.0179037
0.0170458
-0.0304867
0.0310293
-0.000542567
0.00313335
-0.00445767
-0.227677
0.229002
0.00566563
-0.00659542
-0.397635
0.398564
0.00764395
-0.00892712
-0.557825
0.559108
0.0108728
-0.0132566
-0.686251
0.688634
0.0164119
-0.0196294
-0.810571
0.813788
0.0233887
-0.0269521
-0.957472
0.961035
0.030952
-0.0346285
-1.13408
1.13775
0.0386076
-0.0420964
-1.34514
1.34863
0.0456287
-0.0484431
-1.59736
1.60017
0.0505578
-0.0520073
-1.58518
1.58663
0.052763
-0.0530812
-1.31721
1.31752
0.052905
-0.0524022
-1.1001
1.0996
0.0519126
-0.0514361
-0.923813
0.923337
0.050891
-0.049546
-0.778349
0.777004
0.0472817
-0.0429982
-0.635802
0.631518
0.0371809
-0.0292336
-0.457109
0.449162
0.0215536
-0.0137655
-0.261685
0.253897
0.00797121
-0.00338894
-0.10905
0.104468
0.000924248
-0.0161623
0.0152381
-0.0316529
0.0324243
-0.00077144
0.00467774
-0.00689889
-0.230768
0.232989
0.00919279
-0.0110512
-0.399977
0.401835
0.012956
-0.0148504
-0.561119
0.563013
0.0172974
-0.0200885
-0.691466
0.694257
0.0237201
-0.0273824
-0.817003
0.820666
0.031639
-0.0356523
-0.96454
0.968554
0.0401267
-0.0442026
-1.14141
1.14549
0.0485619
-0.052322
-1.3521
1.35586
0.0560413
-0.0588983
-1.60291
1.60577
0.0609229
-0.062168
-1.58783
1.58907
0.0626846
-0.0627448
-1.31749
1.31755
0.0622995
-0.0614654
-1.09921
1.09838
0.0606871
-0.0599324
-0.922516
0.921762
0.0589227
-0.0570037
-0.775436
0.773517
0.0539131
-0.0484668
-0.627011
0.621565
0.0414693
-0.0322841
-0.440762
0.431577
0.0236421
-0.0150157
-0.245757
0.237131
0.00865642
-0.0036622
-0.0997047
0.0947105
0.000993215
-0.0142863
0.0132931
-0.0332743
0.0343423
-0.00106797
0.0066081
-0.00992896
-0.235676
0.238996
0.013485
-0.016418
-0.404308
0.40724
0.0193162
-0.021953
-0.565844
0.568481
0.025054
-0.0283942
-0.697586
0.700927
0.0326422
-0.0368666
-0.824335
0.828559
0.0417362
-0.0462929
-0.972524
0.977081
0.0513304
-0.0558695
-1.14955
1.15409
0.0606539
-0.0646988
-1.35959
1.36363
0.0685883
-0.071447
-1.60852
1.61138
0.0733289
-0.0743166
-1.59003
1.59102
0.0745412
-0.0742981
-1.31707
1.31683
0.0735699
-0.072368
-1.09763
1.09643
0.071284
-0.0702363
-0.920603
0.919555
0.068665
-0.0660461
-0.771421
0.768803
0.0619146
-0.0550043
-0.615845
0.608935
0.0465398
-0.0358283
-0.421833
0.411121
0.0260088
-0.016378
-0.228075
0.218444
0.00937033
-0.00393087
-0.0895166
0.0840771
0.00105605
-0.0122744
0.0112183
-0.0354777
0.0369594
-0.00148169
0.00914915
-0.0138309
-0.24276
0.247442
0.0188891
-0.0230656
-0.410992
0.415169
0.0271162
-0.0306482
-0.572331
0.575863
0.0345861
-0.0386398
-0.704911
0.708964
0.0436771
-0.0486043
-0.832792
0.83772
0.054218
-0.0594174
-0.981614
0.986814
0.0650997
-0.070145
-1.15862
1.16367
0.0753641
-0.0796695
-1.36762
1.37193
0.0836688
-0.0864474
-1.61408
1.61686
0.0880955
-0.0887295
-1.59165
1.59229
0.0886028
-0.0880057
-1.3159
1.3153
0.0869345
-0.0853461
-1.09529
1.0937
0.0839484
-0.0824377
-0.917988
0.916477
0.080363
-0.0767769
-0.765975
0.762389
0.0713283
-0.0625721
-0.601684
0.592927
0.0522844
-0.0397131
-0.399733
0.387162
0.0284975
-0.017726
-0.20832
0.197549
0.0100289
-0.00415578
-0.0784391
0.072566
0.00110131
-0.010144
0.00904269
-0.0384706
0.0405397
-0.00206915
0.0126698
-0.0190819
-0.252518
0.25893
0.0259411
-0.0315646
-0.420525
0.426148
0.0369737
-0.0415999
-0.580968
0.585594
0.0465825
-0.0515585
-0.713787
0.718763
0.057615
-0.0634098
-0.842654
0.848449
0.0699016
-0.075823
-0.992006
0.997927
0.0821872
-0.0877238
-1.16868
1.17422
0.0933085
-0.097768
-1.37611
1.38057
0.101722
-0.104256
-1.61939
1.62192
0.105514
-0.105657
-1.59248
1.59262
0.105092
-0.104019
-1.31386
1.31278
0.102577
-0.100615
-1.09215
1.09019
0.0988843
-0.0968053
-0.914313
0.912234
0.0941553
-0.0892897
-0.758534
0.753668
0.0821129
-0.0709957
-0.583721
0.572604
0.0584444
-0.0436495
-0.373801
0.359006
0.0308478
-0.0188701
-0.186256
0.174279
0.0105151
-0.00428619
-0.0665266
0.0602977
0.00111517
-0.00793637
0.0068212
-0.042579
0.0455623
-0.00298321
0.017774
-0.0264653
-0.265688
0.274379
0.0355466
-0.0429096
-0.433579
0.440942
0.0499352
-0.0558803
-0.592255
0.5982
0.0622427
-0.0684708
-0.724655
0.730883
0.0757575
-0.0825351
-0.85422
0.860997
0.089963
-0.0965919
-1.00382
1.01045
0.103548
-0.109432
-1.17964
1.18552
0.115169
-0.119553
-1.38477
1.38916
0.123188
-0.125228
-1.62407
1.62611
0.125874
-0.125336
-1.59222
1.59168
0.124193
-0.122541
-1.31076
1.30911
0.120711
-0.118336
-1.08815
1.08577
0.116179
-0.113533
-0.909346
0.9067
0.110011
-0.103425
-0.748414
0.741828
0.0939739
-0.0798559
-0.560891
0.546773
0.0645391
-0.0471755
-0.343351
0.325988
0.0326823
-0.0195611
-0.161821
0.1487
0.0106873
-0.00426569
-0.0539771
0.0475555
0.0010834
-0.00571997
0.00463658
-0.048391
0.0529119
-0.00452086
0.0256683
-0.0374395
-0.283449
0.29522
0.0493945
-0.0590921
-0.45122
0.460917
0.068164
-0.0757042
-0.606777
0.614318
0.0837244
-0.0914718
-0.737962
0.74571
0.100052
-0.107759
-0.867698
0.875404
0.115963
-0.123071
-1.01695
1.02406
0.130288
-0.136171
-1.19111
1.197
0.141645
-0.145571
-1.39308
1.39701
0.148477
-0.14967
-1.62758
1.62877
0.149407
-0.14794
-1.59046
1.58899
0.146045
-0.143719
-1.30639
1.30406
0.141431
-0.138604
-1.08314
1.08031
0.135947
-0.132651
-0.903003
0.899707
0.12782
-0.118794
-0.734598
0.725572
0.1063
-0.0884075
-0.531854
0.513962
0.0698139
-0.0496526
-0.307803
0.287642
0.033533
-0.0195269
-0.135263
0.121257
0.0104061
-0.00404402
-0.0411674
0.0348054
0.000993181
-0.0035881
0.00259492
-0.0570063
0.0647081
-0.00770183
0.0394527
-0.0557567
-0.307977
0.324281
0.0717662
-0.0846505
-0.475074
0.487958
0.0958842
-0.104906
-0.625028
0.63405
0.114543
-0.123658
-0.753997
0.763112
0.133275
-0.141462
-0.88281
0.890997
0.149817
-0.156773
-1.03076
1.03772
0.16357
-0.168824
-1.20227
1.20753
0.173396
-0.176277
-1.40017
1.40305
0.177888
-0.177757
-1.62913
1.629
0.1762
-0.173527
-1.58669
1.58402
0.170681
-0.16754
-1.30051
1.29737
0.164708
-0.161373
-1.07698
1.07365
0.158131
-0.153786
-0.89484
0.890495
0.147023
-0.134509
-0.715502
0.702988
0.1179
-0.0953931
-0.494938
0.472431
0.073258
-0.0504146
-0.266931
0.244087
0.0330207
-0.0186174
-0.107305
0.0929019
0.00961542
-0.00360407
-0.0286555
0.0226441
0.000834398
-0.00164849
0.000814092
-0.0718595
0.0761742
-0.00431468
0.0301381
-0.0444127
-0.343271
0.357546
0.0587572
-0.070641
-0.506529
0.518413
0.0813897
-0.0915414
-0.646762
0.656913
0.103042
-0.113715
-0.771598
0.782271
0.125641
-0.136272
-0.898153
0.908784
0.147672
-0.157905
-1.04378
1.05401
0.168765
-0.178244
-1.21174
1.22122
0.187934
-0.195954
-1.40483
1.41285
0.203551
-0.209081
-1.62777
1.6333
0.212554
-0.214617
-1.58031
1.58237
0.21542
-0.215767
-1.2928
1.29315
0.216068
-0.215468
-1.06929
1.06869
0.213969
-0.209248
-0.883644
0.878923
0.198993
-0.178989
-0.68881
0.668806
0.152565
-0.118651
-0.448665
0.414751
0.0875285
-0.0574221
-0.221271
0.191164
0.0360628
-0.019473
-0.0792695
0.0626797
0.00960374
-0.00337958
-0.0171078
0.0108836
0.000702189
3.39278e-05
-0.000736117
-0.0837921
0.0818583
0.00193382
0.00817721
-0.017487
-0.374624
0.383933
0.0284377
-0.0370942
-0.535051
0.543708
0.0458849
-0.0543675
-0.669846
0.678329
0.0648539
-0.0747635
-0.792382
0.802291
0.0854511
-0.0952369
-0.918791
0.928577
0.105718
-0.114784
-1.06397
1.07303
0.124605
-0.132822
-1.23052
1.23873
0.141216
-0.147941
-1.4206
1.42732
0.153937
-0.158155
-1.63821
1.64243
0.160488
-0.161511
-1.584
1.58503
0.161234
-0.160503
-1.29239
1.29166
0.15985
-0.158781
-1.06571
1.06465
0.156374
-0.149904
-0.869221
0.862751
0.138369
-0.119102
-0.64473
0.625463
0.0967065
-0.0708635
-0.37883
0.352987
0.0495975
-0.0311105
-0.161942
0.143455
0.0188764
-0.00990282
-0.0472713
0.0382977
0.00473824
-0.00161291
-0.00490455
0.00177922
0.000303312
0.00164525
-0.00194856
-0.0853436
0.0823809
0.00296265
-0.000993792
-0.00438767
-0.396012
0.401393
0.0116994
-0.0181101
-0.556353
0.562764
0.0246601
-0.0319674
-0.689446
0.696754
0.0410921
-0.0496975
-0.811172
0.819777
0.0591907
-0.0677255
-0.937519
0.946053
0.0766284
-0.0847241
-1.08193
1.09002
0.0932952
-0.100575
-1.24653
1.25381
0.107581
-0.113054
-1.43343
1.43891
0.118005
-0.121117
-1.6461
1.64921
0.122422
-0.122508
-1.5856
1.58569
0.121535
-0.120222
-1.29022
1.28891
0.118624
-0.116785
-1.06049
1.05865
0.113719
-0.106722
-0.852392
0.845394
0.095703
-0.0788858
-0.603273
0.586456
0.0613081
-0.042914
-0.325564
0.30717
0.029367
-0.0183952
-0.125009
0.114037
0.0113132
-0.00612229
-0.0294377
0.0242468
0.00303656
-0.0010843
0.00155863
-0.00351089
0.00022225
0.00246112
-0.00268337
-0.084076
0.0811901
0.00288586
-0.00502509
0.00231855
-0.410314
0.41302
0.00244941
-0.00731402
-0.572298
0.577162
0.0128189
-0.0189372
-0.705563
0.711681
0.0267672
-0.0341433
-0.827621
0.834997
0.0422391
-0.0495455
-0.953988
0.961294
0.05756
-0.064428
-1.09765
1.10452
0.0718822
-0.0777504
-1.26065
1.26652
0.0837211
-0.0882806
-1.44414
1.4487
0.0920726
-0.0939748
-1.65194
1.65385
0.0945629
-0.0940353
-1.5853
1.58477
0.0925642
-0.0903226
-1.287
1.28476
0.088123
-0.0855127
-1.05403
1.05142
0.0818622
-0.0753989
-0.834439
0.827976
0.0656145
-0.0523099
-0.567231
0.553926
0.0396211
-0.0276453
-0.287873
0.275897
0.0193446
-0.0127688
-0.102432
0.095856
0.00837487
-0.00493101
-0.0184764
0.0150326
0.00265726
-0.00105063
0.00590483
-0.00751146
0.000250856
0.00308168
-0.00333254
-0.082475
0.0798802
0.00259482
-0.00649262
0.00547811
-0.419897
0.420911
-0.00190817
-0.00171751
-0.585063
0.588688
0.0060937
-0.0115973
-0.719073
0.724577
0.018157
-0.0246013
-0.841561
0.848005
0.0315753
-0.0378863
-0.968091
0.974402
0.0447217
-0.0507586
-1.11121
1.11725
0.0570143
-0.0622459
-1.27219
1.27742
0.0672323
-0.0709131
-1.45282
1.4565
0.0737555
-0.0748117
-1.65554
1.6566
0.0746276
-0.0731814
-1.58351
1.58206
0.0711389
-0.0684404
-1.28215
1.27945
0.0656634
-0.0622156
-1.04655
1.04311
0.0583537
-0.0524326
-0.817441
0.81152
0.0445602
-0.0346031
-0.538572
0.528615
0.0260205
-0.0185779
-0.262704
0.255261
0.0135996
-0.00969763
-0.0884308
0.0845289
0.00689865
-0.00442156
-0.0109149
0.00843783
0.00259605
-0.00111621
0.00953181
-0.0110116
0.000302017
0.00371911
-0.00402112
-0.0809054
0.0786447
0.00226068
-0.00666065
0.00624279
-0.426405
0.426823
-0.00412905
0.00120612
-0.594874
0.597797
0.00299782
-0.00767501
-0.730459
0.735136
0.0132618
-0.0188
-0.853558
0.859096
0.0249241
-0.0304924
-0.980302
0.98587
0.0366404
-0.0418379
-1.12294
1.12814
0.0473137
-0.0518469
-1.28229
1.28682
0.0560163
-0.058948
-1.4598
1.46273
0.0609369
-0.0615963
-1.65745
1.65811
0.0606489
-0.0586447
-1.58004
1.57803
0.055993
-0.0526621
-1.27626
1.27293
0.0495451
-0.0453489
-1.03807
1.03387
0.0411108
-0.0357898
-0.801826
0.796505
0.029457
-0.0221931
-0.516727
0.509463
0.0165936
-0.0122167
-0.24652
0.242143
0.00959699
-0.00748266
-0.0796931
0.0775788
0.00574636
-0.00401799
-0.00534738
0.003619
0.00253821
-0.00118931
0.0128052
-0.0141541
0.000352235
0.0044078
-0.00476003
-0.0796065
0.0777977
0.00180872
-0.00599806
0.00601526
-0.431102
0.431085
-0.00432853
0.00216983
-0.603338
0.605497
0.00169031
-0.00588252
-0.740229
0.744421
0.0110934
-0.0157977
-0.864167
0.868871
0.0210931
-0.0259417
-0.991346
0.996195
0.0316319
-0.0362139
-1.1333
1.13788
0.0409132
-0.0449684
-1.29108
1.29513
0.0489186
-0.0512797
-1.46555
1.46792
0.0527715
-0.0527272
-1.65821
1.65817
0.0514837
-0.0486191
-1.57562
1.57275
0.0456004
-0.0418354
-1.26909
1.26532
0.0380402
-0.0335081
-1.02858
1.02405
0.0289058
-0.0237316
-0.787547
0.782373
0.0187015
-0.0132333
-0.500227
0.494759
0.00960892
-0.00738496
-0.2364
0.234176
0.00618552
-0.0052456
-0.0744605
0.0735206
0.00437594
-0.0033265
-0.00133635
0.000286918
0.00224928
-0.00113787
0.0157018
-0.0168132
0.000371521
0.00513871
-0.00551023
-0.078764
0.0773136
0.00145043
-0.00506676
0.00531463
-0.434641
0.434393
-0.00384702
0.001861
-0.610567
0.612553
0.00172302
-0.00544261
-0.748869
0.752588
0.00983186
-0.0142684
-0.873478
0.877915
0.0190558
-0.0239221
-1.00078
1.00565
0.0286964
-0.0329068
-1.1425
1.14671
0.0375006
-0.0410527
-1.29896
1.30251
0.0441608
-0.0465453
-1.47005
1.47243
0.0476811
-0.0473248
-1.65801
1.65765
0.0455408
-0.0424567
-1.56985
1.56677
0.0390072
-0.0347094
-1.26087
1.25657
0.0305006
-0.0254308
-1.01846
1.01339
0.0204766
-0.0155272
-0.774152
0.769203
0.0109063
-0.00673041
-0.487361
0.483185
0.00442204
-0.00333398
-0.230265
0.229177
0.00301156
-0.00292605
-0.0716081
0.0715226
0.002697
-0.00227328
0.0011465
-0.00157023
0.001673
-0.000922419
0.0179546
-0.0187052
0.000336067
0.00583013
-0.00616619
-0.0784364
0.0771969
0.00123947
-0.00386631
0.00393805
-0.437625
0.437554
-0.00274656
0.000846015
-0.617046
0.618947
0.00242381
-0.00595729
-0.756769
0.760302
0.010075
-0.0140107
-0.88211
0.886046
0.0188105
-0.0227458
-1.00985
1.01379
0.0273398
-0.0312122
-1.15101
1.15489
0.0354736
-0.0389816
-1.30594
1.30945
0.0420722
-0.0438753
-1.47443
1.47623
0.0448678
-0.0443518
-1.65703
1.65651
0.0425844
-0.0390687
-1.56331
1.55979
0.0353539
-0.0306747
-1.25204
1.24736
0.0261331
-0.0206093
-1.00738
1.00186
0.015475
-0.0102471
-0.761249
0.756021
0.00599991
-0.00243747
-0.476957
0.473394
0.000614394
-0.000175542
-0.22627
0.225831
0.000283255
-0.000653763
-0.0705006
0.0708712
0.000918816
-0.00107169
0.00227029
-0.00211741
0.000945992
-0.000617489
0.0193463
-0.0196748
0.000253047
0.00637317
-0.00662622
-0.0783796
0.0774757
0.000903878
-0.00275609
0.00238629
-0.440554
0.440924
-0.00140954
-0.000512645
-0.622661
0.624584
0.00340652
-0.00675121
-0.763998
0.767343
0.0106216
-0.0146153
-0.88982
0.893813
0.0186891
-0.0226941
-1.01788
1.02189
0.0271217
-0.0306396
-1.15913
1.16265
0.0348167
-0.0380805
-1.31266
1.31592
0.0409548
-0.0429952
-1.47833
1.48037
0.0440665
-0.0433566
-1.65585
1.65514
0.0412679
-0.0378599
-1.55622
1.55281
0.034114
-0.029156
-1.24225
1.23729
0.0242777
-0.0187067
-0.995695
0.990124
0.01299
-0.00768264
-0.748286
0.742978
0.00354262
-0.000211194
-0.467818
0.464487
-0.00141316
0.0018745
-0.223382
0.22292
-0.00163134
0.00109144
-0.0703784
0.0709183
-0.000538742
9.35219e-06
0.00226203
-0.00173264
0.000250938
-0.00028972
0.019857
-0.0198182
0.00015689
0.00669484
-0.00685173
-0.0787315
0.0780054
0.000726105
-0.00179951
0.00148512
-0.443603
0.443917
-2.1166e-05
-0.00171956
-0.628254
0.629995
0.00475052
-0.00792166
-0.770604
0.773775
0.0115838
-0.0151097
-0.897448
0.900974
0.0192383
-0.0228423
-1.02584
1.02945
0.0271128
-0.0309696
-1.16657
1.17042
0.0346287
-0.0380648
-1.31915
1.32259
0.0411558
-0.0430393
-1.48218
1.48406
0.0441467
-0.0438264
-1.65448
1.65416
0.0417421
-0.0384582
-1.54905
1.54577
0.0344665
-0.0294838
-1.23213
1.22715
0.024607
-0.0187664
-0.983707
0.977866
0.0130792
-0.00742975
-0.735446
0.729796
0.0031748
0.000232651
-0.458891
0.455483
-0.00202567
0.00270561
-0.220722
0.220042
-0.00268467
0.00218211
-0.0706096
0.0711122
-0.00156657
0.000855522
0.00151001
-0.000798962
-0.000360872
3.82778e-05
0.019626
-0.0193034
4.21591e-05
0.00681405
-0.00685621
-0.0793874
0.0788405
0.000546891
-0.000724073
0.000239846
-0.446755
0.447239
0.00106263
-0.00309015
-0.633377
0.635404
0.00603007
-0.00901465
-0.776877
0.779862
0.0127272
-0.0160596
-0.904456
0.907789
0.0199701
-0.0236362
-1.0335
1.03716
0.027733
-0.0314655
-1.17407
1.1778
0.0352365
-0.0385756
-1.32586
1.3292
0.0416829
-0.0441369
-1.48613
1.48859
0.0454207
-0.045083
-1.65362
1.65328
0.0433259
-0.0399588
-1.54218
1.53881
0.036169
-0.0313769
-1.22191
1.21712
0.0262543
-0.020368
-0.971432
0.965546
0.0146425
-0.00866684
-0.722554
0.716579
0.00422073
-0.000500596
-0.450003
0.446283
-0.00150851
0.00261252
-0.217699
0.216595
-0.00286731
0.00258477
-0.0707238
0.0710064
-0.00207131
0.00134649
0.000428835
0.000295991
-0.000753721
0.000264557
0.0188652
-0.0183761
-3.25031e-05
0.00673066
-0.00669815
-0.0802891
0.0798699
0.000419203