/*--------------------------------*- C++ -*----------------------------------*\
  =========                 |
  \\      /  F ield         | OpenFOAM: The Open Source CFD Toolbox
   \\    /   O peration     | Website:  https://openfoam.org
    \\  /    A nd           | Version:  6
     \\/     M anipulation  |
\*---------------------------------------------------------------------------*/
FoamFile
{
    version     2.0;
    format      ascii;
    class       volScalarField;
    location    "42";
    object      p;
}
// * * * * * * * * * * * * * * * * * * * * * * * * * * * * * * * * * * * * * //

dimensions      [0 2 -2 0 0 0 0];

internalField   nonuniform List<scalar> 
8800
(
0.912872
0.863559
0.825589
0.797507
0.777324
0.762704
0.752063
0.744469
0.739511
0.737342
0.7386
0.742847
0.74957
0.758941
0.771643
0.78894
0.812802
0.84589
0.888812
0.941341
0.747357
0.7537
0.762844
0.766379
0.763756
0.75765
0.750682
0.744396
0.739528
0.736571
0.736227
0.738744
0.743296
0.749357
0.756407
0.763405
0.768258
0.76812
0.761436
0.752532
0.720939
0.727171
0.731662
0.735516
0.738438
0.739353
0.738219
0.736036
0.733969
0.733019
0.733927
0.736274
0.739079
0.741292
0.741773
0.739957
0.736571
0.73254
0.727749
0.72403
0.716688
0.719449
0.722044
0.724186
0.725899
0.727432
0.728485
0.728767
0.728557
0.728528
0.729196
0.730224
0.730877
0.730659
0.729633
0.72824
0.72654
0.724214
0.721791
0.720224
0.711704
0.713126
0.714951
0.71701
0.718693
0.719947
0.720989
0.721889
0.722587
0.723177
0.723733
0.724063
0.723983
0.723537
0.722806
0.721644
0.719951
0.718031
0.716665
0.715862
0.706808
0.707709
0.70894
0.710542
0.7122
0.713685
0.714905
0.715935
0.716871
0.717719
0.718322
0.718558
0.718443
0.717976
0.717099
0.715853
0.714446
0.713147
0.712311
0.711788
0.702019
0.702673
0.703619
0.704909
0.706318
0.707781
0.70919
0.710448
0.711566
0.712576
0.71331
0.713613
0.713478
0.71292
0.712046
0.71103
0.709979
0.709033
0.708437
0.708055
0.69734
0.697843
0.698612
0.699722
0.700979
0.702337
0.70376
0.705182
0.706528
0.707757
0.708651
0.709026
0.708914
0.70844
0.707758
0.706974
0.70616
0.705448
0.705003
0.704707
0.692719
0.693119
0.693762
0.694751
0.695935
0.697235
0.698647
0.700154
0.701699
0.703182
0.704283
0.704798
0.704832
0.704549
0.704074
0.703486
0.702857
0.702325
0.70199
0.701751
0.688084
0.68841
0.688966
0.689875
0.691009
0.692291
0.693728
0.695319
0.697029
0.698761
0.700146
0.700922
0.701197
0.701136
0.700864
0.700473
0.700017
0.699633
0.69938
0.699182
0.683353
0.683623
0.684119
0.684981
0.686095
0.687396
0.688893
0.690602
0.692508
0.694541
0.696278
0.697386
0.697958
0.698152
0.698099
0.697899
0.697612
0.697356
0.697168
0.697
0.678449
0.678675
0.679132
0.679976
0.681112
0.682474
0.684072
0.685948
0.688114
0.690516
0.692689
0.694202
0.695116
0.695601
0.695786
0.695782
0.695658
0.695514
0.69538
0.695234
0.673292
0.673483
0.673921
0.674778
0.675973
0.677443
0.67921
0.681334
0.683851
0.686728
0.689429
0.691412
0.692711
0.693505
0.693948
0.694145
0.694186
0.694148
0.694059
0.69393
0.667793
0.667956
0.668391
0.669292
0.670593
0.672222
0.674221
0.676676
0.679647
0.68312
0.686468
0.689009
0.690752
0.691902
0.692632
0.693058
0.693261
0.693318
0.693268
0.693151
0.661851
0.661989
0.662436
0.663407
0.664854
0.666697
0.668986
0.671846
0.675366
0.67957
0.683708
0.686937
0.689236
0.69082
0.691888
0.692567
0.692952
0.693111
0.693099
0.69299
0.655346
0.65546
0.655931
0.657
0.658636
0.660758
0.663429
0.6668
0.67101
0.676106
0.681217
0.685279
0.688245
0.690343
0.691798
0.692771
0.693363
0.693627
0.693652
0.693549
0.648121
0.648218
0.648725
0.64992
0.651806
0.654291
0.657462
0.661508
0.66659
0.672793
0.679085
0.684154
0.687886
0.690571
0.69249
0.693798
0.694618
0.694997
0.695057
0.694957
0.639946
0.640036
0.640595
0.64196
0.644172
0.647117
0.650905
0.655789
0.661992
0.669595
0.677302
0.683539
0.688191
0.691595
0.69407
0.69578
0.696863
0.697366
0.697463
0.697363
0.630555
0.630623
0.63126
0.632842
0.63546
0.638978
0.643548
0.649461
0.656977
0.666245
0.675715
0.683436
0.689221
0.693495
0.69665
0.698849
0.700248
0.700896
0.70103
0.700926
0.619588
0.61964
0.620376
0.622246
0.62538
0.629651
0.635248
0.642525
0.651796
0.663177
0.674729
0.68412
0.691196
0.696479
0.700412
0.703194
0.704956
0.705762
0.705933
0.705822
0.606493
0.606532
0.607405
0.609662
0.613487
0.618748
0.625669
0.634669
0.646091
0.660042
0.674119
0.685533
0.694154
0.700629
0.705496
0.708972
0.711161
0.712141
0.712344
0.712221
0.590497
0.590533
0.591612
0.59441
0.599168
0.605763
0.614454
0.625719
0.639885
0.656975
0.674053
0.687802
0.698194
0.706053
0.71202
0.716308
0.718986
0.72015
0.720376
0.720231
0.57042
0.570467
0.57188
0.575514
0.58165
0.590166
0.601335
0.615644
0.633336
0.654258
0.67478
0.691145
0.703505
0.712917
0.72007
0.725274
0.728468
0.729808
0.730042
0.72987
0.54443
0.544513
0.546516
0.551529
0.55983
0.571205
0.585873
0.604225
0.626306
0.651768
0.676242
0.695539
0.710072
0.721185
0.729677
0.735856
0.739564
0.741046
0.741267
0.741063
0.509476
0.509697
0.512917
0.520514
0.532533
0.548343
0.568058
0.591786
0.619301
0.650022
0.678833
0.701234
0.718051
0.730946
0.740845
0.747993
0.752146
0.7537
0.753882
0.753643
0.459804
0.460907
0.467385
0.480328
0.498848
0.521524
0.548218
0.578712
0.612602
0.649175
0.682627
0.708274
0.727431
0.74213
0.753461
0.761527
0.765986
0.767515
0.767626
0.767351
0.386973
0.394376
0.409321
0.432058
0.460263
0.492133
0.527335
0.565627
0.606632
0.649648
0.688181
0.717404
0.739212
0.756004
0.768946
0.777922
0.782712
0.784266
0.78436
0.784121
0.309272
0.325349
0.349651
0.382931
0.421393
0.462637
0.506455
0.552799
0.601401
0.651666
0.696374
0.730231
0.755559
0.775117
0.790135
0.800338
0.805462
0.806991
0.80712
0.80701
0.24278
0.262481
0.294613
0.336914
0.384448
0.434519
0.486726
0.540981
0.59702
0.654285
0.704849
0.743041
0.771611
0.793708
0.810609
0.821671
0.826973
0.828605
0.828783
0.828745
0.188443
0.210357
0.247837
0.296641
0.351263
0.408735
0.468359
0.529894
0.592915
0.656824
0.712882
0.755091
0.786578
0.810827
0.829238
0.841403
0.847441
0.849128
0.849327
0.84934
0.143292
0.166519
0.20785
0.26172
0.322047
0.385617
0.451564
0.519523
0.588912
0.658971
0.720178
0.76604
0.800184
0.826405
0.846239
0.859329
0.865947
0.867841
0.868155
0.868198
0.104681
0.128722
0.172902
0.23087
0.295974
0.364741
0.436164
0.509793
0.584933
0.660639
0.726581
0.775822
0.812329
0.840254
0.861148
0.874961
0.88205
0.884302
0.884705
0.884762
0.0705958
0.0952069
0.141624
0.202981
0.272151
0.345432
0.421706
0.500442
0.580824
0.661743
0.732071
0.78443
0.823016
0.852233
0.873839
0.888127
0.895627
0.898227
0.898748
0.898808
0.0395735
0.0646665
0.112943
0.17719
0.249883
0.32712
0.407747
0.491147
0.576381
0.662219
0.736704
0.791964
0.832397
0.862634
0.884782
0.899413
0.90721
0.910061
0.910664
0.910713
0.0106536
0.0361975
0.0860635
0.152868
0.22865
0.309395
0.393947
0.481632
0.571439
0.661976
0.740517
0.798545
0.840669
0.871799
0.894391
0.909295
0.917311
0.920296
0.92089
0.920898
-0.0169021
0.0091425
0.0604737
0.129563
0.208084
0.291971
0.380078
0.471724
0.565849
0.660949
0.743498
0.804269
0.848015
0.879981
0.902966
0.918065
0.926168
0.929227
0.929851
0.929831
-0.0433952
-0.0168946
0.0357868
0.106948
0.187933
0.274653
0.365996
0.461302
0.559515
0.659079
0.745641
0.809196
0.854601
0.887447
0.910851
0.92613
0.934261
0.937294
0.937927
0.937905
-0.0691987
-0.0421494
0.0117824
0.0848224
0.168035
0.257311
0.351608
0.4503
0.552379
0.656292
0.746921
0.813382
0.860567
0.894395
0.918275
0.933719
0.94186
0.944824
0.945374
0.945306
-0.0943818
-0.0667805
-0.0116732
0.0630782
0.1483
0.239886
0.336871
0.438689
0.544402
0.652545
0.747306
0.816864
0.866018
0.900952
0.925356
0.940949
0.949018
0.95187
0.952324
0.952194
-0.11902
-0.0908477
-0.0346452
0.0416715
0.1287
0.222363
0.321781
0.426461
0.535571
0.647794
0.74674
0.819631
0.87101
0.90722
0.932192
0.947871
0.955761
0.958413
0.958748
0.958573
-0.143176
-0.114413
-0.0571335
0.0206017
0.109233
0.20476
0.306368
0.413647
0.525893
0.641998
0.745146
0.821624
0.875576
0.913304
0.93889
0.954557
0.96214
0.964496
0.964705
0.964497
-0.166869
-0.137435
-0.079125
-0.000113964
0.0899453
0.187122
0.290686
0.400296
0.515394
0.635131
0.742443
0.822747
0.879694
0.919312
0.945608
0.96109
0.968142
0.970101
0.970174
0.969945
-0.189934
-0.159869
-0.100583
-0.0204465
0.0708828
0.169522
0.274802
0.386483
0.50413
0.627205
0.738556
0.82288
0.883273
0.925324
0.952596
0.967694
0.97384
0.97521
0.975129
0.974896
-0.212333
-0.181668
-0.121479
-0.0403373
0.0521105
0.152024
0.258809
0.372285
0.492179
0.618243
0.733434
0.821888
0.886139
0.931315
0.960179
0.974871
0.979537
0.979867
0.979549
0.979356
-0.234119
-0.202792
-0.141777
-0.0597414
0.0336969
0.134716
0.242797
0.357807
0.479632
0.608309
0.727029
0.819632
0.888046
0.937046
0.968568
0.983508
0.986244
0.984529
0.983467
0.983479
-0.255132
-0.223216
-0.161421
-0.0785898
0.0157036
0.117684
0.226865
0.343158
0.466606
0.597507
0.719328
0.815968
0.888714
0.94202
0.977481
0.994447
0.996189
0.991559
0.987672
0.985851
-0.275465
-0.242943
-0.180416
-0.0969155
-0.00190605
0.100882
0.210954
0.328272
0.453022
0.585761
0.710175
0.810627
0.887844
0.945601
0.985913
1.00743
1.01136
1.00561
0.99445
0.99323
-0.295037
-0.262048
-0.198906
-0.11492
-0.0194373
0.0839589
0.194632
0.31264
0.438304
0.572404
0.698868
0.80278
0.88482
0.946863
0.991625
1.01904
1.02651
1.01748
0.999414
0.994534
-0.313713
-0.280492
-0.216724
-0.132397
-0.0366318
0.0672246
0.178117
0.296594
0.422765
0.55771
0.685525
0.791921
0.879019
0.944658
0.989988
1.01716
1.0286
1.0068
0.947755
0.921383
-0.331361
-0.29907
-0.233472
-0.148828
-0.0527857
0.0511674
0.161684
0.280409
0.406686
0.54186
0.670241
0.777587
0.869627
0.938412
0.976528
0.997344
0.993178
0.946043
0.884334
0.846579
-0.375455
-0.317323
-0.248983
-0.164821
-0.0686713
0.0348709
0.145465
0.263967
0.389872
0.524532
0.652661
0.759351
0.853265
0.926748
0.950886
0.947473
0.909638
0.850322
0.783101
0.746067
-0.350775
-0.332405
-0.272328
-0.188236
-0.0928265
0.0104451
0.120339
0.238108
0.362913
0.495809
0.621864
0.725778
0.810992
0.889385
0.88104
0.783376
0.699635
0.641045
0.579865
0.610906
-0.382549
-0.350731
-0.289861
-0.20637
-0.111058
-0.00809168
0.101909
0.21899
0.342697
0.473677
0.596888
0.697079
0.77262
0.815701
0.772719
0.642014
0.539172
0.469673
0.390027
0.439866
-0.407359
-0.373092
-0.310388
-0.226776
-0.131559
-0.0286621
0.0812087
0.197469
0.319756
0.448244
0.567574
0.661885
0.72599
0.733239
0.635543
0.487201
0.363346
0.274736
0.181816
0.217578
-0.431566
-0.396163
-0.332031
-0.247773
-0.152468
-0.0496993
0.0596798
0.174961
0.295607
0.42123
0.535789
0.623304
0.670797
0.646589
0.496667
0.325587
0.170161
0.0392534
-0.0835058
-0.0667142
-0.455522
-0.419661
-0.354592
-0.269765
-0.174293
-0.0717214
0.037029
0.151189
0.269927
0.392316
0.50144
0.581667
0.609531
0.54387
0.360566
0.168548
-0.014735
-0.165599
-0.370052
-0.449902
-0.479906
-0.44405
-0.378415
-0.293172
-0.197512
-0.0950854
0.0131016
0.126116
0.242839
0.361776
0.465162
0.536257
0.541219
0.423988
0.23674
0.0318612
-0.156807
-0.316165
-0.438961
-0.559729
-0.505793
-0.46981
-0.403849
-0.318377
-0.222667
-0.120481
-0.0129574
0.0987372
0.213105
0.328064
0.425264
0.484609
0.463669
0.309759
0.120944
-0.0781105
-0.250297
-0.345637
-0.37155
-0.385212
-0.53332
-0.497222
-0.431025
-0.345478
-0.249903
-0.148133
-0.0415244
0.0685337
0.180095
0.290354
0.380865
0.423827
0.384551
0.200363
0.0131753
-0.165829
-0.295389
-0.332405
-0.341384
-0.341678
-0.562764
-0.526413
-0.45998
-0.374459
-0.279165
-0.178044
-0.0726216
0.0354462
0.14373
0.248579
0.331407
0.35915
0.290549
0.100177
-0.0809885
-0.236387
-0.308647
-0.322495
-0.32353
-0.323374
-0.594131
-0.557414
-0.490723
-0.405307
-0.31046
-0.210194
-0.106254
-0.000549938
0.104011
0.202799
0.276604
0.290282
0.184686
0.00908119
-0.161964
-0.284891
-0.312769
-0.3134
-0.313717
-0.313208
-0.627159
-0.590044
-0.523133
-0.437922
-0.343682
-0.244513
-0.142381
-0.0394408
0.0609664
0.15311
0.217463
0.212565
0.0892484
-0.0755998
-0.22539
-0.294531
-0.309613
-0.308749
-0.308653
-0.308074
-0.661262
-0.62394
-0.556929
-0.472052
-0.378616
-0.280817
-0.180826
-0.0811096
0.0147793
0.0998896
0.154098
0.132709
-0.000353315
-0.151288
-0.269066
-0.303563
-0.303821
-0.304982
-0.305046
-0.304866
-0.695995
-0.658554
-0.59161
-0.507245
-0.414868
-0.318743
-0.221254
-0.125267
-0.03429
0.0439004
0.0849737
0.0543731
-0.0847731
-0.211625
-0.298293
-0.305479
-0.304667
-0.302285
-0.301532
-0.301487
-0.730341
-0.692961
-0.626389
-0.542815
-0.451827
-0.357756
-0.263133
-0.171354
-0.0858834
-0.0142021
0.015513
-0.0301532
-0.164046
-0.258416
-0.305676
-0.318527
-0.310946
-0.30603
-0.303524
-0.302443
-0.762444
-0.725855
-0.660194
-0.577808
-0.488631
-0.397058
-0.305724
-0.218464
-0.139332
-0.0740405
-0.0505098
-0.125481
-0.247191
-0.305593
-0.31566
-0.325663
-0.330504
-0.330408
-0.327995
-0.32613
-0.791195
-0.755692
-0.691573
-0.610954
-0.524125
-0.435553
-0.348056
-0.265431
-0.193305
-0.135256
-0.116492
-0.218899
-0.350943
-0.380924
-0.375381
-0.378482
-0.374023
-0.37247
-0.37252
-0.371574
-0.813881
-0.780317
-0.718717
-0.640642
-0.556873
-0.471869
-0.388787
-0.31104
-0.245818
-0.196287
-0.183063
-0.299171
-0.480828
-0.555455
-0.515395
-0.48611
-0.468453
-0.459246
-0.452919
-0.449169
-0.828322
-0.797536
-0.739487
-0.665026
-0.585181
-0.504456
-0.426113
-0.353946
-0.294577
-0.253725
-0.246374
-0.354522
-0.587554
-0.790475
-0.722658
-0.611348
-0.565232
-0.55271
-0.542842
-0.539519
-0.831792
-0.804909
-0.751706
-0.682159
-0.607226
-0.53163
-0.458214
-0.391899
-0.337844
-0.304428
-0.296825
-0.380149
-0.519741
-0.747873
-0.679882
-0.627417
-0.597083
-0.574371
-0.564596
-0.562421
-0.822283
-0.800128
-0.753248
-0.690151
-0.621409
-0.551591
-0.483772
-0.421912
-0.373495
-0.345571
-0.324855
-0.368417
-0.245237
-0.228166
-0.267295
-0.444849
-0.520459
-0.515915
-0.516304
-0.515781
-0.796734
-0.780115
-0.742176
-0.687709
-0.626461
-0.563237
-0.501049
-0.443151
-0.397429
-0.374269
-0.355817
-0.330763
-0.111738
0.201194
0.0339856
-0.260407
-0.406804
-0.432526
-0.447906
-0.45417
-0.75823
-0.747312
-0.719171
-0.675049
-0.622217
-0.566156
-0.508975
-0.455139
-0.409481
-0.382312
-0.398778
-0.421611
-0.525294
-0.637353
-0.930785
-1.06415
-1.03465
-0.836851
-0.710505
-0.706816
-0.713045
-0.706787
-0.688915
-0.654939
-0.610854
-0.560741
-0.508146
-0.455954
-0.408901
-0.380017
-0.397754
-0.590656
-1.11974
-1.61231
-1.80372
-1.90531
-1.85597
-1.69143
-1.50498
-1.42213
-0.670615
-0.667009
-0.657529
-0.632918
-0.595449
-0.549737
-0.499451
-0.445149
-0.394952
-0.357468
-0.334887
-0.512034
-0.914424
-1.523
-1.89158
-1.93394
-1.77156
-1.53435
-1.35001
-1.24111
-0.63806
-0.635901
-0.631098
-0.613947
-0.581206
-0.536647
-0.484689
-0.42703
-0.359811
-0.290094
-0.217763
-0.183348
-0.203901
-0.124909
0.0320563
0.333257
0.673062
0.926074
1.04192
1.09085
-0.612504
-0.611636
-0.61025
-0.600399
-0.571757
-0.52612
-0.468361
-0.400984
-0.319981
-0.21905
-0.103165
0.0756438
0.335464
0.714112
1.23436
1.7097
2.08576
2.30814
2.39568
2.42745
-0.596902
-0.596379
-0.59595
-0.590987
-0.566965
-0.519849
-0.454683
-0.375262
-0.284979
-0.164305
-0.039479
0.124061
0.392058
0.850828
1.45499
1.99145
2.37405
2.58262
2.67869
2.70418
-0.587202
-0.586449
-0.585446
-0.584126
-0.566657
-0.51919
-0.447273
-0.357941
-0.257498
-0.146285
-0.0155122
0.0969665
0.331628
0.76215
1.26504
1.70459
2.02583
2.21989
2.30494
2.32575
-0.587106
-0.584938
-0.582183
-0.58323
-0.573732
-0.525463
-0.443926
-0.348883
-0.241292
-0.135075
-0.020275
0.0773855
0.21177
0.566747
0.963233
1.29448
1.53919
1.67883
1.73667
1.75255
-0.606454
-0.604654
-0.605831
-0.610369
-0.598202
-0.53646
-0.439454
-0.336114
-0.23155
-0.123302
-0.0322768
0.0546106
0.137726
0.386235
0.682883
0.921603
1.08744
1.1756
1.21382
1.22288
-0.632408
-0.636231
-0.646608
-0.650058
-0.623069
-0.537276
-0.42392
-0.314972
-0.214287
-0.114607
-0.0353529
0.0267521
0.0886376
0.275108
0.472244
0.631376
0.737121
0.794952
0.818442
0.824008
-0.607498
-0.616714
-0.63053
-0.63142
-0.591201
-0.493204
-0.38227
-0.282258
-0.188644
-0.10378
-0.035038
0.01017
0.0463834
0.171889
0.311162
0.414866
0.482418
0.519081
0.53543
0.539116
-0.472907
-0.482226
-0.493789
-0.492796
-0.457652
-0.38489
-0.306614
-0.229171
-0.156003
-0.0872616
-0.0301056
0.0195493
0.0470563
0.140791
0.241232
0.306404
0.344012
0.364798
0.373932
0.375427
-0.264453
-0.270197
-0.278352
-0.282022
-0.269453
-0.240958
-0.204787
-0.161072
-0.114694
-0.0616839
-0.0171785
0.0306782
0.0664488
0.111993
0.176097
0.222012
0.249252
0.267069
0.273625
0.274711
-0.0737596
-0.0766104
-0.083311
-0.0939925
-0.104231
-0.109998
-0.106679
-0.0941385
-0.0712813
-0.0363721
0.000810438
0.041101
0.0824708
0.114748
0.15599
0.181372
0.203093
0.217838
0.224011
0.223488
0.0436123
0.042054
0.0359997
0.0215292
0.000102745
-0.0209328
-0.0356591
-0.0405992
-0.0348684
-0.0144819
0.0134034
0.0459065
0.0792063
0.100135
0.127331
0.147955
0.163921
0.17458
0.177672
0.176545
0.0934059
0.0922511
0.0870346
0.0736461
0.0523542
0.0291144
0.0090556
-0.00384343
-0.00753899
-0.000194555
0.0177732
0.039638
0.0609647
0.0680563
0.0854514
0.10341
0.119343
0.129487
0.13229
0.130901
0.10449
0.103642
0.0997376
0.0894595
0.0724958
0.0525689
0.0338133
0.018385
0.00973524
0.00771541
0.0136709
0.022324
0.031986
0.0293459
0.0408344
0.05645
0.0717941
0.0804474
0.0827031
0.081222
0.0982046
0.097634
0.0949699
0.0878183
0.0755777
0.0602484
0.0444086
0.0300895
0.0187948
0.0108129
0.00571976
-0.00181134
-0.00906903
-0.0155586
-0.00211569
0.0135144
0.0260097
0.0313249
0.0328402
0.0317082
0.0856602
0.0852834
0.0835586
0.0788745
0.0705836
0.0595329
0.047282
0.0350001
0.0235722
0.0115952
-0.00161923
-0.0235872
-0.0442715
-0.0494603
-0.0336701
-0.018636
-0.010468
-0.00817666
-0.00813605
-0.00868942
0.0721195
0.0718602
0.0707804
0.0679092
0.0625728
0.0551245
0.0461657
0.0365332
0.0258186
0.013175
-0.00472286
-0.0318656
-0.057015
-0.056866
-0.0424509
-0.0317364
-0.0277787
-0.0280868
-0.028557
-0.0288002
0.0599749
0.0597843
0.0591349
0.0575016
0.0542969
0.0496788
0.0434819
0.0366596
0.027954
0.0175956
0.00189883
-0.0220752
-0.0403902
-0.0344091
-0.0249787
-0.0212155
-0.0222211
-0.0245969
-0.0253559
-0.0255122
0.0500575
0.0499166
0.0495476
0.0487026
0.0470092
0.0443226
0.0405391
0.0362547
0.0304143
0.0245586
0.016264
0.00411561
-0.00245729
0.00389279
0.00679938
0.00500384
0.00133938
-0.00115339
-0.00180411
-0.00208228
0.0422732
0.0421751
0.0419846
0.041624
0.0408976
0.0395741
0.0378098
0.0355711
0.0331469
0.032174
0.0339274
0.0372735
0.0422019
0.048602
0.0454001
0.0393474
0.0350849
0.0335382
0.033213
0.032727
0.0360751
0.0360106
0.0359218
0.0358298
0.0356552
0.0351944
0.0348446
0.0342189
0.0351094
0.0385364
0.0496349
0.0680506
0.0859505
0.0873766
0.0795232
0.0722542
0.0694822
0.0694238
0.0691668
0.0683551
0.0307217
0.030694
0.0306833
0.0307221
0.030827
0.0309175
0.0313014
0.0321082
0.0350456
0.0412807
0.0571544
0.0856885
0.110451
0.109253
0.098616
0.0931589
0.0930074
0.0946978
0.094533
0.0934937
0.025459
0.0254515
0.0254901
0.0255897
0.0258179
0.0262406
0.0268212
0.0285488
0.0319205
0.0387937
0.0539392
0.0822487
0.104995
0.103126
0.0981722
0.0989432
0.101238
0.103931
0.103504
0.102318
0.019977
0.0199726
0.0200151
0.0200694
0.0202991
0.0208507
0.0215909
0.0231282
0.0258529
0.0316337
0.0409971
0.0587885
0.0712669
0.0714408
0.0735476
0.0808297
0.0896095
0.0937009
0.0933284
0.0921704
0.0141576
0.0141441
0.0141663
0.0142091
0.0143898
0.0147663
0.0154657
0.0165403
0.0181493
0.0211753
0.0231654
0.0238615
0.0184294
0.0231865
0.0373818
0.0527529
0.0632383
0.0665546
0.0661236
0.0652297
0.0079826
0.00795313
0.00801027
0.00807183
0.00806662
0.00825412
0.00871614
0.00944571
0.0103504
0.00995676
0.00692467
-0.00823097
-0.024102
-0.0161101
0.00451636
0.0226153
0.0302409
0.032307
0.0318083
0.0312855
0.00177581
0.00172432
0.00167973
0.00168399
0.0017449
0.00166132
0.00162299
0.00193706
0.00217491
0.00164651
0.0015898
-0.000969296
-0.0111146
-0.011071
-0.00535958
-0.000904607
-0.00308723
-0.00292914
0.000805864
0.0027483
0.0684789
0.259347
0.435049
0.584855
0.706295
0.803615
0.885333
0.951687
0.968653
0.964876
0.36424
0.487556
0.603445
0.704781
0.790733
0.86217
0.918615
0.95683
0.977235
0.993702
0.565604
0.647999
0.729709
0.801872
0.86374
0.91516
0.955634
0.98637
1.00933
1.02857
0.714104
0.772208
0.831646
0.88513
0.931319
0.970535
1.00333
1.03073
1.05133
1.07025
0.831965
0.876322
0.920947
0.962224
0.998898
1.03124
1.05946
1.08333
1.10147
1.11952
0.932708
0.968685
1.00403
1.03823
1.06973
1.0982
1.12331
1.14435
1.16024
1.17774
1.02137
1.05386
1.08634
1.11771
1.14693
1.17347
1.19674
1.21579
1.22978
1.24682
1.10885
1.14161
1.17422
1.20555
1.23444
1.26034
1.28257
1.30018
1.31262
1.32917
1.20353
1.23999
1.27485
1.30741
1.33667
1.36211
1.3833
1.39965
1.4113
1.42748
1.31671
1.35725
1.39436
1.42742
1.45599
1.48005
1.49973
1.51505
1.52697
1.54308
1.45807
1.49925
1.53456
1.56422
1.58949
1.61114
1.62968
1.64519
1.65831
1.6743
1.62978
1.66236
1.68924
1.71157
1.73169
1.75043
1.76818
1.78495
1.79986
1.81568
1.81629
1.8336
1.85075
1.86744
1.88354
1.89828
1.91217
1.92663
1.94188
1.95929
1.99951
2.00948
2.02266
2.03362
2.04302
2.05267
2.06327
2.07348
2.08282
2.10822
2.21701
2.21124
2.19824
2.18399
2.17771
2.18341
2.20152
2.23002
2.2638
2.3001
2.52028
2.38443
2.30496
2.26243
2.24503
2.24905
2.27654
2.33446
2.44211
2.62033
0.816531
0.810231
0.802494
0.791372
0.777796
0.76514
0.754725
0.74668
0.740917
0.737524
0.737094
0.739852
0.745024
0.752334
0.761847
0.773649
0.787189
0.800104
0.809088
0.816622
0.725659
0.731584
0.739646
0.745763
0.748815
0.748283
0.745171
0.74114
0.7375
0.735151
0.734937
0.73711
0.740801
0.7452
0.749268
0.751492
0.750405
0.745761
0.738705
0.730867
0.718947
0.721318
0.724581
0.727346
0.729782
0.731948
0.733095
0.732905
0.731911
0.731029
0.731157
0.732488
0.734204
0.735384
0.735273
0.733781
0.731603
0.729224
0.726227
0.723204
0.714204
0.715292
0.717202
0.719529
0.721384
0.722759
0.723944
0.724889
0.725423
0.725714
0.726169
0.726823
0.727218
0.727042
0.726368
0.72541
0.724053
0.722063
0.719941
0.718459
0.709244
0.709878
0.711001
0.712744
0.714568
0.716134
0.717347
0.718358
0.719265
0.720065
0.720738
0.721152
0.721203
0.720926
0.720333
0.719316
0.717856
0.71622
0.714865
0.714059
0.704402
0.704842
0.705624
0.706913
0.708412
0.709943
0.711377
0.712611
0.71368
0.714651
0.715469
0.715945
0.716019
0.715698
0.714966
0.713913
0.712716
0.711539
0.710615
0.710077
0.699672
0.7
0.700606
0.70166
0.702931
0.704296
0.705723
0.707127
0.708421
0.709596
0.710586
0.71117
0.711263
0.71091
0.710227
0.709373
0.708469
0.707572
0.706885
0.706489
0.69503
0.695285
0.695773
0.696669
0.697815
0.699085
0.700453
0.701902
0.703374
0.704789
0.705997
0.706718
0.706889
0.706651
0.706156
0.705516
0.704808
0.704125
0.703612
0.703309
0.690412
0.690615
0.691021
0.691807
0.692874
0.694094
0.695443
0.69693
0.698527
0.70016
0.701623
0.702568
0.702937
0.702905
0.702617
0.702176
0.701652
0.701144
0.700765
0.700527
0.685739
0.685902
0.686249
0.686963
0.687984
0.689181
0.690552
0.692108
0.69384
0.695698
0.697465
0.698723
0.699375
0.699596
0.69953
0.699288
0.69895
0.698597
0.698327
0.698136
0.680931
0.681063
0.681368
0.682036
0.683038
0.684257
0.685682
0.687343
0.689253
0.691379
0.693517
0.695173
0.696174
0.696692
0.696879
0.696847
0.696686
0.696481
0.696302
0.696148
0.675911
0.676017
0.676293
0.676943
0.677963
0.679245
0.680775
0.682602
0.684765
0.68726
0.689862
0.691981
0.693375
0.694224
0.694682
0.694871
0.694892
0.694825
0.694724
0.6946
0.670593
0.670677
0.670937
0.671594
0.672668
0.674058
0.675752
0.677824
0.680327
0.683278
0.686452
0.689143
0.691002
0.692218
0.69297
0.693404
0.693614
0.693678
0.693646
0.693545
0.664887
0.66495
0.665202
0.665887
0.667053
0.668598
0.670512
0.672894
0.675832
0.679373
0.683256
0.68662
0.689029
0.690684
0.691786
0.692494
0.692908
0.693108
0.693141
0.69306
0.658681
0.658725
0.658976
0.659709
0.661001
0.662748
0.664946
0.667711
0.671174
0.675413
0.68016
0.684373
0.68747
0.689672
0.691185
0.692204
0.692864
0.693213
0.693309
0.693246
0.651845
0.651861
0.652114
0.652919
0.654374
0.656383
0.658959
0.66224
0.666381
0.671504
0.677312
0.682545
0.686452
0.68928
0.691267
0.69265
0.693588
0.694098
0.694261
0.694214
0.644169
0.644181
0.644444
0.645341
0.647016
0.649375
0.652427
0.656357
0.661371
0.667614
0.674728
0.681181
0.686037
0.689594
0.692154
0.693979
0.695221
0.695905
0.696138
0.696105
0.635403
0.635384
0.635692
0.636724
0.638683
0.641472
0.645119
0.649851
0.655925
0.663545
0.672257
0.680177
0.686202
0.690665
0.693915
0.69628
0.697895
0.698786
0.699096
0.699074
0.625272
0.625232
0.625585
0.626788
0.629088
0.632417
0.636829
0.642592
0.650006
0.659302
0.669962
0.679705
0.687117
0.692641
0.696724
0.699724
0.701778
0.702906
0.7033
0.703288
0.613292
0.613229
0.613652
0.61509
0.617844
0.621897
0.627322
0.634436
0.643607
0.655082
0.668121
0.67993
0.688933
0.695696
0.700742
0.704479
0.707052
0.708453
0.708932
0.708925
0.598823
0.598738
0.599278
0.601036
0.604387
0.609395
0.616139
0.624982
0.636327
0.650409
0.666329
0.680691
0.691617
0.699847
0.706051
0.71068
0.713868
0.715578
0.716144
0.716134
0.580898
0.580797
0.58153
0.583768
0.587975
0.594332
0.602914
0.614127
0.628376
0.645803
0.665152
0.682374
0.695418
0.705291
0.71281
0.718442
0.722319
0.724358
0.725001
0.724977
0.558033
0.557932
0.559001
0.562008
0.567537
0.575903
0.587115
0.601556
0.619541
0.641043
0.664419
0.684933
0.700376
0.712076
0.721032
0.727793
0.732409
0.734771
0.735472
0.735422
0.527875
0.527824
0.529499
0.53385
0.541634
0.553171
0.568284
0.587204
0.610019
0.636457
0.664451
0.688571
0.706595
0.720257
0.730767
0.738728
0.744072
0.746706
0.747428
0.747344
0.486294
0.48645
0.489466
0.496642
0.508658
0.525438
0.546368
0.57136
0.600198
0.632411
0.665513
0.693479
0.714203
0.729891
0.742011
0.751185
0.757169
0.759948
0.760633
0.760507
0.425635
0.426956
0.434314
0.447953
0.467719
0.492821
0.521943
0.554632
0.590576
0.629222
0.667789
0.699736
0.723194
0.740904
0.754597
0.764885
0.771356
0.774103
0.774649
0.774486
0.352636
0.355279
0.369589
0.393197
0.423618
0.4586
0.496648
0.537579
0.581209
0.627067
0.672111
0.709141
0.736321
0.756928
0.772755
0.784422
0.791564
0.794483
0.795117
0.795085
0.277808
0.284753
0.306223
0.339754
0.380513
0.425142
0.472132
0.521387
0.572812
0.626
0.677699
0.720022
0.751075
0.774714
0.792993
0.806291
0.813999
0.816755
0.817256
0.817324
0.21697
0.225709
0.25186
0.292458
0.341259
0.39406
0.449123
0.506191
0.565065
0.625289
0.683327
0.730598
0.765223
0.791551
0.811888
0.826456
0.834477
0.837488
0.838387
0.838544
0.167086
0.176524
0.206174
0.252004
0.306923
0.366271
0.42812
0.492068
0.55772
0.624508
0.688496
0.740368
0.778245
0.806956
0.829046
0.844834
0.853763
0.857373
0.858436
0.858611
0.125154
0.13489
0.166933
0.216835
0.276748
0.341538
0.409126
0.479036
0.550746
0.62352
0.693027
0.749146
0.789965
0.820863
0.844527
0.861354
0.871027
0.875077
0.876294
0.876471
0.0886915
0.098574
0.132423
0.185587
0.249648
0.319082
0.391669
0.466843
0.544
0.622245
0.696815
0.75687
0.800367
0.833106
0.85795
0.87551
0.885839
0.890317
0.89163
0.891813
0.0560509
0.0660047
0.101285
0.157154
0.224738
0.298188
0.375187
0.455106
0.537238
0.620543
0.699863
0.763571
0.809521
0.843764
0.869445
0.887485
0.898278
0.903095
0.904542
0.904744
0.0260217
0.0360355
0.072469
0.130702
0.201349
0.278312
0.359241
0.443473
0.530201
0.618286
0.702153
0.769358
0.817559
0.853124
0.879489
0.89793
0.909028
0.914098
0.915622
0.915815
-0.00227356
0.00781093
0.045314
0.105648
0.178998
0.259068
0.34352
0.431684
0.522707
0.615347
0.703646
0.774287
0.824643
0.861416
0.888366
0.907136
0.918408
0.923611
0.925149
0.925338
-0.0293464
-0.0191491
0.0193297
0.0815575
0.157329
0.240185
0.327822
0.419586
0.514616
0.611634
0.704309
0.778391
0.830889
0.868865
0.8964
0.91546
0.926859
0.932102
0.93363
0.933736
-0.0555624
-0.0452021
-0.00580003
0.0581641
0.136113
0.221482
0.312006
0.407072
0.50585
0.607072
0.704094
0.781684
0.836413
0.875665
0.903857
0.923218
0.934714
0.939916
0.941397
0.94149
-0.081147
-0.0705466
-0.0302637
0.0352964
0.115218
0.202848
0.295991
0.394089
0.496363
0.601609
0.70295
0.784173
0.841302
0.881967
0.910903
0.930582
0.942149
0.947275
0.948656
0.948708
-0.106144
-0.095283
-0.0541601
0.0128635
0.0945731
0.184243
0.279753
0.380618
0.486133
0.595205
0.700826
0.785845
0.845603
0.887867
0.917641
0.937635
0.949189
0.954158
0.955408
0.955398
-0.130622
-0.11949
-0.0775544
-0.00914786
0.0741621
0.165657
0.263297
0.366672
0.47517
0.587847
0.697663
0.786637
0.849321
0.893451
0.924182
0.94446
0.955903
0.960625
0.961682
0.961601
-0.154569
-0.143165
-0.100416
-0.0307353
0.0540018
0.147122
0.24667
0.352298
0.463506
0.579524
0.693404
0.786459
0.852413
0.898778
0.930653
0.951165
0.962309
0.966627
0.967459
0.967322
-0.178026
-0.166283
-0.122708
-0.0518754
0.0341253
0.128686
0.229924
0.337561
0.451194
0.570255
0.688001
0.78521
0.854779
0.903869
0.937222
0.957932
0.968496
0.972185
0.972733
0.972545
-0.200764
-0.188788
-0.144404
-0.0725335
0.0145914
0.11043
0.213134
0.322536
0.438309
0.560094
0.681428
0.782793
0.856281
0.908654
0.944069
0.96512
0.97472
0.977355
0.977477
0.97725
-0.222928
-0.21062
-0.165463
-0.0926713
-0.00455606
0.0923997
0.196395
0.307308
0.42494
0.549124
0.67369
0.77911
0.856733
0.912927
0.951257
0.973273
0.981685
0.982503
0.981728
0.981444
-0.244339
-0.231736
-0.185866
-0.112232
-0.0232303
0.0746848
0.179796
0.292
0.411195
0.537416
0.664827
0.77407
0.855939
0.916346
0.958529
0.982861
0.99079
0.989111
0.986119
0.985263
-0.265091
-0.252162
-0.205552
-0.131158
-0.0413917
0.0573565
0.163424
0.276696
0.397185
0.52511
0.654914
0.767582
0.853709
0.918485
0.965139
0.993564
1.00339
1.00063
0.993866
0.984049
-0.285071
-0.271893
-0.224619
-0.149621
-0.0592723
0.040115
0.146922
0.260965
0.38243
0.511667
0.643393
0.759014
0.849509
0.918873
0.970105
1.00401
1.01902
1.01766
1.00704
1.00359
-0.30424
-0.291007
-0.243063
-0.16756
-0.0768463
0.0229888
0.130325
0.244793
0.366904
0.496975
0.630105
0.747943
0.842686
0.916716
0.971185
1.00886
1.02712
1.0305
0.99707
0.95708
-0.322375
-0.309382
-0.260842
-0.184844
-0.0940893
0.00596181
0.113647
0.228314
0.350681
0.481086
0.615004
0.73411
0.832285
0.911359
0.966426
0.99823
1.01681
1.00314
0.951733
0.895821
-0.342141
-0.325722
-0.277681