/*--------------------------------*- C++ -*----------------------------------*\
  =========                 |
  \\      /  F ield         | OpenFOAM: The Open Source CFD Toolbox
   \\    /   O peration     | Website:  https://openfoam.org
    \\  /    A nd           | Version:  6
     \\/     M anipulation  |
\*---------------------------------------------------------------------------*/
FoamFile
{
    version     2.0;
    format      ascii;
    class       surfaceScalarField;
    location    "42";
    object      phi;
}
// * * * * * * * * * * * * * * * * * * * * * * * * * * * * * * * * * * * * * //

dimensions      [0 3 -1 0 0 0 0];

internalField   nonuniform List<scalar> 
17370
(
-0.0900001
0.0898531
0.289158
-0.0714601
0.0537548
0.364481
-0.038122
0.0276959
0.426594
-0.0196459
0.0146124
0.504285
-0.0107675
0.00827358
0.601896
-0.00627146
0.00489616
0.720433
-0.00373801
0.00290464
0.86374
-0.00217051
0.00161609
1.036
-0.00110277
0.000692432
1.24291
-0.000285713
-0.000103929
1.49158
0.000481419
-0.000887509
1.4916
0.00128229
-0.00177202
1.24318
0.00230495
-0.00302009
1.03635
0.00384284
-0.00499531
0.864059
0.00636713
-0.00836395
0.721054
0.0108507
-0.0146867
0.60305
0.0197124
-0.0277548
0.507482
0.0381746
-0.0537989
0.431792
0.0714957
-0.0898764
0.365156
0.0900133
0.198998
-0.128128
0.0882062
0.0399218
-0.364587
0.353397
-0.0746949
0.0858851
-0.446475
0.454314
-0.084393
0.0765546
-0.521183
0.529892
-0.0684653
0.0597558
-0.61278
0.621558
-0.0515681
0.0427895
-0.726888
0.73415
-0.0353315
0.028069
-0.867473
0.87257
-0.0224801
0.0173831
-1.03847
1.0419
-0.01359
0.010155
-1.2446
1.24702
-0.00755412
0.00513072
-1.49263
1.4946
-0.00319183
0.00122522
-1.4925
1.49422
0.000456473
-0.00217663
-1.24398
1.24587
0.0040804
-0.00596427
-1.03751
1.04005
0.0083218
-0.0108575
-0.866105
0.869845
0.0142231
-0.0179627
-0.724396
0.729947
0.0230131
-0.0285649
-0.608703
0.616121
0.0357866
-0.0432043
-0.514901
0.523049
0.0519371
-0.0600849
-0.439859
0.447917
0.0687533
-0.0768105
-0.375306
0.376749
0.0846154
-0.0860583
-0.257336
0.222491
0.0748134
-0.0399684
-0.0684981
0.0586702
0.00982795
-0.0518502
0.0584466
-0.374111
0.367514
-0.0575395
0.0537925
-0.453585
0.457332
-0.0487043
0.0447519
-0.527931
0.531883
-0.040911
0.0372733
-0.621543
0.625181
-0.0331765
0.029112
-0.735327
0.739392
-0.0245604
0.0204205
-0.874317
0.878457
-0.0160962
0.0124195
-1.04347
1.04714
-0.00870165
0.00554358
-1.24855
1.25171
-0.00222908
-0.000838599
-1.49665
1.49972
0.0038833
-0.00714198
-1.49721
1.50047
0.0102186
-0.0138257
-1.25009
1.25369
0.017393
-0.0215991
-1.04594
1.05015
0.0256416
-0.0301004
-0.877778
0.882237
0.034089
-0.0381062
-0.739918
0.743935
0.0416705
-0.0454312
-0.626795
0.630556
0.0493152
-0.0543386
-0.534829
0.539853
0.0580199
-0.058844
-0.457497
0.458321
0.0521536
-0.0319623
-0.335792
0.3156
0.00987776
-0.0683647
0.0584869
-0.0529138
0.0489116
0.00400223
-0.0332053
0.0437692
-0.358064
0.3475
-0.0474836
0.0468673
-0.459257
0.459873
-0.0438208
0.0404754
-0.535772
0.539118
-0.0367114
0.0334171
-0.628492
0.631787
-0.0299941
0.0269805
-0.742607
0.745621
-0.0237446
0.0206565
-0.881968
0.885056
-0.0171438
0.0137793
-1.05072
1.05408
-0.0100051
0.00648499
-1.25513
1.25865
-0.0025371
-0.00124342
-1.50322
1.507
0.00499582
-0.00885895
-1.50414
1.508
0.0122664
-0.0158879
-1.25745
1.26107
0.0190976
-0.0224382
-1.05396
1.0573
0.0253804
-0.0284758
-0.885738
0.888833
0.0313757
-0.0346821
-0.747207
0.750514
0.0378714
-0.0415234
-0.634358
0.63801
0.0447726
-0.047712
-0.544178
0.547117
0.0482187
-0.0443518
-0.456622
0.452755
0.0336077
-0.0161907
-0.296263
0.278846
0.00406298
-0.0526764
0.0486134
-0.0458269
0.0433238
0.00250314
-0.0228604
0.0332662
-0.336787
0.326381
-0.0391121
0.040145
-0.459542
0.458509
-0.0389691
0.0366925
-0.54182
0.544097
-0.0340369
0.0314547
-0.634817
0.637399
-0.0284122
0.0255373
-0.748652
0.751526
-0.0223046
0.0193399
-0.887996
0.89096
-0.0160656
0.0129927
-1.05719
1.06027
-0.00949392
0.00610756
-1.26209
1.26547
-0.00216517
-0.00170416
-1.51087
1.51474
0.00553599
-0.0093665
-1.5119
1.51573
0.0126016
-0.015897
-1.26452
1.26782
0.0187671
-0.021815
-1.06041
1.06346
0.0245839
-0.0276229
-0.8919
0.894939
0.0303394
-0.0332217
-0.753734
0.756616
0.035663
-0.0381712
-0.641096
0.643604
0.0403214
-0.0413331
-0.548942
0.549954
0.0401322
-0.0340435
-0.447506
0.441418
0.0233749
-0.0101986
-0.263666
0.25049
0.00257782
-0.0454621
0.0428843
-0.0412407
0.039465
0.00177572
-0.0168084
0.0260939
-0.316498
0.307212
-0.0327344
0.0348997
-0.456886
0.454721
-0.0345002
0.0328468
-0.546056
0.54771
-0.030684
0.0286091
-0.639683
0.641758
-0.0262068
0.023842
-0.754151
0.756516
-0.0210228
0.0182674
-0.893828
0.896583
-0.0150662
0.0120273
-1.06328
1.06632
-0.00856952
0.00527342
-1.26877
1.27206
-0.00147027
-0.00223798
-1.51851
1.52222
0.00589808
-0.00955912
-1.51948
1.52314
0.0126643
-0.0158677
-1.27108
1.27428
0.0186509
-0.0215633
-1.06649
1.0694
0.024063
-0.0266228
-0.897771
0.900331
0.0287754
-0.0309687
-0.759087
0.761281
0.0328666
-0.0348449
-0.645784
0.647762
0.0363187
-0.0364977
-0.550501
0.55068
0.0340766
-0.0270839
-0.4348
0.427807
0.0174471
-0.00735828
-0.23901
0.228921
0.0018664
-0.0407199
0.0388535
-0.037934
0.036595
0.00133901
-0.0128552
0.0208405
-0.298582
0.290597
-0.0276344
0.0305912
-0.452129
0.449172
-0.0308259
0.0297328
-0.549113
0.550207
-0.0277648
0.0258761
-0.643764
0.645653
-0.0237132
0.0216146
-0.758726
0.760825
-0.0191446
0.0167016
-0.899124
0.901567
-0.013804
0.0109667
-1.06922
1.07206
-0.00765012
0.00444727
-1.27528
1.27848
-0.000731317
-0.00287697
-1.52585
1.52946
0.00642727
-0.00996631
-1.52674
1.53028
0.0129305
-0.0159279
-1.27743
1.28043
0.0184436
-0.0209759
-1.07215
1.07468
0.0230932
-0.0252314
-0.902648
0.904786
0.0270573
-0.0289525
-0.763289
0.765184
0.0306176
-0.0323645
-0.649605
0.651352
0.0331999
-0.0326605
-0.55051
0.549971
0.0293425
-0.0220709
-0.420622
0.41335
0.0136374
-0.00568031
-0.220002
0.212045
0.00144885
-0.0372233
0.0357744
-0.0354246
0.0343895
0.00103508
-0.0100647
0.0168237
-0.283252
0.276493
-0.0233591
0.0267762
-0.445968
0.442551
-0.0275973
0.0269281
-0.55108
0.551749
-0.0251993
0.0234452
-0.647516
0.64927
-0.0214164
0.0194443
-0.76286
0.764832
-0.0171265
0.0148494
-0.903854
0.906131
-0.0121659
0.00953171
-1.07471
1.07735
-0.00642853
0.00339235
-1.28157
1.2846
0.000169473
-0.00364348
-1.53299
1.53646
0.00704521
-0.0103878
-1.53374
1.53708
0.0131295
-0.0158392
-1.28331
1.28602
0.0180767
-0.0203064
-1.07707
1.07929
0.0221768
-0.0240791
-0.906794
0.908697
0.0257089
-0.0274031
-0.766965
0.768659
0.0288817
-0.0303074
-0.652963
0.654389
0.0306532
-0.0294098
-0.549092
0.547849
0.0254981
-0.0183386
-0.406113
0.398954
0.01102
-0.00456029
-0.204909
0.198449
0.0011686
-0.0344835
0.0333149
-0.0334803
0.032671
0.000809363
-0.00799494
0.0136837
-0.270301
0.264612
-0.0197397
0.0233636
-0.439024
0.4354
-0.0246774
0.0242718
-0.552324
0.55273
-0.0228286
0.0211994
-0.651011
0.65264
-0.0192777
0.0173979
-0.766753
0.768633
-0.015175
0.012987
-0.908293
0.910481
-0.010412
0.00789725
-1.07984
1.08236
-0.00495303
0.00207879
-1.2875
1.29038
0.00128895
-0.00457322
-1.53982
1.5431
0.00776729
-0.0108669
-1.54031
1.54341
0.0133816
-0.0158474
-1.28863
1.29109
0.0178806
-0.0199016
-1.08144
1.08346
0.0215856
-0.0232842
-0.910505
0.912204
0.024731
-0.0262334
-0.770242
0.771745
0.0275201
-0.0285783
-0.655608
0.656666
0.0285628
-0.0266714
-0.546289
0.544397
0.0223938
-0.0155426
-0.391945
0.385094
0.00916154
-0.0037762
-0.192578
0.187193
0.000971893
-0.0322592
0.0312874
-0.0319604
0.0313265
0.000633953
-0.00639506
0.0111686
-0.259413
0.25464
-0.0166378
0.0202671
-0.431782
0.428153
-0.0219107
0.0217361
-0.553064
0.553238
-0.0205311
0.0189626
-0.654283
0.655852
-0.0171039
0.0152859
-0.770469
0.772287
-0.0131433
0.0110396
-0.912541
0.914645
-0.00856575
0.00615017
-1.08474
1.08716
-0.00332424
0.000575495
-1.29313
1.29588
0.00262163
-0.00571069
-1.54626
1.54934
0.00869089
-0.011562
-1.54639
1.54926
0.013871
-0.0161097
-1.29348
1.29572
0.0179332
-0.0197261
-1.0854
1.08719
0.0212097
-0.0227045
-0.913818
0.915313
0.0239863
-0.0253276
-0.773151
0.774493
0.0264866
-0.0271604
-0.657512
0.658186
0.0267928
-0.0243827
-0.542265
0.539855
0.0199068
-0.0134399
-0.378448
0.371981
0.00781551
-0.00321484
-0.182242
0.177641
0.000831243
-0.0303991
0.0295679
-0.0307732
0.0302817
0.000491536
-0.00510252
0.00908353
-0.250293
0.246312
-0.0139189
0.0174075
-0.424612
0.421124
-0.0192508
0.019285
-0.553366
0.553332
-0.0182924
0.0167748
-0.657465
0.658983
-0.0149531
0.0131621
-0.774069
0.77586
-0.0110512
0.00898436
-0.916628
0.918695
-0.00656395
0.00421334
-1.08945
1.0918
-0.00148019
-0.00115568
-1.29851
1.30115
0.0041906
-0.00708809
-1.5523
1.55519
0.009855
-0.0124964
-1.55201
1.55465
0.0146028
-0.016631
-1.29788
1.29991
0.0182702
-0.0198719
-1.08892
1.09052
0.0211884
-0.0225079
-0.916738
0.918057
0.0236342
-0.0248041
-0.775746
0.776916
0.0257703
-0.0260894
-0.658659
0.658978
0.025356
-0.0225144
-0.537252
0.53441
0.017945
-0.0118662
-0.365729
0.35965
0.00683953
-0.00281517
-0.173364
0.16934
0.000733005
-0.0287986
0.0280656
-0.0298584
0.0294874
0.000371071
-0.00401648
0.0072983
-0.242709
0.239428
-0.0114835
0.0147145
-0.417789
0.414558
-0.0166241
0.0168303
-0.553273
0.553066
-0.015939
0.0145194
-0.660519
0.661938
-0.0127174
0.0109316
-0.77762
0.779406
-0.00882813
0.00677883
-0.920648
0.922697
-0.00439331
0.00209282
-1.09403
1.09633
0.000565575
-0.00311281
-1.30367
1.30621
0.00602923
-0.00878772
-1.55798
1.56073
0.0113861
-0.0138205
-1.55718
1.55962
0.0157197
-0.0175128
-1.30186
1.30365
0.0189444
-0.0203306
-1.09205
1.09343
0.0214624
-0.0225988
-0.919316
0.920453
0.0235728
-0.0245709
-0.778013
0.779011
0.0252904
-0.0253354
-0.659156
0.659201
0.0242179
-0.021023
-0.53141
0.528215
0.0164277
-0.0107026
-0.353779
0.348054
0.00613842
-0.00253447
-0.165559
0.161956
0.000665797
-0.0273802
0.0267144
-0.0291772
0.0289139
0.000263283
-0.00305989
0.00570716
-0.23649
0.233843
-0.00924032
0.0121315
-0.411531
0.40864
-0.0139943
0.0142939
-0.552892
0.552593
-0.0134595
0.0120936
-0.663411
0.664777
-0.0102826
0.00847758
-0.781158
0.782963
-0.00635967
0.00430772
-0.92462
0.926672
-0.00193049
-0.000351423
-1.09851
1.10079
0.00297002
-0.00545399
-1.30865
1.31114
0.00825816
-0.0108665
-1.56337
1.56598
0.0132805
-0.015502
-1.56194
1.56416
0.0172034
-0.018779
-1.30538
1.30695
0.0200085
-0.0211744
-1.09475
1.09591
0.0221115
-0.023049
-0.921519
0.922457
0.0238576
-0.0246733
-0.779932
0.780748
0.0251399
-0.0249225
-0.659085
0.658867
0.0234219
-0.0199077
-0.524892
0.521378
0.0153054
-0.00987149
-0.342515
0.337082
0.00565275
-0.00234686
-0.158536
0.15523
0.000623244
-0.026085
0.0254617
-0.0287074
0.0285476
0.000159851
-0.00216175
0.00420464
-0.231521
0.229478
-0.00707209
0.00954917
-0.405993
0.403516
-0.0112634
0.0115947
-0.552373
0.552042
-0.0108093
0.00948405
-0.666219
0.667544
-0.00765322
0.00580144
-0.784738
0.78659
-0.00362202
0.00151755
-0.928607
0.930711
0.000901718
-0.00319917
-1.10296
1.10525
0.00580218
-0.00823816
-1.31351
1.31595
0.0109455
-0.0134172
-1.56846
1.57094
0.0156512
-0.0176426
-1.56625
1.56824
0.0191216
-0.0204495
-1.30844
1.30977
0.0214627
-0.022404
-1.09701
1.09795
0.0231511
-0.023889
-0.923341
0.924079
0.0245232
-0.0251617
-0.781496
0.782134
0.0253229
-0.0247987
-0.65843
0.657906
0.022923
-0.0191209
-0.517769
0.513967
0.0145133
-0.00930497
-0.331812
0.326604
0.00533582
-0.00223288
-0.152063
0.14896
0.000600854
-0.0248665
0.0242657
-0.0284431
0.028388
5.50591e-05
-0.0012751
0.00272164
-0.227748
0.226302
-0.00490212
0.00689192
-0.401325
0.399335
-0.00834063
0.00861002
-0.55186
0.55159
-0.00782067
0.00649941
-0.668978
0.6703
-0.00461906
0.00270215
-0.788408
0.790325
-0.000444194
-0.00172728
-0.932692
0.934863
0.00420767
-0.00654179
-1.10743
1.10977
0.0091567
-0.0115694
-1.31828
1.32069
0.0142017
-0.016547
-1.57328
1.57563
0.0186006
-0.0203645
-1.5701
1.57186
0.0216172
-0.022688
-1.31101
1.31208
0.0234591
-0.0241324
-1.09882
1.09949
0.0246281
-0.0251158
-0.924756
0.925244
0.0255574
-0.0260025
-0.782643
0.783088
0.0258707
-0.0249809
-0.657097
0.656207
0.0227231
-0.0186436
-0.510098
0.506018
0.0140152
-0.00896224
-0.321542
0.316489
0.00515792
-0.00217846
-0.145964
0.142985
0.000594145
-0.0236881
0.0230939
-0.0283895
0.0284405
-5.09274e-05
-0.000371673
0.00120791
-0.225166
0.22433
-0.00266541
0.00410082
-0.397666
0.396231
-0.00518335
0.00530382
-0.551545
0.551424
-0.00444665
0.00306652
-0.671788
0.673168
-0.00110283
-0.000908378
-0.792209
0.794221
0.00327065
-0.00553006
-0.936895
0.939154
0.0080993
-0.0105021
-1.11197
1.11438
0.0131667
-0.0155844
-1.323
1.32541
0.0181572
-0.02037
-1.57784
1.58005
0.0222349
-0.0237527
-1.57348
1.575
0.0247571
-0.025537
-1.31305
1.31383
0.0260413
-0.0264216
-1.10009
1.10047
0.0266555
-0.0268694
-0.925687
0.925901
0.0270957
-0.0272633
-0.783278
0.783445
0.0268812
-0.0255488
-0.655002
0.65367
0.0228874
-0.0185099
-0.501906
0.497528
0.0138161
-0.00883677
-0.311558
0.306578
0.00511535
-0.00218442
-0.140081
0.13715
0.000604723
-0.0225172
0.0219125
-0.0285606
0.0287373
-0.000176652
0.000583251
-0.00040041
-0.223802
0.223619
-0.000279361
0.00108371
-0.395144
0.39434
-0.00170488
0.00160506
-0.551601
0.5517
-0.000637354
-0.000838595
-0.674762
0.676238
0.00291513
-0.00506362
-0.796199
0.798348
0.00759349
-0.0100053
-0.941281
0.943692
0.0127262
-0.0152428
-1.11666
1.11918
0.0179933
-0.0204393
-1.32772
1.33017
0.0229743
-0.0250674
-1.58212
1.58422
0.0267286
-0.0279807
-1.57635
1.5776
0.0287162
-0.029174
-1.3145
1.31495
0.0293756
-0.0294379
-1.10076
1.10082
0.0293884
-0.02931
-0.92605
0.925972
0.0292798
-0.0290945
-0.783253
0.783067
0.0283973
-0.026535
-0.652067
0.650205
0.0234337
-0.0187232
-0.493139
0.488428
0.0139111
-0.00891987
-0.301697
0.296706
0.00519965
-0.00224504
-0.134269
0.131314
0.000630068
-0.0213216
0.0206915
-0.0289886
0.0293102
-0.000321633
0.00166762
-0.0021359
-0.223765
0.224233
0.0023199
-0.00225105
-0.393922
0.393854
0.00224462
-0.00269123
-0.55221
0.552656
0.0038392
-0.00546197
-0.677969
0.679592
0.00771498
-0.0100513
-0.80046
0.802796
0.0128015
-0.015407
-0.945972
0.948578
0.0183174
-0.0209748
-1.12158
1.12423
0.0238361
-0.026333
-1.33249
1.33499
0.0288449
-0.0308286
-1.58617
1.58815
0.0322763
-0.0332082
-1.57865
1.57959
0.0336218
-0.0336929
-1.31526
1.31533
0.03355
-0.0332476
-1.10076
1.10045
0.0328819
-0.0324676
-0.925776
0.925362
0.0321479
-0.0315303
-0.782445
0.781828
0.0304054
-0.027956
-0.648143
0.645694
0.0243798
-0.0192976
-0.483737
0.478655
0.0143029
-0.00920724
-0.29179
0.286694
0.00540699
-0.00235884
-0.128384
0.125336
0.000669849
-0.020072
0.0194021
-0.0297051
0.0301986
-0.000493568
0.00292661
-0.00418435
-0.225109
0.226366
0.00529451
-0.00606594
-0.394197
0.394969
0.00680092
-0.00769726
-0.553646
0.554542
0.00914278
-0.0110037
-0.681546
0.683407
0.0135233
-0.0161055
-0.805095
0.807677
0.0191204
-0.0219547
-0.951037
0.953872
0.0251026
-0.0279531
-1.12678
1.12963
0.0309763
-0.0335494
-1.33737
1.33994
0.0360367
-0.0378646
-1.58995
1.59178
0.0390581
-0.0396284
-1.58028
1.58085
0.0396782
-0.0393415
-1.31521
1.31488
0.0387976
-0.0380603
-1.09995
1.09921
0.0373074
-0.0364894
-0.924754
0.923936
0.0358219
-0.0346937
-0.780698
0.77957
0.0330708
-0.0299907
-0.643121
0.640041
0.0258721
-0.0203246
-0.473604
0.468057
0.0150464
-0.00972934
-0.281644
0.276327
0.00575289
-0.00253134
-0.122286
0.119065
0.000725378
-0.0187392
0.0180139
-0.0307781
0.0314946
-0.000716421
0.00444658
-0.00659661
-0.228063
0.230213
0.00876129
-0.0104286
-0.396161
0.397828
0.0120052
-0.0134658
-0.55614
0.557601
0.015325
-0.0175031
-0.685669
0.687847
0.0203796
-0.0232948
-0.810219
0.813134
0.0266794
-0.0298412
-0.956569
0.959731
0.0333189
-0.0364263
-1.13237
1.13548
0.0396603
-0.0423378
-1.34239
1.34507
0.0448176
-0.046497
-1.59341
1.59509
0.0473979
-0.0475582
-1.58115
1.58131
0.047158
-0.0463333
-1.31428
1.31345
0.0453281
-0.0440966
-1.09818
1.09695
0.0429103
-0.0416327
-0.922839
0.921562
0.0404867
-0.0388158
-0.777918
0.776248
0.0365667
-0.0327438
-0.636865
0.633042
0.0279822
-0.0218556
-0.462542
0.456415
0.016175
-0.0104999
-0.271019
0.265344
0.00623892
-0.00275886
-0.115812
0.112332
0.000793997
-0.0172925
0.0164985
-0.0322967
0.0333028
-0.00100611
0.0063466
-0.0095704
-0.232828
0.236052
0.0129806
-0.0157023
-0.400082
0.402803
0.0182335
-0.0203669
-0.559929
0.562062
0.0227682
-0.025375
-0.690505
0.693111
0.0287349
-0.0321026
-0.816016
0.819384
0.035983
-0.0395766
-0.962781
0.966374
0.0434798
-0.0469049
-1.13848
1.14191
0.0503816
-0.053155
-1.3476
1.35037
0.055572
-0.0570143
-1.59652
1.59796
0.0575224
-0.0571593
-1.58113
1.58077
0.0562507
-0.0548504
-1.31227
1.31087
0.0533379
-0.0515603
-1.09535
1.09357
0.0498938
-0.0480856
-0.919905
0.918097
0.0463877
-0.0440766
-0.774027
0.771716
0.0410911
-0.0364025
-0.629142
0.624454
0.0308804
-0.0240211
-0.450323
0.443464
0.0177754
-0.0115651
-0.259632
0.253421
0.00688436
-0.00304385
-0.108789
0.104948
0.00087387
-0.015708
0.0148341
-0.0343878
0.035788
-0.00140027
0.00880111
-0.0133319
-0.239731
0.244262
0.0181909
-0.0221127
-0.406297
0.410219
0.0257518
-0.0287239
-0.565326
0.568298
0.0318799
-0.035108
-0.69631
0.699538
0.0391396
-0.0430928
-0.822714
0.826667
0.0475752
-0.0516687
-0.969858
0.973951
0.0560489
-0.0598164
-1.14523
1.14899
0.0635382
-0.066384
-1.35297
1.35581
0.0686781
-0.0697968
-1.59911
1.60023
0.069807
-0.068806
-1.58
1.579
0.0672751
-0.0651761
-1.309
1.3069
0.0630721
-0.0606921
-1.0913
1.08892
0.0584939
-0.0561262
-0.915806
0.913438
0.053802
-0.0507788
-0.76882
0.765797
0.0469555
-0.0412544
-0.619716
0.614015
0.0348014
-0.0269915
-0.436628
0.428818
0.0199643
-0.0129884
-0.247116
0.24014
0.00771687
-0.00339311
-0.101005
0.0966814
0.000965248
-0.0139637
0.0129985
-0.0372398
0.0392026
-0.0019628
0.0121259
-0.0182965
-0.249206
0.255377
0.024868
-0.0301694
-0.415233
0.420534
0.0351048
-0.0391163
-0.572732
0.576744
0.0432612
-0.0473447
-0.703493
0.707576
0.0522875
-0.0569958
-0.830589
0.835297
0.0622197
-0.0669017
-0.977954
0.982636
0.0718092
-0.0759188
-1.15263
1.15674
0.0798216
-0.0826303
-1.35841
1.36122
0.0846278
-0.0852268
-1.60093
1.60153
0.0845623
-0.0827566
-1.57751
1.57571
0.0804689
-0.0775548
-1.30426
1.30135
0.0747419
-0.0716541
-1.08588
1.0828
0.0688934
-0.0659578
-0.910453
0.907518
0.0629769
-0.0591519
-0.762175
0.75835
0.0543815
-0.0474901
-0.608277
0.601385
0.0398996
-0.0308702
-0.42102
0.411991
0.022791
-0.0147738
-0.233004
0.224987
0.00872514
-0.00379808
-0.0922182
0.0872911
0.0010656
-0.0120376
0.010972
-0.0411572
0.0439853
-0.00282815
0.0169554
-0.0252803
-0.261911
0.270236
0.0339474
-0.040887
-0.427495
0.434435
0.0473402
-0.0526041
-0.58262
0.587883
0.0580162
-0.0632255
-0.712523
0.717733
0.069286
-0.0748818
-0.83996
0.845555
0.080934
-0.0862183
-0.987221
0.992505
0.0915938
-0.0959257
-1.16064
1.16498
0.0998306
-0.102403
-1.36366
1.36623
0.103882
-0.103763
-1.60159
1.60147
0.102221
-0.0994097
-1.57331
1.5705
0.0962175
-0.0923576
-1.29784
1.29398
0.088742
-0.0848506
-1.07893
1.07504
0.0814372
-0.0778297
-0.903701
0.900093
0.0741818
-0.0694007
-0.753786
0.749005
0.0635099
-0.0552038
-0.594426
0.58612
0.0462186
-0.0356326
-0.402963
0.392377
0.0261774
-0.0168267
-0.216769
0.207419
0.00983449
-0.00422108
-0.082216
0.0766026
0.00116347
-0.00991762
0.00875415
-0.0466906
0.0509794
-0.00428884
0.0244793
-0.0357378
-0.278946
0.290204
0.0471211
-0.0562648
-0.444088
0.453232
0.0646041
-0.0713492
-0.595533
0.602278
0.0783217
-0.0849563
-0.723813
0.730447
0.0922202
-0.0986733
-0.85106
0.857513
0.105426
-0.111114
-0.997602
1.00329
0.116656
-0.12089
-1.16894
1.17317
0.124402
-0.126369
-1.36824
1.37021
0.126915
-0.125717
-1.60062
1.59942
0.122986
-0.118923
-1.56694
1.56288
0.114661
-0.109714
-1.28942
1.28448
0.105192
-0.100423
-1.07028
1.06551
0.0963072
-0.091885
-0.89531
0.890888
0.0874668
-0.0815379
-0.743308
0.73738
0.0743223
-0.0643014
-0.577637
0.567617
0.0535919
-0.0410549
-0.381763
0.369226
0.02989
-0.0189549
-0.197908
0.186973
0.0109117
-0.00459737
-0.0708934
0.0645791
0.00123843
-0.00761667
0.00637823
-0.0548952
0.0622246
-0.00732939
0.0377857
-0.0534257
-0.30242
0.31806
0.0686655
-0.0807759
-0.466579
0.47869
0.0911207
-0.0992864
-0.611946
0.620112
0.10787
-0.115826
-0.737656
0.745613
0.12406
-0.130944
-0.863672
0.870556
0.137797
-0.143287
-1.00852
1.01401
0.14834
-0.151855
-1.17673
1.18024
0.154326
-0.155085
-1.37129
1.37205
0.154098
-0.151277
-1.59718
1.59436
0.146915
-0.141255
-1.55786
1.5522
0.135679
-0.129477
-1.27873
1.27253
0.123951
-0.118234
-1.05977
1.05406
0.11337
-0.108148
-0.885126
0.879904
0.102865
-0.0955534
-0.730284
0.722973
0.0866673
-0.0744359
-0.557159
0.544927
0.0615329
-0.0466763
-0.356574
0.341718
0.0335915
-0.0209666
-0.176084
0.163459
0.0118448
-0.00487388
-0.05835
0.051379
0.0012656
-0.00519103
0.00392543
-0.0690779
0.0731196
-0.00404174
0.0285982
-0.0422168
-0.336295
0.349913
0.0558317
-0.066906
-0.496238
0.507312
0.0768277
-0.0861298
-0.631686
0.640988
0.0966247
-0.106107
-0.753006
0.762488
0.116556
-0.125738
-0.876478
0.88566
0.135384
-0.143802
-1.01856
1.02698
0.152386
-0.159471
-1.18263
1.18972
0.166105
-0.170855
-1.37155
1.3763
0.174204
-0.175113
-1.5902
1.59111
0.173523
-0.169925
-1.54533
1.54173
0.165348
-0.159479
-1.26538
1.25951
0.153975
-0.147552
-1.04725
1.04083
0.142049
-0.135904
-0.87292
0.866775
0.129303
-0.119192
-0.714025
0.703914
0.106381
-0.0892976
-0.531955
0.514872
0.0719035
-0.0523646
-0.326569
0.30703
0.0360702
-0.0213534
-0.151242
0.136525
0.0113912
-0.00438039
-0.0449985
0.0379877
0.00100703
-0.00273495
0.00172792
-0.0804407
0.0784287
0.00201204
0.00717786
-0.0158354
-0.366283
0.374941
0.0261066
-0.0341136
-0.522949
0.530956
0.0421263
-0.0499787
-0.65285
0.660702
0.0595763
-0.0684415
-0.77153
0.780395
0.0778295
-0.0863051
-0.894288
0.902764
0.0951799
-0.102587
-1.03511
1.04251
0.110313
-0.116318
-1.19657
1.20258
0.121868
-0.125514
-1.38067
1.38432
0.127454
-0.12717
-1.5911
1.59082
0.124441
-0.119706
-1.53729
1.53255
0.113913
-0.106743
-1.25302
1.24585
0.0998928
-0.0921113
-1.03336
1.02558
0.0847975
-0.0765489
-0.857132
0.848884
0.06887
-0.0599909
-0.68968
0.680801
0.0502253
-0.0384568
-0.495851
0.484083
0.0277018
-0.0175728
-0.287223
0.277094
0.0105465
-0.00538058
-0.122397
0.117231
0.00242147
-0.00072986
-0.0312896
0.029598
6.77489e-05
-0.000443105
0.000375356
-0.0816993
0.0788309
0.00286843
-0.00151308
-0.00333372
-0.386488
0.391334
0.0100336
-0.0159453
-0.542743
0.548655
0.0219933
-0.0287317
-0.670864
0.677603
0.0370525
-0.0447375
-0.788316
0.796001
0.053089
-0.0604802
-0.910471
0.917862
0.0679931
-0.0746445
-1.04976
1.05641
0.0813943
-0.0867397
-1.20816
1.21351
0.0912523
-0.0939847
-1.38732
1.39005
0.0952465
-0.0941251
-1.58979
1.58867
0.0905369
-0.0849181
-1.52705
1.52143
0.0784065
-0.0706462
-1.23828
1.23052
0.0629032
-0.0544526
-1.01679
1.00834
0.0466533
-0.0381855
-0.838935
0.830467
0.030859
-0.02303
-0.667995
0.660166
0.0154496
-0.00741733
-0.47045
0.462418
0.00190295
0.00151185
-0.266036
0.262621
-0.00275884
0.00272691
-0.111112
0.111143
-0.00205639
0.00109106
-0.0273452
0.0283106
-0.00040043
0.000152643
0.000247787
-0.080455
0.0777031
0.00275188
-0.00507163
0.00270373
-0.399816
0.402184
0.00156676
-0.0060146
-0.557606
0.562053
0.011176
-0.0168347
-0.685652
0.691311
0.0239713
-0.0305885
-0.803033
0.80965
0.0377598
-0.0441451
-0.924739
0.931124
0.0510413
-0.0567658
-1.06266
1.06839
0.062768
-0.0670934
-1.21849
1.22281
0.0710204
-0.0732713
-1.39258
1.39483
0.0738785
-0.0720185
-1.58706
1.5852
0.0681396
-0.0623218
-1.51511
1.5093
0.0557268
-0.0476507
-1.2224
1.21432
0.0400787
-0.0319256
-0.99941
0.991257
0.0243108
-0.0163154
-0.820967
0.812972
0.00893313
-0.00165102
-0.648575
0.641293
-0.00441214
0.00930727
-0.452591
0.447696
-0.0112336
0.0107948
-0.256562
0.257001
-0.00924656
0.00667518
-0.110037
0.112608
-0.00437994
0.00207343
-0.0285465
0.030853
-0.000656751
-0.000157924
0.000814675
-0.0790057
0.0766144
0.00239124
-0.00610617
0.00522792
-0.408774
0.409652
-0.00202084
-0.00131799
-0.569548
0.572887
0.00550873
-0.0106569
-0.698081
0.70323
0.0166747
-0.0225338
-0.815576
0.821435
0.0288194
-0.034465
-0.93711
0.942756
0.0405119
-0.0457386
-1.07403
1.07926
0.0509657
-0.0550701
-1.22705
1.23116
0.0585254
-0.0604331
-1.39675
1.39865
0.0607867
-0.0588922
-1.58321
1.58132
0.0552255
-0.0496869
-1.50295
1.49741
0.0436848
-0.0364896
-1.20643
1.19924
0.0295812
-0.0217859
-0.982833
0.975038
0.0144577
-0.00628938
-0.803719
0.795551
-0.0011003
0.00820563
-0.630893
0.623788
-0.0130952
0.0162572
-0.440071
0.436909
-0.0166785
0.0145465
-0.253952
0.256084
-0.011749
0.00834356
-0.113833
0.117239
-0.00533149
0.00246261
-0.0324475
0.0353164
-0.000755487
-0.00112723
0.00188272
-0.0777274
0.0757107
0.0020167
-0.00591874
0.0054629
-0.415018
0.415474
-0.00352694
0.000751302
-0.57886
0.581635
0.00339244
-0.00785649
-0.708684
0.713148
0.0130939
-0.0182448
-0.826528
0.831679
0.0239219
-0.0290769
-0.948108
0.953263
0.0347467
-0.0394627
-1.08426
1.08898
0.0443118
-0.0481334
-1.23503
1.23885
0.051313
-0.0530887
-1.40036
1.40213
0.0534544
-0.0522098
-1.57949
1.57825
0.0490865
-0.0445291
-1.49181
1.48725
0.0393556
-0.033018
-1.19223
1.18589
0.0269571
-0.0194624
-0.967129
0.959635
0.0122008
-0.00408361
-0.786424
0.778307
-0.00325136
0.0101486
-0.614311
0.607414
-0.0146303
0.0171938
-0.430873
0.428309
-0.0170424
0.0147266
-0.254498
0.256813
-0.0118647
0.00835731
-0.119253
0.122761
-0.00527147
0.00245482
-0.0372774
0.040094
-0.000756601
-0.00231712
0.00307372
-0.0768236
0.0752736
0.00154996
-0.00499512
0.00481909
-0.419773
0.419949
-0.00315219
0.000998328
-0.587123
0.589277
0.00293035
-0.00705255
-0.717998
0.72212
0.0120959
-0.016613
-0.836476
0.840993
0.0217002
-0.0263731
-0.958436
0.963109
0.0318576
-0.036243
-1.09377
1.09815
0.040674
-0.0443978
-1.24254
1.24626
0.0478685
-0.0496892
-1.40401
1.40583
0.0504403
-0.0495727
-1.57683
1.57596
0.0473675
-0.0433116
-1.4828
1.47874
0.0389395
-0.03334
-1.17961
1.17401
0.0275377
-0.0204962
-0.952078
0.945037
0.0133789
-0.00534851
-0.76933
0.761299
-0.00132305
0.00768941
-0.598775
0.592409
-0.0117051
0.013765
-0.423153
0.421093
-0.0138912
0.0122916
-0.255812
0.257411
-0.00992602
0.00697295
-0.124566
0.127519
-0.00439413
0.00205583
-0.0417907
0.044129
-0.000641463
-0.00344543
0.00408689
-0.0764382
0.0752402
0.00119796
-0.00390388
0.00382516
-0.423651
0.423729
-0.00221257
0.000135398
-0.594433
0.59651
0.00361705
-0.0073958
-0.726502
0.730281
0.0118029
-0.0162209
-0.845507
0.849925
0.0210043
-0.0258741
-0.967625
0.972495
0.0306848
-0.0349274
-1.10267
1.10691
0.039535
-0.0430957
-1.2499
1.25346
0.0462145
-0.0485985
-1.40764
1.41002
0.0497768
-0.0494817
-1.57532
1.57502
0.0476923
-0.0443676
-1.47501
1.47169
0.0403617
-0.0350346
-1.16811
1.16278
0.0295089
-0.0226927
-0.9377
0.930884
0.0159357
-0.00861146
-0.752943
0.745619
0.00223555
0.0034659
-0.58476
0.579059
-0.00702506
0.00902874
-0.416536
0.414533
-0.00947363
0.0084464
-0.256275
0.257302
-0.00690216
0.00487461
-0.128495
0.130523
-0.00311047
0.00148022
-0.0452407
0.046871
-0.000483114
-0.0043186
0.00480172
-0.0765896
0.0755874
0.00100225
-0.00263974
0.00230814
-0.427188
0.427519
-0.000843474
-0.00129369
-0.601241
0.603378
0.00475984
-0.00845603
-0.734546
0.738242
0.0127399
-0.016808
-0.854187
0.858255
0.0217531
-0.0258623
-0.976811
0.980921
0.0306611
-0.0347502
-1.11132
1.11541
0.039271
-0.043065
-1.25702
1.26082
0.0465583
-0.0488442
-1.41223
1.41452
0.0505014
-0.0506937
-1.57473
1.57493
0.0495468
-0.0464252
-1.46823
1.46511
0.0426829
-0.0375661
-1.15745
1.15234
0.0323232
-0.0258577
-0.923765
0.9173
0.0197531
-0.013064
-0.73793
0.731241
0.0074238
-0.00227855
-0.572407
0.567261
-0.00117959
0.00320548
-0.410107
0.408082
-0.00405457
0.00384734
-0.255636
0.255843
-0.00327162
0.00228414
-0.130609
0.131597
-0.00144629
0.000725826
-0.0472243
0.0479448
-0.000253843
-0.00488553
0.00513937
-0.0770209
0.0763208
0.000700055
-0.00153359
0.000746439
-0.430821
0.431608
0.000523625
-0.0028032
-0.607346
0.609625
0.00599057
-0.00959809
-0.742141
0.745749
0.013743
-0.0179656
-0.862226
0.866449
0.0223192
-0.0265979
-0.985251
0.98953
0.0313608
-0.0352471
-1.11993
1.12381
0.0398813
-0.0436713
-1.26444
1.26823
0.0472796
-0.0501546
-1.41726
1.42013
0.052342
-0.0527918
-1.57517
1.57562
0.0517601
-0.0491473
-1.46208
1.45947
0.0457507
-0.0408404
-1.14699
1.14208
0.0358189
-0.0300369
-0.91074
0.904958
0.024182
-0.0183673
-0.724301
0.718487
0.0133536
-0.00857414
-0.561566
0.556786
0.00529304
-0.00278538
-0.403582
0.401074
0.00138703
-0.000578483
-0.25362
0.252811
0.000199651
-6.36958e-06
-0.130636
0.130443
-0.000148988
0.000193647
-0.0475861
0.0475414
-0.000124228
-0.00503154
0.00515577
-0.0778425
0.0772984
0.000544101
-0.000605787
-0.000107071
-0.434675
0.435387
0.00192608
-0.00405269
-0.613546
0.615673
0.00743488
-0.0109326
-0.749292
0.752789
0.0149401
-0.0187782
-0.870376
0.874214
0.0232621
-0.027228
-0.993814
0.99778
0.0319359
-0.0362605
-1.12815
1.13248
0.0405566
-0.0447004
-1.27208
1.27622
0.0487695
-0.0517648
-1.42293
1.42592
0.0543085
-0.0554379
-1.57626
1.57739
0.0547018
-0.0525131
-1.45663
1.45444
0.0491817
-0.0446475
-1.13713
1.1326
0.0400713
-0.0346409
-0.898792
0.893362
0.0294377
-0.0240848
-0.712182
0.706829
0.0194562
-0.0148
-0.551359
0.546703
0.0112956
-0.0083959
-0.396683
0.393784
0.00623869
-0.00453218
-0.249852
0.248145
0.00316797
-0.00188863
-0.128577
0.127298
0.000927399
-0.000230657
-0.0464486
0.0457519
-3.01516e-05
-0.00481244
0.0048426
-0.078928
0.078555
0.000372966
0.000419075
-0.00130854
-0.438639
0.439528
0.00298211
-0.00539339
-0.619347
0.621758
0.00871473
-0.0120604
-0.756218
0.759564
0.0161499
-0.0198401
-0.87805
0.88174
0.0241624
-0.0282411
-1.00222
1.0063
0.0328544
-0.0371489
-1.13666
1.14095
0.0416818
-0.0458788
-1.28031
1.2845
0.0501543
-0.0538911
-1.42921
1.43295
0.0568282
-0.0581539
-1.57842
1.57974
0.0579567
-0.0559448
-1.45206
1.45004
0.053077
-0.0490473
-1.12796
1.12393
0.0446065
-0.0395741
-0.887681
0.882648
0.0347772
-0.0296591
-0.7011
0.695982
0.0253356
-0.0206887
-0.541697
0.53705
0.0170266
-0.0134823
-0.389173
0.385629
0.0107321
-0.00812138
-0.244376
0.241765
0.00577586
-0.00356199
-0.124527
0.122313
0.00190942
-0.000672425
-0.0440801
0.0428431
9.67649e-05
-0.00439072
0.00429395
-0.0802287
0.0799765