/*--------------------------------*- C++ -*----------------------------------*\
  =========                 |
  \\      /  F ield         | OpenFOAM: The Open Source CFD Toolbox
   \\    /   O peration     | Website:  https://openfoam.org
    \\  /    A nd           | Version:  6
     \\/     M anipulation  |
\*---------------------------------------------------------------------------*/
FoamFile
{
    version     2.0;
    format      ascii;
    class       volVectorField;
    location    "42";
    object      U;
}
// * * * * * * * * * * * * * * * * * * * * * * * * * * * * * * * * * * * * * //

dimensions      [0 1 -1 0 0 0 0];

internalField   nonuniform List<vector> 
8800
(
(0.987199 -0.0767053 0)
(1.0019 -0.0551754 0)
(0.999747 -0.0285476 0)
(1.00004 -0.0151482 0)
(1.00007 -0.00854516 0)
(1.00006 -0.00504317 0)
(1.00004 -0.00300807 0)
(1.00002 -0.00171952 0)
(0.999996 -0.000818603 0)
(1.00005 -0.000104803 0)
(0.999987 0.000621098 0)
(0.999996 0.00138186 0)
(1.00001 0.00240695 0)
(1.00002 0.00399074 0)
(1.00002 0.0066335 0)
(1 0.0113742 0)
(0.999892 0.0208144 0)
(0.999147 0.038656 0)
(1.0071 0.0724565 0)
(0.771226 0.0366892 0)
(0.363027 -0.0160169 0)
(1.0433 -0.0768349 0)
(1.08463 -0.0704586 0)
(1.04524 -0.0535642 0)
(1.0233 -0.0389139 0)
(1.01198 -0.026241 0)
(1.00638 -0.0169007 0)
(1.00357 -0.0103941 0)
(1.00214 -0.00574801 0)
(1.00145 -0.00210782 0)
(1.00131 0.00120653 0)
(1.00169 0.00458428 0)
(1.00266 0.00851923 0)
(1.00464 0.0138692 0)
(1.0086 0.0215968 0)
(1.01657 0.0325793 0)
(1.03249 0.0464994 0)
(1.06266 0.0616269 0)
(1.0919 0.076068 0)
(0.838698 0.0565705 0)
(0.216776 -0.00242349 0)
(1.07585 -0.0501761 0)
(1.09987 -0.04837 0)
(1.06461 -0.0405231 0)
(1.03996 -0.033665 0)
(1.02381 -0.0261555 0)
(1.01404 -0.018606 0)
(1.00851 -0.0118155 0)
(1.00557 -0.0059694 0)
(1.00433 -0.000574463 0)
(1.00468 0.00466011 0)
(1.00661 0.0100494 0)
(1.0106 0.0161522 0)
(1.01792 0.0232066 0)
(1.03054 0.0307043 0)
(1.05062 0.0377585 0)
(1.08034 0.0444624 0)
(1.10627 0.0512974 0)
(0.942612 0.0415888 0)
(0.216225 0.00244932 0)
(0.175068 -0.000817195 0)
(1.01755 -0.0355341 0)
(1.10514 -0.0414612 0)
(1.0782 -0.0361619 0)
(1.05334 -0.0302414 0)
(1.03605 -0.0246909 0)
(1.02388 -0.0190028 0)
(1.0158 -0.0129511 0)
(1.01097 -0.00678689 0)
(1.0088 -0.000482248 0)
(1.0094 0.00575371 0)
(1.01267 0.0117525 0)
(1.01887 0.0176136 0)
(1.02877 0.0232296 0)
(1.04323 0.0285715 0)
(1.06377 0.0340823 0)
(1.09359 0.0400859 0)
(1.09349 0.0418751 0)
(0.827384 0.0228734 0)
(0.174139 0.000846144 0)
(0.153815 -0.000612721 0)
(0.955903 -0.0255221 0)
(1.10332 -0.0352385 0)
(1.08755 -0.0327875 0)
(1.06154 -0.0281544 0)
(1.0439 -0.023164 0)
(1.03147 -0.0179688 0)
(1.02267 -0.0124836 0)
(1.0169 -0.00658893 0)
(1.01411 -0.000147826 0)
(1.01483 0.00630324 0)
(1.01882 0.0121844 0)
(1.02583 0.0174994 0)
(1.03614 0.0224642 0)
(1.05074 0.027273 0)
(1.072 0.0318449 0)
(1.10017 0.035811 0)
(1.06829 0.0339127 0)
(0.739978 0.0142639 0)
(0.15242 0.000645443 0)
(0.139384 -0.000469767 0)
(0.898813 -0.019152 0)
(1.09553 -0.0302179 0)
(1.09554 -0.0293661 0)
(1.06899 -0.0256651 0)
(1.05053 -0.0215731 0)
(1.03765 -0.0168619 0)
(1.0286 -0.0116298 0)
(1.02255 -0.00593191 0)
(1.01949 0.000349646 0)
(1.02017 0.00663221 0)
(1.02431 0.0122665 0)
(1.03144 0.0172707 0)
(1.04198 0.0217952 0)
(1.05717 0.0258115 0)
(1.07939 0.0293279 0)
(1.10247 0.0319957 0)
(1.03639 0.0279591 0)
(0.673683 0.0101471 0)
(0.13742 0.000507359 0)
(0.128777 -0.000365039 0)
(0.848992 -0.0148006 0)
(1.08298 -0.0261133 0)
(1.10111 -0.0264612 0)
(1.07574 -0.0232226 0)
(1.05676 -0.0196391 0)
(1.04343 -0.0154658 0)
(1.03404 -0.0106167 0)
(1.02776 -0.00515519 0)
(1.02452 0.000946046 0)
(1.0251 0.00702956 0)
(1.02922 0.0123835 0)
(1.03648 0.0169708 0)
(1.04732 0.0208973 0)
(1.06291 0.0242559 0)
(1.08558 0.0272599 0)
(1.1017 0.0290733 0)
(1.00177 0.0233911 0)
(0.6222 0.00776538 0)
(0.126122 0.000409154 0)
(0.120662 -0.000284927 0)
(0.806589 -0.0116526 0)
(1.06751 -0.0225313 0)
(1.10451 -0.0238692 0)
(1.08188 -0.021051 0)
(1.06248 -0.0176938 0)
(1.04888 -0.0138433 0)
(1.03921 -0.00935558 0)
(1.03268 -0.0041843 0)
(1.02923 0.00166987 0)
(1.02967 0.00747654 0)
(1.03376 0.0124759 0)
(1.0411 0.0165962 0)
(1.05206 0.0200228 0)
(1.06791 0.0229771 0)
(1.09094 0.0257053 0)
(1.09808 0.0266421 0)
(0.966911 0.0197855 0)
(0.580998 0.00620913 0)
(0.117169 0.00033748 0)
(0.114351 -0.000222219 0)
(0.770831 -0.00929684 0)
(1.05049 -0.0193753 0)
(1.10672 -0.0214821 0)
(1.0876 -0.0190642 0)
(1.06781 -0.0158735 0)
(1.05398 -0.0121948 0)
(1.04412 -0.00792286 0)
(1.03734 -0.0030226 0)
(1.03363 0.00254432 0)
(1.0339 0.00802838 0)
(1.03793 0.0126349 0)
(1.04525 0.0163562 0)
(1.05623 0.0194212 0)
(1.0723 0.0220451 0)
(1.09502 0.0244391 0)
(1.09173 0.0245852 0)
(0.933148 0.0169707 0)
(0.547087 0.00513463 0)
(0.109837 0.000285235 0)
(0.109412 -0.000171694 0)
(0.740795 -0.00746546 0)
(1.03301 -0.0165715 0)
(1.10795 -0.0192116 0)
(1.09299 -0.0171068 0)
(1.07293 -0.0140188 0)
(1.05884 -0.0104663 0)
(1.04881 -0.00636958 0)
(1.04184 -0.00168942 0)
(1.0379 0.00360178 0)
(1.03791 0.00874788 0)
(1.04174 0.0129724 0)
(1.04894 0.0163003 0)
(1.05994 0.0190036 0)
(1.07621 0.0213384 0)
(1.09789 0.0233994 0)
(1.08305 0.022823 0)
(0.901107 0.0147864 0)
(0.518466 0.00436853 0)
(0.103659 0.000247421 0)
(0.105561 -0.000129676 0)
(0.715676 -0.00598264 0)
(1.01591 -0.0140456 0)
(1.10832 -0.0170213 0)
(1.09827 -0.0152247 0)
(1.07794 -0.0121708 0)
(1.06356 -0.00866831 0)
(1.05333 -0.00466404 0)
(1.04614 -0.000143033 0)
(1.04191 0.00487341 0)
(1.04163 0.0096566 0)
(1.0452 0.0135112 0)
(1.05224 0.0165097 0)
(1.06323 0.0189117 0)
(1.07971 0.0209708 0)
(1.09949 0.0226319 0)
(1.07249 0.0213681 0)
(0.870952 0.013118 0)
(0.493724 0.0038235 0)
(0.0982988 0.000221664 0)
(0.102613 -9.33318e-05 0)
(0.694849 -0.00473443 0)
(0.999788 -0.0117288 0)
(1.10793 -0.0148463 0)
(1.1033 -0.0132778 0)
(1.0829 -0.0102357 0)
(1.06823 -0.00675279 0)
(1.05775 -0.00280849 0)
(1.05028 0.00158485 0)
(1.04572 0.00640142 0)
(1.04506 0.0108939 0)
(1.04832 0.014383 0)
(1.05517 0.0170033 0)
(1.06613 0.0190728 0)
(1.08276 0.0208533 0)
(1.10014 0.0221079 0)
(1.06034 0.0201937 0)
(0.842604 0.0118643 0)
(0.471832 0.00344035 0)
(0.0935108 0.000204969 0)
(0.100449 -5.98322e-05 0)
(0.677866 -0.00363228 0)
(0.985143 -0.00955283 0)
(1.10705 -0.0126167 0)
(1.1081 -0.01118 0)
(1.08785 -0.0081105 0)
(1.07284 -0.00461578 0)
(1.06206 -0.000688132 0)
(1.05425 0.00363314 0)
(1.04926 0.00825931 0)
(1.04815 0.0124363 0)
(1.05104 0.0155747 0)
(1.05766 0.0178351 0)
(1.06859 0.0195431 0)
(1.08531 0.0210185 0)
(1.09978 0.0219119 0)
(1.04689 0.0193085 0)
(0.815839 0.010953 0)
(0.452004 0.00318141 0)
(0.0891038 0.000195585 0)
(0.0990077 -2.67277e-05 0)
(0.66444 -0.00259815 0)
(0.972323 -0.00742328 0)
(1.10595 -0.0102642 0)
(1.11277 -0.00892336 0)
(1.09289 -0.00581235 0)
(1.0775 -0.00221809 0)
(1.06634 0.00177124 0)
(1.05809 0.00605565 0)
(1.05256 0.0105152 0)
(1.05089 0.014393 0)
(1.05334 0.0171263 0)
(1.0597 0.0189976 0)
(1.0706 0.0203578 0)
(1.08739 0.0215354 0)
(1.09836 0.0219878 0)
(1.03226 0.0186967 0)
(0.79034 0.0103214 0)
(0.43362 0.00302123 0)
(0.0849252 0.000192477 0)
(0.0982755 7.72367e-06 0)
(0.65444 -0.00157807 0)
(0.961683 -0.00527359 0)
(1.10494 -0.00769602 0)
(1.1174 -0.00634652 0)
(1.09808 -0.0031615 0)
(1.0823 0.000567033 0)
(1.07071 0.00464985 0)
(1.06195 0.0089462 0)
(1.05576 0.0132704 0)
(1.05341 0.0168425 0)
(1.05532 0.0191763 0)
(1.06134 0.0206049 0)
(1.07213 0.0215332 0)
(1.08886 0.0223578 0)
(1.09576 0.0223371 0)
(1.01656 0.0183404 0)
(0.765805 0.00993125 0)
(0.416196 0.00294167 0)
(0.0808576 0.000194385 0)
(0.098273 3.9114e-05 0)
(0.647862 -0.000537759 0)
(0.953541 -0.00304488 0)
(1.10443 -0.00488327 0)
(1.1222 -0.0034029 0)
(1.10349 -7.66253e-05 0)
(1.08726 0.00381826 0)
(1.07517 0.00804694 0)
(1.06578 0.0124141 0)
(1.05881 0.0166328 0)
(1.05562 0.0198732 0)
(1.05685 0.0217718 0)
(1.06243 0.0227195 0)
(1.0731 0.0231685 0)
(1.08961 0.0235679 0)
(1.09183 0.0230303 0)
(0.999806 0.0183 0)
(0.741865 0.00977301 0)
(0.399289 0.00294263 0)
(0.0767864 0.000202045 0)
(0.0990767 8.74016e-05 0)
(0.644846 0.000545681 0)
(0.948204 -0.000655468 0)
(1.10473 -0.00176257 0)
(1.12733 -7.17616e-05 0)
(1.10919 0.00346233 0)
(1.09244 0.00762865 0)
(1.07974 0.0120957 0)
(1.06957 0.0165922 0)
(1.06162 0.0207364 0)
(1.05741 0.0236521 0)
(1.05783 0.0250662 0)
(1.0629 0.0254753 0)
(1.07342 0.025407 0)
(1.0894 0.0253273 0)
(1.08649 0.0241043 0)
(0.98188 0.0185736 0)
(0.718126 0.00984103 0)
(0.382482 0.00301765 0)
(0.0726039 0.000214493 0)
(0.100823 0.000141968 0)
(0.645731 0.00173872 0)
(0.946089 0.00196043 0)
(1.10624 0.00181878 0)
(1.13289 0.00387141 0)
(1.11531 0.00769404 0)
(1.09803 0.0122218 0)
(1.08455 0.0169946 0)
(1.07336 0.0216543 0)
(1.06416 0.0257515 0)
(1.05874 0.0283301 0)
(1.05823 0.0291518 0)
(1.06269 0.0289366 0)
(1.07296 0.0282992 0)
(1.08805 0.0276208 0)
(1.07946 0.0255699 0)
(0.962665 0.0191831 0)
(0.694179 0.0101319 0)
(0.365375 0.00316543 0)
(0.0682112 0.000231634 0)
(0.103636 0.000201933 0)
(0.650984 0.00318671 0)
(0.947693 0.00497569 0)
(1.10955 0.00597439 0)
(1.13919 0.00855845 0)
(1.12203 0.012828 0)
(1.1041 0.017786 0)
(1.08974 0.022939 0)
(1.07744 0.0278574 0)
(1.06681 0.0318932 0)
(1.05982 0.0340343 0)
(1.05807 0.0342485 0)
(1.06173 0.0333021 0)
(1.07165 0.0319699 0)
(1.0854 0.0305833 0)
(1.07062 0.0275875 0)
(0.941943 0.0202255 0)
(0.669548 0.010684 0)
(0.347549 0.00339425 0)
(0.0635055 0.000253756 0)
(0.107799 0.000285764 0)
(0.661053 0.00489355 0)
(0.953245 0.00836954 0)
(1.11507 0.0107761 0)
(1.14648 0.0140177 0)
(1.12948 0.0189036 0)
(1.11073 0.0244675 0)
(1.09523 0.0301466 0)
(1.0814 0.0353899 0)
(1.06889 0.039406 0)
(1.0601 0.041081 0)
(1.05701 0.0405232 0)
(1.05972 0.0387449 0)
(1.06925 0.0366385 0)
(1.0813 0.0344636 0)
(1.05965 0.0302728 0)
(0.919295 0.0217574 0)
(0.64364 0.0115159 0)
(0.328536 0.00370216 0)
(0.0583854 0.000279265 0)
(0.113645 0.000396835 0)
(0.676608 0.0070033 0)
(0.963706 0.0125475 0)
(1.12329 0.0164992 0)
(1.15505 0.0205984 0)
(1.13794 0.0263313 0)
(1.11822 0.0326962 0)
(1.1013 0.0390567 0)
(1.08562 0.0446915 0)
(1.07088 0.0485985 0)
(1.05988 0.0496178 0)
(1.0551 0.0481542 0)
(1.05666 0.0454598 0)
(1.06563 0.0424811 0)
(1.07562 0.0393771 0)
(1.04619 0.0337801 0)
(0.894263 0.0239201 0)
(0.615748 0.0126838 0)
(0.307821 0.00409673 0)
(0.0527738 0.000306796 0)
(0.121668 0.00055061 0)
(0.698532 0.00971548 0)
(0.97969 0.0176324 0)
(1.13487 0.0234032 0)
(1.16544 0.0286874 0)
(1.1478 0.0355951 0)
(1.12681 0.0429226 0)
(1.10802 0.0500496 0)
(1.09 0.056079 0)
(1.07254 0.0598147 0)
(1.05891 0.0600104 0)
(1.05215 0.0574234 0)
(1.0524 0.0536521 0)
(1.06064 0.0497011 0)
(1.06808 0.0456054 0)
(1.02987 0.0383781 0)
(0.866185 0.0268876 0)
(0.584956 0.0142687 0)
(0.284771 0.0045881 0)
(0.0465953 0.000335927 0)
(0.132592 0.00077391 0)
(0.727996 0.013364 0)
(1.00222 0.024045 0)
(1.15061 0.0319627 0)
(1.17833 0.0388097 0)
(1.15936 0.0472975 0)
(1.1365 0.0558123 0)
(1.11524 0.0638065 0)
(1.09422 0.0701584 0)
(1.07342 0.0734449 0)
(1.05683 0.0724937 0)
(1.04788 0.0685305 0)
(1.04669 0.0634659 0)
(1.0541 0.0584074 0)
(1.05846 0.0532037 0)
(1.01016 0.0442695 0)
(0.834205 0.0307781 0)
(0.550133 0.0162875 0)
(0.258702 0.00516344 0)
(0.0397788 0.000365501 0)
(0.147609 0.00112294 0)
(0.76682 0.0186058 0)
(1.0328 0.0326128 0)
(1.17144 0.0431018 0)
(1.19459 0.0520055 0)
(1.17308 0.0623651 0)
(1.1476 0.0722259 0)
(1.12309 0.081028 0)
(1.09838 0.0874355 0)
(1.07368 0.0899121 0)
(1.05372 0.0874573 0)
(1.04232 0.0818038 0)
(1.03951 0.0752781 0)
(1.04588 0.0688809 0)
(1.04634 0.0624574 0)
(0.986433 0.0515425 0)
(0.797328 0.0356193 0)
(0.510114 0.0186545 0)
(0.229106 0.0057715 0)
(0.0323108 0.00039129 0)
(0.168817 0.00172785 0)
(0.817983 0.0265812 0)
(1.07409 0.0449141 0)
(1.19831 0.0587063 0)
(1.21471 0.0703895 0)
(1.18907 0.082533 0)
(1.15978 0.0936206 0)
(1.13096 0.10279 0)
(1.10174 0.108614 0)
(1.0726 0.109592 0)
(1.04895 0.105042 0)
(1.03503 0.0973732 0)
(1.03062 0.0891816 0)
(1.03564 0.0814273 0)
(1.0313 0.0734123 0)
(0.957811 0.0601669 0)
(0.754346 0.041233 0)
(0.464044 0.0211781 0)
(0.195948 0.00632531 0)
(0.0243039 0.000405646 0)
(0.199511 0.00306898 0)
(0.887088 0.0400043 0)
(1.12908 0.0647598 0)
(1.23164 0.0823688 0)
(1.23855 0.0969175 0)
(1.2068 0.110384 0)
(1.17231 0.121801 0)
(1.13821 0.130206 0)
(1.10384 0.134337 0)
(1.06987 0.132726 0)
(1.0424 0.12525 0)
(1.02591 0.115112 0)
(1.01996 0.105052 0)
(1.02344 0.0959053 0)
(1.01272 0.0861429 0)
(0.923112 0.0699815 0)
(0.70404 0.0471861 0)
(0.412124 0.0236281 0)
(0.160314 0.00675651 0)
(0.0161679 0.000398932 0)
(0.241418 0.0092156 5.67709e-20)
(0.978086 0.0667235 4.93747e-20)
(1.19546 0.0986992 -1.71364e-20)
(1.26874 0.117845 0)
(1.26349 0.135224 -4.23465e-34)
(1.22419 0.148256 6.15622e-21)
(1.18366 0.158219 -1.08951e-20)
(1.14367 0.16447 0)
(1.10369 0.16585 2.19292e-34)
(1.06446 0.160898 -1.30703e-20)
(1.03283 0.150017 0)
(1.01354 0.137139 -1.53199e-20)
(1.00586 0.125121 -4.50499e-20)
(1.00752 0.114835 -2.12411e-20)
(0.988543 0.103519 -6.3701e-21)
(0.878124 0.0833998 -3.77969e-21)
(0.64101 0.0548828 0)
(0.351777 0.0267052 2.64717e-21)
(0.123076 0.0077872 3.12694e-21)
(0.00843875 0.00052132 5.62758e-20)
(0.270178 0.0242981 4.42914e-20)
(1.05314 0.108995 5.21049e-22)
(1.24971 0.147237 4.6921e-21)
(1.30259 0.166372 0)
(1.28548 0.183842 -2.19232e-20)
(1.23908 0.194823 -2.46572e-20)
(1.19244 0.202591 -1.1105e-20)
(1.1464 0.206495 -3.89265e-20)
(1.10043 0.205256 0)
(1.05529 0.197334 5.58542e-20)
(1.01854 0.18346 5.50492e-20)
(0.995514 0.16815 1.63005e-20)
(0.985156 0.154087 5.90371e-20)
(0.98201 0.141148 8.25602e-20)
(0.951458 0.126042 0)
(0.817973 0.10093 1.16169e-19)
(0.567354 0.0650009 1.66788e-19)
(0.290066 0.0311437 1.85338e-19)
(0.0891727 0.00894416 -2.12031e-19)
(0.00174003 0.000237518 -3.98041e-21)
(0.271344 0.0407174 0)
(1.10054 0.163884 8.37703e-21)
(1.28646 0.206707 0)
(1.32895 0.225811 -3.02572e-20)
(1.30271 0.240222 0)
(1.2503 0.247425 -4.92218e-20)
(1.19796 0.251633 2.2886e-20)
(1.14619 0.252223 -7.91254e-20)
(1.09454 0.247675 -1.57459e-21)
(1.04377 0.236245 2.90927e-20)
(1.00202 0.218856 1.21113e-19)
(0.975172 0.200637 -2.98383e-22)
(0.96158 0.184419 -4.29363e-20)
(0.953891 0.169712 -7.80093e-20)
(0.916 0.151627 9.23619e-20)
(0.77412 0.120669 -1.63449e-19)
(0.527135 0.0774661 -2.16199e-20)
(0.266589 0.0375342 0)
(0.0812128 0.0110331 -8.98131e-25)
(0.000490332 5.31609e-05 0)
(0.264967 0.0546578 1.24239e-19)
(1.12596 0.222507 -5.85101e-20)
(1.3093 0.271033 -4.20434e-20)
(1.34616 0.290574 1.46978e-20)
(1.31368 0.301017 -2.45283e-20)
(1.25681 0.303876 1.03702e-19)
(1.19982 0.303939 4.80554e-20)
(1.14309 0.300655 0)
(1.0863 0.292273 -1.47594e-19)
(1.03017 0.276798 0)
(0.983601 0.2556 -6.3868e-20)
(0.953059 0.23458 -7.82176e-20)
(0.936782 0.216744 -4.68488e-20)
(0.926105 0.200975 -5.67453e-20)
(0.883014 0.179815 0)
(0.74224 0.143093 0)
(0.509048 0.0938302 -1.41344e-19)
(0.266462 0.0482224 2.79544e-20)
(0.0867148 0.01533 -1.63816e-20)
(0.00207032 0.000329625 -1.91542e-20)
(0.257685 0.0670259 -6.01684e-20)
(1.13715 0.281127 0)
(1.32192 0.336546 9.13457e-20)
(1.35533 0.356782 4.2697e-20)
(1.31852 0.363437 5.58882e-20)
(1.25846 0.362035 0)
(1.19788 0.357955 4.77118e-20)
(1.13705 0.350623 8.82638e-20)
(1.07575 0.338183 7.6096e-20)
(1.0148 0.318565 1.37248e-19)
(0.963802 0.293997 0)
(0.929991 0.271014 -1.68974e-19)
(0.91125 0.251986 -1.01412e-19)
(0.897354 0.234414 -5.98418e-20)
(0.850717 0.209217 3.66833e-19)
(0.717049 0.168021 4.36999e-20)
(0.501984 0.113904 2.05701e-19)
(0.274775 0.061955 -9.72374e-19)
(0.0981261 0.0220482 5.76818e-19)
(0.00558088 0.00127945 -6.9519e-19)
(0.250914 0.0782194 -4.1766e-20)
(1.1395 0.337865 1.13204e-20)
(1.32723 0.401333 -1.11519e-20)
(1.3582 0.422596 -4.74468e-20)
(1.31824 0.425785 -4.96671e-20)
(1.25583 0.420363 1.7751e-21)
(1.19244 0.412308 -5.16295e-20)
(1.12822 0.400975 9.17891e-20)
(1.06306 0.384497 -1.63808e-19)
(0.997971 0.361006 0)
(0.943285 0.333565 -7.68413e-20)
(0.9065 0.308867 -1.61687e-21)
(0.884845 0.288287 -1.10866e-19)
(0.866755 0.267941 0)
(0.817975 0.238989 -7.94804e-20)
(0.69488 0.194423 -1.89e-19)
(0.498101 0.136078 5.0625e-19)
(0.284622 0.0778198 -4.97698e-19)
(0.11029 0.0303097 7.07579e-19)
(0.00947049 0.00269971 -7.35226e-19)
(0.245386 0.0886485 -5.07242e-22)
(1.13641 0.39205 -7.70099e-21)
(1.32734 0.464325 -3.72438e-20)
(1.35628 0.486856 2.08816e-20)
(1.31393 0.48697 -2.53346e-20)
(1.24977 0.477832 0)
(1.18408 0.465992 -4.90896e-20)
(1.11701 0.450799 -9.63747e-20)
(1.04859 0.430454 -8.54314e-20)
(0.980077 0.403363 0)
(0.922296 0.37313 -7.99615e-20)
(0.882724 0.346141 -9.83395e-20)
(0.85771 0.323081 1.2017e-19)
(0.835421 0.299551 -7.2811e-20)
(0.78618 0.267813 -3.46467e-19)
(0.673669 0.221142 2.06766e-19)
(0.493017 0.159192 6.19073e-20)
(0.29185 0.0943697 0)
(0.120059 0.0391839 -6.83594e-19)
(0.012771 0.00430466 -2.50612e-20)
(0.241152 0.0986234 -2.71082e-21)
(1.13005 0.443506 5.42069e-21)
(1.32371 0.52495 1.85501e-20)
(1.35079 0.548862 7.17185e-20)
(1.30655 0.546264 -9.6763e-20)
(1.24103 0.533728 1.04405e-19)
(1.17344 0.518326 1.05489e-19)
(1.10395 0.499478 -1.53981e-19)
(1.03279 0.475509 5.18971e-20)
(0.961345 0.444966 -3.37417e-19)
(0.900805 0.411584 -8.99911e-20)
(0.858501 0.381557 0)
(0.830105 0.355278 1.30122e-19)
(0.804289 0.328789 1.5554e-19)
(0.755768 0.295024 1.86122e-19)
(0.652641 0.246766 -2.24214e-19)
(0.485279 0.181408 -6.63646e-20)
(0.294416 0.110298 7.80512e-20)
(0.125974 0.0475332 0)
(0.0150377 0.00580714 -5.42839e-20)
(0.23804 0.108231 5.708e-21)
(1.12196 0.492265 -1.14383e-20)
(1.31761 0.583501 -1.79669e-20)
(1.34268 0.608236 4.56729e-20)
(1.29688 0.603209 -4.55235e-20)
(1.23026 0.587561 -4.08939e-21)
(1.16107 0.568875 -1.14714e-19)
(1.08954 0.546654 -5.55608e-20)
(1.01601 0.519327 -1.48085e-19)
(0.941959 0.485378 2.4575e-22)
(0.878744 0.448407 -2.8205e-19)
(0.83379 0.414823 2.35974e-19)
(0.80235 0.385227 -1.4249e-19)
(0.773883 0.356314 1.70854e-19)
(0.726505 0.321192 0)
(0.630595 0.271361 -1.21223e-19)
(0.474373 0.202411 -4.74786e-22)
(0.292024 0.12474 -3.3909e-19)
(0.127284 0.054597 -4.98644e-20)
(0.0161399 0.00700272 0)
(0.23593 0.117664 0)
(1.11297 0.538541 -8.35791e-21)
(1.30953 0.639175 -2.67084e-20)
(1.3327 0.664782 -4.39293e-20)
(1.28557 0.657549 -5.50994e-20)
(1.21801 0.639065 0)
(1.14748 0.617389 -5.34007e-20)
(1.07421 0.592135 -1.18159e-21)
(0.998592 0.561739 3.16861e-19)
(0.922048 0.524391 -4.6438e-20)
(0.856162 0.483553 -2.03344e-19)
(0.808665 0.446209 1.22929e-19)
(0.774726 0.413456 -2.1128e-21)
(0.744523 0.382489 1.81525e-19)
(0.698315 0.346078 1.11745e-19)
(0.607651 0.29399 -2.61447e-19)
(0.460192 0.220849 3.10005e-19)
(0.284848 0.136509 9.16802e-20)
(0.124777 0.0595849 3.78139e-19)
(0.0161163 0.00770583 -1.0115e-18)
(0.234723 0.127053 -6.90504e-21)
(1.10372 0.582505 3.84148e-21)
(1.3001 0.692065 1.72337e-21)
(1.32138 0.718443 3.84589e-20)
(1.2731 0.709173 0)
(1.20474 0.688103 -5.05026e-20)
(1.13308 0.663764 1.77529e-19)
(1.05831 0.63584 1.21974e-19)
(0.980778 0.602665 0)
(0.901754 0.56197 -6.65708e-19)
(0.833158 0.517176 5.48674e-19)
(0.783254 0.476081 0)
(0.747304 0.440338 1.65795e-19)
(0.715971 0.40734 -2.07449e-21)
(0.670663 0.36918 -3.56303e-19)
(0.583759 0.314059 1.39635e-19)
(0.442825 0.236149 0)
(0.273412 0.145143 4.93741e-19)
(0.118736 0.0622193 0)
(0.0150281 0.00783908 -4.77417e-19)
(0.234244 0.136415 1.08392e-20)
(1.09455 0.624326 1.23641e-20)
(1.2897 0.742182 3.55527e-21)
(1.30914 0.769219 0)
(1.25987 0.758069 -5.00143e-20)
(1.19084 0.734659 0)
(1.11822 0.707981 -1.77175e-19)
(1.04214 0.677746 -5.7603e-20)
(0.962786 0.642085 5.61777e-20)
(0.881258 0.598175 -3.28996e-19)
(0.809871 0.549492 5.67716e-20)
(0.75765 0.504734 0)
(0.720025 0.466053 -3.53751e-19)
(0.687877 0.430855 2.08602e-21)
(0.643066 0.390432 0)
(0.558684 0.331673 1.961e-21)
(0.422487 0.248188 4.50048e-19)
(0.258159 0.150417 -4.26135e-19)
(0.109797 0.0628176 1.25562e-19)
(0.0132966 0.00752127 0)
(0.23416 0.145655 0)
(1.08565 0.664098 1.9746e-20)
(1.27869 0.789613 5.85847e-21)
(1.29632 0.817169 -2.41433e-21)
(1.24618 0.804273 -1.95225e-20)
(1.1766 0.778767 -1.12782e-19)
(1.10319 0.750076 6.56525e-20)
(1.02593 0.717865 -6.69669e-20)
(0.944821 0.679994 2.49244e-19)
(0.860726 0.63309 -5.24961e-19)
(0.786446 0.580698 -3.59682e-21)
(0.731904 0.532354 -1.55636e-19)
(0.692793 0.490665 5.72925e-19)
(0.65999 0.453003 -2.43987e-21)
(0.615364 0.40978 -2.7545e-19)
(0.532361 0.346649 -4.92207e-19)
(0.39945 0.25684 0)
(0.239575 0.152259 0)
(0.0985376 0.0612231 1.35563e-19)
(0.0111331 0.00677683 -7.9398e-20)
(0.23459 0.154879 2.09102e-20)
(1.07721 0.701702 -5.0367e-20)
(1.26733 0.834439 -6.72465e-21)
(1.28316 0.862362 0)
(1.23228 0.847853 -1.62703e-21)
(1.16229 0.820493 -1.06496e-19)
(1.08822 0.790098 1.60722e-19)
(1.00988 0.756217 2.65966e-19)
(0.927056 0.716413 3.24289e-19)
(0.84034 0.666796 -4.28899e-19)
(0.763035 0.610954 -4.69802e-19)
(0.706071 0.55909 4.15968e-19)
(0.665521 0.514212 0)
(0.63211 0.473697 -1.25026e-19)
(0.587392 0.427042 -2.97722e-19)
(0.504907 0.358699 -3.53067e-19)
(0.374041 0.261766 -4.19051e-19)
(0.218452 0.150643 1.23898e-19)
(0.0855748 0.0574304 -7.28885e-20)
(0.00859745 0.00562674 2.70614e-22)
(0.235292 0.163901 0)
(1.06932 0.737656 0)
(1.25579 0.876742 2.69866e-21)
(1.26985 0.904881 0)
(1.21838 0.888904 5.10799e-20)
(1.14807 0.859929 7.49352e-20)
(1.07349 0.828105 0)
(0.994166 0.792828 3.19771e-20)
(0.909657 0.751359 5.41371e-19)
(0.820284 0.699362 -9.84835e-19)
(0.739804 0.640393 0)
(0.680218 0.585079 -2.67234e-19)
(0.638101 0.536754 -2.95515e-21)
(0.604018 0.49287 -2.3709e-21)
(0.558994 0.442057 3.1783e-19)
(0.476372 0.367626 -3.47351e-22)
(0.346364 0.262845 -9.0121e-19)
(0.195265 0.145533 2.66324e-19)
(0.071993 0.0519654 7.86968e-20)
(0.00602868 0.00424082 0)
(0.236033 0.172771 -9.82453e-20)
(1.06173 0.771935 -4.24298e-20)
(1.24417 0.916583 -4.17677e-20)
(1.25658 0.944826 -1.89688e-21)
(1.20462 0.92751 7.4061e-20)
(1.13413 0.897158 0)
(1.05912 0.864157 9.83884e-20)
(0.978903 0.827726 -7.06627e-20)
(0.892763 0.784855 3.90931e-21)
(0.800732 0.730846 7.22528e-20)
(0.716919 0.66912 6.07291e-19)
(0.654424 0.610475 -9.37858e-20)
(0.610443 0.558422 -3.52112e-19)
(0.575473 0.510507 -1.4529e-19)
(0.529973 0.454604 1.72688e-19)
(0.446866 0.373104 -1.60977e-22)
(0.31751 0.259986 2.42704e-19)
(0.171455 0.137453 -5.72472e-19)
(0.058519 0.0453123 6.76724e-19)
(0.00357997 0.00274401 9.86721e-20)
(0.23657 0.181405 3.94347e-20)
(1.0545 0.804631 -2.54579e-20)
(1.23263 0.954076 6.37419e-21)
(1.24348 0.982318 1.16819e-20)
(1.19114 0.96379 -8.8201e-21)
(1.12055 0.932265 -1.32474e-19)
(1.04523 0.898305 2.95525e-20)
(0.964199 0.860925 -2.9494e-19)
(0.876503 0.816905 -5.96679e-19)
(0.781834 0.76127 -5.86605e-19)
(0.694547 0.697212 0)
(0.628783 0.63543 -4.10251e-19)
(0.582472 0.579431 5.06414e-19)
(0.54618 0.526662 0)
(0.500016 0.464379 -3.69447e-19)
(0.416474 0.374596 2.20744e-19)
(0.288218 0.252929 -2.60587e-19)
(0.148277 0.12681 -3.07904e-19)
(0.0460585 0.038038 -5.4478e-19)
(0.001418 0.00126983 -4.24707e-19)
(0.23744 0.189892 -4.66192e-20)
(1.04748 0.835729 2.72856e-20)
(1.22126 0.989282 5.88706e-20)
(1.23063 1.01745 2.49757e-20)
(1.17802 0.997843 2.24305e-20)
(1.10744 0.96534 -7.39612e-20)
(1.0319 0.930595 9.7568e-20)
(0.950132 0.892461 -3.03769e-19)
(0.860963 0.847529 -3.53122e-19)
(0.763725 0.790654 6.13625e-19)
(0.672838 0.724725 1.33142e-18)
(0.603414 0.660093 0)
(0.554176 0.600055 0)
(0.515796 0.541559 -1.67106e-19)
(0.46855 0.471089 0)
(0.385023 0.371139 4.7478e-19)
(0.259555 0.240905 5.60481e-19)
(0.127653 0.113766 0)
(0.0358692 0.0307259 0)
(-0.000312194 -4.44455e-05 4.56187e-19)
(0.237959 0.1979 5.5358e-20)
(1.04071 0.865221 4.42361e-20)
(1.21013 1.02232 4.39508e-20)
(1.2181 1.05034 -3.37576e-20)
(1.16533 1.02978 1.61355e-20)
(1.09484 0.996459 7.95103e-20)
(1.01916 0.961081 -1.34175e-19)
(0.936761 0.92235 9.62414e-23)
(0.846225 0.876729 -5.08176e-21)
(0.746512 0.818994 -5.43465e-21)
(0.651956 0.751697 6.85179e-19)
(0.57847 0.684576 0)
(0.525631 0.620587 5.10765e-19)
(0.484022 0.555634 3.56095e-19)
(0.434662 0.474766 8.60912e-19)
(0.351617 0.361486 2.55355e-19)
(0.23248 0.221704 -3.01933e-19)
(0.113389 0.0962744 -1.77307e-19)
(0.032596 0.0224974 0)
(-0.000569276 -0.000986208 4.89928e-19)
(0.238808 0.205921 -1.29516e-19)
(1.03417 0.893267 0)
(1.19927 1.05323 5.69632e-20)
(1.20595 1.08109 -3.24754e-20)
(1.15314 1.05969 -5.10702e-21)
(1.0828 1.0257 -9.0836e-20)
(1.00707 0.989803 2.63502e-19)
(0.924121 0.950617 -2.47495e-20)
(0.832336 0.904512 0)
(0.73028 0.846255 -6.76824e-19)
(0.632057 0.778133 -1.48826e-18)
(0.554144 0.708984 6.04083e-20)
(0.497013 0.641279 7.02297e-19)
(0.450726 0.569483 0)
(0.397255 0.47618 5.80097e-19)
(0.313872 0.345008 0)
(0.205032 0.190803 0)
(0.109828 0.0617227 -1.91931e-19)
(0.0594764 -0.000459504 0)
(0.0258991 0.00634081 1.31238e-19)
(0.239212 0.21335 -1.488e-19)
(1.02781 0.920047 0)
(1.18867 1.08224 9.9063e-20)
(1.19415 1.10993 0)
(1.14141 1.08784 -2.35635e-21)
(1.07125 1.05334 0)
(0.995566 1.01707 1.35933e-20)
(0.912126 0.977596 4.16674e-20)
(0.819192 0.931246 4.40909e-20)
(0.714884 0.872826 -7.42322e-19)
(0.613001 0.804482 4.47837e-20)
(0.530225 0.733913 4.84531e-19)
(0.467991 0.662777 6.84235e-19)
(0.415212 0.583957 9.20342e-20)
(0.354684 0.477235 4.53844e-19)
(0.267278 0.323326 0)
(0.166595 0.146442 6.36951e-19)
(0.0886396 0.00886532 -3.7306e-19)
(0.0326792 0.0573092 4.32046e-19)
(-0.0383247 0.451114 -5.14897e-19)
(0.239555 0.220607 1.25608e-19)
(1.02145 0.94546 1.88283e-19)
(1.17828 1.10966 0)
(1.18256 1.1373 5.39731e-21)
(1.12996 1.11481 1.71353e-20)
(1.05994 1.08008 1.20882e-19)
(0.984337 1.04367 9.28967e-20)
(0.900388 1.00424 0)
(0.806282 0.958042 2.94189e-19)
(0.699665 0.900013 -3.89652e-20)
(0.593887 0.832218 0)
(0.505531 0.761112 0)
(0.43694 0.686788 6.11301e-19)
(0.375547 0.600224 -2.83748e-19)
(0.304199 0.480502 -4.58393e-19)
(0.207821 0.301126 0)
(0.0937131 0.142946 3.20429e-19)
(0.00858916 0.46404 -3.71608e-19)
(0.0330738 1.9162 -2.088e-19)
(0.0599023 2.81926 -2.62677e-19)
(0.23952 0.227284 -9.70868e-20)
(1.01512 0.969677 -2.46855e-19)
(1.16811 1.13549 6.20028e-20)
(1.17121 1.16308 4.30901e-20)
(1.11887 1.14041 0)
(1.04897 1.10562 7.18503e-20)
(0.973589 1.06929 1.28985e-19)
(0.889085 1.0301 -2.02931e-20)
(0.793875 0.984374 4.37059e-20)
(0.685002 0.927202 7.07368e-19)
(0.57533 0.860655 7.50506e-19)
(0.481052 0.790282 5.40696e-19)
(0.404843 0.713107 6.13146e-19)
(0.333558 0.617068 -6.63204e-19)
(0.252668 0.488834 -6.89978e-19)
(0.133725 0.337875 0)
(0.0453774 0.868683 0)
(0.0927979 2.5735 1.786e-19)
(0.0949148 3.20641 0)
(0.0957552 3.38748 4.36814e-19)
(0.242197 0.233469 0)
(1.00907 0.993044 0)
(1.1579 1.15959 0)
(1.15988 1.18708 1.45834e-20)
(1.10785 1.1644 2.00226e-20)
(1.03812 1.12982 3.7695e-20)
(0.963246 1.09382 8.34925e-20)
(0.878151 1.05505 -1.98708e-20)
(0.781908 1.01007 3.68386e-19)
(0.670885 0.954229 -9.85251e-21)
(0.55742 0.889574 1.4816e-18)
(0.45722 0.82148 -6.20801e-20)
(0.371852 0.742254 7.43249e-20)
(0.291689 0.63224 9.57339e-20)
(0.191276 0.508213 -1.23006e-21)
(0.101545 1.00942 1.64145e-21)
(0.132368 2.74876 -9.27886e-19)
(0.137584 3.29914 -3.50942e-19)
(0.126708 3.42473 1.8457e-19)
(0.114623 3.44482 -2.06592e-19)
(0.16474 0.178417 5.93137e-20)
(0.999185 1.0184 0)
(1.1475 1.18224 -1.33801e-19)
(1.14892 1.20959 -1.26207e-19)
(1.09736 1.18728 7.24205e-20)
(1.02806 1.15314 -3.37713e-20)
(0.953141 1.11723 -8.671e-20)
(0.86765 1.07908 2.25715e-19)
(0.770516 1.03512 -3.02442e-19)
(0.657579 0.98113 0)
(0.540455 0.919005 7.28725e-19)
(0.434616 0.8545 -4.40184e-19)
(0.338469 0.777073 0)
(0.243664 0.650629 8.92434e-20)
(0.144702 0.827577 2.1698e-19)
(0.146577 2.54513 -2.52334e-19)
(0.197005 3.33102 2.85444e-19)
(0.177925 3.43832 1.56807e-19)
(0.146728 3.45673 1.78555e-19)
(0.126509 3.46512 2.91435e-19)
(0.277777 0.272636 -1.11971e-19)
(0.98262 1.02943 0)
(1.12927 1.2081 1.51008e-19)
(1.13422 1.24253 1.5155e-19)
(1.08068 1.22111 -9.68647e-20)
(1.01117 1.18777 7.35235e-21)
(0.935316 1.1535 8.74738e-20)
(0.849224 1.1166 1.75378e-20)
(0.750574 1.07462 2.90135e-19)
(0.634615 1.02424 6.1283e-19)
(0.512081 0.967686 4.128e-20)
(0.397173 0.910425 3.905e-19)
(0.28106 0.835787 6.96311e-20)
(0.210447 1.00325 -8.74333e-20)
(0.216219 2.41405 -1.99186e-19)
(0.267151 3.33885 1.9809e-19)
(0.250485 3.46789 -2.24466e-19)
(0.21547 3.48544 -1.31416e-19)
(0.181078 3.50888 -1.19405e-19)
(0.135847 3.50212 -1.39693e-20)
(0.268238 0.271751 0)
(0.980196 1.05276 4.7117e-20)
(1.1209 1.23176 -3.22838e-20)
(1.1237 1.26604 -1.92943e-20)
(1.07009 1.24456 -7.41602e-20)
(1.00087 1.21164 -9.72636e-22)
(0.92479 1.17774 -4.74781e-20)
(0.838495 1.14165 1.58293e-20)
(0.739277 1.10103 -3.03124e-19)
(0.621988 1.05331 -1.4572e-20)
(0.496766 1.00116 -1.31801e-18)
(0.377385 0.948737 5.55117e-20)
(0.270929 0.911737 -6.55669e-20)
(0.245546 1.57233 -8.11923e-20)
(0.305021 3.14384 1.74116e-20)
(0.32014 3.4722 1.97772e-21)
(0.278185 3.51884 3.46295e-19)
(0.243745 3.53965 1.79465e-19)
(0.197867 3.55857 -6.34867e-20)
(0.147746 3.55356 -7.34144e-20)
(0.254238 0.269927 1.22878e-19)
(0.976904 1.0787 3.24689e-19)
(1.11212 1.2575 -9.32946e-20)
(1.11272 1.29107 -7.30793e-20)
(1.0591 1.2695 0)
(0.990189 1.23682 3.34425e-20)
(0.914143 1.2033 -5.28203e-20)
(0.827893 1.16797 1.4008e-20)
(0.728416 1.12877 -3.35691e-20)
(0.61031 1.08393 -5.5667e-19)
(0.483249 1.03664 -6.09154e-19)
(0.359939 0.98985 -4.57316e-19)
(0.274082 1.05494 -4.95423e-19)
(0.307757 2.30479 5.06703e-19)
(0.383388 3.39966 4.35081e-19)
(0.357876 3.53089 0)
(0.309213 3.5649 0)
(0.272304 3.59704 -5.18184e-20)
(0.227042 3.64175 0)
(0.157869 3.62401 -8.41083e-20)
(0.244312 0.27199 -1.87817e-19)
(0.971651 1.10555 -2.80703e-19)
(1.10197 1.28451 0)
(1.10051 1.317 6.44885e-21)
(1.04691 1.29513 -9.37547e-20)
(0.978455 1.26261 7.50097e-20)
(0.902748 1.22948 -2.43423e-20)
(0.816766 1.19479 8.79051e-21)
(0.717284 1.15697 -2.17116e-19)
(0.598771 1.11498 2.81502e-20)
(0.470672 1.07271 0)
(0.348883 1.0363 0)
(0.300867 1.3368 -4.51832e-19)
(0.382857 2.96952 1.8302e-19)
(0.447528 3.50177 2.40715e-19)
(0.395516 3.56595 0)
(0.353548 3.6198 -4.13558e-20)
(0.311904 3.66394 2.69422e-21)
(0.26242 3.62803 -6.15314e-20)
(0.169772 3.60572 2.4405e-21)