/*--------------------------------*- C++ -*----------------------------------*\
  =========                 |
  \\      /  F ield         | OpenFOAM: The Open Source CFD Toolbox
   \\    /   O peration     | Website:  https://openfoam.org
    \\  /    A nd           | Version:  6
     \\/     M anipulation  |
\*---------------------------------------------------------------------------*/
FoamFile
{
    version     2.0;
    format      ascii;
    class       surfaceScalarField;
    location    "37.3";
    object      phi;
}
// * * * * * * * * * * * * * * * * * * * * * * * * * * * * * * * * * * * * * //

dimensions      [0 3 -1 0 0 0 0];

internalField   nonuniform List<scalar> 
17370
(
-0.0900015
0.0898505
0.289162
-0.0714643
0.0537542
0.364486
-0.0381209
0.0276913
0.426598
-0.0196374
0.0146016
0.504288
-0.0107557
0.00826172
0.601896
-0.00625985
0.00488545
0.720432
-0.00372971
0.00290036
0.863736
-0.00217194
0.00162266
1.036
-0.00111347
0.000704595
1.24291
-0.000298975
-9.14069e-05
1.49158
0.000467325
-0.000870658
1.49159
0.00126459
-0.00175565
1.24318
0.00229084
-0.00300794
1.03635
0.00383073
-0.00498114
0.864057
0.00635001
-0.00834437
0.721052
0.010831
-0.0146694
0.603053
0.0196991
-0.0277465
0.507487
0.0381702
-0.0537957
0.431794
0.0714976
-0.0898724
0.36515
0.090014
0.198997
-0.12813
0.0882151
0.0399146
-0.364592
0.353364
-0.0746862
0.0859136
-0.446473
0.454311
-0.0844155
0.0765779
-0.521185
0.529893
-0.0684839
0.0597764
-0.61278
0.621559
-0.0515899
0.0428111
-0.726884
0.73415
-0.0353513
0.0280859
-0.867469
0.872565
-0.0224954
0.0173999
-1.03847
1.0419
-0.013611
0.0101826
-1.2446
1.24702
-0.00758542
0.00516194
-1.49263
1.4946
-0.00322043
0.00125036
-1.4925
1.49422
0.000429185
-0.00214837
-1.24398
1.24587
0.00405142
-0.0059362
-1.03751
1.04005
0.00829723
-0.0108369
-0.866103
0.869846
0.0142065
-0.0179493
-0.724395
0.729949
0.0230025
-0.0285563
-0.608704
0.616124
0.0357798
-0.0431995
-0.514903
0.523053
0.0519345
-0.0600837
-0.439861
0.447926
0.0687531
-0.0768176
-0.375301
0.376753
0.0846235
-0.0860756
-0.25734
0.222501
0.0747967
-0.039958
-0.0684989
0.0586677
0.00983119
-0.0518467
0.0584427
-0.374107
0.367511
-0.0575359
0.0537903
-0.453581
0.457327
-0.0487034
0.0447532
-0.527929
0.531879
-0.0409146
0.0372781
-0.621542
0.625179
-0.0331828
0.0291213
-0.735326
0.739388
-0.0245768
0.0204448
-0.874311
0.878443
-0.016128
0.0124539
-1.04346
1.04713
-0.00873731
0.00558113
-1.24854
1.2517
-0.00227424
-0.000786468
-1.49666
1.49972
0.00382077
-0.00706942
-1.49722
1.50047
0.0101445
-0.0137571
-1.25008
1.25369
0.0173354
-0.0215523
-1.04594
1.05015
0.0256027
-0.0300661
-0.877782
0.882245
0.0340553
-0.0380709
-0.739929
0.743944
0.0416347
-0.0453957
-0.626803
0.630564
0.0492806
-0.0543062
-0.534835
0.53986
0.0579895
-0.0588178
-0.457498
0.458327
0.0521333
-0.031959
-0.335791
0.315616
0.00987872
-0.0683732
0.0584945
-0.0529097
0.048908
0.00400164
-0.0332064
0.0437715
-0.358058
0.347493
-0.047486
0.0468709
-0.45925
0.459865
-0.0438266
0.040484
-0.535763
0.539105
-0.0367229
0.0334314
-0.628481
0.631773
-0.0300129
0.0270063
-0.7426
0.745607
-0.0237804
0.0207013
-0.881966
0.885045
-0.0171974
0.0138396
-1.05071
1.05407
-0.0100732
0.00655601
-1.25511
1.25863
-0.00260971
-0.00117237
-1.5032
1.50698
0.00492731
-0.00879174
-1.50413
1.508
0.0121975
-0.0158189
-1.25746
1.26108
0.0190323
-0.0223806
-1.05397
1.05732
0.0253315
-0.0284335
-0.88575
0.888852
0.0313361
-0.0346432
-0.747217
0.750524
0.0378322
-0.0414837
-0.634365
0.638016
0.044733
-0.0476746
-0.544184
0.547126
0.0481847
-0.0443244
-0.456635
0.452774
0.0335883
-0.0161807
-0.296287
0.27888
0.00405966
-0.0526865
0.0486268
-0.045822
0.0433196
0.00250238
-0.0228585
0.0332646
-0.336777
0.326371
-0.0391095
0.04014
-0.459531
0.4585
-0.038959
0.0366747
-0.541805
0.544089
-0.0340082
0.031418
-0.634801
0.637391
-0.0283732
0.0255064
-0.748639
0.751506
-0.0222941
0.0193537
-0.887983
0.890923
-0.0161055
0.0130504
-1.05717
1.06023
-0.00956465
0.00618981
-1.26206
1.26544
-0.00225912
-0.00159724
-1.51085
1.51471
0.00542144
-0.00924883
-1.5119
1.51573
0.0124841
-0.0157791
-1.26452
1.26782
0.0186446
-0.0216855
-1.06042
1.06346
0.0244497
-0.0274903
-0.891919
0.89496
0.030214
-0.033108
-0.753753
0.756647
0.0355613
-0.0380823
-0.641111
0.643632
0.0402429
-0.0412665
-0.548959
0.549982
0.0400754
-0.0339996
-0.447536
0.44146
0.0233451
-0.0101842
-0.263713
0.250552
0.00257341
-0.0454792
0.0429058
-0.0412351
0.0394603
0.0017748
-0.0168028
0.0260866
-0.316482
0.307198
-0.0327269
0.0348947
-0.456869
0.454701
-0.0345004
0.0328538
-0.546039
0.547686
-0.0306988
0.0286313
-0.639663
0.641731
-0.0262376
0.0238819
-0.754128
0.756484
-0.0210728
0.018323
-0.8938
0.89655
-0.0151259
0.0120959
-1.06324
1.06627
-0.00865443
0.00537857
-1.26872
1.272
-0.00159561
-0.00210016
-1.51847
1.52216
0.00574911
-0.00939913
-1.51946
1.52311
0.012499
-0.0157039
-1.27109
1.27429
0.0184958
-0.0214256
-1.06651
1.06944
0.023945
-0.026525
-0.897795
0.900375
0.0286904
-0.0308892
-0.759118
0.761317
0.0327837
-0.034753
-0.645819
0.647788
0.0362224
-0.0364031
-0.550534
0.550715
0.0339917
-0.0270188
-0.434854
0.427881
0.0174047
-0.00733878
-0.239089
0.229023
0.00186087
-0.0407458
0.0388849
-0.0379289
0.0365912
0.00133774
-0.0128473
0.0208294
-0.298568
0.290586
-0.0276183
0.0305677
-0.452104
0.449155
-0.0307912
0.029687
-0.549075
0.550179
-0.027706
0.0258096
-0.643719
0.645616
-0.0236492
0.0215688
-0.75869
0.760771
-0.0191342
0.0167309
-0.899089
0.901492
-0.013875
0.0110701
-1.06916
1.07197
-0.00778101
0.00459398
-1.27521
1.2784
-0.00088863
-0.00271555
-1.52579
1.5294
0.00626407
-0.00980169
-1.52671
1.53025
0.0127588
-0.015743
-1.27743
1.28042
0.0182395
-0.0207474
-1.07219
1.0747
0.0228473
-0.0249802
-0.902692
0.904825
0.0268157
-0.0287311
-0.763323
0.765239
0.0304153
-0.0321806
-0.649632
0.651397
0.0330355
-0.0325167
-0.550556
0.550037
0.0292247
-0.0219859
-0.420723
0.413484
0.0135833
-0.00565561
-0.22013
0.212203
0.0014419
-0.0372615
0.0358196
-0.0354203
0.034387
0.0010333
-0.0100488
0.0167999
-0.283242
0.276491
-0.02333
0.0267476
-0.445945
0.442527
-0.0275721
0.0269085
-0.551051
0.551714
-0.0251866
0.0234422
-0.647476
0.649221
-0.0214297
0.019475
-0.762796
0.764751
-0.0171746
0.0149087
-0.903761
0.906027
-0.0122344
0.0096095
-1.07461
1.07723
-0.00652539
0.00351825
-1.28146
1.28447
7.5728e-07
-0.00342935
-1.53291
1.53634
0.00678933
-0.0101018
-1.53369
1.53701
0.0128295
-0.0155379
-1.28329
1.286
0.0177848
-0.0200349
-1.07707
1.07932
0.0219287
-0.0238581
-0.906821
0.90875
0.025508
-0.0272141
-0.767021
0.768727
0.028692
-0.0301122
-0.653034
0.654454
0.0304584
-0.0292285
-0.549184
0.547954
0.0253417
-0.0182236
-0.406282
0.399164
0.0109475
-0.00452807
-0.205101
0.198682
0.00115994
-0.034537
0.0333771
-0.0334788
0.0326729
0.000805915
-0.00796532
0.0136367
-0.270306
0.264635
-0.019674
0.0232851
-0.438992
0.435381
-0.0245916
0.0241891
-0.552259
0.552662
-0.0227582
0.0211466
-0.650931
0.652543
-0.0192501
0.0173985
-0.766674
0.768525
-0.0152102
0.0130535
-0.9082
0.910357
-0.0105166
0.00804003
-1.07972
1.08219
-0.00513669
0.00229343
-1.28734
1.29019
0.00104878
-0.00431585
-1.53966
1.54292
0.00749417
-0.010574
-1.54021
1.54329
0.0130696
-0.0155115
-1.28862
1.29106
0.0175251
-0.019534
-1.08149
1.0835
0.0212193
-0.022927
-0.91057
0.912278
0.0243848
-0.0258974
-0.770299
0.771812
0.0271904
-0.02826
-0.655664
0.656733
0.0282638
-0.0264018
-0.546414
0.544552
0.0221697
-0.0153819
-0.392211
0.385424
0.00906111
-0.00373159
-0.192861
0.187531
0.000959773
-0.032333
0.0313732
-0.0319649
0.0313354
0.000629444
-0.00635087
0.0110978
-0.259452
0.254705
-0.0165414
0.0201547
-0.43177
0.428156
-0.021783
0.0215946
-0.552995
0.553183
-0.0203745
0.0188037
-0.654181
0.655752
-0.0169676
0.0151915
-0.770342
0.772118
-0.0131088
0.0110603
-0.912374
0.914423
-0.00863911
0.00626366
-1.08453
1.08691
-0.00347992
0.000774828
-1.29291
1.29562
0.00236248
-0.00538763
-1.54605
1.54908
0.00831181
-0.0111395
-1.54625
1.54908
0.0134261
-0.0156473
-1.29342
1.29564
0.0174579
-0.0192387
-1.0854
1.08718
0.0207122
-0.0221968
-0.913864
0.915349
0.023476
-0.0248311
-0.773227
0.774582
0.0260079
-0.0267089
-0.657611
0.658312
0.0263637
-0.0240052
-0.542473
0.540115
0.019597
-0.0132205
-0.37886
0.372483
0.00767957
-0.00315475
-0.182647
0.178123
0.000814738
-0.0304996
0.0296849
-0.0307863
0.0303004
0.000485843
-0.00503811
0.00897704
-0.250387
0.246448
-0.0137703
0.017237
-0.424619
0.421153
-0.0190818
0.019139
-0.553285
0.553228
-0.0181828
0.0167084
-0.657341
0.658815
-0.0149311
0.013174
-0.773893
0.77565
-0.0110916
0.00904617
-0.916388
0.918433
-0.00665592
0.00434639
-1.08916
1.09147
-0.00167526
-0.000892622
-1.29819
1.30076
0.0038536
-0.0066909
-1.55196
1.5548
0.0093976
-0.0119682
-1.55178
1.55436
0.0140169
-0.016001
-1.29779
1.29977
0.0176159
-0.0192121
-1.0889
1.0905
0.0205436
-0.0218923
-0.916775
0.918124
0.0230415
-0.0242177
-0.775826
0.777002
0.0251793
-0.0254964
-0.658799
0.659116
0.0247855
-0.0220006
-0.537564
0.534779
0.0175244
-0.0115737
-0.366336
0.360386
0.00666216
-0.00273933
-0.173933
0.17001
0.000713461
-0.0289331
0.0282196
-0.0298849
0.0295217
0.000363182
-0.00392889
0.00715202
-0.242895
0.239672
-0.0112749
0.0144621
-0.417849
0.414662
-0.0163436
0.0165425
-0.553146
0.552947
-0.0156616
0.0142715
-0.660305
0.661695
-0.0125225
0.0107981
-0.777382
0.779106
-0.00876764
0.00678671
-0.920349
0.92233
-0.00447813
0.00225003
-1.09364
1.09587
0.000328874
-0.00280263
-1.30321
1.30568
0.00563723
-0.00831775
-1.55753
1.56021
0.0108423
-0.0132048
-1.55683
1.55919
0.0150476
-0.0167912
-1.30167
1.30341
0.0181829
-0.0195282
-1.09201
1.09335
0.0206275
-0.0217323
-0.919368
0.920472
0.0226865
-0.0236838
-0.77808
0.779077
0.0244213
-0.0245001
-0.659303
0.659382
0.0234175
-0.0203286
-0.531871
0.528782
0.0158735
-0.010323
-0.354669
0.349118
0.0059103
-0.00243748
-0.166348
0.162876
0.000640615
-0.0275586
0.026918
-0.0292215
0.0289677
0.000253759
-0.00294252
0.00550794
-0.236802
0.234237
-0.0089568
0.0117973
-0.411681
0.408841
-0.0136406
0.0139467
-0.552778
0.552472
-0.0131358
0.0118036
-0.663145
0.664477
-0.0100462
0.00830375
-0.780805
0.782548
-0.00626448
0.00428747
-0.924165
0.926142
-0.00199774
-0.0002006
-1.09796
1.10016
0.00272058
-0.00510969
-1.30804
1.31043
0.00779444
-0.0102777
-1.56275
1.56523
0.0125723
-0.0146887
-1.56144
1.56356
0.016307
-0.0177998
-1.30509
1.30659
0.0189621
-0.0200604
-1.09461
1.09571
0.0209488
-0.0218529
-0.921497
0.922401
0.0226535
-0.0234886
-0.779966
0.780801
0.0239872
-0.0237964
-0.659294
0.659103
0.0223706
-0.0190026
-0.52559
0.522222
0.0145862
-0.00938384
-0.34378
0.338578
0.00536371
-0.00222639
-0.159606
0.156468
0.000592904
-0.0263173
0.0257244
-0.0287753
0.0286299
0.000145431
-0.00200415
0.00393743
-0.232013
0.230079
-0.00668551
0.00908426
-0.406263
0.403864
-0.0107674
0.011119
-0.552233
0.551881
-0.0103954
0.0091463
-0.665861
0.66711
-0.00740771
0.00563568
-0.784259
0.786031
-0.00353705
0.00150577
-0.928003
0.930034
0.000824405
-0.00302766
-1.10224
1.10444
0.00551166
-0.00782521
-1.31269
1.31501
0.0103876
-0.0127214
-1.56757
1.56991
0.0148226
-0.0166839
-1.56553
1.5674
0.0180611
-0.0192995
-1.308
1.30924
0.0202545
-0.0211562
-1.09677
1.09767
0.0218789
-0.0225779
-0.923249
0.923948
0.023149
-0.0237148
-0.781501
0.782067
0.0238492
-0.0233652
-0.658692
0.658208
0.0215773
-0.0179574
-0.518774
0.515154
0.0135953
-0.00869091
-0.333574
0.328669
0.00497678
-0.00208596
-0.153494
0.150603
0.00056506
-0.0251648
0.0245998
-0.0285417
0.0285071
3.45068e-05
-0.00106701
0.0023699
-0.228484
0.227181
-0.00438693
0.00625975
-0.401778
0.399905
-0.00764317
0.00791414
-0.551683
0.551412
-0.00718154
0.00594131
-0.668451
0.669691
-0.00416775
0.00235227
-0.787756
0.789571
-0.000213751
-0.00183609
-0.931919
0.933969
0.0041672
-0.00635461
-1.1065
1.10869
0.00880264
-0.01106
-1.3172
1.31945
0.0135238
-0.0157107
-1.57212
1.57431
0.0176119
-0.0192174
-1.56912
1.57073
0.0203256
-0.0212432
-1.31039
1.31131
0.0218881
-0.0224529
-1.09845
1.09902
0.0228788
-0.0232938
-0.924545
0.92496
0.0236658
-0.0240435
-0.782513
0.782891
0.0238964
-0.0230515
-0.657401
0.656556
0.0209371
-0.0171365
-0.511518
0.507717
0.0128451
-0.00818913
-0.323961
0.319305
0.00471034
-0.00199683
-0.14785
0.145136
0.000549812
-0.0240655
0.0235157
-0.0285288
0.0286042
-7.53875e-05
-9.50973e-05
0.000763179
-0.226216
0.225548
-0.00203291
0.00333664
-0.398379
0.397076
-0.00434689
0.00446257
-0.551386
0.551271
-0.00364805
0.0023322
-0.671096
0.672412
-0.000473809
-0.00141041
-0.791325
0.793209
0.00360268
-0.00569096
-0.935843
0.937931
0.00806598
-0.0102933
-1.11074
1.11297
0.0127699
-0.01501
-1.32159
1.32383
0.0173742
-0.0193852
-1.57633
1.57834
0.0210409
-0.0223661
-1.57217
1.57349
0.0232073
-0.0238215
-1.31213
1.31275
0.0241865
-0.02442
-1.09947
1.09971
0.0245332
-0.0246315
-0.925279
0.925377
0.0247606
-0.0248258
-0.783033
0.783098
0.0244417
-0.0232013
-0.655379
0.654138
0.0207341
-0.0167004
-0.50393
0.499896
0.0124171
-0.00792095
-0.31482
0.310323
0.00459131
-0.00197491
-0.142528
0.139911
0.000554569
-0.0229899
0.0224353
-0.0287451
0.0289611
-0.000216006
0.000911134
-0.000949924
-0.225239
0.225278
0.000504467
0.000142725
-0.396164
0.395516
-0.000690332
0.000615279
-0.551453
0.551529
0.000245446
-0.00158919
-0.673888
0.675231
0.00350706
-0.0055058
-0.795023
0.797022
0.00787042
-0.0101274
-0.939888
0.942145
0.0126643
-0.0149948
-1.11508
1.11741
0.0175214
-0.0197595
-1.32596
1.32819
0.022059
-0.0239272
-1.58021
1.58208
0.0253699
-0.0263863
-1.57466
1.57567
0.0268994
-0.02714
-1.31324
1.31348
0.0271746
-0.0270842
-1.09982
1.09973
0.0269203
-0.026708
-0.925359
0.925147
0.0265111
-0.0261775
-0.782812
0.782479
0.0254453
-0.0236649
-0.652613
0.650833
0.0207907
-0.016517
-0.495895
0.491621
0.0122259
-0.00783214
-0.30599
0.301596
0.00458417
-0.00200194
-0.137377
0.134794
0.00057288
-0.0219005
0.0213276
-0.0292424
0.0295908
-0.000348423
0.00201987
-0.00275139
-0.225615
0.226347
0.00321969
-0.00335519
-0.395317
0.395452
0.00345252
-0.0038768
-0.55204
0.552464
0.00488948
-0.00635653
-0.676787
0.678254
0.0084226
-0.0105815
-0.798957
0.801116
0.0131334
-0.01555
-0.944261
0.946678
0.0182436
-0.0206915
-1.11962
1.12207
0.0233084
-0.025564
-1.33031
1.33256
0.0278011
-0.0295125
-1.58377
1.58548
0.0306944
-0.0313542
-1.57647
1.57713
0.031532
-0.0313718
-1.31358
1.31342
0.0310322
-0.0305316
-1.09947
1.09897
0.0300099
-0.0294146
-0.924737
0.924141
0.0288605
-0.0280766
-0.78173
0.780946
0.0268558
-0.0245036
-0.648835
0.646483
0.0212419
-0.0167213
-0.487434
0.482913
0.0123563
-0.00796013
-0.297342
0.292946
0.00470368
-0.0020807
-0.132271
0.129648
0.000603959
-0.0207723
0.0201684
-0.0300296
0.0305613
-0.000531744
0.00328766
-0.0047889
-0.227485
0.228986
0.00617524
-0.00714874
-0.396015
0.396989
0.0080073
-0.00892039
-0.553462
0.554375
0.0102686
-0.0119864
-0.68003
0.681747
0.0143056
-0.0166762
-0.803198
0.805568
0.0194428
-0.0220479
-0.948911
0.951517
0.0249412
-0.0275551
-1.12438
1.12699
0.0303126
-0.0326342
-1.3347
1.33703
0.0348311
-0.0363802
-1.58703
1.58857
0.0372855
-0.0375591
-1.57756
1.57783
0.037353
-0.0367343
-1.31305
1.31243
0.0359366
-0.0349396
-1.0982
1.09721
0.0339794
-0.0329327
-0.923261
0.922215
0.0320218
-0.0307185
-0.77969
0.778387
0.0290084
-0.0261001
-0.644025
0.641116
0.0223763
-0.0174832
-0.478468
0.473575
0.0129183
-0.00837874
-0.288648
0.284108
0.00499351
-0.00222755
-0.12705
0.124284
0.000650863
-0.0195795
0.0189286
-0.0311908
0.0319454
-0.00075459
0.00477518
-0.00714397
-0.23094
0.233309
0.00955751
-0.0114142
-0.398392
0.400248
0.0130897
-0.0145381
-0.555953
0.557402
0.0162912
-0.0183166
-0.683829
0.685855
0.0209781
-0.0236772
-0.807887
0.810586
0.0268149
-0.029753
-0.953986
0.956924
0.0329895
-0.0358774
-1.1295
1.13239
0.0388607
-0.0412882
-1.33922
1.34165
0.0434555
-0.0448213
-1.58991
1.59127
0.0454031
-0.0452488
-1.57783
1.57768
0.0445787
-0.0434627
-1.31156
1.31044
0.0422073
-0.0406975
-1.09589
1.09438
0.0392662
-0.0377178
-0.92081
0.919261
0.0363712
-0.0345019
-0.776604
0.774735
0.0322243
-0.0286323
-0.638108
0.634516
0.0243414
-0.0189636
-0.468758
0.46338
0.0140624
-0.00919328
-0.279616
0.274747
0.00551276
-0.00246427
-0.121495
0.118446
0.000717712
-0.0182895
0.0175718
-0.0327932
0.0338278
-0.00103457
0.00654727
-0.00990995
-0.236144
0.239507
0.0134944
-0.0163565
-0.402672
0.405534
0.0189665
-0.0210574
-0.559665
0.561756
0.0233258
-0.025754
-0.688314
0.690743
0.02888
-0.0320303
-0.81324
0.816391
0.0356759
-0.0390613
-0.959753
0.963138
0.0427435
-0.0459687
-1.13518
1.1384
0.0492303
-0.0518073
-1.34395
1.34653
0.0540037
-0.0552172
-1.59245
1.59366
0.0554824
-0.0548345
-1.57722
1.57657
0.0536411
-0.0519177
-1.30896
1.30723
0.0501291
-0.0480604
-1.09246
1.09039
0.0461424
-0.0440652
-0.917259
0.915181
0.0421428
-0.0396461
-0.772381
0.769884
0.0366983
-0.0323584
-0.630862
0.626522
0.0274266
-0.0214145
-0.458093
0.452081
0.0159656
-0.0105012
-0.269846
0.264382
0.00631271
-0.00281502
-0.115312
0.111814
0.000813758
-0.0168584
0.0160447
-0.0349377
0.036348
-0.00141026
0.00882819
-0.0133928
-0.243313
0.247877
0.0183299
-0.0223409
-0.409142
0.413152
0.0260363
-0.0289655
-0.564928
0.567858
0.0320119
-0.0350936
-0.693764
0.696846
0.0389247
-0.0427059
-0.819526
0.823307
0.0470118
-0.0509447
-0.966435
0.970368
0.0551425
-0.0587352
-1.14153
1.14513
0.0622511
-0.0648981
-1.34893
1.35158
0.0669601
-0.0678332
-1.59457
1.59544
0.067583
-0.0662824
-1.57552
1.57422
0.0644628
-0.0620335
-1.30508
1.30265
0.0596164
-0.0569105
-1.08781
1.0851
0.0544797
-0.0518723
-0.912525
0.909917
0.049388
-0.0462059
-0.766908
0.763726
0.0425795
-0.0374428
-0.622166
0.617029
0.0317403
-0.0248519
-0.446151
0.439262
0.0185837
-0.0122401
-0.258802
0.252458
0.0073447
-0.00325618
-0.10818
0.104092
0.000932236
-0.0152306
0.0142983
-0.0378023
0.0397549
-0.00195265
0.012002
-0.0181135
-0.252831
0.258943
0.0246527
-0.0299605
-0.418196
0.423504
0.0348783
-0.0388473
-0.572239
0.576208
0.0429321
-0.0469521
-0.700708
0.704728
0.0517924
-0.0564024
-0.827104
0.831714
0.06151
-0.0660676
-0.974215
0.978772
0.0708129
-0.0747552
-1.14858
1.15253
0.078452
-0.0810477
-1.35396
1.35656
0.0827795
-0.0831058
-1.59588
1.5962
0.0821368
-0.0799987
-1.57241
1.57027
0.0774139
-0.0741788
-1.29972
1.29649
0.071057
-0.0676275
-1.08178
1.07835
0.0645899
-0.0614164
-0.906622
0.903449
0.0583643
-0.0545553
-0.760059
0.75625
0.0501722
-0.0440439
-0.61184
0.605712
0.0373062
-0.0292016
-0.43241
0.424305
0.0218091
-0.0143108
-0.245939
0.238441
0.00853855
-0.0037548
-0.0998422
0.0950585
0.00106448
-0.0133655
0.012301
-0.0416943
0.0444898
-0.0027955
0.0166969
-0.0248714
-0.265372
0.273546
0.0333816
-0.0402229
-0.430399
0.43724
0.046578
-0.0517617
-0.582043
0.587227
0.0571332
-0.0623666
-0.709663
0.714896
0.068372
-0.0739097
-0.836317
0.841855
0.0798926
-0.0850938
-0.98323
0.988431
0.0903541
-0.0945588
-1.15627
1.16047
0.0982995
-0.100695
-1.35879
1.36118
0.101938
-0.101551
-1.59596
1.59558
0.0997225
-0.0965942
-1.5675
1.56437
0.0931037
-0.0889087
-1.29264
1.28845
0.0849774
-0.0807507
-1.07425
1.07003
0.0770702
-0.0732266
-0.899417
0.895574
0.069489
-0.0648371
-0.751811
0.747159
0.0594397
-0.0519761
-0.5994
0.591937
0.0438957
-0.0342478
-0.416206
0.406558
0.0254455
-0.016552
-0.230766
0.221873
0.00978003
-0.00425112
-0.0901329
0.084604
0.00118964
-0.0112475
0.0100579
-0.0471692
0.0514124
-0.0042432
0.0241292
-0.0351615
-0.282085
0.293118
0.0462759
-0.0552111
-0.446738
0.455673
0.0632942
-0.0698657
-0.594756
0.601328
0.0767396
-0.0832853
-0.720956
0.727502
0.0905182
-0.0969599
-0.847327
0.853769
0.103689
-0.10935
-0.993452
0.999114
0.114866
-0.119073
-1.16434
1.16855
0.122547
-0.124471
-1.36306
1.36499
0.124937
-0.123621
-1.59451
1.5932
0.120738
-0.116462
-1.56052
1.55625
0.11197
-0.106727
-1.28356
1.27832
0.101869
-0.096654
-1.06495
1.05974
0.0921116
-0.087346
-0.890582
0.885816
0.0827556
-0.0769219
-0.741566
0.735732
0.0701817
-0.0610659
-0.584155
0.575039
0.051364
-0.039847
-0.39689
0.385373
0.0293415
-0.0188414
-0.21288
0.20238
0.0109807
-0.00469591
-0.0790094
0.0727246
0.00128882
-0.00890156
0.00761274
-0.0553003
0.0625826
-0.00728227
0.0374403
-0.0528422
-0.305144
0.320546
0.0677479
-0.0794963
-0.468724
0.480473
0.0894527
-0.097411
-0.610741
0.6187
0.105846
-0.11362
-0.734605
0.742379
0.121745
-0.128599
-0.859883
0.866737
0.135474
-0.141024
-1.00434
1.00989
0.146167
-0.149763
-1.17212
1.17572
0.152319
-0.153131
-1.36608
1.3669
0.152156
-0.149291
-1.59091
1.58804
0.144783
-0.138879
-1.55104
1.54513
0.133029
-0.12648
-1.27228
1.26573
0.120568
-0.114329
-1.05359
1.04735
0.108908
-0.103125
-0.879623
0.87384
0.0975647
-0.0904709
-0.728643
0.721549
0.0823627
-0.0713715
-0.565463
0.554472
0.0596077
-0.0457607
-0.373689
0.359842
0.0333326
-0.0211293
-0.191991
0.179787
0.0121217
-0.00507396
-0.0665675
0.0595198
0.00134703
-0.00639107
0.00504403
-0.069444
0.0734222
-0.00397827
0.0281753
-0.041584
-0.338582
0.351991
0.0549691
-0.0657058
-0.497631
0.508368
0.0753498
-0.0844912
-0.63
0.639142
0.0949268
-0.104242
-0.749646
0.758961
0.114571
-0.123728
-0.872648
0.881806
0.133418
-0.141906
-1.01451
1.023
0.150562
-0.15769
-1.17819
1.18532
0.164332
-0.169022
-1.36643
1.37112
0.172211
-0.172825
-1.58378
1.58439
0.170767
-0.166528
-1.53796
1.53372
0.161258
-0.154533
-1.25819
1.25146
0.148164
-0.140703
-1.04009
1.03263
0.134241
-0.127314
-0.866433
0.859506
0.120647
-0.111623
-0.712979
0.703955
0.10002
-0.0844433
-0.542573
0.526996
0.068341
-0.0500864
-0.345632
0.327377
0.034776
-0.0207753
-0.167975
0.153975
0.0111443
-0.00429409
-0.0531132
0.046263
0.000978936
-0.00381699
0.00283805
-0.0807302
0.078604
0.00212625
0.0066484
-0.0150577
-0.368182
0.376592
0.0251411
-0.032992
-0.523631
0.531481
0.0409353
-0.0488519
-0.650899
0.658816
0.0584976
-0.0673701
-0.767956
0.776828
0.0767968
-0.0853473
-0.890483
0.899033
0.0943218
-0.101802
-1.0312
1.03868
0.109573
-0.115589
-1.19219
1.19821
0.12109
-0.124623
-1.37537
1.3789
0.126339
-0.12575
-1.58395
1.58336
0.122654
-0.11748
-1.52848
1.52331
0.111248
-0.103556
-1.24403
1.23634
0.0962481
-0.0880962
-1.02448
1.01633
0.0805896
-0.0721303
-0.850342
0.841883
0.0640246
-0.0547067
-0.690234
0.680916
0.0447914
-0.0331012
-0.50877
0.49708
0.022855
-0.0137612
-0.30858
0.299486
0.00776566
-0.00355056
-0.140431
0.136216
0.00126208
-0.000161631
-0.0397306
0.0386301
-0.000126834
-0.00155591
0.00168274
-0.0817758
0.0788465
0.00292927
-0.0020817
-0.00248124
-0.387992
0.392555
0.00895691
-0.0148373
-0.543081
0.548961
0.0210411
-0.0279567
-0.668957
0.675873
0.0364283
-0.044227
-0.784859
0.792657
0.0527037
-0.0601999
-0.906864
0.91436
0.0677902
-0.074472
-1.04597
1.05265
0.0812353
-0.0865885
-1.20379
1.20914
0.091116
-0.0939128
-1.38183
1.38462
0.0953541
-0.0945875
-1.58228
1.58151
0.0915568
-0.0866697
-1.51786
1.51298
0.0808558
-0.0737589
-1.22881
1.22172
0.0663636
-0.0578294
-1.00755
0.99902
0.0493154
-0.0392146
-0.831623
0.821522
0.0297582
-0.0196924
-0.66699
0.656925
0.0111253
-0.00285855
-0.483173
0.474906
-0.00226102
0.00494246
-0.289173
0.286491
-0.00550314
0.00472649
-0.130591
0.131368
-0.00340617
0.0017905
-0.036859
0.0384747
-0.000647152
-0.00124565
0.0018928
-0.080389
0.077544
0.00284501
-0.00570353
0.00365065
-0.400837
0.40289
0.000346292
-0.00476627
-0.557806
0.562226
0.0101185
-0.0159657
-0.683979
0.689826
0.0232728
-0.030035
-0.799905
0.806667
0.0373311
-0.0437801
-0.921347
0.927796
0.0506913
-0.0564161
-1.0589
1.06463
0.0624429
-0.0668443
-1.21415
1.21855
0.070972
-0.0735888
-1.38736
1.38997
0.0748898
-0.0740402
-1.58064
1.57979
0.0714567
-0.0670908
-1.50791
1.50355
0.0616513
-0.0544582
-1.21453
1.20733
0.0471146
-0.0383243
-0.989773
0.980983
0.0292197
-0.0188417
-0.810014
0.799636
0.00913319
0.000252434
-0.643643
0.634257
-0.00718914
0.0120666
-0.464745
0.459867
-0.0138098
0.0130591
-0.280816
0.281567
-0.0111116
0.00810169
-0.130661
0.133671
-0.00537537
0.00258756
-0.0391986
0.0419864
-0.000832075
-0.00195004
0.00278211
-0.0787732
0.0762988
0.00247437
-0.00675506
0.00625468
-0.40923
0.40973
-0.00338669
0.000161844
-0.569573
0.572797
0.00412145
-0.00937488
-0.696643
0.701897
0.0154957
-0.0214386
-0.812774
0.818717
0.0277683
-0.0334071
-0.933824
0.939463
0.0394257
-0.0446531
-1.07026
1.07549
0.0499484
-0.0542253
-1.22291
1.22719
0.0580643
-0.0605421
-1.3924
1.39488
0.0618031
-0.0609964
-1.57895
1.57815
0.0584814
-0.0539863
-1.49858
1.49409
0.0485868
-0.041547
-1.20001
1.19297
0.0342367
-0.0254112
-0.971593
0.962767
0.016788
-0.00718091
-0.788448
0.778841
-0.00116528
0.00886351
-0.623238
0.61554
-0.0139041
0.0170088
-0.452319
0.449215
-0.0175898
0.0156271
-0.278391
0.280354
-0.0126541
0.0090562
-0.134894
0.138492
-0.00587139
0.00273761
-0.0438
0.0469338
-0.0008508
-0.00316393
0.00401473
-0.0773343
0.0752506
0.00208367
-0.0065158
0.00646845
-0.414798
0.414845
-0.00494761
0.00239535
-0.578515
0.581067
0.00167588
-0.0060949
-0.707286
0.711705
0.0112861
-0.0164041
-0.823886
0.829004
0.022025
-0.0271188
-0.94479
0.949884
0.0327503
-0.037497
-1.08051
1.08526
0.0424853
-0.0465681
-1.23129
1.23538
0.0502135
-0.0525673
-1.3972
1.39955
0.0537047
-0.0531704
-1.57729
1.57675
0.0505468
-0.0461533
-1.48908
1.48469
0.0407751
-0.0338819
-1.18564
1.17875
0.0271119
-0.0188115
-0.953779
0.945478
0.011042
-0.00280908
-0.769049
0.760816
-0.00422125
0.0106135
-0.606751
0.600359
-0.0146744
0.0169763
-0.443525
0.441224
-0.017005
0.0150163
-0.278438
0.280427
-0.0122289
0.00870214
-0.14022
0.143747
-0.00555692
0.00261141
-0.0488628
0.0518083
-0.000813182
-0.00442017
0.00523335
-0.076297
0.0747075
0.00158951
-0.00544849
0.00565579
-0.418833
0.418626
-0.00442766
0.00262559
-0.586185
0.587987
0.00105461
-0.00495176
-0.716336
0.720233
0.00977616
-0.0141372
-0.833739
0.8381
0.0190841
-0.0236693
-0.954987
0.959572
0.0291358
-0.0336002
-1.0901
1.09457
0.0382398
-0.0422734
-1.23937
1.2434
0.0461974
-0.0484823
-1.40198
1.40426
0.0496974
-0.0490593
-1.5758
1.57517
0.0467534
-0.0422398
-1.48
1.47549
0.0372603
-0.0309622
-1.17169
1.16539
0.0246763
-0.0174833
-0.937351
0.930158
0.010732
-0.0036197
-0.752391
0.745278
-0.00197872
0.00732204
-0.59301
0.587667
-0.0108522
0.0127856
-0.436431
0.434497
-0.0130679
0.011792
-0.279135
0.280411
-0.00959803
0.00678824
-0.145164
0.147973
-0.00431467
0.002047
-0.0533353
0.055603
-0.000655349
-0.00555378
0.00620913
-0.0758264
0.0746165
0.00120989
-0.00416945
0.00441697
-0.422035
0.421788
-0.00323382
0.00152515
-0.592704
0.594413
0.00179972
-0.00519796
-0.72426
0.727658
0.00924458
-0.0134062
-0.842426
0.846588
0.0179924
-0.02277
-0.964007
0.968784
0.0276008
-0.031972
-1.09919
1.10357
0.0368367
-0.040716
-1.24737
1.25125
0.0442219
-0.0469157
-1.40648
1.40917
0.0482681
-0.0478525
-1.57455
1.57413
0.0456417
-0.0416806
-1.47111
1.46715
0.0371029
-0.0313438
-1.15883
1.15307
0.0257759
-0.0194315
-0.922994
0.916649
0.0136029
-0.00766892
-0.738285
0.732351
0.00261655
0.00195031
-0.581521
0.576954
-0.00501619
0.00703448
-0.430146
0.428128
-0.00766927
0.00698219
-0.278885
0.279572
-0.00573203
0.00400415
-0.148428
0.150156
-0.00254584
0.00122338
-0.0563834
0.0577058
-0.000413732
-0.00635565
0.00676938
-0.0759501
0.0749619
0.000988241
-0.00269938
0.00260273
-0.425016
0.425113
-0.0015356
-0.00021598
-0.59862
0.600371
0.00318459
-0.00641277
-0.731464
0.734692
0.0102408
-0.0139861
-0.85057
0.854315
0.0187046
-0.0227361
-0.973026
0.977057
0.027594
-0.0318481
-1.10814
1.11239
0.0366443
-0.0407322
-1.25514
1.25923
0.044525
-0.0469821
-1.41163
1.41409
0.0486187
-0.0485302
-1.5736
1.57351
0.046914
-0.0432659
-1.46305
1.4594
0.0391859
-0.0339877
-1.14744
1.14225
0.0290371
-0.0233353
-0.910202
0.9045
0.0182677
-0.0128932
-0.726178
0.720803
0.00836663
-0.00409209
-0.571569
0.567294
0.000969942
0.00110243
-0.424007
0.421934
-0.00213267
0.0022241
-0.277438
0.277346
-0.00201717
0.00143484
-0.149627
0.150209
-0.00095332
0.000530227
-0.0576428
0.0580659
-0.00021261
-0.00672795
0.00694056
-0.0764115
0.0757452
0.000666321
-0.00141158
0.000774201
-0.428274
0.428911
0.000169221
-0.00209153
-0.603832
0.605754
0.00476833
-0.00787858
-0.738079
0.741189
0.0115291
-0.0154044
-0.857961
0.861836
0.0195333
-0.0237547
-0.981332
0.985553
0.0286054
-0.0326714
-1.1171
1.12116
0.037571
-0.0416108
-1.26314
1.26718
0.04543
-0.0483751
-1.41694
1.41989
0.0504441
-0.0505992
-1.57343
1.57359
0.0491969
-0.0462686
-1.4559
1.45297
0.0427763
-0.0380443
-1.13694
1.13221
0.033477
-0.0284953
-0.89877
0.893788
0.023574
-0.0188259
-0.715171
0.710422
0.0146615
-0.0105381
-0.562537
0.558414
0.00754106
-0.00501857
-0.417714
0.415192
0.0034623
-0.00237674
-0.274747
0.273662
0.00163055
-0.00094941
-0.148715
0.148034
0.000369031
2.40885e-05
-0.057221
0.0568278
-0.000111293
-0.00664516
0.00675645
-0.0773114
0.0768125
0.00049891
-0.000348704
-0.000303943
-0.431927
0.43258
0.0018871
-0.00371248
-0.609222
0.611047
0.00661339
-0.00962896
-0.744213
0.747228
0.0131486
-0.0166485
-0.86543
0.86893
0.020926
-0.0248574
-0.989806
0.993737
0.0296684
-0.0341689
-1.1257
1.1302
0.0386997
-0.043038
-1.27127
1.2756
0.0472403
-0.0502408
-1.42272
1.42572
0.0526388
-0.0535323
-1.57394
1.57483
0.0525671
-0.0502607
-1.4499
1.44759
0.0470071
-0.0427798
-1.12751
1.12328
0.0386897
-0.0339765
-0.888422
0.883709
0.0295241
-0.0249916
-0.705153
0.700621
0.0210113
-0.0168757
-0.553721
0.549586
0.0136282
-0.01075
-0.411053
0.408175
0.00843631
-0.00642896
-0.270312
0.268305
0.00468387
-0.00292725
-0.145604
0.143848
0.0015527
-0.000499796
-0.0552587
0.0542058
3.53066e-05
-0.00624872
0.00621341
-0.0785035
0.0781853
0.000318186
0.000760487
-0.00166496
-0.435857
0.436762
0.00319446
-0.00536832
-0.614346
0.61652
0.00827188
-0.0111852
-0.750176
0.753089
0.0148284
-0.0182136
-0.872453
0.875838
0.0223618
-0.0264254
-0.998167
1.00223
0.0311448
-0.035597
-1.13456
1.13901
0.0403199
-0.0446552
-1.27986
1.2842
0.0490009
-0.0527054
-1.42899
1.4327
0.0555089
-0.0566816
-1.57565
1.57682
0.0563849
-0.0544039
-1.44516
1.44318
0.0517071
-0.0480219
-1.11897
1.11528
0.0440252
-0.0395692
-0.878703
0.874247
0.0353337
-0.0308145
-0.695673
0.691154
0.026968
-0.0227206
-0.545157
0.54091
0.0192775
-0.015779
-0.40376
0.400261
0.0129029
-0.0099982
-0.264194
0.261289
0.00727984
-0.00461597
-0.140498
0.137835
0.00255588
-0.00095025
-0.0520724
0.0504668
0.000167383
-0.00562305
0.00545567
-0.0799261
0.0797267
0.000199417
0.00160437