/*--------------------------------*- C++ -*----------------------------------*\
  =========                 |
  \\      /  F ield         | OpenFOAM: The Open Source CFD Toolbox
   \\    /   O peration     | Website:  https://openfoam.org
    \\  /    A nd           | Version:  6
     \\/     M anipulation  |
\*---------------------------------------------------------------------------*/
FoamFile
{
    version     2.0;
    format      ascii;
    class       volScalarField;
    location    "117";
    object      p;
}
// * * * * * * * * * * * * * * * * * * * * * * * * * * * * * * * * * * * * * //

dimensions      [0 2 -2 0 0 0 0];

internalField   nonuniform List<scalar> 
8800
(
1.22816
1.17885
1.14088
1.11282
1.09267
1.07809
1.06751
1.05999
1.05513
1.0531
1.05452
1.05889
1.06571
1.07516
1.08791
1.10524
1.12913
1.16223
1.20517
1.25768
1.06265
1.06899
1.07815
1.0817
1.0791
1.07302
1.06609
1.05987
1.05509
1.05226
1.05207
1.05474
1.05941
1.06557
1.07268
1.07973
1.08462
1.0845
1.07784
1.06894
1.03614
1.04238
1.04689
1.05076
1.05372
1.05468
1.05361
1.05152
1.04957
1.04877
1.04985
1.05235
1.05527
1.05756
1.0581
1.05633
1.05297
1.04897
1.04419
1.04048
1.03181
1.03458
1.03719
1.03936
1.04111
1.04269
1.04382
1.0442
1.04412
1.04427
1.04513
1.04632
1.0471
1.04698
1.04603
1.0447
1.04304
1.04075
1.03834
1.03678
1.02672
1.02815
1.02999
1.03208
1.03381
1.03512
1.03625
1.03726
1.03811
1.03891
1.03969
1.0402
1.04028
1.03995
1.03931
1.03822
1.03658
1.0347
1.03335
1.03255
1.02168
1.02258
1.02384
1.02548
1.02719
1.02874
1.03006
1.03122
1.03234
1.03343
1.0343
1.03476
1.03482
1.0345
1.03374
1.03258
1.03124
1.02999
1.02918
1.02866
1.01671
1.01736
1.01833
1.01967
1.02114
1.02268
1.0242
1.02562
1.02695
1.02824
1.02929
1.02987
1.02996
1.02958
1.02885
1.02795
1.02698
1.0261
1.02553
1.02515
1.0118
1.01231
1.0131
1.01426
1.01559
1.01704
1.01859
1.0202
1.02179
1.02335
1.02463
1.02535
1.02552
1.02527
1.02477
1.02413
1.02343
1.02279
1.02238
1.02208
1.0069
1.0073
1.00797
1.00902
1.01028
1.01169
1.01325
1.01496
1.01679
1.01867
1.02023
1.02117
1.02157
1.02157
1.02133
1.02092
1.02044
1.02001
1.0197
1.01946
1.00192
1.00225
1.00283
1.0038
1.00503
1.00644
1.00805
1.00988
1.01194
1.01415
1.01609
1.01738
1.01809
1.01839
1.01841
1.01826
1.01799
1.01773
1.01751
1.0173
0.99677
0.997041
0.997569
0.998499
0.999718
1.00117
1.00287
1.00488
1.0072
1.00981
1.01221
1.01395
1.01505
1.01569
1.016
1.0161
1.01605
1.01594
1.01579
1.01561
0.991355
0.991583
0.992074
0.992995
0.99425
0.995784
0.997631
0.999863
1.00253
1.00562
1.0086
1.01087
1.01243
1.01346
1.0141
1.01446
1.01464
1.01467
1.01458
1.01442
0.985574
0.985768
0.986242
0.987184
0.988515
0.99018
0.992228
0.994759
0.997858
1.00155
1.00523
1.00813
1.01023
1.0117
1.01272
1.0134
1.01381
1.01398
1.01394
1.01379
0.979316
0.979481
0.979956
0.980947
0.982396
0.984247
0.986563
0.989481
0.993122
0.997557
1.00206
1.00572
1.00846
1.01046
1.01191
1.01294
1.01361
1.01392
1.01392
1.01377
0.972447
0.97259
0.97308
0.974149
0.975762
0.977859
0.980524
0.98393
0.988243
0.993577
0.999094
1.00366
1.00716
1.00978
1.01173
1.01316
1.01412
1.01457
1.0146
1.01446
0.964815
0.964936
0.965453
0.966631
0.968459
0.970873
0.97398
0.977996
0.983136
0.989564
0.996294
1.00194
1.00633
1.00969
1.01223
1.01414
1.01542
1.01602
1.01609
1.01594
0.956214
0.956317
0.95687
0.958192
0.960299
0.963115
0.966776
0.971549
0.977705
0.985461
0.993644
1.00058
1.00602
1.01024
1.01351
1.01596
1.01761
1.01836
1.01846
1.01831
0.946356
0.946457
0.947079
0.948582
0.951047
0.954369
0.958724
0.964437
0.971842
0.981207
0.991126
0.999582
1.00627
1.0115
1.01561
1.01871
1.02077
1.02168
1.02181
1.02164
0.93495
0.935028
0.935742
0.937496
0.940405
0.944367
0.949596
0.956483
0.965426
0.976741
0.988727
0.998964
1.00711
1.01353
1.01861
1.02246
1.02498
1.02604
1.02619
1.02601
0.921545
0.921611
0.922436
0.924507
0.927985
0.93277
0.939111
0.947476
0.958324
0.972001
0.986435
0.998747
1.00856
1.01637
1.02257
1.02728
1.03027
1.03148
1.03163
1.03143
0.90553
0.905587
0.906567
0.909064
0.91329
0.919149
0.926932
0.937183
0.950406
0.966945
0.984254
0.998952
1.01068
1.02005
1.02752
1.03317
1.03664
1.03796
1.0381
1.03788
0.886046
0.886099
0.887306
0.890404
0.895653
0.902962
0.912661
0.92536
0.941567
0.961561
0.98221
0.999603
1.01346
1.02457
1.03343
1.04009
1.044
1.04537
1.04546
1.04523
0.861827
0.861886
0.863453
0.867454
0.874179
0.883526
0.895855
0.911793
0.93176
0.955891
0.980362
1.00074
1.01692
1.02993
1.04027
1.04791
1.05214
1.05347
1.05351
1.05326
0.830892
0.830982
0.833174
0.838652
0.847696
0.860057
0.876118
0.896373
0.921049
0.95006
0.978809
1.00242
1.02107
1.03605
1.04793
1.05642
1.06075
1.06194
1.0619
1.06164
0.78988
0.790113
0.793602
0.801815
0.814798
0.831869
0.853271
0.879219
0.909658
0.94428
0.977703
1.00471
1.02591
1.04291
1.05624
1.06529
1.06943
1.07035
1.07023
1.06998
0.732374
0.733582
0.740589
0.754537
0.774429
0.798812
0.827641
0.860789
0.898
0.938844
0.977222
1.00772
1.03144
1.05035
1.06493
1.0741
1.07769
1.07828
1.07809
1.07786
0.649061
0.657266
0.67347
0.697961
0.72821
0.762395
0.800258
0.841632
0.886291
0.933843
0.977512
1.01176
1.0382
1.05911
1.07454
1.08333
1.08616
1.08643
1.08621
1.08603
0.559954
0.578069
0.604424
0.640259
0.681442
0.725533
0.772386
0.822022
0.87433
0.929023
0.978619
1.01725
1.04696
1.07001
1.08594
1.09354
1.09532
1.09533
1.09516
1.09505
0.483294
0.505476
0.540304
0.585835
0.636688
0.690118
0.745716
0.803441
0.863162
0.924611
0.979652
1.02218
1.05471
1.07941
1.09509
1.10127
1.10232
1.10224
1.10212
1.10205
0.420021
0.444699
0.485356
0.53784
0.596235
0.657427
0.720699
0.785792
0.852379
0.920097
0.980139
1.02618
1.06113
1.08698
1.10218
1.10735
1.10804
1.10795
1.10785
1.1078
0.367208
0.393431
0.438317
0.496185
0.560577
0.628102
0.697843
0.769362
0.842107
0.915538
0.980175
1.02947
1.0666
1.09336
1.10804
1.11241
1.11289
1.1128
1.11271
1.11266
0.322281
0.349423
0.397443
0.459655
0.529051
0.601935
0.67722
0.754348
0.832577
0.911186
0.980018
1.03228
1.07139
1.09889
1.11299
1.11675
1.11709
1.11699
1.11691
1.11687
0.283154
0.310898
0.361356
0.427161
0.500818
0.578355
0.658531
0.740671
0.823862
0.907187
0.979841
1.03478
1.07565
1.1037
1.11721
1.12051
1.12075
1.12064
1.12057
1.12053
0.248318
0.276515
0.328968
0.397828
0.475178
0.556801
0.641368
0.728082
0.81585
0.903546
0.979692
1.03704
1.07943
1.10786
1.12084
1.12377
1.12393
1.12381
1.12373
1.12369
0.216718
0.245301
0.299432
0.370963
0.451567
0.536827
0.625367
0.716299
0.808369
0.900184
0.979573
1.03906
1.08275
1.11142
1.12389
1.12654
1.12663
1.12648
1.12639
1.12634
0.187498
0.216468
0.272099
0.346038
0.429538
0.518068
0.610232
0.70509
0.801247
0.897027
0.979492
1.04089
1.08565
1.1144
1.12635
1.12877
1.1288
1.12863
1.12853
1.12847
0.160227
0.189529
0.246521
0.322624
0.408739
0.500238
0.595734
0.694266
0.794347
0.894036
0.979502
1.04263
1.08818
1.11679
1.12821
1.13044
1.13044
1.13025
1.13014
1.13007
0.134371
0.164079
0.222321
0.300405
0.388896
0.483104
0.581688
0.683679
0.787554
0.891164
0.979686
1.04441
1.09044
1.11865
1.12949
1.13155
1.13154
1.13137
1.13126
1.13119
0.109747
0.139854
0.199263
0.279155
0.369805
0.466498
0.567945
0.673205
0.780765
0.888371
0.980136
1.04643
1.09263
1.12011
1.13027
1.1322
1.13223
1.1321
1.13201
1.13193
0.0861516
0.116664
0.177162
0.258717
0.351333
0.450297
0.554395
0.662735
0.773878
0.885578
0.980911
1.04894
1.09503
1.12135
1.1307
1.13253
1.13265
1.13257
1.1325
1.13241
0.0634347
0.0943999
0.155908
0.23899
0.333374
0.434414
0.54096
0.652196
0.7668
0.88268
0.982019
1.0522
1.09805
1.12267
1.13087
1.13262
1.13293
1.13291
1.13282
1.13271
0.0414712
0.0729243
0.135443
0.219908
0.315883
0.418794
0.52759
0.641522
0.75945
0.879551
0.983386
1.05644
1.10224
1.12457
1.13088
1.13227
1.13291
1.13314
1.13308
1.13289
0.0203438
0.0522541
0.115729
0.201419
0.29882
0.403422
0.51425
0.630682
0.751764
0.876079
0.984862
1.06176
1.1082
1.12791
1.13123
1.13136
1.13218
1.13331
1.13381
1.13357
2.25696e-05
0.0323563
0.096722
0.183507
0.282178
0.388287
0.500947
0.619649
0.743699
0.872141
0.986247
1.06808
1.11646
1.13396
1.13355
1.13096
1.13126
1.13386
1.13617
1.13645
-0.0195922
0.0132269
0.0783956
0.166155
0.265967
0.37341
0.487697
0.608433
0.735221
0.867639
0.987289
1.07517
1.12725
1.14402
1.14023
1.13426
1.13315
1.13731
1.14256
1.14473
-0.038395
-0.00514513
0.0607657
0.149388
0.250198
0.358824
0.474536
0.597063
0.726333
0.862499
0.987731
1.08259
1.14033
1.15856
1.15298
1.14413
1.14062
1.14363
1.14963
1.15266
-0.0564958
-0.022805
0.043801
0.133148
0.234809
0.344461
0.461383
0.585446
0.716917
0.856579
0.987304
1.08993
1.1553
1.17732
1.17196
1.16138
1.15403
1.14858
1.14267
1.14804
-0.0738547
-0.0398251
0.0273459
0.11723
0.219498
0.329999
0.447838
0.57313
0.706482
0.849335
0.985489
1.09665
1.17215
1.20057
1.1969
1.18558
1.17218
1.15725
1.13457
1.14089
-0.0903727
-0.0562169
0.0115393
0.101806
0.204503
0.315708
0.434056
0.560368
0.695207
0.840795
0.981878
1.10132
1.18893
1.22621
1.22364
1.20948
1.19036
1.15775
1.10448
1.0838
-0.105967
-0.0730478
-0.00320306
0.0873104
0.190625
0.302074
0.42031
0.547418
0.683339
0.831049
0.97626
1.10279
1.20302
1.25115
1.24466
1.22387
1.19053
1.13105
1.07048
1.03438
-0.1479
-0.0897045
-0.0166059
0.0727573
0.177077
0.28807
0.406743
0.534129
0.670606
0.819606
0.96787
1.09961
1.21076
1.26797
1.25917
1.2134
1.14347
1.06703
0.995954
0.956757
-0.12011
-0.100791
-0.036976
0.0530225
0.156023
0.266995
0.385299
0.512642
0.64929
0.79893
0.949219
1.08452
1.19363
1.25859
1.21345
1.07412
0.966927
0.892759
0.823007
0.840633
-0.149776
-0.117203
-0.0524749
0.0371441
0.13985
0.250796
0.36954
0.496604
0.632867
0.781906
0.931363
1.06483
1.163
1.19917
1.115
0.949042
0.823298
0.738684
0.650675
0.685772
-0.172258
-0.137393
-0.0709293
0.0187742
0.121481
0.232544
0.351389
0.477975
0.613381
0.76086
0.907536
1.03571
1.12154
1.11992
0.981342
0.80534
0.66173
0.55794
0.457309
0.478337
-0.193858
-0.158046
-0.0902799
6.41657e-05
0.10289
0.213936
0.332416
0.458283
0.592473
0.737677
0.879892
0.998395
1.06512
1.02932
0.842383
0.649267
0.478468
0.336948
0.207256
0.2077
-0.214983
-0.178894
-0.110306
-0.0194063
0.0835715
0.194456
0.312374
0.437288
0.569827
0.712041
0.848197
0.955647
1.00003
0.909526
0.704233
0.494501
0.300784
0.142363
-0.0627624
-0.144223
-0.236324
-0.200423
-0.131413
-0.0401592
0.0629568
0.173677
0.291038
0.414871
0.545472
0.684103
0.813081
0.910268
0.924227
0.783326
0.57659
0.358068
0.161006
-0.0014002
-0.122611
-0.232046
-0.258932
-0.223103
-0.153951
-0.0625789
0.0405077
0.150922
0.267575
0.390062
0.518226
0.652392
0.77341
0.855611
0.839955
0.662764
0.456233
0.244484
0.0644154
-0.0336058
-0.0589941
-0.0717137
-0.282969
-0.247229
-0.178044
-0.0867488
0.0160803
0.125965
0.241595
0.36232
0.487427
0.616086
0.727686
0.790194
0.750922
0.546563
0.342826
0.151883
0.0155551
-0.0226628
-0.0306145
-0.0310085
-0.308734
-0.272937
-0.203735
-0.112656
-0.0102776
0.0987831
0.21305
0.331553
0.452954
0.575156
0.676504
0.720627
0.641968
0.439306
0.242866
0.0768919
0.00082809
-0.0131306
-0.0139918
-0.013845
-0.336227
-0.300263
-0.231054
-0.14031
-0.0385974
0.0693661
0.181903
0.297712
0.41479
0.529666
0.620011
0.644967
0.528101
0.341463
0.156589
0.0252816
-0.00339335
-0.00404137
-0.00456406
-0.00415083
-0.365205
-0.329055
-0.259916
-0.169646
-0.0688132
0.0377429
0.148152
0.26079
0.372984
0.479758
0.558961
0.562137
0.427691
0.252542
0.0895404
0.0138615
-0.000718202
0.00120026
0.00145327
0.00183848
-0.395121
-0.358971
-0.290068
-0.200447
-0.100755
0.00405062
0.111924
0.220888
0.327772
0.426046
0.493359
0.479356
0.336142
0.174651
0.0447908
0.0055556
0.00621536
0.00567606
0.0058568
0.00613788
-0.425532
-0.389486
-0.321032
-0.232309
-0.134085
-0.0314017
0.0734931
0.178281
0.279462
0.369557
0.422548
0.401855
0.254997
0.113706
0.0190491
0.0107024
0.00903576
0.00868704
0.00872841
0.00888093
-0.455438
-0.419744
-0.352099
-0.264616
-0.168262
-0.0681422
0.0333235
0.133477
0.228501
0.311172
0.35255
0.323434
0.186545
0.0710527
0.0140085
0.00402293
0.00939939
0.0105333
0.0109234
0.0110958
-0.48331
-0.448492
-0.382245
-0.296493
-0.202517
-0.105466
-0.00790669
0.0872346
0.175726
0.251365
0.287826
0.244117
0.131451
0.0387946
0.0150714
0.0123722
0.0119111
0.012485
0.0127528
0.0129085
-0.507805
-0.474245
-0.410098
-0.326751
-0.235796
-0.142431
-0.0493065
0.0405039
0.122439
0.190744
0.22465
0.17663
0.0903414
0.0214736
6.69934e-05
0.00947483
0.012738
0.0138447
0.0142057
0.0143676
-0.526382
-0.49493
-0.433925
-0.353895
-0.266798
-0.177851
-0.0897536
-0.00562063
0.0699631
0.131215
0.162032
0.12395
0.0633238
0.0199301
0.0138361
0.0134714
0.0146904
0.0151025
0.0152326
0.0153624
-0.537095
-0.508521
-0.4517
-0.376214
-0.294011
-0.210347
-0.127918
-0.0498603
0.0194283
0.0753953
0.104957
0.079531
0.0460431
0.02174
0.0208171
0.0167918
0.0151348
0.0148452
0.0147588
0.0148205
-0.537302
-0.512699
-0.461388
-0.391899
-0.315829
-0.238463
-0.162373
-0.0907082
-0.0279019
0.0238394
0.0570551
0.0389142
0.0284072
0.0152791
0.0130228
0.0127085
0.0121973
0.0119991
0.0119397
0.011981
-0.524585
-0.504753
-0.460866
-0.399248
-0.330815
-0.260836
-0.191794
-0.12664
-0.0702138
-0.0246218
0.0207496
-0.00022196
0.0102414
-0.00131735
0.0005612
0.00499664
0.00673166
0.00703727
0.00704674
0.00710451
-0.497151
-0.482749
-0.448429
-0.397106
-0.337955
-0.276498
-0.215154
-0.156564
-0.105712
-0.0678211
-0.0202603
-0.0158416
-0.00671291
-0.0144944
-0.00760185
-0.00274751
0.000113836
0.000495221
0.000238194
0.00023961
-0.458517
-0.449377
-0.425459
-0.385858
-0.337343
-0.285225
-0.231893
-0.17988
-0.133848
-0.101461
-0.0701338
-0.0407461
-0.00936832
-0.00802492
-0.014952
-0.0119222
-0.01171
-0.0126328
-0.0133446
-0.0133783
-0.415725
-0.410511
-0.396853
-0.368641
-0.331109
-0.287901
-0.242143
-0.196221
-0.154053
-0.122848
-0.0950491
-0.0670981
-0.031287
-0.00323313
0.0137088
0.000174172
-0.0250546
-0.0384865
-0.0424805
-0.0431267
-0.37836
-0.375154
-0.368613
-0.350698
-0.32208
-0.286336
-0.246927
-0.205598
-0.165368
-0.13257
-0.106938
-0.0918218
-0.0897541
-0.111258
-0.143479
-0.178766
-0.181871
-0.143074
-0.119533
-0.120735
-0.351412
-0.349509
-0.346234
-0.335674
-0.313828
-0.283611
-0.248163
-0.209004
-0.16849
-0.131671
-0.10422
-0.0987886
-0.143033
-0.217731
-0.290899
-0.325765
-0.327707
-0.29126
-0.244602
-0.227166
-0.331658
-0.330991
-0.329907
-0.324715
-0.308778
-0.282178
-0.247864
-0.208329
-0.164783
-0.121051
-0.0902752
-0.0647337
-0.052185
-0.0693018
-0.113984
-0.124074
-0.110845
-0.0870747
-0.057777
-0.0429136
-0.320017
-0.319798
-0.319205
-0.316891
-0.306142
-0.281719
-0.247013
-0.205233
-0.156945
-0.103437
-0.0574033
0.00527729
0.0857955
0.161109
0.204436
0.234704
0.267949
0.301762
0.330545
0.344907
-0.311888
-0.311743
-0.311348
-0.310743
-0.304253
-0.282352
-0.246604
-0.20129
-0.147138
-0.0816536
-0.0136692
0.0736817
0.215575
0.392488
0.557273
0.686855
0.776964
0.835264
0.870326
0.885087
-0.30648
-0.306439
-0.306328
-0.306192
-0.302454
-0.284103
-0.247375
-0.197735
-0.137557
-0.0614835
0.0244745
0.121804
0.307295
0.56703
0.838656
1.07691
1.24664
1.34114
1.38234
1.3958
-0.302001
-0.301994
-0.301924
-0.301841
-0.30053
-0.286253
-0.249467
-0.196173
-0.130648
-0.0472272
0.0497635
0.152754
0.3494
0.641751
0.961966
1.25488
1.47772
1.60048
1.64675
1.65891
-0.298141
-0.298128
-0.298002
-0.297755
-0.29766
-0.287778
-0.252825
-0.197747
-0.128062
-0.0411389
0.0602776
0.164859
0.343385
0.621716
0.928129
1.21196
1.43522
1.56102
1.60907
1.62084
-0.295173
-0.295164
-0.295098
-0.295043
-0.295442
-0.288608
-0.257351
-0.201875
-0.130606
-0.0435152
0.0554623
0.153008
0.299857
0.544185
0.804296
1.03732
1.22433
1.33384
1.37669
1.3872
-0.292197
-0.292254
-0.292419
-0.29274
-0.292981
-0.28942
-0.262177
-0.208303
-0.137914
-0.053463
0.0380205
0.124251
0.236559
0.435964
0.647033
0.824112
0.964689
1.04955
1.08294
1.0909
-0.289091
-0.289182
-0.289313
-0.289456
-0.289638
-0.288469
-0.26614
-0.215743
-0.148659
-0.0697266
0.0126367
0.0865287
0.168812
0.321642
0.486608
0.618771
0.720333
0.781618
0.805321
0.810284
-0.286094
-0.286215
-0.286394
-0.286635
-0.28707
-0.286678
-0.268873
-0.2231
-0.161326
-0.0895686
-0.0167259
0.0457809
0.105147
0.218928
0.34352
0.440409
0.512947
0.556087
0.57225
0.574757
-0.283023
-0.283176
-0.283408
-0.283781
-0.284438
-0.284752
-0.270321
-0.229635
-0.174661
-0.110587
-0.0468177
0.0053008
0.04875
0.131803
0.224413
0.294474
0.345665
0.375058
0.385309
0.386883
-0.280138
-0.280246
-0.280261
-0.280108
-0.280043
-0.28046
-0.269281
-0.235244
-0.187688
-0.13052
-0.0753922
-0.032331
0.000829885
0.0625628
0.130534
0.180044
0.215136
0.235077
0.241812
0.242578
-0.278724
-0.278668
-0.278155
-0.27657
-0.273945
-0.272789
-0.266907
-0.24082
-0.199578
-0.148456
-0.101725
-0.0658161
-0.0402271
0.00623852
0.0568153
0.0919614
0.11622
0.129363
0.13357
0.133788
-0.280031
-0.279897
-0.279311
-0.277646
-0.274812
-0.272969
-0.269111
-0.248089
-0.209793
-0.163934
-0.125034
-0.0946554
-0.0733514
-0.0382559
-0.000310234
0.0255984
0.0432821
0.0528101
0.0557666
0.0556738
-0.282994
-0.283136
-0.283787
-0.285735
-0.288555
-0.288917
-0.283266
-0.258558
-0.21866
-0.178008
-0.145889
-0.117854
-0.100483
-0.072256
-0.0422521
-0.0223903
-0.00877499
-0.0016024
0.000639432
0.000386807
-0.283394
-0.284096
-0.286855
-0.295277
-0.308215
-0.312046
-0.301213
-0.267491
-0.226145
-0.192142
-0.162001
-0.13585
-0.121863
-0.0992771
-0.0738629
-0.0565222
-0.0444444
-0.0380714
-0.0362025
-0.036596
-0.27891
-0.279675
-0.282546
-0.291261
-0.30689
-0.314906
-0.29798
-0.264374
-0.231812
-0.203002
-0.172224
-0.149043
-0.137827
-0.117262
-0.0949134
-0.0793679
-0.0681857
-0.0622157
-0.0604871
-0.0609736
-0.275502
-0.275907
-0.276122
-0.270952
-0.25895
-0.254035
-0.255043
-0.247952
-0.232266
-0.206492
-0.176962
-0.157778
-0.148446
-0.129028
-0.108078
-0.0933415
-0.0829178
-0.0774945
-0.0759425
-0.0764703
-0.278928
-0.27841
-0.274384
-0.25317
-0.2122
-0.187781
-0.208026
-0.230597
-0.2301
-0.204996
-0.17739
-0.162326
-0.152503
-0.133844
-0.114376
-0.100569
-0.0907183
-0.0857108
-0.0842139
-0.0847479
-0.295155
-0.292891
-0.288961
-0.275281
-0.249825
-0.230375
-0.241402
-0.256458
-0.240671
-0.204174
-0.176256
-0.161136
-0.150841
-0.131727
-0.11331
-0.10039
-0.0914567
-0.0869302
-0.0855994
-0.0860796
-0.346869
-0.348082
-0.363312
-0.386583
-0.393193
-0.376575
-0.352176
-0.314082
-0.258614
-0.20353
-0.172062
-0.155033
-0.141975
-0.123534
-0.106212
-0.0934143
-0.0845246
-0.0800131
-0.0787396
-0.0792384
-0.427573
-0.437567
-0.466853
-0.49719
-0.506674
-0.488202
-0.443545
-0.360147
-0.266159
-0.196938
-0.162619
-0.141895
-0.126851
-0.109682
-0.0930731
-0.080098
-0.0707225
-0.0658687
-0.0646495
-0.0652365
-0.46476
-0.476428
-0.499858
-0.521368
-0.528914
-0.510529
-0.456341
-0.35107
-0.247864
-0.178443
-0.142041
-0.118876
-0.106659
-0.0911072
-0.0745747
-0.061433
-0.052151
-0.0474151
-0.0464582
-0.047191
-0.406604
-0.41755
-0.436498
-0.453318
-0.46024
-0.444353
-0.387781
-0.28242
-0.197155
-0.141845
-0.106623
-0.0887532
-0.0817524
-0.0677871
-0.052888
-0.0412287
-0.032914
-0.0287374
-0.0283213
-0.0292119
-0.253734
-0.265295
-0.284884
-0.30484
-0.313651
-0.300042
-0.248676
-0.173495
-0.121954
-0.0844457
-0.0604368
-0.0528716
-0.0508893
-0.0393752
-0.0291728
-0.0219686
-0.0159249
-0.0131453
-0.0134896
-0.0144608
-0.00379548
-0.00951937
-0.0318168
-0.0623406
-0.0745466
-0.0729506
-0.0626386
-0.0441579
-0.0333689
-0.0220917
-0.0153431
-0.0121594
-0.010509
-0.00960099
-0.00592609
-0.00662411
-0.00669864
-0.0069162
-0.00573906
-0.00486774
0.327864
0.507215
0.670059
0.806559
0.913155
0.99474
1.06143
1.11584
1.12902
1.12685
0.596946
0.710669
0.816777
0.907451
0.982603
1.04383
1.09188
1.12447
1.14219
1.15953
0.778931
0.85421
0.928574
0.99335
1.04813
1.09345
1.12934
1.1571
1.17808
1.19748
0.914515
0.968254
1.02216
1.07046
1.1121
1.14765
1.1777
1.20308
1.22265
1.24156
1.02519
1.06594
1.10613
1.14391
1.17779
1.20789
1.23433
1.25688
1.27446
1.29256
1.11812
1.15222
1.18569
1.21787
1.24765
1.27473
1.29875
1.31904
1.33448
1.35196
1.20378
1.23476
1.26596
1.2962
1.32439
1.35009
1.37269
1.39125
1.40491
1.4219
1.28905
1.32105
1.35282
1.38347
1.41176
1.43713
1.45891
1.47618
1.48837
1.50485
1.38243
1.41862
1.45303
1.48513
1.51398
1.53904
1.55991
1.57601
1.58748
1.60358
1.49501
1.5357
1.57244
1.60503
1.63325
1.65703
1.67649
1.69164
1.70343
1.71947
1.63635
1.6771
1.71219
1.74156
1.7666
1.78809
1.80649
1.8219
1.83495
1.85087
1.8075
1.83937
1.86629
1.8886
1.90863
1.92728
1.94497
1.96169
1.97657
1.99227
1.99346
2.01063
2.02768
2.04434
2.06041
2.07512
2.08899
2.10345
2.11866
2.13595
2.17682
2.1867
2.19985
2.21081
2.22022
2.22986
2.24044
2.25059
2.25987
2.28554
2.39456
2.38885
2.3759
2.36165
2.35534
2.36102
2.37915
2.40767
2.44143
2.47776
2.6974
2.56145
2.48192
2.43934
2.422
2.426
2.45341
2.51127
2.61892
2.79733
1.13185
1.12555
1.11782
1.10672
1.09315
1.08052
1.07014
1.06216
1.05648
1.05321
1.05294
1.05584
1.06113
1.06853
1.07811
1.08997
1.10354
1.11648
1.12548
1.13303
1.0409
1.04682
1.0549
1.06104
1.06412
1.06362
1.06056
1.0566
1.05305
1.05083
1.05078
1.05311
1.05693
1.06142
1.06556
1.06783
1.06677
1.06215
1.0551
1.04727
1.03412
1.03649
1.03976
1.04255
1.04501
1.04722
1.04842
1.04831
1.04743
1.04669
1.04699
1.0485
1.05035
1.05164
1.0516
1.05016
1.04803
1.04568
1.04271
1.0397
1.02928
1.03037
1.03229
1.03464
1.03653
1.03795
1.0392
1.04023
1.04089
1.04135
1.04201
1.04286
1.04341
1.04336
1.04278
1.04189
1.04059
1.03864
1.03655
1.03507
1.02419
1.02483
1.02596
1.02773
1.0296
1.03122
1.03251
1.03362
1.03467
1.03567
1.03658
1.03722
1.03746
1.03733
1.03685
1.03593
1.03453
1.03295
1.03163
1.03083
1.01919
1.01963
1.02042
1.02174
1.02329
1.02489
1.02641
1.02777
1.029
1.03021
1.03131
1.03206
1.03236
1.03221
1.03162
1.03068
1.02957
1.02846
1.02758
1.02705
1.01425
1.01458
1.0152
1.01629
1.01762
1.01906
1.02059
1.02213
1.02362
1.02506
1.02639
1.02731
1.02769
1.02756
1.02705
1.02634
1.02555
1.02474
1.0241
1.02371
1.00936
1.00961
1.01011
1.01105
1.01226
1.01361
1.0151
1.01671
1.01841
1.02014
1.02174
1.02288
1.0234
1.02345
1.02318
1.02273
1.02216
1.02159
1.02114
1.02084
1.00443
1.00463
1.00505
1.00588
1.00702
1.00834
1.00982
1.0115
1.01336
1.01536
1.01731
1.01876
1.01956
1.01989
1.01989
1.01968
1.01934
1.01897
1.01866
1.01843
0.999377
0.999537
0.999899
1.00066
1.00176
1.00307
1.0046
1.00639
1.00844
1.01074
1.01309
1.01495
1.01613
1.0168
1.01709
1.01715
1.01705
1.01686
1.01668
1.01649
0.994107
0.994236
0.994557
0.995278
0.996372
0.997723
0.999341
1.00128
1.00357
1.00624
1.00908
1.01146
1.0131
1.01415
1.01478
1.01512
1.01526
1.01527
1.01519
1.01504
0.988523
0.988625
0.98892
0.989627
0.99075
0.992184
0.993935
0.996082
0.998699
1.00183
1.00527
1.00828
1.01045
1.01196
1.01297
1.01362
1.01403
1.01423
1.01423
1.01411
0.982518
0.982598
0.982878
0.983596
0.984783
0.986343
0.988285
0.990715
0.993742
0.997445
1.00162
1.00537
1.00818
1.01022
1.01168
1.01271
1.0134
1.01379
1.01388
1.01378
0.975971
0.976031
0.976306
0.977058
0.978346
0.980081
0.98228
0.985077
0.988618
0.993026
0.998087
1.00274
1.00632
1.00899
1.01095
1.0124
1.01342
1.01402
1.01419
1.0141
0.968743
0.96878
0.969058
0.969867
0.971296
0.973261
0.975793
0.979055
0.983235
0.988507
0.994645
1.00038
1.00486
1.00827
1.01084
1.01278
1.01418
1.015
1.01525
1.01518
0.960654
0.960672
0.960956
0.961844
0.963457
0.965718
0.968672
0.972516
0.977488
0.983815
0.991252
0.998274
1.00383
1.00812
1.01141
1.01394
1.01577
1.01683
1.01716
1.01709
0.951454
0.951459
0.951768
0.952762
0.954615
0.957251
0.960734
0.965304
0.971254
0.97887
0.987871
0.996427
1.00325
1.00857
1.01272
1.01594
1.01827
1.0196
1.02001
1.01994
0.940869
0.940849
0.941199
0.942342
0.944495
0.947606
0.951756
0.957231
0.964392
0.973583
0.984466
0.994834
1.00315
1.00969
1.01483
1.01887
1.02177
1.02338
1.02386
1.02379
0.928514
0.928473
0.928874
0.930208
0.932743
0.936462
0.941458
0.948075
0.956743
0.96786
0.980999
0.993502
1.00355
1.01151
1.01782
1.02278
1.02633
1.02823
1.02877
1.02869
0.913866
0.913803
0.914286
0.915875
0.9189
0.923407
0.929494
0.937568
0.948128
0.96161
0.977445
0.992442
1.00448
1.01406
1.02173
1.02774
1.03198
1.03417
1.03475
1.03465
0.896198
0.896112
0.896724
0.898671
0.902356
0.90791
0.915437
0.925406
0.938368
0.954762
0.973802
0.991671
1.00597
1.01737
1.02654
1.03372
1.03869
1.04111
1.0417
1.04158
0.874463
0.874359
0.875185
0.877654
0.882269
0.889276
0.898765
0.911258
0.927312
0.947292
0.970103
0.991232
1.00804
1.02144
1.03224
1.04069
1.04635
1.04892
1.04946
1.0493
0.847071
0.846969
0.848153
0.851438
0.857475
0.866606
0.878892
0.894832
0.914886
0.939252
0.966434
0.991184
1.01071
1.02627
1.03881
1.04852
1.05473
1.0573
1.05775
1.05756
0.811442
0.8114
0.813238
0.81794
0.82637
0.838868
0.855291
0.875984
0.901173
0.930808
0.962948
0.991625
1.01403
1.03182
1.04613
1.057
1.06349
1.06588
1.06618
1.06596
0.762992
0.763195
0.766488
0.774192
0.787107
0.805173
0.827774
0.854905
0.886491
0.922257
0.959858
0.992685
1.01803
1.03805
1.05408
1.06585
1.07221
1.07418
1.07431
1.07407
0.693122
0.694665
0.702726
0.717392
0.738631
0.765603
0.79694
0.832277
0.871409
0.913998
0.957394
0.994472
1.02275
1.04488
1.06237
1.07456
1.0803
1.08169
1.08166
1.08144
0.609563
0.612521
0.628276
0.653734
0.686429
0.723872
0.764623
0.808558
0.855595
0.905498
0.955368
0.99747
1.0294
1.05419
1.07308
1.08502
1.08984
1.09074
1.09067
1.09054
0.52368
0.531385
0.555127
0.591355
0.63508
0.682794
0.732953
0.785505
0.840447
0.897603
0.953865
1.0009
1.03635
1.06374
1.08386
1.09498
1.09836
1.09872
1.09862
1.09855
0.453044
0.463023
0.491798
0.535648
0.587995
0.644365
0.702972
0.763568
0.825999
0.889999
0.952194
1.00368
1.04224
1.07169
1.09227
1.10236
1.10489
1.10507
1.10499
1.10495
0.394892
0.405655
0.43828
0.487759
0.546601
0.60985
0.675497
0.743097
0.812258
0.882528
0.950174
1.00576
1.04712
1.07829
1.0991
1.10831
1.11027
1.11036
1.1103
1.11027
0.345933
0.357095
0.392391
0.446243
0.510349
0.579261
0.650799
0.724402
0.799486
0.875397
0.948021
1.00737
1.05132
1.084
1.10489
1.11329
1.11486
1.1149
1.11484
1.11482
0.303764
0.315108
0.352389
0.409737
0.478215
0.551957
0.628594
0.707452
0.787806
0.868804
0.945962
1.00874
1.05503
1.08902
1.10984
1.11755
1.11883
1.11883
1.11878
1.11877
0.266665
0.278077
0.316908
0.377142
0.449331
0.527251
0.608391
0.69197
0.777118
0.86278
0.944092
1.00997
1.05835
1.09344
1.1141
1.12122
1.1223
1.12226
1.12221
1.12219
0.233382
0.244815
0.284865
0.347581
0.422991
0.504583
0.589741
0.677619
0.767201
0.857228
0.942401
1.01109
1.06131
1.0973
1.11773
1.12436
1.12529
1.12521
1.12514
1.12512
0.202883
0.214351
0.255474
0.320385
0.39865
0.483503
0.572279
0.664101
0.757837
0.852015
0.940849
1.01211
1.06393
1.10062
1.12077
1.12697
1.12776
1.12764
1.12756
1.12753
0.174577
0.186085
0.228161
0.295042
0.375862
0.46365
0.555718
0.651183
0.748838
0.847029
0.939426
1.0131
1.06627
1.10345
1.12319
1.12901
1.1297
1.12955
1.12944
1.1294
0.147968
0.159527
0.202482
0.271157
0.354288
0.444739
0.539826
0.638678
0.740061
0.84218
0.938153
1.01416
1.06844
1.10579
1.125
1.13045
1.13107
1.13092
1.13081
1.13076
0.122651
0.134345
0.178116
0.248447
0.333679
0.42655
0.524419
0.62644
0.731378
0.83739
0.937052
1.01543
1.0706
1.10779
1.12629
1.13136
1.13195
1.13182
1.13173
1.13168
0.0984696
0.110314
0.154859
0.226703
0.313852
0.408935
0.509364
0.614345
0.722682
0.83256
0.936119
1.01707
1.073
1.10964
1.12716
1.13185
1.13245
1.13238
1.13233
1.13228
0.0752057
0.0872502
0.132532
0.205797
0.294684
0.391776
0.494558
0.6023
0.713879
0.827596
0.935302
1.01925
1.07598
1.11163
1.1278
1.13205
1.13274
1.13277
1.13273
1.13268
0.0528377
0.0650621
0.111047
0.185645
0.276099
0.375006
0.479943
0.590243
0.704895
0.822387
0.934505
1.02204
1.07992
1.11423
1.12843
1.13194
1.1328
1.13304
1.133
1.13291
0.0312267
0.0436834
0.0903808
0.166197
0.258044
0.358582
0.465473
0.578131
0.69567
0.816839
0.933585
1.02545
1.08522
1.11815
1.12954
1.13144
1.13222
1.13296
1.13332
1.13328
0.0105003
0.0230924
0.0704902
0.147405
0.240498
0.342505
0.451136
0.565941
0.686167
0.810878
0.93238
1.02936
1.09216
1.12426
1.13221
1.13124
1.13104
1.13245
1.13422
1.13483
-0.00952934
0.00327694
0.0513528
0.129241
0.223439
0.326753
0.436953
0.553666
0.676361
0.804448
0.93072
1.03351
1.10079
1.13344
1.13832
1.13369
1.13121
1.133
1.13709
1.13953
-0.0287527
-0.0157316
0.0329389
0.111708
0.2069
0.31136
0.422947
0.541355
0.666259
0.797477
0.928448
1.03759
1.11089
1.14611
1.14948
1.1416
1.13634
1.13765
1.14394
1.14958
-0.0472697
-0.0340371
0.0152685
0.0948292
0.190881
0.296349
0.409156
0.529026
0.655885
0.789969
0.925423
1.04119
1.12192
1.16193
1.16595
1.15635
1.14836
1.14625
1.14644
1.14321
-0.0650092
-0.0516296
-0.00175839
0.0784222
0.175149
0.281439
0.395257
0.5163
0.644839
0.781505
0.921268
1.04398
1.13382
1.18118
1.18806
1.17832
1.16775
1.15722
1.14574
1.14812
-0.0819766
-0.0686123
-0.0181748
0.0625271
0.159696
0.266644
0.38125
0.503119
0.633031
0.771863
0.915595
1.04511
1.14531
1.20284
1.21403
1.20485
1.18998
1.17553
1.13925
1.10383
-0.098005
-0.0848579
-0.0339868
0.0472674
0.144496
0.251933
0.367103
0.489577
0.620462
0.760962
0.908071
1.04372
1.15429
1.22457
1.24128
1.22869
1.20723
1.17311
1.1201
1.06989
-0.115804
-0.0992922
-0.0490125
0.0331127
0.129821
0.237541
0.352417
0.475688
0.607175
0.748832
0.898451
1.03904
1.15802
1.24418
1.26782
1.24753
1.20183
1.13936
1.06926
1.01075
-0.103709
-0.0783298
-0.0232272
0.0627964
0.166735
0.277781
0.39879
0.526203
0.662793
0.812139
0.96141
1.09475
1.20657
1.28177
1.27112
1.17946
1.11041
1.03607
0.965696
0.92128
-0.116752
-0.108669
-0.0663175
0.0101424
0.107071
0.21407
0.329566
0.453028
0.58486
0.727216
0.878555
1.02332
1.14754
1.2405
1.27587
1.22263
1.09377
1.0032
0.936517
0.860832
-0.1369
-0.126034
-0.08009
-0.00217369
0.0954202
0.202003
0.316612
0.439393
0.570856
0.712879
0.864393
1.0102
1.13331
1.21347
1.21531
1.09531
0.949149
0.853665
0.781089
0.70278
-0.158977
-0.146954
-0.09785
-0.0189595
0.0786252
0.185518
0.300394
0.423256
0.554333
0.695739
0.845791
0.988827
1.10253
1.1663
1.12416
0.960445
0.806541
0.696868
0.610517
0.500229
-0.180419
-0.168407
-0.117684
-0.037654
0.0599638
0.167031
0.28194
0.404484
0.534837
0.674947
0.822317
0.959994
1.0628
1.10028
1.00961
0.817943
0.644439
0.508391
0.397965
0.254539
-0.20154
-0.189621
-0.137919
-0.0568891
0.0410487
0.148148
0.262754
0.384609
0.513853
0.652041
0.795699
0.926353
1.01867
1.01406
0.874115
0.671495