/*--------------------------------*- C++ -*----------------------------------*\
  =========                 |
  \\      /  F ield         | OpenFOAM: The Open Source CFD Toolbox
   \\    /   O peration     | Website:  https://openfoam.org
    \\  /    A nd           | Version:  6
     \\/     M anipulation  |
\*---------------------------------------------------------------------------*/
FoamFile
{
    version     2.0;
    format      ascii;
    class       volScalarField;
    location    "11";
    object      p;
}
// * * * * * * * * * * * * * * * * * * * * * * * * * * * * * * * * * * * * * //

dimensions      [0 2 -2 0 0 0 0];

internalField   nonuniform List<scalar> 
8800
(
0.468555
0.419283
0.381372
0.353374
0.333306
0.31886
0.308444
0.301085
0.296324
0.294213
0.295227
0.299057
0.305355
0.314332
0.326725
0.34381
0.367526
0.400509
0.443361
0.495839
0.302892
0.309295
0.318594
0.322309
0.319905
0.31402
0.307294
0.301194
0.296448
0.293538
0.293088
0.295297
0.299522
0.305242
0.311937
0.318609
0.323169
0.32279
0.315904
0.30686
0.276079
0.282424
0.287151
0.29136
0.294688
0.296013
0.295173
0.293209
0.291185
0.290049
0.290816
0.292941
0.295356
0.297134
0.297148
0.294804
0.290967
0.28657
0.281582
0.277813
0.271441
0.274297
0.27728
0.279825
0.281885
0.283723
0.285108
0.285621
0.285536
0.285458
0.28588
0.286514
0.286734
0.286022
0.284519
0.282696
0.280533
0.277728
0.27498
0.273424
0.266244
0.267755
0.270095
0.27276
0.274905
0.27638
0.277512
0.278568
0.279452
0.280112
0.280305
0.280085
0.27953
0.278745
0.277708
0.276058
0.273701
0.271091
0.269327
0.268564
0.262039
0.262847
0.264945
0.267531
0.270003
0.272333
0.274193
0.275432
0.276248
0.276798
0.277177
0.277175
0.276664
0.275468
0.273578
0.271349
0.268928
0.266509
0.265139
0.26484
0.260703
0.261082
0.262204
0.263675
0.265219
0.266665
0.268116
0.269591
0.270849
0.271764
0.272102
0.271846
0.271086
0.270085
0.268963
0.26764
0.26625
0.264962
0.264274
0.264143
0.259453
0.259668
0.260281
0.261156
0.262136
0.263398
0.264662
0.265876
0.266997
0.26792
0.268438
0.268436
0.268023
0.267273
0.266396
0.26559
0.264828
0.264155
0.2638
0.263723
0.257244
0.25736
0.257712
0.258276
0.258992
0.259822
0.260897
0.262092
0.2633
0.26439
0.265044
0.265167
0.264924
0.264498
0.26403
0.263553
0.263141
0.262797
0.262625
0.262582
0.254281
0.254344
0.254613
0.255094
0.255673
0.256314
0.257198
0.258221
0.259355
0.260511
0.261418
0.26189
0.262014
0.261905
0.261831
0.261613
0.261333
0.261093
0.260998
0.260979
0.25104
0.251076
0.251278
0.251678
0.252209
0.252913
0.253747
0.254782
0.256009
0.257365
0.258539
0.259293
0.259695
0.259868
0.259833
0.25975
0.259608
0.259488
0.259452
0.259443
0.247521
0.247549
0.247704
0.248024
0.248489
0.249121
0.249956
0.251044
0.252409
0.254018
0.255538
0.25664
0.257347
0.257769
0.25799
0.25808
0.258088
0.258076
0.25808
0.258073
0.243601
0.243631
0.243767
0.244058
0.244509
0.24516
0.246072
0.247305
0.248907
0.250873
0.252821
0.254308
0.255323
0.255993
0.256407
0.256648
0.256778
0.256848
0.256879
0.256872
0.239196
0.239221
0.239376
0.239677
0.240158
0.240881
0.241923
0.243375
0.245308
0.247744
0.250218
0.252164
0.253546
0.254489
0.255107
0.255498
0.255735
0.255869
0.255923
0.255916
0.234245
0.234274
0.234449
0.234796
0.235357
0.236211
0.237461
0.239225
0.241608
0.244651
0.247785
0.250292
0.252104
0.253348
0.254181
0.254721
0.255057
0.25525
0.255325
0.255318
0.228636
0.228671
0.228885
0.229307
0.229991
0.231038
0.232581
0.234771
0.237747
0.24157
0.245535
0.248726
0.251032
0.252637
0.253717
0.254422
0.254866
0.25512
0.255218
0.25521
0.222213
0.222257
0.222526
0.223055
0.223915
0.22523
0.227169
0.229922
0.233669
0.238488
0.243488
0.247514
0.250431
0.252464
0.253836
0.254734
0.2553
0.255624
0.255749
0.255738
0.214763
0.214821
0.215166
0.215843
0.216942
0.21862
0.221083
0.224576
0.229319
0.2354
0.241694
0.24675
0.250411
0.252962
0.254685
0.255813
0.256523
0.256929
0.257085
0.257073
0.205989
0.206065
0.206513
0.207395
0.20883
0.211003
0.21416
0.218607
0.224633
0.232312
0.240216
0.246539
0.251108
0.25429
0.256438
0.257845
0.258729
0.259231
0.259426
0.25941
0.195483
0.195582
0.196172
0.197336
0.19922
0.202028
0.206117
0.211864
0.219539
0.229238
0.239139
0.247013
0.252687
0.256637
0.259306
0.261053
0.262148
0.262767
0.263005
0.262986
0.182685
0.18282
0.183605
0.185159
0.187659
0.191381
0.19674
0.204154
0.213966
0.226209
0.238565
0.248323
0.255337
0.260221
0.263529
0.265699
0.267059
0.267824
0.268115
0.268086
0.166813
0.167004
0.168069
0.170194
0.173578
0.178551
0.185621
0.195291
0.207869
0.223287
0.238623
0.25064
0.259265
0.265284
0.269378
0.272082
0.273783
0.274732
0.275091
0.275049
0.14668
0.146952
0.148456
0.151461
0.156152
0.162946
0.172459
0.185171
0.201291
0.220601
0.239479
0.254154
0.264692
0.272084
0.277151
0.280531
0.282682
0.283882
0.284318
0.284264
0.120372
0.120785
0.123067
0.127563
0.134356
0.143967
0.156987
0.173774
0.19437
0.218348
0.241325
0.259049
0.271816
0.28086
0.287145
0.291403
0.294161
0.295719
0.296288
0.296213
0.0846278
0.0853853
0.0892528
0.0965379
0.106958
0.120985
0.139033
0.161221
0.187336
0.216746
0.244323
0.265441
0.280739
0.291745
0.299567
0.305017
0.308653
0.310742
0.311505
0.311402
0.0332257
0.0354012
0.0433435
0.0563358
0.0731208
0.0939461
0.118943
0.147958
0.180571
0.216041
0.248575
0.273328
0.291392
0.304642
0.31436
0.321441
0.326427
0.329498
0.33066
0.330519
-0.0435887
-0.0330072
-0.0149758
0.00820403
0.0345363
0.0643857
0.0978135
0.134636
0.174438
0.216523
0.254479
0.283312
0.304623
0.320663
0.332916
0.342446
0.349744
0.354803
0.357186
0.357481
-0.124308
-0.102838
-0.0739238
-0.0402985
-0.0041781
0.0347425
0.0766263
0.121393
0.168764
0.218183
0.262586
0.296547
0.322081
0.341802
0.357423
0.370029
0.380402
0.389
0.393345
0.393876
-0.189479
-0.164171
-0.127229
-0.085252
-0.0406709
0.00661109
0.0565159
0.10893
0.163557
0.219889
0.270155
0.308538
0.337439
0.359855
0.377667
0.39211
0.403806
0.412983
0.417456
0.41814
-0.240954
-0.213452
-0.171769
-0.124036
-0.0729873
-0.0189289
0.0378311
0.0970454
0.158273
0.220907
0.276311
0.318212
0.34945
0.373379
0.392093
0.407
0.418993
0.4282
0.432885
0.433626
-0.28258
-0.254189
-0.209211
-0.15715
-0.10119
-0.0418318
0.0206505
0.0857341
0.152819
0.22105
0.280935
0.325779
0.358784
0.383709
0.402936
0.418039
0.429996
0.439039
0.443768
0.444545
-0.31777
-0.289018
-0.241692
-0.186192
-0.126214
-0.0623777
0.00491988
0.075097
0.147415
0.220823
0.284874
0.332343
0.366849
0.392561
0.41211
0.427239
0.439076
0.447904
0.45262
0.453417
-0.348714
-0.319829
-0.270642
-0.212396
-0.149087
-0.0814055
-0.00986533
0.0649189
0.142042
0.220221
0.288137
0.338081
0.374009
0.400454
0.420319
0.435515
0.447284
0.455976
0.460627
0.461432
-0.376784
-0.347747
-0.297188
-0.236621
-0.17048
-0.0994874
-0.0241868
0.054712
0.136246
0.218993
0.290786
0.343288
0.380718
0.407982
0.42823
0.443551
0.455298
0.463885
0.468454
0.469265
-0.402892
-0.373688
-0.321929
-0.259385
-0.190833
-0.11699
-0.0383978
0.0442552
0.129977
0.217215
0.292948
0.348161
0.387255
0.415466
0.4362
0.451718
0.463491
0.471993
0.476463
0.477291
-0.427688
-0.398249
-0.345438
-0.281181
-0.210539
-0.134178
-0.0526117
0.0334896
0.123149
0.214765
0.29457
0.352742
0.393745
0.423099
0.444459
0.460265
0.472119
0.480557
0.484916
0.485751
-0.451416
-0.421744
-0.36801
-0.302267
-0.229778
-0.1512
-0.0669928
0.0222327
0.11559
0.211539
0.295579
0.35701
0.400231
0.430978
0.453146
0.469367
0.481369
0.489789
0.494025
0.494822
-0.474417
-0.444398
-0.389857
-0.322834
-0.248751
-0.168236
-0.0816737
0.0104122
0.107244
0.207432
0.295858
0.360867
0.406664
0.439123
0.46233
0.479126
0.491392
0.499842
0.503942
0.504656
-0.496737
-0.46638
-0.411098
-0.342957
-0.267495
-0.185288
-0.0966424
-0.00199224
0.0980573
0.202332
0.29525
0.364155
0.412937
0.447483
0.472022
0.489588
0.502236
0.510783
0.51477
0.515337
-0.518451
-0.487729
-0.431777
-0.362674
-0.286016
-0.202348
-0.111898
-0.0149705
0.0880089
0.196173
0.293593
0.366669
0.418867
0.455947
0.482168
0.500744
0.513915
0.522626
0.52653
0.526925
-0.539595
-0.508525
-0.451924
-0.381976
-0.304317
-0.219396
-0.127392
-0.028479
0.077127
0.18892
0.290745
0.368188
0.42419
0.464289
0.492638
0.512554
0.526452
0.535401
0.539201
0.539399
-0.560194
-0.528702
-0.471508
-0.400836
-0.322322
-0.236365
-0.143052
-0.042446
0.0654602
0.180547
0.286604
0.368447
0.428539
0.472169
0.50323
0.524874
0.539688
0.548907
0.552549
0.552564
-0.58008
-0.548211
-0.49048
-0.4192
-0.339979
-0.253169
-0.158798
-0.0567765
0.0530854
0.171095
0.281054
0.367203
0.431568
0.479234
0.513709
0.537663
0.553625
0.563057
0.566412
0.566189
-0.599222
-0.567018
-0.5088
-0.437012
-0.357219
-0.269736
-0.174527
-0.0713812
0.0401074
0.160611
0.274083
0.364308
0.432964
0.485006
0.523631
0.550848
0.568363
0.577701
0.580403
0.579892
-0.617669
-0.585089
-0.526423
-0.454232
-0.373969
-0.285979
-0.190137
-0.0861369
0.0266359
0.14919
0.265716
0.359607
0.432278
0.488747
0.532226
0.564184
0.584542
0.593342
0.594082
0.593093
-0.635277
-0.602404
-0.543325
-0.470793
-0.390173
-0.30181
-0.205532
-0.100922
0.0128254
0.136956
0.255983
0.35308
0.429298
0.489751
0.538352
0.576606
0.602737
0.612718
0.608935
0.604304
-0.652126
-0.618952
-0.559519
-0.486713
-0.405862
-0.317281
-0.220763
-0.115805
-0.00140898
0.123863
0.244774
0.34449
0.423789
0.487263
0.540456
0.58586
0.621075
0.639113
0.633504
0.623921
-0.668156
-0.634811
-0.575115
-0.50216
-0.421302
-0.332707
-0.236231
-0.131274
-0.0166408
0.109229
0.231341
0.332985
0.414998
0.480027
0.535216
0.58627
0.62876
0.649299
0.643279
0.625402
-0.683281
-0.649933
-0.589952
-0.516951
-0.436286
-0.347805
-0.251709
-0.146989
-0.0325276
0.0934181
0.215944
0.318463
0.402603
0.468023
0.518695
0.568063
0.605415
0.610504
0.55221
0.51436
-0.697406
-0.664734
-0.603577
-0.530599
-0.450279
-0.362155
-0.26696
-0.162703
-0.0487855
0.0766844
0.198686
0.300933
0.386165
0.45239
0.491406
0.522369
0.54251
0.506716
0.437409
0.392112
-0.73734
-0.677876
-0.615979
-0.543763
-0.463941
-0.376528
-0.281901
-0.178531
-0.0656259
0.0587329
0.179296
0.280194
0.36382
0.434192
0.451936
0.451718
0.42968
0.370817
0.291191
0.24793
-0.707001
-0.689611
-0.634358
-0.563768
-0.484111
-0.39771
-0.304566
-0.202816
-0.0919203
0.0298367
0.1465
0.243966
0.319736
0.380657
0.384564
0.268922
0.16225
0.0922602
0.0172524
0.0614131
-0.734481
-0.704279
-0.648721
-0.578028
-0.499125
-0.413594
-0.321027
-0.220592
-0.11153
0.00766935
0.120544
0.213803
0.282703
0.312622
0.255666
0.0932571
-0.0466847
-0.139685
-0.240237
-0.168149
-0.75449
-0.721962
-0.664887
-0.594133
-0.515779
-0.430867
-0.339119
-0.240225
-0.133473
-0.0173118
0.091617
0.178344
0.238211
0.234644
0.105338
-0.109577
-0.280911
-0.409809
-0.53937
-0.474339
-0.773054
-0.739597
-0.68148
-0.610494
-0.532448
-0.448193
-0.357615
-0.260505
-0.156117
-0.0430117
0.0617439
0.140675
0.186029
0.141152
-0.0694121
-0.327767
-0.553771
-0.746144
-0.931944
-0.861868
-0.790529
-0.756969
-0.698382
-0.627239
-0.549492
-0.466004
-0.376807
-0.281584
-0.17955
-0.0697502
0.0296612
0.100176
0.126998
0.030965
-0.245698
-0.545956
-0.835633
-1.08116
-1.3886
-1.49168
-0.807582
-0.774411
-0.715743
-0.644616
-0.567211
-0.484521
-0.396695
-0.303401
-0.203891
-0.0983583
-0.0055942
0.0567288
0.0631194
-0.0929926
-0.410938
-0.74283
-1.06686
-1.33811
-1.55838
-1.83774
-0.824849
-0.792166
-0.733691
-0.662784
-0.585878
-0.504152
-0.417838
-0.32679
-0.230282
-0.130065
-0.0433403
0.00756973
-0.0133919
-0.238945
-0.566613
-0.909051
-1.21577
-1.40395
-1.45655
-1.48328
-0.842553
-0.810309
-0.752166
-0.681636
-0.605405
-0.524866
-0.440414
-0.352187
-0.259054
-0.164254
-0.0831272
-0.045888
-0.106476
-0.386019
-0.710942
-1.03479
-1.29582
-1.39271
-1.41075
-1.4113
-0.860856
-0.828833
-0.771015
-0.700942
-0.625535
-0.546428
-0.464237
-0.379156
-0.290118
-0.200647
-0.126598
-0.105555
-0.212951
-0.529595
-0.843796
-1.13541
-1.35843
-1.39133
-1.38536
-1.38114
-0.879386
-0.847579
-0.790031
-0.720443
-0.646017
-0.568565
-0.489103
-0.407394
-0.323901
-0.239519
-0.174728
-0.172875
-0.328245
-0.673659
-0.970236
-1.19967
-1.34808
-1.37327
-1.37037
-1.3683
-0.897857
-0.866144
-0.808835
-0.739758
-0.666424
-0.59095
-0.514492
-0.437215
-0.360456
-0.282052
-0.224161
-0.244898
-0.462577
-0.830736
-1.10208
-1.21221
-1.27064
-1.34624
-1.38671
-1.39351
-0.915393
-0.883929
-0.826869
-0.758311
-0.686186
-0.612977
-0.539935
-0.468483
-0.398246
-0.326406
-0.272448
-0.312562
-0.612676
-1.03054
-1.30923
-1.31871
-1.34614
-1.44843
-1.50847
-1.52256
-0.931437
-0.900158
-0.843389
-0.775335
-0.704552
-0.633807
-0.565062
-0.499964
-0.43661
-0.369279
-0.320283
-0.373477
-0.764052
-1.30217
-1.7107
-1.7735
-1.71701
-1.73435
-1.76453
-1.77907
-0.945103
-0.913964
-0.857362
-0.789861
-0.720529
-0.652546
-0.588835
-0.53137
-0.477637
-0.412894
-0.364724
-0.426987
-0.89867
-1.58759
-2.19622
-2.4269
-2.31914
-2.19696
-2.14749
-2.14734
-0.955025
-0.92404
-0.867658
-0.800734
-0.732917
-0.667964
-0.609782
-0.561447
-0.523538
-0.465561
-0.417843
-0.508708
-0.997239
-1.74142
-2.51177
-2.91378
-2.93767
-2.77721
-2.61457
-2.56533
-0.959732
-0.929014
-0.872915
-0.806631
-0.740363
-0.678561
-0.62653
-0.59121
-0.577589
-0.545395
-0.514505
-0.631913
-1.02876
-1.72728
-2.5205
-3.06294
-3.20168
-3.08884
-2.8731
-2.75469
-0.957826
-0.927378
-0.871715
-0.806188
-0.741408
-0.682763
-0.637721
-0.618682
-0.643073
-0.68473
-0.727129
-0.838692
-1.02941
-1.45473
-1.9711
-2.44077
-2.6145
-2.56392
-2.37852
-2.26827
-0.948194
-0.917863
-0.862738
-0.798078
-0.734668
-0.678837
-0.640948
-0.641559
-0.723941
-0.922501
-1.1635
-1.1507
-0.926263
-0.987043
-1.01612
-1.17114
-1.1523
-0.994389
-0.777654
-0.665461
-0.929325
-0.899228
-0.844856
-0.781207
-0.718855
-0.665009
-0.633022
-0.653844
-0.815325
-1.27234
-1.7748
-1.46087
-0.800173
-0.329897
0.233303
0.636798
0.913919
1.12606
1.27196
1.33479
-0.90035
-0.87058
-0.817302
-0.754759
-0.69299
-0.63961
-0.609829
-0.642654
-0.865509
-1.60214
-2.41115
-1.63347
-0.621532
0.333348
1.12961
1.72481
2.10941
2.27873
2.35146
2.37011
-0.861009
-0.831864
-0.779683
-0.718288
-0.656638
-0.601753
-0.567961
-0.593009
-0.804032
-1.57559
-2.27833
-1.37157
-0.340994
0.642317
1.34767
1.79808
2.0658
2.19284
2.24878
2.26217
-0.810387
-0.78207
-0.731928
-0.672068
-0.610367
-0.552366
-0.508836
-0.50566
-0.619559
-1.03664
-1.26675
-0.611074
0.160297
0.818645
1.25779
1.52917
1.69353
1.7883
1.83768
1.84531
-0.747669
-0.721539
-0.674577
-0.616964
-0.555758
-0.494739
-0.439823
-0.402779
-0.408412
-0.477726
-0.406431
0.0287897
0.498222
0.853161
1.09726
1.2596
1.36852
1.4408
1.47683
1.48249
-0.674105
-0.650753
-0.608344
-0.554259
-0.494874
-0.432727
-0.369598
-0.307966
-0.247735
-0.167014
0.00589873
0.280286
0.556477
0.761452
0.910554
1.0181
1.09599
1.14986
1.18083
1.19058
-0.589147
-0.572916
-0.534678
-0.48453
-0.429224
-0.368985
-0.303304
-0.230686
-0.145128
-0.026653
0.139656
0.32742
0.495491
0.624386
0.720546
0.792283
0.84636
0.885084
0.906981
0.913333
-0.480969
-0.472785
-0.445123
-0.404654
-0.357862
-0.304677
-0.244041
-0.17374
-0.0882936
0.0254392
0.166793
0.30781
0.427447
0.519628
0.587891
0.637263
0.672585
0.698068
0.713585
0.717579
-0.372459
-0.368603
-0.349635
-0.31966
-0.283648
-0.240739
-0.189486
-0.127661
-0.050728
0.0493137
0.165932
0.274539
0.36342
0.430785
0.479541
0.513675
0.536436
0.550901
0.558473
0.560061
-0.26761
-0.265974
-0.254498
-0.234875
-0.209646
-0.177758
-0.137749
-0.0867966
-0.0218666
0.0623385
0.156654
0.240777
0.307246
0.356613
0.391298
0.414613
0.429507
0.438289
0.4424
0.442915
-0.172033
-0.171865
-0.1663
-0.155557
-0.140038
-0.1187
-0.0894409
-0.0501072
0.00202706
0.0702246
0.145473
0.210849
0.261136
0.2974
0.322263
0.338404
0.348048
0.35308
0.355106
0.355142
-0.0934504
-0.0941734
-0.0934846
-0.0897359
-0.0818011
-0.0685938
-0.0482052
-0.0189485
0.0217059
0.0756062
0.13475
0.185064
0.222955
0.249818
0.267683
0.278609
0.284795
0.28779
0.288807
0.288689
-0.0367679
-0.0377792
-0.0393146
-0.0399219
-0.0371649
-0.0296456
-0.0160109
0.00537273
0.0361993
0.0780002
0.123833
0.162441
0.191008
0.210678
0.223425
0.231164
0.235305
0.237078
0.237594
0.237443
0.000128722
-0.000784477
-0.00286857
-0.00457023
-0.00419892
-0.00038586
0.00829511
0.0235071
0.0466383
0.0786978
0.113878
0.143147
0.164527
0.179177
0.188501
0.193851
0.196513
0.197514
0.197722
0.197566
0.0224865
0.0218417
0.0201066
0.0184541
0.0182445
0.020486
0.0262483
0.0369152
0.0539254
0.0781544
0.105009
0.127288
0.143356
0.154036
0.160603
0.164295
0.166004
0.166486
0.166501
0.166364
0.0356006
0.0351886
0.0340321
0.0328268
0.0325305
0.0339706
0.038109
0.0459652
0.0586158
0.0768213
0.097042
0.113681
0.125529
0.133396
0.138207
0.140783
0.141855
0.142048
0.141984
0.141874
0.0434333
0.0431719
0.0424521
0.0416859
0.0415219
0.0425167
0.0454008
0.051085
0.0604795
0.0741566
0.089404
0.101936
0.110842
0.116644
0.120081
0.121866
0.122557
0.122621
0.122539
0.122451
0.0480155
0.0478431
0.047369
0.0468689
0.0468082
0.0476041
0.0497798
0.0539853
0.0609421
0.0711694
0.0826083
0.0919517
0.0985049
0.102737
0.105219
0.106473
0.106916
0.106912
0.106829
0.106758
0.0502277
0.0501092
0.0497683
0.0494039
0.0493619
0.0499451
0.0515505
0.0546825
0.0598756
0.0675116
0.0760503
0.0830144
0.0878879
0.0910076
0.0928047
0.0936854
0.0939702
0.0939343
0.0938583
0.0938012
0.0505904
0.0505077
0.0502655
0.0500053
0.0499875
0.0504348
0.0516341
0.0539577
0.0578201
0.0635243
0.0699069
0.0750866
0.0786851
0.0809614
0.0822546
0.0828689
0.0830444
0.0829907
0.0829228
0.082877
0.0495655
0.0495055
0.0493339
0.0491504
0.0491471
0.0494888
0.05039
0.0521276
0.0550072
0.0592554
0.0640052
0.0678476
0.0705023
0.0721679
0.0731003
0.0735284
0.0736332
0.0735747
0.0735158
0.0734789
0.047526
0.0474809
0.0473585
0.0472309
0.0472376
0.0474996
0.0481753
0.0494708
0.0516157
0.0547794
0.0583125
0.061161
0.0631148
0.0643297
0.0649995
0.0652963
0.065356
0.0652991
0.0652487
0.065219
0.0447471
0.0447124
0.0446229
0.0445322
0.0445422
0.0447419
0.0452487
0.0462152
0.0478111
0.0501628
0.0527843
0.0548877
0.0563224
0.0572074
0.0576873
0.0578918
0.0579225
0.0578699
0.0578271
0.0578033
0.0414197
0.0413925
0.041325
0.0412577
0.0412657
0.0414149
0.0417921
0.0425103
0.0436951
0.0454398
0.04738
0.0489284
0.0499801
0.0506228
0.0509651
0.0511042
0.0511161
0.0510687
0.0510327
0.0510137
0.0376808
0.0376594
0.037607
0.0375548
0.0375587
0.0376677
0.0379459
0.0384769
0.0393532
0.040643
0.0420737
0.0432104
0.0439785
0.0444426
0.0446848
0.0447777
0.0447776
0.0447356
0.0447055
0.0446903
0.0336315
0.0336145
0.033573
0.0335311
0.0335307
0.0336082
0.0338109
0.0342004
0.0348446
0.0357933
0.0368438
0.0376749
0.0382327
0.0385651
0.0387343
0.038794
0.0387864
0.0387497
0.0387247
0.0387127
0.0293484
0.0293348
0.0293016
0.0292672
0.029263
0.0293161
0.0294612
0.0297437
0.0302135
0.0309059
0.0316715
0.0322753
0.0326767
0.0329124
0.0330285
0.0330651
0.033053
0.0330211
0.0330004
0.0329909
0.0248912
0.0248803
0.0248534
0.0248244
0.0248171
0.0248513
0.0249526
0.0251542
0.0254921
0.025992
0.0265439
0.0269773
0.0272622
0.0274267
0.0275047
0.0275252
0.027511
0.0274835
0.0274664
0.0274589
0.0203047
0.0202959
0.020274
0.0202493
0.0202397
0.0202598
0.0203282
0.0204685
0.0207067
0.0210607
0.0214511
0.021756
0.0219542
0.022066
0.0221159
0.0221251
0.02211
0.0220866
0.0220724
0.0220666
0.0156217
0.0156148
0.0155972
0.0155763
0.0155655
0.0155754
0.0156189
0.0157124
0.0158741
0.0161162
0.0163821
0.016589
0.016722
0.0167949
0.0168246
0.0168261
0.016811
0.0167912
0.0167797
0.0167752
0.0108692
0.0108641
0.0108499
0.0108323
0.0108214
0.0108242
0.010849
0.0109066
0.0110082
0.0111622
0.0113313
0.0114616
0.011544
0.0115874
0.0116028
0.0115999
0.011586
0.0115696
0.0115606
0.0115574
0.0060648
0.00606122
0.00605071
0.00603792
0.00602932
0.0060284
0.00603959
0.00606872
0.00612168
0.00620295
0.00629213
0.00636042
0.00640274
0.00642402
0.00642993
0.00642574
0.0064149
0.00640272
0.00639606
0.00639408
0.00122029
0.00121989
0.00121825
0.00121295
0.00120944
0.0012076
0.00120856
0.00121229
0.00121986
0.00123228
0.00124913
0.00126478
0.00127516
0.00128107
0.00128366
0.00128353
0.00128106
0.00127678
0.0012726
0.00127175
-0.678884
-0.412718
-0.165029
0.0357824
0.201517
0.337288
0.455247
0.553158
0.587621
0.582858
-0.262205
-0.0914553
0.065437
0.201902
0.3191
0.418191
0.498357
0.554701
0.585376
0.600919
0.0167808
0.125719
0.233576
0.329291
0.412214
0.481816
0.53706
0.578408
0.607371
0.626479
0.208965
0.285014
0.361743
0.430868
0.490823
0.541628
0.583433
0.617182
0.642071
0.661176
0.355737
0.410723
0.467043
0.518723
0.564198
0.603807
0.637828
0.666007
0.686719
0.705074
0.474625
0.517138
0.560099
0.601009
0.638207
0.671368
0.70014
0.723892
0.741598
0.759329
0.575002
0.611904
0.64873
0.684243
0.717019
0.746503
0.772202
0.793098
0.808294
0.825563
0.669564
0.704946
0.740427
0.774251
0.80543
0.83327
0.856981
0.875755
0.889117
0.905895
0.768543
0.806608
0.843302
0.877461
0.908079
0.934753
0.95703
0.97418
0.98635
1.00268
0.884518
0.925916
0.964138
0.998259
1.02777
1.05259
1.07291
1.08874
1.10103
1.11724
1.02762
1.06931
1.10524
1.1355
1.16131
1.18349
1.20244
1.21826
1.23166
1.2477
1.20031
1.23323
1.26043
1.28315
1.30355
1.32254
1.34059
1.35761
1.37266
1.3884
1.38755
1.405
1.42223
1.43912
1.45546
1.47029
1.48428
1.49889
1.51427
1.53167
1.57074
1.58115
1.59442
1.60544
1.615
1.62491
1.63569
1.64591
1.65521
1.68092
1.78877
1.78331
1.77072
1.75647
1.7502
1.756
1.77422
1.80284
1.83667
1.873
2.09238
1.95598
1.87655
1.83431
1.81705
1.82105
1.84853
1.90639
2.01409
2.19253
0.372158
0.365879
0.358231
0.347254
0.333834
0.321325
0.311077
0.303244
0.297679
0.294426
0.293914
0.296296
0.301059
0.307984
0.317171
0.328734
0.342055
0.354775
0.363606
0.371082
0.281099
0.287061
0.295255
0.301548
0.304856
0.304649
0.301912
0.298179
0.294679
0.29227
0.291899
0.293881
0.297269
0.30124
0.30483
0.306581
0.305142
0.300225
0.292979
0.28503
0.273773
0.276162
0.279753
0.282997
0.285895
0.288553
0.290078
0.290061
0.289094
0.288097
0.288024
0.289201
0.290659
0.291542
0.290988
0.288919
0.286175
0.283251
0.27977
0.276563
0.268915
0.269982
0.272101
0.274753
0.276923
0.278464
0.279742
0.280953
0.281867
0.282455
0.282816
0.282887
0.28262
0.281859
0.280843
0.279649
0.277921
0.275504
0.273039
0.271447
0.263779
0.264294
0.265958
0.268714
0.271427
0.273702
0.275415
0.276592
0.27744
0.278076
0.27852
0.278673
0.27846
0.27785
0.276691
0.274868
0.272479
0.269753
0.267466
0.266498
0.261156
0.261331
0.262365
0.264287
0.266333
0.268338
0.270321
0.272048
0.273376
0.274298
0.274857
0.274953
0.274476
0.273415
0.271864
0.270113
0.268238
0.266315
0.264777
0.264306
0.260193
0.260296
0.260821
0.26183
0.262976
0.264226
0.265421
0.266652
0.267868
0.268934
0.269627
0.269763
0.269423
0.268773
0.26801
0.266989
0.266016
0.265043
0.264296
0.264051
0.258471
0.258526
0.25882
0.259418
0.260205
0.26115
0.262355
0.263665
0.264909
0.266041
0.266869
0.267148
0.26695
0.266396
0.265618
0.264948
0.264322
0.263772
0.263389
0.263261
0.25582
0.255847
0.256026
0.256445
0.257027
0.257619
0.25839
0.259388
0.260516
0.261657
0.26263
0.263187
0.263302
0.263165
0.262943
0.262725
0.2624
0.262078
0.26187
0.26181
0.252686
0.252691
0.252815
0.253157
0.25362
0.254299
0.255171
0.256063
0.25716
0.258386
0.259567
0.260395
0.260815
0.260983
0.260907
0.260673
0.26055
0.260339
0.260217
0.260193
0.249326
0.249327
0.24942
0.249687
0.250114
0.250677
0.251404
0.252342
0.253514
0.254904
0.256357
0.257507
0.258229
0.258638
0.258845
0.258895
0.258862
0.258787
0.25875
0.258745
0.245616
0.245619
0.245693
0.245919
0.246295
0.246834
0.247579
0.248583
0.249892
0.251524
0.25333
0.254864
0.25593
0.256614
0.257033
0.257265
0.257377
0.257422
0.257448
0.257453
0.241465
0.241463
0.241549
0.241762
0.242132
0.242693
0.243507
0.244649
0.246187
0.248163
0.250423
0.25243
0.253858
0.254844
0.255487
0.255893
0.256137
0.256277
0.256349
0.256364
0.236796
0.236793
0.236885
0.237125
0.237537
0.238175
0.239121
0.240474
0.242334
0.244769
0.24761
0.250175
0.25205
0.253378
0.25427
0.254851
0.255218
0.255438
0.25555
0.255573
0.231535
0.231531
0.231642
0.231926
0.232417
0.233183
0.234329
0.235985
0.238283
0.24132
0.244899
0.248162
0.250589
0.252292
0.253458
0.254229
0.254723
0.255023
0.255174
0.255205
0.225543
0.225536
0.225676
0.226029
0.226637
0.227588
0.229014
0.231081
0.23396
0.237776
0.242288
0.246414
0.249483
0.251659
0.253148
0.254138
0.254776
0.255165
0.25536
0.2554
0.218636
0.218626
0.218805
0.219254
0.220026
0.221229
0.223031
0.225646
0.229284
0.234102
0.23979
0.244987
0.248849
0.251589
0.253468
0.254719
0.255527
0.256021
0.256267
0.256317
0.210562
0.210551
0.210784
0.211368
0.212358
0.213892
0.216195
0.219532
0.224163
0.230262
0.23743
0.243956
0.248792
0.252219
0.254569
0.256136
0.257151
0.257774
0.258083
0.258144
0.200979
0.200967
0.201278
0.202039
0.203324
0.205308
0.208304
0.212605
0.218497
0.226228
0.235252
0.243417
0.249445
0.253711
0.256635
0.258587
0.259856
0.260639
0.261027
0.2611
0.189416
0.189404
0.189825
0.190837
0.192526
0.195144
0.19904
0.204583
0.212164
0.221984
0.233322
0.243495
0.250973
0.256257
0.25988
0.262302
0.263883
0.264865
0.265353
0.265444
0.175186
0.175175
0.175766
0.177143
0.179408
0.182892
0.18804
0.195307
0.20508
0.217547
0.231739
0.244343
0.253566
0.260083
0.264557
0.267551
0.26951
0.270734
0.271344
0.27146
0.157291
0.157291
0.158155
0.160082
0.163206
0.167972
0.174913
0.184505
0.19715
0.21296
0.230625
0.246126
0.257425
0.265424
0.27094
0.274648
0.277079
0.278604
0.279376
0.279521
0.134232
0.134278
0.135596
0.138384
0.142845
0.149554
0.159075
0.171896
0.188331
0.208312
0.230124
0.249006
0.262732
0.272499
0.2793
0.28392
0.286977
0.288907
0.289893
0.290081
0.103577
0.103751
0.105882
0.110179
0.116916
0.126727
0.140117
0.157436
0.178765
0.203804
0.230422
0.253136
0.26963
0.281471
0.28985
0.29566
0.299582
0.302099
0.303379
0.30362
0.0608109
0.0613326
0.0653129
0.0728186
0.0838497
0.0988625
0.118046
0.141431
0.168841
0.199785
0.231759
0.258654
0.278189
0.292388
0.302664
0.310017
0.315165
0.318612
0.320386
0.320697
-0.00226138
-9.3249e-05
0.0092595
0.0238007
0.0428662
0.0661666
0.0934271
0.124502
0.15909
0.196612
0.234299
0.265563
0.288293
0.305044
0.317489
0.326764
0.333604
0.338432
0.341107
0.341486
-0.0785179
-0.0741572
-0.056305
-0.0305845
-0.000988121
0.0317855
0.0678131
0.107102
0.149391
0.194204
0.238597
0.275403
0.302524
0.323013
0.338809
0.351147
0.361
0.368268
0.371753
0.373175
-0.155462
-0.145028
-0.118405
-0.082694
-0.043483
-0.00154319
0.0431283
0.0904839
0.140408
0.192504
0.243634
0.285961
0.317335
0.341348
0.360209
0.375343
0.387585
0.397114
0.402994
0.405298
-0.213654
-0.202137
-0.170586
-0.128267
-0.0817948
-0.032281
0.0199505
0.0747277
0.131783
0.190672
0.247969
0.295084
0.329804
0.356233
0.376849
0.393187
0.406248
0.416331
0.422655
0.425075
-0.260425
-0.248348
-0.213515
-0.166607
-0.114776
-0.0594363
-0.00109945
0.0599823
0.123319
0.188327
0.251064
0.302142
0.339377
0.367343
0.388834
0.405635
0.418896
0.429117
0.435504
0.437902
-0.298829
-0.286784
-0.24995
-0.199552
-0.143516
-0.0835801
-0.0201597
0.046277
0.115128
0.185589
0.25327
0.307928
0.347299
0.376477
0.398594
0.415647
0.428915
0.43904
0.445355
0.447663
-0.332031
-0.320092
-0.281816
-0.22866
-0.169203
-0.105362
-0.0376145
0.0334856
0.107281
0.182786
0.255058
0.312974
0.354259
0.384479
0.407086
0.424296
0.437551
0.447602
0.453889
0.456125
-0.361666
-0.349851
-0.310559
-0.255169
-0.192873
-0.12571
-0.0541695
0.0211477
0.0994389
0.179575
0.256185
0.317308
0.360519
0.391813
0.414954
0.432382
0.445678
0.455687
0.461958
0.464111
-0.38884
-0.377117
-0.336971
-0.279713
-0.215036
-0.145028
-0.0701981
0.00881906
0.0912193
0.175807
0.256752
0.321184
0.366443
0.39892
0.422691
0.4404
0.453784
0.463777
0.470049
0.472118
-0.414393
-0.402704
-0.361791
-0.302916
-0.236195
-0.163741
-0.0860197
-0.00362513
0.082615
0.171477
0.256756
0.324647
0.372164
0.406015
0.430551
0.448645
0.462182
0.472187
0.478436
0.480407
-0.438722
-0.427048
-0.385445
-0.325175
-0.25667
-0.182041
-0.101742
-0.016312
0.0734693
0.16641
0.256081
0.327674
0.377733
0.413213
0.438708
0.457313
0.471078
0.481148
0.487363
0.489265
-0.462155
-0.450424
-0.408192
-0.346705
-0.276657
-0.20014
-0.11756
-0.0294091
0.0636544
0.160523
0.25461
0.330182
0.383125
0.420549
0.44725
0.466535
0.480633
0.49081
0.497
0.49885
-0.484909
-0.473029
-0.430224
-0.367673
-0.296289
-0.218138
-0.133549
-0.0429367
0.0531289
0.15374
0.252227
0.332029
0.388234
0.427972
0.456185
0.476368
0.490943
0.501317
0.507478
0.509285
-0.507016
-0.494964
-0.451622
-0.388133
-0.315592
-0.236017
-0.14968
-0.0569054
0.0418851
0.145991
0.248832
0.333046
0.392882
0.435344
0.465436
0.486799
0.502053
0.512727
0.518891
0.520625
-0.528567
-0.5163
-0.472445
-0.408113
-0.334575
-0.253788
-0.165948
-0.0712864
0.0299302
0.137267
0.244308
0.33303
0.396823
0.442471
0.474888
0.497768
0.513914
0.525021
0.531236
0.532842
-0.549482
-0.537034
-0.492688
-0.427607
-0.353222
-0.271402
-0.182289
-0.0860165
0.0173152
0.127563
0.238557
0.331773
0.399792
0.449126
0.484386
0.509195
0.526461
0.538097
0.544377
0.545814
-0.569802
-0.557115
-0.512291
-0.446564
-0.371468
-0.288795
-0.198629
-0.101008
0.0041255
0.116922
0.231567
0.329132
0.401507
0.454938
0.493635
0.520928
0.539672
0.551944
0.558234
0.559427
-0.589327
-0.576511
-0.531227
-0.464936
-0.389253
-0.305878
-0.214884
-0.11617
-0.00953911
0.105434
0.223327
0.324993
0.401618
0.459335
0.502106
0.532719
0.553477
0.566373
0.572419
0.573267
-0.608191
-0.595192
-0.549447
-0.482684
-0.406532
-0.3226
-0.230953
-0.131404
-0.0235714
0.0932002
0.213866
0.319221
0.39988
0.46184
0.509183
0.544201
0.568117
0.58179
0.586825
0.586921
-0.626235
-0.61308
-0.566931
-0.499766
-0.423217
-0.338875
-0.246746
-0.146583
-0.0378569
0.0803237
0.203287
0.311812
0.396149
0.462084
0.514093
0.554555
0.583618
0.599467
0.602149
0.599706
-0.643536
-0.630221
-0.583642
-0.516135
-0.439269
-0.354635
-0.262179
-0.161621
-0.0522634
0.0669718
0.1917
0.30282
0.39034
0.459632
0.515768
0.562124
0.598679
0.620998
0.623923
0.611562
-0.659984
-0.646588
-0.599681
-0.531927
-0.454889
-0.370155
-0.277587
-0.17693
-0.0672783
0.0526011
0.1785
0.291576
0.381801
0.453748
0.512582
0.564179
0.609306
0.641415
0.648867
0.645492
-0.675587
-0.662258
-0.61502
-0.547068
-0.470051
-0.385414
-0.292925
-0.192504
-0.0829016
0.0371385
0.16356
0.277819
0.370007
0.444018
0.502335
0.554918
0.602582