/*--------------------------------*- C++ -*----------------------------------*\
  =========                 |
  \\      /  F ield         | OpenFOAM: The Open Source CFD Toolbox
   \\    /   O peration     | Website:  https://openfoam.org
    \\  /    A nd           | Version:  6
     \\/     M anipulation  |
\*---------------------------------------------------------------------------*/
FoamFile
{
    version     2.0;
    format      ascii;
    class       volScalarField;
    location    "57";
    object      p;
}
// * * * * * * * * * * * * * * * * * * * * * * * * * * * * * * * * * * * * * //

dimensions      [0 2 -2 0 0 0 0];

internalField   nonuniform List<scalar> 
8800
(
0.906004
0.856687
0.818718
0.790642
0.770471
0.75587
0.745252
0.737683
0.732759
0.730638
0.731951
0.736248
0.743007
0.752404
0.765123
0.782431
0.8063
0.839393
0.882327
0.93484
0.740507
0.74685
0.755997
0.75954
0.756923
0.750822
0.743863
0.737595
0.732758
0.729841
0.729553
0.732127
0.736727
0.742825
0.749904
0.756923
0.761792
0.761661
0.754981
0.746079
0.714041
0.720273
0.724767
0.72863
0.731566
0.732499
0.731388
0.729233
0.727209
0.726312
0.727283
0.729685
0.732533
0.734775
0.735277
0.733475
0.730099
0.726079
0.721294
0.717577
0.709766
0.71253
0.715129
0.717277
0.719
0.720549
0.721626
0.721943
0.72178
0.721816
0.722553
0.723639
0.724338
0.724157
0.723159
0.721788
0.720107
0.717796
0.715381
0.713814
0.704747
0.70617
0.708002
0.71007
0.711766
0.713037
0.714105
0.715044
0.715797
0.716462
0.717097
0.717493
0.717469
0.717069
0.716375
0.715241
0.71357
0.711665
0.710307
0.709505
0.699803
0.700705
0.701942
0.703555
0.705229
0.706736
0.707985
0.709059
0.71006
0.710994
0.711692
0.712009
0.711962
0.711552
0.710717
0.709506
0.708127
0.706849
0.706022
0.705498
0.694954
0.695608
0.69656
0.697861
0.699285
0.700772
0.702217
0.703526
0.704714
0.705822
0.70667
0.707079
0.70703
0.706542
0.705723
0.704753
0.703738
0.702819
0.702234
0.70185
0.690197
0.690701
0.691476
0.692598
0.693872
0.695254
0.696716
0.698194
0.699621
0.700964
0.701998
0.702503
0.702501
0.702118
0.701508
0.700785
0.70002
0.69934
0.698907
0.698608
0.68548
0.685881
0.68653
0.687529
0.688729
0.690055
0.691506
0.693073
0.694705
0.69632
0.69759
0.698272
0.698449
0.698284
0.697907
0.697398
0.696833
0.696343
0.696022
0.69578
0.680725
0.681052
0.681613
0.682533
0.683684
0.684994
0.686477
0.688138
0.689958
0.691856
0.69344
0.69441
0.694859
0.694947
0.694798
0.694507
0.694133
0.693802
0.693565
0.693362
0.675846
0.676118
0.676618
0.67749
0.678623
0.679958
0.681512
0.683309
0.685351
0.68758
0.68956
0.690903
0.691681
0.692054
0.692152
0.69208
0.691897
0.691705
0.691534
0.69136
0.670756
0.670985
0.671447
0.672302
0.673457
0.674857
0.676526
0.678512
0.680841
0.68348
0.685943
0.687737
0.688899
0.689598
0.689972
0.690129
0.690134
0.69007
0.689954
0.6898
0.665366
0.665561
0.666005
0.666872
0.668088
0.669598
0.671436
0.67368
0.676382
0.679538
0.682586
0.684912
0.68652
0.68759
0.688272
0.688671
0.688881
0.688934
0.688864
0.688724
0.659575
0.659744
0.660185
0.661094
0.662413
0.664085
0.666159
0.668742
0.671917
0.67571
0.67947
0.682432
0.684565
0.686062
0.687094
0.687781
0.688192
0.688359
0.688329
0.688197
0.65327
0.653417
0.653871
0.65485
0.656317
0.658212
0.660602
0.663623
0.667394
0.671974
0.676596
0.680316
0.683068
0.685062
0.686491
0.687491
0.68813
0.688416
0.688423
0.688296
0.646312
0.646435
0.646918
0.647999
0.649664
0.651853
0.654647
0.658217
0.662727
0.668269
0.673936
0.678568
0.682056
0.68464
0.686538
0.687899
0.688789
0.689197
0.689238
0.689112
0.638524
0.638625
0.639152
0.640369
0.642294
0.644859
0.648166
0.652427
0.657852
0.664567
0.671498
0.677221
0.681581
0.684856
0.687312
0.689093
0.690268
0.690805
0.690877
0.69075
0.629673
0.629778
0.630355
0.631743
0.634003
0.637047
0.641002
0.646131
0.652691
0.660845
0.669293
0.676314
0.681704
0.685794
0.68891
0.691182
0.692676
0.69335
0.693452
0.693319
0.619456
0.619547
0.620214
0.621837
0.624532
0.62819
0.632972
0.639201
0.64718
0.657095
0.667363
0.67591
0.682503
0.68755
0.691426
0.694271
0.696128
0.696948
0.697077
0.696936
0.60751
0.607585
0.608356
0.610291
0.613546
0.617998
0.62384
0.631459
0.641207
0.653281
0.665721
0.676052
0.684049
0.690215
0.694971
0.698486
0.70074
0.701707
0.701859
0.701705
0.593289
0.593357
0.594273
0.59662
0.600607
0.6061
0.613324
0.622723
0.634681
0.649376
0.664403
0.676819
0.68643
0.693874
0.699652
0.703917
0.706598
0.707711
0.707879
0.707708
0.576026
0.576087
0.577215
0.580144
0.585134
0.592034
0.601096
0.612819
0.627575
0.645464
0.663516
0.678307
0.689735
0.698629
0.705542
0.71064
0.713767
0.715009
0.71518
0.714991
0.554581
0.554646
0.556116
0.559915
0.56635
0.575232
0.586817
0.601617
0.619915
0.641646
0.663178
0.680624
0.694062
0.704551
0.712694
0.718692
0.722244
0.723581
0.723738
0.723527
0.527205
0.527299
0.529357
0.53456
0.543216
0.555014
0.570161
0.589058
0.611792
0.638074
0.663521
0.683861
0.69947
0.711665
0.72114
0.72803
0.731938
0.733311
0.733434
0.733201
0.49086
0.491074
0.494335
0.502127
0.514534
0.530811
0.551042
0.575332
0.603482
0.63499
0.664751
0.688166
0.706034
0.719998
0.730833
0.738527
0.742654
0.743975
0.744037
0.743785
0.439775
0.440841
0.447314
0.460447
0.479402
0.502607
0.529868
0.560973
0.595521
0.632848
0.667147
0.693698
0.713821
0.729502
0.741627
0.749952
0.754073
0.755235
0.75522
0.754953
0.365577
0.372874
0.387719
0.410631
0.439378
0.47186
0.507679
0.546577
0.588171
0.631819
0.671059
0.70104
0.723655
0.741253
0.754639
0.763413
0.76742
0.768404
0.768336
0.768101
0.286592
0.302562
0.32668
0.360155
0.399188
0.441101
0.485549
0.532452
0.581545
0.632257
0.677365
0.711638
0.737405
0.757347
0.772228
0.781339
0.785009
0.785749
0.785697
0.785557
0.218942
0.238462
0.270338
0.312925
0.361144
0.411956
0.464822
0.51961
0.576035
0.633548
0.684223
0.72249
0.751175
0.773207
0.789188
0.79833
0.80167
0.802291
0.802278
0.802194
0.163568
0.185299
0.222528
0.271655
0.327073
0.385357
0.445664
0.507699
0.571029
0.635029
0.691007
0.733029
0.764352
0.788221
0.805249
0.814665
0.818043
0.818699
0.818709
0.818659
0.117642
0.140699
0.181811
0.236055
0.297241
0.361698
0.428386
0.496875
0.566545
0.636598
0.697585
0.74318
0.77701
0.802648
0.82078
0.830825
0.834457
0.835101
0.835146
0.835124
0.0785577
0.102425
0.146417
0.204829
0.270884
0.340619
0.412835
0.487023
0.56244
0.638142
0.703872
0.75291
0.789183
0.816571
0.835869
0.846635
0.850571
0.851289
0.851364
0.851364
0.0442996
0.0687265
0.114983
0.176851
0.247063
0.321393
0.398517
0.477865
0.558588
0.639589
0.709825
0.762093
0.800713
0.829768
0.850173
0.861599
0.865904
0.866764
0.866871
0.866878
0.0133872
0.0382844
0.0864169
0.151228
0.225043
0.303415
0.384964
0.46905
0.554708
0.640711
0.715234
0.770592
0.811386
0.841967
0.863387
0.875412
0.880063
0.881102
0.881217
0.881223
-0.0151782
0.0101592
0.0598985
0.127288
0.204267
0.286222
0.371761
0.460202
0.550503
0.641289
0.719961
0.77829
0.821102
0.853081
0.875364
0.887902
0.892845
0.89402
0.894135
0.894128
-0.0421841
-0.01636
0.0348395
0.104533
0.184305
0.269457
0.35861
0.451077
0.545768
0.641164
0.723908
0.785143
0.829901
0.863155
0.886159
0.89905
0.904182
0.905436
0.905542
0.905515
-0.067995
-0.0417082
0.0108426
0.0825946
0.164857
0.252882
0.345322
0.441505
0.540333
0.640219
0.727016
0.791161
0.837837
0.872263
0.895863
0.908967
0.914163
0.915449
0.915528
0.915474
-0.093027
-0.0661906
-0.0123898
0.0612244
0.145722
0.236329
0.331764
0.431374
0.534094
0.638359
0.729242
0.796374
0.845005
0.880542
0.904593
0.917777
0.922978
0.924256
0.924319
0.924241
-0.117401
-0.0900038
-0.0350215
0.0402768
0.126775
0.219706
0.317857
0.420625
0.527002
0.635516
0.730544
0.800822
0.851512
0.888165
0.912594
0.925742
0.93085
0.932064
0.932107
0.932011
-0.141227
-0.113256
-0.057157
0.0196754
0.107965
0.202978
0.30358
0.409233
0.519026
0.63164
0.730878
0.80453
0.857471
0.895299
0.920031
0.933005
0.937931
0.939043
0.939029
0.938906
-0.164598
-0.136021
-0.0788365
-0.000600411
0.0892742
0.186148
0.288951
0.397217
0.510164
0.626699
0.730196
0.807489
0.862972
0.902105
0.927041
0.939681
0.944279
0.945221
0.945147
0.945004
-0.187553
-0.158292
-0.100059
-0.0205493
0.0707338
0.169248
0.274014
0.384621
0.500444
0.620667
0.728435
0.809647
0.868073
0.908769
0.933825
0.945881
0.949965
0.950664
0.950532
0.950379
-0.209938
-0.18003
-0.120794
-0.0401544
0.0523786
0.152344
0.25883
0.371518
0.489922
0.613564
0.725529
0.810912
0.872763
0.915468
0.940694
0.951876
0.95512
0.955442
0.955243
0.955094
-0.231715
-0.201192
-0.141024
-0.0593648
0.0342683
0.135499
0.243491
0.357984
0.478675
0.605411
0.721423
0.811161
0.876946
0.922297
0.948073
0.958198
0.96006
0.959648
0.959333
0.959232
-0.252942
-0.221742
-0.160716
-0.0781442
0.0164686
0.118797
0.228086
0.344122
0.466792
0.596266
0.716058
0.810266
0.880422
0.929139
0.956335
0.965773
0.965703
0.963691
0.962888
0.963011
-0.273453
-0.24165
-0.179811
-0.0964241
-0.00095973
0.102326
0.212714
0.330042
0.454387
0.586223
0.709406
0.808072
0.882918
0.935584
0.965428
0.975617
0.974122
0.969505
0.966295
0.96481
-0.293344
-0.260916
-0.198313
-0.114232
-0.0180497
0.0860453
0.197322
0.315686
0.441388
0.575215
0.701309
0.804323
0.884161
0.941078
0.97464
0.987881
0.987451
0.980798
0.970823
0.970718
-0.312523
-0.27961
-0.216357
-0.131764
-0.0350979
0.0696179
0.181492
0.300562
0.427242
0.562602
0.691091
0.798233
0.883636
0.944898
0.982227
1.0001
1.00172
0.991408
0.973318
0.970536
-0.33085
-0.297689
-0.233768
-0.148823
-0.0518412
0.0533491
0.165435
0.284994
0.412245
0.548631
0.67882
0.78917
0.880572
0.945874
0.983996
1.00202
1.00652
0.982585
0.924489
0.899203
-0.348198
-0.315982
-0.250138
-0.164935
-0.0675348
0.0377232
0.149429
0.269259
0.396681
0.533473
0.664571
0.776566
0.873995
0.943222
0.975269
0.987975
0.977596
0.927738
0.866079
0.828408
-0.391972
-0.333707
-0.265272
-0.180871
-0.0829416
0.0217996
0.133611
0.253234
0.380347
0.516784
0.647968
0.759834
0.860145
0.934472
0.954283
0.944691
0.900401
0.837118
0.768904
0.731454
-0.367032
-0.348738
-0.28832
-0.203484
-0.106606
-0.00210029
0.108985
0.227912
0.354029
0.488903
0.61846
0.727996
0.819436
0.900776
0.887278
0.782476
0.694321
0.632985
0.569895
0.597725
-0.39857
-0.366758
-0.30549
-0.22115
-0.124542
-0.0202557
0.0909765
0.209222
0.334268
0.467298
0.594144
0.700072
0.781068
0.82684
0.778481
0.642246
0.535538
0.463567
0.382339
0.428757
-0.423144
-0.388837
-0.325733
-0.241269
-0.144731
-0.0404791
0.0706319
0.188067
0.311717
0.442305
0.565295
0.665198
0.734961
0.743177
0.640118
0.487681
0.360725
0.269823
0.175216
0.207385
-0.447137
-0.411697
-0.347138
-0.261973
-0.165323
-0.0611805
0.0494291
0.165895
0.287926
0.415672
0.533841
0.625726
0.679082
0.654917
0.500241
0.325677
0.167688
0.0353545
-0.0879522
-0.0745692
-0.470892
-0.434995
-0.369461
-0.28366
-0.186821
-0.0828684
0.0271024
0.142452
0.262586
0.387084
0.499601
0.583707
0.616683
0.548515
0.362819
0.168027
-0.0172717
-0.169665
-0.374138
-0.453036
-0.495093
-0.459194
-0.393056
-0.306776
-0.209724
-0.105912
0.00348816
0.117693
0.235808
0.356796
0.463245
0.538386
0.546331
0.426883
0.237653
0.0307592
-0.159544
-0.320131
-0.443207
-0.56156
-0.520831
-0.48479
-0.418289
-0.331717
-0.234582
-0.131005
-0.0222696
0.0906148
0.206367
0.323295
0.423291
0.486136
0.467131
0.311399
0.120642
-0.0802685
-0.253867
-0.350116
-0.37614
-0.389645
-0.548242
-0.512076
-0.445298
-0.358588
-0.261551
-0.15838
-0.0505521
0.0607017
0.173641
0.285779
0.378878
0.424416
0.386841
0.200621
0.0117226
-0.168865
-0.299728
-0.337222
-0.346113
-0.346441
-0.577611
-0.541182
-0.474126
-0.38738
-0.290584
-0.188046
-0.0813884
0.0278928
0.137552
0.244211
0.329405
0.359302
0.290833
0.0994788
-0.08343
-0.24022
-0.313176
-0.327156
-0.328287
-0.328148
-0.608955
-0.572149
-0.504791
-0.418092
-0.321701
-0.220002
-0.114794
-0.00783735
0.0981061
0.198684
0.274692
0.290395
0.184125
0.00794158
-0.165311
-0.289434
-0.317214
-0.317818
-0.318349
-0.317944
-0.642021
-0.604803
-0.537191
-0.450643
-0.354817
-0.254198
-0.150747
-0.046476
0.0553612
0.149294
0.215936
0.212879
0.08926
-0.0765465
-0.229882
-0.300209
-0.31458
-0.312158
-0.311705
-0.31127
-0.676238
-0.6388
-0.571062
-0.484802
-0.389744
-0.290476
-0.189101
-0.0879099
0.00953139
0.0964207
0.153448
0.134501
0.00145098
-0.150803
-0.27149
-0.308299
-0.307345
-0.307533
-0.307077
-0.306633
-0.711164
-0.673602
-0.605914
-0.520142
-0.42612
-0.32851
-0.229571
-0.131866
-0.0391243
0.0409795
0.0857838
0.0607147
-0.0787443
-0.208155
-0.293415
-0.301792
-0.304139
-0.304974
-0.304797
-0.304483
-0.745834
-0.708305
-0.640984
-0.556008
-0.463378
-0.367811
-0.271692
-0.177861
-0.0902036
-0.016202
0.0181217
-0.0144775
-0.148619
-0.252907
-0.296983
-0.30803
-0.304176
-0.302678
-0.301961
-0.301741
-0.778313
-0.741584
-0.675222
-0.591487
-0.500716
-0.407658
-0.314794
-0.225174
-0.142934
-0.0748135
-0.0447448
-0.0928283
-0.209842
-0.298106
-0.315074
-0.311716
-0.304537
-0.298616
-0.296929
-0.296499
-0.807551
-0.77191
-0.70719
-0.625348
-0.537049
-0.447079
-0.358002
-0.27289
-0.19615
-0.134133
-0.106508
-0.159717
-0.259041
-0.335953
-0.352761
-0.330047
-0.308958
-0.297787
-0.29452
-0.293321
-0.83076
-0.797115
-0.735088
-0.656028
-0.571028
-0.484855
-0.400195
-0.319933
-0.248767
-0.191876
-0.16872
-0.208351
-0.290046
-0.353969
-0.350652
-0.344061
-0.335887
-0.328653
-0.3229
-0.319913
-0.845776
-0.814987
-0.756773
-0.681719
-0.601082
-0.519573
-0.439993
-0.36511
-0.29969
-0.245664
-0.224338
-0.24602
-0.285427
-0.355742
-0.351511
-0.367061
-0.384501
-0.381906
-0.374193
-0.372045
-0.849836
-0.823049
-0.770058
-0.700503
-0.625498
-0.549774
-0.475864
-0.407086
-0.347175
-0.29642
-0.267078
-0.282818
-0.246441
-0.284372
-0.307576
-0.34299
-0.365712
-0.372019
-0.373288
-0.37469
-0.84059
-0.818768
-0.772748
-0.710539
-0.642703
-0.574018
-0.506525
-0.444115
-0.389541
-0.346435
-0.297437
-0.31672
-0.246614
-0.140533
-0.250351
-0.320564
-0.354071
-0.373359
-0.3829
-0.385744
-0.815257
-0.799195
-0.762809
-0.710522
-0.651593
-0.591077
-0.531129
-0.474497
-0.426896
-0.391631
-0.347461
-0.384343
-0.413085
-0.378546
-0.409805
-0.45246
-0.471385
-0.476731
-0.478121
-0.47909
-0.777274
-0.767017
-0.741213
-0.700594
-0.652032
-0.600491
-0.548738
-0.498188
-0.456356
-0.428844
-0.421027
-0.49748
-0.687145
-0.803992
-0.719698
-0.650298
-0.623767
-0.602025
-0.589639
-0.586245
-0.73374
-0.727974
-0.71293
-0.683758
-0.645868
-0.603111
-0.558375
-0.514997
-0.475773
-0.455816
-0.448626
-0.571019
-0.697268
-0.880877
-0.773827
-0.659586
-0.610655
-0.570089
-0.549026
-0.548586
-0.694891
-0.691496
-0.684362
-0.665363
-0.636126
-0.600396
-0.561728
-0.521604
-0.485242
-0.459528
-0.448455
-0.473873
-0.452255
-0.47461
-0.601824
-0.684351
-0.700026
-0.62901
-0.538265
-0.520017
-0.666909
-0.664965
-0.661371
-0.649735
-0.626908
-0.595719
-0.559819
-0.520959
-0.482313
-0.448071
-0.449783
-0.406504
-0.342464
-0.320914
-0.27048
-0.316494
-0.356488
-0.354625
-0.315993
-0.297584
-0.645967
-0.645235
-0.644048
-0.638235
-0.62081
-0.592202
-0.555921
-0.514935
-0.468977
-0.429852
-0.406175
-0.366826
-0.211483
-0.0648013
0.0492841
0.0745488
0.0669533
0.0215799
0.00165007
-0.00185467
-0.633881
-0.633549
-0.632937
-0.630394
-0.617951
-0.590161
-0.550643
-0.503136
-0.452933
-0.392723
-0.329725
-0.265326
-0.113487
0.00285058
0.0577266
0.084592
0.0838623
0.117033
0.163084
0.184064
-0.626372
-0.626194
-0.625893
-0.625625
-0.61777
-0.589833
-0.545509
-0.492484
-0.427333
-0.346173
-0.262051
-0.112822
0.0257414
0.136681
0.226375
0.273095
0.354774
0.519247
0.651675
0.707125
-0.621029
-0.62151
-0.622598
-0.6241
-0.618158
-0.590004
-0.542225
-0.481763
-0.403596
-0.31007
-0.199753
-0.0485895
0.192673
0.447732
0.691275
0.930572
1.16333
1.35644
1.47024
1.50951
-0.612047
-0.613014
-0.61471
-0.615702
-0.610588
-0.586305
-0.542453
-0.479585
-0.394802
-0.281111
-0.163804
-0.0415289
0.202119
0.482007
0.877807
1.24685
1.53138
1.72632
1.81304
1.83651
-0.613699
-0.612385
-0.603824
-0.588864
-0.581818
-0.57895
-0.553353
-0.488075
-0.391394
-0.272185
-0.145127
-0.0226662
0.170269
0.48238
0.832627
1.16092
1.41741
1.56911
1.63177
1.64698
-0.653944
-0.649044
-0.63309
-0.609679
-0.599849
-0.610095
-0.589762
-0.505285
-0.392941
-0.272686
-0.146406
-0.0291858
0.0986048
0.338713
0.651018
0.914885
1.1132
1.21942
1.26081
1.26908
-0.744026
-0.744844
-0.755833
-0.773009
-0.768863
-0.749147
-0.665363
-0.52943
-0.395621
-0.273941
-0.151913
-0.0528513
0.0449401
0.208626
0.440172
0.633259
0.775935
0.848401
0.87581
0.878348
-0.865594
-0.882304
-0.920695
-0.949541
-0.944425
-0.888989
-0.734857
-0.547785
-0.397669
-0.268849
-0.163992
-0.0813985
-0.0166728
0.109688
0.263696
0.386379
0.476816
0.520437
0.533693
0.536257
-0.896479
-0.917641
-0.951455
-0.976133
-0.969262
-0.896004
-0.709543
-0.526018
-0.380768
-0.260246
-0.170766
-0.106298
-0.0617817
0.0144039
0.115463
0.191556
0.236769
0.252971
0.260071
0.260834
-0.737397
-0.757285
-0.791036
-0.820754
-0.816466
-0.734034
-0.581597
-0.447039
-0.324744
-0.233682
-0.16988
-0.125577
-0.093606
-0.0427936
0.0124617
0.0488555
0.0631494
0.0683274
0.0730753
0.074728
-0.412958
-0.428936
-0.457458
-0.487513
-0.495238
-0.456028
-0.389069
-0.314184
-0.243445
-0.191597
-0.157983
-0.13139
-0.126023
-0.0769081
-0.0321436
-0.013662
-0.0122849
-0.0113643
-0.00921867
-0.0077957
-0.0839125
-0.0919304
-0.110353
-0.138161
-0.165533
-0.180128
-0.184249
-0.176214
-0.161484
-0.13871
-0.130286
-0.135194
-0.143847
-0.109619
-0.0718496
-0.044329
-0.0287535
-0.0204421
-0.0176171
-0.0174137
0.117965
0.114405
0.102294
0.0759476
0.0360119
-0.00908643
-0.0458772
-0.0727507
-0.0864301
-0.0869656
-0.0965868
-0.115727
-0.129229
-0.0821596
-0.042673
-0.0265396
-0.0143597
-0.00929709
-0.00801674
-0.00823719
0.192217
0.190064
0.181104
0.159077
0.122457
0.0770543
0.0328564
-0.00274492
-0.0274693
-0.0407797
-0.0511724
-0.0623562
-0.0655151
-0.0378236
-0.0113859
0.000131941
0.00752019
0.0104731
0.0112187
0.0105258
0.198894
0.197434
0.191232
0.175533
0.148386
0.11344
0.0760267
0.0421904
0.0166841
0.00330635
-0.000171915
0.00480746
0.0195949
0.0294902
0.032867
0.0323113
0.0326941
0.0331335
0.0331267
0.0326704
0.18045
0.179571
0.175612
0.165334
0.146982
0.122039
0.0940175
0.06761
0.0472333
0.0393794
0.0465221
0.0679603
0.0900635
0.0923304
0.0840758
0.0750877
0.0696316
0.0671269
0.0660122
0.0652122
0.15505
0.154584
0.152204
0.145786
0.133932
0.117208
0.0976181
0.0786065
0.0644319
0.0632276
0.0803774
0.112238
0.140224
0.133342
0.116209
0.105006
0.100397
0.0989026
0.0980096
0.0970249
0.128978
0.128837
0.1275
0.123661
0.11626
0.105512
0.0924356
0.0797686
0.0710739
0.0739596
0.0961877
0.132482
0.161919
0.151103
0.13156
0.121733
0.11915
0.11882
0.117756
0.116384
0.104527
0.104447
0.103705
0.10146
0.0969164
0.0900757
0.0814707
0.0729311
0.0673428
0.0707787
0.0909155
0.123699
0.148468
0.135176
0.119914
0.115092
0.114381
0.114658
0.113421
0.112127
0.0819687
0.0819842
0.0815805
0.0802923
0.0775376
0.0731512
0.0673433
0.0610664
0.0559721
0.0558416
0.0654521
0.0840076
0.0962138
0.0855318
0.077826
0.0811669
0.0861207
0.0882297
0.0876203
0.0864637
0.0614993
0.0615261
0.061306
0.0606163
0.0589661
0.0561283
0.0519748
0.0466725
0.040353
0.0332859
0.0248929
0.0160503
0.00508534
0.00170931
0.0127989
0.0286352
0.0391522
0.0428023
0.0425456
0.0416187
0.0433176
0.0433365
0.0432174
0.0428243
0.0418926
0.0400417
0.0369703
0.0320201
0.0244543
0.0100866
-0.0181136
-0.061532
-0.100279
-0.0921544
-0.0589855
-0.0316099
-0.0175988
-0.0143341
-0.0137699
-0.0138543
0.0274295
0.0274269
0.0273509
0.0272098
0.0267698
0.0257196
0.0236521
0.0197275
0.0117001
-0.00566414
-0.0444001
-0.110234
-0.15157
-0.12996
-0.0899671
-0.0661545
-0.0590724
-0.0571049
-0.0552878
-0.0543988
0.0138802
0.01386
0.0138202
0.01383
0.0137598
0.0132699
0.0119458
0.00940325
0.00430435
-0.00912587
-0.0401193
-0.0939439
-0.116873
-0.0928729
-0.0672041
-0.0580444
-0.0578684
-0.0593542
-0.0576827
-0.0565427
0.00244991
0.00245078
0.00242707
0.00246204
0.00263542
0.0027468
0.00267431
0.00233538
0.00155793
-5.24636e-05
-0.00562027
-0.0166477
-0.0281639
-0.022838
-0.022478
-0.0222587
-0.0225881
-0.0200895
-0.0174568
-0.0158336
0.0586791
0.248385
0.423043
0.571377
0.690961
0.786137
0.865701
0.930354
0.946946
0.943145
0.35158
0.474036
0.589002
0.68908
0.773529
0.843425
0.898563
0.935824
0.955721
0.972224
0.551015
0.632986
0.713928
0.784932
0.845527
0.895832
0.935439
0.965576
0.9882
1.00741
0.699125
0.756885
0.814842
0.867105
0.912299
0.950781
0.983052
1.01011
1.03045
1.04934
0.815984
0.859492
0.902597
0.943039
0.979233
1.01119
1.03912
1.06277
1.08076
1.09879
0.913042
0.948889
0.984511
1.01845
1.04971
1.07799
1.10294
1.12385
1.13966
1.15714
1.00184
1.03389
1.06632
1.09766
1.12677
1.15321
1.17638
1.19535
1.2093
1.22632
1.089
1.12164
1.15413
1.18541
1.21424
1.24008
1.26225
1.2798
1.29221
1.30874
1.18351
1.21996
1.25476
1.28727
1.31648
1.34187
1.36301
1.37932
1.39096
1.4071
1.29665
1.33725
1.3743
1.40729
1.43581
1.45982
1.47946
1.49475
1.50666
1.52274
1.43807
1.47916
1.51443
1.54404
1.56926
1.59089
1.6094
1.62489
1.63802
1.65397
1.60964
1.64205
1.66894
1.69126
1.71136
1.73009
1.74783
1.76461
1.77953
1.79525
1.79598
1.81326
1.83039
1.84707
1.86317
1.87791
1.89182
1.9063
1.92154
1.93884
1.97938
1.98936
2.00256
2.01355
2.02295
2.03261
2.04323
2.05341
2.0627
2.08836
2.19728
2.19158
2.17864
2.16438
2.15809
2.1638
2.18194
2.21047
2.24423
2.28056
2.5001
2.36415
2.28464
2.24213
2.22481
2.22879
2.25622
2.31409
2.42175
2.60016
0.809701
0.803398
0.795666
0.784548
0.770972
0.758316
0.747909
0.739883
0.734148
0.730795
0.73042
0.733234
0.738451
0.745798
0.75534
0.767165
0.780724
0.793651
0.802639
0.810179
0.718777
0.724696
0.732766
0.738894
0.741957
0.741438
0.738342
0.734332
0.730725
0.728419
0.728262
0.730495
0.734234
0.738669
0.742764
0.745004
0.743927
0.739288
0.732232
0.724398
0.712038
0.71441
0.717675
0.720443
0.722888
0.725069
0.726237
0.726075
0.725118
0.724288
0.724479
0.725873
0.727639
0.728857
0.728774
0.727301
0.725139
0.722775
0.71979
0.716771
0.707266
0.708354
0.710268
0.712601
0.714466
0.715855
0.71706
0.718036
0.718614
0.718967
0.719496
0.720217
0.720668
0.720538
0.7199
0.718971
0.717635
0.715662
0.713552
0.712073
0.702265
0.702899
0.704025
0.705776
0.707612
0.709194
0.710431
0.711475
0.712432
0.713301
0.714059
0.714555
0.714675
0.714454
0.713907
0.712925
0.711491
0.709876
0.708536
0.707733
0.697368
0.697808
0.698594
0.699891
0.701403
0.702954
0.704415
0.705689
0.706815
0.707868
0.708787
0.709362
0.70952
0.709267
0.70859
0.707581
0.70642
0.70527
0.704362
0.703828
0.692569
0.692897
0.693506
0.694569
0.695854
0.697239
0.698698
0.700146
0.701503
0.702766
0.703874
0.704586
0.704786
0.704522
0.703909
0.703112
0.702256
0.701394
0.700728
0.700335
0.687841
0.688096
0.688587
0.689491
0.690651
0.691942
0.693342
0.694839
0.69638
0.697895
0.699244
0.700121
0.700431
0.700307
0.699904
0.699342
0.698696
0.698059
0.697572
0.697272
0.683117
0.683319
0.683727
0.684521
0.685602
0.686845
0.688227
0.689765
0.691442
0.693198
0.694832
0.695962
0.6965
0.696614
0.696446
0.696104
0.695662
0.695214
0.694865
0.694629
0.678311
0.678474
0.678824
0.679543
0.680577
0.681799
0.683209
0.684827
0.686655
0.68866
0.690632
0.692116
0.692973
0.693372
0.693453
0.693337
0.693104
0.692827
0.692593
0.692404
0.673337
0.67347
0.673778
0.674452
0.675468
0.676714
0.67819
0.679933
0.681967
0.684278
0.686663
0.688584
0.689824
0.690552
0.690915
0.691038
0.691012
0.690899
0.690761
0.690609
0.668109
0.668217
0.668497
0.669153
0.670186
0.671498
0.673083
0.675003
0.677307
0.680011
0.682905
0.685351
0.687042
0.68815
0.688834
0.689219
0.689402
0.689457
0.689404
0.689279
0.662532
0.662618
0.662883
0.663543
0.66463
0.66605
0.6678
0.669965
0.672625
0.675823
0.679344
0.682421
0.684643
0.68619
0.68723
0.687919
0.68834
0.688546
0.688568
0.688465
0.6565
0.656567
0.656825
0.657513
0.65869
0.660266
0.662245
0.664737
0.667852
0.671669
0.675956
0.679792
0.682645
0.684703
0.686154
0.68718
0.68786
0.688233
0.688326
0.68824
0.649884
0.649933
0.650194
0.650934
0.652239
0.654027
0.656311
0.659223
0.662912
0.66749
0.672711
0.677463
0.681068
0.683733
0.685663
0.687065
0.688044
0.688596
0.688759
0.688686
0.642534
0.642564
0.642833
0.643646
0.645125
0.647191
0.649864
0.653308
0.657712
0.663232
0.669589
0.675439
0.679938
0.683318
0.685817
0.687672
0.688986
0.689731
0.689964
0.689902
0.634253
0.634272
0.634543
0.635456
0.637163
0.639583
0.642752
0.646865
0.652158
0.658831
0.666566
0.673741
0.679305
0.68353
0.686701
0.689093
0.69079
0.691746
0.69205
0.691996
0.624735
0.62473
0.625056
0.626112
0.628114
0.630988
0.634787
0.63975
0.646162
0.654267
0.663673
0.672419
0.679236
0.684448
0.688406
0.691427
0.693564
0.694753
0.69513
0.69508
0.613698
0.613669
0.614044
0.61529
0.617666
0.621129
0.625737
0.631777
0.639595
0.649466
0.660896
0.671503
0.679786
0.68616
0.691042
0.694784
0.697429
0.69887
0.699318
0.699269
0.600663
0.600613
0.601064
0.60256
0.60542
0.609648
0.615305
0.622729
0.632319
0.644376
0.658247
0.671045
0.681029
0.688744
0.694703
0.699278
0.702489
0.704196
0.704709
0.704655
0.584985
0.584913
0.585486
0.587331
0.590838
0.596083
0.603128
0.612356
0.624202
0.638957
0.655754
0.671115
0.683053
0.692288
0.699478
0.704993
0.708826
0.710802
0.711371
0.711306
0.565728
0.565637
0.566409
0.56876
0.573178
0.579839
0.588781
0.600422
0.615194
0.633299
0.653557
0.671843
0.685963
0.696898
0.705439
0.711997
0.716487
0.718713
0.719316
0.719233
0.541482
0.541389
0.542491
0.545627
0.551415
0.560145
0.571777
0.586699
0.605254
0.627474
0.651765
0.67332
0.689841
0.70263
0.712626
0.720314
0.725447
0.727872
0.728476
0.728367
0.509936
0.509887
0.51159
0.516078
0.524148
0.53609
0.551678
0.571125
0.594532
0.621683
0.650566
0.6757
0.69478
0.709533
0.721073
0.729895
0.735581
0.73811
0.738671
0.738529
0.466954
0.467102
0.470105
0.477397
0.489731
0.50696
0.528406
0.553955
0.583408
0.616315
0.650264
0.679183
0.700888
0.717636
0.730719
0.740612
0.746661
0.749131
0.749595
0.749419
0.404855
0.406155
0.41344
0.427175
0.447304
0.472928
0.502639
0.535944
0.572519
0.611835
0.651148
0.683929
0.708252
0.726911
0.7414
0.752135
0.758278
0.760462
0.760765
0.760571
0.330625
0.333176
0.347326
0.370967
0.401762
0.437349
0.476035
0.517564
0.56174
0.608123
0.653713
0.691325
0.719101
0.740325
0.756612
0.768162
0.774335
0.776383
0.776655
0.77656
0.254579
0.261399
0.282647
0.316216
0.357407
0.402714
0.450386
0.500245
0.552167
0.605752
0.657744
0.700293
0.7316
0.755465
0.773638
0.785951
0.791821
0.793448
0.793645
0.793618
0.192587
0.201245
0.227095
0.267712
0.3171
0.370686
0.426477
0.484141
0.543435
0.603905
0.662023
0.709245
0.743813
0.770045
0.789667
0.802494
0.808314
0.809817
0.810067
0.810098
0.141796
0.151164
0.180522
0.226394
0.281957
0.34217
0.404807
0.469367
0.535433
0.602382
0.666294
0.717944
0.755557
0.783954
0.805098
0.818549
0.824455
0.826183
0.826528
0.8266
0.0992317
0.10891
0.140673
0.190659
0.251292
0.317029
0.385478
0.456048
0.528175
0.601073
0.670421
0.726292
0.766841
0.797341
0.819913
0.834253
0.84066
0.842643
0.843028
0.843115
0.0624441
0.0722685
0.105846
0.159135
0.224009
0.294485
0.367995
0.443872
0.521473
0.599884
0.674375
0.734242
0.777631
0.810166
0.834178
0.849471
0.856427
0.858595
0.859021
0.859103
0.0297719
0.0396621
0.0746789
0.130705
0.199184
0.273762
0.35176
0.432449
0.515097
0.598654
0.677999
0.741669
0.787709
0.822165
0.847527
0.863679
0.871209
0.873591
0.874039
0.874103
-2.22584e-05
0.00992112
0.0461107
0.104506
0.176111
0.254289
0.336292
0.421364
0.508685
0.597094
0.681084
0.748409
0.796953
0.833172
0.859715
0.876626
0.884677
0.887253
0.88772
0.887763
-0.0278662
-0.0178529
0.019398
0.0798983
0.154262
0.235619
0.321204
0.410272
0.50196
0.594994
0.683483
0.754362
0.805318
0.843162
0.870784
0.888273
0.896701
0.899424
0.899904
0.899922
-0.0543111
-0.0442065
-0.00596727
0.0564277
0.13323
0.217417
0.306238
0.398965
0.494724
0.592187
0.685078
0.759491
0.812814
0.852205
0.880761
0.898726
0.90731
0.910127
0.910614
0.910603
-0.0797915
-0.0695261
-0.030359
0.0337608
0.11274
0.199467
0.291214
0.387294
0.486844
0.588541
0.6858
0.763779
0.819499
0.860402
0.889763
0.908046
0.916688
0.919496
0.919977
0.919949
-0.104578
-0.0940748
-0.0540191
0.0116861
0.0926215
0.181619
0.276014
0.375163
0.478238
0.583984
0.685581
0.767221
0.825444
0.86788
0.897966
0.916434
0.925051
0.927807
0.928247
0.928182
-0.128759
-0.117995
-0.0770842
-0.00992243
0.0727703
0.163809
0.260586
0.36253
0.468871
0.578461
0.684356
0.769814
0.830724
0.874782
0.905579
0.924127
0.932592
0.935232
0.935614
0.935528
-0.152431
-0.141399
-0.0996548
-0.0311156
0.05315
0.146007
0.244922
0.349394
0.458735
0.571951
0.682076
0.771534
0.835398
0.881251
0.912752
0.931236
0.939441
0.941885
0.942173
0.942051
-0.175613
-0.164305
-0.121733
-0.051914
0.033763
0.128229
0.229054
0.33579
0.447855
0.564445
0.678698
0.772325
0.839482
0.887422
0.919666
0.937902
0.945637
0.947785
0.947953
0.9478
-0.198362
-0.186708
-0.143289
-0.0723008
0.0146252
0.110514
0.213027
0.321781
0.436286
0.555964
0.674183
0.772107
0.842937
0.893409
0.926556
0.944349
0.951328
0.953001
0.953021
0.952849
-0.220446
-0.208557
-0.164303
-0.0922532
-0.00421304
0.0929359
0.196912
0.307436
0.424101
0.546563
0.668507
0.770791
0.845668
0.899247
0.933699
0.950994
0.956809
0.957662
0.957436
0.95726
-0.242022
-0.229793
-0.184743
-0.111741
-0.0227144
0.0755382
0.180803
0.292841
0.411387
0.536321
0.66167
0.768276
0.847528
0.904823
0.941297
0.958464
0.962761
0.962115
0.961278
0.961118
-0.262901
-0.250374
-0.204584
-0.130711
-0.0407955
0.0584097
0.164787
0.278118
0.398253
0.525305
0.653699
0.764462
0.848331
0.909856
0.949259
0.967399
0.970553
0.967649
0.965097
0.964532
-0.283182
-0.270322
-0.223767
-0.149101
-0.0584151
0.0416212
0.148952
0.263351
0.384807
0.513654
0.644656
0.759242
0.847871
0.913929
0.956999
0.977789
0.981704
0.977307
0.971095
0.961998
-0.302746
-0.289628
-0.242383
-0.167077
-0.0757964
0.0248863
0.132958
0.24813
0.370595
0.500855
0.634017
0.752029
0.845716
0.91671
0.963791
0.98879
0.996277
0.991947
0.981263
0.979497
-0.321548
-0.308368
-0.260423
-0.184577
-0.0929187
0.00823949
0.116838
0.232437
0.355585
0.486788
0.621607
0.742344
0.841137
0.917395
0.967638
0.995964
1.00607
1.00515
0.971429
0.93264
-0.339347
-0.326405
-0.277817
-0.201476
-0.109766
-0.00832876
0.100599
0.216407
0.339848
0.471492
0.607359
0.729854
0.833035
0.915175
0.9666