/*--------------------------------*- C++ -*----------------------------------*\
  =========                 |
  \\      /  F ield         | OpenFOAM: The Open Source CFD Toolbox
   \\    /   O peration     | Website:  https://openfoam.org
    \\  /    A nd           | Version:  6
     \\/     M anipulation  |
\*---------------------------------------------------------------------------*/
FoamFile
{
    version     2.0;
    format      ascii;
    class       volVectorField;
    location    "47";
    object      U;
}
// * * * * * * * * * * * * * * * * * * * * * * * * * * * * * * * * * * * * * //

dimensions      [0 1 -1 0 0 0 0];

internalField   nonuniform List<vector> 
2200
(
(0.877613 -0.0201801 0)
(1.00469 -0.0399852 0)
(1.0028 -0.0342733 0)
(1.00027 -0.0231924 0)
(0.99987 -0.0154745 0)
(1.00003 -0.010121 0)
(1.00001 -0.00641169 0)
(0.999997 -0.00391462 0)
(0.999964 -0.00212943 0)
(1.00011 -0.000688071 0)
(0.999975 0.000934282 0)
(0.999932 0.0023738 0)
(0.999915 0.0041109 0)
(0.999968 0.00654497 0)
(1.00012 0.0103115 0)
(0.999986 0.0156148 0)
(1.00047 0.023276 0)
(1.00301 0.0341949 0)
(1.00471 0.0400353 0)
(0.877641 0.0201942 0)
(0.70083 -0.0265901 0)
(0.993614 -0.0586195 0)
(1.02977 -0.0596827 0)
(1.02183 -0.0488156 0)
(1.01389 -0.0360726 0)
(1.00827 -0.0249884 0)
(1.00504 -0.0167262 0)
(1.00322 -0.0106078 0)
(1.00223 -0.00573243 0)
(1.00174 -0.00153933 0)
(1.00179 0.00245975 0)
(1.00219 0.00658248 0)
(1.00318 0.011442 0)
(1.00502 0.0175574 0)
(1.00806 0.0255906 0)
(1.01357 0.0365866 0)
(1.0214 0.0493125 0)
(1.02933 0.0602928 0)
(0.993499 0.0587397 0)
(0.70056 0.0266263 0)
(0.53041 -0.0214159 0)
(0.966259 -0.0552801 0)
(1.05272 -0.0606385 0)
(1.04842 -0.0533494 0)
(1.03233 -0.0416684 0)
(1.0213 -0.031788 0)
(1.0138 -0.0229337 0)
(1.00908 -0.0153655 0)
(1.00626 -0.00873821 0)
(1.00478 -0.00236719 0)
(1.00472 0.0039771 0)
(1.00608 0.0103231 0)
(1.00885 0.0167728 0)
(1.01349 0.0241412 0)
(1.02098 0.0328441 0)
(1.03216 0.042572 0)
(1.04832 0.0539949 0)
(1.05266 0.0606367 0)
(0.965549 0.0556088 0)
(0.529407 0.0215357 0)
(0.39307 -0.0132626 0)
(0.9098 -0.0453636 0)
(1.05577 -0.0513352 0)
(1.06645 -0.0471914 0)
(1.05109 -0.0388981 0)
(1.03567 -0.0311445 0)
(1.02466 -0.0239814 0)
(1.01706 -0.0169233 0)
(1.01217 -0.00980147 0)
(1.00951 -0.00248037 0)
(1.00948 0.00487403 0)
(1.01197 0.0120571 0)
(1.01659 0.0189439 0)
(1.02398 0.0257737 0)
(1.03486 0.0327072 0)
(1.05008 0.040184 0)
(1.06515 0.0480917 0)
(1.05426 0.052131 0)
(0.907834 0.0458022 0)
(0.390681 0.0134231 0)
(0.309148 -0.00618726 0)
(0.846302 -0.0330473 0)
(1.04816 -0.0428615 0)
(1.07719 -0.0391851 0)
(1.06517 -0.0331031 0)
(1.04863 -0.0271398 0)
(1.03584 -0.0219791 0)
(1.02637 -0.0162893 0)
(1.01983 -0.00972368 0)
(1.01618 -0.00228441 0)
(1.01589 0.0054118 0)
(1.01918 0.012738 0)
(1.02549 0.0190708 0)
(1.03476 0.0244566 0)
(1.0474 0.0292572 0)
(1.06397 0.0348661 0)
(1.07589 0.0405306 0)
(1.04612 0.0439109 0)
(0.842786 0.0335609 0)
(0.305524 0.00634901 0)
(0.265247 -0.00193527 0)
(0.788664 -0.0219484 0)
(1.03196 -0.0338353 0)
(1.08155 -0.0322239 0)
(1.07515 -0.0276895 0)
(1.05875 -0.0227251 0)
(1.04547 -0.0186458 0)
(1.03512 -0.0140488 0)
(1.0275 -0.0084073 0)
(1.02313 -0.00152455 0)
(1.02291 0.00593003 0)
(1.02669 0.0125037 0)
(1.03375 0.0177586 0)
(1.04375 0.0219602 0)
(1.05683 0.0256378 0)
(1.07286 0.0301355 0)
(1.07861 0.0340955 0)
(1.028 0.0351439 0)
(0.782905 0.0225926 0)
(0.260408 0.00214642 0)
(0.240914 -0.000353681 0)
(0.738351 -0.0140263 0)
(1.0128 -0.026738 0)
(1.08243 -0.026596 0)
(1.08114 -0.0231615 0)
(1.06614 -0.0189169 0)
(1.0532 -0.0154643 0)
(1.04296 -0.011479 0)
(1.03524 -0.00656401 0)
(1.0304 -0.000550157 0)
(1.02977 0.00596777 0)
(1.03379 0.0117216 0)
(1.04103 0.0161702 0)
(1.05078 0.0196096 0)
(1.06336 0.022563 0)
(1.07812 0.0261876 0)
(1.07884 0.028932 0)
(1.0072 0.0283774 0)
(0.730061 0.0148405 0)
(0.234655 0.000635746 0)
(0.226004 -5.56137e-05 0)
(0.695072 -0.00923882 0)
(0.991514 -0.0218377 0)
(1.0803 -0.0230906 0)
(1.08534 -0.0201828 0)
(1.07226 -0.016264 0)
(1.05962 -0.0129304 0)
(1.04988 -0.00932622 0)
(1.04254 -0.00492408 0)
(1.03782 0.000478475 0)
(1.03726 0.00633264 0)
(1.04078 0.0114648 0)
(1.04694 0.0153609 0)
(1.05613 0.0182929 0)
(1.06843 0.0208423 0)
(1.08072 0.0239955 0)
(1.07437 0.0260848 0)
(0.982881 0.0238533 0)
(0.68329 0.010265 0)
(0.217924 0.000414648 0)
(0.21623 -7.93888e-05 0)
(0.659828 -0.00645352 0)
(0.97193 -0.0184122 0)
(1.07827 -0.0206124 0)
(1.08885 -0.0180955 0)
(1.07741 -0.0144221 0)
(1.06511 -0.0111215 0)
(1.05546 -0.0077846 0)
(1.04823 -0.0034664 0)
(1.04359 0.00166246 0)
(1.04264 0.00704845 0)
(1.04569 0.0116982 0)
(1.05196 0.0153081 0)
(1.0607 0.0177898 0)
(1.07238 0.0204034 0)
(1.08296 0.0231937 0)
(1.07085 0.0245945 0)
(0.960226 0.0210642 0)
(0.643887 0.00780719 0)
(0.205908 0.000530081 0)
(0.208696 -0.000132459 0)
(0.630361 -0.00474515 0)
(0.952028 -0.015817 0)
(1.0747 -0.0189646 0)
(1.09206 -0.0170254 0)
(1.08219 -0.013345 0)
(1.06977 -0.00956616 0)
(1.05997 -0.0059988 0)
(1.05259 -0.00204144 0)
(1.04789 0.00274952 0)
(1.04673 0.00796197 0)
(1.04929 0.0123557 0)
(1.05491 0.0154494 0)
(1.06362 0.0179999 0)
(1.0754 0.0205869 0)
(1.084 0.0230182 0)
(1.06352 0.0236093 0)
(0.935252 0.0188998 0)
(0.609102 0.00639437 0)
(0.195569 0.000661976 0)
(0.202806 -9.38881e-05 0)
(0.607256 -0.00350842 0)
(0.934728 -0.0131625 0)
(1.07201 -0.0165968 0)
(1.09527 -0.0150809 0)
(1.08651 -0.0121418 0)
(1.07411 -0.00832509 0)
(1.06451 -0.00463631 0)
(1.05711 -0.000558034 0)
(1.05227 0.00430549 0)
(1.05087 0.00941069 0)
(1.0533 0.0134648 0)
(1.05882 0.0164434 0)
(1.06686 0.018989 0)
(1.07805 0.0214665 0)
(1.08469 0.0228448 0)
(1.05814 0.0225793 0)
(0.913189 0.0172067 0)
(0.580045 0.0055861 0)
(0.186343 0.000754964 0)
(0.197885 1.18574e-05 0)
(0.588364 -0.0025107 0)
(0.918274 -0.0110807 0)
(1.06822 -0.0147125 0)
(1.0983 -0.0134239 0)
(1.09122 -0.0107511 0)
(1.07862 -0.00732647 0)
(1.06871 -0.0031585 0)
(1.06073 0.00125767 0)
(1.05477 0.00590471 0)
(1.05274 0.0105424 0)
(1.05513 0.0146093 0)
(1.06052 0.0177701 0)
(1.06855 0.0202468 0)
(1.07992 0.0220572 0)
(1.08449 0.022869 0)
(1.04849 0.0220215 0)
(0.888299 0.0158802 0)
(0.552636 0.00511904 0)
(0.177041 0.000802843 0)
(0.19416 0.000156997 0)
(0.573357 -0.00157871 0)
(0.903862 -0.00878276 0)
(1.06547 -0.0124291 0)
(1.1015 -0.0110276 0)
(1.09549 -0.00854905 0)
(1.0825 -0.00514639 0)
(1.07202 -0.00100747 0)
(1.06364 0.00375352 0)
(1.05762 0.0083782 0)
(1.05557 0.0123738 0)
(1.05763 0.0159066 0)
(1.06265 0.0191177 0)
(1.07071 0.0214556 0)
(1.08159 0.0227067 0)
(1.08378 0.0229139 0)
(1.0407 0.0214808 0)
(0.866389 0.0148847 0)
(0.529081 0.00486162 0)
(0.168428 0.000815918 0)
(0.191793 0.000312679 0)
(0.562428 -0.00058217 0)
(0.891688 -0.00665363 0)
(1.06228 -0.0101533 0)
(1.10447 -0.00861507 0)
(1.10014 -0.00544535 0)
(1.08686 -0.00222143 0)
(1.07584 0.00178228 0)
(1.06708 0.0063943 0)
(1.06059 0.0106008 0)
(1.05743 0.0143358 0)
(1.05849 0.017786 0)
(1.06332 0.0205052 0)
(1.07157 0.0222605 0)
(1.08214 0.0230027 0)
(1.08197 0.0231745 0)
(1.02886 0.0213017 0)
(0.841383 0.0141444 0)
(0.505344 0.00461136 0)
(0.159517 0.000820604 0)
(0.190924 0.00047443 0)
(0.554538 0.000203751 0)
(0.881607 -0.00418219 0)
(1.06095 -0.0070935 0)
(1.10842 -0.00519906 0)
(1.10515 -0.00211491 0)
(1.09183 0.0013227 0)
(1.08031 0.00494551 0)
(1.0713 0.0091867 0)
(1.06457 0.013633 0)
(1.06113 0.0175888 0)
(1.06164 0.0204493 0)
(1.06563 0.0226344 0)
(1.07356 0.0236063 0)
(1.08279 0.0240214 0)
(1.07987 0.0236155 0)
(1.01848 0.0211723 0)
(0.819027 0.0135799 0)
(0.484622 0.00450894 0)
(0.151361 0.000889264 0)
(0.191702 0.000509616 0)
(0.551159 0.00138778 0)
(0.875004 -0.00186189 0)
(1.0597 -0.00439023 0)
(1.1126 -0.00236399 0)
(1.11098 0.00159179 0)
(1.09746 0.00518071 0)
(1.08562 0.00857952 0)
(1.07571 0.0127707 0)
(1.06712 0.0170762 0)
(1.06208 0.0207322 0)
(1.06197 0.0236231 0)
(1.06581 0.025048 0)
(1.07378 0.0252839 0)
(1.08214 0.0252535 0)
(1.07571 0.0246208 0)
(1.00429 0.0214043 0)
(0.793719 0.0131892 0)
(0.462981 0.00459043 0)
(0.142707 0.000976717 0)
(0.194194 0.000663793 0)
(0.551784 0.00205706 0)
(0.87084 0.000379783 0)
(1.0607 -0.000877471 0)
(1.11751 0.00169958 0)
(1.11692 0.00546721 0)
(1.10371 0.00933211 0)
(1.09114 0.0129811 0)
(1.08022 0.0176182 0)
(1.07095 0.0221296 0)
(1.06606 0.0253357 0)
(1.06563 0.0274944 0)
(1.06846 0.0288296 0)
(1.0753 0.02864 0)
(1.08165 0.0277194 0)
(1.07124 0.026408 0)
(0.990679 0.0222258 0)
(0.770297 0.0134077 0)
(0.44299 0.00500193 0)
(0.134321 0.00110297 0)
(0.19831 0.000990409 0)
(0.554824 0.00287089 0)
(0.871389 0.00315769 0)
(1.06267 0.00197406 0)
(1.12311 0.00469691 0)
(1.1239 0.00945597 0)
(1.11038 0.0140677 0)
(1.09738 0.0183757 0)
(1.08586 0.0232619 0)
(1.07538 0.0273521 0)
(1.0677 0.0295647 0)
(1.06446 0.0317438 0)
(1.06642 0.0324035 0)
(1.07305 0.0314546 0)
(1.07886 0.030831 0)
(1.06446 0.0285048 0)
(0.973133 0.0233275 0)
(0.743189 0.0140336 0)
(0.420578 0.00543503 0)
(0.124769 0.0012184 0)
(0.204975 0.00146296 0)
(0.562359 0.00424671 0)
(0.875545 0.00576594 0)
(1.06748 0.00641498 0)
(1.12944 0.0100288 0)
(1.1307 0.014647 0)
(1.11694 0.0196368 0)
(1.10307 0.0244042 0)
(1.09055 0.0296622 0)
(1.07947 0.034253 0)
(1.07106 0.0369573 0)
(1.06728 0.0384761 0)
(1.06781 0.0390316 0)
(1.0732 0.03722 0)
(1.07571 0.0348315 0)
(1.05624 0.031392 0)
(0.955436 0.0251842 0)
(0.716891 0.0150377 0)
(0.398512 0.0059975 0)
(0.114971 0.00138214 0)
(0.213327 0.00194245 0)
(0.573722 0.00571534 0)
(0.883868 0.00870134 0)
(1.07452 0.0107536 0)
(1.13714 0.0150578 0)
(1.13902 0.0208121 0)
(1.12403 0.026522 0)
(1.10899 0.0319033 0)
(1.09479 0.0373768 0)
(1.08137 0.042111 0)
(1.06966 0.0448253 0)
(1.06309 0.0454366 0)
(1.06237 0.0439625 0)
(1.06759 0.0415413 0)
(1.0706 0.0391055 0)
(1.04577 0.0345618 0)
(0.933013 0.0270043 0)
(0.685946 0.0160723 0)
(0.373119 0.00656873 0)
(0.103733 0.00154148 0)
(0.226077 0.00255304 0)
(0.592558 0.00828716 0)
(0.899319 0.0132122 0)
(1.08543 0.0170419 0)
(1.1467 0.022883 0)
(1.14817 0.0291892 0)
(1.13213 0.0354576 0)
(1.11512 0.0413836 0)
(1.09844 0.0471363 0)
(1.08259 0.0520748 0)
(1.06959 0.0548754 0)
(1.06341 0.054623 0)
(1.06268 0.0528565 0)
(1.06608 0.0492986 0)
(1.06395 0.0446863 0)
(1.03276 0.0383362 0)
(0.909734 0.0296232 0)
(0.655204 0.0174337 0)
(0.347544 0.00732822 0)
(0.0922292 0.00172431 0)
(0.242424 0.00312683 0)
(0.617598 0.0102109 0)
(0.921202 0.0179891 0)
(1.10026 0.0242749 0)
(1.15832 0.0312542 0)
(1.15992 0.0393193 0)
(1.14211 0.0469071 0)
(1.12317 0.0539042 0)
(1.10359 0.0600321 0)
(1.08388 0.0645512 0)
(1.06693 0.066267 0)
(1.05752 0.0647309 0)
(1.05391 0.0607925 0)
(1.05673 0.0557646 0)
(1.05542 0.0503651 0)
(1.01686 0.0431337 0)
(0.880287 0.0323335 0)
(0.618273 0.0191533 0)
(0.317479 0.00819841 0)
(0.0790908 0.00189527 0)
(0.265005 0.00437775 0)
(0.652125 0.0143018 0)
(0.9509 0.0249293 0)
(1.12042 0.0336605 0)
(1.17373 0.0423249 0)
(1.17378 0.0514474 0)
(1.15407 0.0602731 0)
(1.13277 0.0684993 0)
(1.11053 0.0752866 0)
(1.08802 0.0796162 0)
(1.06847 0.0805025 0)
(1.05655 0.0771091 0)
(1.05282 0.0721471 0)
(1.05311 0.0659347 0)
(1.04464 0.0582805 0)
(0.997636 0.0481367 0)
(0.849818 0.0361269 0)
(0.581127 0.0214439 0)
(0.286564 0.00919911 0)
(0.0656839 0.00204117 0)
(0.296827 0.00548616 0)
(0.699106 0.0173806 0)
(0.990717 0.0321037 0)
(1.14629 0.0445398 0)
(1.19181 0.055183 0)
(1.19016 0.0672162 0)
(1.16684 0.0780818 0)
(1.14184 0.0877186 0)
(1.1152 0.0950095 0)
(1.08719 0.0985378 0)
(1.06276 0.0974358 0)
(1.04851 0.0921009 0)
(1.04149 0.0843439 0)
(1.04067 0.0755245 0)
(1.03132 0.0661641 0)
(0.974551 0.055301 0)
(0.810982 0.0403426 0)
(0.534879 0.0241072 0)
(0.248972 0.0100024 0)
(0.0504092 0.00209974 0)
(0.332619 0.00872561 0)
(0.756448 0.0258887 0)
(1.03855 0.0442977 0)
(1.17829 0.0603563 0)
(1.21474 0.0736597 0)
(1.20795 0.0884353 0)
(1.17977 0.10085 0)
(1.14999 0.11125 0)
(1.1189 0.118192 0)
(1.08744 0.120659 0)
(1.06084 0.11754 0)
(1.04323 0.109282 0)
(1.03575 0.0994343 0)
(1.03245 0.0889983 0)
(1.01511 0.0775659 0)
(0.946726 0.0625039 0)
(0.769553 0.0459373 0)
(0.487181 0.0271246 0)
(0.210961 0.0108215 0)
(0.035807 0.00211246 0)
(0.410629 0.0136335 0)
(0.841911 0.0360249 0)
(1.10401 0.0620101 0)
(1.21833 0.0840001 0)
(1.241 0.0998125 6.78572e-34)
(1.2276 0.117895 -3.03385e-34)
(1.1924 0.131701 0)
(1.1565 0.14233 0)
(1.11903 0.148118 0)
(1.08064 0.147413 0)
(1.04857 0.139498 0)
(1.03044 0.127354 0)
(1.02106 0.11446 0)
(1.01529 0.101565 0)
(0.994496 0.0875755 0)
(0.912987 0.071648 0)
(0.716435 0.0507706 0)
(0.426224 0.0292814 0)
(0.162788 0.0105204 0)
(0.0189506 0.00193943 0)
(0.476428 0.0282409 5.24096e-20)
(0.94125 0.0563631 -3.95547e-20)
(1.17289 0.0912529 0)
(1.25862 0.118633 2.96827e-20)
(1.26952 0.136925 -2.40606e-20)
(1.24592 0.15803 3.20105e-34)
(1.20323 0.171918 0)
(1.16128 0.181311 1.70002e-20)
(1.11834 0.18408 -5.59043e-20)
(1.07639 0.179292 1.14087e-20)
(1.04339 0.167957 0)
(1.02078 0.15282 -2.89149e-20)
(1.00874 0.13681 -3.45453e-20)
(0.999765 0.121103 6.03582e-20)
(0.965976 0.104453 -4.7639e-20)
(0.863488 0.0812505 0)
(0.646761 0.05743 -1.71322e-20)
(0.351311 0.030735 0)
(0.112041 0.0105184 -9.44622e-20)
(0.0020111 0.00131859 1.11341e-19)
(0.512191 0.0532756 -6.78339e-21)
(1.00393 0.0941814 1.22441e-19)
(1.22231 0.133673 -8.60816e-21)
(1.29165 0.162871 -7.56446e-20)
(1.29378 0.184163 -5.06601e-20)
(1.26106 0.205466 8.22861e-20)
(1.2115 0.218625 0)
(1.16361 0.226403 0)
(1.1147 0.226798 8.92315e-20)
(1.06659 0.21928 0)
(1.02563 0.202548 1.04759e-19)
(0.999767 0.181958 3.10247e-20)
(0.984538 0.163435 3.77493e-22)
(0.967501 0.144984 -6.59817e-20)
(0.927246 0.123023 0)
(0.813495 0.0992117 0)
(0.585055 0.0674885 -2.80081e-19)
(0.298771 0.0374302 7.03325e-19)
(0.0875969 0.0112515 -4.16419e-19)
(-0.00658752 -2.81816e-06 -4.90884e-19)
(0.523544 0.0771205 -7.63074e-20)
(1.04103 0.141124 2.83702e-20)
(1.2582 0.187281 1.44626e-20)
(1.31833 0.216641 1.31454e-19)
(1.313 0.238007 1.36671e-20)
(1.27236 0.25838 -2.1524e-19)
(1.21625 0.27012 7.31113e-20)
(1.16225 0.275367 0)
(1.10764 0.272425 -1.89482e-19)
(1.05443 0.259541 1.67965e-19)
(1.01182 0.238605 -2.82707e-19)
(0.982962 0.217276 1.32383e-19)
(0.963195 0.196348 -8.53973e-20)
(0.94659 0.174356 1.92586e-19)
(0.899195 0.150018 0)
(0.777333 0.116208 -7.01044e-20)
(0.551482 0.0817136 0)
(0.288114 0.0430272 3.87203e-19)
(0.08665 0.0143386 -9.16584e-19)
(-0.00656926 -0.000497687 5.74452e-19)
(0.523229 0.102458 2.26618e-19)
(1.0635 0.193519 -9.86408e-20)
(1.28197 0.246223 -1.9516e-20)
(1.33611 0.277023 0)
(1.32487 0.297971 -9.61208e-20)
(1.27789 0.316148 1.18411e-19)
(1.21612 0.325088 -7.90654e-20)
(1.15671 0.326431 0)
(1.09729 0.318722 1.34837e-19)
(1.04074 0.300834 -1.18111e-19)
(0.99317 0.27649 2.4525e-19)
(0.959528 0.251005 0)
(0.93767 0.228041 -1.81568e-19)
(0.914349 0.2045 1.02393e-19)
(0.866993 0.173997 2.57303e-19)
(0.749905 0.14058 -2.26458e-19)
(0.535299 0.0988036 3.59612e-19)
(0.286576 0.0552161 -7.97447e-19)
(0.0948967 0.0196144 5.03535e-19)
(-0.00147327 -8.07825e-05 -6.2984e-19)
(0.512815 0.130316 -8.86251e-20)
(1.07281 0.24446 6.39267e-20)
(1.29548 0.306622 -6.38032e-20)
(1.3461 0.339952 1.22977e-19)
(1.33042 0.360075 -1.13206e-19)
(1.27861 0.37575 3.81346e-20)
(1.21274 0.381291 3.38185e-21)
(1.14997 0.37783 -1.54494e-19)
(1.08727 0.364827 -1.42177e-19)
(1.02674 0.342324 -2.54297e-19)
(0.974117 0.313266 -5.27381e-19)
(0.937958 0.286279 -1.61873e-19)
(0.914456 0.262644 2.32647e-21)
(0.891764 0.236981 -3.50148e-19)
(0.842036 0.207021 -5.7743e-21)
(0.725042 0.163537 3.29571e-19)
(0.523399 0.116933 -9.93669e-20)
(0.291736 0.0691312 -5.7642e-20)
(0.108504 0.0268929 0)
(0.0064412 0.00169761 1.34001e-18)
(0.49795 0.154745 0)
(1.0715 0.293 -9.45491e-21)
(1.30036 0.365817 -1.27884e-20)
(1.34897 0.402853 -1.24295e-20)
(1.33011 0.422909 1.10807e-19)
(1.27487 0.435925 -8.79089e-20)
(1.20606 0.437679 8.68945e-20)
(1.13992 0.429788 2.5353e-19)
(1.07323 0.412556 -7.90805e-20)
(1.00761 0.386077 1.26289e-19)
(0.951701 0.352911 2.83508e-19)
(0.913573 0.322684 3.52553e-19)
(0.886009 0.29757 -2.11899e-19)
(0.85921 0.269901 3.78896e-19)
(0.811217 0.233439 -2.99992e-19)
(0.703536 0.192877 0)
(0.517737 0.139543 -7.54482e-19)
(0.30163 0.0853825 1.01545e-18)
(0.123638 0.036612 7.57956e-20)
(0.0150212 0.004712 -1.4161e-18)
(0.483073 0.177125 -6.55404e-21)
(1.06505 0.339894 3.74064e-20)
(1.29974 0.423465 9.34992e-20)
(1.34707 0.46401 -1.1343e-19)
(1.32565 0.483825 9.01472e-20)
(1.26769 0.49474 -8.63624e-20)
(1.19668 0.493223 1.73511e-19)
(1.12854 0.480698 -7.67797e-20)
(1.06035 0.45848 -3.19438e-19)
(0.994046 0.426332 1.81348e-22)
(0.936584 0.389673 -3.07637e-19)
(0.892149 0.357327 -3.79167e-19)
(0.861647 0.330537 2.33577e-19)
(0.836698 0.301777 -1.36283e-19)
(0.78772 0.267484 3.25695e-19)
(0.681543 0.216296 0)
(0.507226 0.161074 -4.67752e-19)
(0.306285 0.101284 6.90767e-19)
(0.134872 0.046742 1.30849e-18)
(0.0220481 0.00811656 -1.53926e-18)
(0.469768 0.197983 -3.37228e-21)
(1.05536 0.384577 -6.51965e-21)
(1.2947 0.478512 -6.91196e-20)
(1.34104 0.522748 1.17607e-19)
(1.3175 0.542916 1.15456e-20)
(1.25737 0.551857 -1.70275e-19)
(1.18493 0.546939 -1.00287e-19)
(1.11532 0.530133 -9.7337e-20)
(1.04484 0.50386 -1.79374e-19)
(0.973251 0.469089 2.89014e-19)
(0.908246 0.429176 3.11688e-19)
(0.86454 0.392423 6.01896e-19)
(0.835253 0.362592 0)
(0.805811 0.332378 6.19124e-21)
(0.759107 0.290851 -8.92594e-19)
(0.662936 0.245039 2.0839e-19)
(0.502802 0.182961 1.01026e-18)
(0.312799 0.118749 -2.97946e-19)
(0.144566 0.0577854 6.20659e-19)
(0.0276171 0.0116842 -5.18291e-20)
(0.458412 0.217407 7.99284e-21)
(1.04487 0.427716 2.05418e-20)
(1.2872 0.531862 -3.61969e-20)
(1.33246 0.579203 1.42371e-19)
(1.30702 0.599084 -1.93715e-19)
(1.2452 0.606176 1.70354e-19)
(1.17159 0.598436 1.03968e-19)
(1.10054 0.577919 2.91683e-19)
(1.0282 0.54761 3.61793e-19)
(0.956105 0.508632 -3.31863e-19)
(0.893894 0.465265 0)
(0.845787 0.426804 -2.26585e-19)
(0.811519 0.393858 2.60143e-19)
(0.785684 0.360568 3.26672e-19)
(0.737451 0.323604 -1.88856e-19)
(0.642987 0.265768 -4.60184e-19)
(0.490462 0.20406 -1.37311e-19)
(0.311387 0.134794 -1.58839e-21)
(0.148559 0.0670858 0)
(0.0308452 0.0145574 0)
(0.449498 0.236335 -5.00926e-20)
(1.03365 0.468677 0)
(1.27744 0.582225 -2.26419e-20)
(1.32162 0.632653 -3.85031e-21)
(1.29464 0.652737 2.17442e-19)
(1.23137 0.658117 -5.5463e-20)
(1.15691 0.647578 1.05834e-19)
(1.08509 0.623696 -1.97822e-19)
(1.01141 0.590122 2.74328e-19)
(0.935855 0.548239 -1.07604e-19)
(0.866248 0.501563 1.78006e-19)
(0.817576 0.458699 7.17426e-19)
(0.788243 0.423325 1.3966e-20)
(0.75658 0.388587 -3.40494e-19)
(0.70982 0.343757 6.29221e-19)
(0.622844 0.292988 4.15707e-21)
(0.480316 0.223253 1.46903e-19)
(0.306452 0.148603 -7.00766e-19)
(0.146616 0.0744019 7.21734e-19)
(0.0316298 0.0162025 -8.50954e-19)
(0.442986 0.254302 6.78609e-23)
(1.02296 0.50829 0)
(1.26664 0.630934 0)
(1.30949 0.683826 -1.12606e-20)
(1.281 0.703379 -6.66221e-20)
(1.21653 0.706895 8.17511e-20)
(1.14153 0.693891 -1.99063e-19)
(1.06893 0.667218 0)
(0.993532 0.630646 -4.03954e-19)
(0.916593 0.585594 4.79746e-19)
(0.849761 0.536185 5.05268e-19)
(0.800013 0.4905 -2.63165e-19)
(0.764778 0.450332 -3.16684e-19)
(0.734612 0.413211 7.41862e-19)
(0.688339 0.373673 -2.23451e-19)
(0.601321 0.310185 -2.66756e-19)
(0.463229 0.241243 -1.59631e-19)
(0.298964 0.159614 -7.55267e-19)
(0.142555 0.0784657 1.10127e-19)
(0.0308539 0.0169929 9.17528e-19)
(0.437947 0.273135 -2.86413e-20)
(1.01223 0.545833 -3.30082e-20)
(1.2547 0.676634 2.28267e-20)
(1.29615 0.731886 1.73668e-22)
(1.26645 0.751407 -6.19299e-20)
(1.20098 0.753215 1.38017e-19)
(1.12563 0.737736 0)
(1.05254 0.708518 1.18699e-19)
(0.976036 0.669888 -9.35954e-20)
(0.896434 0.62222 7.99226e-19)
(0.823342 0.56789 -1.15169e-19)
(0.771999 0.51748 1.30538e-19)
(0.739536 0.475869 0)
(0.705838 0.438332 -4.01322e-19)
(0.65935 0.38881 4.85293e-19)
(0.579391 0.333655 0)
(0.449574 0.255496 -3.44186e-19)
(0.287446 0.169196 1.01165e-18)
(0.135624 0.0806424 1.19357e-19)
(0.0283508 0.0171107 -1.12874e-18)
(0.434214 0.291447 -7.6304e-20)
(1.00229 0.582128 9.58732e-20)
(1.24252 0.720685 0)
(1.28235 0.77782 -5.67645e-21)
(1.25138 0.796607 0)
(1.18513 0.79648 -1.73413e-19)
(1.10974 0.778773 0)
(1.0363 0.747464 0)
(0.958645 0.706904 -1.2231e-19)
(0.877087 0.656823 -7.59355e-19)
(0.804842 0.600841 -9.32472e-19)
(0.752357 0.547435 1.51776e-19)
(0.714472 0.499539 5.46046e-19)
(0.681925 0.457578 4.411e-19)
(0.637189 0.414596 -1.55649e-18)
(0.55726 0.344418 -6.24803e-19)
(0.428193 0.268245 3.65765e-19)
(0.273448 0.174316 0)
(0.126708 0.0810885 1.02581e-18)
(0.0249983 0.0163988 -1.21527e-18)
(0.431581 0.308933 9.50807e-20)
(0.992695 0.616495 -1.14696e-19)
(1.22998 0.761888 0)
(1.26808 0.820764 -1.10331e-20)
(1.23611 0.839329 8.53977e-21)
(1.16929 0.837446 0)
(1.09398 0.817516 6.10885e-20)
(1.02033 0.784264 8.10278e-20)
(0.941525 0.742583 -2.31107e-19)
(0.857169 0.691205 1.0093e-19)
(0.779078 0.630305 0)
(0.723668 0.570198 6.2996e-19)
(0.687624 0.521453 5.52371e-21)
(0.651752 0.478955 2.3781e-19)
(0.608239 0.42279 2.82407e-19)
(0.533459 0.362677 0)
(0.41184 0.275588 -5.98069e-19)
(0.257782 0.177459 1.17343e-18)
(0.116766 0.0799892 -1.24311e-18)
(0.0214757 0.0151315 2.61575e-18)
(0.430001 0.325467 0)
(0.98403 0.649552 0)
(1.21767 0.801501 -5.52462e-20)
(1.25391 0.861792 0)
(1.22086 0.879505 0)
(1.15361 0.875639 -1.52099e-19)
(1.07861 0.853654 6.27122e-20)
(1.00488 0.818909 1.76736e-20)
(0.925044 0.77605 -5.31993e-20)
(0.83896 0.723029 0)
(0.760012 0.660624 -1.41307e-19)
(0.702421 0.598038 -5.1354e-19)
(0.660251 0.541682 -6.16522e-19)
(0.626574 0.491913 -2.47446e-19)
(0.586054 0.443392 3.05726e-19)
(0.511093 0.366027 -7.2065e-19)
(0.388038 0.282025 1.28616e-18)
(0.24014 0.176509 2.97438e-21)
(0.106183 0.0772066 -1.1924e-18)
(0.0183111 0.0135749 -1.76323e-19)
(0.429185 0.34114 0)
(0.975951 0.680921 -9.65263e-20)
(1.20541 0.838534 6.86257e-20)
(1.23966 0.900019 0)
(1.2058 0.917385 0)
(1.13834 0.911773 3.08987e-19)
(1.06371 0.887796 0)
(0.98997 0.851533 0)
(0.909062 0.808162 -5.04452e-19)
(0.820079 0.754887 1.38055e-19)
(0.735073 0.689264 -1.25372e-18)
(0.673387 0.620382 0)
(0.630217 0.561707 -6.69991e-19)
(0.594024 0.51009 1.02687e-20)
(0.555573 0.443441 -9.82191e-19)
(0.485967 0.377698 3.87741e-19)
(0.371504 0.280804 1.92781e-21)
(0.225443 0.173684 -1.35911e-18)
(0.0964982 0.0728199 6.42102e-19)
(0.0158989 0.0117138 1.88629e-19)
(0.428901 0.356059 0)
(0.968569 0.710915 -1.39993e-19)
(1.19356 0.874079 7.40071e-20)
(1.22581 0.936558 7.74904e-20)
(1.19105 0.952975 -2.1893e-20)
(1.12351 0.945426 3.33253e-20)
(1.04949 0.91961 -4.0617e-20)
(0.975795 0.882285 4.95189e-19)
(0.893952 0.838377 5.39624e-19)
(0.803568 0.784406 1.0506e-18)
(0.717704 0.717956 1.04177e-18)
(0.651479 0.647422 1.82598e-19)
(0.600891 0.580762 9.63254e-19)
(0.566638 0.517554 5.9316e-19)
(0.529725 0.458272 7.04441e-19)
(0.46297 0.370208 -4.24375e-19)
(0.349563 0.278638 -4.96672e-19)
(0.213449 0.164827 5.83859e-19)
(0.0941902 0.066282 -3.45194e-19)
(0.0160794 0.00993183 6.09321e-19)
(0.428913 0.370318 2.03494e-19)
(0.961711 0.739425 2.19158e-19)
(1.18192 0.907286 4.48948e-20)
(1.21209 0.970491 1.67167e-20)
(1.17671 0.986448 3.59953e-20)
(1.10933 0.977235 -8.59794e-20)
(1.03595 0.94973 3.9808e-20)
(0.962332 0.911206 -2.1113e-20)
(0.879593 0.867099 -6.25758e-19)
(0.786754 0.813562 -1.13964e-18)
(0.69482 0.745597 7.22278e-20)
(0.623025 0.670497 0)
(0.570857 0.601493 0)
(0.529716 0.535352 -3.09615e-19)
(0.491943 0.448922 -1.15321e-18)
(0.432876 0.370928 9.13796e-19)
(0.337704 0.262184 5.42298e-19)
(0.213143 0.149356 0)
(0.104585 0.0580212 1.10661e-18)
(0.0255154 0.00972582 -6.55393e-19)
(0.429056 0.383923 -1.06829e-19)
(0.955231 0.766437 9.60124e-20)
(1.17069 0.939066 -1.08606e-19)
(1.19891 1.00294 -7.95541e-20)
(1.16286 1.01786 -3.4441e-21)
(1.09574 1.0068 -2.6599e-20)
(1.02323 0.977745 0)
(0.949719 0.938529 -6.21763e-19)
(0.865981 0.894218 7.78456e-20)
(0.771483 0.840472 0)
(0.678967 0.772634 0)
(0.603046 0.697982 1.15871e-19)
(0.541107 0.622987 1.55304e-19)
(0.499248 0.541303 -3.33853e-19)
(0.459182 0.461547 8.28516e-19)
(0.398191 0.344562 -9.95545e-19)
(0.315087 0.2383 -1.15836e-18)
(0.229644 0.120287 1.02431e-18)
(0.163936 0.0450436 -3.9725e-19)
(0.0894532 0.0243824 2.30788e-19)
(0.429158 0.396721 1.38197e-19)
(0.949169 0.792104 0)
(1.15971 0.96868 0)
(1.18593 1.03294 -2.015e-20)
(1.14952 1.04734 1.63154e-20)
(1.08297 1.03473 -2.1046e-20)
(1.01129 1.00432 1.72767e-19)
(0.937802 0.96421 6.38309e-19)
(0.852991 0.919732 1.13383e-18)
(0.756385 0.866568 -8.5216e-20)
(0.659095 0.799162 1.75786e-19)
(0.577143 0.722689 -1.0337e-18)
(0.512691 0.646492 -1.02834e-18)
(0.45839 0.565652 -1.78778e-19)
(0.407579 0.448482 0)
(0.356383 0.340955 -6.33507e-21)
(0.28984 0.180141 6.35527e-19)
(0.227327 0.045381 -1.0925e-18)
(0.175321 -0.0635392 8.39271e-19)
(0.073765 -0.0404616 7.15191e-19)
(0.429181 0.409132 -3.06642e-19)
(0.942962 0.816053 -1.39068e-19)
(1.14892 0.996904 8.51567e-21)
(1.17347 1.06184 5.14758e-20)
(1.13668 1.07526 0)
(1.07065 1.06103 -1.09959e-19)
(0.999834 1.02939 -2.45201e-19)
(0.926144 0.988938 -8.88325e-22)
(0.84002 0.944502 -5.94426e-19)
(0.741776 0.89148 -8.3533e-20)
(0.643903 0.824666 7.75845e-20)
(0.558713 0.750162 9.07902e-19)
(0.482093 0.672828 1.00395e-18)
(0.424381 0.57483 1.73701e-19)
(0.368608 0.474469 8.85019e-19)
(0.284078 0.301257 0)
(0.180304 0.167326 0)
(0.030315 0.240368 7.2443e-19)
(-0.0414326 0.703828 -1.7642e-20)
(0.00292583 1.67231 -8.17907e-19)
(0.429097 0.420953 1.7027e-19)
(0.937258 0.839177 3.8704e-19)
(1.13838 1.02349 -5.26103e-19)
(1.16114 1.08879 2.50642e-19)
(1.12435 1.10196 -1.2777e-21)
(1.05916 1.08664 -6.61981e-20)
(0.989065 1.05421 0)
(0.915011 1.01336 -5.32608e-19)
(0.827514 0.969003 0)
(0.727062 0.916682 1.18144e-18)
(0.624338 0.851629 -9.39706e-20)
(0.531933 0.778456 1.05366e-19)
(0.453618 0.702138 1.14506e-18)
(0.379503 0.616737 -3.75228e-19)
(0.280131 0.467904 -4.51052e-19)
(0.19933 0.366362 0)
(0.0847795 0.559079 0)
(0.0241197 1.44529 0)
(0.0565983 2.50794 -4.20554e-19)
(0.0701637 2.92578 -2.53547e-19)
(0.428708 0.432155 0)
(0.931382 0.860597 0)
(1.12812 1.04887 1.93306e-19)
(1.14944 1.11484 -2.01803e-19)
(1.11263 1.12734 7.71027e-20)
(1.04822 1.11095 7.02843e-20)
(0.978838 1.07792 3.06936e-20)
(0.904164 1.03724 -2.38973e-20)
(0.815075 0.993387 8.34694e-20)
(0.712749 0.941736 -1.356e-18)
(0.609156 0.87783 1.70779e-19)
(0.514667 0.807377 9.04886e-19)
(0.422351 0.736203 -1.14124e-18)
(0.339005 0.628701 -1.24814e-18)
(0.253412 0.539388 4.20967e-19)
(0.158434 0.722923 0)
(0.0867671 1.68891 5.85867e-19)
(0.098455 2.72377 6.56461e-19)
(0.103596 3.08507 -7.40616e-19)
(0.0918713 3.20911 8.08404e-19)
(0.428071 0.442926 0)
(0.926085 0.88135 3.50148e-19)
(1.11823 1.07271 -4.80394e-20)
(1.13798 1.13892 2.9263e-19)
(1.10151 1.15143 -8.09319e-20)
(1.03815 1.13451 0)
(0.969245 1.10131 0)
(0.893882 1.06072 0)
(0.803344 1.01727 4.742e-19)
(0.699071 0.966437 6.30571e-20)
(0.591251 0.905127 0)
(0.489197 0.839345 -9.00253e-19)
(0.398379 0.768939 0)
(0.293004 0.684542 8.88504e-19)
(0.204718 0.771422 -6.01979e-19)
(0.145775 1.56317 -4.81222e-19)
(0.140857 2.72168 -1.13106e-18)
(0.156009 3.12547 -6.09056e-19)
(0.134135 3.25206 -8.67419e-19)
(0.117878 3.28723 7.66971e-19)
(0.426531 0.452418 -1.24314e-19)
(0.920471 0.900161 1.70249e-20)
(1.10863 1.09542 -5.39909e-20)
(1.12723 1.16232 -2.23717e-19)
(1.09107 1.17434 0)
(1.02854 1.15685 0)
(0.960048 1.12359 0)
(0.883781 1.08367 3.66522e-20)
(0.791735 1.0412 -5.99095e-19)
(0.685917 0.991687 0)
(0.577313 0.932094 0)
(0.476322 0.869062 0)
(0.362887 0.800564 0)
(0.306446 0.79283 6.48191e-19)
(0.24329 1.26593 1.60399e-18)
(0.201218 2.50207 4.75329e-19)
(0.210584 3.09935 9.71266e-19)
(0.198811 3.27196 -7.47323e-19)
(0.161679 3.32504 2.67788e-19)
(0.14238 3.33597 0)
(0.424531 0.46098 1.28675e-19)
(0.914656 0.918292 -7.84423e-19)
(1.09903 1.11712 -2.11434e-19)
(1.11659 1.1845 -4.52938e-20)
(1.0811 1.19672 1.93216e-20)
(1.01953 1.17903 -4.81804e-20)
(0.95113 1.146 -5.64058e-21)
(0.874041 1.1066 -4.12562e-19)
(0.780867 1.06499 0)
(0.673766 1.01671 -7.95181e-20)
(0.562311 0.959903 7.2334e-20)
(0.453651 0.902738 0)
(0.365352 0.860612 0)
(0.300048 1.03541 -8.13771e-19)
(0.237704 1.96739 1.03827e-19)
(0.230579 2.98933 -3.64306e-19)
(0.255979 3.27743 7.77474e-19)
(0.236403 3.35881 5.90417e-19)
(0.182783 3.3788 -8.91362e-19)
(0.16346 3.3878 4.4837e-19)
(0.421706 0.469014 2.55334e-19)
(0.907632 0.93552 7.67815e-19)
(1.08892 1.13939 2.52478e-19)
(1.10613 1.20808 0)
(1.0712 1.21974 0)
(1.01018 1.20141 3.84832e-20)
(0.941828 1.1684 8.29356e-20)
(0.863862 1.12992 3.68174e-19)
(0.769763 1.08973 2.36687e-20)
(0.661995 1.04333 1.02359e-18)
(0.551055 0.989022 -1.1995e-18)
(0.44274 0.933272 0)
(0.366894 0.945856 0)
(0.322358 1.39972 -5.51009e-19)
(0.290395 2.62598 -6.73051e-19)
(0.326702 3.21012 0)
(0.344288 3.34683 -8.69522e-19)
(0.270963 3.39764 -1.29264e-20)
(0.203795 3.43034 5.91903e-19)
(0.179236 3.44748 -2.52331e-19)
(0.418448 0.477735 -4.87373e-19)
(0.900495 0.954545 -3.69317e-19)
(1.0783 1.1626 0)
(1.09492 1.23198 0)
(1.06083 1.24387 0)
(1.00051 1.22506 0)
(0.93198 1.19205 -9.63023e-20)
(0.853484 1.1541 3.22186e-19)
(0.759006 1.11499 0)
(0.651066 1.07015 -9.32299e-19)
(0.539224 1.0182 2.15037e-18)
(0.439204 0.979626 8.71233e-20)
(0.380317 1.09322 1.13148e-19)
(0.34774 1.90199 8.9123e-19)
(0.341646 2.97759 -4.91302e-19)
(0.378314 3.31296 0)
(0.352429 3.41127 2.57692e-19)
(0.271098 3.48288 7.30883e-20)
(0.221429 3.52447 4.70048e-20)
(0.187369 3.5187 9.93516e-20)
(0.414613 0.487405 2.31665e-19)
(0.892128 0.973221 -3.79494e-19)
(1.06696 1.18677 0)
(1.08345 1.25782 -6.6726e-20)
(1.04982 1.26897 2.28496e-19)
(0.989754 1.24914 0)
(0.921267 1.21583 0)
(0.842314 1.17878 -5.57582e-19)
(0.747785 1.1413 -5.98326e-20)
(0.640423 1.09864 9.11932e-19)
(0.527303 1.04884 -1.02326e-18)
(0.44655 1.0299 5.83554e-19)
(0.401563 1.31944 0)
(0.385499 2.34344 -4.71267e-19)
(0.406729 3.19105 3.06677e-19)
(0.453063 3.40751 2.13272e-19)
(0.426301 3.48361 0)
(0.367918 3.53371 1.77454e-20)
(0.318419 3.54724 -2.16949e-19)
(0.23812 3.48465 -3.63543e-20)
(0.410803 0.497873 -4.61338e-19)
(0.884135 0.99477 5.44729e-19)
(1.05514 1.21203 3.79834e-19)
(1.07076 1.28342 -9.36791e-20)