/*--------------------------------*- C++ -*----------------------------------*\
  =========                 |
  \\      /  F ield         | OpenFOAM: The Open Source CFD Toolbox
   \\    /   O peration     | Website:  https://openfoam.org
    \\  /    A nd           | Version:  6
     \\/     M anipulation  |
\*---------------------------------------------------------------------------*/
FoamFile
{
    version     2.0;
    format      ascii;
    class       volVectorField;
    location    "51.9";
    object      U;
}
// * * * * * * * * * * * * * * * * * * * * * * * * * * * * * * * * * * * * * //

dimensions      [0 1 -1 0 0 0 0];

internalField   nonuniform List<vector> 
8800
(
(0.987184 -0.0766675 0)
(1.00189 -0.0551948 0)
(0.999719 -0.0285547 0)
(1.00001 -0.0151517 0)
(1.00006 -0.00855448 0)
(1.00007 -0.00505783 0)
(1.00005 -0.00301481 0)
(1.00001 -0.00171433 0)
(0.999997 -0.000807573 0)
(1.00006 -9.23113e-05 0)
(0.999988 0.000634636 0)
(0.999995 0.001396 0)
(1.00001 0.00241783 0)
(1.00003 0.00399454 0)
(1.00003 0.00663026 0)
(1.00001 0.0113691 0)
(0.999887 0.0208128 0)
(0.999144 0.0386706 0)
(1.00709 0.0724567 0)
(0.771212 0.0366609 0)
(0.363049 -0.0160192 0)
(1.04329 -0.0768273 0)
(1.08458 -0.0704663 0)
(1.04517 -0.0535698 0)
(1.02325 -0.0389295 0)
(1.01197 -0.026259 0)
(1.00638 -0.0169039 0)
(1.00356 -0.0103758 0)
(1.00214 -0.00572057 0)
(1.00145 -0.00206851 0)
(1.00131 0.00125307 0)
(1.00168 0.004633 0)
(1.00265 0.00856687 0)
(1.00464 0.0139138 0)
(1.00858 0.0216299 0)
(1.01655 0.0326074 0)
(1.03246 0.0465257 0)
(1.06262 0.0616455 0)
(1.09187 0.0760911 0)
(0.838684 0.0565575 0)
(0.216802 -0.00243209 0)
(1.07585 -0.050163 0)
(1.09984 -0.0483507 0)
(1.0646 -0.040515 0)
(1.03997 -0.0336682 0)
(1.02384 -0.0261592 0)
(1.01406 -0.0185877 0)
(1.00853 -0.0117732 0)
(1.00557 -0.00590925 0)
(1.00433 -0.00049773 0)
(1.00468 0.00474659 0)
(1.0066 0.0101383 0)
(1.0106 0.0162446 0)
(1.01793 0.0232837 0)
(1.03053 0.0307587 0)
(1.05062 0.0377998 0)
(1.08032 0.0444911 0)
(1.10625 0.051316 0)
(0.942568 0.0416023 0)
(0.216193 0.00246003 0)
(0.175099 -0.00081883 0)
(1.01758 -0.03552 0)
(1.10513 -0.041438 0)
(1.07819 -0.0361381 0)
(1.05336 -0.0302186 0)
(1.0361 -0.0246574 0)
(1.02393 -0.0189436 0)
(1.01584 -0.012878 0)
(1.011 -0.0067039 0)
(1.00881 -0.000375401 0)
(1.0094 0.00588153 0)
(1.01267 0.0118797 0)
(1.01887 0.0177296 0)
(1.02877 0.023328 0)
(1.04322 0.0286438 0)
(1.06374 0.0341427 0)
(1.09355 0.0401386 0)
(1.09344 0.0419164 0)
(0.827262 0.0228937 0)
(0.174073 0.000850753 0)
(0.153863 -0.000612974 0)
(0.955979 -0.0255032 0)
(1.10334 -0.0352069 0)
(1.08757 -0.0327515 0)
(1.06158 -0.0281157 0)
(1.04397 -0.0231113 0)
(1.03153 -0.017886 0)
(1.02272 -0.0123741 0)
(1.01693 -0.0064524 0)
(1.01412 2.48356e-06 0)
(1.01482 0.00645667 0)
(1.0188 0.0123452 0)
(1.02581 0.0176655 0)
(1.03612 0.0226068 0)
(1.05071 0.0273807 0)
(1.07195 0.031937 0)
(1.1001 0.0358916 0)
(1.06817 0.0339729 0)
(0.73975 0.0142897 0)
(0.152319 0.00064918 0)
(0.139451 -0.000469454 0)
(0.898952 -0.0191308 0)
(1.0956 -0.0301787 0)
(1.09559 -0.0293178 0)
(1.06905 -0.0256117 0)
(1.05062 -0.0214989 0)
(1.03774 -0.0167504 0)
(1.02867 -0.0114891 0)
(1.02259 -0.00577013 0)
(1.0195 0.000546072 0)
(1.02016 0.00686336 0)
(1.02427 0.0125015 0)
(1.03141 0.0174898 0)
(1.04194 0.0219899 0)
(1.05709 0.0259751 0)
(1.0793 0.029462 0)
(1.10235 0.0321106 0)
(1.03616 0.028043 0)
(0.673308 0.0101816 0)
(0.137273 0.000511148 0)
(0.128866 -0.000364304 0)
(0.849211 -0.0147774 0)
(1.08312 -0.0260671 0)
(1.10121 -0.0263944 0)
(1.07585 -0.0231341 0)
(1.0569 -0.0195195 0)
(1.04356 -0.0153101 0)
(1.03414 -0.0104253 0)
(1.02784 -0.00492236 0)
(1.02457 0.00120498 0)
(1.0251 0.0072985 0)
(1.02917 0.0126629 0)
(1.03642 0.0172466 0)
(1.04725 0.0211434 0)
(1.06281 0.0244647 0)
(1.08546 0.0274447 0)
(1.10151 0.0292374 0)
(1.00138 0.0235066 0)
(0.621626 0.00781093 0)
(0.125916 0.000413435 0)
(0.120772 -0.000283921 0)
(0.806891 -0.0116286 0)
(1.06772 -0.0224783 0)
(1.10466 -0.0237928 0)
(1.08205 -0.0209621 0)
(1.06268 -0.0175803 0)
(1.04907 -0.0136866 0)
(1.03938 -0.00913763 0)
(1.0328 -0.00391071 0)
(1.02929 0.00199505 0)
(1.02967 0.00784424 0)
(1.03372 0.0128625 0)
(1.04103 0.0169876 0)
(1.05197 0.0203896 0)
(1.06776 0.0232997 0)
(1.09074 0.0259778 0)
(1.0978 0.0268777 0)
(0.966279 0.0199425 0)
(0.580158 0.00626907 0)
(0.116886 0.000342531 0)
(0.114483 -0.00022112 0)
(0.771214 -0.00927596 0)
(1.0508 -0.019321 0)
(1.10695 -0.0213828 0)
(1.08784 -0.0189274 0)
(1.06809 -0.0156916 0)
(1.05425 -0.0119698 0)
(1.04437 -0.00765809 0)
(1.03756 -0.00269362 0)
(1.0338 0.00295194 0)
(1.03398 0.00849826 0)
(1.0379 0.013136 0)
(1.04517 0.0168298 0)
(1.05612 0.0198397 0)
(1.0721 0.0224343 0)
(1.09476 0.0247867 0)
(1.0913 0.0248993 0)
(0.932192 0.01718 0)
(0.545902 0.00521202 0)
(0.109458 0.00029117 0)
(0.109562 -0.00017083 0)
(0.741232 -0.00745266 0)
(1.0334 -0.01653 0)
(1.10828 -0.0191312 0)
(1.09335 -0.0169944 0)
(1.07332 -0.0138638 0)
(1.05919 -0.0102434 0)
(1.04913 -0.00605098 0)
(1.0421 -0.00126441 0)
(1.03807 0.00410755 0)
(1.03799 0.00930703 0)
(1.04171 0.0135873 0)
(1.04884 0.0169478 0)
(1.0598 0.0196317 0)
(1.076 0.0219295 0)
(1.09754 0.0239029 0)
(1.08241 0.0232652 0)
(0.899687 0.0150692 0)
(0.51682 0.00447091 0)
(0.103154 0.000254957 0)
(0.105726 -0.000128969 0)
(0.716129 -0.00598219 0)
(1.01636 -0.0140234 0)
(1.10874 -0.0169512 0)
(1.09873 -0.0151124 0)
(1.07844 -0.0120069 0)
(1.06404 -0.00842568 0)
(1.05376 -0.00431997 0)
(1.04649 0.000320208 0)
(1.04217 0.00549212 0)
(1.04175 0.0104134 0)
(1.04519 0.0143369 0)
(1.05215 0.0173189 0)
(1.06306 0.0196657 0)
(1.07942 0.021712 0)
(1.09897 0.0232981 0)
(1.07151 0.0219481 0)
(0.868903 0.0134889 0)
(0.491476 0.00395381 0)
(0.0976365 0.000230555 0)
(0.102785 -9.2845e-05 0)
(0.695262 -0.0047508 0)
(1.0003 -0.0117434 0)
(1.10851 -0.014812 0)
(1.10395 -0.0131576 0)
(1.08355 -0.0100153 0)
(1.06882 -0.00643418 0)
(1.05828 -0.00236386 0)
(1.05074 0.00219237 0)
(1.04605 0.00716643 0)
(1.04521 0.0117823 0)
(1.0483 0.0153805 0)
(1.05505 0.0180407 0)
(1.06592 0.0200498 0)
(1.08244 0.0218264 0)
(1.09947 0.0230177 0)
(1.05893 0.0209691 0)
(0.839707 0.0123506 0)
(0.468802 0.00360604 0)
(0.0926514 0.000215712 0)
(0.100619 -5.96998e-05 0)
(0.678163 -0.00367094 0)
(0.985658 -0.00961257 0)
(1.10778 -0.0126399 0)
(1.10896 -0.0111397 0)
(1.08871 -0.00797321 0)
(1.07365 -0.00431451 0)
(1.06281 -0.000186961 0)
(1.05489 0.00434046 0)
(1.04973 0.00918164 0)
(1.0484 0.0135482 0)
(1.0511 0.0168087 0)
(1.05759 0.0191312 0)
(1.0684 0.0208272 0)
(1.08496 0.022328 0)
(1.099 0.0231305 0)
(1.04483 0.020329 0)
(0.811799 0.0115774 0)
(0.447969 0.00338853 0)
(0.0879989 0.000208425 0)
(0.0991663 -2.71555e-05 0)
(0.664536 -0.00267213 0)
(0.972802 -0.00755388 0)
(1.10684 -0.0103411 0)
(1.11386 -0.00887851 0)
(1.094 -0.00562566 0)
(1.07856 -0.00185925 0)
(1.06734 0.00233254 0)
(1.05899 0.00687887 0)
(1.05328 0.0116339 0)
(1.05134 0.0157677 0)
(1.05353 0.0187142 0)
(1.05972 0.0206655 0)
(1.07043 0.0219657 0)
(1.087 0.0231952 0)
(1.09732 0.0235704 0)
(1.02933 0.0200063 0)
(0.784807 0.0111146 0)
(0.428311 0.0032758 0)
(0.0835241 0.000207223 0)
(0.0984123 6.5653e-06 0)
(0.654226 -0.00170023 0)
(0.962039 -0.00550052 0)
(1.10607 -0.00790021 0)
(1.11885 -0.00639804 0)
(1.09949 -0.0030063 0)
(1.08362 0.000949216 0)
(1.07196 0.00530974 0)
(1.06307 0.0099348 0)
(1.05665 0.0146061 0)
(1.05399 0.0184787 0)
(1.05559 0.0210724 0)
(1.0614 0.0226682 0)
(1.07202 0.0236003 0)
(1.08856 0.0245318 0)
(1.09442 0.0244206 0)
(1.01243 0.0200377 0)
(0.758303 0.0109293 0)
(0.40928 0.00325339 0)
(0.0790964 0.000211714 0)
(0.0983777 3.98247e-05 0)
(0.647218 -0.000704027 0)
(0.953668 -0.0033663 0)
(1.10573 -0.0052036 0)
(1.12401 -0.00358169 0)
(1.10528 -1.39942e-05 0)
(1.08896 0.00420022 0)
(1.07677 0.00879107 0)
(1.06721 0.0135556 0)
(1.05996 0.0182256 0)
(1.05642 0.021894 0)
(1.05729 0.0241294 0)
(1.06266 0.0253027 0)
(1.07314 0.0258109 0)
(1.08933 0.0263633 0)
(1.09004 0.0256927 0)
(0.994036 0.0204308 0)
(0.731836 0.0110052 0)
(0.390385 0.00331315 0)
(0.0745997 0.000221193 0)
(0.0991013 7.83916e-05 0)
(0.643597 0.00032722 0)
(0.94803 -0.00108503 0)
(1.10624 -0.00218121 0)
(1.12956 -0.000270636 0)
(1.11146 0.0035871 0)
(1.09464 0.00810736 0)
(1.0818 0.0129663 0)
(1.07144 0.0179319 0)
(1.06318 0.0226215 0)
(1.05857 0.0260587 0)
(1.05858 0.0278914 0)
(1.06339 0.0286095 0)
(1.07371 0.0286576 0)
(1.08923 0.0287882 0)
(1.08409 0.0274286 0)
(0.973977 0.0212176 0)
(0.704899 0.0113294 0)
(0.371167 0.00344887 0)
(0.0699268 0.000235219 0)
(0.100791 0.000139213 0)
(0.64376 0.00148863 0)
(0.945474 0.00142778 0)
(1.10802 0.00124133 0)
(1.13573 0.00355192 0)
(1.11817 0.00779495 0)
(1.10074 0.0127468 0)
(1.08714 0.0180044 0)
(1.07579 0.0232426 0)
(1.06629 0.0279662 0)
(1.06038 0.0311535 0)
(1.05939 0.0325225 0)
(1.06356 0.0327404 0)
(1.07364 0.0322983 0)
(1.08806 0.031926 0)
(1.07632 0.0297136 0)
(0.951954 0.0224264 0)
(0.676964 0.0119033 0)
(0.351191 0.00365806 0)
(0.0649802 0.000253488 0)
(0.10349 0.000198777 0)
(0.648003 0.00288501 0)
(0.946446 0.00432452 0)
(1.1115 0.00525151 0)
(1.14266 0.00808779 0)
(1.12556 0.012825 0)
(1.10745 0.0183204 0)
(1.09289 0.0240801 0)
(1.08028 0.0296539 0)
(1.06924 0.0344587 0)
(1.06178 0.0373795 0)
(1.05962 0.0382111 0)
(1.06304 0.0378549 0)
(1.07285 0.0368556 0)
(1.08562 0.035889 0)
(1.06642 0.0326287 0)
(0.927588 0.0241044 0)
(0.647449 0.0127311 0)
(0.330022 0.00393852 0)
(0.0596684 0.000275566 0)
(0.107493 0.000280407 0)
(0.656977 0.00456684 0)
(0.951377 0.00768896 0)
(1.11725 0.0100021 0)
(1.15067 0.0136026 0)
(1.13382 0.0190355 0)
(1.11489 0.0251851 0)
(1.09916 0.0315125 0)
(1.08505 0.0374934 0)
(1.07216 0.0423423 0)
(1.06284 0.044877 0)
(1.05925 0.0450998 0)
(1.06174 0.0440873 0)
(1.07123 0.0424345 0)
(1.08182 0.0408281 0)
(1.05402 0.0362939 0)
(0.900369 0.0262912 0)
(0.615721 0.0138131 0)
(0.307234 0.00428524 0)
(0.0539087 0.000300559 0)
(0.113133 0.0003889 0)
(0.671316 0.00665267 0)
(0.961106 0.011812 0)
(1.12585 0.0156846 0)
(1.16018 0.0202523 0)
(1.14322 0.0266064 0)
(1.12321 0.0335718 0)
(1.106 0.0406251 0)
(1.09 0.0470728 0)
(1.07484 0.0519355 0)
(1.06335 0.0539605 0)
(1.05814 0.0534175 0)
(1.05953 0.0516055 0)
(1.06865 0.0491977 0)
(1.07656 0.0468336 0)
(1.03864 0.040777 0)
(0.869681 0.0290111 0)
(0.581109 0.0151397 0)
(0.282418 0.00468595 0)
(0.0476388 0.000326628 0)
(0.120911 0.000542931 0)
(0.692053 0.00938495 0)
(0.976407 0.0169667 0)
(1.13786 0.022673 0)
(1.17154 0.0284453 0)
(1.15403 0.0359687 0)
(1.13265 0.0439751 0)
(1.11352 0.051869 0)
(1.09512 0.0587648 0)
(1.07721 0.0635541 0)
(1.06315 0.064904 0)
(1.05607 0.0633705 0)
(1.0563 0.0606294 0)
(1.06494 0.0573775 0)
(1.06949 0.0540506 0)
(1.0197 0.0461795 0)
(0.834814 0.0322892 0)
(0.542913 0.0166877 0)
(0.255216 0.00512212 0)
(0.0408288 0.000351551 0)
(0.131596 0.000767029 0)
(0.720527 0.0131464 0)
(0.998455 0.0236231 0)
(1.15413 0.0315297 0)
(1.18536 0.0388928 0)
(1.16662 0.0479771 0)
(1.14333 0.0571707 0)
(1.12167 0.0659214 0)
(1.10026 0.0731598 0)
(1.07905 0.0775431 0)
(1.06207 0.0778362 0)
(1.0529 0.07509 0)
(1.05189 0.0712969 0)
(1.05988 0.0670214 0)
(1.06011 0.0625404 0)
(0.996426 0.0525669 0)
(0.794914 0.0361011 0)
(0.500446 0.0183972 0)
(0.225378 0.00555983 0)
(0.0334953 0.000371958 0)
(0.146438 0.00111984 0)
(0.758693 0.0185466 0)
(1.02887 0.0325346 0)
(1.17566 0.0431253 0)
(1.20251 0.0525096 0)
(1.18131 0.0635325 0)
(1.15531 0.0740161 0)
(1.13036 0.083515 0)
(1.10527 0.0907725 0)
(1.08024 0.0943167 0)
(1.05997 0.0931243 0)
(1.04851 0.0888171 0)
(1.04611 0.083725 0)
(1.05312 0.078295 0)
(1.0478 0.0725044 0)
(0.967869 0.0599264 0)
(0.749098 0.0403681 0)
(0.453151 0.0201577 0)
(0.192881 0.00594195 0)
(0.0257381 0.000382339 0)
(0.167568 0.00172799 0)
(0.809707 0.026715 0)
(1.07016 0.0452204 0)
(1.20347 0.0592523 0)
(1.22362 0.0713588 0)
(1.19818 0.0841532 0)
(1.16831 0.0957995 0)
(1.13904 0.105614 0)
(1.10942 0.112245 0)
(1.08001 0.114275 0)
(1.05628 0.111016 0)
(1.04251 0.104776 0)
(1.03877 0.0981419 0)
(1.04438 0.0915812 0)
(1.03184 0.0838836 0)
(0.932863 0.0681505 0)
(0.696532 0.0449012 0)
(0.400838 0.0218 0)
(0.158127 0.00618864 0)
(0.0177883 0.000375103 0)
(0.198284 0.00306277 0)
(0.879187 0.0402406 0)
(1.12588 0.0654437 0)
(1.23793 0.0835605 0)
(1.2483 0.0983334 0)
(1.21665 0.11238 0)
(1.18157 0.124256 0)
(1.14702 0.133237 0)
(1.11234 0.138108 0)
(1.07826 0.137568 0)
(1.05092 0.131479 0)
(1.03483 0.122868 0)
(1.02978 0.114496 0)
(1.03356 0.106717 0)
(1.01125 0.0966469 0)
(0.890003 0.0769516 0)
(0.636732 0.0493694 0)
(0.344334 0.0231496 0)
(0.122447 0.00623683 0)
(0.0101264 0.000340205 0)
(0.24025 0.00915884 1.29316e-20)
(0.971059 0.0669608 1.10119e-20)
(1.19374 0.0996613 -3.79853e-21)
(1.27599 0.119729 0)
(1.27386 0.137029 -9.22475e-35)
(1.23458 0.15054 1.33755e-21)
(1.19352 0.160853 -2.35049e-21)
(1.15316 0.167592 0)
(1.11299 0.169661 4.69656e-35)
(1.07386 0.165781 -2.7869e-21)
(1.04264 0.15635 0)
(1.02403 0.145116 -3.25555e-21)
(1.01761 0.13498 -9.57009e-21)
(1.01922 0.1262 -4.51392e-21)
(0.983233 0.113721 -1.35377e-21)
(0.834547 0.0885322 -8.03326e-22)
(0.564063 0.0547125 0)
(0.281581 0.0246631 5.63028e-22)
(0.0863278 0.0065202 6.66933e-22)
(0.00300654 0.000328667 1.21699e-20)
(0.269382 0.0240677 1.02797e-20)
(1.04708 0.109141 1.06773e-22)
(1.24967 0.148417 1.05024e-21)
(1.31011 0.168428 0)
(1.29622 0.186023 -4.80323e-21)
(1.24976 0.197409 -5.37707e-21)
(1.2027 0.205424 -2.40033e-21)
(1.15644 0.209683 -8.3547e-21)
(1.11048 0.208973 0)
(1.06578 0.20189 1.18762e-20)
(1.02993 0.189243 1.16758e-20)
(1.00816 0.175441 3.44907e-21)
(0.999371 0.163212 1.24732e-20)
(0.994842 0.151862 1.74364e-20)
(0.940544 0.135388 0)
(0.761278 0.102994 2.45357e-20)
(0.479463 0.0617852 3.52433e-20)
(0.215499 0.0265926 3.92371e-20)
(0.0513216 0.00619927 -4.50249e-20)
(-0.00373926 -0.0002174 -8.57289e-22)
(0.270916 0.040609 0)
(1.09545 0.163776 1.96746e-21)
(1.28743 0.20806 0)
(1.33662 0.227843 -6.78195e-21)
(1.31364 0.242753 0)
(1.26116 0.250296 -1.07852e-20)
(1.2085 0.254645 4.95638e-21)
(1.15659 0.255376 -1.70266e-20)
(1.1051 0.251128 -3.15974e-22)
(1.05502 0.240257 6.18784e-21)
(1.01468 0.223954 2.56159e-20)
(0.989834 0.207428 -5.46963e-23)
(0.97859 0.193288 -9.05219e-21)
(0.968331 0.179577 -1.64074e-20)
(0.90193 0.158416 1.94104e-20)
(0.710111 0.118317 -3.44034e-20)
(0.432728 0.0693205 -4.5522e-21)
(0.18595 0.0289993 0)
(0.0374547 0.00580138 -1.70397e-24)
(-0.0064504 -0.000870623 0)
(0.264769 0.0545782 3.08109e-20)
(1.12174 0.222143 -1.41571e-20)
(1.31077 0.272325 -9.84485e-21)
(1.35403 0.292595 3.32435e-21)
(1.32471 0.303862 -5.51705e-21)
(1.26773 0.306964 2.27464e-20)
(1.2104 0.307011 1.04159e-20)
(1.15357 0.303606 0)
(1.09707 0.295249 -3.15258e-20)
(1.04202 0.280168 0)
(0.997515 0.260181 -1.35061e-20)
(0.969715 0.240987 -1.64809e-20)
(0.956063 0.224783 -9.85384e-21)
(0.941313 0.208332 -1.1908e-20)
(0.869076 0.182686 0)
(0.676693 0.135981 0)
(0.410635 0.0798913 -2.96877e-20)
(0.177962 0.0338993 5.87832e-21)
(0.0350778 0.00635953 -3.44943e-21)
(-0.0073339 -0.00144405 -4.0859e-21)
(0.257529 0.0669336 -1.57029e-20)
(1.13356 0.280537 0)
(1.32366 0.337702 2.17838e-20)
(1.36334 0.358896 9.7603e-21)
(1.32955 0.366515 1.24999e-20)
(1.26929 0.365218 0)
(1.20832 0.360866 1.03984e-20)
(1.14743 0.353148 1.90153e-20)
(1.08659 0.340479 1.62885e-20)
(1.02713 0.321142 2.91139e-20)
(0.978792 0.297434 0)
(0.948018 0.275315 -3.55676e-20)
(0.931738 0.256798 -2.13049e-20)
(0.913626 0.237973 -1.25723e-20)
(0.840114 0.208239 7.67895e-20)
(0.654177 0.155996 9.15406e-21)
(0.402804 0.0938576 4.31194e-20)
(0.182017 0.0412776 -2.04281e-19)
(0.0401549 0.00859921 1.211e-19)
(-0.00637201 -0.00161759 -1.47819e-19)
(0.2507 0.0781033 -1.17301e-20)
(1.13629 0.337093 2.93674e-21)
(1.32907 0.402342 -2.75939e-21)
(1.36624 0.424815 -1.12008e-20)
(1.32916 0.428982 -1.13294e-20)
(1.26644 0.423471 3.6174e-22)
(1.20257 0.414859 -1.12471e-20)
(1.13832 0.402909 1.98219e-20)
(1.07379 0.386002 -3.50616e-20)
(1.01044 0.362397 0)
(0.958505 0.334677 -1.6197e-20)
(0.924901 0.309482 -3.25624e-22)
(0.90628 0.288866 -2.32725e-20)
(0.885664 0.268132 0)
(0.812985 0.23465 -1.66403e-20)
(0.636619 0.177921 -3.96096e-20)
(0.401554 0.109963 1.05939e-19)
(0.190771 0.0511409 -1.04378e-19)
(0.049276 0.0127378 1.48527e-19)
(-0.00402184 -0.0012669 -1.563e-19)
(0.245062 0.0884906 -1.04501e-22)
(1.13344 0.391147 -2.24162e-21)
(1.32912 0.465206 -9.6952e-21)
(1.36419 0.489171 5.08471e-21)
(1.3246 0.490206 -5.82122e-21)
(1.25998 0.480739 0)
(1.19377 0.468099 -1.08039e-20)
(1.12671 0.452121 -2.08574e-20)
(1.05902 0.431152 -1.83276e-20)
(0.99213 0.403298 0)
(0.936857 0.371631 -1.69e-20)
(0.90073 0.343784 -2.07043e-20)
(0.880084 0.321524 2.52321e-20)
(0.857273 0.298711 -1.52524e-20)
(0.78577 0.262079 -7.26224e-20)
(0.620538 0.201092 4.3284e-20)
(0.401271 0.127395 1.29234e-20)
(0.200598 0.0625043 0)
(0.0593597 0.0182527 -1.43667e-19)
(-0.00115963 -0.000500304 -5.33692e-21)
(0.240723 0.0984225 -1.00524e-21)
(1.12724 0.442539 1.82715e-21)
(1.32529 0.525734 4.91063e-21)
(1.35838 0.551258 1.73157e-20)
(1.31681 0.549504 -2.25901e-20)
(1.25072 0.536407 2.35233e-20)
(1.18261 0.520039 2.32475e-20)
(1.11316 0.500318 -3.33713e-20)
(1.04266 0.475505 1.1057e-20)
(0.972536 0.443573 -7.16985e-20)
(0.914249 0.408382 -1.898e-20)
(0.875906 0.378239 0)
(0.853262 0.354084 2.7341e-20)
(0.828519 0.328967 3.26768e-20)
(0.758486 0.289403 3.90772e-20)
(0.603623 0.224676 -4.6988e-20)
(0.398698 0.145578 -1.39384e-20)
(0.207741 0.074921 1.63951e-20)
(0.0681272 0.0244645 0)
(0.00162676 0.000536866 -1.15801e-20)
(0.237545 0.107994 5.97964e-21)
(1.1193 0.491313 -5.44295e-21)
(1.31887 0.58411 -4.89539e-21)
(1.3498 0.610713 1.12739e-20)
(1.30658 0.606462 -1.08449e-20)
(1.23934 0.590073 -8.21904e-22)
(1.16967 0.570348 -2.52882e-20)
(1.09816 0.547225 -1.20455e-20)
(1.02512 0.518818 -3.18115e-20)
(0.952051 0.483081 5.86243e-23)
(0.891082 0.444688 -5.96562e-20)
(0.850637 0.411972 4.96686e-20)
(0.826025 0.385442 -2.99632e-20)
(0.799758 0.358158 3.59219e-20)
(0.73116 0.315854 0)
(0.585166 0.246985 -2.54711e-20)
(0.392872 0.163242 -2.26894e-23)
(0.211023 0.0869711 -7.14031e-20)
(0.07415 0.0304863 -1.05324e-20)
(0.00383703 0.0015897 0)
(0.235428 0.117414 0)
(1.11051 0.537681 -5.06144e-21)
(1.31045 0.639852 -8.13211e-21)
(1.3392 0.667356 -1.10906e-20)
(1.29458 0.660855 -1.29242e-20)
(1.22644 0.641529 0)
(1.15547 0.618826 -1.19383e-20)
(1.08217 0.592647 -2.22097e-22)
(1.00681 0.560943 6.81693e-20)
(0.931017 0.521683 -9.9137e-21)
(0.867505 0.480026 -4.30151e-20)
(0.825005 0.444242 2.59237e-20)
(0.798658 0.415243 -4.39456e-22)
(0.771235 0.386195 3.82191e-20)
(0.703399 0.340696 2.34909e-20)
(0.564872 0.267397 -5.49491e-20)
(0.383711 0.179437 6.51964e-20)
(0.209872 0.0976062 1.93288e-20)
(0.0767002 0.035533 8.00194e-20)
(0.00524089 0.0024596 -2.16473e-19)
(0.234268 0.126823 -3.01122e-22)
(1.10153 0.581824 -1.0364e-21)
(1.3007 0.692842 1.84162e-21)
(1.3272 0.721136 1.0191e-20)
(1.28136 0.712588 0)
(1.2125 0.690664 -1.1782e-20)
(1.14044 0.665355 3.96499e-20)
(1.06554 0.63645 2.6619e-20)
(0.988034 0.601751 0)
(0.909662 0.559214 -1.42031e-19)
(0.843596 0.514059 1.16172e-19)
(0.799097 0.475053 0)
(0.771393 0.443992 3.49264e-20)
(0.742815 0.413202 -4.42138e-22)
(0.674851 0.363736 -7.50829e-20)
(0.542619 0.285707 2.94397e-20)
(0.371277 0.19346 0)
(0.204754 0.106026 1.04193e-19)
(0.0758892 0.0390063 0)
(0.00580527 0.00299876 -1.02299e-19)
(0.233886 0.136238 1.02153e-21)
(1.09272 0.623895 5.47031e-22)
(1.29003 0.743096 2.32367e-21)
(1.31426 0.77207 0)
(1.26735 0.761656 -1.22537e-20)
(1.19793 0.737449 0)
(1.12495 0.709863 -3.99075e-20)
(1.0486 0.678537 -1.27175e-20)
(0.969085 0.641157 1.21852e-20)
(0.888187 0.595553 -7.02472e-20)
(0.819475 0.54682 1.20531e-20)
(0.773064 0.504867 0)
(0.744252 0.472083 -7.45913e-20)
(0.714194 0.438841 4.41001e-22)
(0.645458 0.384367 0)
(0.518437 0.301475 3.28749e-22)
(0.355613 0.204493 9.48641e-20)
(0.195924 0.111701 -8.99021e-20)
(0.0723692 0.0406158 2.6611e-20)
(0.00555198 0.0031191 0)
(0.233927 0.145544 0)
(1.08429 0.663906 1.88544e-21)
(1.27884 0.790693 -5.62416e-22)
(1.30079 0.820197 -4.98733e-22)
(1.25291 0.80809 -5.09789e-21)
(1.18306 0.781886 -2.65757e-20)
(1.10928 0.752317 1.47664e-20)
(1.0316 0.718855 -1.47067e-20)
(0.950202 0.679105 5.39831e-20)
(0.866761 0.630658 -1.12304e-19)
(0.795296 0.578538 -7.5432e-22)
(0.747018 0.534074 -3.28852e-20)
(0.717048 0.499392 1.20878e-19)
(0.685027 0.462401 -5.15449e-22)
(0.615343 0.402124 -5.81202e-20)
(0.492687 0.314355 -1.03691e-19)
(0.33719 0.212493 0)
(0.183855 0.114535 0)
(0.0666307 0.0406441 2.8678e-20)
(0.00484167 0.00293742 -1.70242e-20)
(0.234544 0.154849 2.8969e-21)
(1.07637 0.701897 -5.62227e-21)
(1.2674 0.835721 5.28748e-22)
(1.28706 0.865586 0)
(1.23831 0.851944 -3.20274e-22)
(1.16813 0.823998 -2.56405e-20)
(1.09367 0.792707 3.65594e-20)
(1.01478 0.757375 5.88693e-20)
(0.931585 0.715579 7.04814e-20)
(0.845567 0.664564 -9.19718e-20)
(0.771257 0.609473 -9.97777e-20)
(0.721009 0.56278 8.79591e-20)
(0.689561 0.525438 0)
(0.65519 0.483346 -2.63951e-20)
(0.584741 0.417033 -6.27888e-20)
(0.46585 0.324433 -7.4406e-20)
(0.316345 0.217248 -8.82206e-20)
(0.169051 0.114473 2.61282e-20)
(0.0589605 0.0389503 -1.54278e-20)
(0.00374985 0.00245379 5.44983e-23)
(0.235416 0.163969 0)
(1.06902 0.738253 0)
(1.2559 0.878266 5.3459e-22)
(1.27328 0.908329 0)
(1.22378 0.8933 1.44453e-20)
(1.15335 0.863837 1.85066e-20)
(1.0783 0.831044 0)
(0.998314 0.794099 7.16378e-21)
(0.913409 0.750576 1.18075e-19)
(0.824793 0.697339 -2.11367e-19)
(0.747542 0.6398 0)
(0.695066 0.590855 -5.65749e-20)
(0.661629 0.549745 -6.12185e-22)
(0.624732 0.501555 -4.85698e-22)
(0.55391 0.429326 6.71005e-20)
(0.438169 0.331592 -5.1428e-23)
(0.293298 0.218558 -1.89752e-19)
(0.152172 0.111477 5.61498e-20)
(0.0502749 0.035779 1.66504e-20)
(0.00246208 0.00175476 0)
(0.236312 0.172963 -1.5435e-20)
(1.06199 0.772952 -5.94485e-21)
(1.2444 0.918379 -4.02714e-21)
(1.25965 0.948519 -7.66862e-21)
(1.20949 0.932228 2.24465e-20)
(1.13887 0.901453 0)
(1.06331 0.867361 2.28114e-20)
(0.98234 0.829051 -1.58093e-20)
(0.895814 0.784109 7.86117e-22)
(0.804616 0.729058 1.54962e-20)
(0.724302 0.669576 1.29342e-19)
(0.669203 0.61812 -1.98883e-20)
(0.633192 0.572147 -7.44507e-20)
(0.593752 0.517213 -3.06762e-20)
(0.522952 0.438994 3.64022e-20)
(0.409873 0.335433 -1.39064e-23)
(0.269006 0.216271 5.10621e-20)
(0.134378 0.105855 -1.20697e-19)
(0.0413305 0.0315441 1.43151e-19)
(0.00113991 0.000925696 2.11459e-20)
(0.23698 0.181721 6.40713e-21)
(1.0553 0.806078 -3.72971e-21)
(1.23307 0.956173 1.29428e-21)
(1.24629 0.98628 -1.58882e-21)
(1.19556 0.968832 -3.39581e-21)
(1.1248 0.936908 -3.33605e-20)
(1.04883 0.901697 7.02715e-21)
(0.966977 0.862252 -6.62573e-20)
(0.878925 0.816184 -1.30909e-19)
(0.785182 0.759754 -1.26394e-19)
(0.70168 0.69878 0)
(0.643457 0.644467 -8.70373e-20)
(0.604259 0.592811 1.07168e-19)
(0.562206 0.530626 0)
(0.491663 0.445756 -7.79337e-20)
(0.381175 0.335407 4.64403e-20)
(0.244508 0.210209 -5.48399e-20)
(0.117006 0.0980545 -6.48804e-20)
(0.0329373 0.0267451 -1.15221e-19)
(-6.7726e-05 7.93276e-05 -9.09654e-20)
(0.237981 0.190326 -7.80024e-21)
(1.04881 0.837603 4.00597e-21)
(1.22197 0.991708 8.08951e-21)
(1.23328 1.0217 -2.46437e-22)
(1.18207 1.0032 8.03046e-21)
(1.11124 0.970279 -1.92571e-20)
(1.03494 0.934102 2.31535e-20)
(0.952308 0.89375 -6.86362e-20)
(0.862825 0.846825 -7.77101e-20)
(0.766622 0.789452 1.32636e-19)
(0.679786 0.72735 2.84436e-19)
(0.617904 0.669913 0)
(0.574886 0.612144 0)
(0.529874 0.542201 -3.53144e-20)
(0.459515 0.449254 0)
(0.352066 0.330605 9.98229e-20)
(0.221036 0.199677 1.17865e-19)
(0.10203 0.0882167 0)
(0.0263184 0.0218731 0)
(-0.00103637 -0.000684203 9.76801e-20)
(0.238606 0.198447 9.48708e-21)
(1.04253 0.867514 7.34776e-21)
(1.21117 1.02509 6.17349e-21)
(1.22069 1.0549 -2.25317e-21)
(1.16908 1.03544 7.03865e-21)
(1.09823 1.00164 2.15035e-20)
(1.02169 0.964635 -3.20994e-20)
(0.938394 0.923575 -1.1385e-23)
(0.847591 0.87604 -1.02488e-21)
(0.74903 0.818139 -1.05464e-21)
(0.658742 0.755229 1.46617e-19)
(0.592667 0.694567 0)
(0.545187 0.630658 1.08352e-19)
(0.496447 0.552462 7.53509e-20)
(0.425586 0.449393 1.81443e-19)
(0.321847 0.319711 5.37055e-20)
(0.199829 0.182363 -6.34156e-20)
(0.0934835 0.0739582 -3.7351e-20)
(0.0264414 0.0158659 0)
(-0.000568815 -0.00110977 1.04882e-19)
(0.239553 0.206573 -2.2728e-20)
(1.03644 0.895956 0)
(1.20065 1.05638 8.62785e-21)
(1.20854 1.08596 -2.88419e-21)
(1.15665 1.06563 -5.11321e-21)
(1.08582 1.03106 -2.58971e-20)
(1.00913 0.993354 6.40843e-20)
(0.92527 0.951763 -5.51175e-21)
(0.833265 0.903841 0)
(0.732479 0.845763 -1.4712e-19)
(0.638667 0.782367 -3.19382e-19)
(0.567913 0.71861 1.28978e-20)
(0.515348 0.648842 1.49313e-19)
(0.461701 0.562068 0)
(0.388683 0.446774 1.22311e-19)
(0.288202 0.301821 0)
(0.179163 0.153157 0)
(0.0963419 0.0414581 -4.03561e-20)
(0.0573071 -0.00538997 0)
(0.027215 0.00710289 2.8099e-20)
(0.240036 0.214099 -2.64609e-20)
(1.0305 0.923125 0)
(1.19041 1.08576 1.55206e-20)
(1.19679 1.11513 0)
(1.14473 1.09405 1.66059e-21)
(1.07394 1.05884 0)
(0.997199 1.02058 3.44954e-21)
(0.912843 0.978658 9.54215e-21)
(0.819728 0.930597 9.77964e-21)
(0.716795 0.872693 -1.62012e-19)
(0.619381 0.809198 9.66605e-21)
(0.543417 0.742756 1.03596e-19)
(0.485007 0.667523 1.45764e-19)
(0.424765 0.571833 1.95563e-20)
(0.347008 0.44308 9.57488e-20)
(0.246475 0.278166 0)
(0.148332 0.10887 1.33414e-19)
(0.08164 -0.00576312 -7.8503e-20)
(0.0328852 0.0588225 9.1761e-20)
(-0.0382318 0.453998 -1.09e-19)
(0.240445 0.221445 2.25514e-20)
(1.02451 0.948912 3.25287e-20)
(1.18039 1.11357 0)
(1.1853 1.14284 1.0887e-21)
(1.13314 1.12127 -2.14744e-21)
(1.06233 1.08567 3.82329e-20)
(0.98558 1.04711 2.32078e-20)
(0.900708 1.00522 0)
(0.806457 0.957426 6.5728e-20)
(0.701305 0.900243 -8.55708e-21)
(0.599965 0.837204 0)
(0.51794 0.768776 0)
(0.452366 0.688306 1.30375e-19)
(0.383386 0.582587 -6.02233e-20)
(0.297573 0.440443 -9.67638e-20)
(0.192626 0.252586 0)
(0.0837066 0.113736 6.76625e-20)
(0.00766631 0.466526 -7.89375e-20)
(0.0322117 1.92168 -4.46854e-20)
(0.0589101 2.8222 -5.45109e-20)
(0.240453 0.228197 -1.77471e-20)
(1.01851 0.973492 -4.32165e-20)
(1.17059 1.1398 1.00545e-20)
(1.17408 1.16896 5.88184e-21)
(1.12195 1.14709 0)
(1.05108 1.11127 2.41856e-20)
(0.974485 1.07265 3.3034e-20)
(0.889053 1.031 -4.71074e-21)
(0.793726 0.983804 9.76731e-21)
(0.686383 0.927772 1.54951e-19)
(0.581019 0.865678 1.62107e-19)
(0.492473 0.796514 1.16125e-19)
(0.41838 0.71124 1.31033e-19)
(0.339161 0.593327 -1.4114e-19)
(0.246962 0.442034 -1.45875e-19)
(0.125066 0.295367 0)
(0.0426523 0.871266 0)
(0.0903685 2.57668 3.78415e-20)
(0.0926824 3.20923 0)
(0.0936043 3.38862 9.95667e-20)
(0.243244 0.234443 0)
(1.01275 0.99722 0)
(1.16072 1.1643 0)
(1.16289 1.19331 2.21911e-21)
(1.11084 1.17128 -9.28971e-22)
(1.04 1.1355 1.47232e-20)
(0.96384 1.0971 2.17344e-20)
(0.877809 1.05589 -4.65211e-21)
(0.78147 1.00956 8.31738e-20)
(0.672011 0.955094 -1.94894e-21)
(0.562617 0.894402 3.2108e-19)
(0.467436 0.826133 -1.33443e-20)
(0.383108 0.73703 1.59448e-20)
(0.294327 0.601953 2.03961e-20)
(0.185876 0.460168 -3.51284e-22)
(0.0971625 1.01171 3.43723e-22)
(0.128929 2.75708 -1.97393e-19)
(0.133646 3.30101 -7.52736e-20)
(0.123195 3.42468 4.06176e-20)
(0.111876 3.44461 -4.61387e-20)
(0.165216 0.179084 1.1446e-20)
(1.00297 1.02281 0)
(1.15069 1.18735 -2.29647e-20)
(1.15209 1.21621 -1.89154e-20)
(1.10029 1.19434 4.87643e-21)
(1.02973 1.15883 -1.4237e-20)
(0.953519 1.12039 -2.31635e-20)
(0.867051 1.07986 5.45447e-20)
(0.769796 1.03472 -6.89752e-20)
(0.658388 0.9823 0)
(0.545025 0.923441 1.58837e-19)
(0.443419 0.857484 -9.50656e-20)
(0.346964 0.768815 0)
(0.242795 0.613099 1.96715e-20)
(0.138764 0.803475 4.71041e-20)
(0.143092 2.55753 -5.41311e-20)
(0.192123 3.33121 6.20131e-20)
(0.173648 3.43734 3.39611e-20)
(0.143677 3.4557 3.91521e-20)
(0.123912 3.46406 6.35617e-20)
(0.279025 0.273942 -2.17093e-20)
(0.986864 1.03429 0)
(1.13317 1.21389 2.64445e-20)
(1.13787 1.24942 2.39928e-20)
(1.08352 1.22839 -1.00324e-20)
(1.01246 1.19328 8.9125e-21)
(0.935122 1.15637 2.53464e-20)
(0.848142 1.11724 4.21615e-21)
(0.749553 1.07439 6.68035e-20)
(0.635417 1.02598 1.36142e-19)
(0.51643 0.971706 9.04909e-21)
(0.403921 0.910369 8.47654e-20)
(0.282552 0.817026 1.50553e-20)
(0.206981 0.977877 -1.89339e-20)
(0.21306 2.43048 -4.33519e-20)
(0.263513 3.33808 4.4148e-20)
(0.246572 3.46552 -4.91922e-20)
(0.212091 3.4832 -2.86525e-20)
(0.178069 3.50688 -2.72959e-20)
(0.133181 3.50082 -3.96239e-21)
(0.269595 0.273097 0)
(0.984624 1.05786 8.6659e-21)
(1.12508 1.23796 -5.7595e-21)
(1.12749 1.27329 -3.20691e-21)
(1.07291 1.25199 -8.90089e-21)
(1.00194 1.21706 -7.31063e-21)
(0.924319 1.18043 -1.45183e-20)
(0.837136 1.14221 3.84878e-21)
(0.738021 1.10089 -7.02136e-20)
(0.622576 1.05522 -2.91231e-21)
(0.500556 1.00462 -2.89047e-19)
(0.3827 0.946652 1.20628e-20)
(0.272397 0.892707 -1.43157e-20)
(0.241354 1.56892 -1.75787e-20)
(0.302276 3.1469 3.63064e-21)
(0.316371 3.46928 3.60949e-22)
(0.274639 3.51544 7.69008e-20)
(0.240559 3.53709 4.04029e-20)
(0.194885 3.5561 -1.56243e-20)
(0.145216 3.55178 -2.11975e-20)
(0.255531 0.271276 2.31283e-20)
(0.981508 1.08409 5.97825e-20)
(1.11662 1.26418 -1.66187e-20)
(1.11673 1.29875 -1.20775e-20)
(1.06192 1.27708 0)
(0.991082 1.24216 -2.93815e-21)
(0.913428 1.20586 -1.77649e-20)
(0.826291 1.16847 3.45827e-21)
(0.726954 1.12874 -7.7552e-21)
(0.61069 1.08595 -1.25133e-19)
(0.486511 1.03952 -1.34341e-19)
(0.363916 0.985271 -1.0001e-19)
(0.273182 1.03737 -1.08073e-19)
(0.30439 2.31428 1.11375e-19)
(0.380617 3.39787 9.75907e-20)
(0.354137 3.52695 0)
(0.305977 3.5616 0)
(0.269264 3.59379 -1.2532e-20)
(0.225065 3.63825 0)
(0.156226 3.62187 -2.22318e-20)
(0.24557 0.273372 -3.55707e-20)
(0.976439 1.11126 -5.19629e-20)
(1.10683 1.29172 0)
(1.10477 1.32514 1.32255e-21)
(1.04975 1.30288 -1.34236e-20)
(0.979181 1.26786 1.24652e-21)
(0.901812 1.2319 -9.46322e-21)
(0.814941 1.19526 2.37575e-21)
(0.715631 1.15707 -5.14002e-20)
(0.59894 1.11705 6.41237e-21)
(0.473448 1.07493 0)
(0.349195 1.02998 0)
(0.298552 1.32519 -9.91509e-20)
(0.380341 2.97762 4.09437e-20)
(0.444307 3.49837 5.44123e-20)
(0.392169 3.56166 0)
(0.350435 3.61649 -1.17891e-20)