/*--------------------------------*- C++ -*----------------------------------*\
  =========                 |
  \\      /  F ield         | OpenFOAM: The Open Source CFD Toolbox
   \\    /   O peration     | Website:  https://openfoam.org
    \\  /    A nd           | Version:  6
     \\/     M anipulation  |
\*---------------------------------------------------------------------------*/
FoamFile
{
    version     2.0;
    format      ascii;
    class       volVectorField;
    location    "85.8";
    object      U;
}
// * * * * * * * * * * * * * * * * * * * * * * * * * * * * * * * * * * * * * //

dimensions      [0 1 -1 0 0 0 0];

internalField   nonuniform List<vector> 
8800
(
(0.987184 -0.0766654 0)
(1.00189 -0.0551902 0)
(0.999724 -0.028548 0)
(1.00003 -0.0151426 0)
(1.0001 -0.00854296 0)
(1.00012 -0.00504421 0)
(1.00008 -0.00299851 0)
(1.00002 -0.00169835 0)
(0.999993 -0.000792416 0)
(1.00006 -7.71977e-05 0)
(0.99996 0.000655076 0)
(0.999988 0.00142394 0)
(1.00005 0.00243674 0)
(1.00006 0.0040031 0)
(1.00005 0.00663547 0)
(1.00004 0.0113739 0)
(0.999938 0.0208166 0)
(0.999167 0.0386713 0)
(1.0071 0.0724576 0)
(0.771214 0.0366616 0)
(0.363076 -0.0160168 0)
(1.04332 -0.0768134 0)
(1.0846 -0.070443 0)
(1.0452 -0.0535371 0)
(1.02329 -0.0388874 0)
(1.01203 -0.0262081 0)
(1.00643 -0.0168452 0)
(1.00359 -0.0103117 0)
(1.00215 -0.00564966 0)
(1.00144 -0.00198876 0)
(1.00129 0.00133307 0)
(1.00165 0.0047201 0)
(1.00267 0.00865078 0)
(1.00467 0.0139718 0)
(1.0086 0.0216786 0)
(1.01656 0.0326455 0)
(1.0325 0.0465572 0)
(1.06267 0.0616729 0)
(1.09187 0.0761039 0)
(0.838666 0.0565635 0)
(0.216861 -0.00242911 0)
(1.07591 -0.0501282 0)
(1.09989 -0.0482994 0)
(1.06465 -0.0404488 0)
(1.04004 -0.0335867 0)
(1.02392 -0.0260605 0)
(1.01412 -0.0184723 0)
(1.00856 -0.0116464 0)
(1.00558 -0.00577207 0)
(1.00431 -0.000349183 0)
(1.00464 0.00489936 0)
(1.00658 0.0102934 0)
(1.01062 0.0163679 0)
(1.01794 0.023382 0)
(1.03052 0.0308449 0)
(1.05062 0.0378702 0)
(1.08036 0.0445507 0)
(1.10626 0.0513611 0)
(0.942505 0.0416255 0)
(0.216127 0.00246254 0)
(0.175199 -0.000815659 0)
(1.01773 -0.0354726 0)
(1.10522 -0.0413602 0)
(1.07828 -0.0360386 0)
(1.05348 -0.0300976 0)
(1.03622 -0.0245144 0)
(1.02401 -0.0187772 0)
(1.01589 -0.0126872 0)
(1.01101 -0.00648941 0)
(1.00879 -0.000146272 0)
(1.00935 0.00611365 0)
(1.01263 0.0121133 0)
(1.01888 0.017923 0)
(1.02876 0.0234841 0)
(1.04318 0.0287808 0)
(1.0637 0.0342566 0)
(1.09355 0.0402359 0)
(1.09339 0.0419896 0)
(0.827072 0.0229265 0)
(0.173962 0.000854319 0)
(0.154014 -0.000609403 0)
(0.956267 -0.025441 0)
(1.1035 -0.0350976 0)
(1.0877 -0.0326117 0)
(1.06175 -0.0279496 0)
(1.04414 -0.0229148 0)
(1.03167 -0.0176552 0)
(1.02281 -0.0121096 0)
(1.01697 -0.00615951 0)
(1.0141 0.000320684 0)
(1.01475 0.006788 0)
(1.01875 0.0126726 0)
(1.0258 0.0179344 0)
(1.03607 0.0228347 0)
(1.05062 0.0275874 0)
(1.07185 0.0321073 0)
(1.10005 0.0360328 0)
(1.06802 0.0340762 0)
(0.73938 0.0143329 0)
(0.152147 0.000653293 0)
(0.139664 -0.000465421 0)
(0.899437 -0.0190519 0)
(1.09586 -0.0300333 0)
(1.09579 -0.0291278 0)
(1.0693 -0.0253833 0)
(1.05087 -0.0212289 0)
(1.03793 -0.0164384 0)
(1.0288 -0.0111323 0)
(1.02266 -0.00536986 0)
(1.01949 0.000971611 0)
(1.02007 0.00729013 0)
(1.02419 0.0129251 0)
(1.03136 0.0178491 0)
(1.04184 0.022294 0)
(1.05695 0.0262514 0)
(1.07914 0.029699 0)
(1.10222 0.0323115 0)
(1.03583 0.0281842 0)
(0.672694 0.0102378 0)
(0.137024 0.000516039 0)
(0.129152 -0.000359743 0)
(0.849948 -0.0146809 0)
(1.08354 -0.0258827 0)
(1.10151 -0.0261528 0)
(1.07619 -0.0228493 0)
(1.05722 -0.0191855 0)
(1.04382 -0.0149163 0)
(1.03433 -0.00996688 0)
(1.02794 -0.00440899 0)
(1.02457 0.00175872 0)
(1.02499 0.00786696 0)
(1.02906 0.0132244 0)
(1.03633 0.0177268 0)
(1.04708 0.0215634 0)
(1.06259 0.0248534 0)
(1.08521 0.0277769 0)
(1.10127 0.0295127 0)
(1.00078 0.0236931 0)
(0.620696 0.00788262 0)
(0.125571 0.000419292 0)
(0.121146 -0.000278714 0)
(0.807945 -0.0115127 0)
(1.06836 -0.0222508 0)
(1.10509 -0.0234851 0)
(1.08248 -0.0205888 0)
(1.0631 -0.0171342 0)
(1.04942 -0.0131657 0)
(1.03964 -0.00854661 0)
(1.03296 -0.00325367 0)
(1.02932 0.00270124 0)
(1.02956 0.00856511 0)
(1.03357 0.0135752 0)
(1.04089 0.017595 0)
(1.05172 0.0209208 0)
(1.06745 0.0237962 0)
(1.0904 0.0264155 0)
(1.0974 0.0272468 0)
(0.965313 0.0201831 0)
(0.578824 0.00635914 0)
(0.11642 0.000349547 0)
(0.11496 -0.00021506 0)
(0.772655 -0.009138 0)
(1.05173 -0.0190465 0)
(1.10754 -0.0210072 0)
(1.0884 -0.0184744 0)
(1.06863 -0.0151574 0)
(1.05471 -0.0113431 0)
(1.04473 -0.00692576 0)
(1.03779 -0.00186499 0)
(1.03385 0.00384297 0)
(1.03384 0.0094096 0)
(1.03772 0.0140449 0)
(1.04497 0.017634 0)
(1.05577 0.020569 0)
(1.07169 0.0231151 0)
(1.09429 0.0253829 0)
(1.09065 0.0253888 0)
(0.930714 0.0174901 0)
(0.544053 0.00532535 0)
(0.108842 0.000299778 0)
(0.110161 -0.00016365 0)
(0.743144 -0.00728946 0)
(1.03472 -0.0161983 0)
(1.10908 -0.018662 0)
(1.09405 -0.0164263 0)
(1.07399 -0.0131933 0)
(1.0598 -0.00945914 0)
(1.04962 -0.00515254 0)
(1.04244 -0.000254395 0)
(1.0382 0.00522136 0)
(1.03786 0.0104788 0)
(1.0415 0.0147539 0)
(1.04859 0.0179581 0)
(1.05933 0.0205448 0)
(1.07543 0.0227957 0)
(1.09687 0.024677 0)
(1.08141 0.0238956 0)
(0.897529 0.015465 0)
(0.514318 0.00461232 0)
(0.102353 0.000265308 0)
(0.106467 -0.000120705 0)
(0.718598 -0.00579282 0)
(1.01817 -0.0136338 0)
(1.10982 -0.0163853 0)
(1.09962 -0.0144112 0)
(1.0793 -0.01118 0)
(1.0648 -0.00746387 0)
(1.05439 -0.00320661 0)
(1.04694 0.00158894 0)
(1.04234 0.00687563 0)
(1.0416 0.0118488 0)
(1.04492 0.0157874 0)
(1.05179 0.0186233 0)
(1.06246 0.0208732 0)
(1.07872 0.0228515 0)
(1.09807 0.0243104 0)
(1.07003 0.0227684 0)
(0.865853 0.0139921 0)
(0.48815 0.00413004 0)
(0.0966067 0.000243132 0)
(0.103693 -8.32308e-05 0)
(0.698386 -0.00453155 0)
(1.0027 -0.0112848 0)
(1.10992 -0.01414 0)
(1.10505 -0.012342 0)
(1.08462 -0.0090625 0)
(1.06981 -0.0053038 0)
(1.05911 -0.0010335 0)
(1.05133 0.00371913 0)
(1.0463 0.00886692 0)
(1.04508 0.0135899 0)
(1.048 0.0172125 0)
(1.05461 0.0196854 0)
(1.06516 0.0216024 0)
(1.08154 0.0233119 0)
(1.0982 0.0244061 0)
(1.05676 0.0220222 0)
(0.83549 0.0129873 0)
(0.464439 0.0038242 0)
(0.09134 0.000230872 0)
(0.101721 -4.85128e-05 0)
(0.682045 -0.00341799 0)
(0.98876 -0.00907913 0)
(1.10962 -0.0118378 0)
(1.11034 -0.0101358 0)
(1.09005 -0.00677937 0)
(1.07488 -0.00291521 0)
(1.06386 0.00143619 0)
(1.05567 0.00620942 0)
(1.05011 0.0112732 0)
(1.0483 0.015779 0)
(1.05076 0.0190964 0)
(1.05705 0.0212041 0)
(1.06745 0.0227885 0)
(1.08385 0.0242097 0)
(1.09737 0.0248678 0)
(1.04172 0.0216667 0)
(0.806073 0.0123766 0)
(0.442302 0.00365671 0)
(0.0863441 0.000226447 0)
(0.100494 -1.42714e-05 0)
(0.669284 -0.00238206 0)
(0.976733 -0.00694142 0)
(1.10922 -0.00942079 0)
(1.11562 -0.00773001 0)
(1.09567 -0.00425082 0)
(1.08012 -0.000214508 0)
(1.0687 0.00428755 0)
(1.06002 0.00914935 0)
(1.05381 0.0141827 0)
(1.05129 0.0185012 0)
(1.05318 0.0215257 0)
(1.05909 0.0232577 0)
(1.06931 0.0245011 0)
(1.0857 0.0256299 0)
(1.09526 0.0257827 0)
(1.02493 0.0217031 0)
(0.777134 0.0121111 0)
(0.421019 0.00360258 0)
(0.0814528 0.000228486 0)
(0.100003 2.22178e-05 0)
(0.65996 -0.00136774 0)
(0.966934 -0.004799 0)
(1.10909 -0.00682802 0)
(1.12104 -0.00505195 0)
(1.10157 -0.00139132 0)
(1.0856 0.00288793 0)
(1.07371 0.00761593 0)
(1.06443 0.012639 0)
(1.05744 0.0177022 0)
(1.05406 0.0218671 0)
(1.05528 0.0246048 0)
(1.06074 0.0259627 0)
(1.07074 0.0268422 0)
(1.08699 0.0276407 0)
(1.09176 0.0271937 0)
(1.00631 0.0221762 0)
(0.748146 0.0121663 0)
(0.399974 0.00364903 0)
(0.0765261 0.000236381 0)
(0.100259 5.43918e-05 0)
(0.654058 -0.00031855 0)
(0.959672 -0.00257642 0)
(1.10955 -0.00398961 0)
(1.12677 -0.00201611 0)
(1.10786 0.00190075 0)
(1.09142 0.0065061 0)
(1.07897 0.0115434 0)
(1.06897 0.0168065 0)
(1.06103 0.0219609 0)
(1.05663 0.0259985 0)
(1.05703 0.0284497 0)
(1.06197 0.0294303 0)
(1.07168 0.0299227 0)
(1.08746 0.0303413 0)
(1.08655 0.0291859 0)
(0.985636 0.023118 0)
(0.718511 0.0125281 0)
(0.378602 0.00378639 0)
(0.0714386 0.00024929 0)
(0.101353 0.000108046 0)
(0.651719 0.000811831 0)
(0.955268 -0.000194458 0)
(1.11099 -0.000825369 0)
(1.133 0.00147957 0)
(1.11465 0.00574863 0)
(1.0977 0.0107724 0)
(1.08458 0.0162126 0)
(1.07369 0.0218025 0)
(1.06462 0.027111 0)
(1.05899 0.0310495 0)
(1.05842 0.0332048 0)
(1.06273 0.033795 0)
(1.07208 0.0338757 0)
(1.08695 0.0338733 0)
(1.07939 0.0318348 0)
(0.962545 0.0245688 0)
(0.687568 0.0131859 0)
(0.356371 0.00400581 0)
(0.0660803 0.000266318 0)
(0.103428 0.000160805 0)
(0.653187 0.00193046 0)
(0.954082 0.00243271 0)
(1.11387 0.00276631 0)
(1.13996 0.00553843 0)
(1.12211 0.0102876 0)
(1.10456 0.0158411 0)
(1.09064 0.0217951 0)
(1.07868 0.0278067 0)
(1.06823 0.0333347 0)
(1.06114 0.0371916 0)
(1.05943 0.0390114 0)
(1.06299 0.0392087 0)
(1.0719 0.0388455 0)
(1.08522 0.0383348 0)
(1.06995 0.0352451 0)
(0.936542 0.0265749 0)
(0.654605 0.0141318 0)
(0.332786 0.00429822 0)
(0.0603594 0.00028635 0)
(0.10658 0.000224872 0)
(0.659036 0.00340974 0)
(0.956497 0.00535603 0)
(1.11865 0.00693252 0)
(1.1479 0.0103236 0)
(1.13041 0.0157101 0)
(1.11217 0.0219268 0)
(1.09726 0.0285176 0)
(1.084 0.0350496 0)
(1.07189 0.0408465 0)
(1.06306 0.0446109 0)
(1.06004 0.0460782 0)
(1.06268 0.0458479 0)
(1.07107 0.0449939 0)
(1.08225 0.0439154 0)
(1.05778 0.0395329 0)
(0.906963 0.0291642 0)
(0.618847 0.0153495 0)
(0.307384 0.00464924 0)
(0.0542044 0.000307772 0)
(0.111097 0.000311828 0)
(0.66963 0.00514253 0)
(0.963141 0.00887134 0)
(1.12586 0.0118328 0)
(1.15714 0.016039 0)
(1.13978 0.0222519 0)
(1.1207 0.0292847 0)
(1.10458 0.0366499 0)
(1.08971 0.0438008 0)
(1.07559 0.0499079 0)
(1.06472 0.0535503 0)
(1.06014 0.0546138 0)
(1.06176 0.0539102 0)
(1.06952 0.0525124 0)
(1.07795 0.0507413 0)
(1.04227 0.0447966 0)
(0.872963 0.0323575 0)
(0.579473 0.0168022 0)
(0.279765 0.00503604 0)
(0.0475778 0.000328211 0)
(0.117336 0.000425771 0)
(0.685736 0.00730307 0)
(0.974637 0.0131151 0)
(1.13604 0.0176915 0)
(1.16802 0.0229384 0)
(1.1505 0.0302313 0)
(1.13035 0.0382653 0)
(1.11271 0.04655 0)
(1.09586 0.0543993 0)
(1.07932 0.0608129 0)
(1.06606 0.064254 0)
(1.0596 0.0648062 0)
(1.06017 0.0635961 0)
(1.06728 0.0616001 0)
(1.07204 0.059007 0)
(1.02261 0.0511183 0)
(0.833515 0.0361183 0)
(0.535667 0.0184134 0)
(0.249657 0.00542126 0)
(0.0404918 0.00034438 0)
(0.12582 0.000587822 0)
(0.708347 0.0101269 0)
(0.991844 0.0183909 0)
(1.14988 0.0248581 0)
(1.18105 0.0314252 0)
(1.16291 0.0401208 0)
(1.14135 0.0493627 0)
(1.12175 0.0587012 0)
(1.10242 0.0672733 0)
(1.08298 0.0738969 0)
(1.06696 0.0769804 0)
(1.0584 0.076884 0)
(1.05783 0.0750973 0)
(1.06414 0.0723963 0)
(1.06398 0.0687345 0)
(0.997715 0.0585264 0)
(0.787412 0.0403277 0)
(0.486702 0.0200506 0)
(0.216995 0.00575054 0)
(0.0330284 0.000352176 0)
(0.137312 0.000820729 0)
(0.738807 0.0139924 0)
(1.01592 0.0251684 0)
(1.16816 0.0338775 0)
(1.19689 0.0420917 0)
(1.17738 0.0525846 0)
(1.15389 0.0632438 0)
(1.13171 0.0737112 0)
(1.10928 0.0829223 0)
(1.08642 0.0895427 0)
(1.06729 0.0919995 0)
(1.05647 0.0910716 0)
(1.05476 0.088666 0)
(1.05975 0.0851171 0)
(1.05298 0.0801334 0)
(0.966185 0.0669206 0)
(0.733346 0.0447356 0)
(0.43212 0.0215031 0)
(0.18205 0.0059526 0)
(0.0253592 0.000347119 0)
(0.153109 0.0011887 0)
(0.779143 0.0195432 0)
(1.04855 0.0342509 0)
(1.19185 0.0456999 0)
(1.21639 0.0562567 0)
(1.19427 0.0686895 0)
(1.16802 0.0808967 0)
(1.14245 0.0923897 0)
(1.11622 0.10193 0)
(1.08938 0.108105 0)
(1.06683 0.109525 0)
(1.05365 0.107517 0)
(1.05082 0.104398 0)
(1.0539 0.100075 0)
(1.03795 0.0931718 0)
(0.926195 0.0759949 0)
(0.670072 0.0489175 0)
(0.371993 0.0224818 0)
(0.145558 0.00594715 0)
(0.0177551 0.000325249 0)
(0.175437 0.00182447 0)
(0.832573 0.0279209 0)
(1.09253 0.047198 0)
(1.22205 0.0622076 0)
(1.24002 0.0756866 0)
(1.21368 0.0901074 0)
(1.1835 0.103681 0)
(1.15354 0.115709 0)
(1.12274 0.12491 0)
(1.09147 0.129926 0)
(1.06531 0.129736 0)
(1.04975 0.126309 0)
(1.04585 0.12232 0)
(1.04652 0.116978 0)
(1.01735 0.107612 0)
(0.875494 0.0851632 0)
(0.596846 0.0522306 0)
(0.307377 0.0226525 0)
(0.108855 0.00566315 0)
(0.0105834 0.000283495 0)
(0.207731 0.0032267 0)
(0.904922 0.0418287 0)
(1.15106 0.0678731 0)
(1.25913 0.0869431 0)
(1.26759 0.103369 0)
(1.23497 0.119233 0)
(1.19947 0.133221 0)
(1.16413 0.144643 0)
(1.12818 0.152379 0)
(1.09219 0.155238 0)
(1.06244 0.152705 0)
(1.04461 0.147461 0)
(1.03971 0.142448 0)
(1.03685 0.135894 0)
(0.988859 0.122901 0)
(0.811508 0.0934018 0)
(0.51434 0.0538911 0)
(0.241051 0.0217943 0)
(0.0740543 0.00508393 0)
(0.00433454 0.000219539 0)
(0.251787 0.00958726 8.34779e-21)
(1.00005 0.0693734 7.18471e-21)
(1.22177 0.103006 -2.52291e-21)
(1.30009 0.123734 0)
(1.29615 0.143017 -6.57072e-35)
(1.25589 0.158455 9.64316e-22)
(1.21432 0.171039 -1.75998e-21)
(1.17316 0.180404 0)
(1.13176 0.185591 3.67923e-35)
(1.09085 0.185517 -2.23643e-21)
(1.05733 0.180237 0)
(1.03727 0.173143 -2.6928e-21)
(1.03198 0.167526 -7.97361e-21)
(1.02305 0.160239 -3.78446e-21)
(0.947031 0.141185 -1.14274e-21)
(0.726767 0.101202 -6.79427e-22)
(0.417654 0.0537411 0)
(0.17235 0.020192 4.75543e-22)
(0.0413351 0.00437059 5.63162e-22)
(-0.00104827 0.000110666 1.02939e-20)
(0.282447 0.0251615 5.63029e-21)
(1.079 0.112944 1.15765e-22)
(1.28006 0.153061 6.50029e-22)
(1.33721 0.173734 0)
(1.32136 0.193144 -3.24806e-21)
(1.27407 0.206499 -3.72423e-21)
(1.22656 0.216872 -1.75343e-21)
(1.17961 0.223901 -6.3188e-21)
(1.13268 0.226582 0)
(1.08663 0.223778 9.45012e-21)
(1.04914 0.21603 9.43069e-21)
(1.0266 0.207283 2.80993e-21)
(1.01854 0.200341 1.03346e-20)
(0.996806 0.189987 1.46274e-20)
(0.878356 0.161078 0)
(0.608941 0.107542 2.06521e-20)
(0.305121 0.0522574 2.96225e-20)
(0.102666 0.0175366 3.29604e-20)
(0.0100085 0.0024941 -3.78059e-20)
(-0.00601417 -0.000468313 -7.21255e-22)
(0.284149 0.0426021 0)
(1.12971 0.169232 8.54112e-22)
(1.32004 0.214252 0)
(1.36638 0.234623 -3.92233e-21)
(1.34142 0.251088 0)
(1.28822 0.260538 -7.15037e-21)
(1.23517 0.267189 3.53494e-21)
(1.18276 0.270705 -1.25495e-20)
(1.13066 0.269958 -3.2633e-22)
(1.07989 0.263723 4.83836e-21)
(1.03889 0.253049 2.06733e-20)
(1.01423 0.242426 -2.90244e-23)
(1.00293 0.233699 -7.48967e-21)
(0.967257 0.219293 -1.36859e-20)
(0.813061 0.179025 1.62385e-20)
(0.518732 0.111854 -2.87482e-20)
(0.234947 0.0503136 -3.78762e-21)
(0.0635706 0.0147355 0)
(-0.00676443 0.000118001 -3.65496e-24)
(-0.0085763 -0.00118825 0)
(0.277534 0.0572092 8.13763e-21)
(1.15765 0.229245 -4.40596e-21)
(1.34524 0.280075 -3.95194e-21)
(1.38598 0.300792 1.76318e-21)
(1.3548 0.31331 -2.98354e-21)
(1.29721 0.318169 1.4809e-20)
(1.23966 0.320354 7.28824e-21)
(1.18261 0.319622 0)
(1.12599 0.314779 -2.38646e-20)
(1.07107 0.304542 0)
(1.02701 0.290521 -1.07488e-20)
(1.00054 0.277739 -1.34134e-20)
(0.985951 0.266811 -8.11118e-21)
(0.93736 0.247243 -9.89723e-21)
(0.757153 0.195509 0)
(0.454869 0.11659 0)
(0.190889 0.0499362 -2.45288e-20)
(0.0384245 0.0122207 4.84204e-21)
(-0.0185781 -0.00261562 -2.85278e-21)
(-0.0105888 -0.00203338 -3.37954e-21)
(0.269454 0.0699752 -8.12623e-22)
(1.17027 0.289117 0)
(1.35945 0.346843 6.76192e-21)
(1.39702 0.368286 4.62061e-21)
(1.36158 0.376854 7.04146e-21)
(1.30083 0.377101 0)
(1.23981 0.374671 6.95881e-21)
(1.17903 0.369434 1.3667e-20)
(1.11864 0.360159 1.20866e-20)
(1.06017 0.345542 2.25749e-20)
(1.01348 0.327839 0)
(0.985427 0.312547 -2.87316e-20)
(0.96774 0.298973 -1.73789e-20)
(0.908452 0.273594 -1.02915e-20)
(0.711304 0.21117 6.3225e-20)
(0.410835 0.122194 7.50237e-21)
(0.162648 0.0503825 3.53341e-20)
(0.0207053 0.0094886 -1.67051e-19)
(-0.0284677 -0.00590766 9.89386e-20)
(-0.0126204 -0.00305415 -1.2077e-19)
(0.261477 0.0813706 2.6838e-21)
(1.17296 0.346872 5.08896e-23)
(1.36559 0.412631 -4.15191e-22)
(1.4012 0.435132 -3.69973e-21)
(1.36271 0.439986 -5.3549e-21)
(1.29963 0.435773 3.59747e-22)
(1.23593 0.428834 -7.53012e-21)
(1.17215 0.419105 1.39513e-20)
(1.10861 0.405313 -2.58951e-20)
(1.04709 0.38614 0)
(0.998125 0.364507 -1.29454e-20)
(0.968684 0.34641 -3.04433e-22)
(0.948229 0.329884 -1.8964e-20)
(0.880731 0.298492 0)
(0.674476 0.226157 -1.36335e-20)
(0.380945 0.128474 -3.22985e-20)
(0.144146 0.0512231 8.59248e-20)
(0.00752789 0.00644667 -8.46112e-20)
(-0.0372642 -0.00976917 1.20281e-19)
(-0.0147683 -0.00427821 -1.26561e-19)
(0.254486 0.0917817 -1.11894e-22)
(1.16932 0.401781 9.08586e-22)
(1.36584 0.476386 4.68882e-22)
(1.39998 0.500217 1.01517e-21)
(1.35928 0.501696 -2.58609e-21)
(1.29444 0.493258 0)
(1.22861 0.482011 -6.75744e-21)
(1.16235 0.467933 -1.45035e-20)
(1.09613 0.449674 -1.33625e-20)
(1.03194 0.425915 0)
(0.980918 0.400178 -1.32734e-20)
(0.950217 0.379034 -1.65685e-20)
(0.9274 0.359194 2.04756e-20)
(0.854234 0.321683 -1.24617e-20)
(0.644891 0.240497 -5.90575e-20)
(0.360722 0.135194 3.49639e-20)
(0.132228 0.0521899 1.03464e-20)
(-0.00206926 0.00313486 0)
(-0.0449028 -0.0140925 -1.15536e-19)
(-0.0170152 -0.00571226 -4.28652e-21)
(0.248669 0.101554 1.09922e-21)
(1.16166 0.453657 -1.57338e-21)
(1.3617 0.537551 -5.49963e-22)
(1.39459 0.562873 4.2212e-21)
(1.35223 0.561341 -8.62363e-21)
(1.28607 0.549 1.24784e-20)
(1.21852 0.53371 1.45293e-20)
(1.15015 0.515493 -2.31097e-20)
(1.08157 0.492914 8.3875e-21)
(1.01495 0.4646 -5.50022e-20)
(0.962025 0.434698 -1.50677e-20)
(0.930115 0.410239 0)
(0.905304 0.386898 2.2158e-20)
(0.828534 0.343344 2.65694e-20)
(0.620324 0.254319 3.17386e-20)
(0.346734 0.142116 -3.77923e-20)
(0.124883 0.053331 -1.11727e-20)
(-0.00798754 -0.000113877 1.31423e-20)
(-0.0505671 -0.0184819 0)
(-0.0190698 -0.00726044 -9.26369e-21)
(0.243948 0.110774 -1.66997e-20)
(1.15174 0.502562 9.21041e-21)
(1.35449 0.596028 9.65552e-22)
(1.38605 0.622749 1.88461e-21)
(1.3424 0.618537 -3.32529e-21)
(1.27524 0.60263 -8.4216e-22)
(1.20627 0.583633 -1.59516e-20)
(1.13608 0.561548 -8.37757e-21)
(1.06537 0.534846 -2.31924e-20)
(0.996469 0.502084 5.86567e-23)
(0.941689 0.467982 -4.69659e-20)
(0.908523 0.440061 3.99779e-20)
(0.881894 0.413046 -2.43216e-20)
(0.802874 0.363622 2.921e-20)
(0.598811 0.2676 0)
(0.336232 0.149223 -2.04926e-20)
(0.121097 0.0548109 5.46438e-23)
(-0.0104805 -0.00278582 -5.71169e-20)
(-0.0537666 -0.0224181 -8.42439e-21)
(-0.0206115 -0.00875835 0)
(0.240277 0.119708 0)
(1.1406 0.548737 1.05889e-20)
(1.34508 0.65199 4.47812e-21)
(1.37519 0.679675 -1.02193e-21)
(1.33049 0.673083 -4.91771e-21)
(1.26256 0.653956 0)
(1.19242 0.631596 -6.9127e-21)
(1.12062 0.605954 -2.17497e-22)
(1.04794 0.575376 4.97081e-20)
(0.976836 0.53833 -7.51249e-21)
(0.920157 0.500043 -3.39569e-20)
(0.88566 0.468604 2.07432e-20)
(0.857301 0.437839 -4.30533e-22)
(0.776751 0.382788 3.11328e-20)
(0.578669 0.280371 1.89235e-20)
(0.327234 0.156414 -4.416e-20)
(0.119198 0.0568025 5.22266e-20)
(-0.010407 -0.0045622 1.54856e-20)
(-0.0545379 -0.0254762 6.40496e-20)
(-0.0214251 -0.0100259 -1.73253e-19)
(0.237571 0.128507 -5.50158e-21)
(1.12902 0.592363 7.35773e-21)
(1.33411 0.704993 -4.95065e-21)
(1.36267 0.733614 -5.91822e-22)
(1.31709 0.724891 0)
(1.24857 0.702873 -4.96004e-21)
(1.17742 0.677498 2.36212e-20)
(1.10418 0.648629 1.82567e-20)
(1.02964 0.614464 0)
(0.95634 0.573335 -1.08799e-19)
(0.897694 0.530943 9.20919e-20)
(0.861759 0.495952 0)
(0.831684 0.461407 2.84864e-20)
(0.75016 0.400878 -4.06645e-22)
(0.558797 0.292481 -6.1039e-20)
(0.31831 0.163605 2.38421e-20)
(0.117889 0.0592663 0)
(-0.00865387 -0.0053718 8.36895e-20)
(-0.0532468 -0.0275502 0)
(-0.0215218 -0.0109808 -8.20962e-20)
(0.23573 0.137197 6.56789e-21)
(1.11749 0.633675 9.53181e-21)
(1.32206 0.755108 -4.91568e-21)
(1.34903 0.784591 0)
(1.30268 0.773958 -3.11076e-21)
(1.23369 0.749363 0)
(1.16169 0.721295 -2.27708e-20)
(1.08714 0.689532 -8.23978e-21)
(1.01081 0.652107 8.69356e-21)
(0.935277 0.607143 -5.39129e-20)
(0.874538 0.560755 9.49887e-21)
(0.837049 0.522192 0)
(0.80529 0.483841 -6.10315e-20)
(0.723039 0.417908 3.70464e-22)
(0.538281 0.303843 0)
(0.308637 0.170469 9.08365e-23)
(0.116282 0.0619531 7.6612e-20)
(-0.00623239 -0.00534291 -7.24389e-20)
(-0.0505478 -0.0286098 2.14484e-20)
(-0.0210042 -0.0115736 0)
(0.234409 0.145736 0)
(1.10623 0.672865 1.14654e-20)
(1.30937 0.802454 7.17855e-21)
(1.33469 0.832684 -5.27884e-22)
(1.28766 0.820326 -1.7995e-22)
(1.21831 0.793441 -1.11961e-20)
(1.14556 0.762992 8.72495e-21)
(1.06979 0.728656 -9.97821e-21)
(0.991719 0.688309 3.91732e-20)
(0.913903 0.639814 -8.65322e-20)
(0.850907 0.589557 -8.99445e-22)
(0.811743 0.547379 -2.66958e-20)
(0.77827 0.50512 9.934e-20)
(0.695392 0.433842 -4.80653e-22)
(0.517013 0.314129 -4.77129e-20)
(0.297746 0.176582 -8.43042e-20)
(0.113762 0.0646119 0)
(-0.00390795 -0.00473408 0)
(-0.0472401 -0.028869 2.32062e-20)
(-0.0200688 -0.0118445 -1.37864e-20)
(0.233756 0.154302 9.18134e-21)
(1.09545 0.70986 -2.59842e-20)
(1.29637 0.847135 -7.69821e-21)
(1.31997 0.877982 0)
(1.27234 0.864058 -3.08027e-22)
(1.20271 0.835148 -9.26825e-21)
(1.12932 0.80261 2.04562e-20)
(1.05241 0.766016 3.87213e-20)
(0.972635 0.723098 5.08882e-20)
(0.892457 0.671408 -7.08446e-20)
(0.827 0.617444 -7.99691e-20)
(0.785983 0.571575 7.1625e-20)
(0.75081 0.525196 0)
(0.667384 0.448418 -2.18796e-20)
(0.49494 0.323107 -5.1595e-20)
(0.285514 0.181556 -6.08089e-20)
(0.110063 0.0668065 -7.17069e-20)
(-0.00218779 -0.00395985 2.12386e-20)
(-0.0438984 -0.0286567 -1.25159e-20)
(-0.0189415 -0.0118927 7.19853e-23)
(0.233347 0.162706 0)
(1.08541 0.744937 0)
(1.28329 0.889261 5.09001e-22)
(1.30513 0.920593 0)
(1.25698 0.905251 -2.17925e-21)
(1.18712 0.874554 5.46263e-21)
(1.11318 0.84019 0)
(1.03521 0.801639 4.49394e-21)
(0.953775 0.756497 8.50375e-20)
(0.871154 0.701983 -1.635e-19)
(0.802998 0.644522 0)
(0.759891 0.59485 -4.64062e-20)
(0.722947 0.543953 -5.70164e-22)
(0.639014 0.461263 -3.82415e-22)
(0.471878 0.330306 5.55857e-20)
(0.272323 0.185049 4.19716e-23)
(0.105337 0.0682253 -1.54835e-19)
(-0.00116835 -0.00329676 4.57573e-20)
(-0.0408082 -0.0282083 1.35815e-20)
(-0.0177518 -0.0117811 0)
(0.233163 0.1709 -3.6739e-20)
(1.07587 0.77834 -1.74822e-20)
(1.27022 0.92891 -2.2616e-20)
(1.29036 0.960625 2.20112e-20)
(1.24176 0.94398 -6.9369e-21)
(1.17176 0.911725 0)
(1.09733 0.875784 1.20198e-20)
(1.01839 0.835562 -1.01811e-20)
(0.935325 0.788539 8.02592e-22)
(0.850193 0.731596 1.2149e-20)
(0.779067 0.670905 1.04463e-19)
(0.733525 0.617322 -1.63199e-20)
(0.694635 0.561335 -6.18653e-20)
(0.610302 0.472016 -2.56484e-20)
(0.448511 0.335153 3.0104e-20)
(0.258625 0.186648 6.22221e-23)
(0.100124 0.0686492 4.17853e-20)
(-0.00067821 -0.00286269 -9.86665e-20)
(-0.0381233 -0.027675 1.17101e-19)
(-0.0166301 -0.0116026 1.72812e-20)
(0.233012 0.178855 1.39427e-20)
(1.06684 0.810138 -9.83459e-21)
(1.25733 0.966212 1.30958e-21)
(1.27582 0.998197 1.4132e-20)
(1.22685 0.980358 2.86505e-21)
(1.15675 0.946739 -8.84799e-21)
(1.08192 0.909447 3.17994e-21)
(1.00208 0.867813 -4.23966e-20)
(0.917447 0.819237 -9.41665e-20)
(0.829749 0.760279 -9.80836e-20)
(0.75537 0.696706 0)
(0.70694 0.639151 -7.22526e-20)
(0.665746 0.57736 8.96095e-20)
(0.581008 0.48031 0)
(0.424947 0.33699 -6.47346e-20)
(0.24511 0.185691 3.83023e-20)
(0.0954521 0.0678015 -4.50464e-20)
(-5.73884e-05 -0.00251215 -5.32102e-20)
(-0.0359527 -0.027041 -9.44825e-20)
(-0.015752 -0.0114512 -7.46155e-20)
(0.233184 0.186683 -1.57934e-20)
(1.05817 0.840333 1.05363e-20)
(1.24471 1.00124 2.38011e-20)
(1.26163 1.0334 2.06977e-20)
(1.21235 1.01448 -5.20584e-21)
(1.1422 0.979685 -3.7545e-21)
(1.06706 0.941232 1.09353e-20)
(0.986404 0.898439 -4.34212e-20)
(0.900257 0.848617 -5.60237e-20)
(0.809975 0.788066 1.03224e-19)
(0.732062 0.722028 2.31632e-19)
(0.680188 0.660534 0)
(0.636091 0.592169 0)
(0.550725 0.485889 -2.96224e-20)
(0.401039 0.334941 0)
(0.232572 0.180816 8.23665e-20)
(0.0935142 0.064535 9.68996e-20)
(0.00311858 -0.00268102 0)
(-0.0335489 -0.026491 0)
(-0.0155171 -0.0116087 8.0349e-20)
(0.233147 0.194063 1.79606e-20)
(1.04989 0.868936 1.4212e-20)
(1.23244 1.0341 1.73126e-20)
(1.24786 1.06636 -1.9958e-20)
(1.19835 1.04647 -7.01001e-21)
(1.12821 1.01064 2.31133e-21)
(1.05282 0.971202 -1.48952e-20)
(0.971441 0.92747 -2.08108e-22)
(0.88386 0.876688 -1.05704e-21)
(0.791 0.814964 -7.49526e-22)
(0.709311 0.746956 1.19829e-19)
(0.653355 0.681669 0)
(0.605518 0.60605 9.17858e-20)
(0.518836 0.488782 6.37114e-20)
(0.375883 0.328239 1.51943e-19)
(0.221011 0.169546 4.45546e-20)
(0.0968516 0.0543843 -5.22349e-20)
(0.0159123 -0.00948124 -3.07927e-20)
(-0.0221343 -0.0285203 0)
(-0.0142084 -0.011883 8.66121e-20)
(0.233519 0.201484 -4.06494e-20)
(1.04196 0.89606 0)
(1.22052 1.06486 2.04054e-20)
(1.23454 1.09718 -1.69403e-20)
(1.1849 1.07641 9.73272e-21)
(1.1148 1.03969 3.12984e-22)
(1.03926 0.999411 2.77493e-20)
(0.957249 0.954939 -3.58278e-21)
(0.868324 0.903461 0)
(0.772937 0.840951 -1.14775e-19)
(0.687287 0.77154 -2.62132e-19)
(0.626572 0.70276 1.08287e-20)
(0.573964 0.619383 1.27913e-19)
(0.484753 0.489483 0)
(0.347743 0.316923 1.03134e-19)
(0.207227 0.149239 0)
(0.103086 0.026546 0)
(0.0463753 -0.0435809 -3.33074e-20)
(0.0319872 -0.0461926 0)
(0.0211018 0.000223874 2.3278e-20)
(0.23351 0.208369 -4.54308e-20)
(1.03436 0.921989 0)
(1.20894 1.09372 3.40845e-20)
(1.22164 1.12609 0)
(1.17198 1.10457 -5.99103e-21)
(1.10194 1.06712 0)
(1.02633 1.02617 1.12846e-21)
(0.943736 0.981177 6.0387e-21)
(0.853529 0.929289 7.13587e-21)
(0.755614 0.866393 -1.26438e-19)
(0.665794 0.796228 7.87499e-21)
(0.59951 0.724492 8.78939e-20)
(0.54084 0.633014 1.25454e-19)
(0.447281 0.488743 1.68541e-20)
(0.31409 0.302322 8.13688e-20)
(0.184352 0.120258 0)
(0.095787 -0.02282 1.10279e-19)
(0.0565051 -0.0750629 -6.47496e-20)
(0.0265208 0.0423676 7.57384e-20)
(-0.0387554 0.459669 -8.99834e-20)
(0.233494 0.215103 3.76598e-20)
(1.02686 0.946567 5.6848e-20)
(1.19762 1.12101 0)
(1.20901 1.15354 1.00956e-21)
(1.15939 1.13155 1.78687e-20)
(1.08934 1.09362 -8.25956e-21)
(1.0137 1.05226 8.90038e-21)
(0.930477 1.00712 0)
(0.838925 0.955256 4.67604e-20)
(0.738325 0.892576 -6.54417e-21)
(0.643867 0.822481 0)
(0.570757 0.74849 0)
(0.503815 0.648086 1.13209e-19)
(0.403446 0.486813 -5.22688e-20)
(0.271359 0.28612 -8.3131e-20)
(0.146805 0.0855271 0)
(0.0576321 0.00535376 5.62345e-20)
(0.00390406 0.456165 -6.51624e-20)
(0.0290427 1.93835 -3.65477e-20)
(0.0553078 2.83035 -4.49034e-20)
(0.233196 0.221318 -2.83607e-20)
(1.01951 0.96997 -7.31119e-20)
(1.18659 1.14673 2.03082e-20)
(1.19667 1.17941 1.66225e-20)
(1.14719 1.15713 0)
(1.07711 1.11892 -7.95793e-21)
(1.0016 1.07739 1.0953e-20)
(0.917678 1.03233 -2.88243e-21)
(0.824813 0.980854 7.05841e-21)
(0.721491 0.918916 1.20978e-19)
(0.622172 0.849702 1.34337e-19)
(0.541332 0.774721 9.99891e-20)
(0.463626 0.66508 1.14878e-19)
(0.354147 0.483246 -1.24209e-19)
(0.224806 0.272566 -1.26635e-19)
(0.098869 0.145437 0)
(0.0359727 0.904387 0)
(0.082262 2.59086 3.12622e-20)
(0.085387 3.2165 0)
(0.087196 3.39086 8.13982e-20)
(0.235714 0.227169 0)
(1.01264 0.992595 0)
(1.17554 1.17074 0)
(1.18441 1.20356 5.03939e-21)
(1.13503 1.18108 1.6406e-20)
(1.06505 1.14286 -8.4317e-21)
(0.989942 1.10144 6.60494e-21)
(0.905275 1.05669 -2.78681e-21)
(0.81113 1.00591 5.8209e-20)
(0.705108 0.94525 -1.63891e-21)
(0.600816 0.87769 2.668e-19)
(0.511613 0.803302 -1.1641e-20)
(0.420164 0.685112 1.40614e-20)
(0.300962 0.476572 1.81263e-20)
(0.166847 0.29027 -7.06793e-22)
(0.083345 1.02534 3.49437e-22)
(0.117746 2.77346 -1.67883e-19)
(0.122249 3.30239 -6.31521e-20)
(0.114003 3.42322 3.32403e-20)
(0.104524 3.44275 -3.75462e-20)
(0.158956 0.172801 1.73423e-20)
(1.00151 1.01719 0)
(1.16424 1.19325 -4.16562e-20)
(1.17265 1.22643 -4.54281e-20)
(1.12338 1.20387 3.86866e-20)
(1.05386 1.16593 9.84498e-21)
(0.97852 1.12446 -6.21473e-21)
(0.893296 1.08024 2.92903e-20)
(0.797955 1.0305 -4.76488e-20)
(0.689406 0.971696 0)
(0.580116 0.906524 1.32011e-19)
(0.482147 0.834053 -8.23377e-20)
(0.377152 0.714805 0)
(0.239571 0.472008 1.77294e-20)
(0.120244 0.726036 4.17583e-20)
(0.132365 2.58195 -4.69449e-20)
(0.178933 3.3274 5.31608e-20)
(0.162907 3.43182 2.85399e-20)
(0.135815 3.45069 3.22849e-20)
(0.117359 3.45955 5.13034e-20)
(0.270194 0.264618 -3.34725e-20)
(0.98346 1.02695 0)
(1.1455 1.21899 4.49284e-20)
(1.15752 1.25759 4.99679e-20)
(1.10547 1.2375 -4.33681e-20)
(1.03535 1.1999 -1.47209e-20)
(0.958799 1.15997 2.45332e-21)
(0.872928 1.11703 2.34538e-21)
(0.775963 1.0695 4.48973e-20)
(0.664028 1.01483 1.0494e-19)
(0.548061 0.955866 7.39723e-21)
(0.436368 0.885303 7.38006e-20)
(0.295566 0.741574 1.34468e-20)
(0.198793 0.884064 -1.71365e-20)
(0.204994 2.46335 -3.82679e-20)
(0.256048 3.32999 3.74512e-20)
(0.238884 3.4552 -4.09388e-20)
(0.205272 3.47442 -2.35013e-20)
(0.172378 3.49916 -2.10954e-20)
(0.127645 3.49473 -3.06223e-21)
(0.260265 0.263433 0)
(0.980278 1.04967 1.30287e-20)
(1.13645 1.24256 -9.24059e-21)
(1.14613 1.28121 -5.94278e-21)
(1.09404 1.26084 -2.99028e-20)
(1.02389 1.22342 1.52649e-20)
(0.946978 1.1837 3.21033e-23)
(0.860771 1.1416 2.05462e-21)
(0.763017 1.09559 -4.65026e-20)
(0.64926 1.04391 -2.69088e-21)
(0.529403 0.989855 -2.39454e-19)
(0.41001 0.921422 1.06114e-20)
(0.27481 0.815115 -1.27611e-20)
(0.234572 1.5333 -1.57677e-20)
(0.298403 3.14452 3.66637e-21)
(0.310427 3.45611 1.55284e-22)
(0.269536 3.50311 6.04201e-20)
(0.236091 3.52734 3.04092e-20)
(0.190676 3.54774 -9.47547e-21)
(0.141136 3.54486 -1.5085e-20)
(0.246251 0.261382 3.33081e-20)
(0.976165 1.07492 8.82691e-20)
(1.12704 1.26822 -2.63455e-20)
(1.13436 1.30645 -2.2335e-20)
(1.08214 1.28565 0)
(1.01205 1.24825 2.76043e-20)
(0.935054 1.20881 3.11836e-21)
(0.848769 1.16752 1.73841e-21)
(0.750545 1.12315 -5.24429e-21)
(0.63553 1.0748 -9.44987e-20)
(0.512776 1.02633 -1.1041e-19)
(0.386706 0.95891 -8.67436e-20)
(0.27691 0.965612 -9.61e-20)
(0.301153 2.32086 9.90974e-20)
(0.379983 3.38428 8.32352e-20)
(0.350378 3.51124 0)
(0.303027 3.54915 0)
(0.266681 3.58334 -7.48116e-21)
(0.223578 3.62834 0)
(0.154319 3.61398 -1.12501e-20)
(0.236406 0.263243 -4.96202e-20)
(0.970124 1.10101 -7.46926e-20)
(1.11623 1.29511 0)
(1.12132 1.33252 1.2281e-21)
(1.06898 1.31112 -3.22785e-20)
(0.999112 1.27367 4.47897e-20)
(0.922368 1.23454 3.78216e-21)
(0.836235 1.194 6.93992e-22)
(0.737808 1.15127 -3.18277e-20)
(0.621996 1.10632 4.62448e-21)
(0.49735 1.06354 0)
(0.365602 1.00012 0)
(0.298917 1.26733 -8.71352e-20)
(0.381743 2.97894 3.54022e-20)
(0.44534 3.48164 4.47876e-20)