/*--------------------------------*- C++ -*----------------------------------*\
  =========                 |
  \\      /  F ield         | OpenFOAM: The Open Source CFD Toolbox
   \\    /   O peration     | Website:  https://openfoam.org
    \\  /    A nd           | Version:  6
     \\/     M anipulation  |
\*---------------------------------------------------------------------------*/
FoamFile
{
    version     2.0;
    format      ascii;
    class       volVectorField;
    location    "8";
    object      U;
}
// * * * * * * * * * * * * * * * * * * * * * * * * * * * * * * * * * * * * * //

dimensions      [0 1 -1 0 0 0 0];

internalField   nonuniform List<vector> 
5250
(
(3 2.66818e-09 0)
(2.99999 2.03768e-08 0)
(2.99997 6.30999e-08 0)
(2.99992 1.87966e-07 0)
(2.9998 4.4518e-07 0)
(2.99956 1.16154e-06 0)
(2.99886 2.58485e-06 0)
(2.99749 6.69151e-06 0)
(2.99323 1.40891e-05 0)
(2.98561 4.05627e-05 0)
(2.95869 7.78772e-05 0)
(2.90445 0.000246082 0)
(2.73245 0.000573137 0)
(2.20736 0.00151886 0)
(1.00509 0.00472224 0)
(0.0665307 0.0125854 0)
(0.260947 0.0201307 0)
(0.478514 0.0261397 0)
(0.549055 0.0296388 0)
(0.50311 0.0322015 0)
(0.396364 0.0333557 0)
(0.278493 0.036035 0)
(0.196504 0.0408837 0)
(0.124657 0.0477781 0)
(0.0654148 0.0560319 0)
(3 8.20836e-09 0)
(2.99999 6.31991e-08 0)
(2.99997 1.95049e-07 0)
(2.99992 5.83986e-07 0)
(2.9998 1.38105e-06 0)
(2.99956 3.63646e-06 0)
(2.99886 8.12227e-06 0)
(2.9975 2.11455e-05 0)
(2.99326 4.55439e-05 0)
(2.98567 0.000126927 0)
(2.95886 0.000259197 0)
(2.90488 0.000774062 0)
(2.73343 0.00183259 0)
(2.21094 0.00517831 0)
(1.01393 0.0147945 0)
(0.0758449 0.039964 0)
(0.269028 0.0604394 0)
(0.484009 0.0733282 0)
(0.550719 0.0791388 0)
(0.502685 0.0824998 0)
(0.396822 0.0829716 0)
(0.281573 0.0867703 0)
(0.199764 0.0936435 0)
(0.124789 0.101026 0)
(0.063151 0.105266 0)
(3 1.42233e-08 0)
(2.99999 1.10025e-07 0)
(2.99997 3.38874e-07 0)
(2.99992 1.01799e-06 0)
(2.9998 2.40536e-06 0)
(2.99956 6.36967e-06 0)
(2.99887 1.42528e-05 0)
(2.99752 3.72935e-05 0)
(2.99331 8.09393e-05 0)
(2.98579 0.000224023 0)
(2.95921 0.00046659 0)
(2.90582 0.00137916 0)
(2.73583 0.00326974 0)
(2.2188 0.00956966 0)
(1.03403 0.0265576 0)
(0.0990356 0.0716246 0)
(0.283937 0.104545 0)
(0.49065 0.121732 0)
(0.552209 0.130473 0)
(0.502038 0.136935 0)
(0.39765 0.141156 0)
(0.286389 0.149761 0)
(0.205237 0.161115 0)
(0.126347 0.1714 0)
(0.0609715 0.17494 0)
(3 2.09742e-08 0)
(2.99999 1.62334e-07 0)
(2.99997 4.99653e-07 0)
(2.99993 1.50238e-06 0)
(2.99981 3.54781e-06 0)
(2.99957 9.41116e-06 0)
(2.99889 2.10454e-05 0)
(2.99755 5.52986e-05 0)
(2.99341 0.000119582 0)
(2.98599 0.000334813 0)
(2.95979 0.000692848 0)
(2.90732 0.00205538 0)
(2.73971 0.00499136 0)
(2.23176 0.0140571 0)
(1.06679 0.0401327 0)
(0.13605 0.104697 0)
(0.304377 0.148902 0)
(0.497876 0.167797 0)
(0.554951 0.179611 0)
(0.504182 0.190296 0)
(0.402497 0.200856 0)
(0.295609 0.215683 0)
(0.214781 0.232378 0)
(0.131261 0.247272 0)
(0.0603542 0.253704 0)
(3 2.84681e-08 0)
(2.99999 2.20355e-07 0)
(2.99997 6.78085e-07 0)
(2.99993 2.03895e-06 0)
(2.99981 4.81455e-06 0)
(2.99958 1.27691e-05 0)
(2.99891 2.8553e-05 0)
(2.9976 7.50059e-05 0)
(2.99355 0.000162258 0)
(2.98627 0.000453833 0)
(2.96061 0.000940172 0)
(2.90956 0.00277651 0)
(2.74507 0.00677951 0)
(2.25019 0.0189006 0)
(1.11388 0.053757 0)
(0.187365 0.138259 0)
(0.330051 0.193929 0)
(0.505463 0.213045 0)
(0.55908 0.227476 0)
(0.509499 0.242333 0)
(0.411677 0.259929 0)
(0.308579 0.281366 0)
(0.227915 0.303967 0)
(0.140339 0.324393 0)
(0.0628378 0.335475 0)
(3 3.68798e-08 0)
(2.99999 2.85341e-07 0)
(2.99997 8.7826e-07 0)
(2.99993 2.63887e-06 0)
(2.99982 6.23275e-06 0)
(2.99959 1.65036e-05 0)
(2.99894 3.69133e-05 0)
(2.99767 9.66368e-05 0)
(2.99372 0.000209487 0)
(2.98664 0.000581113 0)
(2.96168 0.00120831 0)
(2.91239 0.00354876 0)
(2.75213 0.0085642 0)
(2.27376 0.0241992 0)
(1.17303 0.0673085 0)
(0.250831 0.173005 0)
(0.359474 0.239764 0)
(0.512437 0.257837 0)
(0.56443 0.274793 0)
(0.518123 0.293828 0)
(0.425631 0.318692 0)
(0.326311 0.347708 0)
(0.245541 0.377906 0)
(0.153487 0.405938 0)
(0.0679412 0.423368 0)
(3 4.71572e-08 0)
(2.99999 3.64441e-07 0)
(2.99997 1.12231e-06 0)
(2.99993 3.36724e-06 0)
(2.99982 7.95373e-06 0)
(2.9996 2.10043e-05 0)
(2.99897 4.69662e-05 0)
(2.99775 0.000122432 0)
(2.99395 0.000265586 0)
(2.98711 0.000731067 0)
(2.96302 0.00152273 0)
(2.91594 0.00444598 0)
(2.76094 0.0106277 0)
(2.30289 0.0301806 0)
(1.24507 0.0827489 0)
(0.326077 0.211436 0)
(0.391774 0.282193 0)
(0.517987 0.301753 0)
(0.570964 0.32174 0)
(0.530098 0.344954 0)
(0.444782 0.377012 0)
(0.350088 0.414945 0)
(0.269749 0.455131 0)
(0.173325 0.494179 0)
(0.0775254 0.523067 0)
(3 6.07895e-08 0)
(2.99999 4.68748e-07 0)
(2.99997 1.44405e-06 0)
(2.99993 4.31746e-06 0)
(2.99983 1.01857e-05 0)
(2.99962 2.67404e-05 0)
(2.99902 5.96395e-05 0)
(2.99785 0.000154354 0)
(2.99423 0.00033265 0)
(2.9877 0.000912641 0)
(2.9647 0.00187511 0)
(2.92028 0.00554326 0)
(2.77186 0.0128528 0)
(2.33883 0.0374695 0)
(1.33205 0.101143 0)
(0.409224 0.257634 0)
(0.424247 0.319161 0)
(0.526987 0.344039 0)
(0.580127 0.367546 0)
(0.545861 0.395435 0)
(0.470065 0.434242 0)
(0.381967 0.482956 0)
(0.303469 0.536581 0)
(0.204044 0.591876 0)
(0.0951009 0.643715 0)
(3 8.63741e-08 0)
(2.99999 6.59505e-07 0)
(2.99997 2.03679e-06 0)
(2.99994 6.06746e-06 0)
(2.99984 1.44034e-05 0)
(2.99965 3.76131e-05 0)
(2.99908 8.48233e-05 0)
(2.99797 0.00021441 0)
(2.99458 0.000481547 0)
(2.9884 0.0012029 0)
(2.96679 0.00268282 0)
(2.92541 0.00686255 0)
(2.78537 0.0164504 0)
(2.38301 0.0448407 0)
(1.44029 0.118143 0)
(0.500636 0.307523 0)
(0.454222 0.355139 0)
(0.542134 0.381815 0)
(0.593759 0.408159 0)
(0.566537 0.443868 0)
(0.502783 0.489157 0)
(0.424948 0.551201 0)
(0.35136 0.61982 0)
(0.255882 0.701051 0)
(0.130302 0.801164 0)
(3 -4.38209e-09 0)
(2.99999 1.15116e-06 0)
(2.99998 1.76858e-06 0)
(2.99995 9.94818e-06 0)
(2.99986 1.33537e-05 0)
(2.99968 6.24892e-05 0)
(2.99917 7.75867e-05 0)
(2.99818 0.000382328 0)
(2.99505 0.000357294 0)
(2.98954 0.00245206 0)
(2.96931 0.000977337 0)
(2.93218 0.0151877 0)
(2.80063 0.00633372 0)
(2.43424 0.0807242 0)
(1.55235 0.127615 0)
(0.59886 0.364545 0)
(0.477443 0.396661 0)
(0.556872 0.417371 0)
(0.612838 0.44253 0)
(0.594142 0.487068 0)
(0.544397 0.540269 0)
(0.480628 0.613899 0)
(0.420186 0.703013 0)
(0.3481 0.827448 0)
(0.200661 1.04215 0)
(3 6.38251e-10 0)
(2.99999 1.06249e-06 0)
(2.99998 1.68985e-06 0)
(2.99995 9.23387e-06 0)
(2.99988 1.275e-05 0)
(2.9997 5.81526e-05 0)
(2.99935 7.48667e-05 0)
(2.99821 0.000357894 0)
(2.9963 0.000356326 0)
(2.98894 0.00235012 0)
(2.977 0.00111306 0)
(2.93062 0.0148485 0)
(2.82813 0.00786552 0)
(2.52073 0.0785862 0)
(1.58644 0.153491 0)
(0.696113 0.425515 0)
(0.477714 0.432989 0)
(0.560773 0.443988 0)
(0.630601 0.469417 0)
(0.627747 0.521726 0)
(0.592686 0.584312 0)
(0.551154 0.666335 0)
(0.522797 0.773901 0)
(0.531546 0.925364 0)
(0.53236 1.16932 0)
(3 1.97448e-07 0)
(2.99999 3.41963e-07 0)
(2.99998 2.83082e-06 0)
(2.99995 3.89657e-06 0)
(2.9999 1.95044e-05 0)
(2.99973 2.4691e-05 0)
(2.99942 0.000119138 0)
(2.99841 0.000128023 0)
(2.99671 0.000782063 0)
(2.9902 0.000541671 0)
(2.97972 0.00560945 0)
(2.93911 0.00328306 0)
(2.85053 0.0371476 0)
(2.58858 0.0477842 0)
(1.75903 0.21538 0)
(0.826832 0.501717 0)
(0.48633 0.4733 0)
(0.571478 0.466661 0)
(0.656263 0.491879 0)
(0.669185 0.549134 0)
(0.648078 0.619467 0)
(0.629455 0.706369 0)
(0.634522 0.819184 0)
(0.700231 0.963732 0)
(0.801173 1.13913 0)
(3 1.76145e-07 0)
(2.99999 3.2066e-07 0)
(2.99998 2.55935e-06 0)
(2.99996 3.64571e-06 0)
(2.9999 1.77081e-05 0)
(2.99978 2.34816e-05 0)
(2.99943 0.000108276 0)
(2.99876 0.000128861 0)
(2.99664 0.000700157 0)
(2.99292 0.000650444 0)
(2.97933 0.00493809 0)
(2.95528 0.00455479 0)
(2.86909 0.0330118 0)
(2.64809 0.0544177 0)
(2.05442 0.208486 0)
(0.969238 0.560107 0)
(0.522657 0.526784 0)
(0.602993 0.507447 0)
(0.698378 0.521716 0)
(0.722732 0.575267 0)
(0.710671 0.647023 0)
(0.709096 0.73224 0)
(0.736311 0.837154 0)
(0.819851 0.956924 0)
(0.946586 1.06209 0)
(3 7.48716e-08 0)
(2.99999 5.88882e-07 0)
(2.99999 1.80693e-06 0)
(2.99997 5.49569e-06 0)
(2.99991 1.29749e-05 0)
(2.99981 3.49412e-05 0)
(2.99951 7.81652e-05 0)
(2.99891 0.000210176 0)
(2.99715 0.000449225 0)
(2.99373 0.00133215 0)
(2.98307 0.00255421 0)
(2.96241 0.00896955 0)
(2.8958 0.0180118 0)
(2.72697 0.0624634 0)
(2.29168 0.157249 0)
(1.17739 0.481015 0)
(0.621781 0.536112 0)
(0.669254 0.551331 0)
(0.758778 0.559024 0)
(0.789897 0.603893 0)
(0.781104 0.669937 0)
(0.785977 0.74756 0)
(0.822758 0.836253 0)
(0.906746 0.930659 0)
(1.03165 1.0015 0)
(3 7.62918e-08 0)
(3 5.93043e-07 0)
(2.99999 1.82455e-06 0)
(2.99997 5.51027e-06 0)
(2.99993 1.30632e-05 0)
(2.99984 3.48091e-05 0)
(2.99958 7.84526e-05 0)
(2.99907 0.000204641 0)
(2.99757 0.000456169 0)
(2.99467 0.0011854 0)
(2.98564 0.00270037 0)
(2.96831 0.00685554 0)
(2.91199 0.0164571 0)
(2.77283 0.0432714 0)
(2.40079 0.111137 0)
(1.33886 0.322817 0)
(0.678731 0.535301 0)
(0.707554 0.601364 0)
(0.79545 0.613862 0)
(0.846787 0.641637 0)
(0.847484 0.69343 0)
(0.855834 0.758492 0)
(0.894791 0.829907 0)
(0.973342 0.902907 0)
(1.08836 0.955553 0)
(3 7.08372e-08 0)
(3 5.50161e-07 0)
(2.99999 1.69293e-06 0)
(2.99998 5.10318e-06 0)
(2.99994 1.2091e-05 0)
(2.99986 3.21132e-05 0)
(2.99965 7.2299e-05 0)
(2.99922 0.000187691 0)
(2.99796 0.000418276 0)
(2.99561 0.0010773 0)
(2.98776 0.0024642 0)
(2.97405 0.00615158 0)
(2.92466 0.0148523 0)
(2.81071 0.037918 0)
(2.48886 0.099611 0)
(1.51514 0.281221 0)
(0.789592 0.586365 0)
(0.736966 0.65474 0)
(0.807962 0.671422 0)
(0.875008 0.678659 0)
(0.896157 0.714261 0)
(0.913406 0.766375 0)
(0.954084 0.823832 0)
(1.02628 0.880478 0)
(1.12944 0.921753 0)
(3 6.4321e-08 0)
(3 4.98392e-07 0)
(2.99999 1.53502e-06 0)
(2.99998 4.61762e-06 0)
(2.99995 1.09452e-05 0)
(2.99989 2.89739e-05 0)
(2.99971 6.5197e-05 0)
(2.99936 0.000168808 0)
(2.99832 0.000373732 0)
(2.99638 0.000985245 0)
(2.98984 0.00211073 0)
(2.97876 0.00598214 0)
(2.93733 0.0127456 0)
(2.84728 0.0382146 0)
(2.58177 0.0928511 0)
(1.74693 0.281736 0)
(0.957477 0.64299 0)
(0.769055 0.678438 0)
(0.817316 0.695124 0)
(0.888424 0.69651 0)
(0.931468 0.724413 0)
(0.959912 0.768235 0)
(1.00284 0.816502 0)
(1.06988 0.862106 0)
(1.16176 0.896299 0)
(3 5.82605e-08 0)
(3 4.51921e-07 0)
(2.99999 1.39162e-06 0)
(2.99998 4.19241e-06 0)
(2.99996 9.93835e-06 0)
(2.99991 2.63835e-05 0)
(2.99976 5.93594e-05 0)
(2.99948 0.000154577 0)
(2.99864 0.000341401 0)
(2.99706 0.000916708 0)
(2.9919 0.00192052 0)
(2.983 0.00577557 0)
(2.95042 0.0116785 0)
(2.88139 0.0379967 0)
(2.67583 0.0888658 0)
(2.01941 0.280422 0)
(1.15738 0.695158 0)
(0.819263 0.706955 0)
(0.843642 0.713053 0)
(0.91025 0.708617 0)
(0.965502 0.728221 0)
(1.00111 0.765512 0)
(1.0447 0.807324 0)
(1.10709 0.845703 0)
(1.18893 0.874673 0)
(3 5.0058e-08 0)
(3 3.8814e-07 0)
(2.99999 1.19516e-06 0)
(2.99999 3.59863e-06 0)
(2.99997 8.52761e-06 0)
(2.99993 2.26176e-05 0)
(2.99982 5.08463e-05 0)
(2.99959 0.000132121 0)
(2.99895 0.000292232 0)
(2.9977 0.000775547 0)
(2.99387 0.00165189 0)
(2.98696 0.0048187 0)
(2.96328 0.00974501 0)
(2.91519 0.0306664 0)
(2.77011 0.0734883 0)
(2.32882 0.219174 0)
(1.4669 0.595286 0)
(0.957636 0.704129 0)
(0.920018 0.72858 0)
(0.955558 0.728189 0)
(1.00982 0.734249 0)
(1.04656 0.763446 0)
(1.08621 0.799377 0)
(1.1415 0.83194 0)
(1.21352 0.856257 0)
(3 4.12166e-08 0)
(3 3.19386e-07 0)
(3 9.83819e-07 0)
(2.99999 2.95824e-06 0)
(2.99997 7.01431e-06 0)
(2.99994 1.85422e-05 0)
(2.99986 4.17597e-05 0)
(2.99968 0.000107652 0)
(2.99918 0.000239369 0)
(2.99819 0.000617513 0)
(2.99525 0.0013619 0)
(2.98979 0.00360763 0)
(2.9714 0.00778588 0)
(2.93682 0.0214569 0)
(2.81946 0.0514786 0)
(2.49646 0.142115 0)
(1.75309 0.391998 0)
(1.05751 0.714486 0)
(0.9734 0.751991 0)
(0.993569 0.761673 0)
(1.04695 0.755709 0)
(1.09122 0.77119 0)
(1.12793 0.797677 0)
(1.17519 0.823367 0)
(1.23729 0.842648 0)
(3 3.35145e-08 0)
(3 2.59483e-07 0)
(3 7.99649e-07 0)
(2.99999 2.4022e-06 0)
(2.99998 5.69764e-06 0)
(2.99996 1.5037e-05 0)
(2.99989 3.38766e-05 0)
(2.99976 8.71246e-05 0)
(2.99937 0.000193784 0)
(2.99863 0.0004985 0)
(2.99635 0.00109817 0)
(2.99234 0.0029187 0)
(2.97786 0.00614916 0)
(2.9526 0.0180874 0)
(2.86109 0.0387047 0)
(2.6225 0.12434 0)
(2.03605 0.313193 0)
(1.21609 0.761602 0)
(1.00913 0.791808 0)
(1.01883 0.800814 0)
(1.06948 0.788896 0)
(1.12406 0.78625 0)
(1.1638 0.800851 0)
(1.20633 0.819241 0)
(1.2599 0.833385 0)
(3 2.68632e-08 0)
(3 2.07692e-07 0)
(3 6.40214e-07 0)
(2.99999 1.92068e-06 0)
(2.99999 4.55312e-06 0)
(2.99997 1.19951e-05 0)
(2.99992 2.69759e-05 0)
(2.99981 6.92837e-05 0)
(2.99952 0.000153609 0)
(2.99895 0.000397245 0)
(2.99727 0.000858546 0)
(2.99401 0.00236869 0)
(2.98385 0.00475804 0)
(2.96449 0.0150663 0)
(2.90128 0.0302256 0)
(2.74142 0.102779 0)
(2.32969 0.251502 0)
(1.45883 0.70516 0)
(1.09044 0.803045 0)
(1.0643 0.819676 0)
(1.09508 0.815305 0)
(1.15026 0.802719 0)
(1.19645 0.806123 0)
(1.23655 0.817265 0)
(1.28272 0.826545 0)
(3 2.18146e-08 0)
(3 1.68644e-07 0)
(3 5.19787e-07 0)
(3 1.56046e-06 0)
(2.99999 3.7013e-06 0)
(2.99998 9.76722e-06 0)
(2.99994 2.20088e-05 0)
(2.99986 5.66259e-05 0)
(2.99965 0.000126033 0)
(2.99922 0.00032399 0)
(2.99799 0.000717002 0)
(2.9956 0.00186701 0)
(2.98833 0.00411009 0)
(2.97418 0.0110765 0)
(2.93003 0.0247501 0)
(2.82306 0.070544 0)
(2.53692 0.178441 0)
(1.74054 0.524334 0)
(1.20336 0.794452 0)
(1.11534 0.826335 0)
(1.12725 0.834549 0)
(1.17473 0.821637 0)
(1.22476 0.815263 0)
(1.26472 0.818129 0)
(1.30542 0.822227 0)
(3 1.18094e-08 0)
(3 1.45503e-07 0)
(3 3.68047e-07 0)
(3 1.30792e-06 0)
(2.99999 2.65395e-06 0)
(2.99998 8.12113e-06 0)
(2.99996 1.57849e-05 0)
(2.9999 4.68956e-05 0)
(2.99975 8.9993e-05 0)
(2.99944 0.000267365 0)
(2.99855 0.000507404 0)
(2.99684 0.00153781 0)
(2.99147 0.0028422 0)
(2.9819 0.00913493 0)
(2.94862 0.0165139 0)
(2.87667 0.0565803 0)
(2.66681 0.120786 0)
(2.0309 0.391845 0)
(1.3722 0.801308 0)
(1.16384 0.84751 0)
(1.15852 0.855089 0)
(1.19486 0.843281 0)
(1.24673 0.828279 0)
(1.289 0.823449 0)
(1.32655 0.821626 0)
(3 8.77525e-09 0)
(3 1.0648e-07 0)
(3 2.70931e-07 0)
(3 9.58882e-07 0)
(2.99999 1.95509e-06 0)
(2.99999 5.95422e-06 0)
(2.99997 1.16275e-05 0)
(2.99992 3.43431e-05 0)
(2.99983 6.62443e-05 0)
(2.99957 0.000195464 0)
(2.99905 0.000373157 0)
(2.99754 0.0011247 0)
(2.99462 0.00207362 0)
(2.98566 0.00678876 0)
(2.9681 0.0116335 0)
(2.91337 0.0419963 0)
(2.77897 0.0863189 0)
(2.40397 0.274227 0)
(1.62354 0.70785 0)
(1.25441 0.845442 0)
(1.20685 0.864291 0)
(1.22337 0.862412 0)
(1.26875 0.844242 0)
(1.31219 0.832424 0)
(1.34546 0.823517 0)
(3 1.42463e-08 0)
(3 5.58381e-08 0)
(3 2.526e-07 0)
(3 5.53528e-07 0)
(3 1.76017e-06 0)
(2.99999 3.50334e-06 0)
(2.99998 1.03917e-05 0)
(2.99995 2.02396e-05 0)
(2.99988 5.92761e-05 0)
(2.99969 0.000114532 0)
(2.99932 0.000337148 0)
(2.99826 0.000644377 0)
(2.99619 0.00194696 0)
(2.98989 0.0036151 0)
(2.97784 0.0117012 0)
(2.93982 0.0212255 0)
(2.84983 0.0728633 0)
(2.60446 0.159612 0)
(1.91671 0.497324 0)
(1.37517 0.827384 0)
(1.25417 0.871086 0)
(1.25323 0.879893 0)
(1.28781 0.864422 0)
(1.33074 0.842511 0)
(1.35956 0.824079 0)
(3 1.03059e-08 0)
(3 4.13581e-08 0)
(3 1.8458e-07 0)
(3 4.08715e-07 0)
(3 1.2869e-06 0)
(2.99999 2.58644e-06 0)
(2.99998 7.59795e-06 0)
(2.99996 1.49485e-05 0)
(2.99991 4.33186e-05 0)
(2.9998 8.45612e-05 0)
(2.99949 0.000245697 0)
(2.99888 0.000475487 0)
(2.9971 0.00140618 0)
(2.99375 0.00267061 0)
(2.98284 0.00827313 0)
(2.96277 0.0155835 0)
(2.89526 0.049691 0)
(2.72805 0.114426 0)
(2.27762 0.338207 0)
(1.56863 0.79133 0)
(1.30956 0.886646 0)
(1.2832 0.896117 0)
(1.30137 0.884621 0)
(1.33839 0.853941 0)
(1.36276 0.819902 0)
(3 3.61845e-09 0)
(3 4.07667e-08 0)
(3 1.07002e-07 0)
(3 3.68401e-07 0)
(3 7.70973e-07 0)
(3 2.28905e-06 0)
(2.99999 4.58867e-06 0)
(2.99998 1.31961e-05 0)
(2.99994 2.61976e-05 0)
(2.99986 7.49399e-05 0)
(2.99965 0.000148075 0)
(2.99923 0.000426021 0)
(2.99802 0.000830748 0)
(2.99561 0.00248148 0)
(2.98863 0.00454793 0)
(2.97409 0.0152255 0)
(2.93229 0.02655 0)
(2.82984 0.0950602 0)
(2.55551 0.211677 0)
(1.8553 0.631618 0)
(1.42554 0.867321 0)
(1.32959 0.897438 0)
(1.32317 0.891226 0)
(1.34132 0.860857 0)
(1.35714 0.812186 0)
(3 3.49517e-09 0)
(3 2.69673e-08 0)
(3 8.31693e-08 0)
(3 2.49224e-07 0)
(3 5.91238e-07 0)
(3 1.55497e-06 0)
(2.99999 3.50365e-06 0)
(2.99998 8.96654e-06 0)
(2.99996 1.99609e-05 0)
(2.9999 5.08611e-05 0)
(2.99979 0.000112751 0)
(2.99945 0.000288183 0)
(2.99881 0.000636873 0)
(2.99685 0.00163967 0)
(2.9934 0.00365736 0)
(2.98122 0.00938655 0)
(2.9598 0.0221533 0)
(2.88545 0.0565451 0)
(2.70133 0.149573 0)
(2.21771 0.398791 0)
(1.56912 0.849163 0)
(1.36467 0.910842 0)
(1.33639 0.8987 0)
(1.3378 0.860923 0)
(1.33985 0.798065 0)
(3 2.97327e-09 0)
(3 1.59581e-08 0)
(3 5.95107e-08 0)
(3 1.52468e-07 0)
(3 4.18182e-07 0)
(3 9.56123e-07 0)
(3 2.46542e-06 0)
(2.99999 5.49746e-06 0)
(2.99997 1.3981e-05 0)
(2.99994 3.09558e-05 0)
(2.99985 7.85919e-05 0)
(2.99966 0.000173301 0)
(2.99914 0.000444212 0)
(2.99813 0.00096125 0)
(2.99507 0.00258782 0)
(2.98948 0.00533604 0)
(2.97107 0.0155947 0)
(2.93428 0.0335472 0)
(2.82079 0.0972086 0)
(2.51101 0.266787 0)
(1.88109 0.659915 0)
(1.45429 0.880423 0)
(1.3599 0.891448 0)
(1.33179 0.841631 0)
(1.30962 0.759212 0)
(3 1.13707e-09 0)
(3 1.26001e-08 0)
(3 3.32604e-08 0)
(3 1.14048e-07 0)
(3 2.39473e-07 0)
(3 7.06562e-07 0)
(3 1.41868e-06 0)
(2.99999 4.04728e-06 0)
(2.99998 8.04019e-06 0)
(2.99996 2.27783e-05 0)
(2.9999 4.5046e-05 0)
(2.99976 0.000127853 0)
(2.99947 0.000251494 0)
(2.99864 0.000722594 0)
(2.99704 0.00139762 0)
(2.99204 0.00420911 0)
(2.98325 0.00776983 0)
(2.95242 0.0250764 0)
(2.88902 0.0506478 0)
(2.69332 0.157509 0)
(2.14973 0.42449 0)
(1.58576 0.831022 0)
(1.36312 0.880237 0)
(1.29586 0.80356 0)
(1.25724 0.693131 0)
(3 1.29743e-09 0)
(3 6.98805e-09 0)
(3 2.6011e-08 0)
(3 6.66601e-08 0)
(3 1.82472e-07 0)
(3 4.17085e-07 0)
(3 1.07287e-06 0)
(2.99999 2.3914e-06 0)
(2.99999 6.06523e-06 0)
(2.99997 1.34339e-05 0)
(2.99994 3.39874e-05 0)
(2.99984 7.50785e-05 0)
(2.99964 0.000190412 0)
(2.99908 0.000418929 0)
(2.99798 0.00107732 0)
(2.99479 0.00233592 0)
(2.98846 0.0063004 0)
(2.96973 0.0133202 0)
(2.92881 0.0378962 0)
(2.81365 0.0900104 0)
(2.46789 0.267297 0)
(1.83895 0.656451 0)
(1.39377 0.82482 0)
(1.24419 0.738723 0)
(1.1992 0.614784 0)
(3 1.03162e-09 0)
(3 4.22292e-09 0)
(3 1.85792e-08 0)
(3 4.1386e-08 0)
(3 1.28634e-07 0)
(3 2.5909e-07 0)
(3 7.50808e-07 0)
(3 1.47691e-06 0)
(2.99999 4.21726e-06 0)
(2.99998 8.2265e-06 0)
(2.99996 2.34733e-05 0)
(2.99989 4.5479e-05 0)
(2.99975 0.000130464 0)
(2.99937 0.000250353 0)
(2.99864 0.000729146 0)
(2.99638 0.00136441 0)
(2.99242 0.00415755 0)
(2.97831 0.00742101 0)
(2.95366 0.0245253 0)
(2.86617 0.0455512 0)
(2.64322 0.152645 0)
(2.11091 0.370992 0)
(1.38279 0.747621 0)
(1.12877 0.682356 0)
(1.10911 0.556256 0)
(3 5.21739e-10 0)
(3 2.86169e-09 0)
(3 1.05487e-08 0)
(3 2.70807e-08 0)
(3 7.3373e-08 0)
(3 1.67616e-07 0)
(3 4.25762e-07 0)
(3 9.47413e-07 0)
(2.99999 2.36716e-06 0)
(2.99999 5.23159e-06 0)
(2.99997 1.30011e-05 0)
(2.99993 2.86368e-05 0)
(2.99981 7.10013e-05 0)
(2.99958 0.000155822 0)
(2.99891 0.000388025 0)
(2.99764 0.000836231 0)
(2.99352 0.00216618 0)
(2.9864 0.00446266 0)
(2.96094 0.0125884 0)
(2.90886 0.0262191 0)
(2.75119 0.0785372 0)
(2.31341 0.209686 0)
(1.49605 0.51991 0)
(1.01581 0.578802 0)
(0.989275 0.490582 0)
(3 2.29093e-10 0)
(3 1.7724e-09 0)
(3 5.46366e-09 0)
(3 1.63062e-08 0)
(3 3.85321e-08 0)
(3 1.00227e-07 0)
(3 2.24121e-07 0)
(3 5.64444e-07 0)
(3 1.24519e-06 0)
(2.99999 3.10999e-06 0)
(2.99998 6.83513e-06 0)
(2.99994 1.70213e-05 0)
(2.99986 3.73356e-05 0)
(2.99964 9.28807e-05 0)
(2.99921 0.000202533 0)
(2.99786 0.000509083 0)
(2.99545 0.00108778 0)
(2.98695 0.00285864 0)
(2.97175 0.00600842 0)
(2.91865 0.0155782 0)
(2.78967 0.0407832 0)
(2.43708 0.0903297 0)
(1.5099 0.275805 0)
(0.858781 0.440881 0)
(0.797194 0.391186 0)
(3 2.60108e-10 0)
(3 6.17449e-10 0)
(3 3.96626e-09 0)
(3 6.60628e-09 0)
(3 2.71599e-08 0)
(3 4.15437e-08 0)
(3 1.57691e-07 0)
(3 2.32351e-07 0)
(3 8.80244e-07 0)
(2.99999 1.25701e-06 0)
(2.99998 4.87265e-06 0)
(2.99995 6.71683e-06 0)
(2.99987 2.70792e-05 0)
(2.99972 3.56504e-05 0)
(2.99925 0.000153845 0)
(2.99837 0.000181647 0)
(2.99548 0.000943703 0)
(2.99049 0.000767109 0)
(2.97148 0.00632014 0)
(2.93724 0.00359611 0)
(2.81062 0.0371739 0)
(2.46763 0.0449615 0)
(1.63274 0.177905 0)
(0.700347 0.367173 0)
(0.542837 0.283202 0)
(3 8.48296e-11 0)
(3 6.59355e-10 0)
(3 2.02785e-09 0)
(3 6.08122e-09 0)
(3 1.43822e-08 0)
(3 3.77087e-08 0)
(3 8.45664e-08 0)
(3 2.15125e-07 0)
(3 4.76392e-07 0)
(2.99999 1.20415e-06 0)
(2.99998 2.65691e-06 0)
(2.99996 6.72044e-06 0)
(2.99988 1.48052e-05 0)
(2.99974 3.77032e-05 0)
(2.99933 8.26368e-05 0)
(2.99852 0.000216681 0)
(2.99594 0.000460568 0)
(2.99143 0.00129973 0)
(2.97431 0.0026934 0)
(2.94417 0.00807325 0)
(2.82925 0.0177529 0)
(2.5203 0.0570021 0)
(1.74308 0.143014 0)
(0.593473 0.367064 0)
(0.259004 0.197693 0)
(3 -2.05133e-12 0)
(3 7.67396e-10 0)
(3 1.19963e-09 0)
(3 6.61255e-09 0)
(3 9.15677e-09 0)
(3 4.14054e-08 0)
(3 5.67377e-08 0)
(3 2.4555e-07 0)
(3 3.40212e-07 0)
(2.99999 1.4503e-06 0)
(2.99998 2.03809e-06 0)
(2.99996 8.61819e-06 0)
(2.9999 1.20511e-05 0)
(2.99977 5.20875e-05 0)
(2.9994 6.58089e-05 0)
(2.99869 0.000326719 0)
(2.99638 0.000291766 0)
(2.99236 0.00205815 0)
(2.97701 0.000860743 0)
(2.94996 0.012939 0)
(2.84788 0.00504119 0)
(2.57834 0.0744719 0)
(1.85913 0.119175 0)
(0.546647 0.373651 0)
(0.039114 0.154377 0)
(3 4.76228e-11 0)
(3 3.71445e-10 0)
(3 1.13733e-09 0)
(3 3.45324e-09 0)
(3 8.2028e-09 0)
(3 2.20967e-08 0)
(3 5.01887e-08 0)
(3 1.32439e-07 0)
(3 2.98922e-07 0)
(2.99999 7.86104e-07 0)
(2.99999 1.77754e-06 0)
(2.99996 4.65689e-06 0)
(2.99992 1.05526e-05 0)
(2.99979 2.71835e-05 0)
(2.99956 6.3131e-05 0)
(2.99871 0.000150269 0)
(2.99738 0.000379189 0)
(2.99191 0.00082599 0)
(2.98315 0.00193772 0)
(2.94804 0.00518249 0)
(2.87303 0.0111834 0)
(2.64216 0.0353797 0)
(1.92204 0.0931067 0)
(0.594065 0.274602 0)
(-0.0521454 0.120561 0)
(3 3.03748e-11 0)
(3 1.6076e-10 0)
(3 6.06998e-10 0)
(3 1.55014e-09 0)
(3 4.34329e-09 0)
(3 9.97435e-09 0)
(3 2.63873e-08 0)
(3 5.94116e-08 0)
(3 1.54785e-07 0)
(2.99999 3.47657e-07 0)
(2.99999 8.95924e-07 0)
(2.99997 2.01116e-06 0)
(2.99992 5.06071e-06 0)
(2.99982 1.15566e-05 0)
(2.99951 2.76826e-05 0)
(2.99895 6.2544e-05 0)
(2.99694 0.000153872 0)
(2.99365 0.00031625 0)
(2.98063 0.000895802 0)
(2.95767 0.00183053 0)
(2.87238 0.00579 0)
(2.65311 0.0138309 0)
(2.0406 0.044975 0)
(0.529509 0.128696 0)
(-0.178849 0.0904799 0)
(3 6.08516e-12 0)
(3 4.97262e-11 0)
(3 1.50986e-10 0)
(3 4.67232e-10 0)
(3 1.10271e-09 0)
(3 3.00836e-09 0)
(3 6.75607e-09 0)
(3 1.81234e-08 0)
(3 4.04301e-08 0)
(2.99999 1.09457e-07 0)
(2.99999 2.46174e-07 0)
(2.99997 6.70414e-07 0)
(2.99993 1.54595e-06 0)
(2.99981 3.99899e-06 0)
(2.9996 1.03003e-05 0)
(2.99882 2.19966e-05 0)
(2.99759 6.42837e-05 0)
(2.99253 0.000129979 0)
(2.98441 0.000328364 0)
(2.95211 0.000940315 0)
(2.8832 0.00226805 0)
(2.67458 0.00692575 0)
(2.02162 0.0197163 0)
(0.599099 0.0572102 0)
(-0.168106 0.0689039 0)
(3 -1.13127e-11 0)
(3 -6.75737e-11 0)
(3 -2.50911e-10 0)
(3 -6.46438e-10 0)
(3 -1.898e-09 0)
(3 -4.4794e-09 0)
(3 -1.28272e-08 0)
(3 -3.0073e-08 0)
(3 -8.585e-08 0)
(2.99999 -2.02793e-07 0)
(2.99999 -5.71601e-07 0)
(2.99997 -1.36664e-06 0)
(2.99992 -3.56856e-06 0)
(2.99982 -9.72796e-06 0)
(2.99952 -1.75711e-05 0)
(2.999 -6.74547e-05 0)
(2.99703 -6.0023e-05 0)
(2.99387 -0.000279486 0)
(2.98131 -0.000180666 0)
(2.95928 -0.000570812 0)
(2.87745 0.00028249 0)
(2.66885 0.00210199 0)
(2.08558 0.0103813 0)
(0.558872 0.0331885 0)
(-0.215736 0.0458885 0)
(3 -8.81332e-11 0)
(3 6.73789e-11 0)
(3 -9.24424e-10 0)
(3 1.34559e-10 0)
(3 -6.31105e-09 0)
(3 -4.16953e-10 0)
(3 -3.96322e-08 0)
(3 -9.29655e-09 0)
(3 -2.47132e-07 0)
(2.99999 -9.51158e-08 0)
(2.99999 -1.5417e-06 0)
(2.99997 -7.63169e-07 0)
(2.99992 -9.58122e-06 0)
(2.9998 -4.66461e-06 0)
(2.99955 -6.01267e-05 0)
(2.99878 -1.04505e-05 0)
(2.99741 -0.000384495 0)
(2.99243 0.000191814 0)
(2.98418 -0.00227624 0)
(2.95257 0.00293911 0)
(2.88551 -0.0113256 0)
(2.68513 0.015014 0)
(2.04465 -0.00803204 0)
(0.639644 0.0288738 0)
(-0.173704 0.0297341 0)
(3 -1.57628e-11 0)
(3 -8.64354e-11 0)
(3 -3.3571e-10 0)
(3 -8.57053e-10 0)
(3 -2.63123e-09 0)
(3 -6.27888e-09 0)
(3 -1.83192e-08 0)
(3 -4.33828e-08 0)
(3 -1.21741e-07 0)
(2.99999 -2.872e-07 0)
(2.99999 -7.71835e-07 0)
(2.99996 -1.81288e-06 0)
(2.99992 -4.63898e-06 0)
(2.99978 -1.07623e-05 0)
(2.99952 -2.53861e-05 0)
(2.99873 -6.24568e-05 0)
(2.9972 -0.000110436 0)
(2.99232 -0.00034942 0)
(2.98358 -0.000324075 0)
(2.95262 -0.00110453 0)
(2.88612 -0.000431963 0)
(2.6904 -0.000112702 0)
(2.05354 0.00409893 0)
(0.672542 0.0168967 0)
(-0.16978 0.0117467 0)
(3 -4.08251e-12 0)
(3 -7.04666e-12 0)
(3 -5.66778e-11 0)
(3 -1.25725e-10 0)
(3 -6.2524e-10 0)
(3 -1.58525e-09 0)
(3 -5.66195e-09 0)
(3 -1.40289e-08 0)
(3 -4.06818e-08 0)
(2.99999 -9.63596e-08 0)
(2.99999 -2.38684e-07 0)
(2.99996 -5.33125e-07 0)
(2.99991 -1.11459e-06 0)
(2.99978 -2.2367e-06 0)
(2.99951 -3.91117e-06 0)
(2.99871 -2.37785e-06 0)
(2.99717 -1.85032e-05 0)
(2.99225 8.4346e-05 0)
(2.98354 -0.000142452 0)
(2.95253 0.000388193 0)
(2.88655 -0.000292418 0)
(2.69214 0.00105462 0)
(2.06252 0.000652025 0)
(0.691526 0.00418193 0)
(-0.16563 -0.00213478 0)
(3 7.05103e-11 0)
(3 -2.44474e-10 0)
(3 4.39986e-10 0)
(3 -1.84465e-09 0)
(3 2.36035e-09 0)
(3 -1.20875e-08 0)
(3 1.09212e-08 0)
(3 -7.6433e-08 0)
(3 4.99633e-08 0)
(2.99999 -4.62942e-07 0)
(2.99999 2.55092e-07 0)
(2.99996 -2.69518e-06 0)
(2.99992 1.56537e-06 0)
(2.99978 -1.53068e-05 0)
(2.99952 1.11598e-05 0)
(2.99871 -8.70396e-05 0)
(2.99727 9.38513e-05 0)
(2.99222 -0.000556422 0)
(2.98385 0.00101738 0)
(2.95258 -0.00397334 0)
(2.88697 0.00767934 0)
(2.69178 -0.0142985 0)
(2.07278 0.0139791 0)
(0.696174 -0.00445239 0)
(-0.161074 -0.00963764 0)
(3 6.36482e-11 0)
(3 -3.10005e-10 0)
(3 2.55825e-10 0)
(3 -2.41812e-09 0)
(3 1.05739e-09 0)
(3 -1.56789e-08 0)
(3 2.83634e-09 0)
(3 -9.76805e-08 0)
(3 7.9831e-10 0)
(2.99999 -5.87555e-07 0)
(2.99998 -4.51732e-08 0)
(2.99996 -3.439e-06 0)
(2.9999 -3.02563e-07 0)
(2.99979 -1.98897e-05 0)
(2.99945 -1.34499e-07 0)
(2.99878 -0.000117916 0)
(2.99678 3.93544e-05 0)
(2.99301 -0.000771373 0)
(2.98073 0.000772995 0)
(2.95741 -0.00472049 0)
(2.88008 0.00600667 0)
(2.68225 -0.017451 0)
(2.14124 0.0102112 0)
(0.639806 -0.0093124 0)
(-0.18857 -0.0161717 0)
(3 -1.40184e-12 0)
(3 -2.12795e-11 0)
(3 -4.7745e-11 0)
(3 -2.05033e-10 0)
(3 -5.5551e-10 0)
(3 -2.01543e-09 0)
(3 -5.44289e-09 0)
(3 -1.60855e-08 0)
(3 -4.02259e-08 0)
(2.99999 -1.03971e-07 0)
(2.99998 -2.43603e-07 0)
(2.99996 -5.755e-07 0)
(2.9999 -1.27e-06 0)
(2.99978 -2.82077e-06 0)
(2.99943 -5.8399e-06 0)
(2.99875 -1.27477e-05 0)
(2.99673 -2.32181e-05 0)
(2.99282 -5.54443e-05 0)
(2.98068 -8.81357e-05 0)
(2.95671 -0.00011078 0)
(2.88051 -0.000544037 0)
(2.68434 0.000769356 0)
(2.15393 0.00173261 0)
(0.639404 0.00436639 0)
(-0.186111 -0.0100764 0)
(3 -7.15173e-11 0)
(3 2.83843e-10 0)
(3 -3.63587e-10 0)
(3 2.15264e-09 0)
(3 -2.12882e-09 0)
(3 1.26371e-08 0)
(3 -1.27226e-08 0)
(3 7.15844e-08 0)
(3 -7.18092e-08 0)
(2.99999 4.13851e-07 0)
(2.99998 -3.74116e-07 0)
(2.99996 2.47491e-06 0)
(2.9999 -1.82073e-06 0)
(2.99978 1.53151e-05 0)
(2.99944 -9.26671e-06 0)
(2.99876 0.000100086 0)
(2.99675 -7.76313e-05 0)
(2.99295 0.000721038 0)
(2.98068 -0.000892546 0)
(2.95704 0.00456657 0)
(2.88082 -0.00577099 0)
(2.68517 0.01773 0)
(2.1505 -0.00782593 0)
(0.652242 0.0152341 0)
(-0.185672 -0.00377425 0)
(3 -7.67072e-11 0)
(3 2.53066e-10 0)
(3 -4.70078e-10 0)
(3 1.87534e-09 0)
(3 -2.77535e-09 0)
(3 1.12386e-08 0)
(3 -1.56333e-08 0)
(3 6.53563e-08 0)
(3 -8.49439e-08 0)
(2.99999 3.83021e-07 0)
(2.99998 -4.45253e-07 0)
(2.99996 2.29086e-06 0)
(2.99991 -2.28792e-06 0)
(2.99977 1.40931e-05 0)
(2.9995 -1.24844e-05 0)
(2.99869 9.26149e-05 0)
(2.99725 -0.000100776 0)
(2.99215 0.000693149 0)
(2.98377 -0.00108782 0)
(2.95293 0.00442164 0)
(2.88773 -0.00689223 0)
(2.69474 0.0149757 0)
(2.09046 -0.0132828 0)
(0.713317 0.00637298 0)
(-0.172681 -0.00280609 0)
(1.00526 1.10172 0)
(1.15921 0.936523 0)
(0.625066 0.590079 0)
(-0.340847 0.33432 0)
(-0.289173 0.0367263 0)
(-0.378135 0.0317541 0)
(-0.526938 0.0310627 0)
(-0.660407 0.0253946 0)
(-0.771673 0.0170368 0)
(-0.857956 0.00832385 0)
(-0.927039 0.00226666 0)
(-0.991283 -0.000322876 0)
(-1.04541 0.00213053 0)
(-1.07598 0.00377237 0)
(-1.08633 0.00309894 0)
(-1.08566 0.00132954 0)
(-1.07023 -0.000152626 0)
(-1.03834 -0.0014792 0)
(-0.993024 -0.00268456 0)
(-0.939081 -0.00350748 0)
(-0.880956 -0.0036515 0)
(-0.821368 -0.00338024 0)
(-0.761402 -0.00307658 0)
(-0.702097 -0.0027571 0)
(-0.644074 -0.00252612 0)
(-0.587783 -0.00244476 0)
(-0.532931 -0.00257384 0)
(-0.479661 -0.0028553 0)
(-0.427533 -0.00355071 0)
(-0.376908 -0.00507199 0)
(-0.326221 -0.0078101 0)
(-0.275514 -0.0112608 0)
(-0.224459 -0.0142966 0)
(-0.173781 -0.0165751 0)
(-0.124099 -0.0183407 0)
(-0.0749469 -0.0201524 0)
(-0.027024 -0.0224278 0)
(0.0214674 -0.0251752 0)
(0.0744706 -0.027319 0)
(0.11489 -0.0262995 0)
(0.155682 -0.0252096 0)
(0.194856 -0.0237098 0)
(0.233071 -0.0223654 0)
(0.269644 -0.0213392 0)
(0.307246 -0.0209279 0)
(0.345294 -0.0206937 0)
(0.382145 -0.0200586 0)
(0.417712 -0.0193135 0)
(0.452312 -0.0186743 0)
(0.486032 -0.0180554 0)
(0.519093 -0.0174431 0)
(0.551457 -0.0168313 0)
(0.5831 -0.0162069 0)
(0.614102 -0.0156049 0)
(0.644469 -0.0150387 0)
(0.67419 -0.014486 0)
(0.703332 -0.0139643 0)
(0.731846 -0.0134623 0)
(0.759831 -0.012966 0)
(0.787269 -0.012501 0)
(0.814152 -0.012029 0)
(0.840552 -0.0115799 0)
(0.866452 -0.0111304 0)
(0.891901 -0.0106946 0)
(0.916884 -0.010258 0)
(0.941452 -0.0098249 0)
(0.965608 -0.00939413 0)
(0.989365 -0.00896163 0)
(1.01276 -0.00852805 0)
(1.03579 -0.00809436 0)
(1.05847 -0.00765542 0)
(1.08082 -0.00721765 0)
(1.10284 -0.00677454 0)
(1.12455 -0.00633432 0)
(1.14595 -0.00589101 0)
(1.16704 -0.00545528 0)
(1.18783 -0.00502104 0)
(1.20833 -0.00459866 0)
(1.22854 -0.00418443 0)
(1.24849 -0.00378336 0)