/*--------------------------------*- C++ -*----------------------------------*\
  =========                 |
  \\      /  F ield         | OpenFOAM: The Open Source CFD Toolbox
   \\    /   O peration     | Website:  https://openfoam.org
    \\  /    A nd           | Version:  6
     \\/     M anipulation  |
\*---------------------------------------------------------------------------*/
FoamFile
{
    version     2.0;
    format      ascii;
    class       volScalarField;
    location    "47";
    object      p;
}
// * * * * * * * * * * * * * * * * * * * * * * * * * * * * * * * * * * * * * //

dimensions      [0 2 -2 0 0 0 0];

internalField   nonuniform List<scalar> 
8800
(
0.895182
0.845863
0.807892
0.779813
0.759636
0.745025
0.734394
0.726809
0.721863
0.719711
0.72099
0.725256
0.731993
0.741374
0.754081
0.77138
0.795243
0.828332
0.871264
0.923776
0.729689
0.736032
0.745175
0.748714
0.746093
0.739986
0.733018
0.726736
0.721878
0.718934
0.71861
0.72115
0.725722
0.731799
0.738862
0.745871
0.750733
0.750597
0.743913
0.735009
0.703234
0.709466
0.713957
0.717814
0.720744
0.721668
0.720544
0.71837
0.716319
0.715389
0.716321
0.718688
0.72151
0.723733
0.72422
0.722407
0.719023
0.714997
0.710208
0.706491
0.698978
0.70174
0.704336
0.706478
0.708194
0.709732
0.710794
0.71109
0.710897
0.710893
0.711587
0.712636
0.713305
0.713101
0.712085
0.710702
0.70901
0.706692
0.704272
0.702705
0.693983
0.695405
0.697232
0.699294
0.700982
0.702241
0.703292
0.704206
0.704924
0.705543
0.706127
0.706481
0.706422
0.705994
0.705278
0.704127
0.702443
0.700529
0.699166
0.698364
0.689071
0.689972
0.691205
0.69281
0.694473
0.695965
0.697194
0.698239
0.699197
0.700076
0.700716
0.700983
0.700894
0.70045
0.69959
0.698358
0.696962
0.695672
0.694841
0.694317
0.684262
0.684916
0.685862
0.687155
0.688567
0.690037
0.691458
0.692734
0.693876
0.694922
0.695698
0.696042
0.695941
0.69541
0.694558
0.693561
0.692526
0.691591
0.691
0.690617
0.679555
0.680059
0.680829
0.681941
0.683202
0.684566
0.686001
0.68744
0.688813
0.690082
0.691029
0.691455
0.691387
0.69095
0.690297
0.689539
0.688746
0.688047
0.687608
0.68731
0.674901
0.675301
0.675945
0.676934
0.678119
0.679424
0.680845
0.682371
0.683943
0.685471
0.686636
0.687217
0.68731
0.687075
0.686641
0.686088
0.685488
0.684974
0.684644
0.684404
0.670222
0.670548
0.671104
0.672013
0.673149
0.674436
0.675885
0.677497
0.679245
0.68104
0.682497
0.683344
0.683688
0.683688
0.683467
0.683119
0.682697
0.682336
0.68209
0.68189
0.665437
0.665708
0.666204
0.667064
0.668178
0.669486
0.671
0.672736
0.674687
0.676785
0.678614
0.679816
0.680468
0.680734
0.680743
0.680598
0.680357
0.680129
0.679948
0.679777
0.660461
0.660688
0.661145
0.661987
0.663123
0.664492
0.666111
0.668024
0.670247
0.672738
0.675016
0.676632
0.677642
0.67821
0.678472
0.678537
0.678469
0.678359
0.678232
0.678083
0.655212
0.655405
0.655842
0.656697
0.657893
0.659369
0.66115
0.663308
0.665883
0.668855
0.671686
0.673801
0.675224
0.676132
0.676674
0.676955
0.677069
0.677071
0.67699
0.676855
0.649596
0.649763
0.650198
0.651095
0.65239
0.654025
0.656041
0.658533
0.661572
0.665158
0.668654
0.671352
0.673248
0.674536
0.67539
0.675929
0.67622
0.676324
0.676282
0.676157
0.643504
0.643648
0.644095
0.645062
0.646506
0.648359
0.65068
0.653593
0.657201
0.661534
0.665848
0.669259
0.671725
0.673466
0.674676
0.675488
0.675979
0.676191
0.676185
0.676068
0.63681
0.636929
0.637404
0.63847
0.64011
0.642249
0.64496
0.648401
0.652716
0.657972
0.663277
0.667542
0.670698
0.672977
0.674603
0.675732
0.676449
0.676773
0.676802
0.676688
0.629345
0.62944
0.629958
0.631159
0.63305
0.635558
0.638769
0.642881
0.648077
0.654457
0.660973
0.666274
0.670239
0.673153
0.67528
0.676774
0.677737
0.678179
0.678242
0.678128
0.620884
0.620983
0.621547
0.622915
0.62514
0.62812
0.631973
0.636946
0.643265
0.651045
0.659013
0.66553
0.670441
0.674087
0.676804
0.678727
0.679971
0.680541
0.680637
0.680521
0.611144
0.611226
0.611876
0.613474
0.61613
0.619711
0.624367
0.630407
0.638113
0.647618
0.65734
0.665311
0.671359
0.675889
0.679291
0.681723
0.683291
0.683999
0.684128
0.684007
0.599757
0.599822
0.600576
0.602482
0.605676
0.610028
0.615725
0.623123
0.632542
0.644141
0.655992
0.665705
0.673094
0.678668
0.682872
0.685904
0.687839
0.688699
0.688859
0.688729
0.586198
0.586252
0.58715
0.58946
0.593372
0.598746
0.605801
0.614965
0.626586
0.640782
0.65516
0.666874
0.675791
0.682569
0.687712
0.69143
0.693769
0.694786
0.694973
0.694829
0.569724
0.569773
0.57088
0.573756
0.578649
0.585406
0.594276
0.605734
0.620123
0.637483
0.654835
0.668875
0.679557
0.687706
0.693927
0.698424
0.701208
0.70238
0.702585
0.702424
0.549192
0.549243
0.550681
0.554404
0.560698
0.569387
0.580729
0.595214
0.613088
0.634251
0.655091
0.671785
0.684465
0.694169
0.701599
0.706983
0.710237
0.711552
0.711763
0.71158
0.52282
0.522899
0.524922
0.530029
0.538506
0.55008
0.56496
0.583532
0.605855
0.631566
0.656297
0.675855
0.690676
0.702086
0.710819
0.717153
0.720864
0.722284
0.722475
0.722265
0.487585
0.487788
0.491005
0.498673
0.510854
0.526859
0.546769
0.570682
0.598382
0.629315
0.658389
0.68108
0.698195
0.711398
0.721563
0.728846
0.732942
0.734395
0.734533
0.734293
0.437722
0.438782
0.445209
0.45818
0.476841
0.499709
0.526596
0.557287
0.591362
0.62813
0.661784
0.687665
0.707094
0.722091
0.733675
0.741817
0.746139
0.747516
0.747571
0.747301
0.364794
0.372085
0.386889
0.40961
0.437973
0.470038
0.505428
0.543886
0.585028
0.628171
0.666846
0.696251
0.718274
0.735322
0.748421
0.757344
0.761849
0.763172
0.763185
0.762942
0.286944
0.302904
0.327
0.360235
0.398839
0.440288
0.484283
0.530759
0.579446
0.629757
0.674489
0.708399
0.733822
0.753472
0.768423
0.778211
0.782769
0.783961
0.784005
0.783878
0.220293
0.23984
0.271718
0.314003
0.361725
0.412014
0.464394
0.51876
0.574832
0.632055
0.682529
0.720634
0.749148
0.771176
0.787684
0.798069
0.802578
0.803722
0.803823
0.803767
0.165756
0.187528
0.224774
0.273567
0.328422
0.386135
0.44594
0.507561
0.570584
0.634372
0.690275
0.732308
0.763659
0.787746
0.805664
0.816861
0.821859
0.823077
0.823188
0.823174
0.120451
0.143559
0.184691
0.238596
0.299175
0.363012
0.429159
0.497205
0.566569
0.636482
0.69745
0.743152
0.777149
0.803161
0.822514
0.834719
0.840223
0.841544
0.841722
0.84174
0.0817646
0.105707
0.149724
0.207774
0.273168
0.342232
0.413866
0.487598
0.562698
0.638256
0.703981
0.753061
0.78949
0.817293
0.837904
0.850959
0.856946
0.858507
0.858754
0.858791
0.0476887
0.0722209
0.118512
0.179991
0.249492
0.323106
0.39961
0.478467
0.558837
0.639635
0.709809
0.762031
0.800631
0.829991
0.851662
0.865315
0.871701
0.873591
0.873925
0.873965
0.0167612
0.0417936
0.0899775
0.154385
0.227445
0.305048
0.385927
0.46947
0.554741
0.640483
0.714838
0.770007
0.810568
0.84129
0.863781
0.877904
0.884624
0.886729
0.887095
0.887119
-0.0119895
0.0135143
0.0633181
0.130309
0.206488
0.287625
0.372448
0.4603
0.550165
0.640639
0.719014
0.77698
0.819382
0.851261
0.874342
0.888721
0.895655
0.897895
0.898284
0.898286
-0.0393191
-0.0132876
0.0380077
0.107293
0.186231
0.270525
0.358918
0.450746
0.544934
0.639953
0.722283
0.783012
0.827205
0.860083
0.883549
0.89807
0.905128
0.907471
0.907853
0.907826
-0.0655438
-0.0390286
0.0136448
0.0849963
0.166404
0.253531
0.345168
0.44066
0.538923
0.638334
0.724621
0.788179
0.834177
0.867989
0.891806
0.906453
0.913557
0.915917
0.916297
0.91624
-0.0910594
-0.063968
-0.0100233
0.0631988
0.146826
0.236502
0.331091
0.42996
0.532048
0.635727
0.726026
0.792545
0.84041
0.875163
0.899314
0.914048
0.92114
0.923441
0.923793
0.92372
-0.115958
-0.0882792
-0.0331401
0.0417813
0.127395
0.219368
0.316636
0.418608
0.524274
0.632101
0.726498
0.796162
0.846018
0.881762
0.906265
0.921044
0.928072
0.930292
0.930569
0.930449
-0.140336
-0.112055
-0.0557909
0.020684
0.108078
0.202107
0.301794
0.406598
0.515599
0.627429
0.726008
0.799044
0.851089
0.887945
0.912833
0.927601
0.934436
0.936493
0.936679
0.936519
-0.164265
-0.135351
-0.0779893
-0.000107567
0.0888648
0.184739
0.286597
0.393967
0.506041
0.621703
0.724504
0.801156
0.855689
0.893857
0.919148
0.933784
0.9403
0.942102
0.942187
0.942
-0.187778
-0.158153
-0.0997276
-0.020576
0.0698036
0.167306
0.271104
0.380768
0.495641
0.614911
0.721921
0.802418
0.859833
0.899648
0.925395
0.939698
0.945675
0.947138
0.94712
0.946917
-0.210708
-0.180413
-0.120975
-0.0406926
0.0509394
0.149886
0.255383
0.367083
0.484465
0.607076
0.718188
0.802726
0.863467
0.905451
0.93186
0.94559
0.95067
0.951626
0.951494
0.951292
-0.233013
-0.202083
-0.141701
-0.0603997
0.0323382
0.132545
0.239532
0.352998
0.4726
0.598225
0.713253
0.801951
0.866454
0.911297
0.938919
0.951988
0.955603
0.955644
0.95533
0.955171
-0.254749
-0.223124
-0.161871
-0.0796523
0.0140714
0.115375
0.223645
0.338619
0.46014
0.588421
0.707064
0.799963
0.868574
0.917005
0.946855
0.959805
0.961465
0.95964
0.958695
0.958749
-0.275747
-0.243503
-0.181423
-0.0983778
-0.00379637
0.098464
0.207823
0.324061
0.447203
0.577762
0.699605
0.796619
0.86956
0.922124
0.955479
0.969967
0.970447
0.965844
0.962264
0.960556
-0.2961
-0.263222
-0.20036
-0.116604
-0.0212985
0.0817687
0.192012
0.30926
0.433713
0.566175
0.690717
0.79165
0.869123
0.926053
0.96389
0.982378
0.984622
0.978583
0.967946
0.967244
-0.315717
-0.28235
-0.218817
-0.134527
-0.0387366
0.0649415
0.175783
0.293712
0.419098
0.552996
0.679702
0.784237
0.866677
0.927926
0.970014
0.993941
0.999212
0.989732
0.971695
0.967817
-0.334453
-0.300851
-0.236619
-0.151936
-0.0558529
0.0482917
0.159355
0.277749
0.403668
0.538489
0.666665
0.773846
0.861568
0.926586
0.969389
0.993135
1.00208
0.979609
0.921046
0.895254
-0.352186
-0.319536
-0.253355
-0.1683
-0.0719505
0.0323111
0.143002
0.261645
0.387702
0.522831
0.651693
0.759985
0.85294
0.921378
0.95743
0.975345
0.968808
0.920928
0.859691
0.822022
-0.396713
-0.337567
-0.268908
-0.184211
-0.0878227
0.0160793
0.126855
0.245281
0.371005
0.505696
0.634418
0.742195
0.83726
0.910651
0.933203
0.927777
0.887769
0.827135
0.760027
0.723128
-0.371522
-0.353016
-0.292453
-0.207817
-0.111924
-0.00824198
0.101781
0.219505
0.344205
0.477239
0.604016
0.709206
0.795162
0.874751
0.864219
0.764411
0.679698
0.620684
0.559028
0.58807
-0.403584
-0.371403
-0.309945
-0.225863
-0.130049
-0.0266874
0.0834748
0.200517
0.32415
0.455327
0.579304
0.68075
0.756821
0.800963
0.755874
0.623989
0.520522
0.450722
0.370925
0.418638
-0.428595
-0.393902
-0.330546
-0.246266
-0.150504
-0.0471986
0.062865
0.179103
0.301355
0.430086
0.550179
0.64562
0.710767
0.718043
0.618712
0.46985
0.345762
0.257022
0.163819
0.197087
-0.453015
-0.417171
-0.352332
-0.267329
-0.171402
-0.0681887
0.0414014
0.156682
0.277341
0.403245
0.518541
0.606848
0.655436
0.631135
0.480162
0.308813
0.153354
0.023149
-0.0986442
-0.084518
-0.47718
-0.44087
-0.375039
-0.289386
-0.193212
-0.0901561
0.0188206
0.133007
0.251801
0.374502
0.484296
0.565249
0.593944
0.527005
0.34423
0.152367
-0.0305183
-0.180863
-0.383803
-0.462219
-0.501769
-0.465465
-0.39901
-0.312851
-0.216414
-0.113463
-0.00503098
0.108039
0.224855
0.344124
0.448095
0.519825
0.524987
0.407052
0.220535
0.0163571
-0.171451
-0.330225
-0.452177
-0.570178
-0.527864
-0.491444
-0.424613
-0.338129
-0.241561
-0.138807
-0.0310115
0.0807725
0.195269
0.310572
0.408263
0.468002
0.447145
0.293043
0.104938
-0.0933646
-0.264667
-0.359272
-0.385015
-0.398569
-0.555605
-0.519091
-0.451979
-0.365325
-0.268807
-0.166414
-0.0594994
0.0506899
0.162414
0.273018
0.36394
0.406942
0.36811
0.183676
-0.00263643
-0.180629
-0.309722
-0.346581
-0.355312
-0.355674
-0.585278
-0.548531
-0.48114
-0.394416
-0.298092
-0.19629
-0.090517
0.0177319
0.12621
0.2314
0.314566
0.342245
0.273147
0.0836823
-0.0966035
-0.251137
-0.32289
-0.336942
-0.337809
-0.337579
-0.616884
-0.579791
-0.512102
-0.42539
-0.329422
-0.228418
-0.124072
-0.0181248
0.086661
0.185775
0.259928
0.273304
0.167221
-0.00699254
-0.17731
-0.298917
-0.326388
-0.327599
-0.328349
-0.327849
-0.650155
-0.612686
-0.544747
-0.458149
-0.362697
-0.262736
-0.160135
-0.0568634
0.0438036
0.136232
0.201033
0.195884
0.0722756
-0.0915069
-0.241134
-0.308352
-0.323542
-0.322795
-0.32296
-0.322683
-0.684496
-0.646844
-0.578789
-0.492442
-0.397708
-0.299064
-0.198543
-0.0983657
-0.00217001
0.0831682
0.137839
0.117037
-0.0162618
-0.167498
-0.284935
-0.319719
-0.318963
-0.319013
-0.318807
-0.318656
-0.719443
-0.681703
-0.613713
-0.527817
-0.434065
-0.337046
-0.238983
-0.142357
-0.0509996
0.0274125
0.0687682
0.0414904
-0.0976715
-0.226693
-0.312451
-0.319168
-0.319309
-0.317899
-0.317146
-0.316762
-0.753997
-0.716333
-0.648728
-0.563588
-0.471167
-0.376152
-0.280939
-0.188339
-0.102278
-0.0303744
-0.000327408
-0.0393479
-0.170138
-0.271231
-0.31804
-0.329691
-0.325196
-0.32362
-0.322285
-0.32135
-0.786232
-0.749392
-0.682748
-0.598803
-0.508169
-0.415603
-0.323664
-0.235523
-0.155254
-0.0897903
-0.0656946
-0.128901
-0.239065
-0.311707
-0.33144
-0.335312
-0.3346
-0.332441
-0.331741
-0.331237
-0.815053
-0.779306
-0.714298
-0.632182
-0.543931
-0.454358
-0.366168
-0.282845
-0.208735
-0.150331
-0.131218
-0.215268
-0.314615
-0.350594
-0.363875
-0.362417
-0.355457
-0.351192
-0.350558
-0.350068
-0.837671
-0.803903
-0.74154
-0.662097
-0.577024
-0.491112
-0.407176
-0.328986
-0.261322
-0.210039
-0.19624
-0.294566
-0.412301
-0.431304
-0.415311
-0.41503
-0.408626
-0.404431
-0.402636
-0.40098
-0.851873
-0.820927
-0.762304
-0.6867
-0.605759
-0.524334
-0.445177
-0.37231
-0.311389
-0.266087
-0.256014
-0.35875
-0.536413
-0.618062
-0.569264
-0.532148
-0.52229
-0.508636
-0.49549
-0.489367
-0.854864
-0.827893
-0.774365
-0.704026
-0.628327
-0.55234
-0.478555
-0.410909
-0.356588
-0.316574
-0.306084
-0.385955
-0.590513
-0.813611
-0.712523
-0.602059
-0.560221
-0.542856
-0.530728
-0.527158
-0.844609
-0.822433
-0.775558
-0.71219
-0.643136
-0.573464
-0.505669
-0.443095
-0.393574
-0.360475
-0.334778
-0.369601
-0.382846
-0.553745
-0.521507
-0.467216
-0.449419
-0.447329
-0.451259
-0.452028
-0.817955
-0.801407
-0.763853
-0.709846
-0.649056
-0.586511
-0.525111
-0.467476
-0.419961
-0.393347
-0.354217
-0.288053
-0.0385028
0.156081
0.0235541
-0.237953
-0.367635
-0.389874
-0.394533
-0.39416
-0.778171
-0.767386
-0.740035
-0.697159
-0.64584
-0.591377
-0.535993
-0.483142
-0.436949
-0.407559
-0.379586
-0.307587
-0.0886972
0.116899
-0.129375
-0.357632
-0.43471
-0.43207
-0.422006
-0.433438
-0.73197
-0.725786
-0.709028
-0.677122
-0.635716
-0.588759
-0.539002
-0.489457
-0.444245
-0.409357
-0.417445
-0.490691
-0.815759
-1.07935
-1.3327
-1.45333
-1.3464
-1.16473
-1.01127
-0.980859
-0.689466
-0.685828
-0.677356
-0.655453
-0.622075
-0.580856
-0.535408
-0.486837
-0.440157
-0.408816
-0.391808
-0.613447
-1.14417
-1.86383
-2.1474
-2.12558
-1.99041
-1.79696
-1.62496
-1.5155
-0.658008
-0.655809
-0.651481
-0.637138
-0.609361
-0.571538
-0.52665
-0.476861
-0.424124
-0.372408
-0.350167
-0.415858
-0.666444
-0.902296
-0.970199
-0.785898
-0.558451
-0.33227
-0.198321
-0.130006
-0.634457
-0.633595
-0.63224
-0.624466
-0.601406
-0.564024
-0.516733
-0.461026
-0.39487
-0.321684
-0.234508
-0.144898
-0.00419689
0.247479
0.576487
0.916053
1.18034
1.35217
1.40907
1.42925
-0.621028
-0.620596
-0.620076
-0.616323
-0.597871
-0.559815
-0.506423
-0.442144
-0.363785
-0.265415
-0.151997
0.00295875
0.227592
0.645574
1.16798
1.63809
1.98979
2.14356
2.1929
2.20537
-0.612724
-0.61254
-0.612056
-0.610733
-0.596855
-0.559467
-0.501253
-0.427299
-0.337045
-0.223511
-0.114004
0.0264738
0.266881
0.706283
1.23616
1.70165
2.00977
2.17214
2.24055
2.25752
-0.608929
-0.607892
-0.60518
-0.603448
-0.596887
-0.566042
-0.505062
-0.418403
-0.321707
-0.208192
-0.090098
0.0116411
0.242799
0.642614
1.04819
1.41042
1.68636
1.84594
1.91198
1.93086
-0.623361
-0.619725
-0.612134
-0.608274
-0.610807
-0.587071
-0.516044
-0.418116
-0.308279
-0.201862
-0.088329
-0.00378854
0.136451
0.449782
0.795332
1.08473
1.29546
1.41726
1.47132
1.48632
-0.672656
-0.670128
-0.670691
-0.675884
-0.677067
-0.631461
-0.530623
-0.416015
-0.298131
-0.189609
-0.0905666
-0.010865
0.0907236
0.347507
0.59387
0.789511
0.93547
1.02205
1.06035
1.07004
-0.73924
-0.747225
-0.766368
-0.77667
-0.758607
-0.673532
-0.534306
-0.401725
-0.285928
-0.174942
-0.0879124
-0.0154709
0.0523129
0.234579
0.417013
0.563808
0.659533
0.714448
0.73735
0.743188
-0.733714
-0.748261
-0.771336
-0.781698
-0.751705
-0.642376
-0.495715
-0.369253
-0.259684
-0.161027
-0.0809503
-0.0164471
0.0421297
0.151367
0.281631
0.380131
0.451058
0.493943
0.513312
0.516617
-0.573581
-0.587525
-0.607268
-0.616282
-0.586728
-0.50012
-0.400685
-0.305982
-0.217037
-0.140112
-0.0710077
-0.00919536
0.0307788
0.119945
0.220344
0.284603
0.326433
0.351106
0.360379
0.362398
-0.310657
-0.318792
-0.331892
-0.342605
-0.33502
-0.305399
-0.265009
-0.21594
-0.164656
-0.107896
-0.057143
-0.00433998
0.0371155
0.0808906
0.146291
0.197474
0.235254
0.257512
0.26615
0.266427
-0.076014
-0.0796354
-0.0887168
-0.10445
-0.122153
-0.134646
-0.137159
-0.128584
-0.109805
-0.0733514
-0.0401032
0.000703531
0.0349922
0.069282
0.114028
0.143231
0.169272
0.185111
0.191355
0.190916
0.059923
0.0579135
0.0501436
0.0317684
0.00360085
-0.0266091
-0.0497031
-0.0630269
-0.0634304
-0.0503445
-0.0269294
6.08632e-05
0.0272216
0.0393897
0.0692749
0.0959419
0.114643
0.125381
0.127667
0.126394
0.111966
0.11048
0.104019
0.0876465
0.0609294
0.0302266
0.00195946
-0.0192991
-0.0314224
-0.0326365
-0.0235698
-0.00821231
0.00815908
0.00962769
0.0213384
0.0381802
0.0554453
0.0662202
0.0694418
0.0679514
0.11923
0.118084
0.113244
0.10095
0.0803271
0.0551898
0.0294631
0.0065372
-0.0110389
-0.0226989
-0.0302126
-0.0337937
-0.0372004
-0.0396112
-0.0236111
-0.00771685
0.00452473
0.00896464
0.0100499
0.00863809
0.109033
0.108224
0.104861
0.0962771
0.0815445
0.0623275
0.0412952
0.0203951
0.000848641
-0.0179893
-0.0400801
-0.0670941
-0.0920443
-0.0933577
-0.0748693
-0.0589716
-0.0478715
-0.0443393
-0.0439128
-0.0446532
0.0942171
0.0936875
0.0914576
0.0857189
0.0755469
0.0617191
0.0453422
0.0277743
0.00880813
-0.0135684
-0.0450968
-0.0902603
-0.128437
-0.122417
-0.0990434
-0.0839897
-0.0789809
-0.0797179
-0.0806569
-0.0808001
0.0797384
0.0794189
0.078028
0.0743506
0.0676298
0.0580408
0.0461943
0.0324838
0.016368
-0.00470084
-0.0367969
-0.0839577
-0.118494
-0.105077
-0.0872165
-0.079761
-0.0818661
-0.085857
-0.0872443
-0.0870039
0.0671522
0.066981
0.0661969
0.0640492
0.0599259
0.0538039
0.0458306
0.0365515
0.0253169
0.0099439
-0.0126018
-0.0454752
-0.0618344
-0.0481566
-0.0430029
-0.0462261
-0.0534933
-0.0590259
-0.0604584
-0.0603062
0.0566947
0.0566095
0.0562539
0.0552411
0.0530774
0.0497386
0.0452299
0.040176
0.0346177
0.0288181
0.0226169
0.0121107
0.0124421
0.0215118
0.0183186
0.00664704
-0.00388963
-0.0094245
-0.0102541
-0.0100876
0.047932
0.0479177
0.0478693
0.0476505
0.0469783
0.0458271
0.0442785
0.043215
0.0433283
0.0479094
0.0597268
0.0744745
0.0961727
0.101698
0.0869481
0.069641
0.0592424
0.0557015
0.0550979
0.0548529
0.0403576
0.0403821
0.0405225
0.0408207
0.0411478
0.041558
0.0422609
0.0442938
0.049169
0.0619747
0.089786
0.130675
0.169524
0.167461
0.144612
0.126682
0.120156
0.119261
0.118582
0.117691
0.0333959
0.0334486
0.0336739
0.0342125
0.035085
0.0362937
0.0384276
0.0423726
0.0502804
0.0676119
0.102163
0.151424
0.19391
0.188231
0.169204
0.16056
0.159173
0.16093
0.16038
0.158769
0.0263313
0.0263889
0.0266277
0.0272236
0.0282864
0.029801
0.0324291
0.0368917
0.0456637
0.063037
0.095479
0.139419
0.171119
0.164197
0.155385
0.155642
0.160924
0.165311
0.164723
0.163202
0.0188165
0.0188598
0.0190535
0.0195385
0.0204386
0.0218185
0.0241086
0.0279511
0.0355068
0.0493354
0.0739583
0.103598
0.120998
0.117782
0.117981
0.126276
0.135796
0.139834
0.138824
0.137313
0.0106986
0.0107076
0.0108105
0.0111172
0.0116658
0.0125932
0.014013
0.0164563
0.0209728
0.0294184
0.0430115
0.0569877
0.0564282
0.057011
0.0655562
0.0763317
0.0863282
0.0899581
0.0883865
0.0868825
0.00227436
0.00226014
0.00228144
0.00228155
0.00230578
0.002464
0.00272375
0.00318931
0.00371014
0.00458451
0.00614984
0.00822278
0.00567928
0.00815196
0.0114907
0.0175472
0.0165859
0.0125645
0.0141746
0.0154335
0.0499687
0.239707
0.414345
0.563016
0.683365
0.779679
0.860479
0.926134
0.943012
0.939126
0.343895
0.466387
0.581435
0.681911
0.767051
0.837766
0.893623
0.931364
0.951484
0.967973
0.543685
0.625596
0.706786
0.778348
0.839629
0.890537
0.930594
0.961017
0.983788
1.00302
0.691393
0.74922
0.808162
0.861169
0.906922
0.945781
0.978304
1.00551
1.02596
1.04486
0.808885
0.852954
0.896989
0.937888
0.974287
1.0064
1.03445
1.05817
1.07621
1.09426
0.908704
0.944455
0.979663
1.01365
1.04498
1.07331
1.0983
1.11925
1.13509
1.15257
0.99704
1.02933
1.06171
1.09299
1.1221
1.14856
1.17175
1.19075
1.2047
1.22173
1.08429
1.11697
1.14949
1.18076
1.20959
1.23543
1.25761
1.27518
1.2876
1.30413
1.17883
1.21527
1.25008
1.28259
1.31181
1.33721
1.35837
1.37469
1.38633
1.40248
1.29195
1.3325
1.36958
1.4026
1.43114
1.45517
1.47482
1.49011
1.50203
1.51811
1.4333
1.47445
1.50974
1.53937
1.5646
1.58624
1.60475
1.62025
1.63338
1.64933
1.60493
1.63744
1.6643
1.68661
1.70671
1.72544
1.74319
1.75996
1.77488
1.79061
1.79133
1.80862
1.82575
1.84243
1.85852
1.87326
1.88717
1.90165
1.9169
1.93419
1.97471
1.9847
1.99791
2.0089
2.0183
2.02796
2.03858
2.04876
2.05805
2.08372
2.19264
2.18693
2.17399
2.15973
2.15343
2.15915
2.1773
2.20582
2.23958
2.27591
2.49545
2.35949
2.27999
2.23748
2.22016
2.22414
2.25157
2.30944
2.4171
2.59551
0.79888
0.792576
0.784842
0.773721
0.76014
0.747478
0.737061
0.729021
0.723266
0.719886
0.719477
0.722257
0.727447
0.734773
0.744301
0.756116
0.769668
0.782591
0.791576
0.799114
0.707964
0.713882
0.721949
0.728074
0.731133
0.730607
0.727501
0.723477
0.719848
0.717512
0.717319
0.719516
0.723226
0.727639
0.731718
0.733947
0.732862
0.728218
0.721158
0.713322
0.701241
0.703613
0.706875
0.709639
0.712077
0.714249
0.715405
0.715227
0.714247
0.713385
0.713537
0.71489
0.716625
0.717819
0.717718
0.716231
0.714058
0.711686
0.708696
0.705675
0.69649
0.697578
0.699489
0.701817
0.703674
0.705053
0.706244
0.707201
0.707753
0.708067
0.70855
0.709228
0.709643
0.709484
0.708824
0.707878
0.70653
0.704547
0.70243
0.70095
0.691516
0.69215
0.693273
0.69502
0.696847
0.698418
0.699638
0.700659
0.701584
0.702409
0.703112
0.703559
0.703636
0.703381
0.702807
0.701804
0.700354
0.698727
0.697378
0.696573
0.686656
0.687095
0.687878
0.689169
0.690672
0.692209
0.693651
0.694899
0.695987
0.696989
0.697845
0.698357
0.698463
0.698169
0.697459
0.696423
0.695241
0.694075
0.693158
0.692622
0.681901
0.682229
0.682836
0.683891
0.685165
0.686535
0.687973
0.689391
0.690706
0.691909
0.69294
0.693576
0.693712
0.693394
0.692739
0.691909
0.691026
0.690144
0.689465
0.689071
0.677229
0.677484
0.677973
0.678869
0.680018
0.681293
0.682669
0.684132
0.685625
0.687076
0.688336
0.689115
0.689341
0.689148
0.688692
0.688085
0.687403
0.686739
0.686238
0.685936
0.672573
0.672776
0.673181
0.673967
0.675035
0.676259
0.677615
0.679115
0.680737
0.682411
0.683936
0.684953
0.685388
0.685416
0.685179
0.68478
0.684291
0.68381
0.683444
0.683206
0.667851
0.668014
0.668361
0.669074
0.670095
0.671297
0.672677
0.674251
0.676014
0.677924
0.679766
0.681109
0.68184
0.682131
0.682126
0.681937
0.681642
0.681323
0.681069
0.680878
0.662981
0.663114
0.663419
0.664086
0.665087
0.666309
0.667748
0.669435
0.671386
0.673579
0.675806
0.677561
0.678652
0.679254
0.67951
0.679544
0.67944
0.679276
0.679115
0.678961
0.65788
0.657988
0.658265
0.658912
0.659929
0.661215
0.662757
0.664612
0.66682
0.669384
0.672091
0.674334
0.675845
0.676796
0.677346
0.677616
0.677705
0.677691
0.677612
0.677487
0.652461
0.652547
0.652808
0.65346
0.654529
0.655921
0.657625
0.659718
0.66227
0.665308
0.668608
0.671439
0.673437
0.674786
0.675659
0.6762
0.6765
0.676627
0.676617
0.676514
0.646621
0.646688
0.646942
0.647622
0.648781
0.650326
0.652256
0.654671
0.657666
0.661295
0.66532
0.668863
0.671442
0.673254
0.674493
0.675331
0.675858
0.676133
0.67619
0.676106
0.640242
0.64029
0.640545
0.641276
0.642565
0.64432
0.646544
0.649361
0.652905
0.657271
0.662187
0.666587
0.669864
0.672234
0.673907
0.675083
0.675871
0.676304
0.676428
0.676359
0.633186
0.633214
0.633478
0.63428
0.635736
0.637761
0.640363
0.643693
0.64792
0.653177
0.659176
0.664631
0.668758
0.671794
0.673979
0.675546
0.676636
0.677241
0.677432
0.677376
0.625258
0.625275
0.625538
0.62644
0.62812
0.630493
0.633584
0.637576
0.642681
0.649069
0.656397
0.663101
0.668213
0.672018
0.674804
0.676847
0.67827
0.679064
0.679324
0.679279
0.616173
0.616164
0.61648
0.61752
0.619494
0.622317
0.626027
0.63085
0.637052
0.644839
0.653781
0.661988
0.668278
0.672994
0.676492
0.679095
0.680906
0.68191
0.682243
0.682207
0.605658
0.605626
0.605991
0.607215
0.609548
0.612942
0.617442
0.623315
0.630886
0.6404
0.65132
0.661315
0.669007
0.674815
0.679161
0.682414
0.684679
0.68592
0.686329
0.686299
0.593232
0.593177
0.593614
0.59508
0.597891
0.60203
0.607555
0.614789
0.624092
0.63573
0.64904
0.661203
0.670534
0.677603
0.682947
0.686957
0.689743
0.691244
0.69173
0.691703
0.578286
0.578208
0.578763
0.580567
0.58401
0.589151
0.596046
0.605068
0.616633
0.630985
0.647176
0.661799
0.672998
0.681512
0.687998
0.692877
0.696244
0.698021
0.698581
0.698549
0.559884
0.559788
0.560535
0.562834
0.56716
0.573682
0.582434
0.593819
0.60824
0.625867
0.645494
0.663052
0.676427
0.68661
0.694399
0.700272
0.704291
0.706354
0.706975
0.706932
0.536597
0.536497
0.537574
0.54064
0.546299
0.554847
0.566248
0.580887
0.599087
0.620825
0.644474
0.66527
0.681004
0.693011
0.702249
0.709229
0.713944
0.71628
0.71694
0.716876
0.506107
0.506051
0.507724
0.512125
0.520044
0.53177
0.547094
0.566221
0.589241
0.6159
0.644136
0.668529
0.686837
0.700803
0.711589
0.719767
0.725158
0.727713
0.728371
0.728271
0.464292
0.464434
0.467414
0.474598
0.486728
0.503679
0.524801
0.549979
0.579005
0.611402
0.644728
0.672956
0.693952
0.709949
0.722366
0.731758
0.737727
0.740372
0.740965
0.740819
0.403474
0.404769
0.412036
0.425635
0.445495
0.470768
0.500087
0.532972
0.569094
0.607909
0.646638
0.678781
0.702464
0.720449
0.73439
0.74484
0.751207
0.753731
0.754161
0.753978
0.330397
0.332966
0.347127
0.370627
0.401104
0.436267
0.474507
0.515603
0.559355
0.605308
0.650435
0.687565
0.714888
0.735651
0.75162
0.763287
0.770067
0.772642
0.773109
0.773039
0.25543
0.262268
0.283549
0.316952
0.357777
0.402603
0.449789
0.499196
0.550713
0.603928
0.655612
0.697894
0.728944
0.752614
0.770804
0.78369
0.790682
0.793049
0.7934
0.793414
0.194371
0.203041
0.228971
0.26943
0.318358
0.371392
0.426656
0.483865
0.542792
0.60298
0.660904
0.708038
0.742534
0.768749
0.78881
0.80274
0.80992
0.812265
0.81287
0.812973
0.144315
0.153691
0.18314
0.228859
0.283921
0.343533
0.405612
0.469696
0.535392
0.6021
0.665909
0.717586
0.755299
0.783862
0.805619
0.820666
0.82847
0.831342
0.832073
0.832207
0.102263
0.111954
0.143821
0.193657
0.253753
0.318835
0.386674
0.456733
0.528478
0.601158
0.670446
0.726358
0.767051
0.797805
0.821186
0.837401
0.846042
0.849277
0.850109
0.850235
0.0657682
0.0756152
0.109317
0.16245
0.226737
0.296507
0.369365
0.444705
0.521905
0.600064
0.674463
0.734328
0.777744
0.810457
0.835269
0.85244
0.86175
0.865311
0.866261
0.866394
0.0331787
0.0431062
0.0782708
0.134143
0.201993
0.275817
0.353117
0.433222
0.515424
0.598685
0.677865
0.741444
0.787339
0.82179
0.847811
0.865725
0.875563
0.879469
0.880469
0.880592
0.00328616
0.0132792
0.0496271
0.10789
0.178838
0.256209
0.337463
0.4219
0.508731
0.596805
0.680549
0.747626
0.795856
0.831853
0.858865
0.877282
0.887495
0.891626
0.892664
0.892767
-0.0248056
-0.0147367
0.0227093
0.0830936
0.156768
0.237274
0.322066
0.410458
0.501599
0.59424
0.682403
0.752879
0.803356
0.840773
0.868529
0.887257
0.897628
0.90191
0.903014
0.903103
-0.0516299
-0.0414362
-0.00297976
0.0593106
0.135412
0.218715
0.306698
0.398703
0.493858
0.590854
0.683328
0.757221
0.809952
0.848727
0.877099
0.896054
0.906529
0.91086
0.911965
0.91204
-0.0775643
-0.0671949
-0.0277869
0.0362463
0.114521
0.200332
0.291203
0.386511
0.485406
0.586552
0.683285
0.760683
0.815746
0.855881
0.884837
0.904004
0.914549
0.918861
0.919921
0.919933
-0.10286
-0.0922346
-0.0519179
0.0137146
0.0939474
0.182004
0.275489
0.37382
0.47618
0.581283
0.682255
0.763294
0.820825
0.862369
0.891925
0.911274
0.921827
0.926075
0.927077
0.927073
-0.127575
-0.116679
-0.0754911
-0.00838739
0.0736098
0.163684
0.259522
0.360604
0.466163
0.575016
0.680207
0.765064
0.825258
0.868327
0.898541
0.918066
0.928567
0.932672
0.93357
0.933519
-0.151804
-0.140621
-0.0985854
-0.0300949
0.0534803
0.145356
0.243307
0.346877
0.455372
0.567757
0.677112
0.765958
0.829075
0.873879
0.904844
0.924498
0.934826
0.938701
0.939444
0.939335
-0.175549
-0.164072
-0.12118
-0.0514117
0.0335716
0.12705
0.226891
0.332691
0.443845
0.559515
0.672934
0.765905
0.83226
0.879126
0.910992
0.930691
0.940652
0.944154
0.944713
0.94456
-0.198854
-0.187015
-0.143253
-0.0723168
0.0139187
0.108815
0.21033
0.318114
0.431648
0.550324
0.667637
0.764814
0.834743
0.884136
0.917195
0.936851
0.946153
0.949078
0.949409
0.949221
-0.221477
-0.20939
-0.164774
-0.0927766
-0.00542083
0.0907332
0.193701
0.303227
0.418863
0.540247
0.661198
0.762591
0.836402
0.888887
0.923682
0.943372
0.951614
0.953566
0.953549
0.95334
-0.243573
-0.231136
-0.185703
-0.112753
-0.0244033
0.0728551
0.177105
0.288119
0.405586
0.52937
0.653619
0.75914
0.837075
0.89322
0.930581
0.95084
0.957742
0.957993
0.957202
0.956967
-0.264952
-0.252207
-0.206017
-0.132187
-0.0429392
0.0552728
0.16063
0.272917
0.391927
0.517765
0.644937
0.75437
0.836575
0.896828
0.93771
0.959801
0.96594
0.963779
0.960984
0.960254
-0.285709
-0.272624
-0.225653
-0.151017
-0.0609851
0.0380594
0.144368
0.257708
0.378
0.505572
0.635222
0.748184
0.834712
0.8993
0.944389
0.970062
0.977655
0.974258
0.96778
0.958272
-0.305724
-0.292379
-0.244702
-0.169408
-0.0787679
0.0209191
0.127967
0.242067
0.363332
0.492256
0.623922
0.739959
0.830976
0.900205
0.949714
0.98042
0.992617
0.990106
0.979539
0.976886
-0.324948
-0.31155
-0.263158
-0.187292
-0.0962584
0.00387922
0.111463
0.22598
0.347893
0.477702
0.610871
0.729259
0.824703
0.898751
0.951534
0.985859
1.00109
1.00295
0.969404
0.93008
-0.343143
-0.329993
-0.280967
-0.204536
-0.11343
-0.0130781
0.0948716
0.209582
0.331763
0.461957
0.596016
0.715806
0.814898
0.894244
0.94788
0.976839
0.992183
0.976986
0.925743
0.870288
-0.363047
-0.346426