/*--------------------------------*- C++ -*----------------------------------*\
  =========                 |
  \\      /  F ield         | OpenFOAM: The Open Source CFD Toolbox
   \\    /   O peration     | Website:  https://openfoam.org
    \\  /    A nd           | Version:  6
     \\/     M anipulation  |
\*---------------------------------------------------------------------------*/
FoamFile
{
    version     2.0;
    format      ascii;
    class       surfaceScalarField;
    location    "3.9";
    object      phi;
}
// * * * * * * * * * * * * * * * * * * * * * * * * * * * * * * * * * * * * * //

dimensions      [0 3 -1 0 0 0 0];

internalField   nonuniform List<scalar> 
17370
(
-0.0902507
0.0903229
0.288939
-0.0719497
0.0538187
0.364907
-0.0377367
0.0273332
0.426572
-0.0190636
0.0138368
0.504478
-0.00982672
0.00741418
0.601815
-0.00548246
0.00443022
0.72011
-0.00358947
0.00300225
0.863494
-0.00234577
0.00184893
1.03595
-0.00130316
0.00086249
1.24294
-0.000375401
-5.10525e-05
1.49162
0.000466448
-0.000952904
1.49168
0.0013906
-0.00193113
1.24323
0.00242156
-0.00306855
1.03628
0.00365901
-0.00449223
0.86374
0.0055261
-0.00745473
0.720986
0.00985962
-0.0138643
0.603219
0.0190859
-0.027351
0.507704
0.0377515
-0.0538305
0.432247
0.0719583
-0.090328
0.365145
0.0902545
0.198756
-0.128981
0.0926573
0.0363233
-0.364611
0.353893
-0.0674851
0.0782025
-0.447543
0.454191
-0.077282
0.0706339
-0.521635
0.529833
-0.0629309
0.0547329
-0.612656
0.620712
-0.046978
0.0389219
-0.726744
0.73276
-0.0321985
0.0261826
-0.866934
0.87131
-0.0213983
0.0170223
-1.03791
1.04105
-0.0135407
0.0103945
-1.24437
1.24665
-0.00791124
0.00563192
-1.49258
1.49459
-0.00369419
0.00167713
-1.49238
1.49426
0.000186636
-0.00205699
-1.24384
1.24575
0.00405243
-0.00596556
-1.03711
1.03958
0.00822007
-0.0106854
-0.865459
0.868926
0.0138092
-0.0172767
-0.72401
0.728773
0.021638
-0.0264013
-0.608558
0.615251
0.0323754
-0.0390684
-0.515046
0.522782
0.0470928
-0.0548291
-0.440619
0.448319
0.063019
-0.0707182
-0.375691
0.376597
0.0773559
-0.0782623
-0.257123
0.225936
0.0675264
-0.0363397
-0.0776777
0.0716696
0.00600811
-0.0279988
0.0325167
-0.373064
0.368546
-0.0345556
0.0352035
-0.450255
0.449608
-0.0348562
0.0341292
-0.525814
0.526541
-0.0326619
0.0308899
-0.619315
0.621087
-0.0284238
0.0257235
-0.733193
0.735893
-0.0223661
0.019065
-0.872835
0.876136
-0.0153936
0.012141
-1.04269
1.04595
-0.00875197
0.00580098
-1.24838
1.25133
-0.00262859
-0.000396287
-1.49683
1.49986
0.00340727
-0.00655575
-1.49723
1.50038
0.00946997
-0.0128077
-1.24954
1.25288
0.0160208
-0.0196565
-1.04466
1.04829
0.0229096
-0.0262043
-0.875739
0.879033
0.028844
-0.0312548
-0.737361
0.739772
0.032984
-0.0344116
-0.624382
0.62581
0.0350973
-0.035388
-0.532256
0.532547
0.0347009
-0.0326268
-0.454104
0.45203
0.0280817
-0.0177896
-0.341448
0.331156
0.00602574
-0.0776322
0.0716065
-0.0696419
0.0696777
-3.57853e-05
-0.00839823
0.014457
-0.362519
0.35646
-0.0204438
0.0249348
-0.447164
0.442673
-0.0280581
0.0293159
-0.526481
0.525224
-0.0293026
0.0284408
-0.622082
0.622944
-0.0268162
0.0249021
-0.737997
0.739911
-0.0223911
0.0198251
-0.878825
0.881391
-0.0167232
0.0137068
-1.04903
1.05204
-0.0102322
0.00688624
-1.2547
1.25804
-0.00299053
-0.000810741
-1.50359
1.50739
0.0045959
-0.00843929
-1.50421
1.50805
0.0117143
-0.0150909
-1.25641
1.25979
0.0179509
-0.0209203
-1.05141
1.05438
0.0233804
-0.0257884
-0.881632
0.88404
0.0276202
-0.0291599
-0.741486
0.743025
0.0299435
-0.0298662
-0.62628
0.626202
0.0285288
-0.0253227
-0.531686
0.52848
0.0207529
-0.0146869
-0.447634
0.441568
0.008551
-0.00264767
-0.322513
0.31661
-1.42933e-05
-0.0695516
0.0695659
-0.0700353
0.0699788
5.65517e-05
-0.00253742
0.00523166
-0.352203
0.349509
-0.00863693
0.0116102
-0.438566
0.435593
-0.014461
0.0165565
-0.522926
0.52083
-0.0181444
0.0189604
-0.622634
0.621818
-0.0192167
0.0188584
-0.741214
0.741573
-0.0178402
0.0163931
-0.883629
0.885076
-0.0143147
0.0120103
-1.0548
1.05711
-0.0090749
0.00608765
-1.26124
1.26422
-0.00250353
-0.00106032
-1.51108
1.51465
0.00460075
-0.0081063
-1.51174
1.51525
0.0109902
-0.0137973
-1.26292
1.26572
0.0159995
-0.0179332
-1.05701
1.05894
0.0192357
-0.0200943
-0.885909
0.886768
0.0203069
-0.019894
-0.743554
0.743141
0.0189426
-0.0172117
-0.624614
0.622883
0.0149987
-0.0120312
-0.524722
0.521754
0.00896071
-0.00545935
-0.436463
0.432962
0.00268666
-0.000729318
-0.313372
0.311415
8.09015e-05
-0.0699034
0.0698225
-0.0697959
0.0697221
7.37577e-05
-0.00127807
0.00250949
-0.347693
0.346461
-0.00417039
0.00576268
-0.433426
0.431834
-0.00743732
0.00882515
-0.51912
0.517732
-0.0100987
0.0109803
-0.620914
0.620032
-0.0115607
0.0117217
-0.741596
0.741435
-0.0114545
0.0108129
-0.886011
0.886652
-0.00965463
0.00821337
-1.05893
1.06037
-0.00622741
0.004077
-1.26677
1.26892
-0.00138139
-0.00132179
-1.51787
1.52057
0.0039919
-0.00657962
-1.51835
1.52094
0.00859899
-0.0104164
-1.268
1.26982
0.0116889
-0.0126542
-1.06029
1.06126
0.0131145
-0.0131821
-0.887133
0.887201
0.0128448
-0.0120813
-0.742498
0.741735
0.0110446
-0.00961574
-0.621296
0.619868
0.00809598
-0.00628889
-0.519476
0.517669
0.00458448
-0.00280745
-0.430498
0.428721
0.00147672
-0.000519897
-0.310034
0.309077
0.000107874
-0.0696096
0.0695018
-0.0696929
0.0696567
3.62088e-05
-0.000595913
0.00114671
-0.345646
0.345095
-0.0019026
0.00265756
-0.430725
0.42997
-0.00349798
0.00423738
-0.516691
0.515952
-0.00497955
0.00555421
-0.619284
0.61871
-0.00602334
0.00626493
-0.741191
0.740949
-0.00628346
0.00604136
-0.887052
0.887295
-0.00546551
0.00464704
-1.06146
1.06228
-0.0034251
0.00202967
-1.27068
1.27207
-0.000231015
-0.00159152
-1.52279
1.52461
0.00335612
-0.00502157
-1.52302
1.52469
0.00626088
-0.00727978
-1.27121
1.27223
0.00789519
-0.00824014
-1.06187
1.06222
0.00827116
-0.00802395
-0.887061
0.886814
0.00757886
-0.00689554
-0.740972
0.740289
0.00613482
-0.0052008
-0.618682
0.617748
0.00429728
-0.00329
-0.516304
0.515297
0.0023951
-0.00149882
-0.427469
0.426572
0.000830279
-0.00032145
-0.308405
0.307896
7.58566e-05
-0.0694368
0.0693609
-0.0696299
0.0696197
1.02367e-05
-0.000264675
0.00052323
-0.344714
0.344456
-0.000879062
0.00123794
-0.429448
0.42909
-0.0016441
0.0020102
-0.515429
0.515063
-0.00238768
0.00269072
-0.618286
0.617983
-0.00294952
0.00309306
-0.740751
0.740608
-0.00311639
0.00298861
-0.887457
0.887584
-0.00265624
0.00216132
-1.06291
1.0634
-0.00139654
0.00050285
-1.27318
1.27407
0.000678666
-0.00190104
-1.52611
1.52733
0.00308329
-0.00412953
-1.52602
1.52706
0.00483718
-0.00535168
-1.27295
1.27347
0.00559744
-0.0056472
-1.06238
1.06243
0.00551503
-0.00521145
-0.886524
0.886221
0.00482038
-0.00430279
-0.739696
0.739178
0.00377632
-0.00316962
-0.617005
0.616398
0.00260879
-0.0020049
-0.51453
0.513926
0.00147939
-0.000954913
-0.425899
0.425375
0.000553383
-0.000230003
-0.307494
0.307171
5.96293e-05
-0.0692899
0.0692302
-0.0696212
0.0696317
-1.05448e-05
-4.94453e-05
0.000148261
-0.344288
0.344189
-0.000292742
0.000440751
-0.428851
0.428703
-0.000608778
0.000759467
-0.514818
0.514667
-0.000912421
0.00103021
-0.61778
0.617662
-0.00112046
0.00115161
-0.740521
0.74049
-0.00110965
0.000983505
-0.887703
0.88783
-0.00072871
0.000376233
-1.06381
1.06416
0.000151588
-0.000759047
-1.27481
1.27541
0.00154785
-0.00234118
-1.52832
1.52911
0.00307778
-0.00369341
-1.52787
1.52849
0.00406751
-0.00429047
-1.27382
1.27404
0.00434302
-0.00425111
-1.0624
1.06231
0.00405779
-0.00375535
-0.885915
0.885613
0.00342033
-0.0030127
-0.738722
0.738315
0.00262148
-0.00218839
-0.615892
0.615459
0.00180006
-0.00139107
-0.513437
0.513028
0.0010399
-0.000689048
-0.424954
0.424603
0.000414461
-0.000182566
-0.306902
0.30667
5.10847e-05
-0.0691768
0.0691257
-0.0696516
0.0696795
-2.7821e-05
8.44289e-05
-8.70868e-05
-0.344147
0.34415
7.26465e-05
-5.49628e-05
-0.428626
0.428608
3.7421e-05
-2.72852e-05
-0.514592
0.514582
2.75709e-05
-4.40414e-05
-0.617616
0.617633
8.77313e-05
-0.000159835
-0.740512
0.740584
0.000285131
-0.000452229
-0.887973
0.88814
0.000704408
-0.00100503
-1.06448
1.06478
0.00141581
-0.00185945
-1.27593
1.27637
0.00240437
-0.00292056
-1.52975
1.53027
0.00336526
-0.00369962
-1.52895
1.52928
0.00386685
-0.00389207
-1.27415
1.27418
0.00380892
-0.00362594
-1.06217
1.06199
0.00339374
-0.00308896
-0.885312
0.885007
0.00278186
-0.00242969
-0.737941
0.737589
0.00210499
-0.00175548
-0.615076
0.614727
0.00144819
-0.00112891
-0.512674
0.512354
0.000856604
-0.000583435
-0.424299
0.424026
0.000364352
-0.000169851
-0.306462
0.306267
5.09512e-05
-0.0690753
0.0690244
-0.0697146
0.0697572
-4.26208e-05
0.000206652
-0.000277678
-0.344184
0.344255
0.000354054
-0.000428485
-0.428641
0.428716
0.00051875
-0.00061164
-0.514627
0.51472
0.000727556
-0.000849433
-0.617705
0.617827
0.00100443
-0.00116981
-0.740703
0.740869
0.00138219
-0.00160896
-0.888335
0.888562
0.00189752
-0.0021985
-1.06508
1.06538
0.00256683
-0.00292822
-1.27676
1.27713
0.00333143
-0.00367194
-1.53069
1.53103
0.0039205
-0.00404718
-1.52951
1.52963
0.00404345
-0.00395832
-1.27415
1.27407
0.00378013
-0.00352266
-1.06177
1.06151
0.00324701
-0.00291858
-0.884693
0.884365
0.00260707
-0.00226408
-0.737247
0.736904
0.00195675
-0.00163261
-0.614396
0.614072
0.00135165
-0.0010625
-0.512056
0.511767
0.00081695
-0.000569448
-0.423771
0.423523
0.000366424
-0.000178161
-0.306079
0.305891
5.60184e-05
-0.0689715
0.0689155
-0.0698086
0.069869
-6.04598e-05
0.000322136
-0.000459772
-0.344362
0.344499
0.000614297
-0.000765502
-0.428829
0.42898
0.000946005
-0.00112616
-0.514857
0.515037
0.00134204
-0.00155764
-0.617996
0.618211
0.00181552
-0.00207222
-0.741079
0.741336
0.00237761
-0.00267838
-0.888824
0.889125
0.00303001
-0.00336654
-1.06569
1.06603
0.0037428
-0.00407773
-1.27747
1.2778
0.0044097
-0.004645
-1.53131
1.53154
0.00476472
-0.00475371
-1.52968
1.52967
0.00463486
-0.00440665
-1.27391
1.27368
0.00414438
-0.00380879
-1.06121
1.06088
0.00347687
-0.00310015
-0.884016
0.883639
0.00275503
-0.00238438
-0.736551
0.73618
0.00205828
-0.00171884
-0.613744
0.613405
0.00142738
-0.00112932
-0.511477
0.511179
0.000876882
-0.000621413
-0.423275
0.42302
0.000408145
-0.000203965
-0.305697
0.305493
6.6005e-05
-0.0688551
0.0687891
-0.0699388
0.0700188
-8.00009e-05
0.000443096
-0.000644484
-0.344668
0.34487
0.000876605
-0.00110466
-0.429169
0.429397
0.00137557
-0.00164361
-0.515261
0.515529
0.0019611
-0.00227346
-0.618474
0.618787
0.00264009
-0.00299646
-0.741641
0.741997
0.00340843
-0.00380045
-0.889469
0.889861
0.00424049
-0.00464177
-1.0664
1.0668
0.00506477
-0.00541408
-1.27814
1.27849
0.00572372
-0.00589916
-1.53174
1.53192
0.00592829
-0.00580281
-1.5296
1.52948
0.00557743
-0.00523837
-1.27339
1.27306
0.00487452
-0.0044405
-1.0605
1.06006
0.00402835
-0.00357388
-0.883227
0.882772
0.003166
-0.00273444
-0.735783
0.735352
0.00235889
-0.00197107
-0.613045
0.612657
0.00163994
-0.00130261
-0.510865
0.510528
0.00101735
-0.000727899
-0.42275
0.422461
0.000483621
-0.000245274
-0.305274
0.305036
8.05542e-05
-0.0687164
0.0686358
-0.0701103
0.0702148
-0.000104446
0.000587548
-0.000860782
-0.345106
0.345379
0.00117826
-0.00149061
-0.429666
0.429978
0.00186117
-0.00222671
-0.515844
0.516209
0.00265784
-0.00307953
-0.619151
0.619573
0.00357068
-0.00404346
-0.742409
0.742882
0.00458317
-0.00508872
-0.890306
0.890812
0.00564494
-0.0061394
-1.06724
1.06774
0.00664314
-0.00703926
-1.27886
1.27925
0.00736159
-0.00750545
-1.53208
1.53222
0.00746317
-0.0072317
-1.5293
1.52907
0.00689581
-0.0064326
-1.27266
1.27219
0.00595508
-0.00539976
-1.05957
1.05902
0.00488242
-0.0043199
-0.882268
0.881706
0.00382025
-0.0032958
-0.734878
0.734353
0.00284207
-0.00237562
-0.612234
0.611768
0.0019786
-0.00157506
-0.510161
0.509757
0.00123411
-0.000887622
-0.422146
0.421799
0.00059338
-0.000303256
-0.304774
0.304483
0.000100334
-0.068546
0.0684457
-0.0703338
0.0704693
-0.000135522
0.000766772
-0.00112651
-0.345693
0.346053
0.00154575
-0.00195836
-0.430338
0.430751
0.00244746
-0.00292921
-0.51663
0.517112
0.00349626
-0.00404939
-0.620057
0.62061
0.0046913
-0.00530627
-0.743422
0.744037
0.00600401
-0.00665242
-0.891385
0.892033
0.00735843
-0.00797746
-1.06829
1.06891
0.008596
-0.00906821
-1.27969
1.28016
0.00943079
-0.00956097
-1.53236
1.53249
0.00945438
-0.00911215
-1.52878
1.52844
0.00865243
-0.00804088
-1.27166
1.27105
0.00742307
-0.00671405
-1.05839
1.05768
0.00605997
-0.00535393
-0.881076
0.88037
0.00473029
-0.00407832
-0.73377
0.733118
0.00351601
-0.00293921
-0.61125
0.610673
0.00244911
-0.00195155
-0.50931
0.508813
0.0015314
-0.00110414
-0.421415
0.420988
0.000740199
-0.000379567
-0.304161
0.3038
0.000125955
-0.0683334
0.0682074
-0.0706236
0.0707992
-0.000175647
0.000994686
-0.00146246
-0.346463
0.346931
0.00200812
-0.00254513
-0.431222
0.431759
0.00318139
-0.0038075
-0.517662
0.518288
0.00454355
-0.00526035
-0.62124
0.621957
0.00609044
-0.00688348
-0.744736
0.745529
0.00778002
-0.00860928
-0.892766
0.893596
0.00950668
-0.0102871
-1.0696
1.07038
0.0110576
-0.0116349
-1.28068
1.28126
0.0120611
-0.0121877
-1.53261
1.53274
0.0120131
-0.0115427
-1.52804
1.52757
0.0109341
-0.0101391
-1.27035
1.26956
0.00934491
-0.00844014
-1.05688
1.05597
0.00761006
-0.00671756
-0.879577
0.878684
0.00593166
-0.00511199
-0.732388
0.731568
0.0044063
-0.0036834
-0.610028
0.609306
0.00306973
-0.00244707
-0.508257
0.507634
0.00192141
-0.00138663
-0.420511
0.419976
0.000930539
-0.000477671
-0.303396
0.302943
0.000158611
-0.0680662
0.0679075
-0.0709993
0.0712274
-0.000228131
0.00128927
-0.00189492
-0.347464
0.348069
0.00260138
-0.00329655
-0.43237
0.433065
0.00411965
-0.00492901
-0.519
0.519809
0.00587958
-0.00680411
-0.622772
0.623696
0.00787294
-0.00889192
-0.746428
0.747447
0.0100408
-0.0110997
-0.894533
0.895592
0.0122404
-0.0132264
-1.07126
1.07225
0.0141915
-0.0149045
-1.2819
1.28261
0.015415
-0.0155414
-1.53287
1.53299
0.015285
-0.014656
-1.52702
1.52639
0.0138612
-0.0128349
-1.26865
1.26763
0.0118168
-0.0106627
-1.05495
1.0538
0.00960737
-0.00847572
-0.87768
0.876548
0.00748104
-0.00644514
-0.730647
0.729611
0.00555424
-0.00464236
-0.608494
0.607582
0.00386876
-0.00308421
-0.506936
0.506151
0.00242205
-0.00174836
-0.419376
0.418702
0.0011735
-0.00060235
-0.302435
0.301864
0.000199894
-0.0677295
0.0675296
-0.0714878
0.0717854
-0.000297563
0.00167465
-0.00245872
-0.348758
0.349542
0.00337266
-0.00427177
-0.433856
0.434755
0.00533543
-0.00638053
-0.520729
0.521774
0.0076066
-0.00879747
-0.624745
0.625936
0.0101719
-0.0114794
-0.748601
0.749909
0.0129496
-0.0143001
-0.896788
0.898138
0.0157487
-0.0169935
-1.07335
1.0746
0.018202
-0.0190832
-1.2834
1.28428
0.0196959
-0.0198177
-1.53312
1.53324
0.0194542
-0.0186216
-1.52567
1.52484
0.0175892
-0.0162684
-1.26646
1.26514
0.0149656
-0.0134941
-1.05249
1.05102
0.0121522
-0.010716
-0.875273
0.873837
0.00945535
-0.00814384
-0.728445
0.727134
0.00701677
-0.00586378
-0.606557
0.605404
0.00488602
-0.00389465
-0.505269
0.504278
0.00305807
-0.00220697
-0.417945
0.417094
0.00148077
-0.000759475
-0.301222
0.300501
0.000251699
-0.0673052
0.0670535
-0.0721261
0.0725167
-0.000390643
0.00218491
-0.00320238
-0.350435
0.351452
0.00438695
-0.00555173
-0.435778
0.436943
0.00692823
-0.00827926
-0.522962
0.524313
0.00986206
-0.0113968
-0.627288
0.628823
0.0131644
-0.0148416
-0.75139
0.753067
0.0167213
-0.0184411
-0.899663
0.901383
0.0202763
-0.0218429
-1.076
1.07756
0.0233497
-0.024432
-1.28526
1.28634
0.0251592
-0.0252612
-1.53336
1.53346
0.0247505
-0.0236516
-1.52388
1.52278
0.0223136
-0.020617
-1.26364
1.26195
0.0189522
-0.0170783
-1.04936
1.04749
0.0153734
-0.0135514
-0.872219
0.870397
0.0119541
-0.0102935
-0.725658
0.723998
0.00886725
-0.00740879
-0.604107
0.602649
0.00617235
-0.00491896
-0.503163
0.50191
0.00386138
-0.00278553
-0.416137
0.415061
0.00186775
-0.000956814
-0.29969
0.298779
0.000316522
-0.0667712
0.0664546
-0.0729663
0.0734839
-0.000517676
0.00287096
-0.00419783
-0.352613
0.35394
0.00573974
-0.00725463
-0.43827
0.439785
0.009042
-0.0107935
-0.52585
0.527602
0.0128415
-0.0148227
-0.630566
0.632547
0.017098
-0.0192494
-0.754967
0.757118
0.0216502
-0.0238352
-0.903322
0.905507
0.0261511
-0.0281111
-1.07932
1.08128
0.0299736
-0.0312859
-1.28754
1.28885
0.032128
-0.0321782
-1.53354
1.53359
0.0314599
-0.0300093
-1.52152
1.52007
0.0282774
-0.0261021
-1.26002
1.25785
0.0239792
-0.0215976
-1.04538
1.04299
0.0194352
-0.0171275
-0.868346
0.866038
0.0151059
-0.0130055
-0.72213
0.720029
0.0112021
-0.00935832
-0.601009
0.599165
0.00779537
-0.00621099
-0.500501
0.498916
0.0048741
-0.00351412
-0.413852
0.412492
0.00235433
-0.00120431
-0.297756
0.296606
0.000397545
-0.0660999
0.0657024
-0.0740846
0.0747795
-0.000694941
0.00381205
-0.00555685
-0.355457
0.357201
0.00757856
-0.00956139
-0.441514
0.443497
0.0118942
-0.0141743
-0.5296
0.53188
0.0168324
-0.0193955
-0.634802
0.637365
0.0223271
-0.0250859
-0.759555
0.762314
0.028146
-0.0309103
-0.907966
0.910731
0.033813
-0.0362406
-1.08346
1.08589
0.0385094
-0.0400659
-1.29028
1.29184
0.0409993
-0.0409383
-1.53359
1.53353
0.0399238
-0.0380084
-1.5184
1.51648
0.0357712
-0.0329909
-1.25539
1.25261
0.0302931
-0.0272764
-1.04031
1.03729
0.0245425
-0.0216275
-0.863443
0.860528
0.0190751
-0.0164236
-0.717668
0.715016
0.0141468
-0.0118188
-0.597092
0.594764
0.00984474
-0.00784302
-0.497135
0.495134
0.00615331
-0.0044339
-0.410964
0.409244
0.00296784
-0.00151573
-0.295314
0.293862
0.000499215
-0.0652568
0.0647576
-0.0755966
0.0765501
-0.000953497
0.00515004
-0.00747896
-0.359196
0.361525
0.0101616
-0.0127798
-0.445765
0.448383
0.0158418
-0.0188218
-0.534492
0.537472
0.0222807
-0.0256018
-0.64029
0.643611
0.0293799
-0.0329112
-0.76544
0.768971
0.0367943
-0.0402648
-0.913832
0.917302
0.0438598
-0.0468157
-1.08857
1.09153
0.0495137
-0.0512942
-1.29352
1.2953
0.0522509
-0.0519767
-1.53338
1.53311
0.0505397
-0.0480133
-1.51428
1.51176
0.0451358
-0.0416018
-1.24947
1.24594
0.0381938
-0.0343944
-1.03391
1.03011
0.0309557
-0.0272901
-0.857256
0.85359
0.0240799
-0.0207431
-0.712038
0.708701
0.0178763
-0.0149422
-0.592148
0.589214
0.0124518
-0.00992337
-0.492885
0.490357
0.00778592
-0.00560819
-0.407314
0.405137
0.00375062
-0.00191274
-0.292231
0.290393
0.000628948
-0.0641976
0.0635686
-0.0776841
0.0790534
-0.00136924
0.00719626
-0.0103844
-0.364161
0.367349
0.0139982
-0.0174767
-0.451392
0.454871
0.0215012
-0.0253968
-0.540927
0.544823
0.0298968
-0.034198
-0.64743
0.651731
0.0390578
-0.0435565
-0.77297
0.777468
0.0484391
-0.0527334
-0.921167
0.925462
0.0570938
-0.0605921
-1.09475
1.09825
0.0636765
-0.0655946
-1.29716
1.29908
0.0664333
-0.0657829
-1.53267
1.53202
0.0637488
-0.0604309
-1.50886
1.50554
0.0567571
-0.052306
-1.24197
1.23751
0.0480422
-0.043302
-1.02585
1.02111
0.0390147
-0.0344412
-0.849484
0.844911
0.0304309
-0.0262554
-0.704954
0.700778
0.0226619
-0.0189772
-0.585912
0.582227
0.0158422
-0.0126493
-0.487516
0.484323
0.00993857
-0.00716465
-0.402702
0.399928
0.004791
-0.00244227
-0.288335
0.285986
0.000804332
-0.062863
0.0620587
-0.0806479
0.0827935
-0.00214559
0.0106985
-0.0151663
-0.37087
0.375337
0.0200453
-0.0246255
-0.458981
0.463562
0.0298632
-0.0349323
-0.549497
0.554566
0.0407792
-0.0463407
-0.656741
0.662302
0.0525634
-0.0582341
-0.782528
0.788199
0.0642613
-0.0694343
-0.930161
0.935334
0.0745363
-0.0784854
-1.10197
1.10592
0.0817926
-0.0836541
-1.30098
1.30284
0.08413
-0.0828623
-1.53109
1.52982
0.0800033
-0.0756831
-1.50175
1.49743
0.0710468
-0.0655178
-1.23254
1.22701
0.0602625
-0.0544369
-1.01584
1.01001
0.0491698
-0.0435424
-0.839802
0.834174
0.0385962
-0.0334305
-0.696075
0.690909
0.0289711
-0.024384
-0.578048
0.573461
0.0204645
-0.0164481
-0.480718
0.476701
0.0130049
-0.00943753
-0.396856
0.393289
0.00633948
-0.00324538
-0.283397
0.280303
0.00108026
-0.0611712
0.0600909
-0.0850669
0.0888319
-0.00376498
0.0172779
-0.0235054
-0.380297
0.386524
0.0299018
-0.0358284
-0.469502
0.475429
0.0426292
-0.0492475
-0.561012
0.56763
0.0568788
-0.06404
-0.668784
0.675945
0.071876
-0.0788166
-0.794383
0.801323
0.0859522
-0.0918619
-0.940766
0.946676
0.0974585
-0.101569
-1.10989
1.11401
0.104738
-0.106195
-1.30449
1.30594
0.105925
-0.103707
-1.52808
1.52586
0.0997429
-0.0941902
-1.49249
1.48694
0.0884332
-0.0816956
-1.22087
1.21413
0.0753545
-0.0683551
-1.00358
0.996583
0.0620325
-0.0552684
-0.82791
0.821146
0.0493068
-0.0430556
-0.68505
0.678799
0.0376355
-0.0320377
-0.568142
0.562544
0.0272237
-0.0222359
-0.472048
0.467061
0.0178878
-0.0132531
-0.389368
0.384734
0.00904173
-0.00470045
-0.277088
0.272747
0.00159278
-0.0589951
0.0574023
-0.0923265
0.0998249
-0.00749839
0.0312694
-0.0399479
-0.394365
0.403044
0.0480762
-0.0556212
-0.484354
0.491899
0.0645168
-0.073127
-0.576228
0.584839
0.0828067
-0.0915449
-0.683828
0.692567
0.100697
-0.108443
-0.808356
0.816103
0.116066
-0.122083
-0.952419
0.958436
0.127466
-0.131096
-1.11774
1.12137
0.133458
-0.133927
-1.30682
1.30729
0.13235
-0.12873
-1.52288
1.51926
0.123319
-0.116296
-1.4806
1.47358
0.109281
-0.10126
-1.2067
1.19868
0.0938085
-0.0856501
-0.988932
0.980773
0.0783032
-0.0704471
-0.813671
0.805814
0.0635117
-0.0562188
-0.671666
0.664373
0.0498709
-0.0432779
-0.555841
0.549248
0.0375627
-0.0315942
-0.46097
0.455001
0.0262661
-0.0201499
-0.379569
0.373453
0.0140327
-0.00727145
-0.268664
0.261903
0.00238068
-0.0560615
0.0536808
-0.107762
0.110205
-0.00244298
0.0182653
-0.0264234
-0.415638
0.423796
0.0349845
-0.0434145
-0.504242
0.512672
0.0535187
-0.0637895
-0.594868
0.605138
0.0748809
-0.0846979
-0.70105
0.710867
0.0955485
-0.105096
-0.82319
0.832737
0.114964
-0.123388
-0.963645
0.972068
0.131721
-0.138354
-1.12405
1.13068
0.144227
-0.148053
-1.3067
1.31053
0.15008
-0.149486
-1.51454
1.51394
0.146154
-0.140462
-1.4656
1.45991
0.133748
-0.125161
-1.18992
1.18133
0.116718
-0.106508
-0.971971
0.961762
0.0970208
-0.0864283
-0.797288
0.786695
0.0768018
-0.0664105
-0.656159
0.645768
0.0569158
-0.0470989
-0.541321
0.531504
0.0387722
-0.0298111
-0.447395
0.438434
0.0219375
-0.013517
-0.36664
0.358219
0.00656341
-0.00139094
-0.2558
0.250628
-0.000674084
-0.0512486
0.0519226
-0.117528
0.111947
0.00558149
-0.00455355
-0.000383042
-0.436483
0.44142
0.00826773
-0.0160744
-0.524038
0.531845
0.025581
-0.0343614
-0.615335
0.624116
0.0441926
-0.0531102
-0.72066
0.729578
0.0625808
-0.0711218
-0.84184
0.850381
0.0799604
-0.0872362
-0.980224
0.987499
0.0946247
-0.100219
-1.13723
1.14283
0.105137
-0.108105
-1.31426
1.31723
0.109103
-0.107857
-1.51286
1.51162
0.10412
-0.0983227
-1.45383
1.44803
0.0915981
-0.0833409
-1.17274
1.16449
0.075445
-0.0664304
-0.951831
0.942816
0.0580064
-0.0486383
-0.776192
0.766824
0.0402426
-0.0315726
-0.634821
0.626151
0.0241591
-0.016547
-0.520499
0.512887
0.0101853
-0.00410006
-0.427152
0.421067
-0.000681099
0.00460787
-0.347425
0.343499
-0.00633071
0.00573337
-0.242053
0.24265
-0.00309725
-0.0492779
0.0523752
-0.113839
0.109511
0.00432803
-0.00814146
0.0056164
-0.451481
0.454007
-0.000550739
-0.00533473
-0.541139
0.547024
0.0125669
-0.0196701
-0.632791
0.639894
0.0277016
-0.0350616
-0.737877
0.745237
0.0431144
-0.0502665
-0.858151
0.865303
0.0574831
-0.0637685
-0.994526
1.00081
0.0699929
-0.0748021
-1.14803
1.15284
0.0786577
-0.0807737
-1.31969
1.32181
0.0813915
-0.0798663
-1.51002
1.50849
0.0761791
-0.0708191
-1.44214
1.43678
0.0648682
-0.0579527
-1.15674
1.14983
0.0511785
-0.0438665
-0.934271
0.926959
0.0372228
-0.0300365
-0.758604
0.751417
0.0239566
-0.017742
-0.618167
0.611953
0.0126859
-0.00751633
-0.505123
0.499954
0.0035981
-0.000150343
-0.413543
0.410096
-0.00234433
0.00419094
-0.336403
0.334556
-0.00468479
0.00348879
-0.236529
0.237725
-0.00185651
-0.0506472
0.0525038
-0.110946
0.107701
0.0032449
-0.00750594
0.00635046
-0.461869
0.463024
-0.00286904
-0.00176229
-0.553862
0.558493
0.00765747
-0.0131988
-0.646499
0.652041
0.0196209
-0.0255541
-0.752125
0.758058
0.0320558
-0.0378682
-0.871849
0.877661
0.0441064
-0.0491963
-1.00658
1.01167
0.0544456
-0.0580756
-1.15722
1.16085
0.061243
-0.0628914
-1.32378
1.32543
0.0630797
-0.0612722
-1.50681
1.505
0.0579913
-0.0533931
-1.4314
1.4268
0.0483595
-0.0423449
-1.14331
1.13729
0.0368584
-0.0310681
-0.920086
0.914296
0.0257495
-0.0203687
-0.744994
0.739613
0.0155231
-0.0108022
-0.605957
0.601236
0.00691945
-0.00322824
-0.494594
0.490903
0.000486606
0.0019715
-0.404693
0.402234
-0.00371483
0.00451942
-0.329167
0.328363
-0.0046477
0.00331691
-0.232522
0.233853
-0.00168391
-0.0506744
0.0523583
-0.109874
0.107529
0.00234546
-0.00586658
0.00542564
-0.469494
0.469934
-0.00241718
-0.0012069
-0.563994
0.567618
0.00575353
-0.0105013
-0.657432
0.66218
0.0156595
-0.0206854
-0.763493
0.768519
0.0260823
-0.030925
-0.882983
0.887825
0.0360587
-0.04041
-1.01653
1.02088
0.044652
-0.0478547
-1.16427
1.16748
0.0503847
-0.05159
-1.32675
1.32795
0.051476
-0.0496134
-1.50318
1.50131
0.0465491
-0.0422653
-1.42193
1.41764
0.0378789
-0.0328732
-1.13169
1.12668
0.028297
-0.0234013
-0.908733
0.903838
0.0191293
-0.0147277
-0.734466
0.730064
0.0109678
-0.00720055
-0.596705
0.592938
0.00418752
-0.00134928
-0.486741
0.483902
-0.000902692
0.00277555
-0.398176
0.396303
-0.00380823
0.00443787
-0.324094
0.323464
-0.00445492
0.00296218
-0.229473
0.230966
-0.00150667
-0.0507654
0.052272
-0.109871
0.107858
0.00201204
-0.00472756
0.0040744
-0.475627
0.47628
-0.00177143
-0.00149001
-0.571768
0.57503
0.00577153
-0.00973253
-0.666411
0.670372
0.0140884
-0.0183687
-0.772961
0.777241
0.0230601
-0.0272874
-0.892324
0.896551
0.0318718
-0.0355488
-1.0249
1.02857
0.0392106
-0.0419308
-1.17032
1.17304
0.0439373
-0.0447261
-1.32884
1.32963
0.0442462
-0.0425539
-1.49937
1.49767
0.0394782
-0.0355872
-1.41314
1.40925
0.0315679
-0.027071
-1.12179
1.11729
0.0232577
-0.0189171
-0.899153
0.894812
0.0152232
-0.0115983
-0.725877
0.722252
0.00845846
-0.00533087
-0.589409
0.586281
0.00280791
-0.000275646
-0.480641
0.478109
-0.00140612
0.0028897
-0.393052
0.391569
-0.00391565
0.00431801
-0.319865
0.319462
-0.00410975
0.00279837
-0.227143
0.228454
-0.00137364
-0.05085
0.0522236
-0.110228
0.108639
0.00158964
-0.00350422
0.00279857
-0.481186
0.481892
-0.000369885
-0.00239629
-0.578887
0.581653
0.00633901
-0.00995719
-0.674197
0.677816
0.0141697
-0.0178815
-0.781334
0.785045
0.0220164
-0.025743
-0.900765
0.904492
0.0300684
-0.0333361
-1.03222
1.03549
0.03643
-0.0388471
-1.17547
1.17789
0.0408032
-0.0412371
-1.33029
1.33072
0.040511
-0.0384864
-1.49548
1.49345
0.0355632
-0.0314605
-1.40515
1.40105
0.0277603
-0.0236999
-1.11279
1.10873
0.0200961
-0.016366
-0.890709
0.886979
0.0130655
-0.00971456
-0.71858
0.715229
0.00719345
-0.00439913
-0.583186
0.580391
0.00209107
-3.62006e-05
-0.475382
0.473328
-0.00155121
0.0030025
-0.388944
0.387493
-0.00379985
0.00410305
-0.316566
0.316262
-0.00381792
0.00261393
-0.225241
0.226445
-0.00130112
-0.0509703
0.0522715
-0.111025
0.109725
0.0012999
-0.00243737
0.00167535
-0.486348
0.48711
0.000949025
-0.00376707
-0.585376
0.588194
0.00747419
-0.0108158
-0.681373
0.684715
0.0145474
-0.0182512
-0.78889
0.792594
0.0221642
-0.0261059
-0.908086
0.912028
0.0298075
-0.032905
-1.0388
1.0419
0.0360565
-0.0381181
-1.18008
1.18214
0.039395
-0.0398939
-1.33084
1.33134
0.038872
-0.0366094
-1.49121
1.48895
0.0333346
-0.0293121
-1.39697
1.39294
0.0255964
-0.0216205
-1.10439
1.10041
0.0182505
-0.0147397
-0.883233
0.879722
0.0117178
-0.00882587
-0.712061
0.709169
0.00628766
-0.00386239
-0.577617
0.575192
0.00191158
8.44601e-05
-0.471001
0.469005
-0.00160648
0.00270517
-0.385187
0.384089
-0.00348269
0.0038437
-0.313695
0.313334
-0.00361769
0.00246762
-0.223712
0.224862
-0.0012481
-0.0512334
0.0524815
-0.112253
0.111104
0.00114948
-0.00121913
0.000142721
-0.491425
0.492501
0.00242026
-0.00531444
-0.591653
0.594547
0.00882233
-0.0122119
-0.68831
0.691699
0.0159746
-0.0194764
-0.796279
0.799781
0.0236548
-0.0269856
-0.915505
0.918835
0.0307498
-0.0337074
-1.0451
1.04806
0.0367119
-0.0388209
-1.18405
1.18615
0.0400889
-0.0399979
-1.33133
1.33124
0.0386944
-0.036094
-1.48621
1.48361
0.0326702
-0.0282338
-1.3885
1.38407
0.024394
-0.0203414
-1.09641
1.09236
0.0170496
-0.0136141
-0.87606
0.872624
0.0108465
-0.00805222
-0.706186
0.703392
0.00572546
-0.00345721
-0.572731
0.570462
0.0015716
5.19627e-05
-0.466901
0.465277
-0.00151258
0.00255714
-0.381876
0.380831
-0.00337325
0.00366948
-0.311096
0.310799
-0.00339777
0.00243517
-0.22239
0.223353
-0.00116394
-0.051594
0.0527579
-0.113625
0.112828
0.000796684
-0.000201827
-0.00141553
-0.496706
0.498324
0.0038872
-0.00688033
-0.597529
0.600522
0.0102134
-0.0136627
-0.69511
0.69856
0.0174782
-0.0212882
-0.803322
0.807132
0.0250963
-0.0287232
-0.922425
0.926052
0.0325725
-0.0354025
-1.05141
1.05424
0.0384782
-0.0404357
-1.18794
1.1899
0.0414812
-0.0414507
-1.33121
1.33118
0.039881
-0.0366742
-1.48051
1.4773
0.0325365
-0.0278142
-1.37932
1.3746
0.0237723
-0.0194915
-1.08801
1.08373
0.0160438
-0.0128447
-0.869148
0.865949
0.0098687
-0.00738291
-0.700493
0.698007
0.00523961
-0.00308141
-0.568385
0.566227
0.00150049
8.59678e-05
-0.463215
0.461629
-0.0013405
0.0024892
-0.37909
0.377941
-0.00314681
0.00344172
-0.308814
0.308519
-0.00333681
0.00240854
-0.221321
0.222249
-0.00115884
-0.0519836
0.0531424
-0.115368
0.114741
0.000626713
0.000652416
-0.00226823
-0.502166
0.503782
0.00538957
-0.00820472
-0.603767
0.606582
0.0118252
-0.0153318
-0.701814
0.705321
0.0192255
-0.0228786
-0.810784
0.814437
0.0270173
-0.0305367
-0.929761
0.93328
0.034505
-0.0378359
-1.05748
1.06081
0.04061
-0.0427939
-1.19177
1.19395
0.0439767
-0.0435989
-1.3307
1.33032
0.0416221
-0.0381192
-1.47365
1.47014
0.0332103
-0.0279088
-1.36916
1.36386
0.023208
-0.0186384
-1.07922
1.07465
0.0151601
-0.0118413
-0.8624
0.859081
0.00910779
-0.00670698
-0.695225
0.692824
0.004743
-0.00272003
-0.564147
0.562124
0.00118559
0.000158994
-0.459924
0.45858
-0.00143643
0.00245483
-0.376402
0.375384
-0.00311553
0.00343078
-0.306722
0.306407
-0.00325782
0.0023401
-0.220572
0.22149
-0.00111445
-0.0525194
0.0536339
-0.11735
0.11694
0.000409823
0.00166236
-0.00354527
-0.507725
0.509607
0.00656418
-0.00966391
-0.609887
0.612987
0.0133497
-0.0168825
-0.708673
0.712206
0.0210667
-0.0247854
-0.818199
0.821918
0.0290121
-0.0328442
-0.937326
0.941158
0.0369157
-0.040375
-1.06401
1.06747
0.0434527
-0.0456452
-1.19595
1.19814
0.0468094
-0.0467182
-1.32985
1.32976
0.0443363
-0.0399983
-1.46585
1.46151
0.0343609
-0.0278933