/*--------------------------------*- C++ -*----------------------------------*\
  =========                 |
  \\      /  F ield         | OpenFOAM: The Open Source CFD Toolbox
   \\    /   O peration     | Website:  https://openfoam.org
    \\  /    A nd           | Version:  6
     \\/     M anipulation  |
\*---------------------------------------------------------------------------*/
FoamFile
{
    version     2.0;
    format      ascii;
    class       surfaceScalarField;
    location    "35";
    object      phi;
}
// * * * * * * * * * * * * * * * * * * * * * * * * * * * * * * * * * * * * * //

dimensions      [0 3 -1 0 0 0 0];

internalField   nonuniform List<scalar> 
1300
(
3.75095
5.62643
-3.1439
3.75095
-6.05373
5.62643
-4.33047
4.33047
-0.971749
0.971749
1.87647
1.87449
-2.70825
2.70825
-2.11313
2.11313
-2.55996
2.55996
-5.24793
5.24793
-5.06965
5.06965
4.71915
-4.71915
-5.97929
5.97929
-1.29856
1.29856
-3.7237
3.7237
3.17322
-3.17322
-2.28661
2.28661
-0.277614
0.277614
-0.554134
4.30509
3.19682
3.19682
-2.03118
2.03118
-4.87223
4.87223
6.22247
-6.22247
4.66502
-4.66502
-1.52112
-2.31954
0.82741
-10.5103
-5.22632
-5.22632
-8.44102
8.44102
-2.81459
2.81184
2.94454
-2.94454
-1.72806
1.72806
-4.32179
-0.00867609
-4.32179
4.30809
0.0223785
4.30809
-1.06277
0.0910171
-1.06277
3.86539
-3.86539
0.840573
0.131177
0.840573
3.06668
-3.06668
-1.87688
3.75334
1.87408
-1.87205
6.17713
-1.87891
3.7534
-6.01436
6.01436
-2.92742
0.219177
-2.92742
2.52462
0.183622
2.52462
-6.77673
6.77673
-2.12747
0.014341
-2.12747
2.14088
-0.0277498
2.14088
2.87472
-2.87472
-2.65271
0.0927494
-2.65271
2.4367
0.12326
2.4367
0.353493
5.27294
-5.97992
8.79176
-5.27294
0.0250039
5.21026
0.0376773
5.21026
-5.1053
0.0356522
-5.1053
5.01223
0.0574193
5.01223
4.81368
-0.0945268
4.81368
-4.83356
0.114406
-4.83356
-3.75173
-4.99166
-6.20373
0.224437
-6.20373
-1.29603
-0.00252302
-1.29603
1.25892
0.0396323
1.25892
-3.64064
3.64064
-4.03996
0.316268
-4.03996
3.12802
0.0451929
3.12802
1.86812
1.88283
5.61908
-5.61908
2.44586
-2.28613
-0.000480726
-2.28613
-2.34245
-2.32257
2.34245
-0.0558404
-0.529413
0.2518
-0.529413
3.15691
0.0399056
3.15691
2.28361
0.153084
-2.28361
0.252436
3.24372
-3.24372
1.36496
0.666219
1.36496
-5.55984
5.55984
4.96063
0.0515957
-4.96063
0.0884
6.15772
0.064744
6.15772
-6.20759
-0.0148747
-6.20759
2.15375
-4.47329
-2.6974
5.67414
0.30515
-5.67414
0.447818
2.91481
0.0297354
2.91481
-2.9216
2.9216
-2.98244
0.0378961
-2.98244
-2.15648
0.428425
-2.15648
1.40783
0.320232
1.40783
-4.19526
-0.126527
-4.19526
-4.18939
0.149426
4.18939
0.118701
1.05838
-1.05838
-1.14225
0.0794814
-1.14225
-4.00275
-0.192518
4.00275
-0.13736
-3.7836
-0.0817868
-3.7836
-3.0207
0.0382639
3.0207
0.0459841
3.11179
0.0451237
-3.11179
0.0451051
-1.87094
3.75377
-1.88002
3.7541
-5.63648
-0.377885
-5.63648
6.312
-0.297632
6.312
3.29909
0.424608
-3.29909
0.371664
2.38082
0.143808
2.38082
-6.76127
-0.0154646
-6.76127
6.75814
0.0185945
6.75814
2.24998
0.130841
-2.24998
0.122503
2.17932
-0.038443
2.17932
2.89635
-0.0216286
2.89635
-2.87184
-0.0028766
-2.87184
2.80008
-2.80008
2.73139
0.0686914
-2.73139
0.0786802
-11.1241
11.1092
-0.0361808
-11.0879
5.17407
5.17407
4.26756
0.546119
4.26756
-5.02247
0.188915
-5.02247
2.94951
-5.6469
3.92046
-7.67219
5.25322
-15.7635
4.07441
-9.06607
6.55464
-6.55464
6.39415
0.160483
-6.39415
0.190429
-1.31651
0.020474
-1.31651
-3.01739
-0.623245
-3.01739
4.28459
-0.643952
4.28459
-3.02868
3.02868
-3.07707
0.0483892
3.07707
0.0509539
2.25595
-0.076624
-2.25595
-0.0301837
0.683322
0.157251
-0.683322
0.153908
3.44469
-0.200971
3.44469
-3.05971
-0.184013
-3.05971
-1.33871
0.022199
1.33871
0.0262521
-5.80784
0.247998
-5.80784
-11.1815
0.0936507
-11.1438
-6.11394
-6.11394
2.32708
11.1188
-2.89066
0.0188184
2.89066
0.0241436
2.97656
0.0521163
-2.97656
0.0549615
-2.86249
0.0624082
2.86249
0.0591171
-2.52982
0.373334
-2.52982
-1.01414
1.01414
-1.1688
0.154657
1.1688
0.23903
1.33691
-0.278538
1.33691
1.21178
0.0471394
-1.21178
0.0695359
-3.72994
-0.0536568
-3.72994
6.53877
-0.226769
6.53877
-2.94507
-0.114642
2.94507
-0.0487195
-0.0347853
11.144
-5.13929
0.033992
5.13929
-11.2087
11.2427
-3.24138
0.711559
3.24138
1.02618
5.28737
0.272467
-5.28737
0.264896
6.68016
0.0779738
-6.68016
0.125528
-2.53962
-0.477774
-2.53962
-5.03216
-0.604322
5.03216
-0.747566
-11.4821
-0.20355
11.6857
-11.4247
6.01139
0.146338
-6.01139
11.389
-0.961177
-0.0971994
0.961177
0.052962
1.66831
-0.331398
1.66831
3.64624
-0.201547
-3.64624
-0.0837017
-6.66977
-0.0915012
6.66977
-0.131001
-2.09441
-0.445211
2.09441
-0.426097
-4.26712
4.30703
1.91001
-2.31432
-2.15897
-4.63689
1.85472
1.89905
4.30058
-10.1082
-5.65535
-9.66037
7.21454
-6.94964
-9.36921
9.27468
7.6611
-7.74288
-5.77853
5.82949
6.48387
-6.43789
1.87927
1.87407
7.9665
-7.74733
-15.7586
15.3807
7.53336
-7.51902
15.8709
-15.8864
-17.8916
17.9695
-5.71167
5.80442
-6.72924
6.72636
-6.95241
6.90369
-3.47583
-4.19636
13.0612
-12.8367
8.04108
-8.04156
-8.60029
8.91656
3.38461
0.92242
3.42973
-1.88207
3.76134
-1.87133
3.78134
2.78766
-6.26349
2.85924
-5.01821
3.73478
4.3063
-3.67894
-0.957959
-5.92304
5.95278
-5.81566
5.87478
9.00439
-9.01307
-1.88513
3.7592
-1.86896
3.76801
-3.42358
-2.35495
3.37839
0.92219
7.89385
5.16731
-8.199
-1.46137
-7.85249
7.65094
-8.14065
7.95663
-0.44047
5.83695
-5.39648
4.43176
-1.65136
7.4883
5.56318
5.7521
5.86024
-5.58777
1.0894
-6.48588
-6.39748
-2.58566
2.66515
2.52403
-2.39285
5.98845
1.67264
5.85109
-5.64557
-2.09731
-5.69923
3.82069
2.0088
3.86908
4.08053
2.40334
4.11879
3.02985
-3.03596
0.00610477
-3.05849
6.08835
0.723242
-5.41345
-4.49126
5.00651
2.95999
5.19013
-5.55173
-2.1956
-5.18006
-9.60708
-6.15153
-10.2114
10.1498
5.23091
9.85218
-12.0161
11.8851
4.84189
2.69148
4.81414
-4.98903
-2.52999
-4.86653
11.7005
-2.61586
-9.08465
-10.3457
-7.54585
10.3271
5.54382
10.9516
7.01792
11.0771
4.44048
7.26003
-9.9843
2.43844
-3.86676
-1.84492
-3.78808
3.67523
2.12919
3.79849
-4.21465
-2.51459
-4.19583
-4.28748
-2.66493
4.3091
2.41726
-4.39585
-3.74479
4.51049
2.39319
4.6214
-10.2768
4.44467
-8.64103
-9.18531
-3.65142
-8.99489
3.67511
2.99341
-6.66852
-2.58838
8.56455
-4.25825
7.60659
-4.86342
-3.17813
-4.89361
-6.89823
-1.70206
-6.74881
-8.9468
8.46903
-9.25125
8.6073
12.6839
-5.71483
-6.96904
-3.96679
-2.47109
3.92169
-0.491953
-3.7107
3.7168
0.0506385
3.83198
4.7544
4.26244
-3.88404
-1.93163
-3.82907
3.8288
2.04598
3.89121
6.75878
2.24561
6.78115
-6.45963
-2.55344
-6.58616
9.13537
-8.70695
2.88452
-2.86232
5.27981
2.67682
-5.07884
-2.77365
6.23935
-3.1465
-3.09285
-12.361
10.8622
1.49875
-4.87269
-0.44093
-0.163317
-5.58999
-3.77922
5.47558
0.27652
11.1388
7.35955
-5.5152
5.7632
6.17046
6.22205
-0.175427
5.91995
-5.20839
5.33677
-2.4892
-2.84758
5.3299
-5.52242
-1.25626
-5.37985
4.1236
0.328674
1.76489
-1.51309
-2.00885
-0.576819
-1.93931
1.49567
1.02836
1.65292
0.949851
1.7153
-2.97291
0.586541
2.38637
-2.02306
-1.80631
-3.64823
-1.05621
4.70443
5.56155
2.08939
-5.47785
-0.221379
2.72961
-2.68998
-0.787109
-2.86112
2.10935
-2.89646
-3.54323
-1.84668
5.38991
-3.36961
-0.459465
3.31749
0.551584
-3.82636
-2.09669
3.78846
0.330332
-3.1264
6.19058
-3.06418
-5.05803
2.52899
3.55935
4.53779
-4.79106
2.44766
2.3434
-1.23171
4.27763
0.912502
4.42144
-6.92002
4.72442
5.69454
3.22202
-6.11914
0.939081
-5.98094
8.3701
-7.23195
-1.13815
3.88517
4.48493
7.11431
5.56956
-5.71484
12.8291
-1.05063
-6.18132
7.03157
-3.80955
4.77294
-8.58249
-10.3425
4.16118
-9.28357
11.0576
-1.77407
-3.61819
-8.39787
12.9018
-1.22754
-11.6742
8.62464
-4.23025
-4.28842
8.51868
-6.84612
6.81842
-1.94847
-4.86994
-10.1732
-5.7132
10.2647
1.62037
-9.84677
12.2852
-2.58674
4.16244
0.651693
4.124
3.27221
-5.39204
2.11983
3.57391
-5.52238
2.07684
-7.46889
-6.83656
12.2184
-5.38187
-10.488
-9.6198
-0.868176
2.50033
9.78488
-9.51826
7.37707
2.14119
3.306
0.585203
-3.37469
-0.413383
0.262823
4.51844
-4.78127
4.06131
4.2144
3.29259
1.22585
3.84408
2.1087
-3.86822
-0.327608
-4.15971
1.49479
-1.74246
-3.67293
5.16771
-4.06123
0.388304
-2.7357
-3.50277
6.23848
-4.58062
3.03947
3.15111
5.08546
-4.91425
1.41148
-2.39816
-2.5161
2.64975
-4.39221
1.96514
3.20257
4.35833
0.613537
6.07093
6.1475
-9.06434
0.423311
11.3148
-9.85345
2.53161
8.54552
-9.90868
0.288881
-8.706
1.24457
-5.50282
-5.42395
5.11626
-6.81832
-3.46622
6.20267
0.578487
-6.32137
-0.427439
-6.06955
-2.87725
-6.51476
-3.07827
-6.17299
-8.79311
-1.6728
-7.12031
6.79623
-6.70867
-3.50273
7.45624
1.15106
-7.46744
7.37024
-7.53883
7.20743
0.0944245
3.62238
4.35687
1.88577
-2.39067
4.27644
-5.04814
7.29376
-8.61526
3.56712
4.07686
-6.63029
-4.5384
5.06706
4.06831
5.38729
8.97853
-10.4897
1.5112
-10.7579
12.0947
-1.33686
-16.5578
5.79994
-7.57927
2.60241
0.282106
2.62289
0.643254
2.44307
-3.08633
-2.21906
-2.19281
-2.35695
-3.48056
5.83752
1.14427
-3.40704
2.26277
-3.53529
4.67956
0.0368324
-3.44387
5.22803
-2.78495
5.51013
-3.49846
2.01167
3.4544
5.80083
-2.34643
4.39662
-1.71979
1.8576
-4.20402
-1.62297
-2.96626
5.09545
-3.27222
3.66052
-0.314185
3.97471
-4.07185
0.925345
-0.779257
3.43514
3.68758
4.3075
-3.08164
2.98938
-4.70918
-1.21464
-4.09564
-0.893066
-0.238506
-3.82711
4.06562
6.06202
-6.30052
-5.31699
9.57217
-4.25518
7.73065
-5.46699
-2.26366
-4.31138
-4.39557
3.93805
1.9819
9.71255
0.175549
-5.64254
-5.03284
-4.00666
3.21876
2.11801
-1.92581
3.42456
2.08913
-0.324243
0.534814
1.11811
1.87089
-1.33608
0.241073
1.62982
-1.27202
1.96207
0.767534
-2.00921
0.0699043
-1.30834
3.4177
1.07802
-2.10638
0.770302
1.00867
-3.49787
4.80939
-2.53785
-2.27154
5.81806
1.16021
-3.69807
4.21964
-3.89097
2.37537
-3.43158
-1.32269
-5.21366
-3.54101
-2.5405
4.80327
-3.29702
5.38641
1.26004
-5.16503
6.42507
-3.56166
1.71498
-3.05996
3.82749
-1.1179
-1.94206
2.90093
2.48897
-3.01698
0.155862
-0.116044
2.34905
-2.4651
-0.547407
-2.57046
-4.57367
4.904
-2.10612
4.55378
2.17033
-1.91528
6.46906
1.81047
-3.72575
-3.24756
-3.70703
-1.38235
3.15544
-0.558449
-4.30808
-5.42839
4.17724
0.2442
-6.78875
7.71722
-0.928477
-3.82876
-0.895666
4.78084
-5.98995
0.467568
-3.9131
3.80412
4.71663
4.96082
-11.4657
-0.208515
-6.2348
1.11418
-7.34898
5.59911
-3.57698
7.73816
-10.4032
6.90051
-9.25217
6.6
-0.748977
6.24825
-4.12841
2.8364
-8.5496
-6.92923
5.46328
-2.77181
6.11498
-3.16013
9.27511
-5.74687
5.21733
4.05778
-0.876892
-4.01671
-5.24799
4.3711
-0.0306631
4.09334
4.98103
-2.87233
4.65342
2.25338
-4.65153
-2.13883
-6.49098
1.83944
-3.33987
-1.91748
3.75693
3.16797
3.75317
1.24083
-3.33979
7.353
-8.22118
-1.97113
-3.45282
5.29223
-0.921128
3.38872
-6.84154
-2.11409
4.83173
-0.747499
-4.08423
0.883108
-4.34933
1.65637
-6.0057
5.16195
-5.58939
2.24009
-9.81936
-5.22734
-5.17438
-2.27165
-5.26717
-7.62447
5.35281
-1.82453
5.54571
-8.60659
7.85909
-3.48813
8.84094
-5.46352
-1.05123
5.88962
1.31781
10.1587
0.0936418
-4.63204
-1.89808
3.82845
-1.93037
1.32068
-3.73347
0.0949843
2.46214
3.35592
-6.58574
-0.0445564
-4.6766
-3.91354
7.98186
5.65862
11.7206
1.23091
9.18233
-1.20048
10.4132
4.18681
4.42584
-3.04345
4.55465
1.02217
4.58929
-0.816607
2.82828
1.80628
1.80376
0.88622
2.30356
1.38402
3.2289
0.142572
-2.05024
4.65751
-8.66416
-0.985035
-8.11804
1.15664
5.44166
-4.28503
3.01798
-0.899975
1.08761
0.0479894
-1.62902
1.58103
-2.79959
-1.95326
-0.323442
-1.59549
2.36579
1.8222
-2.04235
-0.757235
0.267664
-3.80868
3.16392
-3.00806
-0.519084
5.90599
-2.76254
0.297441
-1.04756
-2.27302
-2.84984
2.77994
6.17568
0.293379
3.11151
5.19738
3.10069
0.228363
3.93814
-5.71222
-3.53075
-5.92073
-0.321616
4.45922
1.77997
8.00491
5.83775
4.91662
-1.92492
-10.1461
6.55824
-2.0036
5.22138
-1.13716
-4.86854
5.03404
2.25971
-5.61253
0.0231419
-4.8454
-6.849
-0.490994
8.35009
-9.66775
8.61652
5.73927
1.38105
-4.43352
-0.740862
4.27886
0.14698
10.5602
-0.912823
-7.18014
8.09296
-4.52884
3.54381
0.750035
2.67453
2.33107
1.43109
-5.74904
-10.0341
-1.87693
-1.62094
-4.14846
0.555971
-2.37817
6.10902
-2.56522
3.84536
5.52774
6.61536
-2.08108
-4.21945
6.33626
-2.4909
4.12446
)
;

boundaryField
{
    wall-4
    {
        type            calculated;
        value           uniform 0;
    }
    velocity-inlet-5
    {
        type            calculated;
        value           uniform -3.75095;
    }
    velocity-inlet-6
    {
        type            calculated;
        value           uniform -5.62643;
    }
    pressure-outlet-7
    {
        type            calculated;
        value           nonuniform List<scalar> 8(3.1439 6.05373 3.84066 9.68292 8.74339 4.85115 6.86997 9.32763);
    }
    wall-8
    {
        type            calculated;
        value           uniform 0;
    }
    frontAndBackPlanes
    {
        type            empty;
        value           nonuniform 0();
    }
}


// ************************************************************************* //
