/*--------------------------------*- C++ -*----------------------------------*\
  =========                 |
  \\      /  F ield         | OpenFOAM: The Open Source CFD Toolbox
   \\    /   O peration     | Website:  https://openfoam.org
    \\  /    A nd           | Version:  6
     \\/     M anipulation  |
\*---------------------------------------------------------------------------*/
FoamFile
{
    version     2.0;
    format      ascii;
    class       volScalarField;
    location    "40";
    object      p;
}
// * * * * * * * * * * * * * * * * * * * * * * * * * * * * * * * * * * * * * //

dimensions      [0 2 -2 0 0 0 0];

internalField   nonuniform List<scalar> 
2200
(
0.803994
0.788773
0.771292
0.755
0.740546
0.728509
0.718869
0.711393
0.705998
0.703029
0.703417
0.707082
0.712988
0.720842
0.730759
0.742987
0.757572
0.773963
0.79149
0.806725
0.747678
0.743756
0.738756
0.733182
0.726903
0.720297
0.713883
0.708212
0.703838
0.701374
0.701767
0.704943
0.709865
0.715947
0.722658
0.729485
0.735913
0.741574
0.746617
0.750564
0.706169
0.70586
0.706811
0.708126
0.708577
0.707547
0.705259
0.702354
0.699686
0.698075
0.698509
0.700885
0.704165
0.707545
0.710174
0.711437
0.711139
0.709914
0.709063
0.709415
0.681039
0.682068
0.684472
0.687791
0.691014
0.693301
0.694362
0.69435
0.693746
0.69329
0.693789
0.695144
0.696445
0.69697
0.696307
0.694315
0.691306
0.68811
0.685777
0.684784
0.666149
0.667603
0.670356
0.67389
0.677497
0.680785
0.683429
0.685256
0.686349
0.687097
0.687682
0.687981
0.687719
0.686522
0.684348
0.681414
0.678069
0.674711
0.672048
0.670621
0.658566
0.659874
0.662153
0.665017
0.668021
0.670976
0.673768
0.676181
0.678077
0.679512
0.680213
0.680054
0.679162
0.677515
0.675284
0.672736
0.670031
0.667378
0.66521
0.663929
0.654873
0.655777
0.657296
0.659271
0.661374
0.663488
0.665744
0.66811
0.670249
0.671866
0.67274
0.6727
0.671763
0.670294
0.66871
0.667107
0.665361
0.663617
0.662222
0.661345
0.652162
0.652741
0.653673
0.654945
0.656343
0.657758
0.659329
0.661271
0.663335
0.665002
0.666083
0.66631
0.665719
0.664914
0.664184
0.66337
0.662396
0.661403
0.660611
0.660058
0.649069
0.649455
0.650072
0.650955
0.651965
0.653003
0.654049
0.655331
0.657066
0.658898
0.6602
0.660678
0.660774
0.66088
0.660861
0.660572
0.660101
0.659565
0.659106
0.658743
0.645199
0.645478
0.645953
0.646672
0.647541
0.648483
0.649398
0.650378
0.651993
0.654199
0.655773
0.656434
0.657052
0.657748
0.658096
0.658106
0.657895
0.657576
0.657285
0.657034
0.64067
0.640889
0.64133
0.642031
0.642909
0.643939
0.645151
0.646519
0.648316
0.650674
0.652587
0.653687
0.654624
0.655367
0.655769
0.655925
0.65577
0.655554
0.655344
0.655155
0.635645
0.635816
0.636259
0.637063
0.638152
0.639494
0.641168
0.643067
0.645013
0.647246
0.649575
0.651499
0.652886
0.653599
0.653923
0.654075
0.653941
0.653773
0.653604
0.653456
0.630378
0.63051
0.630945
0.63184
0.633191
0.634923
0.637008
0.639295
0.641529
0.644043
0.646939
0.64958
0.651409
0.652291
0.652608
0.652661
0.652613
0.652513
0.652382
0.652269
0.624894
0.624995
0.625417
0.626332
0.627797
0.629786
0.632193
0.6349
0.637861
0.641292
0.64485
0.647808
0.649823
0.650964
0.651556
0.651791
0.651893
0.651877
0.651801
0.651719
0.618911
0.618992
0.619391
0.620285
0.621768
0.623816
0.626367
0.629546
0.633497
0.637993
0.642322
0.645695
0.647964
0.64957
0.650725
0.651434
0.65179
0.651932
0.651935
0.651872
0.612248
0.612253
0.612649
0.613591
0.615112
0.617139
0.619769
0.623359
0.628011
0.63331
0.638728
0.643204
0.64635
0.648766
0.650595
0.651765
0.652402
0.652725
0.652796
0.652742
0.604848
0.604869
0.605285
0.606338
0.608006
0.610271
0.613246
0.617169
0.622235
0.628324
0.635218
0.641343
0.645811
0.649129
0.651498
0.653028
0.653952
0.654429
0.654557
0.654516
0.596517
0.596571
0.597018
0.59825
0.600317
0.603177
0.606852
0.611523
0.617421
0.62475
0.633223
0.640837
0.646562
0.650719
0.65361
0.655547
0.656753
0.657354
0.657529
0.657498
0.586924
0.586982
0.587534
0.588992
0.591495
0.595066
0.599788
0.605815
0.61332
0.622599
0.632802
0.641721
0.648499
0.653432
0.656937
0.659342
0.660834
0.661589
0.661827
0.661798
0.575483
0.575533
0.5762
0.577959
0.581002
0.585322
0.591086
0.598608
0.608181
0.619962
0.632474
0.643175
0.651259
0.657195
0.661498
0.664448
0.66629
0.667242
0.667543
0.667507
0.561864
0.561876
0.562602
0.56465
0.568209
0.573272
0.58014
0.589304
0.601149
0.615827
0.631406
0.644686
0.65466
0.661918
0.667181
0.67086
0.673153
0.674338
0.674709
0.674659
0.54497
0.545059
0.545967
0.548348
0.552592
0.558811
0.567353
0.578724
0.593354
0.611498
0.630717
0.646933
0.658971
0.66782
0.674275
0.678777
0.681606
0.683042
0.683463
0.683385
0.52359
0.523699
0.52492
0.528071
0.533627
0.54175
0.552869
0.56751
0.586035
0.608464
0.63166
0.650817
0.664943
0.675284
0.682852
0.688223
0.691608
0.693271
0.693721
0.693603
0.495571
0.495856
0.497718
0.502196
0.509943
0.521124
0.536134
0.555406
0.579071
0.606693
0.634253
0.656389
0.672534
0.684423
0.693152
0.699291
0.70313
0.704972
0.705425
0.705272
0.458464
0.459132
0.462154
0.468958
0.480314
0.496176
0.51667
0.541979
0.571854
0.605403
0.637686
0.662988
0.681342
0.694877
0.704858
0.711899
0.716216
0.71817
0.718582
0.718363
0.408974
0.410168
0.41569
0.427064
0.444469
0.467212
0.494952
0.527622
0.56458
0.604435
0.64162
0.67037
0.691173
0.706619
0.718046
0.725988
0.730656
0.732586
0.732871
0.732604
0.34513
0.348837
0.360252
0.379286
0.405003
0.436434
0.472841
0.513821
0.558448
0.605038
0.647553
0.680362
0.704422
0.722478
0.735762
0.744885
0.750121
0.752194
0.752512
0.75232
0.273584
0.282876
0.302777
0.331088
0.366041
0.406649
0.452122
0.501562
0.55372
0.607007
0.655284
0.69285
0.720928
0.742168
0.75782
0.768386
0.774274
0.77657
0.776962
0.776923
0.207665
0.221192
0.247903
0.284942
0.329215
0.379022
0.433194
0.490429
0.54946
0.609246
0.663297
0.70514
0.736284
0.76023
0.778033
0.790173
0.797105
0.800032
0.800752
0.800742
0.15458
0.169224
0.19995
0.243569
0.295618
0.353501
0.415475
0.47983
0.545418
0.611527
0.670822
0.716514
0.75058
0.776574
0.796097
0.809673
0.817663
0.821047
0.821851
0.821836
0.110521
0.125712
0.15935
0.207801
0.26583
0.33026
0.398883
0.469552
0.541038
0.612625
0.677045
0.727053
0.763702
0.791218
0.812017
0.826605
0.835062
0.838628
0.83955
0.839588
0.0727852
0.0887533
0.124794
0.176902
0.239461
0.309037
0.383093
0.459189
0.536046
0.613087
0.682912
0.736884
0.775499
0.804074
0.825632
0.840661
0.849369
0.853178
0.854231
0.8543
0.0396633
0.0563688
0.0945464
0.149709
0.215866
0.28952
0.368029
0.448946
0.530888
0.613185
0.687468
0.744556
0.784929
0.814541
0.836552
0.851788
0.860812
0.864878
0.866097
0.866209
0.00981785
0.0270914
0.067196
0.125167
0.194418
0.271469
0.353682
0.438756
0.525252
0.612362
0.690969
0.75054
0.792123
0.82268
0.845261
0.860947
0.870357
0.874765
0.876137
0.876256
-0.0175415
0.000203312
0.042017
0.102528
0.17453
0.254535
0.339856
0.428402
0.519088
0.610996
0.693709
0.755015
0.798003
0.82949
0.852682
0.868907
0.878809
0.883407
0.88476
0.884775
-0.0430317
-0.0248432
0.0185335
0.0813713
0.155871
0.238483
0.326463
0.417995
0.512476
0.608708
0.694984
0.758604
0.803139
0.835556
0.859386
0.875941
0.886035
0.890737
0.891959
0.891833
-0.0670938
-0.048424
-0.00365669
0.0612974
0.138081
0.222991
0.313292
0.407491
0.505246
0.605554
0.695853
0.762144
0.808078
0.841716
0.865813
0.882429
0.892487
0.897118
0.898382
0.898308
-0.089976
-0.0708502
-0.0248614
0.0419842
0.120826
0.207805
0.300218
0.396836
0.497571
0.601757
0.695808
0.764794
0.813222
0.847905
0.872248
0.888835
0.898675
0.903222
0.904415
0.904359
-0.111891
-0.0923356
-0.0452954
0.0232276
0.103946
0.19283
0.287124
0.385816
0.489227
0.596867
0.694819
0.767683
0.818847
0.854358
0.878918
0.895297
0.904923
0.909255
0.910396
0.910333
-0.133053
-0.11313
-0.0651297
0.004936
0.0873726
0.177955
0.273888
0.374392
0.480175
0.591071
0.693205
0.770607
0.824612
0.8614
0.88606
0.902078
0.911285
0.915354
0.916339
0.916217
-0.153662
-0.133414
-0.0845102
-0.0130069
0.0710206
0.163146
0.260525
0.36257
0.470299
0.584106
0.690604
0.772889
0.830486
0.869017
0.893952
0.909443
0.917874
0.921308
0.922038
0.921846
-0.173873
-0.153302
-0.103518
-0.0306522
0.0548592
0.148383
0.247025
0.350348
0.459727
0.576076
0.686535
0.773693
0.835753
0.877236
0.903282
0.917983
0.924907
0.927254
0.927397
0.92708
-0.193722
-0.172832
-0.122174
-0.0479952
0.0389023
0.133663
0.233357
0.337769
0.448614
0.567112
0.680804
0.77286
0.840002
0.886015
0.914518
0.928824
0.933467
0.933335
0.932289
0.931938
-0.213164
-0.191975
-0.140446
-0.0649886
0.023198
0.118999
0.219537
0.324924
0.437095
0.557358
0.67352
0.769958
0.842539
0.894567
0.927593
0.943248
0.94531
0.940859
0.937019
0.936398
-0.232099
-0.21066
-0.158266
-0.0815713
0.00780052
0.10443
0.205609
0.311906
0.425332
0.547023
0.665079
0.76508
0.842979
0.901727
0.941445
0.9616
0.963388
0.953112
0.943098
0.93986
-0.25045
-0.228783
-0.175533
-0.0976692
-0.00724965
0.0899757
0.191616
0.298765
0.413425
0.536325
0.655879
0.758586
0.841103
0.906333
0.954086
0.982333
0.988876
0.975047
0.950342
0.924928
-0.268115
-0.246248
-0.192182
-0.113323
-0.0221467
0.0753902
0.177319
0.285276
0.40115
0.525119
0.645811
0.750399
0.836352
0.90738
0.963604
1.00172
1.01744
1.01082
1.01139
1.02219
-0.285032
-0.263053
-0.20828
-0.128668
-0.0371194
0.06037
0.162374
0.271018
0.387955
0.512845
0.63438
0.740029
0.827969
0.902874
0.965313
1.01049
1.02936
1.01905
0.988126
0.983057
-0.301177
-0.279215
-0.22383
-0.143624
-0.0520224
0.0450558
0.146921
0.25614
0.373979
0.499617
0.621515
0.727011
0.814701
0.890144
0.952718
0.993979
0.99345
0.954319
0.907047
0.89039
-0.316488
-0.294787
-0.23888
-0.158183
-0.066822
0.0295077
0.131045
0.240694
0.359154
0.48511
0.606778
0.710917
0.79597
0.86584
0.918357
0.93393
0.913474
0.851728
0.787442
0.77067
-0.330893
-0.309791
-0.253457
-0.172415
-0.0815869
0.0137479
0.114849
0.224749
0.343418
0.469147
0.58995
0.691003
0.769505
0.828329
0.858831
0.852012
0.80296
0.715777
0.638581
0.623322
-0.344788
-0.324444
-0.267985
-0.186964
-0.096897
-0.00253965
0.0981662
0.20811
0.326509
0.451403
0.570568
0.666754
0.736005
0.77837
0.778736
0.753409
0.655709
0.551672
0.46596
0.45284
-0.359124
-0.33924
-0.283244
-0.202877
-0.11362
-0.0198758
0.080647
0.190423
0.308074
0.43152
0.548063
0.637779
0.694913
0.714637
0.692336
0.620747
0.496122
0.371415
0.266795
0.250369
-0.374479
-0.3547
-0.299611
-0.220438
-0.131914
-0.0383258
0.0622319
0.171623
0.288102
0.409497
0.522367
0.604481
0.645803
0.639887
0.60174
0.480616
0.325563
0.16
0.0234115
-0.000404795
-0.391037
-0.371234
-0.317119
-0.239302
-0.15142
-0.0577233
0.0429567
0.151738
0.266604
0.385265
0.493457
0.567672
0.590559
0.556307
0.484096
0.333866
0.153633
-0.0541202
-0.253726
-0.331405
-0.409012
-0.389153
-0.335853
-0.259209
-0.171845
-0.0779909
0.0227368
0.130689
0.243568
0.358908
0.461594
0.526886
0.53068
0.466102
0.344104
0.182661
-0.00479543
-0.269265
-0.68484
-1.01231
-0.428568
-0.408588
-0.355821
-0.280002
-0.193
-0.099037
0.00161465
0.108583
0.21918
0.330646
0.427401
0.482907
0.467793
0.381353
0.201391
0.0171593
-0.150989
-0.395014
-0.898496
-1.69084
-0.449788
-0.429592
-0.377107
-0.301813
-0.215046
-0.121069
-0.0206907
0.0850885
0.193151
0.300223
0.390923
0.435751
0.401935
0.303422
0.0787257
-0.12226
-0.26476
-0.396526
-0.576935
-0.864835
-0.472659
-0.452209
-0.399886
-0.325018
-0.238501
-0.144675
-0.0448539
0.0593883
0.164523
0.266617
0.351248
0.384708
0.335075
0.222487
-0.0156431
-0.204153
-0.318261
-0.378546
-0.419404
-0.451473
-0.497125
-0.476445
-0.424238
-0.34974
-0.263509
-0.170016
-0.071048
0.0313141
0.133184
0.230047
0.307854
0.330649
0.271396
0.14205
-0.0844056
-0.246997
-0.335487
-0.360184
-0.387434
-0.392203
-0.523038
-0.502199
-0.450087
-0.375972
-0.290139
-0.197172
-0.0993142
0.000881389
0.0991465
0.190527
0.260899
0.273493
0.212976
0.0614402
-0.138652
-0.266295
-0.326239
-0.347733
-0.354626
-0.35488
-0.550238
-0.529275
-0.477312
-0.403619
-0.318289
-0.226057
-0.129549
-0.0317984
0.062481
0.148193
0.210905
0.213872
0.158151
-0.016332
-0.184101
-0.278447
-0.307741
-0.333304
-0.335402
-0.335195
-0.578464
-0.557371
-0.505583
-0.43242
-0.347785
-0.25651
-0.161577
-0.0664708
0.0235357
0.10388
0.159339
0.154477
0.0996565
-0.0779382
-0.22342
-0.29884
-0.31127
-0.320176
-0.323545
-0.324245
-0.607162
-0.58602
-0.534531
-0.462037
-0.378294
-0.288229
-0.195055
-0.102714
-0.0170344
0.0579281
0.10647
0.0953398
0.0377643
-0.124444
-0.246371
-0.310481
-0.329606
-0.318115
-0.314084
-0.313261
-0.635584
-0.614573
-0.563485
-0.491905
-0.409394
-0.320839
-0.229615
-0.13999
-0.0584674
0.0110724
0.0523274
0.0361521
-0.0267099
-0.15773
-0.24767
-0.293271
-0.321588
-0.306723
-0.297527
-0.294792
-0.662646
-0.642055
-0.591755
-0.521384
-0.440491
-0.353852
-0.264762
-0.177686
-0.0997078
-0.0361156
-0.00347948
-0.0243444
-0.0921408
-0.182297
-0.238493
-0.256135
-0.275725
-0.281879
-0.280478
-0.277341
-0.68718
-0.667354
-0.618297
-0.549595
-0.470838
-0.386629
-0.300016
-0.21526
-0.14
-0.0822351
-0.0604103
-0.0865631
-0.150277
-0.204481
-0.23306
-0.239323
-0.251828
-0.269296
-0.278274
-0.27905
-0.707699
-0.689093
-0.642019
-0.57554
-0.499438
-0.418305
-0.334748
-0.252385
-0.178713
-0.124954
-0.114256
-0.152633
-0.214155
-0.240072
-0.240152
-0.254549
-0.271891
-0.290964
-0.301365
-0.304423
-0.722926
-0.706081
-0.661693
-0.598005
-0.525012
-0.447646
-0.368092
-0.288696
-0.215588
-0.162299
-0.160338
-0.218788
-0.294267
-0.320556
-0.320561
-0.339962
-0.347885
-0.357353
-0.361874
-0.365537
-0.731598
-0.717079
-0.676225
-0.6157
-0.545993
-0.472891
-0.398443
-0.323506
-0.251082
-0.193339
-0.190305
-0.272122
-0.389241
-0.472831
-0.511616
-0.54483
-0.538677
-0.514771
-0.495262
-0.486337
-0.73322
-0.721402
-0.684302
-0.627113
-0.560808
-0.492133
-0.423488
-0.354796
-0.285409
-0.220363
-0.202997
-0.295638
-0.463441
-0.629384
-0.732845
-0.775879
-0.769272
-0.729716
-0.686711
-0.658095
-0.727225
-0.717183
-0.683937
-0.630664
-0.568148
-0.503632
-0.440448
-0.379007
-0.316311
-0.245826
-0.199441
-0.273667
-0.45877
-0.678339
-0.829004
-0.872477
-0.865035
-0.829367
-0.787443
-0.7572
-0.709195
-0.700283
-0.672193
-0.625062
-0.567721
-0.506929
-0.447222
-0.391004
-0.336512
-0.267344
-0.185285
-0.198581
-0.322096
-0.507716
-0.669676
-0.71905
-0.708553
-0.667404
-0.621042
-0.589232
-0.673231
-0.666454
-0.64801
-0.610834
-0.560507
-0.502948
-0.443603
-0.38716
-0.335008
-0.272467
-0.162347
-0.0763588
-0.0622529
-0.113893
-0.186146
-0.181451
-0.125036
-0.0596375
-0.0088491
0.0204291
-0.628936
-0.626576
-0.61796
-0.590998
-0.547843
-0.492871
-0.431216
-0.368918
-0.307986
-0.242714
-0.12372
0.0557773
0.237574
0.41569
0.534959
0.667878
0.79346
0.888842
0.950692
0.978065
-0.594652
-0.594788
-0.588465
-0.569198
-0.532635
-0.479802
-0.413684
-0.341371
-0.265003
-0.178898
-0.056392
0.156904
0.440275
0.766439
1.08359
1.34599
1.53964
1.67047
1.74196
1.76534
-0.564321
-0.564167
-0.560654
-0.549496
-0.519339
-0.467791
-0.396
-0.311247
-0.219286
-0.114887
0.0122018
0.207206
0.482606
0.812869
1.16987
1.48516
1.71498
1.85557
1.92555
1.94887
-0.540108
-0.539653
-0.539277
-0.53225
-0.507085
-0.456461
-0.380075
-0.28516
-0.182127
-0.0715717
0.0487534
0.209177
0.442017
0.722871
1.0354
1.3259
1.54918
1.69057
1.75963
1.78131
-0.52737
-0.527254
-0.528823
-0.524003
-0.499573
-0.444255
-0.362136
-0.263079
-0.158776
-0.0553403
0.0478315
0.170769
0.358996
0.580896
0.814425
1.03306
1.20737
1.32144
1.37723
1.394
-0.514056
-0.515388
-0.519407
-0.515935
-0.488883
-0.427984
-0.342798
-0.244823
-0.147157
-0.05923
0.0230744
0.114936
0.25765
0.431793
0.59986
0.745967
0.861012
0.938678
0.976305
0.987369
-0.48283
-0.484944
-0.489315
-0.485501
-0.457606
-0.397867
-0.317924
-0.228399
-0.140017
-0.0666113
-0.00985561
0.0528677
0.154865
0.284146
0.407915
0.509164
0.585548
0.637456
0.663883
0.672078
-0.420814
-0.423412
-0.427417
-0.423627
-0.397703
-0.345436
-0.280831
-0.210859
-0.136108
-0.0690073
-0.0318587
-0.00331614
0.0620492
0.158361
0.257561
0.338244
0.397805
0.438434
0.461664
0.469707
-0.329194
-0.331786
-0.335056
-0.332331
-0.312006
-0.273417
-0.231147
-0.18845
-0.134698
-0.0709362
-0.0331999
-0.0304552
-0.000226479
0.0765128
0.162428
0.232286
0.28386
0.319425
0.33882
0.344296
-0.222832
-0.224703
-0.227185
-0.226488
-0.215202
-0.193951
-0.173666
-0.154775
-0.124632
-0.073317
-0.0279733
-0.0224943
-0.00967819
0.0485921
0.116226
0.170795
0.211277
0.23804
0.250925
0.253608
-0.123566
-0.124806
-0.126852
-0.128618
-0.126454
-0.120051
-0.114607
-0.109023
-0.0954326
-0.064859
-0.0239177
-0.00227288
0.0160239
0.0565643
0.102242
0.136538
0.159903
0.173999
0.17848
0.177588
-0.0484808
-0.0493355
-0.0512824
-0.0548583
-0.0583216
-0.060456
-0.0620655
-0.0614673
-0.054305
-0.0395081
-0.0148763
0.0116363
0.0350996
0.0665253
0.0956793
0.112664
0.119195
0.121126
0.119098
0.116156
-0.000624293
-0.0012841
-0.00321245
-0.00753738
-0.0140447
-0.0204131
-0.0243341
-0.0257864
-0.0217951
-0.0134538
-0.00463695
0.0105692
0.0315626
0.0590515
0.0780478
0.0838762
0.081235
0.0769482
0.0723716
0.0698859
0.0244399
0.0239414
0.0221265
0.0177584
0.0103995
0.00209349
-0.00373769
-0.00781662
-0.00908441
-0.00501267
0.000912608
-0.00244722
0.0107515
0.0341758
0.0497703
0.0525772
0.0477111
0.0450545
0.0421349
0.040709
0.0342913
0.0339154
0.0323045
0.0282063
0.0211189
0.0122601
0.00502887
-0.00120007
-0.00833696
-0.00699871
0.0021962
-0.0136197
-0.0119431
0.00290972
0.0182335
0.0250551
0.0247683
0.0258475
0.0253719
0.0243131
0.0356007
0.0353343
0.0340988
0.0306621
0.0246797
0.016669
0.00969336
0.00437197
-0.00482439
-0.00741009
0.00394481
-0.0128228
-0.0219394
-0.0149613
-0.00151324
0.00681135
0.00972768
0.0108383
0.0107651
0.00982676
0.0332921
0.033103
0.0322729
0.029722
0.0252171
0.0188598
0.0130162
0.00922513
0.00182948
-0.00384599
0.00488906
-0.0055606
-0.0165641
-0.0112049
-0.00138372
0.0019245
0.0034439
0.00417517
0.00316002
0.00176867
0.0297018
0.0295654
0.0290621
0.0273939
0.0242487
0.0195655
0.0147925
0.0115699
0.0067165
1.29156e-05
0.00450904
0.000230932
-0.00657575
0.00165028
0.00916331
0.00833448
0.0055976
0.00396434
0.00208371
0.000707305
0.0257596
0.0256392
0.0252532
0.0241726
0.0220602
0.0187223
0.0148489
0.0117428
0.00824831
0.00189336
0.00447666
0.00100589
-0.00222913
0.00814741
0.0144216
0.0133886
0.00870316
0.00497034
0.00355383
0.00282401
0.0219416
0.0218464
0.0215233
0.0207448
0.0192595
0.0169713
0.0138994
0.0112741
0.00857697
0.00253971
0.00457533
-0.00169974
-0.00390434
0.00605125
0.0122562
0.0113589
0.0101349
0.00857604
0.00793356
0.00758993
0.0184634
0.018375
0.0180678
0.017427
0.0163714
0.0150492
0.0126496
0.0105477
0.00948751
0.00328188
0.00482939
-0.00226481
-0.00458355
0.0041853
0.0110072
0.011162
0.0130087
0.0159966
0.0167588
0.0161791
0.0157758
0.0157155
0.0155234
0.0150568
0.0141744
0.0134531
0.0116483
0.00881192
0.00830621
0.00472858
0.00572215
0.00215917
-0.000175145
0.00790599
0.0154963
0.0194315
0.0215433
0.0242684
0.0254521
0.0248647
0.0135946
0.0135356
0.013427
0.0131578
0.0126306
0.0122832
0.011368
0.00888492
0.00800068
0.00572982
0.00677867
0.00646806
0.00608983
0.0141726
0.0212261
0.0267362
0.0304957
0.0308264
0.0308525
0.030701
0.0119376
0.0118773
0.0118677
0.0118061
0.011536
0.0113951
0.0111113
0.00968392
0.0086495
0.00589563
0.00711994
0.00887442
0.010714
0.017341
0.0235138
0.0277585
0.0316347
0.0333251
0.0335657
0.033168
0.0102213
0.0101813
0.0101995
0.0102823
0.0103116
0.0105384
0.0109401
0.00965203
0.00747829
0.00623579
0.00761982
0.0103911
0.0132722
0.0164409
0.0228418
0.0282183
0.0319091
0.0365437
0.0382917
0.0375973
0.00798528
0.00795973
0.00800648
0.00808163
0.00832466
0.00872058
0.00956791
0.00900816
0.00721848
0.00675184
0.00820674
0.00944778
0.0126598
0.0170412
0.0231091
0.0291139
0.0392763
0.0477479
0.0493291
0.0477292
0.00543989
0.00530052
0.00516692
0.00523387
0.00569559
0.00591952
0.0065175
0.00760371
0.00572701
0.00529453
0.00700777
0.00963564
0.00740294
0.0154371
0.0231934
0.0300124
0.0403778
0.0451596
0.044979
0.0433257
0.00249587
0.00242127
0.00243863
0.00239461
0.00205131
0.00165216
0.00173627
0.00381397
0.00389175
0.00199103
0.00454108
0.0111098
0.00464965
0.00791127
0.0115802
0.0118517
0.0130644
0.0125273
0.0131233
0.0131132
-0.557832
-0.0907858
0.191833
0.405112
0.577803
0.719854
0.836055
0.934419
1.01156
1.04406
0.120719
0.338212
0.457823
0.581571
0.701353
0.801967
0.876233
0.918163
0.916342
0.915522
0.397666
0.533395
0.63069
0.717237
0.79468
0.858766
0.904505
0.927706
0.934083
0.969785
0.589357
0.680196
0.757384
0.821263
0.873646
0.915774
0.948127
0.972723
0.992768
1.02548
0.742426
0.801448
0.859413
0.906502
0.944812
0.976309
1.00321
1.02794
1.05278
1.07787
0.866636
0.907607
0.949053
0.984602
1.01471
1.04084
1.06476
1.08793
1.11059
1.12937
0.973313
1.00133
1.03191
1.0595
1.08421
1.10685
1.12825
1.14871
1.16797
1.18386
1.06715
1.0867
1.11057
1.1335
1.15462
1.17421
1.19271
1.21042
1.2271
1.24071
1.15251
1.16995
1.18956
1.20804
1.22547
1.2421
1.25815
1.27353
1.28806
1.30032
1.23631
1.24995
1.26668
1.28279
1.29795
1.31225
1.32587
1.339
1.35157
1.36206
1.32345
1.332
1.34505
1.35905
1.37241
1.38478
1.39629
1.40713
1.41747
1.42653
1.41168
1.41729
1.42717
1.43896
1.45049
1.46087
1.47003
1.47835
1.48634
1.49343
1.50346
1.50701
1.51392
1.5221
1.5303
1.53812
1.54531
1.55178
1.55792
1.56374
1.59939
1.59967
1.60152
1.60437
1.60804
1.6127
1.61852
1.62527
1.6322
1.63825
1.70129
1.69253
1.68309
1.67588
1.67252
1.67401
1.68067
1.6919
1.7062
1.71967
1.80789
1.77083
1.73999
1.721
1.71207
1.71166
1.7198
1.73889
1.77027
1.80913
)
;

boundaryField
{
    wall-4
    {
        type            zeroGradient;
    }
    pressure-outlet-7
    {
        type            fixedValue;
        value           uniform 0;
    }
    velocity-inlet-6
    {
        type            zeroGradient;
    }
    velocity-inlet-5
    {
        type            zeroGradient;
    }
    frontAndBackPlanes
    {
        type            empty;
    }
}


// ************************************************************************* //
