/*--------------------------------*- C++ -*----------------------------------*\
  =========                 |
  \\      /  F ield         | OpenFOAM: The Open Source CFD Toolbox
   \\    /   O peration     | Website:  https://openfoam.org
    \\  /    A nd           | Version:  6
     \\/     M anipulation  |
\*---------------------------------------------------------------------------*/
FoamFile
{
    version     2.0;
    format      ascii;
    class       surfaceScalarField;
    location    "68";
    object      phi;
}
// * * * * * * * * * * * * * * * * * * * * * * * * * * * * * * * * * * * * * //

dimensions      [0 3 -1 0 0 0 0];

internalField   nonuniform List<scalar> 
4262
(
0.106791
0.471197
0.0925276
0.707849
0.0647714
0.860059
0.0423285
1.02121
0.0262788
1.21457
0.0161706
1.44833
0.00987882
1.73216
0.00567984
2.07524
0.00246332
2.48846
-0.000402406
2.98516
-0.00318108
2.98507
-0.00636388
2.48843
-0.0105594
2.07523
-0.0167681
1.73207
-0.0267095
1.44816
-0.0425616
1.21437
-0.0648335
1.02104
-0.0924833
0.859953
-0.106831
0.707934
0.471157
0.114778
0.356419
0.139943
0.682685
0.125293
0.874709
0.10176
1.04474
0.0735485
1.24278
0.0474018
1.47447
0.0268117
1.75275
0.0128004
2.08925
0.00454406
2.49672
-0.00127971
2.99098
-0.00702501
2.99082
-0.0153528
2.49675
-0.0289817
2.08886
-0.0491941
1.75228
-0.0751992
1.47417
-0.103431
1.2426
-0.126997
1.0446
-0.140793
0.873749
-0.115218
0.682359
0.355939
0.0917018
0.264717
0.126289
0.648098
0.124808
0.87619
0.110887
1.05866
0.0964324
1.25723
0.0766194
1.49429
0.0545142
1.77485
0.0328088
2.11095
0.0133758
2.51615
-0.00236167
3.00672
-0.0180339
3.00649
-0.036867
2.51559
-0.05834
2.11033
-0.0801506
1.7741
-0.0993955
1.49341
-0.112928
1.25613
-0.125898
1.05757
-0.127706
0.875557
-0.0923746
0.647028
0.263564
0.0628031
0.201914
0.10395
0.606951
0.106667
0.873473
0.0970813
1.06825
0.0859616
1.26835
0.0753689
1.50488
0.0606926
1.78953
0.0418077
2.12984
0.0202258
2.53773
-0.00367831
3.03062
-0.0273965
3.03021
-0.0482743
2.53646
-0.0660906
2.12815
-0.0797126
1.78772
-0.0894797
1.50318
-0.100257
1.26691
-0.109629
1.06694
-0.106096
0.872024
-0.0637345
0.604666
0.19983
0.037031
0.164883
0.07939
0.564592
0.0897377
0.863126
0.082937
1.07505
0.0716672
1.27962
0.0627017
1.51385
0.052632
1.7996
0.0387444
2.14372
0.0197926
2.55668
-0.00458522
3.055
-0.0284473
3.05407
-0.0466441
2.55466
-0.0598743
2.14138
-0.0693029
1.79715
-0.0775425
1.51142
-0.0879502
1.27732
-0.0936034
1.0726
-0.0818216
0.860242
-0.0378919
0.560736
0.161938
0.0194976
0.145385
0.0565166
0.527573
0.0715459
0.848096
0.0690055
1.07759
0.059874
1.28875
0.0496597
1.52406
0.039997
1.80926
0.0287953
2.15493
0.013792
2.57169
-0.00653998
3.07533
-0.0264768
3.07401
-0.0403696
2.56855
-0.0500062
2.15102
-0.0579579
1.8051
-0.0667586
1.52022
-0.0746888
1.28525
-0.0760682
1.07398
-0.0593541
0.843528
-0.0204065
0.521788
0.141532
0.0107022
0.134683
0.0419506
0.496324
0.0574034
0.832644
0.0570407
1.07795
0.0501335
1.29566
0.0401691
1.53402
0.030417
1.81901
0.0201447
2.1652
0.0078483
2.58398
-0.00754225
3.09072
-0.022351
3.08881
-0.0335685
2.57977
-0.042642
2.16009
-0.0511058
1.81356
-0.0598118
1.52892
-0.0651291
1.29056
-0.0636492
1.0725
-0.0457219
0.825601
-0.0118438
0.48791
0.129688
0.00660199
0.128081
0.0327877
0.470139
0.0484664
0.816965
0.0492168
1.0772
0.0433148
1.30156
0.0337947
1.54354
0.0232155
1.82959
0.0124423
2.17597
0.00146722
2.59496
-0.010397
3.10259
-0.0216841
3.1001
-0.0311843
2.58927
-0.0396706
2.16858
-0.0478141
1.8217
-0.0553039
1.53641
-0.0592123
1.29447
-0.0561761
1.06946
-0.0374352
0.80686
-0.00804013
0.458515
0.121648
0.00470371
0.123377
0.0264013
0.448441
0.0419342
0.801432
0.043619
1.07551
0.0383665
1.30682
0.0300281
1.55188
0.0202244
1.83939
0.00956053
2.18664
-0.00134709
2.60587
-0.0122788
3.11352
-0.0224045
3.11023
-0.0314696
2.59834
-0.0401158
2.17722
-0.0478509
1.82944
-0.0538139
1.54238
-0.0564847
1.29714
-0.0516441
1.06462
-0.0320934
0.787309
-0.00642836
0.43285
0.115219
0.00366452
0.119713
0.0213822
0.430724
0.0361715
0.786643
0.038633
1.07305
0.0340244
1.31142
0.0262415
1.55967
0.0167317
1.8489
0.00608407
2.19728
-0.00503031
2.61698
-0.0161177
3.12461
-0.0261514
3.12026
-0.0348613
2.60705
-0.0423031
2.18466
-0.0485987
1.83574
-0.0534099
1.54719
-0.0546213
1.29835
-0.0483262
1.05833
-0.0284153
0.767398
-0.005815
0.41025
0.109404
0.00301044
0.116702
0.0174178
0.416316
0.0312307
0.77283
0.0340791
1.0702
0.0298285
1.31567
0.0226562
1.56684
0.0140399
1.85752
0.00405548
2.20727
-0.00718887
2.62822
-0.0192739
3.13669
-0.0302551
3.13124
-0.0387682
2.61556
-0.0454102
2.19131
-0.0505807
1.84091
-0.0542353
1.55084
-0.0543247
1.29844
-0.0463681
1.05037
-0.0260238
0.747054
-0.00565846
0.389884
0.103746
0.00242108
0.114281
0.0138699
0.404867
0.0263861
0.760314
0.029425
1.06717
0.0254098
1.31969
0.0182356
1.57401
0.00943667
1.86632
-0.000725746
2.21743
-0.0122105
2.63971
-0.0244702
3.14895
-0.0351646
3.14194
-0.0429229
2.62332
-0.04854
2.19692
-0.0525846
1.84495
-0.0550854
1.55334
-0.054331
1.29769
-0.0449208
1.04096
-0.024323
0.726456
-0.00560345
0.371165
0.0981425
0.00165398
0.112627
0.0103637
0.396158
0.0209689
0.749708
0.0233854
1.06475
0.019135
1.32394
0.0121196
1.58103
0.00378141
1.87466
-0.00581101
2.22702
-0.0168186
2.65072
-0.0295718
3.1617
-0.0407362
3.1531
-0.0476846
2.63027
-0.0522464
2.20149
-0.055617
1.84832
-0.0570649
1.55479
-0.0551113
1.29574
-0.0442288
1.03008
-0.0232322
0.705459
-0.00555847
0.353491
0.092584
0.000786244
0.111841
0.00705156
0.389892
0.0160472
0.740713
0.018065
1.06273
0.0134906
1.32851
0.0058631
1.58866
-0.00323088
1.88375
-0.0134915
2.23728
-0.0250854
2.66231
-0.0371738
3.17379
-0.0465709
3.1625
-0.0527455
2.63644
-0.056601
2.20534
-0.0591888
1.85091
-0.059713
1.55532
-0.0567792
1.2928
-0.0443516
1.01765
-0.0227267
0.683834
-0.00557446
0.336339
0.0870096
7.37564e-05
0.111767
0.00388587
0.38608
0.0105321
0.734066
0.0114804
1.06178
0.00641625
1.33358
-0.00146323
1.59653
-0.0108061
1.89309
-0.0212555
2.24773
-0.0324385
2.67349
-0.0441465
3.1855
-0.0538164
3.17217
-0.0595283
2.64215
-0.0625775
2.20839
-0.0642366
1.85257
-0.063796
1.55488
-0.0593024
1.28831
-0.0451556
1.0035
-0.0226678
0.661347
-0.0056553
0.319326
0.0813543
-0.00101292
0.11278
-4.51905e-05
0.385113
0.0041831
0.729838
0.00392599
1.06204
-0.00190922
1.33941
-0.0106667
1.60529
-0.0209498
1.90338
-0.0321663
2.25895
-0.0439363
2.68526
-0.0557609
3.19733
-0.0639629
3.18037
-0.0679642
2.64615
-0.06981
2.21024
-0.0704985
1.85326
-0.0691575
1.55353
-0.0628922
1.28204
-0.0466737
0.987283
-0.0230467
0.637719
-0.00580794
0.302088
0.0755463
-0.00203867
0.114819
-0.00338786
0.386462
-0.0022931
0.728743
-0.00422504
1.06397
-0.0108924
1.34608
-0.0202574
1.61466
-0.0310774
1.9142
-0.0428937
2.27077
-0.0551559
2.69753
-0.0666824
3.20885
-0.0743626
3.18805
-0.0783014
2.65009
-0.0796724
2.21161
-0.0792719
1.85286
-0.0762793
1.55054
-0.0679316
1.2737
-0.0493213
0.968673
-0.0240751
0.612473
-0.00612425
0.284137
0.0694221
-0.00326666
0.118085
-0.00699942
0.390195
-0.00920921
0.730953
-0.0132346
1.068
-0.0214112
1.35426
-0.0325233
1.62577
-0.0449474
1.92662
-0.0581482
2.28397
-0.0712821
2.71066
-0.0826682
3.22024
-0.0897166
3.1951
-0.0918699
2.65225
-0.0911968
2.21093
-0.0893145
1.85097
-0.0850024
1.54623
-0.0743151
1.26301
-0.0528142
0.947172
-0.0255248
0.585184
-0.00648982
0.265102
0.0629322
-0.00473787
0.122823
-0.0116141
0.397071
-0.0171855
0.736525
-0.0241081
1.07492
-0.0337307
1.36388
-0.0459187
1.63796
-0.0592945
1.94
-0.0736415
2.29831
-0.0882847
2.7253
-0.101372
3.23333
-0.107851
3.20158
-0.108804
2.6532
-0.106989
2.20912
-0.103363
1.84735
-0.0968446
1.53971
-0.0831942
1.24936
-0.0580476
0.922025
-0.027795
0.554931
-0.0070625
0.244369
0.0558697
-0.00605414
0.128877
-0.0163834
0.4074
-0.0262018
0.746343
-0.035881
1.0846
-0.0476857
1.37568
-0.0623402
1.65261
-0.0783944
1.95605
-0.0953669
2.31529
-0.111585
2.74152
-0.123374
3.24512
-0.127857
3.20606
-0.12727
2.65261
-0.123612
2.20546
-0.118392
1.84213
-0.110145
1.53146
-0.093006
1.23222
-0.0636411
0.892661
-0.0301403
0.52143
-0.0075641
0.221793
0.0483056
-0.008658
0.137535
-0.0240743
0.422816
-0.0396804
0.761949
-0.0529591
1.09788
-0.0663656
1.38909
-0.082497
1.66874
-0.100817
1.97437
-0.120249
2.33472
-0.138527
2.7598
-0.152079
3.25867
-0.155559
3.20954
-0.151982
2.64904
-0.146352
2.19983
-0.138721
1.8345
-0.126881
1.51962
-0.105415
1.21075
-0.0708576
0.858103
-0.0329416
0.483514
-0.0080845
0.196936
0.0402211
-0.0108737
0.148409
-0.030288
0.442231
-0.0512137
0.782875
-0.0697778
1.11644
-0.0877153
1.40703
-0.108015
1.68904
-0.130298
1.99665
-0.153202
2.35762
-0.172846
2.77944
-0.183629
3.26945
-0.183159
3.20907
-0.177896
2.64377
-0.169818
2.19175
-0.159961
1.82464
-0.145606
1.50527
-0.118979
1.18413
-0.0780196
0.817143
-0.0354184
0.440913
-0.00843753
0.169955
0.0317836
-0.015383
0.163792
-0.0425781
0.469426
-0.0707021
0.810999
-0.0942709
1.14001
-0.116321
1.42908
-0.14177
1.71449
-0.168869
2.02375
-0.194237
2.38299
-0.213224
2.79843
-0.221829
3.27806
-0.219177
3.20642
-0.20973
2.63433
-0.198904
2.18093
-0.186554
1.81229
-0.167398
1.48611
-0.134465
1.15119
-0.0861839
0.768862
-0.0377776
0.392507
-0.00865512
0.140833
0.0231285
-0.0195827
0.183375
-0.0555023
0.505345
-0.09324
0.848736
-0.125045
1.17182
-0.153981
1.45801
-0.186109
1.74662
-0.216952
2.05459
-0.243042
2.40908
-0.259903
2.81529
-0.26323
3.28138
-0.253991
3.19718
-0.241769
2.6221
-0.228672
2.16783
-0.213241
1.79686
-0.190243
1.46311
-0.149617
1.11057
-0.0923348
0.71158
-0.0386535
0.338826
-0.0083203
0.110499
0.0148082
-0.0317263
0.215101
-0.0793523
0.552971
-0.12818
0.897564
-0.167994
1.21163
-0.203485
1.49351
-0.243013
1.78615
-0.277197
2.08878
-0.302288
2.43417
-0.31406
2.82706
-0.310458
3.27778
-0.296242
3.18296
-0.279618
2.60548
-0.263714
2.15192
-0.245702
1.77885
-0.215478
1.43289
-0.16514
1.06023
-0.0985136
0.644953
-0.0392028
0.279515
-0.00792178
0.0792183
0.00688641
-0.0452653
0.260366
-0.118466
0.626172
-0.183869
0.962967
-0.231136
1.2589
-0.273517
1.53589
-0.316316
1.82895
-0.346454
2.11892
-0.364262
2.45198
-0.369521
2.83232
-0.362396
3.27066
-0.344488
3.16505
-0.322605
2.5836
-0.299464
2.12878
-0.272709
1.75209
-0.234783
1.39496
-0.174609
1.00006
-0.0981167
0.568461
-0.0367057
0.218104
-0.00749682
0.0500094
-0.000610413
-0.032402
0.292768
-0.0973433
0.691113
-0.157274
1.0229
-0.206946
1.30857
-0.260248
1.58919
-0.307048
1.87575
-0.350021
2.16189
-0.387039
2.489
-0.415239
2.86052
-0.429172
3.28459
-0.423998
3.15988
-0.408906
2.56851
-0.389041
2.10892
-0.359402
1.72246
-0.303381
1.33894
-0.21307
0.909746
-0.110225
0.465615
-0.0401478
0.148027
-0.00882093
0.0186825
-0.00943135
-0.0136224
0.306391
-0.0481402
0.725631
-0.0885126
1.06327
-0.13059
1.35065
-0.172998
1.6316
-0.20453
1.90728
-0.235865
2.19322
-0.26507
2.5182
-0.287366
2.88282
-0.297571
3.29479
-0.297295
3.15961
-0.288738
2.55995
-0.271237
2.09142
-0.239945
1.69116
-0.189601
1.2886
-0.12037
0.840515
-0.0546088
0.399854
-0.0206123
0.11403
-0.00493071
0.00300091
-0.0143621
-0.00323001
0.309621
-0.0238241
0.746225
-0.0512589
1.0907
-0.0801921
1.37958
-0.108138
1.65954
-0.135539
1.93468
-0.162942
2.22063
-0.188882
2.54414
-0.209428
2.90336
-0.219028
3.30439
-0.213002
3.15358
-0.196461
2.54341
-0.175422
2.07038
-0.146935
1.66268
-0.105556
1.24722
-0.0570259
0.791986
-0.0221457
0.364973
-0.00995497
0.101839
-0.00295257
-0.00400151
-0.0173146
0.00102655
0.308594
-0.0136847
0.760936
-0.0337929
1.11081
-0.054097
1.39988
-0.0735864
1.67903
-0.0952253
1.95632
-0.117938
2.24334
-0.138611
2.56482
-0.153304
2.91806
-0.158631
3.30972
-0.152142
3.14709
-0.136635
2.5279
-0.112097
2.04584
-0.0795278
1.63011
-0.0450183
1.21271
-0.0149283
0.761896
-0.00225464
0.3523
-0.00164381
0.101229
-0.00114396
-0.00450135
-0.0184586
0.00364502
0.304949
-0.00525338
0.769835
-0.0218415
1.1274
-0.0401969
1.41824
-0.0576123
1.69645
-0.0750472
1.97376
-0.0925643
2.26086
-0.108466
2.58072
-0.12
2.92959
-0.122928
3.31265
-0.111408
3.13557
-0.0896106
2.5061
-0.0648869
2.02112
-0.0394735
1.60469
-0.0108091
1.18405
0.0103333
0.740753
0.0123543
0.350279
0.0059484
0.107635
0.00103323
0.000413812
-0.0174254
0.00461842
0.300331
-0.00141611
0.775869
-0.0156167
1.1416
-0.0319556
1.43458
-0.0479218
1.71241
-0.0633561
1.98919
-0.0782432
2.27574
-0.0905589
2.59303
-0.0972664
2.9363
-0.094973
3.31035
-0.0829719
3.12357
-0.0655189
2.48865
-0.0418307
1.99743
-0.0124745
1.57534
0.0112708
1.1603
0.0222848
0.729739
0.0193339
0.35323
0.00980314
0.117165
0.00237543
0.00784153
-0.0150499
0.00448295
0.295848
0.00110403
0.779248
-0.0109794
1.15369
-0.0267858
1.45038
-0.0429934
1.72862
-0.0578972
2.00409
-0.0709841
2.28883
-0.0810567
2.60311
-0.0863078
2.94155
-0.083513
3.30756
-0.069026
3.10908
-0.0476955
2.46732
-0.0238499
1.97358
-0.00203589
1.55352
0.0180664
1.1402
0.0277132
0.720092
0.0223553
0.358588
0.011674
0.127847
0.00313977
0.0163757
-0.0119102
0.0027201
0.293128
-0.000433028
0.782401
-0.0106113
1.16386
-0.0240359
1.46381
-0.0387576
1.74334
-0.0533484
2.01868
-0.0668527
2.30234
-0.0771989
2.61345
-0.0813354
2.94569
-0.0757043
3.30193
-0.0617856
3.09516
-0.0455243
2.45106
-0.0237768
1.95183
0.00127228
1.52848
0.019714
1.12176
0.0263196
0.713487
0.0214799
0.363427
0.0115326
0.137794
0.00324647
0.0246619
-0.00866369
0.00167646
0.291451
-0.00118595
0.785264
-0.0102758
1.17295
-0.0227879
1.47632
-0.0369719
1.75753
-0.051549
2.03326
-0.0654813
2.31627
-0.0766501
2.62462
-0.0816953
2.95073
-0.0767082
3.29694
-0.0621347
3.08059
-0.0416558
2.43058
-0.0199949
1.93017
-0.00206251
1.51054
0.0147557
1.10494
0.0228109
0.705432
0.0188333
0.367405
0.0102863
0.146341
0.00299967
0.0319485
-0.00566403
-0.000219716
0.291671
-0.00401869
0.789063
-0.0122691
1.1812
-0.0231112
1.48716
-0.0357949
1.77021
-0.0499216
2.04739
-0.064835
2.33118
-0.0779898
2.63778
-0.0848348
2.95758
-0.0804641
3.29257
-0.065796
3.06592
-0.0482861
2.41307
-0.0298018
1.91169
-0.00778069
1.48852
0.00837814
1.08878
0.0153416
0.698468
0.0139268
0.36882
0.00797414
0.152293
0.00244103
0.0374816
-0.003223
-0.00140432
0.293075
-0.00541499
0.793073
-0.0133102
1.1891
-0.0238821
1.49773
-0.036349
1.78268
-0.0502918
2.06133
-0.0652907
2.34618
-0.0796115
2.6521
-0.0894318
2.9674
-0.0883529
3.29149
-0.0726657
3.05024
-0.0512417
2.39164
-0.0315702
1.89202
-0.0160675
1.47302
-0.000678949
1.07339
0.00896752
0.688822
0.00930427
0.368483
0.00569554
0.155902
0.00189206
0.0412851
-0.00133094
-0.00280897
0.295884
-0.00786144
0.798126
-0.0157058
1.19694
-0.0255304
1.50756
-0.0371371
1.79428
-0.050412
2.07461
-0.0653949
2.36116
-0.0811237
2.66783
-0.0944639
2.98074
-0.0970538
3.29408
-0.0831464
3.03633
-0.0634313
2.37193
-0.0444228
1.87301
-0.0239242
1.45252
-0.00856884
1.05804
0.000579409
0.679673
0.00411334
0.364949
0.00335652
0.156659
0.00135915
0.0432825
2.82016e-05
-0.00358358
0.299468
-0.00899628
0.803539
-0.0169048
1.20485
-0.0268399
1.51749
-0.0384497
1.80589
-0.0514174
2.08757
-0.0659741
2.37572
-0.0820542
2.68391
-0.0984112
2.99709
-0.106491
3.30216
-0.0960663
3.0259
-0.0729087
2.34877
-0.0482495
1.84835
-0.0318678
1.43614
-0.0164746
1.04264
-0.0051206
0.668319
-0.000657558
0.360486
0.000905226
0.155096
0.000678206
0.0435095
0.000706407
-0.00437791
0.303846
-0.0108692
0.81003
-0.0189427
1.21293
-0.0284431
1.52699
-0.0394632
1.81691
-0.051846
2.09996
-0.0660759
2.38995
-0.0825428
2.70037
-0.10102
3.01557
-0.114432
3.31557
-0.109663
3.02113
-0.0898755
2.32898
-0.0641064
1.82258
-0.0380225
1.41005
-0.021142
1.02576
-0.0107049
0.657882
-0.00402853
0.35381
-0.000721531
0.151789
0.000156764
0.0426312
0.00086317
-0.00474591
0.308592
-0.0115083
0.816792
-0.0196943
1.22111
-0.029314
1.53661
-0.0403527
1.82795
-0.052524
2.11213
-0.066424
2.40385
-0.0827982
2.71675
-0.102164
3.03494
-0.120118
3.33353
-0.120789
3.02181
-0.101216
2.30941
-0.0710032
1.79237
-0.0439327
1.38298
-0.0229262
1.00475
-0.00970997
0.644666
-0.0033562
0.347456
-0.000691803
0.149125
6.82299e-05
0.0418712
0.0009314
-0.00511561
0.313707
-0.0126411
0.824318
-0.0209521
1.22942
-0.0302654
1.54593
-0.0408532
1.83854
-0.052578
2.12385
-0.0663292
2.4176
-0.0829505
2.73337
-0.102692
3.05468
-0.122738
3.35357
-0.128722
3.02779
-0.115911
2.2966
-0.0891575
1.76562
-0.0510388
1.34487
-0.0216678
0.975384
-0.00733844
0.630337
0.000600832
0.339517
0.00173875
0.147987
0.000740746
0.0428692
0.00167215
-0.00512111
0.318828
-0.0126595
0.831856
-0.0210636
1.23783
-0.0304842
1.55535
-0.0410038
1.84906
-0.0525148
2.13536
-0.0663197
2.43141
-0.0831765
2.75022
-0.102934
3.07444
-0.123613
3.37425
-0.13399
3.03817
-0.123892
2.2865
-0.0958895
1.73761
-0.0598638
1.30884
-0.0210519
0.936572
0.0044617
0.604823
0.0116889
0.332289
0.00905711
0.150619
0.00315884
0.0487675
0.00483099
-0.00520775
0.324036
-0.0131523
0.839801
-0.0216076
1.24628
-0.030791
1.56453
-0.0407642
1.85903
-0.0518523
2.14645
-0.0659561
2.44551
-0.0834262
2.76769
-0.103208
3.09422
-0.12347
3.39451
-0.136334
3.05103
-0.133697
2.28387
-0.112812
1.71673
-0.0704003
1.26643
-0.0229105
0.889082
0.0170366
0.564876
0.034963
0.314363
0.0296371
0.155945
0.011719
0.0666856
0.01655
-0.00501989
0.329056
-0.0127854
0.847566
-0.0212131
1.25471
-0.0304623
1.57378
-0.0400902
1.86866
-0.0509904
2.15735
-0.0656093
2.46013
-0.0837246
2.78581
-0.103393
3.11388
-0.123237
3.41436
-0.137459
3.06525
-0.13717
2.28358
-0.116637
1.69619
-0.0799094
1.2297
-0.025397
0.83457
0.0312263
0.508253
0.0747067
0.270883
0.0868145
0.143837
0.055255
0.0982451
0.071805
-0.00494466
0.334001
-0.0124649
0.855086
-0.0202293
1.26247
-0.0288309
1.58238
-0.039558
1.87939
-0.0531338
2.17093
-0.0699146
2.47691
-0.0892217
2.80512
-0.109377
3.13404
-0.128039
3.43302
-0.139438
3.07665
-0.140161
2.2843
-0.126495
1.68253
-0.0872499
1.19046
-0.0316179
0.778938
0.0404256
0.436209
0.113157
0.198151
0.160562
0.0964323
0.150063
0.108744
0.221868
-0.00479201
0.338793
-0.0118569
0.862151
-0.0194362
1.27005
-0.0283399
1.59129
-0.0399324
1.89098
-0.0547959
2.18579
-0.0730513
2.49516
-0.0938869
2.82595
-0.116261
3.15641
-0.13842
3.45518
-0.154529
3.09276
-0.157284
2.28705
-0.141222
1.66647
-0.107644
1.15688
-0.0406996
0.711994
0.0219427
0.373567
-0.0368077
0.256901
-0.380877
0.440502
-1.00877
0.736633
0.929465
-1.71636
-0.00471015
0.343503
-0.0119786
0.86942
-0.0197
1.27777
-0.0284994
1.60009
-0.0393404
1.90182
-0.0534593
2.19991
-0.0719797
2.51368
-0.0940118
2.84798
-0.118016
3.18042
-0.143031
3.4802
-0.164124
3.11385
-0.176171
2.2991
-0.174491
1.66479
-0.140095
1.12248
-0.103085
0.674983
-0.230451
0.500934
-0.766807
0.793257
-1.52671
1.20041
-2.1117
1.32162
1.20477
-2.387
-0.0043948
0.347898
-0.0113375
0.876362
-0.0189603
1.2854
-0.0276115
1.60874
-0.0383745
1.91258
-0.0527661
2.2143
-0.0718783
2.5328
-0.0948464
2.87095
-0.120519
3.20609
-0.148902
3.50858
-0.176401
3.14135
-0.194296
2.317
-0.192784
1.66328
-0.179694
1.10939
-0.300469
0.795758
-0.849518
1.04998
-1.63678
1.58052
-2.15316
1.71679
-2.37131
1.53976
1.30724
-2.47379
-0.00390563
0.351803
-0.0111484
0.883605
-0.0186113
1.29286
-0.0267267
1.61685
-0.0372079
1.92307
-0.0517946
2.22889
-0.0714539
2.55246
-0.0953022
2.8948
-0.122756
3.23355
-0.155008
3.54083
-0.188174
3.17452
-0.21889
2.34771
-0.235765
1.68015
-0.320217
1.19384
-0.723853
1.19939
-1.51074
1.83687
-2.06123
2.13102
-2.28507
1.94063
-2.3902
1.64489
1.37352
-2.45647
-0.0030685
0.354872
-0.00892105
0.889458
-0.0157694
1.29971
-0.0244086
1.62549
-0.0362583
1.93492
-0.0517706
2.2444
-0.0715606
2.57225
-0.0956932
2.91893
-0.125058
3.26291
-0.161735
3.57751
-0.203575
3.21636
-0.240389
2.38453
-0.279352
1.71911
-0.514852
1.42934
-1.20743
1.89197
-1.8716
2.50104
-2.15646
2.41588
-2.29004
2.0742
-2.36712
1.72197
1.4308
-2.4244
-0.00272625
0.357598
-0.00752383
0.894255
-0.0142763
1.30646
-0.023936
1.63515
-0.0369561
1.94794
-0.0533047
2.26075
-0.0733825
2.59232
-0.098142
2.94369
-0.129807
3.29457
-0.171518
3.61922
-0.219083
3.26392
-0.266679
2.43212
-0.393218
1.84565
-0.820991
1.85712
-1.57648
2.64746
-1.99927
2.92384
-2.17372
2.59033
-2.26462
2.1651
-2.33495
1.79231
1.4897
-2.39385
-0.00261905
0.360217
-0.00765088
0.899287
-0.0149405
1.31375
-0.0253008
1.64551
-0.0390287
1.96166
-0.0561284
2.27785
-0.0771064
2.6133
-0.103194
2.96978
-0.13734
3.32872
-0.184269
3.66615
-0.239492
3.31915
-0.303072
2.4957
-0.520121
2.0627
-1.14266
2.47966
-1.75758
3.26237
-1.99324
3.1595
-2.1245
2.72158
-2.22453
2.26513
-2.30768
1.87546
1.54801
-2.36598
-0.00295529
0.363172
-0.0090706
0.905402
-0.0170467
1.32173
-0.0275435
1.65601
-0.041372
1.97549
-0.0588507
2.29533
-0.0807129
2.63516
-0.10831
2.99738
-0.145
3.36541
-0.197184
3.71833
-0.257566
3.37953
-0.359011
2.59715
-0.691326
2.39502
-1.38026
3.1686
-1.80853
3.69064
-1.99721
3.34818
-2.12301
2.84739
-2.22155
2.36367
-2.29505
1.94896
1.57735
-2.3244
-0.00321419
0.366387
-0.00956724
0.911755
-0.0181923
1.33035
-0.0293817
1.6672
-0.0437785
1.98989
-0.0618556
2.3134
-0.0846028
2.65791
-0.11367
3.02644
-0.153109
3.40485
-0.209363
3.77458
-0.277952
3.44812
-0.430214
2.74941
-0.867615
2.83242
-1.50666
3.80764
-1.81744
4.00142
-1.97012
3.50087
-2.05937
2.93663
-2.13664
2.44094
-2.18471
1.99703
1.52031
-2.12767
-0.00363209
0.370019
-0.0109227
0.919046
-0.0202166
1.33965
-0.0317742
1.67876
-0.0464432
2.00456
-0.0648916
2.33185
-0.0884241
2.68144
-0.118921
3.05694
-0.160911
3.44684
-0.223328
3.837
-0.316717
3.54151
-0.517881
2.95057
-1.02574
3.34027
-1.55842
4.34032
-1.79099
4.23399
-1.92538
3.63526
-2.00398
3.01523
-2.00871
2.44567
-1.92214
1.91046
1.43397
-1.8358
-0.0035877
0.373606
-0.0108458
0.926304
-0.0206399
1.34944
-0.0330132
1.69113
-0.0484804
2.02002
-0.0675088
2.35088
-0.091413
2.70535
-0.122334
3.08786
-0.165131
3.48964
-0.225137
3.89701
-0.326617
3.64299
-0.56551
3.18947
-1.10942
3.88418
-1.51154
4.74244
-1.66504
4.3875
-1.7401
3.71031
-1.76714
3.04227
-1.63306
2.31158
-1.11365
1.39104
0.32032
-0.00366402
0.37727
-0.0117672
0.934407
-0.0221736
1.35985
-0.0351333
1.70409
-0.0514897
2.03638
-0.0718858
2.37128
-0.0977141
2.73118
-0.131531
3.12168
-0.17865
3.53676
-0.244616
3.96297
-0.365493
3.76386
-0.669592
3.49357
-1.25445
4.46904
-1.57448
5.06247
-1.68205
4.49507
-1.71057
3.73883
-1.604
2.9357
-1.24302
1.95059
-0.471312
0.619341
-0.150993
-0.0033472
0.380618
-0.0110681
0.942128
-0.0220663
1.37084
-0.0361135
1.71814
-0.0537696
2.05404
-0.0756836
2.39319
-0.103637
2.75913
-0.140489
3.15853
-0.191748
3.58802
-0.265647
4.03687
-0.417787
3.916
-0.79627
3.87205
-1.36625
5.03902
-1.59279
5.28901
-1.65891
4.56118
-1.62686
3.70679
-1.36218
2.67102
-0.636044
1.22446
-0.0166672
-3.66576e-05
-0.16766
-0.00277444
0.383392
-0.011577
0.950931
-0.0232016
1.38247
-0.0375894
1.73252
-0.0557829
2.07223
-0.0788748
2.41628
-0.10883
2.78908
-0.148658
3.19836
-0.20321
3.64257
-0.29349
4.12715
-0.4787
4.10121
-0.918573
4.31192
-1.43776
5.55821
-1.59367
5.44492
-1.6281
4.59561
-1.47677
3.55546
-0.970242
2.16449
-0.164569
0.418787
0.0387135
-0.203319
-0.128946
-0.00216398
0.385556
-0.00961658
0.958383
-0.0214348
1.39429
-0.0368871
1.74798
-0.0564184
2.09176
-0.0810412
2.44091
-0.11312
2.82116
-0.15612
3.24136
-0.213826
3.70027
-0.313897
4.22722
-0.525799
4.31312
-1.03875
4.82487
-1.47013
5.98959
-1.57008
5.54487
-1.54486
4.57039
-1.25883
3.26943
-0.498194
1.40386
0.00645797
-0.0858655
0.024384
-0.221245
-0.104562
-0.00118001
0.386736
-0.00909882
0.966302
-0.021057
1.40625
-0.0364414
1.76336
-0.0561132
2.11143
-0.0816278
2.46642
-0.115495
2.85503
-0.161619
3.28748
-0.22343
3.76208
-0.332642
4.33644
-0.577282
4.55776
-1.13207
5.37966
-1.44537
6.30289
-1.49954
5.59904
-1.40689
4.47774
-0.968085
2.83062
-0.152458
0.588234
0.0193788
-0.257702
0.0173487
-0.219215
-0.0872136
0.000942076
0.385794
-0.00480937
0.972054
-0.0164139
1.41785
-0.0325161
1.77946
-0.0533055
2.13222
-0.0800525
2.49317
-0.115632
2.89061
-0.164387
3.33624
-0.229982
3.82768
-0.349148
4.4556
-0.630823
4.83943
-1.18423
5.93306
-1.4045
6.52316
-1.42798
5.62251
-1.20712
4.25688
-0.570093
2.1936
-0.00412704
0.0222678
0.0163344
-0.278163
0.00778368
-0.210665
-0.07943
0.00243682
0.383357
-0.00212002
0.97661
-0.0129234
1.42865
-0.0282331
1.79477
-0.0483575
2.15235
-0.0752707
2.52008
-0.111773
2.92711
-0.161802
3.38627
-0.232844
3.89872
-0.363038
4.5858
-0.676741
5.15313
-1.18504
6.44136
-1.33226
6.67038
-1.30596
5.59622
-0.983648
3.93457
-0.279569
1.48952
-0.0141526
-0.243148
0.00172496
-0.294041
-0.000178406
-0.208761
-0.0796084
0.00662154
0.376736
0.00585786
0.977374
-0.00316313
1.43767
-0.0184431
1.81005
-0.0391092
2.17301
-0.0665465
2.54752
-0.103621
2.96419
-0.154677
3.43732
-0.229125
3.97317
-0.368944
4.72561
-0.705403
5.48959
-1.13983
6.87578
-1.2109
6.74146
-1.15164
5.53695
-0.793093
3.57602
-0.0585797
0.755008
0.0182991
-0.320027
0.0244575
-0.300199
0.0102236
-0.194527
-0.0693848
0.0101953
0.36654
0.0127511
0.974818
0.00620061
1.44423
-0.00697819
1.82323
-0.0256927
2.19173
-0.0520639
2.57389
-0.0886926
3.00082
-0.138415
3.48705
-0.21701
4.05176
-0.365266
4.87387
-0.705177
5.8295
-1.04725
7.21786
-1.0909
6.7851
-0.968385
5.41444
-0.520926
3.12856
0.0674139
0.166668
0.067327
-0.31994
0.0528705
-0.285743
0.0198212
-0.161478
-0.0495636
0.0174803
0.34906
0.0271929
0.965106
0.0249709
1.44645
0.0132591
1.83494
-0.0052261
2.21021
-0.0310327
2.5997
-0.0664187
3.0362
-0.114872
3.5355
-0.190169
4.12706
-0.328095
5.0118
-0.663492
6.1649
-0.921898
7.47627
-0.947352
6.81056
-0.781314
5.2484
-0.300931
2.64818
0.0274472
-0.16171
0.0559194
-0.348413
0.0464096
-0.276233
0.0158411
-0.130909
-0.0337225
0.0246094
0.324451
0.0417506
0.947964
0.0445048
1.44369
0.0369347
1.84251
0.0225952
2.22455
-0.000160536
2.62245
-0.0332347
3.06928
-0.0794238
3.58169
-0.148756
4.1964
-0.272618
5.13566
-0.5793
6.47158
-0.762409
7.65938
-0.772563
6.82071
-0.610316
5.08616
-0.189943
2.22781
-0.0821655
-0.269487
-0.0259736
-0.404604
0.0118098
-0.314016
0.00809866
-0.127198
-0.0256239
0.0366265
0.287824
0.0661488
0.918442
0.0770482
1.43279
0.0734379
1.84612
0.0613863
2.2366
0.0409566
2.64288
0.0123063
3.09793
-0.0294634
3.62346
-0.0926867
4.25962
-0.197558
5.24053
-0.434929
6.70895
-0.563378
7.78782
-0.582499
6.83983
-0.449425
4.95308
-0.108211
1.88659
-0.100097
-0.277601
-0.0591924
-0.445509
-0.0124936
-0.360715
0.0111889
-0.150881
-0.0144349
0.0489197
0.238904
0.0924433
0.874919
0.112418
1.41282
0.116679
1.84186
0.112574
2.24071
0.0985259
2.65693
0.0753641
3.12109
0.0391205
3.6597
-0.0178525
4.31659
-0.112382
5.33506
-0.235612
6.83218
-0.322693
7.87491
-0.342211
6.85935
-0.2673
4.87817
-0.093914
1.7132
-0.155892
-0.215623
-0.123814
-0.477587
-0.0633318
-0.421197
0.00847279
-0.222685
-0.00596216
0.0642027
0.174702
0.12719
0.811931
0.1644
1.37561
0.178936
1.82733
0.180291
2.23935
0.171038
2.66618
0.154817
3.13731
0.128019
3.6865
0.0889621
4.35565
0.0440762
5.37995
0.0116785
6.86458
-0.0134812
7.90007
-0.0536198
6.89949
-0.0947961
4.91935
-0.119279
1.73769
-0.294293
-0.040609
-0.266085
-0.505795
-0.174664
-0.512619
-0.0341227
-0.363226
-0.0400849
0.0660874
0.108614
0.161177
0.716841
0.222633
1.31415
0.254462
1.7955
0.267836
2.22598
0.268607
2.66541
0.259694
3.14622
0.243583
3.70261
0.219301
4.37993
0.212567
5.38668
0.285808
6.79134
0.321197
7.86468
0.329542
6.89114
0.193439
5.05545
-0.0689454
2.00007
-0.379801
0.270247
-0.419262
-0.466334
-0.317143
-0.614738
-0.140254
-0.540115
-0.180339
0.0566166
0.0519977
0.19778
0.575678
0.30052
1.21141
0.352008
1.74401
0.374192
2.2038
0.384397
2.65521
0.38396
3.14666
0.385427
3.70114
0.373172
4.39219
0.358145
5.40171
0.563473
6.58601
0.74809
7.68006
0.823122
6.81611
0.715274
5.1633
0.169667
2.54568
-0.159971
0.599885
-0.309811
-0.316494
-0.304143
-0.620407
-0.189101
-0.655157
-0.36944
0.0423463
0.00965138
0.242701
0.375324
0.379592
1.07452
0.461906
1.6617
0.508091
2.15761
0.535076
2.62822
0.547977
3.13376
0.561803
3.68732
0.579057
4.37493
0.621929
5.35883
0.911697
6.29624
1.27918
7.31258
1.48165
6.61364
1.43737
5.20758
0.769821
3.21323
0.289687
1.08002
-0.0149941
-0.0118125
-0.174734
-0.460667
-0.150565
-0.679326
-0.520005
0.0255728
-0.0159215
0.238976
0.16192
0.469335
0.844162
0.60171
1.52932
0.669731
2.08959
0.708175
2.58978
0.737117
3.10482
0.760966
3.66347
0.815257
4.32064
0.927612
5.24648
1.32351
5.90035
1.85616
6.77993
2.14991
6.31989
2.23914
5.11835
1.88054
3.57184
1.14438
1.81617
0.549699
0.582871
0.154559
-0.0655264
-0.001472
-0.523295
-0.521477
0.0217604
-0.0376819
0.162953
0.0207274
0.523323
0.483792
0.751965
1.30068
0.865445
1.97611
0.927426
2.5278
0.974191
3.05805
1.00874
3.62892
1.08413
4.24525
1.24218
5.08843
1.66147
5.48106
2.35077
6.09063
2.69582
5.97484
2.85121
4.96296
2.61059
3.81245
1.90391
2.52285
1.19209
1.29469
0.635368
0.491201
0.214477
-0.102405
-0.307
0.00224892
-0.0399308
0.0712558
-0.0482795
0.40547
0.149578
0.750025
0.956124
0.929272
1.79686
0.988671
2.4684
1.0022
3.04452
1.00037
3.63075
1.01844
4.22719
1.07589
5.03098
1.29863
5.25832
1.86309
5.52617
1.83047
6.00746
1.90221
4.89121
1.78927
3.9254
1.41435
2.89776
0.901239
1.80781
0.498677
0.893762
0.193208
0.203064
-0.113791
0.000620742
-0.0405515
0.031845
-0.0795037
0.183456
-0.00203308
0.572919
0.566661
0.796727
1.57306
0.888289
2.37684
0.912666
3.02014
0.91406
3.62935
0.89386
4.24739
0.924511
5.00033
1.03022
5.15261
1.32333
5.23305
1.57315
5.75763
1.58949
4.87487
1.53684
3.97805
1.3406
3.094
0.967521
2.18089
0.576087
1.2852
0.226009
0.553142
0.112217
-0.00561041
-0.0349411
-0.00209101
-0.0830231
0.055524
-0.0596481
0.377499
0.244685
0.642743
1.30781
0.763379
2.2562
0.797473
2.98605
0.804371
3.62245
0.78159
4.27017
0.779676
5.00224
0.823528
5.10876
1.05694
4.99964
1.27687
5.5377
1.26292
4.88883
1.20457
4.0364
1.06182
3.23675
0.812706
2.43
0.50358
1.59432
0.203857
0.852865
0.316074
-0.0066764
-0.0282647
-0.00558766
-0.0841119
0.0315878
-0.0968236
0.21315
0.0631228
0.495093
1.02587
0.643132
2.10816
0.681376
2.94781
0.680172
3.62366
0.654383
4.29596
0.637451
5.01917
0.652362
5.09385
0.798476
4.85353
0.978894
5.35728
0.952656
4.91506
0.885332
4.10373
0.773728
3.34836
0.605875
2.59785
0.389927
1.81027
0.164867
1.07792
0.480941
-0.00705198
-0.0212127
0.00233168
-0.0934955
0.0321896
-0.126681
0.122876
-0.027564
0.383024
0.765722
0.52482
1.96637
0.564679
2.90795
0.557068
3.63127
0.532599
4.32042
0.516127
5.03565
0.509246
5.10073
0.574949
4.78782
0.680775
5.25146
0.663727
4.93211
0.596758
4.1707