/*--------------------------------*- C++ -*----------------------------------*\
  =========                 |
  \\      /  F ield         | OpenFOAM: The Open Source CFD Toolbox
   \\    /   O peration     | Website:  https://openfoam.org
    \\  /    A nd           | Version:  6
     \\/     M anipulation  |
\*---------------------------------------------------------------------------*/
FoamFile
{
    version     2.0;
    format      ascii;
    class       volScalarField;
    location    "74";
    object      p;
}
// * * * * * * * * * * * * * * * * * * * * * * * * * * * * * * * * * * * * * //

dimensions      [0 2 -2 0 0 0 0];

internalField   nonuniform List<scalar> 
918
(
0.53361
1.23094
0.0062149
0.533526
-0.0114704
1.1987
-0.505394
0.629491
0.514763
-0.123246
-0.0828177
0.5174
1.05556
0.823983
-1.16938
-0.0214204
0.628433
-0.418565
0.512816
-0.0776848
0.651331
0.521436
0.523901
0.514686
0.577866
0.777093
0.932879
-0.00355257
0.0106948
0.00547534
-0.0128297
-0.0330925
-0.0294333
1.08183
1.13376
1.15694
0.481232
0.314458
-0.400526
-0.454956
-0.433055
-0.522589
0.628986
0.629797
-0.229501
0.630219
0.631197
0.500442
0.514158
0.514995
0.516115
0.515024
0.516302
0.387698
-0.129791
-0.156522
-0.108542
-0.107696
0.0286039
-0.0847653
-0.0862517
-0.0811326
-0.0787894
0.430132
0.512472
0.508581
0.521428
0.530855
1.17112
1.1449
1.17099
1.0813
1.09903
1.0326
1.00562
0.844494
0.867765
0.80843
0.794774
-1.62469
-2.56941
-0.593444
-0.318061
-0.0105145
-0.0228084
-0.0213824
0.62413
0.626918
0.627045
0.629975
1.03662
-0.390794
-0.462875
0.513352
0.511875
0.520963
0.521868
0.516832
0.516832
-0.0734779
-0.0717492
-0.0658619
-0.0757954
-0.0753425
0.637884
0.637378
0.514121
0.511563
0.539269
0.56325
0.551208
0.247102
0.58784
0.604082
0.641099
0.787607
0.774172
0.787135
0.908184
0.876752
0.96426
0.985938
0.0139975
-0.00133035
-0.0230709
-0.0215254
-0.0217603
0.476963
0.470514
0.498724
0.484861
0.487911
0.21985
0.0698143
0.396564
0.42013
-0.324381
-0.374547
-0.459982
-0.458628
-0.56594
0.599435
0.630826
0.630655
-0.241127
-0.168678
-0.296384
-0.110694
-0.168063
0.491376
0.497641
0.493709
0.509113
0.503275
0.505702
0.518231
0.515412
0.517007
0.44613
0.57659
0.305459
0.27766
-0.278948
-0.174293
-0.259113
-0.100113
-0.0992996
0.0390715
0.0687024
0.0154233
0.00277692
-0.0936818
-0.0887399
-0.0920139
-0.0754811
-0.0749919
0.421538
0.408445
0.441412
0.448958
0.497994
0.499412
0.504203
0.502107
0.956414
0.979482
0.985469
0.961552
-3.54473
-6.17278
0.0247248
0.183168
-0.00927549
-0.0106553
3.54514e-05
-0.00995
-0.000653433
-0.00273691
-0.0302589
-0.0302524
-0.0242052
-0.0251015
0.622681
0.62415
1.00275
1.02952
0.976504
0.950607
0.502712
0.504586
0.509206
0.506088
-0.07356
-0.0721675
-0.0736359
0.63164
0.635096
0.633008
0.2057
0.116517
0.298826
0.330146
0.618973
0.607756
0.617687
0.70049
0.740949
1.00315
1.02702
1.01126
1.0242
1.07503
1.09798
1.0629
0.455464
0.466431
0.460677
0.501586
0.499402
0.500345
0.496994
0.49788
0.49656
-0.0414035
-0.41258
0.469718
0.470977
0.462754
0.465863
0.686102
0.769559
0.627839
0.629641
0.630352
-0.0590185
-0.106131
0.236619
0.20753
0.360387
0.395145
0.376889
0.93206
0.892516
0.940321
0.915663
0.880149
0.903527
-0.348723
-2.10895
-1.10557
0.582366
0.385842
0.477451
-0.0138456
-0.0299858
-0.0268217
1.01946
1.05915
0.646158
0.839756
0.791416
0.764458
0.790843
0.851671
0.786399
0.819105
0.848511
0.823722
0.549273
0.479868
0.497598
0.844692
0.900166
0.0787303
-0.000619084
-0.0236103
0.093259
0.165655
0.132695
1.0355
0.953118
1.0154
0.511805
0.512757
-0.0179453
-0.0414225
0.51688
0.516591
-0.0218787
-0.0119145
0.493035
-0.936868
0.080069
0.50642
0.496021
0.512877
-0.102874
0.319243
-0.0858741
0.00877871
-0.0238367
0.508484
0.442522
0.40001
-0.00681232
-0.0305763
-0.0701101
-0.215873
0.509543
0.507901
0.512264
0.51308
0.513859
-0.0269825
-0.0267589
-0.01842
-0.0642722
-0.0593584
-0.0691301
0.476098
0.496446
-0.197322
0.512559
0.514664
0.514359
0.508581
0.513509
0.512145
-0.0224351
-0.026308
-0.0278276
0.185374
0.326841
0.676325
0.751197
0.625492
0.458898
0.16713
0.613053
0.66498
0.590229
0.721196
0.627193
0.627285
0.146924
0.00275362
0.150989
0.0840976
0.503254
0.502707
0.493543
0.490406
0.507711
0.505388
0.510585
0.507828
0.511001
0.512145
-0.0569904
-0.0884445
-0.104383
-0.147867
0.290642
0.544668
0.212302
0.241607
0.149006
-0.0750142
-0.0801289
-0.0819851
-0.0872477
-0.0419914
-0.0428126
0.00240941
0.0121391
-0.0044786
-0.0302674
-0.050165
-0.0436469
-0.0518126
0.501395
0.501545
0.505714
0.513928
0.452193
0.455906
0.422082
0.440903
0.427018
0.366761
0.396683
0.37377
-0.0179391
-0.00792357
-0.0099822
-0.0311034
-0.0302241
-0.0515627
-0.0443501
-0.0423598
-0.0387097
-0.0438056
-0.0650654
-0.0699779
-0.179802
-0.299933
0.94804
0.890849
0.132665
0.499433
0.505105
0.502269
0.507018
0.510214
0.510841
0.508405
0.504892
0.496526
0.498038
0.494656
0.495785
-0.135488
-0.245466
-0.0764238
-0.152825
0.142592
0.609343
0.334189
0.278862
0.264195
0.491487
0.690656
0.5995
0.654849
0.630862
-0.397022
0.00320247
-0.330659
0.215615
0.210286
0.701896
0.74349
0.761567
0.718791
0.675051
-0.0292601
0.542826
-0.0805563
-0.0289088
0.162738
0.0445096
0.620271
0.613722
0.621212
0.622426
0.628733
0.620804
0.606034
0.600518
0.620342
0.624743
0.485614
0.213716
0.170203
0.124417
0.61502
0.507983
0.557302
0.477151
0.498959
0.501334
0.500306
0.480909
0.488286
0.483933
0.491205
0.494904
0.502202
0.5024
0.498207
0.50014
-0.0818715
-0.0899165
-0.0688719
-0.129664
-0.133939
-0.177643
-0.0883373
0.0875134
0.0332739
0.225305
0.334675
0.0659607
-0.0568447
-0.0388769
0.0119252
0.175251
0.171727
0.0451122
0.155451
0.111587
0.104784
0.192736
0.215481
-0.054637
-0.0603459
-0.060222
-0.0652959
-0.0158068
0.101658
0.075755
-0.0304035
-0.0379609
-0.0747837
-0.0719296
-0.00713903
-0.0442077
-0.0364789
-0.0106072
-0.0586228
-0.0332727
-0.0235114
-0.0297769
-0.0316192
-0.0309105
0.495608
0.497881
0.497721
0.506463
0.518875
0.534482
0.499187
0.473487
0.464483
0.467592
0.440478
0.449745
0.444955
0.460832
0.482539
0.49125
0.489169
0.491914
0.473806
0.475442
0.460798
0.465478
0.434423
0.415716
0.405437
-0.0554043
-0.0229144
-0.0363696
-0.0486655
-0.0236687
-0.0329015
-0.0317165
-0.0128126
-0.0322421
-0.0276133
-0.0372676
-0.0419751
-0.0428257
-0.0818718
0.000291242
-0.185052
-0.232637
-0.286277
0.87151
1.01123
0.797026
0.557217
0.57385
0.818049
0.926284
0.529351
0.745346
0.754709
0.567204
0.856439
0.503382
0.502969
0.500833
0.500003
0.501
-0.0232933
0.0804797
0.0911247
0.150977
0.266882
0.372369
0.304479
0.190987
0.323508
0.34802
0.606812
0.613292
0.572608
0.594374
0.595176
0.401455
0.481949
0.518858
0.477643
0.551196
0.583994
0.53098
0.573918
0.4942
0.444698
0.435936
0.390801
0.425488
0.406429
0.380794
0.494867
0.471552
0.482463
0.472348
0.494771
0.520011
0.520102
0.541005
0.560869
0.473136
0.418955
0.436095
0.464855
0.420735
0.438316
0.460405
0.179177
0.0817528
0.24411
-0.0831461
0.0020004
0.04176
-0.00117059
-0.0427939
0.263887
-0.373156
-0.31999
-0.996057
0.488724
0.831786
0.566117
0.577588
0.628868
0.617887
0.628092
0.633331
0.634337
0.602521
0.610797
0.616038
0.582185
0.60311
0.600298
0.60739
0.490655
0.390492
0.393277
0.32476
0.184998
0.226715
0.41811
0.349966
0.275114
0.267321
0.443305
0.308266
0.387797
0.437823
0.360841
0.296786
0.523128
0.57112
0.563936
0.534909
0.415901
0.448795
0.450671
0.500871
0.54413
0.569275
0.489732
0.496062
0.496968
0.494224
0.492592
0.495735
0.496025
0.498337
0.498483
0.501086
0.500574
-0.0795017
-0.0641094
-0.0786671
-0.0872774
-0.0202952
-0.0295392
-0.00416541
-0.0280532
-0.0365031
-0.0325819
-0.047664
-0.0644116
-0.0625189
-0.0522637
0.0594198
0.0713246
0.0880297
0.0447314
0.256577
0.39218
0.480678
0.364783
0.201398
0.227679
0.295073
0.0158718
0.00801091
-0.00630254
0.0620258
0.0497487
-0.0644791
-0.0693793
-0.0632742
-0.0522329
-0.0459735
-0.0633959
-0.0654385
-0.0550329
-0.0616941
-0.0666573
-0.0695508
0.475166
0.46806
0.471654
0.464042
0.462218
0.479196
0.483815
0.484877
0.490545
0.493235
0.48252
0.488605
0.492866
-0.0326002
-0.0491654
-0.049368
-0.0498542
-0.0476766
-0.0453972
-0.0490387
0.118509
0.0258759
0.0612955
-0.00855122
-0.135351
-0.0756222
0.492625
0.486794
0.475214
0.711452
0.547307
0.466703
0.566072
0.686387
0.265851
0.465167
0.300347
0.877271
0.784528
0.929856
0.544764
0.246478
0.415718
0.424446
0.26651
0.390147
0.331281
0.207246
0.242536
0.277527
0.360939
0.246911
0.226248
-0.0162564
0.165272
0.274736
0.256787
0.383647
0.440358
0.256266
0.172072
0.118495
0.588626
0.604614
0.612075
0.584438
0.605067
0.564172
0.553001
0.570304
0.578279
0.573196
-0.630371
-0.218666
-1.41856
-0.833026
-0.381412
0.516358
0.518003
0.740494
0.64331
0.654721
0.636455
0.582395
0.555303
0.597255
0.609743
0.313764
0.39859
0.385915
0.361658
0.307417
0.249768
0.522289
0.531574
0.55468
0.581428
0.556674
0.584553
0.488503
0.488358
0.487005
0.483255
0.481761
0.485045
0.0131296
-0.0111897
0.0225319
0.0140825
-0.00816446
-0.0118197
-0.0383401
-0.049548
-0.0505041
-0.0475339
-0.0372999
-0.0356542
0.164997
0.102882
0.0151014
0.0559073
-0.0107832
-0.0896823
-0.0942302
-0.00326983
0.0961887
0.0774443
0.380516
0.648227
0.474049
0.639079
0.438649
0.535613
0.457598
0.431023
0.458686
0.363089
0.453323
0.0473919
-0.154874
-0.209822
0.81209
0.773031
0.553154
0.310853
0.191781
0.483111
0.504179
0.464307
0.490566
0.540952
0.523733
0.01771
0.104321
0.192381
0.497609
0.272779
0.291313
0.281175
0.44809
0.416713
)
;

boundaryField
{
    wall-4
    {
        type            zeroGradient;
    }
    velocity-inlet-5
    {
        type            zeroGradient;
    }
    velocity-inlet-6
    {
        type            zeroGradient;
    }
    pressure-outlet-7
    {
        type            fixedValue;
        value           uniform 0;
    }
    wall-8
    {
        type            zeroGradient;
    }
    frontAndBackPlanes
    {
        type            empty;
    }
}


// ************************************************************************* //
