/*--------------------------------*- C++ -*----------------------------------*\
  =========                 |
  \\      /  F ield         | OpenFOAM: The Open Source CFD Toolbox
   \\    /   O peration     | Website:  https://openfoam.org
    \\  /    A nd           | Version:  6
     \\/     M anipulation  |
\*---------------------------------------------------------------------------*/
FoamFile
{
    version     2.0;
    format      ascii;
    class       volVectorField;
    location    "28.4";
    object      U;
}
// * * * * * * * * * * * * * * * * * * * * * * * * * * * * * * * * * * * * * //

dimensions      [0 1 -1 0 0 0 0];

internalField   nonuniform List<vector> 
8800
(
(0.987189 -0.0766657 0)
(1.0019 -0.055189 0)
(0.999752 -0.0285465 0)
(1.00004 -0.01514 0)
(1.00005 -0.00853529 0)
(1.00002 -0.00502996 0)
(1.00001 -0.00298956 0)
(0.999999 -0.00170463 0)
(0.999995 -0.000823695 0)
(1.00005 -0.000128989 0)
(0.999991 0.000574931 0)
(1 0.00133593 0)
(1.00001 0.00237543 0)
(1.00002 0.00396878 0)
(1.00004 0.00660758 0)
(1.00007 0.0113504 0)
(0.999979 0.0207958 0)
(0.999176 0.038654 0)
(1.00709 0.07245 0)
(0.771216 0.0366596 0)
(0.363047 -0.0160192 0)
(1.04329 -0.0768284 0)
(1.08461 -0.0704697 0)
(1.04522 -0.0535682 0)
(1.02325 -0.0389073 0)
(1.01189 -0.0262151 0)
(1.00627 -0.0168642 0)
(1.00349 -0.0103874 0)
(1.00208 -0.00579329 0)
(1.00142 -0.00218041 0)
(1.0013 0.00112526 0)
(1.00167 0.0045115 0)
(1.00264 0.00843592 0)
(1.0046 0.0137708 0)
(1.00856 0.0214933 0)
(1.01658 0.0324917 0)
(1.03257 0.0464427 0)
(1.06275 0.0615914 0)
(1.0919 0.07604 0)
(0.838764 0.0565384 0)
(0.216785 -0.00243118 0)
(1.07586 -0.0501644 0)
(1.09988 -0.0483629 0)
(1.06461 -0.0405393 0)
(1.03991 -0.033708 0)
(1.02373 -0.0262113 0)
(1.01395 -0.0186555 0)
(1.00844 -0.0118635 0)
(1.00554 -0.00602649 0)
(1.00433 -0.00071105 0)
(1.00471 0.00444242 0)
(1.00662 0.00985151 0)
(1.01061 0.0160183 0)
(1.01795 0.0231222 0)
(1.03057 0.0306273 0)
(1.05073 0.0376738 0)
(1.0805 0.0443723 0)
(1.10643 0.051215 0)
(0.9428 0.04155 0)
(0.216336 0.00245156 0)
(0.175085 -0.000817146 0)
(1.0176 -0.0355085 0)
(1.10516 -0.0414133 0)
(1.07817 -0.0360873 0)
(1.05326 -0.030132 0)
(1.03592 -0.0245738 0)
(1.02375 -0.0189633 0)
(1.0157 -0.0130303 0)
(1.01091 -0.00695524 0)
(1.00879 -0.000689397 0)
(1.0094 0.00554735 0)
(1.0127 0.0115246 0)
(1.01889 0.0173516 0)
(1.0288 0.0229231 0)
(1.0433 0.0282505 0)
(1.06389 0.0338092 0)
(1.0938 0.0398794 0)
(1.09377 0.0417316 0)
(0.827797 0.0228115 0)
(0.174331 0.000840517 0)
(0.15386 -0.000610812 0)
(0.955995 -0.0254764 0)
(1.10335 -0.035184 0)
(1.08754 -0.0327525 0)
(1.06143 -0.0281508 0)
(1.04372 -0.0231613 0)
(1.03125 -0.0179715 0)
(1.02246 -0.0125509 0)
(1.01676 -0.00673628 0)
(1.01406 -0.000404899 0)
(1.01481 0.00592185 0)
(1.0188 0.0117747 0)
(1.02582 0.0171131 0)
(1.03616 0.0221398 0)
(1.05084 0.0269979 0)
(1.07219 0.0315782 0)
(1.10048 0.035556 0)
(1.06876 0.0337082 0)
(0.740736 0.0141731 0)
(0.152731 0.000637423 0)
(0.139481 -0.000465638 0)
(0.899073 -0.0190684 0)
(1.09556 -0.0300705 0)
(1.09542 -0.0291774 0)
(1.0688 -0.0254675 0)
(1.05036 -0.0214169 0)
(1.03749 -0.0168285 0)
(1.02843 -0.0117647 0)
(1.0224 -0.00620208 0)
(1.01941 9.29777e-07 0)
(1.02015 0.00622414 0)
(1.02436 0.0118005 0)
(1.03156 0.0167537 0)
(1.04214 0.0212491 0)
(1.05732 0.0252483 0)
(1.07954 0.0287858 0)
(1.10284 0.0315358 0)
(1.03723 0.0276477 0)
(0.674978 0.0100171 0)
(0.137893 0.000496366 0)
(0.12895 -0.00035958 0)
(0.849516 -0.0146598 0)
(1.08315 -0.0259018 0)
(1.10112 -0.0262274 0)
(1.07554 -0.0229717 0)
(1.0564 -0.0194339 0)
(1.04304 -0.0154179 0)
(1.03366 -0.010732 0)
(1.0274 -0.00541159 0)
(1.02425 0.000526119 0)
(1.02492 0.00645491 0)
(1.02913 0.0117239 0)
(1.03645 0.0162897 0)
(1.04732 0.0201917 0)
(1.06307 0.023546 0)
(1.08592 0.0265843 0)
(1.10235 0.0284681 0)
(1.00317 0.0229488 0)
(0.62424 0.00758491 0)
(0.126805 0.000395648 0)
(0.120959 -0.000276213 0)
(0.807606 -0.0114242 0)
(1.06773 -0.0221412 0)
(1.10429 -0.0234775 0)
(1.0815 -0.0207727 0)
(1.06207 -0.0174989 0)
(1.04838 -0.0137677 0)
(1.03866 -0.00941569 0)
(1.03212 -0.00444958 0)
(1.02873 0.00114418 0)
(1.0293 0.0067143 0)
(1.03353 0.0115346 0)
(1.04102 0.0156189 0)
(1.05213 0.0190851 0)
(1.06809 0.0220857 0)
(1.09112 0.0247602 0)
(1.09886 0.0257223 0)
(0.969163 0.0191384 0)
(0.584109 0.00595716 0)
(0.11814 0.000319319 0)
(0.114835 -0.000210083 0)
(0.772687 -0.00893948 0)
(1.05114 -0.0187493 0)
(1.10649 -0.0206898 0)
(1.08701 -0.018209 0)
(1.06716 -0.0151582 0)
(1.05325 -0.0118269 0)
(1.04328 -0.00792927 0)
(1.03648 -0.00336065 0)
(1.03288 0.00191346 0)
(1.03324 0.00712512 0)
(1.03746 0.0114804 0)
(1.045 0.014981 0)
(1.05618 0.0178756 0)
(1.07241 0.0204292 0)
(1.09528 0.0228753 0)
(1.09306 0.0232314 0)
(0.936794 0.0160549 0)
(0.55171 0.00478742 0)
(0.111195 0.000262249 0)
(0.110165 -0.000156895 0)
(0.743903 -0.00694543 0)
(1.03422 -0.0156526 0)
(1.10775 -0.018195 0)
(1.09224 -0.0161617 0)
(1.07197 -0.013257 0)
(1.05779 -0.0100272 0)
(1.04777 -0.00626111 0)
(1.04086 -0.00196685 0)
(1.03706 0.00284861 0)
(1.03722 0.00750407 0)
(1.04122 0.01138 0)
(1.04857 0.0144995 0)
(1.0597 0.01708 0)
(1.07628 0.0193826 0)
(1.09831 0.0214332 0)
(1.08514 0.0209961 0)
(0.906685 0.0135209 0)
(0.525178 0.00390974 0)
(0.105528 0.000220015 0)
(0.106675 -0.000110692 0)
(0.720704 -0.00526654 0)
(1.01806 -0.0126979 0)
(1.10787 -0.0154508 0)
(1.09704 -0.0138307 0)
(1.07668 -0.0111948 0)
(1.06227 -0.00811042 0)
(1.052 -0.00449168 0)
(1.04483 -0.000485832 0)
(1.04071 0.00394809 0)
(1.04064 0.0082077 0)
(1.04447 0.0115846 0)
(1.05175 0.0142479 0)
(1.06296 0.0164959 0)
(1.07967 0.0184048 0)
(1.09986 0.0199077 0)
(1.07557 0.0187917 0)
(0.879383 0.011401 0)
(0.503281 0.00323003 0)
(0.100812 0.000188072 0)
(0.104205 -6.83551e-05 0)
(0.702528 -0.00377626 0)
(1.00345 -0.00988292 0)
(1.10738 -0.0126151 0)
(1.10134 -0.0111405 0)
(1.08087 -0.00857233 0)
(1.0661 -0.00576372 0)
(1.05549 -0.00251903 0)
(1.04812 0.00118476 0)
(1.04382 0.005283 0)
(1.04334 0.00908099 0)
(1.04679 0.0119769 0)
(1.05395 0.0140608 0)
(1.06522 0.0156378 0)
(1.08209 0.0171036 0)
(1.10034 0.018312 0)
(1.06505 0.0167335 0)
(0.85495 0.00961503 0)
(0.485097 0.00268603 0)
(0.0968388 0.000164075 0)
(0.10266 -3.11579e-05 0)
(0.689095 -0.002395 0)
(0.990949 -0.00710659 0)
(1.10658 -0.00966401 0)
(1.10548 -0.00842866 0)
(1.08499 -0.00607171 0)
(1.06995 -0.00337838 0)
(1.05921 -0.000236011 0)
(1.05143 0.00324824 0)
(1.04661 0.00695113 0)
(1.04579 0.0102309 0)
(1.04904 0.0125822 0)
(1.05593 0.0141484 0)
(1.06708 0.0153238 0)
(1.08423 0.0162478 0)
(1.10013 0.016942 0)
(1.05392 0.0147822 0)
(0.833407 0.00806005 0)
(0.470043 0.00225202 0)
(0.0934354 0.000148745 0)
(0.101981 8.4511e-06 0)
(0.680181 -0.00106641 0)
(0.980876 -0.00434717 0)
(1.10535 -0.00662946 0)
(1.10896 -0.00578768 0)
(1.08888 -0.00367281 0)
(1.07366 -0.00097897 0)
(1.06277 0.00212443 0)
(1.05486 0.00547849 0)
(1.04968 0.00895705 0)
(1.04827 0.0118563 0)
(1.05087 0.0137233 0)
(1.0573 0.014799 0)
(1.06823 0.0153934 0)
(1.08514 0.0159124 0)
(1.09847 0.0158974 0)
(1.04223 0.0130093 0)
(0.81465 0.00673464 0)
(0.457647 0.00189954 0)
(0.090468 0.000136878 0)
(0.102233 5.50778e-05 0)
(0.675719 0.000194891 0)
(0.973669 -0.00157882 0)
(1.10406 -0.00324469 0)
(1.11187 -0.00241793 0)
(1.09247 -0.000413991 0)
(1.07705 0.00215969 0)
(1.06573 0.00510223 0)
(1.05729 0.00823036 0)
(1.05148 0.0114203 0)
(1.04941 0.013912 0)
(1.05153 0.0150848 0)
(1.05771 0.0154492 0)
(1.06838 0.0154976 0)
(1.08502 0.0152554 0)
(1.09537 0.0146175 0)
(1.03037 0.0113712 0)
(0.798504 0.00565394 0)
(0.447487 0.00162772 0)
(0.087911 0.000122368 0)
(0.103457 9.91424e-05 0)
(0.675414 0.00124665 0)
(0.969627 0.000791541 0)
(1.1036 -0.000140449 0)
(1.11495 0.000801124 0)
(1.09613 0.0028279 0)
(1.0806 0.00546842 0)
(1.06919 0.00846941 0)
(1.06046 0.0115796 0)
(1.05407 0.0144701 0)
(1.05109 0.016391 0)
(1.05229 0.0170886 0)
(1.05766 0.0168949 0)
(1.06793 0.0162403 0)
(1.08408 0.0156245 0)
(1.09139 0.0143919 0)
(1.01857 0.0106363 0)
(0.784289 0.00526301 0)
(0.438561 0.00159964 0)
(0.0855956 0.000123672 0)
(0.105383 0.000132351 0)
(0.678004 0.00200829 0)
(0.968557 0.00276574 0)
(1.10402 0.0025143 0)
(1.11815 0.00363706 0)
(1.09985 0.00580825 0)
(1.08407 0.00873326 0)
(1.07222 0.0119932 0)
(1.06284 0.0153091 0)
(1.05552 0.0182027 0)
(1.05158 0.0198676 0)
(1.05195 0.0201106 0)
(1.05666 0.0194156 0)
(1.0664 0.0182449 0)
(1.08215 0.0169679 0)
(1.08613 0.0150307 0)
(1.00652 0.0107843 0)
(0.770915 0.0055156 0)
(0.429558 0.0017803 0)
(0.0831727 0.000139596 0)
(0.10801 0.000170711 0)
(0.683571 0.00280436 0)
(0.970273 0.004534 0)
(1.10546 0.00520268 0)
(1.12172 0.00653842 0)
(1.10403 0.00897127 0)
(1.08819 0.0123338 0)
(1.07597 0.0160571 0)
(1.06586 0.0197672 0)
(1.05742 0.0228293 0)
(1.0522 0.0243431 0)
(1.05138 0.0241186 0)
(1.05512 0.0227892 0)
(1.06416 0.0211016 0)
(1.07902 0.0191749 0)
(1.07964 0.0164933 0)
(0.993958 0.0117239 0)
(0.757275 0.00629623 0)
(0.419431 0.00210612 0)
(0.0803559 0.00016788 0)
(0.11143 0.000220701 0)
(0.691879 0.00370136 0)
(0.974867 0.00643961 0)
(1.10854 0.00824688 0)
(1.12586 0.0102391 0)
(1.10886 0.0132688 0)
(1.09291 0.0171838 0)
(1.0801 0.0214158 0)
(1.069 0.0254332 0)
(1.05918 0.0285713 0)
(1.05231 0.0297601 0)
(1.05012 0.0289376 0)
(1.05277 0.0269464 0)
(1.06094 0.0244473 0)
(1.07477 0.0217859 0)
(1.0719 0.0184758 0)
(0.980766 0.0133604 0)
(0.742194 0.00742369 0)
(0.407527 0.00250974 0)
(0.0769896 0.000202123 0)
(0.115864 0.000288546 0)
(0.703165 0.00488574 0)
(0.982741 0.00869331 0)
(1.11432 0.0117385 0)
(1.13164 0.0149251 0)
(1.11471 0.0189961 0)
(1.09831 0.0236928 0)
(1.08464 0.0284764 0)
(1.0722 0.0327465 0)
(1.06064 0.035678 0)
(1.05186 0.036144 0)
(1.04809 0.0344286 0)
(1.04947 0.0315832 0)
(1.05663 0.0283938 0)
(1.06935 0.0250948 0)
(1.06338 0.0213326 0)
(0.966549 0.015725 0)
(0.724706 0.0087627 0)
(0.3935 0.00295739 0)
(0.0729754 0.000240333 0)
(0.121672 0.000384909 0)
(0.718134 0.00653109 0)
(0.993794 0.0115978 0)
(1.12297 0.015641 0)
(1.13976 0.0199771 0)
(1.12214 0.02531 0)
(1.10474 0.0311282 0)
(1.08971 0.0366845 0)
(1.07553 0.0414819 0)
(1.06174 0.0444468 0)
(1.05066 0.0443678 0)
(1.04505 0.0417237 0)
(1.0452 0.0377691 0)
(1.0516 0.0338488 0)
(1.06318 0.030063 0)
(1.05382 0.0257716 0)
(0.949484 0.0187678 0)
(0.704059 0.0102211 0)
(0.377204 0.00346178 0)
(0.0682627 0.000281887 0)
(0.129348 0.000520003 0)
(0.737855 0.00881272 0)
(1.00798 0.0154754 0)
(1.13396 0.0203068 0)
(1.14996 0.0254735 0)
(1.13151 0.0320675 0)
(1.11253 0.0391011 0)
(1.09571 0.0459072 0)
(1.07932 0.0517259 0)
(1.06277 0.0552719 0)
(1.04902 0.0552291 0)
(1.04121 0.0521839 0)
(1.03968 0.0476177 0)
(1.04519 0.0426285 0)
(1.0557 0.0377948 0)
(1.04109 0.0314916 0)
(0.927843 0.0220195 0)
(0.680134 0.0118734 0)
(0.358344 0.00406047 0)
(0.0627578 0.000329634 0)
(0.139674 0.000733267 0)
(0.76407 0.0121902 0)
(1.02634 0.0211292 0)
(1.14675 0.027011 0)
(1.1619 0.0328428 0)
(1.1426 0.0404 0)
(1.12212 0.0487974 0)
(1.10315 0.0572325 0)
(1.08394 0.0643295 0)
(1.06411 0.0685755 0)
(1.04727 0.0685245 0)
(1.03695 0.0650221 0)
(1.0333 0.0597841 0)
(1.03712 0.0537763 0)
(1.04474 0.046906 0)
(1.02242 0.0375044 0)
(0.901526 0.025452 0)
(0.65287 0.0138807 0)
(0.336415 0.0047663 0)
(0.0563741 0.00038029 0)
(0.153955 0.00107611 0)
(0.799078 0.0172211 0)
(1.05128 0.0292152 0)
(1.16211 0.0369372 0)
(1.17526 0.0438009 0)
(1.1555 0.0526883 0)
(1.13368 0.0627736 0)
(1.11199 0.0726551 0)
(1.08918 0.0805692 0)
(1.06541 0.0847899 0)
(1.04501 0.0838993 0)
(1.03185 0.0791596 0)
(1.02564 0.0724866 0)
(1.02646 0.0647151 0)
(1.02876 0.0552127 0)
(0.998403 0.0432011 0)
(0.871862 0.0294868 0)
(0.621822 0.016388 0)
(0.310802 0.00558407 0)
(0.0490303 0.000431698 0)
(0.174358 0.00168374 0)
(0.846039 0.0250693 0)
(1.08575 0.0411193 0)
(1.18213 0.051871 0)
(1.19124 0.0612151 0)
(1.17082 0.0720485 0)
(1.14685 0.0835234 0)
(1.12145 0.0939245 0)
(1.09423 0.101442 0)
(1.06585 0.10426 0)
(1.04142 0.10121 0)
(1.02498 0.0940976 0)
(1.01572 0.0850769 0)
(1.0124 0.0748811 0)
(1.00853 0.0631746 0)
(0.971261 0.04966 0)
(0.83921 0.0346802 0)
(0.585904 0.019482 0)
(0.281017 0.00650163 0)
(0.0407539 0.000477954 0)
(0.204226 0.00304098 0)
(0.910764 0.0385302 0)
(1.13311 0.0606303 0)
(1.20912 0.0750787 0)
(1.21144 0.0881609 0)
(1.18802 0.10069 0)
(1.16029 0.112442 0)
(1.13013 0.121869 0)
(1.09783 0.127403 0)
(1.06435 0.127253 0)
(1.03554 0.120686 0)
(1.0155 0.110279 0)
(1.00282 0.0983725 0)
(0.995168 0.0857227 0)
(0.985775 0.0724623 0)
(0.942177 0.0580745 0)
(0.802453 0.0413712 0)
(0.544015 0.023199 0)
(0.247246 0.00753759 0)
(0.0318135 0.000514226 0)
(0.245432 0.00931585 2.63773e-20)
(0.996648 0.0654101 2.2291e-20)
(1.19092 0.0939056 -7.58196e-21)
(1.24234 0.110663 0)
(1.23427 0.127118 -1.72351e-34)
(1.20527 0.139724 2.467e-21)
(1.1723 0.150145 -4.14779e-21)
(1.13662 0.157158 0)
(1.09877 0.159457 7.87487e-35)
(1.05977 0.155319 -4.5339e-21)
(1.02605 0.144498 0)
(1.00189 0.130439 -5.11968e-21)
(0.98521 0.11559 -1.49297e-20)
(0.973159 0.100906 -6.99672e-21)
(0.958901 0.0868177 -2.07902e-21)
(0.908217 0.0719605 -1.22902e-21)
(0.756792 0.052198 0)
(0.492143 0.0292661 8.61486e-22)
(0.209711 0.0101729 1.02097e-21)
(0.0235402 0.000987134 1.86414e-20)
(0.272819 0.0248828 2.34364e-20)
(1.06731 0.108068 1.03043e-22)
(1.23891 0.141745 2.21186e-21)
(1.27403 0.160204 0)
(1.25547 0.176065 -9.34327e-21)
(1.22026 0.187353 -1.02258e-20)
(1.1815 0.195816 -4.32861e-21)
(1.1399 0.200361 -1.44622e-20)
(1.096 0.199518 0)
(1.05068 0.191557 1.93849e-20)
(1.01084 0.176733 1.87265e-20)
(0.981246 0.159299 5.46135e-21)
(0.959548 0.141905 1.9414e-20)
(0.942589 0.125442 2.6806e-20)
(0.922271 0.10982 0)
(0.864482 0.0933347 3.74557e-20)
(0.703298 0.0693481 5.38367e-20)
(0.440173 0.0405497 5.99544e-20)
(0.178873 0.0155455 -6.88507e-20)
(0.017523 0.00154508 -1.31007e-21)
(0.272727 0.0410122 0)
(1.11162 0.163655 5.03475e-21)
(1.27292 0.200951 0)
(1.29883 0.219642 -1.48794e-20)
(1.27233 0.232494 0)
(1.23141 0.240706 -2.11885e-20)
(1.18701 0.245921 9.0904e-21)
(1.1397 0.247044 -3.01244e-20)
(1.08996 0.242557 -3.1683e-22)
(1.03863 0.230608 1.0218e-20)
(0.993107 0.212033 4.07697e-20)
(0.95867 0.191799 -6.26738e-23)
(0.932798 0.172608 -1.40219e-20)
(0.91211 0.155071 -2.50721e-20)
(0.888335 0.138749 2.95563e-20)
(0.829669 0.120166 -5.23376e-20)
(0.672946 0.0914564 -6.92363e-21)
(0.42448 0.0566161 0)
(0.180897 0.0238838 6.31057e-24)
(0.0197591 0.00272421 0)
(0.265628 0.0548562 9.15991e-20)
(1.13481 0.222778 -4.04909e-20)
(1.29466 0.265167 -2.598e-20)
(1.31519 0.283728 7.66966e-21)
(1.28322 0.293005 -1.25168e-20)
(1.23779 0.297469 4.50215e-20)
(1.18861 0.298868 1.92769e-20)
(1.13628 0.296087 0)
(1.08136 0.2876 -5.36195e-20)
(1.02456 0.271596 0)
(0.973982 0.249451 -2.16292e-20)
(0.935413 0.226706 -2.57453e-20)
(0.906269 0.206026 -1.51896e-20)
(0.882956 0.187543 -1.81075e-20)
(0.857462 0.170326 0)
(0.800463 0.150189 0)
(0.656697 0.118129 -4.50798e-20)
(0.427705 0.077569 8.91244e-21)
(0.194207 0.035347 -5.25224e-21)
(0.0248755 0.0047974 -6.2189e-21)
(0.258077 0.0672393 -5.48762e-20)
(1.14434 0.281693 0)
(1.30689 0.33047 6.22226e-20)
(1.32404 0.34896 2.37335e-20)
(1.28815 0.3548 2.7436e-20)
(1.23928 0.355506 0)
(1.18631 0.353013 1.98913e-20)
(1.12983 0.346254 3.40398e-20)
(1.07044 0.333745 2.81138e-20)
(1.00894 0.313649 4.76135e-20)
(0.954023 0.288011 0)
(0.912017 0.26288 -5.53992e-20)
(0.880283 0.240675 -3.27193e-20)
(0.855031 0.221414 -1.91841e-20)
(0.828636 0.203494 1.15546e-19)
(0.775089 0.182294 1.37403e-20)
(0.64518 0.147351 6.49322e-20)
(0.434877 0.100445 -3.0825e-19)
(0.208267 0.0488307 1.8297e-19)
(0.0300299 0.00736745 -2.23363e-19)
(0.251266 0.0784337 -4.91112e-20)
(1.14542 0.338626 1.05255e-20)
(1.31221 0.395136 -8.96398e-21)
(1.32693 0.413639 -3.1245e-20)
(1.28812 0.416241 -2.73861e-20)
(1.23655 0.413341 3.45482e-22)
(1.18051 0.407113 -2.14005e-20)
(1.1206 0.396521 3.58947e-20)
(1.05745 0.380082 -6.03545e-20)
(0.991925 0.355988 0)
(0.933395 0.326868 -2.55095e-20)
(0.888652 0.299335 -3.15841e-22)
(0.854897 0.275587 -3.5454e-20)
(0.828241 0.255423 0)
(0.801552 0.237 -2.48947e-20)
(0.751374 0.214794 -5.9085e-20)
(0.63386 0.177539 1.58402e-19)
(0.439035 0.124152 -1.56414e-19)
(0.218368 0.0627303 2.22616e-19)
(0.0340485 0.0100871 -2.34287e-19)
(0.245807 0.0889039 -1.0547e-22)
(1.14137 0.392957 -1.03881e-20)
(1.3125 0.45839 -3.6293e-20)
(1.3252 0.47671 1.58387e-20)
(1.28415 0.47637 -1.44028e-20)
(1.23041 0.470099 0)
(1.17187 0.460355 -2.16794e-20)
(1.10906 0.446147 -3.80375e-20)
(1.04267 0.425946 -3.18465e-20)
(0.973699 0.397959 0)
(0.912087 0.365369 -2.68179e-20)
(0.865142 0.335333 -3.19925e-20)
(0.829916 0.309968 3.82025e-20)
(0.802377 0.28873 -2.27764e-20)
(0.775754 0.269655 -1.07638e-19)
(0.728701 0.246318 6.40526e-20)
(0.620835 0.206914 1.92149e-20)
(0.437539 0.146875 0)
(0.221793 0.0754546 -2.13411e-19)
(0.0360742 0.0124585 -7.91502e-21)
(0.241698 0.098942 -6.37569e-21)
(1.13431 0.444551 1.05571e-20)
(1.30893 0.519093 1.91434e-20)
(1.31996 0.537507 5.17124e-20)
(1.27714 0.534573 -5.93537e-20)
(1.22168 0.525235 5.28046e-20)
(1.16104 0.512257 4.64736e-20)
(1.09574 0.494662 -6.09084e-20)
(1.02651 0.470902 1.82738e-20)
(0.954458 0.439118 -1.16808e-19)
(0.890096 0.403069 -2.95728e-20)
(0.84133 0.370343 0)
(0.805046 0.343094 4.11471e-20)
(0.777045 0.320596 4.86215e-20)
(0.750791 0.30059 5.76887e-20)
(0.706366 0.276033 -6.90041e-20)
(0.605503 0.233911 -2.0458e-20)
(0.430481 0.166843 2.4185e-20)
(0.21984 0.0857033 0)
(0.0362732 0.0142338 -1.70407e-20)
(0.238745 0.108643 6.34909e-20)
(1.12575 0.493456 -4.28221e-20)
(1.30264 0.577047 -2.01047e-20)
(1.31211 0.595704 3.57925e-20)
(1.26785 0.590463 -3.05307e-20)
(1.21098 0.578379 -8.05056e-22)
(1.14856 0.562483 -5.00835e-20)
(1.08111 0.541778 -2.18506e-20)
(1.00933 0.514678 -5.49558e-20)
(0.934429 0.479257 4.41893e-23)
(0.8676 0.43968 -9.35107e-20)
(0.817178 0.404148 7.53009e-20)
(0.780099 0.374695 -4.46245e-20)
(0.751891 0.350553 5.28483e-20)
(0.726112 0.329264 0)
(0.683725 0.303078 -3.71081e-20)
(0.587838 0.257711 -1.92911e-22)
(0.418581 0.183388 -1.04323e-19)
(0.213334 0.0932078 -1.54408e-20)
(0.0350597 0.0153222 0)
(0.236821 0.11819 0)
(1.1165 0.539912 -4.50749e-20)
(1.29439 0.632194 -4.07166e-20)
(1.30237 0.651155 -3.73142e-20)
(1.25691 0.643851 -3.38918e-20)
(1.19887 0.629329 0)
(1.13493 0.610819 -2.52179e-20)
(1.06557 0.5873 -2.41327e-22)
(0.99148 0.557123 1.17562e-19)
(0.913913 0.518234 -1.63389e-20)
(0.844687 0.475148 -6.7119e-20)
(0.792778 0.436582 3.9633e-20)
(0.754972 0.40469 -4.03419e-22)
(0.726661 0.378633 5.62921e-20)
(0.701326 0.355706 3.40231e-20)
(0.660464 0.327448 -7.98488e-20)
(0.567764 0.278009 9.47982e-20)
(0.402592 0.196432 2.81017e-20)
(0.202996 0.0980217 1.16487e-19)
(0.0326323 0.015687 -3.15404e-19)
(0.235776 0.127701 1.2874e-20)
(1.10712 0.58407 -2.24383e-20)
(1.28482 0.684558 1.92935e-20)
(1.29132 0.703794 3.82368e-20)
(1.24483 0.69464 0)
(1.1858 0.677967 -2.96818e-20)
(1.12055 0.657143 8.21288e-20)
(1.04949 0.631106 4.89626e-20)
(0.973256 0.598135 0)
(0.893119 0.555995 -2.31119e-19)
(0.821518 0.509444 1.80358e-19)
(0.768059 0.46771 0)
(0.729492 0.433104 5.15873e-20)
(0.70107 0.404793 -4.02108e-22)
(0.676123 0.379872 -1.08735e-19)
(0.636248 0.349064 4.26222e-20)
(0.545476 0.294825 0)
(0.383357 0.205776 1.51024e-19)
(0.189792 0.100415 0)
(0.0294663 0.0154416 -1.4848e-19)
(0.235431 0.137182 -1.3072e-20)
(1.09796 0.626075 -2.23444e-20)
(1.27437 0.734153 2.09823e-20)
(1.27939 0.753623 0)
(1.23202 0.742816 -3.62014e-20)
(1.17214 0.72425 0)
(1.10576 0.701383 -8.53465e-20)
(1.03316 0.673121 -2.4674e-20)
(0.954911 0.637662 2.15674e-20)
(0.872255 0.592538 -1.14167e-19)
(0.798138 0.54261 1.89109e-20)
(0.742922 0.497581 0)
(0.703546 0.460005 -1.10219e-19)
(0.674977 0.42916 4.12741e-22)
(0.650295 0.401904 0)
(0.610874 0.368042 4.67671e-22)
(0.52092 0.308262 1.3691e-19)
(0.361149 0.211472 -1.30068e-19)
(0.174409 0.100348 3.85245e-20)
(0.0257997 0.014617 0)
(0.235446 0.146522 0)
(1.08919 0.665991 -2.26035e-20)
(1.26342 0.781061 -2.05204e-20)
(1.26695 0.8007 -4.58269e-22)
(1.21881 0.788406 -1.79586e-20)
(1.15821 0.768178 -6.73189e-20)
(1.09083 0.743521 3.09099e-20)
(1.01682 0.713316 -2.74482e-20)
(0.936668 0.675674 9.40281e-20)
(0.851466 0.627868 -1.82483e-19)
(0.774662 0.574737 -6.70919e-22)
(0.717542 0.526348 -4.94968e-20)
(0.677124 0.485581 1.77938e-19)
(0.648291 0.451891 -4.8771e-22)
(0.623733 0.421971 -8.37827e-20)
(0.584241 0.384489 -1.49277e-19)
(0.494086 0.318457 0)
(0.336433 0.213751 0)
(0.157322 0.0978315 4.14753e-20)
(0.0218303 0.0132871 -2.45897e-20)
(0.235928 0.155817 -1.32198e-20)
(1.08092 0.70373 4.67637e-20)
(1.25219 0.825375 2.18512e-20)
(1.25426 0.845086 0)
(1.20545 0.831456 -3.20981e-22)
(1.14423 0.809775 -6.9209e-20)
(1.07598 0.783565 7.97306e-20)
(1.0007 0.751686 1.13361e-19)
(0.918713 0.712174 1.23912e-19)
(0.830962 0.662024 -1.50219e-19)
(0.751331 0.605931 -1.54348e-19)
(0.691948 0.554197 1.32331e-19)
(0.650211 0.509985 0)
(0.620938 0.473159 -3.81419e-20)
(0.596365 0.440186 -9.03355e-20)
(0.556327 0.398447 -1.06968e-19)
(0.465024 0.325243 -1.27117e-19)
(0.309478 0.21253 3.76902e-20)
(0.138781 0.0928638 -2.22751e-20)
(0.017578 0.0114543 7.07487e-23)
(0.236605 0.164865 0)
(1.07316 0.73978 0)
(1.24088 0.86717 5.40823e-22)
(1.24152 0.886866 0)
(1.19214 0.872047 5.84299e-20)
(1.1304 0.849096 5.3439e-20)
(1.06139 0.821538 0)
(0.984952 0.788241 1.44397e-20)
(0.901237 0.74717 2.09272e-19)
(0.810951 0.695051 -3.44628e-19)
(0.728274 0.636301 0)
(0.666247 0.581288 -8.49596e-20)
(0.622791 0.533461 -5.95393e-22)
(0.592842 0.493128 -4.86806e-22)
(0.568096 0.456614 9.65682e-20)
(0.527076 0.409822 -8.27396e-23)
(0.433952 0.328537 -2.73234e-19)
(0.280329 0.207638 8.10201e-20)
(0.119271 0.0856472 2.40295e-20)
(0.0133103 0.0092672 0)
(0.237266 0.173734 3.98173e-20)
(1.06569 0.774108 2.40277e-20)
(1.22959 0.906526 4.47244e-20)
(1.2289 0.92614 -8.61357e-20)
(1.17903 0.910245 1.00782e-19)
(1.11686 0.886197 0)
(1.04719 0.857486 5.23281e-20)
(0.969726 0.823008 -3.1335e-20)
(0.884388 0.780677 7.75051e-22)
(0.791575 0.726974 2.49666e-20)
(0.705633 0.665939 2.00321e-19)
(0.640586 0.607843 -2.99916e-20)
(0.594919 0.556272 -1.09294e-19)
(0.563883 0.512002 -4.41701e-20)
(0.538762 0.471216 5.22882e-20)
(0.496443 0.418364 -5.49837e-23)
(0.401218 0.32807 7.35813e-20)
(0.249777 0.199146 -1.74109e-19)
(0.0995749 0.076591 2.06631e-19)
(0.00919552 0.00686131 3.05184e-20)
(0.237666 0.182312 -1.32928e-20)
(1.05853 0.806789 1.22908e-20)
(1.21846 0.943554 1.26125e-21)
(1.21651 0.963026 -4.35341e-20)
(1.16623 0.946154 -2.0175e-20)
(1.1037 0.921143 -9.98257e-20)
(1.03351 0.891451 1.75666e-20)
(0.955127 0.856004 -1.32595e-19)
(0.868277 0.812692 -2.34798e-19)
(0.772964 0.757791 -2.07319e-19)
(0.683619 0.69492 0)
(0.615124 0.634043 -1.30063e-19)
(0.566641 0.578737 1.5673e-19)
(0.533902 0.530032 0)
(0.508056 0.483897 -1.11909e-19)
(0.464283 0.423584 6.67432e-20)
(0.367139 0.323342 -7.89792e-20)
(0.218941 0.187171 -9.36798e-20)
(0.0806445 0.0662287 -1.66386e-19)
(0.00548499 0.00443087 -1.31365e-19)
(0.23837 0.19069 1.32535e-20)
(1.05153 0.837802 -1.31273e-20)
(1.20753 0.978318 -3.37007e-20)
(1.20443 0.997603 -5.63249e-20)
(1.15383 0.979858 4.37827e-20)
(1.09102 0.954012 -6.1837e-20)
(1.02041 0.923483 5.69023e-20)
(0.941223 0.887269 -1.39473e-19)
(0.852977 0.843235 -1.40046e-19)
(0.755258 0.787522 2.1882e-19)
(0.662392 0.723293 4.40842e-19)
(0.590052 0.660026 0)
(0.538086 0.601176 0)
(0.502723 0.54764 -5.07602e-20)
(0.475416 0.494669 0)
(0.430111 0.424649 1.43564e-19)
(0.332174 0.313289 1.6994e-19)
(0.189392 0.171476 0)
(0.0638571 0.0551198 0)
(0.00240384 0.00218012 1.41156e-19)
(0.238676 0.198538 -1.30441e-20)
(1.04473 0.867138 -1.09782e-20)
(1.19689 1.01093 -2.36061e-20)
(1.19271 1.03 4.56819e-20)
(1.14186 1.01146 4.52783e-20)
(1.07887 0.984876 7.46102e-20)
(1.00793 0.953638 -8.01475e-20)
(0.92807 0.916829 7.4088e-23)
(0.838564 0.872313 -1.00491e-21)
(0.738555 0.816158 -1.18583e-21)
(0.642122 0.751083 2.27333e-19)
(0.565585 0.685901 0)
(0.509471 0.623861 1.57613e-19)
(0.470269 0.565408 1.08247e-19)
(0.440041 0.503928 2.59732e-19)
(0.392691 0.420628 7.70992e-20)
(0.296389 0.295574 -9.16318e-20)
(0.164234 0.150105 -5.40123e-20)
(0.053458 0.0430299 0)
(0.000916775 0.000367741 1.51658e-19)
(0.239295 0.206359 2.54105e-20)
(1.0381 0.894932 0)
(1.18652 1.04145 -2.3222e-20)
(1.18138 1.06029 3.55154e-20)
(1.13039 1.04103 -4.59992e-20)
(1.06726 1.01381 -9.89361e-20)
(0.996115 0.98197 1.66731e-19)
(0.915697 0.944721 -1.06229e-20)
(0.825071 0.899934 0)
(0.722919 0.84366 -2.45192e-19)
(0.622966 0.778283 -4.97012e-19)
(0.54195 0.71174 1.94015e-20)
(0.481117 0.646995 2.16451e-19)
(0.436672 0.583972 0)
(0.401103 0.512737 1.74503e-19)
(0.349618 0.411523 0)
(0.256935 0.266657 0)
(0.145999 0.113077 -5.84409e-20)
(0.0702591 0.0170059 0)
(0.0241943 0.00582981 4.06609e-20)
(0.239441 0.213554 2.49784e-20)
(1.03162 0.921428 0)
(1.17644 1.07009 -3.48848e-20)
(1.17042 1.0887 0)
(1.11937 1.06884 2.29435e-20)
(1.05616 1.0411 0)
(0.984899 1.00879 1.00391e-20)
(0.904012 0.971281 1.97776e-20)
(0.812385 0.926468 1.77019e-20)
(0.708201 0.870414 -2.71691e-19)
(0.604794 0.805337 1.53109e-20)
(0.518992 0.738102 1.54359e-19)
(0.452801 0.671154 2.11013e-19)
(0.401468 0.604277 2.79665e-20)
(0.357198 0.523149 1.36035e-19)
(0.296916 0.399776 0)
(0.202994 0.227768 1.92626e-19)
(0.106444 0.0536475 -1.13584e-19)
(0.0362492 0.0587462 1.33071e-19)
(-0.0369001 0.439054 -1.57975e-19)
(0.239497 0.220522 -1.87114e-20)
(1.02509 0.946506 -3.38585e-20)
(1.16656 1.09714 0)
(1.1597 1.11567 1.08906e-21)
(1.10863 1.09546 -5.8109e-20)
(1.04531 1.06743 1.6979e-19)
(0.973985 1.03488 6.42523e-20)
(0.892632 0.997452 0)
(0.800007 0.953013 1.22783e-19)
(0.693767 0.897732 -1.47872e-20)
(0.586739 0.833734 0)
(0.495605 0.76677 0)
(0.423196 0.698157 1.88397e-19)
(0.363188 0.628027 -8.55141e-20)
(0.305986 0.538508 -1.36811e-19)
(0.230852 0.391251 0)
(0.113786 0.212763 9.74106e-20)
(0.0134347 0.45614 -1.14199e-19)
(0.0374253 1.88745 -6.5464e-20)
(0.0653443 2.80352 -7.92262e-20)
(0.23921 0.226889 1.16543e-20)
(1.01858 0.970342 3.91139e-20)
(1.1569 1.12262 -1.82279e-20)
(1.14923 1.14105 -2.40541e-20)
(1.09824 1.12067 0)
(1.03478 1.09251 1.15791e-19)
(0.963564 1.05994 9.69953e-20)
(0.881729 1.0228 -1.01702e-20)
(0.788193 0.979049 1.81102e-20)
(0.679984 0.924993 2.62636e-19)
(0.569398 0.862748 2.54522e-19)
(0.472776 0.797344 1.7364e-19)
(0.393466 0.727556 1.88957e-19)
(0.323945 0.653736 -1.99508e-19)
(0.25426 0.561139 -2.05447e-19)
(0.151247 0.423147 0)
(0.054156 0.857451 0)
(0.101876 2.55381 5.51652e-20)
(0.104837 3.19442 0)
(0.105396 3.3829 1.47378e-19)
(0.241677 0.232781 0)
(1.01231 0.993246 0)
(1.14718 1.14639 0)
(1.13881 1.16466 -5.68456e-21)
(1.08794 1.14428 -5.01176e-20)
(1.02437 1.1162 8.15915e-20)
(0.953559 1.08386 6.59499e-20)
(0.871234 1.0472 -1.02828e-20)
(0.776879 1.0044 1.60266e-19)
(0.666837 0.952033 -2.08456e-21)
(0.552863 0.892162 5.07631e-19)
(0.450911 0.829796 -1.9742e-20)
(0.364009 0.759812 2.31599e-20)
(0.285884 0.678905 2.86752e-20)
(0.197388 0.589772 1.07694e-22)
(0.114468 0.998385 3.26455e-22)
(0.144278 2.71357 -2.82181e-19)
(0.153055 3.29193 -1.09041e-19)
(0.1402 3.42438 6.04571e-20)
(0.126138 3.4457 -6.94188e-20)
(0.163533 0.177398 -5.19947e-21)
(1.00157 1.01802 0)
(1.13737 1.16869 2.97196e-20)
(1.12881 1.18682 5.57278e-20)
(1.07815 1.16676 -9.19788e-20)
(1.0147 1.13894 -8.40296e-20)
(0.94376 1.10667 -7.31652e-20)
(0.861184 1.07068 1.31255e-19)
(0.766193 1.02906 -1.35581e-19)
(0.654615 0.978818 0)
(0.537524 0.921857 2.53768e-19)
(0.430503 0.863826 -1.43223e-19)
(0.335439 0.797673 0)
(0.249487 0.709236 2.78055e-20)
(0.162581 0.859677 6.59167e-20)
(0.158929 2.49112 -7.71298e-20)
(0.215819 3.32721 8.92099e-20)
(0.194352 3.44097 5.00485e-20)
(0.160536 3.46038 5.84901e-20)
(0.138541 3.46908 9.77017e-20)
(0.276506 0.27095 1.14833e-20)
(0.984421 1.02799 0)
(1.11958 1.19404 -2.62916e-20)
(1.11496 1.21987 -5.06352e-20)
(1.06258 1.20024 8.6629e-20)
(0.998745 1.17294 7.85824e-20)
(0.926849 1.14201 9.4045e-20)
(0.843694 1.10725 1.00075e-20)
(0.747454 1.06783 1.36801e-19)
(0.63331 1.02161 2.40663e-19)
(0.511398 0.970785 1.49307e-20)
(0.397085 0.921155 1.29505e-19)
(0.284351 0.867414 2.22192e-20)
(0.221725 1.02055 -2.69926e-20)
(0.230039 2.35414 -6.25055e-20)
(0.284499 3.33556 6.65531e-20)
(0.26902 3.47407 -7.55707e-20)
(0.232354 3.49248 -4.43635e-20)
(0.195837 3.51643 -4.54591e-20)
(0.147734 3.50915 -6.51245e-21)
(0.266467 0.269697 0)
(0.981695 1.05058 -3.83829e-21)
(1.11155 1.2173 4.22243e-21)
(1.10512 1.24294 4.68816e-21)
(1.05266 1.22325 5.2612e-20)
(0.988962 1.19618 -7.4116e-20)
(0.916798 1.1655 -5.86628e-20)
(0.833558 1.13159 9.46201e-21)
(0.736996 1.09367 -1.46914e-19)
(0.621915 1.05035 -2.99704e-21)
(0.497769 1.00425 -4.73161e-19)
(0.379787 0.960414 1.8336e-20)
(0.273706 0.940891 -2.1407e-20)
(0.258654 1.53741 -2.5595e-20)
(0.322722 3.11553 3.68114e-21)
(0.341539 3.47758 4.93987e-22)
(0.297751 3.52947 1.28544e-19)
(0.261358 3.54918 7.06683e-20)
(0.213182 3.5688 -3.30748e-20)
(0.159549 3.56327 -3.86345e-20)
(0.252053 0.267294 -6.39865e-21)
(0.977978 1.07566 -2.26448e-20)
(1.10308 1.24256 1.16771e-20)
(1.0949 1.26754 1.78553e-20)
(1.0424 1.2477 0)
(0.978844 1.22064 -9.45124e-20)
(0.906668 1.19022 -8.16244e-20)
(0.823604 1.15709 8.89407e-21)
(0.727033 1.12073 -1.60321e-20)
(0.611533 1.08047 -2.31393e-19)
(0.485966 1.03953 -2.24759e-19)
(0.366614 1.00292 -1.56168e-19)
(0.280493 1.07895 -1.63688e-19)
(0.32315 2.23271 1.67078e-19)
(0.404897 3.39605 1.52813e-19)
(0.38242 3.54065 0)
(0.330266 3.57688 0)
(0.29204 3.61053 -2.72012e-20)
(0.241387 3.6589 0)
(0.169354 3.63716 -5.26886e-20)
(0.241671 0.268739 5.95379e-21)
(0.972227 1.10153 1.46165e-20)
(1.09324 1.26902 0)
(1.08353 1.29304 1.29515e-21)
(1.03103 1.2728 4.25794e-20)
(0.967722 1.24564 -1.30321e-19)
(0.895853 1.21547 -5.044e-20)
(0.813197 1.18303 7.66427e-21)
(0.716884 1.14816 -1.16009e-19)
(0.601385 1.11091 1.25555e-20)
(0.475217 1.07534 0)
(0.357652 1.04954 0)
(0.310794 1.33473 -1.54364e-19)
(0.402064 2.90358 6.46067e-20)
(0.474581 3.50701 9.07427e-20)
(0.421873 3.57923 0)
(0.377929 3.63296 -3.55438e-20)
(0.33131 3.6835 3.17706e-20)
(0.279921 3.65165 3.84598e-21)
(0.182047 3.62875 -2.14604e-21)