/*--------------------------------*- C++ -*----------------------------------*\
  =========                 |
  \\      /  F ield         | OpenFOAM: The Open Source CFD Toolbox
   \\    /   O peration     | Website:  https://openfoam.org
    \\  /    A nd           | Version:  6
     \\/     M anipulation  |
\*---------------------------------------------------------------------------*/
FoamFile
{
    version     2.0;
    format      ascii;
    class       volScalarField;
    location    "66.5";
    object      p;
}
// * * * * * * * * * * * * * * * * * * * * * * * * * * * * * * * * * * * * * //

dimensions      [0 2 -2 0 0 0 0];

internalField   nonuniform List<scalar> 
8800
(
0.775601
0.726285
0.688317
0.660245
0.640078
0.625484
0.614875
0.607319
0.602412
0.600315
0.601655
0.605974
0.612749
0.622159
0.634886
0.652201
0.676075
0.70917
0.752106
0.804619
0.610099
0.616443
0.625591
0.629136
0.626523
0.620428
0.613477
0.607222
0.602401
0.599505
0.599243
0.601844
0.606464
0.612577
0.619667
0.626694
0.631568
0.63144
0.624763
0.615863
0.583623
0.589857
0.594354
0.59822
0.601162
0.602102
0.601001
0.598862
0.596858
0.595988
0.596988
0.599416
0.602283
0.60454
0.605052
0.603257
0.599887
0.595871
0.591088
0.587372
0.579334
0.582099
0.584701
0.586854
0.588584
0.590142
0.591231
0.591565
0.591425
0.591491
0.592261
0.593376
0.594096
0.593931
0.592946
0.591585
0.589911
0.587605
0.585193
0.583626
0.574295
0.575719
0.577555
0.579629
0.581333
0.582614
0.583697
0.584655
0.585436
0.586136
0.586808
0.587237
0.587238
0.586859
0.58618
0.585057
0.583395
0.581497
0.580142
0.57934
0.569326
0.570229
0.571471
0.57309
0.574774
0.576293
0.577559
0.578657
0.579689
0.580665
0.581407
0.581762
0.581747
0.58136
0.580545
0.579348
0.57798
0.57671
0.575888
0.575364
0.564445
0.5651
0.566056
0.567365
0.568801
0.570303
0.571767
0.573104
0.57433
0.575487
0.576389
0.576844
0.576833
0.576375
0.57558
0.574627
0.573628
0.572719
0.572138
0.571753
0.559649
0.560153
0.560933
0.562064
0.563352
0.564752
0.566237
0.567747
0.569217
0.570619
0.571717
0.572281
0.572326
0.57198
0.5714
0.5707
0.569954
0.569286
0.568857
0.568558
0.554884
0.555285
0.555939
0.55695
0.558165
0.55951
0.560989
0.562594
0.564278
0.565961
0.56731
0.568064
0.5683
0.568182
0.567842
0.567362
0.566822
0.566347
0.566031
0.565788
0.55007
0.550397
0.550964
0.551896
0.553065
0.554399
0.555913
0.557618
0.559498
0.561479
0.563159
0.564217
0.564739
0.564886
0.564784
0.564532
0.564188
0.563876
0.563644
0.56344
0.545119
0.545391
0.545898
0.546784
0.547937
0.5493
0.550892
0.552742
0.554855
0.557183
0.559278
0.560729
0.561597
0.562044
0.562201
0.562178
0.562033
0.561864
0.561699
0.561523
0.539944
0.540172
0.540642
0.541512
0.54269
0.544122
0.545835
0.547885
0.550302
0.553062
0.555663
0.557585
0.558855
0.559646
0.560094
0.560311
0.560367
0.560329
0.56022
0.560063
0.534449
0.534645
0.535095
0.53598
0.537223
0.53877
0.54066
0.542977
0.545782
0.54908
0.552295
0.554777
0.55652
0.557704
0.558479
0.558955
0.559226
0.559313
0.559251
0.559108
0.528534
0.528703
0.529152
0.530079
0.531427
0.533142
0.535276
0.537943
0.541239
0.545201
0.549161
0.552313
0.55461
0.556248
0.557398
0.558182
0.558669
0.558876
0.558855
0.558719
0.522078
0.522224
0.522687
0.523686
0.525185
0.527127
0.529582
0.532697
0.536606
0.541382
0.546244
0.550197
0.553154
0.555326
0.556904
0.55803
0.55876
0.559093
0.559108
0.558976
0.514938
0.515061
0.515553
0.516655
0.518355
0.520596
0.523466
0.527146
0.531816
0.537587
0.543538
0.548448
0.552184
0.554985
0.557067
0.558581
0.559588
0.560051
0.560101
0.559969
0.506925
0.507034
0.50757
0.508808
0.51077
0.513393
0.516784
0.521172
0.526782
0.533769
0.54103
0.547081
0.551738
0.55528
0.557966
0.55994
0.561253
0.561852
0.561933
0.561798
0.49781
0.497914
0.498502
0.499915
0.502219
0.505327
0.509378
0.51465
0.521422
0.529887
0.538722
0.546131
0.551875
0.556287
0.559685
0.562193
0.563855
0.564599
0.564708
0.564566
0.487278
0.487367
0.488045
0.489693
0.492433
0.49616
0.501046
0.50743
0.515644
0.525913
0.53663
0.545632
0.552653
0.558091
0.562304
0.565445
0.567498
0.568392
0.568525
0.568372
0.474948
0.475023
0.475804
0.477766
0.481066
0.485591
0.491548
0.499341
0.509351
0.521818
0.534774
0.545639
0.554136
0.560765
0.565931
0.569796
0.572273
0.573317
0.573467
0.5733
0.460259
0.460328
0.461255
0.463629
0.467666
0.473241
0.480592
0.490189
0.502447
0.51759
0.533189
0.546205
0.556388
0.564379
0.570642
0.575315
0.578243
0.579424
0.579582
0.579397
0.442431
0.442493
0.443635
0.446595
0.451642
0.458634
0.467836
0.479776
0.49486
0.51324
0.531929
0.547395
0.559479
0.569
0.576471
0.582041
0.585419
0.586712
0.586862
0.586656
0.420298
0.420364
0.42185
0.425688
0.432186
0.441169
0.452911
0.467949
0.486603
0.50887
0.5311
0.549292
0.563465
0.574667
0.583451
0.589957
0.593741
0.595096
0.595218
0.594993
0.392066
0.392162
0.394246
0.399502
0.408248
0.420168
0.435498
0.454667
0.477793
0.504648
0.530846
0.551992
0.568392
0.581378
0.591558
0.598962
0.603051
0.60439
0.604463
0.604219
0.35467
0.354892
0.358197
0.366068
0.3786
0.395041
0.415501
0.440109
0.468705
0.500828
0.531352
0.555604
0.574311
0.589108
0.600689
0.608858
0.613068
0.614292
0.614293
0.614035
0.302237
0.303333
0.309902
0.32318
0.342331
0.365762
0.393311
0.424774
0.459779
0.497734
0.532825
0.560242
0.58124
0.597775
0.610635
0.619327
0.623392
0.624397
0.624318
0.624054
0.226276
0.233725
0.248791
0.271991
0.301023
0.333812
0.369991
0.409304
0.451392
0.495668
0.535648
0.566432
0.589892
0.608294
0.622278
0.631208
0.63497
0.635739
0.635605
0.635372
0.14552
0.161787
0.18625
0.220124
0.259558
0.301869
0.34672
0.394042
0.443578
0.494799
0.54049
0.575363
0.601769
0.622278
0.637401
0.646146
0.649289
0.649787
0.649679
0.649532
0.0763386
0.0962163
0.128528
0.171602
0.2203
0.271573
0.324874
0.380073
0.436889
0.494789
0.54585
0.58449
0.613531
0.635803
0.651482
0.659737
0.662332
0.662729
0.662683
0.662585
0.01973
0.0418367
0.0795471
0.129218
0.185174
0.243969
0.304745
0.367192
0.430867
0.495133
0.551268
0.593419
0.624851
0.648576
0.664807
0.67295
0.675372
0.675733
0.675723
0.675652
-0.0271604
-0.00373085
0.0378913
0.0927179
0.154485
0.219485
0.286662
0.355552
0.425512
0.495728
0.556721
0.602241
0.635986
0.661252
0.678189
0.686405
0.688822
0.689181
0.689198
0.689151
-0.0669604
-0.0427408
0.00176821
0.0607921
0.127463
0.197773
0.270498
0.345091
0.420763
0.496559
0.562216
0.611048
0.647077
0.673876
0.691642
0.700265
0.702784
0.703142
0.703168
0.703137
-0.101707
-0.0769601
-0.0301899
0.0323149
0.103183
0.178121
0.255778
0.335549
0.416537
0.497595
0.567699
0.619745
0.658032
0.686382
0.705113
0.714182
0.716876
0.717259
0.717286
0.717269
-0.132901
-0.107723
-0.0590901
0.00637907
0.0808868
0.159908
0.242027
0.326563
0.412503
0.49856
0.572961
0.628114
0.668619
0.698473
0.718109
0.727692
0.730623
0.731046
0.731074
0.731063
-0.161566
-0.135989
-0.0857642
-0.0177121
0.0600012
0.142652
0.228799
0.317715
0.408323
0.499224
0.577806
0.635994
0.678607
0.70993
0.730437
0.740478
0.743639
0.744142
0.744148
0.744137
-0.188512
-0.162503
-0.110849
-0.0404725
0.040073
0.125961
0.215759
0.308749
0.403795
0.499363
0.582077
0.643236
0.687904
0.720577
0.741875
0.75234
0.755675
0.756215
0.756196
0.756174
-0.214136
-0.187709
-0.134736
-0.0622944
0.0207766
0.109576
0.20271
0.299469
0.398703
0.498806
0.585646
0.649787
0.696456
0.730401
0.752349
0.763065
0.766525
0.767079
0.767033
0.766993
-0.238878
-0.211951
-0.157759
-0.0834458
0.00189339
0.0933152
0.189485
0.289716
0.392906
0.497456
0.588439
0.655627
0.704278
0.739367
0.761811
0.772685
0.776161
0.776701
0.77662
0.776562
-0.262876
-0.235445
-0.180097
-0.104094
-0.0167256
0.0770556
0.175979
0.279419
0.386337
0.495212
0.590401
0.660755
0.711448
0.747614
0.770395
0.781251
0.784664
0.785171
0.785064
0.784987
-0.286262
-0.258291
-0.201873
-0.124335
-0.0351513
0.0607442
0.16216
0.268536
0.378938
0.491997
0.59147
0.665195
0.718062
0.755277
0.778224
0.788894
0.792166
0.792604
0.792476
0.792383
-0.309133
-0.280612
-0.223139
-0.144208
-0.053417
0.044371
0.148026
0.257063
0.370686
0.487763
0.591583
0.668942
0.724242
0.762542
0.7855
0.795779
0.798782
0.799122
0.798962
0.798857
-0.33155
-0.3024
-0.243907
-0.163717
-0.0715011
0.0279527
0.133603
0.245028
0.361599
0.482471
0.590668
0.671963
0.730083
0.769641
0.792444
0.802066
0.804618
0.8048
0.804615
0.804505
-0.353373
-0.323627
-0.264162
-0.182854
-0.0893788
0.0115434
0.118941
0.232494
0.351717
0.476123
0.588646
0.674181
0.735617
0.776811
0.799416
0.808015
0.809809
0.809737
0.809535
0.809434
-0.374579
-0.344263
-0.283896
-0.201582
-0.107002
-0.00480323
0.104124
0.219525
0.341103
0.468726
0.585453
0.675476
0.740782
0.78424
0.806919
0.814196
0.814687
0.814058
0.813826
0.813787
-0.395225
-0.364279
-0.303086
-0.219873
-0.124315
-0.0210098
0.0892336
0.206215
0.32984
0.460326
0.581018
0.67571
0.745406
0.791917
0.815457
0.821598
0.820148
0.81816
0.817634
0.817887
-0.415159
-0.38365
-0.32168
-0.237667
-0.141264
-0.0369955
0.074362
0.192669
0.318034
0.451006
0.575295
0.674713
0.749229
0.799522
0.825138
0.831382
0.828246
0.823749
0.82111
0.820045
-0.434475
-0.402383
-0.339684
-0.254995
-0.157884
-0.0527999
0.059458
0.178829
0.305615
0.440701
0.56813
0.672228
0.752005
0.806565
0.835425
0.843924
0.8412
0.834008
0.824531
0.825009
-0.453091
-0.420544
-0.357234
-0.272054
-0.174467
-0.0687502
0.0441107
0.164216
0.292045
0.428794
0.558877
0.667506
0.75331
0.812476
0.844841
0.857249
0.855663
0.844344
0.82577
0.824039
-0.470872
-0.438096
-0.374164
-0.288657
-0.190749
-0.0845468
0.0285239
0.149147
0.277608
0.41551
0.54756
0.659837
0.752272
0.816047
0.849312
0.862211
0.862448
0.836843
0.779148
0.754263
-0.487699
-0.455916
-0.390078
-0.304363
-0.205957
-0.0997104
0.0129778
0.133898
0.262585
0.40102
0.534238
0.648603
0.747786
0.816292
0.843959
0.851683
0.837678
0.785842
0.723805
0.686036
-0.530539
-0.47328
-0.4047
-0.320068
-0.220837
-0.1152
-0.00238655
0.118345
0.246771
0.384967
0.518497
0.633145
0.735914
0.809857
0.826335
0.812405
0.763957
0.698274
0.629137
0.591156
-0.505638
-0.487464
-0.42698
-0.34165
-0.243854
-0.138468
-0.0263637
0.0936876
0.22117
0.357942
0.490099
0.602832
0.697329
0.778555
0.761252
0.651567
0.56021
0.496764
0.432397
0.458983
-0.536445
-0.504984
-0.443665
-0.358824
-0.261396
-0.156172
-0.0439132
0.0754575
0.201893
0.336872
0.466439
0.575667
0.659352
0.704888
0.652403
0.511955
0.402207
0.32824
0.245812
0.290835
-0.560343
-0.526454
-0.463389
-0.378486
-0.281118
-0.175921
-0.0638021
0.05475
0.179794
0.312343
0.438068
0.541283
0.613308
0.620792
0.513386
0.357439
0.227774
0.13487
0.0391383
0.0701717
-0.583609
-0.548649
-0.484194
-0.398624
-0.301185
-0.196121
-0.084537
0.0330228
0.156431
0.286125
0.40695
0.501927
0.556858
0.531479
0.37254
0.194919
0.034596
-0.099587
-0.224133
-0.211656
-0.606605
-0.571239
-0.505858
-0.419684
-0.322112
-0.217278
-0.106375
0.0100333
0.131503
0.257903
0.372954
0.459686
0.493745
0.422916
0.233991
0.0364216
-0.150924
-0.305066
-0.510654
-0.589698
-0.630016
-0.594684
-0.528749
-0.442141
-0.344411
-0.239767
-0.129487
-0.0142756
0.105113
0.227925
0.336716
0.414046
0.422397
0.300055
0.107644
-0.101879
-0.294209
-0.456197
-0.580233
-0.698477
-0.654917
-0.61947
-0.553222
-0.466377
-0.368622
-0.264271
-0.154718
-0.0408956
0.0760458
0.194681
0.296774
0.361272
0.342171
0.18344
-0.0105758
-0.214094
-0.389686
-0.487165
-0.513478
-0.526981
-0.681432
-0.645887
-0.579408
-0.492484
-0.39489
-0.291014
-0.182446
-0.0703419
0.0436798
0.157366
0.252305
0.299195
0.260736
0.0713667
-0.120788
-0.304126
-0.436672
-0.474659
-0.483662
-0.484021
-0.709839
-0.674057
-0.607345
-0.520446
-0.423164
-0.320003
-0.212695
-0.102675
0.00793945
0.11594
0.202682
0.233231
0.163282
-0.0310367
-0.217128
-0.376629
-0.451034
-0.465109
-0.466204
-0.466093
-0.740145
-0.70401
-0.637045
-0.55026
-0.45346
-0.35123
-0.245477
-0.137916
-0.0311731
0.0705031
0.147763
0.163738
0.0552723
-0.123849
-0.299909
-0.426892
-0.455833
-0.456282
-0.456695
-0.456243
-0.772089
-0.735569
-0.668404
-0.58184
-0.485688
-0.38464
-0.280766
-0.176046
-0.0736141
0.0211817
0.088753
0.0857343
-0.040682
-0.209375
-0.364901
-0.437757
-0.452948
-0.45113
-0.450891
-0.450464
-0.8051
-0.768382
-0.701148
-0.614945
-0.51965
-0.420068
-0.318407
-0.216942
-0.119166
-0.0316282
0.0260653
0.00680893
-0.129526
-0.284578
-0.40695
-0.444991
-0.445576
-0.446916
-0.447109
-0.446875
-0.838725
-0.801901
-0.734776
-0.649141
-0.554978
-0.457174
-0.358106
-0.260318
-0.167542
-0.0870596
-0.0417473
-0.0679928
-0.210843
-0.344624
-0.431204
-0.440539
-0.443583
-0.444773
-0.444839
-0.444791
-0.871997
-0.835222
-0.768528
-0.683765
-0.591095
-0.495456
-0.399377
-0.30567
-0.21833
-0.144275
-0.109878
-0.143408
-0.281573
-0.393058
-0.440594
-0.450779
-0.445956
-0.443818
-0.443113
-0.443015
-0.902996
-0.867024
-0.801339
-0.717896
-0.627187
-0.534177
-0.441521
-0.352244
-0.270739
-0.202865
-0.173403
-0.222109
-0.340547
-0.438066
-0.460525
-0.456128
-0.448505
-0.442787
-0.44105
-0.440544
-0.930666
-0.895756
-0.831764
-0.750288
-0.662151
-0.572351
-0.483623
-0.399101
-0.323475
-0.262333
-0.235631
-0.290833
-0.384907
-0.463963
-0.489722
-0.47121
-0.455257
-0.44788
-0.445183
-0.443935
-0.952213
-0.91926
-0.857994
-0.779365
-0.694612
-0.608742
-0.524511
-0.445157
-0.375163
-0.320808
-0.297445
-0.344798
-0.411585
-0.458267
-0.466145
-0.474726
-0.479025
-0.47619
-0.472126
-0.470126
-0.965473
-0.935321
-0.877882
-0.803314
-0.722976
-0.641904
-0.562795
-0.489083
-0.424694
-0.375413
-0.353411
-0.391434
-0.429039
-0.449363
-0.457249
-0.479615
-0.492038
-0.49268
-0.490657
-0.490524
-0.967674
-0.941468
-0.889239
-0.820214
-0.745539
-0.670275
-0.597019
-0.529135
-0.470992
-0.425152
-0.400161
-0.435867
-0.463072
-0.464669
-0.473257
-0.480791
-0.481775
-0.481913
-0.482768
-0.483289
-0.956538
-0.935186
-0.889888
-0.828235
-0.760766
-0.692378
-0.625777
-0.563631
-0.512003
-0.471054
-0.435897
-0.472608
-0.519262
-0.556784
-0.536247
-0.503915
-0.487205
-0.481655
-0.479473
-0.478447
-0.929308
-0.913585
-0.877822
-0.826073
-0.767527
-0.70724
-0.647755
-0.591732
-0.544768
-0.511458
-0.470275
-0.487514
-0.512841
-0.600385
-0.567105
-0.504782
-0.472273
-0.463705
-0.46124
-0.460142
-0.889415
-0.879339
-0.854027
-0.813952
-0.765733
-0.714603
-0.662417
-0.612686
-0.568734
-0.540918
-0.510369
-0.459
-0.377694
-0.3654
-0.37782
-0.396172
-0.419155
-0.427544
-0.430041
-0.43005
-0.843985
-0.838251
-0.823543
-0.794912
-0.757617
-0.715105
-0.670454
-0.625468
-0.585115
-0.554252
-0.523227
-0.448634
-0.301451
-0.146507
-0.14911
-0.287025
-0.407088
-0.455934
-0.468757
-0.471994
-0.803345
-0.799875
-0.792876
-0.774552
-0.746244
-0.711144
-0.672374
-0.63158
-0.591662
-0.557721
-0.533179
-0.510418
-0.516708
-0.527176
-0.658842
-0.854944
-0.889688
-0.811689
-0.762477
-0.76614
-0.774031
-0.771944
-0.768344
-0.757412
-0.735652
-0.705861
-0.670744
-0.632035
-0.590852
-0.556935
-0.528353
-0.61029
-0.935846
-1.46625
-1.80804
-1.82223
-1.67345
-1.48543
-1.33358
-1.25926
-0.75262
-0.751898
-0.750706
-0.745175
-0.728757
-0.702058
-0.668103
-0.627804
-0.584877
-0.539455
-0.511227
-0.527421
-0.684796
-0.830117
-0.990432
-0.986742
-0.839464
-0.692147
-0.590077
-0.540227
-0.73993
-0.739717
-0.739144
-0.73642
-0.724776
-0.699917
-0.664588
-0.622962
-0.572394
-0.512949
-0.465093
-0.39024
-0.290727
-0.113539
0.0745121
0.288329
0.458558
0.53752
0.578324
0.593111
-0.730831
-0.730645
-0.730106
-0.729004
-0.721754
-0.699248
-0.662851
-0.615785
-0.557964
-0.491429
-0.406832
-0.307024
-0.09718
0.28563
0.678126
1.03297
1.25678
1.33403
1.36434
1.37001
-0.725553
-0.725295
-0.724632
-0.723988
-0.720142
-0.701755
-0.663061
-0.609036
-0.547843
-0.464709
-0.36495
-0.251292
-0.000381106
0.403318
0.817593
1.19645
1.44636
1.55521
1.58891
1.59351
-0.723332
-0.723567
-0.724168
-0.724767
-0.724083
-0.708099
-0.665141
-0.607003
-0.538488
-0.44809
-0.345784
-0.223924
-0.00677277
0.356989
0.720179
1.04902
1.26896
1.35396
1.3708
1.36924
-0.718696
-0.720268
-0.724166
-0.730167
-0.733034
-0.713536
-0.6674
-0.610716
-0.537625
-0.445527
-0.340497
-0.237053
-0.0533451
0.22379
0.472018
0.679249
0.808036
0.867939
0.897204
0.908059
-0.717554
-0.719177
-0.720221
-0.717652
-0.714973
-0.69918
-0.666787
-0.622307
-0.55005
-0.45024
-0.348051
-0.261507
-0.111134
0.0862898
0.273925
0.414694
0.495409
0.550055
0.590138
0.606435
-0.744774
-0.744515
-0.73366
-0.699899
-0.662248
-0.663579
-0.672518
-0.644338
-0.566033
-0.459383
-0.363003
-0.289006
-0.171917
0.0161296
0.177086
0.301797
0.396007
0.460808
0.495535
0.50657
-0.796335
-0.793392
-0.783042
-0.754386
-0.726156
-0.723038
-0.736884
-0.685313
-0.583394
-0.471319
-0.381072
-0.307078
-0.22241
-0.0619342
0.0885193
0.220707
0.319679
0.384451
0.411785
0.418483
-0.897172
-0.903044
-0.933645
-0.971833
-0.979254
-0.951021
-0.887117
-0.754443
-0.603761
-0.487555
-0.388318
-0.319173
-0.250544
-0.124653
0.016344
0.127263
0.214721
0.269326
0.290854
0.294614
-1.03921
-1.06026
-1.11086
-1.1564
-1.16787
-1.12992
-1.01077
-0.805422
-0.626373
-0.49678
-0.390116
-0.323452
-0.27055
-0.171084
-0.0477236
0.039154
0.110194
0.150334
0.165535
0.166807
-1.08727
-1.10897
-1.14473
-1.17614
-1.18402
-1.14478
-1.00101
-0.781456
-0.619587
-0.484738
-0.385516
-0.315515
-0.278052
-0.206874
-0.111148
-0.0413506
0.0147086
0.0445497
0.0563573
0.0566907
-0.961627
-0.980285
-1.01316
-1.04594
-1.05769
-1.01274
-0.860541
-0.694502
-0.55751
-0.443808
-0.365574
-0.309332
-0.275659
-0.226585
-0.160062
-0.106307
-0.06511
-0.0432644
-0.0361238
-0.0370544
-0.665257
-0.683693
-0.718283
-0.758086
-0.780547
-0.746475
-0.653429
-0.551458
-0.454283
-0.383664
-0.335001
-0.290535
-0.269056
-0.238068
-0.197859
-0.163608
-0.136771
-0.123849
-0.120168
-0.122027
-0.307507
-0.319363
-0.344376
-0.379771
-0.408081
-0.41592
-0.404531
-0.379369
-0.346504
-0.320323
-0.291431
-0.271939
-0.264807
-0.251817
-0.232732
-0.217805
-0.210558
-0.210148
-0.210388
-0.211431
-0.0389252
-0.0448799
-0.0611242
-0.0912475
-0.134658
-0.17797
-0.213082
-0.240083
-0.254725
-0.25482
-0.254526
-0.250334
-0.252306
-0.250787
-0.255175
-0.263476
-0.271612
-0.279626
-0.281618
-0.281614
0.0893284
0.0858828
0.07411
0.048008
0.00542832
-0.0499688
-0.104984
-0.149937
-0.182561
-0.206706
-0.222872
-0.227015
-0.236965
-0.247844
-0.262873
-0.280103
-0.298819
-0.309221
-0.312028
-0.312012
0.120863
0.118552
0.109918
0.0895914
0.0546287
0.0086093
-0.0423101
-0.0923335
-0.135547
-0.169857
-0.19843
-0.216673
-0.230408
-0.245066
-0.264327
-0.283542
-0.301333
-0.308736
-0.309505
-0.309277
0.109798
0.108262
0.102246
0.08777
0.06212
0.0263001
-0.0159299
-0.0595587
-0.101911
-0.141445
-0.18428
-0.222404
-0.244073
-0.243122
-0.251398
-0.265498
-0.27774
-0.281665
-0.281128
-0.280698
0.0864819
0.085531
0.0815382
0.0717137
0.0539233
0.0280597
-0.00461454
-0.0408507
-0.0790798
-0.119664
-0.167066
-0.220269
-0.248068
-0.23292
-0.225422
-0.228663
-0.230686
-0.230515
-0.230035
-0.229855
0.0629536
0.0624856
0.0599787
0.0536032
0.0416312
0.0235038
-0.000450927
-0.0282901
-0.0598278
-0.0944589
-0.135978
-0.182315
-0.200643
-0.183479
-0.173401
-0.173228
-0.171237
-0.170754
-0.170681
-0.17125
0.0435384
0.0432361
0.0417184
0.0377073
0.0299101
0.0176947
0.000919994
-0.0190725
-0.0418082
-0.065919
-0.0921963
-0.113379
-0.117821
-0.113816
-0.114641
-0.119467
-0.122687
-0.12424
-0.125501
-0.126062
0.028398
0.0282684
0.0274397
0.025089
0.020277
0.012453
0.00140137
-0.0120794
-0.0269665
-0.0405429
-0.0470871
-0.0422374
-0.030966
-0.045921
-0.0631941
-0.0758935
-0.0840407
-0.0881971
-0.0900273
-0.0903345
0.0168711
0.0168504
0.0164778
0.0152676
0.0126101
0.00807599
0.0015184
-0.00644614
-0.0146906
-0.0193724
-0.0136989
0.00415252
0.0197003
-0.000608289
-0.0249073
-0.040554
-0.050105
-0.0549544
-0.0567228
-0.0568213
0.00820362
0.00826653
0.00814999
0.00770999
0.00647514
0.00429629
0.00108483
-0.00273952
-0.00658195
-0.00674402
0.00345738
0.0224245
0.0366173
0.0189434
-0.00226987
-0.0149922
-0.0206708
-0.0235827
-0.0245005
-0.0248102
0.00116497
0.00121909
0.00118543
0.00127801
0.0014668
0.00131058
0.000776621
-6.78758e-05
-0.000760791
-0.00119132
0.000213296
0.00682119
0.0120169
0.010016
0.0029859
0.00297311
0.00143743
-0.00030089
-0.00213632
-0.00256312
-0.0796434
0.109651
0.283775
0.431383
0.549903
0.643745
0.721922
0.785441
0.801679
0.798029
0.211618
0.333623
0.448069
0.547428
0.631007
0.700017
0.754403
0.79117
0.810844
0.827406
0.409862
0.491467
0.571878
0.642276
0.702263
0.752032
0.791246
0.821126
0.843606
0.862823
0.557257
0.614603
0.672014
0.723821
0.768661
0.806839
0.838884
0.865784
0.886039
0.904917
0.673119
0.716412
0.759256
0.799436
0.835404
0.867194
0.894987
0.918531
0.936467
0.954498
0.769738
0.805373
0.840869
0.874678
0.905801
0.933975
0.958842
0.979693
0.995467
1.01294
0.858259
0.890219
0.922542
0.953795
0.982823
1.0092
1.03232
1.05125
1.06517
1.08219
0.945259
0.977839
1.01027
1.04149
1.07028
1.09608
1.11822
1.13575
1.14813
1.16466
1.03967
1.07609
1.11087
1.14334
1.17252
1.19788
1.219
1.23529
1.24691
1.26305
1.15276
1.19339
1.23041
1.26336
1.29185
1.31584
1.33546
1.35073
1.36264
1.37871
1.29421
1.33525
1.3705
1.40008
1.42528
1.4469
1.4654
1.48088
1.494
1.50995
1.46572
1.49805
1.52495
1.54728
1.56737
1.5861
1.60384
1.62061
1.63552
1.65125
1.65202
1.66928
1.6864
1.70309
1.71918
1.73392
1.74782
1.7623
1.77754
1.79484
1.83541
1.84538
1.85857
1.86956
1.87896
1.88862
1.89923
1.90941
1.91871
1.94437
2.0533
2.0476
2.03465
2.02039
2.0141
2.01981
2.03795
2.06647
2.10024
2.13656
2.35611
2.22016
2.14066
2.09814
2.08081
2.08479
2.11222
2.17009
2.27776
2.45616
0.679296
0.672993
0.665262
0.654147
0.640575
0.627924
0.617525
0.609511
0.603792
0.60046
0.600111
0.60295
0.608187
0.615549
0.625101
0.636933
0.650497
0.663428
0.672418
0.67996
0.588364
0.594284
0.602355
0.608487
0.611555
0.611041
0.607953
0.603956
0.600366
0.598082
0.597952
0.600212
0.603972
0.608424
0.61253
0.614778
0.613707
0.609072
0.602019
0.594186
0.581614
0.583987
0.587253
0.590025
0.592475
0.594663
0.59584
0.595692
0.594754
0.593949
0.59417
0.595593
0.597383
0.598619
0.598549
0.597086
0.594931
0.592572
0.589591
0.586574
0.576825
0.577913
0.57983
0.582167
0.584038
0.585435
0.586652
0.587643
0.588243
0.588624
0.589188
0.589943
0.59042
0.59031
0.589689
0.588771
0.587445
0.585478
0.583373
0.581896
0.571801
0.572435
0.573564
0.575321
0.577163
0.578756
0.580006
0.581068
0.582051
0.582954
0.583752
0.584288
0.584438
0.584243
0.583714
0.582747
0.581325
0.579718
0.578383
0.577582
0.566877
0.567316
0.568104
0.569408
0.570929
0.572491
0.573968
0.575263
0.576419
0.577512
0.57848
0.579101
0.579297
0.579075
0.578422
0.577431
0.576284
0.575144
0.574244
0.573711
0.562041
0.562369
0.562981
0.564051
0.565346
0.566745
0.568223
0.569696
0.571089
0.572398
0.573563
0.574333
0.57458
0.574353
0.573769
0.572996
0.572158
0.57131
0.570651
0.57026
0.55727
0.557524
0.558018
0.55893
0.560102
0.56141
0.562832
0.564359
0.56594
0.56751
0.568928
0.569875
0.570243
0.570166
0.569801
0.569269
0.568646
0.568026
0.567548
0.567249
0.552492
0.552694
0.553105
0.553907
0.555002
0.556264
0.557672
0.559245
0.560969
0.562788
0.564505
0.565722
0.566333
0.566506
0.566385
0.566082
0.565669
0.565242
0.564905
0.56467
0.547621
0.547784
0.548137
0.548866
0.549915
0.55116
0.5526
0.554259
0.556145
0.558227
0.560299
0.561886
0.562832
0.563304
0.563446
0.563378
0.563181
0.562931
0.56271
0.562522
0.542569
0.542701
0.543013
0.543698
0.544732
0.546004
0.547514
0.549305
0.551405
0.553811
0.556317
0.558363
0.559711
0.560529
0.560967
0.561153
0.561172
0.561094
0.560972
0.560821
0.537247
0.537353
0.537637
0.538304
0.539358
0.5407
0.542326
0.544304
0.546689
0.549505
0.552544
0.555142
0.556964
0.558182
0.558956
0.559419
0.559666
0.55976
0.559724
0.5596
0.531556
0.531641
0.531909
0.532582
0.533692
0.535146
0.536942
0.539174
0.541928
0.545258
0.548952
0.552212
0.554595
0.556278
0.557433
0.558219
0.558719
0.558977
0.559019
0.558916
0.525386
0.525452
0.525714
0.526416
0.527618
0.529232
0.531263
0.533831
0.537053
0.541021
0.545513
0.549571
0.552623
0.554851
0.556446
0.557595
0.558374
0.558809
0.558925
0.558839
0.518605
0.518653
0.518917
0.519671
0.521004
0.522833
0.525175
0.528173
0.531984
0.536742
0.542205
0.54722
0.551066
0.55394
0.556051
0.557609
0.558709
0.559337
0.559526
0.559453
0.511062
0.511087
0.511357
0.512185
0.513694
0.515805
0.518544
0.522085
0.52663
0.532356
0.538997
0.545163
0.549952
0.553586
0.55631
0.558355
0.55982
0.560656
0.560918
0.560854
0.502525
0.502542
0.502823
0.503753
0.505493
0.507963
0.511206
0.515431
0.520889
0.527804
0.53587
0.543412
0.549318
0.553847
0.557292
0.559925
0.561803
0.562867
0.563202
0.563144
0.49272
0.492712
0.493042
0.494117
0.496156
0.499084
0.502965
0.508049
0.514643
0.52302
0.532807
0.541984
0.549211
0.554795
0.559089
0.5624
0.564759
0.566073
0.566482
0.566425
0.481334
0.481305
0.481685
0.482952
0.485362
0.48888
0.493576
0.499751
0.507771
0.517948
0.529813
0.540921
0.549686
0.556501
0.561788
0.565883
0.568793
0.570373
0.57085
0.570791
0.467874
0.467823
0.468281
0.469799
0.472695
0.476982
0.482735
0.490309
0.500125
0.512524
0.526886
0.540258
0.550798
0.559029
0.565473
0.570468
0.573986
0.57584
0.576377
0.576309
0.451681
0.451607
0.452191
0.454061
0.457607
0.462919
0.470071
0.479468
0.491572
0.506713
0.524054
0.540053
0.552618
0.562452
0.570201
0.576209
0.580387
0.582506
0.583085
0.583002
0.431798
0.431707
0.432493
0.434875
0.439336
0.44607
0.45513
0.466953
0.482002
0.500527
0.521385
0.54038
0.555209
0.566828
0.576007
0.583134
0.587991
0.590338
0.590931
0.590824
0.406783
0.406691
0.407815
0.410989
0.416829
0.425644
0.437413
0.452545
0.471409
0.494078
0.519019
0.54135
0.558643
0.572196
0.582918
0.591221
0.596711
0.599212
0.599777
0.59964
0.374289
0.374244
0.375976
0.380517
0.388663
0.400723
0.416479
0.43617
0.45993
0.487582
0.51715
0.543093
0.562994
0.578565
0.590896
0.600364
0.606356
0.608885
0.609372
0.6092
0.330124
0.330282
0.333335
0.340717
0.353174
0.370568
0.39224
0.418086
0.447928
0.481364
0.516017
0.54577
0.568341
0.585934
0.599848
0.610363
0.616606
0.61898
0.61934
0.619136
0.26646
0.267797
0.275203
0.289121
0.309475
0.335343
0.365352
0.399011
0.436014
0.475876
0.515912
0.549526
0.57472
0.59425
0.609534
0.620798
0.626962
0.628959
0.629155
0.62894
0.190484
0.193113
0.207497
0.231452
0.262599
0.298526
0.337579
0.379511
0.424136
0.471035
0.517247
0.555548
0.584056
0.606011
0.62288
0.634663
0.640548
0.642267
0.642414
0.642292
0.112747
0.119708
0.141297
0.175301
0.216937
0.262682
0.310781
0.361053
0.413384
0.467391
0.519854
0.562903
0.594693
0.619036
0.637508
0.649451
0.654626
0.655848
0.655935
0.655882
0.0493676
0.0581993
0.0844275
0.125547
0.175451
0.229537
0.285799
0.343899
0.403586
0.464405
0.522816
0.570294
0.605106
0.631482
0.650937
0.662864
0.667653
0.66876
0.668892
0.668895
-0.00252701
0.00702173
0.0367816
0.0831976
0.139327
0.200089
0.263234
0.32824
0.394668
0.461883
0.525933
0.57761
0.615243
0.643538
0.664052
0.676264
0.680904
0.68194
0.682125
0.682168
-0.0459354
-0.0360797
-0.00390976
0.046645
0.107882
0.174201
0.243182
0.314208
0.386672
0.459767
0.529157
0.584917
0.625311
0.655542
0.677223
0.689782
0.694481
0.69568
0.695895
0.69597
-0.0833297
-0.0733412
-0.0393663
0.0145045
0.0800193
0.151114
0.225184
0.301532
0.379472
0.458048
0.532516
0.59221
0.635326
0.667443
0.690323
0.703553
0.708591
0.709854
0.710063
0.710142
-0.11639
-0.106355
-0.0709608
-0.0143442
0.0548101
0.130045
0.208636
0.289823
0.372836
0.456557
0.535846
0.599328
0.645116
0.679115
0.703267
0.717174
0.722571
0.723931
0.724134
0.724198
-0.146377
-0.136309
-0.0997612
-0.0407849
0.0315259
0.110404
0.193044
0.278647
0.366348
0.45495
0.538904
0.606079
0.654425
0.690247
0.715573
0.730205
0.735975
0.737437
0.737627
0.737674
-0.174249
-0.164128
-0.126558
-0.0654839
0.00962198
0.0917221
0.177984
0.267618
0.359721
0.452998
0.541519
0.612291
0.663142
0.700682
0.727135
0.742393
0.748555
0.750093
0.750251
0.750269
-0.200571
-0.190387
-0.151869
-0.0889067
-0.0113341
0.0736355
0.163172
0.256515
0.352745
0.450493
0.543479
0.617847
0.671152
0.710351
0.737838
0.753594
0.759992
0.761594
0.761728
0.761714
-0.225807
-0.215495
-0.176087
-0.111413
-0.0316377
0.0559084
0.148415
0.245157
0.345229
0.447269
0.544681
0.622692
0.678451
0.719221
0.747579
0.763709
0.770226
0.771849
0.77196
0.771914
-0.250256
-0.239741
-0.199484
-0.133234
-0.0514795
0.0383727
0.133565
0.233417
0.337071
0.443237
0.545051
0.626772
0.685058
0.727358
0.756449
0.772802
0.779309
0.780885
0.780975
0.780904
-0.274025
-0.263278
-0.222205
-0.154517
-0.0709857
0.0209366
0.118548
0.221239
0.328222
0.438306
0.544494
0.630079
0.691024
0.734882
0.764588
0.780968
0.78735
0.788848
0.788893
0.7888
-0.297246
-0.286229
-0.244372
-0.175329
-0.0902122
0.00355538
0.103341
0.208605
0.318645
0.432434
0.542945
0.632572
0.696417
0.741935
0.772154
0.788377
0.794498
0.79585
0.795846
0.795733
-0.319908
-0.308652
-0.266005
-0.195701
-0.10917
-0.0137656
0.0879608
0.195529
0.308349
0.425597
0.540347
0.634198
0.701281
0.748691
0.779374
0.795204
0.800876
0.802005
0.801931
0.801798
-0.342097
-0.330531
-0.287084
-0.215626
-0.127849
-0.0310024
0.0724364
0.18206
0.297379
0.417803
0.536643
0.634879
0.70561
0.755311
0.786525
0.801697
0.806604
0.807369
0.807216
0.80708
-0.363613
-0.351836
-0.3076
-0.235097
-0.146207
-0.048091
0.0568295
0.168258
0.285793
0.409092
0.531798
0.634524
0.709332
0.761887
0.793964
0.808307
0.812006
0.812099
0.811805
0.81169
-0.384609
-0.372518
-0.327529
-0.254093
-0.164221
-0.064997
0.0412271
0.1542
0.273668
0.399531
0.525795
0.633023
0.712304
0.768381
0.802006
0.815737
0.817776
0.816538
0.815821
0.815791
-0.404905
-0.392541
-0.346856
-0.272568
-0.181817
-0.0816396
0.0257084
0.14
0.261105
0.38918
0.518646
0.630264
0.714341
0.774569
0.810698
0.824767
0.825318
0.82191
0.819771
0.819552
-0.424608
-0.411931
-0.365527
-0.290468
-0.198959
-0.0979527
0.0103584
0.125737
0.248207
0.378166
0.510403
0.626116
0.715221
0.780061
0.819563
0.835576
0.836281
0.831061
0.825145
0.816647
-0.4436
-0.430684
-0.383632
-0.307957
-0.215869
-0.114215
-0.00515412
0.111013
0.234537
0.366001
0.500573
0.620037
0.714584
0.784646
0.828044
0.847628
0.850992
0.845051
0.833965
0.832836
-0.461844
-0.448876
-0.401167
-0.324981
-0.232534
-0.130389
-0.0208007
0.0958085
0.220058
0.352556
0.488967
0.611513
0.711654
0.787533
0.834234
0.856885
0.862436
0.858736
0.824633
0.786203