/*--------------------------------*- C++ -*----------------------------------*\
  =========                 |
  \\      /  F ield         | OpenFOAM: The Open Source CFD Toolbox
   \\    /   O peration     | Website:  https://openfoam.org
    \\  /    A nd           | Version:  6
     \\/     M anipulation  |
\*---------------------------------------------------------------------------*/
FoamFile
{
    version     2.0;
    format      ascii;
    class       volVectorField;
    location    "62";
    object      U;
}
// * * * * * * * * * * * * * * * * * * * * * * * * * * * * * * * * * * * * * //

dimensions      [0 1 -1 0 0 0 0];

internalField   nonuniform List<vector> 
2200
(
(0.877627 -0.0201779 0)
(1.00471 -0.0399816 0)
(1.00283 -0.034246 0)
(1.00036 -0.0231774 0)
(0.999969 -0.015452 0)
(1.00005 -0.0100859 0)
(1 -0.00637626 0)
(0.999989 -0.00390137 0)
(1.00001 -0.00206995 0)
(1.00014 -0.000542884 0)
(1.00016 0.000955448 0)
(1.00029 0.0024337 0)
(1.00029 0.00422327 0)
(1.00023 0.00668795 0)
(1.00018 0.0103495 0)
(1.00007 0.0156547 0)
(1.00057 0.0232522 0)
(1.00309 0.0341335 0)
(1.00472 0.0400503 0)
(0.877659 0.0201918 0)
(0.700824 -0.0265901 0)
(0.993619 -0.0586171 0)
(1.02973 -0.0597194 0)
(1.02175 -0.0488312 0)
(1.01381 -0.0360913 0)
(1.00827 -0.0250168 0)
(1.00508 -0.016719 0)
(1.00323 -0.0105555 0)
(1.00219 -0.00574927 0)
(1.00163 -0.00159117 0)
(1.00149 0.00263361 0)
(1.00172 0.00677735 0)
(1.0028 0.0114626 0)
(1.00468 0.0174464 0)
(1.00795 0.0256266 0)
(1.01348 0.0366358 0)
(1.0213 0.0494627 0)
(1.02921 0.0604726 0)
(0.993503 0.0587326 0)
(0.700529 0.0266254 0)
(0.530486 -0.0214142 0)
(0.966298 -0.0552521 0)
(1.05278 -0.0605587 0)
(1.0485 -0.05323 0)
(1.03242 -0.0414971 0)
(1.0213 -0.031607 0)
(1.01377 -0.0227548 0)
(1.00908 -0.0152005 0)
(1.00631 -0.00854778 0)
(1.00501 -0.00214957 0)
(1.00513 0.00407189 0)
(1.00655 0.0102407 0)
(1.00916 0.0167565 0)
(1.0137 0.0241696 0)
(1.02102 0.0328403 0)
(1.03203 0.0425263 0)
(1.04823 0.0539241 0)
(1.05272 0.060513 0)
(0.965497 0.0556203 0)
(0.529339 0.0215587 0)
(0.393119 -0.0132628 0)
(0.909829 -0.0453826 0)
(1.05581 -0.0513648 0)
(1.06647 -0.0472758 0)
(1.0511 -0.0389465 0)
(1.03579 -0.0311039 0)
(1.02481 -0.0239654 0)
(1.01719 -0.0168614 0)
(1.01223 -0.00972268 0)
(1.00936 -0.0024719 0)
(1.00901 0.00498487 0)
(1.01142 0.0123349 0)
(1.01622 0.0191665 0)
(1.02374 0.0259681 0)
(1.03478 0.0328126 0)
(1.0502 0.0403622 0)
(1.06529 0.0482946 0)
(1.0541 0.0521674 0)
(0.907603 0.0458756 0)
(0.390376 0.013447 0)
(0.309225 -0.00618318 0)
(0.846386 -0.0330431 0)
(1.04821 -0.042865 0)
(1.07728 -0.0391336 0)
(1.06531 -0.0330346 0)
(1.04864 -0.0270376 0)
(1.03577 -0.0216984 0)
(1.02618 -0.0159306 0)
(1.01957 -0.00939161 0)
(1.01595 -0.00194578 0)
(1.01595 0.00571988 0)
(1.01937 0.012737 0)
(1.0256 0.0191022 0)
(1.03486 0.0245954 0)
(1.04737 0.0295191 0)
(1.06373 0.0351327 0)
(1.0755 0.0406811 0)
(1.04574 0.0440797 0)
(0.842285 0.0336511 0)
(0.305027 0.00637714 0)
(0.265408 -0.00190953 0)
(0.788901 -0.0218828 0)
(1.0322 -0.0337538 0)
(1.08156 -0.032088 0)
(1.07504 -0.0275436 0)
(1.05875 -0.0225015 0)
(1.04558 -0.0183927 0)
(1.03527 -0.0137616 0)
(1.02762 -0.00805888 0)
(1.02286 -0.00130092 0)
(1.02224 0.00601459 0)
(1.02614 0.0128132 0)
(1.03327 0.0179863 0)
(1.04333 0.0220918 0)
(1.05642 0.0256921 0)
(1.07272 0.0301713 0)
(1.07857 0.034148 0)
(1.0279 0.0352558 0)
(0.782387 0.0226098 0)
(0.259846 0.0021538 0)
(0.241182 -0.000333605 0)
(0.738582 -0.0139803 0)
(1.01282 -0.026669 0)
(1.08248 -0.0265061 0)
(1.08131 -0.0230454 0)
(1.06625 -0.0187162 0)
(1.0533 -0.0151358 0)
(1.04296 -0.0110611 0)
(1.0351 -0.00607619 0)
(1.03041 -8.5153e-06 0)
(1.03016 0.00631217 0)
(1.03415 0.0118084 0)
(1.04121 0.01645 0)
(1.0508 0.0200439 0)
(1.06324 0.0230959 0)
(1.07765 0.0268143 0)
(1.07812 0.0293947 0)
(1.00624 0.028664 0)
(0.728885 0.0149688 0)
(0.233883 0.00067284 0)
(0.226419 -2.69264e-05 0)
(0.695647 -0.00916993 0)
(0.992125 -0.0217377 0)
(1.0807 -0.0229569 0)
(1.08545 -0.0200673 0)
(1.07236 -0.0160624 0)
(1.05964 -0.0125304 0)
(1.04976 -0.00874299 0)
(1.04215 -0.00422432 0)
(1.03705 0.00107105 0)
(1.03605 0.00676287 0)
(1.03956 0.0119695 0)
(1.04617 0.0157573 0)
(1.05543 0.0186261 0)
(1.06792 0.0212708 0)
(1.08042 0.0242729 0)
(1.07425 0.026361 0)
(0.982326 0.0241041 0)
(0.68197 0.0103508 0)
(0.217025 0.000438279 0)
(0.216762 -4.34307e-05 0)
(0.660445 -0.00632505 0)
(0.972098 -0.0181657 0)
(1.0784 -0.0202103 0)
(1.08915 -0.0176622 0)
(1.07755 -0.0140792 0)
(1.06516 -0.0107114 0)
(1.05556 -0.0070499 0)
(1.04833 -0.0026568 0)
(1.04381 0.00235526 0)
(1.0431 0.00746811 0)
(1.04609 0.0118154 0)
(1.0519 0.0155811 0)
(1.06037 0.0185234 0)
(1.07188 0.0211027 0)
(1.08222 0.0237371 0)
(1.06957 0.0248536 0)
(0.958368 0.0212209 0)
(0.641821 0.00788797 0)
(0.204763 0.000568697 0)
(0.209542 -9.29786e-05 0)
(0.631731 -0.00463522 0)
(0.953262 -0.0155463 0)
(1.07545 -0.0185291 0)
(1.09243 -0.016431 0)
(1.08243 -0.012835 0)
(1.06994 -0.00909548 0)
(1.06031 -0.00532904 0)
(1.05293 -0.00102201 0)
(1.04787 0.00381841 0)
(1.04634 0.00881409 0)
(1.04878 0.0131936 0)
(1.05431 0.0164362 0)
(1.06281 0.0189128 0)
(1.07474 0.0212673 0)
(1.08329 0.0232658 0)
(1.06291 0.0239226 0)
(0.933933 0.019206 0)
(0.606966 0.00655189 0)
(0.194323 0.000714441 0)
(0.203703 -6.96104e-05 0)
(0.608508 -0.00340099 0)
(0.935483 -0.013046 0)
(1.07253 -0.0163051 0)
(1.09588 -0.0144629 0)
(1.08707 -0.0113206 0)
(1.07454 -0.00787479 0)
(1.06486 -0.004146 0)
(1.05768 0.00024082 0)
(1.05297 0.00517315 0)
(1.05144 0.0100078 0)
(1.0534 0.0141137 0)
(1.05842 0.017404 0)
(1.06634 0.0199639 0)
(1.07735 0.0221157 0)
(1.08372 0.0236539 0)
(1.05618 0.0232802 0)
(0.910253 0.0176252 0)
(0.576702 0.00580926 0)
(0.184645 0.000836974 0)
(0.199123 7.60027e-06 0)
(0.590471 -0.00236936 0)
(0.920294 -0.0107385 0)
(1.06958 -0.0142627 0)
(1.09916 -0.0126431 0)
(1.09196 -0.0095248 0)
(1.07926 -0.00588107 0)
(1.06913 -0.00204068 0)
(1.06113 0.00240026 0)
(1.05533 0.0072179 0)
(1.05318 0.0121834 0)
(1.05486 0.016273 0)
(1.05978 0.0191671 0)
(1.06789 0.0210951 0)
(1.0793 0.0227956 0)
(1.08347 0.0239157 0)
(1.04711 0.0227864 0)
(0.885694 0.0164618 0)
(0.548933 0.00543835 0)
(0.175037 0.000930764 0)
(0.195394 0.000111024 0)
(0.575377 -0.00157106 0)
(0.905597 -0.00871798 0)
(1.06688 -0.0122613 0)
(1.10282 -0.0106903 0)
(1.0969 -0.00762614 0)
(1.08414 -0.00406885 0)
(1.0737 -0.000279997 0)
(1.06559 0.00415676 0)
(1.05981 0.00918857 0)
(1.05707 0.0139876 0)
(1.0583 0.0178995 0)
(1.0629 0.0206338 0)
(1.07069 0.0226283 0)
(1.08104 0.0241321 0)
(1.08263 0.0245079 0)
(1.03801 0.0227718 0)
(0.861601 0.0156693 0)
(0.523465 0.00529025 0)
(0.165653 0.00100024 0)
(0.193259 0.000265691 0)
(0.564919 -0.000569383 0)
(0.894219 -0.00633653 0)
(1.06439 -0.00982553 0)
(1.10623 -0.0083145 0)
(1.10182 -0.0050027 0)
(1.08869 -0.000997725 0)
(1.0775 0.00306656 0)
(1.06824 0.00755163 0)
(1.06121 0.0124651 0)
(1.05794 0.017026 0)
(1.05885 0.020533 0)
(1.06331 0.0228859 0)
(1.07135 0.0241522 0)
(1.08135 0.0251447 0)
(1.08039 0.025323 0)
(1.02586 0.0228138 0)
(0.835909 0.0151191 0)
(0.498632 0.00527757 0)
(0.156144 0.00105628 0)
(0.192382 0.000457143 0)
(0.557217 6.11586e-05 0)
(0.884101 -0.00412089 0)
(1.06299 -0.00693986 0)
(1.11037 -0.00526374 0)
(1.1072 -0.00192498 0)
(1.09415 0.00203261 0)
(1.08273 0.00607591 0)
(1.07339 0.0105514 0)
(1.06624 0.0153902 0)
(1.06214 0.0200372 0)
(1.06223 0.0234839 0)
(1.06618 0.0253864 0)
(1.07354 0.0266354 0)
(1.08187 0.0271605 0)
(1.07794 0.0263442 0)
(1.01381 0.023209 0)
(0.810599 0.0148612 0)
(0.475038 0.00539124 0)
(0.146817 0.00111267 0)
(0.193143 0.000516504 0)
(0.553374 0.0013137 0)
(0.877771 -0.00194322 0)
(1.06228 -0.00431205 0)
(1.11488 -0.00238484 0)
(1.11312 0.00127026 0)
(1.09969 0.00572344 0)
(1.08753 0.0102871 0)
(1.07707 0.0151393 0)
(1.06823 0.0199385 0)
(1.06306 0.0238251 0)
(1.0626 0.0266574 0)
(1.06569 0.0284489 0)
(1.07297 0.0291353 0)
(1.08078 0.0292096 0)
(1.07288 0.0280921 0)
(0.998103 0.0238745 0)
(0.783092 0.0150422 0)
(0.450869 0.00563571 0)
(0.137146 0.00118604 0)
(0.195578 0.000693106 0)
(0.553922 0.00203781 0)
(0.873546 0.000422949 0)
(1.0634 -0.000879043 0)
(1.12011 0.00155521 0)
(1.11932 0.00555041 0)
(1.1059 0.0100873 0)
(1.09341 0.0148095 0)
(1.08261 0.019572 0)
(1.07352 0.0243295 0)
(1.06779 0.0289001 0)
(1.06572 0.0318395 0)
(1.06815 0.0329934 0)
(1.07457 0.0332 0)
(1.07989 0.0323933 0)
(1.06786 0.0301038 0)
(0.982379 0.0252987 0)
(0.755396 0.0156226 0)
(0.426852 0.00600602 0)
(0.127332 0.00129593 0)
(0.20006 0.00105938 0)
(0.557003 0.00298063 0)
(0.874251 0.00320231 0)
(1.06598 0.00244947 0)
(1.12619 0.00560235 0)
(1.12657 0.0102616 0)
(1.11263 0.0153897 0)
(1.09925 0.0204682 0)
(1.08728 0.0257395 0)
(1.07648 0.0308794 0)
(1.06859 0.03464 0)
(1.06537 0.0366265 0)
(1.06644 0.0377708 0)
(1.07232 0.0372966 0)
(1.07705 0.0361246 0)
(1.05948 0.0333866 0)
(0.961982 0.0270769 0)
(0.724389 0.016612 0)
(0.400953 0.00654763 0)
(0.116675 0.00144105 0)
(0.206918 0.00148919 0)
(0.564581 0.00433726 0)
(0.878576 0.00587096 0)
(1.07128 0.00671516 0)
(1.13341 0.0104856 0)
(1.13467 0.015906 0)
(1.12069 0.0214355 0)
(1.10685 0.0268002 0)
(1.09421 0.0322091 0)
(1.08228 0.0372618 0)
(1.07254 0.0415457 0)
(1.06775 0.0440021 0)
(1.06799 0.0441494 0)
(1.07271 0.0431278 0)
(1.07388 0.041054 0)
(1.05068 0.0367958 0)
(0.941097 0.029653 0)
(0.692226 0.0179257 0)
(0.374014 0.00721294 0)
(0.105458 0.00159032 0)
(0.215685 0.00194365 0)
(0.576342 0.00581343 0)
(0.887369 0.00876494 0)
(1.07923 0.0111133 0)
(1.14226 0.015972 0)
(1.14424 0.0222418 0)
(1.1294 0.0288235 0)
(1.11408 0.0349574 0)
(1.09903 0.0410869 0)
(1.08426 0.0469582 0)
(1.07245 0.0512946 0)
(1.06656 0.0523206 0)
(1.06506 0.0518588 0)
(1.06852 0.049764 0)
(1.06874 0.0468793 0)
(1.03786 0.041815 0)
(0.913963 0.0325388 0)
(0.655163 0.0196759 0)
(0.343868 0.00798097 0)
(0.0930753 0.00173096 0)
(0.228531 0.00253689 0)
(0.595354 0.00815595 0)
(0.903091 0.0130735 0)
(1.09087 0.0168326 0)
(1.15296 0.0226387 0)
(1.15495 0.0297491 0)
(1.13911 0.0372117 0)
(1.12251 0.0443367 0)
(1.10623 0.0511563 0)
(1.09007 0.0571343 0)
(1.07555 0.0609814 0)
(1.06684 0.0621173 0)
(1.06439 0.0612165 0)
(1.06662 0.058387 0)
(1.06247 0.0542926 0)
(1.02362 0.0469829 0)
(0.885369 0.0366154 0)
(0.615512 0.0217695 0)
(0.311616 0.00878285 0)
(0.079967 0.00185723 0)
(0.244631 0.00317754 0)
(0.619315 0.0100602 0)
(0.924236 0.0173697 0)
(1.10644 0.023576 0)
(1.16586 0.0310908 0)
(1.16746 0.039774 0)
(1.14963 0.0485968 0)
(1.13062 0.0569521 0)
(1.11084 0.0647784 0)
(1.09013 0.0708925 0)
(1.07283 0.0743209 0)
(1.06338 0.0743635 0)
(1.05918 0.0719604 0)
(1.05965 0.0676092 0)
(1.05358 0.0618565 0)
(1.00414 0.0536339 0)
(0.848288 0.04037 0)
(0.568916 0.0239232 0)
(0.275319 0.00946452 0)
(0.0657065 0.00192897 0)
(0.26701 0.00447191 0)
(0.653193 0.0142871 0)
(0.954234 0.0246474 0)
(1.12727 0.0332802 0)
(1.18206 0.0421245 0)
(1.18246 0.0524005 0)
(1.16235 0.0622356 0)
(1.14073 0.0714624 0)
(1.1187 0.0798069 0)
(1.09625 0.0863048 0)
(1.0756 0.0894593 0)
(1.06115 0.0880991 0)
(1.05573 0.0845265 0)
(1.05508 0.078766 0)
(1.04257 0.0714667 0)
(0.981535 0.0602626 0)
(0.808654 0.0454522 0)
(0.51915 0.0263365 0)
(0.237001 0.0100389 0)
(0.0511428 0.00196311 0)
(0.298493 0.00558509 0)
(0.698918 0.0175028 0)
(0.9937 0.031496 0)
(1.15422 0.0438799 0)
(1.20185 0.0556383 0)
(1.20008 0.0688482 0)
(1.17623 0.0808514 0)
(1.15039 0.0914097 0)
(1.12267 0.100585 0)
(1.09331 0.106217 0)
(1.06819 0.106722 0)
(1.05519 0.10369 0)
(1.04877 0.0981012 0)
(1.04534 0.0900792 0)
(1.02866 0.0809528 0)
(0.952903 0.0685882 0)
(0.757832 0.0496986 0)
(0.459577 0.0281568 0)
(0.194423 0.0102947 0)
(0.0358383 0.00188649 0)
(0.334189 0.00882041 0)
(0.756118 0.0261569 0)
(1.04263 0.0446597 0)
(1.18762 0.0609282 0)
(1.22606 0.0746183 0)
(1.21971 0.0909803 0)
(1.19099 0.104744 0)
(1.16058 0.116152 0)
(1.12883 0.124621 0)
(1.09685 0.128756 0)
(1.06986 0.128093 0)
(1.05092 0.122111 0)
(1.04217 0.113603 0)
(1.03727 0.10421 0)
(1.01106 0.0930075 0)
(0.917974 0.0760278 0)
(0.702728 0.0550423 0)
(0.398723 0.0302459 0)
(0.152003 0.0103062 0)
(0.0219411 0.00177398 0)
(0.4121 0.0136629 0)
(0.84182 0.0364322 0)
(1.10951 0.0623415 0)
(1.2292 0.0843808 0)
(1.25413 0.101425 6.4095e-34)
(1.24137 0.120967 -2.87759e-34)
(1.20629 0.135907 0)
(1.17028 0.147364 0)
(1.13205 0.155023 0)
(1.09264 0.156496 0)
(1.05923 0.150233 0)
(1.04149 0.140174 0)
(1.03264 0.130055 0)
(1.023 0.117567 0)
(0.989103 0.103113 0)
(0.875796 0.0847327 0)
(0.633778 0.0583513 0)
(0.323663 0.0300302 0)
(0.102917 0.00934858 0)
(0.0065602 0.00159357 0)
(0.477291 0.0281516 4.85309e-20)
(0.941679 0.0567574 -3.6674e-20)
(1.17957 0.0917106 0)
(1.27115 0.11969 2.78007e-20)
(1.28405 0.138126 -2.25358e-20)
(1.26136 0.160396 3.03623e-34)
(1.21857 0.175707 0)
(1.17649 0.186832 1.62626e-20)
(1.13324 0.192358 -5.36114e-20)
(1.09099 0.189859 1.09768e-20)
(1.05715 0.180705 0)
(1.03409 0.167682 -2.81424e-20)
(1.02042 0.151939 -3.37138e-20)
(1.00754 0.136956 5.89543e-20)
(0.95573 0.120038 -4.65168e-20)
(0.8111 0.0927357 0)
(0.540541 0.0618267 -1.66579e-20)
(0.239153 0.0293805 0)
(0.0552742 0.00853418 -9.20744e-20)
(-0.0095501 0.000821394 1.08511e-19)
(0.513084 0.053368 -6.31924e-21)
(1.00505 0.0944288 1.11056e-19)
(1.23056 0.134745 -7.19982e-21)
(1.30509 0.164151 -6.9148e-20)
(1.30912 0.185458 -4.72732e-20)
(1.27726 0.207692 7.68084e-20)
(1.22764 0.222323 0)
(1.17965 0.232007 0)
(1.13024 0.235176 8.5445e-20)
(1.08117 0.229833 0)
(1.03922 0.215648 1.01586e-19)
(1.01359 0.196151 3.01971e-20)
(1.00028 0.178917 4.03822e-22)
(0.977787 0.159829 -6.41787e-20)
(0.912446 0.134092 0)
(0.745918 0.105136 0)
(0.463632 0.0661449 -2.7126e-19)
(0.18074 0.0296608 6.82204e-19)
(0.0238254 0.00611298 -4.03318e-19)
(-0.0209495 -0.00140436 -4.74947e-19)
(0.524308 0.0775969 -6.52528e-20)
(1.04137 0.141766 2.46936e-20)
(1.26585 0.188039 1.30009e-20)
(1.33186 0.218085 1.19627e-19)
(1.32886 0.239412 1.38104e-20)
(1.2893 0.260375 -2.00284e-19)
(1.23282 0.273619 6.83546e-20)
(1.17827 0.28096 0)
(1.12315 0.28126 -1.8126e-19)
(1.06995 0.272058 1.62026e-19)
(1.02672 0.252512 -2.74122e-19)
(0.999803 0.229606 1.28523e-19)
(0.980648 0.207199 -8.28491e-20)
(0.955523 0.183167 1.87073e-19)
(0.879156 0.156528 0)
(0.699642 0.116451 -6.76555e-20)
(0.41672 0.0726326 0)
(0.160394 0.0308784 3.72387e-19)
(0.0143345 0.00390763 -8.82352e-19)
(-0.025109 -0.00347799 5.52359e-19)
(0.524146 0.102653 1.82246e-19)
(1.0652 0.194831 -8.02863e-20)
(1.29043 0.247948 -1.61568e-20)
(1.35006 0.278802 0)
(1.34133 0.299214 -8.77516e-20)
(1.29553 0.317907 1.08305e-19)
(1.23341 0.328421 -7.38113e-20)
(1.1736 0.332181 0)
(1.11355 0.3279 1.28951e-19)
(1.05581 0.31287 -1.13801e-19)
(1.00854 0.28888 2.37019e-19)
(0.978303 0.262493 0)
(0.957777 0.237752 -1.76106e-19)
(0.926962 0.209703 9.94278e-20)
(0.845914 0.173401 2.48363e-19)
(0.66658 0.132023 -2.18585e-19)
(0.397723 0.0825427 3.45353e-19)
(0.157499 0.0335651 -7.63088e-19)
(0.0138487 0.00372325 4.82762e-19)
(-0.0262085 -0.00513071 -6.03776e-19)
(0.512804 0.130311 -6.42725e-20)
(1.07226 0.244764 4.60623e-20)
(1.30278 0.307568 -5.29278e-20)
(1.35984 0.341531 1.05511e-19)
(1.34732 0.36129 -9.91447e-20)
(1.29699 0.377369 3.43762e-20)
(1.23048 0.384916 3.48181e-21)
(1.16648 0.384411 -1.45799e-19)
(1.1032 0.374933 -1.35612e-19)
(1.04365 0.355102 -2.44326e-19)
(0.994533 0.326929 -5.09377e-19)
(0.960896 0.296844 -1.56671e-19)
(0.937081 0.267359 2.21393e-21)
(0.905432 0.235765 -3.38844e-19)
(0.822612 0.199796 -4.83203e-21)
(0.645772 0.148468 3.17744e-19)
(0.391157 0.0932928 -9.54572e-20)
(0.162841 0.0409132 -5.52586e-20)
(0.0216592 0.00529267 0)
(-0.0232407 -0.00604331 1.28352e-18)
(0.498355 0.154931 0)
(1.07231 0.294174 -4.58828e-21)
(1.30812 0.367298 -8.81805e-21)
(1.36284 0.404229 -1.25107e-20)
(1.34724 0.423514 9.56138e-20)
(1.29355 0.437198 -8.00195e-20)
(1.22409 0.441242 8.07722e-20)
(1.15767 0.435978 2.39624e-19)
(1.09139 0.421107 -7.5499e-20)
(1.02694 0.396147 1.20496e-19)
(0.972246 0.363364 2.73668e-19)
(0.937622 0.330984 3.41292e-19)
(0.911882 0.299999 -2.05131e-19)
(0.874912 0.266375 3.66732e-19)
(0.794588 0.219848 -2.90333e-19)
(0.625902 0.169723 0)
(0.387817 0.108248 -7.24433e-19)
(0.172908 0.0504507 9.75055e-19)
(0.0337333 0.0093461 7.2767e-20)
(-0.0178112 -0.00566131 -1.35778e-18)
(0.482096 0.176686 -6.5114e-21)
(1.0634 0.339684 6.10622e-21)
(1.30616 0.42389 6.37739e-20)
(1.36036 0.465081 -8.60164e-20)
(1.34263 0.484369 7.94459e-20)
(1.2866 0.495678 -7.78195e-20)
(1.21496 0.496529 1.60387e-19)
(1.14568 0.486986 -7.16823e-20)
(1.076 0.467604 -3.05569e-19)
(1.00894 0.438005 -4.35166e-22)
(0.955737 0.400666 -2.9732e-19)
(0.918047 0.36349 -3.6713e-19)
(0.887745 0.330496 2.26552e-19)
(0.854029 0.293499 -1.31733e-19)
(0.772859 0.250479 3.15786e-19)
(0.61163 0.189717 0)
(0.386516 0.124577 -4.50265e-19)
(0.18269 0.0611762 6.65038e-19)
(0.0456702 0.0147665 1.25781e-18)
(-0.0118882 -0.00445668 -1.47929e-18)
(0.468595 0.197427 -5.72665e-20)
(1.05458 0.385135 2.13178e-20)
(1.30123 0.479686 -4.18669e-20)
(1.35415 0.523851 8.8403e-20)
(1.33452 0.542704 1.18487e-20)
(1.27637 0.55212 -1.52417e-19)
(1.20249 0.550162 -9.37062e-20)
(1.13111 0.536618 -9.28727e-20)
(1.05942 0.512291 -1.73105e-19)
(0.990168 0.476586 2.77946e-19)
(0.932155 0.43452 3.00875e-19)
(0.891036 0.39671 5.82763e-19)
(0.862155 0.362912 0)
(0.824001 0.32371 6.25266e-21)
(0.746844 0.270449 -8.67437e-19)
(0.594764 0.212566 2.03452e-19)
(0.384769 0.141078 9.76719e-19)
(0.1919 0.0726494 -2.88239e-19)
(0.0574102 0.0215194 5.98155e-19)
(-0.00582524 -0.00252019 -4.99524e-20)
(0.455739 0.216102 7.91949e-21)
(1.0414 0.4265 4.41548e-20)
(1.29224 0.531641 -1.69993e-20)
(1.34474 0.579846 9.61839e-20)
(1.32341 0.59892 -1.57421e-19)
(1.26329 0.606496 1.51844e-19)
(1.18783 0.601883 9.72966e-20)
(1.11499 0.584531 2.76762e-19)
(1.04205 0.55611 3.46788e-19)
(0.971737 0.516575 -3.20868e-19)
(0.912821 0.47131 0)
(0.869962 0.428608 -2.20405e-19)
(0.837945 0.391038 2.53049e-19)
(0.802744 0.349589 3.18616e-19)
(0.726382 0.300841 -1.84524e-19)
(0.581168 0.231627 -4.4753e-19)
(0.381824 0.157911 -1.33337e-19)
(0.198957 0.08482 -1.9876e-21)
(0.067054 0.0287543 0)
(-0.000481552 -0.000297503 0)
(0.44641 0.234837 -7.25556e-20)
(1.03069 0.46824 0)
(1.28221 0.582882 -2.44271e-21)
(1.3332 0.633553 -1.20925e-20)
(1.3103 0.65206 1.8024e-19)
(1.2487 0.657944 -4.51544e-20)
(1.17214 0.650916 9.93348e-20)
(1.09875 0.630364 -1.87282e-19)
(1.02489 0.597933 2.6307e-19)
(0.951678 0.553256 -1.05151e-19)
(0.887724 0.502687 1.72565e-19)
(0.843722 0.459161 6.9921e-19)
(0.812532 0.422095 1.43164e-20)
(0.77387 0.378483 -3.32839e-19)
(0.701109 0.318705 6.14779e-19)
(0.56333 0.254114 3.50026e-21)
(0.376363 0.174091 1.42652e-19)
(0.201903 0.0967351 -6.80178e-19)
(0.0733745 0.0354353 7.01021e-19)
(0.00362327 0.00180526 -8.25772e-19)
(0.438645 0.251908 4.99313e-23)
(1.01779 0.506137 0)
(1.26991 0.630292 0)
(1.32 0.684414 -2.87022e-21)
(1.29583 0.703068 -5.34409e-20)
(1.23301 0.707162 7.20297e-20)
(1.15584 0.697661 -1.84236e-19)
(1.08189 0.673956 0)
(1.00678 0.63857 -3.879e-19)
(0.932131 0.591223 4.64608e-19)
(0.869369 0.53834 4.91519e-19)
(0.823542 0.490138 -2.56501e-19)
(0.78822 0.447326 -3.10146e-19)
(0.753187 0.401352 7.26926e-19)
(0.680934 0.347955 -2.18652e-19)
(0.547365 0.271286 -2.60429e-19)
(0.367464 0.189543 -1.55729e-19)
(0.201288 0.106757 -7.34778e-19)
(0.0766052 0.0408426 1.07806e-19)
(0.00647598 0.00353 8.93727e-19)
(0.433502 0.270127 -3.70318e-20)
(1.00759 0.54449 -4.67767e-20)
(1.25769 0.676975 2.29545e-20)
(1.30596 0.732907 1.01469e-22)
(1.28069 0.750799 -5.57045e-20)
(1.21706 0.753182 1.17443e-19)
(1.13944 0.741488 0)
(1.06507 0.715312 1.13359e-19)
(0.988741 0.676997 -8.93845e-20)
(0.911857 0.625638 7.75067e-19)
(0.844034 0.567283 -1.11289e-19)
(0.795936 0.517579 1.2731e-19)
(0.763819 0.475898 0)
(0.725027 0.428133 -3.93448e-19)
(0.65483 0.362826 4.75945e-19)
(0.526106 0.292117 0)
(0.356513 0.202629 -3.35415e-19)
(0.19727 0.115028 9.8685e-19)
(0.0763435 0.0445143 1.17023e-19)
(0.0078861 0.00457217 -1.10117e-18)
(0.429094 0.28843 -9.36463e-20)
(0.996066 0.57919 1.17257e-19)
(1.24429 0.719772 0)
(1.29125 0.778502 1.29753e-20)
(1.26501 0.796474 0)
(1.20059 0.797123 -1.51663e-19)
(1.12265 0.783162 0)
(1.04773 0.754308 0)
(0.97035 0.713795 -1.18229e-19)
(0.892296 0.660866 -7.36702e-19)
(0.82478 0.601038 -9.08219e-19)
(0.775398 0.546117 1.48612e-19)
(0.739101 0.497089 5.35608e-19)
(0.703719 0.446685 4.3277e-19)
(0.633462 0.389367 -1.52695e-18)
(0.507258 0.305044 -6.11331e-19)
(0.342757 0.213653 3.58287e-19)
(0.190058 0.120611 0)
(0.0740019 0.0460244 1.00304e-18)
(0.00795715 0.00506001 -1.18638e-18)
(0.426435 0.305679 1.12906e-19)
(0.987137 0.614336 -1.37157e-19)
(1.23158 0.761894 0)
(1.27635 0.821823 -1.13734e-20)
(1.24918 0.838904 8.23346e-22)
(1.18417 0.83785 0)
(1.10606 0.821935 5.7258e-20)
(1.03107 0.791214 7.85647e-20)
(0.952786 0.748652 -2.2265e-19)
(0.872065 0.692818 9.77097e-20)
(0.798517 0.627708 0)
(0.746711 0.570211 6.17153e-19)
(0.713752 0.522614 6.02519e-21)
(0.674545 0.470061 2.33416e-19)
(0.606156 0.398475 2.77066e-19)
(0.484044 0.320951 0)
(0.329213 0.221037 -5.83897e-19)
(0.181722 0.123421 1.14239e-18)
(0.0699705 0.0464562 -1.21317e-18)
(0.00722262 0.00500897 2.55361e-18)
(0.42461 0.322073 0)
(0.977251 0.645844 0)
(1.21822 0.800216 -6.79085e-20)
(1.26126 0.862378 0)
(1.23317 0.87949 0)
(1.1676 0.876759 -1.29454e-19)
(1.08958 0.858788 5.8802e-20)
(1.01451 0.825873 1.79822e-20)
(0.935366 0.781894 -5.09944e-20)
(0.852806 0.725111 0)
(0.779335 0.659396 -1.38355e-19)
(0.725522 0.596843 -5.03184e-19)
(0.686294 0.540033 -6.04834e-19)
(0.650823 0.48255 -2.42966e-19)
(0.583179 0.419664 2.99911e-19)
(0.464748 0.326172 -7.06568e-19)
(0.313822 0.225318 1.25635e-18)
(0.173059 0.123891 1.70879e-21)
(0.0659256 0.0457127 -1.16055e-18)
(0.00635726 0.00456706 -1.72162e-19)
(0.42389 0.337444 0)
(0.96982 0.677968 -1.12799e-19)
(1.20582 0.838138 8.23018e-20)
(1.24635 0.900943 0)
(1.21739 0.91704 0)
(1.15153 0.912592 2.61565e-19)
(1.07376 0.892867 0)
(0.999027 0.858651 0)
(0.919202 0.813554 -4.87462e-19)
(0.834118 0.755091 1.34861e-19)
(0.753781 0.684916 -1.22844e-18)
(0.694993 0.619243 0)
(0.658303 0.562508 -6.59749e-19)
(0.618656 0.501598 9.98434e-21)
(0.553834 0.420164 -9.65186e-19)
(0.441488 0.334187 3.80005e-19)
(0.300938 0.225457 1.36111e-21)
(0.16594 0.120909 -1.31281e-18)
(0.0636108 0.0439962 6.24139e-19)
(0.00607857 0.00399384 1.84216e-19)
(0.423545 0.352157 0)
(0.961457 0.706561 -1.56583e-19)
(1.19304 0.872426 8.80636e-20)
(1.23159 0.936956 1.09645e-19)
(1.20179 0.953 -1.42424e-20)
(1.13568 0.946933 2.86891e-20)
(1.05847 0.925362 -3.6023e-20)
(0.984002 0.889342 4.71339e-19)
(0.903535 0.843511 5.21451e-19)
(0.816562 0.78504 1.02453e-18)
(0.735235 0.715322 1.02064e-18)
(0.673396 0.645534 1.79523e-19)
(0.628099 0.577814 9.48155e-19)
(0.590743 0.507103 5.84914e-19)
(0.527601 0.433808 6.92314e-19)
(0.422463 0.328103 -4.15538e-19)
(0.28882 0.219399 -4.82577e-19)
(0.165383 0.115544 5.65266e-19)
(0.0663907 0.0418442 -3.36518e-19)
(0.00821071 0.00366637 5.95006e-19)
(0.423707 0.366195 2.22862e-19)
(0.955246 0.735942 2.45664e-19)
(1.18132 0.906615 5.19194e-20)
(1.21726 0.971305 1.60347e-20)
(1.18673 0.986194 1.04584e-20)
(1.12068 0.978391 -7.24202e-20)
(1.04411 0.955252 3.51213e-20)
(0.970182 0.918374 -2.02289e-20)
(0.889116 0.872079 -6.05001e-19)
(0.799819 0.813185 -1.11193e-18)
(0.711477 0.7405 7.07364e-20)
(0.642938 0.667892 0)
(0.598307 0.599782 0)
(0.554072 0.524133 -3.05546e-19)
(0.491834 0.423351 -1.13587e-18)
(0.397096 0.323754 8.94763e-19)
(0.283116 0.204742 5.2592e-19)
(0.172292 0.103443 0)
(0.0820279 0.0365255 1.08169e-18)
(0.0196468 0.00500065 -6.39549e-19)
(0.423843 0.379715 -1.17244e-19)
(0.948011 0.761753 1.05032e-19)
(1.16934 0.937225 -1.23775e-19)
(1.20327 1.00327 -9.77611e-20)
(1.17207 1.01802 -1.2242e-20)
(1.10613 1.00866 -2.21191e-20)
(1.03048 0.983906 0)
(0.95695 0.945535 -5.92247e-19)
(0.875183 0.89886 7.49828e-20)
(0.783794 0.840431 0)
(0.694532 0.769906 0)
(0.622892 0.695506 1.14796e-19)
(0.567305 0.616429 1.53861e-19)
(0.521054 0.525813 -3.30762e-19)
(0.458799 0.431058 8.15657e-19)
(0.369084 0.297679 -9.74645e-19)
(0.273074 0.178604 -1.12643e-18)
(0.196072 0.0759546 9.98486e-19)
(0.150302 0.0253487 -3.87029e-19)
(0.0894384 0.0230895 2.2472e-19)
(0.424137 0.392419 1.48766e-19)
(0.942623 0.788398 0)
(1.1584 0.967942 0)
(1.18982 1.03381 -2.60565e-20)
(1.15811 1.04734 2.10979e-20)
(1.09262 1.03626 -2.00044e-20)
(1.01791 1.01011 1.57156e-19)
(0.944835 0.971223 6.06859e-19)
(0.862173 0.924379 1.09535e-18)
(0.768513 0.866177 -8.36156e-20)
(0.673046 0.794273 1.73274e-19)
(0.594308 0.71843 -1.0264e-18)
(0.537228 0.640727 -1.02489e-18)
(0.480177 0.547486 -1.77725e-19)
(0.409222 0.413601 0)
(0.332234 0.285579 -4.34271e-21)
(0.256193 0.121008 6.2036e-19)
(0.210385 -0.00136364 -1.06388e-18)
(0.162194 -0.082953 8.15083e-19)
(0.0767166 -0.0474887 6.924e-19)
(0.424149 0.404864 -3.29191e-19)
(0.935813 0.811239 -1.48616e-19)
(1.14697 0.995006 8.50398e-21)
(1.17669 1.06224 5.78896e-20)
(1.14458 1.07576 0)
(1.07944 1.06334 -8.36569e-20)
(1.00565 1.03582 -2.24742e-19)
(0.932647 0.995686 -1.84973e-21)
(0.848865 0.94862 -5.73902e-19)
(0.752987 0.891047 -8.20334e-20)
(0.657104 0.82269 7.6193e-20)
(0.576023 0.748417 9.01841e-19)
(0.506048 0.662122 1.00002e-18)
(0.441925 0.55076 1.73305e-19)
(0.368448 0.430157 8.79692e-19)
(0.265434 0.240509 0)
(0.161299 0.105874 0)
(0.0173764 0.213869 7.02396e-19)
(-0.0435232 0.701862 -1.64299e-20)
(0.00369264 1.67595 -7.96423e-19)
(0.424325 0.416649 1.82297e-19)
(0.930807 0.835406 4.17947e-19)
(1.13657 1.02279 -5.76055e-19)
(1.16399 1.08984 2.8308e-19)
(1.13168 1.10239 -5.74029e-21)
(1.06733 1.08864 -3.69054e-20)
(0.994412 1.06017 0)
(0.92143 1.02003 -5.05537e-19)
(0.836244 0.973207 0)
(0.737949 0.916499 1.15423e-18)
(0.635587 0.847664 -9.32833e-20)
(0.546543 0.773442 1.04597e-19)
(0.474129 0.692478 1.14796e-18)
(0.395884 0.58952 -3.74748e-19)
(0.279148 0.414827 -4.46488e-19)
(0.186051 0.301866 0)
(0.0738092 0.530521 0)
(0.021158 1.47217 0)
(0.0547294 2.51634 -4.07119e-19)
(0.0673375 2.92889 -2.45671e-19)
(0.423867 0.427929 0)
(0.924406 0.855718 0)
(1.12576 1.04695 2.10834e-19)
(1.15172 1.11538 -2.29037e-19)
(1.11935 1.1283 9.6449e-20)
(1.05565 1.11381 4.33591e-20)
(0.983541 1.08462 2.84675e-20)
(0.91016 1.04368 -2.21641e-20)
(0.823419 0.996945 8.10602e-20)
(0.722608 0.9411 -1.32494e-18)
(0.620103 0.876998 1.68946e-19)
(0.529404 0.807844 9.04252e-19)
(0.442819 0.721892 -1.14358e-18)
(0.349572 0.594232 -1.25752e-18)
(0.24906 0.483225 4.22326e-19)
(0.147836 0.684908 0)
(0.0793629 1.71708 5.78478e-19)
(0.0934536 2.73101 6.39634e-19)
(0.0981461 3.08732 -7.21228e-19)
(0.0874436 3.21006 7.83502e-19)
(0.423538 0.438714 0)
(0.919827 0.877575 3.71994e-19)
(1.1161 1.0721 -5.24857e-20)
(1.13999 1.14021 3.23973e-19)
(1.10774 1.15236 -1.01239e-19)
(1.04504 1.13704 0)
(0.973664 1.10745 0)
(0.899904 1.06707 0)
(0.811493 1.02097 4.56448e-19)
(0.708517 0.966541 6.12462e-20)
(0.599911 0.90263 0)
(0.501304 0.834183 -8.98818e-19)
(0.413191 0.755873 0)
(0.299649 0.646762 8.95432e-19)
(0.198918 0.726808 -6.09173e-19)
(0.136268 1.57161 -4.85175e-19)
(0.133705 2.72782 -1.12205e-18)
(0.149433 3.12509 -6.01734e-19)
(0.127942 3.25053 -8.5206e-19)
(0.113115 3.28577 7.5269e-19)
(0.421946 0.448225 -1.31233e-19)
(0.913732 0.895228 1.65742e-20)
(1.10601 1.09349 -5.86051e-20)
(1.12877 1.16301 -2.49205e-19)
(1.09677 1.17583 0)
(1.03482 1.1603 0)
(0.963976 1.1306 0)
(0.889449 1.08989 3.49444e-20)
(0.79939 1.04423 -5.77148e-19)
(0.694014 0.990854 0)
(0.586129 0.932356 0)
(0.488307 0.871891 0)
(0.377748 0.781597 0)
(0.307608 0.757395 6.56814e-19)
(0.236008 1.25095 1.61899e-18)
(0.191737 2.51775 4.75773e-19)
(0.204021 3.09826 9.65144e-19)
(0.192177 3.26856 -7.41977e-19)
(0.156467 3.32138 2.63346e-19)
(0.137858 3.33261 0)
(0.42038 0.456825 1.35429e-19)
(0.908715 0.914606 -8.28921e-19)
(1.09672 1.11663 -2.24923e-19)
(1.11795 1.18606 -4.88743e-20)
(1.08638 1.19819 2.40447e-20)
(1.02537 1.18212 -8.19437e-20)
(0.954928 1.15237 -3.15099e-21)
(0.879801 1.11273 -3.85021e-19)
(0.788219 1.06823 0)
(0.68149 1.01692 -7.84033e-20)
(0.568604 0.95902 7.13212e-20)
(0.463811 0.897542 0)
(0.369635 0.842492 0)
(0.300787 1.01187 -8.24784e-19)
(0.229632 1.96783 1.06929e-19)
(0.223773 2.99102 -3.65383e-19)
(0.250916 3.2725 7.80521e-19)
(0.230625 3.35355 5.86838e-19)
(0.178258 3.37365 -8.82694e-19)
(0.159357 3.38317 4.42127e-19)
(0.417507 0.465152 2.66759e-19)
(0.901171 0.930444 8.0875e-19)
(1.08608 1.13723 2.69433e-19)
(1.10702 1.20881 0)
(1.076 1.22181 0)
(1.01552 1.20559 6.41468e-20)
(0.945233 1.17585 6.50456e-20)
(0.869227 1.13602 3.43126e-19)
(0.776444 1.09231 2.24491e-20)
(0.668007 1.04233 1.00346e-18)
(0.557612 0.990059 -1.19075e-18)
(0.450525 0.935916 0)
(0.377515 0.928494 0)
(0.318548 1.37864 -5.59815e-19)
(0.282737 2.63579 -6.82e-19)
(0.321514 3.20665 0)
(0.339162 3.34057 -8.72814e-19)
(0.265446 3.39149 -1.19625e-20)
(0.199914 3.42491 5.86995e-19)
(0.175957 3.44217 -2.49162e-19)
(0.414773 0.474073 -5.07147e-19)
(0.895065 0.951168 -3.88378e-19)
(1.07587 1.16233 0)
(1.09565 1.23385 0)
(1.06521 1.24589 0)
(1.0055 1.22879 0)
(0.935344 1.19866 -7.69805e-20)
(0.858884 1.16008 2.95209e-19)
(0.76525 1.11791 0)
(0.656949 1.07065 -9.13463e-19)
(0.543087 1.01863 2.13484e-18)
(0.442578 0.973582 8.69529e-20)
(0.383956 1.07436 1.14701e-19)
(0.34415 1.90191 9.04927e-19)
(0.336046 2.97937 -4.98439e-19)
(0.374314 3.30722 0)
(0.347779 3.40427 2.59231e-19)
(0.267095 3.47617 7.22584e-20)
(0.219399 3.51777 4.54333e-20)
(0.184774 3.51129 9.68183e-20)
(0.411 0.484011 2.40443e-19)
(0.886038 0.968017 -3.96639e-19)
(1.06389 1.18428 0)
(1.08368 1.25844 -7.22044e-20)
(1.05376 1.27161 2.49578e-19)
(0.994345 1.25418 0)
(0.924228 1.22383 0)
(0.847179 1.18481 -5.08893e-19)
(0.753246 1.1436 -5.80849e-20)
(0.644368 1.0978 8.93494e-19)
(0.531292 1.0501 -1.01598e-18)
(0.452547 1.0326 5.84924e-19)
(0.407065 1.30983 0)
(0.380046 2.34438 -4.78367e-19)
(0.401496 3.18901 3.11038e-19)
(0.449345 3.40036 2.16649e-19)
(0.421674 3.47572 0)
(0.364347 3.52575 1.89411e-20)
(0.315908 3.53759 -2.12187e-19)
(0.236269 3.47591 -3.59457e-20)
(0.407792 0.494688 -4.76751e-19)
(0.879301 0.991834 5.68723e-19)