/*--------------------------------*- C++ -*----------------------------------*\
  =========                 |
  \\      /  F ield         | OpenFOAM: The Open Source CFD Toolbox
   \\    /   O peration     | Website:  https://openfoam.org
    \\  /    A nd           | Version:  6
     \\/     M anipulation  |
\*---------------------------------------------------------------------------*/
FoamFile
{
    version     2.0;
    format      ascii;
    class       surfaceScalarField;
    location    "52";
    object      phi;
}
// * * * * * * * * * * * * * * * * * * * * * * * * * * * * * * * * * * * * * //

dimensions      [0 3 -1 0 0 0 0];

internalField   nonuniform List<scalar> 
4262
(
0.106808
0.471181
0.092557
0.707837
0.0648411
0.860019
0.0424577
1.02115
0.0264372
1.21454
0.0163371
1.44832
0.010068
1.73213
0.00588368
2.07522
0.00268423
2.48844
-0.000332638
2.98531
-0.00334463
2.9853
-0.00655435
2.48845
-0.0106538
2.07514
-0.0167913
1.732
-0.0267738
1.4482
-0.0426343
1.21438
-0.0648869
1.02102
-0.0925243
0.85994
-0.106845
0.707907
0.471143
0.114786
0.356394
0.13997
0.682653
0.125303
0.874686
0.101726
1.04472
0.0735601
1.2427
0.0476699
1.47421
0.0273871
1.75242
0.0134451
2.08916
0.00476723
2.49712
-0.00119327
2.99127
-0.00693298
2.99104
-0.0156693
2.49719
-0.029423
2.08889
-0.0494807
1.75206
-0.0752053
1.47393
-0.10325
1.24242
-0.126735
1.0445
-0.140738
0.873943
-0.115179
0.682348
0.355964
0.0916769
0.264717
0.126247
0.648083
0.12474
0.876193
0.11084
1.05862
0.0963397
1.2572
0.0764192
1.49413
0.0542921
1.77454
0.032816
2.11064
0.0138341
2.5161
-0.00197215
3.00708
-0.0180248
3.0071
-0.0364671
2.51563
-0.0574759
2.1099
-0.0791987
1.77378
-0.0986097
1.49334
-0.112494
1.25631
-0.125766
1.05777
-0.127453
0.87563
-0.092245
0.64714
0.263719
0.062896
0.201821
0.104136
0.606844
0.106908
0.873421
0.0972868
1.06824
0.0860968
1.26839
0.0752925
1.50493
0.0604125
1.78942
0.0415112
2.12954
0.0202172
2.5374
-0.00312445
3.03042
-0.0261599
3.03013
-0.0468732
2.53635
-0.0651772
2.1282
-0.0793866
1.78799
-0.0895755
1.50353
-0.100383
1.26711
-0.109607
1.067
-0.106056
0.872079
-0.0637337
0.604818
0.199985
0.0370259
0.164795
0.0793655
0.564504
0.0897732
0.863013
0.0830138
1.075
0.0717404
1.27967
0.0626001
1.51408
0.052234
1.79979
0.0381729
2.1436
0.0193846
2.55619
-0.00434479
3.05415
-0.0275506
3.05334
-0.0455346
2.55433
-0.0587431
2.14141
-0.0683158
1.79756
-0.0766265
1.51184
-0.0871256
1.27761
-0.0930092
1.07288
-0.0814254
0.860495
-0.0377673
0.56116
0.162218
0.0195228
0.145273
0.0565874
0.527439
0.0716087
0.847992
0.0691164
1.0775
0.0601091
1.28867
0.0501304
1.52405
0.0405232
1.8094
0.0293064
2.15482
0.0146123
2.57088
-0.00527852
3.07404
-0.0249594
3.07302
-0.0389414
2.56831
-0.0490828
2.15155
-0.0573853
1.80587
-0.0662399
1.52069
-0.0742037
1.28558
-0.0756732
1.07435
-0.0591186
0.843941
-0.0203174
0.522359
0.141901
0.0107995
0.134473
0.0422529
0.495986
0.0578416
0.832403
0.0574908
1.07785
0.0505657
1.2956
0.0405898
1.53403
0.0309003
1.81909
0.0206656
2.16505
0.00833863
2.58321
-0.0072138
3.08959
-0.0220876
3.08789
-0.0331927
2.57942
-0.0421575
2.16052
-0.0503701
1.81408
-0.0591267
1.52945
-0.0646013
1.29105
-0.0633212
1.07307
-0.0455683
0.826188
-0.0118146
0.488605
0.130086
0.00674435
0.127729
0.0331642
0.469566
0.0491305
0.816437
0.0501183
1.07686
0.0443144
1.3014
0.034916
1.54343
0.0246664
1.82933
0.014191
2.17553
0.00323684
2.59416
-0.00870442
3.10153
-0.0202304
3.09942
-0.030095
2.58928
-0.0386778
2.1691
-0.0469301
1.82233
-0.054663
1.53718
-0.0587091
1.2951
-0.05568
1.07004
-0.0370947
0.807602
-0.0079588
0.459469
0.122127
0.00475113
0.122978
0.0265513
0.447766
0.0421394
0.800848
0.0439529
1.07505
0.0389509
1.3064
0.0308586
1.55152
0.0212257
1.83897
0.0107269
2.18603
-0.000221013
2.60511
-0.0114626
3.11277
-0.0217571
3.10971
-0.0307883
2.59831
-0.0391766
2.17749
-0.0466871
1.82984
-0.0525366
1.54303
-0.0552448
1.2978
-0.0507018
1.0655
-0.0315686
0.788469
-0.0062779
0.434178
0.115849
0.00379764
0.11918
0.0218869
0.429677
0.0370798
0.785656
0.0398552
1.07227
0.0355541
1.31071
0.0281812
1.55889
0.0190781
1.84807
0.00866346
2.19644
-0.00242413
2.6162
-0.0137757
3.12412
-0.0243897
3.12033
-0.0334696
2.60739
-0.0411351
2.18515
-0.04764
1.83635
-0.0523897
1.54778
-0.0536898
1.2991
-0.047517
1.05933
-0.0279334
0.768885
-0.00567284
0.411918
0.110177
0.00317055
0.11601
0.0178694
0.414978
0.0319886
0.771536
0.0351553
1.0691
0.0312718
1.31459
0.0243709
1.56579
0.0157735
1.85667
0.00575913
2.20646
-0.00553023
2.62749
-0.0173814
3.13598
-0.0278632
3.13081
-0.0364635
2.61599
-0.043431
2.19212
-0.0487884
1.8417
-0.0525101
1.5515
-0.0528273
1.29942
-0.0452663
1.05177
-0.0254629
0.749082
-0.00552289
0.391978
0.104654
0.00253753
0.113472
0.0143145
0.403201
0.0271559
0.758695
0.03036
1.0659
0.026441
1.31851
0.0195251
1.57271
0.0112826
1.86491
0.00180444
2.21593
-0.00899161
2.63828
-0.0210194
3.148
-0.0322155
3.14201
-0.0400939
2.62387
-0.0457462
2.19777
-0.0499502
1.84591
-0.0528209
1.55437
-0.0523104
1.29891
-0.043394
1.04285
-0.0234542
0.729142
-0.00534566
0.373869
0.099308
0.00176102
0.111711
0.0107689
0.394193
0.0218024
0.747661
0.024558
1.06314
0.0206037
1.32246
0.0139496
1.57936
0.00597266
1.87289
-0.00338847
2.22529
-0.014292
2.64919
-0.0264384
3.16015
-0.0366899
3.15226
-0.043642
2.63082
-0.0486341
2.20277
-0.0523401
1.84961
-0.0539569
1.55599
-0.0524455
1.2974
-0.0422178
1.03262
-0.0221099
0.709034
-0.00525066
0.35701
0.0940573
0.000947907
0.110763
0.00756675
0.387574
0.0171236
0.738105
0.0197233
1.06054
0.0154558
1.32673
0.00798554
1.58683
-0.000649872
1.88152
-0.0101649
2.23481
-0.020661
2.65968
-0.0322181
3.17171
-0.0421919
3.16223
-0.0483975
2.63703
-0.0519539
2.20632
-0.0545278
1.85219
-0.0553188
1.55678
-0.0529175
1.295
-0.041438
1.02114
-0.0211087
0.688705
-0.00512204
0.341023
0.0889353
0.000137742
0.110625
0.00418856
0.383524
0.011058
0.731235
0.0122491
1.05935
0.00759414
1.33139
0.000252455
1.59418
-0.00855546
1.89033
-0.0184507
2.24471
-0.0291756
2.67041
-0.0403301
3.18286
-0.0484336
3.17033
-0.0532602
2.64186
-0.0564278
2.20949
-0.0583351
1.8541
-0.0584755
1.55692
-0.0546402
1.29116
-0.0415756
1.00808
-0.0207374
0.667867
-0.00515394
0.32544
0.0837813
-0.000939187
0.111564
0.000198653
0.382386
0.00502991
0.726404
0.00561664
1.05877
0.000458428
1.33654
-0.00786179
1.6025
-0.0175695
1.90004
-0.0279079
2.25504
-0.0385244
2.68102
-0.0487285
3.19307
-0.0564016
3.17801
-0.060581
2.64603
-0.0622561
2.21116
-0.0629675
1.85481
-0.0618623
1.55582
-0.0564585
1.28576
-0.0419566
0.993575
-0.0206157
0.646526
-0.00522419
0.310048
0.0785571
-0.00182974
0.113394
-0.00291592
0.383472
-0.00139977
0.724888
-0.00313237
1.0605
-0.00929994
1.34271
-0.0177853
1.61098
-0.0276003
1.90985
-0.038495
2.26594
-0.0498499
2.69238
-0.0599741
3.20319
-0.0668281
3.18486
-0.0700987
2.64931
-0.0710028
2.21207
-0.0703724
1.85418
-0.0676953
1.55314
-0.0602216
1.27829
-0.0436795
0.977033
-0.0212417
0.624088
-0.00546957
0.294276
0.0730876
-0.00311363
0.116508
-0.00655713
0.386915
-0.00828749
0.726618
-0.0114962
1.06371
-0.0187911
1.35001
-0.0289611
1.62115
-0.0403408
1.92123
-0.0522692
2.27787
-0.0640735
2.70418
-0.0740419
3.21316
-0.079497
3.19032
-0.0805657
2.65037
-0.0795952
2.2111
-0.0780327
1.85261
-0.074339
1.54945
-0.0650935
1.26904
-0.046325
0.958264
-0.0224629
0.600226
-0.00586928
0.277683
0.0672183
-0.00436941
0.120877
-0.0107576
0.393304
-0.0157678
0.731628
-0.021903
1.06984
-0.0307149
1.35882
-0.0418436
1.63228
-0.0542427
1.93363
-0.0674444
2.29107
-0.0804206
2.71716
-0.0911095
3.22385
-0.0956587
3.19487
-0.0961349
2.65085
-0.0939494
2.20891
-0.0901313
1.8488
-0.0837944
1.54311
-0.0718174
1.25706
-0.0501928
0.93664
-0.0242595
0.574293
-0.00636971
0.259793
0.0608486
-0.00581885
0.126696
-0.0157232
0.403208
-0.0249598
0.740865
-0.0337682
1.07865
-0.0444388
1.36949
-0.0578326
1.64567
-0.0726201
1.94842
-0.0878398
2.30629
-0.101968
2.73129
-0.112559
3.23444
-0.115416
3.19772
-0.112465
2.6479
-0.107411
2.20386
-0.101891
1.84328
-0.0944003
1.53562
-0.0797957
1.24246
-0.054838
0.911682
-0.0264377
0.545893
-0.00696165
0.240317
0.0538869
-0.00827923
0.134975
-0.0228642
0.417793
-0.0374334
0.755434
-0.0497821
1.091
-0.0622556
1.38196
-0.077051
1.66047
-0.0935611
1.96493
-0.111
2.32373
-0.127043
2.74733
-0.138025
3.24542
-0.139135
3.19883
-0.134553
2.64332
-0.12767
2.19697
-0.119238
1.83484
-0.107724
1.5241
-0.0891364
1.22387
-0.0603213
0.882867
-0.0288829
0.514454
-0.00755853
0.218992
0.0463284
-0.0106263
0.145602
-0.0297829
0.43695
-0.0502564
0.775908
-0.0676569
1.1084
-0.0840101
1.39832
-0.102859
1.67932
-0.123409
1.98548
-0.143843
2.34416
-0.16024
2.76373
-0.167805
3.25299
-0.164597
3.19562
-0.156112
2.63483
-0.145899
2.18676
-0.135406
1.82435
-0.12208
1.51078
-0.0996308
1.20142
-0.0661494
0.849385
-0.0313155
0.47962
-0.0080687
0.195746
0.0382597
-0.0152926
0.160894
-0.0423413
0.463998
-0.0700858
0.803652
-0.0928
1.13111
-0.113387
1.4189
-0.13665
1.70258
-0.160724
2.00955
-0.182539
2.36598
-0.197718
2.77891
-0.202537
3.2578
-0.196203
3.18929
-0.184499
2.62313
-0.171507
2.17377
-0.157281
1.81013
-0.139143
1.49264
-0.111627
1.17391
-0.0729215
0.81068
-0.0340303
0.440729
-0.00854176
0.170257
0.0297179
-0.0193736
0.180268
-0.0551723
0.499797
-0.0924742
0.840954
-0.123129
1.16177
-0.150204
1.44598
-0.180009
1.73239
-0.208137
2.03768
-0.231011
2.38885
-0.243937
2.79183
-0.242275
3.25614
-0.228258
3.17527
-0.212055
2.60693
-0.196083
2.1578
-0.179538
1.79358
-0.158238
1.47134
-0.124796
1.14046
-0.0796755
0.765559
-0.0363717
0.397425
-0.0087015
0.142587
0.0210164
-0.0315239
0.211792
-0.0791373
0.54741
-0.127207
0.889024
-0.165636
1.2002
-0.199442
1.47978
-0.235983
1.76893
-0.266086
2.06779
-0.286298
2.40906
-0.29313
2.79866
-0.285904
3.24892
-0.269226
3.15859
-0.249265
2.58696
-0.229245
2.13778
-0.20817
1.77251
-0.180342
1.44351
-0.13978
1.0999
-0.0875802
0.71336
-0.0388347
0.34868
-0.00865657
0.112409
0.0123598
-0.0449954
0.256787
-0.117496
0.619911
-0.181742
0.953269
-0.227881
1.24634
-0.269427
1.52133
-0.308138
1.80764
-0.333588
2.09324
-0.347012
2.42249
-0.34875
2.8004
-0.33754
3.23771
-0.314059
3.13511
-0.287516
2.56042
-0.26129
2.11155
-0.233997
1.74521
-0.200244
1.40976
-0.151832
1.05149
-0.0918407
0.653369
-0.0390947
0.295934
-0.00857446
0.0818884
0.00378539
-0.0321577
0.288945
-0.0965075
0.684261
-0.155879
1.01264
-0.204962
1.29542
-0.256075
1.57244
-0.297256
1.84882
-0.333934
2.12991
-0.364916
2.45347
-0.386429
2.82192
-0.392307
3.24358
-0.382441
3.12525
-0.362217
2.5402
-0.33506
2.08439
-0.300115
1.71027
-0.24962
1.35927
-0.179601
0.981469
-0.100724
0.574492
-0.0391285
0.234339
-0.00876111
0.051521
-0.00497573
-0.0136798
0.302625
-0.0479154
0.718497
-0.0871693
1.05189
-0.127232
1.33548
-0.166251
1.61146
-0.198541
1.88111
-0.229509
2.16088
-0.256437
2.4804
-0.274221
2.8397
-0.277184
3.24655
-0.264672
3.11274
-0.242386
2.51791
-0.215289
2.0573
-0.181405
1.67638
-0.140012
1.31787
-0.0892892
0.930747
-0.0406386
0.525841
-0.0136441
0.207344
-0.00329695
0.0411739
-0.00827267
-0.0033256
0.30595
-0.0241123
0.739283
-0.0515924
1.07937
-0.0791742
1.36307
-0.10539
1.63768
-0.13224
1.90796
-0.158962
2.1876
-0.181983
2.50342
-0.196287
2.854
-0.197151
3.24741
-0.182439
3.09802
-0.159489
2.49496
-0.131923
2.02973
-0.100719
1.64518
-0.0637629
1.28092
-0.0276982
0.894682
-0.00395078
0.502094
0.0015045
0.201889
0.000325222
0.0423532
-0.00794745
0.000544663
0.305406
-0.0142519
0.75408
-0.0340205
1.09914
-0.0543411
1.38339
-0.0738869
1.65722
-0.0947617
1.92884
-0.116257
2.2091
-0.135844
2.523
-0.149519
2.86768
-0.150325
3.24822
-0.134841
3.08254
-0.110073
2.47019
-0.079913
1.99957
-0.0480187
1.61328
-0.0191498
1.25205
0.00351452
0.872018
0.0128879
0.49272
0.00929905
0.205478
0.00261642
0.0490358
-0.00533103
0.00287864
0.302527
-0.00711134
0.76407
-0.0240085
1.11604
-0.0417613
1.40114
-0.0585037
1.67396
-0.0754351
1.94577
-0.0926904
2.22635
-0.107685
2.538
-0.116543
2.87654
-0.114392
3.24607
-0.0993558
3.0675
-0.0761079
2.44694
-0.0495828
1.97305
-0.0224309
1.58613
0.00442831
1.22519
0.0227478
0.853698
0.0246261
0.490842
0.014649
0.215455
0.00420687
0.059478
-0.00112416
0.00424064
0.298286
-0.0021888
0.7705
-0.0169781
1.13083
-0.0341358
1.4183
-0.0507916
1.69062
-0.066117
1.96109
-0.0803432
2.24058
-0.0922641
2.54992
-0.0996535
2.88392
-0.0979417
3.24436
-0.0813865
3.05095
-0.058456
2.42401
-0.0333741
1.94797
-0.00653467
1.55929
0.0149069
1.20375
0.0271679
0.841437
0.0266899
0.49132
0.0157542
0.22639
0.00471571
0.0705165
0.00359155
0.0034847
0.294802
-0.00114763
0.775132
-0.0138714
1.14355
-0.0296224
1.43405
-0.045693
1.70669
-0.0606507
1.97605
-0.0742993
2.25423
-0.0854086
2.56103
-0.0910639
2.88958
-0.0876095
3.2409
-0.0728754
3.03621
-0.0511989
2.40234
-0.0276256
1.92439
-0.00626282
1.53793
0.0143717
1.18311
0.0264954
0.829313
0.0246538
0.493162
0.0144915
0.236553
0.00445805
0.08055
0.00804959
0.00214045
0.292661
-0.00183135
0.779104
-0.0127464
1.15447
-0.0269945
1.4483
-0.0425477
1.72224
-0.0578698
1.99137
-0.0721704
2.26853
-0.0837449
2.5726
-0.0897355
2.89557
-0.0860809
3.23725
-0.0709833
3.02112
-0.051534
2.38289
-0.0309714
1.90383
-0.00858327
1.51554
0.00871145
1.16582
0.0195212
0.818504
0.0194639
0.493219
0.0113293
0.244687
0.00343122
0.0884481
0.0114808
0.000648307
0.292013
-0.00357943
0.783331
-0.0133944
1.16428
-0.0261507
1.46105
-0.0406401
1.73673
-0.0560404
2.00677
-0.0714022
2.28389
-0.0843336
2.58553
-0.0912328
2.90247
-0.0879842
3.234
-0.0745276
3.00766
-0.0559245
2.36428
-0.0350119
1.88292
-0.0171442
1.49767
0.00066139
1.14801
0.0117606
0.807405
0.0121215
0.492858
0.00735391
0.249455
0.00237497
0.093427
0.0138558
-0.000984236
0.292997
-0.00558638
0.787934
-0.0145994
1.1733
-0.0263625
1.47281
-0.0401638
1.75053
-0.0554514
2.02206
-0.0715741
2.30001
-0.0863255
2.60029
-0.0960374
2.91218
-0.0948616
3.23282
-0.0803933
2.99319
-0.0627752
2.34667
-0.0453704
1.86551
-0.0259454
1.47825
-0.0098264
1.13189
0.000765466
0.796813
0.00423276
0.489391
0.00277367
0.250914
0.00118989
0.0950108
0.0150457
-0.00231887
0.295316
-0.00748404
0.793099
-0.016208
1.18202
-0.0273077
1.48391
-0.040398
1.76362
-0.055342
2.037
-0.071989
2.31666
-0.0884079
2.6167
-0.100447
2.92422
-0.101312
3.23369
-0.088827
2.98071
-0.0705357
2.32838
-0.0521621
1.84714
-0.0364447
1.46253
-0.0195457
1.11499
-0.00733208
0.784599
-0.00252042
0.484579
-0.000887211
0.249281
-3.35762e-05
0.0941572
0.0150121
-0.0034757
0.298792
-0.00926609
0.798889
-0.0178764
1.19063
-0.028648
1.49469
-0.0414012
1.77638
-0.055926
2.05153
-0.0724021
2.33314
-0.0896436
2.63395
-0.104893
2.93947
-0.111105
3.2399
-0.10133
2.97093
-0.0832101
2.31026
-0.0653687
1.8293
-0.0454064
1.44257
-0.0292843
1.09887
-0.0165834
0.771898
-0.00842963
0.476425
-0.00382885
0.24468
-0.000871463
0.0911998
0.0141406
-0.00416562
0.302957
-0.0106147
0.805338
-0.0193514
1.19937
-0.0299347
1.50527
-0.0423095
1.78875
-0.0563908
2.06561
-0.0725996
2.34935
-0.0904426
2.65179
-0.108146
2.95717
-0.118782
3.25054
-0.113026
2.96518
-0.0946575
2.29189
-0.0713897
1.80603
-0.0530494
1.42423
-0.0357171
1.08154
-0.0221253
0.758306
-0.0130673
0.467367
-0.00574848
0.237361
-0.00140873
0.08686
0.0127319
-0.0047611
0.307718
-0.0118846
0.812462
-0.0207153
1.2082
-0.0311815
1.51574
-0.043359
1.80093
-0.0570036
2.07925
-0.0726348
2.36498
-0.0903765
2.66953
-0.109882
2.97668
-0.126403
3.26706
-0.126795
2.96557
-0.110377
2.27547
-0.0857232
1.78138
-0.0589262
1.39743
-0.0407374
1.06335
-0.0270253
0.744594
-0.0153666
0.455709
-0.00676119
0.228756
-0.00153651
0.0816353
0.0111954
-0.005088
0.312806
-0.0126578
0.820032
-0.0216059
1.21715
-0.0319605
1.52609
-0.0438527
1.81282
-0.0571403
2.09254
-0.0724464
2.38028
-0.0902783
2.68736
-0.110698
2.9971
-0.129938
3.2863
-0.134986
2.97062
-0.12174
2.26222
-0.0941983
1.75383
-0.0654873
1.36872
-0.0419287
1.03979
-0.0270459
0.729711
-0.0163726
0.445035
-0.0065654
0.218948
-0.00120026
0.0762702
0.00999514
-0.00533982
0.318146
-0.0133607
0.828052
-0.022357
1.22614
-0.03259
1.53632
-0.0442647
1.8245
-0.0571538
2.10543
-0.0721222
2.39525
-0.089887
2.70513
-0.110596
3.01781
-0.132229
3.30793
-0.143564
2.98195
-0.135194
2.25385
-0.111372
1.73001
-0.0746589
1.33201
-0.0431451
1.00828
-0.0237333
0.7103
-0.0118971
0.433199
-0.00414857
0.2112
-0.000631451
0.0727531
0.00936368
-0.00537936
0.323526
-0.013548
0.836221
-0.0226009
1.2352
-0.0326777
1.5464
-0.0439531
1.83577
-0.0565307
2.11801
-0.0716444
2.41037
-0.0897835
2.72327
-0.110532
3.03856
-0.132152
3.32955
-0.145756
2.99556
-0.142125
2.25022
-0.119271
1.70716
-0.0855495
1.29829
-0.044917
0.967645
-0.0134908
0.678873
-0.000636184
0.420345
0.00393955
0.206624
0.00198797
0.0747046
0.0113517
-0.00539938
0.328925
-0.0137386
0.84456
-0.0227538
1.24421
-0.0326583
1.5563
-0.043476
1.84659
-0.0557367
2.13027
-0.0710899
2.42572
-0.0895557
2.74173
-0.110123
3.05912
-0.132028
3.35145
-0.148593
3.01212
-0.149951
2.25158
-0.133852
1.69106
-0.0971931
1.26163
-0.051531
0.921983
-0.00502447
0.632367
0.0231711
0.392149
0.0245397
0.205255
0.0103114
0.088933
0.0216631
-0.00523652
0.334161
-0.0134987
0.852822
-0.0224556
1.25317
-0.0321746
1.56602
-0.0422616
1.85668
-0.0543858
2.14239
-0.0703866
2.44172
-0.0894947
2.76084
-0.109991
3.07962
-0.131368
3.37283
-0.147773
3.02853
-0.15206
2.25587
-0.1374
1.6764
-0.107651
1.23188
-0.0573692
0.871701
0.000405927
0.574592
0.055931
0.336624
0.0778478
0.183339
0.0526735
0.114107
0.0743366
-0.00509458
0.339256
-0.0129156
0.860644
-0.0211527
1.2614
-0.0304454
1.57532
-0.0419724
1.8682
-0.05612
2.15654
-0.0734053
2.45901
-0.0933268
2.78076
-0.114651
3.10094
-0.135939
3.39412
-0.151653
3.04424
-0.155404
2.25962
-0.14619
1.66718
-0.114731
1.20042
-0.0666791
0.823649
0.006328
0.501585
0.0876128
0.255339
0.146661
0.124291
0.14452
0.116248
0.218856
-0.00495282
0.344209
-0.0124011
0.868092
-0.0204512
1.26945
-0.0299179
1.58478
-0.042118
1.8804
-0.0573919
2.17181
-0.0760467
2.47766
-0.0977027
2.80242
-0.121764
3.12501
-0.146723
3.41908
-0.165913
3.06343
-0.173781
2.26749
-0.163726
1.65713
-0.137662
1.17436
-0.0802968
0.766283
-0.0202053
0.441493
-0.0648203
0.299954
-0.386277
0.445747
-1.00384
0.733816
0.927785
-1.71277
-0.00482783
0.349037
-0.0123099
0.875574
-0.0203954
1.27754
-0.0297458
1.59413
-0.0412209
1.89188
-0.0560604
2.18665
-0.0752089
2.49681
-0.0978749
2.82508
-0.123206
3.15034
-0.151195
3.44707
-0.176565
3.0888
-0.19116
2.28208
-0.194824
1.66079
-0.17386
1.15339
-0.145398
0.737821
-0.260791
0.556887
-0.763498
0.802661
-1.51352
1.19577
-2.10254
1.32284
1.20642
-2.38117
-0.00453581
0.353573
-0.0117604
0.882798
-0.0197254
1.28551
-0.0287441
1.60315
-0.0399431
1.90308
-0.055051
2.20176
-0.074876
2.51663
-0.0985137
2.84872
-0.12575
3.17757
-0.157272
3.47859
-0.187228
3.11875
-0.209723
2.30458
-0.217206
1.66828
-0.214531
1.15072
-0.332533
0.855824
-0.847057
1.07141
-1.62136
1.57696
-2.14562
1.72003
-2.36602
1.54323
1.30972
-2.46932
-0.00400478
0.357577
-0.0113953
0.890189
-0.0191194
1.29323
-0.0276252
1.61166
-0.0386527
1.91411
-0.0540949
2.2172
-0.0743902
2.53693
-0.0986301
2.87296
-0.127465
3.20641
-0.163038
3.51416
-0.200571
3.15629
-0.233536
2.33754
-0.258833
1.69357
-0.35021
1.24209
-0.733801
1.23942
-1.49959
1.8372
-2.05556
2.13293
-2.28089
1.94536
-2.38649
1.64883
1.37648
-2.45324
-0.00313
0.360707
-0.00921695
0.896276
-0.0163969
1.30041
-0.025418
1.62068
-0.0376691
1.92636
-0.0536859
2.23322
-0.0739187
2.55716
-0.0986421
2.89769
-0.129743
3.23751
-0.169928
3.55435
-0.213883
3.20024
-0.255149
2.37881
-0.302649
1.74107
-0.531878
1.47132
-1.20043
1.90797
-1.86389
2.50066
-2.15345
2.42249
-2.28834
2.08025
-2.36597
1.72646
1.43407
-2.42356
-0.00271134
0.363419
-0.00760744
0.901172
-0.0147002
1.3075
-0.024925
1.6309
-0.038532
1.93996
-0.0552018
2.24989
-0.0754584
2.57742
-0.100832
2.92306
-0.134093
3.27077
-0.178831
3.59908
-0.230101
3.25151
-0.279245
2.42795
-0.407032
1.86886
-0.827568
1.89186
-1.57105
2.65145
-1.99855
2.92816
-2.17349
2.59743
-2.26469
2.17145
-2.33499
1.79675
1.49304
-2.39396
-0.00258614
0.366005
-0.0078472
0.906433
-0.0155426
1.3152
-0.0263494
1.64171
-0.0404575
1.95407
-0.057805
2.26724
-0.0790136
2.59863
-0.105843
2.94989
-0.141776
3.3067
-0.191733
3.64904
-0.249667
3.30945
-0.322545
2.50083
-0.53751
2.08382
-1.14241
2.49676
-1.754
3.26304
-1.99351
3.16768
-2.12525
2.72917
-2.22523
2.27144
-2.30826
1.87978
1.5516
-2.36682
-0.00285308
0.368858
-0.00904298
0.912623
-0.0173453
1.3235
-0.0283858
1.65275
-0.0427836
1.96847
-0.0606665
2.28512
-0.0827636
2.62072
-0.110912
2.97804
-0.149004
3.3448
-0.202971
3.70301
-0.265609
3.37208
-0.368607
2.60383
-0.698217
2.41343
-1.37777
3.17631
-1.80965
3.69493
-1.9986
3.35663
-2.12511
2.85568
-2.22355
2.36988
-2.2976
1.95382
1.58121
-2.32721
-0.00314611
0.372004
-0.00971118
0.919188
-0.0187274
1.33252
-0.0302914
1.66431
-0.0449817
1.98316
-0.0633616
2.3035
-0.0864292
2.64379
-0.116191
3.0078
-0.157158
3.38576
-0.215411
3.76126
-0.28502
3.44169
-0.436292
2.7551
-0.870403
2.84755
-1.50588
3.81179
-1.81954
4.00859
-1.9729
3.50999
-2.06268
2.94546
-2.14008
2.44728
-2.18908
2.00281
1.52424
-2.13211
-0.00347475
0.375479
-0.0107521
0.926465
-0.0203274
1.34209
-0.0324097
1.6764
-0.0476467
1.9984
-0.0665576
2.32241
-0.0903915
2.66763
-0.121324
3.03873
-0.164435
3.42887
-0.227756
3.82458
-0.321953
3.53589
-0.523786
2.95693
-1.02616
3.34992
-1.55889
4.34452
-1.79353
4.24322
-1.92878
3.64524
-2.00743
3.02412
-2.01319
2.45303
-1.92815
1.91778
1.44165
-1.84556
-0.00347429
0.378953
-0.0109106
0.933902
-0.0210877
1.35227
-0.0338003
1.68911
-0.0494818
2.01408
-0.0687254
2.34166
-0.0929133
2.69181
-0.124538
3.07036
-0.168677
3.47301
-0.229898
3.8858
-0.331578
3.63757
-0.570058
3.19541
-1.1085
3.88836
-1.51288
4.7489
-1.6678
4.39814
-1.74343
3.72087
-1.77108
3.05176
-1.63767
2.31962
-1.11864
1.39874
0.323014
-0.00341795
0.382371
-0.0114155
0.941899
-0.0220621
1.36292
-0.0355645
1.70261
-0.0525296
2.03104
-0.0732727
2.3624
-0.0993076
2.71785
-0.133723
3.10477
-0.181787
3.52108
-0.24787
3.95189
-0.368718
3.75842
-0.672592
3.49929
-1.25502
4.47079
-1.57717
5.07106
-1.68529
4.50625
-1.71377
3.74935
-1.60789
2.94589
-1.24853
1.96025
-0.474729
0.624946
-0.151715
-0.00315389
0.385525
-0.0110391
0.949784
-0.0224384
1.37431
-0.0367894
1.71696
-0.054562
2.04882
-0.0765832
2.38442
-0.104763
2.74603
-0.142378
3.14239
-0.194876
3.57357
-0.269714
4.02672
-0.421187
3.90989
-0.79692
3.87502
-1.36612
5.03999
-1.59493
5.29986
-1.66166
4.57299
-1.63023
3.71791
-1.36623
2.68189
-0.640342
1.23437
-0.0169629
0.00156772
-0.168678
-0.00258686
0.388112
-0.0110902
0.958288
-0.0228276
1.38605
-0.037699
1.73183
-0.0565048
2.06762
-0.0799694
2.40788
-0.110105
2.77616
-0.150392
3.18267
-0.205834
3.62902
-0.296201
4.11709
-0.480233
4.09392
-0.918511
4.3133
-1.43994
5.56142
-1.59699
5.45691
-1.63129
4.60729
-1.48111
3.56774
-0.975922
2.1767
-0.167183
0.425627
0.0385844
-0.204199
-0.130093
-0.00186098
0.389973
-0.00952542
0.965952
-0.0217399
1.39827
-0.0374276
1.74752
-0.0569406
2.08714
-0.0815216
2.43247
-0.113673
2.80831
-0.157326
3.22633
-0.216189
3.68788
-0.317379
4.21828
-0.529345
4.30589
-1.03771
4.82166
-1.47026
5.99397
-1.57181
5.55847
-1.54811
4.58359
-1.26283
3.28245
-0.502282
1.41616
0.00760871
-0.0842642
0.0258453
-0.222436
-0.104248
-0.000964905
0.390938
-0.00842013
0.973407
-0.0203859
1.41023
-0.0361928
1.76333
-0.0564695
2.10741
-0.0822743
2.45827
-0.116155
2.8422
-0.162573
3.27274
-0.225135
3.75044
-0.334137
4.32728
-0.577079
4.54883
-1.13087
5.37545
-1.44829
6.31138
-1.50296
5.61313
-1.41181
4.49244
-0.975422
2.84606
-0.1566
0.597334
0.019024
-0.259888
0.0181179
-0.22153
-0.08613
0.00117637
0.389761
-0.00462055
0.979204
-0.0166563
1.42227
-0.0330069
1.77968
-0.0536587
2.12806
-0.0801237
2.48474
-0.115427
2.8775
-0.164397
3.32171
-0.23078
3.81683
-0.350717
4.44722
-0.632272
4.83039
-1.18394
5.92712
-1.40412
6.53157
-1.42796
5.63698
-1.21209
4.27657
-0.578766
2.21273
-0.0104647
0.0290332
0.0100139
-0.280366
0.00486933
-0.216385
-0.0812607
0.00284557
0.386916
-0.00126819
0.983318
-0.0120409
1.43304
-0.0277232
1.79536
-0.0484545
2.14879
-0.0755275
2.51181
-0.111657
2.91363
-0.161221
3.37128
-0.232374
3.88798
-0.362276
4.57712
-0.674605
5.14272
-1.18339
6.4359
-1.33232
6.68051
-1.30588
5.61053
-0.984923
3.95562
-0.286554
1.51436
-0.0297747
-0.227746
-0.00927591
-0.300865
-0.00476653
-0.220895
-0.0860272
0.00678158
0.380134
0.00601566
0.984084
-0.00351301
1.44257
-0.0191083
1.81096
-0.0396048
2.16929
-0.0665918
2.5388
-0.102914
2.94995
-0.153144
3.42151
-0.226873
3.96171
-0.366319
4.71657
-0.704907
5.4813
-1.14022
6.87121
-1.20849
6.74878
-1.14757
5.54962
-0.790242
3.59829
-0.0628328
0.786952
0.0110068
-0.301585
0.0189574
-0.308816
0.00701081
-0.208948
-0.0790164
0.010551
0.369583
0.013584
0.981051
0.00719099
1.44896
-0.00638793
1.82454
-0.0258719
2.18878
-0.0524576
2.56538
-0.0883289
2.98582
-0.136476
3.46966
-0.212283
4.03751
-0.358151
4.86243
-0.698735
5.82189
-1.04392
7.21639
-1.08803
6.79289
-0.961137
5.42273
-0.523689
3.16084
0.0754753
0.187787
0.0898021
-0.315912
0.0716886
-0.290702
0.0277174
-0.164977
-0.051299
0.0175046
0.352078
0.0271037
0.971452
0.0242714
1.45179
0.0121428
1.83666
-0.00627682
2.20719
-0.031844
2.59095
-0.0666434
3.02062
-0.113421
3.51643
-0.184946
4.10904
-0.318834
4.99632
-0.654507
6.15756
-0.919959
7.48185
-0.947202
6.82013
-0.775907
5.25143
-0.289464
2.6744
0.0642363
-0.165913
0.092477
-0.344153
0.0792084
-0.277434
0.0323055
-0.118074
-0.0189935
0.0246574
0.327421
0.0421113
0.953998
0.0450716
1.44883
0.0372067
1.84453
0.0219135
2.22249
-0.00156135
2.61442
-0.0345112
3.05357
-0.0790889
3.56101
-0.144416
4.17437
-0.261126
5.11303
-0.555812
6.45225
-0.749316
7.67535
-0.778797
6.84961
-0.644776
5.11741
-0.219908
2.24953
-0.101961
-0.28386
-0.0317335
-0.41438
0.0235162
-0.332683
0.0230807
-0.117638
0.0040872
0.0361759
0.291245
0.0653054
0.924869
0.0754783
1.43866
0.0713757
1.84863
0.059434
2.23443
0.0388892
2.63497
0.00913997
3.08332
-0.0331642
3.60332
-0.0925462
4.23375
-0.186058
5.20654
-0.403703
6.66989
-0.543905
7.81555
-0.588252
6.89396
-0.491903
5.02106
-0.16047
1.91809
-0.190541
-0.253789
-0.127343
-0.477578
-0.0531266
-0.4069
0.0134822
-0.184247
0.0175694
0.0481649
0.24308
0.0915564
0.881477
0.111665
1.41855
0.115617
1.84468
0.110522
2.23952
0.0953252
2.65016
0.0713506
3.10729
0.0331489
3.64152
-0.022806
4.2897
-0.100879
5.28462
-0.206563
6.77558
-0.290216
7.89921
-0.334186
6.93793
-0.31867
5.00554
-0.181591
1.78102
-0.34377
-0.0916096
-0.304306
-0.517042
-0.198232
-0.512975
-0.0355056
-0.346973
-0.0179362
0.0629561
0.180124
0.124932
0.819501
0.160813
1.38267
0.174481
1.83101
0.176174
2.23783
0.167238
2.6591
0.150825
3.12371
0.121561
3.67078
0.0767717
4.33449
0.0291372
5.33225
0.0261589
6.77855
0.0236961
7.90167
-0.0189135
6.98054
-0.061983
5.04861
-0.159652
1.87869
-0.450569
0.199307
-0.474683
-0.492927
-0.350553
-0.637105
-0.14841
-0.549117
-0.166346
0.0658644
0.11426
0.158757
0.726608
0.218709
1.32272
0.249125
1.8006
0.261508
2.22545
0.261877
2.65873
0.255099
3.13049
0.24127
3.68461
0.213235
4.36253
0.194037
5.35145
0.297957
6.67463
0.405086
7.79454
0.460508
6.92511
0.377199
5.13192
0.0331206
2.22276
-0.248385
0.480813
-0.385388
-0.355925
-0.34234
-0.680153
-0.198056
-0.693401
-0.364402
0.0573055
0.0569543
0.193593
0.590321
0.293081
1.22323
0.343807
1.74987
0.365858
2.2034
0.375937
2.64865
0.377251
3.12917
0.384916
3.67695
0.385695
4.36175
0.392178
5.34497
0.614652
6.45216
0.870643
7.53855
1.01106
6.7847
0.922433
5.22055
0.340066
2.80513
0.0618644
0.759015
-0.115669
-0.178391
-0.203621
-0.592201
-0.147032
-0.749989
-0.511434
0.0432733
0.013681
0.237713
0.395881
0.370492
1.09045
0.448532
1.67183
0.492711
2.15922
0.5197
2.62166
0.533559
3.11531
0.556145
3.65436
0.594338
4.32356
0.6678
5.2715
1.00822
6.11174
1.41623
7.13054
1.69457
6.50636
1.71819
5.19693
1.15138
3.37193
0.558972
1.35142
0.180246
0.200335
-0.0428738
-0.369082
-0.0908634
-0.702
-0.602297
0.0271624
-0.0134814
0.240752
0.182291
0.455998
0.875208
0.583007
1.54482
0.648696
2.09353
0.688928
2.58143
0.719493
3.08475
0.747067
3.62679
0.817766
4.25286
0.971347
5.11792
1.41215
5.67094
2.00045
6.54224
2.32466
6.18215
2.4795
5.04208
2.22357
3.62787
1.52753
2.04747
0.910054
0.817813
0.421169
0.119804
0.0924222
-0.373253
-0.509875
0.0245721
-0.0380534
0.172595
0.0342683
0.515573
0.53223
0.727177
1.33322
0.835611
1.9851
0.894028
2.52302
0.941689
3.03709
0.981756
3.58672
1.08853
4.14608
1.26127
4.94519
1.69945
5.23275
2.56166
5.68004
2.76549
5.97832
2.97686
4.83071
2.81759
3.78713
2.20628
2.65878
1.44003
1.58405
0.787996
0.771842
0.314678
0.100065
-0.195197
0.00377879
-0.0418322
0.0800402
-0.0419931
0.4199
0.19237
0.731233
1.02188
0.884024
1.83231
0.931577
2.47546
0.94764
3.02102
0.94918
3.58518
0.962428
4.13283
1.03542
4.87219
1.2363
5.03188
1.70035
5.21598
1.83312
5.84555
1.85826
4.80557
1.76754
3.87785
1.46283
2.96349
1.00743
2.03946
0.591431
1.18784
0.230412
0.461083
0.0352154
-0.000115916
-0.0417163
0.0414449
-0.083554
0.213565
0.02025
0.5438
0.691649
0.736719
1.63939
0.80953
2.40265
0.826949
3.0036
0.830168
3.58196
0.81402
4.14898
0.847007
4.8392
0.922494
4.95639
1.19626
4.94222
1.51374
5.52807
1.50053
4.81878
1.42992
3.94846
1.25181
3.14161
0.955405
2.33586
0.621365
1.52188
0.263535
0.818913
0.29875
-0.00187504
-0.0398413
0.0213264
-0.106755
0.0975373
-0.0559609
0.389106
0.40008
0.579644
1.44885
0.660746
2.32155
0.682998
2.98135
0.690118
3.57484
0.675089
4.16401
0.681982
4.83231
0.711577
4.92679
0.901858
4.75194
1.14186
5.28807
1.12628
4.83436
1.04554
4.0292
0.909747
3.2774
0.710282
2.53532
0.46654
1.76563
0.204943
1.08051
0.503693
0.00552217
-0.0453634
0.034662
-0.135895
0.08277
-0.104069
0.264777
0.218073
0.426134
1.28749
0.503074
2.24461
0.526229
2.9582
0.53857
3.5625
0.534568
4.16801
0.539269
4.82761
0.549397
4.91667
0.641928
4.65941
0.771542
5.15846
0.763307
4.84259
0.693576
4.09893
0.591832
3.37914
0.460296
2.66686
0.300987
1.92494
0.129545
1.25195
0.633238
0.0298139
-0.0751774
0.0827459
-0.188827
0.123576
-0.144899
0.164936
0.176713
0.272067
1.18036
0.338506
2.17817
0.36735
2.92935
0.388983
3.54087
0.400078
4.15692
0.407928
4.81976
0.407088
4.91751
0.434713
4.63178
0.499753
5.09342
0.489985
4.85236
0.433223
4.15569
0.360195
3.45217
0.27201
2.75504
0.172225
2.02472
0.0653007