/*--------------------------------*- C++ -*----------------------------------*\
  =========                 |
  \\      /  F ield         | OpenFOAM: The Open Source CFD Toolbox
   \\    /   O peration     | Website:  https://openfoam.org
    \\  /    A nd           | Version:  6
     \\/     M anipulation  |
\*---------------------------------------------------------------------------*/
FoamFile
{
    version     2.0;
    format      ascii;
    class       volVectorField;
    location    "59";
    object      U;
}
// * * * * * * * * * * * * * * * * * * * * * * * * * * * * * * * * * * * * * //

dimensions      [0 1 -1 0 0 0 0];

internalField   nonuniform List<vector> 
2200
(
(0.877638 -0.0201771 0)
(1.00472 -0.039979 0)
(1.00284 -0.0342322 0)
(1.00038 -0.0231657 0)
(0.999965 -0.0154452 0)
(1.00003 -0.0100828 0)
(1 -0.00637939 0)
(0.99999 -0.00389214 0)
(1.00001 -0.00203454 0)
(1.00014 -0.000536584 0)
(1.00007 0.000956766 0)
(1.00012 0.00239311 0)
(1.00021 0.00420586 0)
(1.00015 0.00665121 0)
(1.00013 0.0103163 0)
(1.00005 0.0156211 0)
(1.00055 0.0232347 0)
(1.00307 0.0341435 0)
(1.00473 0.0400398 0)
(0.877664 0.0201932 0)
(0.700817 -0.0265938 0)
(0.993623 -0.058623 0)
(1.02974 -0.0597486 0)
(1.02172 -0.0488506 0)
(1.01377 -0.0361179 0)
(1.00827 -0.0250469 0)
(1.0051 -0.016746 0)
(1.00326 -0.0105957 0)
(1.00222 -0.00584684 0)
(1.00162 -0.00164144 0)
(1.00151 0.00251409 0)
(1.00193 0.00678706 0)
(1.00287 0.0114279 0)
(1.00477 0.0174325 0)
(1.00799 0.0256146 0)
(1.0135 0.0366389 0)
(1.02134 0.0494428 0)
(1.02927 0.060438 0)
(0.993505 0.0587459 0)
(0.700531 0.0266295 0)
(0.530463 -0.0214114 0)
(0.966288 -0.0552618 0)
(1.05277 -0.0605527 0)
(1.04854 -0.0532561 0)
(1.03246 -0.0415173 0)
(1.0213 -0.0316126 0)
(1.01374 -0.022766 0)
(1.00906 -0.0152205 0)
(1.00628 -0.0085415 0)
(1.00492 -0.00217378 0)
(1.00506 0.0041075 0)
(1.00645 0.0102651 0)
(1.00911 0.016769 0)
(1.01363 0.0242124 0)
(1.02102 0.0328838 0)
(1.03214 0.0425766 0)
(1.04832 0.0539698 0)
(1.0527 0.0605429 0)
(0.9655 0.0556326 0)
(0.52934 0.0215463 0)
(0.3931 -0.0132644 0)
(0.909782 -0.0453666 0)
(1.05578 -0.0514025 0)
(1.06639 -0.0472605 0)
(1.05106 -0.0389472 0)
(1.03577 -0.0311057 0)
(1.02477 -0.0239525 0)
(1.01714 -0.0168362 0)
(1.01221 -0.00973071 0)
(1.00941 -0.00246699 0)
(1.00908 0.00498282 0)
(1.01146 0.0122344 0)
(1.01623 0.0191331 0)
(1.02376 0.0259396 0)
(1.03478 0.0327418 0)
(1.05009 0.0402872 0)
(1.06513 0.048243 0)
(1.05411 0.0522181 0)
(0.907622 0.0458359 0)
(0.390429 0.0134473 0)
(0.309216 -0.00618439 0)
(0.846417 -0.0330614 0)
(1.04824 -0.0428687 0)
(1.07727 -0.0391444 0)
(1.06533 -0.0330555 0)
(1.04869 -0.0270943 0)
(1.03583 -0.0217812 0)
(1.02628 -0.0160705 0)
(1.01966 -0.0095348 0)
(1.0161 -0.0020164 0)
(1.01608 0.00576361 0)
(1.01947 0.0129268 0)
(1.02566 0.0192072 0)
(1.03492 0.0246281 0)
(1.04746 0.0295673 0)
(1.06384 0.0351192 0)
(1.07567 0.0406746 0)
(1.0459 0.0440648 0)
(0.84244 0.0336532 0)
(0.305129 0.00637609 0)
(0.265344 -0.00191244 0)
(0.78877 -0.0218998 0)
(1.03213 -0.0338116 0)
(1.08152 -0.0321609 0)
(1.07498 -0.0276123 0)
(1.05868 -0.02258 0)
(1.04554 -0.0184976 0)
(1.03521 -0.0137805 0)
(1.02751 -0.00806133 0)
(1.02275 -0.00134632 0)
(1.0222 0.00592815 0)
(1.02608 0.0126269 0)
(1.03329 0.017877 0)
(1.04328 0.0220748 0)
(1.05634 0.0257374 0)
(1.07264 0.0302665 0)
(1.07847 0.0342311 0)
(1.02778 0.0352865 0)
(0.782346 0.0226297 0)
(0.259897 0.00215403 0)
(0.241132 -0.000340602 0)
(0.738528 -0.0139732 0)
(1.01274 -0.0266274 0)
(1.08244 -0.0264721 0)
(1.08127 -0.0230006 0)
(1.06618 -0.0186689 0)
(1.0532 -0.0150867 0)
(1.0429 -0.0110561 0)
(1.03515 -0.00610199 0)
(1.03048 -7.64173e-05 0)
(1.03022 0.00627056 0)
(1.03417 0.0117373 0)
(1.04114 0.0163424 0)
(1.0508 0.0198416 0)
(1.06328 0.0228254 0)
(1.0777 0.0265224 0)
(1.07826 0.0292197 0)
(1.00642 0.0285504 0)
(0.729125 0.0149306 0)
(0.234013 0.0006646 0)
(0.226355 -3.25967e-05 0)
(0.695611 -0.00918637 0)
(0.992087 -0.0217311 0)
(1.08064 -0.022922 0)
(1.08546 -0.0200344 0)
(1.07246 -0.0160251 0)
(1.05975 -0.012594 0)
(1.04988 -0.00891874 0)
(1.04236 -0.00436153 0)
(1.03736 0.000910632 0)
(1.03639 0.006642 0)
(1.03982 0.011859 0)
(1.04635 0.0156834 0)
(1.05566 0.0185773 0)
(1.0681 0.0212273 0)
(1.08057 0.0242702 0)
(1.07433 0.0263147 0)
(0.982415 0.0240352 0)
(0.68218 0.0103321 0)
(0.217169 0.000432834 0)
(0.21664 -5.31608e-05 0)
(0.66023 -0.00637868 0)
(0.972015 -0.0182772 0)
(1.07844 -0.0204023 0)
(1.08915 -0.01789 0)
(1.07752 -0.0142933 0)
(1.0651 -0.0108083 0)
(1.05538 -0.00711805 0)
(1.04805 -0.00272238 0)
(1.04353 0.00237531 0)
(1.04283 0.00747428 0)
(1.04584 0.0117733 0)
(1.05179 0.0155448 0)
(1.0604 0.0185025 0)
(1.07199 0.0211256 0)
(1.0823 0.0237332 0)
(1.06971 0.0248409 0)
(0.958601 0.0212283 0)
(0.64213 0.00790662 0)
(0.204955 0.000566151 0)
(0.20935 -9.65717e-05 0)
(0.631419 -0.00466602 0)
(0.952934 -0.0155875 0)
(1.07523 -0.0185712 0)
(1.09231 -0.0164999 0)
(1.08229 -0.0129744 0)
(1.06982 -0.00931736 0)
(1.06029 -0.00557584 0)
(1.05305 -0.00128877 0)
(1.04803 0.00351075 0)
(1.04646 0.00852566 0)
(1.04888 0.0131052 0)
(1.05444 0.0163087 0)
(1.06285 0.018773 0)
(1.07469 0.0211198 0)
(1.0834 0.0230997 0)
(1.06309 0.0238086 0)
(0.934236 0.0191485 0)
(0.607347 0.00651473 0)
(0.194524 0.000698822 0)
(0.203545 -6.25953e-05 0)
(0.608346 -0.00337487 0)
(0.935437 -0.0130463 0)
(1.07245 -0.016229 0)
(1.09573 -0.0143343 0)
(1.08694 -0.0112859 0)
(1.07454 -0.00790753 0)
(1.06489 -0.00420947 0)
(1.05757 0.000158542 0)
(1.0528 0.0050613 0)
(1.05151 0.00993711 0)
(1.05361 0.0139253 0)
(1.05863 0.0172702 0)
(1.06651 0.0198068 0)
(1.07751 0.021897 0)
(1.0839 0.0235344 0)
(1.05636 0.0231926 0)
(0.910659 0.0175794 0)
(0.577222 0.00576275 0)
(0.184917 0.000825885 0)
(0.198853 -1.32581e-05 0)
(0.589918 -0.00241005 0)
(0.919828 -0.0109059 0)
(1.06934 -0.0146319 0)
(1.09908 -0.0130379 0)
(1.09196 -0.00978414 0)
(1.07925 -0.00608982 0)
(1.06914 -0.00231163 0)
(1.0612 0.00202982 0)
(1.05543 0.0069411 0)
(1.05305 0.0118733 0)
(1.05481 0.0161165 0)
(1.05983 0.0189402 0)
(1.06802 0.0208786 0)
(1.07955 0.0226587 0)
(1.08367 0.0238031 0)
(1.04746 0.022728 0)
(0.886199 0.0164047 0)
(0.549521 0.0053916 0)
(0.175351 0.000920907 0)
(0.195101 9.62226e-05 0)
(0.574882 -0.00159107 0)
(0.905147 -0.00868457 0)
(1.06658 -0.0123078 0)
(1.10258 -0.0108117 0)
(1.09664 -0.00773273 0)
(1.08375 -0.00412247 0)
(1.07319 -0.000318393 0)
(1.06499 0.00409416 0)
(1.05925 0.00909054 0)
(1.05682 0.0138144 0)
(1.05822 0.0175884 0)
(1.06293 0.0203577 0)
(1.07079 0.0223141 0)
(1.08109 0.0238981 0)
(1.08284 0.0243273 0)
(1.03835 0.0226485 0)
(0.862205 0.0155259 0)
(0.524215 0.00523253 0)
(0.166044 0.000983734 0)
(0.192927 0.000271042 0)
(0.564356 -0.000604769 0)
(0.893761 -0.00628135 0)
(1.06403 -0.00976325 0)
(1.10594 -0.00839213 0)
(1.10161 -0.0051773 0)
(1.08853 -0.00120086 0)
(1.07742 0.00282911 0)
(1.06822 0.00726245 0)
(1.06108 0.0119755 0)
(1.05785 0.0167363 0)
(1.05883 0.0203838 0)
(1.06338 0.0225916 0)
(1.07139 0.0239118 0)
(1.08162 0.024888 0)
(1.08075 0.0250087 0)
(1.0264 0.0225065 0)
(0.836789 0.0149167 0)
(0.499661 0.00520243 0)
(0.156649 0.00102726 0)
(0.191997 0.000457318 0)
(0.556469 2.44341e-06 0)
(0.883391 -0.00429325 0)
(1.06254 -0.00709715 0)
(1.11009 -0.00551957 0)
(1.10693 -0.00240135 0)
(1.09392 0.00147273 0)
(1.08256 0.00565325 0)
(1.07328 0.0101908 0)
(1.0662 0.0151421 0)
(1.0621 0.0194908 0)
(1.06242 0.022763 0)
(1.06627 0.0248616 0)
(1.07363 0.0262431 0)
(1.08193 0.0268327 0)
(1.07823 0.0259204 0)
(1.0145 0.0228531 0)
(0.811838 0.0146702 0)
(0.476428 0.00528589 0)
(0.147491 0.00107206 0)
(0.192725 0.000518053 0)
(0.552578 0.00130734 0)
(0.877028 -0.00199925 0)
(1.06164 -0.0043381 0)
(1.1143 -0.00239542 0)
(1.11256 0.00119849 0)
(1.09916 0.0055711 0)
(1.08707 0.0101463 0)
(1.07658 0.0148707 0)
(1.06768 0.0194655 0)
(1.06287 0.0234497 0)
(1.06237 0.0262595 0)
(1.06562 0.0280272 0)
(1.0731 0.0286041 0)
(1.08108 0.0286179 0)
(1.07337 0.0275764 0)
(0.999085 0.0235196 0)
(0.78467 0.0148452 0)
(0.45262 0.00549355 0)
(0.137984 0.00114602 0)
(0.195109 0.000685834 0)
(0.553079 0.00205056 0)
(0.872663 0.000303624 0)
(1.06279 -0.000952817 0)
(1.11961 0.00159246 0)
(1.11881 0.00557749 0)
(1.10536 0.00997209 0)
(1.09291 0.0144491 0)
(1.0824 0.0191565 0)
(1.07371 0.0238567 0)
(1.06794 0.0281767 0)
(1.06579 0.0309604 0)
(1.06825 0.0323335 0)
(1.07461 0.0326253 0)
(1.08012 0.0317462 0)
(1.06838 0.0295354 0)
(0.983672 0.0248856 0)
(0.757534 0.0153506 0)
(0.429139 0.0058367 0)
(0.128358 0.00126354 0)
(0.19956 0.00104581 0)
(0.556091 0.00295036 0)
(0.873272 0.0031506 0)
(1.06523 0.00229427 0)
(1.12565 0.00546571 0)
(1.12612 0.0102148 0)
(1.11226 0.0152917 0)
(1.09897 0.0201494 0)
(1.08711 0.0252302 0)
(1.07625 0.0299969 0)
(1.068 0.0335062 0)
(1.06524 0.0356399 0)
(1.06651 0.0364799 0)
(1.07265 0.0360568 0)
(1.07743 0.035102 0)
(1.06029 0.0325977 0)
(0.963726 0.0265051 0)
(0.727159 0.0162121 0)
(0.403807 0.00635593 0)
(0.117887 0.00140782 0)
(0.206342 0.00147564 0)
(0.563571 0.00429199 0)
(0.877524 0.0057574 0)
(1.07051 0.00654223 0)
(1.13292 0.0103119 0)
(1.13427 0.0156674 0)
(1.12033 0.0211204 0)
(1.1064 0.0263312 0)
(1.09355 0.0315325 0)
(1.08172 0.0367067 0)
(1.07254 0.0413311 0)
(1.06788 0.0434951 0)
(1.06824 0.0434296 0)
(1.07311 0.042283 0)
(1.07451 0.040102 0)
(1.05181 0.0359427 0)
(0.943343 0.0290139 0)
(0.695892 0.0174749 0)
(0.377594 0.00702666 0)
(0.106899 0.00155838 0)
(0.214937 0.00191607 0)
(0.575043 0.00574123 0)
(0.885983 0.00856437 0)
(1.07816 0.0106921 0)
(1.14157 0.0154796 0)
(1.14364 0.0215722 0)
(1.12867 0.0280598 0)
(1.11333 0.0342964 0)
(1.09845 0.0405212 0)
(1.08395 0.0462639 0)
(1.07204 0.0497523 0)
(1.0662 0.0505972 0)
(1.06489 0.0505847 0)
(1.06861 0.0485892 0)
(1.06933 0.045782 0)
(1.03927 0.0408267 0)
(0.916886 0.0318354 0)
(0.659714 0.0191599 0)
(0.348116 0.00779437 0)
(0.0946746 0.00170352 0)
(0.227591 0.00251328 0)
(0.593746 0.008109 0)
(0.901349 0.0130362 0)
(1.08947 0.0166832 0)
(1.15187 0.0224481 0)
(1.15388 0.0294748 0)
(1.138 0.0367113 0)
(1.12147 0.0438055 0)
(1.10517 0.0506173 0)
(1.08875 0.0560711 0)
(1.0748 0.0596684 0)
(1.06655 0.061077 0)
(1.06422 0.0599032 0)
(1.06686 0.056902 0)
(1.06305 0.0527523 0)
(1.02531 0.0456625 0)
(0.88922 0.0355726 0)
(0.621389 0.0211127 0)
(0.316807 0.00855668 0)
(0.0817814 0.00182787 0)
(0.243752 0.00318978 0)
(0.618047 0.0100422 0)
(0.922826 0.0174855 0)
(1.10498 0.0236804 0)
(1.16457 0.0311166 0)
(1.16634 0.0394466 0)
(1.14858 0.0479211 0)
(1.12962 0.0558769 0)
(1.11024 0.063621 0)
(1.09021 0.0698428 0)
(1.07291 0.0731521 0)
(1.0627 0.0725755 0)
(1.0587 0.0702998 0)
(1.05944 0.0657257 0)
(1.054 0.0600586 0)
(1.00624 0.0521705 0)
(0.853244 0.0392074 0)
(0.576234 0.0232749 0)
(0.281361 0.00926917 0)
(0.0676496 0.00192443 0)
(0.265922 0.00447349 0)
(0.651254 0.0142043 0)
(0.952252 0.0243187 0)
(1.1255 0.0328281 0)
(1.18052 0.0417674 0)
(1.18104 0.0520427 0)
(1.161 0.061754 0)
(1.1393 0.0706363 0)
(1.11702 0.0789236 0)
(1.09407 0.0849517 0)
(1.07343 0.0871955 0)
(1.06049 0.086138 0)
(1.05566 0.0824056 0)
(1.05537 0.0762634 0)
(1.04353 0.0693341 0)
(0.98467 0.0584652 0)
(0.815357 0.0440817 0)
(0.528364 0.0255984 0)
(0.24407 0.00990603 0)
(0.0531731 0.00198724 0)
(0.297391 0.00554774 0)
(0.697035 0.0175485 0)
(0.991628 0.0315033 0)
(1.15234 0.0438656 0)
(1.2 0.0555126 0)
(1.19819 0.0687219 0)
(1.17444 0.0806174 0)
(1.14863 0.0908129 0)
(1.12094 0.0995466 0)
(1.09186 0.104858 0)
(1.06773 0.105552 0)
(1.05432 0.10192 0)
(1.04773 0.0956473 0)
(1.04481 0.0876803 0)
(1.02941 0.0785854 0)
(0.956664 0.0664741 0)
(0.766169 0.0481862 0)
(0.470865 0.0274901 0)
(0.20221 0.0102926 0)
(0.0377453 0.00194265 0)
(0.333053 0.00879272 0)
(0.754457 0.0260865 0)
(1.04088 0.0448334 0)
(1.18565 0.0609962 0)
(1.22412 0.0745597 0)
(1.2179 0.0906245 0)
(1.1895 0.104056 0)
(1.1593 0.115025 0)
(1.1277 0.123238 0)
(1.09587 0.127081 0)
(1.06825 0.125374 0)
(1.04973 0.118842 0)
(1.04158 0.110635 0)
(1.03701 0.100962 0)
(1.0125 0.0899488 0)
(0.923547 0.0734657 0)
(0.714025 0.053399 0)
(0.412691 0.029672 0)
(0.160502 0.0104089 0)
(0.0236685 0.00183693 0)
(0.410723 0.0136118 0)
(0.839783 0.0363388 0)
(1.10705 0.061834 0)
(1.22712 0.0839122 0)
(1.25216 0.100854 6.44069e-34)
(1.23943 0.120177 -2.89023e-34)
(1.20431 0.135091 0)
(1.16829 0.146468 0)
(1.13012 0.153982 0)
(1.09089 0.15491 0)
(1.05803 0.148348 0)
(1.04057 0.138457 0)
(1.03125 0.127122 0)
(1.02254 0.114408 0)
(0.990822 0.100149 0)
(0.882732 0.0821816 0)
(0.647614 0.0569329 0)
(0.339823 0.0298776 0)
(0.111365 0.00958226 0)
(0.0079817 0.00166517 0)
(0.475766 0.0280883 4.89015e-20)
(0.939494 0.0565728 -3.69399e-20)
(1.17733 0.0918893 0)
(1.26867 0.119706 2.79638e-20)
(1.28144 0.137769 -2.26689e-20)
(1.25883 0.159645 3.04955e-34)
(1.21613 0.174634 0)
(1.17429 0.18532 1.63194e-20)
(1.13153 0.19018 -5.38027e-20)
(1.09012 0.187529 1.10064e-20)
(1.05625 0.178281 0)
(1.03185 0.16408 -2.81918e-20)
(1.0188 0.148658 -3.37455e-20)
(1.00687 0.133819 5.89953e-20)
(0.95856 0.116724 -4.6557e-20)
(0.82123 0.0904283 0)
(0.559548 0.0609176 -1.66884e-20)
(0.25813 0.0297011 0)
(0.0633035 0.00887202 -9.21796e-20)
(-0.00839572 0.000896856 1.08638e-19)
(0.511582 0.0532528 -6.36125e-21)
(1.00258 0.0943628 1.12259e-19)
(1.22775 0.134338 -7.36863e-21)
(1.30229 0.163796 -6.98221e-20)
(1.30634 0.184992 -4.76094e-20)
(1.27457 0.206951 7.73714e-20)
(1.22483 0.221307 0)
(1.17663 0.230587 0)
(1.12698 0.233534 8.58607e-20)
(1.07719 0.227966 0)
(1.03424 0.212268 1.01857e-19)
(1.011 0.192475 3.02499e-20)
(0.99806 0.17565 3.90896e-22)
(0.976927 0.156243 -6.43265e-20)
(0.916333 0.13144 0)
(0.759246 0.103551 0)
(0.485852 0.065998 -2.72021e-19)
(0.200352 0.0308685 6.84039e-19)
(0.03278 0.0068024 -4.04376e-19)
(-0.0194575 -0.00127517 -4.76354e-19)
(0.522869 0.0773385 -6.65584e-20)
(1.03915 0.141458 2.51177e-20)
(1.26315 0.187895 1.31592e-20)
(1.32888 0.217842 1.20914e-19)
(1.32575 0.239008 1.38014e-20)
(1.28615 0.259806 -2.01946e-19)
(1.22951 0.272932 6.8897e-20)
(1.1747 0.280158 0)
(1.11942 0.279594 -1.82149e-19)
(1.06677 0.268908 1.62546e-19)
(1.02533 0.249743 -2.74842e-19)
(0.99777 0.228084 1.28828e-19)
(0.977449 0.204979 -8.30865e-20)
(0.95479 0.180988 1.87557e-19)
(0.883773 0.155022 0)
(0.715247 0.115824 -6.79318e-20)
(0.441985 0.0743198 0)
(0.182453 0.0331909 3.73789e-19)
(0.0256686 0.00540593 -8.86072e-19)
(-0.0227706 -0.00311936 5.54973e-19)
(0.522705 0.102398 1.87776e-19)
(1.0629 0.194411 -8.25691e-20)
(1.28755 0.247636 -1.6574e-20)
(1.34681 0.278586 0)
(1.33798 0.299153 -8.87176e-20)
(1.29224 0.317744 1.09463e-19)
(1.23007 0.328071 -7.43717e-20)
(1.17045 0.331295 0)
(1.11085 0.325688 1.2956e-19)
(1.0539 0.31019 -1.14173e-19)
(1.00597 0.286211 2.37772e-19)
(0.974438 0.259618 0)
(0.954943 0.234912 -1.76644e-19)
(0.925386 0.208242 9.96813e-20)
(0.85141 0.172429 2.49408e-19)
(0.684163 0.133087 -2.19517e-19)
(0.42427 0.0858472 3.47037e-19)
(0.180123 0.0372277 -7.66823e-19)
(0.027002 0.00627916 4.85456e-19)
(-0.0226732 -0.00446341 -6.07229e-19)
(0.51183 0.130177 -6.74317e-20)
(1.0704 0.244489 4.83831e-20)
(1.30008 0.307179 -5.42881e-20)
(1.35667 0.341139 1.07652e-19)
(1.34401 0.360971 -1.00827e-19)
(1.29378 0.377044 3.47724e-20)
(1.22748 0.38419 3.50576e-21)
(1.16405 0.382971 -1.4663e-19)
(1.10113 0.372683 -1.36276e-19)
(1.0406 0.35268 -2.45446e-19)
(0.990816 0.324409 -5.11081e-19)
(0.958024 0.294942 -1.57155e-19)
(0.933076 0.266014 2.23872e-21)
(0.902725 0.235818 -3.40137e-19)
(0.827899 0.200458 -5.03126e-21)
(0.663024 0.151104 3.1936e-19)
(0.416989 0.0976089 -9.59772e-20)
(0.185739 0.0459907 -5.55697e-20)
(0.0361917 0.00888529 0)
(-0.0186346 -0.00488376 1.29109e-18)
(0.497582 0.154692 0)
(1.07057 0.293833 -5.23666e-21)
(1.30539 0.366967 -9.33026e-21)
(1.35959 0.403943 -1.24643e-20)
(1.34388 0.423353 9.74333e-20)
(1.29044 0.436836 -8.088e-20)
(1.22123 0.440359 8.1388e-20)
(1.15463 0.434556 2.41019e-19)
(1.08758 0.419414 -7.60369e-20)
(1.02223 0.393741 1.21111e-19)
(0.969267 0.360945 2.7463e-19)
(0.933745 0.327765 3.42412e-19)
(0.907335 0.2993 -2.05889e-19)
(0.873662 0.266601 3.68138e-19)
(0.799328 0.222232 -2.91485e-19)
(0.642969 0.174159 0)
(0.41354 0.114193 -7.28512e-19)
(0.196351 0.0570163 9.80532e-19)
(0.0492668 0.0140842 7.31885e-20)
(-0.0125288 -0.00401405 -1.36566e-18)
(0.481698 0.176518 -6.49337e-21)
(1.06222 0.339395 1.03465e-20)
(1.30375 0.423541 6.76005e-20)
(1.35738 0.464595 -8.94818e-20)
(1.33953 0.483758 8.07125e-20)
(1.28341 0.495014 -7.87775e-20)
(1.21137 0.495675 1.62001e-19)
(1.14161 0.485776 -7.23278e-20)
(1.07189 0.465718 -3.07321e-19)
(1.00593 0.434798 -2.56308e-22)
(0.952289 0.397523 -2.98522e-19)
(0.912463 0.36203 -3.68564e-19)
(0.883673 0.330349 2.27373e-19)
(0.851851 0.294209 -1.32289e-19)
(0.777854 0.253207 3.17019e-19)
(0.62821 0.194442 0)
(0.41083 0.131467 -4.52726e-19)
(0.20563 0.068582 6.68681e-19)
(0.0615225 0.0203221 1.26501e-18)
(-0.00623224 -0.00241965 -1.48769e-18)
(0.468258 0.197226 -4.98842e-20)
(1.05321 0.384575 1.7519e-20)
(1.29877 0.479051 -4.54498e-20)
(1.35103 0.523327 9.21792e-20)
(1.33095 0.542482 1.18462e-20)
(1.2724 0.551867 -1.54747e-19)
(1.19835 0.549496 -9.45991e-20)
(1.12721 0.535387 -9.33699e-20)
(1.05613 0.510289 -1.7354e-19)
(0.987265 0.474263 2.79143e-19)
(0.927489 0.432775 3.02106e-19)
(0.886005 0.395552 5.85061e-19)
(0.85743 0.362381 0)
(0.821134 0.325171 6.31131e-21)
(0.751271 0.27384 -8.70823e-19)
(0.610777 0.21858 2.0408e-19)
(0.408466 0.149029 9.81655e-19)
(0.214639 0.0811316 -2.89669e-19)
(0.0734604 0.0280088 6.01498e-19)
(0.000166169 -5.08912e-05 -5.02333e-20)
(0.455684 0.21614 7.91665e-21)
(1.04066 0.426325 4.09018e-20)
(1.28999 0.531334 -1.96024e-20)
(1.34161 0.579428 1.02427e-19)
(1.31987 0.598516 -1.62307e-19)
(1.25958 0.606022 1.54326e-19)
(1.18423 0.601041 9.81304e-20)
(1.11192 0.583287 2.78478e-19)
(1.03928 0.554225 3.48408e-19)
(0.968095 0.514296 -3.22038e-19)
(0.908435 0.468444 0)
(0.865553 0.427007 -2.21104e-19)
(0.832793 0.391182 2.53851e-19)
(0.800263 0.351368 3.19666e-19)
(0.730705 0.305036 -1.8507e-19)
(0.596274 0.238351 -4.49357e-19)
(0.404066 0.166996 -1.33941e-19)
(0.220814 0.0943211 -1.93852e-21)
(0.0826351 0.0359526 0)
(0.00546864 0.00246317 0)
(0.446529 0.234815 -6.94215e-20)
(1.02988 0.46794 0)
(1.27998 0.582441 -5.20702e-21)
(1.33012 0.633165 -1.09553e-20)
(1.30682 0.652019 1.85168e-19)
(1.24506 0.657833 -4.65846e-20)
(1.16876 0.650206 1.00025e-19)
(1.09585 0.628999 -1.88446e-19)
(1.02183 0.596173 2.64208e-19)
(0.948218 0.551813 -1.05239e-19)
(0.884683 0.501646 1.73104e-19)
(0.839317 0.458877 7.01225e-19)
(0.807622 0.421575 1.43151e-20)
(0.771143 0.380558 -3.33733e-19)
(0.705406 0.323785 6.16711e-19)
(0.57767 0.262337 3.65881e-21)
(0.397646 0.18403 1.43297e-19)
(0.222401 0.106979 -6.8333e-19)
(0.0879829 0.0429757 7.0436e-19)
(0.00926615 0.00469454 -8.29744e-19)
(0.439164 0.252296 5.1647e-23)
(1.01756 0.506246 0)
(1.26797 0.630177 0)
(1.31713 0.684096 -3.97809e-21)
(1.29264 0.702772 -5.51642e-20)
(1.22983 0.706768 7.31838e-20)
(1.15292 0.696797 -1.85958e-19)
(1.07903 0.672608 0)
(1.00365 0.636844 -3.89519e-19)
(0.928965 0.589876 4.66012e-19)
(0.865106 0.536443 4.92863e-19)
(0.817991 0.488366 -2.57263e-19)
(0.784059 0.447592 -3.10833e-19)
(0.751295 0.404214 7.2847e-19)
(0.685098 0.35396 -2.1925e-19)
(0.560238 0.279976 -2.61327e-19)
(0.386831 0.200075 -1.56296e-19)
(0.220186 0.117139 -7.3784e-19)
(0.0896088 0.0483985 1.08251e-19)
(0.0115001 0.0063145 8.97553e-19)
(0.434159 0.270714 -3.58125e-20)
(1.00742 0.544486 -4.48686e-20)
(1.25587 0.676682 2.28831e-20)
(1.30326 0.732523 1.19986e-22)
(1.27762 0.750717 -5.64114e-20)
(1.21382 0.753047 1.19904e-19)
(1.13627 0.740797 0)
(1.06199 0.713894 1.13934e-19)
(0.985738 0.675242 -8.98375e-20)
(0.908626 0.6246 7.773e-19)
(0.839767 0.566674 -1.11711e-19)
(0.791468 0.516904 1.2764e-19)
(0.759661 0.475893 0)
(0.723035 0.431096 -3.94248e-19)
(0.658913 0.369244 4.76977e-19)
(0.538317 0.301649 0)
(0.375234 0.21335 -3.36683e-19)
(0.21463 0.125695 9.90089e-19)
(0.0879626 0.05163 1.17418e-19)
(0.0121923 0.00715257 -1.105e-18)
(0.430018 0.289022 -9.10646e-20)
(0.996328 0.579457 1.14228e-19)
(1.24273 0.719677 0)
(1.2887 0.778134 1.05343e-20)
(1.26205 0.796136 0)
(1.19744 0.796697 -1.5424e-19)
(1.11966 0.782299 0)
(1.04493 0.752969 0)
(0.967494 0.712268 -1.1864e-19)
(0.888513 0.659755 -7.38769e-19)
(0.819786 0.599831 -9.10589e-19)
(0.770365 0.54504 1.48885e-19)
(0.735102 0.498263 5.36494e-19)
(0.702055 0.450361 4.33606e-19)
(0.637213 0.396138 -1.53012e-18)
(0.518746 0.314105 -6.13109e-19)
(0.360087 0.224631 3.59243e-19)
(0.206162 0.131108 0)
(0.0842919 0.0528931 1.00589e-18)
(0.0115335 0.007406 -1.19001e-18)
(0.427478 0.306306 1.10222e-19)
(0.987439 0.614501 -1.33971e-19)
(1.23008 0.76161 0)
(1.27387 0.821352 -1.13118e-20)
(1.2462 0.838736 1.82268e-21)
(1.18095 0.837653 0)
(1.10299 0.821208 5.76981e-20)
(1.02819 0.789818 7.88015e-20)
(0.949887 0.747124 -2.23517e-19)
(0.868326 0.691602 9.80263e-20)
(0.794237 0.627273 0)
(0.742275 0.570485 6.18136e-19)
(0.709273 0.523438 5.95135e-21)
(0.672353 0.47366 2.3386e-19)
(0.608989 0.405321 2.77699e-19)
(0.495231 0.330286 0)
(0.345879 0.231937 -5.8581e-19)
(0.19645 0.133943 1.14683e-18)
(0.0790528 0.0529901 -1.21657e-18)
(0.0102232 0.0070943 2.56193e-18)
(0.425788 0.322746 0)
(0.97786 0.646289 0)
(1.21693 0.800139 -6.61379e-20)
(1.25889 0.861943 0)
(1.23029 0.879109 0)
(1.16452 0.87631 -1.32219e-19)
(1.08673 0.857917 5.9243e-20)
(1.01187 0.824574 1.79157e-20)
(0.932648 0.78064 -5.12181e-20)
(0.849421 0.72444 0)
(0.774484 0.659079 -1.38578e-19)
(0.720176 0.596916 -5.03984e-19)
(0.681808 0.541592 -6.05785e-19)
(0.64852 0.486511 -2.43357e-19)
(0.585609 0.426625 3.00612e-19)
(0.475267 0.334787 -7.08316e-19)
(0.328695 0.236539 1.26037e-18)
(0.186336 0.134331 1.94854e-21)
(0.0739788 0.0518989 -1.16378e-18)
(0.00898213 0.00645877 -1.72717e-19)
(0.425134 0.338215 0)
(0.970466 0.678393 -1.10507e-19)
(1.20459 0.837933 8.03705e-20)
(1.24407 0.900424 0)
(1.21455 0.916805 0)
(1.14849 0.912371 2.6731e-19)
(1.071 0.892162 0)
(0.996467 0.857334 0)
(0.916624 0.812211 -4.88757e-19)
(0.830824 0.754179 1.35062e-19)
(0.749195 0.684766 -1.22985e-18)
(0.690272 0.619797 0)
(0.653606 0.564135 -6.60294e-19)
(0.615669 0.505387 1.01149e-20)
(0.555546 0.426872 -9.671e-19)
(0.451171 0.343259 3.80988e-19)
(0.31509 0.236528 1.48205e-21)
(0.176776 0.131506 -1.32208e-18)
(0.07041 0.0495346 6.25625e-19)
(0.00832329 0.00566875 1.84825e-19)
(0.42487 0.35303 0)
(0.962368 0.707272 -1.54264e-19)
(1.19202 0.872474 8.6102e-20)
(1.22947 0.936544 1.05376e-19)
(1.19914 0.952627 -1.51632e-20)
(1.13287 0.946492 2.91262e-20)
(1.05596 0.92453 -3.65425e-20)
(0.981702 0.888179 4.73335e-19)
(0.90109 0.842433 5.22836e-19)
(0.813351 0.784684 1.02599e-18)
(0.730741 0.716015 1.02182e-18)
(0.668417 0.646421 1.79662e-19)
(0.623508 0.580036 9.49082e-19)
(0.587699 0.511606 5.85546e-19)
(0.529061 0.440582 6.93746e-19)
(0.431202 0.336737 -4.16683e-19)
(0.300326 0.23122 -4.85059e-19)
(0.1745 0.125016 5.68459e-19)
(0.072317 0.0468485 -3.37309e-19)
(0.0101774 0.00514001 5.96996e-19)
(0.425079 0.367174 2.20161e-19)
(0.956194 0.736624 2.41973e-19)
(1.18038 0.90654 5.09746e-20)
(1.21526 0.970816 1.61779e-20)
(1.18416 0.985952 1.36361e-20)
(1.11795 0.978169 -7.40734e-20)
(1.04175 0.954577 3.56276e-20)
(0.968012 0.917193 -2.04482e-20)
(0.886711 0.870852 -6.06353e-19)
(0.796464 0.8123 -1.11345e-18)
(0.707051 0.740822 7.07992e-20)
(0.638494 0.669121 0)
(0.593932 0.602397 0)
(0.550534 0.52865 -3.05777e-19)
(0.49262 0.430026 -1.13767e-18)
(0.404768 0.333269 8.972e-19)
(0.293265 0.216283 5.28522e-19)
(0.180138 0.112378 0)
(0.0867879 0.040942 1.08484e-18)
(0.0212166 0.00622829 -6.41644e-19)
(0.425276 0.38078 -1.15804e-19)
(0.949183 0.762679 1.03798e-19)
(1.16859 0.937398 -1.21705e-19)
(1.20145 1.00291 -9.53481e-20)
(1.16971 1.0177 -1.11703e-20)
(1.10365 1.00825 -2.27254e-20)
(1.02831 0.983061 0)
(0.954833 0.94443 -5.94523e-19)
(0.872664 0.897847 7.52107e-20)
(0.780514 0.840215 0)
(0.690593 0.771072 0)
(0.61897 0.697309 1.14733e-19)
(0.562722 0.619604 1.53925e-19)
(0.517611 0.531109 -3.30751e-19)
(0.459532 0.438344 8.17017e-19)
(0.375564 0.30693 -9.77292e-19)
(0.280812 0.190522 -1.13093e-18)
(0.202418 0.0847305 1.0019e-18)
(0.153189 0.0293962 -3.88354e-19)
(0.0898156 0.0236663 2.25505e-19)
(0.425598 0.393564 1.47353e-19)
(0.943809 0.789257 0)
(1.15771 0.967952 0)
(1.18811 1.03334 -2.53252e-20)
(1.15582 1.04709 2.05061e-20)
(1.0902 1.03604 -2.01857e-20)
(1.01579 1.00941 1.58605e-19)
(0.942746 0.970051 6.09238e-19)
(0.859731 0.923203 1.09778e-18)
(0.76535 0.865437 -8.36429e-20)
(0.669103 0.794745 1.7322e-19)
(0.590277 0.720467 -1.02496e-18)
(0.533423 0.644205 -1.02323e-18)
(0.476498 0.552992 -1.77596e-19)
(0.409594 0.421385 0)
(0.337549 0.29645 -4.71535e-21)
(0.262377 0.132905 6.22333e-19)
(0.213557 0.007917 -1.06768e-18)
(0.164615 -0.0790071 8.18343e-19)
(0.0764568 -0.0458446 6.95489e-19)
(0.42566 0.406071 -3.26206e-19)
(0.937184 0.812322 -1.47345e-19)
(1.14646 0.995263 8.5031e-21)
(1.17511 1.06191 5.70586e-20)
(1.14245 1.07545 0)
(1.07722 1.06293 -8.64635e-20)
(1.00367 1.03493 -2.26605e-19)
(0.930574 0.994566 -1.8389e-21)
(0.846294 0.947642 -5.75191e-19)
(0.749772 0.891002 -8.20362e-20)
(0.653645 0.824039 7.61952e-20)
(0.572845 0.75063 9.00518e-19)
(0.501691 0.666113 9.9853e-19)
(0.438675 0.557134 1.73044e-19)
(0.369073 0.439525 8.79302e-19)
(0.269252 0.252373 0)
(0.164958 0.118414 0)
(0.019808 0.21917 7.05552e-19)
(-0.0431689 0.70238 -1.66622e-20)
(0.00362392 1.67515 -7.99422e-19)
(0.425846 0.417924 1.80715e-19)
(0.932162 0.836397 4.13847e-19)
(1.13609 1.02286 -5.69523e-19)
(1.16251 1.08936 2.79027e-19)
(1.12961 1.10209 -5.24816e-21)
(1.06512 1.08839 -3.99165e-20)
(0.992458 1.05946 0)
(0.919427 1.01891 -5.07506e-19)
(0.833823 0.97211 0)
(0.734973 0.915858 1.15489e-18)
(0.632324 0.848295 -9.3124e-20)
(0.54276 0.775839 1.04418e-19)
(0.471033 0.696452 1.1446e-18)
(0.392848 0.596439 -3.74195e-19)
(0.279864 0.425702 -4.46678e-19)
(0.188669 0.314725 0)
(0.0760158 0.536283 0)
(0.0216459 1.46706 0)
(0.0551202 2.51473 -4.09071e-19)
(0.0678939 2.92829 -2.46805e-19)
(0.425439 0.429257 0)
(0.92592 0.856941 0)
(1.12542 1.04728 2.08547e-19)
(1.15035 1.11507 -2.25657e-19)
(1.11742 1.12798 9.42755e-20)
(1.05365 1.1134 4.6099e-20)
(0.981772 1.08373 2.86319e-20)
(0.908228 1.04262 -2.22921e-20)
(0.820905 0.99607 8.11511e-20)
(0.719538 0.94116 -1.32564e-18)
(0.617148 0.878468 1.68708e-19)
(0.527109 0.810071 9.0155e-19)
(0.439025 0.726276 -1.14027e-18)
(0.34735 0.602198 -1.25304e-18)
(0.250325 0.494687 4.21222e-19)
(0.149843 0.692484 0)
(0.0808497 1.71146 5.78953e-19)
(0.0943779 2.72963 6.41825e-19)
(0.0992348 3.08689 -7.23783e-19)
(0.0882885 3.20988 7.8696e-19)
(0.425111 0.4401 0)
(0.921302 0.878684 3.69208e-19)
(1.11578 1.07222 -5.19279e-20)
(1.13872 1.13971 3.20169e-19)
(1.10589 1.15201 -9.89577e-20)
(1.04306 1.13677 0)
(0.971915 1.10676 0)
(0.898037 1.06604 0)
(0.809131 1.02004 4.5715e-19)
(0.705741 0.966061 6.12963e-20)
(0.59722 0.903355 0)
(0.4978 0.836652 -8.96225e-19)
(0.410844 0.760004 0)
(0.298455 0.655223 8.92157e-19)
(0.200426 0.735805 -6.06345e-19)
(0.138114 1.56994 -4.83415e-19)
(0.135142 2.72664 -1.12181e-18)
(0.150689 3.12518 -6.0207e-19)
(0.129154 3.25084 -8.53268e-19)
(0.114019 3.28606 7.53934e-19)
(0.423561 0.449672 -1.3038e-19)
(0.915347 0.896585 1.66776e-20)
(1.10583 1.0939 -5.80343e-20)
(1.1276 1.16273 -2.46137e-19)
(1.09505 1.17551 0)
(1.03304 1.15989 0)
(0.962419 1.12972 0)
(0.887643 1.08888 3.50185e-20)
(0.796984 1.04351 -5.77993e-19)
(0.691278 0.991084 0)
(0.583682 0.933872 0)
(0.486943 0.873771 0)
(0.374764 0.786477 0)
(0.30723 0.76529 6.53295e-19)
(0.237738 1.25396 1.61228e-18)
(0.193467 2.51489 4.74757e-19)
(0.205323 3.09854 9.6433e-19)
(0.193423 3.26927 -7.41301e-19)
(0.157464 3.32212 2.63633e-19)
(0.138702 3.33328 0)
(0.421956 0.458314 1.34613e-19)
(0.910264 0.915817 -8.23382e-19)
(1.09655 1.11678 -2.23245e-19)
(1.11689 1.18556 -4.84395e-20)
(1.08475 1.19779 2.35761e-20)
(1.02361 1.1818 -7.89582e-20)
(0.953335 1.15167 -3.35017e-21)
(0.877998 1.11175 -3.86323e-19)
(0.78594 1.06748 0)
(0.679015 1.01673 -7.82732e-20)
(0.566402 0.959853 7.12023e-20)
(0.460358 0.899721 0)
(0.369021 0.847178 0)
(0.301128 1.01715 -8.20312e-19)
(0.231334 1.96779 1.05658e-19)
(0.225013 2.99089 -3.64205e-19)
(0.251901 3.27355 7.77723e-19)
(0.231678 3.35462 5.85807e-19)
(0.179085 3.37466 -8.81226e-19)
(0.160108 3.38407 4.41758e-19)
(0.419105 0.466654 2.65453e-19)
(0.902869 0.931956 8.03755e-19)
(1.08605 1.13776 2.67335e-19)
(1.10603 1.2086 0)
(1.07447 1.22149 0)
(1.01394 1.20516 6.189e-20)
(0.943821 1.17491 6.62177e-20)
(0.867492 1.13499 3.4433e-19)
(0.774189 1.09172 2.24915e-20)
(0.665678 1.04271 1.00209e-18)
(0.555601 0.991505 -1.18708e-18)
(0.450341 0.937512 0)
(0.374797 0.932288 0)
(0.319228 1.3832 -5.56e-19)
(0.284127 2.63432 -6.782e-19)
(0.322377 3.20749 0)
(0.340062 3.34184 -8.68933e-19)
(0.266358 3.39273 -1.16605e-20)
(0.200594 3.42598 5.84864e-19)
(0.176545 3.4432 -2.48257e-19)
(0.416307 0.475595 -5.04936e-19)
(0.896656 0.952456 -3.86081e-19)
(1.07585 1.16251 0)
(1.0948 1.23333 0)
(1.06379 1.24541 0)
(1.00392 1.22836 0)
(0.933843 1.19791 -7.82272e-20)
(0.857135 1.1591 2.96409e-19)
(0.763112 1.1173 0)
(0.654792 1.07071 -9.12295e-19)
(0.541392 1.01964 2.12813e-18)
(0.44165 0.975515 8.66406e-20)
(0.381441 1.07831 1.1396e-19)
(0.345154 1.9027 8.98682e-19)
(0.337046 2.97936 -4.95051e-19)
(0.3749 3.3085 0)
(0.348501 3.40571 2.57835e-19)
(0.267732 3.47751 7.23881e-20)
(0.219733 3.51906 4.62918e-20)
(0.185181 3.51264 9.62533e-20)
(0.412535 0.485538 2.39495e-19)
(0.887808 0.969703 -3.94695e-19)
(1.06403 1.18497 0)
(1.0829 1.25833 -7.16268e-20)
(1.05241 1.27132 2.47482e-19)
(0.992913 1.25371 0)
(0.922936 1.22282 0)
(0.845554 1.18375 -5.10963e-19)
(0.751196 1.1431 -5.80254e-20)
(0.642415 1.09824 8.91618e-19)
(0.52986 1.05138 -1.0125e-18)
(0.452037 1.0337 5.82089e-19)
(0.405851 1.31227 0)
(0.381105 2.34469 -4.74995e-19)
(0.402079 3.18975 3.09092e-19)
(0.449716 3.40191 2.14922e-19)
(0.422329 3.47729 0)
(0.364822 3.52721 1.82255e-20)
(0.316245 3.53931 -2.14021e-19)
(0.236546 3.47747 -3.63148e-20)
(0.409241 0.496224 -4.75226e-19)
(0.880919 0.993187 5.6604e-19)
(1.0528 1.21228 3.97181e-19)