/*--------------------------------*- C++ -*----------------------------------*\
  =========                 |
  \\      /  F ield         | OpenFOAM: The Open Source CFD Toolbox
   \\    /   O peration     | Website:  https://openfoam.org
    \\  /    A nd           | Version:  6
     \\/     M anipulation  |
\*---------------------------------------------------------------------------*/
FoamFile
{
    version     2.0;
    format      ascii;
    class       volScalarField;
    location    "44";
    object      p;
}
// * * * * * * * * * * * * * * * * * * * * * * * * * * * * * * * * * * * * * //

dimensions      [0 2 -2 0 0 0 0];

internalField   nonuniform List<scalar> 
918
(
0.542933
1.27575
0.00537994
0.542837
-0.0104806
1.24349
-0.481403
0.688404
0.524052
-0.102873
-0.0383826
0.522292
1.10078
0.867972
-1.16183
-0.00917888
0.647454
-0.406706
0.522
-0.0351481
0.725573
0.530754
0.533224
0.524017
0.581455
0.823638
0.978094
0.00874337
0.0049207
0.00334657
-0.0111696
-0.0307359
-0.0230285
1.12661
1.17854
1.20172
0.49091
0.326474
-0.372197
-0.423333
-0.406961
-0.506506
0.683018
0.682294
-0.188058
0.690202
0.697265
0.509857
0.52344
0.524273
0.52543
0.524308
0.525598
0.409176
-0.107368
-0.137071
-0.0859998
-0.0829294
0.0582379
-0.0408496
-0.0436704
-0.0367688
-0.0402558
0.440666
0.518207
0.515244
0.527179
0.536789
1.21592
1.18962
1.21567
1.12642
1.14391
1.07768
1.05056
0.88904
0.912187
0.850962
0.837099
-1.62657
-2.58396
-0.578212
-0.296027
-0.0113091
-0.00497886
0.000783195
0.639632
0.639614
0.648889
0.656078
1.04571
-0.377518
-0.447245
0.522493
0.521016
0.530274
0.531179
0.526126
0.526139
-0.038714
-0.0408262
-0.0230061
-0.033376
-0.0304263
0.716562
0.713842
0.523461
0.520915
0.545668
0.567301
0.556457
0.262884
0.587416
0.602633
0.683641
0.831365
0.818955
0.831208
0.953747
0.9211
1.00991
1.03156
0.0142638
0.0012487
-0.0120369
-0.015165
-0.0134033
0.486694
0.480329
0.507466
0.494494
0.497492
0.230574
0.0784695
0.409275
0.433155
-0.293168
-0.335024
-0.438862
-0.436954
-0.542515
0.598642
0.678339
0.674576
-0.203303
-0.128476
-0.254811
-0.0732176
-0.128653
0.50091
0.507079
0.503199
0.518474
0.512666
0.515082
0.527532
0.524692
0.526299
0.469233
0.601512
0.327436
0.300131
-0.262128
-0.154348
-0.24521
-0.0689966
-0.0605244
0.0698298
0.0973021
0.0454926
0.0318724
-0.0533684
-0.0475705
-0.0519678
-0.0405872
-0.0415382
0.432238
0.419451
0.451761
0.459139
0.506256
0.507618
0.511856
0.509905
1.00186
1.02475
1.03071
1.00692
-3.57276
-6.22669
0.0554257
0.217789
-0.00645587
-0.00896738
0.000495693
-0.00623663
0.00132724
-0.00126274
-0.00579033
-0.00511673
-0.0010096
0.00194514
0.63365
0.634262
1.00399
1.03604
0.994315
0.971486
0.511804
0.513723
0.518357
0.515248
-0.041624
-0.0421083
-0.0451126
0.699226
0.708571
0.705966
0.222883
0.135833
0.312657
0.343158
0.627694
0.610886
0.624756
0.744104
0.782828
1.04797
1.0723
1.05619
1.06895
1.11982
1.14274
1.10806
0.46552
0.476304
0.470667
0.510627
0.508267
0.509309
0.505308
0.506495
0.504995
-0.034397
-0.410209
0.485002
0.487412
0.474842
0.481139
0.684371
0.767415
0.656957
0.667427
0.664748
-0.0256415
-0.0731495
0.257831
0.22879
0.372584
0.406525
0.388854
0.976971
0.937086
0.985351
0.960646
0.925206
0.949946
-0.347711
-2.12446
-1.11301
0.624467
0.425393
0.517827
0.0161826
-0.00118437
0.00387241
1.03849
1.078
0.670621
0.855579
0.808903
0.806252
0.833088
0.895303
0.827776
0.862725
0.893568
0.870024
0.552054
0.492218
0.505259
0.845329
0.902774
0.100564
0.0258684
0.00214803
0.120163
0.187386
0.156965
1.05075
0.95941
1.0247
0.521154
0.52208
0.00231221
-0.00854564
0.526175
0.525897
-0.012766
-0.00458665
0.536527
-0.934618
0.10951
0.515575
0.505443
0.522157
-0.0672132
0.342943
-0.0387864
0.0451347
0.00682496
0.5177
0.45276
0.410943
0.00875838
-0.0172594
-0.0351242
-0.202097
0.518896
0.517257
0.521535
0.522373
0.523134
-0.00923681
-0.00565723
-0.00572836
-0.0323813
-0.0266482
-0.0337728
0.485794
0.505207
-0.174957
0.521814
0.523916
0.523626
0.517729
0.522724
0.521304
-0.00980843
-0.0152656
-0.017704
0.205066
0.338699
0.722366
0.79912
0.67069
0.501534
0.201216
0.6567
0.710246
0.634411
0.76541
0.67157
0.679809
0.174327
0.0371405
0.179294
0.111432
0.512478
0.511831
0.502994
0.499939
0.516953
0.514647
0.519814
0.517008
0.520142
0.521324
-0.0243108
-0.0632398
-0.078393
-0.132813
0.309009
0.568587
0.237732
0.263329
0.167395
-0.0324283
-0.0341358
-0.0381657
-0.043845
0.00120816
-0.00925432
0.0389798
0.0453841
0.0238768
-0.00308442
-0.00788344
-0.00878942
-0.0136436
0.511116
0.510469
0.516103
0.524522
0.462214
0.46585
0.432604
0.451121
0.437478
0.377907
0.407835
0.38514
-0.00153587
0.0106461
0.00418882
-0.0141697
-0.0115173
-0.0263981
-0.0199818
-0.0205789
-0.0138734
-0.0186387
-0.0320839
-0.0406989
-0.165098
-0.28195
0.962111
0.896195
0.140174
0.508832
0.514465
0.511653
0.516269
0.519474
0.520138
0.517746
0.514257
0.505388
0.506841
0.503625
0.504618
-0.116878
-0.222796
-0.0553134
-0.127647
0.152498
0.61646
0.346907
0.294538
0.279461
0.500731
0.719938
0.644485
0.711939
0.709904
-0.386204
0.0293508
-0.313105
0.236768
0.221462
0.74678
0.788678
0.806411
0.763144
0.719195
-0.0260289
0.552446
-0.0478128
-0.00163765
0.188481
0.0772848
0.694144
0.651205
0.656073
0.671652
0.688229
0.665842
0.646406
0.642185
0.668992
0.674485
0.5035
0.233877
0.193421
0.146419
0.636055
0.532076
0.585968
0.506358
0.507926
0.510452
0.509328
0.490535
0.497841
0.493573
0.500405
0.503952
0.511517
0.511711
0.507676
0.509558
-0.0557773
-0.0589105
-0.072139
-0.114899
-0.119431
-0.15988
-0.0849775
0.116267
0.0608175
0.252304
0.39493
0.0850633
-0.042667
-0.0291126
0.0269957
0.188525
0.192749
0.0576235
0.175164
0.12998
0.122448
0.214088
0.237604
-0.0228744
-0.0221785
-0.023622
-0.0301492
0.020696
0.118587
0.103535
-0.000134033
-0.0070338
-0.0368622
-0.0383498
0.00508727
-0.0101425
-0.00402239
0.00981705
-0.038177
-0.0138637
-0.00318731
5.44027e-05
-0.00464608
-0.00265332
0.504648
0.506803
0.506692
0.514688
0.529449
0.544605
0.507118
0.483214
0.474271
0.477365
0.450743
0.459879
0.455016
0.470481
0.492063
0.500907
0.498434
0.501093
0.483451
0.485111
0.470705
0.475154
0.44498
0.426842
0.417136
-0.0349633
-0.00207076
-0.0131395
-0.0326387
-0.00589394
-0.0177906
-0.00844419
0.00807366
-0.00827842
-0.00684259
-0.0162964
-0.0201759
-0.0180655
-0.0670588
0.014361
-0.16855
-0.218251
-0.269096
0.889505
1.02497
0.813471
0.613519
0.61523
0.833021
0.927401
0.566474
0.732661
0.774775
0.569882
0.85896
0.5127
0.512344
0.51024
0.509432
0.510395
-0.0111392
0.0889801
0.108236
0.161905
0.276803
0.383888
0.305999
0.194525
0.329383
0.35325
0.614203
0.622794
0.577766
0.599052
0.598478
0.415162
0.49612
0.537856
0.487665
0.561664
0.594592
0.542149
0.584657
0.504732
0.454655
0.446004
0.403293
0.436886
0.418636
0.393158
0.504085
0.481039
0.491905
0.481582
0.502797
0.523848
0.52676
0.551193
0.565528
0.482893
0.431753
0.448151
0.475628
0.433135
0.449193
0.47028
0.1773
0.0817651
0.248331
-0.0805126
0.00984246
0.0466463
0.00554582
-0.0402645
0.266816
-0.375902
-0.319886
-1.00358
0.493043
0.876628
0.655996
0.670614
0.687296
0.669569
0.680067
0.694425
0.699614
0.627616
0.639547
0.643098
0.612047
0.641064
0.643123
0.650456
0.506254
0.41128
0.411904
0.346804
0.213226
0.252587
0.436677
0.368871
0.296269
0.289979
0.4601
0.328042
0.40446
0.460875
0.389418
0.320985
0.551816
0.599406
0.589069
0.561149
0.457327
0.487889
0.502118
0.548071
0.580843
0.60779
0.499198
0.505458
0.506406
0.503665
0.501871
0.504946
0.505145
0.507438
0.507854
0.510398
0.509754
-0.0368115
-0.0259242
-0.0434719
-0.0457658
0.034073
0.00645689
0.00130848
-0.0354087
-0.00509638
-0.00648951
-0.0230521
-0.0397662
-0.0313174
-0.0178622
0.0745224
0.0936059
0.104972
0.0710683
0.251351
0.432738
0.502159
0.371838
0.212498
0.232671
0.31484
0.0212864
0.036805
0.0222185
0.0723643
0.0501668
-0.0292457
-0.034211
-0.0289084
-0.0229584
-0.014813
-0.0304434
-0.0373011
-0.0279371
-0.033546
-0.0382655
-0.0407351
0.484895
0.477794
0.481211
0.473787
0.472011
0.488619
0.493032
0.494357
0.499803
0.50233
0.492083
0.497942
0.501975
-0.00986857
-0.0247079
-0.0277039
-0.022103
-0.0216697
-0.0214626
-0.0216822
0.126292
0.0337857
0.0681935
0.00039996
-0.123303
-0.0632737
0.494958
0.49069
0.485852
0.715493
0.555704
0.471744
0.567629
0.685843
0.272027
0.476316
0.307762
0.888504
0.790759
0.936635
0.557967
0.251321
0.414769
0.429013
0.263303
0.388643
0.35085
0.225756
0.26518
0.289734
0.374757
0.254513
0.232821
-0.00894355
0.168827
0.282658
0.264167
0.394791
0.452696
0.257432
0.172096
0.120906
0.598779
0.616672
0.627098
0.599961
0.621914
0.565238
0.554634
0.572599
0.581489
0.575568
-0.64139
-0.229852
-1.43156
-0.838166
-0.386979
0.519543
0.510465
0.750612
0.656997
0.700966
0.682133
0.614833
0.578469
0.620479
0.643494
0.340148
0.433204
0.412032
0.39764
0.341388
0.280927
0.56193
0.565002
0.589443
0.613299
0.587654
0.613795
0.497813
0.497621
0.496451
0.492805
0.491377
0.494402
0.0292814
0.00533969
0.0481448
0.0469147
0.0283648
0.0284439
-0.00717077
-0.01658
-0.0213522
-0.0194739
-0.0112142
-0.00769413
0.168516
0.110322
0.0232764
0.064873
-0.00181449
-0.0820029
-0.0841454
0.00393516
0.101532
0.0827941
0.393706
0.664537
0.490912
0.661382
0.45426
0.56001
0.469713
0.444347
0.473907
0.370654
0.45867
0.024629
-0.173177
-0.230797
0.81732
0.773652
0.56085
0.30829
0.196057
0.495564
0.523491
0.489215
0.513302
0.56198
0.542043
0.00595521
0.104016
0.171239
0.481914
0.273486
0.290925
0.282674
0.442944
0.417112
)
;

boundaryField
{
    wall-4
    {
        type            zeroGradient;
    }
    velocity-inlet-5
    {
        type            zeroGradient;
    }
    velocity-inlet-6
    {
        type            zeroGradient;
    }
    pressure-outlet-7
    {
        type            fixedValue;
        value           uniform 0;
    }
    wall-8
    {
        type            zeroGradient;
    }
    frontAndBackPlanes
    {
        type            empty;
    }
}


// ************************************************************************* //
