/*--------------------------------*- C++ -*----------------------------------*\
  =========                 |
  \\      /  F ield         | OpenFOAM: The Open Source CFD Toolbox
   \\    /   O peration     | Website:  https://openfoam.org
    \\  /    A nd           | Version:  6
     \\/     M anipulation  |
\*---------------------------------------------------------------------------*/
FoamFile
{
    version     2.0;
    format      ascii;
    class       volVectorField;
    location    "44";
    object      U;
}
// * * * * * * * * * * * * * * * * * * * * * * * * * * * * * * * * * * * * * //

dimensions      [0 1 -1 0 0 0 0];

internalField   nonuniform List<vector> 
918
(
(0.985047 -0.00071037 0)
(0.00533463 2.96625 0)
(-0.00219643 0.848 0)
(0.979574 0.00195808 0)
(-0.0150804 2.04615 3.02466e-20)
(-0.00708704 2.94855 -2.66717e-18)
(0.806702 1.1255 4.21642e-19)
(0.267064 0.101586 -1.53032e-20)
(0.999921 -0.000242884 0)
(0.0803099 0.731482 0)
(0.0141662 0.514321 0)
(0.734482 -0.0167381 0)
(0.0102092 2.93156 0)
(0.00345711 2.79422 0)
(-0.000799857 3.18901 8.16534e-19)
(-0.0127877 1.9041 6.66617e-21)
(0.325994 0.0228797 1.01117e-18)
(0.235163 1.13942 3.38895e-19)
(0.964471 0.00671727 0)
(-0.0322753 0.50282 0)
(0.0683016 0.160161 -7.28247e-19)
(1.00184 -0.0045598 0)
(0.999852 -0.00893332 0)
(0.975157 -0.00605588 0)
(0.594816 -0.0363232 0)
(0.0227274 2.64405 0)
(-0.0123837 2.91199 9.82802e-19)
(-0.00198671 0.920658 0)
(-0.00327564 1.15366 0)
(-0.00344431 0.892751 0)
(-0.0228754 2.60969 0)
(-0.0059994 2.10204 -2.41484e-20)
(-0.00895017 1.86813 0)
(-0.0221664 2.9876 -9.6411e-23)
(-0.0165002 3.00551 2.0726e-18)
(0.00230823 3.0006 0)
(0.871348 -0.00957529 0)
(0.376845 0.919901 1.71256e-19)
(0.80564 1.13727 -5.1168e-19)
(0.938845 0.990672 5.29437e-19)
(0.672775 1.22147 -9.6963e-20)
(0.683733 1.19613 5.58989e-19)
(0.293179 0.192488 1.49297e-20)
(0.276852 0.086891 0)
(1.13391 0.514446 0)
(0.258565 0.186175 6.81385e-20)
(0.237606 0.109332 -7.07071e-20)
(0.920429 -0.00701391 0)
(1.00026 7.31333e-05 0)
(0.999909 0.000317727 0)
(1.0037 -0.00728943 0)
(1.00089 -0.000951803 0)
(1.00011 -1.30002e-05 0)
(0.0950829 1.83521 -7.76871e-19)
(0.0327345 0.904124 0)
(0.135374 0.798847 0)
(0.0170163 0.855471 0)
(0.0441166 0.6723 0)
(0.00780039 2.01567 0)
(0.00617542 0.759071 0)
(0.00524807 0.545086 0)
(0.00264498 0.749521 0)
(0.011563 0.499507 0)
(0.841138 -0.0155883 0)
(0.841187 0.0332111 0)
(0.766671 -0.00687734 0)
(0.812745 0.0436242 0)
(0.700872 -0.0172807 0)
(0.0139644 3.00019 9.91181e-19)
(0.0111955 3.00594 0)
(0.00629419 3.0039 0)
(0.011882 2.99709 1.12771e-23)
(0.00829233 2.95871 -1.47314e-18)
(0.0121887 2.98289 0)
(0.00901061 2.90485 0)
(0.0210894 2.93134 2.31346e-24)
(0.00413659 2.8243 0)
(0.0261991 2.91881 0)
(-0.000381608 2.74499 0)
(0.309819 3.58892 0)
(-0.122626 3.67215 0)
(0.152334 3.28018 -7.59954e-19)
(0.0055935 3.01353 0)
(-0.0275659 2.00895 0)
(-0.00704176 2.1636 -6.5746e-21)
(-0.00741345 1.91304 9.89189e-23)
(0.412564 0.137213 -3.49863e-19)
(0.332663 -0.00219733 -3.38091e-19)
(0.385452 0.155691 -1.0525e-18)
(0.312259 0.0386934 -6.91434e-19)
(0.260486 1.00225 0)
(0.333404 1.26846 -3.53144e-19)
(0.408916 1.17056 5.81842e-19)
(0.987888 0.00809124 0)
(0.943404 0.0057916 0)
(1.00029 0.000673428 0)
(1.00254 0.00907069 0)
(1.00313 0.00895682 -2.67279e-18)
(0.992131 0.00947202 2.01974e-18)
(-0.0281036 0.769052 0)
(-0.0148022 0.478631 0)
(-0.0261781 0.980415 0)
(-0.0160237 0.798918 0)
(-0.0131476 0.517639 0)
(0.0848175 0.169213 2.25321e-19)
(0.136369 0.141247 0)
(0.993613 -0.00769886 0)
(0.95401 -0.00646573 0)
(0.756477 0.0497309 0)
(0.69095 0.0555063 0)
(0.661705 -0.0231346 0)
(0.971869 -0.00455471 0)
(0.620544 0.060184 0)
(0.450059 -0.029177 1.49667e-18)
(-0.0408047 2.8611 7.88075e-19)
(0.0334937 2.91443 0)
(0.0424113 2.89212 0)
(0.003619 2.70179 0)
(-0.00863693 2.98633 9.42587e-19)
(-0.0142109 2.8947 0)
(-0.0110684 2.99163 -2.89779e-18)
(-0.0116228 2.92957 9.86096e-19)
(0.00206681 1.34353 0)
(0.0222809 1.37772 0)
(-0.00630588 2.12467 4.4358e-22)
(-0.00621675 2.08507 0)
(-0.0151991 1.88393 0)
(0.938402 -0.00540397 0)
(0.856388 -0.0109178 0)
(0.863569 0.00571774 0)
(0.949323 -0.00631977 0)
(0.883286 -0.00797684 0)
(0.501389 1.12088 -2.1712e-19)
(0.548933 1.19164 0)
(0.337859 0.853203 3.29526e-20)
(0.281569 0.717979 0)
(0.899987 1.02831 -1.48014e-19)
(1.01212 0.829322 2.90132e-19)
(0.390708 1.32923 0)
(0.536175 1.28199 0)
(0.587586 1.21581 0)
(0.096279 0.173977 -2.9716e-19)
(0.31406 0.188647 0)
(0.277186 0.0801584 1.95813e-19)
(0.976249 0.885019 0)
(1.04994 0.72739 0)
(1.07729 0.661113 -2.24029e-19)
(1.11776 0.574688 0)
(1.1723 0.385531 4.45721e-20)
(0.957278 -0.00723369 0)
(0.962609 -0.0081851 0)
(0.900679 -0.0073185 0)
(0.983898 -0.00814181 0)
(0.974365 -0.00807627 0)
(0.936471 -0.00654491 0)
(1.0002 0.00250325 0)
(1.00077 0.00124628 0)
(1 0.000772144 0)
(0.042722 2.08138 4.31755e-19)
(0.145871 1.77777 0)
(0.0159171 2.19872 6.59974e-19)
(0.0554546 1.88577 -5.55821e-19)
(0.172651 1.11966 -2.77658e-19)
(0.0527194 0.983343 0)
(0.124264 0.977429 0)
(0.00344229 0.819587 0)
(0.0253426 0.608634 0)
(-0.00472111 2.25068 -8.34573e-22)
(0.0196127 2.02261 0)
(-0.00751088 2.2514 -3.36981e-20)
(0.00950979 2.02681 5.44938e-20)
(0.00791746 0.787882 0)
(0.00433477 0.773219 0)
(0.00769888 0.57391 0)
(-0.00972884 0.745366 0)
(-0.00339862 0.492167 0)
(0.93735 0.0135451 0)
(0.853051 -0.011827 0)
(0.927099 0.00453214 0)
(0.844567 -0.0127926 0)
(0.812251 -0.000945401 0)
(0.899417 0.0222419 0)
(0.8739 0.0278646 0)
(0.788711 -0.00437578 0)
(0.0102807 3.06717 -9.27754e-21)
(0.0151935 3.0592 0)
(0.0123496 2.97036 0)
(0.00756099 2.87656 0)
(0.900879 3.98721 0)
(1.19625 3.38148 9.43359e-19)
(0.0826576 3.09507 0)
(-0.0161666 2.92077 0)
(0.00322782 1.3982 0)
(-0.0296221 1.70965 0)
(-0.00678572 1.54985 0)
(-0.0323025 2.56629 -8.56883e-21)
(-0.0152632 2.26318 0)
(-0.0229812 2.40635 0)
(0.00740338 1.95107 1.7153e-21)
(-0.00468326 2.24675 -4.68912e-21)
(-0.00548688 2.20747 -2.67161e-22)
(-0.00352738 1.92819 0)
(0.436261 0.115015 5.31934e-19)
(0.352886 -0.0115672 -5.21968e-19)
(0.236798 1.58112 0)
(0.28478 0.738162 -3.24542e-19)
(0.178033 1.68228 -1.08286e-18)
(0.242692 1.20585 1.08348e-18)
(0.901878 0.00611239 0)
(0.967204 0.0104958 0)
(0.975059 0.00976285 0)
(0.923138 0.00595291 0)
(-0.00674391 0.734423 0)
(-0.0249962 0.744773 0)
(-0.00644563 0.481791 0)
(0.220185 0.184684 6.27325e-19)
(0.181252 0.169672 -7.46227e-19)
(0.186115 0.123708 0)
(1.09613 0.0869802 2.54482e-20)
(1.08011 0.04019 0)
(1.01194 0.0423825 0)
(0.907914 -0.00294543 0)
(0.467965 0.0931546 0)
(0.527515 0.0685458 -2.39907e-18)
(0.38866 -0.015962 9.03381e-19)
(0.0108692 2.97696 8.28861e-19)
(-0.033415 2.86164 4.58495e-20)
(0.00819263 3.05329 -1.95447e-20)
(0.0157023 3.04326 7.31741e-19)
(-0.0118917 3.00002 3.23894e-20)
(-0.0122755 2.95233 -1.30623e-22)
(-0.015035 3.01331 -6.03603e-19)
(0.0143618 3.02658 4.25293e-19)
(0.00756742 3.03487 -6.91907e-19)
(0.933728 0.00174244 0)
(0.938857 -0.00142618 0)
(0.846903 -0.0110224 0)
(0.956577 0.011508 0)
(0.942836 0.0128959 0)
(0.881869 0.00585081 0)
(0.916685 0.0176045 0)
(0.925866 0.0146772 0)
(0.838145 0.00251909 0)
(0.675284 1.42164 1.1802e-20)
(0.693736 1.53285 0)
(0.121445 0.307101 6.94067e-20)
(0.200678 0.637906 5.51113e-19)
(0.235613 0.689695 -3.22583e-19)
(0.219603 0.516153 6.39279e-19)
(0.329085 0.806071 1.57265e-18)
(0.126167 0.22538 3.77806e-19)
(0.3605 0.178476 7.35006e-19)
(0.34079 0.190089 1.90395e-19)
(0.289772 0.0620307 3.64931e-19)
(1.16777 0.432312 6.64306e-20)
(1.1973 0.24327 6.53659e-20)
(0.00466275 2.24219 2.59348e-19)
(0.0423377 1.94932 0)
(0.968459 0.0321282 0)
(0.943609 0.0189014 0)
(0.866418 -0.0157037 0)
(0.0123317 3.07494 0)
(0.0168618 2.94398 1.29925e-18)
(0.0139947 2.95694 0)
(0.00584066 2.84989 -1.28947e-18)
(0.00901715 3.09026 3.17906e-19)
(0.0118186 3.08298 0)
(0.714808 1.83089 -1.71739e-19)
(1.24085 2.63816 5.80746e-19)
(0.699769 2.00956 -1.40486e-18)
(0.0225979 2.97651 -7.25966e-19)
(0.041219 2.99968 0)
(-0.0381794 2.88017 0)
(-0.00833644 2.22945 -1.20178e-20)
(-0.00858637 2.25019 1.89162e-21)
(0.00905084 1.98545 -7.49045e-21)
(0.264344 1.38674 1.04261e-18)
(0.272055 0.535025 -7.16317e-19)
(0.070483 1.99826 7.68187e-19)
(0.1232 1.86771 -9.20503e-19)
(0.207113 1.52684 1.00892e-19)
(0.00583173 3.12044 -1.77716e-18)
(0.0131221 3.12077 1.95527e-18)
(-0.00514677 2.98064 8.85563e-19)
(-0.00145644 2.97515 -8.52183e-19)
(-0.0177226 2.8773 -9.01983e-19)
(0.0121119 3.10066 -2.36544e-18)
(0.00565865 3.10523 2.39868e-18)
(0.251329 0.677758 0)
(0.204129 0.643285 -1.16292e-18)
(0.0694971 0.210538 5.10975e-19)
(0.340582 0.923287 1.12203e-18)
(0.190988 0.267872 -1.72762e-18)
(1.18266 0.1716 5.56022e-20)
(1.19553 0.296364 0)
(1.17895 0.119491 -9.52961e-22)
(-0.00286741 2.26072 -1.56186e-21)
(0.000327413 2.24676 0)
(0.0321081 1.9823 0)
(0.314123 1.3079 -3.72516e-19)
(0.351004 1.15101 -8.04912e-19)
(0.221634 0.376824 1.43663e-18)
(1.00643 -0.00971508 0)
(1.00773 -0.00780554 4.91454e-19)
(-2.45405e-05 1.31903 0)
(-0.0232983 1.30159 0)
(1.00245 0.00330473 1.37577e-21)
(1.00323 0.00786202 1.00869e-18)
(-0.0234652 2.55145 1.08483e-20)
(-0.0282492 2.59371 0)
(0.0418183 3.17329 5.24939e-19)
(0.378778 3.55144 0)
(1.13947 0.679878 -6.17526e-20)
(1.01195 0.010766 -2.79883e-21)
(1.02078 -0.00908907 0)
(1.00159 0.000240509 1.49328e-22)
(0.109009 1.36349 0)
(0.141329 2.59117 0)
(0.0247777 1.30859 0)
(-0.000640455 2.63799 2.77743e-20)
(-0.0208204 2.5895 1.24442e-20)
(0.998821 0.0266722 2.62114e-21)
(1.06176 0.00493079 0)
(1.09816 0.0270896 0)
(-0.0257059 1.74533 0)
(-0.0229143 2.59583 0)
(-0.0107379 1.30033 0)
(0.291191 1.48302 -1.60928e-19)
(1.01147 -0.00909742 0)
(1.00969 -0.0130034 0)
(1.00229 0.00093244 6.29991e-19)
(1.00548 -0.00494556 -7.41831e-19)
(1.00114 -0.000876391 0)
(-0.00918311 1.45993 0)
(-0.0047358 1.36521 0)
(0.00232209 1.41825 0)
(-0.0128868 1.28641 0)
(-0.0164991 1.26466 0)
(-0.0174938 1.24387 0)
(1.03535 -0.0046146 0)
(1.01941 0.0150564 -9.1125e-22)
(0.78889 1.30257 2.60282e-19)
(1.00235 0.000357645 -6.28489e-19)
(1.0034 0.00451117 7.50527e-19)
(1.00129 0.00211698 0)
(1.01129 0.00967137 6.26303e-19)
(1.00694 0.00751796 -7.62354e-19)
(1.00731 0.0112764 0)
(-0.0265524 2.62367 0)
(-0.0285603 2.60218 -1.82198e-20)
(-0.0265728 2.61615 1.32081e-20)
(1.23419 0.267635 5.56774e-19)
(1.16022 0.0872932 0)
(0.0452764 3.09029 -1.0271e-18)
(0.051104 2.8712 -7.25723e-20)
(0.104376 3.20108 1.37584e-18)
(0.122911 3.21374 -3.01894e-19)
(0.145137 3.26065 0)
(0.0233598 3.13786 2.83202e-19)
(0.0621306 3.16165 1.0231e-18)
(0.0624003 3.17891 -5.29305e-19)
(0.0276405 3.12901 0)
(0.623152 0.294368 0)
(0.578987 0.334738 0)
(1.11763 0.711922 1.49907e-19)
(1.0833 0.845006 -1.47031e-19)
(1.17841 0.596622 0)
(1.20947 0.532667 0)
(1.01583 0.0120346 -1.16365e-18)
(1.01477 0.0128103 1.46306e-18)
(1.02556 -0.0088344 0)
(1.02388 -0.0103753 0)
(1.00657 0.00287778 0)
(1.01095 0.00419777 0)
(1.00442 0.00215377 0)
(1.00945 0.00642906 0)
(1.00707 0.00512168 0)
(1.0045 0.00531776 0)
(0.0958678 1.36014 0)
(0.0765451 1.34254 0)
(0.137469 1.41074 0)
(0.134272 1.41262 0)
(0.149448 2.61555 0)
(0.191708 2.68344 -4.3188e-19)
(0.107359 2.6756 0)
(0.0834909 2.67648 1.80915e-19)
(0.0297429 2.6812 -1.82926e-19)
(0.0137097 1.31621 0)
(0.0208827 1.25215 0)
(0.0213968 1.3341 0)
(0.0264071 1.28023 0)
(0.00186553 1.99117 3.42657e-21)
(-0.0209591 2.61724 -8.20754e-21)
(-0.00835583 2.68047 1.13013e-20)
(-0.0189531 2.69412 0)
(-0.0230637 2.62502 -2.318e-20)
(-0.021887 2.62039 7.4658e-21)
(0.0102403 1.99019 -5.89639e-22)
(-0.00876301 2.41031 1.10127e-20)
(-0.0130725 2.4313 -1.28131e-20)
(1.00992 0.0381221 1.17966e-18)
(1.00589 0.0174179 -1.46974e-18)
(1.00315 0.0437023 -1.20639e-18)
(0.976896 0.0302758 1.51901e-18)
(1.06354 0.00829297 0)
(1.0491 -0.00673851 0)
(1.0908 0.0358071 0)
(1.07437 0.0138428 0)
(1.07307 -0.00056949 0)
(1.1388 0.0763344 0)
(1.11307 0.0437252 0)
(1.11557 0.0359257 0)
(-0.0272394 2.44501 6.19021e-22)
(-0.0140899 2.02691 0)
(-0.0176349 2.23015 0)
(-0.0236785 2.61627 -8.27188e-21)
(-0.0214572 2.62569 1.34493e-22)
(0.00240473 1.5744 -2.66018e-20)
(-0.000121378 1.49909 2.70944e-20)
(-0.0151354 1.38563 0)
(-0.0166993 1.39123 0)
(-0.0207423 1.38642 0)
(-0.00518314 1.3048 0)
(0.00473034 1.25141 0)
(0.374975 1.50449 2.64373e-19)
(0.422294 1.51041 1.45375e-19)
(0.594181 2.47042 -2.53971e-19)
(0.387398 2.56576 7.04182e-19)
(0.350359 2.06969 7.51082e-20)
(1.02057 -0.00810703 0)
(1.01573 -0.00942069 0)
(1.01481 -0.0132401 0)
(1.00759 -0.000681879 0)
(1.00492 -0.00067376 0)
(1.00799 -0.00453987 0)
(1.00952 -0.00357227 0)
(1.01457 -0.0044272 0)
(1.02017 0.0159458 1.14159e-18)
(1.01761 0.0147987 -1.44505e-18)
(1.02063 0.0181455 -1.15078e-18)
(1.01833 0.0165833 1.43847e-18)
(0.747559 1.34678 0)
(0.683482 1.38439 2.25777e-19)
(0.853876 1.22621 8.32402e-20)
(0.889761 1.19047 -1.10449e-19)
(1.16671 2.62223 2.92495e-19)
(0.782278 0.121895 5.88053e-19)
(1.16766 0.103294 0)
(1.20704 0.194682 -4.50832e-19)
(1.18776 0.152994 -1.87033e-20)
(1.01272 0.157382 0)
(0.0840887 3.02325 3.694e-19)
(0.0866556 2.90497 -1.22077e-18)
(0.0340337 2.36522 7.75176e-19)
(0.13341 -0.106159 -3.72711e-19)
(0.346376 3.454 -2.4165e-19)
(0.195838 3.34492 0)
(0.227009 3.40432 3.14778e-19)
(0.228026 3.08158 -1.27537e-18)
(0.262101 3.2021 0)
(0.00713734 3.12234 5.2967e-20)
(0.0172562 3.13114 -6.08265e-19)
(0.0165017 3.12703 8.95266e-19)
(0.0338843 3.13998 0)
(0.031838 3.14974 0)
(1.2629 2.58873 0)
(0.52196 0.823122 -5.32348e-19)
(1.00249 1.02095 6.71096e-21)
(0.968001 1.07189 0)
(0.837741 0.961184 -1.17116e-19)
(1.0587 0.892645 2.70712e-20)
(0.402597 0.365318 -9.1672e-19)
(0.688188 0.30959 -2.37573e-20)
(0.63354 0.228333 4.12821e-19)
(0.600681 0.358004 3.04482e-20)
(0.513596 0.33321 -1.22771e-18)
(0.649935 0.323506 0)
(0.699758 0.415457 6.8925e-19)
(0.702022 0.418885 0)
(0.628761 0.349854 0)
(0.575823 0.288678 0)
(0.777591 0.646981 4.05109e-19)
(1.24241 0.297074 -4.56879e-19)
(1.23264 0.430365 0)
(1.23642 0.384773 0)
(0.728632 0.180663 6.19033e-19)
(0.835719 0.539485 -3.86768e-19)
(0.75167 0.494467 6.86974e-19)
(0.954979 0.427855 -7.1711e-19)
(1.0188 0.0145406 7.74587e-19)
(1.01731 0.0135856 -7.82922e-19)
(1.01612 0.0142346 0)
(1.03667 -0.00481967 0)
(1.03019 -0.00784473 -7.34551e-19)
(1.02835 -0.0107322 7.26994e-19)
(1.02477 0.01053 0)
(1.02291 0.0145102 0)
(1.01262 0.00452239 0)
(1.01455 0.00908166 0)
(1.01614 0.00402596 0)
(1.01537 0.00278952 0)
(0.0626064 1.35633 0)
(0.0612388 1.319 0)
(0.14087 1.41161 5.74486e-20)
(0.265328 1.47783 7.55968e-20)
(0.162302 1.45213 1.68322e-19)
(0.191525 1.45707 -2.72958e-19)
(0.145067 1.4162 0)
(0.127374 1.57965 -1.11966e-19)
(0.124616 1.57462 0)
(0.345741 2.02743 -1.09326e-19)
(0.33722 2.34387 6.6434e-19)
(0.17839 1.45355 9.7611e-20)
(0.263788 1.37812 1.8927e-20)
(0.189467 1.38128 -1.54133e-20)
(0.278557 1.31404 -1.05849e-19)
(0.251014 1.57514 0)
(0.254627 1.62351 1.11372e-19)
(0.0265424 2.27347 -1.89107e-20)
(0.0372749 2.67516 0)
(0.0675127 2.4142 1.08383e-19)
(0.0617327 2.43384 0)
(0.0685315 2.69297 -2.00753e-19)
(0.0434069 2.70879 0)
(0.027657 1.42222 2.69705e-20)
(0.0374628 1.4823 0)
(0.0330785 1.38701 0)
(0.0235084 1.38313 -3.1612e-20)
(0.00117104 2.6649 -1.84985e-21)
(0.025565 2.69875 2.10495e-19)
(0.00901711 2.734 1.24508e-21)
(0.00288791 1.8367 -2.32242e-23)
(-0.00326576 1.68437 -2.81872e-21)
(0.016104 1.30412 0)
(0.0225907 1.23914 0)
(0.0398663 1.57874 1.01031e-20)
(0.0378279 1.45304 -9.85954e-21)
(0.0352181 1.52466 7.7393e-21)
(0.0446361 1.60729 0)
(-0.0310132 2.27793 7.01124e-20)
(-0.0327745 2.56342 -2.8481e-20)
(-0.0221587 2.46085 2.67291e-21)
(-0.00600148 1.85481 2.81572e-23)
(-0.0268378 2.51416 2.14919e-21)
(-0.0228979 2.45333 1.16107e-20)
(1.01849 0.0211609 -7.80492e-19)
(1.01452 0.0272915 7.84215e-19)
(1.01351 0.0167267 0)
(1.01212 0.0683701 1.07425e-18)
(0.991562 0.0552107 -1.23797e-18)
(0.952741 0.0519703 1.38567e-18)
(1.01364 0.112572 -1.46333e-19)
(1.04341 -0.00502329 0)
(1.05144 -0.000989497 7.03704e-19)
(1.03985 -0.00833816 -7.03381e-19)
(1.07073 0.0422429 -4.17959e-20)
(1.06394 0.0276749 3.60874e-19)
(1.06383 0.0628912 0)
(1.05399 0.0520608 -1.29791e-19)
(1.03235 0.0430926 0)
(1.02596 0.0382945 0)
(1.02768 0.0132169 0)
(1.0241 0.0158022 0)
(1.04017 0.032486 2.66814e-19)
(1.03953 0.0274653 -5.90337e-19)
(1.05258 0.0366578 -2.82544e-19)
(1.04839 0.0365889 -3.11593e-19)
(1.07637 0.0671603 5.97647e-19)
(1.09989 0.0531583 0)
(1.10619 0.0923229 0)
(-0.0278371 2.28536 4.59381e-20)
(-0.0218575 2.0324 6.18744e-22)
(-0.0206871 2.03992 0)
(-0.0328268 2.45663 -4.57411e-20)
(-0.027208 2.41415 -1.21184e-21)
(-0.0330165 2.4865 5.09021e-21)
(-0.0217738 2.6344 -5.53854e-21)
(-0.025141 2.57802 -7.96428e-24)
(-0.0244831 2.52981 -2.92972e-21)
(-0.0190432 2.62881 8.45016e-21)
(-0.0227943 2.6301 -8.94352e-21)
(-0.00697425 1.48657 -7.17008e-22)
(-0.000998305 1.62419 -2.48519e-20)
(0.364608 1.43462 -1.09753e-19)
(0.363016 1.36179 3.06683e-20)
(0.631719 1.43098 -2.18499e-19)
(0.510295 1.50171 -1.40791e-19)
(0.559566 1.46354 0)
(0.609165 2.42866 2.21551e-19)
(0.667751 2.43314 3.40854e-19)
(0.426204 2.52132 7.99309e-20)
(0.40115 2.54795 -6.78156e-19)
(0.499572 2.49252 5.91712e-19)
(0.54872 2.48398 0)
(0.492528 2.5302 -5.59517e-19)
(0.26184 2.59578 1.17221e-18)
(0.361033 2.57169 -6.09084e-20)
(0.283792 2.6563 -1.61583e-18)
(0.965281 2.39717 7.16404e-19)
(0.847757 2.39634 0)
(1.01142 0.00123669 2.55519e-20)
(1.01528 -0.00532469 -2.08506e-20)
(1.01763 -0.00411292 -3.81233e-19)
(1.01547 -0.00119796 3.79881e-19)
(1.013 0.00168461 0)
(0.622111 1.29577 0)
(0.660844 1.18449 0)
(0.773935 1.10939 0)
(0.648051 1.14324 0)
(1.19739 2.63855 5.02615e-20)
(1.0895 2.38745 0)
(0.825474 2.19703 3.56298e-21)
(0.825669 2.4537 0)
(0.919021 2.54197 -4.37427e-19)
(0.951085 2.49175 2.9225e-19)
(0.804226 0.154763 0)
(0.764369 0.135692 1.60376e-19)
(0.918956 0.15139 9.32892e-19)
(0.832213 0.130077 -3.49893e-19)
(0.78784 0.0869125 -1.07169e-18)
(1.08373 0.23382 -8.65399e-19)
(0.982152 0.298907 -7.83472e-21)
(0.92935 0.333839 8.41443e-19)
(1.01506 0.244795 7.06232e-19)
(0.933425 0.193659 -1.23588e-18)
(0.896671 0.2046 1.54441e-19)
(0.941925 0.295884 -3.23876e-19)
(0.909448 0.207273 0)
(0.999743 0.196203 6.0496e-19)
(1.05451 0.208339 0)
(1.0505 0.216374 0)
(1.12175 0.119706 2.74481e-19)
(1.06288 0.18538 -1.05578e-20)
(1.07716 0.237092 -1.5639e-19)
(1.11527 0.204576 0)
(1.02338 0.047136 6.04544e-19)
(1.0393 0.0612571 7.51406e-19)
(1.03293 0.0451192 -5.99671e-19)
(1.04195 0.0667484 -5.0374e-19)
(1.01501 0.0725223 -7.60606e-19)
(0.990819 0.162414 0)
(0.992612 0.105206 0)
(0.96186 0.0654596 -4.918e-19)
(0.909738 0.0966302 1.94247e-19)
(1.03868 0.112195 6.96934e-19)
(1.07377 0.131067 -8.03512e-19)
(1.0677 0.172665 7.2154e-19)
(1.03464 0.149674 0)
(1.08334 0.116476 0)
(1.05702 0.108354 -3.2823e-19)
(1.04419 0.104035 -5.67107e-19)
(0.589329 1.11001 1.15995e-19)
(0.624758 1.43457 -2.21345e-20)
(1.14781 2.73257 -2.4726e-19)
(1.20022 3.11419 2.64316e-21)
(1.25619 2.73987 -1.37925e-19)
(1.29753 2.71156 2.30637e-20)
(1.27344 2.33399 -3.71351e-20)
(1.18808 3.02005 -7.43866e-20)
(1.2069 2.97691 2.24706e-19)
(1.18239 3.26821 -1.23012e-19)
(1.4018 2.98421 1.52201e-19)
(1.41384 2.92293 0)
(0.555592 0.846284 -4.82144e-20)
(0.232803 1.22261 4.92239e-19)
(0.500299 0.438572 5.84346e-19)
(0.376854 0.200132 6.71162e-19)
(0.539482 0.363789 6.93317e-19)
(0.556979 0.460387 -1.11849e-18)
(0.559082 0.458086 9.17122e-19)
(0.509394 0.386609 -3.53828e-19)
(0.434578 0.318716 7.98557e-19)
(0.747073 0.238148 -3.5493e-19)
(0.712966 0.271321 0)
(0.67795 0.193535 8.70908e-21)
(0.738798 0.501168 3.7492e-19)
(0.692552 0.476493 -1.36263e-18)
(0.643921 0.454083 2.17687e-20)
(0.642024 0.428219 0)
(0.696954 0.731436 3.82071e-19)
(0.817477 0.796177 4.27264e-19)
(0.746445 0.84693 -4.97384e-19)
(0.88565 0.815032 -1.59588e-19)
(0.917129 0.853211 -3.93583e-20)
(0.924785 0.860659 4.03508e-20)
(0.875363 0.672611 -6.89721e-19)
(0.941715 0.721003 1.48384e-19)
(0.990499 0.722153 0)
(0.989407 0.69669 -1.93615e-19)
(1.02881 0.320057 2.21356e-19)
(1.15167 0.321347 2.71962e-19)
(1.06747 0.272556 3.54468e-19)
(0.990044 0.364102 -4.36449e-19)
(1.03982 0.468585 0)
(1.12533 0.414621 0)
(0.893162 0.409878 5.04959e-21)
(0.841355 0.294842 0)
(0.878302 0.281955 4.00571e-19)
(0.906714 0.330132 8.88328e-21)
(0.966373 0.468617 2.01454e-18)
(0.895208 0.534421 5.17175e-19)
(0.916446 0.479809 -5.57569e-19)
(0.83114 0.457039 5.91644e-19)
(0.811608 0.436391 3.65141e-19)
(0.791855 0.404595 -3.58041e-19)
(1.02797 -0.000466101 6.30203e-19)
(1.0203 0.000357207 0)
(1.01893 0.00119807 4.11166e-19)
(1.02255 -0.000948456 -9.30887e-19)
(1.02248 0.00435488 4.5343e-19)
(1.02012 0.0112991 -9.48804e-19)
(1.02095 0.0110579 0)
(1.0199 0.0118215 -1.97589e-19)
(1.01647 0.00761668 4.95247e-19)
(1.01672 0.0107243 -2.48599e-19)
(1.01737 0.0103551 1.81959e-19)
(0.0307657 1.32542 0)
(0.0307794 1.35292 0)
(0.0439775 1.33441 0)
(0.0440652 1.29236 0)
(0.0762337 1.36496 2.3727e-20)
(0.0913514 1.33686 -3.24055e-20)
(0.0487612 1.54844 -1.09824e-20)
(0.105703 1.38031 -5.40307e-20)
(0.0425704 1.4636 7.46986e-21)
(0.0452544 1.46139 -6.37391e-21)
(0.066509 1.3684 -4.10056e-20)
(0.0558798 1.37319 4.22979e-20)
(0.0464862 1.35084 6.84138e-21)
(0.0393748 1.37118 2.1041e-21)
(0.107559 2.38635 -1.18656e-19)
(0.0962567 2.42725 0)
(0.154569 2.03086 1.02912e-19)
(0.118181 1.70722 4.43765e-20)
(0.215544 2.02658 -8.42747e-20)
(0.216865 2.43277 0)
(0.233757 2.39688 -6.75174e-19)
(0.299262 2.38616 4.89902e-19)
(0.250337 2.0011 -2.24633e-19)
(0.142174 2.15873 1.56387e-19)
(0.112396 2.26372 0)
(0.0230751 1.86188 -3.78384e-20)
(-0.00536031 2.39485 -6.33704e-20)
(0.00559838 2.14255 0)
(0.00600956 2.45596 -1.47398e-20)
(0.0257669 2.30073 2.77901e-20)
(0.0191526 1.40413 -5.75184e-21)
(0.0154159 1.38993 9.63192e-20)
(0.0141091 1.39355 -3.27881e-20)
(0.0205296 1.39337 -2.50529e-20)
(0.0263165 1.4259 0)
(0.0111401 1.3758 0)
(0.00583233 1.30095 -4.18301e-20)
(0.00314018 1.36828 1.16335e-20)
(0.0092444 1.37001 0)
(0.0129065 1.29748 -3.26689e-20)
(0.0201204 1.22929 6.52916e-20)
(1.04202 0.01417 0)
(1.04841 0.00969854 -6.58564e-20)
(1.03897 0.0231962 -4.75479e-19)
(1.04922 0.0220236 0)
(1.0541 0.0211905 0)
(1.0362 0.0120945 -6.74049e-21)
(1.03024 0.0124529 7.63301e-19)
(1.0318 0.0166643 9.28206e-19)
(1.0257 0.0204779 0)
(1.02237 0.0209222 0)
(1.03541 0.0249275 4.74729e-19)
(1.0257 0.0271623 0)
(1.02369 0.0272896 0)
(-0.0208467 2.02965 0)
(-0.00527706 1.65475 -3.33898e-21)
(-0.00992723 1.76173 -2.22468e-20)
(-0.0030462 1.37358 0)
(-0.0105452 1.54846 -1.3548e-20)
(-0.00768775 1.45113 9.06637e-21)
(-0.00614211 1.38041 0)
(0.404437 1.65898 0)
(0.356004 1.30141 -4.4105e-20)
(0.277476 1.34405 0)
(0.421252 1.30838 -1.90359e-20)
(0.462476 1.46361 0)
(0.445128 1.40545 3.15148e-20)
(1.04006 2.68665 -1.53555e-20)
(0.980645 2.41815 -9.00273e-19)
(0.939668 2.2088 1.02656e-18)
(0.863326 2.38923 2.41021e-19)
(0.854411 2.50347 0)
(0.921888 2.50051 0)
(0.949089 2.39035 0)
(0.925964 2.3782 -9.33933e-19)
(0.694706 2.47389 -3.84912e-19)
(0.803362 2.45746 -9.88253e-20)
(0.811415 2.43561 7.46037e-20)
(0.704271 2.40687 0)
(0.808824 2.40117 0)
(0.770707 2.41624 -3.67637e-19)
(0.768602 2.48234 0)
(0.609781 1.07235 0)
(0.519819 0.891879 -5.49541e-19)
(0.523008 0.957351 -3.19779e-20)
(0.505964 1.09586 0)
(0.492593 1.00782 8.42614e-19)
(0.77647 0.879504 -1.40342e-19)
(0.784798 1.01549 0)
(0.762466 0.99399 1.97847e-19)
(0.650238 1.02444 0)
(0.646028 0.936665 0)
(1.16516 2.76714 -2.23736e-19)
(1.14049 2.82576 -9.16191e-20)
(0.927492 2.35471 7.6701e-20)
(0.903458 2.33384 -7.66352e-20)
(1.13421 2.74511 0)
(1.08603 2.71375 9.2127e-20)
(1.10176 2.50606 -3.02546e-19)
(1.00168 2.25998 -2.86386e-20)
(0.501817 1.35605 0)
(0.52061 1.09489 -1.02256e-19)
(0.582064 1.18028 0)
(0.85711 0.217304 0)
(0.782121 0.169004 0)
(0.718852 0.136744 0)
(0.859462 0.216492 -6.15288e-19)
(0.772014 0.210549 3.69402e-19)
(0.92426 0.0797501 -4.02107e-19)
(0.944631 0.130218 0)
(0.916391 0.141968 1.73245e-19)
(0.857442 0.0981936 6.94836e-19)
(0.818467 0.0693285 -4.34806e-19)
(1.10285 3.36154 -6.81229e-19)
(1.16818 3.28422 0)
(1.12238 3.4468 -1.58111e-18)
(0.661844 3.59201 1.31756e-18)
(1.03341 3.08811 1.22523e-19)
(0.525405 0.824688 5.69649e-19)
(0.51184 0.794498 0)
(0.37802 0.468304 -1.49274e-19)
(0.471983 0.66541 8.66288e-19)
(0.52692 0.44501 -2.03905e-19)
(0.514662 0.496745 2.34531e-19)
(0.691526 0.537599 4.85623e-19)
(0.723251 0.567221 0)
(0.650771 0.601845 0)
(0.623607 0.55401 0)
(0.997313 0.602082 9.99609e-20)
(0.950716 0.577745 -5.0017e-19)
(0.965792 0.597641 3.77776e-19)
(1.02793 0.527765 -3.73171e-19)
(1.06883 0.498792 0)
(1.07239 0.587013 -9.7735e-20)
(0.860538 0.397561 -8.16904e-19)
(0.855986 0.389175 -1.04027e-18)
(0.800778 0.383695 6.42951e-19)
(0.805714 0.341117 -6.63466e-19)
(0.846352 0.305246 -5.16752e-19)
(0.804882 0.304369 6.35499e-19)
(1.02652 0.0063577 -4.7456e-19)
(1.02617 0.00648026 9.56775e-19)
(1.02981 0.00059725 6.10886e-19)
(1.03393 0.00129509 -7.33687e-19)
(1.03366 0.0110284 0)
(1.02979 0.0112094 -1.19374e-18)
(0.0898334 1.66476 1.19911e-20)
(0.0500323 1.59812 0)
(0.0956199 1.70939 9.8624e-20)
(0.104582 1.67997 -9.21293e-20)
(0.0311459 1.53814 2.0615e-20)
(0.0209432 1.52879 0)
(0.00756454 1.68395 0)
(-0.00182115 1.48736 6.21201e-21)
(5.86112e-05 1.42998 -5.58994e-21)
(-0.00711006 1.5438 3.00475e-21)
(-0.00259116 1.88925 8.98974e-21)
(-0.0127339 1.94308 -1.73954e-21)
(0.49181 1.37818 -2.6647e-19)
(0.49495 1.37483 2.91034e-19)
(0.437642 1.29974 -1.9183e-20)
(0.424368 1.30006 8.17006e-21)
(0.612652 1.30422 0)
(0.543381 1.39442 1.05638e-19)
(0.544132 1.39792 -1.02821e-19)
(0.468873 1.28044 1.84836e-20)
(0.512222 1.24187 0)
(0.578648 1.21203 0)
(0.669026 2.43618 5.67228e-19)
(0.663045 2.45955 1.30072e-18)
(0.719929 2.47639 -8.94052e-19)
(0.621988 2.44959 -2.06325e-19)
(0.553872 2.54594 2.81972e-19)
(0.493621 2.50736 -7.34007e-19)
(0.989796 2.39503 -5.78344e-19)
(1.02424 2.41367 0)
(0.94651 2.19362 -6.38795e-19)
(1.05622 2.69444 0)
(1.05552 2.67706 0)
(0.616016 2.31129 2.81218e-20)
(1.12424 3.08123 9.25193e-20)
(1.00633 2.98223 -1.4781e-19)
(0.335471 0.858202 0)
(0.351694 0.76337 -3.03531e-19)
(0.543032 0.691154 -3.08096e-19)
(0.382194 2.15768 0)
(0.410859 2.75022 -8.61994e-20)
(0.422158 2.48914 0)
(0.708495 0.693247 -8.1683e-19)
(0.766274 0.688215 1.14846e-18)
(0.777919 0.648106 -1.0911e-18)
(0.687488 0.650073 -1.03652e-19)
(0.747718 0.607572 -4.28063e-19)
(0.979287 2.7675 -7.00821e-20)
(1.017 2.7705 -2.05899e-19)
(0.568979 2.23714 4.04009e-19)
(0.617589 1.7562 -3.25573e-19)
(0.714984 1.87418 -4.90788e-19)
(0.983524 2.40828 -1.37251e-19)
(0.981855 2.36386 3.61151e-19)
(0.6613 1.79362 3.28962e-20)
(0.469013 1.32232 1.73674e-19)
)
;

boundaryField
{
    wall-4
    {
        type            noSlip;
    }
    velocity-inlet-5
    {
        type            fixedValue;
        value           uniform (1 0 0);
    }
    velocity-inlet-6
    {
        type            fixedValue;
        value           uniform (0 3 0);
    }
    pressure-outlet-7
    {
        type            zeroGradient;
    }
    wall-8
    {
        type            noSlip;
    }
    frontAndBackPlanes
    {
        type            empty;
    }
}


// ************************************************************************* //
