/*--------------------------------*- C++ -*----------------------------------*\
  =========                 |
  \\      /  F ield         | OpenFOAM: The Open Source CFD Toolbox
   \\    /   O peration     | Website:  https://openfoam.org
    \\  /    A nd           | Version:  6
     \\/     M anipulation  |
\*---------------------------------------------------------------------------*/
FoamFile
{
    version     2.0;
    format      ascii;
    class       volVectorField;
    location    "117";
    object      U;
}
// * * * * * * * * * * * * * * * * * * * * * * * * * * * * * * * * * * * * * //

dimensions      [0 1 -1 0 0 0 0];

internalField   nonuniform List<vector> 
8800
(
(0.987183 -0.0766652 0)
(1.00189 -0.0551904 0)
(0.999718 -0.0285487 0)
(1.00003 -0.0151447 0)
(1.0001 -0.00854787 0)
(1.00013 -0.00505161 0)
(1.00008 -0.00300544 0)
(1.00002 -0.00170287 0)
(0.99999 -0.000794811 0)
(1.00006 -7.41689e-05 0)
(0.999971 0.00066081 0)
(1.00004 0.00142315 0)
(1.00007 0.00242278 0)
(1.00007 0.0039963 0)
(1.00006 0.00663169 0)
(1.00006 0.0113717 0)
(0.999967 0.0208157 0)
(0.999178 0.0386704 0)
(1.0071 0.0724575 0)
(0.771215 0.0366618 0)
(0.363084 -0.0160159 0)
(1.04332 -0.076809 0)
(1.08459 -0.0704357 0)
(1.04519 -0.053529 0)
(1.0233 -0.0388802 0)
(1.01204 -0.0262023 0)
(1.00644 -0.0168376 0)
(1.0036 -0.0102985 0)
(1.00215 -0.0056308 0)
(1.00143 -0.00196509 0)
(1.00128 0.00136292 0)
(1.0017 0.00475247 0)
(1.00271 0.00865919 0)
(1.00468 0.0139815 0)
(1.00861 0.0216909 0)
(1.01658 0.0326567 0)
(1.03253 0.0465673 0)
(1.0627 0.0616829 0)
(1.09186 0.0761081 0)
(0.838661 0.0565656 0)
(0.216886 -0.00242816 0)
(1.07593 -0.0501162 0)
(1.09989 -0.048282 0)
(1.06466 -0.0404298 0)
(1.04007 -0.0335675 0)
(1.02395 -0.0260391 0)
(1.01414 -0.0184431 0)
(1.00857 -0.0116074 0)
(1.00558 -0.00572487 0)
(1.0043 -0.00029572 0)
(1.00465 0.00496175 0)
(1.00665 0.0103417 0)
(1.01064 0.0163925 0)
(1.01794 0.0234139 0)
(1.03053 0.0308744 0)
(1.05063 0.0378949 0)
(1.08038 0.0445731 0)
(1.10627 0.051379 0)
(0.942482 0.0416351 0)
(0.216101 0.00246355 0)
(0.175241 -0.000814438 0)
(1.01778 -0.035454 0)
(1.10524 -0.0413314 0)
(1.0783 -0.036006 0)
(1.05352 -0.0300632 0)
(1.03626 -0.0244749 0)
(1.02404 -0.0187259 0)
(1.01591 -0.0126225 0)
(1.01102 -0.00641335 0)
(1.00879 -6.142e-05 0)
(1.00936 0.00620863 0)
(1.01269 0.0121911 0)
(1.01889 0.017973 0)
(1.02874 0.0235406 0)
(1.04317 0.0288314 0)
(1.0637 0.034299 0)
(1.09356 0.040273 0)
(1.09338 0.0420183 0)
(0.826997 0.0229396 0)
(0.173917 0.000855708 0)
(0.154078 -0.000608009 0)
(0.956378 -0.0254156 0)
(1.10355 -0.0350554 0)
(1.08775 -0.0325624 0)
(1.06181 -0.027897 0)
(1.0442 -0.022854 0)
(1.03171 -0.017578 0)
(1.02284 -0.0120143 0)
(1.01699 -0.00604922 0)
(1.0141 0.000443489 0)
(1.01477 0.00692372 0)
(1.01882 0.0127855 0)
(1.0258 0.0180139 0)
(1.03604 0.0229202 0)
(1.05059 0.0276635 0)
(1.07183 0.0321717 0)
(1.10004 0.0360882 0)
(1.06795 0.0341173 0)
(0.73923 0.0143502 0)
(0.152078 0.000654943 0)
(0.139755 -0.000463821 0)
(0.899635 -0.019019 0)
(1.09596 -0.0299757 0)
(1.09587 -0.0290588 0)
(1.06939 -0.0253086 0)
(1.05095 -0.0211423 0)
(1.03799 -0.0163303 0)
(1.02885 -0.0110012 0)
(1.02269 -0.00521924 0)
(1.0195 0.00113882 0)
(1.02009 0.00747344 0)
(1.02426 0.0130799 0)
(1.03134 0.0179648 0)
(1.04178 0.0224153 0)
(1.05689 0.0263594 0)
(1.07909 0.029791 0)
(1.10217 0.0323909 0)
(1.0357 0.0282403 0)
(0.672445 0.0102603 0)
(0.136924 0.000517995 0)
(0.129276 -0.000357874 0)
(0.850263 -0.0146397 0)
(1.0837 -0.025807 0)
(1.10162 -0.0260599 0)
(1.07631 -0.0227476 0)
(1.05733 -0.019068 0)
(1.04391 -0.0147713 0)
(1.0344 -0.00979285 0)
(1.02798 -0.00421046 0)
(1.02458 0.00197779 0)
(1.02502 0.00810551 0)
(1.02913 0.0134288 0)
(1.0363 0.0178875 0)
(1.047 0.0217291 0)
(1.0625 0.0250014 0)
(1.08513 0.0279046 0)
(1.10117 0.0296217 0)
(1.00053 0.0237668 0)
(0.620319 0.007911 0)
(0.125432 0.000421626 0)
(0.121311 -0.000276509 0)
(0.808408 -0.0114618 0)
(1.06862 -0.0221542 0)
(1.10526 -0.0233634 0)
(1.08265 -0.0204545 0)
(1.06325 -0.0169787 0)
(1.04955 -0.0129757 0)
(1.03975 -0.00832074 0)
(1.03302 -0.00299653 0)
(1.02934 0.00298464 0)
(1.02958 0.00887183 0)
(1.03363 0.0138395 0)
(1.04083 0.0178103 0)
(1.05161 0.0211407 0)
(1.06731 0.0239938 0)
(1.09028 0.0265876 0)
(1.09723 0.0273923 0)
(0.964911 0.0202782 0)
(0.578286 0.00639471 0)
(0.116233 0.000352358 0)
(0.115173 -0.000212454 0)
(0.773305 -0.00907592 0)
(1.05213 -0.0189255 0)
(1.10778 -0.0208504 0)
(1.08862 -0.0183009 0)
(1.06883 -0.0149565 0)
(1.05489 -0.0110994 0)
(1.04487 -0.00663788 0)
(1.03788 -0.00153799 0)
(1.03388 0.00420399 0)
(1.03387 0.00980093 0)
(1.03778 0.0143839 0)
(1.04487 0.0179181 0)
(1.05561 0.0208571 0)
(1.07151 0.0233755 0)
(1.09411 0.0256114 0)
(1.09038 0.0255793 0)
(0.930104 0.0176114 0)
(0.54331 0.00536958 0)
(0.108597 0.000303167 0)
(0.110433 -0.000160558 0)
(0.744022 -0.00721434 0)
(1.0353 -0.0160488 0)
(1.1094 -0.0184638 0)
(1.09433 -0.0162061 0)
(1.07426 -0.0129376 0)
(1.06003 -0.0091507 0)
(1.04981 -0.00479002 0)
(1.04256 0.000156464 0)
(1.03824 0.00567409 0)
(1.03789 0.0109692 0)
(1.04156 0.0151825 0)
(1.04845 0.0183273 0)
(1.05912 0.0209178 0)
(1.07519 0.0231343 0)
(1.09662 0.0249761 0)
(1.08099 0.0241422 0)
(0.896646 0.0156181 0)
(0.51332 0.00466687 0)
(0.102035 0.000269382 0)
(0.106809 -0.000117018 0)
(0.719756 -0.00570233 0)
(1.01897 -0.013451 0)
(1.11025 -0.0161388 0)
(1.09997 -0.0141347 0)
(1.07964 -0.0108585 0)
(1.06511 -0.00707847 0)
(1.05464 -0.00275529 0)
(1.04711 0.00210117 0)
(1.04241 0.00744092 0)
(1.04164 0.0124621 0)
(1.04497 0.0163282 0)
(1.05161 0.0190996 0)
(1.06219 0.0213524 0)
(1.07841 0.0232885 0)
(1.0977 0.0246973 0)
(1.0694 0.0230828 0)
(0.864617 0.0141838 0)
(0.486835 0.00419693 0)
(0.0962017 0.000248006 0)
(0.104118 -7.88124e-05 0)
(0.69988 -0.00442285 0)
(1.00379 -0.0110627 0)
(1.11051 -0.0138377 0)
(1.1055 -0.0120003 0)
(1.08505 -0.00866308 0)
(1.07019 -0.00482679 0)
(1.05944 -0.000476294 0)
(1.05155 0.00435195 0)
(1.04639 0.00956832 0)
(1.04512 0.014353 0)
(1.04805 0.0178891 0)
(1.05438 0.0202933 0)
(1.06482 0.0222151 0)
(1.08116 0.0238717 0)
(1.09768 0.024933 0)
(1.05584 0.0224214 0)
(0.8338 0.0132271 0)
(0.46273 0.00390605 0)
(0.0908283 0.000236687 0)
(0.102247 -4.31991e-05 0)
(0.683941 -0.00328765 0)
(0.9902 -0.0088115 0)
(1.1104 -0.0114713 0)
(1.1109 -0.00971733 0)
(1.09059 -0.00628674 0)
(1.07537 -0.00232893 0)
(1.06427 0.00211943 0)
(1.05596 0.00698646 0)
(1.05024 0.012136 0)
(1.04836 0.0167208 0)
(1.0508 0.0199404 0)
(1.05676 0.0219771 0)
(1.06703 0.0235653 0)
(1.08337 0.0249228 0)
(1.09674 0.0255055 0)
(1.04042 0.0221682 0)
(0.803802 0.0126725 0)
(0.440105 0.00375574 0)
(0.0857035 0.000233268 0)
(0.101137 -7.84095e-06 0)
(0.671656 -0.00222586 0)
(0.978596 -0.00662068 0)
(1.11026 -0.00898139 0)
(1.11633 -0.00722347 0)
(1.09634 -0.00365082 0)
(1.08073 0.000498099 0)
(1.06922 0.0051187 0)
(1.0604 0.0100968 0)
(1.05399 0.0152392 0)
(1.05137 0.0196598 0)
(1.05322 0.0225735 0)
(1.05875 0.0242465 0)
(1.06881 0.025492 0)
(1.08512 0.0265501 0)
(1.09442 0.0265925 0)
(1.02312 0.0223327 0)
(0.774131 0.0124762 0)
(0.418223 0.00372208 0)
(0.0806588 0.000236478 0)
(0.100783 2.9272e-05 0)
(0.662892 -0.00118047 0)
(0.969303 -0.00441555 0)
(1.11043 -0.00630632 0)
(1.12193 -0.00444429 0)
(1.1024 -0.000665335 0)
(1.08637 0.00375078 0)
(1.07437 0.00862326 0)
(1.06492 0.013791 0)
(1.05769 0.0189913 0)
(1.05417 0.0232849 0)
(1.05533 0.025908 0)
(1.06035 0.027216 0)
(1.07014 0.0280962 0)
(1.08629 0.0288137 0)
(1.09062 0.028215 0)
(1.00383 0.0229619 0)
(0.744218 0.0126145 0)
(0.396448 0.00379184 0)
(0.0755505 0.000245575 0)
(0.101212 6.43206e-05 0)
(0.657651 -9.46194e-05 0)
(0.962637 -0.00211901 0)
(1.11127 -0.00337822 0)
(1.12788 -0.00129347 0)
(1.10887 0.00277274 0)
(1.09237 0.0075417 0)
(1.0798 0.0127545 0)
(1.06959 0.0181972 0)
(1.06137 0.0235253 0)
(1.05679 0.0277291 0)
(1.05711 0.0300796 0)
(1.06152 0.0310102 0)
(1.07097 0.0315043 0)
(1.0866 0.0318401 0)
(1.08502 0.0304679 0)
(0.982266 0.0240961 0)
(0.713424 0.0130723 0)
(0.374192 0.00395456 0)
(0.0702518 0.000259585 0)
(0.102489 0.000121176 0)
(0.656097 0.00108575 0)
(0.958929 0.000348513 0)
(1.11317 -0.000117045 0)
(1.13438 0.00233073 0)
(1.1159 0.00678489 0)
(1.09888 0.0120061 0)
(1.08561 0.0176609 0)
(1.07449 0.0234733 0)
(1.06508 0.0290016 0)
(1.05921 0.0331511 0)
(1.05854 0.0352393 0)
(1.06224 0.0357691 0)
(1.07127 0.0358553 0)
(1.08586 0.0357683 0)
(1.07733 0.0334402 0)
(0.958019 0.0257741 0)
(0.681037 0.0138376 0)
(0.350905 0.00419955 0)
(0.0646537 0.000277378 0)
(0.104754 0.000171278 0)
(0.65826 0.00224017 0)
(0.958554 0.00308015 0)
(1.1166 0.00358897 0)
(1.14167 0.00654796 0)
(1.12364 0.0115165 0)
(1.10602 0.0173077 0)
(1.09193 0.0235218 0)
(1.0797 0.0298076 0)
(1.06884 0.0356092 0)
(1.06145 0.0397295 0)
(1.05963 0.0415331 0)
(1.06245 0.0416559 0)
(1.07098 0.0413112 0)
(1.08388 0.040665 0)
(1.06719 0.0372384 0)
(0.930511 0.0280405 0)
(0.646288 0.0148984 0)
(0.326082 0.00451467 0)
(0.0586694 0.000297582 0)
(0.108171 0.000236902 0)
(0.664953 0.00372874 0)
(0.961825 0.00606099 0)
(1.12204 0.00786721 0)
(1.15 0.0114901 0)
(1.13229 0.017152 0)
(1.11397 0.0236537 0)
(1.09887 0.0305613 0)
(1.08528 0.0374312 0)
(1.07269 0.0435732 0)
(1.06349 0.0476724 0)
(1.06034 0.0491981 0)
(1.06212 0.0488645 0)
(1.07005 0.0480526 0)
(1.08065 0.0467612 0)
(1.05406 0.0419866 0)
(0.89898 0.030926 0)
(0.608349 0.0162279 0)
(0.299264 0.0048809 0)
(0.0522397 0.000318138 0)
(0.113005 0.000325887 0)
(0.676575 0.00549896 0)
(0.969331 0.00959233 0)
(1.12999 0.012891 0)
(1.15972 0.0173786 0)
(1.14208 0.0239349 0)
(1.12291 0.0313128 0)
(1.10657 0.0390645 0)
(1.09133 0.0466287 0)
(1.07665 0.0531603 0)
(1.0653 0.0572176 0)
(1.06057 0.0584616 0)
(1.06122 0.0576022 0)
(1.06842 0.0562833 0)
(1.07605 0.0542298 0)
(1.03723 0.0477866 0)
(0.862462 0.0344236 0)
(0.566355 0.0177694 0)
(0.27009 0.00526688 0)
(0.0453477 0.000336094 0)
(0.119627 0.000444493 0)
(0.693909 0.00771541 0)
(0.981906 0.0138993 0)
(1.14104 0.0188919 0)
(1.17124 0.0244882 0)
(1.15332 0.0321929 0)
(1.13307 0.0406426 0)
(1.11517 0.0493982 0)
(1.09787 0.0577505 0)
(1.08068 0.064678 0)
(1.06684 0.0686275 0)
(1.0602 0.0694809 0)
(1.05969 0.06808 0)
(1.06617 0.0661995 0)
(1.06972 0.0632554 0)
(1.01576 0.0546937 0)
(0.819788 0.0384652 0)
(0.51948 0.0194161 0)
(0.238367 0.00562486 0)
(0.0380391 0.00034762 0)
(0.128572 0.000610085 0)
(0.717961 0.0106059 0)
(1.00048 0.0192822 0)
(1.15585 0.0262247 0)
(1.18502 0.033201 0)
(1.16637 0.0423907 0)
(1.14469 0.052137 0)
(1.12478 0.0620472 0)
(1.10493 0.0712305 0)
(1.08472 0.0784787 0)
(1.068 0.082172 0)
(1.05922 0.0825112 0)
(1.05749 0.0804916 0)
(1.06293 0.0779659 0)
(1.06101 0.0738345 0)
(0.988367 0.0626993 0)
(0.769599 0.0428659 0)
(0.46706 0.020988 0)
(0.204185 0.00588856 0)
(0.0304422 0.00034827 0)
(0.140665 0.00085335 0)
(0.750128 0.0145669 0)
(1.02609 0.0261903 0)
(1.17522 0.0354399 0)
(1.20176 0.0441656 0)
(1.18162 0.0552216 0)
(1.15798 0.0664963 0)
(1.13544 0.077653 0)
(1.11239 0.0875927 0)
(1.08862 0.094948 0)
(1.06864 0.0981228 0)
(1.05757 0.0977745 0)
(1.05465 0.0950939 0)
(1.05836 0.0918692 0)
(1.04898 0.0861574 0)
(0.953364 0.0716103 0)
(0.710454 0.0472667 0)
(0.408819 0.0222165 0)
(0.168052 0.0059766 0)
(0.0227838 0.000333741 0)
(0.157242 0.00123418 0)
(0.792432 0.0202515 0)
(1.06043 0.0354231 0)
(1.20013 0.0475224 0)
(1.22232 0.0587547 0)
(1.19947 0.0717718 0)
(1.17303 0.0847281 0)
(1.14701 0.0970434 0)
(1.12002 0.107441 0)
(1.09212 0.114474 0)
(1.06855 0.116718 0)
(1.05509 0.115438 0)
(1.05109 0.111992 0)
(1.05244 0.108029 0)
(1.03228 0.100127 0)
(0.908582 0.080974 0)
(0.641082 0.0510842 0)
(0.345225 0.0227565 0)
(0.131021 0.00580823 0)
(0.0153882 0.00030114 0)
(0.180596 0.00189674 0)
(0.848142 0.0288494 0)
(1.10639 0.0485981 0)
(1.23165 0.0643014 0)
(1.24716 0.0785912 0)
(1.22004 0.0937437 0)
(1.18958 0.108217 0)
(1.15905 0.121212 0)
(1.12736 0.131409 0)
(1.09483 0.137407 0)
(1.06747 0.138134 0)
(1.0516 0.135591 0)
(1.04661 0.131237 0)
(1.04479 0.126282 0)
(1.0089 0.115366 0)
(0.851384 0.0899672 0)
(0.560954 0.053503 0)
(0.277971 0.0222541 0)
(0.0947522 0.00533013 0)
(0.00865232 0.000249452 0)
(0.214278 0.0033658 0)
(0.92317 0.043169 0)
(1.16696 0.0696752 0)
(1.27009 0.0892744 0)
(1.27619 0.106876 0)
(1.2427 0.123617 0)
(1.20681 0.138647 0)
(1.17076 0.151179 0)
(1.13373 0.160047 0)
(1.09627 0.163999 0)
(1.06508 0.162462 0)
(1.0469 0.158238 0)
(1.04106 0.152849 0)
(1.03444 0.146585 0)
(0.975865 0.131117 0)
(0.778934 0.0972564 0)
(0.47149 0.0536169 0)
(0.210648 0.0205448 0)
(0.0615498 0.00455655 0)
(0.00304075 0.000179193 0)
(0.260257 0.00992836 1.96741e-20)
(1.02123 0.0715299 1.66859e-20)
(1.23958 0.10559 -5.71214e-21)
(1.31278 0.126653 0)
(1.30637 0.147449 -1.33857e-34)
(1.26519 0.163843 1.92727e-21)
(1.2231 0.177585 -3.30014e-21)
(1.18106 0.18819 0)
(1.1384 0.194654 6.42962e-35)
(1.09578 0.195819 -3.75519e-21)
(1.0606 0.191647 0)
(1.04041 0.185877 -4.33051e-21)
(1.03455 0.180172 -1.26958e-20)
(1.01872 0.172522 -5.98079e-21)
(0.926409 0.148976 -1.78466e-21)
(0.6825 0.102558 -1.05596e-21)
(0.368368 0.0510316 0)
(0.14321 0.0179179 7.37248e-22)
(0.0315446 0.00360005 8.73128e-22)
(-0.00155732 5.83914e-05 1.59914e-20)
(0.292726 0.0258996 1.65165e-20)
(1.10305 0.116455 1.21933e-22)
(1.29951 0.156723 1.61845e-21)
(1.35198 0.177975 0)
(1.33326 0.198646 -7.06375e-21)
(1.28502 0.213064 -7.81357e-21)
(1.23688 0.224731 -3.39337e-21)
(1.18894 0.233183 -1.1532e-20)
(1.14062 0.23738 0)
(1.0927 0.236101 1.59247e-20)
(1.05329 0.229674 1.55332e-20)
(1.0302 0.222327 4.55073e-21)
(1.02144 0.216058 1.63803e-20)
(0.987659 0.203385 2.28435e-20)
(0.843099 0.166636 0)
(0.547818 0.104359 3.18859e-20)
(0.252382 0.0461848 4.56751e-20)
(0.0776499 0.0140522 5.081e-20)
(0.00448587 0.00158428 -5.8278e-20)
(-0.00543528 -0.000451538 -1.11267e-21)
(0.295283 0.0443579 0)
(1.15654 0.174384 3.35235e-21)
(1.34145 0.219243 0)
(1.38308 0.240507 -1.05916e-20)
(1.355 0.257796 0)
(1.30084 0.26835 -1.58381e-20)
(1.24708 0.276401 7.02095e-21)
(1.1936 0.281508 -2.3631e-20)
(1.14002 0.282522 -3.36877e-22)
(1.08724 0.278137 8.27515e-21)
(1.0441 0.269104 3.36928e-20)
(1.01848 0.259999 -2.13623e-23)
(1.00555 0.252104 -1.17954e-20)
(0.951212 0.232922 -2.11881e-20)
(0.760894 0.180603 2.49886e-20)
(0.4431 0.102759 -4.41297e-20)
(0.180977 0.0411142 -5.79313e-21)
(0.0418342 0.0103754 0)
(-0.00899911 -0.00062192 -3.02927e-24)
(-0.00711928 -0.00101262 0)
(0.289222 0.0597801 5.69882e-20)
(1.18714 0.23626 -2.56075e-20)
(1.36874 0.28668 -1.6978e-20)
(1.40436 0.308136 5.3094e-21)
(1.37 0.321246 -8.69416e-21)
(1.31146 0.327237 3.32852e-20)
(1.25317 0.330908 1.46918e-20)
(1.19503 0.331921 0)
(1.1369 0.32909 -4.24946e-20)
(1.07989 0.321076 0)
(1.0335 0.309117 -1.76564e-20)
(1.00566 0.298043 -2.13506e-20)
(0.987732 0.28749 -1.27014e-20)
(0.912869 0.260052 -1.52328e-20)
(0.687182 0.191617 0)
(0.366902 0.101078 0)
(0.135017 0.0373142 -3.73426e-20)
(0.0197315 0.00699341 7.36077e-21)
(-0.0171699 -0.00291108 -4.34945e-21)
(-0.00809592 -0.0015899 -5.15142e-21)
(0.281469 0.0732195 -3.18492e-20)
(1.20215 0.298101 0)
(1.38489 0.355133 3.90181e-20)
(1.41695 0.376942 1.5896e-20)
(1.3783 0.385964 1.92244e-20)
(1.31665 0.387351 0)
(1.25494 0.386482 1.48017e-20)
(1.19312 0.383134 2.62017e-20)
(1.13125 0.376128 2.19729e-20)
(1.07068 0.364172 3.81127e-20)
(1.02154 0.349087 0)
(0.991617 0.335835 -4.5605e-20)
(0.968186 0.321888 -2.71348e-20)
(0.874051 0.285143 -1.59685e-20)
(0.623303 0.200765 9.62712e-20)
(0.311304 0.0998703 1.13567e-20)
(0.103741 0.0341464 5.35019e-20)
(0.00457696 0.00365058 -2.52837e-19)
(-0.0228823 -0.00528538 1.49755e-19)
(-0.00878531 -0.00217329 -1.82813e-19)
(0.273597 0.0852416 -2.65812e-20)
(1.20687 0.357812 6.02853e-21)
(1.39274 0.422554 -5.30189e-21)
(1.42252 0.444992 -1.96381e-20)
(1.38085 0.450154 -1.82712e-20)
(1.31694 0.447075 3.5289e-22)
(1.25265 0.441757 -1.5886e-20)
(1.18793 0.43405 2.7222e-20)
(1.12307 0.422791 -4.68937e-20)
(1.05957 0.406774 0)
(1.00811 0.388479 -2.08374e-20)
(0.976303 0.372918 -3.04266e-22)
(0.947174 0.355031 -2.93724e-20)
(0.835857 0.308208 0)
(0.56866 0.208441 -2.06713e-20)
(0.269618 0.099036 -4.87192e-20)
(0.0808851 0.0312075 1.29287e-19)
(-0.00666165 0.000236884 -1.27311e-19)
(-0.0271664 -0.00771597 1.80969e-19)
(-0.00929211 -0.00275189 -1.90429e-19)
(0.266491 0.0961784 -1.21369e-22)
(1.2048 0.414573 -5.41609e-21)
(1.39444 0.487824 -2.03054e-20)
(1.42256 0.511146 9.48606e-21)
(1.37872 0.512771 -9.44624e-21)
(1.31316 0.505449 0)
(1.24686 0.495864 -1.56187e-20)
(1.17985 0.483915 -2.86032e-20)
(1.11254 0.468446 -2.45179e-20)
(1.04664 0.448364 0)
(0.993287 0.426833 -2.1552e-20)
(0.959798 0.408893 -2.6071e-20)
(0.925046 0.386678 3.15324e-20)
(0.798852 0.329219 -1.89046e-20)
(0.521872 0.214947 -8.88589e-20)
(0.237053 0.0983969 5.23352e-20)
(0.063019 0.0282708 1.54259e-20)
(-0.0155792 -0.00327936 0)
(-0.0305145 -0.0101616 -1.72679e-19)
(-0.00964521 -0.00330906 -6.39489e-21)
(0.260364 0.106376 -3.03573e-21)
(1.19823 0.468138 5.15219e-21)
(1.39149 0.550355 1.05246e-20)
(1.41826 0.574727 3.13019e-20)
(1.37285 0.573169 -3.78095e-20)
(1.30609 0.561906 3.60288e-20)
(1.23823 0.548292 3.33658e-20)
(1.16935 0.532272 -4.5611e-20)
(1.10002 0.512692 1.43362e-20)
(1.03213 0.488578 -9.22436e-20)
(0.977249 0.463819 -2.39143e-20)
(0.942298 0.443451 0)
(0.902139 0.416631 3.38835e-20)
(0.76323 0.348224 4.01576e-20)
(0.48136 0.220485 4.75878e-20)
(0.210431 0.0977574 -5.61556e-20)
(0.0481325 0.0252113 -1.65517e-20)
(-0.0231359 -0.00689064 1.95318e-20)
(-0.0332688 -0.0126024 0)
(-0.00987409 -0.00383302 -1.3713e-20)
(0.255153 0.115884 2.71846e-20)
(1.18892 0.518511 -1.94154e-20)
(1.38522 0.610199 -1.08163e-20)
(1.41065 0.63539 2.10915e-20)
(1.36406 0.630967 -1.88573e-20)
(1.29643 0.616079 -8.68356e-22)
(1.22734 0.598731 -3.6015e-20)
(1.15693 0.57886 -1.63662e-20)
(1.08589 0.555296 -4.21388e-20)
(1.01632 0.5272 1.85851e-23)
(0.960228 0.4992 -7.48578e-20)
(0.924045 0.476377 6.1427e-20)
(0.878764 0.444718 -3.66969e-20)
(0.729091 0.365256 4.35202e-20)
(0.445751 0.225113 0)
(0.187764 0.097037 -3.0125e-20)
(0.0349805 0.0220049 2.31683e-23)
(-0.0300395 -0.0106274 -8.3873e-20)
(-0.0357722 -0.0150656 -1.24096e-20)
(-0.0100082 -0.00431866 0)
(0.250853 0.124977 0)
(1.17794 0.565912 -1.99756e-20)
(1.37642 0.667132 -2.0624e-20)
(1.40054 0.692973 -2.14966e-20)
(1.35303 0.68597 -2.15284e-20)
(1.28478 0.667781 0)
(1.21472 0.647001 -1.75891e-20)
(1.14301 0.623528 -2.56638e-22)
(1.07049 0.596147 8.99584e-20)
(0.999481 0.564112 -1.27559e-20)
(0.942439 0.532831 -5.37418e-20)
(0.905264 0.507485 3.208e-20)
(0.855217 0.470814 -3.92848e-22)
(0.696437 0.380364 4.62469e-20)
(0.414043 0.228897 2.75805e-20)
(0.167816 0.0961688 -6.45514e-20)
(0.0228537 0.0186092 7.60695e-20)
(-0.0368414 -0.0145895 2.24764e-20)
(-0.0383992 -0.0176567 9.31655e-20)
(-0.0101353 -0.00479108 -2.52171e-19)
(0.24741 0.133821 4.45422e-21)
(1.16612 0.610512 -8.90296e-21)
(1.36581 0.720943 8.36361e-21)
(1.3886 0.747449 2.12182e-20)
(1.34037 0.738104 0)
(1.27166 0.71692 -1.91726e-20)
(1.20081 0.693016 5.77808e-20)
(1.12799 0.666209 3.6354e-20)
(1.05415 0.6352 0)
(0.981825 0.599269 -1.81221e-19)
(0.924031 0.564623 1.44269e-19)
(0.88609 0.536622 0)
(0.831716 0.494832 4.22152e-20)
(0.665413 0.393523 -2.91063e-22)
(0.385599 0.231891 -8.83103e-20)
(0.149925 0.0951084 3.45627e-20)
(0.0113243 0.0149362 0)
(-0.0438698 -0.0188918 1.2042e-19)
(-0.04146 -0.0205234 0)
(-0.0103625 -0.00530358 -1.18217e-19)
(0.244753 0.142426 -4.05953e-21)
(1.15401 0.652542 -7.78748e-21)
(1.35388 0.771704 9.34417e-21)
(1.37535 0.79885 0)
(1.32654 0.787384 -2.197e-20)
(1.25751 0.763495 0)
(1.186 0.736753 -5.92353e-20)
(1.11219 0.706887 -1.78908e-20)
(1.03711 0.672468 1.62983e-20)
(0.963534 0.6327 -8.95513e-20)
(0.905089 0.594539 1.50492e-20)
(0.866637 0.563675 0)
(0.808477 0.516611 -8.98292e-20)
(0.636096 0.404711 2.06394e-22)
(0.360122 0.234091 0)
(0.133771 0.0937258 1.96247e-23)
(0.000265151 0.0108121 1.0912e-19)
(-0.0512231 -0.0236878 -1.03135e-19)
(-0.0451377 -0.0238231 3.05351e-20)
(-0.010791 -0.00591839 0)
(0.242565 0.150772 0)
(1.14188 0.692212 -7.02479e-21)
(1.34111 0.819543 -8.00472e-21)
(1.36125 0.847264 -5.37042e-22)
(1.31195 0.83387 -1.02389e-20)
(1.24268 0.807542 -4.36281e-20)
(1.17061 0.778241 2.17093e-20)
(1.0959 0.745589 -2.02886e-20)
(1.01961 0.707997 7.16458e-20)
(0.94475 0.66448 -1.4335e-19)
(0.885655 0.622597 -7.37026e-22)
(0.846919 0.588531 -4.00109e-20)
(0.785597 0.535967 1.44791e-19)
(0.60864 0.413918 -3.06278e-22)
(0.337467 0.235479 -6.74777e-20)
(0.119128 0.0917904 -1.18992e-19)
(-0.0101738 0.00612846 0)
(-0.0586785 -0.0290724 0)
(-0.0493355 -0.0276374 3.26841e-20)
(-0.0114479 -0.00667963 -1.93675e-20)
(0.241028 0.159057 -2.93972e-21)
(1.12992 0.729631 1.35767e-20)
(1.32784 0.864585 8.55022e-21)
(1.34662 0.89279 0)
(1.29693 0.877642 -3.14657e-22)
(1.22749 0.849128 -4.39203e-20)
(1.15494 0.817534 5.5152e-20)
(1.07937 0.782366 8.28098e-20)
(1.00188 0.741863 9.42546e-20)
(0.925616 0.694726 -1.18077e-19)
(0.865745 0.648888 -1.23809e-19)
(0.826867 0.611108 1.06985e-19)
(0.763145 0.552721 0)
(0.583191 0.421047 -3.08179e-20)
(0.317586 0.236021 -7.22497e-20)
(0.106059 0.08929 -8.48891e-20)
(-0.0199086 0.000923415 -1.00013e-19)
(-0.0659643 -0.0349623 2.95479e-20)
(-0.0537222 -0.0318907 -1.74965e-20)
(-0.0122486 -0.00757278 3.48086e-24)
(0.239739 0.167116 0)
(1.11862 0.764718 0)
(1.31434 0.906951 5.13948e-22)
(1.33174 0.935544 0)
(1.28172 0.918813 3.22924e-20)
(1.21217 0.888344 3.32583e-20)
(1.13919 0.854702 0)
(1.06282 0.817284 1.03857e-20)
(0.984104 0.774147 1.59285e-19)
(0.906278 0.723582 -2.71762e-19)
(0.845358 0.673576 0)
(0.806327 0.63139 -6.89148e-20)
(0.741004 0.566615 -4.58703e-22)
(0.55986 0.425908 -2.31141e-22)
(0.30062 0.23571 7.72006e-20)
(0.094728 0.0867528 -9.98166e-24)
(-0.0292047 -0.00361381 -2.14081e-19)
(-0.0737456 -0.0403293 6.32296e-20)
(-0.0586936 -0.0363053 1.87312e-20)
(-0.0131689 -0.00856541 0)
(0.238712 0.17491 4.83202e-21)
(1.10774 0.798016 5.14623e-21)
(1.30073 0.94674 1.45263e-20)
(1.31683 0.975645 -3.86128e-20)
(1.26655 0.957476 5.45649e-20)
(1.19693 0.92528 0)
(1.12358 0.889827 3.58734e-20)
(1.04643 0.850419 -2.28091e-20)
(0.966454 0.804937 7.98127e-22)
(0.886881 0.7512 1.9862e-20)
(0.824506 0.696896 1.6187e-19)
(0.785084 0.649487 -2.43653e-20)
(0.718929 0.577417 -8.8866e-20)
(0.538738 0.428089 -3.5348e-20)
(0.287192 0.234264 4.1347e-20)
(0.0864407 0.0853701 -1.84788e-23)
(-0.0378177 -0.00446169 5.7255e-20)
(-0.0847148 -0.0433241 -1.35352e-19)
(-0.0676245 -0.0413039 1.60383e-19)
(-0.0150958 -0.0101018 2.37326e-20)
(0.237728 0.182447 -8.81277e-22)
(1.09732 0.829576 2.28721e-21)
(1.28722 0.9841 1.34124e-21)
(1.30206 1.01323 -1.83225e-20)
(1.25158 0.993758 -1.02822e-20)
(1.18193 0.960031 -6.19582e-20)
(1.10827 0.922991 1.16806e-20)
(1.03036 0.881838 -9.65202e-20)
(0.949098 0.8343 -1.79487e-19)
(0.867567 0.777707 -1.64429e-19)
(0.803234 0.719124 0)
(0.762894 0.665665 -1.06593e-19)
(0.69643 0.584978 1.27691e-19)
(0.519614 0.426794 0)
(0.278444 0.230289 -8.84132e-20)
(0.0851649 0.0842092 5.18277e-20)
(-0.0403344 -0.00207864 -6.11953e-20)
(-0.0982986 -0.0457972 -7.24058e-20)
(-0.0850658 -0.0497599 -1.28701e-19)
(-0.0203282 -0.0136659 -1.016e-19)
(0.237108 0.189809 7.12664e-23)
(1.08724 0.859432 -2.42652e-21)
(1.27391 1.01912 -8.06532e-21)
(1.28756 1.04841 -2.26885e-20)
(1.23694 1.02777 2.29639e-20)
(1.1673 0.992699 -3.79217e-20)
(1.09337 0.954268 3.82694e-20)
(1.01475 0.911622 -1.01454e-19)
(0.932164 0.862318 -1.07587e-19)
(0.848484 0.803224 1.74698e-19)
(0.781613 0.740539 3.60143e-19)
(0.739545 0.680352 0)
(0.67279 0.589377 0)
(0.501591 0.421083 -4.06081e-20)
(0.274523 0.221708 0)
(0.0929128 0.0782128 1.11033e-19)
(-0.0289349 -0.00715495 1.30871e-19)
(-0.10022 -0.0567364 0)
(-0.103438 -0.0649618 0)
(-0.0302045 -0.0207649 1.08952e-19)
(0.236378 0.196747 9.71069e-22)
(1.07755 0.887619 3.62555e-22)
(1.26091 1.05193 -5.43132e-21)
(1.27342 1.08133 1.72363e-20)
(1.22271 1.05963 2.31757e-20)
(1.15312 1.02337 4.49979e-20)
(1.07898 0.983736 -5.39826e-20)
(0.999695 0.939825 -3.17674e-22)
(0.915784 0.889045 -1.06111e-21)
(0.829777 0.827842 -5.07491e-22)
(0.759771 0.761403 1.86747e-19)
(0.714893 0.694076 0)
(0.647173 0.591092 1.3009e-19)
(0.482588 0.410466 8.74802e-20)
(0.272066 0.205274 2.0434e-19)
(0.10813 0.0571261 5.96522e-20)
(-0.00145739 -0.0343012 -7.01934e-20)
(-0.0680148 -0.0862482 -4.165e-20)
(-0.0872613 -0.0833858 0)
(-0.0356032 -0.0276822 1.17372e-19)
(0.23601 0.203702 -4.30331e-21)
(1.06825 0.914249 0)
(1.24824 1.08259 -3.96562e-21)
(1.25969 1.11208 1.29477e-20)
(1.209 1.08944 -2.26365e-20)
(1.13947 1.05215 -5.8476e-20)
(1.06519 1.01146 1.11608e-19)
(0.985285 0.966504 -7.64632e-21)
(0.900055 0.914528 0)
(0.81159 0.851615 -1.97656e-19)
(0.737878 0.781929 -4.12104e-19)
(0.688928 0.707433 1.62782e-20)
(0.618891 0.590977 1.81893e-19)
(0.460457 0.395621 0)
(0.266345 0.179827 1.38443e-19)
(0.120317 0.0184552 0)
(0.0284391 -0.0924655 0)
(-0.00901088 -0.145078 -4.47278e-20)
(0.00105539 -0.109396 0)
(0.0151498 -0.0089631 3.16109e-20)
(0.235417 0.210125 -6.54358e-21)
(1.05932 0.939659 0)
(1.2359 1.11133 -4.47852e-21)
(1.24634 1.14091 0)
(1.19575 1.11747 1.09054e-20)
(1.12631 1.07932 0)
(1.05195 1.03775 6.50941e-21)
(0.97144 0.991993 1.45755e-20)
(0.88488 0.939133 1.3826e-20)
(0.793782 0.874936 -2.20062e-19)
(0.715745 0.80265 1.27096e-20)
(0.661267 0.721403 1.31015e-19)
(0.587017 0.590296 1.78828e-19)
(0.432914 0.37758 2.33959e-20)
(0.252797 0.147622 1.09296e-19)
(0.119362 -0.0334084 0)
(0.0422359 -0.169793 1.4696e-19)
(0.0263173 -0.165031 -8.64515e-20)
(0.0175404 0.0219681 1.01984e-19)
(-0.0386642 0.468656 -1.21142e-19)
(0.234889 0.21639 6.44087e-21)
(1.05053 0.963702 6.46395e-21)
(1.22383 1.13847 0)
(1.23323 1.16827 9.7522e-22)
(1.1828 1.14431 -2.6563e-20)
(1.11335 1.10556 9.81384e-20)
(1.03894 1.0634 4.26282e-20)
(0.957743 1.01721 0)
(0.869719 0.963918 9.50854e-20)
(0.775666 0.89905 -1.18879e-20)
(0.692411 0.824946 0)
(0.630358 0.737433 0)
(0.548668 0.589821 1.62584e-19)
(0.396098 0.356313 -7.21876e-20)
(0.227775 0.110341 -1.12282e-19)
(0.10415 -0.0963532 0)
(0.0356954 -0.123556 7.46883e-20)
(-0.000787975 0.440888 -8.68615e-20)
(0.025464 1.96113 -4.94677e-20)
(0.0506893 2.84223 -6.04352e-20)
(0.234127 0.222171 -6.08246e-21)
(1.04198 0.986555 -1.05287e-20)
(1.21204 1.16401 -1.42778e-21)
(1.22038 1.19403 -6.74338e-21)
(1.17021 1.16977 0)
(1.10071 1.13062 6.62964e-20)
(1.02638 1.08811 6.36824e-20)
(0.944413 1.04175 -7.48386e-21)
(0.854891 0.988414 1.42144e-20)
(0.757691 0.923465 2.14511e-19)
(0.668582 0.848482 2.16169e-19)
(0.597203 0.756167 1.5248e-19)
(0.504097 0.591294 1.66418e-19)
(0.348895 0.3327 -1.73481e-19)
(0.194768 0.0758762 -1.72396e-19)
(0.0715104 -0.0262377 0)
(0.028964 0.9498 0)
(0.0724122 2.61351 4.24409e-20)
(0.0756841 3.22894 0)
(0.0784567 3.39507 1.12146e-19)
(0.236279 0.227694 0)
(1.03405 1.00864 0)
(1.20023 1.18783 0)
(1.20761 1.21805 -1.11215e-21)
(1.15764 1.1936 -2.29035e-20)
(1.08821 1.15433 4.60168e-20)
(1.01422 1.11178 4.3183e-20)
(0.931391 1.06549 -7.55683e-21)
(0.840344 1.01246 1.24466e-19)
(0.739873 0.948043 -1.26118e-21)
(0.644413 0.873181 4.35896e-19)
(0.562248 0.778162 -1.76558e-20)
(0.453309 0.597055 2.08573e-20)
(0.29045 0.307465 2.54663e-20)
(0.144211 0.0754478 -1.11329e-21)
(0.0662353 1.06881 3.11525e-22)
(0.102089 2.80053 -2.28298e-19)
(0.106487 3.30738 -8.63852e-20)
(0.101322 3.42352 4.67705e-20)
(0.0941739 3.44206 -5.36749e-20)
(0.157966 0.17211 4.69895e-21)
(1.02144 1.03267 0)
(1.18816 1.21016 -1.16278e-21)
(1.19537 1.24078 1.30528e-20)
(1.14555 1.21628 -3.87526e-20)
(1.07654 1.17719 -4.70449e-20)
(1.00224 1.13443 -4.78058e-20)
(0.918712 1.08848 9.44386e-20)
(0.826173 1.03614 -1.05299e-19)
(0.722487 0.972927 0)
(0.620323 0.899218 2.1997e-19)
(0.526129 0.803708 -1.28317e-19)
(0.402786 0.626357 0)
(0.22197 0.288293 2.56748e-20)
(0.0979071 0.664536 5.86755e-20)
(0.114677 2.62477 -6.55181e-20)
(0.158292 3.32723 7.44636e-20)
(0.146244 3.42776 4.09781e-20)
(0.123444 3.44634 4.64528e-20)
(0.106975 3.45526 7.68324e-20)
(0.270433 0.264377 -8.15705e-21)
(1.00148 1.04107 0)
(1.16792 1.23531 4.18299e-21)
(1.17967 1.27209 -8.67561e-21)
(1.12697 1.24968 3.4109e-20)
(1.0574 1.21084 4.23278e-20)
(0.981862 1.1695 5.97775e-20)
(0.897533 1.12456 7.30846e-21)
(0.80302 1.07404 1.06167e-19)
(0.695101 1.01426 1.9906e-19)
(0.584003 0.944828 1.2882e-20)
(0.469335 0.842814 1.18634e-19)
(0.305105 0.629799 2.08088e-20)
(0.180675 0.777034 -2.54146e-20)
(0.188357 2.52866 -5.58235e-20)
(0.239293 3.32272 5.69602e-20)
(0.222866 3.44445 -6.35476e-20)
(0.191423 3.46494 -3.65045e-20)
(0.160839 3.49014 -3.6345e-20)
(0.11782 3.48762 -5.1277e-21)
(0.259939 0.262826 0)
(0.997296 1.06317 3.47162e-21)
(1.15815 1.25858 -1.54732e-21)
(1.16771 1.29555 2.35014e-22)
(1.11503 1.27289 1.95247e-20)
(1.04543 1.23415 -3.9488e-20)
(0.969437 1.1929 -3.6943e-20)
(0.884606 1.14867 6.88722e-21)
(0.788957 1.09946 -1.14073e-19)
(0.678426 1.04233 -2.37875e-21)
(0.561574 0.977064 -4.15686e-19)
(0.434903 0.87473 1.70723e-20)
(0.269782 0.700868 -2.01551e-20)
(0.216059 1.51306 -2.40361e-20)
(0.283634 3.14973 3.50947e-21)
(0.293784 3.44112 -1.47617e-22)
(0.25582 3.48813 1.06492e-19)
(0.224162 3.51533 5.7284e-20)
(0.180009 3.53691 -2.5028e-20)
(0.132405 3.53559 -2.98869e-20)
(0.245366 0.260179 1.07837e-20)
(0.992109 1.08778 2.51501e-20)
(1.14795 1.28393 -4.42084e-21)
(1.15533 1.32064 1.22302e-21)
(1.10259 1.29758 0)
(1.03303 1.2588 -4.75895e-20)
(0.956868 1.21773 -5.04523e-20)
(0.871787 1.17419 6.43696e-21)
(0.775318 1.12648 -1.26172e-20)
(0.66275 1.07252 -1.9231e-19)
(0.54121 1.01237 -1.9809e-19)
(0.404288 0.908679 -1.44057e-19)
(0.267756 0.873484 -1.55495e-19)
(0.286464 2.35726 1.5759e-19)
(0.367942 3.36985 1.38027e-19)
(0.335589 3.49075 0)
(0.291082 3.5329 0)
(0.256009 3.56878 -2.09817e-20)
(0.216206 3.61309 0)
(0.148513 3.60233 -3.8467e-20)
(0.235017 0.261497 -1.79031e-20)
(0.984932 1.11311 -2.36842e-20)
(1.13629 1.31049 0)
(1.14163 1.34654 1.17763e-21)
(1.08885 1.32293 1.27284e-20)
(1.01948 1.28404 -6.33672e-20)
(0.943486 1.2432 -3.07048e-20)
(0.858389 1.20033 5.22367e-21)
(0.76136 1.15418 -8.92572e-20)
(0.647247 1.10358 1.02408e-20)
(0.522131 1.04885 0)
(0.374153 0.944155 0)
(0.289742 1.20868 -1.46038e-19)