/*--------------------------------*- C++ -*----------------------------------*\
  =========                 |
  \\      /  F ield         | OpenFOAM: The Open Source CFD Toolbox
   \\    /   O peration     | Website:  https://openfoam.org
    \\  /    A nd           | Version:  6
     \\/     M anipulation  |
\*---------------------------------------------------------------------------*/
FoamFile
{
    version     2.0;
    format      ascii;
    class       surfaceScalarField;
    location    "20";
    object      phi;
}
// * * * * * * * * * * * * * * * * * * * * * * * * * * * * * * * * * * * * * //

dimensions      [0 3 -1 0 0 0 0];

internalField   nonuniform List<scalar> 
17370
(
-0.0899996
0.0898474
0.289163
-0.0714601
0.0537493
0.364486
-0.0381155
0.0276846
0.426599
-0.0196278
0.0145896
0.50429
-0.0107449
0.00825925
0.601888
-0.00626984
0.00489797
0.720429
-0.00373156
0.00288361
0.863754
-0.00213486
0.00157717
1.03601
-0.00107178
0.000678624
1.2429
-0.000297561
-5.17717e-05
1.49154
0.000394959
-0.000782703
1.49158
0.00117602
-0.00167579
1.24319
0.00222826
-0.00297281
1.03638
0.00381665
-0.00497595
0.864066
0.00633921
-0.00832016
0.721038
0.0108005
-0.0146402
0.603054
0.0196737
-0.0277246
0.50749
0.0381499
-0.0537776
0.431796
0.0714827
-0.0898624
0.365155
0.0900084
0.199002
-0.128138
0.0882375
0.0399008
-0.364599
0.353385
-0.0746541
0.085868
-0.446476
0.454319
-0.0843588
0.0765156
-0.521196
0.529898
-0.0684201
0.0597182
-0.612783
0.621567
-0.0515396
0.0427563
-0.726852
0.734159
-0.0352695
0.0279632
-0.867427
0.872517
-0.0223454
0.0172549
-1.03845
1.04183
-0.0134925
0.0101152
-1.24462
1.24697
-0.00758091
0.00523147
-1.49268
1.49462
-0.00333699
0.00139569
-1.49247
1.49421
0.000304029
-0.00204348
-1.24402
1.24588
0.00394222
-0.00579971
-1.0375
1.04
0.00810872
-0.0106029
-0.86606
0.869789
0.0139395
-0.0176684
-0.724359
0.729946
0.0227232
-0.0283101
-0.608699
0.616154
0.0355818
-0.0430364
-0.51492
0.523072
0.0517869
-0.0599387
-0.439872
0.447946
0.0686131
-0.0766872
-0.375309
0.376787
0.0845045
-0.085982
-0.257362
0.222561
0.0747314
-0.0399306
-0.0685307
0.0587185
0.00981226
-0.0517284
0.0582895
-0.374127
0.367566
-0.0573564
0.0535941
-0.453574
0.457336
-0.0484955
0.0445365
-0.527903
0.531862
-0.0406948
0.0370652
-0.621548
0.625177
-0.0329805
0.0289287
-0.735333
0.739385
-0.0243882
0.020264
-0.874266
0.87839
-0.0160018
0.0123845
-1.0434
1.04702
-0.00875701
0.0056844
-1.24849
1.25156
-0.00246168
-0.000557846
-1.49659
1.49961
0.00355607
-0.00673694
-1.49717
1.50035
0.00977187
-0.013343
-1.25004
1.25362
0.0169003
-0.0210929
-1.04592
1.05011
0.0251505
-0.0296206
-0.877807
0.882277
0.0336138
-0.0376389
-0.739989
0.744014
0.0412159
-0.0450013
-0.626822
0.630607
0.048912
-0.0539644
-0.534842
0.539895
0.0576787
-0.0585544
-0.457538
0.458414
0.0519278
-0.0318478
-0.335883
0.315802
0.00984481
-0.0684383
0.0585935
-0.0529869
0.0490117
0.00397519
-0.0330325
0.0435445
-0.358169
0.347657
-0.0472283
0.046589
-0.459312
0.459951
-0.0435082
0.040115
-0.535806
0.539199
-0.0363002
0.0329806
-0.628474
0.631793
-0.0295573
0.0265606
-0.742533
0.74553
-0.0233804
0.0203712
-0.881845
0.884854
-0.016957
0.0136881
-1.05051
1.05378
-0.0100324
0.00661368
-1.2549
1.25832
-0.00279628
-0.000852515
-1.50309
1.50673
0.00448574
-0.00825547
-1.50395
1.50772
0.0115992
-0.0151607
-1.25725
1.26082
0.0183395
-0.0216503
-1.05386
1.05717
0.024565
-0.027643
-0.885735
0.888813
0.0305448
-0.0338665
-0.747284
0.750605
0.0370994
-0.0408306
-0.634469
0.6382
0.0441552
-0.0471601
-0.54431
0.547315
0.0477221
-0.0439333
-0.456804
0.453015
0.0333001
-0.0160337
-0.296588
0.279322
0.0040157
-0.0528262
0.0488105
-0.0459601
0.0435066
0.00245355
-0.0224948
0.0327361
-0.337039
0.326798
-0.038471
0.0394866
-0.45959
0.458574
-0.038356
0.0361759
-0.541828
0.544008
-0.0336121
0.0310705
-0.63481
0.637351
-0.028041
0.0251614
-0.748569
0.751448
-0.0219233
0.0189874
-0.887792
0.890728
-0.0157807
0.0128119
-1.05687
1.05984
-0.00945384
0.00623587
-1.26166
1.26488
-0.00250829
-0.00114923
-1.5104
1.51405
0.00478141
-0.00844259
-1.51147
1.51513
0.0115696
-0.0148027
-1.26422
1.26745
0.0176405
-0.0206971
-1.06029
1.06335
0.0234969
-0.02659
-0.891941
0.895034
0.0293471
-0.0322552
-0.753892
0.756801
0.0346924
-0.0371471
-0.641282
0.643737
0.0392382
-0.0402584
-0.549117
0.550137
0.0391316
-0.0332387
-0.447862
0.441969
0.0228272
-0.00993849
-0.264359
0.25147
0.00250194
-0.0457143
0.0432123
-0.0414767
0.0397691
0.00170768
-0.0162494
0.0252567
-0.31712
0.308113
-0.0316615
0.0336743
-0.457049
0.455036
-0.0331535
0.031414
-0.545956
0.547696
-0.0292256
0.0272001
-0.639546
0.641571
-0.0249371
0.022769
-0.753976
0.756144
-0.0202021
0.0176849
-0.893502
0.896019
-0.0147445
0.0119372
-1.06271
1.06552
-0.00870639
0.00561492
-1.26801
1.2711
-0.00200385
-0.00152497
-1.51767
1.5212
0.00501915
-0.00853144
-1.5187
1.52222
0.0114965
-0.014568
-1.27057
1.27365
0.0172162
-0.0199733
-1.06629
1.06904
0.0223172
-0.0246983
-0.897836
0.900217
0.0267075
-0.0288012
-0.759234
0.761328
0.0306857
-0.0327325
-0.645914
0.64796
0.034344
-0.0347106
-0.550795
0.551162
0.0325248
-0.0258895
-0.435624
0.428988
0.0166575
-0.00699632
-0.240325
0.230664
0.00176709
-0.0411285
0.0393614
-0.0383176
0.0370704
0.00124717
-0.0120436
0.0195993
-0.299827
0.292272
-0.0260485
0.0288648
-0.452573
0.449757
-0.0291051
0.0280674
-0.549115
0.550152
-0.02619
0.0243629
-0.643505
0.645332
-0.022276
0.0202935
-0.758154
0.760136
-0.0180048
0.0157723
-0.89833
0.900563
-0.0131307
0.0105438
-1.06823
1.07082
-0.00753294
0.00463337
-1.27413
1.27703
-0.00128482
-0.00195455
-1.5246
1.52784
0.00515655
-0.00838271
-1.52563
1.52885
0.0111245
-0.0139253
-1.27662
1.27942
0.0163016
-0.0187001
-1.0716
1.074
0.0207115
-0.0227647
-0.902337
0.90439
0.0245445
-0.0264198
-0.763291
0.765166
0.0280663
-0.029767
-0.649853
0.651553
0.0306189
-0.0301694
-0.551122
0.550672
0.0271187
-0.0203692
-0.422223
0.415473
0.0125351
-0.00518786
-0.222254
0.214907
0.00131853
-0.037845
0.0365265
-0.0360092
0.0351264
0.000882765
-0.00871047
0.0147154
-0.285481
0.279476
-0.0205899
0.0236775
-0.446734
0.443647
-0.0244294
0.023867
-0.550883
0.551445
-0.0223772
0.0208694
-0.646995
0.648503
-0.0191246
0.0173895
-0.762032
0.763767
-0.015372
0.0134127
-0.902709
0.904668
-0.0111397
0.00891051
-1.07325
1.07548
-0.00627676
0.00366508
-1.27978
1.28239
-0.000568031
-0.00250812
-1.53097
1.53404
0.00552943
-0.00846268
-1.53192
1.53485
0.0108587
-0.0132133
-1.28202
1.28437
0.0151656
-0.0171231
-1.07623
1.07818
0.0188001
-0.0205228
-0.906326
0.908049
0.0219916
-0.0234773
-0.766861
0.768347
0.0247611
-0.0260142
-0.653025
0.654278
0.0263459
-0.0253075
-0.549891
0.548853
0.0219055
-0.0156473
-0.408901
0.402643
0.00930369
-0.00380321
-0.208524
0.203024
0.000970001
-0.0353862
0.0344162
-0.0343936
0.0337765
0.000617056
-0.00615583
0.0107416
-0.274213
0.269628
-0.0157534
0.0187866
-0.44057
0.437537
-0.0198771
0.0195357
-0.551908
0.552249
-0.0183295
0.0169802
-0.649918
0.651267
-0.015413
0.0139379
-0.765361
0.766836
-0.0122355
0.0105783
-0.906446
0.908104
-0.00862943
0.00671329
-1.07751
1.07943
-0.00443832
0.00218225
-1.28483
1.28709
0.000508613
-0.00316027
-1.53697
1.53963
0.00574319
-0.00823951
-1.53759
1.54009
0.010241
-0.0121685
-1.28649
1.28842
0.013732
-0.015299
-1.07991
1.08147
0.0166102
-0.0179279
-0.909556
0.910874
0.0190543
-0.0202595
-0.769674
0.770879
0.0213105
-0.0222035
-0.655342
0.656235
0.0222407
-0.0207721
-0.547588
0.54612
0.0173412
-0.0118629
-0.396764
0.391286
0.00687227
-0.00279553
-0.198286
0.194209
0.000724664
-0.0335868
0.0328621
-0.0332696
0.032893
0.000376604
-0.00382076
0.00704868
-0.265709
0.262481
-0.0110537
0.0138528
-0.434595
0.431796
-0.0152176
0.0152182
-0.552439
0.552438
-0.0144313
0.0134164
-0.6525
0.653515
-0.0122374
0.0110987
-0.768156
0.769295
-0.00973179
0.00833809
-0.909631
0.911025
-0.00660882
0.00486533
-1.08127
1.08301
-0.00277495
0.000718579
-1.28921
1.29127
0.00167246
-0.0039636
-1.54203
1.54432
0.00617314
-0.00831714
-1.54236
1.54451
0.0100292
-0.0116731
-1.29022
1.29186
0.0129683
-0.0141596
-1.08287
1.08406
0.0150837
-0.0159809
-0.911962
0.91286
0.0167258
-0.0174987
-0.771924
0.772697
0.0181561
-0.0185338
-0.656926
0.657304
0.0181381
-0.0162808
-0.544461
0.542604
0.0129753
-0.00839787
-0.386236
0.381658
0.00468608
-0.00189147
-0.190769
0.187974
0.000509525
-0.0322376
0.0317281
-0.032653
0.0325393
0.000113681
-0.0016573
0.00356653
-0.259937
0.258028
-0.00643711
0.00885485
-0.429167
0.426749
-0.0104442
0.0109036
-0.552209
0.55175
-0.0107325
0.0101754
-0.654289
0.654846
-0.00933715
0.00841178
-0.770343
0.771268
-0.00724063
0.00599725
-0.912328
0.913571
-0.00449014
0.00295937
-1.08461
1.08614
-0.00110649
-0.000735492
-1.29322
1.29506
0.00291227
-0.00501698
-1.54653
1.54863
0.00701497
-0.00887469
-1.54652
1.54838
0.0102998
-0.0115953
-1.29332
1.29461
0.0125791
-0.013486
-1.08512
1.08603
0.0141705
-0.0147522
-0.913617
0.914199
0.0151188
-0.0153435
-0.773161
0.773386
0.0153892
-0.0150002
-0.657275
0.656886
0.0140182
-0.0118017
-0.540544
0.538327
0.00876884
-0.00521907
-0.377589
0.374039
0.00272853
-0.00105434
-0.185794
0.18412
0.000279502
-0.0313436
0.0310641
-0.0325166
0.0325606
-4.39669e-05
-0.000398481
0.00135906
-0.256649
0.255689
-0.00313086
0.00491691
-0.424605
0.422819
-0.00637075
0.00698523
-0.55116
0.550546
-0.00703969
0.00669351
-0.655275
0.655622
-0.00613664
0.00550658
-0.772075
0.772705
-0.0046319
0.00365492
-0.91472
0.915697
-0.00235795
0.000979217
-1.08759
1.08897
0.000710772
-0.00240029
-1.29679
1.29848
0.00440194
-0.00632801
-1.55062
1.55255
0.00810327
-0.00966147
-1.55008
1.55164
0.0107709
-0.0117128
-1.29577
1.29671
0.0123355
-0.0127647
-1.08672
1.08714
0.0129539
-0.0130272
-0.914505
0.914578
0.0130377
-0.0129883
-0.773426
0.773377
0.0127856
-0.0120645
-0.656286
0.655565
0.0108187
-0.00859808
-0.53606
0.533839
0.00605958
-0.00344758
-0.370992
0.36838
0.00175416
-0.000656644
-0.182813
0.181716
0.00016297
-0.0308649
0.030702
-0.0326433
0.0327462
-0.000102933
5.8935e-05
0.000451786
-0.255007
0.254496
-0.0014932
0.00260184
-0.421398
0.420289
-0.003541
0.00391028
-0.550054
0.549684
-0.00384649
0.00352215
-0.655935
0.656259
-0.00295463
0.00236121
-0.773328
0.773921
-0.00161903
0.00077225
-0.916581
0.917428
0.000360621
-0.00155845
-1.09021
1.0914
0.00303778
-0.00452854
-1.30004
1.30153
0.00627457
-0.00793078
-1.55434
1.556
0.00941466
-0.0106338
-1.55308
1.5543
0.0114246
-0.0120281
-1.29746
1.29807
0.0123639
-0.0124971
-1.08736
1.0875
0.0124539
-0.0122508
-0.914474
0.91427
0.0119871
-0.0116383
-0.773154
0.772805
0.0111764
-0.0103464
-0.654788
0.653958
0.0091337
-0.00721838
-0.531773
0.529857
0.0051661
-0.00306673
-0.366102
0.364003
0.00163373
-0.00063378
-0.180719
0.179719
0.000158028
-0.0305605
0.0304025
-0.0328551
0.0329769
-0.000121769
0.000267887
9.03545e-05
-0.254081
0.253723
-0.000904402
0.00174534
-0.419396
0.418556
-0.00236984
0.00250769
-0.549476
0.549339
-0.00221105
0.0016635
-0.656696
0.657244
-0.000982428
0.000308528
-0.774631
0.775305
0.00056036
-0.0014928
-0.9183
0.919233
0.00267802
-0.00389795
-1.0925
1.09372
0.00537582
-0.00682561
-1.30289
1.30434
0.00845494
-0.00989529
-1.55746
1.5589
0.0111223
-0.0120918
-1.55538
1.55635
0.0126778
-0.0130405
-1.29855
1.29891
0.0131721
-0.0131501
-1.0876
1.08758
0.0129845
-0.0127019
-0.91399
0.913708
0.0123725
-0.0118977
-0.77226
0.771785
0.0113781
-0.0105665
-0.65314
0.652328
0.00941781
-0.00757134
-0.528096
0.526249
0.00553159
-0.00337746
-0.361958
0.359804
0.00185849
-0.000757718
-0.178697
0.177596
0.000202905
-0.0302415
0.0300386
-0.0331112
0.0332591
-0.0001479
0.000523437
-0.000292293
-0.253419
0.253188
-0.000495005
0.00149651
-0.4177
0.416699
-0.0024221
0.0027166
-0.549195
0.548901
-0.00255353
0.0020667
-0.657812
0.658299
-0.00129943
0.00043
-0.776199
0.777069
0.00069114
-0.00193243
-0.92025
0.921492
0.00349859
-0.00508628
-1.09497
1.09656
0.00697449
-0.00877467
-1.30584
1.30764
0.0107609
-0.0124913
-1.56038
1.56211
0.0139443
-0.0151103
-1.55741
1.55858
0.0158112
-0.0162699
-1.29928
1.29974
0.0164203
-0.0163131
-1.08737
1.08727
0.0160798
-0.0157567
-0.913386
0.913063
0.0153359
-0.0147926
-0.771254
0.77071
0.0141672
-0.0129735
-0.651453
0.650259
0.0112567
-0.00871164
-0.524224
0.521679
0.0061783
-0.0037242
-0.357546
0.355091
0.00207871
-0.000887413
-0.176473
0.175282
0.000255567
-0.0298324
0.0295768
-0.0334315
0.0336317
-0.00020028
0.00105487
-0.00116595
-0.253142
0.253253
0.000616409
0.000463362
-0.415681
0.414601
-0.00190369
0.0028796
-0.548284
0.547308
-0.00315617
0.00301538
-0.658574
0.658714
-0.00239597
0.00152435
-0.778186
0.779058
-0.000140549
-0.00150908
-0.922892
0.924542
0.00366121
-0.00584982
-1.09829
1.10047
0.00840821
-0.0108195
-1.30964
1.31205
0.0134626
-0.0158106
-1.56409
1.56644
0.0178314
-0.0194808
-1.56
1.56165
0.0205439
-0.0213157
-1.30042
1.30119
0.0217588
-0.0219811
-1.08728
1.0875
0.0218834
-0.0213809
-0.912525
0.912022
0.0206875
-0.019665
-0.76992
0.768897
0.0181027
-0.0156859
-0.648559
0.646142
0.0128133
-0.00932332
-0.518745
0.515255
0.00638858
-0.00384115
-0.352641
0.350094
0.00219652
-0.000977904
-0.174121
0.172902
0.000295422
-0.0293284
0.029033
-0.0338832
0.0341646
-0.000281341
0.00170192
-0.00229326
-0.253564
0.254155
0.00237983
-0.0016866
-0.413758
0.413065
0.00023054
0.00117532
-0.54603
0.544624
-0.00218068
0.00228221
-0.65873
0.658628
-0.00183976
0.000976108
-0.780118
0.780982
0.000637195
-0.00268246
-0.926281
0.928326
0.00535304
-0.00802349
-1.10278
1.10545
0.0111113
-0.0139997
-1.31464
1.31753
0.0171521
-0.0199161
-1.56899
1.57175
0.0222777
-0.0241782
-1.56349
1.56539
0.0253691
-0.0262102
-1.30212
1.30296
0.0266239
-0.0266719
-1.08761
1.08766
0.0263161
-0.0256055
-0.911259
0.910548
0.0245475
-0.0226058
-0.76738
0.765438
0.0200066
-0.0165179
-0.643188
0.639699
0.0129522
-0.0091741
-0.511663
0.507885
0.00630785
-0.00392164
-0.347724
0.345338
0.00233299
-0.00107588
-0.171731
0.170474
0.000333129
-0.028749
0.0284159
-0.0345214
0.0349145
-0.000393017
0.00246897
-0.00358992
-0.254998
0.256119
0.004447
-0.00461538
-0.412906
0.413075
0.00392883
-0.00292571
-0.54343
0.542427
0.00191647
-0.00150442
-0.658245
0.657833
0.00193481
-0.00307307
-0.782064
0.783202
0.00504297
-0.00728317
-0.930375
0.932615
0.0100981
-0.0128921
-1.10807
1.11086
0.0161098
-0.0190848
-1.3204
1.32337
0.0222643
-0.0249502
-1.57447
1.57715
0.0270953
-0.0286691
-1.56718
1.56875
0.0294853
-0.029858
-1.3037
1.30407
0.0297827
-0.0293339
-1.08738
1.08693
0.0286048
-0.0273176
-0.9095
0.908213
0.0254722
-0.0227615
-0.762948
0.760237
0.0197314
-0.0159996
-0.636052
0.63232
0.0125371
-0.00908618
-0.504403
0.500952
0.00650637
-0.00425958
-0.343175
0.340928
0.00263181
-0.00124199
-0.169239
0.167849
0.000388279
-0.028096
0.0277077
-0.0353968
0.0359355
-0.000538723
0.00339593
-0.00507351
-0.257579
0.259257
0.00672287
-0.00777033
-0.41373
0.414777
0.00821449
-0.0082076
-0.542165
0.542158
0.00814538
-0.00838498
-0.657743
0.657983
0.0092533
-0.0106261
-0.784318
0.785691
0.0126511
-0.014863
-0.934607
0.936819
0.017605
-0.0203018
-1.11346
1.11615
0.0233629
-0.0261224
-1.32614
1.3289
0.0289434
-0.0311494
-1.57955
1.58176
0.0326951
-0.033543
-1.56997
1.57082
0.033653
-0.0331666
-1.3041
1.30361
0.0323301
-0.0310734
-1.086
1.08474
0.0295586
-0.0274187
-0.906291
0.904151
0.0251016
-0.0221856
-0.75725
0.754334
0.0192218
-0.0158077
-0.628789
0.625375
0.0127546
-0.0096931
-0.497942
0.494881
0.00726749
-0.00494417
-0.338858
0.336534
0.00311641
-0.00148296
-0.166447
0.164814
0.000462988
-0.0273344
0.0268714
-0.0365662
0.0372666
-0.000700418
0.00442147
-0.00667943
-0.261274
0.263532
0.00906848
-0.0109247
-0.416304
0.418161
0.0123789
-0.0133713
-0.543019
0.544012
0.0143836
-0.0155379
-0.658783
0.659938
0.0172127
-0.0191007
-0.787058
0.788947
0.0215081
-0.0239415
-0.938858
0.941291
0.0268013
-0.0294918
-1.11863
1.12132
0.0324086
-0.0348948
-1.33139
1.33387
0.0372319
-0.038796
-1.58357
1.58513
0.0395411
-0.0394408
-1.57119
1.57109
0.0386758
-0.0372749
-1.30269
1.30129
0.0356325
-0.0334663
-1.08288
1.08071
0.0311934
-0.0285059
-0.901557
0.89887
0.0259037
-0.0229224
-0.751217
0.748236
0.020099
-0.0169669
-0.622188
0.619056
0.0141542
-0.0111898
-0.4922
0.489236
0.00863546
-0.00599567
-0.334316
0.331677
0.00382122
-0.00182324
-0.163133
0.161135
0.00056867
-0.0264225
0.0258539
-0.0380757
0.039021
-0.000945381
0.0058619
-0.00885155
-0.266169
0.269159
0.0120829
-0.0147344
-0.420583
0.423235
0.0170918
-0.0189602
-0.54588
0.547748
0.0209628
-0.0230472
-0.661656
0.66374
0.0256484
-0.0282636
-0.790894
0.79351
0.0313292
-0.0342248
-0.943625
0.94652
0.0374266
-0.0402719
-1.12384
1.12669
0.0431757
-0.0454678
-1.3361
1.33839
0.0473668
-0.0482913
-1.58627
1.5872
0.0482197
-0.047139
-1.57044
1.56936
0.0454826
-0.0431473
-1.2994
1.29706
0.0406626
-0.0376788
-1.07804
1.07506
0.0348212
-0.0316402
-0.895756
0.892575
0.0287331
-0.0255785
-0.744962
0.741808
0.0227105
-0.0195738
-0.615992
0.612855
0.0166877
-0.0134776
-0.486545
0.483334
0.0105477
-0.00738824
-0.329103
0.325944
0.00472028
-0.00225002
-0.15908
0.15661
0.000699942
-0.0253078
0.0246079
-0.0400626
0.0413544
-0.00129171
0.0078702
-0.0118304
-0.272539
0.2765
0.0160808
-0.0195702
-0.426541
0.430031
0.022782
-0.0254686
-0.550625
0.553312
0.0284564
-0.031485
-0.666409
0.669438
0.0351206
-0.0386211
-0.796207
0.799708
0.0425471
-0.0460981
-0.949386
0.952937
0.0498543
-0.0530318
-1.12945
1.13262
0.056079
-0.058274
-1.34045
1.34265
0.0597878
-0.0600893
-1.58769
1.58799
0.0592058
-0.057167
-1.56774
1.5657
0.0546164
-0.0513157
-1.29421
1.29091
0.0480013
-0.0442088
-1.07159
1.0678
0.0407159
-0.0369491
-0.888899
0.885132
0.0336114
-0.0300896
-0.738201
0.734679
0.0269487
-0.0235221
-0.609583
0.606156
0.0202961
-0.016575
-0.48031
0.476589
0.0130338
-0.00915752
-0.322828
0.318952
0.00585344
-0.00278193
-0.154086
0.151015
0.000861203
-0.0239474
0.0230862
-0.0427292
0.0445274
-0.00179821
0.0107487
-0.0160111
-0.280849
0.286111
0.0215297
-0.0259853
-0.434452
0.438908
0.0301512
-0.0337555
-0.557303
0.560908
0.0378697
-0.0419892
-0.673094
0.677214
0.0468169
-0.0513368
-0.803276
0.807796
0.056263
-0.0605941
-0.956471
0.960802
0.065024
-0.0686114
-1.13571
1.1393
0.0718407
-0.0739332
-1.34459
1.34669
0.0750201
-0.0746357
-1.58783
1.58744
0.0728669
-0.069792
-1.56309
1.56001
0.0662873
-0.0619642
-1.28706
1.28274
0.0577726
-0.0530897
-1.06348
1.0588
0.0488547
-0.0443573
-0.880767
0.87627
0.0404292
-0.0363372
-0.730519
0.726427
0.0327174
-0.0287609
-0.602374
0.598417
0.0249725
-0.0205154
-0.472943
0.468486
0.016173
-0.0113085
-0.315151
0.310287
0.00716868
-0.0033685
-0.147938
0.144137
0.00102811
-0.0222866
0.0212585
-0.0463881
0.0490164
-0.00262832
0.0151948
-0.0222698
-0.291812
0.298887
0.0294237
-0.0350667
-0.444829
0.450472
0.0403895
-0.0451166
-0.566206
0.570933
0.0506371
-0.0560774
-0.681972
0.687412
0.0622941
-0.06795
-0.812351
0.818007
0.073943
-0.0790507
-0.965085
0.970193
0.0840892
-0.0879853
-1.14272
1.14661
0.0912598
-0.0931084
-1.34844
1.35029
0.0935982
-0.0923622
-1.5865
1.58526
0.0895522
-0.0852927
-1.55628
1.55202
0.0807177
-0.0752614
-1.27781
1.27236
0.0700904
-0.0643941
-1.05353
1.04783
0.0592913
-0.0539087
-0.871064
0.865682
0.0492341
-0.0443874
-0.721509
0.716663
0.0401119
-0.0354196
-0.593885
0.589193
0.0308603
-0.0254098
-0.463995
0.458544
0.0200271
-0.013967
-0.305579
0.299519
0.00879953
-0.00409816
-0.140375
0.135674
0.00123651
-0.0202965
0.01906
-0.0516145
0.0557057
-0.00409121
0.0224908
-0.0321864
-0.306578
0.316274
0.0415724
-0.048845
-0.458538
0.46581
0.0556727
-0.0618727
-0.577895
0.584095
0.0691837
-0.0761383
-0.69346
0.700415
0.0837955
-0.090516
-0.823625
0.830345
0.097397
-0.103054
-0.975147
0.980804
0.108394
-0.112287
-1.15017
1.15407
0.115245
-0.116519
-1.3516
1.35287
0.116058
-0.113673
-1.58328
1.58089
0.109568
-0.10391
-1.54697
1.54131
0.0981077
-0.0913735
-1.26621
1.25948
0.085102
-0.0782665
-1.04147
1.03463
0.0721827
-0.0657847
-0.859488
0.85309
0.0602376
-0.0544937
-0.710806
0.705062
0.0494275
-0.0438223
-0.583664
0.578059
0.0382982
-0.0315832
-0.452934
0.446219
0.0248805
-0.0173009
-0.293658
0.286079
0.0108263
-0.00497831
-0.131095
0.125247
0.00147376
-0.0179179
0.0164442
-0.059524
0.0667137
-0.00718972
0.035847
-0.0497421
-0.327333
0.341228
0.0623839
-0.071607
-0.476826
0.48605
0.0800818
-0.0879666
-0.593156
0.601041
0.0971293
-0.105449
-0.707738
0.716057
0.11417
-0.121492
-0.836816
0.844138
0.128685
-0.134318
-0.986049
0.991682
0.139328
-0.142622
-1.15732
1.16061
0.144645
-0.14479
-1.3533
1.35344
0.142866
-0.138904
-1.57751
1.57355
0.133168
-0.125853
-1.53469
1.52738
0.118639
-0.110482
-1.25196
1.2438
0.102998
-0.0949275
-1.02706
1.01899
0.0877909
-0.0803183
-0.845801
0.838328
0.0738456
-0.0671379
-0.698115
0.691407
0.0612072
-0.0545668
-0.571325
0.564684
0.0478016
-0.0394584
-0.43913
0.430787
0.0310581
-0.0215567
-0.278658
0.269157
0.0134077
-0.00608096
-0.119731
0.112404
0.00172752
-0.0151166
0.0133891
-0.0736444
0.0772385
-0.00359412
0.0258474
-0.038005
-0.358191
0.370349
0.0490539
-0.0577407
-0.500447
0.509134
0.0665893
-0.0761434
-0.611813
0.621367
0.0869327
-0.0965654
-0.723848
0.733481
0.107259
-0.116678
-0.850628
0.860047
0.126455
-0.134823
-0.996379
1.00475
0.143128
-0.149754
-1.16281
1.16943
0.155628
-0.159421
-1.35237
1.35616
0.161372
-0.160612
-1.56829
1.56753
0.157008
-0.150975
-1.51891
1.51288
0.143932
-0.135042
-1.23475
1.22586
0.126405
-0.116095
-1.01014
0.999826
0.106715
-0.0965006
-0.829924
0.819709
0.0874726
-0.0779644
-0.683339
0.673831
0.0692163
-0.0597045
-0.55644
0.546928
0.0503302
-0.0386529
-0.421827
0.410149
0.0278656
-0.0170672
-0.259609
0.24881
0.00906953
-0.00330016
-0.105658
0.0998888
0.000602104
-0.0119051
0.011303
-0.0846415
0.0818484
0.00279313
0.0039062
-0.0110042
-0.385435
0.392533
0.019239
-0.0261002
-0.522448
0.529309
0.0343553
-0.0426844
-0.631924
0.640253
0.0524283
-0.061319
-0.7429
0.751791
0.0707593
-0.0792882
-0.868985
0.877514
0.0881625
-0.0954756
-1.01283
1.02014
0.102951
-0.108583
-1.17591
1.18154
0.113514
-0.116385
-1.35968
1.36255
0.117164
-0.115479
-1.56589
1.56421
0.111094
-0.104415
-1.50594
1.49926
0.0967327
-0.087344
-1.21638
1.20699
0.0783392
-0.0681057
-0.989122
0.978888
0.0585722
-0.0480816
-0.808434
0.797943
0.0387856
-0.0294108
-0.661789
0.652414
0.0214922
-0.0134295
-0.534327
0.526264
0.00648246
-0.000338974
-0.397721
0.391578
-0.00323885
0.00490471
-0.237147
0.235481
-0.00478983
0.00310834
-0.0930516
0.0947331
-0.0013589
-0.00971584
0.0110747
-0.0846529
0.0814609
0.00319196
-0.00414047
0.00070768
-0.403145
0.406577
0.00430777
-0.00951418
-0.540091
0.545297
0.0164045
-0.023661
-0.649241
0.656497
0.0320278
-0.0396551
-0.760055
0.767682
0.0479562
-0.0553233
-0.885388
0.892755
0.0627743
-0.0692958
-1.0273
1.03382
0.0758105
-0.0808424
-1.1868
1.19183
0.0848663
-0.0870081
-1.36487
1.36701
0.0874425
-0.0854444
-1.56196
1.55997
0.0809413
-0.0743916
-1.49209
1.48554
0.0670997
-0.0585058
-1.19762
1.18902
0.0500013
-0.0406628
-0.968473
0.959135
0.032015
-0.022578
-0.787643
0.778206
0.0144402
-0.00617184
-0.641843
0.633575
-0.000577731
0.0071291
-0.515778
0.509227
-0.0116368
0.0142413
-0.383176
0.380571
-0.0142314
0.0117764
-0.23046
0.232915
-0.00856469
0.0046722
-0.0945585
0.098451
-0.001677
-0.0110674
0.0127444
-0.0827689
0.0797004
0.00306847
-0.00716904
0.00587374
-0.41424
0.415535
-0.00280301
-0.001339
-0.553751
0.557893
0.00736483
-0.0134151
-0.663713
0.669764
0.0205386
-0.0270719
-0.774965
0.781499
0.0341587
-0.0404758
-0.89972
0.906037
0.0472565
-0.0528316
-1.03998
1.04555
0.0586041
-0.062671
-1.19653
1.2006
0.0662583
-0.068168
-1.36905
1.37096
0.0683939
-0.0662712
-1.55776
1.55564
0.062276
-0.0565085
-1.47875
1.47298
0.0500794
-0.042244
-1.18054
1.1727
0.034895
-0.0269162
-0.949878
0.9419
0.0194635
-0.0116947
-0.76911
0.761342
0.0046841
0.00220474
-0.624502
0.617613
-0.00774967
0.0125975
-0.500913
0.496065
-0.0155836
0.0168289
-0.374326
0.37308
-0.0157249
0.0121353
-0.231054
0.234644
-0.00857815
0.00442692
-0.100137
0.104288
-0.00150936
-0.0131917
0.0147011
-0.0808358
0.0782732
0.00256261
-0.00768847
0.00767409
-0.421473
0.421487
-0.00532413
0.00208196
-0.56502
0.568262
0.0028313
-0.00826211
-0.675992
0.681423
0.0142697
-0.0200529
-0.787606
0.79339
0.0262433
-0.0317902
-0.912048
0.917594
0.037701
-0.0427689
-1.05108
1.05615
0.0477809
-0.0516717
-1.20463
1.20852
0.0549118
-0.0566686
-1.37264
1.3744
0.0569516
-0.0551128
-1.55357
1.55173
0.0516511
-0.0464836
-1.46687
1.4617
0.0409273
-0.0343208
-1.16521
1.1586
0.0280766
-0.0212118
-0.934046
0.927181
0.0150633
-0.00858624
-0.753685
0.747208
0.00299719
0.00253592
-0.61041
0.604877
-0.00678503
0.0103207
-0.489503
0.485967
-0.0124674
0.0130045
-0.368564
0.368027
-0.0116652
0.00875399
-0.233505
0.236416
-0.00601643
0.00301561
-0.105371
0.108372
-0.00106099
-0.0150306
0.0160916
-0.0792675
0.0771419
0.00212559
-0.00714033
0.00734851
-0.426309
0.426101
-0.00600415
0.00321672
-0.573887
0.576674
0.00141832
-0.00605535
-0.686535
0.691172
0.0112721
-0.016351
-0.79863
0.803709
0.0219217
-0.0269596
-0.92293
0.927968
0.0324748
-0.0370327
-1.06104
1.0656
0.0417002
-0.0453696
-1.21225
1.21592
0.0484223
-0.0501428
-1.37604
1.37776
0.0505246
-0.049349
-1.54999
1.54881
0.0463341
-0.0419741
-1.45633
1.45197
0.0371246
-0.0313922
-1.15211
1.14638
0.0262337
-0.0202738
-0.920524
0.914564
0.0150442
-0.00974556
-0.740957
0.735658
0.00515786
-0.000661371
-0.59928
0.594783
-0.00278781
0.00574535
-0.480907
0.47795
-0.00719782
0.00756033
-0.364509
0.364146
-0.00687718
0.00500989
-0.234811
0.236678
-0.00331476
0.00170461
-0.10841
0.110021
-0.000630863
-0.0160401
0.016671
-0.0781859
0.0765626
0.00162334
-0.00595286
0.00629711
-0.429914
0.429569
-0.00502938
0.00282309
-0.581798
0.584004
0.00136054
-0.00555281
-0.695789
0.699981
0.0105528
-0.0150061
-0.808591
0.813044
0.0199821
-0.0245364
-0.933091
0.937645
0.0298676
-0.0341209
-1.07027
1.07452
0.0384191
-0.0420431
-1.21951
1.22313
0.0454444
-0.0472247
-1.37962
1.3814
0.0479298
-0.0470058
-1.54739
1.54646
0.0447235
-0.0406928
-1.44754
1.44351
0.0365746
-0.0316759
-1.14065
1.13575
0.0270497
-0.0220044
-0.908819
0.903773
0.0173869
-0.0125797
-0.730271
0.725464
0.00878925
-0.00477451
-0.590008
0.585993
0.00161927
0.000904225
-0.473746
0.471223
-0.00245775
0.0032718
-0.361029
0.360215
-0.00316426
0.00240231
-0.23462
0.235382
-0.00167066
0.000953449
-0.109155
0.109872
-0.000429887
-0.0162812
0.0167111
-0.0776784
0.07642
0.0012584
-0.00470332
0.00507853
-0.432853
0.432478
-0.00381304
0.00158443
-0.58874
0.590968
0.00227241
-0.00605743
-0.704185
0.70797
0.0104143
-0.0147516
-0.817597
0.821934
0.0194224
-0.0241684
-0.942114
0.94686
0.0288636
-0.0330156
-1.07895
1.0831
0.0375393
-0.0410535
-1.22673
1.23024
0.0441433
-0.0464781
-1.38318
1.38552
0.0475658
-0.0471161
-1.54569
1.54524
0.0451866
-0.0418906
-1.43975
1.43645
0.0382084
-0.0337218
-1.13057
1.12608
0.0295464
-0.0248986
-0.898588
0.89394
0.0206712
-0.016388
-0.720719
0.716436
0.0125899
-0.0089081
-0.581665
0.577984
0.00602776
-0.00337603
-0.467472
0.46482
0.00161664
-0.000660201
-0.357013
0.356057
7.29767e-05
0.000244247
-0.232863
0.232546
-0.000419692
0.000410156
-0.108262
0.108271
-0.000293584
-0.0161017
0.0163953
-0.0777319
0.076681
0.00105083
-0.00332906
0.00345482
-0.435638
0.435513
-0.00231969
1.36488e-05
-0.595143
0.597449
0.00352151
-0.00719012
-0.712062
0.71573
0.0114028
-0.0153912
-0.826203
0.830192
0.0202213
-0.0242494
-0.951132
0.95516
0.0289765
-0.0330245
-1.08748
1.09153
0.0375233
-0.0413131
-1.23381
1.2376
0.0447917
-0.0470342
-1.3877
1.38994
0.048596
-0.0486528
-1.54478
1.54484
0.047436
-0.0444717
-1.43306
1.43009
0.0411806
-0.0370031
-1.12165
1.11747
0.0330938
-0.0286213
-0.888981
0.884509
0.0246879
-0.0204634
-0.711877
0.707653
0.0167869
-0.0130868
-0.573933
0.570233
0.0100455
-0.00744012
-0.461129
0.458523
0.0053537
-0.00387738
-0.352447
0.350971
0.00262203
-0.00151481
-0.229701
0.228594
0.000644084
3.06295e-05
-0.106117
0.105442
-0.000208895
-0.0155522
0.0157611
-0.078067
0.0773241
0.000742914
-0.00215724
0.00180952
-0.438622
0.43897
-0.000797264
-0.00159653
-0.600852
0.603246
0.00480879
-0.00836517
-0.719456
0.723012
0.0124336
-0.0165713
-0.834158
0.838296
0.0208462
-0.0250702
-0.959469
0.963693
0.0298043
-0.0336977
-1.09605
1.09994
0.0383522
-0.0421691
-1.24127
1.24508
0.0457855
-0.0486348
-1.39265
1.3955
0.0507514
-0.0511596
-1.54497
1.54537
0.0502145
-0.0479317
-1.42726
1.42497
0.0451161
-0.0411813
-1.1131
1.10917
0.0373563
-0.033174
-0.879833
0.875651
0.0289582
-0.0248908
-0.70307
0.699002
0.0212009
-0.0173558
-0.566358
0.562513
0.0143083
-0.011303
-0.45462
0.451615
0.00893026
-0.00674773
-0.347296
0.345113
0.00501475
-0.00320454
-0.225311
0.223501
0.00162428
-0.000404217
-0.102987
0.101767
-9.66322e-05
-0.014743
0.0148396
-0.0787905
0.0781934
0.00059704
-0.00118716
0.000848306
-0.441853
0.442191
0.000735445
-0.00292309
-0.606666
0.608853
0.00627849
-0.00970988
-0.72639
0.729821
0.0136391
-0.0174103
-0.842208
0.845979
0.0218333
-0.0257816
-0.967982
0.971931
0.0304991
-0.0348549
-1.10432
1.10868
0.0392064
-0.0433899
-1.249
1.25318
0.0474838
-0.0504976
-1.39831
1.40132
0.0530683
-0.0543088
-1.54604
1.54728
0.0538316
-0.0521125
-1.42253
1.42081
0.0494056
-0.0457607
-1.10515
1.1015
0.0421471
-0.03788
-0.870946
0.866679
0.0337746
-0.0295503
-0.694319
0.690095
0.0257554
-0.0216846
-0.558327
0.554256
0.0183275
-0.0150847
-0.447706
0.444463
0.0121729
-0.009467
-0.341094
0.338388
0.00714299
-0.00470878
-0.219685
0.217251
0.00264765
-0.000929273
-0.0990241
0.0973057
8.8057e-05
-0.0137789
0.0136909
-0.0797606
0.0793246
0.000436061
-0.00014612
-0.00042549
-0.445247
0.445819
0.00188446
-0.00428769
-0.612085
0.614488
0.00754663
-0.0108228
-0.733092
0.736369
0.0148373
-0.0184793
-0.849804
0.853446
0.0227703
-0.0268535
-0.976394
0.980478
0.0315039
-0.0358498
-1.11294
1.11728
0.0404481
-0.0446983
-1.25734
1.26159
0.0490298
-0.0528301
-1.40467
1.40847
0.0559043
-0.0574927
-1.54851
1.5501
0.0577192
-0.0563296
-1.41897
1.41758
0.0541221
-0.0508812
-1.0977
1.09446
0.0471852
-0.0429305
-0.862029
0.857775
0.0387836
-0.0342824
-0.685381
0.68088
0.0304029
-0.0260715
-0.550087
0.545756
0.0225042
-0.0187698
-0.440268
0.436534
0.0155623
-0.0123027
-0.333952
0.330693
0.00926387
-0.00618852
-0.212938
0.209863
0.00362187
-0.00142849