/*--------------------------------*- C++ -*----------------------------------*\
  =========                 |
  \\      /  F ield         | OpenFOAM: The Open Source CFD Toolbox
   \\    /   O peration     | Website:  https://openfoam.org
    \\  /    A nd           | Version:  6
     \\/     M anipulation  |
\*---------------------------------------------------------------------------*/
FoamFile
{
    version     2.0;
    format      ascii;
    class       volVectorField;
    location    "20";
    object      U;
}
// * * * * * * * * * * * * * * * * * * * * * * * * * * * * * * * * * * * * * //

dimensions      [0 1 -1 0 0 0 0];

internalField   nonuniform List<vector> 
8800
(
(0.987185 -0.0766639 0)
(1.00189 -0.0551871 0)
(0.999758 -0.0285455 0)
(1.00004 -0.0151328 0)
(1.00006 -0.00852777 0)
(1.00005 -0.0050452 0)
(1.00004 -0.00299789 0)
(1.00004 -0.00168437 0)
(1.00004 -0.000800882 0)
(1.00004 -0.000126427 0)
(1.00004 0.000537276 0)
(1.00004 0.00129232 0)
(1.00004 0.00235281 0)
(1.00005 0.00397756 0)
(1.00005 0.00660198 0)
(1.00006 0.0113329 0)
(0.99998 0.020787 0)
(0.999174 0.0386503 0)
(1.00708 0.0724475 0)
(0.771215 0.0366582 0)
(0.3631 -0.0160134 0)
(1.04333 -0.0767963 0)
(1.08462 -0.0704216 0)
(1.04525 -0.0535234 0)
(1.0233 -0.038902 0)
(1.01191 -0.0261855 0)
(1.00625 -0.0167782 0)
(1.0035 -0.01029 0)
(1.00211 -0.00573516 0)
(1.00142 -0.0021965 0)
(1.00129 0.00107667 0)
(1.00169 0.00438622 0)
(1.00266 0.0082617 0)
(1.00458 0.0135978 0)
(1.00855 0.0213692 0)
(1.01663 0.0324372 0)
(1.03262 0.0463741 0)
(1.06278 0.061505 0)
(1.09193 0.075972 0)
(0.83886 0.0565111 0)
(0.216918 -0.00242077 0)
(1.07595 -0.0500569 0)
(1.09986 -0.0482042 0)
(1.06452 -0.040336 0)
(1.03985 -0.0334905 0)
(1.02369 -0.0260412 0)
(1.01384 -0.0185137 0)
(1.00824 -0.0117926 0)
(1.00534 -0.00603496 0)
(1.0042 -0.000776956 0)
(1.00452 0.00429713 0)
(1.00641 0.00966789 0)
(1.01044 0.0157706 0)
(1.01789 0.0228357 0)
(1.03055 0.0303275 0)
(1.05069 0.0373689 0)
(1.08048 0.0441227 0)
(1.10651 0.0510173 0)
(0.943077 0.0414535 0)
(0.216544 0.00243732 0)
(0.17536 -0.000803766 0)
(1.01794 -0.0353698 0)
(1.10538 -0.0412379 0)
(1.07837 -0.0358701 0)
(1.05324 -0.0298661 0)
(1.03576 -0.0242845 0)
(1.02356 -0.0187362 0)
(1.01558 -0.0129244 0)
(1.01094 -0.00690737 0)
(1.00893 -0.000765199 0)
(1.00951 0.00530529 0)
(1.01265 0.0112326 0)
(1.01874 0.0170031 0)
(1.02865 0.0224998 0)
(1.04326 0.0278331 0)
(1.06409 0.0334442 0)
(1.09413 0.0395791 0)
(1.09416 0.0414914 0)
(0.828546 0.0226783 0)
(0.174736 0.000822849 0)
(0.154359 -0.000589662 0)
(0.956861 -0.0251469 0)
(1.10344 -0.0346747 0)
(1.08745 -0.0322951 0)
(1.06148 -0.0278013 0)
(1.04379 -0.0228247 0)
(1.03135 -0.017619 0)
(1.02254 -0.0122875 0)
(1.01674 -0.00668808 0)
(1.01398 -0.000545662 0)
(1.01475 0.0056249 0)
(1.01885 0.0112986 0)
(1.02598 0.0165061 0)
(1.03633 0.0215276 0)
(1.05105 0.0264161 0)
(1.07233 0.0309823 0)
(1.10065 0.0348793 0)
(1.06946 0.0331384 0)
(0.742431 0.0139202 0)
(0.153428 0.00061078 0)
(0.140314 -0.000440966 0)
(0.901 -0.0185597 0)
(1.09615 -0.0292461 0)
(1.09541 -0.0281515 0)
(1.06861 -0.0244063 0)
(1.05011 -0.020559 0)
(1.03722 -0.0162676 0)
(1.02815 -0.0114205 0)
(1.02217 -0.00613153 0)
(1.01923 -0.000199845 0)
(1.01996 0.00581549 0)
(1.02414 0.0111783 0)
(1.03136 0.0159612 0)
(1.04204 0.0202175 0)
(1.05727 0.0239698 0)
(1.07967 0.0274371 0)
(1.10342 0.0303696 0)
(1.03894 0.0267976 0)
(0.678122 0.00964454 0)
(0.13901 0.000465612 0)
(0.130247 -0.000327577 0)
(0.853166 -0.0139172 0)
(1.08428 -0.0247067 0)
(1.10119 -0.0249807 0)
(1.0753 -0.0218631 0)
(1.05586 -0.0184455 0)
(1.04238 -0.0145895 0)
(1.03297 -0.0101528 0)
(1.02671 -0.00515313 0)
(1.02355 0.000322507 0)
(1.02425 0.00576031 0)
(1.0285 0.0107232 0)
(1.03592 0.0150699 0)
(1.04695 0.0188127 0)
(1.06295 0.0220576 0)
(1.08617 0.0250137 0)
(1.10328 0.0268799 0)
(1.00637 0.021718 0)
(0.629579 0.00706179 0)
(0.128493 0.00035657 0)
(0.122932 -0.000229597 0)
(0.814033 -0.0101401 0)
(1.06972 -0.0200159 0)
(1.10393 -0.0211586 0)
(1.08059 -0.0186885 0)
(1.06079 -0.0157724 0)
(1.04688 -0.0124552 0)
(1.03709 -0.00868105 0)
(1.0306 -0.00427173 0)
(1.02737 0.000851338 0)
(1.0279 0.00600776 0)
(1.0321 0.0103882 0)
(1.03968 0.0139698 0)
(1.05106 0.0169915 0)
(1.06743 0.0196458 0)
(1.09083 0.0220198 0)
(1.10005 0.0229998 0)
(0.974793 0.0170792 0)
(0.592801 0.0051231 0)
(0.120631 0.000264597 0)
(0.117821 -0.00015986 0)
(0.783634 -0.00720494 0)
(1.05494 -0.0156732 0)
(1.10591 -0.0173156 0)
(1.08558 -0.0152708 0)
(1.06578 -0.0126915 0)
(1.05197 -0.0098524 0)
(1.0421 -0.00662609 0)
(1.03533 -0.00288312 0)
(1.0318 0.00157593 0)
(1.03227 0.0060593 0)
(1.03656 0.00968594 0)
(1.04414 0.0125437 0)
(1.05535 0.0149387 0)
(1.07149 0.0169859 0)
(1.09457 0.0189342 0)
(1.09505 0.0192633 0)
(0.946513 0.0131841 0)
(0.565423 0.00371521 0)
(0.114849 0.000202955 0)
(0.114356 -9.2895e-05 0)
(0.761122 -0.00451763 0)
(1.04086 -0.0113267 0)
(1.10665 -0.0134384 0)
(1.08954 -0.0120296 0)
(1.06902 -0.0101119 0)
(1.05476 -0.0078478 0)
(1.04494 -0.0049841 0)
(1.03845 -0.00150899 0)
(1.03501 0.00244447 0)
(1.03515 0.00624502 0)
(1.03889 0.00938163 0)
(1.04604 0.0117586 0)
(1.05727 0.0134611 0)
(1.07413 0.0147935 0)
(1.09681 0.0159991 0)
(1.08842 0.0154865 0)
(0.92231 0.00953663 0)
(0.545652 0.00246381 0)
(0.110561 0.000146118 0)
(0.112722 -1.33641e-05 0)
(0.746482 -0.00205007 0)
(1.02824 -0.00693688 0)
(1.10571 -0.00948501 0)
(1.09208 -0.0090992 0)
(1.07197 -0.00768908 0)
(1.0579 -0.00575564 0)
(1.04799 -0.00325256 0)
(1.04116 -0.000197185 0)
(1.03734 0.00341519 0)
(1.03732 0.00687968 0)
(1.04107 0.00950235 0)
(1.04819 0.0113022 0)
(1.05915 0.0125385 0)
(1.07546 0.0132398 0)
(1.09669 0.0132639 0)
(1.08014 0.0116356 0)
(0.902741 0.00608972 0)
(0.533078 0.0013833 0)
(0.107913 7.89604e-05 0)
(0.112563 3.27227e-05 0)
(0.738513 -0.000606407 0)
(1.01792 -0.00360953 0)
(1.10335 -0.00597991 0)
(1.09358 -0.00599791 0)
(1.0743 -0.00506431 0)
(1.06071 -0.00366695 0)
(1.05117 -0.00147376 0)
(1.04463 0.00131262 0)
(1.04082 0.00461363 0)
(1.04035 0.0077034 0)
(1.04343 0.0097454 0)
(1.04974 0.0109242 0)
(1.05996 0.0112858 0)
(1.07566 0.0112874 0)
(1.09467 0.0108917 0)
(1.07099 0.00869742 0)
(0.888008 0.00404504 0)
(0.525471 0.000897084 0)
(0.106499 4.55447e-05 0)
(0.113121 5.41943e-05 0)
(0.734551 -7.60535e-05 0)
(1.01104 -0.00183537 0)
(1.1013 -0.00337002 0)
(1.09453 -0.00327673 0)
(1.07582 -0.00230333 0)
(1.06245 -0.00107768 0)
(1.05312 0.000769042 0)
(1.04646 0.00322693 0)
(1.04246 0.00611137 0)
(1.04154 0.00869964 0)
(1.04407 0.0101813 0)
(1.04994 0.0108077 0)
(1.05962 0.010706 0)
(1.075 0.0102557 0)
(1.09198 0.00944422 0)
(1.06257 0.00725458 0)
(0.876929 0.00351937 0)
(0.519623 0.000877252 0)
(0.105464 4.76654e-05 0)
(0.113877 5.74593e-05 0)
(0.732138 0.000156703 0)
(1.0067 -0.00122081 0)
(1.10045 -0.00222669 0)
(1.096 -0.00167091 0)
(1.07786 -0.000590742 0)
(1.06473 0.000856844 0)
(1.05566 0.00279895 0)
(1.04916 0.00523267 0)
(1.04492 0.00790445 0)
(1.04338 0.010054 0)
(1.04518 0.0111606 0)
(1.05025 0.0114307 0)
(1.059 0.0111597 0)
(1.0736 0.0105662 0)
(1.0892 0.00956492 0)
(1.05533 0.00753138 0)
(0.86691 0.0038358 0)
(0.513586 0.00102675 0)
(0.104271 6.75905e-05 0)
(0.114788 6.79938e-05 0)
(0.730326 0.000461685 0)
(1.00249 -0.000912307 0)
(1.09988 -0.00237597 0)
(1.09794 -0.00203646 0)
(1.08018 -0.000799029 0)
(1.06709 0.00110819 0)
(1.05806 0.00366699 0)
(1.05146 0.00676442 0)
(1.04672 0.0100169 0)
(1.04455 0.0125701 0)
(1.04557 0.013912 0)
(1.0498 0.0142406 0)
(1.05825 0.0138014 0)
(1.07219 0.0130767 0)
(1.08623 0.011923 0)
(1.04696 0.00882808 0)
(0.855795 0.00421192 0)
(0.506923 0.00117539 0)
(0.102743 9.11096e-05 0)
(0.115954 8.70864e-05 0)
(0.73002 0.00111137 0)
(0.997439 0.000108493 0)
(1.0975 -0.00232963 0)
(1.09892 -0.00266577 0)
(1.08312 -0.00179427 0)
(1.07053 0.000511873 0)
(1.06169 0.00407548 0)
(1.05491 0.00826115 0)
(1.04954 0.0126136 0)
(1.04654 0.0161338 0)
(1.04667 0.0181426 0)
(1.04996 0.0189758 0)
(1.05716 0.0188214 0)
(1.07003 0.0175813 0)
(1.08043 0.0149428 0)
(1.0349 0.00967821 0)
(0.843705 0.00429126 0)
(0.499999 0.00128043 0)
(0.100912 0.000109795 0)
(0.117631 0.000115559 0)
(0.731729 0.00179081 0)
(0.993123 0.00185739 0)
(1.09245 -0.000540688 0)
(1.09912 -0.00207316 0)
(1.08581 -0.00134097 0)
(1.07471 0.00133501 0)
(1.06632 0.00573255 0)
(1.05915 0.0108005 0)
(1.05298 0.0159737 0)
(1.04898 0.020069 0)
(1.04808 0.0223773 0)
(1.05023 0.0231737 0)
(1.05554 0.0225456 0)
(1.0659 0.0206474 0)
(1.07045 0.0160668 0)
(1.0202 0.00957207 0)
(0.83198 0.0042899 0)
(0.492995 0.00140482 0)
(0.0988277 0.000126673 0)
(0.12003 0.000157109 0)
(0.736468 0.00267836 0)
(0.992069 0.00415593 0)
(1.08746 0.0028986 0)
(1.09813 0.00128731 0)
(1.08868 0.00197969 0)
(1.07965 0.00525735 0)
(1.07151 0.0098754 0)
(1.06381 0.0151445 0)
(1.05661 0.0203429 0)
(1.05136 0.0241046 0)
(1.04918 0.0257226 0)
(1.04977 0.0256441 0)
(1.05328 0.0243717 0)
(1.0591 0.0210747 0)
(1.05817 0.0156138 0)
(1.00587 0.00929923 0)
(0.821164 0.00456639 0)
(0.485561 0.00162379 0)
(0.0964565 0.000149047 0)
(0.123341 0.000215095 0)
(0.744823 0.00372411 0)
(0.994894 0.00636516 0)
(1.08587 0.00707648 0)
(1.09782 0.00705375 0)
(1.09204 0.00852093 0)
(1.08457 0.0118227 0)
(1.07667 0.0163136 0)
(1.06834 0.0213049 0)
(1.05984 0.0258973 0)
(1.05295 0.028634 0)
(1.04912 0.0289728 0)
(1.048 0.0275035 0)
(1.04893 0.0248049 0)
(1.05094 0.0206085 0)
(1.04628 0.0152468 0)
(0.993326 0.00966642 0)
(0.810685 0.00524064 0)
(0.477083 0.00194302 0)
(0.0936727 0.000178347 0)
(0.127708 0.000280252 0)
(0.756434 0.00484006 0)
(1.00181 0.00875113 0)
(1.08861 0.0111502 0)
(1.10038 0.0128555 0)
(1.09623 0.0156636 0)
(1.08966 0.0195962 0)
(1.08172 0.0242631 0)
(1.07248 0.0289925 0)
(1.06231 0.0327719 0)
(1.05344 0.0341437 0)
(1.04756 0.0329131 0)
(1.04444 0.0300051 0)
(1.04307 0.0259248 0)
(1.04248 0.0212183 0)
(1.03558 0.0160928 0)
(0.981998 0.0109564 0)
(0.799354 0.00632443 0)
(0.466887 0.00239262 0)
(0.0903061 0.000218768 0)
(0.133427 0.000379537 0)
(0.771742 0.00641219 0)
(1.01283 0.0116895 0)
(1.0952 0.0156118 0)
(1.10602 0.0189765 0)
(1.10211 0.023295 0)
(1.09552 0.028306 0)
(1.08688 0.0335159 0)
(1.07621 0.0382022 0)
(1.0639 0.0412536 0)
(1.05259 0.0412349 0)
(1.04451 0.0383861 0)
(1.03933 0.0339759 0)
(1.03604 0.0288236 0)
(1.03367 0.0235587 0)
(1.02536 0.0183392 0)
(0.970534 0.0130789 0)
(0.78611 0.00777299 0)
(0.454367 0.00295734 0)
(0.0861849 0.000268389 0)
(0.141007 0.000521412 0)
(0.791629 0.00859742 0)
(1.02789 0.0155186 0)
(1.10554 0.0208827 0)
(1.11478 0.0259079 0)
(1.1101 0.0318889 0)
(1.10252 0.038292 0)
(1.09239 0.044395 0)
(1.07962 0.0493142 0)
(1.0646 0.0517369 0)
(1.05042 0.0503404 0)
(1.03992 0.045884 0)
(1.0327 0.0399574 0)
(1.02775 0.033656 0)
(1.02405 0.0276067 0)
(1.01459 0.0218796 0)
(0.957729 0.0160041 0)
(0.770008 0.00964997 0)
(0.438932 0.00365722 0)
(0.081164 0.000329498 0)
(0.151212 0.000730408 0)
(0.817294 0.0117191 0)
(1.04764 0.0206454 0)
(1.11983 0.0276229 0)
(1.1269 0.0345454 0)
(1.12062 0.0424428 0)
(1.11111 0.0504714 0)
(1.09856 0.0576839 0)
(1.08285 0.0629181 0)
(1.06441 0.0646627 0)
(1.0469 0.0617586 0)
(1.03373 0.0555657 0)
(1.02442 0.0480309 0)
(1.01791 0.0403774 0)
(1.01301 0.0332544 0)
(1.00235 0.0266468 0)
(0.942578 0.0197536 0)
(0.750546 0.0119641 0)
(0.420199 0.00445471 0)
(0.0751334 0.000389081 0)
(0.165319 0.00107549 0)
(0.850774 0.0164746 0)
(1.07335 0.0279605 0)
(1.13867 0.0368457 0)
(1.14285 0.0461803 0)
(1.13403 0.0562892 0)
(1.12151 0.0660765 0)
(1.10543 0.0743253 0)
(1.08582 0.0796811 0)
(1.06322 0.0804785 0)
(1.04193 0.0757755 0)
(1.02583 0.0676098 0)
(1.01433 0.0582703 0)
(1.00617 0.0490296 0)
(1.00002 0.0405432 0)
(0.987879 0.0327252 0)
(0.924205 0.0244418 0)
(0.726813 0.0148075 0)
(0.397508 0.00544612 0)
(0.0679544 0.000463593 0)
(0.185536 0.00169991 0)
(0.895438 0.0240861 0)
(1.1073 0.0390872 0)
(1.16327 0.0503714 0)
(1.16314 0.0628739 0)
(1.15028 0.0753293 0)
(1.13334 0.086639 0)
(1.11253 0.0954605 0)
(1.0881 0.100357 0)
(1.0607 0.0996118 0)
(1.03526 0.0926345 0)
(1.01603 0.0821829 0)
(1.00219 0.0708088 0)
(0.992227 0.0597634 0)
(0.984622 0.0496798 0)
(0.970501 0.0403795 0)
(0.901636 0.0303364 0)
(0.697691 0.0183891 0)
(0.370147 0.00666765 0)
(0.0595121 0.000543946 0)
(0.215204 0.00309014 0)
(0.956928 0.0374285 0)
(1.15161 0.0577286 0)
(1.19491 0.0720451 0)
(1.1877 0.0877281 0)
(1.16878 0.10202 0)
(1.14584 0.113929 0)
(1.11914 0.122252 0)
(1.08908 0.125616 0)
(1.0564 0.122415 0)
(1.02657 0.112532 0)
(1.00408 0.0994432 0)
(0.987782 0.0858354 0)
(0.975848 0.0728514 0)
(0.96647 0.0610538 0)
(0.949686 0.0501474 0)
(0.873818 0.0378374 0)
(0.662052 0.0229254 0)
(0.33814 0.00824768 0)
(0.0500873 0.00062169 0)
(0.256383 0.00961389 -2.29917e-21)
(1.03927 0.0648108 -1.71467e-21)
(1.2043 0.090316 4.57543e-22)
(1.23121 0.107745 0)
(1.21404 0.124698 -1.45821e-36)
(1.18755 0.138783 5.3526e-23)
(1.15753 0.149561 -2.91838e-22)
(1.12421 0.155986 0)
(1.08797 0.156796 1.03116e-35)
(1.04949 0.15045 -7.7072e-22)
(1.01477 0.137315 0)
(0.988553 0.121481 -1.09492e-21)
(0.969294 0.105644 -3.3452e-21)
(0.954846 0.0908359 -1.61778e-21)
(0.942997 0.0775606 -5.08712e-22)
(0.922655 0.0653519 -3.08062e-22)
(0.837948 0.0506264 0)
(0.616613 0.0312286 2.21496e-22)
(0.300426 0.0125829 2.6321e-22)
(0.0413102 0.00152313 4.72299e-21)
(0.282821 0.0257055 -4.52837e-21)
(1.1065 0.108892 1.03399e-22)
(1.24905 0.138177 -2.4566e-22)
(1.26375 0.156888 0)
(1.23757 0.172255 3.11338e-22)
(1.20376 0.184574 1.06698e-22)
(1.16674 0.193446 -2.03234e-22)
(1.12665 0.197767 -1.37135e-21)
(1.08383 0.196106 0)
(1.03876 0.186878 3.26895e-21)
(0.997981 0.170851 3.59461e-21)
(0.966704 0.152671 1.15219e-21)
(0.943186 0.135019 4.53238e-21)
(0.924975 0.118646 6.66075e-21)
(0.909312 0.104089 0)
(0.883147 0.0904085 9.89465e-21)
(0.792543 0.073028 1.44788e-20)
(0.570054 0.048515 1.62345e-20)
(0.272632 0.0229285 -1.87834e-20)
(0.0364805 0.00310752 -3.51057e-22)
(0.280644 0.0422732 0)
(1.14644 0.165852 -1.42507e-21)
(1.28163 0.197799 0)
(1.28901 0.215962 2.17112e-21)
(1.25605 0.227772 0)
(1.21587 0.236682 9.23221e-22)
(1.17253 0.242309 2.61505e-22)
(1.12618 0.243461 -2.11255e-21)
(1.07717 0.238657 -3.13822e-22)
(1.02598 0.2262 1.59403e-21)
(0.979659 0.207279 8.3741e-21)
(0.943814 0.187064 -5.9556e-23)
(0.916489 0.16815 -3.40483e-21)
(0.894969 0.15109 -6.59586e-21)
(0.876325 0.13598 7.99687e-21)
(0.848213 0.121818 -1.43879e-20)
(0.76299 0.102099 -1.97387e-21)
(0.556591 0.0729561 0)
(0.280372 0.0374475 1.89841e-23)
(0.0418718 0.0058926 0)
(0.271972 0.0562071 -3.63496e-20)
(1.16566 0.226146 1.48072e-20)
(1.30282 0.263175 7.79281e-21)
(1.30562 0.279773 -1.45251e-21)
(1.26791 0.287681 2.20372e-21)
(1.22293 0.292591 -2.3049e-21)
(1.17451 0.294381 3.77165e-22)
(1.12292 0.291786 0)
(1.06847 0.28338 -6.38119e-21)
(1.01178 0.267409 0)
(0.96064 0.245593 -4.28675e-21)
(0.92099 0.223473 -5.99302e-21)
(0.890622 0.203502 -3.82059e-21)
(0.866658 0.186033 -4.91925e-21)
(0.846165 0.170859 0)
(0.818042 0.156365 0)
(0.741198 0.135558 -1.32807e-20)
(0.555986 0.101324 2.66127e-21)
(0.294647 0.0549721 -1.55185e-21)
(0.0484502 0.00951001 -1.83626e-21)
(0.26329 0.0687097 2.71298e-20)
(1.17195 0.286063 0)
(1.31453 0.32951 -2.20083e-20)
(1.31453 0.344731 -5.53745e-21)
(1.2735 0.348957 -4.08031e-21)
(1.22497 0.349956 0)
(1.17262 0.347861 -3.26869e-22)
(1.11678 0.341436 1.95216e-21)
(1.05786 0.329246 2.8369e-21)
(0.996504 0.309604 8.0591e-21)
(0.941317 0.284764 0)
(0.898643 0.260696 -1.30756e-20)
(0.866075 0.239655 -8.34977e-21)
(0.840485 0.22172 -5.0335e-21)
(0.818986 0.206548 3.29434e-20)
(0.791742 0.192085 4.04721e-21)
(0.722296 0.170841 1.93665e-20)
(0.554571 0.131161 -9.36538e-20)
(0.303352 0.0735529 5.58579e-20)
(0.0531066 0.0132362 -6.8226e-20)
(0.255655 0.0799149 2.88351e-20)
(1.1703 0.343748 -5.26812e-21)
(1.31915 0.394982 3.90613e-21)
(1.31738 0.409046 1.04884e-20)
(1.27391 0.40986 6.3116e-21)
(1.22268 0.407188 3.36106e-22)
(1.16728 0.401363 2.41419e-22)
(1.10797 0.391235 1.54663e-21)
(1.04535 0.375302 -6.22795e-21)
(0.980123 0.351961 0)
(0.921536 0.323939 -5.62879e-21)
(0.876593 0.297726 -3.05629e-22)
(0.842507 0.275411 -9.34459e-21)
(0.815951 0.256807 0)
(0.794046 0.241397 -7.19258e-21)
(0.768048 0.226842 -1.75159e-20)
(0.704805 0.204634 4.84657e-20)
(0.54871 0.159379 -4.83719e-20)
(0.304803 0.0900805 6.90059e-20)
(0.0548502 0.0164456 -7.27076e-20)
(0.249568 0.0903672 -1.09053e-22)
(1.16391 0.398611 6.49455e-21)
(1.31857 0.458369 1.87793e-20)
(1.31563 0.471638 -6.47756e-21)
(1.27032 0.469429 3.62733e-21)
(1.217 0.463354 0)
(1.15908 0.454058 1.46361e-21)
(1.09691 0.440394 -1.27971e-21)
(1.03112 0.420852 -2.88322e-21)
(0.962584 0.393799 0)
(0.901145 0.362477 -5.52037e-21)
(0.854279 0.333849 -7.7109e-21)
(0.819083 0.309918 1.02286e-20)
(0.792033 0.290244 -6.53822e-21)
(0.77023 0.274142 -3.17039e-20)
(0.745607 0.259033 1.95014e-20)
(0.68692 0.23511 6.15091e-21)
(0.538344 0.183923 0)
(0.300863 0.103766 -6.70717e-20)
(0.0544399 0.0189314 -2.49416e-21)
(0.24492 0.100345 4.76734e-21)
(1.1548 0.450498 -7.5005e-21)
(1.31419 0.519027 -1.0294e-20)
(1.31033 0.531922 -1.99306e-20)
(1.26365 0.527017 1.77716e-20)
(1.20868 0.517885 -9.18216e-21)
(1.14871 0.505404 -3.07758e-21)
(1.0841 0.488435 -1.89112e-21)
(1.01553 0.465455 2.75146e-21)
(0.943963 0.43474 -1.97499e-20)
(0.879951 0.400022 -6.76608e-21)
(0.831521 0.368674 0)
(0.795625 0.342722 1.11923e-20)
(0.76845 0.321598 1.38319e-20)
(0.746952 0.304393 1.70292e-20)
(0.723472 0.288319 -2.12808e-20)
(0.667866 0.262235 -6.41485e-21)
(0.52426 0.205084 7.62703e-21)
(0.292733 0.114755 0)
(0.0528008 0.020797 -5.43604e-21)
(0.241468 0.109946 -5.55869e-20)
(1.1444 0.499522 3.44708e-20)
(1.3071 0.576808 1.13638e-20)
(1.30247 0.589524 -1.52891e-20)
(1.25471 0.582257 1.07126e-20)
(1.1984 0.570405 -7.91563e-22)
(1.13671 0.555068 2.96211e-21)
(1.07 0.535069 -7.91114e-22)
(0.998925 0.508868 -5.17432e-21)
(0.924614 0.474625 3.57757e-23)
(0.858289 0.436449 -2.02519e-20)
(0.808423 0.402167 1.96194e-20)
(0.771923 0.373839 -1.25397e-20)
(0.744674 0.350922 1.55868e-20)
(0.723496 0.332268 0)
(0.700895 0.31478 -1.15602e-20)
(0.647339 0.286075 -2.40444e-22)
(0.507266 0.222895 -3.33654e-20)
(0.281546 0.123176 -4.94943e-21)
(0.0501323 0.0219369 0)
(0.239024 0.119355 0)
(1.13343 0.545901 3.75071e-20)
(1.2981 0.631634 2.66192e-20)
(1.29274 0.644302 1.7319e-20)
(1.2441 0.634955 1.02712e-20)
(1.1867 0.620709 0)
(1.12357 0.602824 3.13613e-21)
(1.05506 0.580097 -2.48388e-22)
(0.981736 0.550945 1.09877e-20)
(0.904886 0.51333 -2.44029e-21)
(0.836151 0.471638 -1.48431e-20)
(0.784692 0.434253 9.8469e-21)
(0.747521 0.403302 -3.96797e-22)
(0.72027 0.378212 1.64369e-20)
(0.699436 0.357775 1.07244e-20)
(0.677559 0.338542 -2.51753e-20)
(0.625248 0.306709 3.04853e-20)
(0.487754 0.237327 9.13329e-21)
(0.267912 0.129206 3.79455e-20)
(0.0466523 0.0224355 -1.02683e-19)
(0.237462 0.12866 -1.43552e-20)
(1.12242 0.589814 2.17245e-20)
(1.28781 0.683551 -1.67048e-20)
(1.28171 0.696227 -2.02086e-20)
(1.23235 0.685022 0)
(1.17407 0.668675 8.26828e-21)
(1.10972 0.648544 -8.95191e-21)
(1.03959 0.62339 7.16683e-22)
(0.964212 0.591562 0)
(0.884766 0.550835 -3.76606e-20)
(0.813597 0.505697 4.0487e-20)
(0.760512 0.464977 0)
(0.722496 0.431079 1.48586e-20)
(0.695201 0.403483 -3.99449e-22)
(0.674687 0.38096 -3.39853e-20)
(0.653335 0.359652 1.33791e-20)
(0.601585 0.32428 0)
(0.466079 0.248496 4.95026e-20)
(0.252275 0.132916 0)
(0.0426377 0.022318 -4.89328e-20)
(0.236587 0.13788 1.60392e-20)
(1.1117 0.631419 2.48996e-20)
(1.27665 0.732594 -1.75232e-20)
(1.26983 0.745302 0)
(1.21989 0.732452 1.43365e-20)
(1.16085 0.714273 0)
(1.09545 0.692155 1.20825e-20)
(1.02386 0.664868 1.11649e-21)
(0.946515 0.63068 1.22462e-21)
(0.864552 0.587118 -1.86119e-20)
(0.790834 0.538672 3.94505e-21)
(0.735939 0.494653 0)
(0.696911 0.457574 -3.16474e-20)
(0.669304 0.427128 4.13318e-22)
(0.649042 0.402187 0)
(0.627986 0.378424 4.89161e-22)
(0.576208 0.338978 4.49275e-20)
(0.442211 0.256407 -4.33137e-20)
(0.234814 0.134225 1.28566e-20)
(0.0381068 0.0215514 0)
(0.23605 0.1469 0)
(1.10136 0.670869 2.79222e-20)
(1.265 0.77886 2.06466e-20)
(1.25744 0.791585 -4.45819e-22)
(1.20702 0.777275 9.04713e-21)
(1.14734 0.757494 1.96213e-20)
(1.08104 0.733641 -3.85671e-21)
(1.00813 0.704511 1.74731e-22)
(0.928953 0.668289 6.92706e-21)
(0.844491 0.622223 -2.90599e-20)
(0.767987 0.570717 -6.46191e-22)
(0.71094 0.523284 -1.29954e-20)
(0.670694 0.482848 5.18935e-20)
(0.6426 0.449357 -4.94177e-22)
(0.622438 0.421647 -2.68258e-20)
(0.601432 0.395001 -4.90298e-20)
(0.549091 0.350877 0)
(0.416229 0.261166 0)
(0.215672 0.133014 1.4071e-20)
(0.033244 0.0201737 -8.34724e-21)
(0.235985 0.155877 2.00491e-20)
(1.09155 0.707999 -6.12685e-20)
(1.25311 0.82244 -2.2159e-20)
(1.24481 0.83515 0)
(1.194 0.819553 -3.16796e-22)
(1.13379 0.798374 2.37567e-20)
(1.06672 0.773023 -1.32432e-20)
(0.992641 0.742323 -4.81887e-21)
(0.911745 0.704391 7.39255e-21)
(0.824736 0.6562 -2.24754e-20)
(0.745256 0.601911 -3.43473e-20)
(0.685633 0.551201 3.46846e-20)
(0.643734 0.507154 0)
(0.61496 0.470251 -1.20818e-20)
(0.594763 0.439517 -2.94582e-20)
(0.573578 0.409545 -3.55505e-20)
(0.520129 0.360033 -4.3167e-20)
(0.388031 0.262648 1.29327e-20)
(0.194775 0.12904 -7.61487e-21)
(0.0280061 0.0181705 8.5702e-23)
(0.235974 0.164594 0)
(1.08237 0.74326 0)
(1.24117 0.863445 5.28828e-22)
(1.23215 0.876096 0)
(1.18102 0.859366 -3.42508e-20)
(1.12039 0.836964 -2.11264e-20)
(1.05268 0.810322 0)
(0.977557 0.778311 -1.35212e-21)
(0.895023 0.738983 9.75507e-21)
(0.805487 0.689054 -5.16396e-20)
(0.722832 0.632399 0)
(0.660264 0.57851 -2.22519e-20)
(0.616158 0.530821 -6.04432e-22)
(0.586299 0.490213 -4.97042e-22)
(0.565905 0.455978 3.14907e-20)
(0.544327 0.422068 -8.09728e-23)
(0.489253 0.366274 -9.38123e-20)
(0.35746 0.260579 2.81672e-20)
(0.172273 0.122301 8.38788e-21)
(0.0224532 0.0155352 0)
(0.236011 0.172999 -7.42158e-20)
(1.07354 0.77672 -3.77544e-20)
(1.22929 0.901963 -5.59086e-20)
(1.2196 0.914524 7.72825e-20)
(1.16823 0.896778 -6.44732e-20)
(1.10727 0.873317 0)
(1.03903 0.845579 -1.15123e-20)
(0.96299 0.812494 2.48941e-21)
(0.878939 0.772077 7.60301e-22)
(0.786935 0.720838 4.06083e-21)
(0.700903 0.662216 4.31871e-20)
(0.634948 0.605518 -7.62516e-21)
(0.588123 0.554168 -3.21209e-20)
(0.556587 0.509488 -1.43764e-20)
(0.535713 0.471176 1.75288e-20)
(0.51351 0.432522 -6.32229e-23)
(0.456396 0.369421 2.5727e-20)
(0.324395 0.254645 -6.11311e-20)
(0.148355 0.112735 7.29956e-20)
(0.0168817 0.0124569 1.07238e-20)
(0.235918 0.181063 2.7333e-20)
(1.06507 0.808448 -2.0718e-20)
(1.21758 0.938109 1.23882e-21)
(1.20727 0.950554 4.38378e-20)
(1.15574 0.931895 1.51383e-20)
(1.09453 0.907503 4.24199e-20)
(1.02588 0.878842 -5.16948e-21)
(0.949054 0.844893 1.21655e-20)
(0.863625 0.803669 -6.28308e-21)
(0.769204 0.751531 -2.83719e-20)
(0.67968 0.691462 0)
(0.60993 0.632326 -3.4308e-20)
(0.559691 0.577493 4.66699e-20)
(0.525732 0.528488 0)
(0.503888 0.485279 -3.75617e-20)
(0.480828 0.440653 2.32557e-20)
(0.421514 0.368904 -2.78234e-20)
(0.289742 0.244701 -3.34551e-20)
(0.124134 0.100873 -5.94074e-20)
(0.0115239 0.00909915 -4.69442e-20)
(0.235994 0.188882 -3.01452e-20)
(1.05682 0.838437 2.21784e-20)
(1.20612 0.971969 5.25061e-20)
(1.19525 0.984273 6.04224e-20)
(1.14362 0.964804 -3.17465e-20)
(1.08226 0.939605 2.94282e-20)
(1.0133 0.91016 -1.6094e-20)
(0.935827 0.875548 1.53835e-20)
(0.849145 0.833777 -2.46075e-21)
(0.752428 0.781131 2.72841e-20)
(0.659337 0.720129 9.20761e-20)
(0.585456 0.659087 0)
(0.531122 0.601166 0)
(0.493708 0.547721 -1.66544e-20)
(0.469977 0.498615 0)
(0.44565 0.445958 5.06522e-20)
(0.384451 0.363604 6.07901e-20)
(0.254388 0.229975 0)
(0.10093 0.086976 0)
(0.00681412 0.00577532 5.10753e-20)
(0.235788 0.196173 3.33518e-20)
(1.04881 0.866699 2.67127e-20)
(1.19497 1.00366 3.78305e-20)
(1.18359 1.01581 -5.4151e-20)
(1.13193 0.995602 -3.55206e-20)
(1.07049 0.969694 -3.9196e-20)
(1.00135 0.939592 2.39719e-20)
(0.923349 0.904483 1.05835e-22)
(0.835563 0.8624 -9.82354e-22)
(0.736691 0.809621 -1.2287e-21)
(0.640057 0.748228 4.67388e-20)
(0.561749 0.685872 0)
(0.50275 0.625359 4.72435e-20)
(0.460651 0.567846 3.51951e-20)
(0.4334 0.511944 8.96595e-20)
(0.406598 0.448128 2.73753e-20)
(0.344323 0.351207 -3.35123e-20)
(0.220349 0.208136 -1.97161e-20)
(0.0827784 0.0709854 0)
(0.00378543 0.00284541 5.54918e-20)
(0.235785 0.203382 -7.36489e-20)
(1.04103 0.893337 0)
(1.18414 1.03326 4.24361e-20)
(1.17233 1.04524 -4.45089e-20)
(1.12071 1.02438 4.03874e-20)
(1.05927 0.997855 5.74903e-20)
(0.990045 0.967193 -5.59207e-20)
(0.911642 0.931734 4.45729e-22)
(0.822909 0.889548 0)
(0.722061 0.83695 -2.57938e-20)
(0.621985 0.775735 -9.72524e-20)
(0.539092 0.712649 4.71214e-21)
(0.474951 0.650256 6.43718e-20)
(0.426925 0.589486 0)
(0.393699 0.526537 6.0623e-20)
(0.361499 0.447958 0)
(0.297311 0.32907 0)
(0.187963 0.17058 -2.19315e-20)
(0.0870588 0.0415771 0)
(0.0233273 0.00617989 1.49801e-20)
(0.235423 0.209955 -8.07087e-20)
(1.03345 0.918676 0)
(1.17362 1.06096 6.89468e-20)
(1.16143 1.0728 0)
(1.10993 1.05139 -2.202e-20)
(1.04853 1.02436 0)
(0.979319 0.993268 -4.21811e-21)
(0.900616 0.957632 -2.7582e-21)
(0.81107 0.915578 7.15209e-23)
(0.708394 0.863494 -2.55586e-20)
(0.605007 0.803052 2.57063e-21)
(0.517352 0.739987 3.89821e-20)
(0.447611 0.676323 6.24544e-20)
(0.392368 0.613652 8.89948e-21)
(0.349869 0.54452 4.75522e-20)
(0.307156 0.448796 0)
(0.232458 0.299913 7.31346e-20)
(0.131063 0.10759 -4.34568e-20)
(0.0433487 0.0660819 5.02325e-20)
(-0.0346281 0.421965 -5.95745e-20)
(0.235003 0.216274 6.59636e-20)
(1.02587 0.942559 1.02363e-19)
(1.16334 1.08707 0)
(1.15078 1.0989 1.04772e-21)
(1.09942 1.07719 5.99606e-20)
(1.03803 1.04988 -1.12023e-19)
(0.968895 1.01859 -2.48632e-20)
(0.889908 0.983095 0)
(0.799579 0.941566 -4.12599e-21)
(0.695097 0.890545 -8.0979e-22)
(0.588313 0.831649 0)
(0.495501 0.7697 0)
(0.419516 0.705347 5.48466e-20)
(0.356008 0.642368 -2.77868e-20)
(0.299699 0.569796 -4.75109e-20)
(0.240094 0.457823 0)
(0.129641 0.282275 3.75938e-20)
(0.0232991 0.451694 -4.42239e-20)
(0.0437533 1.83811 -2.41854e-20)
(0.0729641 2.77851 -2.96736e-20)
(0.234244 0.222008 -4.85431e-20)
(1.01839 0.96517 -1.29634e-19)
(1.1533 1.1116 3.99926e-20)
(1.1404 1.12342 3.81735e-20)
(1.08926 1.1016 0)
(1.02785 1.07415 -8.04444e-20)
(0.958952 1.04285 -4.18578e-20)
(0.879677 1.0077 1.87748e-21)
(0.788674 0.966992 -5.34989e-22)
(0.682511 0.917478 1.97336e-20)
(0.572466 0.860788 4.35835e-20)
(0.474531 0.801244 4.02508e-20)
(0.391842 0.736814 5.3937e-20)
(0.320364 0.673892 -6.3428e-20)
(0.249277 0.604783 -7.0408e-20)
(0.161138 0.491512 0)
(0.0659546 0.841397 0)
(0.114652 2.51731 1.96999e-20)
(0.119283 3.17706 0)
(0.119398 3.3765 4.95524e-20)
(0.236244 0.227385 0)
(1.01123 0.986802 0)
(1.14322 1.13441 0)
(1.13009 1.14616 1.06761e-20)
(1.07917 1.1244 5.38603e-20)
(1.01777 1.09702 -6.16704e-20)
(0.949414 1.06596 -3.00826e-20)
(0.869855 1.03133 2.15295e-21)
(0.778291 0.991689 -1.18154e-20)
(0.670625 0.944122 -2.11555e-21)
(0.557555 0.890246 7.90043e-20)
(0.454789 0.8345 -4.73151e-21)
(0.365144 0.771326 6.10769e-21)
(0.286839 0.70522 9.05593e-21)
(0.200916 0.648082 4.91011e-22)
(0.12701 0.966485 3.24738e-22)
(0.160473 2.66072 -9.86032e-20)
(0.17431 3.28073 -3.73794e-20)
(0.159006 3.42358 1.82895e-20)
(0.142691 3.44701 -1.94398e-20)
(0.158647 0.172506 2.87699e-20)
(0.999095 1.01033 0)
(1.13307 1.15574 -7.87173e-20)
(1.1203 1.16749 -9.93367e-20)
(1.06958 1.14608 1.12273e-19)
(1.00843 1.11892 6.54609e-20)
(0.940079 1.08794 3.55156e-20)
(0.860462 1.05402 -3.7773e-20)
(0.768539 1.01567 1.32661e-20)
(0.659723 0.970437 0)
(0.543993 0.919867 3.43719e-20)
(0.436922 0.86884 -3.01765e-20)
(0.340448 0.81125 0)
(0.256067 0.741247 8.18378e-21)
(0.178123 0.866995 2.0098e-20)
(0.175413 2.39637 -2.40577e-20)
(0.240249 3.31825 2.7473e-20)
(0.217397 3.44307 1.36182e-20)
(0.180416 3.46482 1.58065e-20)
(0.156118 3.47443 2.11951e-20)
(0.269526 0.263228 -5.63235e-20)
(0.980147 1.01804 0)
(1.11447 1.17956 8.17764e-20)
(1.10684 1.19941 1.04106e-19)
(1.05433 1.1782 -1.16899e-19)
(0.993065 1.15158 -7.04282e-20)
(0.924078 1.12193 -5.49746e-20)
(0.844215 1.08929 -2.79659e-21)
(0.751476 1.05325 -1.99059e-20)
(0.640694 1.01235 2.76419e-21)
(0.521071 0.968562 1.33848e-21)
(0.4072 0.926545 2.31673e-20)
(0.296489 0.884488 4.98776e-21)
(0.232139 1.00925 -7.20968e-21)
(0.248711 2.26103 -1.69795e-20)
(0.309826 3.32481 1.34515e-20)
(0.296533 3.47974 -1.28009e-20)
(0.25772 3.50037 -7.44916e-21)
(0.21876 3.52616 -1.72576e-21)
(0.16598 3.51833 -5.10605e-22)
(0.258704 0.261308 0)
(0.976565 1.03924 2.16076e-20)
(1.10611 1.20174 -1.61739e-20)
(1.09687 1.22144 -1.15981e-20)
(1.04462 1.20027 -7.67433e-20)
(0.983637 1.17387 6.87013e-20)
(0.914555 1.14445 3.70597e-20)
(0.834846 1.11268 -2.95013e-21)
(0.742119 1.0782 2.49691e-20)
(0.630866 1.04037 -2.98436e-21)
(0.509664 1.00164 -4.39037e-20)
(0.392989 0.966104 3.29204e-21)
(0.286254 0.95227 -4.32271e-21)
(0.272545 1.46007 -5.92159e-21)
(0.348342 3.06378 3.82418e-21)
(0.375799 3.47841 5.07778e-22)
(0.327985 3.54126 1.3291e-21)
(0.289463 3.56133 -4.58769e-21)
(0.23792 3.58281 1.17044e-20)
(0.178634 3.57681 4.24584e-21)
(0.243872 0.258215 5.35043e-20)
(0.97184 1.0627 1.44799e-19)
(1.09719 1.22573 -4.60932e-20)
(1.08657 1.24496 -4.39727e-20)
(1.03459 1.22365 0)
(0.973869 1.19726 1.0069e-19)
(0.904968 1.16808 5.66245e-20)
(0.825684 1.1371 -3.12079e-21)
(0.733305 1.10424 2.58866e-21)
(0.622134 1.0696 1.15342e-20)
(0.500146 1.03632 -1.33496e-20)
(0.382752 1.00862 -2.23428e-20)
(0.294773 1.07466 -2.82128e-20)
(0.344024 2.10188 3.0573e-20)
(0.438648 3.38034 1.64257e-20)
(0.422895 3.55014 0)
(0.365796 3.58935 0)
(0.324725 3.62902 1.10458e-20)
(0.263459 3.6842 0)
(0.189157 3.6574 2.65572e-20)
(0.233083 0.258876 -7.79219e-20)
(0.964999 1.08673 -1.20227e-19)
(1.08689 1.25081 0)
(1.07515 1.26929 1.218e-21)
(1.02345 1.24759 -7.46414e-20)
(0.963118 1.22107 1.49655e-19)
(0.894726 1.19213 3.81593e-20)
(0.816108 1.16183 -3.92002e-21)
(0.724349 1.1305 2.86665e-20)
(0.613697 1.09898 -1.41451e-21)
(0.491719 1.0713 0)
(0.376515 1.05418 0)
(0.326094 1.28906 -2.02035e-20)
(0.433361 2.7743 6.40174e-21)
(0.518433 3.50621 -6.72166e-22)
(0.467069 3.59386 0)
(0.420969 3.64798 3.05236e-20)
(0.365217 3.71053 -4.70352e-20)
(0.312273 3.68719 -4.32268e-20)