/*--------------------------------*- C++ -*----------------------------------*\
  =========                 |
  \\      /  F ield         | OpenFOAM: The Open Source CFD Toolbox
   \\    /   O peration     | Website:  https://openfoam.org
    \\  /    A nd           | Version:  6
     \\/     M anipulation  |
\*---------------------------------------------------------------------------*/
FoamFile
{
    version     2.0;
    format      ascii;
    class       volVectorField;
    location    "116";
    object      U;
}
// * * * * * * * * * * * * * * * * * * * * * * * * * * * * * * * * * * * * * //

dimensions      [0 1 -1 0 0 0 0];

internalField   nonuniform List<vector> 
8800
(
(0.987183 -0.0766652 0)
(1.00189 -0.0551904 0)
(0.999719 -0.0285486 0)
(1.00003 -0.0151446 0)
(1.0001 -0.0085476 0)
(1.00013 -0.00505123 0)
(1.00008 -0.00300508 0)
(1.00002 -0.00170259 0)
(0.99999 -0.000794616 0)
(1.00006 -7.42426e-05 0)
(0.99997 0.000660668 0)
(1.00004 0.00142355 0)
(1.00007 0.00242314 0)
(1.00007 0.0039964 0)
(1.00006 0.00663172 0)
(1.00006 0.0113717 0)
(0.999967 0.0208157 0)
(0.999178 0.0386703 0)
(1.0071 0.0724575 0)
(0.771215 0.0366618 0)
(0.363084 -0.0160159 0)
(1.04332 -0.0768091 0)
(1.08459 -0.0704358 0)
(1.04519 -0.053529 0)
(1.0233 -0.0388801 0)
(1.01204 -0.0262022 0)
(1.00644 -0.0168374 0)
(1.0036 -0.0102985 0)
(1.00215 -0.00563091 0)
(1.00143 -0.00196526 0)
(1.00128 0.00136238 0)
(1.00169 0.00475208 0)
(1.00271 0.00865939 0)
(1.00468 0.0139812 0)
(1.00861 0.0216906 0)
(1.01658 0.0326564 0)
(1.03253 0.046567 0)
(1.0627 0.0616827 0)
(1.09186 0.076108 0)
(0.838661 0.0565655 0)
(0.216885 -0.00242817 0)
(1.07593 -0.0501164 0)
(1.09989 -0.0482823 0)
(1.06466 -0.04043 0)
(1.04007 -0.0335676 0)
(1.02395 -0.0260392 0)
(1.01414 -0.0184433 0)
(1.00857 -0.0116079 0)
(1.00558 -0.00572558 0)
(1.0043 -0.00029667 0)
(1.00465 0.00496047 0)
(1.00664 0.0103415 0)
(1.01064 0.016392 0)
(1.01794 0.0234132 0)
(1.03053 0.0308737 0)
(1.05063 0.0378943 0)
(1.08038 0.0445726 0)
(1.10627 0.0513786 0)
(0.942483 0.0416349 0)
(0.216101 0.00246352 0)
(0.17524 -0.000814457 0)
(1.01778 -0.0354543 0)
(1.10524 -0.0413319 0)
(1.0783 -0.0360064 0)
(1.05352 -0.0300636 0)
(1.03626 -0.0244753 0)
(1.02404 -0.0187266 0)
(1.01591 -0.0126234 0)
(1.01102 -0.00641453 0)
(1.00879 -6.28624e-05 0)
(1.00936 0.00620678 0)
(1.01269 0.0121905 0)
(1.01889 0.0179721 0)
(1.02874 0.0235395 0)
(1.04317 0.0288303 0)
(1.0637 0.0342981 0)
(1.09356 0.0402722 0)
(1.09338 0.0420177 0)
(0.826999 0.0229394 0)
(0.173918 0.000855679 0)
(0.154076 -0.000608032 0)
(0.956377 -0.025416 0)
(1.10355 -0.0350561 0)
(1.08775 -0.0325631 0)
(1.06181 -0.0278976 0)
(1.0442 -0.0228548 0)
(1.03171 -0.0175791 0)
(1.02284 -0.0120157 0)
(1.01699 -0.006051 0)
(1.0141 0.000441342 0)
(1.01477 0.0069211 0)
(1.01882 0.0127843 0)
(1.0258 0.0180124 0)
(1.03604 0.0229185 0)
(1.05059 0.027662 0)
(1.07183 0.0321704 0)
(1.10004 0.036087 0)
(1.06796 0.0341165 0)
(0.739233 0.0143499 0)
(0.15208 0.00065491 0)
(0.139753 -0.000463847 0)
(0.899631 -0.0190196 0)
(1.09596 -0.0299767 0)
(1.09586 -0.0290599 0)
(1.06939 -0.0253096 0)
(1.05095 -0.0211435 0)
(1.03799 -0.016332 0)
(1.02885 -0.0110034 0)
(1.02269 -0.00522184 0)
(1.0195 0.00113573 0)
(1.02009 0.00746987 0)
(1.02426 0.0130781 0)
(1.03134 0.0179627 0)
(1.04178 0.022413 0)
(1.05689 0.0263573 0)
(1.07909 0.0297891 0)
(1.10217 0.0323893 0)
(1.0357 0.0282391 0)
(0.67245 0.0102598 0)
(0.136926 0.000517957 0)
(0.129274 -0.000357906 0)
(0.850257 -0.0146404 0)
(1.0837 -0.0258084 0)
(1.10162 -0.0260615 0)
(1.07631 -0.0227492 0)
(1.05733 -0.0190697 0)
(1.04391 -0.0147736 0)
(1.0344 -0.00979575 0)
(1.02798 -0.00421389 0)
(1.02458 0.00197383 0)
(1.02501 0.00810093 0)
(1.02913 0.0134262 0)
(1.0363 0.0178844 0)
(1.047 0.0217259 0)
(1.0625 0.0249985 0)
(1.08513 0.0279019 0)
(1.10117 0.0296195 0)
(1.00054 0.0237653 0)
(0.620327 0.00791044 0)
(0.125434 0.00042158 0)
(0.121308 -0.000276546 0)
(0.8084 -0.0114628 0)
(1.06862 -0.0221559 0)
(1.10525 -0.0233654 0)
(1.08264 -0.0204566 0)
(1.06325 -0.0169812 0)
(1.04955 -0.0129788 0)
(1.03975 -0.00832456 0)
(1.03302 -0.00300099 0)
(1.02934 0.00297945 0)
(1.02958 0.0088659 0)
(1.03363 0.0138362 0)
(1.04083 0.0178062 0)
(1.05161 0.0211364 0)
(1.06732 0.0239899 0)
(1.09029 0.0265841 0)
(1.09723 0.0273894 0)
(0.964919 0.0202764 0)
(0.578296 0.006394 0)
(0.116237 0.000352303 0)
(0.115169 -0.000212498 0)
(0.773293 -0.00907707 0)
(1.05212 -0.0189277 0)
(1.10777 -0.0208531 0)
(1.08861 -0.0183037 0)
(1.06883 -0.0149598 0)
(1.05488 -0.0111036 0)
(1.04487 -0.00664292 0)
(1.03788 -0.00154387 0)
(1.03388 0.00419721 0)
(1.03386 0.00979314 0)
(1.03778 0.0143792 0)
(1.04487 0.0179125 0)
(1.05562 0.0208515 0)
(1.07151 0.0233704 0)
(1.09412 0.0256067 0)
(1.09038 0.0255755 0)
(0.930116 0.017609 0)
(0.543325 0.00536871 0)
(0.108601 0.000303101 0)
(0.110428 -0.000160611 0)
(0.744006 -0.00721573 0)
(1.03529 -0.0160515 0)
(1.10939 -0.0184673 0)
(1.09432 -0.0162098 0)
(1.07425 -0.0129419 0)
(1.06003 -0.00915601 0)
(1.04981 -0.00479636 0)
(1.04256 0.000149088 0)
(1.03824 0.00566563 0)
(1.03789 0.0109596 0)
(1.04156 0.0151765 0)
(1.04845 0.01832 0)
(1.05913 0.0209104 0)
(1.0752 0.0231277 0)
(1.09662 0.0249699 0)
(1.081 0.0241373 0)
(0.896663 0.0156151 0)
(0.513339 0.0046658 0)
(0.102041 0.000269304 0)
(0.106803 -0.000117081 0)
(0.719734 -0.00570402 0)
(1.01896 -0.0134543 0)
(1.11024 -0.0161431 0)
(1.09996 -0.0141394 0)
(1.07963 -0.010864 0)
(1.0651 -0.0070852 0)
(1.05463 -0.00276327 0)
(1.0471 0.00209203 0)
(1.0424 0.00743045 0)
(1.04164 0.0124501 0)
(1.04497 0.0163202 0)
(1.05162 0.0190901 0)
(1.06219 0.0213431 0)
(1.07842 0.02328 0)
(1.09771 0.0246892 0)
(1.06941 0.0230765 0)
(0.864641 0.01418 0)
(0.486861 0.00419562 0)
(0.0962095 0.000247913 0)
(0.10411 -7.88906e-05 0)
(0.699851 -0.00442489 0)
(1.00376 -0.0110669 0)
(1.1105 -0.0138432 0)
(1.10549 -0.0120062 0)
(1.08504 -0.00867005 0)
(1.07019 -0.00483523 0)
(1.05943 -0.000486284 0)
(1.05155 0.00434039 0)
(1.04639 0.00955509 0)
(1.04512 0.0143381 0)
(1.04805 0.0178791 0)
(1.05439 0.0202811 0)
(1.06483 0.0222031 0)
(1.08116 0.0238608 0)
(1.09769 0.0249229 0)
(1.05586 0.0224136 0)
(0.833834 0.0132224 0)
(0.462764 0.00390445 0)
(0.0908381 0.000236577 0)
(0.102237 -4.32932e-05 0)
(0.683904 -0.0032901 0)
(0.990173 -0.00881652 0)
(1.11039 -0.0114779 0)
(1.11089 -0.00972466 0)
(1.09058 -0.00629539 0)
(1.07537 -0.00233929 0)
(1.06426 0.00210732 0)
(1.05596 0.00697253 0)
(1.05024 0.0121199 0)
(1.04835 0.0167024 0)
(1.0508 0.0199273 0)
(1.05676 0.0219614 0)
(1.06704 0.0235502 0)
(1.08338 0.0249088 0)
(1.09675 0.025493 0)
(1.04044 0.0221583 0)
(0.803847 0.0126667 0)
(0.440148 0.00375381 0)
(0.0857158 0.00023314 0)
(0.101125 -7.95747e-06 0)
(0.67161 -0.00222882 0)
(0.97856 -0.00662673 0)
(1.11024 -0.00898936 0)
(1.11632 -0.00723242 0)
(1.09632 -0.00366144 0)
(1.08072 0.000485345 0)
(1.06921 0.00510365 0)
(1.06039 0.0100796 0)
(1.05399 0.0152196 0)
(1.05136 0.0196376 0)
(1.05322 0.0225568 0)
(1.05876 0.0242263 0)
(1.06882 0.0254727 0)
(1.08513 0.0265321 0)
(1.09444 0.0265766 0)
(1.02316 0.0223203 0)
(0.77419 0.012469 0)
(0.418278 0.00371977 0)
(0.080674 0.00023633 0)
(0.100769 2.91305e-05 0)
(0.662835 -0.00118407 0)
(0.969258 -0.00442286 0)
(1.1104 -0.00631581 0)
(1.12191 -0.00445504 0)
(1.10238 -0.000678186 0)
(1.08635 0.0037354 0)
(1.07436 0.00860517 0)
(1.06491 0.01377 0)
(1.05768 0.0189672 0)
(1.05417 0.0232575 0)
(1.05533 0.025886 0)
(1.06036 0.0271905 0)
(1.07015 0.0280721 0)
(1.08631 0.0287908 0)
(1.09064 0.028195 0)
(1.00388 0.0229464 0)
(0.744296 0.0126058 0)
(0.396517 0.00378911 0)
(0.075569 0.000245408 0)
(0.101194 6.40977e-05 0)
(0.657581 -9.87934e-05 0)
(0.96258 -0.00212769 0)
(1.11123 -0.00338927 0)
(1.12786 -0.0013063 0)
(1.10886 0.00275724 0)
(1.09236 0.00752318 0)
(1.07978 0.0127328 0)
(1.06958 0.0181722 0)
(1.06136 0.0234962 0)
(1.05678 0.0276953 0)
(1.0571 0.0300515 0)
(1.06153 0.0309782 0)
(1.07099 0.0314739 0)
(1.08661 0.0318111 0)
(1.08505 0.0304429 0)
(0.982332 0.0240769 0)
(0.713525 0.0130618 0)
(0.374278 0.00395137 0)
(0.0702742 0.000259402 0)
(0.102468 0.000120983 0)
(0.656013 0.00108044 0)
(0.958859 0.00033816 0)
(1.11312 -0.000129804 0)
(1.13435 0.00231556 0)
(1.11588 0.00676639 0)
(1.09886 0.011984 0)
(1.08559 0.0176348 0)
(1.07448 0.0234428 0)
(1.06507 0.0289664 0)
(1.0592 0.0331106 0)
(1.05854 0.0352041 0)
(1.06225 0.0357296 0)
(1.07129 0.0358172 0)
(1.08588 0.035732 0)
(1.07737 0.033409 0)
(0.958108 0.0257506 0)
(0.681166 0.0138251 0)
(0.351012 0.00419594 0)
(0.0646805 0.000277189 0)
(0.104731 0.000171156 0)
(0.658167 0.00223458 0)
(0.958468 0.00306836 0)
(1.11655 0.00357422 0)
(1.14164 0.00653008 0)
(1.12361 0.0114946 0)
(1.10599 0.0172816 0)
(1.0919 0.023491 0)
(1.07968 0.0297716 0)
(1.06883 0.0355674 0)
(1.06144 0.0396805 0)
(1.05962 0.0414895 0)
(1.06246 0.0416078 0)
(1.071 0.0412642 0)
(1.08391 0.0406216 0)
(1.06724 0.0371998 0)
(0.93063 0.0280122 0)
(0.646452 0.0148838 0)
(0.326212 0.00451073 0)
(0.0587008 0.000297401 0)
(0.108143 0.000236699 0)
(0.664844 0.00372299 0)
(0.961722 0.00604832 0)
(1.12197 0.0078505 0)
(1.14997 0.0114694 0)
(1.13225 0.0171263 0)
(1.11393 0.0236229 0)
(1.09884 0.030525 0)
(1.08526 0.0373887 0)
(1.07268 0.0435235 0)
(1.06347 0.0476142 0)
(1.06034 0.0491446 0)
(1.06213 0.048806 0)
(1.07007 0.0479948 0)
(1.08067 0.0467075 0)
(1.05413 0.0419394 0)
(0.899137 0.0308923 0)
(0.608555 0.0162115 0)
(0.299421 0.00487682 0)
(0.0522757 0.000317988 0)
(0.112971 0.000325666 0)
(0.676446 0.00549304 0)
(0.969209 0.00957841 0)
(1.12991 0.012872 0)
(1.15967 0.0173547 0)
(1.14204 0.0239049 0)
(1.12287 0.0312766 0)
(1.10653 0.0390214 0)
(1.0913 0.046578 0)
(1.07662 0.0531009 0)
(1.06528 0.0571481 0)
(1.06056 0.0583961 0)
(1.06123 0.0575315 0)
(1.06843 0.0562123 0)
(1.07608 0.0541639 0)
(1.03732 0.0477295 0)
(0.862669 0.0343846 0)
(0.566612 0.0177518 0)
(0.270275 0.00526304 0)
(0.0453879 0.000336011 0)
(0.119586 0.000444205 0)
(0.693756 0.00770821 0)
(0.981768 0.0138858 0)
(1.14094 0.0188707 0)
(1.17118 0.024461 0)
(1.15327 0.0321582 0)
(1.13302 0.0406006 0)
(1.11513 0.049348 0)
(1.09784 0.0576913 0)
(1.08065 0.0646081 0)
(1.06682 0.0685447 0)
(1.06018 0.0693934 0)
(1.0597 0.0679948 0)
(1.06618 0.0661138 0)
(1.06976 0.0631758 0)
(1.01589 0.0546263 0)
(0.820058 0.0384217 0)
(0.519795 0.0193987 0)
(0.23858 0.00562185 0)
(0.0380823 0.000347648 0)
(0.128521 0.000609699 0)
(0.717779 0.0105975 0)
(1.00031 0.0192664 0)
(1.15574 0.0262004 0)
(1.18495 0.0331693 0)
(1.16631 0.0423505 0)
(1.14463 0.052088 0)
(1.12473 0.061988 0)
(1.10488 0.0711609 0)
(1.08469 0.078397 0)
(1.06797 0.0820757 0)
(1.0592 0.0824095 0)
(1.0575 0.0803903 0)
(1.06295 0.0778638 0)
(1.06106 0.0737395 0)
(0.988547 0.0626218 0)
(0.769948 0.0428204 0)
(0.467439 0.0209729 0)
(0.204422 0.00588718 0)
(0.0304861 0.000348453 0)
(0.140604 0.000852825 0)
(0.749913 0.014557 0)
(1.0259 0.0261727 0)
(1.17509 0.0354119 0)
(1.20167 0.0441273 0)
(1.18155 0.0551749 0)
(1.15791 0.0664389 0)
(1.13537 0.0775835 0)
(1.11234 0.0875103 0)
(1.08858 0.0948525 0)
(1.0686 0.098011 0)
(1.05754 0.097653 0)
(1.05465 0.0949748 0)
(1.05838 0.0917442 0)
(1.04905 0.0860465 0)
(0.953613 0.0715254 0)
(0.710901 0.0472239 0)
(0.409263 0.0222074 0)
(0.168305 0.00597781 0)
(0.0228253 0.000334119 0)
(0.157166 0.00123338 0)
(0.792179 0.020239 0)
(1.06021 0.0354023 0)
(1.19998 0.0474895 0)
(1.22221 0.0587101 0)
(1.19938 0.0717173 0)
(1.17294 0.0846607 0)
(1.14692 0.0969623 0)
(1.11995 0.107346 0)
(1.09206 0.114362 0)
(1.06851 0.116588 0)
(1.05505 0.115294 0)
(1.05109 0.111854 0)
(1.05246 0.107884 0)
(1.03238 0.100001 0)
(0.908926 0.080888 0)
(0.641642 0.051052 0)
(0.345725 0.0227576 0)
(0.131274 0.00581287 0)
(0.015423 0.000301722 0)
(0.180501 0.00189542 0)
(0.847845 0.0288324 0)
(1.10613 0.0485737 0)
(1.23147 0.064264 0)
(1.24704 0.0785393 0)
(1.21993 0.0936794 0)
(1.18948 0.108137 0)
(1.15896 0.121116 0)
(1.12727 0.131296 0)
(1.09477 0.137277 0)
(1.06742 0.137985 0)
(1.05155 0.135424 0)
(1.0466 0.131079 0)
(1.04481 0.126115 0)
(1.00905 0.11523 0)
(0.851854 0.0898903 0)
(0.56164 0.0534922 0)
(0.278504 0.0222694 0)
(0.0949845 0.00533853 0)
(0.00867625 0.000250197 0)
(0.214156 0.00336312 0)
(0.922822 0.0431434 0)
(1.16666 0.0696427 0)
(1.26989 0.0892329 0)
(1.27604 0.106812 0)
(1.24257 0.123538 0)
(1.20668 0.138551 0)
(1.17064 0.151064 0)
(1.13363 0.159914 0)
(1.0962 0.163848 0)
(1.06502 0.16229 0)
(1.04684 0.158045 0)
(1.04104 0.152669 0)
(1.03448 0.1464 0)
(0.976114 0.130978 0)
(0.779566 0.0972053 0)
(0.472294 0.0536401 0)
(0.211176 0.0205767 0)
(0.0617379 0.00456832 0)
(0.00305028 0.000180022 0)
(0.260099 0.00992187 1.89265e-20)
(1.02083 0.0714879 1.60592e-20)
(1.23925 0.105543 -5.50201e-21)
(1.31255 0.126599 0)
(1.30619 0.147367 -1.29385e-34)
(1.26503 0.163745 1.86412e-21)
(1.22294 0.177468 -3.19934e-21)
(1.18092 0.188053 0)
(1.13828 0.194497 6.2506e-35)
(1.09569 0.195643 -3.65671e-21)
(1.06053 0.191449 0)
(1.04033 0.185649 -4.22508e-21)
(1.03451 0.179966 -1.23923e-20)
(1.01879 0.172315 -5.83989e-21)
(0.92681 0.148859 -1.74353e-21)
(0.683353 0.102565 -1.03182e-21)
(0.369261 0.0511049 0)
(0.143682 0.0179676 7.2045e-22)
(0.0316658 0.00361463 8.53231e-22)
(-0.00156486 5.89651e-05 1.5626e-20)
(0.292531 0.0258859 1.57917e-20)
(1.1026 0.116386 1.21827e-22)
(1.29915 0.156655 1.55433e-21)
(1.35171 0.177893 0)
(1.33305 0.198543 -6.81169e-21)
(1.28483 0.212944 -7.54379e-21)
(1.2367 0.224588 -3.28562e-21)
(1.18878 0.233018 -1.11902e-20)
(1.14049 0.237192 0)
(1.0926 0.235892 1.55034e-20)
(1.05321 0.229445 1.51374e-20)
(1.03011 0.222066 4.43802e-21)
(1.02139 0.215821 1.59908e-20)
(0.987835 0.203173 2.2316e-20)
(0.843789 0.166582 0)
(0.548965 0.104463 3.11636e-20)
(0.253281 0.0463178 4.46421e-20)
(0.0780023 0.0141168 4.96611e-20)
(0.00450775 0.00159612 -5.69601e-20)
(-0.00546637 -0.000453546 -1.08748e-21)
(0.29507 0.0443238 0)
(1.15603 0.174282 3.18474e-21)
(1.34105 0.219148 0)
(1.38277 0.240389 -1.01473e-20)
(1.35477 0.257668 0)
(1.30062 0.268204 -1.52618e-20)
(1.24687 0.276231 6.79072e-21)
(1.19342 0.281314 -2.29006e-20)
(1.13987 0.282302 -3.36727e-22)
(1.08712 0.277895 8.05012e-21)
(1.044 0.268839 3.28465e-20)
(1.01838 0.259706 -2.14625e-23)
(1.00551 0.251803 -1.15178e-20)
(0.95153 0.23273 -2.07051e-20)
(0.761909 0.180648 2.44249e-20)
(0.444467 0.102982 -4.31377e-20)
(0.181832 0.0412943 -5.66344e-21)
(0.0420787 0.0104434 0)
(-0.00906107 -0.000621103 -3.04438e-24)
(-0.00717103 -0.00101933 0)
(0.288993 0.059729 5.36846e-20)
(1.18657 0.236118 -2.41763e-20)
(1.3683 0.286552 -1.61017e-20)
(1.40403 0.307989 5.07204e-21)
(1.36973 0.321092 -8.31132e-21)
(1.31122 0.327064 3.20537e-20)
(1.25295 0.33071 1.41999e-20)
(1.19483 0.331696 0)
(1.13673 0.328838 -4.12646e-20)
(1.07975 0.320798 0)
(1.0334 0.308816 -1.72043e-20)
(1.00555 0.297719 -2.08351e-20)
(0.987704 0.287173 -1.24046e-20)
(0.913359 0.259925 -1.48887e-20)
(0.688524 0.191795 0)
(0.368417 0.101422 0)
(0.13581 0.0375367 -3.65112e-20)
(0.0198674 0.00705798 7.19714e-21)
(-0.017313 -0.00292785 -4.25242e-21)
(-0.00816723 -0.00160311 -5.03653e-21)
(0.281229 0.0731534 -2.97351e-20)
(1.20152 0.297916 0)
(1.38441 0.354967 3.68349e-20)
(1.41658 0.376765 1.51359e-20)
(1.378 0.385782 1.84057e-20)
(1.31638 0.38715 0)
(1.25469 0.386256 1.42766e-20)
(1.19289 0.382878 2.53675e-20)
(1.13105 0.375842 2.1316e-20)
(1.07053 0.363855 3.70846e-20)
(1.02142 0.34875 0)
(0.991503 0.335476 -4.45031e-20)
(0.968201 0.32156 -2.65004e-20)
(0.874753 0.28508 -1.56003e-20)
(0.624956 0.201101 9.41273e-20)
(0.312923 0.100335 1.11056e-20)
(0.104482 0.0344068 5.23182e-20)
(0.00460324 0.00370035 -2.47244e-19)
(-0.0231128 -0.00532972 1.46442e-19)
(-0.00887772 -0.00219528 -1.78768e-19)
(0.273347 0.0851604 -2.45752e-20)
(1.2062 0.357583 5.62072e-21)
(1.39223 0.422351 -4.96887e-21)
(1.42214 0.444786 -1.85562e-20)
(1.38053 0.449946 -1.73972e-20)
(1.31665 0.446847 3.52946e-22)
(1.25237 0.441502 -1.53247e-20)
(1.18768 0.433763 2.63315e-20)
(1.12285 0.42247 -4.54898e-20)
(1.0594 0.406419 0)
(1.00799 0.388099 -2.032e-20)
(0.976194 0.372529 -3.0425e-22)
(0.947243 0.354709 -2.8694e-20)
(0.836784 0.308242 0)
(0.570596 0.208955 -2.02132e-20)
(0.27131 0.0996247 -4.7646e-20)
(0.0815643 0.0315015 1.26444e-19)
(-0.00675192 0.00026118 -1.24511e-19)
(-0.0274846 -0.00779618 1.76988e-19)
(-0.00940413 -0.00278424 -1.8624e-19)
(0.266235 0.0960829 -1.21162e-22)
(1.20408 0.414298 -4.9811e-21)
(1.39389 0.487583 -1.88828e-20)
(1.42214 0.510912 8.90833e-21)
(1.37838 0.512539 -8.9795e-21)
(1.31284 0.505197 0)
(1.24656 0.495582 -1.50195e-20)
(1.17957 0.483599 -2.76519e-20)
(1.11231 0.46809 -2.3768e-20)
(1.04645 0.447968 0)
(0.993149 0.426407 -2.10001e-20)
(0.959691 0.408468 -2.54413e-20)
(0.925187 0.386374 3.08072e-20)
(0.800019 0.329382 -1.8485e-20)
(0.524061 0.215669 -8.69028e-20)
(0.238798 0.0991208 5.11899e-20)
(0.0636195 0.0286023 1.50889e-20)
(-0.0158098 -0.00328935 0)
(-0.0309315 -0.0102862 -1.689e-19)
(-0.0097755 -0.00335289 -6.25511e-21)
(0.260104 0.106267 -2.74966e-21)
(1.19748 0.467819 4.68752e-21)
(1.39091 0.550079 9.76429e-21)
(1.41783 0.574467 2.94492e-20)
(1.37249 0.572913 -3.58155e-20)
(1.30574 0.56163 3.4426e-20)
(1.2379 0.547985 3.20856e-20)
(1.16905 0.531928 -4.40861e-20)
(1.09976 0.512304 1.3935e-20)
(1.03192 0.488141 -8.9734e-20)
(0.977099 0.463343 -2.33235e-20)
(0.942203 0.442994 0)
(0.90237 0.416351 3.31078e-20)
(0.764652 0.348531 3.92589e-20)
(0.483781 0.221435 4.65415e-20)
(0.212215 0.098637 -5.49324e-20)
(0.0486262 0.0255887 -1.61916e-20)
(-0.0235528 -0.0069467 1.91059e-20)
(-0.0338206 -0.0127879 0)
(-0.0100273 -0.00389114 -1.34143e-20)
(0.254894 0.115764 2.41322e-20)
(1.18813 0.51815 -1.74297e-20)
(1.38461 0.609883 -1.00043e-20)
(1.41019 0.635107 1.97723e-20)
(1.36367 0.630691 -1.77922e-20)
(1.29606 0.615781 -8.67773e-22)
(1.22699 0.598401 -3.46468e-20)
(1.1566 0.57849 -1.58229e-20)
(1.0856 0.554876 -4.08539e-20)
(1.01608 0.52672 1.91435e-23)
(0.960064 0.498665 -7.29664e-20)
(0.923972 0.475867 5.99858e-20)
(0.879113 0.444454 -3.58673e-20)
(0.730783 0.36575 4.25608e-20)
(0.448409 0.226316 0)
(0.18959 0.0980977 -2.94713e-20)
(0.0353305 0.022431 2.32779e-23)
(-0.0307085 -0.0107505 -8.20533e-20)
(-0.0365221 -0.0153398 -1.21401e-20)
(-0.0101987 -0.00439816 0)
(0.250598 0.124848 0)
(1.17713 0.565513 -1.78529e-20)
(1.37579 0.666786 -1.88884e-20)
(1.40006 0.69267 -2.00869e-20)
(1.35263 0.685676 -2.03889e-20)
(1.28439 0.667465 0)
(1.21434 0.646652 -1.68584e-20)
(1.14266 0.623136 -2.5585e-22)
(1.07017 0.595697 8.72137e-20)
(0.999215 0.563587 -1.2398e-20)
(0.942257 0.532232 -5.23936e-20)
(0.905205 0.506901 3.13104e-20)
(0.855699 0.470575 -3.92627e-22)
(0.69844 0.381036 4.52182e-20)
(0.416957 0.23038 2.69857e-20)
(0.169706 0.0974235 -6.31529e-20)
(0.0230422 0.0190687 7.44229e-20)
(-0.0378244 -0.0148184 2.199e-20)
(-0.0394229 -0.0180616 9.11483e-20)
(-0.0103882 -0.00490556 -2.46709e-19)
(0.247161 0.133685 3.75756e-21)
(1.16529 0.610078 -7.76963e-21)
(1.36516 0.720571 7.4378e-21)
(1.3881 0.747128 1.9712e-20)
(1.33994 0.737794 0)
(1.27125 0.716589 -1.81953e-20)
(1.20041 0.69265 5.54379e-20)
(1.12761 0.665798 3.51142e-20)
(1.05379 0.634725 0)
(0.981523 0.598703 -1.76251e-19)
(0.923816 0.563954 1.40672e-19)
(0.886043 0.535957 0)
(0.83236 0.494603 4.12659e-20)
(0.667767 0.394383 -2.91953e-22)
(0.388821 0.233653 -8.63932e-20)
(0.151915 0.0965412 3.38137e-20)
(0.0113688 0.0153938 0)
(-0.045188 -0.0192734 1.17818e-19)
(-0.0428211 -0.0211137 0)
(-0.0107077 -0.00547236 -1.15662e-19)
(0.244513 0.142285 -3.31491e-21)
(1.15317 0.652079 -6.57683e-21)
(1.35322 0.771308 8.35337e-21)
(1.37484 0.798513 0)
(1.3261 0.787062 -2.06693e-20)
(1.25708 0.763152 0)
(1.18558 0.736374 -5.6731e-20)
(1.11178 0.70646 -1.72285e-20)
(1.03672 0.671973 1.57764e-20)
(0.963188 0.632099 -8.70999e-20)
(0.904827 0.593799 1.46654e-20)
(0.866584 0.562914 0)
(0.809273 0.516353 -8.78024e-20)
(0.638816 0.405735 2.08046e-22)
(0.363699 0.236103 0)
(0.135919 0.095288 2.13772e-23)
(0.000231104 0.0112221 1.06767e-19)
(-0.0528355 -0.0242602 -1.00912e-19)
(-0.0468504 -0.024639 2.98772e-20)
(-0.0112516 -0.00616061 0)
(0.242335 0.150628 0)
(1.14104 0.691723 -5.73065e-21)
(1.34043 0.819126 -6.94675e-21)
(1.36072 0.846913 -5.36896e-22)
(1.3115 0.833537 -9.54389e-21)
(1.24224 0.807189 -4.13944e-20)
(1.17017 0.777852 2.0817e-20)
(1.09546 0.745151 -1.95805e-20)
(1.01919 0.707486 6.94144e-20)
(0.944353 0.66385 -1.39428e-19)
(0.88533 0.621793 -7.41339e-22)
(0.846833 0.58766 -3.90751e-20)
(0.786528 0.535653 1.4155e-19)
(0.611738 0.41508 -3.0815e-22)
(0.341428 0.237691 -6.60184e-20)
(0.121516 0.0934235 -1.16429e-19)
(-0.0101752 0.00646642 0)
(-0.0604866 -0.0298415 0)
(-0.0513618 -0.0286936 3.19827e-20)
(-0.0120332 -0.00700927 -1.89521e-20)
(0.24081 0.158913 -2.08905e-21)
(1.12909 0.72912 1.08089e-20)
(1.32716 0.864151 7.4187e-21)
(1.34609 0.892428 0)
(1.29645 0.877301 -3.14383e-22)
(1.22703 0.848768 -4.15329e-20)
(1.15447 0.817138 5.27669e-20)
(1.07891 0.781921 7.9782e-20)
(1.00142 0.741344 9.12741e-20)
(0.925163 0.694076 -1.14818e-19)
(0.865339 0.64803 -1.20753e-19)
(0.826712 0.610127 1.04491e-19)
(0.764163 0.552336 0)
(0.586635 0.422308 -3.01532e-20)
(0.321933 0.238358 -7.06952e-20)
(0.108746 0.0909296 -8.30685e-20)
(-0.019728 0.00119556 -9.7874e-20)
(-0.06783 -0.0359024 2.89177e-20)
(-0.0559904 -0.0331765 -1.71225e-20)
(-0.0129599 -0.00799933 4.94043e-24)
(0.239534 0.166973 0)
(1.1178 0.764191 0)
(1.31366 0.906503 5.13633e-22)
(1.3312 0.935173 0)
(1.28124 0.918466 2.99098e-20)
(1.21169 0.887979 3.13439e-20)
(1.13871 0.854303 0)
(1.06233 0.816837 9.98132e-21)
(0.983606 0.773626 1.54189e-19)
(0.905766 0.722923 -2.64299e-19)
(0.844857 0.672681 0)
(0.806063 0.630319 -6.73269e-20)
(0.742043 0.56616 -4.58685e-22)
(0.563572 0.427227 -2.31814e-22)
(0.305315 0.238073 7.55536e-20)
(0.0978 0.0883011 -8.38444e-24)
(-0.0286183 -0.00347527 -2.09531e-19)
(-0.0754114 -0.0414739 6.18904e-20)
(-0.0610429 -0.0377932 1.83357e-20)
(-0.0139881 -0.00908808 0)
(0.23852 0.17477 1.91462e-21)
(1.10693 0.797477 3.56246e-21)
(1.30005 0.946281 1.19391e-20)
(1.31628 0.975267 -3.44094e-20)
(1.26606 0.957124 5.03171e-20)
(1.19645 0.924912 0)
(1.12309 0.889428 3.42375e-20)
(1.04592 0.849974 -2.1944e-20)
(0.965922 0.804419 7.98201e-22)
(0.886309 0.750543 1.93308e-20)
(0.823898 0.695988 1.57892e-19)
(0.784676 0.648366 -2.38005e-20)
(0.719902 0.57692 -8.69185e-20)
(0.542591 0.429442 -3.46115e-20)
(0.292125 0.236549 4.04746e-20)
(0.0898914 0.0866367 -1.47322e-23)
(-0.0366076 -0.00474886 5.60502e-20)
(-0.0856878 -0.0447237 -1.32497e-19)
(-0.0696329 -0.0428714 1.57029e-19)
(-0.0159282 -0.0106763 2.32338e-20)
(0.237551 0.182311 1.58392e-22)
(1.09652 0.829028 1.44013e-21)
(1.28654 0.983631 1.34042e-21)
(1.30151 1.01285 -1.60743e-20)
(1.25108 0.993403 -9.37419e-21)
(1.18144 0.959661 -5.8307e-20)
(1.10776 0.922593 1.10976e-20)
(1.02983 0.8814 -9.28181e-20)
(0.948533 0.833792 -1.73659e-19)
(0.866936 0.777063 -1.59882e-19)
(0.802515 0.718226 0)
(0.762315 0.664548 -1.04193e-19)
(0.69725 0.584497 1.24946e-19)
(0.523438 0.428192 0)
(0.283392 0.232458 -8.65747e-20)
(0.0887024 0.0850434 5.07583e-20)
(-0.0385904 -0.00277788 -5.9928e-20)
(-0.0981722 -0.0470793 -7.091e-20)
(-0.0861416 -0.0510177 -1.26038e-19)
(-0.0209946 -0.0141751 -9.95013e-20)
(0.236944 0.189678 -1.04034e-21)
(1.08646 0.858878 -1.52057e-21)
(1.27324 1.01864 -5.84769e-21)
(1.28701 1.04802 -1.96839e-20)
(1.23643 1.02741 2.10219e-20)
(1.16679 0.992329 -3.55782e-20)
(1.09285 0.953874 3.63983e-20)
(1.0142 0.911191 -9.74936e-20)
(0.931572 0.861823 -1.04079e-19)
(0.847801 0.802603 1.69835e-19)
(0.780787 0.739677 3.51343e-19)
(0.73878 0.679298 0)
(0.673375 0.589 0)
(0.505125 0.422574 -3.97769e-20)
(0.279179 0.22381 0)
(0.0963037 0.0788048 1.08772e-19)
(-0.0270154 -0.00765838 1.28203e-19)
(-0.0992423 -0.0572867 0)
(-0.103484 -0.0655427 0)
(-0.030555 -0.0210807 1.06735e-19)
(0.236228 0.196622 2.16019e-21)
(1.07679 0.887063 1.3301e-21)
(1.26024 1.05145 -3.85008e-21)
(1.27286 1.08094 1.46651e-20)
(1.22221 1.05927 2.10973e-20)
(1.15261 1.02301 4.20741e-20)
(1.07846 0.983346 -5.13132e-20)
(0.999138 0.939405 -3.16694e-22)
(0.91517 0.888568 -1.06124e-21)
(0.829049 0.827252 -5.09336e-22)
(0.75885 0.760598 1.82192e-19)
(0.71395 0.693142 0)
(0.647487 0.590925 1.27391e-19)
(0.485718 0.412182 8.57298e-20)
(0.276223 0.207501 2.00317e-19)
(0.111084 0.0580828 5.84687e-20)
(0.0003331 -0.0338907 -6.87884e-20)
(-0.0670385 -0.0857943 -4.0812e-20)
(-0.0870633 -0.0832812 0)
(-0.035768 -0.027828 1.15023e-19)
(0.235873 0.203584 -6.84531e-21)
(1.06752 0.913692 0)
(1.24758 1.08211 -2.27399e-21)
(1.25913 1.11168 1.08852e-20)
(1.20849 1.08907 -2.04124e-20)
(1.13896 1.05178 -5.44547e-20)
(1.06466 1.01108 1.05896e-19)
(0.984719 0.966095 -7.3642e-21)
(0.899424 0.914073 0)
(0.810828 0.851064 -1.92081e-19)
(0.73688 0.781199 -4.02014e-19)
(0.687832 0.706665 1.59108e-20)
(0.618932 0.591127 1.78198e-19)
(0.463093 0.397689 0)
(0.269898 0.182422 1.35794e-19)
(0.122864 0.0201713 0)
(0.0300711 -0.0907825 0)
(-0.00836457 -0.144029 -4.38484e-20)
(0.00103403 -0.109112 0)
(0.0148522 -0.0091753 3.09865e-20)
(0.235292 0.210014 -9.25826e-21)
(1.0586 0.939104 0)
(1.23524 1.11084 -1.80258e-21)
(1.24579 1.14051 0)
(1.19524 1.11711 9.74665e-21)
(1.12579 1.07895 0)
(1.05142 1.03738 6.14323e-21)
(0.970868 0.991596 1.39987e-20)
(0.884237 0.9387 1.33762e-20)
(0.792994 0.874428 -2.138e-19)
(0.714692 0.802008 1.2387e-20)
(0.660051 0.720839 1.28135e-19)
(0.586809 0.590861 1.75219e-19)
(0.435028 0.380154 2.29447e-20)
(0.255693 0.150809 1.07262e-19)
(0.121528 -0.0307661 0)
(0.0435894 -0.167462 1.44135e-19)
(0.0268104 -0.164236 -8.47785e-20)
(0.0173997 0.0215127 9.99842e-20)
(-0.03871 0.468415 -1.18766e-19)
(0.234776 0.216286 8.6174e-21)
(1.04984 0.963149 9.97053e-21)
(1.22318 1.13798 0)
(1.23268 1.16787 9.75541e-22)
(1.18229 1.14395 -2.35182e-20)
(1.11283 1.1052 9.08841e-20)
(1.0384 1.06303 4.03393e-20)
(0.957168 1.01683 0)
(0.869069 0.963509 9.18425e-20)
(0.774863 0.898589 -1.15315e-20)
(0.691323 0.824407 0)
(0.629063 0.737111 0)
(0.548263 0.590916 1.59325e-19)
(0.397684 0.359574 -7.08365e-20)
(0.229914 0.114371 -1.10239e-19)
(0.105795 -0.0923055 0)
(0.0363334 -0.121672 7.32876e-20)
(-0.000788556 0.440575 -8.52018e-20)
(0.0254788 1.96084 -4.8472e-20)
(0.0507336 2.84201 -5.92495e-20)
(0.234024 0.222075 -7.63228e-21)
(1.0413 0.986005 -1.48775e-20)
(1.2114 1.16352 7.56536e-23)
(1.21984 1.19363 -5.13587e-21)
(1.1697 1.16941 0)
(1.1002 1.13026 6.12414e-20)
(1.02585 1.08775 6.01121e-20)
(0.943837 1.04138 -7.17487e-21)
(0.854239 0.988031 1.37374e-20)
(0.756882 0.923054 2.08314e-19)
(0.667485 0.848052 2.10807e-19)
(0.595884 0.756107 1.49103e-19)
(0.50359 0.593004 1.63096e-19)
(0.350051 0.336809 -1.70266e-19)
(0.19609 0.0807986 -1.69299e-19)
(0.072134 -0.0227377 0)
(0.0290197 0.948721 0)
(0.0725337 2.61301 4.16103e-20)
(0.0758186 3.22861 0)
(0.078585 3.39492 1.09855e-19)
(0.236185 0.227604 0)
(1.03339 1.00809 0)
(1.1996 1.18734 0)
(1.20708 1.21765 -6.88984e-22)
(1.15713 1.19324 -2.02189e-20)
(1.0877 1.15397 4.23212e-20)
(1.01369 1.11142 4.07116e-20)
(0.930817 1.06513 -7.23748e-21)
(0.839695 1.0121 1.20056e-19)
(0.73907 0.947681 -1.26957e-21)
(0.643335 0.872861 4.24938e-19)
(0.560964 0.77836 -1.72747e-20)
(0.452818 0.599427 2.04294e-20)
(0.291392 0.312498 2.49999e-20)
(0.144839 0.0813677 -1.10784e-21)
(0.0666301 1.06733 3.13475e-22)
(0.102383 2.79985 -2.24058e-19)
(0.106784 3.30711 -8.47224e-20)
(0.101571 3.4234 4.57886e-20)
(0.0943733 3.44198 -5.25157e-20)
(0.157935 0.172068 5.57588e-21)
(1.02081 1.03213 0)
(1.18754 1.20967 -3.95712e-21)
(1.19484 1.24039 9.04072e-21)
(1.14504 1.21592 -3.34717e-20)
(1.07603 1.17684 -4.31865e-20)
(1.00171 1.13408 -4.50028e-20)
(0.918143 1.08813 9.00849e-20)
(0.825532 1.0358 -1.01475e-19)
(0.721699 0.972613 0)
(0.619289 0.899002 2.14323e-19)
(0.524953 0.804139 -1.25414e-19)
(0.402316 0.628848 0)
(0.222735 0.29438 2.5186e-20)
(0.0985526 0.665743 5.76032e-20)
(0.115098 2.62324 -6.42873e-20)
(0.158826 3.32704 7.30258e-20)
(0.146647 3.42769 4.01279e-20)
(0.123738 3.44631 4.54568e-20)
(0.107218 3.45526 7.50394e-20)
(0.270335 0.264288 -9.9104e-21)
(1.00089 1.04055 0)
(1.16733 1.23482 6.98515e-21)
(1.17915 1.27166 -4.6635e-21)
(1.12647 1.24932 2.88381e-20)
(1.0569 1.21049 3.84727e-20)
(0.981336 1.16916 5.59283e-20)
(0.896969 1.12424 6.97847e-21)
(0.802385 1.07374 1.0213e-19)
(0.69433 1.01401 1.92935e-19)
(0.583035 0.944787 1.25307e-20)
(0.468428 0.843824 1.15851e-19)
(0.305094 0.633525 2.03588e-20)
(0.181519 0.780265 -2.49115e-20)
(0.188904 2.52646 -5.47182e-20)
(0.239921 3.32278 5.56979e-20)
(0.223372 3.44454 -6.20645e-20)
(0.191852 3.46503 -3.56351e-20)
(0.16119 3.49025 -3.53187e-20)
(0.118086 3.4877 -4.98591e-21)
(0.259853 0.262745 0)
(0.996721 1.06266 4.13115e-21)
(1.15757 1.2581 -2.07657e-21)
(1.16719 1.29512 -1.87787e-22)
(1.11454 1.27253 1.6169e-20)
(1.04493 1.23381 -3.57909e-20)
(0.968917 1.19257 -3.44665e-20)
(0.884051 1.14836 6.56679e-21)
(0.788337 1.09918 -1.09636e-19)
(0.677684 1.04212 -2.38739e-21)
(0.560691 0.977112 -4.04517e-19)
(0.434221 0.875991 1.66753e-20)
(0.270105 0.704953 -1.97046e-20)
(0.216872 1.51328 -2.35343e-20)
(0.284236 3.14941 3.51983e-21)
(0.294429 3.44136 -1.38083e-22)
(0.25632 3.48836 1.03479e-19)
(0.22458 3.51552 5.55123e-20)
(0.180375 3.53708 -2.39892e-20)
(0.132679 3.53574 -2.88871e-20)
(0.245298 0.260115 1.23377e-20)
(0.991556 1.08728 2.94976e-20)
(1.14738 1.28345 -5.92367e-21)
(1.15482 1.32021 -3.84425e-22)
(1.10211 1.29723 0)
(1.03253 1.25846 -4.25244e-20)
(0.956355 1.2174 -4.68701e-20)
(0.871244 1.17389 6.12622e-21)
(0.774716 1.12622 -1.21355e-20)
(0.662044 1.07234 -1.86009e-19)
(0.540422 1.01249 -1.92559e-19)
(0.403814 0.910166 -1.40518e-19)
(0.268213 0.876667 -1.51884e-19)
(0.287138 2.3558 1.54041e-19)
(0.368519 3.37012 1.34614e-19)
(0.336179 3.49117 0)
(0.291566 3.53321 0)
(0.256432 3.56907 -2.00913e-20)
(0.216504 3.61343 0)
(0.148727 3.60257 -3.66434e-20)
(0.234967 0.261448 -2.00851e-20)
(0.984402 1.11262 -2.71919e-20)
(1.13574 1.31001 0)
(1.14113 1.34612 1.17831e-21)
(1.08837 1.32258 9.67929e-21)
(1.019 1.2837 -5.60921e-20)
(0.942982 1.24288 -2.84044e-20)
(0.857857 1.20004 4.92335e-21)
(0.760779 1.15394 -8.55056e-20)
(0.646579 1.10343 9.87803e-21)
(0.521441 1.04903 0)
(0.373895 0.945992 0)
(0.290188 1.21054 -1.42447e-19)