/*--------------------------------*- C++ -*----------------------------------*\
  =========                 |
  \\      /  F ield         | OpenFOAM: The Open Source CFD Toolbox
   \\    /   O peration     | Website:  https://openfoam.org
    \\  /    A nd           | Version:  6
     \\/     M anipulation  |
\*---------------------------------------------------------------------------*/
FoamFile
{
    version     2.0;
    format      ascii;
    class       volVectorField;
    location    "41";
    object      U;
}
// * * * * * * * * * * * * * * * * * * * * * * * * * * * * * * * * * * * * * //

dimensions      [0 1 -1 0 0 0 0];

internalField   nonuniform List<vector> 
8800
(
(0.987188 -0.0766664 0)
(1.0019 -0.0551907 0)
(0.999747 -0.0285489 0)
(1.00004 -0.0151417 0)
(1.00006 -0.00853796 0)
(1.00006 -0.00503809 0)
(1.00004 -0.00300631 0)
(1.00001 -0.00172045 0)
(0.999996 -0.000818906 0)
(1.00005 -0.000105784 0)
(0.999988 0.000616338 0)
(0.999997 0.00137526 0)
(1.00001 0.00240206 0)
(1.00002 0.00398636 0)
(1.00002 0.00662613 0)
(1 0.0113654 0)
(0.999894 0.0208097 0)
(0.999147 0.0386679 0)
(1.00709 0.0724556 0)
(0.771213 0.0366606 0)
(0.363047 -0.0160195 0)
(1.04329 -0.0768283 0)
(1.0846 -0.0704682 0)
(1.04521 -0.0535692 0)
(1.02326 -0.0389226 0)
(1.01195 -0.0262474 0)
(1.00636 -0.0169049 0)
(1.00356 -0.0104015 0)
(1.00214 -0.00575782 0)
(1.00144 -0.00211486 0)
(1.00131 0.00120678 0)
(1.00168 0.0045876 0)
(1.00266 0.00852087 0)
(1.00463 0.01387 0)
(1.00858 0.0216006 0)
(1.01654 0.0325862 0)
(1.03246 0.0465058 0)
(1.06263 0.0616294 0)
(1.09188 0.0760779 0)
(0.838703 0.0565523 0)
(0.21678 -0.00243243 0)
(1.07586 -0.0501701 0)
(1.09987 -0.0483611 0)
(1.06462 -0.0405195 0)
(1.03996 -0.0336641 0)
(1.02381 -0.0261571 0)
(1.01404 -0.018613 0)
(1.0085 -0.0118221 0)
(1.00556 -0.00597582 0)
(1.00433 -0.000586452 0)
(1.00468 0.00464153 0)
(1.00661 0.0100328 0)
(1.0106 0.0161446 0)
(1.01792 0.0232047 0)
(1.03054 0.0307015 0)
(1.05063 0.0377542 0)
(1.08034 0.0444537 0)
(1.10628 0.0512876 0)
(0.942627 0.0415882 0)
(0.216235 0.00245809 0)
(0.175064 -0.000819664 0)
(1.01756 -0.0355334 0)
(1.10514 -0.0414583 0)
(1.07819 -0.0361596 0)
(1.05333 -0.0302403 0)
(1.03604 -0.0246908 0)
(1.02388 -0.0190056 0)
(1.01581 -0.0129619 0)
(1.01097 -0.00680316 0)
(1.0088 -0.000495028 0)
(1.0094 0.0057487 0)
(1.01268 0.0117467 0)
(1.01888 0.0176034 0)
(1.02878 0.0232205 0)
(1.04324 0.0285634 0)
(1.06377 0.0340747 0)
(1.09359 0.040076 0)
(1.0935 0.0418679 0)
(0.827401 0.0228723 0)
(0.174145 0.000848275 0)
(0.153811 -0.00061409 0)
(0.955902 -0.0255236 0)
(1.10333 -0.0352405 0)
(1.08755 -0.0327844 0)
(1.06154 -0.028142 0)
(1.0439 -0.0231465 0)
(1.03146 -0.0179612 0)
(1.02266 -0.0124852 0)
(1.0169 -0.00659502 0)
(1.01411 -0.000162297 0)
(1.01483 0.00627831 0)
(1.01882 0.0121576 0)
(1.02583 0.0174711 0)
(1.03614 0.0224289 0)
(1.05075 0.0272426 0)
(1.072 0.0318238 0)
(1.10018 0.0357979 0)
(1.06831 0.033906 0)
(0.740006 0.0142614 0)
(0.152431 0.000646433 0)
(0.139379 -0.000470548 0)
(0.898807 -0.0191528 0)
(1.09553 -0.0302198 0)
(1.09554 -0.0293735 0)
(1.06898 -0.0256844 0)
(1.05052 -0.0216031 0)
(1.03765 -0.0168908 0)
(1.0286 -0.0116488 0)
(1.02255 -0.00595034 0)
(1.01949 0.000327642 0)
(1.02018 0.00660779 0)
(1.02432 0.0122423 0)
(1.03146 0.0172546 0)
(1.04198 0.0217995 0)
(1.05717 0.0258236 0)
(1.0794 0.0293282 0)
(1.10248 0.0319854 0)
(1.03641 0.0279496 0)
(0.673726 0.0101435 0)
(0.137437 0.000507834 0)
(0.128772 -0.000365525 0)
(0.848985 -0.0148003 0)
(1.08298 -0.0261107 0)
(1.1011 -0.0264476 0)
(1.07572 -0.0231946 0)
(1.05674 -0.0196058 0)
(1.04342 -0.0154518 0)
(1.03402 -0.0106337 0)
(1.02775 -0.00518511 0)
(1.02452 0.000920215 0)
(1.0251 0.00701154 0)
(1.02922 0.0123616 0)
(1.03648 0.0169314 0)
(1.04732 0.0208354 0)
(1.06292 0.0241937 0)
(1.08558 0.0272199 0)
(1.10172 0.0290502 0)
(1.00182 0.0233778 0)
(0.622268 0.00775981 0)
(0.126147 0.000409219 0)
(0.120656 -0.000285375 0)
(0.806576 -0.0116522 0)
(1.0675 -0.022533 0)
(1.10451 -0.0238786 0)
(1.08188 -0.021069 0)
(1.06246 -0.017725 0)
(1.04885 -0.0138728 0)
(1.0392 -0.0093666 0)
(1.03267 -0.0041946 0)
(1.02922 0.00163692 0)
(1.02967 0.00741947 0)
(1.03376 0.0124171 0)
(1.0411 0.01656 0)
(1.05207 0.0200198 0)
(1.06793 0.0229767 0)
(1.09096 0.0256904 0)
(1.09812 0.0266175 0)
(0.966986 0.019766 0)
(0.581099 0.00620128 0)
(0.117202 0.00033723 0)
(0.114345 -0.000222424 0)
(0.770822 -0.00929396 0)
(1.05046 -0.0193669 0)
(1.10667 -0.0214663 0)
(1.08755 -0.0190509 0)
(1.06779 -0.015868 0)
(1.05397 -0.0122095 0)
(1.04411 -0.00796222 0)
(1.03731 -0.00307545 0)
(1.03362 0.00249936 0)
(1.03389 0.00799596 0)
(1.03793 0.0125963 0)
(1.04527 0.016295 0)
(1.05626 0.0193451 0)
(1.0723 0.0219773 0)
(1.09502 0.0243791 0)
(1.09177 0.0245372 0)
(0.933266 0.0169416 0)
(0.547236 0.00512398 0)
(0.109883 0.000284743 0)
(0.109407 -0.000172068 0)
(0.740787 -0.00746267 0)
(1.033 -0.0165701 0)
(1.10794 -0.0192087 0)
(1.09297 -0.0170865 0)
(1.07288 -0.0139973 0)
(1.05878 -0.0104626 0)
(1.04875 -0.00637913 0)
(1.0418 -0.00170955 0)
(1.03788 0.00355423 0)
(1.0379 0.00866983 0)
(1.04172 0.0128862 0)
(1.04892 0.0162202 0)
(1.05993 0.0189212 0)
(1.07625 0.0212574 0)
(1.09793 0.0233417 0)
(1.08315 0.0227758 0)
(0.901287 0.0147539 0)
(0.518672 0.00435648 0)
(0.103722 0.000246952 0)
(0.105558 -0.000129853 0)
(0.71568 -0.00597591 0)
(1.01587 -0.0140331 0)
(1.10827 -0.0170231 0)
(1.09822 -0.0152639 0)
(1.07789 -0.0122351 0)
(1.06353 -0.00871655 0)
(1.05329 -0.00469666 0)
(1.0461 -0.000188996 0)
(1.04188 0.00480909 0)
(1.04161 0.0095751 0)
(1.04522 0.0134088 0)
(1.05227 0.0164021 0)
(1.06326 0.0188291 0)
(1.07972 0.0209043 0)
(1.09952 0.022551 0)
(1.07259 0.0212866 0)
(0.871208 0.0130648 0)
(0.494012 0.00380465 0)
(0.0983812 0.000220551 0)
(0.102615 -9.33104e-05 0)
(0.694883 -0.0047232 0)
(0.999779 -0.0117084 0)
(1.10787 -0.0148085 0)
(1.10321 -0.0132162 0)
(1.08282 -0.0101809 0)
(1.06817 -0.0067463 0)
(1.05768 -0.00285429 0)
(1.05022 0.00151423 0)
(1.04567 0.00632505 0)
(1.04502 0.0108159 0)
(1.0483 0.0143037 0)
(1.05516 0.0169063 0)
(1.06614 0.0189404 0)
(1.08277 0.0206988 0)
(1.10019 0.0219828 0)
(1.06051 0.0200848 0)
(0.842981 0.0117994 0)
(0.472228 0.00341831 0)
(0.0936211 0.000203819 0)
(0.100456 -5.98324e-05 0)
(0.677938 -0.00361728 0)
(0.985144 -0.00952703 0)
(1.10702 -0.0126029 0)
(1.10804 -0.0111808 0)
(1.08775 -0.00812014 0)
(1.07272 -0.00462979 0)
(1.06195 -0.000709697 0)
(1.05417 0.00358825 0)
(1.0492 0.00816385 0)
(1.04811 0.012288 0)
(1.05102 0.0153919 0)
(1.05762 0.0176375 0)
(1.06857 0.0193533 0)
(1.08535 0.0208544 0)
(1.09986 0.0217561 0)
(1.04714 0.019184 0)
(0.816358 0.0108706 0)
(0.452535 0.00315443 0)
(0.089246 0.000194266 0)
(0.0990242 -2.65455e-05 0)
(0.664581 -0.00257728 0)
(0.97235 -0.00737975 0)
(1.10584 -0.0102164 0)
(1.11263 -0.0089071 0)
(1.09277 -0.00583211 0)
(1.07738 -0.00224566 0)
(1.06622 0.0017285 0)
(1.05795 0.00597154 0)
(1.05243 0.0104026 0)
(1.05079 0.0142638 0)
(1.05329 0.0169648 0)
(1.0597 0.0188336 0)
(1.07061 0.0202056 0)
(1.08737 0.021347 0)
(1.09845 0.0217798 0)
(1.0326 0.0185058 0)
(0.791061 0.0102078 0)
(0.434327 0.00298459 0)
(0.085105 0.000190498 0)
(0.0983088 8.35527e-06 0)
(0.654681 -0.0015461 0)
(0.961786 -0.00521302 0)
(1.10485 -0.0076166 0)
(1.11721 -0.00624881 0)
(1.0979 -0.00307154 0)
(1.08215 0.000606828 0)
(1.07055 0.00461705 0)
(1.0618 0.00886018 0)
(1.05567 0.0131366 0)
(1.05333 0.0166522 0)
(1.05525 0.0189433 0)
(1.06129 0.0203157 0)
(1.07211 0.0212091 0)
(1.08885 0.0220437 0)
(1.09586 0.0220428 0)
(1.01708 0.0181132 0)
(0.766802 0.00979518 0)
(0.417126 0.00289932 0)
(0.081089 0.000192268 0)
(0.098323 3.97041e-05 0)
(0.648233 -0.000491597 0)
(0.953723 -0.00296351 0)
(1.10437 -0.00480349 0)
(1.12202 -0.00334154 0)
(1.10326 -3.96484e-05 0)
(1.08701 0.00380923 0)
(1.07495 0.00800671 0)
(1.06558 0.0123349 0)
(1.05862 0.016478 0)
(1.05547 0.0196412 0)
(1.05675 0.0214954 0)
(1.06234 0.0224285 0)
(1.07304 0.0228645 0)
(1.08963 0.0232299 0)
(1.09202 0.0226932 0)
(1.00054 0.0180173 0)
(0.743198 0.00960237 0)
(0.400493 0.00289146 0)
(0.077072 0.000199641 0)
(0.0991479 9.02884e-05 0)
(0.645371 0.000609829 0)
(0.948476 -0.000544553 0)
(1.10459 -0.00164133 0)
(1.12702 -1.84934e-05 0)
(1.10888 0.0034445 0)
(1.09217 0.00759211 0)
(1.07948 0.0120293 0)
(1.06932 0.016457 0)
(1.06139 0.0205454 0)
(1.05723 0.0234233 0)
(1.05768 0.0247643 0)
(1.06278 0.0251202 0)
(1.0733 0.0250451 0)
(1.08931 0.0249213 0)
(1.08672 0.0236639 0)
(0.982857 0.0182019 0)
(0.719901 0.00963323 0)
(0.38402 0.00295698 0)
(0.0729553 0.000211626 0)
(0.10092 0.000142577 0)
(0.646411 0.00180235 0)
(0.946502 0.00210608 0)
(1.10609 0.00200556 0)
(1.13245 0.00405348 0)
(1.11492 0.00783787 0)
(1.09769 0.0122816 0)
(1.08421 0.0169557 0)
(1.07304 0.0215334 0)
(1.06388 0.0255396 0)
(1.05849 0.0280204 0)
(1.05802 0.0287666 0)
(1.06252 0.0284755 0)
(1.07279 0.0277774 0)
(1.0879 0.0270593 0)
(1.07975 0.0250097 0)
(0.964036 0.0187489 0)
(0.696495 0.00989068 0)
(0.367309 0.0030976 0)
(0.0686386 0.000228666 0)
(0.103769 0.000202829 0)
(0.651862 0.00324371 0)
(0.948252 0.00510114 0)
(1.10945 0.00612205 0)
(1.13876 0.00870641 0)
(1.12154 0.0129283 0)
(1.10363 0.0177949 0)
(1.08932 0.0228603 0)
(1.07709 0.0277039 0)
(1.0665 0.0316448 0)
(1.05955 0.0336837 0)
(1.05781 0.0338158 0)
(1.06145 0.0327775 0)
(1.07138 0.0313731 0)
(1.08525 0.0299229 0)
(1.07105 0.0269635 0)
(0.943742 0.0197197 0)
(0.672499 0.0104108 0)
(0.349934 0.00332003 0)
(0.064013 0.000250783 0)
(0.10797 0.000287698 0)
(0.662167 0.00496275 0)
(0.953918 0.00851015 0)
(1.1149 0.0109364 0)
(1.14592 0.0140923 0)
(1.12887 0.0188781 0)
(1.11016 0.0243991 0)
(1.0947 0.0300359 0)
(1.08088 0.0351998 0)
(1.0684 0.0391285 0)
(1.05967 0.0407055 0)
(1.05663 0.0400406 0)
(1.05933 0.0381889 0)
(1.06882 0.036028 0)
(1.0811 0.0337358 0)
(1.0602 0.0295365 0)
(0.92163 0.0211773 0)
(0.647338 0.0112136 0)
(0.33143 0.00362123 0)
(0.0589855 0.000275573 0)
(0.113872 0.000399559 0)
(0.677995 0.00707132 0)
(0.964564 0.0126962 0)
(1.12305 0.0166936 0)
(1.15431 0.0207351 0)
(1.13725 0.0263755 0)
(1.11762 0.0326701 0)
(1.10074 0.0389454 0)
(1.08513 0.0444831 0)
(1.07046 0.048286 0)
(1.05946 0.049193 0)
(1.05468 0.047625 0)
(1.05621 0.0448354 0)
(1.06505 0.0417756 0)
(1.07528 0.0385633 0)
(1.04689 0.0329642 0)
(0.897256 0.0233183 0)
(0.620261 0.0123853 0)
(0.311241 0.00401976 0)
(0.0534749 0.000302933 0)
(0.12195 0.00055267 0)
(0.700142 0.0097602 0)
(0.980709 0.0177361 0)
(1.13465 0.0235428 0)
(1.16463 0.0288161 0)
(1.14698 0.0356668 0)
(1.12606 0.0429024 0)
(1.10731 0.0499278 0)
(1.08932 0.0558586 0)
(1.07189 0.0594676 0)
(1.0583 0.0595315 0)
(1.05158 0.0568374 0)
(1.05184 0.0529237 0)
(1.05994 0.0488766 0)
(1.06764 0.0447207 0)
(1.03082 0.0375583 0)
(0.869899 0.0263194 0)
(0.590285 0.0140189 0)
(0.288656 0.00452991 0)
(0.0473882 0.000333209 0)
(0.132907 0.000774239 0)
(0.729712 0.0133769 0)
(1.0033 0.024075 0)
(1.15038 0.0319834 0)
(1.17748 0.0387814 0)
(1.15842 0.0472176 0)
(1.13564 0.0556601 0)
(1.11446 0.0635898 0)
(1.0935 0.0698747 0)
(1.07274 0.0730716 0)
(1.05618 0.0720191 0)
(1.04721 0.067947 0)
(1.04597 0.0627637 0)
(1.05332 0.0575581 0)
(1.05801 0.0523276 0)
(1.01146 0.043469 0)
(0.838727 0.0302832 0)
(0.556209 0.0161091 0)
(0.262934 0.00513138 0)
(0.0406325 0.00036486 0)
(0.147931 0.00112215 0)
(0.768544 0.0185799 0)
(1.03384 0.0325708 0)
(1.17106 0.0430194 0)
(1.19361 0.0518387 0)
(1.17205 0.0621055 0)
(1.14667 0.0719311 0)
(1.12225 0.0807077 0)
(1.09761 0.08708 0)
(1.07294 0.0895276 0)
(1.05296 0.0869944 0)
(1.04152 0.0812119 0)
(1.03863 0.0745516 0)
(1.04489 0.0680453 0)
(1.04593 0.0615316 0)
(0.988218 0.050774 0)
(0.802735 0.0352296 0)
(0.516815 0.0185535 0)
(0.233548 0.00576936 0)
(0.0331814 0.000393632 0)
(0.169121 0.00172648 0)
(0.819632 0.0265223 0)
(1.07512 0.0448201 0)
(1.19777 0.0585868 0)
(1.21357 0.0702323 0)
(1.18797 0.0823157 0)
(1.15881 0.0933932 0)
(1.13009 0.10253 0)
(1.10094 0.108298 0)
(1.07182 0.109174 0)
(1.04813 0.104476 0)
(1.03413 0.0966591 0)
(1.02956 0.0883166 0)
(1.03438 0.0804774 0)
(1.03091 0.0724532 0)
(0.960275 0.0594726 0)
(0.760634 0.0409337 0)
(0.471257 0.0211452 0)
(0.200481 0.00635159 0)
(0.0251439 0.000411001 0)
(0.199797 0.00306636 0)
(0.888611 0.0399441 0)
(1.13002 0.0646385 0)
(1.23104 0.0822084 0)
(1.23741 0.0968443 0)
(1.20569 0.110298 0)
(1.17131 0.121695 0)
(1.13728 0.130037 0)
(1.10294 0.134067 0)
(1.06896 0.132281 0)
(1.04144 0.124602 0)
(1.02489 0.11428 0)
(1.01881 0.104077 0)
(1.0221 0.0948258 0)
(1.01259 0.0851449 0)
(0.926314 0.069322 0)
(0.711157 0.0469631 0)
(0.419765 0.0236622 0)
(0.164841 0.0068135 0)
(0.0169348 0.000407124 0)
(0.241676 0.00921231 1.1424e-20)
(0.979409 0.0666586 9.75305e-21)
(1.19621 0.0985151 -3.37773e-21)
(1.26823 0.11756 0)
(1.26244 0.135041 -8.32053e-35)
(1.22308 0.148068 1.20941e-21)
(1.1826 0.158008 -2.14371e-21)
(1.14264 0.164211 0)
(1.10266 0.165544 4.32341e-35)
(1.06341 0.160565 -2.58087e-21)
(1.0317 0.149679 0)
(1.01231 0.136737 -3.03158e-21)
(1.00459 0.124531 -8.92197e-21)
(1.00627 0.114016 -4.21037e-21)
(0.988658 0.102571 -1.2654e-21)
(0.882175 0.0828518 -7.51697e-22)
(0.649066 0.0548224 0)
(0.359749 0.0268761 5.27882e-22)
(0.127542 0.00792272 6.25455e-22)
(0.00913831 0.000545443 1.13952e-20)
(0.270341 0.02434 8.83089e-21)
(1.0542 0.108936 1.05773e-22)
(1.25017 0.147001 9.23158e-22)
(1.30211 0.165994 0)
(1.28446 0.183402 -4.30086e-21)
(1.23799 0.194332 -4.83672e-21)
(1.19137 0.202091 -2.1819e-21)
(1.14539 0.206039 -7.65819e-21)
(1.09948 0.204895 0)
(1.05435 0.197091 1.10103e-20)
(1.01748 0.183194 1.08605e-20)
(0.994206 0.167727 3.21871e-21)
(0.983391 0.153375 1.16695e-20)
(0.979955 0.140078 1.63351e-20)
(0.951868 0.125033 0)
(0.823083 0.100647 2.30677e-20)
(0.576445 0.0652476 3.31845e-20)
(0.298669 0.0316449 3.69651e-20)
(0.0939302 0.0092824 -4.24361e-20)
(0.00250186 0.000299382 -8.0647e-22)
(0.271431 0.0407249 0)
(1.10134 0.163873 1.63808e-21)
(1.2866 0.206467 0)
(1.32829 0.225413 -5.91393e-21)
(1.30163 0.23963 0)
(1.24921 0.246771 -9.64219e-21)
(1.19696 0.251035 4.49427e-21)
(1.14528 0.251785 -1.55554e-20)
(1.09368 0.247359 -3.15331e-22)
(1.04277 0.235868 5.7337e-21)
(1.00071 0.218154 2.39083e-20)
(0.973531 0.199535 -6.0227e-23)
(0.959608 0.183114 -8.49041e-21)
(0.952233 0.168734 -1.54446e-20)
(0.916456 0.151243 1.83067e-20)
(0.779567 0.120926 -3.24871e-20)
(0.536744 0.0782797 -4.31281e-21)
(0.275907 0.0385861 0)
(0.0867285 0.0117117 7.89155e-27)
(0.00147603 0.000186199 0)
(0.265004 0.0546563 2.43173e-20)
(1.12659 0.222552 -1.13574e-20)
(1.30919 0.270854 -8.14523e-21)
(1.34525 0.290217 2.86404e-21)
(1.31248 0.300479 -4.7739e-21)
(1.25575 0.303335 2.0311e-20)
(1.19894 0.303559 9.43527e-21)
(1.14229 0.300457 0)
(1.08542 0.292127 -2.90616e-20)
(1.02901 0.276507 0)
(0.982045 0.255228 -1.26072e-20)
(0.951184 0.234324 -1.54596e-20)
(0.93487 0.216733 -9.26815e-21)
(0.924613 0.201163 -1.12398e-20)
(0.883045 0.179812 0)
(0.74728 0.14365 0)
(0.519006 0.0952903 -2.82529e-20)
(0.276418 0.0499429 5.59873e-21)
(0.0929395 0.0164574 -3.28177e-21)
(0.00333761 0.000572968 -3.88635e-21)
(0.257704 0.0670237 -1.15772e-20)
(1.13773 0.281202 0)
(1.32173 0.336434 1.75841e-20)
(1.35429 0.356523 8.29143e-21)
(1.31724 0.363078 1.08998e-20)
(1.25745 0.361777 0)
(1.1971 0.357909 9.35367e-21)
(1.13629 0.350675 1.73488e-20)
(1.07482 0.338214 1.49754e-20)
(1.01363 0.318645 2.70677e-20)
(0.962392 0.294532 0)
(0.928305 0.272148 -3.34043e-20)
(0.909179 0.253306 -2.0067e-20)
(0.894763 0.235147 -1.18501e-20)
(0.849271 0.209312 7.27528e-20)
(0.721567 0.168939 8.70171e-21)
(0.51193 0.116062 4.10837e-20)
(0.284877 0.0643556 -1.94861e-19)
(0.104719 0.0236305 1.15599e-19)
(0.00704301 0.00163866 -1.41106e-19)
(0.250916 0.0782066 -7.82432e-21)
(1.14005 0.337925 2.14741e-21)
(1.32711 0.401253 -2.11972e-21)
(1.3572 0.422411 -9.12002e-21)
(1.31698 0.425596 -9.62908e-21)
(1.25492 0.420368 3.55411e-22)
(1.1917 0.412471 -1.01251e-20)
(1.12745 0.401113 1.80316e-20)
(1.06216 0.384613 -3.22407e-20)
(0.997026 0.361437 0)
(0.942309 0.334682 -1.5182e-20)
(0.90514 0.310348 -3.23649e-22)
(0.882453 0.289358 -2.19441e-20)
(0.863026 0.267912 0)
(0.815599 0.23876 -1.57636e-20)
(0.699026 0.195784 -3.76126e-20)
(0.507584 0.138976 1.01037e-19)
(0.294428 0.0808289 -9.96323e-20)
(0.116848 0.0322815 1.41811e-19)
(0.0109594 0.00314739 -1.49241e-19)
(0.245347 0.0886146 -1.04915e-22)
(1.1369 0.392041 -1.39656e-21)
(1.3274 0.46423 -6.9515e-21)
(1.35548 0.486687 3.97341e-21)
(1.31282 0.486859 -4.90247e-21)
(1.24895 0.477933 0)
(1.18335 0.466128 -9.60053e-21)
(1.11623 0.450825 -1.89259e-20)
(1.04783 0.430533 -1.68077e-20)
(0.979468 0.403897 0)
(0.921714 0.374116 -1.57906e-20)
(0.881534 0.346887 -1.94456e-20)
(0.855002 0.322827 2.37887e-20)
(0.831241 0.298303 -1.44275e-20)
(0.783967 0.267123 -6.87148e-20)
(0.677741 0.222643 4.11176e-20)
(0.502018 0.162362 1.23565e-20)
(0.301275 0.0976857 0)
(0.126335 0.0413763 -1.37005e-19)
(0.0141558 0.0047874 -5.08723e-21)
(0.241049 0.0985549 -4.44425e-22)
(1.13041 0.443384 9.17145e-22)
(1.32395 0.524781 3.4379e-21)
(1.35028 0.548655 1.36942e-20)
(1.30567 0.546121 -1.86389e-20)
(1.24029 0.533724 2.03059e-20)
(1.1727 0.518227 2.06329e-20)
(1.10322 0.499261 -3.02385e-20)
(1.03222 0.475458 1.02338e-20)
(0.961031 0.445343 -6.65614e-20)
(0.900414 0.411969 -1.7787e-20)
(0.857312 0.381225 0)
(0.827265 0.353857 2.5764e-20)
(0.800233 0.32692 3.08195e-20)
(0.753976 0.294423 3.69168e-20)
(0.656775 0.248625 -4.45639e-20)
(0.493917 0.184955 -1.3236e-20)
(0.303364 0.113961 1.56028e-20)
(0.131904 0.0499173 0)
(0.0163488 0.0063259 -1.10204e-20)
(0.237855 0.108116 -7.9922e-23)
(1.12208 0.491995 -1.5167e-21)
(1.31797 0.583241 -3.29561e-21)
(1.34247 0.60795 8.66148e-21)
(1.29626 0.602932 -8.71716e-21)
(1.2296 0.587293 -8.21424e-22)
(1.16035 0.568426 -2.24494e-20)
(1.08892 0.546165 -1.09155e-20)
(1.01566 0.519113 -2.91469e-20)
(0.941836 0.485449 4.92822e-23)
(0.878385 0.448118 -5.57379e-20)
(0.832534 0.413655 4.67011e-20)
(0.799628 0.383239 -2.8221e-20)
(0.770438 0.354469 3.38633e-20)
(0.725454 0.321073 0)
(0.63462 0.273695 -2.40877e-20)
(0.482504 0.206399 -1.02888e-22)
(0.30041 0.128648 -6.7785e-20)
(0.13269 0.0570637 -1.00099e-20)
(0.0173049 0.00751953 0)
(0.235655 0.117501 0)
(1.1128 0.5381 -8.22463e-22)
(1.30989 0.63882 -4.67816e-21)
(1.33273 0.664391 -8.27185e-21)
(1.28517 0.657074 -1.06137e-20)
(1.21742 0.638447 0)
(1.14682 0.61658 -1.04141e-20)
(1.07373 0.591422 -2.3752e-22)
(0.998422 0.561379 6.23822e-20)
(0.922006 0.52414 -9.15894e-21)
(0.855745 0.482749 -4.02003e-20)
(0.807365 0.444611 2.43266e-20)
(0.772255 0.411387 -4.21986e-22)
(0.741773 0.380909 3.59839e-20)
(0.697927 0.346253 2.21808e-20)
(0.611794 0.296443 -5.1967e-20)
(0.467922 0.224893 6.17976e-20)
(0.292638 0.140471 1.83339e-20)
(0.129714 0.062021 7.59355e-20)
(0.0171172 0.0081883 -2.05492e-19)
(0.234373 0.126836 -1.72369e-21)
(1.10321 0.581895 1.26232e-21)
(1.30036 0.691608 -4.18629e-23)
(1.32154 0.717933 7.12696e-21)
(1.27285 0.708464 0)
(1.20421 0.687127 -9.74294e-21)
(1.13251 0.662662 3.46666e-20)
(1.058 0.634989 2.39562e-20)
(0.980747 0.602203 0)
(0.901725 0.561469 -1.3141e-19)
(0.832654 0.51608 1.08517e-19)
(0.781941 0.474387 0)
(0.745107 0.438461 3.28552e-20)
(0.713786 0.406102 -4.14782e-22)
(0.670699 0.369637 -7.07367e-20)
(0.587899 0.316746 2.77574e-20)
(0.450181 0.240414 0)
(0.280649 0.149202 9.87602e-20)
(0.123176 0.0646195 0)
(0.0158913 0.00829449 -9.7039e-20)
(0.233841 0.136157 2.56147e-21)
(1.0937 0.62356 3.03912e-21)
(1.28976 0.741613 3.01861e-22)
(1.30933 0.768574 0)
(1.25969 0.757119 -9.527e-21)
(1.19037 0.733373 0)
(1.11778 0.706692 -3.45423e-20)
(1.04199 0.67685 -1.12853e-20)
(0.962851 0.641572 1.10525e-20)
(0.8812 0.597525 -6.49686e-20)
(0.80929 0.548301 1.12268e-20)
(0.756351 0.50314 0)
(0.718068 0.464464 -7.01233e-20)
(0.686121 0.429961 4.18136e-22)
(0.64344 0.391209 0)
(0.562799 0.334658 4.00816e-22)
(0.429444 0.252624 8.97483e-20)
(0.26478 0.15448 -8.52415e-20)
(0.113713 0.0651324 2.52374e-20)
(0.0140229 0.00793545 0)
(0.233731 0.145368 0)
(1.0845 0.663196 4.58382e-21)
(1.27847 0.788921 1.63577e-21)
(1.29641 0.816378 -4.87427e-22)
(1.24601 0.803096 -3.64221e-21)
(1.17619 0.777252 -2.17544e-20)
(1.10289 0.74871 1.28215e-20)
(1.02592 0.717002 -1.31534e-20)
(0.944943 0.679476 4.90966e-20)
(0.860622 0.63238 -1.03705e-19)
(0.785802 0.579545 -7.21618e-22)
(0.730629 0.530953 -3.08374e-20)
(0.691033 0.489362 1.13619e-19)
(0.658561 0.452401 -4.89246e-22)
(0.616011 0.4108 -5.47299e-20)
(0.536489 0.349823 -9.79523e-20)
(0.406011 0.261358 0)
(0.245604 0.156252 0)
(0.101938 0.0633926 2.72155e-20)
(0.0117153 0.00713478 -1.61478e-20)
(0.234162 0.15458 4.69651e-21)
(1.07581 0.700687 -1.14587e-20)
(1.26677 0.833609 -1.84352e-21)
(1.28307 0.861412 0)
(1.23207 0.84648 -3.2835e-22)
(1.16192 0.818845 -2.04382e-20)
(1.08806 0.788756 3.13224e-20)
(1.01 0.755446 5.21776e-20)
(0.927204 0.715928 6.38805e-20)
(0.840189 0.666096 -8.47439e-20)
(0.762345 0.609914 -9.3022e-20)
(0.704824 0.557907 8.24516e-20)
(0.6639 0.513168 0)
(0.630905 0.473328 -2.48294e-20)
(0.588227 0.428268 -5.9189e-20)
(0.509015 0.362053 -7.02962e-20)
(0.380236 0.266342 -8.36155e-20)
(0.223922 0.154529 2.47911e-20)
(0.0884898 0.0594225 -1.46379e-20)
(0.00904587 0.0059215 5.66226e-23)
(0.234907 0.163596 0)
(1.06773 0.73656 0)
(1.25488 0.875764 5.4686e-22)
(1.26952 0.903765 0)
(1.21806 0.887374 9.30454e-21)
(1.14775 0.858238 1.4293e-20)
(1.07344 0.826865 0)
(0.994369 0.792184 6.26049e-21)
(0.90981 0.750932 1.06658e-19)
(0.82009 0.698718 -1.94698e-19)
(0.739086 0.639499 0)
(0.678995 0.584112 -5.29938e-20)
(0.636578 0.535936 -5.92581e-22)
(0.602961 0.492709 -4.76515e-22)
(0.55995 0.443496 6.32129e-20)
(0.480418 0.371179 -7.08947e-23)
(0.352195 0.267477 -1.79918e-19)
(0.200177 0.149282 5.33176e-20)
(0.0744495 0.0537619 1.58144e-20)
(0.00635786 0.00447188 0)
(0.235695 0.172484 -2.16959e-20)
(1.06002 0.770787 -9.33937e-21)
(1.24291 0.91545 -9.58012e-21)
(1.25596 0.943542 1.38929e-21)
(1.20419 0.925865 1.31699e-20)
(1.13384 0.895499 0)
(1.05917 0.86307 1.91312e-20)
(0.979163 0.827225 -1.38579e-20)
(0.892907 0.784502 7.86557e-22)
(0.800502 0.730287 1.4299e-20)
(0.716184 0.668384 1.20346e-19)
(0.653223 0.609711 -1.86041e-20)
(0.60898 0.557809 -6.99261e-20)
(0.574507 0.510554 -2.88893e-20)
(0.530996 0.456277 3.43736e-20)
(0.450807 0.37687 -3.37084e-23)
(0.322946 0.264654 4.84871e-20)
(0.175805 0.141027 -1.14672e-19)
(0.0605382 0.0468928 1.36067e-19)
(0.00380379 0.00291231 2.00916e-20)
(0.236282 0.181151 8.65163e-21)
(1.05271 0.80346 -5.56172e-21)
(1.23104 0.952788 1.29553e-21)
(1.24255 0.98087 3.31348e-21)
(1.19056 0.96207 -1.40081e-21)
(1.12028 0.930696 -2.52069e-20)
(1.04535 0.8974 5.71317e-21)
(0.96449 0.860572 -5.78562e-20)
(0.876629 0.816633 -1.17641e-19)
(0.781576 0.760809 -1.16074e-19)
(0.693806 0.696632 0)
(0.6276 0.634857 -8.14465e-20)
(0.581043 0.579017 1.00636e-19)
(0.545263 0.526934 0)
(0.501059 0.466318 -7.35775e-20)
(0.420254 0.378577 4.40391e-20)
(0.293208 0.257591 -5.20907e-20)
(0.152053 0.130158 -6.17199e-20)
(0.0476672 0.0393845 -1.09603e-19)
(0.0015516 0.00137832 -8.65333e-20)
(0.23722 0.18968 -1.02108e-20)
(1.04568 0.834561 5.96728e-21)
(1.21938 0.987845 1.29243e-20)
(1.2294 1.01584 6.33065e-21)
(1.17729 0.996081 3.7231e-21)
(1.10717 0.963901 -1.39612e-20)
(1.03206 0.929885 1.8907e-20)
(0.950433 0.892248 -5.95872e-20)
(0.861065 0.847339 -6.96583e-20)
(0.763446 0.790295 1.21468e-19)
(0.672098 0.724294 2.64148e-19)
(0.602248 0.659696 0)
(0.55277 0.599843 0)
(0.514903 0.542088 -3.3268e-20)
(0.469566 0.473337 0)
(0.388567 0.375335 9.47924e-20)
(0.264028 0.245514 1.12125e-19)
(0.130833 0.116829 0)
(0.0370984 0.0318253 0)
(-0.000250157 1.11907e-05 9.30109e-20)
(0.2378 0.197739 1.20755e-20)
(1.03894 0.864077 9.46308e-21)
(1.208 1.02074 9.63279e-21)
(1.21659 1.04859 -7.93759e-21)
(1.16445 1.028 2.39593e-21)
(1.09457 0.995171 1.48597e-20)
(1.01935 0.96056 -2.59955e-20)
(0.937054 0.922266 1.94612e-23)
(0.846301 0.876618 -1.02481e-21)
(0.746218 0.818733 -1.09883e-21)
(0.651225 0.751402 1.36036e-19)
(0.577327 0.684347 0)
(0.524246 0.620586 1.01643e-19)
(0.48314 0.556468 7.09371e-20)
(0.435606 0.477388 1.71744e-19)
(0.354827 0.365912 5.10207e-20)
(0.236324 0.226214 -6.04579e-20)
(0.115923 0.0990159 -3.55916e-20)
(0.033447 0.0233655 0)
(-0.000571431 -0.000977529 9.9961e-20)
(0.238716 0.205814 -2.8274e-20)
(1.03245 0.892183 0)
(1.19693 1.05153 1.23529e-20)
(1.20417 1.07921 -7.47447e-21)
(1.15212 1.05792 -9.99536e-23)
(1.0825 1.02457 -1.6717e-20)
(1.00726 0.989461 5.09315e-20)
(0.924394 0.950647 -4.88485e-21)
(0.832386 0.904475 0)
(0.729977 0.846087 -1.34147e-19)
(0.631342 0.777964 -2.95666e-19)
(0.553031 0.708913 1.20132e-20)
(0.495656 0.641495 1.39858e-19)
(0.449861 0.570681 0)
(0.398092 0.479263 1.15824e-19)
(0.316642 0.349712 0)
(0.208107 0.195228 0)
(0.111579 0.0642589 -3.85648e-20)
(0.0598476 0.000224821 0)
(0.0257545 0.00625293 2.68004e-20)
(0.239181 0.213301 -3.23977e-20)
(1.02618 0.91902 0)
(1.18616 1.08041 2.14222e-20)
(1.19213 1.10793 0)
(1.14025 1.08609 -9.68549e-22)
(1.07092 1.05238 0)
(0.995735 1.01688 2.60383e-21)
(0.912372 0.977725 8.20024e-21)
(0.819216 0.931278 8.7311e-21)
(0.714579 0.872744 -1.47359e-19)
(0.612309 0.804428 8.90471e-21)
(0.529153 0.733992 9.65248e-20)
(0.466678 0.663218 1.36437e-19)
(0.414386 0.585584 1.83656e-20)
(0.355391 0.480884 9.071e-20)
(0.269522 0.328398 0)
(0.168783 0.150977 1.27725e-19)
(0.0895311 0.0108843 -7.51912e-20)
(0.0326371 0.0572846 8.77428e-20)
(-0.0383261 0.450847 -1.04199e-19)
(0.23958 0.220617 2.73167e-20)
(1.01991 0.944504 4.02363e-20)
(1.17564 1.10773 0)
(1.18033 1.13521 1.10196e-21)
(1.12867 1.11309 4.77606e-21)
(1.05958 1.07927 2.15211e-20)
(0.984477 1.04363 1.78937e-20)
(0.900598 1.00445 0)
(0.806281 0.958138 5.81471e-20)
(0.699361 0.900014 -7.72072e-21)
(0.593226 0.832274 0)
(0.504514 0.761342 0)
(0.435707 0.687485 1.21816e-19)
(0.374807 0.602377 -5.66096e-20)
(0.304788 0.484877 -9.15767e-20)
(0.209463 0.306746 0)
(0.0949077 0.146709 6.49018e-20)
(0.00865789 0.464299 -7.57316e-20)
(0.0330932 1.91596 -4.27209e-20)
(0.0601218 2.81893 -5.21548e-20)
(0.239584 0.227345 -2.11457e-20)
(1.0137 0.968808 -5.27879e-20)
(1.16538 1.13347 1.33904e-20)
(1.16879 1.16089 9.49455e-21)
(1.11746 1.13873 0)
(1.04855 1.10495 1.24983e-20)
(0.973689 1.06938 2.47085e-20)
(0.889256 1.03039 -3.98586e-21)
(0.793853 0.984529 8.64552e-21)
(0.684705 0.927282 1.40328e-19)
(0.574709 0.860813 1.4921e-19)
(0.480108 0.79066 1.07606e-19)
(0.403738 0.714076 1.22173e-19)
(0.332977 0.619818 -1.32287e-19)
(0.253222 0.494057 -1.37829e-19)
(0.134697 0.34303 0)
(0.0457303 0.869075 0)
(0.0930434 2.57344 3.61528e-20)
(0.0952086 3.20613 0)
(0.0959136 3.38727 9.494e-20)
(0.242363 0.233577 0)
(1.00777 0.992279 0)
(1.1551 1.1575 0)
(1.1573 1.18482 3.16912e-21)
(1.10632 1.16276 5.23141e-21)
(1.03765 1.12928 6.12441e-21)
(0.963297 1.09401 1.59517e-20)
(0.878281 1.0554 -3.90027e-21)
(0.781868 1.01028 7.2775e-20)
(0.670601 0.95438 -1.9997e-21)
(0.556848 0.889828 2.94495e-19)
(0.456367 0.821995 -1.23587e-20)
(0.370933 0.743511 1.48015e-20)
(0.291365 0.635642 1.90955e-20)
(0.191876 0.513729 -2.423e-22)
(0.102002 1.00995 3.33946e-22)
(0.132788 2.74805 -1.87642e-19)
(0.138058 3.29895 -7.16334e-20)
(0.126957 3.42464 3.85084e-20)
(0.114847 3.44479 -4.36184e-20)
(0.16476 0.178575 1.33677e-20)
(0.997848 1.01759 0)
(1.14468 1.18009 -2.92043e-20)
(1.14622 1.20731 -2.79605e-20)
(1.09573 1.18568 1.70305e-20)
(1.02754 1.15271 -5.2464e-21)
(0.953123 1.11752 -1.65754e-20)
(0.86774 1.07948 4.42549e-20)
(0.770465 1.03538 -5.99332e-20)
(0.657316 0.98134 0)
(0.53995 0.919338 1.4506e-19)
(0.433872 0.855141 -8.76691e-20)
(0.3378 0.778633 0)
(0.243909 0.654962 1.83056e-20)
(0.145396 0.830754 4.41457e-20)
(0.147162 2.54402 -5.09493e-20)
(0.197525 3.33105 5.84407e-20)
(0.178221 3.43846 3.19041e-20)
(0.147178 3.45684 3.68788e-20)
(0.126864 3.46518 5.94644e-20)
(0.277986 0.272909 -2.55597e-20)
(0.981664 1.02892 0)
(1.12656 1.20596 3.2694e-20)
(1.1315 1.24011 3.30983e-20)
(1.07902 1.21966 -2.22162e-20)
(1.01063 1.18756 -1.31571e-22)
(0.935275 1.15393 1.62516e-20)
(0.849252 1.11706 3.43308e-21)
(0.750484 1.07493 5.71932e-20)
(0.634362 1.02453 1.21479e-19)
(0.511642 0.968126 8.19312e-21)
(0.396647 0.911288 7.76359e-20)
(0.281141 0.838196 1.38829e-20)
(0.210914 1.00625 -1.75254e-20)
(0.216767 2.41238 -4.03341e-20)
(0.267578 3.33897 4.08518e-20)
(0.25088 3.46819 -4.53966e-20)
(0.215934 3.48563 -2.6497e-20)
(0.181383 3.5091 -2.47781e-20)
(0.136 3.50265 -3.62701e-21)
(0.268573 0.272047 0)
(0.979342 1.05229 1.01191e-20)
(1.11818 1.22958 -6.93641e-21)
(1.12086 1.26356 -4.16268e-21)
(1.06837 1.24315 -1.66837e-20)
(1.00026 1.21152 1.37386e-21)
(0.924678 1.17821 -8.64447e-21)
(0.838459 1.14213 3.08605e-21)
(0.739155 1.10136 -5.96193e-20)
(0.62174 1.05363 -2.95488e-21)
(0.496376 1.00164 -2.61539e-19)
(0.37695 0.949729 1.10344e-20)
(0.270753 0.914154 -1.31363e-20)
(0.246016 1.57296 -1.61803e-20)
(0.305551 3.1435 3.61122e-21)
(0.320525 3.47253 4.12389e-22)
(0.278558 3.51917 6.9201e-20)
(0.244055 3.53996 3.59254e-20)
(0.198009 3.55887 -1.30391e-20)
(0.14777 3.55411 -1.87727e-20)
(0.254574 0.270253 2.65344e-20)
(0.976165 1.07829 6.93597e-20)
(1.10942 1.2553 -1.99766e-20)
(1.10981 1.28857 -1.57337e-20)
(1.05732 1.26814 0)
(0.989523 1.23678 8.99935e-21)
(0.913965 1.20381 -9.25046e-21)
(0.827805 1.16844 2.71652e-21)
(0.728272 1.12912 -6.60167e-21)
(0.610076 1.08427 -1.09929e-19)
(0.482914 1.03716 -1.20689e-19)
(0.359777 0.991064 -9.1015e-20)
(0.274118 1.0573 -9.8462e-20)
(0.308225 2.30388 1.01658e-19)
(0.38378 3.39985 8.84543e-20)
(0.358341 3.53133 0)
(0.30955 3.56533 0)
(0.272633 3.59744 -1.02745e-20)
(0.227453 3.64221 0)
(0.15813 3.62476 -1.77006e-20)
(0.244665 0.272356 -4.03431e-20)
(0.971051 1.10523 -5.96747e-20)
(1.09933 1.28231 0)
(1.09758 1.3145 1.32785e-21)
(1.0451 1.29383 -2.05066e-20)
(0.977743 1.26265 1.84269e-20)
(0.902508 1.23001 -3.97835e-21)
(0.816634 1.19528 1.65802e-21)
(0.717127 1.15733 -4.23946e-20)
(0.598557 1.11535 5.53784e-21)
(0.470396 1.07327 0)
(0.348853 1.03765 0)
(0.301031 1.33834 -8.96713e-20)
(0.383312 2.96851 3.6905e-20)
(0.447923 3.50219 4.83087e-20)
(0.396023 3.56648 0)
(0.353933 3.62039 -7.73723e-21)
(0.312316 3.66443 -2.48522e-22)