/*--------------------------------*- C++ -*----------------------------------*\
  =========                 |
  \\      /  F ield         | OpenFOAM: The Open Source CFD Toolbox
   \\    /   O peration     | Website:  https://openfoam.org
    \\  /    A nd           | Version:  6
     \\/     M anipulation  |
\*---------------------------------------------------------------------------*/
FoamFile
{
    version     2.0;
    format      ascii;
    class       volVectorField;
    location    "28.8";
    object      U;
}
// * * * * * * * * * * * * * * * * * * * * * * * * * * * * * * * * * * * * * //

dimensions      [0 1 -1 0 0 0 0];

internalField   nonuniform List<vector> 
8800
(
(0.987189 -0.0766659 0)
(1.0019 -0.0551894 0)
(0.999754 -0.0285472 0)
(1.00005 -0.01514 0)
(1.00005 -0.00853349 0)
(1.00002 -0.00502596 0)
(0.999999 -0.0029852 0)
(0.999993 -0.00170413 0)
(0.99999 -0.000825744 0)
(1.00005 -0.000128777 0)
(0.999988 0.00057971 0)
(0.999995 0.00133947 0)
(1 0.00237375 0)
(1.00001 0.00396495 0)
(1.00003 0.00660521 0)
(1.00007 0.0113499 0)
(0.99998 0.0207971 0)
(0.999176 0.0386551 0)
(1.00709 0.0724503 0)
(0.771216 0.0366597 0)
(0.363046 -0.0160194 0)
(1.04329 -0.0768288 0)
(1.08461 -0.0704707 0)
(1.04521 -0.0535688 0)
(1.02324 -0.0389098 0)
(1.01189 -0.0262211 0)
(1.00628 -0.0168762 0)
(1.00349 -0.0103994 0)
(1.00209 -0.00579956 0)
(1.00142 -0.00217785 0)
(1.0013 0.00112332 0)
(1.00167 0.00451875 0)
(1.00265 0.00844978 0)
(1.00462 0.0137844 0)
(1.00856 0.0215026 0)
(1.01658 0.0324975 0)
(1.03256 0.0464456 0)
(1.06274 0.0615933 0)
(1.0919 0.0760418 0)
(0.838762 0.0565393 0)
(0.216783 -0.00243121 0)
(1.07587 -0.0501645 0)
(1.09989 -0.0483635 0)
(1.06462 -0.0405375 0)
(1.03992 -0.0337025 0)
(1.02374 -0.0261991 0)
(1.01394 -0.018642 0)
(1.00843 -0.0118553 0)
(1.00555 -0.00601907 0)
(1.00434 -0.000706156 0)
(1.00472 0.0044431 0)
(1.00663 0.00984695 0)
(1.0106 0.0160123 0)
(1.01794 0.0231168 0)
(1.03058 0.0306246 0)
(1.05074 0.0376729 0)
(1.0805 0.0443751 0)
(1.10643 0.0512179 0)
(0.942795 0.0415513 0)
(0.216331 0.00245176 0)
(0.175081 -0.000817427 0)
(1.01759 -0.0355104 0)
(1.10514 -0.0414163 0)
(1.07815 -0.0360985 0)
(1.05324 -0.0301554 0)
(1.03593 -0.024606 0)
(1.02376 -0.0189878 0)
(1.0157 -0.0130362 0)
(1.01089 -0.00695628 0)
(1.00876 -0.0006835 0)
(1.00938 0.00555858 0)
(1.0127 0.0115379 0)
(1.0189 0.0173743 0)
(1.02881 0.0229588 0)
(1.04329 0.0282849 0)
(1.06386 0.0338341 0)
(1.09377 0.0398912 0)
(1.09375 0.041738 0)
(0.827775 0.0228151 0)
(0.174321 0.000841045 0)
(0.153853 -0.000611193 0)
(0.955986 -0.0254836 0)
(1.10336 -0.0351924 0)
(1.08756 -0.0327435 0)
(1.06145 -0.0281151 0)
(1.04371 -0.0231211 0)
(1.03124 -0.0179575 0)
(1.02246 -0.0125642 0)
(1.01678 -0.006745 0)
(1.01409 -0.000399835 0)
(1.01483 0.00594417 0)
(1.0188 0.0118028 0)
(1.02581 0.0171274 0)
(1.03615 0.0221207 0)
(1.05084 0.0269677 0)
(1.07219 0.0315641 0)
(1.10048 0.0355667 0)
(1.06875 0.0337241 0)
(0.740695 0.0141793 0)
(0.152714 0.000638046 0)
(0.139468 -0.000466 0)
(0.899037 -0.0190739 0)
(1.09554 -0.030084 0)
(1.09542 -0.0292225 0)
(1.06881 -0.0255513 0)
(1.05038 -0.0214934 0)
(1.0375 -0.0168556 0)
(1.02844 -0.0117462 0)
(1.0224 -0.00617571 0)
(1.0194 1.55689e-05 0)
(1.02014 0.00622215 0)
(1.02436 0.0117896 0)
(1.03156 0.016769 0)
(1.04214 0.02132 0)
(1.05732 0.0253518 0)
(1.07953 0.0288662 0)
(1.1028 0.0315719 0)
(1.03717 0.0276612 0)
(0.674908 0.0100239 0)
(0.137867 0.00049695 0)
(0.12893 -0.000360282 0)
(0.849461 -0.0146757 0)
(1.08314 -0.0259195 0)
(1.10109 -0.0262127 0)
(1.07553 -0.0229206 0)
(1.05642 -0.0193931 0)
(1.04307 -0.0154163 0)
(1.03367 -0.0107594 0)
(1.02742 -0.00543546 0)
(1.02428 0.000536541 0)
(1.02494 0.00650391 0)
(1.02913 0.0117889 0)
(1.03647 0.0163313 0)
(1.04734 0.0201835 0)
(1.06306 0.0235045 0)
(1.08587 0.0265604 0)
(1.10231 0.0284845 0)
(1.0031 0.022979 0)
(0.624122 0.00759707 0)
(0.126768 0.000396645 0)
(0.120926 -0.000276921 0)
(0.807496 -0.0114432 0)
(1.06771 -0.0221859 0)
(1.10436 -0.0235498 0)
(1.08156 -0.020846 0)
(1.06207 -0.017553 0)
(1.04839 -0.0137977 0)
(1.0387 -0.009414 0)
(1.03217 -0.00441971 0)
(1.02877 0.00116612 0)
(1.02934 0.00671395 0)
(1.03357 0.0115497 0)
(1.04103 0.0156629 0)
(1.05211 0.0191611 0)
(1.06809 0.0221874 0)
(1.09118 0.0248666 0)
(1.09885 0.0258012 0)
(0.969025 0.0191785 0)
(0.583923 0.00597238 0)
(0.118084 0.000320381 0)
(0.114785 -0.000211079 0)
(0.772508 -0.00896864 0)
(1.05104 -0.0187906 0)
(1.10643 -0.0207461 0)
(1.08701 -0.0183021 0)
(1.06722 -0.0152566 0)
(1.05332 -0.0118873 0)
(1.04334 -0.00795603 0)
(1.03652 -0.0033753 0)
(1.03291 0.00192762 0)
(1.03327 0.00718168 0)
(1.03749 0.0115397 0)
(1.04504 0.0150508 0)
(1.05622 0.0179745 0)
(1.07242 0.0205446 0)
(1.09522 0.0229693 0)
(1.09294 0.0233025 0)
(0.93657 0.0161105 0)
(0.551429 0.00480969 0)
(0.111116 0.00026371 0)
(0.110094 -0.000157916 0)
(0.743621 -0.00698843 0)
(1.03413 -0.0157335 0)
(1.10777 -0.0182532 0)
(1.09227 -0.0161589 0)
(1.07202 -0.0132385 0)
(1.05786 -0.0100362 0)
(1.04783 -0.0062859 0)
(1.04093 -0.00197735 0)
(1.03713 0.00287 0)
(1.03728 0.00755931 0)
(1.04126 0.0114745 0)
(1.04861 0.0145906 0)
(1.05974 0.017142 0)
(1.07629 0.0194258 0)
(1.0983 0.0215153 0)
(1.08506 0.0211062 0)
(0.906364 0.0136021 0)
(0.524766 0.00393747 0)
(0.105419 0.000221355 0)
(0.106574 -0.00011214 0)
(0.720263 -0.0053224 0)
(1.01786 -0.0128063 0)
(1.10793 -0.0155969 0)
(1.09717 -0.013973 0)
(1.07674 -0.0113001 0)
(1.06231 -0.0081809 0)
(1.05206 -0.00452744 0)
(1.04489 -0.000485337 0)
(1.04077 0.00397113 0)
(1.04069 0.00824262 0)
(1.04453 0.0116432 0)
(1.05177 0.0143348 0)
(1.06296 0.0166035 0)
(1.07972 0.0185612 0)
(1.09993 0.0200981 0)
(1.07544 0.018967 0)
(0.878868 0.0115122 0)
(0.502685 0.00326864 0)
(0.100664 0.000190306 0)
(0.104064 -7.03664e-05 0)
(0.701882 -0.00384975 0)
(1.00313 -0.010023 0)
(1.10739 -0.0127936 0)
(1.10147 -0.011348 0)
(1.08101 -0.00877137 0)
(1.06626 -0.00587773 0)
(1.05566 -0.00255931 0)
(1.04829 0.00118225 0)
(1.04396 0.00531835 0)
(1.04349 0.00916466 0)
(1.04693 0.0120983 0)
(1.05409 0.0142485 0)
(1.06534 0.0159236 0)
(1.08219 0.0173913 0)
(1.10035 0.018561 0)
(1.06478 0.0169388 0)
(0.854196 0.00975273 0)
(0.484268 0.002732 0)
(0.0966396 0.000166356 0)
(0.102474 -3.30693e-05 0)
(0.688174 -0.00248429 0)
(0.99047 -0.00727929 0)
(1.10656 -0.00984792 0)
(1.10561 -0.00855939 0)
(1.08518 -0.00613114 0)
(1.07013 -0.00340988 0)
(1.05933 -0.000264861 0)
(1.05153 0.00324104 0)
(1.04671 0.0069876 0)
(1.04587 0.0103069 0)
(1.04913 0.0126804 0)
(1.05604 0.014228 0)
(1.06723 0.0153808 0)
(1.08433 0.0163905 0)
(1.10015 0.0171824 0)
(1.05354 0.0150387 0)
(0.83234 0.00823472 0)
(0.468919 0.00230739 0)
(0.0931811 0.000151231 0)
(0.101733 5.81522e-06 0)
(0.678921 -0.00118687 0)
(0.980234 -0.00457941 0)
(1.10547 -0.00688616 0)
(1.10929 -0.00597 0)
(1.08915 -0.00379413 0)
(1.07389 -0.00106761 0)
(1.06299 0.00209329 0)
(1.05508 0.0055085 0)
(1.04987 0.0090079 0)
(1.04846 0.0119161 0)
(1.05106 0.0138337 0)
(1.0575 0.014989 0)
(1.06842 0.0156338 0)
(1.08538 0.0161678 0)
(1.09867 0.0162212 0)
(1.04179 0.0133495 0)
(0.813199 0.00695604 0)
(0.456149 0.00197022 0)
(0.0901404 0.000140937 0)
(0.101901 4.79621e-05 0)
(0.674092 8.88338e-05 0)
(0.972771 -0.00180986 0)
(1.10416 -0.00355092 0)
(1.11227 -0.00274196 0)
(1.09281 -0.000685985 0)
(1.07735 0.00198321 0)
(1.066 0.00500429 0)
(1.05752 0.00820144 0)
(1.05168 0.0114675 0)
(1.04962 0.0140366 0)
(1.05177 0.0152745 0)
(1.05795 0.0156967 0)
(1.06867 0.0158304 0)
(1.08537 0.015622 0)
(1.09556 0.0150282 0)
(1.02969 0.0117228 0)
(0.796587 0.00586674 0)
(0.445571 0.00169478 0)
(0.0874745 0.000127513 0)
(0.103051 9.85575e-05 0)
(0.673503 0.00120458 0)
(0.968495 0.000656919 0)
(1.10361 -0.000322369 0)
(1.11537 0.000639129 0)
(1.09655 0.00271372 0)
(1.08098 0.00539787 0)
(1.06951 0.00844357 0)
(1.06072 0.01159 0)
(1.0543 0.0145331 0)
(1.05131 0.0165144 0)
(1.05255 0.0172402 0)
(1.05798 0.0170685 0)
(1.06829 0.0164571 0)
(1.08448 0.0158788 0)
(1.09157 0.0146663 0)
(1.0177 0.0108974 0)
(0.781975 0.00540556 0)
(0.436341 0.00163848 0)
(0.0850747 0.000126837 0)
(0.104957 0.000132003 0)
(0.675946 0.0020023 0)
(0.967307 0.00270576 0)
(1.10407 0.00245914 0)
(1.11867 0.0036358 0)
(1.10036 0.00588564 0)
(1.08451 0.00884146 0)
(1.07258 0.0120988 0)
(1.06316 0.0154014 0)
(1.05582 0.0182816 0)
(1.05188 0.0199263 0)
(1.05226 0.0201446 0)
(1.05701 0.019466 0)
(1.06685 0.0183114 0)
(1.08263 0.0170912 0)
(1.08635 0.0152214 0)
(1.00547 0.0109575 0)
(0.768289 0.00558888 0)
(0.427174 0.00179547 0)
(0.0826066 0.00014086 0)
(0.107591 0.000170923 0)
(0.681487 0.0028235 0)
(0.968951 0.00454352 0)
(1.10562 0.00516496 0)
(1.12239 0.00657455 0)
(1.10462 0.00908986 0)
(1.08861 0.0124816 0)
(1.07629 0.0162032 0)
(1.06611 0.0198969 0)
(1.05763 0.022918 0)
(1.05242 0.0243893 0)
(1.05165 0.0241723 0)
(1.05548 0.0228577 0)
(1.06461 0.0211909 0)
(1.07963 0.019312 0)
(1.07992 0.0166747 0)
(0.992731 0.0118616 0)
(0.754422 0.00633016 0)
(0.41698 0.00211551 0)
(0.079774 0.000168567 0)
(0.111025 0.000221297 0)
(0.68987 0.00373978 0)
(0.973452 0.00649713 0)
(1.10863 0.00822045 0)
(1.12661 0.0101297 0)
(1.10949 0.0131657 0)
(1.09338 0.0171179 0)
(1.08046 0.0213946 0)
(1.06929 0.0254691 0)
(1.05942 0.0286639 0)
(1.05257 0.0299037 0)
(1.05043 0.0291083 0)
(1.05317 0.0271382 0)
(1.0615 0.0247081 0)
(1.07542 0.0220789 0)
(1.0721 0.0187349 0)
(0.979224 0.0134579 0)
(0.739219 0.00744889 0)
(0.405036 0.00252107 0)
(0.0763948 0.000202541 0)
(0.115483 0.000289705 0)
(0.701339 0.00492839 0)
(0.981285 0.00881557 0)
(1.11416 0.0118268 0)
(1.13218 0.0148718 0)
(1.11531 0.018873 0)
(1.09881 0.0235646 0)
(1.08505 0.0284064 0)
(1.07254 0.0327561 0)
(1.06094 0.0357904 0)
(1.05216 0.0363731 0)
(1.04842 0.0347562 0)
(1.04989 0.0319611 0)
(1.05718 0.0287194 0)
(1.06996 0.0253716 0)
(1.06329 0.0214547 0)
(0.964769 0.015747 0)
(0.721722 0.00880901 0)
(0.390938 0.00297681 0)
(0.0723633 0.000240773 0)
(0.121316 0.000386556 0)
(0.716527 0.00657386 0)
(0.992642 0.0117618 0)
(1.12277 0.0159558 0)
(1.14011 0.020276 0)
(1.12266 0.0255762 0)
(1.10527 0.031355 0)
(1.09019 0.0369115 0)
(1.07592 0.0416793 0)
(1.06209 0.0445817 0)
(1.05101 0.0444186 0)
(1.04546 0.0417135 0)
(1.04564 0.0377846 0)
(1.05203 0.0339163 0)
(1.06356 0.0300294 0)
(1.05353 0.025663 0)
(0.94788 0.0187845 0)
(0.701068 0.0103077 0)
(0.37451 0.00348378 0)
(0.0676297 0.000281971 0)
(0.129035 0.000522924 0)
(0.736471 0.00884871 0)
(1.00739 0.0156332 0)
(1.13416 0.0207833 0)
(1.15045 0.0261956 0)
(1.13199 0.0328617 0)
(1.11303 0.0398995 0)
(1.09608 0.0465687 0)
(1.07957 0.0521681 0)
(1.06296 0.055428 0)
(1.04919 0.0550628 0)
(1.04145 0.0517319 0)
(1.04008 0.0469417 0)
(1.04575 0.0418933 0)
(1.05618 0.0372199 0)
(1.04131 0.0313222 0)
(0.926625 0.0221832 0)
(0.676925 0.0119927 0)
(0.355461 0.00408381 0)
(0.0621057 0.00032963 0)
(0.139389 0.000734549 0)
(0.762798 0.0122029 0)
(1.02629 0.0212009 0)
(1.14781 0.0273858 0)
(1.16285 0.033635 0)
(1.14328 0.0414586 0)
(1.12248 0.0498443 0)
(1.10326 0.0580582 0)
(1.08391 0.0648585 0)
(1.06402 0.068759 0)
(1.04716 0.0683686 0)
(1.03692 0.064582 0)
(1.03352 0.0591465 0)
(1.03776 0.0531224 0)
(1.04593 0.0466585 0)
(1.0236 0.0377058 0)
(0.900355 0.0257628 0)
(0.649247 0.0140019 0)
(0.333336 0.00478339 0)
(0.0557051 0.000379711 0)
(0.153676 0.00107581 0)
(0.797803 0.0172291 0)
(1.0515 0.029232 0)
(1.16401 0.0371413 0)
(1.17697 0.0443939 0)
(1.15631 0.0534591 0)
(1.13386 0.0634966 0)
(1.11186 0.0732456 0)
(1.08892 0.0809799 0)
(1.06509 0.0850032 0)
(1.04471 0.0839546 0)
(1.03167 0.0791284 0)
(1.0258 0.072466 0)
(1.0274 0.0648472 0)
(1.0308 0.0556594 0)
(0.999904 0.0437942 0)
(0.870149 0.0298364 0)
(0.617703 0.0164865 0)
(0.307549 0.00559317 0)
(0.0483518 0.000430557 0)
(0.174067 0.00168215 0)
(0.84472 0.0250696 0)
(1.08604 0.0411017 0)
(1.1844 0.0518493 0)
(1.19336 0.0612357 0)
(1.17171 0.0721331 0)
(1.14699 0.0836512 0)
(1.12126 0.0940955 0)
(1.0939 0.101649 0)
(1.06548 0.104514 0)
(1.04111 0.101556 0)
(1.02488 0.0945892 0)
(1.01605 0.0857589 0)
(1.01368 0.0757808 0)
(1.01076 0.0641343 0)
(0.972277 0.050365 0)
(0.836707 0.0349756 0)
(0.581339 0.0195404 0)
(0.277636 0.00649552 0)
(0.0400779 0.000475651 0)
(0.203898 0.00303745 0)
(0.909394 0.038531 0)
(1.13327 0.0606311 0)
(1.21117 0.0749818 0)
(1.21348 0.0878159 0)
(1.189 0.100313 0)
(1.16057 0.112157 0)
(1.13006 0.121739 0)
(1.09761 0.127462 0)
(1.06412 0.12754 0)
(1.03541 0.12123 0)
(1.01562 0.111086 0)
(1.00341 0.099413 0)
(0.996548 0.0868931 0)
(0.987632 0.073481 0)
(0.942349 0.0586692 0)
(0.799225 0.041579 0)
(0.539118 0.0232116 0)
(0.243795 0.00751035 0)
(0.0311607 0.000510386 0)
(0.245069 0.00930358 3.34884e-20)
(0.99528 0.065408 2.82483e-20)
(1.19102 0.0939681 -9.57846e-21)
(1.24385 0.110573 0)
(1.23599 0.126794 -2.14804e-34)
(1.20627 0.139282 3.06638e-21)
(1.17275 0.149763 -5.10435e-21)
(1.13677 0.156944 0)
(1.09877 0.159466 9.5712e-35)
(1.05977 0.155608 -5.46636e-21)
(1.02617 0.145079 0)
(1.00226 0.131273 -6.11668e-21)
(0.985986 0.116594 -1.77992e-20)
(0.974427 0.101916 -8.32891e-21)
(0.960177 0.0876161 -2.46801e-21)
(0.907488 0.0723739 -1.45727e-21)
(0.752883 0.0522736 0)
(0.486954 0.0291805 1.02036e-21)
(0.206287 0.0100832 1.20917e-21)
(0.0229058 0.000968221 2.20966e-20)
(0.272469 0.024853 3.03621e-20)
(1.06598 0.108019 1.03052e-22)
(1.23891 0.141834 2.82209e-21)
(1.27516 0.160136 0)
(1.25688 0.175888 -1.17408e-20)
(1.22122 0.187047 -1.27911e-20)
(1.18208 0.195532 -5.35213e-21)
(1.14025 0.200197 -1.77075e-20)
(1.09622 0.199551 0)
(1.05091 0.191811 2.33775e-20)
(1.0112 0.177209 2.24748e-20)
(0.98181 0.159922 6.52863e-21)
(0.960384 0.142598 2.31001e-20)
(0.94364 0.126092 3.17976e-20)
(0.922983 0.110303 0)
(0.862997 0.0935343 4.42935e-20)
(0.698883 0.0691729 6.36167e-20)
(0.434751 0.0402248 7.08297e-20)
(0.17537 0.0152793 -8.13205e-20)
(0.0168669 0.00149202 -1.54857e-21)
(0.272437 0.0409644 0)
(1.11031 0.163542 6.63683e-21)
(1.27278 0.201047 0)
(1.29969 0.219676 -1.91152e-20)
(1.2735 0.232475 0)
(1.23231 0.240577 -2.66775e-20)
(1.18767 0.245781 1.12805e-20)
(1.14019 0.246977 -3.7069e-20)
(1.09035 0.242617 -3.16918e-22)
(1.03902 0.230833 1.23539e-20)
(0.993591 0.212384 4.87909e-20)
(0.959314 0.192218 -6.27891e-23)
(0.933611 0.173029 -1.66512e-20)
(0.91301 0.155445 -2.96489e-20)
(0.888802 0.138962 3.49002e-20)
(0.828289 0.120056 -6.17418e-20)
(0.668357 0.090971 -8.15352e-21)
(0.418886 0.0559246 0)
(0.177049 0.023375 5.98588e-24)
(0.018956 0.00261129 0)
(0.265385 0.054805 1.23294e-19)
(1.13359 0.222632 -5.42028e-20)
(1.29444 0.265254 -3.43655e-20)
(1.31588 0.283831 9.93623e-21)
(1.28421 0.293106 -1.61738e-20)
(1.23864 0.297483 5.67667e-20)
(1.1893 0.298855 2.39634e-20)
(1.13684 0.296111 0)
(1.08185 0.287698 -6.53184e-20)
(1.02505 0.271784 0)
(0.974532 0.249708 -2.59206e-20)
(0.93607 0.226983 -3.0633e-20)
(0.907039 0.206279 -1.80031e-20)
(0.883766 0.187742 -2.13725e-20)
(0.857842 0.170396 0)
(0.799029 0.149914 0)
(0.652253 0.117327 -5.2977e-20)
(0.422167 0.0765283 1.04667e-20)
(0.190198 0.0345828 -6.17375e-21)
(0.0239763 0.00461874 -7.3102e-21)
(0.257876 0.0671842 -7.52056e-20)
(1.14324 0.281514 0)
(1.30664 0.330539 8.31515e-20)
(1.32462 0.34911 3.10074e-20)
(1.28903 0.35498 3.52626e-20)
(1.24007 0.355625 0)
(1.18699 0.353099 2.49044e-20)
(1.13043 0.346345 4.199e-20)
(1.07097 0.333872 3.43722e-20)
(1.00947 0.313819 5.73963e-20)
(0.9546 0.288204 0)
(0.912661 0.263054 -6.58612e-20)
(0.880998 0.240807 -3.87413e-20)
(0.855758 0.221478 -2.26792e-20)
(0.82896 0.203403 1.35955e-19)
(0.773761 0.181782 1.61352e-20)
(0.640996 0.146291 7.62079e-20)
(0.429445 0.0991439 -3.61469e-19)
(0.204272 0.0478457 2.14531e-19)
(0.0290967 0.00713444 -2.61893e-19)
(0.251099 0.0783786 -6.84456e-20)
(1.14443 0.338417 1.44471e-20)
(1.31192 0.395126 -1.2164e-20)
(1.32744 0.413812 -4.1621e-20)
(1.28891 0.416477 -3.57588e-20)
(1.23729 0.413529 3.45924e-22)
(1.18117 0.407268 -2.67646e-20)
(1.1212 0.396664 4.44008e-20)
(1.058 0.380231 -7.37478e-20)
(0.992461 0.356149 0)
(0.933962 0.327016 -3.04235e-20)
(0.88927 0.299456 -3.16499e-22)
(0.855553 0.275653 -4.18995e-20)
(0.828881 0.255402 0)
(0.801802 0.236776 -2.92625e-20)
(0.750117 0.214162 -6.93381e-20)
(0.629996 0.176215 1.85559e-19)
(0.434004 0.12257 -1.83148e-19)
(0.21461 0.0615638 2.60636e-19)
(0.0331484 0.00981279 -2.74294e-19)
(0.245665 0.0888487 -1.05349e-22)
(1.14047 0.392725 -1.45832e-20)
(1.31224 0.458371 -4.99871e-20)
(1.32567 0.476905 2.13889e-20)
(1.28488 0.476645 -1.88819e-20)
(1.23111 0.47034 0)
(1.17251 0.460562 -2.74173e-20)
(1.10966 0.44633 -4.71375e-20)
(1.04323 0.426118 -3.90116e-20)
(0.974233 0.398118 0)
(0.912627 0.3655 -3.2077e-20)
(0.86571 0.335411 -3.79843e-20)
(0.830506 0.309995 4.51013e-20)
(0.802935 0.288678 -2.67795e-20)
(0.775939 0.269399 -1.26343e-19)
(0.727482 0.245581 7.50276e-20)
(0.617255 0.205464 2.24433e-20)
(0.432904 0.145157 0)
(0.218408 0.0742194 -2.49593e-19)
(0.0352708 0.0121764 -9.25422e-21)
(0.241574 0.098889 -9.14256e-21)
(1.13349 0.444306 1.50461e-20)
(1.30869 0.519076 2.64662e-20)
(1.3204 0.537726 6.95275e-20)
(1.27782 0.534882 -7.85172e-20)
(1.22234 0.525515 6.81876e-20)
(1.16165 0.512501 5.87521e-20)
(1.09631 0.494878 -7.55136e-20)
(1.02705 0.471091 2.21085e-20)
(0.954975 0.439281 -1.4078e-19)
(0.890614 0.403191 -3.52009e-20)
(0.84185 0.370418 0)
(0.805569 0.343097 4.85301e-20)
(0.777515 0.320522 5.71909e-20)
(0.750894 0.300317 6.76997e-20)
(0.705164 0.275252 -8.07516e-20)
(0.602157 0.232391 -2.39165e-20)
(0.426206 0.165059 2.82697e-20)
(0.21673 0.0844454 0)
(0.0355615 0.0139522 -1.9906e-20)
(0.238639 0.108592 9.30769e-20)
(1.125 0.493204 -6.20369e-20)
(1.30243 0.577033 -2.79359e-20)
(1.31253 0.595943 4.84955e-20)
(1.26849 0.5908 -4.07805e-20)
(1.2116 0.578692 -8.05992e-22)
(1.14915 0.562759 -6.32209e-20)
(1.08166 0.54202 -2.70599e-20)
(1.00985 0.514886 -6.7261e-20)
(0.934928 0.479424 4.46148e-23)
(0.86809 0.439807 -1.11581e-19)
(0.817663 0.404218 8.90249e-20)
(0.780567 0.374727 -5.25272e-20)
(0.752295 0.350508 6.20211e-20)
(0.726155 0.329015 0)
(0.682534 0.302294 -4.33947e-20)
(0.584676 0.256163 -1.90094e-22)
(0.414605 0.181563 -1.21814e-19)
(0.210501 0.0919517 -1.803e-20)
(0.0344345 0.015046 0)
(0.236732 0.118143 0)
(1.11582 0.539659 -6.56223e-20)
(1.2942 0.632184 -5.74767e-20)
(1.30278 0.651412 -5.09015e-20)
(1.25752 0.644213 -4.48599e-20)
(1.19946 0.629668 0)
(1.1355 0.611121 -3.22439e-20)
(1.0661 0.587563 -2.41325e-22)
(0.991976 0.557346 1.43892e-19)
(0.914388 0.518414 -1.97695e-20)
(0.845147 0.475275 -8.00101e-20)
(0.793229 0.436669 4.69753e-20)
(0.755399 0.404726 -4.04312e-22)
(0.727018 0.378606 6.61065e-20)
(0.701325 0.355486 3.97554e-20)
(0.659275 0.326672 -9.33051e-20)
(0.564735 0.276444 1.10644e-19)
(0.398847 0.194571 3.27803e-20)
(0.20038 0.096745 1.35876e-19)
(0.0320715 0.015416 -3.67918e-19)
(0.235703 0.127659 1.96461e-20)
(1.1065 0.583819 -3.34283e-20)
(1.28466 0.684557 2.82568e-20)
(1.29171 0.704073 5.27745e-20)
(1.24542 0.695026 0)
(1.18636 0.678331 -3.90991e-20)
(1.12109 0.657468 1.04682e-19)
(1.04999 0.631388 6.08876e-20)
(0.973727 0.598373 0)
(0.893569 0.556183 -2.78844e-19)
(0.821954 0.50958 2.1484e-19)
(0.768478 0.467802 0)
(0.729893 0.433168 6.06355e-20)
(0.701397 0.404805 -4.02922e-22)
(0.676096 0.37969 -1.27139e-19)
(0.635067 0.348298 4.98206e-20)
(0.54254 0.293236 0)
(0.379782 0.203876 1.76069e-19)
(0.18734 0.0991206 0)
(0.0289585 0.0151758 -1.73068e-19)
(0.235373 0.137147 -2.03156e-20)
(1.0974 0.625834 -3.41028e-20)
(1.27423 0.734167 3.05711e-20)
(1.27978 0.753925 0)
(1.23258 0.743225 -4.8753e-20)
(1.17268 0.724637 0)
(1.10627 0.701729 -1.09475e-19)
(1.03363 0.673422 -3.1052e-20)
(0.955356 0.637913 2.6591e-20)
(0.872679 0.59273 -1.37736e-19)
(0.798555 0.542749 2.26004e-20)
(0.743331 0.497689 0)
(0.703926 0.460083 -1.29583e-19)
(0.67529 0.429202 4.13442e-22)
(0.650253 0.401752 0)
(0.6097 0.367275 4.66327e-22)
(0.518053 0.306626 1.5959e-19)
(0.357699 0.209513 -1.515e-19)
(0.172087 0.0990302 4.48685e-20)
(0.0253369 0.0143561 0)
(0.235405 0.146495 0)
(1.08868 0.665759 -3.51844e-20)
(1.2633 0.781096 -3.07752e-20)
(1.26733 0.801026 -4.5869e-22)
(1.21935 0.788837 -2.46714e-20)
(1.15873 0.768586 -8.88773e-20)
(1.09131 0.743887 3.95138e-20)
(1.01727 0.713634 -3.42729e-20)
(0.937086 0.675936 1.15526e-19)
(0.851866 0.628068 -2.20305e-19)
(0.775057 0.574877 -6.74087e-22)
(0.717931 0.526454 -5.84936e-20)
(0.677501 0.485678 2.09013e-19)
(0.648602 0.451965 -4.88363e-22)
(0.623686 0.421836 -9.7829e-20)
(0.583069 0.383696 -1.74002e-19)
(0.491314 0.316744 0)
(0.333096 0.211713 0)
(0.155126 0.0964912 4.82629e-20)
(0.0214101 0.0130334 -2.86109e-20)
(0.235906 0.155797 -2.15054e-20)
(1.08046 0.703519 7.36783e-20)
(1.2521 0.825433 3.28171e-20)
(1.25463 0.845437 0)
(1.20597 0.831911 -3.21485e-22)
(1.14473 0.810205 -9.22662e-20)
(1.07643 0.783951 1.02744e-19)
(1.00112 0.75202 1.42564e-19)
(0.919106 0.712447 1.52662e-19)
(0.831334 0.662227 -1.817e-19)
(0.7517 0.606072 -1.83915e-19)
(0.692326 0.554301 1.56399e-19)
(0.650591 0.510093 0)
(0.62126 0.473245 -4.45741e-20)
(0.596324 0.440052 -1.05361e-19)
(0.555157 0.397609 -1.24603e-19)
(0.462282 0.323439 -1.47883e-19)
(0.306254 0.210418 4.38239e-20)
(0.136717 0.0915146 -2.59072e-20)
(0.0172035 0.0112131 7.05757e-23)
(0.236604 0.164857 0)
(1.07275 0.739592 0)
(1.24081 0.867251 5.41898e-22)
(1.24188 0.887242 0)
(1.19264 0.872525 8.14668e-20)
(1.13087 0.849547 7.1936e-20)
(1.06182 0.821945 0)
(0.985348 0.788592 1.83427e-20)
(0.901601 0.747453 2.58485e-19)
(0.811294 0.695254 -4.16816e-19)
(0.728622 0.636435 0)
(0.66662 0.58139 -1.00414e-19)
(0.623182 0.533559 -5.95779e-22)
(0.593186 0.493211 -4.86894e-22)
(0.568072 0.456461 1.12647e-19)
(0.525916 0.408915 -8.22727e-23)
(0.431252 0.326619 -3.17672e-19)
(0.277222 0.205451 9.41409e-20)
(0.117369 0.0843164 2.79156e-20)
(0.0129887 0.00904717 0)
(0.237283 0.173739 6.82326e-20)
(1.06532 0.773945 3.94311e-20)
(1.22954 0.906632 6.98176e-20)
(1.22926 0.926541 -1.26835e-19)
(1.17951 0.910746 1.41864e-19)
(1.1173 0.886669 0)
(1.0476 0.857912 6.81251e-20)
(0.970095 0.823375 -3.96897e-20)
(0.884724 0.780972 7.7642e-22)
(0.791892 0.72718 3.01153e-20)
(0.70596 0.666064 2.39015e-19)
(0.640948 0.607926 -3.55025e-20)
(0.595321 0.556354 -1.28331e-19)
(0.564255 0.512064 -5.15357e-20)
(0.538767 0.471027 6.08874e-20)
(0.495295 0.417365 -5.39987e-23)
(0.398572 0.326024 8.54637e-20)
(0.246831 0.196902 -2.02192e-19)
(0.097865 0.0753108 2.39895e-19)
(0.00892962 0.00666866 3.54416e-20)
(0.237701 0.182333 -2.34244e-20)
(1.05821 0.806654 2.05261e-20)
(1.21842 0.943685 1.26247e-21)
(1.21686 0.963451 -6.53035e-20)
(1.16669 0.946677 -2.89592e-20)
(1.10413 0.921635 -1.35106e-19)
(1.03389 0.891897 2.31966e-20)
(0.955469 0.856388 -1.68345e-19)
(0.868584 0.812999 -2.9113e-19)
(0.773252 0.758002 -2.51382e-19)
(0.683918 0.695035 0)
(0.615475 0.634102 -1.53653e-19)
(0.56705 0.578781 1.83884e-19)
(0.534309 0.530055 0)
(0.508099 0.483641 -1.3031e-19)
(0.463164 0.422456 7.75353e-20)
(0.364578 0.32115 -9.16939e-20)
(0.216204 0.1849 -1.08696e-19)
(0.0791549 0.0650333 -1.93064e-19)
(0.00527566 0.0042709 -1.52423e-19)
(0.238423 0.190728 2.40805e-20)
(1.05126 0.837697 -2.19354e-20)
(1.20752 0.978476 -5.52168e-20)
(1.20477 0.998053 -8.54213e-20)
(1.15426 0.980403 6.25636e-20)
(1.09143 0.954525 -8.44749e-20)
(1.02077 0.923948 7.4971e-20)
(0.941539 0.88767 -1.77711e-19)
(0.853254 0.843554 -1.73949e-19)
(0.755514 0.787735 2.65956e-19)
(0.662665 0.723397 5.26665e-19)
(0.590385 0.660058 0)
(0.538502 0.601168 0)
(0.503164 0.547596 -5.91929e-20)
(0.475506 0.4943 0)
(0.429045 0.423345 1.66656e-19)
(0.329755 0.310947 1.97136e-19)
(0.186932 0.169229 0)
(0.0626131 0.0540495 0)
(0.00224711 0.00205479 1.63681e-19)
(0.238747 0.198593 -2.46292e-20)
(1.0445 0.867066 -2.03949e-20)
(1.19689 1.01112 -3.89435e-20)
(1.19304 1.03047 7.05738e-20)
(1.14229 1.01202 6.53747e-20)
(1.07925 0.985409 1.02847e-19)
(1.00827 0.954122 -1.05916e-19)
(0.92836 0.917247 7.35084e-23)
(0.838812 0.872643 -1.00701e-21)
(0.738778 0.816373 -1.1841e-21)
(0.642367 0.751175 2.71757e-19)
(0.565894 0.685899 0)
(0.509883 0.623797 1.84825e-19)
(0.47074 0.565266 1.26294e-19)
(0.440178 0.503391 3.01866e-19)
(0.391711 0.419086 8.94565e-20)
(0.294206 0.293085 -1.06175e-19)
(0.162151 0.147944 -6.2604e-20)
(0.0524863 0.0421103 0)
(0.000807177 0.000276022 1.75759e-19)
(0.239383 0.206432 5.01544e-20)
(1.03791 0.894895 0)
(1.18654 1.04167 -3.96255e-20)
(1.18171 1.06078 5.54739e-20)
(1.1308 1.04162 -6.74951e-20)
(1.06763 1.01437 -1.37761e-19)
(0.996434 0.982474 2.21839e-19)
(0.915963 0.945156 -1.33582e-20)
(0.825289 0.900276 0)
(0.723109 0.843876 -2.99148e-19)
(0.623177 0.778363 -5.95285e-19)
(0.542227 0.711698 2.30139e-20)
(0.481517 0.646865 2.539e-19)
(0.43716 0.5837 0)
(0.401278 0.51196 2.02685e-19)
(0.34875 0.409654 0)
(0.25512 0.263994 0)
(0.144473 0.110979 -6.76286e-20)
(0.0696912 0.0161828 0)
(0.0242022 0.00580488 4.7107e-20)
(0.239547 0.213646 5.14072e-20)
(1.03146 0.921426 0)
(1.17647 1.07032 -6.08347e-20)
(1.17074 1.08922 0)
(1.11977 1.06945 3.41367e-20)
(1.05651 1.04168 0)
(0.985197 1.00931 1.35707e-20)
(0.904253 0.971734 2.53378e-20)
(0.812573 0.926821 2.20421e-20)
(0.708355 0.870634 -3.32202e-19)
(0.604962 0.805404 1.84415e-20)
(0.519227 0.738022 1.82723e-19)
(0.453169 0.670952 2.47572e-19)
(0.401941 0.60384 3.26627e-20)
(0.357385 0.522055 1.57895e-19)
(0.296161 0.397458 0)
(0.201699 0.224816 2.22631e-19)
(0.105644 0.0517039 -1.31257e-19)
(0.0360136 0.0585512 1.53964e-19)
(-0.0370162 0.43962 -1.82787e-19)
(0.239619 0.220635 -3.99036e-20)
(1.02497 0.946539 -6.79464e-20)
(1.16661 1.09741 0)
(1.16002 1.11622 1.0923e-21)
(1.10901 1.09608 -8.75135e-20)
(1.04564 1.06802 2.39765e-19)
(0.974262 1.03542 8.63133e-20)
(0.892847 0.997922 0)
(0.800163 0.95338 1.54033e-19)
(0.693884 0.897956 -1.8224e-20)
(0.586856 0.833787 0)
(0.495785 0.76665 0)
(0.423511 0.697875 2.2122e-19)
(0.363592 0.627369 -9.97122e-20)
(0.306137 0.536987 -1.58809e-19)
(0.230219 0.388318 0)
(0.113077 0.210102 1.1242e-19)
(0.0131117 0.456483 -1.31854e-19)
(0.0371643 1.88888 -7.58984e-20)
(0.0650654 2.80425 -9.17062e-20)
(0.239345 0.227021 2.67372e-20)
(1.01849 0.970412 8.13694e-20)
(1.15696 1.12291 -3.27913e-20)
(1.14954 1.14162 -3.9596e-20)
(1.09861 1.12132 0)
(1.0351 1.09313 1.64526e-19)
(0.963821 1.0605 1.31379e-19)
(0.881919 1.02329 -1.31427e-20)
(0.788315 0.979428 2.26987e-20)
(0.680057 0.925221 3.22322e-19)
(0.569464 0.86279 3.06303e-19)
(0.472889 0.797185 2.06359e-19)
(0.393706 0.727199 2.22094e-19)
(0.324222 0.652798 -2.32884e-19)
(0.254333 0.559091 -2.38619e-19)
(0.150637 0.420235 0)
(0.0537179 0.85797 0)
(0.101408 2.55483 6.40384e-20)
(0.10434 3.19498 0)
(0.104923 3.38309 1.7182e-19)
(0.241826 0.23293 0)
(1.01224 0.993354 0)
(1.14725 1.14671 0)
(1.13911 1.16526 -9.77528e-21)
(1.0883 1.14495 -7.60166e-20)
(1.02467 1.11684 1.17184e-19)
(0.953796 1.08445 8.97324e-20)
(0.871398 1.04771 -1.33513e-20)
(0.776966 1.0048 2.02631e-19)
(0.666863 0.952262 -2.08431e-21)
(0.552871 0.89219 6.12789e-19)
(0.450943 0.829598 -2.34208e-20)
(0.36413 0.759372 2.73373e-20)
(0.285976 0.677682 3.34753e-20)
(0.197264 0.58724 8.94516e-23)
(0.113897 0.998917 3.25539e-22)
(0.143696 2.71515 -3.27574e-19)
(0.152342 3.29222 -1.26813e-19)
(0.139575 3.42436 7.0898e-20)
(0.125593 3.44563 -8.17567e-20)
(0.163678 0.177543 -1.37242e-20)
(1.00156 1.01816 0)
(1.13745 1.16903 5.68514e-20)
(1.1291 1.18743 9.44562e-20)
(1.07849 1.16745 -1.42899e-19)
(1.01499 1.1396 -1.21175e-19)
(0.943976 1.10728 -1.00084e-19)
(0.861319 1.07121 1.72998e-19)
(0.766242 1.02948 -1.72228e-19)
(0.654586 0.979059 0)
(0.537455 0.921883 3.07562e-19)
(0.430443 0.863624 -1.70922e-19)
(0.33538 0.797157 0)
(0.249271 0.707769 3.26015e-20)
(0.162043 0.85904 7.7048e-20)
(0.15832 2.49347 -9.0117e-20)
(0.21501 3.32737 1.04352e-19)
(0.193599 3.44084 5.89671e-20)
(0.159898 3.46019 6.89731e-20)
(0.137982 3.46887 1.16396e-19)
(0.2767 0.271168 2.84882e-20)
(0.984464 1.02821 0)
(1.11969 1.19443 -5.33917e-20)
(1.11522 1.22052 -8.935e-20)
(1.06291 1.20096 1.37408e-19)
(0.999009 1.17363 1.1564e-19)
(0.927036 1.14265 1.30987e-19)
(0.843791 1.10782 1.31679e-20)
(0.747454 1.06828 1.75386e-19)
(0.633214 1.02188 2.99083e-19)
(0.51122 0.970822 1.82635e-20)
(0.396807 0.920948 1.5554e-19)
(0.284075 0.86669 2.64337e-20)
(0.221229 1.02079 -3.1822e-20)
(0.229481 2.35666 -7.36506e-20)
(0.283717 3.33571 7.94712e-20)
(0.268177 3.47377 -9.07841e-20)
(0.231573 3.49216 -5.33141e-20)
(0.195135 3.5161 -5.59585e-20)
(0.147173 3.50881 -7.95973e-21)
(0.266686 0.269934 0)
(0.981763 1.05083 -1.02328e-20)
(1.11167 1.21772 9.342e-21)
(1.10539 1.24361 8.76835e-21)
(1.05298 1.224 8.49053e-20)
(0.989211 1.1969 -1.09641e-19)
(0.916965 1.16616 -8.24011e-20)
(0.833626 1.13218 1.25264e-20)
(0.736961 1.09414 -1.8924e-19)
(0.62177 1.05064 -3.00046e-21)
(0.497535 1.00429 -5.78347e-19)
(0.379459 0.960192 2.20179e-20)
(0.273393 0.940216 -2.55871e-20)
(0.258106 1.53968 -3.04042e-20)
(0.321938 3.11679 3.67744e-21)
(0.340531 3.47738 4.91361e-22)
(0.296818 3.52901 1.59026e-19)
(0.26052 3.54877 8.86064e-20)
(0.212437 3.56831 -4.35918e-20)
(0.158981 3.5628 -4.88317e-20)
(0.252286 0.267555 -2.14718e-20)
(0.978076 1.07596 -6.47553e-20)
(1.1032 1.24302 2.61896e-20)
(1.09517 1.26825 3.33491e-20)
(1.04271 1.24848 0)
(0.979079 1.22139 -1.43121e-19)
(0.906816 1.19092 -1.15929e-19)
(0.823645 1.15771 1.18615e-20)
(0.726962 1.12124 -2.06153e-20)
(0.611335 1.08079 -2.91046e-19)
(0.485701 1.03959 -2.76563e-19)
(0.366294 1.0027 -1.8892e-19)
(0.280134 1.07867 -1.96875e-19)
(0.322449 2.23632 2.00481e-19)
(0.403879 3.39631 1.85913e-19)
(0.381244 3.54025 0)
(0.329223 3.57642 0)
(0.29108 3.6099 -3.61647e-20)
(0.240728 3.65807 0)
(0.16878 3.63651 -7.11878e-20)
(0.241919 0.269026 2.70989e-20)
(0.972359 1.10189 4.85705e-20)
(1.09338 1.26952 0)
(1.0838 1.29378 1.30033e-21)
(1.03132 1.27361 7.18893e-20)
(0.967941 1.24642 -2.00085e-19)
(0.89598 1.21621 -7.24383e-20)
(0.813207 1.18368 1.05318e-20)
(0.716769 1.1487 -1.51661e-19)
(0.601125 1.11127 1.59892e-20)
(0.474881 1.07542 0)
(0.357277 1.04933 0)
(0.310426 1.33536 -1.87265e-19)
(0.40116 2.90702 7.88094e-20)
(0.473185 3.50691 1.12797e-19)
(0.420577 3.57869 0)
(0.376731 3.63241 -5.07936e-20)
(0.330334 3.68261 4.96722e-20)
(0.279018 3.65054 1.42972e-20)
(0.181442 3.62766 -3.67609e-21)