/*--------------------------------*- C++ -*----------------------------------*\
  =========                 |
  \\      /  F ield         | OpenFOAM: The Open Source CFD Toolbox
   \\    /   O peration     | Website:  https://openfoam.org
    \\  /    A nd           | Version:  6
     \\/     M anipulation  |
\*---------------------------------------------------------------------------*/
FoamFile
{
    version     2.0;
    format      ascii;
    class       surfaceScalarField;
    location    "4";
    object      phi;
}
// * * * * * * * * * * * * * * * * * * * * * * * * * * * * * * * * * * * * * //

dimensions      [1 0 -1 0 0 0 0];

internalField   nonuniform List<scalar> 
10325
(
0.00840003
2.0622e-11
0.00840003
1.58788e-10
0.00840003
4.93941e-10
0.00840003
1.47968e-09
0.00840003
3.51732e-09
0.00840002
9.2667e-09
0.0084
2.08459e-08
0.00839996
5.41186e-08
0.00839987
1.19231e-07
0.00839943
3.24496e-07
0.00839968
7.03341e-07
0.00839644
2.08154e-06
0.00839474
5.56147e-06
0.00837479
1.8434e-05
0.00831172
6.70933e-05
0.00788719
0.00043485
0.0072268
0.000667625
0.0064604
0.000766059
0.00566858
0.000790804
0.00484306
0.000822961
0.00402602
0.000818714
0.0031553
0.000871803
0.00218856
0.000966919
0.00111232
0.00107753
0.00111162
0.00840003
4.34721e-11
0.00840003
3.37207e-10
0.00840003
1.04135e-09
0.00840003
3.13006e-09
0.00840002
7.40966e-09
0.00840002
1.9605e-08
0.0084
4.39621e-08
0.00839995
1.14863e-07
0.00839985
2.51189e-07
0.00839937
6.94831e-07
0.00839952
1.48524e-06
0.00839596
4.51541e-06
0.00839344
1.19201e-05
0.00836994
4.04651e-05
0.00829363
0.000147477
0.00780496
0.000933793
0.00713104
0.00134875
0.00642724
0.00146933
0.00568467
0.00153235
0.00489704
0.00160824
0.00405863
0.00165892
0.00314709
0.00178408
0.00215972
0.0019546
0.00110937
0.00212933
0.00222032
0.00840003
6.94963e-11
0.00840003
5.38934e-10
0.00840003
1.66302e-09
0.00840003
5.00168e-09
0.00840002
1.18356e-08
0.00840002
3.13652e-08
0.00839999
7.03066e-08
0.00839994
1.84337e-07
0.00839981
4.01765e-07
0.00839929
1.12304e-06
0.00839932
2.37681e-06
0.00839535
7.37839e-06
0.00839194
1.91992e-05
0.00836447
6.65237e-05
0.00827516
0.000240982
0.0077417
0.00147762
0.00710553
0.00199143
0.00640621
0.00216781
0.00568876
0.00224899
0.00492771
0.00236719
0.00409638
0.00249212
0.00316743
0.00271412
0.00216648
0.00295599
0.00110834
0.00318901
0.00332807
0.00840003
9.92909e-11
0.00840003
7.70035e-10
0.00840003
2.37461e-09
0.00840003
7.14469e-09
0.00840002
1.69024e-08
0.00840001
4.4829e-08
0.00839998
1.00464e-07
0.00839992
2.63845e-07
0.00839978
5.7403e-07
0.0083992
1.61266e-06
0.00839908
3.39334e-06
0.00839474
1.0664e-05
0.0083904
2.73923e-05
0.00835923
9.63939e-05
0.00826042
0.00034473
0.00765879
0.00208992
0.00706175
0.00259255
0.00639901
0.00283077
0.00571303
0.0029334
0.00497629
0.00310184
0.00415958
0.00331039
0.00323947
0.0036341
0.00222169
0.00397373
0.00112883
0.00428318
0.00445651
0.00840003
1.33426e-10
0.00840003
1.03461e-09
0.00840003
3.19149e-09
0.00840003
9.60003e-09
0.00840002
2.27145e-08
0.00840001
6.02129e-08
0.00839998
1.3495e-07
0.0083999
3.54165e-07
0.00839974
7.7016e-07
0.0083991
2.16296e-06
0.00839882
4.53789e-06
0.00839417
1.43208e-05
0.00838911
3.62949e-05
0.00835548
0.000128863
0.00825567
0.000449975
0.00766031
0.00269557
0.00702499
0.00323196
0.00640781
0.00344676
0.00576233
0.00357737
0.00506176
0.00380014
0.00426436
0.0041089
0.00334945
0.00454992
0.00233141
0.00499204
0.00120785
0.0054082
0.00566396
0.00840003
1.73901e-10
0.00840003
1.3481e-09
0.00840003
4.1603e-09
0.00840003
1.25077e-08
0.00840002
2.95957e-08
0.00840001
7.8368e-08
0.00839997
1.75604e-07
0.00839988
4.5994e-07
0.00839968
1.00061e-06
0.00839898
2.79702e-06
0.00839845
5.87317e-06
0.00839347
1.8394e-05
0.00838706
4.65006e-05
0.00835184
0.000163155
0.00825005
0.000556737
0.00764951
0.0033078
0.0070197
0.00386221
0.00644831
0.00401832
0.00585386
0.00417136
0.0051954
0.00445705
0.00442233
0.00488226
0.00352121
0.00545258
0.00248628
0.00602803
0.00131351
0.00658221
0.00697718
0.00840003
2.23739e-10
0.00840003
1.73305e-09
0.00840003
5.35987e-09
0.00840003
1.60856e-08
0.00840002
3.80883e-08
0.0084
1.00538e-07
0.00839995
2.25311e-07
0.00839984
5.87628e-07
0.00839959
1.27615e-06
0.00839878
3.55597e-06
0.00839799
7.39194e-06
0.00839232
2.32644e-05
0.00838537
5.71184e-05
0.00834575
0.000202132
0.00824473
0.000662511
0.00764741
0.00391728
0.00702643
0.00448187
0.00650888
0.00453378
0.0059811
0.00469842
0.00537072
0.00506616
0.00464003
0.00561378
0.00376207
0.00633151
0.00272812
0.00706376
0.00149694
0.00781614
0.00847402
0.00840003
2.91969e-10
0.00840003
2.26507e-09
0.00840003
7.00767e-09
0.00840002
2.10317e-08
0.00840001
4.98699e-08
0.00839999
1.31585e-07
0.00839992
2.95887e-07
0.00839976
7.64813e-07
0.00839935
1.70111e-06
0.00839839
4.48301e-06
0.00839644
9.96134e-06
0.00839114
2.78698e-05
0.00838048
7.12537e-05
0.00833772
0.000244607
0.00825371
0.000751302
0.00767945
0.00450426
0.00707835
0.00508048
0.00661143
0.00499774
0.00618839
0.00512103
0.00558829
0.00566632
0.00491815
0.00628428
0.0040961
0.00715136
0.00306375
0.00809525
0.00177272
0.00910932
0.0102472
0.00840003
3.91585e-10
0.00840003
2.84286e-09
0.00840003
9.36237e-09
0.00840002
2.62661e-08
0.00840001
6.64453e-08
0.00839998
1.64899e-07
0.00839988
3.99269e-07
0.00839972
9.46687e-07
0.00839905
2.38639e-06
0.00839837
5.15807e-06
0.00839512
1.40541e-05
0.00839077
3.14039e-05
0.0083754
9.10471e-05
0.00835989
0.000258839
0.0082369
0.000878919
0.00777241
0.00498396
0.00721885
0.00562922
0.00681076
0.00540174
0.00641022
0.00552012
0.00592304
0.0061554
0.00531711
0.0068934
0.00456984
0.00790129
0.00366768
0.00899872
0.00234026
0.0104382
0.0125881
0.00840003
-2.35286e-10
0.00840003
4.75327e-09
0.00840003
3.61908e-09
0.00840002
3.91645e-08
0.00840006
2.97238e-08
0.00839998
2.44758e-07
0.00840021
1.69737e-07
0.00839965
1.53448e-06
0.00840154
5.17316e-07
0.0083959
1.08491e-05
0.00841322
-2.73129e-06
0.00836768
7.66691e-05
0.00847473
-1.24749e-05
0.00821642
0.000515765
0.00834203
0.000757188
0.00813113
0.00521034
0.00758747
0.00616566
0.00712685
0.00585813
0.00670881
0.00593877
0.00633647
0.00652831
0.00585783
0.00737222
0.00529713
0.00846208
0.00446718
0.00982973
0.00323797
0.0116686
0.0158265
0.00840003
3.33203e-10
0.00840003
1.78152e-09
0.00840003
6.96821e-09
0.00840005
1.72511e-08
0.00840003
4.93221e-08
0.00840017
1.07426e-07
0.00840005
3.02738e-07
0.00840101
5.80109e-07
0.00839952
2.03319e-06
0.00840777
2.95603e-06
0.00839023
1.45287e-05
0.00844539
2.36714e-05
0.00833044
0.000101783
0.00859308
0.00025609
0.00829443
0.00105353
0.00918542
0.00434286
0.00843609
0.00690758
0.00759659
0.00669324
0.00713596
0.00639965
0.0067641
0.00690228
0.00637286
0.00776478
0.00601924
0.00881558
0.00576451
0.0100836
0.0059994
0.0114343
0.0117461
0.0100811
0.00840003
7.59351e-10
0.00840003
1.31647e-10
0.00840003
9.81529e-09
0.00840004
5.3303e-09
0.00840002
6.63977e-08
0.00840009
3.67998e-08
0.00840001
3.95186e-07
0.0084004
1.97346e-07
0.00840015
2.38114e-06
0.00840253
6.2624e-07
0.00840048
1.65264e-05
0.00842939
-2.59477e-06
0.00841136
0.000119153
0.0086222
5.21137e-05
0.00898647
0.000679382
0.0111517
0.00219831
0.0100162
0.00804099
0.00863262
0.00807051
0.00792144
0.0071045
0.00743096
0.00739357
0.007076
0.00812399
0.00686048
0.00903478
0.00689598
0.0100491
0.00749214
0.0108373
0.0106155
0.00862174
0.00840003
1.88125e-10
0.00840003
1.61481e-09
0.00840003
4.40918e-09
0.00840002
1.49721e-08
0.00840006
3.20099e-08
0.0084
9.47564e-08
0.00840021
1.92431e-07
0.00839985
5.58359e-07
0.00840114
1.10966e-06
0.00839843
3.34061e-06
0.00840901
6.33636e-06
0.00838501
2.09612e-05
0.00846389
4.27836e-05
0.00836109
0.000153766
0.0086398
0.000403122
0.00908185
0.00176028
0.00968993
0.00743671
0.00924063
0.00851914
0.00848375
0.00785766
0.00802814
0.00784569
0.00777863
0.00837298
0.0076987
0.00912063
0.00788354
0.00986807
0.00843698
0.0102858
0.010002
0.00905028
0.00840003
2.09722e-10
0.00840003
1.61817e-09
0.00840003
4.9451e-09
0.00840003
1.49306e-08
0.00840003
3.53025e-08
0.00840003
9.42956e-08
0.00840001
2.12134e-07
0.00840002
5.53832e-07
0.00839988
1.24793e-06
0.0084001
3.15055e-06
0.00839885
7.7486e-06
0.00840125
1.82409e-05
0.00839794
4.81895e-05
0.00842202
0.000128388
0.00839902
0.000428542
0.00860582
0.00155483
0.00899298
0.00706122
0.00925096
0.00826876
0.0086647
0.00844855
0.00836635
0.0081438
0.00826557
0.00846977
0.00834422
0.00903998
0.00860269
0.00961131
0.00905505
0.0098362
0.00952471
0.0095336
0.00840003
1.93542e-10
0.00840003
1.49798e-09
0.00840003
4.63509e-09
0.00840003
1.39109e-08
0.00840003
3.30528e-08
0.00840004
8.71538e-08
0.00840006
1.96411e-07
0.00840012
5.08351e-07
0.00840026
1.11268e-06
0.00840039
3.04929e-06
0.00840248
6.05864e-06
0.00840053
1.9706e-05
0.00841227
3.95124e-05
0.00839729
0.0001413
0.00845939
0.000370738
0.00848174
0.00153011
0.00881817
0.00673795
0.00885512
0.00823418
0.00880042
0.00850805
0.00863437
0.00831319
0.00861368
0.00848861
0.0087702
0.00888072
0.00908753
0.00929239
0.00948764
0.00943542
0.0091314
0.00988288
0.00840003
1.8862e-10
0.00840003
1.46234e-09
0.00840003
4.48459e-09
0.00840003
1.35359e-08
0.00840003
3.20419e-08
0.00840003
8.53732e-08
0.00840004
1.92034e-07
0.00840005
5.01904e-07
0.00840005
1.11177e-06
0.00840018
2.96821e-06
0.00839994
6.42638e-06
0.00840074
1.87495e-05
0.00840233
4.01387e-05
0.0084067
0.000135501
0.0084224
0.000358928
0.00854921
0.00140367
0.00920097
0.00610249
0.00910898
0.00832413
0.00903169
0.00858516
0.00892086
0.00842643
0.00893424
0.0084754
0.00908337
0.00873035
0.00939525
0.00897793
0.00977364
0.00905625
0.0087791
0.0101259
0.00840003
1.70103e-10
0.00840003
1.31656e-09
0.00840003
4.04371e-09
0.00840003
1.21884e-08
0.00840004
2.88508e-08
0.00840004
7.67868e-08
0.00840007
1.7237e-07
0.00840012
4.5074e-07
0.00840024
9.95406e-07
0.00840057
2.67537e-06
0.00840144
5.65244e-06
0.00840296
1.71638e-05
0.00841056
3.43221e-05
0.00842455
0.000120547
0.00848263
0.000305159
0.00869181
0.0011956
0.0105314
0.00428058
0.00991335
0.008939
0.00955126
0.0089453
0.00930536
0.00867256
0.00930571
0.00847572
0.00942544
0.00861212
0.00965005
0.00875246
0.0099647
0.00873974
0.00847779
0.0102657
0.00840003
1.41893e-10
0.00840003
1.09886e-09
0.00840003
3.39475e-09
0.00840003
1.01968e-08
0.00840004
2.42087e-08
0.00840005
6.38935e-08
0.00840008
1.43951e-07
0.00840017
3.70787e-07
0.00840034
8.24366e-07
0.00840092
2.13779e-06
0.00840192
4.68766e-06
0.00840619
1.28016e-05
0.00841434
2.76651e-05
0.00845418
7.97593e-05
0.00854579
0.000219706
0.00907913
0.000658416
0.0110314
0.00234305
0.0107512
0.00922181
0.0105322
0.00916187
0.00991294
0.00929009
0.00972994
0.00865812
0.00977762
0.00856451
0.00992356
0.00860915
0.0101409
0.00852098
0.00825015
0.0103682
0.00840003
1.19405e-10
0.00840003
9.24373e-10
0.00840003
2.84783e-09
0.00840003
8.56073e-09
0.00840004
2.0311e-08
0.00840005
5.36602e-08
0.00840007
1.2102e-07
0.00840013
3.11512e-07
0.00840027
6.94407e-07
0.00840065
1.78028e-06
0.00840136
3.99606e-06
0.00840392
1.02696e-05
0.00840901
2.33626e-05
0.0084236
6.45708e-05
0.00849104
0.000156725
0.00859157
0.000557225
0.0092518
0.00169117
0.0107641
0.00772671
0.0106371
0.0092908
0.0105224
0.00940522
0.010161
0.00901888
0.0100912
0.00863581
0.010186
0.00851579
0.010327
0.00838308
0.00809767
0.0104792
0.00840003
9.59364e-11
0.00840003
7.4251e-10
0.00840003
2.29679e-09
0.00840003
6.89128e-09
0.00840004
1.63711e-08
0.00840005
4.31135e-08
0.00840007
9.71533e-08
0.00840014
2.49509e-07
0.00840028
5.54161e-07
0.00840064
1.43765e-06
0.00840157
3.08965e-06
0.0084031
8.80357e-06
0.00841035
1.67576e-05
0.00841391
6.05355e-05
0.00845894
0.000115568
0.008521
0.000494277
0.00888677
0.00132992
0.010734
0.00589725
0.010865
0.00915777
0.0107326
0.0095372
0.0104548
0.00929177
0.0103645
0.00872399
0.0104142
0.00846648
0.0105219
0.00827703
0.00799825
0.0106226
0.00840003
7.77887e-11
0.00840003
6.01796e-10
0.00840003
1.85698e-09
0.00840003
5.57571e-09
0.00840004
1.32292e-08
0.00840004
3.48891e-08
0.00840006
7.85952e-08
0.00840011
2.0202e-07
0.00840022
4.49387e-07
0.00840052
1.15449e-06
0.00840107
2.55707e-06
0.0084033
6.66203e-06
0.00840543
1.48407e-05
0.00842629
3.994e-05
0.00844706
9.65961e-05
0.00865328
0.000289438
0.00914258
0.000844777
0.0119469
0.00311875
0.0114932
0.00960975
0.0114292
0.00959652
0.0111203
0.00959941
0.0107545
0.0090872
0.0106643
0.00855355
0.0107028
0.00823786
0.00793617
0.0107655
0.00840003
6.09834e-11
0.00840003
4.71762e-10
0.00840003
1.45887e-09
0.00840003
4.37409e-09
0.00840003
1.0385e-08
0.00840004
2.73157e-08
0.00840006
6.15511e-08
0.00840011
1.57668e-07
0.00840021
3.50841e-07
0.00840048
8.96833e-07
0.00840106
1.98812e-06
0.00840265
5.1158e-06
0.00840617
1.14902e-05
0.00841623
2.98971e-05
0.00844291
7.17067e-05
0.00853406
0.000198366
0.00877899
0.000603566
0.00973064
0.00217033
0.0115186
0.00782902
0.0115608
0.00955334
0.0114272
0.00973131
0.0111119
0.00940187
0.0109865
0.00867763
0.0109328
0.00829054
0.00792818
0.0109396
0.00840003
4.75647e-11
0.00840003
3.61298e-10
0.00840003
1.14235e-09
0.00840003
3.35261e-09
0.00840003
8.1067e-09
0.00840004
2.0903e-08
0.00840005
4.79313e-08
0.00840009
1.20401e-07
0.00840017
2.72164e-07
0.0084004
6.83259e-07
0.00840086
1.53202e-06
0.00840208
3.94836e-06
0.00840516
8.49375e-06
0.00841021
2.47916e-05
0.00843537
4.84612e-05
0.00845994
0.000173242
0.00865748
0.000410678
0.00910469
0.00172374
0.0114109
0.00553681
0.0117025
0.00926287
0.0117045
0.00972969
0.0115436
0.00956356
0.0112742
0.008945
0.0111621
0.00840292
0.00798127
0.0111082
0.00840003
1.16425e-11
0.00840003
3.3959e-10
0.00840003
6.38359e-10
0.00840003
2.94883e-09
0.00840003
4.72222e-09
0.00840004
1.81268e-08
0.00840006
2.81472e-08
0.00840007
1.03935e-07
0.00840019
1.59661e-07
0.00840029
5.88742e-07
0.00840093
8.91879e-07
0.00840156
3.35819e-06
0.00840517
4.89354e-06
0.00841011
1.99633e-05
0.00843316
2.62596e-05
0.00847728
0.000127938
0.00868702
0.000201664
0.00949562
0.000915387
0.0122945
0.00274636
0.0124236
0.00914887
0.0123886
0.00976797
0.0120384
0.00991468
0.0116724
0.00930957
0.011467
0.00860627
0.00810738
0.011341
0.00840003
3.10785e-11
0.00840003
1.63632e-10
0.00840003
6.40418e-10
0.00840003
1.59219e-09
0.00840003
4.51053e-09
0.00840004
1.00017e-08
0.00840004
2.6603e-08
0.00840009
5.75114e-08
0.0084001
1.51136e-07
0.00840037
3.24217e-07
0.00840041
8.54378e-07
0.00840196
1.82113e-06
0.00840201
4.89028e-06
0.00841181
1.02962e-05
0.00840858
2.93965e-05
0.00847662
6.18805e-05
0.00848222
0.000195725
0.00887847
0.000524191
0.00960546
0.00202017
0.0120785
0.00669546
0.0123945
0.00945458
0.0124484
0.00986179
0.011958
0.00979872
0.0117704
0.00879296
0.00828276
0.0115949
0.00840003
3.37508e-11
0.00840003
9.01373e-11
0.00840003
5.52473e-10
0.00840003
9.63016e-10
0.00840003
3.8e-09
0.00840004
6.16078e-09
0.00840004
2.22814e-08
0.00840006
3.55736e-08
0.00840009
1.26403e-07
0.00840021
1.99947e-07
0.00840036
7.13796e-07
0.00840108
1.11094e-06
0.00840191
4.08669e-06
0.00840626
6.02589e-06
0.008411
2.47384e-05
0.00844111
3.26407e-05
0.00847713
0.00015971
0.00872194
0.000282168
0.00953757
0.00120905
0.0122922
0.00395978
0.0126521
0.00909621
0.0127297
0.00978145
0.0126829
0.0098437
0.0121489
0.00932646
0.00856548
0.011865
0.00840003
1.22805e-11
0.00840003
9.80407e-11
0.00840003
2.92267e-10
0.00840003
9.0893e-10
0.00840003
2.08916e-09
0.00840003
5.66622e-09
0.00840004
1.23539e-08
0.00840005
3.25493e-08
0.0084001
7.00067e-08
0.00840012
1.83874e-07
0.00840045
3.93152e-07
0.00840052
1.04028e-06
0.00840242
2.20956e-06
0.00840253
5.95797e-06
0.00841471
1.27518e-05
0.00841274
3.47206e-05
0.00849178
8.18946e-05
0.00854736
0.000227478
0.00908762
0.00066991
0.0107363
0.00231858
0.012647
0.00719756
0.0128796
0.00954819
0.0128562
0.00986575
0.0124503
0.00973194
0.00885948
0.0121537
0.00840003
4.16834e-12
0.00840003
8.60535e-11
0.00840003
1.74571e-10
0.00840003
7.50371e-10
0.00840003
1.2805e-09
0.00840003
4.61012e-09
0.00840004
7.6205e-09
0.00840004
2.63432e-08
0.00840007
4.32325e-08
0.00840011
1.4827e-07
0.00840026
2.41779e-07
0.00840048
8.33325e-07
0.00840135
1.34152e-06
0.00840261
4.73277e-06
0.00840808
7.37141e-06
0.00841484
2.80175e-05
0.0084565
4.11033e-05
0.00850702
0.000177334
0.0088344
0.000345334
0.00979856
0.00135885
0.0125155
0.00449632
0.0130292
0.00903591
0.0131574
0.00973611
0.0130492
0.00983896
0.00932065
0.0125871
0.00840003
1.09108e-11
0.00840003
2.97663e-11
0.00840003
1.86831e-10
0.00840003
3.24117e-10
0.00840003
1.28636e-09
0.00840003
2.07209e-09
0.00840003
7.51898e-09
0.00840005
1.19439e-08
0.00840005
4.24566e-08
0.00840013
6.71194e-08
0.00840014
2.38335e-07
0.0084006
3.74491e-07
0.0084006
1.34405e-06
0.00840328
2.08277e-06
0.00840299
7.69258e-06
0.00841944
1.17345e-05
0.00841482
4.58851e-05
0.00852204
7.08917e-05
0.00857047
0.000297878
0.00927473
0.000654869
0.011501
0.00227692
0.0131901
0.00735634
0.0132649
0.00966178
0.0132945
0.00980907
0.00970314
0.012912
0.00840003
1.8477e-12
0.00840003
3.78634e-11
0.00840003
7.53986e-11
0.00840003
3.32043e-10
0.00840003
5.58588e-10
0.00840003
2.0441e-09
0.00840004
3.33605e-09
0.00840004
1.16724e-08
0.00840006
1.89649e-08
0.00840006
6.55818e-08
0.00840019
1.0645e-07
0.0084002
3.67818e-07
0.00840096
5.94767e-07
0.00840098
2.07523e-06
0.0084054
3.30224e-06
0.00840509
1.20876e-05
0.00843369
1.77467e-05
0.00842765
7.67138e-05
0.00861951
0.000108833
0.00874325
0.000530813
0.00969849
0.00132631
0.0128096
0.0042635
0.0134615
0.00901529
0.0135354
0.00973614
0.00984858
0.0133911
0.00840003
3.27238e-12
0.00840003
1.70004e-11
0.00840003
6.78197e-11
0.00840003
1.66609e-10
0.00840003
4.77094e-10
0.00840003
1.04571e-09
0.00840003
2.80076e-09
0.00840004
5.9891e-09
0.00840004
1.57885e-08
0.00840007
3.35567e-08
0.00840009
8.81637e-08
0.00840027
1.86864e-07
0.00840038
4.91531e-07
0.00840142
1.03895e-06
0.00840199
2.75612e-06
0.00840836
5.76672e-06
0.00841014
1.60004e-05
0.00845563
3.19721e-05
0.00846502
9.91185e-05
0.00878108
0.000218332
0.00934537
0.000762514
0.0114663
0.00214892
0.0135491
0.00694231
0.0136869
0.00960068
0.00973675
0.0138009
0.00840003
2.19616e-12
0.00840003
1.21982e-11
0.00840003
4.45469e-11
0.00840003
1.16188e-10
0.00840003
3.1251e-10
0.00840003
7.24403e-10
0.00840003
1.82938e-09
0.00840003
4.13105e-09
0.00840004
1.02772e-08
0.00840005
2.30654e-08
0.00840008
5.71504e-08
0.00840014
1.28015e-07
0.00840032
3.16885e-07
0.00840065
7.08412e-07
0.00840167
1.75834e-06
0.00840353
3.91754e-06
0.00840969
9.92532e-06
0.00842026
2.16404e-05
0.00845891
6.0556e-05
0.00855198
0.000127431
0.0088765
0.00043846
0.00984369
0.00118642
0.0127832
0.00402055
0.013761
0.0086279
0.00954137
0.013958
0.00840003
1.95958e-12
0.00840003
6.34597e-12
0.00840003
3.38971e-11
0.00840003
6.56755e-11
0.00840003
2.33e-10
0.00840003
4.15178e-10
0.00840003
1.35384e-09
0.00840003
2.37431e-09
0.00840004
7.57917e-09
0.00840005
1.32544e-08
0.00840006
4.20744e-08
0.00840012
7.3453e-08
0.0084002
2.33321e-07
0.00840051
4.05529e-07
0.00840098
1.29756e-06
0.00840268
2.23493e-06
0.00840537
7.2845e-06
0.00841467
1.24764e-05
0.00843356
4.19121e-05
0.00848689
7.48801e-05
0.00866313
0.000263283
0.00922371
0.000627313
0.0111914
0.00205635
0.0135031
0.00633023
0.00922721
0.0138203
0.00840003
3.94511e-13
0.00840003
6.65024e-12
0.00840003
1.40901e-11
0.00840003
5.85607e-11
0.00840003
1.03383e-10
0.00840003
3.58599e-10
0.00840003
6.11915e-10
0.00840003
2.02994e-09
0.00840004
3.44504e-09
0.00840004
1.12851e-08
0.00840006
1.91523e-08
0.00840007
6.24973e-08
0.0084002
1.06021e-07
0.00840026
3.46354e-07
0.00840098
5.85527e-07
0.0084013
1.92982e-06
0.0084054
3.21156e-06
0.00840693
1.10253e-05
0.00843181
1.7292e-05
0.00843995
6.69255e-05
0.00860433
0.000100882
0.00879559
0.000436851
0.00981493
0.00104132
0.0129393
0.00322236
0.00822956
0.0139418
0.00840003
7.36391e-13
0.00840003
2.31207e-12
0.00840003
1.29438e-11
0.00840003
2.45424e-11
0.00840003
8.91208e-11
0.00840003
1.55685e-10
0.00840003
5.16862e-10
0.00840003
8.89406e-10
0.00840003
2.88296e-09
0.00840004
4.95204e-09
0.00840004
1.59277e-08
0.00840008
2.7367e-08
0.0084001
8.77921e-08
0.00840029
1.50603e-07
0.0084004
4.84166e-07
0.00840151
8.25736e-07
0.00840205
2.69798e-06
0.00840867
4.44415e-06
0.00841029
1.57568e-05
0.00845445
2.32152e-05
0.0084561
9.94062e-05
0.00874536
0.000150269
0.00909769
0.000689724
0.0105184
0.00180909
0.00527212
0.013485
0.00840003
2.53841e-13
0.00840003
2.05047e-12
0.00840003
6.06606e-12
0.00840003
1.89994e-11
0.00840003
4.33047e-11
0.00840003
1.17343e-10
0.00840003
2.53351e-10
0.00840003
6.63173e-10
0.00840003
1.41366e-09
0.00840003
3.66751e-09
0.00840004
7.79172e-09
0.00840005
2.01669e-08
0.00840009
4.27772e-08
0.00840013
1.10721e-07
0.00840039
2.34401e-07
0.00840061
6.0811e-07
0.00840203
1.28452e-06
0.00840314
3.35823e-06
0.00841188
7.06176e-06
0.0084162
1.90172e-05
0.00847639
3.95719e-05
0.00851385
0.000113211
0.00893596
0.000269001
0.00987174
0.000869136
0.00235679
0.0128131
0.00840003
1.62546e-13
0.00840003
1.2407e-12
0.00840003
3.92023e-12
0.00840003
1.15343e-11
0.00840003
2.76973e-11
0.00840003
7.09937e-11
0.00840003
1.61111e-10
0.00840003
3.99878e-10
0.00840003
8.95293e-10
0.00840003
2.20337e-09
0.00840004
4.91709e-09
0.00840004
1.20661e-08
0.00840006
2.69047e-08
0.00840011
6.59119e-08
0.00840019
1.46845e-07
0.00840045
3.59519e-07
0.00840093
7.99201e-07
0.00840234
1.97082e-06
0.00840511
4.30515e-06
0.00841298
1.12204e-05
0.0084303
2.26801e-05
0.00847377
6.96769e-05
0.00860984
0.000135854
0.00897751
0.000501287
0.00129473
0.0100452
0.00840003
6.14023e-14
0.00840003
9.02712e-13
0.00840003
2.09261e-12
0.00840003
7.99023e-12
0.00840003
1.51465e-11
0.00840003
4.86531e-11
0.00840003
8.868e-11
0.00840003
2.7318e-10
0.00840003
4.93953e-10
0.00840003
1.50459e-09
0.00840003
2.71735e-09
0.00840004
8.24852e-09
0.00840005
1.48973e-08
0.00840007
4.51849e-08
0.00840014
8.15281e-08
0.00840025
2.47745e-07
0.00840061
4.45472e-07
0.00840123
1.36278e-06
0.00840311
2.43578e-06
0.00840683
7.55649e-06
0.00841608
1.35484e-05
0.00844323
4.28091e-05
0.00849865
8.11043e-05
0.00873579
0.000265471
0.000658946
0.00937183
0.00840003
9.80039e-14
0.00840003
3.2413e-13
0.00840003
1.75622e-12
0.00840003
3.41479e-12
0.00840003
1.20625e-11
0.00840003
2.15187e-11
0.00840003
6.95374e-11
0.00840003
1.21992e-10
0.00840003
3.8509e-10
0.00840003
6.73846e-10
0.00840003
2.11183e-09
0.00840004
3.69761e-09
0.00840004
1.15534e-08
0.00840007
2.02494e-08
0.00840008
6.31928e-08
0.00840022
1.10744e-07
0.00840032
3.46122e-07
0.00840109
6.04949e-07
0.00840164
1.90524e-06
0.00840593
3.28694e-06
0.00840885
1.07245e-05
0.0084343
1.75991e-05
0.00845204
6.36374e-05
0.00861797
0.000101434
0.00040397
0.00887423
0.00840003
2.10986e-14
0.00840003
3.15908e-13
0.00840003
7.04562e-13
0.00840003
2.7949e-12
0.00840003
5.1409e-12
0.00840003
1.70198e-11
0.00840003
3.01458e-11
0.00840003
9.53501e-11
0.00840003
1.67641e-10
0.00840003
5.23365e-10
0.00840003
9.19557e-10
0.00840003
2.85717e-09
0.00840004
5.02426e-09
0.00840004
1.55712e-08
0.00840008
2.73953e-08
0.00840011
8.48087e-08
0.00840031
1.48952e-07
0.00840045
4.62099e-07
0.00840156
8.06855e-07
0.00840234
2.54003e-06
0.0084088
4.2931e-06
0.00841196
1.45496e-05
0.00845373
2.229e-05
0.0084663
8.91531e-05
0.000139102
0.00873395
0.00840003
3.28348e-14
0.00840003
1.10194e-13
0.00840003
5.90226e-13
0.00840003
1.15795e-12
0.00840003
4.05185e-12
0.00840003
7.28806e-12
0.00840003
2.33046e-11
0.00840003
4.12023e-11
0.00840003
1.28586e-10
0.00840003
2.2666e-10
0.00840003
7.01993e-10
0.00840003
1.23769e-09
0.00840003
3.82093e-09
0.00840004
6.7418e-09
0.00840005
2.07771e-08
0.0084001
3.66614e-08
0.00840013
1.12976e-07
0.0084004
1.9895e-07
0.0084006
6.15132e-07
0.00840207
1.07815e-06
0.00840302
3.37401e-06
0.00841182
5.81535e-06
0.00841508
1.91097e-05
0.00847368
3.12912e-05
0.000114498
0.00849824
0.00840003
6.94567e-15
0.00840003
1.02853e-13
0.00840003
2.32545e-13
0.00840003
9.12271e-13
0.00840003
1.696e-12
0.00840003
5.54778e-12
0.00840003
9.92346e-12
0.00840003
3.09898e-11
0.00840003
5.49945e-11
0.00840003
1.69457e-10
0.00840003
3.00396e-10
0.00840003
9.21288e-10
0.00840003
1.63402e-09
0.00840004
4.99995e-09
0.00840005
8.87368e-09
0.00840006
2.71205e-08
0.00840012
4.81176e-08
0.00840018
1.47137e-07
0.00840053
2.60373e-07
0.00840082
7.99383e-07
0.0084028
1.40577e-06
0.00840428
4.37584e-06
0.00841596
7.55542e-06
0.00842266
2.46313e-05
4.12245e-05
0.00849767
0.00840003
8.06066e-15
0.00840003
4.24102e-14
0.00840003
1.67903e-13
0.00840003
4.15683e-13
0.00840003
1.17202e-12
0.00840003
2.57676e-12
0.00840003
6.7582e-12
0.00840003
1.44566e-11
0.00840003
3.72083e-11
0.00840003
7.90414e-11
0.00840003
2.02358e-10
0.00840003
4.29063e-10
0.00840003
1.09661e-09
0.00840003
2.32359e-09
0.00840004
5.93542e-09
0.00840005
1.25676e-08
0.00840007
3.2112e-08
0.00840015
6.78963e-08
0.00840024
1.73789e-07
0.00840067
3.66605e-07
0.00840114
9.43202e-07
0.00840356
1.98104e-06
0.00840598
5.16648e-06
0.00841994
1.0841e-05
2.88688e-05
0.00843242
0.00840003
4.49844e-15
0.00840003
2.49551e-14
0.00840003
9.24295e-14
0.00840003
2.39471e-13
0.00840003
6.43901e-13
0.00840003
1.475e-12
0.00840003
3.69945e-12
0.00840003
8.22938e-12
0.00840003
2.0269e-11
0.00840003
4.47422e-11
0.00840003
1.09623e-10
0.00840003
2.41456e-10
0.00840003
5.90477e-10
0.00840003
1.29965e-09
0.00840003
3.17508e-09
0.00840004
6.98575e-09
0.00840006
1.70536e-08
0.00840009
3.75021e-08
0.00840017
9.15151e-08
0.00840034
2.01045e-07
0.00840079
4.90999e-07
0.0084017
1.07713e-06
0.00840424
2.64325e-06
0.00840933
5.78152e-06
1.44805e-05
0.00842375
0.00840003
2.40896e-15
0.00840003
1.36194e-14
0.00840003
4.94166e-14
0.00840003
1.30083e-13
0.00840003
3.43081e-13
0.00840003
7.96341e-13
0.00840003
1.956e-12
0.00840003
4.40464e-12
0.00840003
1.06051e-11
0.00840003
2.36958e-11
0.00840003
5.66437e-11
0.00840003
1.26325e-10
0.00840003
3.00742e-10
0.00840003
6.70554e-10
0.00840003
1.59054e-09
0.00840004
3.54726e-09
0.00840005
8.3794e-09
0.00840006
1.86926e-08
0.00840011
4.39427e-08
0.00840021
9.80169e-08
0.00840048
2.29184e-07
0.00840104
5.11008e-07
0.00840249
1.18951e-06
0.00840562
2.65203e-06
6.15866e-06
0.0084139
0.00840003
1.92245e-15
0.00840003
4.56457e-15
0.00840003
3.08633e-14
0.00840003
5.07561e-14
0.00840003
2.08469e-13
0.00840003
3.1541e-13
0.00840003
1.17692e-12
0.00840003
1.72072e-12
0.00840003
6.34645e-12
0.00840003
9.02413e-12
0.00840003
3.37461e-11
0.00840003
4.65625e-11
0.00840003
1.78384e-10
0.00840003
2.37639e-10
0.00840003
9.3922e-10
0.00840003
1.19943e-09
0.00840004
4.92724e-09
0.00840005
5.97056e-09
0.00840007
2.57655e-08
0.00840014
2.91423e-08
0.00840023
1.34496e-07
0.0084006
1.37927e-07
0.00840107
7.03255e-07
0.00840309
6.11783e-07
3.78037e-06
0.00840541
0.00840003
4.34223e-16
0.00840003
3.60814e-15
0.00840003
1.04438e-14
0.00840003
3.35418e-14
0.00840003
7.40841e-14
0.00840003
2.02181e-13
0.00840003
4.19167e-13
0.00840003
1.09531e-12
0.00840003
2.22511e-12
0.00840003
5.74109e-12
0.00840003
1.15457e-11
0.00840003
2.96705e-11
0.00840003
5.91816e-11
0.00840003
1.51867e-10
0.00840003
3.00224e-10
0.00840003
7.70101e-10
0.00840003
1.50602e-09
0.00840004
3.86593e-09
0.00840005
7.4567e-09
0.00840006
1.91987e-08
0.00840016
3.63609e-08
0.00840019
9.42999e-08
0.00840071
1.74484e-07
0.00840079
4.63979e-07
7.93244e-07
0.00840373
0.00840003
2.45762e-16
0.00840003
1.75877e-15
0.00840003
6.09387e-15
0.00840003
1.63929e-14
0.00840003
4.2316e-14
0.00840003
9.8676e-14
0.00840003
2.39842e-13
0.00840003
5.37105e-13
0.00840003
1.28968e-12
0.00840003
2.83828e-12
0.00840003
6.82315e-12
0.00840003
1.48424e-11
0.00840003
3.58761e-11
0.00840003
7.72908e-11
0.00840003
1.88198e-10
0.00840003
4.02344e-10
0.00840003
9.88782e-10
0.00840003
2.10228e-09
0.00840003
5.23334e-09
0.00840004
1.10628e-08
0.00840005
2.80835e-08
0.00840008
5.86015e-08
0.00840009
1.52498e-07
0.00840021
2.94833e-07
9.02509e-07
0.00840004
0.00840003
-4.03106e-16
0.00840003
2.35142e-15
0.00840003
-1.69534e-15
0.00840003
1.7713e-14
0.00840003
-8.65548e-15
0.00840003
1.04419e-13
0.00840003
-5.18552e-14
0.00840003
5.83773e-13
0.00840003
-3.33219e-13
0.00840003
3.22256e-12
0.00840003
-2.15771e-12
0.00840003
1.77317e-11
0.00840003
-1.3785e-11
0.00840003
9.75684e-11
0.00840003
-8.62869e-11
0.00840003
5.38398e-10
0.00840003
-5.2883e-10
0.00840003
2.99354e-09
0.00840004
-3.19509e-09
0.00840003
1.69103e-08
0.00840008
-1.93781e-08
0.00840003
9.79753e-08
0.0084003
-1.24602e-07
0.00839994
6.20148e-07
-1.08199e-06
0.00840188
0.00840003
0.00840003
0.00840003
0.00840003
0.00840003
0.00840003
0.00840003
0.00840003
0.00840003
0.00840003
0.00840003
0.00840003
0.00840003
0.00840003
0.00840003
0.00840003
0.00840003
0.00840003
0.00840003
0.00840005
0.00840003
0.00840012
0.0084
0.0084006
0.00839941
0.00542986
0.00465188
0.00359735
0.00183246
0.00273882
0.000858456
0.00234149
0.000396044
0.00213354
0.000206798
0.00208925
4.23999e-05
0.0022485
-0.00016404
0.00244401
-0.000203214
0.00249847
-6.86818e-05
0.00244285
3.34706e-05
0.0022353
0.000158719
0.00179786
0.000327052
0.000918737
0.000694354
0.000280712
0.000626437
-0.000230475
0.000518676
-0.000706822
0.000476747
-0.00114854
0.000432836
-0.00153092
0.000384111
-0.00182565
0.000301694
-0.00204028
0.00021934
-0.00221475
0.000175119
-0.00235867
0.000151857
-0.00248708
0.000138907
-0.00259919
0.00011782
-0.00268364
8.71726e-05
-0.00275964
7.52595e-05
-0.00282392
6.27236e-05
-0.00286425
3.83832e-05
-0.00287433
6.77927e-06
-0.00284681
-3.28013e-05
-0.00276832
-8.55427e-05
-0.0026323
-0.000145218
-0.00243409
-0.000206949
-0.00218742
-0.000255968
-0.00190852
-0.00028776
-0.00161426
-0.000303822
-0.0013172
-0.000306755
-0.00102372
-0.000303205
-0.000713856
-0.000319682
-0.000398794
-0.000324818
-8.4567e-05
-0.000323468
0.00024024
-0.000333716
0.00054261
-0.000310119
0.000818974
-0.000283037
0.00107928
-0.000265899
0.00132256
-0.000247858
0.00155236
-0.000233611
0.00176876
-0.000219938
0.001979
-0.000213382
0.00218262
-0.000206181
0.00237592
-0.00019563
0.00255719
-0.000183375
0.00272866
-0.000173692
0.0028895
-0.000163187
0.0030417
-0.00015466
0.00318402
-0.000145343
0.00331813
-0.000137712
0.00344301
-0.000129389
0.0035606
-0.000122384
0.00366954
-0.000114991
0.00377153
-0.000108523
0.00386588
-0.000101909
0.0039537
-9.59773e-05
0.00403469
-9.00037e-05
0.00411002
-8.45711e-05
0.00417898