/*--------------------------------*- C++ -*----------------------------------*\
  =========                 |
  \\      /  F ield         | OpenFOAM: The Open Source CFD Toolbox
   \\    /   O peration     | Website:  https://openfoam.org
    \\  /    A nd           | Version:  6
     \\/     M anipulation  |
\*---------------------------------------------------------------------------*/
FoamFile
{
    version     2.0;
    format      ascii;
    class       volScalarField;
    location    "4";
    object      T;
}
// * * * * * * * * * * * * * * * * * * * * * * * * * * * * * * * * * * * * * //

dimensions      [0 0 0 1 0 0 0];

internalField   nonuniform List<scalar> 
5250
(
1.00001
1.00001
1.00005
1.00009
1.00028
1.0005
1.00157
1.0029
1.00859
1.01778
1.04593
1.11827
1.27341
1.74105
2.70894
2.77602
2.74805
2.74288
2.72992
2.7398
2.75407
2.76806
2.77865
2.77962
2.7834
1.00001
1.00001
1.00005
1.00009
1.00027
1.0005
1.00156
1.00288
1.00855
1.01768
1.04571
1.11769
1.27189
1.73828
2.70432
2.77476
2.74617
2.74138
2.72899
2.73948
2.75268
2.76644
2.77641
2.77694
2.78106
1.00001
1.00001
1.00005
1.00008
1.00027
1.00049
1.00154
1.00285
1.00846
1.01748
1.04524
1.11638
1.26857
1.73173
2.69335
2.77187
2.74184
2.73801
2.72699
2.73794
2.75099
2.76315
2.77318
2.77376
2.77612
1.00001
1.00001
1.00005
1.00008
1.00027
1.00048
1.00151
1.0028
1.00832
1.01714
1.04447
1.1142
1.2632
1.72038
2.67691
2.76502
2.73613
2.73237
2.7226
2.73385
2.74579
2.75811
2.76592
2.76699
2.77085
1.00001
1.00001
1.00004
1.00008
1.00026
1.00047
1.00147
1.00272
1.00812
1.01666
1.04337
1.111
1.25551
1.7033
2.65315
2.75437
2.73488
2.72608
2.71691
2.72849
2.74029
2.75162
2.75941
2.7577
2.75881
1.00001
1.00001
1.00004
1.00008
1.00025
1.00045
1.00142
1.00262
1.00785
1.01601
1.0419
1.10667
1.24533
1.67979
2.62111
2.73893
2.73352
2.71807
2.70656
2.71622
2.72796
2.73913
2.74623
2.74649
2.74809
1.00001
1.00001
1.00004
1.00007
1.00024
1.00043
1.00136
1.00249
1.00749
1.01518
1.03999
1.1011
1.23229
1.64951
2.57238
2.72291
2.7253
2.71458
2.70114
2.70798
2.71701
2.72419
2.73069
2.72757
2.72432
1.00001
1.00001
1.00004
1.00007
1.00022
1.0004
1.00127
1.00233
1.00705
1.01413
1.03761
1.09405
1.21627
1.61058
2.50733
2.69974
2.71826
2.70876
2.69168
2.6935
2.70172
2.70625
2.70752
2.70537
2.69939
1
1.00001
1.00003
1.00006
1.0002
1.00036
1.00116
1.00212
1.00642
1.01287
1.0342
1.08668
1.19432
1.56666
2.42099
2.6656
2.71469
2.70443
2.68642
2.68192
2.68315
2.68664
2.68294
2.66716
2.63403
1
1.00001
1.00003
1.00005
1.00017
1.00032
1.00098
1.00186
1.00532
1.01152
1.02891
1.07786
1.16912
1.51507
2.3353
2.61843
2.70645
2.69568
2.67485
2.66572
2.66259
2.65495
2.64245
2.6236
2.55813
1
1.00001
1.00002
1.00006
1.00011
1.00035
1.00065
1.00188
1.00398
1.01009
1.02614
1.05888
1.17083
1.38648
2.10662
2.58472
2.69766
2.68396
2.66068
2.6489
2.64421
2.62971
2.59714
2.5337
2.39962
1
1.00001
1.00002
1.00005
1.0001
1.00031
1.00056
1.00174
1.00332
1.00929
1.02077
1.05023
1.13757
1.30992
1.8054
2.53348
2.67171
2.65528
2.629
2.61385
2.60845
2.59605
2.56061
2.48365
2.32569
1
1.00001
1.00002
1.00004
1.00011
1.00021
1.00064
1.00119
1.00358
1.00708
1.01935
1.04505
1.10746
1.2873
1.78019
2.502
2.67349
2.63841
2.62209
2.58857
2.57483
2.54746
2.51059
2.44952
2.31328
1
1
1.00002
1.00003
1.0001
1.00018
1.00057
1.00104
1.0032
1.00613
1.0172
1.03915
1.09261
1.25597
1.6441
2.44735
2.65088
2.59887
2.59854
2.58077
2.55821
2.52727
2.46506
2.41613
2.31219
1
1
1.00001
1.00003
1.00009
1.00015
1.00048
1.00088
1.00269
1.00525
1.01415
1.03401
1.07853
1.2271
1.52638
2.31018
2.60269
2.59794
2.56642
2.55613
2.54061
2.51422
2.44845
2.38869
2.30641
1
1
1.00001
1.00002
1.00007
1.00013
1.00041
1.00074
1.00229
1.00436
1.01221
1.02769
1.06618
1.18599
1.42862
2.1318
2.5206
2.58928
2.55963
2.53973
2.51247
2.49564
2.44718
2.37879
2.3018
1
1
1.00001
1.00002
1.00006
1.0001
1.00033
1.0006
1.00185
1.00349
1.00991
1.02179
1.05313
1.14496
1.32873
1.93897
2.39848
2.56009
2.54577
2.52729
2.49023
2.45904
2.43352
2.37654
2.30496
1
1
1.00001
1.00001
1.00005
1.00008
1.00026
1.00047
1.00147
1.0027
1.008
1.01633
1.04203
1.10535
1.24486
1.62828
2.31747
2.49809
2.50568
2.49917
2.4798
2.44034
2.40535
2.36761
2.3047
1
1
1.00001
1.00001
1.00004
1.00006
1.0002
1.00037
1.00115
1.0021
1.00636
1.01253
1.03345
1.08239
1.18553
1.52896
2.23937
2.45382
2.47524
2.45936
2.44981
2.42515
2.38389
2.34838
2.30058
1
1
1
1.00001
1.00003
1.00005
1.00016
1.00028
1.00088
1.00161
1.00478
1.00964
1.02517
1.06367
1.14123
1.41057
2.054
2.36883
2.45712
2.44644
2.42648
2.4053
2.37099
2.32962
2.28743
1
1
1
1.00001
1.00002
1.00004
1.00012
1.00021
1.00066
1.00121
1.00369
1.00702
1.01985
1.04298
1.10706
1.26751
1.7559
2.23672
2.41373
2.41338
2.40111
2.38254
2.35761
2.32246
2.27961
1
1
1
1
1.00002
1.00003
1.00009
1.00016
1.00049
1.00089
1.00272
1.00512
1.0146
1.03147
1.07696
1.19871
1.49858
2.12506
2.37724
2.39364
2.37691
2.36113
2.33322
2.30546
2.26978
1
1
1
1
1.00001
1.00002
1.00006
1.00011
1.00036
1.00064
1.00197
1.00371
1.01043
1.02286
1.05551
1.15072
1.34043
1.9063
2.27657
2.36918
2.36454
2.34541
2.32153
2.29144
2.26142
1
1
1
1
1.00001
1.00001
1.00004
1.00008
1.00025
1.00045
1.00139
1.00258
1.00756
1.01521
1.03976
1.0938
1.22981
1.5536
2.14845
2.30951
2.32699
2.31937
2.29985
2.27005
2.24257
1
1
1
1
1
1.00001
1.00002
1.00007
1.00013
1.00041
1.00076
1.00226
1.00435
1.01208
1.02665
1.06445
1.16876
1.40528
1.97376
2.25902
2.30573
2.30098
2.28498
2.25726
2.22667
1
1
1
1
1
1.00001
1.00002
1.00005
1.00009
1.00029
1.00052
1.0016
1.00299
1.00858
1.01798
1.04522
1.1159
1.26487
1.67955
2.1249
2.26595
2.27082
2.26239
2.24438
2.21329
1
1
1
1
1
1
1.00001
1.00003
1.00008
1.00015
1.00045
1.00085
1.0025
1.00491
1.0135
1.0289
1.07473
1.1715
1.49757
1.9598
2.20747
2.24193
2.23976
2.2254
2.20261
1
1
1
1
1
1
1.00001
1.00002
1.00006
1.0001
1.00031
1.00057
1.00172
1.00322
1.00928
1.01918
1.04841
1.12007
1.28489
1.70136
2.08317
2.2095
2.21154
2.20337
2.18582
1
1
1
1
1
1
1.00001
1.00002
1.00003
1.00008
1.00016
1.00047
1.00089
1.00255
1.00507
1.01384
1.0294
1.07754
1.17168
1.52649
1.89978
2.13514
2.18385
2.18676
2.17462
1
1
1
1
1
1
1
1.00001
1.00002
1.00004
1.00013
1.00024
1.00071
1.00134
1.00391
1.00776
1.02052
1.04811
1.11067
1.29519
1.76261
2.02347
2.12276
2.14831
2.14758
1
1
1
1
1
1
1
1.00001
1.00001
1.00004
1.00006
1.00019
1.00036
1.00107
1.002
1.00576
1.01164
1.02997
1.07203
1.16504
1.43105
1.92423
2.08024
2.10649
2.11475
1
1
1
1
1
1
1
1
1.00001
1.00002
1.00004
1.00013
1.00023
1.0007
1.00126
1.00378
1.00717
1.01974
1.04376
1.10194
1.26895
1.68482
1.99347
2.09047
2.09089
1
1
1
1
1
1
1
1
1
1.00001
1.00003
1.00008
1.00014
1.00043
1.00079
1.00234
1.00445
1.01256
1.02552
1.06803
1.14826
1.44392
1.80021
2.03723
2.07541
1
1
1
1
1
1
1
1
1
1.00001
1.00002
1.00004
1.00011
1.0002
1.0006
1.00113
1.00325
1.00642
1.01711
1.03824
1.09107
1.22775
1.60756
1.90023
2.03939
1
1
1
1
1
1
1
1
1
1.00001
1.00001
1.00003
1.00005
1.00015
1.00028
1.00083
1.00158
1.00439
1.00918
1.02272
1.05727
1.12342
1.34593
1.77525
1.96509
1
1
1
1
1
1
1
1
1
1
1.00001
1.00001
1.00004
1.00007
1.00021
1.0004
1.00116
1.00219
1.00617
1.01258
1.03182
1.07632
1.17385
1.44068
1.83829
1
1
1
1
1
1
1
1
1
1
1
1.00001
1.00002
1.00004
1.00013
1.00024
1.00071
1.0013
1.00377
1.00742
1.01906
1.04621
1.10059
1.28129
1.66462
1
1
1
1
1
1
1
1
1
1
1
1
1.00001
1.00003
1.00008
1.00014
1.00042
1.00078
1.00229
1.00433
1.01219
1.02452
1.0653
1.14047
1.42388
1
1
1
1
1
1
1
1
1
1
1
1
1.00001
1.00002
1.00004
1.0001
1.00019
1.00056
1.00105
1.00298
1.00587
1.01555
1.03441
1.08149
1.20067
1
1
1
1
1
1
1
1
1
1
1
1
1
1.00001
1.00003
1.00005
1.00014
1.00025
1.00073
1.00139
1.00383
1.00797
1.0196
1.0489
1.10486
1
1
1
1
1
1
1
1
1
1
1
1
1
1.00001
1.00001
1.00003
1.00006
1.00018
1.00033
1.00096
1.00183
1.00511
1.01039
1.02637
1.06115
1
1
1
1
1
1
1
1
1
1
1
1
1
1
1.00001
1.00001
1.00004
1.00008
1.00023
1.00044
1.00126
1.00239
1.00662
1.01356
1.0339
1
1
1
1
1
1
1
1
1
1
1
1
1
1
1
1.00001
1.00002
1.00006
1.00011
1.00031
1.00058
1.00164
1.00318
1.00857
1.0179
1
1
1
1
1
1
1
1
1
1
1
1
1
1
1
1.00001
1.00001
1.00003
1.00006
1.00018
1.00033
1.00098
1.0018
1.00516
1.00999
1
1
1
1
1
1
1
1
1
1
1
1
1
1
1
1
1.00001
1.00002
1.00004
1.00011
1.0002
1.00061
1.00111
1.00323
1.00612
1
1
1
1
1
1
1
1
1
1
1
1
1
1
1
1
1
1.00001
1.00003
1.00008
1.00015
1.00044
1.00082
1.00243
1.00459
1
1
1
1
1
1
1
1
1
1
1
1
1
1
1
1
1.00001
1.00001
1.00003
1.00005
1.00016
1.00029
1.00089
1.00166
1.00492
1
1
1
1
1
1
1
1
1
1
1
1
1
1
1
1
1
1.00001
1.00003
1.00005
1.00015
1.00027
1.00086
1.00156
1.0048
1
1
1
1
1
1
1
1
1
1
1
1
1
1
1
1
1
1.00001
1.00002
1.00004
1.00014
1.00026
1.00079
1.00149
1.0043
1
1
1
1
1
1
1
1
1
1
1
1
1
1
1
1
1
1.00001
1.00002
1.00006
1.0001
1.00032
1.0006
1.00178
1.00363
2.31915
2.1799
2.12958
2.13479
2.22469
2.29498
2.38189
2.44796
2.50161
2.56585
2.6654
2.8612
3.04138
3.10429
3.11554
3.10479
3.06204
3.00355
2.98677
2.97933
2.95926
2.93961
2.9299
2.91418
2.89871
2.88709
2.87487
2.86881
2.86754
2.86914
2.8817
2.89612
2.91571
2.93498
2.95137
2.96573
2.97292
2.97988
2.98205
2.98293
2.98152
2.97663
2.96531
2.96128
2.95262
2.94791
2.93824
2.93311
2.92277
2.91655
2.9043
2.89805
2.88552
2.87915
2.86611
2.85948
2.84626
2.83931
2.82627
2.81839
2.80594
2.79755
2.78537
2.77688
2.76496
2.7562
2.74504
2.73536
2.72508
2.71469
2.70489
2.69444
2.68463
2.67455
2.66481
2.65507
2.64561
2.63615
2.62696
2.61793
2.60869
2.60048
2.59073
2.58351
2.57334
2.56674
2.55647
2.5502
2.54003
2.53397
2.52397
2.51813
2.50841
2.50271
2.49342
2.48812
2.47978
2.47609
2.47046
2.47133
2.23026
2.13947
2.09039
2.08437
2.08675
2.0771
2.05769
2.05237
2.07171
2.12767
2.24622
2.46438
2.75775
2.89294
2.96194
3.03411
3.07614
3.09898
3.10403
3.09691
3.07338
3.05474
3.05556
3.05674
3.0429
3.02647
3.02065
3.01882
3.01957
3.02268
3.02727
3.02913
3.02846
3.01841
3.00486
2.99153
2.97454
2.95623
2.92708
2.91032
2.89332
2.87531
2.85934
2.84235
2.82744
2.81029
2.79521
2.78017
2.76417
2.74968
2.73405
2.71958
2.70496
2.69091
2.67646
2.66229
2.64799
2.63371
2.61949
2.60507
2.5914
2.5772
2.56457
2.55114
2.53982
2.52757
2.51745
2.50663
2.4972
2.4877
2.47823
2.46966
2.45976
2.45192
2.4417
2.43422
2.42382
2.41641
2.40583
2.39853
2.38762
2.38049
2.36933
2.36226
2.35112
2.34403
2.33302
2.32611
2.31518
2.30852
2.29776
2.29132
2.28083
2.27475
2.26483
2.25944
2.2506
2.2468
2.24069
2.24109
2.22725
2.14724
2.0812
2.01625
1.9481
1.90085
1.86776
1.86639
1.87865
1.91397
1.99695
2.1968
2.47867
2.58669
2.67756
2.78619
2.8475
2.89942
2.97484
3.02911
3.06018
3.07951
3.09692
3.10903
3.11961
3.12467
3.12664
3.13624
3.13859
3.13778
3.12496
3.10174
3.07448
3.04118
3.00939
2.96717
2.93653
2.90168
2.87688
2.85374
2.83158
2.81126
2.79042
2.77213
2.75178
2.73693
2.71825
2.7063
2.68942
2.67587
2.65996
2.64586
2.63161
2.61719
2.60292
2.58881
2.5743
2.56097
2.54618
2.53294
2.51748
2.50379
2.48779
2.47397
2.45779
2.44436
2.42859
2.41634
2.40195
2.39169
2.37941
2.37148
2.36138
2.35509
2.34655
2.34104
2.33329
2.32806
2.32032
2.3152
2.30699
2.3018
2.29301
2.28743
2.27811
2.27196
2.26223
2.25553
2.24548
2.23848
2.22826
2.22129
2.21105
2.20441
2.19439
2.1884
2.17917
2.17457
2.16797
2.16689
2.21756
2.13425
2.05504
1.98212
1.91943
1.86364
1.82553
1.80988
1.81332
1.82893
1.8688
1.99218
2.15881
2.40563
2.54775
2.58455
2.6023
2.66984
2.74645
2.79082
2.85954
2.92602
2.98193
3.02614
3.05889
3.08631
3.10758
3.12179
3.12797
3.11883
3.09422
3.05779
3.00828
2.95857
2.90574
2.8694
2.82911
2.80419
2.77428
2.75783
2.73399
2.72207
2.70242
2.69132
2.67417
2.66327
2.6484
2.63967
2.62806
2.61997
2.60682
2.59764
2.58449
2.57493
2.56142
2.55065
2.53697
2.5255
2.51233
2.50057
2.48757
2.47463
2.4607
2.44619
2.43116
2.41559
2.39976
2.3837
2.36721
2.35087
2.33406
2.31811
2.30215
2.28759
2.2737
2.26138
2.24997
2.2401
2.23057
2.22267
2.21418
2.2077
2.2
2.19462
2.18763
2.18292
2.17631
2.17173
2.16501
2.1601
2.15296
2.14759
2.13997
2.13427
2.12631
2.1206
2.11279
2.10786
2.1019
2.10017
2.21745
2.13481
2.05679
1.98433
1.92019
1.86669
1.81765
1.78548
1.76805
1.77084
1.78852
1.83617
1.98737
2.16711
2.3391
2.44022
2.4843
2.50977
2.5414
2.60348
2.65372
2.6888
2.74597
2.80471
2.86242
2.91599
2.95654
2.98731
2.99143
2.97754
2.93973
2.88209
2.8216
2.76669
2.72361
2.68807
2.66334
2.64244
2.62752
2.61336
2.60189
2.5911
2.58091
2.57303
2.56443
2.55751
2.54928
2.54316
2.53579
2.52901
2.52034
2.51276
2.505
2.49886
2.49215
2.48564
2.47826
2.47033
2.46229
2.45403
2.44634
2.43825
2.43003
2.42062
2.41044
2.39883
2.38631
2.37283
2.35839
2.34348
2.3274
2.31114
2.29393
2.27713
2.26002
2.24436
2.22873
2.21559
2.20213
2.19158
2.17992
2.17092
2.16024
2.15207
2.14233
2.13523
2.12681
2.12108
2.11395
2.10928
2.10283
2.09861
2.09223
2.08812
2.08161
2.07774
2.07127
2.06832
2.06317
2.06346
2.21912
2.13854
2.06613
1.99804
1.93507
1.87867
1.82985
1.78791
1.75562
1.74597
1.75164
1.77368
1.83476
1.98149
2.21428
2.30495
2.33399
2.38837
2.43735
2.46149
2.48133
2.52334
2.56944
2.60266
2.6504
2.69777
2.73486
2.77551
2.78482
2.77351
2.73588
2.685
2.63762
2.59653
2.56578
2.54681
2.53704
2.5303
2.52446
2.51797
2.51079
2.50423
2.49669
2.48956
2.48096
2.47259
2.46303
2.45506
2.44639
2.43932
2.43018
2.42231
2.41371
2.40748
2.40071
2.39528
2.38914
2.38324
2.37718
2.37091
2.36545
2.36034
2.35657
2.35267
2.34856
2.3431
2.33617
2.32786
2.31807
2.30774
2.29609
2.28435
2.27096
2.25741
2.24202
2.22675
2.21018
2.19479
2.1788
2.16505
2.15088
2.13945
2.12735
2.11761
2.10677
2.09779
2.0875
2.07914
2.06944
2.06209
2.05328
2.04706
2.03902
2.03369
2.02592
2.02142
2.01383
2.01059
2.00476
2.00507
2.22514
2.14993
2.07686
2.01195
1.95163
1.89573
1.8468
1.80159
1.7667
1.73618
1.73194
1.74043
1.7676
1.84018
1.98335
2.19142
2.27003
2.28185
2.3105
2.35771
2.38929
2.40277
2.42964
2.46781
2.50646
2.54322
2.58326
2.62327
2.6374
2.62915
2.59823
2.55566
2.51664
2.48005
2.45761
2.44191
2.43634
2.43699
2.43751
2.43687
2.43458
2.43061
2.42678
2.42224
2.41807
2.41357
2.40905
2.40452
2.39995
2.39486
2.38836
2.38115
2.3737
2.36721
2.36126
2.35575
2.35016
2.34417
2.33837
2.33237
2.32708
2.32152
2.31754
2.31372
2.31121
2.30811
2.30406
2.29857
2.29084
2.2821
2.27165
2.26079
2.24895
2.23667
2.22339
2.20958
2.19466
2.17969
2.16408
2.14956
2.13506
2.12263
2.11009
2.10011
2.0892
2.08068
2.07054
2.06228
2.05235
2.04415
2.0345
2.02717
2.018
2.01228
2.00362
1.99932
1.99125
1.98797
1.98169
1.9813
2.23672
2.16323
2.09437
2.02945
1.96842
1.91539
1.8628
1.82069
1.77792
1.74826
1.72227
1.72193
1.73247
1.76318
1.85397
1.97821
2.14762
2.22322
2.24591
2.25822
2.28658
2.32104
2.34581
2.36797
2.40336
2.44509
2.48777
2.53619
2.55234
2.54262
2.51358
2.46998
2.43193
2.39258
2.37274
2.35505
2.34784
2.34716
2.35187
2.35658
2.35837
2.3602
2.35963
2.3582
2.35599
2.353
2.34923
2.3449
2.34022
2.3347
2.32848
2.32253
2.31604
2.31036
2.30584
2.30268
2.2998
2.29643
2.29231
2.28777
2.28366
2.28002
2.27696
2.27454
2.27275
2.27176
2.27017
2.26805
2.2636
2.25815
2.2503
2.24221
2.23254
2.2229
2.21183
2.20054
2.18715
2.17387
2.15819
2.14367
2.12718
2.11278
2.09738
2.08432
2.07092
2.0596
2.04773
2.03795
2.02661
2.01804
2.00684
1.99929
1.98864
1.98208
1.97258
1.96709
1.95902
1.9549
1.94894
1.94817
2.24177
2.17811
2.11364
2.05113
1.99358
1.93684
1.88904
1.83987
1.80121
1.76154
1.73454
1.71382
1.71512
1.7283
1.76152
1.86468
1.97949
2.10225
2.17511
2.20648
2.21784
2.23393
2.26788
2.30315
2.33256
2.37978
2.44008
2.49245
2.50438
2.49036
2.45806
2.41954
2.371
2.33275
2.30388
2.28943
2.28005
2.27431
2.27893
2.28777
2.29674
2.30341
2.30752
2.30956
2.31037
2.30972
2.30812
2.30535
2.30197
2.29706
2.2904
2.28323
2.27584
2.26851
2.26217
2.25721
2.25288
2.2483
2.24298
2.23726
2.23183
2.22721
2.22363
2.22091
2.2189
2.21763
2.21678
2.21598
2.21417
2.21129
2.20623
2.20084
2.19365
2.18695
2.1784
2.17055
2.16061
2.15099
2.13919
2.12731
2.11375
2.10043
2.08589
2.0726
2.05801
2.04597
2.03204
2.02154
2.00856
1.99911
1.98706
1.97818
1.96692
1.95877
1.94828
1.94154
1.93216
1.92758
1.92068
1.91988
2.23901
2.18501
2.1267
2.07058
2.01358
1.96318
1.91112
1.86787
1.82325
1.78709
1.75194
1.72603
1.71187
1.71397
1.72919
1.76632
1.8701
1.99123
2.07526
2.12981
2.16627
2.18396
2.19974
2.23577
2.28236
2.34786
2.42104
2.46951
2.47412
2.4578
2.42413
2.37793
2.32806
2.28468
2.25615
2.24034
2.22996
2.2265
2.22269
2.22889
2.23919
2.24915
2.25811
2.26438
2.26957
2.27363
2.27359
2.27258
2.27013
2.26592
2.26011
2.25412
2.24797
2.24189
2.236
2.23125
2.22675
2.22223
2.2169
2.21085
2.20452
2.19844
2.19318
2.18889
2.18533
2.18299
2.18075
2.17961
2.17758
2.17609
2.17296
2.1699
2.16508
2.16023
2.15404
2.14778
2.14036
2.13282
2.12382
2.1146
2.10334
2.09229
2.07886
2.06649
2.05179
2.03894
2.02408
2.01163
1.99762
1.98638
1.97357
1.96383
1.95199
1.94361
1.93253
1.92523
1.91532
1.90899
1.90186
1.89825
2.23535
2.18498
2.13502
2.08247
2.03252
1.98179
1.93646
1.88985
1.84992
1.81016
1.77591
1.74581
1.72101
1.71232
1.71653
1.73355
1.7748
1.87171
1.99454
2.06465
2.09933
2.13542
2.16232
2.19267
2.25017
2.33803
2.42533
2.46027
2.45858
2.43749
2.39763
2.34964
2.29816
2.25866
2.22911
2.21013
2.19869
2.19246
2.19091
2.18908
2.19526
2.20501
2.21572
2.22622
2.23343
2.23965
2.24159
2.24095
2.2385
2.23423
2.2286
2.22321
2.21727
2.21152
2.2056
2.19997
2.19414
2.18775
2.18092
2.17338
2.16578
2.15809
2.15106
2.14467
2.13907
2.1344
2.13033
2.12744
2.12488
2.12341
2.12165
2.1206
2.11851
2.11688
2.11366
2.11074
2.10581
2.1012
2.09448
2.08808
2.07948
2.07108
2.06031
2.04969
2.03668
2.02445
2.00985
1.99721
1.98204
1.97007
1.95548
1.94493
1.93185
1.92284
1.91179
1.90393
1.89494
1.88811
1.88211
1.87777
2.22687
2.18409
2.13683
2.08971
2.04256
1.99652
1.95247
1.91035
1.8699
1.83243
1.79777
1.76485
1.73987
1.71669
1.71325
1.71874
1.73699
1.78304
1.87012
1.99472
2.0571
2.08552
2.12414
2.17645
2.25334
2.36149
2.44615
2.46167
2.4537
2.42415
2.38417
2.33086
2.28411
2.24738
2.2168
2.19512
2.17848
2.16875
2.16284
2.15944
2.15669
2.16159
2.17033
2.18281
2.19367
2.20391
2.20905
2.20933
2.20745
2.20285
2.19656
2.19029
2.18424
2.17847
2.17236
2.16589
2.15909
2.15196
2.14442
2.1365
2.12827
2.12001
2.11186
2.10392
2.09625
2.08891
2.08219
2.07632
2.0716
2.0682
2.06598
2.06472
2.0642
2.06407
2.06407
2.06407
2.06396
2.0634
2.06154
2.05804
2.05205
2.04634
2.03741
2.02964
2.01789
2.00832
1.99437
1.98354
1.96852
1.95716
1.94241
1.93137
1.9181
1.90809
1.89685
1.88826
1.87944
1.87266
1.86729
1.86328
2.22271
2.18158
2.13829
2.09506
2.05039
2.00813
1.96491
1.92607
1.88651
1.8512
1.81587
1.78593
1.75496
1.73328
1.71414
1.71396
1.72092
1.74127
1.79499
1.87285
1.99323
2.05878
2.09878
2.1614
2.28765
2.40892
2.47128
2.47036
2.45596
2.42047
2.37132
2.3218
2.27828
2.24289
2.21273
2.18929
2.17017
2.15695
2.14673
2.13893
2.13255
2.1308
2.13266
2.13936
2.15012
2.15832
2.16463
2.16501
2.16451
2.1609
2.15645
2.15152
2.14667
2.14111
2.13472
2.12709
2.11895
2.11068
2.10244
2.09418
2.08585
2.07757
2.06944
2.06151
2.05368
2.04599
2.03851
2.03156
2.02553
2.02065
2.01716
2.01511
2.0143
2.01426
2.01454
2.01533
2.01618
2.01681
2.01699
2.01684
2.0158
2.01328
2.0075
2.00164
1.99242
1.98435
1.97271
1.96312
1.9501
1.93997
1.92677
1.91702
1.90461
1.89568
1.88481
1.87719
1.86875
1.86272
1.85832
1.85436
2.21299
2.17683
2.13812
2.09694
2.05675
2.01562
1.97671
1.93704
1.90151
1.86493
1.83252
1.80039
1.77191
1.74543
1.72425
1.711
1.71237
1.7222
1.74598
1.8077
1.88281
2.00371
2.08736
2.18551
2.33758
2.46789
2.49084
2.48557
2.45669
2.4164
2.36368
2.31765
2.27976
2.24767
2.22025
2.19622
2.17543
2.1564
2.13798
2.12328
2.11088
2.10288
2.09722
2.0955
2.09763
2.10385
2.1082
2.11143
2.11208
2.11236
2.11024
2.10761
2.10396
2.09999
2.09506
2.08895
2.08176
2.07432
2.06697
2.05976
2.0526
2.04527
2.03771
2.0299
2.02196
2.01414
2.00662
1.99961
1.99328
1.98793
1.98371
1.9806
1.97848
1.9771
1.97626
1.97583
1.97572
1.97575
1.97574
1.97558
1.97472
1.973
1.96883
1.96491
1.95739
1.95163
1.94178
1.93452
1.92318
1.9152
1.90354
1.89548
1.88448
1.877
1.86796
1.86141
1.85552
1.85023
1.84865
1.8444
2.19828
2.16771
2.13444
2.09833
2.06152
2.02317
1.98699
1.94958
1.91466
1.88021
1.84824
1.81597
1.78871
1.75976
1.73793
1.71743
1.71021
1.71366
1.72658
1.75543
1.82615
1.9251
2.05125
2.23517
2.41457
2.51024
2.50912
2.49702
2.46295
2.41126
2.362
2.31956
2.28428
2.25466
2.22933
2.20371
2.17827
2.15132
2.12774
2.10355
2.08585
2.07012
2.06039
2.05158
2.04829
2.04421
2.04718
2.0516
2.05748
2.06041
2.06367
2.06338
2.06208
2.05953
2.05688
2.0534
2.04895
2.04348
2.03772
2.03178
2.0257
2.01941
2.01268
2.00575
1.99838
1.99118
1.98379
1.97685
1.96989
1.9638
1.95811
1.95362
1.94969
1.94693
1.94463
1.94334
1.94228
1.94187
1.94124
1.94081
1.93966
1.93829
1.93481
1.9318
1.92536
1.92103
1.91252
1.90721
1.89771
1.89172
1.88193
1.87546
1.86672
1.86024
1.85394
1.84826
1.84463
1.84211
1.84128
1.83698
2.18438
2.15481
2.12471
2.09251
2.05996
2.02684
1.9914
1.9591
1.92409
1.89335
1.86065
1.83232
1.80178
1.77747
1.7502
1.73152
1.71506
1.71508
1.72222
1.7417
1.79059
1.87167
2.04419
2.26183
2.49284
2.54414
2.54042
2.51965
2.47502
2.41875
2.36999
2.33129
2.29701
2.26818
2.23544
2.2054
2.16996
2.13935
2.10788
2.08355
2.05954
2.04188
2.02571
2.01512
2.00568
2.00134
2.00034
2.00254
2.00917
2.0144
2.02048
2.02226
2.02423
2.02333
2.02171
2.02007
2.01784
2.01482
2.01034
2.00517
1.9995
1.9935
1.98719
1.98063
1.97371
1.96669
1.95955
1.95271
1.94589
1.93939
1.93289
1.92697
1.92155
1.9172
1.91361
1.91111
1.90928
1.9083
1.90765
1.90747
1.9072
1.90697
1.90602
1.9048
1.90142
1.89873
1.89267
1.88858
1.8808
1.87516
1.86741
1.86132
1.85465
1.84941
1.8448
1.84141
1.83953
1.8382
1.8395
1.83544
2.17657
2.14927
2.12034
2.09049
2.05742
2.02703
1.99407
1.96315
1.93085
1.90112
1.8702
1.84297
1.81382
1.78965
1.76337
1.74389
1.72564
1.72274
1.73015
1.74433
1.78517
1.86622
2.05586
2.30083
2.5449
2.58344
2.57377
2.54399
2.48238
2.41886
2.36585
2.32279
2.28705
2.24916
2.21335
2.17334
2.13936
2.10707
2.08128
2.05586
2.03409
2.01455
1.99861
1.98672
1.97815
1.97186
1.96889
1.96771
1.96836
1.97241
1.97803
1.98337
1.9878
1.98959
1.99012
1.98852
1.98642
1.98379
1.98036
1.97569
1.97023
1.96433
1.95798
1.95168
1.94509
1.93866
1.93182
1.92537
1.91876
1.91275
1.90661
1.90125
1.89606
1.89194
1.88816
1.88548
1.88313
1.88179
1.88062
1.88022
1.87969
1.87954
1.87896
1.87843
1.87668
1.87531
1.87204
1.86924
1.86477
1.86081
1.85654
1.8526
1.84924
1.84639
1.84448
1.84292
1.84247
1.8428
1.84663
1.84339
2.15809
2.13499
2.1097
2.0856
2.05624
2.02635
1.99687
1.96699
1.93697
1.90758
1.87847
1.85139
1.8232
1.79962
1.77359
1.75514
1.73727
1.73652
1.74414
1.76238
1.80423
1.88639
2.08668
2.28379
2.48911
2.51551
2.50042
2.47542
2.42374
2.3693
2.32239
2.28219
2.24586
2.21222
2.18012
2.1486
2.11932
2.09165
2.06684
2.04219
2.02111
2.00024
1.9835
1.96805
1.95635
1.94658
1.93876
1.93317
1.93123
1.93016
1.93295
1.9389
1.94429
1.95122
1.95424
1.95709
1.95677
1.95575
1.95454
1.95248
1.94916
1.94446
1.93914
1.93348
1.92758
1.92151
1.91525
1.9091
1.90286
1.89685
1.89072
1.88484
1.87911
1.87415
1.86991
1.86671
1.86431
1.86281
1.86189
1.86171
1.8618
1.86222
1.86261
1.86309
1.86298
1.86247
1.86084
1.85881
1.85612
1.85388
1.85154
1.84997
1.84849
1.84752
1.84709
1.84766
1.8495
1.85068
1.85478
1.85172
2.15301
2.12567
2.10012
2.07425
2.05092
2.02398
1.99704
1.96834
1.94226
1.91317
1.88615
1.85998
1.83288
1.80954
1.78568
1.76676
1.75596
1.75822
1.76971
1.79466
1.84917
1.95984
2.11013
2.25893
2.3875
2.43477
2.43052
2.41399
2.392
2.35258
2.3077
2.26614
2.22999
2.19933
2.16905
2.14085
2.11199
2.08622
2.06018
2.03693
2.01299
1.99261
1.97241
1.95552
1.94012
1.92784
1.91817
1.91066
1.90563
1.90314
1.90313
1.9043
1.90876
1.91496
1.92068
1.92558
1.92775
1.92928
1.92809
1.92677
1.9244
1.92102
1.91591
1.91062
1.90489
1.89942
1.89363
1.88808
1.88219
1.87665
1.87088
1.86552
1.86014
1.85543
1.85112
1.84777
1.84509
1.84339
1.84232
1.84222
1.84244
1.84313
1.8443
1.84566
1.84656
1.84728
1.84779
1.84804
1.84831
1.8489
1.84917
1.84953
1.85026
1.85186
1.85394
1.85497
1.85709
1.85734
1.85935
1.85549
2.13985
2.11958
2.09599
2.06924
2.04519
2.01877
1.99475
1.9678
1.94268
1.91789
1.89035
1.86697
1.84085
1.81893
1.7979
1.78282
1.78095
1.78964
1.80926
1.85061
1.93944
2.06296
2.15156
2.22127
2.28371
2.3412
2.36901
2.36666
2.3537
2.33337
2.29949
2.26085
2.22564
2.19411
2.16364
2.13449
2.10685
2.08105
2.05579
2.03145
2.0078
1.98647
1.96568
1.94811
1.9301
1.91647
1.90366
1.89447
1.88603
1.88031
1.87634
1.87636
1.87654
1.87958
1.88459
1.89018
1.89533
1.89809
1.89993
1.8995
1.89824
1.89673
1.8938
1.88989
1.88458
1.87944
1.8739
1.86878
1.86329
1.85819
1.85266
1.84754
1.84223
1.83756
1.8332
1.82972
1.82711
1.82529
1.8246
1.82475
1.82537
1.82674
1.82859
1.83067
1.83284
1.83536
1.83781
1.84106
1.84343
1.84569
1.84811
1.85148
1.85528
1.85696
1.85951
1.86001
1.85964
1.85821
1.85677
1.85209
2.10825
2.10169
2.08687
2.06465
2.04267
2.01722
1.99373
1.96799
1.943
1.91864
1.89534
1.87063
1.84894
1.82724
1.8115
1.80626
1.81381
1.83033
1.86586
1.94357
2.05604
2.13734
2.16873
2.18196
2.2103
2.24634
2.28746
2.31041
2.31017
2.30143
2.28689
2.26023
2.22728
2.19351
2.16144
2.13122
2.10428
2.07839
2.0537
2.02859
2.00552
1.98297
1.96343
1.94293
1.92547
1.90801
1.89409
1.88129
1.87144
1.8621
1.85521
1.85023
1.84848
1.84819
1.84907
1.85265
1.85791
1.86268
1.86679
1.8687
1.86977
1.86871
1.8675
1.86551
1.86202
1.85764
1.85243
1.84784
1.84263
1.83803
1.83284
1.82818
1.82321
1.8189
1.81486
1.81144
1.80907
1.80713
1.8068
1.80719
1.80822
1.80988
1.81247
1.81566
1.81973
1.82441
1.82915
1.83375
1.83921
1.84397
1.85014
1.85354
1.85729
1.85907
1.85864
1.85701
1.85501
1.85094
1.84709
1.84039
2.08613
2.0731
2.06016
2.0475
2.03418
2.01363
1.99208
1.96853
1.94437
1.92086
1.89704
1.87604
1.85463
1.83926
1.83144
1.83858
1.85443
1.88698
1.95979
2.06684
2.14456
2.16798
2.16456
2.15893
2.16005
2.17139
2.19738
2.24235
2.2639
2.26755
2.2612
2.24949
2.22922
2.19846
2.16596
2.13363
2.10566
2.07874
2.05349
2.02794
2.00428
1.98204
1.96146
1.94071
1.92151
1.90242
1.88641
1.8711
1.8583
1.84655
1.83664
1.82761
1.82187
1.81807
1.81743
1.81704
1.8193
1.82368
1.8287
1.83351
1.83658
1.83866
1.83865
1.83813
1.8368
1.83484
1.83089
1.82688
1.8219
1.81752
1.81262
1.80842
1.80386
1.80005
1.7962
1.79343
1.79107
1.78996
1.79016
1.79085
1.79243
1.79528
1.79944
1.80414
1.81028
1.81544
1.82445
1.83048
1.83875
1.84428
1.8496
1.85303
1.8534
1.85269
1.85096
1.84725
1.84337
1.83541
1.8306
1.82394
2.0736
2.06173
2.04783
2.02603
2.01179
1.99826
1.98411
1.96598
1.9443
1.92251
1.9015
1.88038
1.86488
1.85618
1.86219
1.87736
1.90845
1.97748
2.08211
2.16156
2.18259
2.17419
2.15849
2.14026
2.12703
2.12885
2.13882
2.16472
2.20115
2.22575
2.23363
2.2285
2.21758
2.19959
2.16968
2.13834
2.10826
2.08081
2.05361
2.027
2.00207
1.97994
1.95796
1.93734
1.91549
1.89629
1.87722
1.86105
1.84486
1.83139
1.8184
1.80802
1.79848
1.79165
1.78752
1.78602
1.78604
1.78703
1.79078
1.79603
1.80122
1.80572
1.80823
1.81017
1.80984
1.80923
1.80767
1.80531
1.80116
1.79712
1.79289
1.78887
1.78523
1.7818
1.77892
1.77683
1.77535
1.7753
1.77575
1.77707
1.78038
1.78374
1.78994
1.79493
1.80487
1.81208
1.82129
1.8287
1.83539
1.84038
1.8423
1.84241
1.84153
1.83895
1.83525
1.8282
1.82268
1.81474
1.80924
1.80329
2.05451
2.05274
2.03977
2.02091
2.00065
1.98217
1.96705
1.95317
1.93916
1.92121
1.90435
1.88875
1.88137
1.88733
1.90279
1.93367
2.0034
2.10507
2.18713
2.2069
2.19591
2.17711
2.15124
2.1201
2.10157
2.10162
2.1034
2.11222
2.13402
2.16551
2.1896
2.19701
2.19232
2.18142
2.16581
2.13957
2.1109
2.08286
2.05379
2.02532
1.99853
1.97477
1.9521
1.92972
1.90737
1.88676
1.8673
1.84978
1.83276
1.8174
1.80304
1.79087
1.77993
1.77076
1.76321
1.75881
1.75661
1.75684
1.75726
1.76013
1.76506
1.7703
1.77551
1.7794
1.78158
1.78288
1.78248
1.78169
1.7798
1.77719
1.77361
1.77027
1.76723
1.76456
1.7629
1.76186
1.76174
1.76238
1.76411
1.7662
1.77079
1.776
1.78457
1.79198
1.80097
1.80912
1.81622
1.82255
1.82534
1.82756
1.82758
1.82631
1.82326
1.81788
1.81254
1.80534
1.79921
1.79194
1.78677
1.78185
2.02476
2.03123
2.02733
2.0151
1.99518
1.97599
1.95575
1.94063
1.92407
1.91293
1.90128
1.89894
1.90617
1.92415
1.9562
2.02743
2.12896
2.21104
2.22974
2.21535
2.19925
2.16752
2.13032
2.10336
2.08454
2.07613
2.07655
2.07749
2.08345
2.09967
2.12572
2.14695
2.15452
2.14998
2.14097
2.12793
2.10532
2.07908
2.04992
2.01962
1.99174
1.9671
1.94399
1.9209
1.89874
1.8775
1.8588
1.83993
1.82298
1.80606
1.79138
1.77738
1.76565
1.75457
1.74548
1.73728
1.73242
1.72915
1.72916
1.7294
1.73085
1.735
1.7406
1.74609
1.75101
1.75457
1.75642
1.75769
1.75743
1.75682
1.75567
1.75345
1.7519
1.7507
1.75073
1.75123
1.7526
1.75424
1.75847
1.76345
1.77127
1.77829
1.78664
1.79436
1.80151
1.80725
1.81077
1.81275
1.81431
1.81358
1.81113
1.80692
1.80242
1.79644
1.79057
1.78384
1.77818
1.77195
1.7677
1.76366
1.98606
2.00678
2.00742
2.00161
1.9891
1.97169
1.95266
1.93528
1.92159
1.90774
1.907
1.91596
1.93654
1.97121
2.04418
2.14953
2.22985
2.2481
2.23332
2.21556
2.18367
2.14721
2.11449
2.09122
2.07177
2.0583
2.0521
2.04843
2.0483
2.05053
2.06138
2.0793
2.09782
2.10565
2.10319
2.09721
2.08561
2.06865
2.04386
2.01439
1.98682
1.96217
1.93865
1.91454
1.8923
1.87129
1.85218
1.83328
1.81533
1.79827
1.78265
1.76784
1.75437
1.74201
1.73101
1.72133
1.71317
1.7071
1.70353
1.70224
1.70234
1.70314
1.70601
1.71193
1.71715
1.72387
1.72841
1.73221
1.73507
1.73639
1.73813
1.73872
1.73975
1.74054
1.74228
1.74489
1.74964
1.75447
1.76136
1.76853
1.77635
1.78368
1.79071
1.79567
1.79936
1.80108
1.80282
1.80239
1.80052
1.79749
1.79378
1.78878
1.78365
1.77793
1.77255
1.76677
1.76203
1.75696
1.75394
1.75052
1.90751
1.99119
1.99191
1.98889
1.97656
1.96098
1.94547
1.92837
1.91767
1.91418
1.92371
1.9438
1.98133
2.05559
2.16672
2.24625
2.26374
2.24835
2.22808
2.19719
2.16013
2.12772
2.10062
2.07905
2.06172
2.04511
2.03436
2.02356
2.01796
2.01565
2.01563
2.02068
2.03259
2.05142
2.05856
2.06091
2.05624
2.04845
2.03563
2.01019
1.98463
1.96109
1.93609
1.91176
1.8882
1.86795
1.84732
1.82838
1.80914
1.79229
1.77547
1.76032
1.74514
1.73185
1.71901
1.70817
1.69801
1.68939
1.68262
1.67813
1.67619
1.67632
1.67693
1.67966
1.68515
1.6922
1.70011
1.70667
1.71333
1.71772
1.72303
1.72666
1.73123
1.73515
1.74026
1.74584
1.75276
1.76025
1.76781
1.77512
1.78154
1.78622
1.78975
1.79103
1.79224
1.7919
1.79027
1.78775
1.78463
1.7804
1.77614
1.77138
1.76701
1.76208
1.75794
1.75332
1.75016
1.74632
1.7448
1.74187
1.72022
1.93223
1.97425
1.97642
1.97103
1.95771