/*--------------------------------*- C++ -*----------------------------------*\
  =========                 |
  \\      /  F ield         | OpenFOAM: The Open Source CFD Toolbox
   \\    /   O peration     | Website:  https://openfoam.org
    \\  /    A nd           | Version:  6
     \\/     M anipulation  |
\*---------------------------------------------------------------------------*/
FoamFile
{
    version     2.0;
    format      ascii;
    class       volScalarField;
    location    "0.001";
    object      mag(U);
}
// * * * * * * * * * * * * * * * * * * * * * * * * * * * * * * * * * * * * * //

dimensions      [0 1 -1 0 0 0 0];

internalField   nonuniform List<scalar> 
100
(
5.54317e-14
2.69865e-13
5.84951e-13
2.39232e-13
5.44106e-13
5.83492e-14
6.69557e-13
8.8399e-13
7.5854e-14
7.65833e-13
2.17351e-13
8.53357e-13
1.54625e-13
1.04445e-12
3.34049e-13
8.18348e-13
2.17351e-13
2.77159e-13
1.59002e-13
2.05681e-13
3.23838e-13
1.31286e-14
2.72783e-13
1.67754e-13
4.28867e-13
5.6307e-13
7.29365e-15
5.6307e-13
4.40536e-13
4.30325e-13
7.19154e-13
1.75048e-14
7.26448e-13
8.37311e-13
4.99177e-12
2.31696e-10
8.88655e-09
3.04301e-07
9.22201e-06
0.000243918
0.00552769
0.103452
1.38433
9.11696
28.3301
53.1901
74.0805
91.9046
113.34
135.202
160.032
185.386
215.178
278.271
395.897
230.555
1.81237
0.354049
0.0292246
0.00131139
5.37932e-05
1.95451e-06
6.10712e-08
1.6392e-09
3.7768e-11
1.4281e-12
6.02456e-13
6.07423e-29
5.96621e-13
8.82533e-13
1.09405e-13
0
2.59753e-34
0
1.45873e-13
1.45873e-13
0
0
1.45873e-13
3.16826e-29
1.45873e-13
1.45873e-13
1.45873e-13
1.45873e-13
3.16826e-29
1.45873e-13
1.45873e-13
1.45873e-13
1.45873e-13
3.16826e-29
1.45873e-13
0
0
0
0
0
0
0
1.45873e-13
1.44414e-13
)
;

boundaryField
{
    sides
    {
        type            calculated;
        value           nonuniform List<scalar> 2(1.44414e-13 5.54317e-14);
    }
    empty
    {
        type            empty;
    }
}


// ************************************************************************* //
