/*--------------------------------*- C++ -*----------------------------------*\
  =========                 |
  \\      /  F ield         | OpenFOAM: The Open Source CFD Toolbox
   \\    /   O peration     | Website:  https://openfoam.org
    \\  /    A nd           | Version:  6
     \\/     M anipulation  |
\*---------------------------------------------------------------------------*/
FoamFile
{
    version     2.0;
    format      ascii;
    class       surfaceScalarField;
    location    "0.001";
    object      phi;
}
// * * * * * * * * * * * * * * * * * * * * * * * * * * * * * * * * * * * * * //

dimensions      [1 0 -1 0 0 0 0];

internalField   nonuniform List<scalar> 
99
(
-5.61329e-13
2.8848e-12
1.95399e-12
-3.78719e-12
-1.98952e-13
-4.40536e-13
5.77671e-12
1.48503e-12
-7.81597e-13
-5.58487e-12
3.94351e-12
3.01981e-12
-4.17799e-12
-3.95062e-12
1.3074e-12
5.28644e-12
-3.54561e-12
1.20792e-12
0
-1.50635e-12
3.78719e-12
-3.56692e-12
1.26477e-12
0
-3.28271e-12
-1.05871e-12
1.13687e-12
3.32534e-12
1.49214e-13
-4.0643e-12
2.13163e-14
1.56319e-13
4.63274e-12
1.72662e-12
3.82059e-11
1.81136e-09
6.91092e-08
2.3594e-06
7.12379e-05
0.00187546
0.0422789
0.794456
11.5322
92.7338
232.431
336.385
379.868
411.858
444.655
472.251
471.873
460.859
370.461
117.322
4.27322
2.36751
0.48894
0.0277154
0.00125823
5.17781e-05
1.89046e-06
5.93247e-08
1.59823e-09
3.69944e-11
7.15872e-13
6.72795e-13
-7.28306e-14
1.03473e-13
-6.8523e-13
-1.23901e-13
0
0
-8.83738e-14
1.79412e-13
-1.39444e-13
0
-8.88178e-14
8.88178e-14
1.73195e-13
-1.39444e-13
0
-2.35367e-14
2.66454e-15
1.73195e-13
-1.39444e-13
0
-8.74856e-14
2.66454e-15
1.73195e-13
-1.39444e-13
-2.35367e-14
8.88178e-14
0
0
0
-8.88178e-14
2.35367e-14
0
-1.76748e-13
)
;

boundaryField
{
    sides
    {
        type            calculated;
        value           nonuniform List<scalar> 2(-7.13044e-14 2.44472e-13);
    }
    empty
    {
        type            empty;
        value           nonuniform 0();
    }
}


// ************************************************************************* //
