/*--------------------------------*- C++ -*----------------------------------*\
  =========                 |
  \\      /  F ield         | OpenFOAM: The Open Source CFD Toolbox
   \\    /   O peration     | Website:  https://openfoam.org
    \\  /    A nd           | Version:  6
     \\/     M anipulation  |
\*---------------------------------------------------------------------------*/
FoamFile
{
    version     2.0;
    format      ascii;
    class       surfaceScalarField;
    location    "76.6";
    object      phi;
}
// * * * * * * * * * * * * * * * * * * * * * * * * * * * * * * * * * * * * * //

dimensions      [0 3 -1 0 0 0 0];

internalField   nonuniform List<scalar> 
17370
(
-0.0900005
0.0898496
0.289162
-0.0714632
0.0537534
0.364485
-0.0381203
0.0276912
0.426597
-0.0196395
0.0146065
0.504285
-0.0107646
0.00827421
0.601892
-0.00627455
0.00489811
0.720434
-0.00373434
0.00289394
0.863747
-0.0021526
0.00159356
1.03601
-0.00107697
0.000664525
1.24292
-0.00025712
-0.000136805
1.49158
0.000515996
-0.000926539
1.4916
0.00132514
-0.00181531
1.24318
0.0023436
-0.00304942
1.03634
0.00386251
-0.00500569
0.86405
0.00637113
-0.00836365
0.72105
0.0108485
-0.014684
0.60305
0.0197105
-0.0277547
0.507483
0.0381764
-0.0538007
0.431792
0.071502
-0.0898756
0.365149
0.0900161
0.198995
-0.128136
0.088226
0.03991
-0.364598
0.353378
-0.0746732
0.0858937
-0.446476
0.45432
-0.0843909
0.0765469
-0.52119
0.529902
-0.0684497
0.0597384
-0.612789
0.621568
-0.0515496
0.0427699
-0.726894
0.734164
-0.0353088
0.028039
-0.867475
0.872591
-0.0224378
0.0173218
-1.03847
1.04192
-0.0135117
0.0100617
-1.2446
1.24703
-0.00745066
0.00501722
-1.49262
1.4946
-0.00306869
0.00108895
-1.4925
1.49423
0.000587767
-0.00231291
-1.24398
1.24586
0.00421692
-0.00610216
-1.03751
1.04004
0.00845899
-0.0109875
-0.866101
0.869827
0.0143391
-0.0180652
-0.724391
0.729934
0.0231032
-0.0286458
-0.608698
0.616111
0.0358603
-0.043274
-0.514897
0.52304
0.0520034
-0.0601469
-0.439856
0.447914
0.0688095
-0.0768677
-0.375295
0.376739
0.0846652
-0.0861091
-0.25733
0.222477
0.0748194
-0.0399666
-0.068519
0.0586933
0.00982565
-0.0518101
0.0583928
-0.374127
0.367545
-0.0574764
0.0537236
-0.453595
0.457348
-0.048633
0.0446799
-0.527947
0.531901
-0.0408391
0.0371993
-0.621564
0.625204
-0.0330963
0.0290194
-0.73535
0.739427
-0.0244477
0.0202871
-0.874341
0.878502
-0.0159399
0.0122447
-1.04349
1.04719
-0.00850552
0.00533087
-1.24856
1.25174
-0.00200041
-0.00107441
-1.49666
1.49973
0.00412312
-0.00739028
-1.4972
1.50047
0.0104711
-0.0140769
-1.25007
1.25367
0.0176325
-0.021818
-1.04592
1.05011
0.0258392
-0.0302754
-0.877761
0.882197
0.0342445
-0.0382413
-0.739899
0.743896
0.041791
-0.045538
-0.626773
0.63052
0.0494103
-0.0544238
-0.534809
0.539823
0.0580925
-0.0589034
-0.457473
0.458284
0.0521968
-0.0319922
-0.335749
0.315545
0.00988865
-0.0683441
0.0584555
-0.0529431
0.0489485
0.00399461
-0.0331559
0.0436983
-0.358113
0.347571
-0.0473941
0.0467648
-0.459287
0.459916
-0.043707
0.0403523
-0.535804
0.539159
-0.0365776
0.0332716
-0.62853
0.631836
-0.0298315
0.0267977
-0.742651
0.745685
-0.0235369
0.0204286
-0.882022
0.88513
-0.0168963
0.013515
-1.05078
1.05416
-0.00971936
0.00617847
-1.25517
1.25871
-0.00220688
-0.00159195
-1.50324
1.50704
0.00535816
-0.00923304
-1.50414
1.50801
0.0126426
-0.0162554
-1.25741
1.26103
0.0194439
-0.0227504
-1.05392
1.05722
0.0256609
-0.0287254
-0.885687
0.888752
0.0316001
-0.0348829
-0.747154
0.750437
0.0380563
-0.0416954
-0.634303
0.637942
0.0449337
-0.0478589
-0.544132
0.547057
0.0483486
-0.0444568
-0.456568
0.452676
0.0336807
-0.0162255
-0.296176
0.27872
0.00407295
-0.0526347
0.0485618
-0.0458718
0.0433778
0.00249399
-0.0227965
0.03317
-0.336885
0.326512
-0.0389866
0.04
-0.459603
0.45859
-0.0388067
0.0365173
-0.541879
0.544168
-0.0338469
0.0312481
-0.634888
0.637487
-0.0281818
0.0252798
-0.748731
0.751633
-0.0220123
0.0190162
-0.888086
0.891082
-0.0157084
0.0126066
-1.05729
1.06039
-0.00907775
0.00566653
-1.26217
1.26558
-0.00170123
-0.00218407
-1.51093
1.51481
0.00602577
-0.0098618
-1.5119
1.51574
0.0130986
-0.0163871
-1.26446
1.26775
0.0192362
-0.022248
-1.06033
1.06334
0.0249828
-0.0279884
-0.891803
0.894809
0.0306749
-0.0335258
-0.75364
0.756491
0.0359431
-0.0384305
-0.641006
0.643493
0.0405628
-0.0415499
-0.548858
0.549845
0.0403206
-0.0341891
-0.44739
0.441259
0.0234715
-0.0102437
-0.263493
0.250266
0.00259084
-0.045397
0.0428061
-0.0413044
0.0395394
0.00176501
-0.016732
0.0259748
-0.316665
0.307422
-0.0325723
0.0347063
-0.456994
0.45486
-0.0342802
0.0326057
-0.546148
0.547822
-0.0304206
0.0283215
-0.639794
0.641893
-0.0258858
0.0234846
-0.75428
0.756681
-0.0206222
0.0178295
-0.89398
0.896773
-0.0145893
0.0115163
-1.06344
1.06652
-0.00802164
0.00469202
-1.26891
1.27224
-0.000855779
-0.00287921
-1.5186
1.52234
0.00655848
-0.0102293
-1.51947
1.52314
0.013336
-0.0165246
-1.27099
1.27417
0.0192755
-0.0221371
-1.06637
1.06923
0.0245937
-0.0271176
-0.89762
0.900144
0.0292395
-0.0313966
-0.758937
0.761094
0.0332632
-0.0352128
-0.645643
0.647593
0.0366596
-0.0368053
-0.550357
0.550503
0.0343402
-0.0272816
-0.434583
0.427524
0.0175748
-0.00741715
-0.238722
0.228565
0.00188331
-0.0406247
0.0387414
-0.0380195
0.0366931
0.00132643
-0.0127655
0.0206984
-0.29884
0.290907
-0.0274354
0.030348
-0.452307
0.449394
-0.030544
0.0294173
-0.549257
0.550383
-0.0274176
0.0254949
-0.643931
0.645854
-0.0232883
0.0211452
-0.758923
0.761066
-0.0186237
0.0161341
-0.899351
0.901841
-0.0131845
0.010298
-1.06946
1.07234
-0.00692786
0.00367947
-1.2755
1.27875
7.43853e-05
-0.00370744
-1.52599
1.52962
0.00727068
-0.010816
-1.52673
1.53028
0.0137837
-0.0167698
-1.27729
1.28028
0.019253
-0.021729
-1.07196
1.07444
0.023798
-0.0258946
-0.902426
0.904523
0.0276853
-0.0295384
-0.763072
0.764925
0.0311672
-0.0328812
-0.649407
0.651121
0.0336762
-0.0330877
-0.550285
0.549697
0.0297014
-0.0223327
-0.420253
0.412885
0.0138034
-0.00575594
-0.219563
0.211516
0.00147034
-0.0370899
0.0356196
-0.0355352
0.0345145
0.00102067
-0.00996193
0.0166587
-0.283618
0.276921
-0.0231218
0.0264796
-0.446239
0.442881
-0.0272477
0.0265376
-0.551294
0.552004
-0.0247691
0.022976
-0.647754
0.649547
-0.0208959
0.0188702
-0.763144
0.76517
-0.0164879
0.0141505
-0.904185
0.906522
-0.0114001
0.00870388
-1.07507
1.07776
-0.00553376
0.00243816
-1.28188
1.28498
0.00118177
-0.00470033
-1.53318
1.5367
0.00813265
-0.0114948
-1.53372
1.53708
0.0142444
-0.0169417
-1.28313
1.28583
0.0191402
-0.0213055
-1.07681
1.07898
0.0231235
-0.0249804
-0.906493
0.90835
0.0265693
-0.0282104
-0.766666
0.768307
0.0296387
-0.0310122
-0.652691
0.654064
0.0313113
-0.029986
-0.548754
0.547428
0.0259754
-0.0186804
-0.405527
0.398232
0.0112338
-0.00465669
-0.204272
0.197695
0.00119564
-0.0343018
0.0331061
-0.0336194
0.0328263
0.000793099
-0.00788044
0.0134986
-0.270793
0.265175
-0.0194684
0.0230158
-0.439419
0.435872
-0.0242544
0.0237881
-0.552625
0.553092
-0.0222826
0.0205962
-0.651335
0.653022
-0.0186078
0.0166647
-0.767147
0.76909
-0.0143712
0.0121182
-0.908751
0.911004
-0.00946751
0.00687843
-1.08033
1.08292
-0.00384686
0.000892751
-1.28795
1.2909
0.00255703
-0.00590231
-1.54011
1.54346
0.00914188
-0.0122757
-1.54031
1.54344
0.014807
-0.0172616
-1.2884
1.29086
0.0192419
-0.0211751
-1.08111
1.08305
0.0227903
-0.0244384
-0.910104
0.911752
0.025845
-0.0272937
-0.769845
0.771293
0.0285249
-0.0295165
-0.655237
0.656228
0.0294394
-0.0274411
-0.545767
0.543769
0.0230219
-0.0159849
-0.39106
0.384022
0.00943517
-0.00389828
-0.191687
0.18615
0.00100571
-0.0320167
0.031011
-0.0321313
0.0315151
0.000616226
-0.00627103
0.0109669
-0.260047
0.255351
-0.0163378
0.0198772
-0.432328
0.428789
-0.0214316
0.0211871
-0.553484
0.553729
-0.0199097
0.0182792
-0.654727
0.656357
-0.016343
0.0144456
-0.770998
0.772896
-0.0122065
0.0100079
-0.913153
0.915351
-0.00742176
0.00489989
-1.0854
1.08792
-0.00195587
-0.000895781
-1.29375
1.2966
0.00419767
-0.00736858
-1.54668
1.54985
0.0104102
-0.0133258
-1.54644
1.54935
0.0156608
-0.0179015
-1.29321
1.29545
0.019681
-0.0213929
-1.08498
1.08669
0.0228139
-0.0242643
-0.913298
0.914748
0.0255043
-0.0267763
-0.772645
0.773917
0.0278616
-0.0284279
-0.657011
0.657578
0.0279753
-0.0254061
-0.541495
0.538926
0.0207309
-0.0140136
-0.377153
0.370436
0.0081681
-0.00337121
-0.18102
0.176223
0.000874385
-0.0300801
0.0292057
-0.0309794
0.0305069
0.000472503
-0.00497227
0.00887143
-0.25108
0.247181
-0.0135992
0.0169818
-0.425337
0.421955
-0.0187118
0.0186526
-0.553925
0.553984
-0.0175626
0.0159637
-0.658037
0.659636
-0.014045
0.0121582
-0.774771
0.776658
-0.00993341
0.00775512
-0.917451
0.919629
-0.00520167
0.00272075
-1.09034
1.09282
0.000162875
-0.00293858
-1.29936
1.30213
0.00612528
-0.00915237
-1.55291
1.55594
0.0120225
-0.0147397
-1.55213
1.55485
0.0168886
-0.0189193
-1.29759
1.29962
0.0204979
-0.0219883
-1.08842
1.08991
0.0232225
-0.0244908
-0.916098
0.917367
0.0255815
-0.0266947
-0.775099
0.776212
0.0275789
-0.0277836
-0.657958
0.658163
0.0269027
-0.0238489
-0.53612
0.533066
0.0190122
-0.0126021
-0.363888
0.357478
0.00728778
-0.00301172
-0.171717
0.167441
0.000786406
-0.0283835
0.0275971
-0.0301034
0.0297528
0.000350552
-0.0038811
0.00707891
-0.243658
0.24046
-0.0111516
0.0142674
-0.418723
0.415607
-0.016046
0.0161354
-0.554022
0.553933
-0.0151202
0.0135894
-0.661274
0.662804
-0.0116602
0.00975066
-0.778533
0.780443
-0.00749994
0.0053044
-0.921714
0.92391
-0.00274434
0.000272498
-1.0952
1.09767
0.00258089
-0.00530689
-1.30482
1.30754
0.00840858
-0.0113202
-1.55887
1.56178
0.0140416
-0.0165749
-1.55744
1.55997
0.0185445
-0.0203695
-1.30155
1.30338
0.0217512
-0.0230256
-1.09146
1.09273
0.0240801
-0.0251738
-0.918531
0.919625
0.0261195
-0.0270666
-0.777225
0.778172
0.0276882
-0.0275962
-0.658227
0.658135
0.0262666
-0.022764
-0.529794
0.526292
0.0178031
-0.0116404
-0.351215
0.345052
0.0067046
-0.00278031
-0.163368
0.159444
0.000731892
-0.026846
0.0261141
-0.0294645
0.0292231
0.000241377
-0.00292151
0.00548488
-0.237602
0.235039
-0.00890251
0.0116683
-0.41269
0.409925
-0.0133802
0.0135423
-0.553868
0.553706
-0.012563
0.0110668
-0.664399
0.665895
-0.009102
0.00713883
-0.782347
0.78431
-0.00482547
0.0025779
-0.926015
0.928263
2.88382e-05
-0.00252976
-1.10005
1.10255
0.00539476
-0.00810561
-1.31019
1.3129
0.0111527
-0.0139693
-1.5646
1.56741
0.0165562
-0.0189167
-1.56237
1.56473
0.0207149
-0.0223399
-1.3051
1.30672
0.0235226
-0.024574
-1.09409
1.09514
0.0254426
-0.0263564
-0.920611
0.921524
0.0271539
-0.0279399
-0.778988
0.779774
0.0282756
-0.0278767
-0.657897
0.657498
0.0260831
-0.0221461
-0.522596
0.518659
0.0170581
-0.0110554
-0.339
0.332997
0.00636141
-0.00265148
-0.155652
0.151943
0.000704234
-0.0254039
0.0246997
-0.0290414
0.028904
0.000137401
-0.00203022
0.00399688
-0.232797
0.23083
-0.00675442
0.00909975
-0.407399
0.405054
-0.0106367
0.0107927
-0.553622
0.553467
-0.00981502
0.00831493
-0.667491
0.668991
-0.00628698
0.00424066
-0.786271
0.788317
-0.00182855
-0.000506631
-0.93042
0.932755
0.00320139
-0.00576947
-1.10497
1.10754
0.00868653
-0.0114175
-1.31554
1.31827
0.0144464
-0.0171972
-1.57015
1.5729
0.0196703
-0.0218687
-1.56696
1.56916
0.0234991
-0.0249232
-1.30824
1.30966
0.0259009
-0.026721
-1.09632
1.09714
0.0273922
-0.0281075
-0.922316
0.923032
0.0287456
-0.029386
-0.780399
0.781039
0.0293976
-0.0285901
-0.656905
0.656098
0.026336
-0.021969
-0.514551
0.510184
0.0167246
-0.0107836
-0.327062
0.321121
0.00621186
-0.0026045
-0.148309
0.144702
0.000697929
-0.0240066
0.0233087
-0.028827
0.0287948
3.22156e-05
-0.00116044
0.00254408
-0.229177
0.227793
-0.00462607
0.00648538
-0.402984
0.401125
-0.0077421
0.00780886
-0.553446
0.553379
-0.00678531
0.0052429
-0.670627
0.672169
-0.00311055
0.000945005
-0.790364
0.79253
0.00160919
-0.00407223
-0.935002
0.937465
0.00689808
-0.00957169
-1.11003
1.1127
0.0125818
-0.0153675
-1.32094
1.32372
0.0184093
-0.0211153
-1.57557
1.57827
0.023487
-0.0255303
-1.57122
1.57327
0.026996
-0.0282171
-1.31097
1.31219
0.0289879
-0.0295728
-1.09812
1.09871
0.0300416
-0.0305513
-0.923626
0.924136
0.031017
-0.0314217
-0.781437
0.781842
0.0311404
-0.0298543
-0.655098
0.653811
0.0270933
-0.022256
-0.505643
0.500805
0.0167918
-0.0107982
-0.315197
0.309203
0.00623461
-0.00262982
-0.141123
0.137518
0.000710534
-0.022613
0.0219025
-0.0288244
0.0289001
-7.57195e-05
-0.000268976
0.00105986
-0.226724
0.225933
-0.00243386
0.0037394
-0.399574
0.398268
-0.00461347
0.00450633
-0.553515
0.553622
-0.0033784
0.00173433
-0.673899
0.675543
0.000539657
-0.00286574
-0.794699
0.797025
0.00560775
-0.00824141
-0.939839
0.942473
0.0112476
-0.0140727
-1.1153
1.11813
0.0172238
-0.0201027
-1.32645
1.32933
0.0231923
-0.025877
-1.58091
1.58359
0.028161
-0.0300525
-1.57516
1.57706
0.0313491
-0.0323629
-1.31327
1.31429
0.0329244
-0.0332683
-1.09947
1.09982
0.0335225
-0.0338105
-0.924514
0.924802
0.0340741
-0.0341662
-0.781924
0.782016
0.0335653
-0.0317243
-0.652335
0.650494
0.0284012
-0.0230289
-0.495783
0.490411
0.0172571
-0.0110845
-0.30317
0.296997
0.00641676
-0.00272111
-0.133895
0.1302
0.000740212
-0.0211861
0.0204459
-0.0290499
0.0292522
-0.00020224
0.000678417
-0.000522997
-0.225466
0.22531
-9.46358e-05
0.000770683
-0.397295
0.396619
-0.00115585
0.000785411
-0.554011
0.554382
0.000513361
-0.00231413
-0.677429
0.67923
0.00478099
-0.0073154
-0.799354
0.801889
0.010302
-0.0131599
-0.945021
0.947879
0.016404
-0.0194299
-1.12089
1.12392
0.0227724
-0.0257878
-1.33216
1.33518
0.0289673
-0.0316592
-1.58621
1.5889
0.0338693
-0.0356072
-1.5788
1.58053
0.0367286
-0.0375192
-1.31513
1.31592
0.0378574
-0.0379446
-1.10034
1.10043
0.0379686
-0.0380235
-0.924938
0.924993
0.0380946
-0.0377793
-0.781757
0.781441
0.0367682
-0.0342836
-0.648472
0.645987
0.0303135
-0.0243064
-0.484823
0.478816
0.0181145
-0.0116261
-0.290722
0.284233
0.00674397
-0.00287067
-0.126444
0.122571
0.000784456
-0.0196927
0.0189083
-0.0295342
0.0298839
-0.000349731
0.00173407
-0.00221556
-0.225497
0.225978
0.00244819
-0.00250354
-0.396299
0.396354
0.0027471
-0.00349298
-0.55515
0.555896
0.00503181
-0.00705821
-0.681334
0.683361
0.00979555
-0.0126043
-0.804427
0.807236
0.0159027
-0.019043
-0.950656
0.953796
0.0225866
-0.0258675
-1.12689
1.13018
0.0294549
-0.032645
-1.33816
1.34135
0.0359402
-0.0386475
-1.59153
1.59423
0.0407781
-0.0423506
-1.5821
1.58367
0.0432811
-0.043847
-1.31649
1.31706
0.0439573
-0.0437634
-1.10068
1.10048
0.0435328
-0.0433368
-0.92485
0.924654
0.0431857
-0.0423759
-0.780754
0.779944
0.0408681
-0.0376289
-0.643335
0.640095
0.0328967
-0.0261181
-0.47255
0.465772
0.0193683
-0.0124142
-0.277574
0.27062
0.00720623
-0.00307238
-0.118597
0.114463
0.000841118
-0.0181049
0.0172638
-0.0303057
0.0308334
-0.000527716
0.00302499
-0.00428235
-0.226874
0.228132
0.00539605
-0.00625462
-0.396778
0.397636
0.00723303
-0.00846019
-0.557175
0.558402
0.01035
-0.0126774
-0.685759
0.688086
0.0157669
-0.0189215
-0.810046
0.813201
0.0226084
-0.0261019
-0.956863
0.960356
0.030021
-0.0336202
-1.13342
1.13702
0.0375118
-0.0409192
-1.3445
1.34791
0.0443632
-0.0470996
-1.59687
1.5996
0.0491445
-0.0505301
-1.58505
1.58644
0.0512413
-0.0515671
-1.31734
1.31767
0.0514269
-0.0509292
-1.10043
1.09993
0.0504282
-0.0499655
-0.9242
0.923737
0.049464
-0.0481872
-0.778828
0.777551
0.046014
-0.0418637
-0.636681
0.63253
0.0362128
-0.0284847
-0.458672
0.450944
0.0210133
-0.0134323
-0.263423
0.255842
0.00778746
-0.00331673
-0.110192
0.105721
0.000906848
-0.0163992
0.0154924
-0.0314388
0.0321917
-0.000752927
0.00454756
-0.00669377
-0.229818
0.231964
0.00889838
-0.0106743
-0.398954
0.40073
0.0124942
-0.0143205
-0.56033
0.562156
0.0166975
-0.0194222
-0.690858
0.693583
0.0229717
-0.0265587
-0.816356
0.819943
0.0307281
-0.0346563
-0.963789
0.967717
0.0390315
-0.0430123
-1.14059
1.14457
0.0472641
-0.0509253
-1.35129
1.35495
0.0545372
-0.0572978
-1.60226
1.60502
0.0592343
-0.0603943
-1.5876
1.58876
0.0608465
-0.0608977
-1.3176
1.31765
0.0604823
-0.0596514
-1.09955
1.09872
0.0588555
-0.0581099
-0.922933
0.922188
0.0571766
-0.0553415
-0.776007
0.774172
0.0523552
-0.0470834
-0.62819
0.622918
0.040307
-0.0314052
-0.442815
0.433913
0.0230236
-0.0146466
-0.24794
0.239563
0.00845981
-0.00358836
-0.101081
0.0962097
0.000976512
-0.0145598
0.0135833
-0.0330182
0.0340664
-0.00104828
0.0064669
-0.00968973
-0.234567
0.237789
0.0131513
-0.0159978
-0.403096
0.405942
0.0188026
-0.0213614
-0.564896
0.567455
0.0243788
-0.0276392
-0.696843
0.700104
0.0317906
-0.0359235
-0.82354
0.827673
0.0406866
-0.0451392
-0.971598
0.976051
0.0500551
-0.0544773
-1.14853
1.15295
0.0591286
-0.0630495
-1.35857
1.36249
0.0668028
-0.0695386
-1.60767
1.61041
0.0713085
-0.0721857
-1.58968
1.59055
0.072319
-0.0720425
-1.31715
1.31687
0.0713374
-0.0701399
-1.09796
1.09676
0.0690189
-0.0679752
-0.921027
0.919983
0.0664779
-0.0639771
-0.772106
0.769605
0.0600037
-0.0533436
-0.617433
0.610773
0.0451772
-0.03483
-0.424517
0.41417
0.0253303
-0.0159917
-0.23079
0.221451
0.00917521
-0.0038628
-0.0911473
0.0858349
0.00104236
-0.0125823
0.0115399
-0.0351746
0.0366303
-0.00145572
0.00896971
-0.0135605
-0.241453
0.246044
0.0185177
-0.022601
-0.409575
0.413658
0.0265464
-0.0299869
-0.571209
0.574649
0.0338234
-0.0377788
-0.704006
0.707961
0.0426991
-0.0475156
-0.831818
0.836635
0.0530007
-0.058075
-0.980474
0.985548
0.0636113
-0.068516
-1.15736
1.16226
0.0735744
-0.0777295
-1.36634
1.37049
0.0815631
-0.0841915
-1.61298
1.61561
0.0857005
-0.0861978
-1.59113
1.59162
0.0859517
-0.0852651
-1.31591
1.31522
0.0842112
-0.0826333
-1.09557
1.094
0.0811939
-0.0796961
-0.91843
0.916932
0.0776989
-0.0742738
-0.766832
0.763407
0.0690453
-0.0606382
-0.603836
0.595429
0.0507468
-0.0386356
-0.403224
0.391113
0.0278021
-0.0173584
-0.211653
0.20121
0.00985945
-0.00410472
-0.0803282
0.0745734
0.00109386
-0.010479
0.00938515
-0.0381066
0.0401446
-0.00203802
0.0124646
-0.0187778
-0.251005
0.257318
0.0255317
-0.0310564
-0.41888
0.424405
0.0363475
-0.0408669
-0.579653
0.584172
0.0457328
-0.050591
-0.712684
0.717542
0.056501
-0.0621591
-0.84146
0.847118
0.0684948
-0.074265
-0.990607
0.996377
0.0804528
-0.0858195
-1.16712
1.17249
0.0912108
-0.0954898
-1.37451
1.37879
0.0992436
-0.101595
-1.61798
1.62033
0.102684
-0.10266
-1.59172
1.5917
0.101954
-0.10075
-1.31374
1.31254
0.0993049
-0.0973336
-1.09236
1.09038
0.0955417
-0.0934805
-0.914778
0.912717
0.0909139
-0.0863014
-0.75965
0.755038
0.0794513
-0.0688267
-0.586658
0.576033
0.0568
-0.0425746
-0.378306
0.36408
0.0302112
-0.0185774
-0.190275
0.178641
0.0104059
-0.00426691
-0.0686488
0.0625098
0.00111783
-0.00828441
0.00716657
-0.0421426
0.0450826
-0.00293997
0.0175299
-0.0261106
-0.263943
0.272524
0.0350797
-0.0423354
-0.431687
0.438943
0.0492412
-0.055066
-0.590727
0.596552
0.0612857
-0.0673522
-0.723317
0.729384
0.074477
-0.0810996
-0.852755
0.859378
0.088344
-0.0947926
-1.00211
1.00856
0.101538
-0.107221
-1.17773
1.18341
0.112726
-0.116893
-1.38279
1.38696
0.120287
-0.122104
-1.62228
1.6241
0.122543
-0.121803
-1.59117
1.59043
0.120485
-0.118669
-1.31046
1.30865
0.116798
-0.114409
-1.08821
1.08582
0.112208
-0.109531
-0.909852
0.907176
0.106176
-0.099954
-0.749945
0.743723
0.0909866
-0.0775627
-0.564917
0.551493
0.0629305
-0.0462461
-0.349101
0.332417
0.0322222
-0.0194202
-0.166546
0.153744
0.0106811
-0.00429441
-0.0562651
0.0498784
0.00109987
-0.00605932
0.00495945
-0.0478618
0.0523213
-0.00445952
0.0253586
-0.0370108
-0.281445
0.293098
0.0488523
-0.0584311
-0.449041
0.45862
0.067385
-0.0747874
-0.605026
0.612428
0.0826221
-0.0901992
-0.736332
0.743909
0.0985826
-0.1061
-0.865911
0.873428
0.114084
-0.120979
-1.01487
1.02176
0.127951
-0.133597
-1.18878
1.19443
0.138801
-0.142472
-1.39065
1.39432
0.145092
-0.146022
-1.62533
1.62626
0.14551
-0.143799
-1.58905
1.58734
0.141691
-0.139155
-1.30586
1.30332
0.136766
-0.133928
-1.08302
1.08018
0.13121
-0.127909
-0.903538
0.900237
0.123351
-0.114899
-0.736792
0.72834
0.103128
-0.0862036
-0.537387
0.520462
0.0684815
-0.0490825
-0.31502
0.295621
0.0334062
-0.0196269
-0.140625
0.126846
0.0105457
-0.00413442
-0.0435003
0.037089
0.00102609
-0.00389029
0.0028642
-0.0563542
0.0639482
-0.00759392
0.0390042
-0.0551717
-0.305676
0.321843
0.0710732
-0.0838661
-0.472592
0.485384
0.0949914
-0.103829
-0.623021
0.631859
0.113237
-0.122154
-0.752046
0.760962
0.131547
-0.139518
-0.880638
0.88861
0.147622
-0.154336
-1.02824
1.03495
0.160852
-0.165837
-1.19946
1.20444
0.170101
-0.17269
-1.39721
1.3998
0.173968
-0.173524
-1.62633
1.62589
0.171671
-0.168703
-1.58484
1.58187
0.165603
-0.16219
-1.29969
1.29627
0.159194
-0.155855
-1.07664
1.0733
0.152584
-0.148302
-0.895505
0.891222
0.141991
-0.130389
-0.718796
0.707193
0.11485
-0.0936218
-0.502522
0.481294
0.0725398
-0.0504632
-0.275756
0.253679
0.0333932
-0.0190369
-0.113096
0.0987393
0.00993117
-0.00376244
-0.0308609
0.0246922
0.000882499
-0.00188188
0.000999379
-0.0710004
0.0752404
-0.00424
0.0297385
-0.0438814
-0.340617
0.35476
0.0581064
-0.0699137
-0.503757
0.515564
0.0805271
-0.0904938
-0.644427
0.654393
0.101715
-0.112164
-0.769278
0.779727
0.12383
-0.134195
-0.895539
0.905903
0.145269
-0.155169
-1.04076
1.05066
0.165624
-0.174691
-1.20837
1.21744
0.183874
-0.191377
-1.40125
1.40876
0.198342
-0.203233
-1.62431
1.6292
0.206054
-0.207429
-1.5779
1.57928
0.207598
-0.207261
-1.29162
1.29129
0.207043
-0.206178
-1.06871
1.06785
0.204586
-0.200037
-0.884683
0.880133
0.190733
-0.172569
-0.693891
0.675727
0.148214
-0.11654
-0.458936
0.427262
0.0870151
-0.057916
-0.231634
0.202534
0.036849
-0.0201696
-0.0851048
0.0684254
0.0100734
-0.00359684
-0.0189898
0.0125132
0.000762291
-0.00010409
-0.000658201
-0.0827622
0.0808162
0.00194603
0.00793511
-0.0171004
-0.371643
0.380808
0.0279195
-0.0364865
-0.532035
0.540602
0.0451549
-0.0534386
-0.667142
0.675426
0.0636581
-0.0733291
-0.789627
0.799298
0.0837441
-0.093257
-0.915623
0.925136
0.103405
-0.112131
-1.06026
1.06899
0.121531
-0.129312
-1.22629
1.23407
0.137161
-0.143317
-1.41594
1.4221
0.148596
-0.15206
-1.63338
1.63685
0.153602
-0.153784
-1.58018
1.58036
0.152733
-0.151117
-1.29005
1.28844
0.1497
-0.14804
-1.06447
1.06281
0.145581
-0.139696
-0.871036
0.865151
0.129471
-0.112428
-0.653579
0.636536
0.0923301
-0.0687429
-0.393742
0.370155
0.0488955
-0.0312966
-0.174134
0.156535
0.0193784
-0.0104145
-0.0528433
0.0438794
0.0051128
-0.00179735
-0.00623167
0.00291621
0.000358641
0.00164777
-0.00200641
-0.0842372
0.0812949
0.00294228
-0.001145
-0.0041022
-0.392732
0.397979
0.0112913
-0.0175814
-0.553082
0.559372
0.0239926
-0.0311353
-0.68635
0.693493
0.0400082
-0.0483887
-0.807981
0.816362
0.0576258
-0.0659013
-0.933796
0.942071
0.074482
-0.0822405
-1.07753
1.08529
0.0903881
-0.0972217
-1.24141
1.24824
0.103659
-0.108523
-1.42759
1.43246
0.112689
-0.114952
-1.63968
1.64194
0.115336
-0.114422
-1.58001
1.5791
0.11254
-0.110208
-1.28631
1.28398
0.107699
-0.105042
-1.05839
1.05573
0.101777
-0.095628
-0.855316
0.849167
0.0861474
-0.0717179
-0.616642
0.602212
0.0565005
-0.0403162
-0.345109
0.328925
0.0281665
-0.0181839
-0.138799
0.128817
0.0115774
-0.00656033
-0.0349546
0.0299375
0.00342109
-0.0013068
0.000656872
-0.00277116
0.000298022
0.00259275
-0.00289077
-0.0829586
0.0800896
0.00286909
-0.00510395
0.00250161
-0.406753
0.409355
0.0021558
-0.00690005
-0.568747
0.573491
0.0122749
-0.0182452
-0.702119
0.70809
0.0258416
-0.033011
-0.82402
0.83119
0.0408722
-0.0479399
-0.949741
0.956809
0.0556536
-0.0622048
-1.09257
1.09912
0.0692536
-0.0746895
-1.25462
1.26005
0.0800966
-0.0840396
-1.43704
1.44098
0.087018
-0.0880152
-1.64375
1.64474
0.0875924
-0.0859243
-1.57761
1.57594
0.0833875
-0.0799745
-1.2811
1.27769
0.0767483
-0.0731493
-1.05073
1.04713
0.0690176
-0.0632068
-0.838855
0.833044
0.0549148
-0.0439027
-0.585333
0.574321
0.0334416
-0.0235991
-0.311859
0.302017
0.0168231
-0.0114866
-0.118202
0.112866
0.00785958
-0.00491144
-0.0243506
0.0214024
0.0028157
-0.00120424
0.00535844
-0.0069699
0.000319307
0.00339478
-0.00371409
-0.0813577
0.0787925
0.00256513
-0.00649409
0.00555474
-0.416108
0.417047
-0.00208001
-0.00143711
-0.581252
0.584769
0.00569892
-0.0110708
-0.715327
0.720699
0.017429
-0.0236934
-0.837586
0.843851
0.0304608
-0.0365597
-0.963365
0.969464
0.0431264
-0.0488763
-1.10549
1.11124
0.0547619
-0.0595916
-1.26528
1.27011
0.0640494
-0.0671423
-1.44447
1.44756
0.0691885
-0.0693307
-1.64547
1.64562
0.0680975
-0.0654399
-1.57346
1.5708
0.0622342
-0.0582243
-1.27391
1.2699
0.05427
-0.0496368
-1.0417
1.03707
0.0450159
-0.039436
-0.823042
0.817462
0.0327049
-0.0246214
-0.56109
0.553006
0.0179582
-0.0125584
-0.290887
0.285487
0.0092499
-0.00689788
-0.106656
0.104304
0.00522634
-0.00364125
-0.0178164
0.0162313
0.00231194
-0.00109454
0.00896847
-0.0101859
0.000329275
0.00417776
-0.00450703
-0.0798134
0.0775925
0.0022209
-0.00658917
0.00622051
-0.422447
0.422816
-0.00417461
0.00134343
-0.59085
0.593681
0.00276931
-0.00734142
-0.726452
0.731025
0.0127581
-0.0181447
-0.849257
0.854644
0.0240941
-0.0294825
-0.975154
0.980543
0.0354013
-0.0403537
-1.11666
1.12161
0.0455093
-0.0496901
-1.27458
1.27876
0.0533898
-0.0557916
-1.45027
1.45267
0.0570511
-0.0568519
-1.64553
1.64533
0.054892
-0.0516861
-1.56751
1.56431
0.047854
-0.0431626
-1.26537
1.26068
0.0388163
-0.0333983
-1.03117
1.02575
0.0282899
-0.0228793
-0.808162
0.802752
0.0172553
-0.0113188
-0.543004
0.537068
0.00726726
-0.00472159
-0.278513
0.275967
0.00374363
-0.00323629
-0.10075
0.100243
0.00281737
-0.00228824
-0.0140718
0.0135427
0.00163812
-0.000875624
0.0116365
-0.012399
0.000296259
0.00490607
-0.00520232
-0.0785637
0.0768009
0.00176272
-0.005862
0.00589614
-0.427035
0.427
-0.00425479
0.00216356
-0.599145
0.601236
0.00163876
-0.00574857
-0.736011
0.740121
0.0108151
-0.0153988
-0.859596
0.86418
0.0205563
-0.0252624
-0.985845
0.990551
0.0307681
-0.035153
-1.12653
1.13092
0.0395942
-0.0433618
-1.28268
1.28644
0.0469212
-0.0488352
-1.45497
1.45689
0.0497013
-0.0489121
-1.64458
1.64379
0.0467656
-0.0428035
-1.56068
1.55671
0.0386946
-0.033672
-1.25551
1.25049
0.0287325
-0.0230393
-1.0195
1.01381
0.017536
-0.0118912
-0.793865
0.78822
0.00719963
-0.00258665
-0.529067
0.524454
4.39411e-05
0.000733397
-0.27141
0.270633
-0.000553537
1.22837e-05
-0.0986226
0.0991638
0.00043911
-0.000763788
-0.0125993
0.012924
0.000767279
-0.000518816
0.0132338
-0.0134823
0.00021523
0.0054863
-0.00570153
-0.0777893
0.076388
0.00140125
-0.00487515
0.00510731
-0.430529
0.430297
-0.00366299
0.00171956
-0.606255
0.608198
0.00183366
-0.00549275
-0.744491
0.74815
0.00977032
-0.0141157
-0.868698
0.873044
0.0188016
-0.0235606
-0.995004
0.999763
0.0282006
-0.0322648
-1.13535
1.13942
0.0366647
-0.0400027
-1.29001
1.29335
0.0428182
-0.0448569
-1.4586
1.46064
0.0455007
-0.0445487
-1.64291
1.64196
0.0420413
-0.0380643
-1.55276
1.54878
0.03371
-0.0283607
-1.24487
1.23952
0.0231985
-0.0171762
-1.0073
1.00128
0.0114803
-0.00591303
-0.779975
0.774408
0.00137497
0.00234467
-0.517645
0.513925
-0.00410724
0.00428994
-0.267441
0.267258
-0.00358963
0.00246992
-0.0986795
0.0997992
-0.0015063
0.000602159
-0.0128909
0.013795
-8.92305e-05
-0.000129716
0.0136869
-0.0134679
0.000104281
0.00582886
-0.00593314
-0.0775427
0.0763566
0.00118614
-0.00362993
0.00366
-0.433533
0.433502
-0.00246861
0.000592141
-0.612666
0.614542
0.00267335
-0.00616891
-0.752275
0.755771
0.0102061
-0.0140806
-0.877177
0.881051
0.018811
-0.0226785
-1.00388
1.00775
0.0271839
-0.0309613
-1.14359
1.14737
0.035095
-0.03846
-1.29658
1.29995
0.0413546
-0.0429283
-1.46233
1.4639
0.0435835
-0.0426461
-1.64079
1.63985
0.0403566
-0.0361993
-1.54451
1.54036
0.0318251
-0.0263771
-1.23405
1.2286
0.0211487
-0.0149572
-0.994533
0.988342
0.00928622
-0.00346935
-0.766561
0.760744
-0.000830014
0.00423824
-0.507767
0.504359
-0.00593682
0.00596052
-0.264748
0.264724
-0.00518977
0.00392436
-0.0997716
0.101037
-0.00276958
0.00156183
-0.0143333
0.0155411
-0.000744361
0.000191053
0.0131903
-0.012637
-8.20572e-07
0.00591594
-0.00591512
-0.0775808
0.0767275
0.000853277
-0.00249009
0.00205834
-0.436534
0.436966
-0.00106258
-0.000865202
-0.618259
0.620187
0.0037731
-0.00709896
-0.759435
0.762761
0.0109176
-0.0148752
-0.884789
0.888746
0.0189136
-0.0228819
-1.01178
1.01575
0.0272636
-0.030735
-1.15153
1.155
0.0348469
-0.0380386
-1.30304
1.30623
0.0408121
-0.0427294
-1.4658
1.46772
0.0436155
-0.0426679
-1.63884
1.63789
0.0402699
-0.036465
-1.53623
1.53243
0.0323104
-0.0268843
-1.22286
1.21744
0.0216039
-0.0156729
-0.981728
0.975797
0.00967564
-0.00392467
-0.753211
0.74746
-0.000436709
0.00380603
-0.498587
0.495218
-0.00550205
0.00600841
-0.262337
0.261831
-0.00555479
0.0045588
-0.101183
0.102179
-0.00343577
0.00216653
-0.0163108
0.01758
-0.00119835
0.000441472
0.0120745
-0.0113176
-8.63159e-05
0.00579463
-0.00570832
-0.0780352
0.0773564
0.000678748
-0.00151295
0.00112052
-0.439701
0.440094
0.000382381
-0.00214832
-0.623874
0.62564
0.0052064
-0.00837638
-0.766013
0.769183
0.0120132
-0.0155277
-0.892367
0.895882
0.0196468
-0.023245
-1.01968
1.02328
0.0275081
-0.0313576
-1.15889
1.16274
0.0350107
-0.0384355
-1.30941
1.31284
0.0415087
-0.0433681
-1.46945
1.47131
0.0444294
-0.0440363
-1.63706
1.63667
0.0418418
-0.0383922
-1.52837
1.52492
0.0342279
-0.0290565
-1.21194
1.20677
0.0240431
-0.018127
-0.96922
0.963304
0.0124085
-0.00657806
-0.740188
0.734358
0.00198297
0.00174351
-0.489304
0.485578
-0.00376851
0.00468444
-0.259401
0.258485
-0.00479679
0.00421655
-0.102083
0.102663
-0.00336706
0.00227887
-0.0183303
0.0194185
-0.00136113
0.000568552
0.0106182
-0.00982563
-0.000143439
0.0055164
-0.00537296
-0.0787924
0.0782936
0.000498815
-0.000427717
-0.000147406
-0.443006
0.443581
0.00150735
-0.00357374
-0.629055
0.631121
0.00655143
-0.00954957
-0.772294
0.775292
0.0132583
-0.0165993
-0.899369
0.90271
0.0205239
-0.0242078
-1.02733
1.03101
0.02833
-0.032091
-1.16639
1.17015
0.0359012
-0.0392824
-1.31613
1.31951
0.0424453
-0.0449563
-1.47339
1.4759
0.0463144
-0.0460499
-1.63612
1.63586
0.0443527
-0.0410316
-1.52126
1.51794
0.0372748
-0.0325295
-1.20147
1.19673
0.0274943
-0.0217544
-0.956963
0.951224
0.0161776
-0.0102203
-0.727377
0.72142
0.00547146
-0.00130644
-0.479899
0.475734
-0.00113026
0.00265863
-0.255594
0.254066
-0.00322842
0.00315423
-0.102103
0.102177
-0.00273407
0.00198436
-0.0199341
0.0206838
-0.00125837
0.00056621
0.00916253
-0.00847037
-0.000152897
0.00515533
-0.00500244
-0.0797953
0.0794245
0.000370786