/*--------------------------------*- C++ -*----------------------------------*\
  =========                 |
  \\      /  F ield         | OpenFOAM: The Open Source CFD Toolbox
   \\    /   O peration     | Website:  https://openfoam.org
    \\  /    A nd           | Version:  6
     \\/     M anipulation  |
\*---------------------------------------------------------------------------*/
FoamFile
{
    version     2.0;
    format      ascii;
    class       volScalarField;
    location    "41";
    object      p;
}
// * * * * * * * * * * * * * * * * * * * * * * * * * * * * * * * * * * * * * //

dimensions      [0 2 -2 0 0 0 0];

internalField   nonuniform List<scalar> 
2200
(
0.795987
0.780766
0.763285
0.746992
0.732537
0.7205
0.710861
0.703386
0.697987
0.69502
0.695412
0.699087
0.705003
0.712862
0.722784
0.735013
0.749601
0.765993
0.783521
0.798757
0.739669
0.735746
0.730746
0.725171
0.718892
0.712285
0.705875
0.700218
0.695846
0.693393
0.693787
0.69697
0.701895
0.707965
0.714676
0.721507
0.727936
0.7336
0.738645
0.742593
0.698159
0.69785
0.698802
0.700121
0.700575
0.699549
0.697264
0.694361
0.691706
0.690117
0.690556
0.692917
0.696192
0.69958
0.702207
0.70347
0.703169
0.701947
0.701097
0.70145
0.673043
0.674073
0.676476
0.679792
0.683014
0.685301
0.686354
0.686327
0.685724
0.685264
0.68577
0.687137
0.688444
0.688998
0.688347
0.686356
0.68335
0.680154
0.677821
0.676829
0.658141
0.659595
0.662347
0.665879
0.669483
0.672765
0.675406
0.677252
0.678369
0.679108
0.679703
0.680028
0.679749
0.678533
0.676366
0.673445
0.670106
0.66675
0.664088
0.662662
0.650551
0.651858
0.654139
0.657006
0.660015
0.662982
0.665783
0.668206
0.670129
0.671605
0.672316
0.672124
0.67122
0.669575
0.667346
0.664792
0.662089
0.659436
0.657267
0.655987
0.646876
0.647782
0.649303
0.651279
0.653382
0.655507
0.657771
0.660098
0.662199
0.663859
0.664736
0.664672
0.663793
0.662376
0.660794
0.659188
0.65745
0.655713
0.654317
0.65344
0.64415
0.644731
0.645663
0.646933
0.648325
0.649731
0.651323
0.653283
0.655322
0.656984
0.658075
0.65834
0.657788
0.656971
0.656228
0.655436
0.654474
0.653485
0.652695
0.652141
0.641021
0.641406
0.642025
0.642914
0.64393
0.644959
0.646029
0.647408
0.649169
0.650922
0.652244
0.652821
0.652908
0.652945
0.652921
0.652645
0.652169
0.651629
0.651172
0.65081
0.637139
0.637416
0.637892
0.638621
0.639509
0.640462
0.641362
0.642359
0.643975
0.646092
0.647686
0.648454
0.6491
0.649806
0.650185
0.650202
0.649989
0.64967
0.64938
0.649129
0.632622
0.632841
0.633275
0.633969
0.63485
0.635889
0.637056
0.638344
0.640155
0.64257
0.644506
0.645608
0.646564
0.647402
0.647858
0.648017
0.647879
0.647675
0.64747
0.647283
0.627588
0.627761
0.6282
0.628981
0.630038
0.631356
0.633004
0.634867
0.636885
0.639259
0.64161
0.643453
0.644812
0.645589
0.645971
0.646161
0.646055
0.645906
0.645745
0.645598
0.62225
0.622384
0.622818
0.623702
0.625023
0.626719
0.628797
0.6311
0.633372
0.635929
0.638849
0.641485
0.643329
0.644243
0.644606
0.644725
0.644711
0.644635
0.644513
0.644397
0.616698
0.616801
0.617224
0.618143
0.619605
0.621575
0.623989
0.626705
0.629602
0.632991
0.636601
0.639663
0.641799
0.64298
0.643588
0.643862
0.643995
0.643997
0.643923
0.643838
0.610705
0.610788
0.611192
0.612095
0.613588
0.615665
0.618262
0.621435
0.625307
0.629816
0.634205
0.637654
0.640041
0.641676
0.64282
0.643532
0.643916
0.644066
0.644068
0.644002
0.60402
0.604032
0.604428
0.60537
0.60691
0.608986
0.611665
0.615292
0.61998
0.625379
0.630807
0.635255
0.638423
0.640851
0.642687
0.643883
0.644554
0.644887
0.644961
0.644903
0.596516
0.596539
0.596962
0.598014
0.599682
0.601951
0.604943
0.608939
0.614118
0.620308
0.627203
0.633301
0.637764
0.641105
0.64353
0.645113
0.646063
0.646563
0.646694
0.646648
0.588067
0.58812
0.588571
0.589801
0.591853
0.594687
0.59834
0.603012
0.608962
0.61632
0.624875
0.632597
0.638376
0.642606
0.645571
0.647547
0.64878
0.649405
0.649582
0.649545
0.578355
0.578416
0.57897
0.580423
0.58292
0.586485
0.591186
0.59718
0.604668
0.613919
0.624242
0.633335
0.640209
0.645234
0.648804
0.651254
0.652781
0.653551
0.653789
0.653755
0.566784
0.56684
0.567514
0.569281
0.57235
0.576725
0.58255
0.590116
0.599706
0.611487
0.62406
0.634822
0.642972
0.649
0.653338
0.656316
0.658184
0.659142
0.659439
0.659398
0.553047
0.553061
0.553805
0.555895
0.559524
0.56468
0.57165
0.580909
0.592852
0.607588
0.623182
0.636454
0.646454
0.653717
0.658993
0.662686
0.664991
0.666174
0.666539
0.666484
0.536078
0.53616
0.537077
0.539504
0.54381
0.550094
0.558705
0.570156
0.584888
0.603111
0.622375
0.638626
0.6507
0.659576
0.666057
0.670559
0.673379
0.674809
0.675225
0.675144
0.514689
0.514795
0.516009
0.519157
0.524727
0.532877
0.544025
0.558705
0.57727
0.59977
0.623054
0.642312
0.656516
0.666918
0.674544
0.679951
0.683343
0.684999
0.685442
0.68532
0.486642
0.486925
0.488788
0.493275
0.501034
0.512218
0.527231
0.546519
0.570206
0.597882
0.62553
0.647779
0.664011
0.675971
0.684767
0.690948
0.694797
0.696633
0.697076
0.696917
0.449475
0.450132
0.453146
0.459968
0.471365
0.487274
0.507815
0.533182
0.563117
0.596742
0.629088
0.654445
0.672836
0.686409
0.696413
0.703461
0.70777
0.709705
0.710104
0.70988
0.400007
0.401191
0.406694
0.418065
0.435501
0.458292
0.48611
0.518853
0.555868
0.595813
0.633062
0.661837
0.682656
0.698092
0.709507
0.717432
0.722066
0.723962
0.724228
0.723959
0.336233
0.339919
0.351296
0.370321
0.396059
0.427488
0.46389
0.504875
0.549546
0.59626
0.638888
0.671743
0.69579
0.71383
0.727085
0.736157
0.741327
0.743345
0.743638
0.743444
0.264762
0.27403
0.293862
0.322104
0.357015
0.397597
0.443065
0.492547
0.544836
0.598258
0.646579
0.684162
0.712238
0.733409
0.748968
0.759414
0.765184
0.767381
0.767728
0.767676
0.198823
0.21231
0.23897
0.275957
0.320175
0.369963
0.424179
0.481521
0.540682
0.600463
0.654497
0.69637
0.727533
0.75144
0.769138
0.781115
0.787841
0.790603
0.791262
0.791244
0.145664
0.160313
0.191018
0.234607
0.286619
0.344484
0.406501
0.470957
0.536638
0.602804
0.662156
0.707781
0.74179
0.767813
0.787269
0.800678
0.808452
0.811664
0.812396
0.812369
0.101616
0.116809
0.150414
0.198831
0.256847
0.321266
0.389951
0.460755
0.532368
0.604075
0.668377
0.718159
0.754846
0.782461
0.803229
0.817668
0.82596
0.829379
0.830221
0.83024
0.0637693
0.0797296
0.115765
0.167908
0.230506
0.300121
0.374276
0.450491
0.527423
0.604443
0.674148
0.727987
0.76668
0.79535
0.816928
0.831887
0.840427
0.844079
0.845054
0.845106
0.0305906
0.0472828
0.0854674
0.14068
0.2069
0.280644
0.359268
0.440246
0.522243
0.604545
0.678821
0.735867
0.776351
0.806003
0.828042
0.843214
0.852058
0.85596
0.857087
0.857175
0.000738865
0.018015
0.0581278
0.116132
0.185459
0.262616
0.344963
0.430126
0.516686
0.603749
0.682151
0.741902
0.783636
0.814237
0.836856
0.85245
0.861665
0.865901
0.867186
0.867286
-0.0266699
-0.00892326
0.0328969
0.0934658
0.16558
0.245696
0.331165
0.419864
0.510545
0.602348
0.684978
0.746568
0.78955
0.821116
0.844324
0.860456
0.870163
0.874593
0.875885
0.875919
-0.0522261
-0.0340484
0.00932986
0.0722408
0.146872
0.229622
0.31778
0.40948
0.503963
0.600135
0.686358
0.750038
0.794719
0.827177
0.851058
0.867551
0.877468
0.882015
0.883155
0.883021
-0.0763598
-0.0576967
-0.0129167
0.0521205
0.129055
0.214157
0.304648
0.398939
0.496735
0.59692
0.687143
0.753607
0.799651
0.833264
0.857475
0.87402
0.883936
0.888427
0.889609
0.889521
-0.0993089
-0.0801861
-0.0341586
0.0328076
0.111832
0.199009
0.291589
0.38827
0.489032
0.59313
0.687277
0.756453
0.804695
0.839492
0.863873
0.88038
0.890085
0.89449
0.895608
0.895539
-0.121277
-0.101731
-0.0546351
0.0140446
0.0949697
0.18405
0.278524
0.377306
0.480678
0.588298
0.68639
0.759193
0.810276
0.845915
0.870464
0.886773
0.896242
0.900439
0.901505
0.901431
-0.142469
-0.122564
-0.0745106
-0.0042754
0.0783941
0.169203
0.265338
0.365917
0.471645
0.582508
0.684722
0.762004
0.816051
0.852887
0.87754
0.893445
0.902483
0.906416
0.907333
0.907206
-0.163096
-0.142871
-0.0939118
-0.0222226
0.0620598
0.154423
0.251992
0.354112
0.461841
0.575624
0.682132
0.76439
0.821962
0.860534
0.885372
0.900693
0.908952
0.912246
0.912917
0.912723
-0.183315
-0.162771
-0.112926
-0.039855
0.0459326
0.139698
0.238511
0.341927
0.451303
0.567622
0.678181
0.765347
0.827369
0.868788
0.894631
0.909131
0.91586
0.91806
0.918154
0.917841
-0.203169
-0.182304
-0.131581
-0.0571862
0.0300091
0.125028
0.224896
0.329403
0.440219
0.558667
0.672582
0.764556
0.831727
0.87755
0.9058
0.919849
0.924255
0.923992
0.922925
0.922587
-0.222615
-0.201451
-0.149858
-0.0741762
0.0143344
0.110428
0.211137
0.31658
0.428714
0.54895
0.665429
0.761858
0.83445
0.886162
0.918863
0.934153
0.935909
0.931328
0.927529
0.92694
-0.241556
-0.22014
-0.167683
-0.0907573
-0.0010399
0.0959076
0.197252
0.303571
0.41698
0.538702
0.657002
0.757078
0.834941
0.893475
0.932803
0.95242
0.953778
0.943358
0.933447
0.930294
-0.259915
-0.238269
-0.184956
-0.106855
-0.0160707
0.0814881
0.183282
0.290437
0.405074
0.528052
0.647801
0.750705
0.833207
0.89827
0.9456
0.973179
0.979058
0.964974
0.940329
0.915026
-0.277585
-0.255737
-0.20161
-0.12251
-0.0309587
0.0669194
0.168996
0.276942
0.392794
0.516931
0.637804
0.742581
0.828611
0.899573
0.955393
0.99274
1.00755
1.00037
1.00096
1.01204
-0.294504
-0.272547
-0.217718
-0.137864
-0.0459363
0.0519035
0.154058
0.262689
0.379638
0.50471
0.626402
0.732272
0.820419
0.895277
0.95741
1.00189
1.01986
1.00883
0.977688
0.972854
-0.310648
-0.288708
-0.233278
-0.152839
-0.0608607
0.0365806
0.138607
0.247809
0.365676
0.491483
0.613581
0.719352
0.807353
0.882782
0.945199
0.985856
0.984624
0.944964
0.897537
0.880887
-0.325955
-0.304278
-0.248337
-0.167422
-0.075689
0.021013
0.122719
0.232362
0.350888
0.477071
0.598937
0.703296
0.788668
0.858711
0.911124
0.926212
0.905359
0.84327
0.778868
0.761971
-0.340354
-0.319279
-0.262921
-0.181675
-0.0904817
0.00522715
0.106496
0.216413
0.335197
0.461205
0.582137
0.683519
0.762367
0.821377
0.851789
0.8447
0.795178
0.707869
0.630607
0.615178
-0.354244
-0.333928
-0.277453
-0.196241
-0.105813
-0.0110874
0.0897791
0.199771
0.318348
0.443566
0.562821
0.659344
0.728985
0.771577
0.771821
0.746341
0.648342
0.544236
0.458453
0.445144
-0.368571
-0.348718
-0.292707
-0.21216
-0.122555
-0.0284521
0.07223
0.182083
0.299953
0.423729
0.540495
0.630462
0.687898
0.70793
0.685689
0.613752
0.489094
0.364388
0.259718
0.243149
-0.383917
-0.364168
-0.309065
-0.229721
-0.140866
-0.0469318
0.053794
0.163284
0.279993
0.401712
0.514866
0.597241
0.638905
0.633101
0.595235
0.473867
0.318883
0.153439
0.0169408
-0.00701911
-0.400468
-0.380689
-0.326558
-0.248581
-0.160391
-0.0663637
0.0344978
0.143402
0.25851
0.377515
0.485912
0.560348
0.583583
0.549523
0.477546
0.327381
0.147381
-0.0601066
-0.259384
-0.337222
-0.418442
-0.3986
-0.345281
-0.268488
-0.180839
-0.0866731
0.0142509
0.122354
0.235487
0.351158
0.454057
0.519639
0.523567
0.459515
0.337578
0.176462
-0.0105791
-0.274617
-0.689466
-1.01651
-0.437998
-0.41803
-0.365242
-0.289284
-0.20202
-0.107766
-0.00691215
0.100243
0.211124
0.322933
0.419908
0.475686
0.460841
0.374971
0.195113
0.0113366
-0.156338
-0.399635
-0.901831
-1.69208
-0.45922
-0.439031
-0.386527
-0.311104
-0.224097
-0.12985
-0.0292625
0.0767312
0.185086
0.292484
0.383374
0.428581
0.395179
0.297128
0.0728483
-0.127552
-0.269528
-0.400774
-0.580638
-0.867706
-0.482096
-0.461653
-0.409309
-0.334322
-0.247583
-0.153508
-0.0534841
0.0510009
0.156458
0.258862
0.343665
0.377464
0.328218
0.216137
-0.0212062
-0.208922
-0.322526
-0.382473
-0.423255
-0.455253
-0.506572
-0.485892
-0.433669
-0.359061
-0.272628
-0.17891
-0.0797438
0.0228759
0.12509
0.222227
0.300296
0.323294
0.264508
0.135851
-0.0896295
-0.251494
-0.339541
-0.363982
-0.391147
-0.395943
-0.532504
-0.511668
-0.459534
-0.385313
-0.299293
-0.206126
-0.108098
-0.00764619
0.0910171
0.182735
0.253312
0.266172
0.206264
0.0550958
-0.1438
-0.270499
-0.330043
-0.351606
-0.358482
-0.358777
-0.559713
-0.538752
-0.486772
-0.412984
-0.327485
-0.235078
-0.138429
-0.0404451
0.0542697
0.140444
0.2034
0.206404
0.151267
-0.0224801
-0.189075
-0.282723
-0.311674
-0.337189
-0.339374
-0.339248
-0.587964
-0.566872
-0.515061
-0.441809
-0.357019
-0.265588
-0.170551
-0.0752831
0.0151122
0.0960529
0.152013
0.147375
0.0926398
-0.0843136
-0.228539
-0.303042
-0.315458
-0.324264
-0.327624
-0.328366
-0.616675
-0.595531
-0.544022
-0.471449
-0.387569
-0.297371
-0.204138
-0.111718
-0.0257412
0.049948
0.0993679
0.0884246
0.0305156
-0.131284
-0.251906
-0.314654
-0.333572
-0.322291
-0.318259
-0.317466
-0.645132
-0.624112
-0.573003
-0.501346
-0.418704
-0.330041
-0.238792
-0.149173
-0.0674881
0.00270503
0.0452432
0.0296125
-0.0334046
-0.164897
-0.25432
-0.298654
-0.325874
-0.311261
-0.302147
-0.299342
-0.672215
-0.651613
-0.601295
-0.530849
-0.449835
-0.363097
-0.274028
-0.187074
-0.109129
-0.0448835
-0.0102559
-0.0294356
-0.0975792
-0.189334
-0.246359
-0.263863
-0.28259
-0.287665
-0.285797
-0.282505
-0.696777
-0.676941
-0.627865
-0.559103
-0.480231
-0.395927
-0.309336
-0.224782
-0.149807
-0.0917198
-0.0676732
-0.0904268
-0.15295
-0.20916
-0.240084
-0.247344
-0.258524
-0.274233
-0.28208
-0.282484
-0.717287
-0.69868
-0.65162
-0.58511
-0.5089
-0.427647
-0.344085
-0.261952
-0.188805
-0.135134
-0.121997
-0.155154
-0.213066
-0.239505
-0.242749
-0.257568
-0.274055
-0.291938
-0.301496
-0.304257
-0.732491
-0.715656
-0.671305
-0.60765
-0.534605
-0.457109
-0.37746
-0.298203
-0.225807
-0.173281
-0.168999
-0.220958
-0.289528
-0.311806
-0.310576
-0.33004
-0.339445
-0.350353
-0.356042
-0.359956
-0.741095
-0.726606
-0.685849
-0.625441
-0.555767
-0.48258
-0.407969
-0.332977
-0.261172
-0.205088
-0.202092
-0.276882
-0.383709
-0.455013
-0.48388
-0.516103
-0.511929
-0.49265
-0.476994
-0.470091
-0.742654
-0.730874
-0.693892
-0.636906
-0.570805
-0.502201
-0.433417
-0.364474
-0.295316
-0.232075
-0.216961
-0.305074
-0.461811
-0.611259
-0.702069
-0.744079
-0.73881
-0.70041
-0.659706
-0.633741
-0.736574
-0.726558
-0.693465
-0.640511
-0.578367
-0.514196
-0.451144
-0.389337
-0.326206
-0.257126
-0.214151
-0.288982
-0.468452
-0.67729
-0.818085
-0.859089
-0.852348
-0.817821
-0.774765
-0.744031
-0.71846
-0.709549
-0.681608
-0.634874
-0.578143
-0.518012
-0.458838
-0.402728
-0.347609
-0.278418
-0.200481
-0.21954
-0.348866
-0.53735
-0.696635
-0.744385
-0.735364
-0.696074
-0.652076
-0.621972
-0.682275
-0.675505
-0.657236
-0.620549
-0.571087
-0.514634
-0.456266
-0.400552
-0.348724
-0.285564
-0.1791
-0.10272
-0.10165
-0.167256
-0.251541
-0.253543
-0.199869
-0.135275
-0.0843045
-0.0551386
-0.637955
-0.635662
-0.62729
-0.600851
-0.558612
-0.504992
-0.444943
-0.384063
-0.324571
-0.26012
-0.141985
0.0284194
0.198655
0.360224
0.462842
0.585507
0.703966
0.793794
0.851683
0.877967
-0.603891
-0.604002
-0.597689
-0.578869
-0.543232
-0.492002
-0.428259
-0.358372
-0.283715
-0.199107
-0.0768841
0.134716
0.413744
0.730299
1.03303
1.2823
1.46737
1.59298
1.6616
1.68429
-0.573695
-0.573492
-0.570118
-0.559438
-0.529934
-0.480518
-0.411611
-0.328988
-0.238571
-0.135129
-0.0082836
0.188794
0.467145
0.795418
1.1469
1.45585
1.68083
1.81924
1.88894
1.91308
-0.549814
-0.549387
-0.549137
-0.542425
-0.518514
-0.470104
-0.395914
-0.302398
-0.200478
-0.0896416
0.0319304
0.195667
0.429388
0.714467
1.03138
1.32417
1.54901
1.69221
1.76284
1.78564
-0.53722
-0.536854
-0.537894
-0.533241
-0.511391
-0.459328
-0.378986
-0.280156
-0.175369
-0.0698308
0.0350081
0.162074
0.351789
0.577728
0.818981
1.04548
1.22688
1.34527
1.40341
1.42125
-0.527653
-0.52869
-0.532132
-0.529543
-0.50534
-0.446274
-0.360828
-0.261827
-0.162707
-0.071856
0.0130294
0.107985
0.256378
0.434874
0.608833
0.761844
0.883385
0.964878
1.00469
1.01646
-0.503101
-0.505135
-0.509778
-0.507475
-0.481267
-0.420898
-0.338101
-0.24521
-0.155162
-0.0803279
-0.0181588
0.048976
0.156236
0.291059
0.418823
0.523715
0.603593
0.657507
0.683939
0.691416
-0.447531
-0.450189
-0.454666
-0.451782
-0.426265
-0.372183
-0.303107
-0.22718
-0.149141
-0.0829965
-0.0421759
-0.00713534
0.0638467
0.16385
0.263833
0.345226
0.405703
0.446892
0.469661
0.477702
-0.359349
-0.362126
-0.365765
-0.363283
-0.342234
-0.300872
-0.253778
-0.204838
-0.14559
-0.0819409
-0.0457897
-0.0397472
-0.00357203
0.075183
0.161145
0.231405
0.283096
0.318659
0.338525
0.344282
-0.251732
-0.253792
-0.256591
-0.255755
-0.242921
-0.218797
-0.195007
-0.172465
-0.137381
-0.0823153
-0.0398369
-0.0360481
-0.0212046
0.0388528
0.109109
0.166461
0.20801
0.23549
0.249522
0.252675
-0.147098
-0.148458
-0.15069
-0.152303
-0.148884
-0.140563
-0.133742
-0.127484
-0.11244
-0.0767725
-0.0343315
-0.0167141
0.000631703
0.0427497
0.0914421
0.128938
0.155599
0.171318
0.177009
0.176836
-0.0654185
-0.0663141
-0.0683263
-0.0718521
-0.074913
-0.0763833
-0.0781295
-0.0780716
-0.0718421
-0.0549852
-0.0252677
-6.13642e-05
0.0224801
0.0543564
0.0857718
0.104455
0.11355
0.11746
0.116529
0.113834
-0.0119982
-0.0127086
-0.0147472
-0.0193498
-0.0255781
-0.0314581
-0.0361551
-0.0380863
-0.0342161
-0.0265445
-0.0137495
0.00271819
0.0231413
0.0498818
0.0706521
0.0779433
0.0766
0.0735032
0.0693768
0.0664831
0.0172717
0.0167453
0.0148914
0.0103146
0.00279148
-0.00542869
-0.0115827
-0.0159368
-0.0160489
-0.0121648
-0.00526325
-0.00860741
0.00514897
0.0292117
0.0444704
0.0467398
0.0431832
0.0391018
0.0353175
0.0335852
0.0296315
0.0292424
0.0275897
0.0233241
0.0158246
0.00680259
-0.000660968
-0.00766612
-0.0132481
-0.011357
-0.00409743
-0.0210007
-0.0162849
0.00187674
0.0155879
0.0194378
0.0188609
0.0181563
0.0168461
0.0157428
0.0319248
0.0316503
0.030329
0.0266964
0.0201477
0.0116314
0.00424629
-0.00269517
-0.0116247
-0.0123917
-0.0035912
-0.0214333
-0.027152
-0.0183267
-0.00565064
0.00207449
0.00463616
0.00565314
0.00557073
0.00464817
0.029708
0.029508
0.0285743
0.025805
0.020805
0.0138646
0.00776439
0.00315341
-0.00571612
-0.0105577
0.000286998
-0.0128831
-0.0232315
-0.0197664
-0.0102274
-0.00439546
-0.00238333
-0.00161296
-0.00223028
-0.00341261
0.0260625
0.0259259
0.0253737
0.0235294
0.0200685
0.0148992
0.00995713
0.00679319
0.000338713
-0.00668246
0.000823712
-0.00558811
-0.0133063
-0.00759954
-0.00075522
-0.000844171
-0.00201069
-0.00276104
-0.00452857
-0.00595067
0.02202
0.0219057
0.0215279
0.0203464
0.0180526
0.0143312
0.0102749
0.00747389
0.00343122
-0.00599301
-0.000549084
-0.00316596
-0.00802365
0.00112076
0.00892141
0.0056044
0.00119354
-0.00146634
-0.00302484
-0.00406776
0.0180037
0.0179145
0.0176106
0.0167812
0.0151435
0.0123956
0.00898098
0.00635225
0.0035592
-0.0063685
-0.00194383
-0.00678883
-0.00978981
-0.000696484
0.00660431
0.00609063
0.00276686
0.000142845
-0.000581447
-0.00101577
0.014122
0.0140371
0.0137315
0.0130567
0.0119309
0.0101733
0.00754443
0.00532874
0.00299054
-0.00623342
-0.00306697
-0.0117747
-0.0146205
-0.00567707
0.000680124
0.00112077
0.00266875
0.00387867
0.00409675
0.00378292
0.0109694
0.0109063
0.0106857
0.0101604
0.00923369
0.00821229
0.00591954
0.00338678
0.00192093
-0.00538043
-0.00378494
-0.0113503
-0.0150835
-0.00640786
0.00113842
0.00264232
0.0049812
0.00834212
0.00947087
0.00886881
0.00848048
0.00841784
0.00826264
0.00792273
0.00729549
0.00683983
0.00538576
0.00259193
0.00129853
-0.0035832
-0.00400064
-0.00764468
-0.00959894
-0.00134468
0.00623811
0.0105242
0.0119711
0.0129093
0.013667
0.0134048
0.00679114
0.00671801
0.00664407
0.00647395
0.00608164
0.00591186
0.00534002
0.0032526
0.00168896
-0.00252809
-0.00261107
-0.00429743
-0.00389387
0.00419288
0.0103397
0.014897
0.0188147
0.0195984
0.0194229
0.019082
0.00562073
0.00555701
0.00551427
0.00548197
0.00531033
0.00527599
0.00510213
0.003287
0.00143584
-0.00137739
-0.000735616
-0.000961135
-0.000173474
0.00574945
0.0112799
0.0158538
0.0195773
0.0216504
0.0220277
0.0215428
0.00435386
0.00431435
0.00430893
0.00425676
0.00425731
0.00442905
0.00458465
0.0033416
0.00148665
-7.35969e-06
0.00105213
0.00258102
0.00314574
0.00587109
0.0101141
0.0148466
0.0197118
0.0252342
0.0265557
0.0253127
0.00303794
0.00292899
0.00287453
0.0028055
0.00291568
0.00327304
0.00416535
0.00393858
0.00161556
0.000296111
0.0017464
0.00375863
0.00319371
0.00613663
0.00997598
0.0136606
0.0212608
0.0270179
0.0276978
0.0261758
0.00156319
0.00147644
0.00145863
0.00166552
0.00183873
0.00145312
0.00179556
0.00329839
0.00284751
0.00023135
0.00159183
0.0047078
0.00206194
0.00412995
0.00582336
0.00519889
0.00829379
0.00885528
0.00931301
0.00900251
-0.563935
-0.0977654
0.184421
0.397297
0.569565
0.711157
0.826888
0.924805
1.00169
1.03435
0.113363
0.330373
0.449709
0.573162
0.692606
0.792874
0.866842
0.908564
0.906638
0.905818
0.389591
0.525068
0.622109
0.708415
0.785628
0.849502
0.895068
0.918147
0.924468
0.960175
0.580844
0.671496
0.748492
0.812194
0.864423
0.906425
0.93868
0.963208
0.983216
1.01594
0.733581
0.79249
0.850323
0.897294
0.935504
0.966921
0.993762
1.01846
1.04328
1.06837
0.857564
0.898476
0.939837
0.97531
1.00536
1.03144
1.05532
1.07847
1.10112
1.1199
0.964106
0.99208
1.02261
1.05016
1.07484
1.09745
1.11882
1.13928
1.15853
1.17441
1.05787
1.07739
1.10122
1.12413
1.14523
1.1648
1.1833
1.201
1.21767
1.23128
1.14317
1.16059
1.18019
1.19866
1.21607
1.2327
1.24873
1.26411
1.27865
1.2909
1.22694
1.24057
1.2573
1.2734
1.28855
1.30285
1.31646
1.32959
1.34216
1.35265
1.31407
1.32262
1.33566
1.34966
1.36301
1.37538
1.38689
1.39772
1.40807
1.41712
1.40229
1.4079
1.41778
1.42957
1.4411
1.45148
1.46063
1.46895
1.47694
1.48403
1.49406
1.49761
1.50452
1.5127
1.52091
1.52872
1.53591
1.54238
1.54853
1.55434
1.58999
1.59026
1.59211
1.59497
1.59863
1.6033
1.60911
1.61586
1.6228
1.62885
1.69188
1.68313
1.67368
1.66647
1.66311
1.6646
1.67126
1.6825
1.6968
1.71026
1.79849
1.76143
1.73058
1.71159
1.70267
1.70226
1.7104
1.72948
1.76085
1.79971
)
;

boundaryField
{
    wall-4
    {
        type            zeroGradient;
    }
    pressure-outlet-7
    {
        type            fixedValue;
        value           uniform 0;
    }
    velocity-inlet-6
    {
        type            zeroGradient;
    }
    velocity-inlet-5
    {
        type            zeroGradient;
    }
    frontAndBackPlanes
    {
        type            empty;
    }
}


// ************************************************************************* //
