/*--------------------------------*- C++ -*----------------------------------*\
  =========                 |
  \\      /  F ield         | OpenFOAM: The Open Source CFD Toolbox
   \\    /   O peration     | Website:  https://openfoam.org
    \\  /    A nd           | Version:  6
     \\/     M anipulation  |
\*---------------------------------------------------------------------------*/
FoamFile
{
    version     2.0;
    format      ascii;
    class       surfaceScalarField;
    location    "109.9";
    object      phi;
}
// * * * * * * * * * * * * * * * * * * * * * * * * * * * * * * * * * * * * * //

dimensions      [0 3 -1 0 0 0 0];

internalField   nonuniform List<scalar> 
17370
(
-0.0899999
0.0898488
0.289162
-0.0714622
0.0537523
0.364485
-0.0381192
0.0276901
0.426597
-0.0196386
0.014606
0.504284
-0.0107648
0.00827526
0.601892
-0.00627633
0.00490016
0.720434
-0.00373605
0.00289493
0.863748
-0.00215262
0.00159275
1.03601
-0.00107543
0.000662294
1.24292
-0.000254042
-0.000145444
1.49159
0.000526066
-0.000936504
1.4916
0.00133169
-0.00181298
1.24317
0.00233377
-0.00303751
1.03634
0.00385294
-0.00499932
0.864053
0.00636665
-0.0083604
0.721051
0.0108462
-0.0146827
0.603051
0.0197097
-0.027754
0.507484
0.0381753
-0.0537997
0.431793
0.0715014
-0.0898754
0.36515
0.0900164
0.198994
-0.128139
0.0882312
0.0399077
-0.364601
0.353384
-0.0746669
0.0858843
-0.446478
0.454324
-0.0843793
0.0765333
-0.521192
0.529905
-0.068435
0.0597225
-0.612791
0.621572
-0.0515327
0.0427523
-0.726897
0.734168
-0.0352906
0.0280196
-0.867477
0.872596
-0.0224165
0.0172974
-1.03848
1.04193
-0.0134838
0.0100298
-1.2446
1.24704
-0.0074155
0.00497895
-1.49262
1.49461
-0.00302654
0.00103938
-1.49251
1.49423
0.000632289
-0.00235634
-1.24397
1.24585
0.00426711
-0.00615025
-1.03751
1.04002
0.00849306
-0.0110072
-0.866096
0.869825
0.014354
-0.0180831
-0.724388
0.72993
0.0231243
-0.0286668
-0.608696
0.616108
0.0358795
-0.0432916
-0.514894
0.523037
0.05202
-0.0601627
-0.439854
0.447911
0.0688236
-0.0768806
-0.375293
0.376736
0.0846739
-0.0861166
-0.257328
0.222471
0.074824
-0.0399679
-0.0685275
0.0587046
0.00982293
-0.0517927
0.0583696
-0.374136
0.367559
-0.0574488
0.0536929
-0.453601
0.457357
-0.0486
0.0446447
-0.527955
0.531911
-0.0408016
0.0371594
-0.621573
0.625215
-0.0330533
0.0289723
-0.735359
0.73944
-0.0243948
0.0202281
-0.874351
0.878517
-0.0158738
0.0121725
-1.0435
1.0472
-0.00842738
0.0052485
-1.24857
1.25175
-0.00191491
-0.00116377
-1.49666
1.49974
0.00421602
-0.00748486
-1.4972
1.50047
0.0105602
-0.0141482
-1.25006
1.25365
0.0176871
-0.0218665
-1.04591
1.05009
0.0258892
-0.0303263
-0.877748
0.882186
0.0342931
-0.0382857
-0.739889
0.743882
0.0418314
-0.0455753
-0.626763
0.630507
0.0494454
-0.054457
-0.534802
0.539813
0.0581214
-0.0589277
-0.457466
0.458272
0.0522139
-0.0320011
-0.335736
0.315524
0.00989125
-0.0683342
0.058443
-0.052958
0.0489669
0.00399107
-0.0331311
0.0436627
-0.358137
0.347605
-0.0473501
0.0467153
-0.459303
0.459938
-0.043653
0.0402948
-0.535821
0.539179
-0.0365164
0.0332065
-0.62855
0.63186
-0.0297612
0.0267209
-0.742672
0.745712
-0.0234512
0.0203337
-0.882043
0.88516
-0.0167913
0.0134013
-1.0508
1.05419
-0.0095974
0.00605017
-1.25519
1.25874
-0.00207253
-0.00173183
-1.50325
1.50705
0.00550359
-0.00938005
-1.50413
1.508
0.0127806
-0.016369
-1.2574
1.26099
0.0195357
-0.022834
-1.05389
1.05719
0.0257455
-0.0288097
-0.885661
0.888725
0.0316804
-0.0349567
-0.747132
0.750408
0.0381238
-0.0417578
-0.634283
0.637917
0.0449923
-0.0479126
-0.544114
0.547035
0.0483964
-0.0444956
-0.456546
0.452646
0.0337079
-0.0162384
-0.296141
0.278671
0.00407666
-0.0526183
0.0485416
-0.0458949
0.0434053
0.00248959
-0.0227643
0.0331214
-0.336935
0.326577
-0.038924
0.0399286
-0.459634
0.458629
-0.0387277
0.0364334
-0.541908
0.544202
-0.0337578
0.0311534
-0.634923
0.637527
-0.0280793
0.025168
-0.748769
0.75168
-0.0218883
0.0188798
-0.888124
0.891133
-0.0155583
0.0124447
-1.05733
1.06044
-0.00890423
0.00548384
-1.2622
1.26562
-0.00150998
-0.00238274
-1.51094
1.51483
0.00623131
-0.0100695
-1.51188
1.51572
0.0132956
-0.0165543
-1.26443
1.26769
0.0193767
-0.0223781
-1.06028
1.06329
0.0251125
-0.0281152
-0.891758
0.894761
0.0307949
-0.0336362
-0.753601
0.756442
0.0360442
-0.0385239
-0.64097
0.643449
0.0406509
-0.0416295
-0.548824
0.549803
0.0403904
-0.0342434
-0.447344
0.441197
0.0235075
-0.0102604
-0.263426
0.250179
0.00259565
-0.0453714
0.0427758
-0.0413375
0.0395779
0.00175962
-0.0166914
0.0259119
-0.316752
0.307532
-0.0324883
0.0346083
-0.457049
0.454929
-0.0341718
0.0324898
-0.546194
0.547876
-0.0302979
0.0281913
-0.639848
0.641955
-0.0257453
0.0233317
-0.754339
0.756753
-0.020453
0.017644
-0.894042
0.896851
-0.0143858
0.0112973
-1.0635
1.06659
-0.00778745
0.00444584
-1.26895
1.2723
-0.000598536
-0.00314583
-1.51862
1.52236
0.00683347
-0.0105068
-1.51944
1.52311
0.0136
-0.0167517
-1.27094
1.27409
0.0194703
-0.0223199
-1.0663
1.06915
0.0247759
-0.0272953
-0.897549
0.900068
0.0294081
-0.0315526
-0.758874
0.761018
0.0334069
-0.0353456
-0.645587
0.647525
0.0367837
-0.0369177
-0.5503
0.550434
0.0344366
-0.0273538
-0.434497
0.427415
0.0176213
-0.00743851
-0.238611
0.228428
0.0018894
-0.0405877
0.0386983
-0.0380649
0.036745
0.0013199
-0.0127156
0.0206196
-0.298977
0.291073
-0.0273271
0.0302191
-0.452397
0.449505
-0.0304
0.0292617
-0.549326
0.550465
-0.0272538
0.0253215
-0.644011
0.645943
-0.0231012
0.0209418
-0.759011
0.76117
-0.0183992
0.015889
-0.899443
0.901953
-0.0129166
0.0100104
-1.06955
1.07245
-0.00662058
0.0033566
-1.27557
1.27883
0.000411154
-0.00405514
-1.52602
1.52966
0.00762793
-0.0111764
-1.52669
1.53024
0.0141286
-0.0170711
-1.27723
1.28017
0.0195164
-0.0219788
-1.07186
1.07433
0.0240463
-0.0261358
-0.902323
0.904412
0.0279142
-0.0297515
-0.762979
0.764816
0.0313646
-0.0330636
-0.649325
0.651024
0.0338455
-0.0332398
-0.550195
0.549589
0.0298294
-0.0224261
-0.42011
0.412707
0.0138624
-0.0057828
-0.219396
0.211316
0.00147795
-0.0370387
0.0355607
-0.0355953
0.0345825
0.00101278
-0.00990106
0.0165615
-0.283819
0.277159
-0.0229856
0.0263146
-0.446381
0.443052
-0.0270609
0.0263363
-0.551398
0.552123
-0.0245556
0.0227504
-0.647864
0.649669
-0.0206529
0.0186066
-0.763267
0.765313
-0.0161979
0.0138347
-0.904315
0.906678
-0.0110558
0.00833463
-1.07519
1.07791
-0.00513941
0.00202347
-1.28198
1.2851
0.00161539
-0.00514915
-1.53322
1.53676
0.00859442
-0.0119605
-1.53367
1.53703
0.0146904
-0.0173346
-1.28304
1.28568
0.0194892
-0.0216402
-1.07668
1.07883
0.0234561
-0.0253024
-0.90635
0.908196
0.0268754
-0.0284971
-0.766535
0.768157
0.0299057
-0.031256
-0.652579
0.653929
0.0315384
-0.0301879
-0.548615
0.547265
0.0261424
-0.0187996
-0.405302
0.39796
0.0113083
-0.00469037
-0.204034
0.197416
0.00120516
-0.034233
0.0330278
-0.0336973
0.0329137
0.000783604
-0.00780678
0.0133802
-0.271075
0.265502
-0.0193001
0.0228087
-0.43963
0.436121
-0.0240171
0.0235315
-0.552772
0.553258
-0.0220099
0.0203078
-0.651484
0.653186
-0.0182969
0.0163276
-0.767313
0.769283
-0.0140007
0.0117157
-0.908929
0.911214
-0.00903005
0.00641044
-1.08051
1.08313
-0.00334761
0.00036757
-1.28809
1.29107
0.003107
-0.00647243
-1.54017
1.54354
0.00972905
-0.0128687
-1.54024
1.54338
0.0153759
-0.0177661
-1.28828
1.29067
0.0196946
-0.021613
-1.08093
1.08285
0.0232261
-0.0248608
-0.909912
0.911547
0.0262481
-0.0276729
-0.769668
0.771093
0.0288783
-0.0298367
-0.655082
0.656041
0.0297385
-0.0277046
-0.545559
0.543525
0.0232368
-0.0161359
-0.390726
0.383625
0.00952866
-0.00394029
-0.191358
0.18577
0.00101755
-0.0319263
0.0309087
-0.0322304
0.0316256
0.000604806
-0.00618233
0.0108236
-0.260427
0.255785
-0.0161322
0.0196211
-0.432631
0.429142
-0.021135
0.0208648
-0.553687
0.553957
-0.0195646
0.0179155
-0.654923
0.656572
-0.0159511
0.0140212
-0.771219
0.773149
-0.0117414
0.00950386
-0.913391
0.915629
-0.00687477
0.00431482
-1.08563
1.08819
-0.00133152
-0.00155267
-1.29395
1.29683
0.00488594
-0.00808277
-1.54677
1.54996
0.0111467
-0.0140712
-1.54636
1.54928
0.0163793
-0.0185453
-1.29305
1.29522
0.0202667
-0.0219636
-1.08474
1.08643
0.0233813
-0.024813
-0.913047
0.914479
0.026028
-0.0272723
-0.772414
0.773659
0.028333
-0.0288659
-0.656794
0.657327
0.0283669
-0.0257476
-0.541189
0.538569
0.0210054
-0.0142039
-0.376676
0.369874
0.00828493
-0.00342337
-0.180579
0.175718
0.000889025
-0.0299631
0.029074
-0.0311038
0.030645
0.000458788
-0.00486598
0.00869928
-0.25158
0.247747
-0.0133503
0.0166691
-0.425757
0.422438
-0.0183458
0.0182531
-0.5542
0.554293
-0.0171338
0.0155114
-0.658288
0.65991
-0.0135576
0.0116303
-0.775057
0.776984
-0.00935509
0.00712858
-0.917762
0.919988
-0.00452236
0.00199489
-1.09065
1.09318
0.000937018
-0.00375352
-1.29962
1.30244
0.00698069
-0.0100417
-1.55303
1.5561
0.0129412
-0.0156717
-1.55204
1.55477
0.0177893
-0.0197317
-1.29739
1.29933
0.0212455
-0.0227239
-1.08811
1.08959
0.0239556
-0.0252005
-0.915778
0.917022
0.0262611
-0.0273421
-0.774802
0.775883
0.0281893
-0.0283498
-0.657658
0.657818
0.0274175
-0.0242861
-0.535687
0.532555
0.0193575
-0.0128382
-0.363226
0.356707
0.00743156
-0.00307545
-0.171137
0.166781
0.000804175
-0.0282342
0.02743
-0.0302579
0.0299238
0.000334048
-0.00375404
0.00687293
-0.244301
0.241182
-0.0108523
0.0138886
-0.41929
0.416253
-0.0155986
0.0156437
-0.554393
0.554347
-0.014593
0.0130298
-0.661593
0.663157
-0.0110559
0.00909635
-0.778899
0.780858
-0.00678444
0.00453096
-0.922116
0.924369
-0.00190687
-0.000622881
-1.0956
1.09813
0.00353786
-0.00631644
-1.30516
1.30794
0.00947012
-0.012425
-1.55904
1.56199
0.0151841
-0.0177362
-1.55734
1.55989
0.0196695
-0.0213905
-1.3013
1.30303
0.0226992
-0.0239644
-1.09107
1.09233
0.0250159
-0.0260804
-0.918131
0.919196
0.026994
-0.027915
-0.77685
0.77777
0.0284986
-0.0283519
-0.657825
0.657678
0.0269338
-0.0233189
-0.529184
0.525569
0.0182365
-0.0119344
-0.350315
0.344013
0.00688259
-0.00285875
-0.162615
0.158591
0.000753636
-0.0266572
0.0259036
-0.0296547
0.0294333
0.000221457
-0.00276972
0.00523895
-0.238417
0.235948
-0.00854427
0.0112126
-0.413438
0.41077
-0.0128392
0.0129458
-0.554362
0.554255
-0.0119227
0.0103856
-0.664808
0.666345
-0.00836531
0.00634142
-0.782809
0.784833
-0.00395407
0.00163603
-0.926527
0.928845
0.00104922
-0.00362139
-1.10057
1.10314
0.00656248
-0.00933958
-1.31064
1.31342
0.0124547
-0.0153304
-1.56484
1.56771
0.0179697
-0.0203592
-1.56227
1.56466
0.0221171
-0.0236205
-1.3048
1.3063
0.0247237
-0.0257731
-1.09361
1.09466
0.0266387
-0.0275115
-0.920118
0.92099
0.0282624
-0.029014
-0.778515
0.779266
0.029309
-0.0288077
-0.657401
0.6569
0.0269182
-0.0228393
-0.521743
0.517665
0.0175953
-0.0114165
-0.337796
0.331617
0.00657837
-0.00274623
-0.154685
0.150853
0.000730228
-0.0251673
0.024437
-0.0292738
0.0291605
0.00011325
-0.00184845
0.00370321
-0.233814
0.23196
-0.00632633
0.00855401
-0.408366
0.406139
-0.00998712
0.0100745
-0.55427
0.554183
-0.00904202
0.00748889
-0.668008
0.669561
-0.00539012
0.00326806
-0.78685
0.788972
-0.000765128
-0.0016557
-0.931067
0.933488
0.00444558
-0.00710064
-1.10563
1.10829
0.0101118
-0.0129252
-1.31613
1.31894
0.0160381
-0.0188615
-1.57048
1.5733
0.0214003
-0.02364
-1.56686
1.5691
0.0252275
-0.0265154
-1.30789
1.30918
0.0274141
-0.0282439
-1.09574
1.09657
0.0289151
-0.0295884
-0.921716
0.922389
0.030182
-0.0307816
-0.779833
0.780433
0.0307051
-0.0297815
-0.656225
0.655302
0.0273916
-0.0228354
-0.513381
0.508825
0.0173899
-0.0112265
-0.325475
0.319311
0.00647577
-0.00271867
-0.147079
0.143322
0.000728937
-0.023713
0.0229841
-0.0291097
0.029105
4.74686e-06
-0.000941216
0.00219196
-0.230433
0.229183
-0.00411478
0.00583557
-0.404215
0.402495
-0.0069709
0.00695583
-0.554287
0.554303
-0.00586406
0.00425172
-0.671282
0.672894
-0.00203096
-0.000226989
-0.791085
0.793343
0.00289007
-0.00545617
-0.935814
0.93838
0.0083984
-0.0111802
-1.11087
1.11365
0.0143084
-0.0171986
-1.32169
1.32458
0.0203491
-0.0231503
-1.57602
1.57883
0.0256096
-0.0277115
-1.57114
1.57325
0.0291336
-0.0302105
-1.31057
1.31164
0.030905
-0.0315123
-1.09743
1.09804
0.0319827
-0.0324416
-0.922908
0.923367
0.0328446
-0.0331636
-0.780756
0.781075
0.0327799
-0.0313503
-0.654198
0.652768
0.0284169
-0.0233347
-0.504052
0.49897
0.0176132
-0.0113397
-0.313125
0.306852
0.00655425
-0.00276662
-0.13957
0.135782
0.000747252
-0.0222515
0.0215042
-0.0291662
0.0292767
-0.000110501
9.96695e-07
0.00063581
-0.22826
0.227623
-0.00182535
0.002972
-0.401117
0.39997
-0.00370795
0.00350487
-0.554592
0.554796
-0.00229289
0.000560629
-0.674724
0.676456
0.00182416
-0.00426359
-0.795592
0.798031
0.00713856
-0.00989824
-0.940853
0.943613
0.0130466
-0.0160038
-1.11637
1.11932
0.0193004
-0.0223107
-1.32742
1.33043
0.0255403
-0.0283503
-1.58153
1.58434
0.0307517
-0.0327279
-1.57513
1.57711
0.0339908
-0.0348557
-1.31283
1.31369
0.0353385
-0.0357112
-1.09867
1.09904
0.0359717
-0.0362087
-0.923664
0.923901
0.0364006
-0.0363693
-0.781097
0.781066
0.0356265
-0.0336045
-0.651136
0.649114
0.0300539
-0.0243612
-0.493641
0.487949
0.0182605
-0.0117376
-0.300491
0.293968
0.0067977
-0.00288178
-0.131951
0.128035
0.000782602
-0.0207448
0.0199622
-0.0294585
0.0297079
-0.000249447
0.000984691
-0.00102605
-0.227331
0.227372
0.000629392
-0.000130847
-0.39921
0.398711
-0.00010329
-0.000383297
-0.555376
0.555863
0.00178575
-0.00370076
-0.678457
0.680372
0.00631181
-0.00898623
-0.800457
0.803132
0.0121328
-0.0151418
-0.946284
0.949293
0.0185583
-0.0217467
-1.12223
1.12542
0.0252696
-0.0284473
-1.33341
1.33658
0.0317988
-0.0346446
-1.58705
1.5899
0.0370002
-0.0388598
-1.57884
1.5807
0.0399733
-0.040624
-1.31464
1.31529
0.0408806
-0.0409991
-1.09943
1.09955
0.0410298
-0.0410286
-0.923955
0.923954
0.0410306
-0.0405376
-0.780732
0.780239
0.0393512
-0.0366332
-0.646879
0.644161
0.0323633
-0.0259393
-0.481963
0.475539
0.0193291
-0.0124048
-0.287285
0.28036
0.00719126
-0.00305583
-0.12403
0.119894
0.000832224
-0.01916
0.0183278
-0.0300265
0.0304208
-0.000394308
0.00210379
-0.00278946
-0.227724
0.22841
0.00327326
-0.00354672
-0.398641
0.398914
0.00396982
-0.0048426
-0.556869
0.557742
0.00650571
-0.00867617
-0.682613
0.684784
0.0115897
-0.0145672
-0.805788
0.808766
0.0180578
-0.021382
-0.95222
0.955544
0.0251376
-0.0286193
-1.12856
1.13205
0.0324313
-0.0358264
-1.33973
1.34313
0.0393432
-0.0422506
-1.59264
1.59555
0.0445684
-0.0463041
-1.58227
1.58401
0.0472555
-0.0476975
-1.31601
1.31645
0.0477199
-0.0475675
-1.09966
1.09951
0.0473543
-0.0471001
-0.92373
0.923476
0.0468513
-0.0458437
-0.779479
0.778471
0.044108
-0.0405513
-0.641218
0.637661
0.0354171
-0.0280955
-0.468755
0.461434
0.0208163
-0.0133247
-0.273197
0.265705
0.00771889
-0.0032794
-0.115627
0.111187
0.000892903
-0.0174702
0.0165772
-0.0309031
0.0314772
-0.000574159
0.00338036
-0.00487366
-0.229527
0.23102
0.00628486
-0.00739192
-0.399612
0.40072
0.00858629
-0.00998238
-0.559293
0.560689
0.0120489
-0.0145601
-0.687334
0.689845
0.0178667
-0.0212262
-0.81172
0.815079
0.0251457
-0.0288623
-0.958797
0.962514
0.0330391
-0.0368836
-1.1355
1.13935
0.0410517
-0.0447138
-1.34651
1.35017
0.0484347
-0.0514226
-1.59836
1.60135
0.0537059
-0.0553117
-1.5854
1.58701
0.0561027
-0.0563148
-1.3169
1.31711
0.0560767
-0.0556342
-1.09933
1.09889
0.0551673
-0.0546319
-0.922961
0.922426
0.053983
-0.0524811
-0.777288
0.775787
0.0500286
-0.0454549
-0.633852
0.629278
0.0392691
-0.0308381
-0.453666
0.445235
0.0227026
-0.0144674
-0.25789
0.249655
0.00835484
-0.00353813
-0.106578
0.101761
0.000959801
-0.0156552
0.0146954
-0.032152
0.0329603
-0.000808301
0.00496023
-0.00736848
-0.232977
0.235385
0.00986081
-0.0119062
-0.402332
0.404377
0.0139996
-0.0160451
-0.562899
0.564945
0.0186515
-0.0216038
-0.692799
0.695751
0.0254198
-0.0292535
-0.818417
0.82225
0.0337035
-0.0379026
-0.966176
0.970375
0.0425926
-0.0468741
-1.14318
1.14746
0.0514646
-0.0554372
-1.35382
1.35779
0.0593881
-0.0624584
-1.60423
1.6073
0.0646909
-0.066139
-1.58822
1.58967
0.066742
-0.0666838
-1.31722
1.31716
0.0661788
-0.065423
-1.0984
1.09764
0.0646894
-0.0638907
-0.921593
0.920794
0.0627221
-0.0606146
-0.774164
0.772056
0.0572788
-0.0514367
-0.624391
0.618548
0.0439475
-0.0341398
-0.436245
0.426437
0.0249342
-0.0157763
-0.241008
0.23185
0.00905569
-0.00380939
-0.0967455
0.0914992
0.00102568
-0.0137059
0.0126802
-0.033871
0.034986
-0.00111494
0.00694598
-0.0104615
-0.238294
0.241809
0.0142314
-0.0173651
-0.407102
0.410236
0.0204873
-0.0233093
-0.567982
0.570804
0.0266135
-0.0301356
-0.699235
0.702758
0.0346102
-0.0390398
-0.826073
0.830502
0.0441426
-0.0489256
-0.97454
0.979323
0.0542262
-0.059016
-1.15175
1.15654
0.0640826
-0.0683884
-1.36175
1.36606
0.0725642
-0.0756874
-1.61023
1.61336
0.0778277
-0.0790741
-1.59065
1.5919
0.0794496
-0.079089
-1.31688
1.31652
0.0782934
-0.0771919
-1.0968
1.0957
0.0761855
-0.0750855
-0.919655
0.918555
0.0733501
-0.0704567
-0.769883
0.76699
0.0659831
-0.0585214
-0.612312
0.60485
0.0494016
-0.0378971
-0.415939
0.404434
0.0273931
-0.0171493
-0.222201
0.211957
0.00975064
-0.00405898
-0.0860411
0.0803494
0.00108028
-0.0116289
0.0105486
-0.0361951
0.0377314
-0.00153631
0.00955423
-0.0144468
-0.245835
0.250727
0.0197368
-0.024129
-0.414287
0.418679
0.0284354
-0.0321875
-0.574871
0.578623
0.03637
-0.0406544
-0.706916
0.711201
0.0459568
-0.0511313
-0.834931
0.840105
0.0570307
-0.0625073
-0.984095
0.989572
0.0685101
-0.0738594
-1.16134
1.16669
0.0794195
-0.0840383
-1.37032
1.37494
0.0883791
-0.0914719
-1.61629
1.61938
0.0934296
-0.0943844
-1.59259
1.59354
0.0944701
-0.0938067
-1.31581
1.31515
0.0926367
-0.0911817
-1.0945
1.09305
0.089904
-0.088313
-0.916978
0.915387
0.0860589
-0.082088
-0.76402
0.760049
0.0761462
-0.0666143
-0.596886
0.587355
0.0554558
-0.0418893
-0.392092
0.378526
0.0298671
-0.0184231
-0.201161
0.189717
0.0103349
-0.00423995
-0.0744591
0.0683642
0.00111044
-0.0094528
0.00834236
-0.0393341
0.0414805
-0.00214641
0.0131495
-0.0198039
-0.256108
0.262762
0.0269231
-0.0327836
-0.424369
0.430229
0.0384586
-0.0433424
-0.583955
0.588838
0.0486212
-0.0538806
-0.71624
0.721499
0.0602616
-0.0663585
-0.845284
0.851381
0.073197
-0.0794522
-0.995057
1.00131
0.0862011
-0.0921019
-1.17202
1.17792
0.0980942
-0.102928
-1.37945
1.38429
0.107288
-0.110195
-1.6222
1.62511
0.111817
-0.112342
-1.59382
1.59435
0.112051
-0.111012
-1.31395
1.31292
0.109451
-0.107614
-1.09149
1.08965
0.106045
-0.103905
-0.913181
0.911042
0.100986
-0.0955546
-0.755964
0.750533
0.0876438
-0.0754302
-0.577167
0.564954
0.061735
-0.0457261
-0.363981
0.347972
0.0320207
-0.0193648
-0.177709
0.165053
0.010671
-0.00429557
-0.0621216
0.0557462
0.00110153
-0.00723308
0.00613155
-0.0436296
0.0467172
-0.00308757
0.0183717
-0.0273306
-0.269865
0.278824
0.0366818
-0.0443198
-0.438029
0.445667
0.0516537
-0.0578952
-0.595738
0.60198
0.0646038
-0.0712126
-0.727631
0.73424
0.0788611
-0.0859855
-0.857462
0.864586
0.093825
-0.100855
-1.00757
1.0146
0.108272
-0.11459
-1.18373
1.19005
0.120809
-0.125636
-1.38889
1.39372
0.129752
-0.132225
-1.62761
1.63008
0.133289
-0.133191
-1.59406
1.59396
0.132388
-0.130885
-1.31113
1.30963
0.128932
-0.126664
-1.0877
1.08543
0.124663
-0.122012
-0.908129
0.905478
0.118032
-0.110582
-0.74486
0.737411
0.100036
-0.0843783
-0.551896
0.536239
0.0675897
-0.048812
-0.330893
0.312116
0.033392
-0.019689
-0.151907
0.138204
0.0106067
-0.00416934
-0.0493215
0.0428841
0.00104049
-0.00505326
0.00401277
-0.049679
0.0543595
-0.0046805
0.0264706
-0.0385395
-0.288294
0.300363
0.0507643
-0.0607587
-0.456389
0.466384
0.07014
-0.0780183
-0.610801
0.618679
0.0864918
-0.094648
-0.741623
0.749779
0.103688
-0.11183
-0.871669
0.879811
0.120536
-0.12812
-1.02152
1.02911
0.135878
-0.142266
-1.1961
1.20249
0.1483
-0.152736
-1.39812
1.40255
0.156191
-0.157879
-1.63196
1.63365
0.158089
-0.157122
-1.5929
1.59194
0.155643
-0.153553
-1.30712
1.30503
0.151152
-0.148372
-1.08301
1.08023
0.145929
-0.142521
-0.901648
0.89824
0.136988
-0.126603
-0.729449
0.719064
0.112479
-0.0924666
-0.519499
0.499487
0.0720513
-0.050374
-0.292316
0.270639
0.0334543
-0.0191192
-0.124227
0.109892
0.0100156
-0.00382203
-0.0365449
0.0303513
0.000918525
-0.00301779
0.00209927
-0.0586196
0.0666143
-0.00799462
0.0406624
-0.057322
-0.313609
0.330269
0.073594
-0.086691
-0.481038
0.494135
0.0981997
-0.107695
-0.629669
0.639164
0.117933
-0.127529
-0.758418
0.768014
0.137664
-0.146348
-0.887675
0.896359
0.155278
-0.162783
-1.03631
1.04382
0.170198
-0.176027
-1.2083
1.21413
0.181236
-0.184697
-1.40625
1.40971
0.186938
-0.187372
-1.63449
1.63493
0.186344
-0.184221
-1.58984
1.58772
0.18187
-0.179073
-1.30164
1.29885
0.176128
-0.172764
-1.0772
1.07384
0.169709
-0.165063
-0.893018
0.888373
0.157103
-0.142411
-0.707724
0.693033
0.123403
-0.0981695
-0.478077
0.452843
0.0739328
-0.0496974
-0.24829
0.224054
0.031853
-0.0175531
-0.0957096
0.0814096
0.00888029
-0.00325521
-0.0244399
0.0188148
0.000733021
-0.00123562
0.000502599
-0.0740344
0.0785717
-0.00453726
0.0312977
-0.0459325
-0.349859
0.364494
0.0605802
-0.0726574
-0.513234
0.525311
0.0837721
-0.0944289
-0.652222
0.662878
0.10666
-0.117879
-0.776911
0.788129
0.13042
-0.141684
-0.904058
0.915322
0.153857
-0.164864
-1.05045
1.06145
0.176647
-0.187045
-1.21895
1.22935
0.197824
-0.206916
-1.41211
1.4212
0.215765
-0.222514
-1.63425
1.641
0.227218
-0.230619
-1.58425
1.58765
0.232677
-0.234225
-1.29438
1.29593
0.235025
-0.234566
-1.06983
1.06937
0.233107
-0.227388
-0.880714
0.874995
0.2146
-0.19039
-0.676741
0.652531
0.15946
-0.120967
-0.426053
0.387561
0.0869273
-0.0553259
-0.199919
0.168318
0.0338257
-0.0177637
-0.0680122
0.0519502
0.00853081
-0.00290743
-0.0136865
0.00806316
0.000574625
0.000243045
-0.000817669
-0.0864574
0.0846057
0.00185163
0.00900463
-0.0187479
-0.382129
0.391872
0.0300551
-0.0389548
-0.542415
0.551314
0.0481013
-0.0571568
-0.676273
0.685329
0.0683454
-0.0788578
-0.798789
0.809302
0.0902229
-0.100686
-0.926039
0.936503
0.111987
-0.121876
-1.07224
1.08213
0.132691
-0.141906
-1.23964
1.24885
0.151505
-0.159442
-1.43012
1.43806
0.166892
-0.172552
-1.64728
1.65294
0.176351
-0.178923
-1.59035
1.59292
0.180114
-0.181008
-1.29566
1.29656
0.181387
-0.180526
-1.06727
1.06641
0.177531
-0.169124
-0.863746
0.855339
0.154069
-0.129722
-0.623712
0.599366
0.102489
-0.0723989
-0.34672
0.31663
0.048868
-0.0293672
-0.138123
0.118622
0.0170833
-0.0085304
-0.0372823
0.0287293
0.00386549
-0.00121925
-0.00277396
0.000127715
0.00019262
0.00157255
-0.00176517
-0.0883117
0.0853407
0.00297104
-0.000333542
-0.00549124
-0.40442
0.410244
0.013152
-0.0198988
-0.564465
0.571212
0.0269327
-0.0347638
-0.69691
0.704742
0.0445403
-0.0537193
-0.818719
0.827898
0.0638737
-0.0730837
-0.946173
0.955383
0.0828191
-0.0917704
-1.09191
1.10086
0.101392
-0.109745
-1.25773
1.26608
0.118069
-0.124893
-1.44551
1.45234
0.131502
-0.136292
-1.65824
1.66303
0.13931
-0.141176
-1.59493
1.5968
0.141805
-0.14225
-1.29581
1.29625
0.14197
-0.140662
-1.0627
1.0614
0.136645
-0.126802
-0.842763
0.83292
0.111393
-0.0888774
-0.571606
0.549091
0.0664123
-0.0442275
-0.284766
0.262581
0.0288007
-0.0169609
-0.0996443
0.0878045
0.0097722
-0.00488055
-0.0204393
0.0155476
0.00222194
-0.000704758
0.00267785
-0.00419504
0.000114806
0.00215309
-0.0022679
-0.0871748
0.0843087
0.00286613
-0.00449376
0.00139338
-0.419651
0.422751
0.00372332
-0.00894423
-0.581278
0.586499
0.0149807
-0.0215975
-0.713992
0.720609
0.0300155
-0.0379408
-0.836295
0.84422
0.0466871
-0.0546597
-0.964036
0.972009
0.0635027
-0.0712276
-1.10939
1.11711
0.0797532
-0.0867331
-1.27407
1.28105
0.0940991
-0.100116
-1.45904
1.46506
0.105733
-0.10954
-1.66763
1.67144
0.112104
-0.113641
-1.59822
1.59976
0.113985
-0.113659
-1.29539
1.29507
0.112949
-0.11113
-1.05667
1.05485
0.106401
-0.0964159
-0.819274
0.809289
0.0817385
-0.0624592
-0.523933
0.504654
0.0449829
-0.0293153
-0.239384
0.223716
0.0190005
-0.0113155
-0.075445
0.06776
0.00663201
-0.00340063
-0.0102849
0.00705349
0.00160651
-0.000536352
0.00597606
-0.00704621
9.67175e-05
0.00250852
-0.00260523
-0.0856983
0.0830905
0.00260782
-0.00612672
0.00474913
-0.430074
0.431451
-0.000846385
-0.00313823
-0.594888
0.598873
0.00803044
-0.0139873
-0.728419
0.734376
0.0210739
-0.0280342
-0.851327
0.858287
0.0356299
-0.0425826
-0.979504
0.986456
0.0502212
-0.0571001
-1.1247
1.13157
0.0644185
-0.0707748
-1.2879
1.29425
0.0771956
-0.082407
-1.47075
1.47596
0.0872098
-0.0903674
-1.67524
1.67839
0.0924252
-0.093364
-1.60068
1.60162
0.0934216
-0.092889
-1.29394
1.29341
0.0917732
-0.0893152
-1.04967
1.04721
0.0844897
-0.0747849
-0.795688
0.785983
0.0617804
-0.0457674
-0.483195
0.467182
0.0324338
-0.0211676
-0.206733
0.195467
0.0138658
-0.00847433
-0.0592588
0.0538673
0.00513266
-0.0027282
-0.00331239
0.000907925
0.00134241
-0.000470503
0.00836805
-0.00923995
9.81205e-05
0.00278372
-0.00288185
-0.0841953
0.0818932
0.00230209
-0.00645966
0.00573306
-0.437336
0.438063
-0.00331984
6.18917e-05
-0.605483
0.608741
0.00461408
-0.00968986
-0.740656
0.745732
0.015752
-0.0217622
-0.864341
0.870352
0.0284607
-0.0346266
-0.993016
0.999182
0.0415325
-0.0475315
-1.13814
1.14414
0.0540335
-0.0596681
-1.30029
1.30592
0.0652663
-0.0697568
-1.48089
1.48538
0.0737933
-0.076713
-1.68154
1.68446
0.0782454
-0.0789613
-1.60216
1.60288
0.07874
-0.0779072
-1.29217
1.29134
0.0766775
-0.0736662
-1.04199
1.03898
0.0687361
-0.0597886
-0.773016
0.764069
0.0484099
-0.0352531
-0.449179
0.436022
0.0249552
-0.0165159
-0.182786
0.174347
0.0111241
-0.00702518
-0.0475449
0.043446
0.00437703
-0.00239867
0.00199193
-0.00397028
0.00121108
-0.000443612
0.0102916
-0.0110591
9.86779e-05
0.00301349
-0.00311217
-0.0829003
0.0810269
0.0018734
-0.0059666
0.00575074
-0.442658
0.442874
-0.00380333
0.00134914
-0.61464
0.617094
0.00291338
-0.00745228
-0.751189
0.755728
0.0130893
-0.0182126
-0.875879
0.881002
0.0240211
-0.0294074
-1.00527
1.01065
0.0357892
-0.0411069
-1.15012
1.15543
0.0467595
-0.051857
-1.31131
1.31641
0.0571861
-0.0610767
-1.48983
1.49372
0.0646347
-0.066941
-1.68698
1.68929
0.0683623
-0.0685015
-1.60339
1.60353
0.0682457
-0.0673724
-1.28998
1.2891
0.0657795
-0.0626995
-1.03391
1.03083
0.0578052
-0.0494004
-0.75178
0.743375
0.0396841
-0.0287417
-0.420808
0.409866
0.0205606
-0.0140581
-0.164516
0.158013
0.00976769
-0.00639063
-0.0384152
0.0350382
0.00410945
-0.00231864
0.00641748
-0.00820829
0.00119801
-0.000449713
0.0119685
-0.0127168
0.000105802
0.00321
-0.00331581
-0.0820042
0.0804703
0.00153395
-0.00520177
0.00529638
-0.446668
0.446573
-0.00360886
0.00137776
-0.622457
0.624688
0.0025276
-0.00653728
-0.760493
0.764503
0.0112912
-0.0160914
-0.886009
0.89081
0.0213222
-0.0266619
-1.01577
1.02111
0.0320355
-0.0368952
-1.16078
1.16564
0.0423447
-0.0468395
-1.32129
1.32578
0.051214
-0.0550464
-1.49743
1.50126
0.0581831
-0.0601759
-1.69162
1.69361
0.0611417
-0.0612611
-1.60383
1.60395
0.0608298
-0.0597533
-1.2876
1.28653
0.0580647
-0.0548047
-1.02599
1.02273
0.0500285
-0.0424967
-0.732086
0.724554
0.0338152
-0.0247576
-0.396986
0.387929
0.0181877
-0.0128868
-0.150116
0.144815
0.00930691
-0.00636865
-0.030755
0.0278168
0.00423756
-0.00247477
0.0104381
-0.0122009
0.0013167
-0.00050573
0.0135854
-0.0143964
0.000124356
0.00339977
-0.00352412
-0.0815733
0.0802298
0.00134344
-0.00415375
0.00414822
-0.449965
0.44997
-0.00279334
0.000688258
-0.629415
0.63152
0.00280841
-0.00658038
-0.768949
0.772721
0.0110041
-0.0152385
-0.895341
0.899575
0.0204103
-0.0247304
-1.02578
1.0301
0.0298265
-0.0342443
-1.17058
1.175
0.0392339
-0.0435597
-1.33014
1.33447
0.0477681
-0.050868
-1.50471
1.50781
0.0537096
-0.0554276
-1.69541
1.69712
0.0563641
-0.0560949
-1.60385
1.60358
0.0555296
-0.0542846
-1.28531
1.28407
0.0525151
-0.0491131
-1.01799
1.01459
0.0445648
-0.0375522
-0.714138
0.707125
0.0299951
-0.022364
-0.377017
0.369386
0.016917
-0.0125863
-0.138247
0.133917
0.00948378
-0.00678144
-0.0239585
0.0212562
0.00469093
-0.00285141
0.0143736
-0.0162131
0.0015678
-0.000631816
0.0153006
-0.0162366
0.00015984
0.00360719
-0.00376703
-0.0813614
0.080345
0.00101642
-0.00317699
0.00280076
-0.453056
0.453432
-0.00173231
-0.000336916
-0.635379
0.637448
0.00339379
-0.0069317
-0.776621
0.780158
0.0110418
-0.015273
-0.903617
0.907848
0.0196321
-0.0239431
-1.03456
1.03887
0.0287681
-0.0327163
-1.17977
1.18371
0.0374815
-0.041411
-1.33846
1.34239
0.0452111
-0.0483571
-1.51118
1.51433
0.0510398
-0.0523296
-1.69871
1.7
0.0527448
-0.0524539
-1.60333
1.60304
0.051824
-0.0503343
-1.28246
1.28097
0.0483226
-0.0450575
-1.01011
1.00685
0.0402651
-0.0339634
-0.697508
0.691206
0.0273494
-0.0208593
-0.360148
0.353658
0.0163748
-0.0126648
-0.128276
0.124566
0.00991099
-0.00734921
-0.0177026
0.0151408
0.00525452
-0.00331195
0.0184212
-0.0203638
0.00189851
-0.000798087
0.0172609
-0.0183613
0.000214648
0.00387248
-0.00408712
-0.0815206
0.0806768
0.000843781
-0.00233062
0.00208269
-0.456124
0.456371
-0.000572391
-0.00124846
-0.641206
0.643027
0.00439558
-0.00770984
-0.783559
0.786873
0.0115412
-0.0152355
-0.911689
0.915383
0.0195756
-0.0233989
-1.04311
1.04693
0.0279599
-0.0321397
-1.18804
1.19222
0.0362295
-0.0401725
-1.34623
1.35018
0.0439791
-0.0467275
-1.51718
1.51993
0.0491344
-0.0504944
-1.7013
1.70266
0.0505759
-0.0501
-1.60238
1.60191
0.0489826
-0.047295
-1.27927
1.27758
0.0451941
-0.0416633
-1.00234
0.998807
0.0370853
-0.0311411
-0.682341
0.676396
0.0252991
-0.0197181
-0.345603
0.340022
0.0158864
-0.0126992
-0.119715
0.116528
0.0102034
-0.0077788
-0.0118163
0.00939169
0.00571733
-0.00372538
0.022597
-0.024589
0.00220408
-0.000963127
0.0195113
-0.0207523
0.00027102
0.00423226
-0.00450328
-0.0819578
0.0812871
0.000670759
-0.0013339
0.000967664
-0.459162
0.459528
0.000316699
-0.00237781
-0.646446
0.648507
0.00538704
-0.00846489
-0.79006
0.793138
0.0122827
-0.015722
-0.919009
0.922448
0.0197693
-0.023579
-1.05118
1.05499
0.0278622
-0.0318038
-1.19615
1.20009
0.0358585
-0.0395355
-1.3539
1.35758
0.043132
-0.0462054
-1.52279
1.52586
0.0484369
-0.0493674
-1.70368
1.70461
0.049331
-0.0482803
-1.601
1.59995
0.0469716
-0.0450885
-1.27555
1.27366
0.042457
-0.0386998
-0.994299
0.990542
0.0341222
-0.0283848
-0.668285
0.662548
0.023244
-0.0184006
-0.333167
0.328323
0.0151346
-0.0123115
-0.112243
0.10942
0.0100774
-0.00783082
-0.00629388
0.00404726
0.0058892
-0.00394297
0.0267975
-0.0287437
0.00239809
-0.00108821
0.0219805
-0.0232903
0.000327039
0.00468762
-0.00501466
-0.082623
0.0820735
0.000549583
-0.000511064
7.54789e-05
-0.46223
0.462666