/*--------------------------------*- C++ -*----------------------------------*\
  =========                 |
  \\      /  F ield         | OpenFOAM: The Open Source CFD Toolbox
   \\    /   O peration     | Website:  https://openfoam.org
    \\  /    A nd           | Version:  6
     \\/     M anipulation  |
\*---------------------------------------------------------------------------*/
FoamFile
{
    version     2.0;
    format      ascii;
    class       volScalarField;
    location    "62";
    object      p;
}
// * * * * * * * * * * * * * * * * * * * * * * * * * * * * * * * * * * * * * //

dimensions      [0 2 -2 0 0 0 0];

internalField   nonuniform List<scalar> 
2200
(
0.787197
0.771977
0.7545
0.738212
0.723769
0.711758
0.702148
0.694702
0.689363
0.686461
0.686941
0.690696
0.696672
0.704584
0.714518
0.726755
0.741369
0.7578
0.775343
0.790576
0.730869
0.726947
0.721947
0.716374
0.710098
0.703505
0.697128
0.691518
0.687187
0.684802
0.685287
0.688558
0.693556
0.699672
0.706427
0.713294
0.719745
0.725404
0.730443
0.734399
0.689335
0.689023
0.689973
0.691291
0.691746
0.690725
0.688481
0.685672
0.683111
0.681655
0.682181
0.684588
0.687899
0.691272
0.693933
0.69524
0.694966
0.693763
0.692952
0.693319
0.664193
0.665223
0.667632
0.670958
0.6742
0.676517
0.677607
0.677641
0.677164
0.6769
0.677509
0.678854
0.680178
0.680807
0.680205
0.678245
0.67527
0.672096
0.669775
0.668789
0.649297
0.650756
0.653517
0.657059
0.660676
0.663967
0.666625
0.668515
0.669734
0.670598
0.671313
0.671734
0.67152
0.670396
0.668321
0.665466
0.662169
0.658834
0.65618
0.654756
0.64164
0.642952
0.645243
0.648125
0.651151
0.654124
0.65695
0.659509
0.661674
0.663321
0.664181
0.664068
0.663119
0.661482
0.659356
0.656921
0.654291
0.651666
0.649507
0.648229
0.637857
0.638768
0.640309
0.642328
0.644508
0.646738
0.649076
0.651501
0.653854
0.655819
0.656858
0.656765
0.655909
0.654638
0.653148
0.651539
0.649804
0.648083
0.646697
0.64582
0.635037
0.635621
0.636581
0.637903
0.639385
0.64095
0.642673
0.644596
0.646653
0.648605
0.649882
0.650228
0.649972
0.649436
0.648769
0.64799
0.64706
0.64609
0.645303
0.644749
0.631746
0.632132
0.632766
0.633682
0.634727
0.635844
0.63713
0.638667
0.64043
0.642303
0.643876
0.64482
0.64527
0.645436
0.645439
0.645265
0.644884
0.644393
0.64396
0.643602
0.627592
0.627867
0.628353
0.629113
0.630034
0.631043
0.632195
0.633577
0.635228
0.637144
0.639074
0.64061
0.641665
0.64235
0.642776
0.642938
0.642822
0.642565
0.642307
0.642062
0.622706
0.622911
0.623344
0.62409
0.625068
0.626183
0.627433
0.628905
0.630693
0.632859
0.635201
0.637245
0.638763
0.639831
0.640514
0.640884
0.640892
0.640767
0.640605
0.640428
0.617429
0.617594
0.618006
0.61875
0.619774
0.621025
0.622518
0.624313
0.626489
0.629139
0.632001
0.634508
0.636384
0.637703
0.638571
0.639089
0.639272
0.639276
0.639183
0.639045
0.611704
0.611847
0.612268
0.613064
0.614202
0.615662
0.617489
0.619753
0.622503
0.625805
0.629331
0.632308
0.634515
0.636074
0.637136
0.637807
0.638165
0.638287
0.638247
0.63813
0.605544
0.605654
0.606074
0.606963
0.608313
0.610072
0.612291
0.615069
0.618483
0.622522
0.626762
0.630365
0.633024
0.634942
0.6363
0.637185
0.637704
0.637933
0.63794
0.637837
0.598922
0.599024
0.599456
0.600399
0.601912
0.603947
0.606535
0.60981
0.613901
0.618835
0.624034
0.628403
0.631724
0.634225
0.636016
0.637215
0.637948
0.638313
0.638376
0.63828
0.591624
0.591658
0.592087
0.593108
0.594801
0.597152
0.600189
0.604052
0.608902
0.61479
0.621079
0.626534
0.630779
0.633991
0.636322
0.637923
0.638958
0.639504
0.639625
0.639533
0.583321
0.583364
0.583828
0.58496
0.586877
0.58961
0.593196
0.597736
0.603417
0.610406
0.618017
0.624873
0.630243
0.63432
0.637316
0.639444
0.640841
0.64157
0.641746
0.641654
0.573852
0.573922
0.574426
0.575719
0.577887
0.581005
0.585177
0.590503
0.597203
0.605605
0.615016
0.623564
0.63025
0.63533
0.639122
0.641852
0.643639
0.644566
0.644799
0.644704
0.562845
0.56292
0.563501
0.564969
0.567469
0.571064
0.575911
0.582244
0.590367
0.600669
0.612287
0.62274
0.63092
0.637184
0.6419
0.645297
0.647499
0.648618
0.648902
0.648797
0.549761
0.549844
0.550549
0.552298
0.555295
0.55959
0.565383
0.573087
0.583134
0.595855
0.609962
0.6225
0.632369
0.639983
0.645717
0.649836
0.652492
0.65382
0.654139
0.654013
0.53422
0.534283
0.53509
0.537208
0.540925
0.546304
0.55355
0.563131
0.57562
0.591277
0.608295
0.623268
0.635022
0.64399
0.650694
0.655525
0.658633
0.66014
0.660484
0.660334
0.515152
0.515256
0.516304
0.519016
0.523772
0.530649
0.539893
0.55198
0.567464
0.586637
0.607228
0.625098
0.638813
0.649167
0.6569
0.662465
0.665988
0.667641
0.667981
0.667799
0.491799
0.491909
0.493206
0.496613
0.502683
0.511562
0.523566
0.539155
0.558713
0.58236
0.607084
0.627885
0.643566
0.655341
0.664158
0.670516
0.674456
0.676205
0.676509
0.676291
0.461814
0.462103
0.464041
0.46873
0.476871
0.488657
0.504504
0.524824
0.549694
0.57873
0.607935
0.631715
0.649336
0.662557
0.672536
0.679608
0.683854
0.685644
0.685887
0.685627
0.422523
0.423151
0.426236
0.433342
0.445193
0.4616
0.482749
0.508974
0.540112
0.575316
0.609433
0.636404
0.656094
0.670845
0.681827
0.68949
0.693935
0.695658
0.695806
0.695511
0.371031
0.372136
0.37762
0.389208
0.407114
0.430376
0.458686
0.492225
0.530577
0.572474
0.611794
0.642117
0.663953
0.680077
0.692026
0.700102
0.70441
0.705813
0.705806
0.705525
0.305437
0.309001
0.320301
0.339578
0.36587
0.397755
0.434517
0.476148
0.522023
0.570765
0.61574
0.650151
0.674703
0.692683
0.705522
0.713747
0.717805
0.718933
0.718895
0.718684
0.232726
0.241848
0.261577
0.290017
0.325334
0.366186
0.411903
0.461936
0.515465
0.571352
0.622429
0.661134
0.688619
0.708503
0.722282
0.730706
0.734512
0.735453
0.735416
0.735276
0.165672
0.178974
0.205492
0.242575
0.287053
0.337024
0.391747
0.450218
0.511286
0.573524
0.629297
0.671564
0.702099
0.723965
0.738882
0.74766
0.751378
0.752066
0.751997
0.751924
0.111293
0.125809
0.15638
0.200115
0.252471
0.310717
0.373676
0.439851
0.507528
0.575064
0.635075
0.681144
0.714435
0.738355
0.754763
0.76424
0.768178
0.769027
0.769069
0.769022
0.0665244
0.0815608
0.11505
0.163686
0.222176
0.287166
0.357023
0.429649
0.503004
0.575691
0.64049
0.690069
0.725978
0.75229
0.770237
0.780572
0.785005
0.786112
0.786158
0.786099
0.0283927
0.0441701
0.08005
0.132487
0.195738
0.266052
0.341449
0.419559
0.49845
0.576728
0.64601
0.698419
0.73706
0.765427
0.78482
0.79626
0.801127
0.802337
0.802366
0.802291
-0.00493334
0.0115543
0.0496209
0.10531
0.172375
0.246943
0.327044
0.410311
0.494682
0.578097
0.65094
0.706578
0.747702
0.777637
0.798237
0.810335
0.815582
0.816965
0.817029
0.816954
-0.0345537
-0.0175216
0.0224196
0.0809602
0.151349
0.229701
0.314054
0.40191
0.490874
0.578552
0.65541
0.714495
0.757376
0.788627
0.810185
0.822854
0.828397
0.829935
0.830052
0.829977
-0.0615849
-0.0440605
-0.00238393
0.0588341
0.132282
0.214014
0.301947
0.393458
0.486186
0.578106
0.659476
0.721287
0.76581
0.798348
0.820646
0.833772
0.839669
0.841376
0.841532
0.841441
-0.0865826
-0.068656
-0.0254118
0.0382872
0.114529
0.199207
0.290047
0.384442
0.480527
0.576826
0.662359
0.72679
0.773173
0.806655
0.829631
0.84331
0.849505
0.851338
0.851503
0.851389
-0.110128
-0.0917562
-0.0470783
0.0188574
0.0975562
0.184739
0.278003
0.374918
0.474209
0.574635
0.664048
0.731392
0.779494
0.813887
0.837502
0.851643
0.858125
0.859995
0.860132
0.859993
-0.13246
-0.113657
-0.0677376
0.000155384
0.0810198
0.17041
0.26586
0.365151
0.467392
0.571486
0.665017
0.735605
0.785243
0.820437
0.844609
0.859087
0.865608
0.867443
0.867498
0.867317
-0.153814
-0.134625
-0.0876132
-0.0179657
0.0648604
0.156263
0.253722
0.355158
0.459985
0.567525
0.665448
0.739413
0.790874
0.827021
0.851436
0.865791
0.872148
0.873808
0.873791
0.873634
-0.174359
-0.154839
-0.106861
-0.0356046
0.0490668
0.142352
0.241603
0.344834
0.451894
0.562809
0.665164
0.742956
0.796883
0.834056
0.858428
0.872223
0.877984
0.87938
0.879336
0.879196
-0.194344
-0.17452
-0.125593
-0.0527866
0.0336393
0.12865
0.229423
0.334087
0.443018
0.557049
0.663819
0.746224
0.803517
0.842106
0.866186
0.878802
0.883616
0.884482
0.884331
0.884208
-0.213889
-0.193757
-0.143897
-0.0695935
0.0185059
0.115086
0.217121
0.322893
0.433318
0.55005
0.661318
0.748983
0.810566
0.851348
0.875315
0.886362
0.88941
0.889213
0.888877
0.888786
-0.233131
-0.212657
-0.16184
-0.0860673
0.0036253
0.101604
0.204632
0.311243
0.422855
0.54186
0.657437
0.750639
0.81741
0.861732
0.886498
0.895779
0.896159
0.893944
0.892985
0.892917
-0.251967
-0.231185
-0.17944
-0.102256
-0.0110522
0.0881657
0.191947
0.299183
0.411793
0.532741
0.652076
0.750665
0.823252
0.872607
0.899956
0.908475
0.90532
0.899549
0.896778
0.896673
-0.270382
-0.249321
-0.196669
-0.118135
-0.0255206
0.074757
0.179059
0.286778
0.400338
0.523022
0.64535
0.748678
0.827288
0.88308
0.915334
0.9254
0.92016
0.908765
0.900929
0.899128
-0.288232
-0.266931
-0.213422
-0.133659
-0.039788
0.0613446
0.165986
0.274147
0.388704
0.512936
0.637456
0.744656
0.829018
0.891849
0.931073
0.946218
0.94195
0.925348
0.902522
0.879004
-0.305464
-0.283949
-0.229633
-0.148831
-0.0540234
0.0476416
0.152453
0.261073
0.376704
0.502356
0.628499
0.738576
0.827913
0.89781
0.945621
0.967998
0.968115
0.954182
0.956309
0.971777
-0.321959
-0.30033
-0.245354
-0.163788
-0.0684753
0.0332976
0.138083
0.247179
0.363921
0.49085
0.618074
0.729986
0.823022
0.898631
0.953995
0.983446
0.985321
0.964644
0.931664
0.930906
-0.337723
-0.316122
-0.260599
-0.178452
-0.0829938
0.0184884
0.123032
0.23258
0.350422
0.478432
0.606135
0.718559
0.813091
0.891411
0.948985
0.976195
0.961723
0.913684
0.864331
0.848386
-0.352652
-0.331335
-0.275392
-0.192824
-0.0975432
0.00329663
0.107396
0.217321
0.336147
0.464942
0.59242
0.703855
0.797187
0.871966
0.920989
0.924873
0.895564
0.826699
0.759959
0.741428
-0.366707
-0.346028
-0.289754
-0.206941
-0.112151
-0.0122154
0.0912952
0.201469
0.321025
0.45016
0.576683
0.685283
0.773101
0.838145
0.865842
0.85108
0.791783
0.700352
0.620915
0.602736
-0.380262
-0.360347
-0.304037
-0.221377
-0.127371
-0.0283904
0.0745735
0.184879
0.304776
0.433656
0.558389
0.662326
0.740894
0.789688
0.787349
0.756261
0.650703
0.543202
0.455157
0.438706
-0.394256
-0.37483
-0.318984
-0.237073
-0.14401
-0.0457648
0.056915
0.167265
0.287025
0.414962
0.537091
0.63406
0.700005
0.725298
0.701894
0.623073
0.495009
0.368028
0.261304
0.242094
-0.409245
-0.389886
-0.334924
-0.254312
-0.162231
-0.0643931
0.0383109
0.148599
0.267674
0.393876
0.512385
0.601155
0.650456
0.648292
0.610652
0.484328
0.327792
0.161614
0.0246403
-0.00181024
-0.425469
-0.406053
-0.351981
-0.272789
-0.181639
-0.0840039
0.0188544
0.128885
0.246727
0.370365
0.484002
0.564348
0.594449
0.563389
0.490773
0.339254
0.159773
-0.0467152
-0.24359
-0.323807
-0.443104
-0.423544
-0.370248
-0.292336
-0.201998
-0.104494
-0.00152633
0.108011
0.224118
0.344413
0.452247
0.523247
0.533305
0.472936
0.349465
0.190147
0.00584183
-0.255264
-0.663022
-0.985282
-0.462391
-0.442659
-0.389832
-0.312818
-0.223092
-0.125723
-0.0227923
0.0860325
0.200057
0.316362
0.417812
0.478751
0.469301
0.389176
0.208427
0.0276554
-0.136357
-0.374191
-0.863306
-1.62887
-0.483317
-0.463289
-0.410765
-0.334405
-0.245151
-0.147974
-0.0452733
0.0626168
0.174246
0.285938
0.380786
0.430994
0.402868
0.310711
0.0881597
-0.107222
-0.24548
-0.372968
-0.547891
-0.826224
-0.505971
-0.485682
-0.433295
-0.357441
-0.268652
-0.171855
-0.0696874
0.0369195
0.145746
0.252108
0.340312
0.379214
0.335738
0.228881
-0.00358701
-0.186085
-0.295761
-0.352642
-0.392526
-0.423744
-0.530233
-0.509607
-0.457417
-0.382082
-0.29382
-0.1976
-0.0962845
0.00870151
0.114434
0.21528
0.2962
0.323899
0.272063
0.147857
-0.0713018
-0.227582
-0.312831
-0.33491
-0.361471
-0.366257
-0.556082
-0.535311
-0.483172
-0.408286
-0.320647
-0.225256
-0.12514
-0.0221228
0.0802976
0.175585
0.248456
0.265077
0.213518
0.0677817
-0.124451
-0.246681
-0.302987
-0.324432
-0.330657
-0.331088
-0.583094
-0.562204
-0.510291
-0.435963
-0.349088
-0.254766
-0.156219
-0.0555693
0.0432962
0.133402
0.198186
0.203834
0.156774
-0.0103594
-0.169372
-0.258905
-0.285856
-0.310081
-0.311851
-0.311704
-0.611272
-0.590289
-0.538538
-0.464801
-0.378865
-0.285921
-0.189331
-0.0914748
0.00348158
0.0891481
0.146884
0.142742
0.0939942
-0.0734934
-0.207094
-0.276838
-0.289744
-0.296662
-0.298701
-0.299114
-0.639793
-0.618796
-0.567373
-0.494438
-0.409678
-0.318392
-0.224148
-0.129553
-0.038813
0.0430045
0.0952599
0.0828091
0.0263329
-0.123272
-0.230337
-0.283944
-0.301337
-0.291898
-0.288566
-0.287967
-0.668157
-0.647255
-0.596244
-0.524285
-0.440991
-0.351747
-0.260226
-0.169247
-0.0830344
-0.0050698
0.0432346
0.0260954
-0.0435438
-0.161135
-0.237023
-0.270132
-0.290536
-0.282379
-0.276524
-0.274521
-0.694976
-0.674486
-0.624312
-0.553698
-0.472251
-0.385374
-0.296912
-0.209913
-0.128344
-0.0547596
-0.00956872
-0.025995
-0.0995511
-0.189549
-0.240661
-0.252503
-0.264981
-0.266971
-0.265168
-0.263289
-0.719291
-0.699578
-0.650687
-0.581804
-0.502643
-0.418599
-0.33353
-0.250665
-0.17386
-0.105358
-0.0632655
-0.0730212
-0.139496
-0.207092
-0.243068
-0.250615
-0.253018
-0.257578
-0.259012
-0.258404
-0.739241
-0.720828
-0.674133
-0.607746
-0.531371
-0.450516
-0.369124
-0.290513
-0.218387
-0.154979
-0.116044
-0.119996
-0.171225
-0.215712
-0.240552
-0.254147
-0.255048
-0.257107
-0.258674
-0.258682
-0.753729
-0.737229
-0.693543
-0.630307
-0.557236
-0.480083
-0.40275
-0.328477
-0.260683
-0.201639
-0.165618
-0.168551
-0.204471
-0.228148
-0.240305
-0.253476
-0.257811
-0.260949
-0.262889
-0.26356
-0.761262
-0.747307
-0.707653
-0.648307
-0.579065
-0.50607
-0.433182
-0.363412
-0.29976
-0.243944
-0.208834
-0.217808
-0.248612
-0.25918
-0.257705
-0.267222
-0.274212
-0.279465
-0.282116
-0.283764
-0.761761
-0.750663
-0.715162
-0.659939
-0.595151
-0.527107
-0.459249
-0.394182
-0.334609
-0.281022
-0.241414
-0.262134
-0.302304
-0.325009
-0.327515
-0.338436
-0.338133
-0.335179
-0.3329
-0.333518
-0.754765
-0.74522
-0.713818
-0.663661
-0.604415
-0.542184
-0.479985
-0.41968
-0.363638
-0.310796
-0.266671
-0.292297
-0.353447
-0.414877
-0.456648
-0.478204
-0.471732
-0.449086
-0.429337
-0.419997
-0.734993
-0.726345
-0.700552
-0.657833
-0.606038
-0.550558
-0.49429
-0.438597
-0.385638
-0.332069
-0.282938
-0.299669
-0.370813
-0.469825
-0.549859
-0.57905
-0.572822
-0.548103
-0.520084
-0.499393
-0.69645
-0.690131
-0.674909
-0.643754
-0.601431
-0.552915
-0.501671
-0.449906
-0.400102
-0.347777
-0.28483
-0.268004
-0.3101
-0.395647
-0.481103
-0.51459
-0.512376
-0.488976
-0.463022
-0.444393
-0.653519
-0.651835
-0.645576
-0.624582
-0.591319
-0.549366
-0.501841
-0.452437
-0.403733
-0.352074
-0.271882
-0.191711
-0.148635
-0.149592
-0.176581
-0.172213
-0.136035
-0.0933696
-0.0599846
-0.041234
-0.623918
-0.623755
-0.617992
-0.604741
-0.579216
-0.542471
-0.497219
-0.447296
-0.394088
-0.335028
-0.239841
-0.0937029
0.0641788
0.219597
0.333663
0.43816
0.526093
0.590695
0.628141
0.644943
-0.597574
-0.597078
-0.595039
-0.588801
-0.568838
-0.536045
-0.491963
-0.437915
-0.375968
-0.300363
-0.193752
-0.0198823
0.20539
0.449037
0.674599
0.854835
0.98637
1.07255
1.11617
1.13059
-0.580263
-0.580276
-0.580548
-0.574729
-0.560314
-0.531678
-0.48707
-0.427004
-0.354982
-0.264887
-0.146549
0.0328356
0.273198
0.542208
0.813206
1.04169
1.20817
1.3114
1.36297
1.38153
-0.567166
-0.567169
-0.566869
-0.563759
-0.554484
-0.528628
-0.484391
-0.420272
-0.337843
-0.23625
-0.112841
0.0514873
0.274106
0.534781
0.809893
1.05616
1.24505
1.36398
1.42308
1.44385
-0.559308
-0.558955
-0.558352
-0.558353
-0.552589
-0.529759
-0.485802
-0.418414
-0.328382
-0.219854
-0.100811
0.0388727
0.232159
0.460994
0.705811
0.933355
1.1151
1.23253
1.28996
1.30823
-0.55849
-0.557389
-0.555846
-0.555129
-0.550571
-0.533999
-0.492695
-0.422608
-0.326834
-0.215893
-0.106882
0.00771463
0.169038
0.360811
0.559074
0.741349
0.888573
0.984872
1.03047
1.04343
-0.568689
-0.566749
-0.564199
-0.56288
-0.559313
-0.547151
-0.505662
-0.430297
-0.329754
-0.220343
-0.124529
-0.0330419
0.0962103
0.250992
0.403834
0.537137
0.642415
0.71165
0.744015
0.752635
-0.591499
-0.590061
-0.589383
-0.591161
-0.591727
-0.574327
-0.520713
-0.43483
-0.330805
-0.228927
-0.14876
-0.0768638
0.0229582
0.143157
0.2589
0.354952
0.428141
0.475848
0.497087
0.501174
-0.61534
-0.616343
-0.62075
-0.627194
-0.627539
-0.598759
-0.528847
-0.430176
-0.326644
-0.238303
-0.174561
-0.119364
-0.0435945
0.0487688
0.137173
0.208607
0.262185
0.297445
0.314351
0.318833
-0.618072
-0.622023
-0.631016
-0.639222
-0.637062
-0.601025
-0.517036
-0.412063
-0.316812
-0.245236
-0.19661
-0.1551
-0.0973219
-0.0243636
0.0457437
0.10181
0.144511
0.174136
0.189724
0.193162
-0.574726
-0.579417
-0.589281
-0.598229
-0.5935
-0.552063
-0.467728
-0.374229
-0.298256
-0.24567
-0.209347
-0.176179
-0.131587
-0.073243
-0.0157496
0.0301648
0.0652564
0.0898615
0.102924
0.105635
-0.462656
-0.468006
-0.478351
-0.487471
-0.482935
-0.446568
-0.382319
-0.316898
-0.266887
-0.230582
-0.20426
-0.179072
-0.144636
-0.0977153
-0.0502072
-0.0130732
0.0139603
0.0316934
0.0391811
0.0401769
-0.307978
-0.312339
-0.319821
-0.327158
-0.32815
-0.311856
-0.280642
-0.24922
-0.221883
-0.195449
-0.17698
-0.163449
-0.139769
-0.102862
-0.0647269
-0.0371305
-0.0191758
-0.00951902
-0.00733163
-0.00838904
-0.154111
-0.156798
-0.161939
-0.168278
-0.174697
-0.179318
-0.180126
-0.177429
-0.165937
-0.147049
-0.135898
-0.136179
-0.124665
-0.0970054
-0.0675219
-0.0496127
-0.041002
-0.0382545
-0.0396344
-0.0417192
-0.0366318
-0.0381099
-0.0419482
-0.0483887
-0.0584771
-0.0743457
-0.0932401
-0.107541
-0.107098
-0.0963129
-0.0930059
-0.106583
-0.108899
-0.0847562
-0.06159
-0.0544464
-0.0549947
-0.0568497
-0.0598171
-0.0620277
0.0325041
0.0316442
0.0282982
0.0211259
0.010122
-0.00661135
-0.029906
-0.0511173
-0.0586563
-0.0558926
-0.0574765
-0.0755689
-0.0964073
-0.0688438
-0.0487325
-0.0559488
-0.0619225
-0.0656392
-0.0689128
-0.0709455
0.0631904
0.0626956
0.0599736
0.0526661
0.0412272
0.0260872
0.0052406
-0.0164914
-0.029296
-0.0330235
-0.0368429
-0.0497237
-0.072317
-0.0557207
-0.0477917
-0.0566165
-0.0622876
-0.0659948
-0.0691144
-0.070878
0.0701637
0.0698706
0.0679373
0.0615477
0.0501762
0.0358922
0.0184572
-0.000367075
-0.0147582
-0.022637
-0.0289374
-0.0367776
-0.0508863
-0.045667
-0.0474774
-0.0536077
-0.0574291
-0.0605119
-0.0631912
-0.0645562
0.0652598
0.0650488
0.0637642
0.0590326
0.0491701
0.0356204
0.0202178
0.00472511
-0.00767719
-0.0164061
-0.0249628
-0.0304544
-0.0377937
-0.0385079
-0.0433383
-0.047305
-0.0496431
-0.0522153
-0.0541689
-0.055097
0.0560796
0.0559203
0.0550369
0.0519744
0.0449
0.033366
0.0190708
0.00495166
-0.00478211
-0.0102283
-0.0182871
-0.0239127
-0.027637
-0.0326752
-0.0370453
-0.0390225
-0.0412284
-0.0435707
-0.0447843
-0.0454038
0.0462935
0.0462196
0.0455969
0.0436136
0.0393414
0.0315679
0.0199599
0.00650712
-0.00269404
-0.00411324
-0.00784686
-0.0168548
-0.0225649
-0.0260248
-0.0279942
-0.0300231
-0.0328809
-0.0349252
-0.0357916
-0.0363294
0.0369812
0.0369747
0.036595
0.0352063
0.0326725
0.0287505
0.021914
0.0113893
0.00150672
-0.000367062
0.00128243
-0.0100417
-0.0186104
-0.0190924
-0.0197096
-0.0220985
-0.0249207
-0.0265287
-0.0272388
-0.0277254
0.028609
0.0286161
0.0284468
0.0275105
0.0257618
0.0240198
0.0214121
0.0154933
0.00650957
-0.000307556
0.00514561
-0.00450218
-0.012747
-0.0117637
-0.0127412
-0.015366
-0.0180069
-0.0192596
-0.0198141
-0.0202148
0.0212021
0.0211985
0.0211479
0.0205676
0.0191592
0.0178447
0.0169703
0.0146154
0.00802013
-0.00189616
0.00523716
-0.00150634
-0.00765175
-0.00537232
-0.00683521
-0.00994732
-0.012573
-0.0135328
-0.0138549
-0.0140937
0.0146385
0.0146253
0.0146387
0.0142919
0.0130992
0.0115904
0.010574
0.00939914
0.00500215
-0.00372341
0.00398024
-0.000639136
-0.00495201
-0.00293615
-0.00367073
-0.00674389
-0.00860654
-0.00889148
-0.00887539
-0.00898648
0.00850038
0.00848004
0.00851159
0.0084378
0.00767905
0.00621348
0.00499045
0.00426341
0.00177945
-0.00441514
0.00328781
-0.000419498
-0.00478813
-0.00198229
-0.00223774
-0.00569045
-0.0057422
-0.00476894
-0.00450166
-0.00470911
0.00284652
0.00284133
0.00286592
0.00299589
0.00284571
0.00197486
0.001314
0.00127647
0.000970886
-0.00308963
0.00258274
0.00100722
-0.00530425
0.000380232
-0.000267066
-0.00444714
-0.00377909
-0.00267516
-0.00244114
-0.00260073
-0.553972
-0.0976609
0.180169
0.388499
0.555354
0.69078
0.799985
0.891744
0.965498
1.00061
0.109358
0.320799
0.436776
0.556417
0.671378
0.767034
0.837062
0.87613
0.873011
0.872197
0.376749
0.509157
0.602979
0.686168
0.760367
0.821464
0.864773
0.886326
0.891982
0.927759
0.562455
0.650732
0.725284
0.78674
0.836965
0.8773
0.908288
0.931951
0.951523
0.984361
0.710945
0.768394
0.824579
0.870036
0.906931
0.937322
0.963419
0.987642
1.01223
1.03737
0.832
0.872189
0.912492
0.946969
0.976196
1.00167
1.02511
1.04797
1.07047
1.08925
0.936837
0.964262
0.994144
1.02112
1.04536
1.06763
1.08873
1.10902
1.12817
1.14402
1.02966
1.04869
1.07208
1.09468
1.11555
1.13494
1.1533
1.1709
1.18752
1.2011
1.11423
1.13143
1.15074
1.16901
1.1863
1.20284
1.21881
1.23415
1.24865
1.26089
1.19757
1.21112
1.22772
1.24371
1.25878
1.27302
1.2866
1.29971
1.31227
1.32275
1.28448
1.293
1.30599
1.31995
1.33327
1.34562
1.35711
1.36793
1.37827
1.38731
1.37259
1.3782
1.38809
1.39988
1.4114
1.42176
1.4309
1.4392
1.44717
1.45426
1.46429
1.46785
1.47478
1.48299
1.49121
1.49902
1.50618
1.51263
1.51877
1.52458
1.56017
1.56046
1.56233
1.5652
1.56884
1.57348
1.57929
1.58605
1.593
1.59906
1.66203
1.65327
1.6438
1.63657
1.63319
1.63467
1.64135
1.65263
1.66695
1.68041
1.76867
1.73159
1.70073
1.68171
1.67278
1.67239
1.68055
1.69953
1.73084
1.76972
)
;

boundaryField
{
    wall-4
    {
        type            zeroGradient;
    }
    pressure-outlet-7
    {
        type            fixedValue;
        value           uniform 0;
    }
    velocity-inlet-6
    {
        type            zeroGradient;
    }
    velocity-inlet-5
    {
        type            zeroGradient;
    }
    frontAndBackPlanes
    {
        type            empty;
    }
}


// ************************************************************************* //
