/*--------------------------------*- C++ -*----------------------------------*\
  =========                 |
  \\      /  F ield         | OpenFOAM: The Open Source CFD Toolbox
   \\    /   O peration     | Website:  https://openfoam.org
    \\  /    A nd           | Version:  6
     \\/     M anipulation  |
\*---------------------------------------------------------------------------*/
FoamFile
{
    version     2.0;
    format      ascii;
    class       volScalarField;
    location    "71";
    object      p;
}
// * * * * * * * * * * * * * * * * * * * * * * * * * * * * * * * * * * * * * //

dimensions      [0 2 -2 0 0 0 0];

internalField   nonuniform List<scalar> 
8800
(
0.872042
0.822726
0.78476
0.756688
0.736524
0.721932
0.711327
0.703776
0.698877
0.696789
0.69814
0.702467
0.709249
0.718664
0.731396
0.748713
0.772588
0.805684
0.848621
0.901135
0.706538
0.712882
0.722031
0.725578
0.722966
0.716873
0.709926
0.703675
0.698861
0.695974
0.695723
0.698334
0.702962
0.709082
0.716175
0.723205
0.728081
0.727956
0.72128
0.712381
0.680058
0.686293
0.690791
0.694659
0.697603
0.698546
0.69745
0.695317
0.693321
0.692462
0.693474
0.695911
0.698786
0.701049
0.701565
0.699773
0.696405
0.692391
0.68761
0.683894
0.675764
0.678529
0.681133
0.683287
0.68502
0.686582
0.687676
0.688016
0.687886
0.687964
0.688748
0.689873
0.690603
0.690445
0.689465
0.688107
0.686435
0.684132
0.681721
0.680155
0.670717
0.672141
0.673978
0.676055
0.677762
0.679048
0.680136
0.681103
0.681894
0.682608
0.683296
0.683738
0.683749
0.683378
0.682705
0.681586
0.679928
0.678033
0.676679
0.675877
0.665737
0.66664
0.667884
0.669506
0.671193
0.672718
0.673991
0.675098
0.676143
0.677136
0.677896
0.678267
0.678264
0.677887
0.677079
0.675888
0.674524
0.673258
0.672436
0.671912
0.660843
0.661498
0.662456
0.663769
0.665209
0.666717
0.66819
0.669538
0.670778
0.671956
0.672879
0.673353
0.673357
0.672911
0.672125
0.67118
0.670186
0.669281
0.668701
0.668317
0.65603
0.656535
0.657317
0.658452
0.659745
0.661152
0.662648
0.664171
0.665659
0.667084
0.668209
0.668796
0.668859
0.668528
0.667959
0.667268
0.66653
0.665866
0.66544
0.66514
0.651245
0.651646
0.652303
0.653318
0.65454
0.655894
0.657384
0.659005
0.66071
0.662421
0.663802
0.664585
0.664844
0.664745
0.664419
0.663951
0.663419
0.662951
0.662636
0.662393
0.646406
0.646734
0.647303
0.64824
0.649417
0.650761
0.652289
0.654014
0.655919
0.657934
0.659652
0.660745
0.661295
0.661466
0.661383
0.661144
0.660812
0.660507
0.660277
0.660073
0.641426
0.641698
0.642208
0.6431
0.644262
0.645637
0.647245
0.649117
0.65126
0.65363
0.655771
0.657265
0.658168
0.658644
0.658825
0.658821
0.65869
0.658529
0.658367
0.65819
0.636215
0.636443
0.636916
0.637793
0.638981
0.640428
0.64216
0.644236
0.646689
0.649498
0.652156
0.654129
0.655443
0.65627
0.656747
0.656985
0.657061
0.657034
0.656928
0.656771
0.630678
0.630873
0.631327
0.632219
0.633474
0.635038
0.63695
0.639298
0.642147
0.645504
0.648787
0.651332
0.653127
0.654355
0.655167
0.655673
0.655967
0.656066
0.656007
0.655863
0.624711
0.624879
0.625332
0.626269
0.62763
0.629364
0.631523
0.634227
0.637573
0.641604
0.645646
0.648875
0.651238
0.652932
0.654127
0.654951
0.655464
0.655686
0.655667
0.65553
0.618192
0.618339
0.618806
0.619815
0.621329
0.623292
0.625777
0.628934
0.632902
0.63776
0.642719
0.646765
0.649803
0.652043
0.653679
0.65485
0.655616
0.655967
0.655985
0.655852
0.610979
0.611102
0.611599
0.612711
0.614428
0.616693
0.619595
0.623323
0.62806
0.633928
0.639995
0.645017
0.648852
0.651738
0.653892
0.655467
0.656515
0.656999
0.657052
0.656918
0.60288
0.602991
0.60353
0.604776
0.606757
0.609406
0.612836
0.617278
0.622967
0.630065
0.637464
0.64365
0.648425
0.652071
0.654845
0.656893
0.658259
0.658882
0.658966
0.658828
0.593656
0.59376
0.594353
0.595777
0.598102
0.601238
0.605331
0.610665
0.617529
0.626125
0.635121
0.642687
0.648575
0.653113
0.656621
0.659221
0.660945
0.661716
0.661828
0.661682
0.582993
0.583081
0.583764
0.585425
0.588187
0.591946
0.59688
0.603334
0.611651
0.622072
0.632976
0.642166
0.649358
0.654948
0.659295
0.662548
0.664674
0.665596
0.665732
0.665574
0.570506
0.570581
0.571367
0.573341
0.576664
0.581224
0.587233
0.595104
0.60523
0.617871
0.631045
0.642129
0.650829
0.657641
0.662969
0.666968
0.669529
0.6706
0.670751
0.670579
0.555628
0.555696
0.556628
0.559016
0.563077
0.568689
0.576096
0.585781
0.59817
0.613509
0.62936
0.642632
0.653049
0.661257
0.667712
0.672542
0.675561
0.676768
0.676923
0.676732
0.537566
0.537626
0.538775
0.54175
0.546822
0.553854
0.56312
0.575159
0.590395
0.608999
0.627969
0.643726
0.65608
0.665855
0.673549
0.679296
0.682767
0.684078
0.684221
0.68401
0.515141
0.515207
0.516701
0.520557
0.527083
0.536111
0.547925
0.563076
0.5819
0.604417
0.626965
0.645484
0.659968
0.671463
0.680498
0.687194
0.691065
0.692424
0.692534
0.692304
0.486541
0.486637
0.488734
0.494013
0.502795
0.514766
0.530182
0.549482
0.572799
0.599933
0.626487
0.647994
0.664746
0.678057
0.688518
0.696119
0.700269
0.701593
0.701648
0.701401
0.44867
0.448894
0.45222
0.460128
0.472713
0.489226
0.509791
0.534553
0.563365
0.595797
0.626711
0.651365
0.670456
0.685604
0.697498
0.705845
0.710075
0.711259
0.711239
0.710981
0.3956
0.39671
0.403329
0.416679
0.435914
0.459451
0.48714
0.51879
0.554044
0.592336
0.62784
0.655694
0.677105
0.694033
0.70721
0.716038
0.720064
0.721004
0.720903
0.720644
0.318764
0.326299
0.341489
0.364832
0.394
0.426937
0.463291
0.502814
0.545169
0.589798
0.630205
0.661452
0.685363
0.704179
0.718464
0.727458
0.731112
0.731795
0.731639
0.731413
0.237079
0.25353
0.278192
0.312276
0.3519
0.394393
0.439445
0.486989
0.53678
0.588328
0.634408
0.669706
0.696564
0.717474
0.732804
0.741493
0.744446
0.744844
0.744709
0.744562
0.167083
0.187189
0.219762
0.263092
0.312019
0.363512
0.417033
0.472458
0.529518
0.587697
0.639066
0.678026
0.707416
0.729974
0.745746
0.75376
0.756124
0.756428
0.756351
0.756245
0.109797
0.13215
0.170159
0.220117
0.276326
0.335363
0.396375
0.459049
0.522933
0.587392
0.643734
0.686101
0.717737
0.741593
0.757622
0.765302
0.767447
0.767739
0.76771
0.76763
0.0623484
0.0860334
0.127977
0.183113
0.245152
0.310408
0.377819
0.446912
0.517044
0.587407
0.648492
0.694091
0.72789
0.753054
0.769564
0.777116
0.779137
0.779448
0.779457
0.779399
0.022103
0.046577
0.0914231
0.150771
0.217727
0.288297
0.361263
0.436069
0.511909
0.587789
0.653439
0.702218
0.738187
0.764723
0.781783
0.789483
0.79155
0.791837
0.791872
0.79183
-0.0129876
0.0120068
0.0591213
0.121964
0.193132
0.268352
0.346269
0.426248
0.507356
0.58845
0.65851
0.710433
0.748557
0.776502
0.794317
0.802385
0.804526
0.804813
0.804845
0.804819
-0.0444334
-0.0190183
0.0299627
0.0957855
0.170614
0.249929
0.332306
0.417049
0.503123
0.589229
0.663538
0.718545
0.758817
0.788224
0.80689
0.815333
0.817629
0.817918
0.817938
0.817921
-0.073268
-0.0474667
0.00310648
0.0715227
0.149572
0.232531
0.31896
0.40812
0.498897
0.589814
0.668309
0.726338
0.768749
0.799574
0.819056
0.827902
0.830365
0.830676
0.830678
0.830666
-0.100311
-0.0740955
-0.0220975
0.0486554
0.12956
0.215786
0.305901
0.399146
0.494362
0.58998
0.672628
0.733653
0.778128
0.810334
0.830572
0.839807
0.842422
0.84275
0.842718
0.8427
-0.125969
-0.0993544
-0.0460427
0.0267893
0.110244
0.199405
0.292871
0.38991
0.489354
0.589574
0.676359
0.740395
0.786898
0.820373
0.841274
0.850792
0.853507
0.853828
0.853765
0.853733
-0.150699
-0.123604
-0.0690765
0.00563941
0.0913801
0.183185
0.279717
0.380279
0.483729
0.58842
0.679399
0.7465
0.795018
0.829668
0.851082
0.860736
0.863483
0.863782
0.863681
0.863634
-0.174644
-0.147063
-0.0913885
-0.0149718
0.0728181
0.167012
0.266337
0.370143
0.477363
0.586435
0.681678
0.751972
0.802524
0.838226
0.85996
0.869637
0.87233
0.872594
0.872462
0.8724
-0.197945
-0.169844
-0.113107
-0.0351447
0.0544831
0.150818
0.252666
0.359444
0.470205
0.583539
0.683117
0.756799
0.809503
0.846201
0.868069
0.87756
0.880134
0.880345
0.88019
0.880114
-0.220705
-0.192073
-0.134292
-0.0549267
0.0363273
0.134579
0.238695
0.348184
0.462229
0.579652
0.683646
0.760986
0.816076
0.853763
0.875556
0.88466
0.886999
0.887129
0.886954
0.886868
-0.242992
-0.213753
-0.154962
-0.0743308
0.018365
0.118307
0.224454
0.336378
0.453428
0.574728
0.683185
0.764496
0.822348
0.86115
0.882676
0.891106
0.89304
0.893049
0.892857
0.892766
-0.264672
-0.234858
-0.175103
-0.0933509
0.000618861
0.102055
0.209982
0.324075
0.443838
0.568766
0.681647
0.767255
0.82837
0.868633
0.889781
0.897149
0.898379
0.898187
0.897994
0.897913
-0.28573
-0.255363
-0.194715
-0.111955
-0.0168669
0.0858671
0.195353
0.311336
0.433521
0.561759
0.678959
0.769142
0.834103
0.876438
0.897417
0.903359
0.903334
0.902669
0.902493
0.90248
-0.306221
-0.275244
-0.21378
-0.130119
-0.0340409
0.0698176
0.180647
0.298254
0.422549
0.553747
0.675042
0.770014
0.839388
0.884606
0.90616
0.910774
0.908799
0.906894
0.906538
0.90686
-0.326001
-0.294476
-0.232245
-0.147786
-0.0508526
0.0539855
0.165955
0.284927
0.411023
0.544806
0.669842
0.769689
0.843967
0.892859
0.916215
0.920655
0.916846
0.912475
0.910179
0.909324
-0.345163
-0.313071
-0.250122
-0.164989
-0.0673387
0.0383303
0.151225
0.271297
0.398874
0.534871
0.663201
0.767913
0.847599
0.900739
0.927142
0.93352
0.929773
0.922379
0.913065
0.913836
-0.363627
-0.331094
-0.267545
-0.181923
-0.0837908
0.0225265
0.136047
0.256891
0.385572
0.523335
0.654493
0.76396
0.849901
0.907749
0.937603
0.947619
0.944566
0.932696
0.913761
0.912549
-0.381261
-0.348513
-0.284353
-0.198405
-0.099947
0.00687216
0.120622
0.242021
0.371394
0.510414
0.643719
0.757078
0.849944
0.91265
0.943553
0.954179
0.952425
0.925985
0.86848
0.843784
-0.397951
-0.366225
-0.300151
-0.213997
-0.115027
-0.00815158
0.105232
0.226963
0.356619
0.496271
0.630924
0.746628
0.84656
0.914358
0.940023
0.945492
0.929774
0.877006
0.814818
0.776994
-0.440555
-0.383524
-0.314653
-0.229607
-0.129779
-0.0235115
0.0900189
0.211591
0.341039
0.480545
0.615679
0.731919
0.835753
0.909189
0.924168
0.908246
0.857911
0.791131
0.721623
0.683382
-0.41564
-0.397423
-0.33674
-0.250972
-0.152623
-0.0465952
0.0662487
0.187181
0.315756
0.453961
0.587938
0.702564
0.798331
0.879263
0.860295
0.748465
0.65574
0.591352
0.526457
0.552331
-0.446264
-0.41483
-0.353302
-0.26803
-0.170053
-0.0641788
0.048839
0.169115
0.29668
0.43316
0.564641
0.675922
0.760511
0.806267
0.751874
0.609577
0.498524
0.423679
0.340772
0.384997
-0.469992
-0.43616
-0.37291
-0.28759
-0.189667
-0.0838122
0.0290784
0.148555
0.274757
0.408857
0.536532
0.641819
0.714999
0.72242
0.613014
0.455556
0.324754
0.230975
0.134803
0.165156
-0.493076
-0.458198
-0.393583
-0.307608
-0.209616
-0.10389
0.00847122
0.12697
0.251559
0.382834
0.505608
0.602463
0.658911
0.632878
0.472126
0.293267
0.132027
-0.00287423
-0.12792
-0.116077
-0.515886
-0.480622
-0.4151
-0.328536
-0.230419
-0.124924
-0.0132402
0.104117
0.226782
0.354771
0.471743
0.560266
0.595719
0.523587
0.333447
0.13484
-0.053211
-0.20795
-0.413829
-0.493159
-0.53911
-0.503897
-0.43784
-0.350858
-0.252593
-0.147293
-0.0362315
0.0799332
0.200523
0.324912
0.435564
0.514705
0.523924
0.400489
0.206927
-0.00346504
-0.196461
-0.358846
-0.483047
-0.601057
-0.563822
-0.52851
-0.46216
-0.374958
-0.27668
-0.171681
-0.0613489
0.0534281
0.171569
0.291752
0.395624
0.4618
0.443322
0.2836
0.0885118
-0.115783
-0.292015
-0.389931
-0.416299
-0.42975
-0.590148
-0.554752
-0.488191
-0.40093
-0.302828
-0.198313
-0.0889712
0.0240847
0.139297
0.25449
0.351116
0.39939
0.361439
0.171107
-0.0219358
-0.20595
-0.339014
-0.377247
-0.386264
-0.386617
-0.618367
-0.582748
-0.515974
-0.428761
-0.330988
-0.227201
-0.119127
-0.00815909
0.103628
0.21309
0.301404
0.333232
0.263287
0.0682134
-0.118533
-0.27841
-0.353189
-0.367423
-0.368563
-0.368459
-0.648488
-0.61253
-0.545527
-0.458451
-0.361178
-0.258338
-0.151831
-0.0433289
0.064567
0.167655
0.24632
0.26336
0.154734
-0.0251277
-0.201713
-0.328652
-0.357706
-0.358408
-0.358955
-0.358528
-0.680255
-0.64393
-0.57675
-0.489919
-0.393317
-0.291677
-0.187062
-0.0814088
0.0221608
0.118314
0.187132
0.185022
0.0583986
-0.111036
-0.267462
-0.33991
-0.354922
-0.353335
-0.353199
-0.352812
-0.713106
-0.676598
-0.609376
-0.522933
-0.427214
-0.327058
-0.224673
-0.122281
-0.0233743
0.0654652
0.124281
0.105823
-0.0304362
-0.186487
-0.310787
-0.348365
-0.348144
-0.349084
-0.349165
-0.348931
-0.746593
-0.709996
-0.642913
-0.557069
-0.462509
-0.364153
-0.264373
-0.165667
-0.0717503
0.0100264
0.0564542
0.0310719
-0.11143
-0.246115
-0.335638
-0.34421
-0.345869
-0.346391
-0.346248
-0.346149
-0.779753
-0.743232
-0.676614
-0.591675
-0.498638
-0.402472
-0.305689
-0.211072
-0.122549
-0.0471508
-0.0115737
-0.0436534
-0.180994
-0.292174
-0.342437
-0.35263
-0.346984
-0.344393
-0.343522
-0.343346
-0.810718
-0.775002
-0.709429
-0.625845
-0.534803
-0.441292
-0.347938
-0.257757
-0.174991
-0.1057
-0.0746725
-0.121272
-0.237916
-0.333044
-0.356167
-0.353983
-0.347607
-0.342713
-0.341243
-0.340723
-0.838414
-0.803773
-0.739932
-0.658356
-0.569919
-0.479653
-0.390227
-0.304794
-0.227831
-0.16507
-0.136002
-0.188621
-0.280679
-0.356687
-0.381692
-0.366078
-0.354387
-0.34942
-0.347156
-0.345968
-0.860088
-0.827411
-0.766335
-0.687654
-0.602641
-0.516343
-0.431435
-0.351096
-0.279811
-0.223371
-0.197151
-0.240559
-0.307188
-0.353383
-0.358854
-0.366733
-0.371494
-0.369849
-0.366922
-0.365801
-0.873619
-0.843739
-0.786523
-0.711955
-0.631411
-0.549937
-0.470235
-0.395384
-0.329839
-0.277805
-0.252959
-0.283443
-0.321755
-0.347419
-0.351764
-0.36451
-0.371153
-0.372129
-0.372041
-0.372506
-0.876267
-0.850319
-0.798341
-0.729365
-0.65456
-0.578932
-0.505159
-0.436178
-0.376596
-0.327903
-0.299549
-0.323872
-0.34045
-0.351203
-0.35876
-0.364475
-0.366805
-0.367758
-0.368599
-0.368863
-0.86573
-0.844627
-0.799637
-0.738094
-0.670557
-0.601953
-0.534774
-0.471994
-0.418165
-0.375209
-0.333448
-0.362573
-0.366405
-0.380852
-0.377029
-0.373926
-0.372925
-0.372377
-0.371974
-0.371792
-0.839396
-0.823888
-0.788428
-0.736876
-0.678306
-0.617975
-0.558046
-0.501593
-0.452851
-0.417308
-0.371583
-0.382733
-0.387504
-0.409252
-0.403186
-0.385728
-0.373639
-0.372859
-0.373896
-0.374128
-0.800706
-0.790793
-0.765774
-0.725907
-0.677807
-0.626615
-0.574593
-0.524113
-0.480202
-0.449665
-0.420071
-0.396833
-0.37106
-0.377823
-0.392666
-0.387718
-0.386537
-0.387016
-0.388187
-0.388357
-0.756762
-0.751133
-0.736676
-0.708251
-0.67114
-0.628788
-0.584314
-0.53967
-0.499156
-0.469205
-0.44251
-0.41484
-0.373783
-0.320759
-0.313178
-0.355121
-0.404879
-0.426101
-0.428963
-0.428803
-0.717749
-0.714355
-0.70751
-0.689392
-0.661237
-0.626526
-0.588126
-0.548295
-0.50921
-0.477904
-0.451776
-0.451586
-0.469431
-0.517532
-0.534652
-0.558828
-0.549361
-0.520164
-0.499162
-0.501929
-0.689771
-0.687787
-0.684269
-0.673455
-0.652035
-0.62268
-0.588507
-0.550303
-0.511776
-0.475553
-0.45185
-0.460068
-0.536634
-0.66778
-0.811369
-0.858611
-0.844207
-0.781971
-0.695942
-0.663262
-0.669141
-0.668422
-0.667202
-0.661827
-0.646075
-0.620313
-0.587039
-0.549232
-0.507224
-0.464691
-0.438288
-0.418096
-0.398247
-0.418264
-0.459759
-0.478365
-0.43468
-0.399248
-0.344285
-0.318815
-0.657334
-0.657055
-0.656372
-0.653795
-0.643002
-0.619298
-0.585335
-0.545628
-0.497899
-0.448395
-0.404379
-0.343954
-0.229558
-0.084609
0.0501878
0.189356
0.250005
0.26178
0.257349
0.254736
-0.649607
-0.649485
-0.649142
-0.648419
-0.641678
-0.619784
-0.584724
-0.539846
-0.487705
-0.423321
-0.357097
-0.275807
-0.0969908
0.14132
0.380376
0.540088
0.579263
0.582926
0.575365
0.571254
-0.644452
-0.6444
-0.644225
-0.644235
-0.640383
-0.621939
-0.585511
-0.535407
-0.475918
-0.398037
-0.314757
-0.20099
-0.0180007
0.197051
0.385713
0.516027
0.596636
0.674554
0.75305
0.790692
-0.64083
-0.640798
-0.640628
-0.640271
-0.639333
-0.625813
-0.587894
-0.531977
-0.46296
-0.382339
-0.280971
-0.169644
0.0485328
0.307097
0.575392
0.815195
0.996387
1.13858
1.23283
1.26925
-0.637763
-0.638525
-0.640383
-0.642921
-0.64421
-0.633485
-0.591649
-0.530116
-0.461028
-0.37325
-0.266186
-0.159721
0.0416521
0.309829
0.642831
0.958723
1.21569
1.3893
1.47058
1.49296
-0.631328
-0.633341
-0.638432
-0.647415
-0.655655
-0.639152
-0.591233
-0.534512
-0.467916
-0.373882
-0.267634
-0.167657
-0.0111326
0.265438
0.569417
0.840895
1.06694
1.21124
1.27141
1.28599
-0.636555
-0.638183
-0.638878
-0.632649
-0.624167
-0.609331
-0.581017
-0.546404
-0.482527
-0.384687
-0.283005
-0.190558
-0.0754517
0.14352
0.406027
0.622033
0.792922
0.890912
0.929398
0.937186
-0.670521
-0.670605
-0.660962
-0.620403
-0.562708
-0.551185
-0.578053
-0.567991
-0.502878
-0.401661
-0.304067
-0.218563
-0.132302
0.0309823
0.230537
0.391323
0.513805
0.579311
0.604047
0.607474
-0.720335
-0.717604
-0.71188
-0.688091
-0.657814
-0.639517
-0.660269
-0.623122
-0.529828
-0.420786
-0.329231
-0.254586
-0.185972
-0.0647515
0.0786785
0.193646
0.277645
0.319758
0.334145
0.336232
-0.825483
-0.832657
-0.869715
-0.917178
-0.933687
-0.906699
-0.845218
-0.717854
-0.567665
-0.444314
-0.35445
-0.282449
-0.237557
-0.144959
-0.0431127
0.0327535
0.0848318
0.11028
0.120094
0.120084
-0.975803
-0.998015
-1.0522
-1.10357
-1.12271
-1.08997
-0.986841
-0.78821
-0.595795
-0.466983
-0.364252
-0.306489
-0.266836
-0.206516
-0.140724
-0.0941627
-0.0678783
-0.0558568
-0.0515167
-0.0516778
-1.03196
-1.05381
-1.09132
-1.12631
-1.14094
-1.11113
-0.986874
-0.762606
-0.589767
-0.461673
-0.363884
-0.31623
-0.284907
-0.24052
-0.202114
-0.185219
-0.178086
-0.177551
-0.176632
-0.176358
-0.916834
-0.93466
-0.966473
-0.999458
-1.01598
-0.983288
-0.849654
-0.668678
-0.532409
-0.411855
-0.351562
-0.305181
-0.282092
-0.253705
-0.23721
-0.234652
-0.238621
-0.244125
-0.244357
-0.244055
-0.637094
-0.655303
-0.689646
-0.730436
-0.756524
-0.732071
-0.635286
-0.528661
-0.420972
-0.352903
-0.314868
-0.286883
-0.272675
-0.249195
-0.244143
-0.246965
-0.262648
-0.263293
-0.261087
-0.259457
-0.281108
-0.294185
-0.321492
-0.35895
-0.39077
-0.396966
-0.378736
-0.344246
-0.307211
-0.283099
-0.263048
-0.263703
-0.265862
-0.235812
-0.218766
-0.214267
-0.213289
-0.210559
-0.208601
-0.208615
0.00810885
0.00114491
-0.016723
-0.0487984
-0.0915227
-0.132624
-0.165894
-0.189247
-0.202437
-0.203484
-0.208069
-0.222946
-0.232027
-0.201649
-0.175542
-0.161148
-0.147905
-0.142892
-0.140877
-0.141677
0.159601
0.155803
0.143443
0.116782
0.0732891
0.0164469
-0.0391882
-0.0835418
-0.113536
-0.133007
-0.146406
-0.155016
-0.157141
-0.137962
-0.119184
-0.105465
-0.0926068
-0.0863055
-0.0858087
-0.0870811
0.203436
0.200913
0.191902
0.170908
0.134985
0.0876745
0.0358372
-0.0138879
-0.050996
-0.0729787
-0.0839018
-0.0797647
-0.0761411
-0.0716154
-0.0670644
-0.0616989
-0.0551709
-0.0517426
-0.051766
-0.0531986
0.194406
0.192791
0.186577
0.171769
0.145496
0.108812
0.067472
0.0272354
-0.00502296
-0.0248965
-0.0277704
-0.014883
-0.00464256
-0.0152415
-0.0270197
-0.0333652
-0.0358676
-0.0373612
-0.0388433
-0.0399193
0.165891
0.164991
0.161023
0.151229
0.13351
0.108034
0.0773298
0.0463138
0.0207819
0.00758992
0.0113854
0.0309939
0.0388591
0.0202538
-0.00117326
-0.0165516
-0.0263029
-0.0327053
-0.0353605
-0.035987
0.132117
0.131724
0.129373
0.123237
0.111744
0.0947072
0.0736798
0.0519167
0.033849
0.0266249
0.0339066
0.0521567
0.0576758
0.036937
0.0131305
-0.00480989
-0.0180595
-0.0267548
-0.0298164
-0.03015
0.0982547
0.0981533
0.0969129
0.0932741
0.0861637
0.0753572
0.0615546
0.0476232
0.0362901
0.0337285
0.0423105
0.0563328
0.0561269
0.0386172
0.0185064
0.00379769
-0.00785374
-0.0151523
-0.0175454
-0.017777
0.0661939
0.0661932
0.0656509
0.0636836
0.0595994
0.0532479
0.0449115
0.0364609
0.0300584
0.0305757
0.038338
0.0490392
0.0468396
0.0329493
0.0190494
0.00965239
0.00267568
-0.00191313
-0.00349411
-0.00390179
0.0357706
0.0359031
0.0357628
0.0349125
0.0329687
0.0298258
0.02566
0.0215149
0.0185129
0.0198344
0.0267337
0.0342065
0.0327024
0.0217885
0.0136442
0.00876791
0.0061466
0.00422151
0.00351628
0.00312395
0.00656874
0.00664273
0.00665315
0.00688778
0.00696868
0.00657473
0.00572355
0.00477592
0.00393075
0.00344138
0.0041422
0.00448413
0.00615686
0.0100034
0.00544735
0.00405211
0.000294139
-0.000309625
0.000736705
0.000756188
0.0152188
0.203947
0.37728
0.524066
0.641668
0.734619
0.811967
0.874827
0.890819
0.887286
0.305027
0.426308
0.539947
0.638613
0.721655
0.790181
0.844209
0.880743
0.900313
0.916955
0.501514
0.582385
0.662388
0.732566
0.792461
0.842071
0.881139
0.910938
0.933355
0.952602
0.647018
0.704275
0.76224
0.8141
0.858852
0.896977
0.92892
0.955736
0.975979
0.994876
0.76387
0.806796
0.849724
0.889933
0.925731
0.957401
0.98513
1.00861
1.02653
1.04458
0.860822
0.896511
0.931465
0.965129
0.996183
1.02426
1.04906
1.06988
1.08563
1.10311
0.948943
0.98093
1.01314
1.04424
1.0732
1.09952
1.1226
1.14151
1.15541
1.17242
1.03581
1.06837
1.10075
1.13193
1.16067
1.18643
1.20854
1.22604
1.23841
1.25494
1.13016
1.1666
1.20133
1.23376
1.26291
1.28824
1.30934
1.32561
1.33722
1.35336
1.2432
1.28387
1.32086
1.35376
1.38223
1.4062
1.42581
1.44108
1.45297
1.46904
1.38456
1.42565
1.46092
1.49048
1.51566
1.53727
1.55576
1.57124
1.58435
1.6003
1.55612
1.58843
1.61534
1.63767
1.65775
1.67647
1.6942
1.71097
1.72588
1.74161
1.74241
1.75967
1.77678
1.79346
1.80956
1.82429
1.83819
1.85267
1.86791
1.88521
1.92581
1.93576
1.94895
1.95994
1.96934
1.979
1.98961
1.99979
2.00908
2.03474
2.14368
2.13798
2.12503
2.11077
2.10448
2.11019
2.12833
2.15685
2.19061
2.22694
2.4465
2.31055
2.23104
2.18851
2.17119
2.17517
2.2026
2.26046
2.36813
2.54653
0.775736
0.769434
0.761704
0.750589
0.737019
0.72437
0.713975
0.705965
0.700252
0.696929
0.696591
0.699439
0.704685
0.712052
0.721609
0.733444
0.74701
0.759942
0.768933
0.776475
0.684802
0.690722
0.698794
0.704927
0.707996
0.707485
0.704401
0.700409
0.696825
0.69455
0.694432
0.696703
0.700471
0.704929
0.709039
0.711291
0.710222
0.705589
0.698537
0.690704
0.678047
0.680419
0.683687
0.686461
0.688912
0.691103
0.692285
0.692142
0.691211
0.690416
0.69065
0.692085
0.693884
0.695127
0.695062
0.693604
0.691452
0.689094
0.686115
0.683098
0.673251
0.674339
0.676257
0.678596
0.680469
0.68187
0.683091
0.684089
0.684697
0.68509
0.685668
0.686436
0.686924
0.686823
0.686207
0.685295
0.683972
0.682008
0.679904
0.678428
0.668218
0.668851
0.669981
0.67174
0.673586
0.675183
0.676438
0.677508
0.678501
0.679417
0.680232
0.680783
0.680947
0.680761
0.680241
0.679279
0.677861
0.676258
0.674925
0.674124
0.663281
0.66372
0.66451
0.665816
0.667341
0.668908
0.670392
0.671696
0.672863
0.673972
0.674959
0.6756
0.675811
0.675601
0.674957
0.673974
0.672832
0.671697
0.670799
0.670266
0.658431
0.658758
0.659372
0.660444
0.661744
0.663149
0.664634
0.666118
0.667525
0.668854
0.670042
0.670834
0.671101
0.670888
0.670316
0.669553
0.668722
0.667879
0.667223
0.666833
0.653642
0.653896
0.654391
0.655305
0.656483
0.657798
0.659229
0.660769
0.662367
0.663959
0.665405
0.666381
0.666772
0.666714
0.666363
0.665842
0.665228
0.664615
0.66414
0.663842
0.648841
0.649043
0.649455
0.650261
0.651362
0.652632
0.654051
0.655639
0.657383
0.659229
0.66098
0.662231
0.662871
0.663067
0.662965
0.662676
0.662274
0.661856
0.661523
0.661289
0.643943
0.644106
0.64446
0.645193
0.64625
0.647504
0.648957
0.650634
0.652543
0.654657
0.65677
0.658399
0.659381
0.659881
0.660046
0.659997
0.659814
0.659575
0.659358
0.659171
0.638859
0.63899
0.639303
0.639993
0.641036
0.642319
0.643844
0.645656
0.647785
0.650229
0.652784
0.654881
0.656272
0.657126
0.657593
0.657802
0.657839
0.657774
0.657658
0.657507
0.633497
0.633604
0.633889
0.634561
0.635625
0.63698
0.638624
0.640625
0.643044
0.645906
0.649005
0.651663
0.653538
0.6548
0.65561
0.656102
0.656373
0.656483
0.656454
0.65633
0.62776
0.627844
0.628114
0.628793
0.629913
0.631382
0.6332
0.63546
0.638253
0.641638
0.645403
0.648737
0.651185
0.652922
0.654121
0.654944
0.655475
0.655751
0.655801
0.655698
0.621534
0.6216
0.621863
0.622571
0.623785
0.625416
0.627471
0.630071
0.633339
0.637372
0.641948
0.646095
0.649227
0.651521
0.653173
0.654368
0.655183
0.655643
0.655768
0.655682
0.614687
0.614733
0.614999
0.615759
0.617106
0.618954
0.621323
0.624358
0.628222
0.633053
0.638616
0.64374
0.647682
0.650638
0.652819
0.654436
0.655583
0.656239
0.656438
0.656364
0.607066
0.607088
0.607355
0.608193
0.609717
0.611848
0.614617
0.6182
0.622807
0.62862
0.635379
0.641673
0.646578
0.650312
0.653124
0.655243
0.656763
0.657634
0.657907
0.657843
0.598427
0.598444
0.59873
0.599667
0.601421
0.603914
0.607189
0.611462
0.61699
0.624007
0.632211
0.639903
0.64595
0.6506
0.654152
0.656876
0.658825
0.659929
0.660277
0.660217
0.588503
0.588494
0.588826
0.589911
0.591966
0.59492
0.598836
0.603975
0.61065
0.619145
0.629094
0.638448
0.64584
0.65157
0.655995
0.659419
0.661863
0.663223
0.663644
0.663586
0.576974
0.576944
0.577327
0.578603
0.58103
0.584575
0.589312
0.595547
0.603656
0.613967
0.626018
0.637334
0.646296
0.653288
0.658734
0.662965
0.665976
0.667608
0.668096
0.668034
0.563342
0.56329
0.563752
0.565279
0.568192
0.572507
0.578305
0.585946
0.595864
0.608414
0.622989
0.636603
0.647373
0.655811
0.662446
0.667605
0.671239
0.673147
0.673693
0.673621
0.546939
0.546864
0.547452
0.549332
0.552895
0.558237
0.565437
0.574908
0.587127
0.602441
0.620024
0.6363
0.649129
0.659207
0.667182
0.673379
0.677687
0.67986
0.680442
0.680353
0.526794
0.526702
0.527495
0.529888
0.534367
0.541135
0.550248
0.562157
0.577337
0.596057
0.617188
0.636494
0.651625
0.663524
0.672963
0.680305
0.6853
0.687693
0.68828
0.688166
0.501452
0.501361
0.502493
0.505682
0.511544
0.520395
0.532225
0.547455
0.566467
0.589356
0.614602
0.637281
0.654917
0.668786
0.679804
0.688343
0.693968
0.696495
0.697045
0.696898
0.468539
0.468495
0.47024
0.474802
0.48298
0.49509
0.510924
0.530731
0.55466
0.582554
0.612459
0.638795
0.659072
0.674997
0.687651
0.697372
0.703474
0.705998
0.706458
0.706276
0.423825
0.423988
0.427067
0.434489
0.446998
0.464467
0.486241
0.51223
0.542272
0.575981
0.611002
0.641177
0.66416
0.682137
0.696413
0.707173
0.713476
0.715805
0.716127
0.715915
0.359405
0.360764
0.368241
0.382248
0.402698
0.42869
0.458841
0.49268
0.529912
0.570075
0.6105
0.644564
0.670205
0.690151
0.705819
0.717303
0.723458
0.725369
0.725524
0.725304
0.282543
0.285215
0.299741
0.323862
0.355179
0.391266
0.430493
0.472626
0.517488
0.564686
0.611277
0.650015
0.678975
0.701377
0.718625
0.730532
0.73632
0.737913
0.738012
0.737881
0.203911
0.210955
0.232758
0.266999
0.308857
0.354808
0.403115
0.453606
0.506169
0.560446
0.613245
0.656663
0.688854
0.713578
0.732323
0.744292
0.749249
0.750324
0.750362
0.750294
0.139777
0.148721
0.175197
0.216599
0.266758
0.32108
0.377572
0.4359
0.495819
0.556872
0.615527
0.663273
0.698352
0.725
0.744591
0.756291
0.76075
0.761689
0.761776
0.761762
0.0872647
0.0969305
0.126961
0.173689
0.230095
0.291115
0.354506
0.41974
0.486365
0.55375
0.617958
0.669786
0.707566
0.735939
0.75631
0.768049
0.7723
0.773151
0.773283
0.773314
0.0433523
0.0533276
0.0857828
0.13667
0.1982
0.264788
0.334015
0.405259
0.477913
0.551162
0.620632
0.676398
0.716806
0.746956
0.768287
0.780151
0.784231
0.785192
0.785372
0.785439
0.00556114
0.0156671
0.049933
0.104149
0.169969
0.241345
0.315676
0.392264
0.470388
0.549063
0.623535
0.683161
0.726181
0.758105
0.780426
0.792663
0.796958
0.797952
0.798139
0.798228
-0.0277989
-0.0176515
0.0180336
0.0750066
0.144485
0.220022
0.29889
0.380311
0.463482
0.547285
0.626563
0.689941
0.735546
0.769262
0.792695
0.805544
0.810092
0.811131
0.811295
0.811375
-0.0579967
-0.0478235
-0.0109883
0.0483532
0.121005
0.200199
0.283121
0.368969
0.456871
0.54557
0.629496
0.696525
0.744703
0.780205
0.804794
0.818254
0.823074
0.824156
0.824292
0.824354
-0.086005
-0.075787
-0.0379359
0.0235074
0.0989705
0.181406
0.267981
0.357897
0.450217
0.543593
0.632075
0.702732
0.753414
0.790659
0.816348
0.830384
0.835521
0.83665
0.836748
0.836786
-0.112397
-0.102121
-0.0633339
1.68309e-06
0.0779525
0.163285
0.253162
0.346804
0.443256
0.54115
0.634141
0.708414
0.761577
0.800495
0.827198
0.841738
0.847134
0.848289
0.848343
0.848347
-0.13764
-0.127253
-0.0875862
-0.0225326
0.0576403
0.145571
0.238436
0.335504
0.435854
0.538083
0.635543
0.713471
0.769122
0.809637
0.837257
0.852166
0.857669
0.858838
0.858857
0.858828
-0.162054
-0.151476
-0.110974
-0.0443415
0.0378268
0.128084
0.223668
0.323889
0.427867
0.534256
0.636164
0.717853
0.776043
0.818102
0.846449
0.861581
0.867102
0.868232
0.868219
0.86816
-0.185753
-0.174954
-0.133651
-0.0655787
0.0183841
0.110737
0.208773
0.311867
0.419208
0.529581
0.635931
0.721518
0.782372
0.825956
0.854882
0.870055
0.87546
0.876518
0.876471
0.876391
-0.208886
-0.197819
-0.155744
-0.0863181
-0.000751564
0.0934701
0.193706
0.299408
0.409859
0.524007
0.634751
0.72442
0.788167
0.833355
0.862721
0.877698
0.882866
0.883805
0.883713
0.883614
-0.231427
-0.220134
-0.177286
-0.106597
-0.0196029
0.0762765
0.178481
0.286528
0.399816
0.517488
0.63255
0.726505
0.79348
0.840462
0.870171
0.884711
0.889447
0.890194
0.890052
0.889939
-0.253477
-0.241888
-0.198255
-0.126414
-0.0381631
0.0591784
0.163125
0.273266
0.389102
0.510024
0.629274
0.727688
0.798309
0.847465
0.877536
0.891331
0.895333
0.895768
0.895569
0.895452
-0.274846
-0.263057
-0.218651
-0.145766
-0.0563952
0.0422359
0.147691
0.259673
0.377776
0.501651
0.62487
0.727874
0.802594
0.854488
0.885196
0.898013
0.900812
0.900648
0.900355
0.900271
-0.295689
-0.283597
-0.238453
-0.164638
-0.0742779
0.0254776
0.13226
0.245821
0.36591
0.492428
0.619314
0.726945
0.8062
0.861523
0.893525
0.905506
0.906591
0.905177
0.90456
0.904599
-0.315829
-0.303474
-0.257651
-0.182988
-0.091741
0.00898105
0.116909
0.231822
0.353599
0.482406
0.612614
0.724779
0.808935
0.868374
0.902643
0.914677
0.914113
0.91056
0.90868
0.908678
-0.335375
-0.322718
-0.276191
-0.200762
-0.108753
-0.00719013
0.101721
0.217752
0.340941
0.471707
0.60481
0.721235
0.810571
0.874657
0.912134
0.925824
0.925132
0.919579
0.913856
0.905673
-0.354214
-0.341325
-0.294165
-0.218126
-0.125535
-0.0233127
0.0863678
0.203217
0.327507
0.459857
0.595428
0.715794
0.810784
0.880215
0.921537
0.938571
0.940144
0.933434
0.922111
0.921189
-0.372307
-0.359373
-0.311571
-0.235026
-0.142075
-0.039351
0.0708755
0.188194
0.313257
0.446719
0.584267
0.707927
0.80877
0.884253
0.928981
0.949042
0.95254
0.947507
0.913155
0.874874
-0.389432
-0.376722
-0.328348
-0.251347
-0.158369
-0.0553119
0.0552421
0.172812
0.298252
0.432317