/*--------------------------------*- C++ -*----------------------------------*\
  =========                 |
  \\      /  F ield         | OpenFOAM: The Open Source CFD Toolbox
   \\    /   O peration     | Website:  https://openfoam.org
    \\  /    A nd           | Version:  6
     \\/     M anipulation  |
\*---------------------------------------------------------------------------*/
FoamFile
{
    version     2.0;
    format      ascii;
    class       surfaceScalarField;
    location    "97.8";
    object      phi;
}
// * * * * * * * * * * * * * * * * * * * * * * * * * * * * * * * * * * * * * //

dimensions      [0 3 -1 0 0 0 0];

internalField   nonuniform List<scalar> 
17370
(
-0.09
0.0898488
0.289162
-0.0714621
0.053752
0.364486
-0.0381187
0.0276894
0.426597
-0.0196375
0.0146044
0.504285
-0.0107625
0.00827216
0.601892
-0.00627256
0.00489607
0.720434
-0.00373204
0.00289129
0.863747
-0.00214957
0.00159025
1.03601
-0.0010735
0.000660986
1.24292
-0.000253798
-0.000144001
1.49159
0.000523703
-0.000933554
1.4916
0.00133084
-0.00181616
1.24318
0.0023388
-0.00304182
1.03634
0.00385595
-0.00500124
0.864052
0.00636793
-0.00836125
0.721051
0.0108468
-0.014683
0.603051
0.0197099
-0.0277541
0.507483
0.0381755
-0.0537999
0.431792
0.0715015
-0.0898754
0.365149
0.0900163
0.198995
-0.128138
0.0882299
0.0399082
-0.364601
0.353382
-0.0746683
0.0858865
-0.446477
0.454323
-0.0843818
0.0765362
-0.521192
0.529904
-0.068438
0.0597253
-0.61279
0.621571
-0.0515353
0.0427543
-0.726896
0.734167
-0.0352922
0.028021
-0.867477
0.872595
-0.0224181
0.0173
-1.03848
1.04193
-0.0134877
0.0100351
-1.2446
1.24704
-0.00742202
0.00498653
-1.49262
1.49461
-0.0030353
0.00105051
-1.49251
1.49423
0.000621314
-0.00234415
-1.24397
1.24586
0.00425245
-0.00613772
-1.03751
1.04003
0.00848723
-0.011005
-0.866098
0.869825
0.0143506
-0.0180779
-0.724389
0.729931
0.0231182
-0.0286609
-0.608696
0.616109
0.035874
-0.0432865
-0.514895
0.523038
0.0520154
-0.0601583
-0.439855
0.447912
0.0688197
-0.076877
-0.375294
0.376737
0.0846713
-0.0861143
-0.257328
0.222473
0.0748226
-0.0399674
-0.0685251
0.0587016
0.00982357
-0.051797
0.0583754
-0.374134
0.367555
-0.0574555
0.0537001
-0.453599
0.457355
-0.0486073
0.0446519
-0.527953
0.531908
-0.0408087
0.0371664
-0.621571
0.625213
-0.0330605
0.0289805
-0.735356
0.739437
-0.0244047
0.0202401
-0.874348
0.878513
-0.0158882
0.0121889
-1.0435
1.0472
-0.00844574
0.00526845
-1.24857
1.25175
-0.0019366
-0.00113964
-1.49666
1.49974
0.00418935
-0.00745724
-1.4972
1.50047
0.0105363
-0.0141328
-1.25006
1.25366
0.017676
-0.0218543
-1.04592
1.0501
0.0258757
-0.0303124
-0.877752
0.882188
0.0342798
-0.0382734
-0.739892
0.743885
0.0418201
-0.0455649
-0.626766
0.63051
0.0494356
-0.0544478
-0.534804
0.539816
0.0581134
-0.0589209
-0.457468
0.458275
0.052209
-0.0319985
-0.33574
0.315529
0.00989047
-0.0683368
0.0584463
-0.0529539
0.048962
0.00399194
-0.0331375
0.0436717
-0.35813
0.347596
-0.0473611
0.0467274
-0.459299
0.459932
-0.0436658
0.0403079
-0.535816
0.539174
-0.0365296
0.03322
-0.628545
0.631854
-0.0297755
0.0267368
-0.742666
0.745705
-0.0234698
0.0203552
-0.882037
0.885152
-0.0168159
0.0134286
-1.05079
1.05418
-0.00962734
0.00608234
-1.25518
1.25873
-0.00210724
-0.0016942
-1.50325
1.50705
0.00546276
-0.0093382
-1.50413
1.508
0.0127436
-0.0163423
-1.2574
1.261
0.019514
-0.0228112
-1.0539
1.0572
0.0257215
-0.028786
-0.885668
0.888732
0.031658
-0.034936
-0.747138
0.750416
0.0381047
-0.0417402
-0.634288
0.637924
0.0449759
-0.0478976
-0.544119
0.547041
0.0483831
-0.0444848
-0.456552
0.452654
0.0337003
-0.0162348
-0.29615
0.278685
0.0040756
-0.0526227
0.0485471
-0.0458886
0.0433979
0.0024907
-0.0227727
0.033134
-0.336921
0.32656
-0.03894
0.0399466
-0.459626
0.458619
-0.0387471
0.0364535
-0.5419
0.544194
-0.0337782
0.0311745
-0.634914
0.637517
-0.028102
0.0251932
-0.748759
0.751668
-0.0219171
0.0189123
-0.888114
0.891119
-0.015595
0.0124848
-1.05732
1.06043
-0.00894776
0.0055301
-1.26219
1.26561
-0.00155919
-0.00233024
-1.51093
1.51482
0.00617526
-0.0100122
-1.51189
1.51572
0.0132441
-0.0165151
-1.26444
1.26771
0.0193433
-0.0223433
-1.0603
1.0633
0.0250764
-0.02808
-0.89177
0.894774
0.0307616
-0.0336054
-0.753611
0.756455
0.0360156
-0.0384974
-0.640979
0.643461
0.0406261
-0.0416071
-0.548833
0.549814
0.0403708
-0.0342282
-0.447357
0.441214
0.0234974
-0.0102557
-0.263444
0.250202
0.00259427
-0.0453783
0.042784
-0.0413285
0.0395675
0.00176099
-0.016702
0.0259284
-0.316729
0.307502
-0.0325101
0.0346334
-0.457034
0.45491
-0.034199
0.0325183
-0.546181
0.547862
-0.0303271
0.0282217
-0.639834
0.641939
-0.0257781
0.0233679
-0.754324
0.756734
-0.020494
0.0176898
-0.894025
0.89683
-0.0144369
0.0113528
-1.06349
1.06657
-0.00784748
0.00450953
-1.26894
1.27228
-0.000666114
-0.00307419
-1.51862
1.52236
0.0067577
-0.0104298
-1.51945
1.52312
0.0135302
-0.0166965
-1.27095
1.27412
0.0194217
-0.0222695
-1.06632
1.06917
0.0247244
-0.0272453
-0.897567
0.900088
0.0293609
-0.0315089
-0.75889
0.761038
0.0333662
-0.0353076
-0.645602
0.647543
0.0367483
-0.0368859
-0.550315
0.550452
0.0344095
-0.0273335
-0.43452
0.427444
0.0176082
-0.00743248
-0.238641
0.228466
0.00188765
-0.0405977
0.03871
-0.0380525
0.0367309
0.00132156
-0.0127287
0.0206403
-0.29894
0.291028
-0.0273554
0.0302524
-0.452373
0.449476
-0.0304366
0.0293005
-0.549307
0.550443
-0.0272937
0.0253631
-0.643989
0.64592
-0.0231461
0.0209912
-0.758988
0.761143
-0.0184548
0.0159506
-0.899419
0.901923
-0.0129849
0.0100842
-1.06952
1.07242
-0.00670017
0.00344095
-1.27555
1.27881
0.000321796
-0.00396073
-1.52601
1.52965
0.0075285
-0.0110758
-1.5267
1.53025
0.0140373
-0.0169973
-1.27724
1.2802
0.01945
-0.0219099
-1.07189
1.07435
0.0239764
-0.0260682
-0.90235
0.904442
0.0278503
-0.0296921
-0.763004
0.764845
0.0313089
-0.0330112
-0.649347
0.65105
0.0337972
-0.0331967
-0.550219
0.549618
0.0297934
-0.0223999
-0.420149
0.412755
0.0138458
-0.00577525
-0.219441
0.21137
0.00147579
-0.0370525
0.0355767
-0.0355789
0.0345641
0.0010148
-0.00991713
0.0165872
-0.283764
0.277094
-0.0230216
0.0263578
-0.446342
0.443006
-0.027109
0.0263873
-0.55137
0.552091
-0.0246086
0.0228058
-0.647834
0.649637
-0.0207127
0.0186722
-0.763235
0.765275
-0.0162713
0.0139155
-0.904281
0.906636
-0.0111447
0.00843055
-1.07516
1.07787
-0.00524238
0.0021323
-1.28196
1.28507
0.00150052
-0.00502838
-1.53321
1.53674
0.00846771
-0.0118323
-1.53368
1.53705
0.0145732
-0.0172373
-1.28306
1.28572
0.0193995
-0.0215474
-1.07672
1.07886
0.0233625
-0.0252122
-0.906388
0.908238
0.0267899
-0.0284173
-0.76657
0.768197
0.0298307
-0.0311861
-0.65261
0.653965
0.0314738
-0.0301312
-0.548652
0.547309
0.0260958
-0.0187665
-0.405363
0.398034
0.0112877
-0.00468102
-0.204098
0.197492
0.00120251
-0.0342515
0.033049
-0.033676
0.03289
0.000786041
-0.0078263
0.0134117
-0.270998
0.265412
-0.0193448
0.0228633
-0.439572
0.436054
-0.0240788
0.0235972
-0.552732
0.553214
-0.0220785
0.0203797
-0.651444
0.653143
-0.0183747
0.0164128
-0.767269
0.769231
-0.0140954
0.0118195
-0.908882
0.911158
-0.00914376
0.00653279
-1.08046
1.08307
-0.00347885
0.000506299
-1.28806
1.29103
0.00296055
-0.00631863
-1.54015
1.54351
0.00956819
-0.0127064
-1.54026
1.5434
0.0152274
-0.0176409
-1.28831
1.29072
0.0195775
-0.0214917
-1.08098
1.0829
0.0231042
-0.0247433
-0.909963
0.911602
0.0261362
-0.0275678
-0.769715
0.771147
0.0287791
-0.0297443
-0.655125
0.65609
0.0296535
-0.0276309
-0.545614
0.543592
0.0231772
-0.0160943
-0.390816
0.383733
0.00950293
-0.00392873
-0.191448
0.185873
0.00101428
-0.0319507
0.0309364
-0.0322033
0.0315956
0.000607742
-0.0062059
0.0108618
-0.260323
0.255667
-0.016187
0.0196891
-0.432548
0.429046
-0.0212126
0.020948
-0.553632
0.553897
-0.0196523
0.0180073
-0.65487
0.656515
-0.0160505
0.0141299
-0.771161
0.773081
-0.0118619
0.00963539
-0.913328
0.915554
-0.00701829
0.00446885
-1.08557
1.08812
-0.0014965
-0.00137827
-1.2939
1.29677
0.00470159
-0.00788889
-1.54674
1.54993
0.0109438
-0.0138664
-1.54638
1.5493
0.0161914
-0.0183843
-1.29309
1.29528
0.0201139
-0.0218054
-1.0848
1.0865
0.0232228
-0.0246605
-0.913114
0.914551
0.0258827
-0.027135
-0.772476
0.773728
0.0282027
-0.0287454
-0.656852
0.657395
0.0282567
-0.0256532
-0.54127
0.538666
0.02093
-0.0141518
-0.376805
0.370027
0.00825302
-0.00340914
-0.180699
0.175855
0.000885024
-0.0299946
0.0291096
-0.0310698
0.0306075
0.000462321
-0.00489431
0.00874539
-0.251443
0.247592
-0.0134169
0.0167524
-0.425642
0.422307
-0.0184421
0.0183569
-0.554125
0.554211
-0.0172438
0.0156271
-0.65822
0.659837
-0.013683
0.0117673
-0.774981
0.776897
-0.00950632
0.00729317
-0.917679
0.919892
-0.00470151
0.00218696
-1.09056
1.09308
0.000731347
-0.00353611
-1.29955
1.30235
0.00675091
-0.00980019
-1.553
1.55605
0.0126885
-0.0154166
-1.55207
1.55479
0.0175548
-0.0195287
-1.29744
1.29942
0.0210503
-0.0225214
-1.0882
1.08967
0.023753
-0.0250052
-0.915863
0.917115
0.026074
-0.0271638
-0.774881
0.775971
0.0280205
-0.0281931
-0.657738
0.657911
0.0272757
-0.0241661
-0.535804
0.532694
0.0192629
-0.0127736
-0.363406
0.356917
0.00739218
-0.00305801
-0.171295
0.16696
0.00079931
-0.0282745
0.0274752
-0.0302156
0.0298773
0.000338307
-0.00378801
0.00692829
-0.244124
0.240984
-0.0109327
0.0139898
-0.419134
0.416077
-0.0157167
0.0157718
-0.554292
0.554236
-0.0147289
0.0131738
-0.661508
0.663063
-0.0112123
0.00926687
-0.778802
0.780747
-0.00697218
0.00473476
-0.922009
0.924246
-0.0021283
-0.000385657
-1.09549
1.09801
0.00328382
-0.0060477
-1.30507
1.30783
0.00918579
-0.0121259
-1.55899
1.56193
0.0148709
-0.0174195
-1.55736
1.55991
0.0193775
-0.0211344
-1.30137
1.30312
0.0224498
-0.0237051
-1.09118
1.09243
0.0247568
-0.0258306
-0.918238
0.919311
0.0267536
-0.0276829
-0.77695
0.777879
0.0282773
-0.0281467
-0.657931
0.657801
0.0267519
-0.0231676
-0.529349
0.525765
0.0181185
-0.0118545
-0.35056
0.344296
0.00683426
-0.0028375
-0.16282
0.158823
0.000747755
-0.0267082
0.0259604
-0.0296027
0.029376
0.000226619
-0.00281048
0.00530527
-0.238193
0.235698
-0.00864072
0.0113346
-0.413233
0.410539
-0.0129825
0.0131021
-0.554228
0.554108
-0.0120892
0.0105627
-0.664699
0.666225
-0.00855817
0.00655167
-0.782686
0.784693
-0.0041852
0.00188658
-0.92639
0.928689
0.000777307
-0.00333018
-1.10043
1.10299
0.00625052
-0.00900931
-1.31052
1.31328
0.0121049
-0.0149621
-1.56477
1.56763
0.0175838
-0.019968
-1.5623
1.56468
0.021756
-0.0233007
-1.30488
1.30642
0.0244086
-0.0254445
-1.09375
1.09478
0.0263107
-0.0271958
-0.920248
0.921133
0.0279586
-0.0287201
-0.77864
0.779401
0.0290292
-0.0285526
-0.657537
0.657061
0.0266901
-0.0226502
-0.521974
0.517935
0.017449
-0.0113184
-0.338124
0.331993
0.00651948
-0.00272056
-0.154948
0.151149
0.000723194
-0.0252311
0.0245079
-0.0292101
0.0290906
0.000119549
-0.00189747
0.00378248
-0.233534
0.231649
-0.00644158
0.00870015
-0.4081
0.405842
-0.0101593
0.0102632
-0.554094
0.55399
-0.00924391
0.00770464
-0.66787
0.669409
-0.00562579
0.00352496
-0.786695
0.788796
-0.00104707
-0.00135044
-0.930895
0.933292
0.0041144
-0.00674575
-1.10546
1.10809
0.00973117
-0.0125217
-1.31597
1.31876
0.01561
-0.0184098
-1.57039
1.57319
0.0209258
-0.0231574
-1.56689
1.56912
0.0247805
-0.0261132
-1.30798
1.30931
0.0270129
-0.0278252
-1.0959
1.09671
0.0284971
-0.0291841
-0.921875
0.922562
0.0297902
-0.0304038
-0.779982
0.780596
0.0303497
-0.0294577
-0.656408
0.655516
0.0271044
-0.0225998
-0.513699
0.509194
0.0172093
-0.0111066
-0.325907
0.319804
0.00640445
-0.00268791
-0.147413
0.143696
0.000720601
-0.0237921
0.0230715
-0.0290323
0.0290213
1.0997e-05
-0.000999931
0.00228648
-0.230086
0.2288
-0.00425221
0.00600958
-0.403877
0.40212
-0.00717584
0.00718092
-0.554059
0.554054
-0.00610589
0.00451188
-0.671107
0.672701
-0.0023159
8.39204e-05
-0.790893
0.793125
0.00254889
-0.00508679
-0.935598
0.938135
0.0079975
-0.0107502
-1.11064
1.1134
0.0138466
-0.0167083
-1.32149
1.32435
0.0198279
-0.0225996
-1.57591
1.57868
0.0250301
-0.02712
-1.57117
1.57326
0.0285803
-0.029704
-1.31067
1.3118
0.0303958
-0.030982
-1.09762
1.09821
0.031453
-0.031928
-0.923099
0.923574
0.0323473
-0.0326901
-0.780938
0.781281
0.032333
-0.0309435
-0.65444
0.65305
0.0280576
-0.0230425
-0.504484
0.499468
0.0173912
-0.0111938
-0.313688
0.307491
0.00646838
-0.00273001
-0.13999
0.136252
0.000737466
-0.0223486
0.0216111
-0.0290709
0.029173
-0.000102135
-6.59102e-05
0.000746062
-0.227836
0.227156
-0.00198855
0.00317841
-0.400693
0.399503
-0.00395017
0.00377103
-0.554299
0.554478
-0.00258042
0.000871849
-0.674503
0.676212
0.00148147
-0.0038892
-0.795353
0.797761
0.00672782
-0.00945361
-0.940583
0.943308
0.0125638
-0.0154854
-1.11608
1.11901
0.0187427
-0.0217173
-1.32717
1.33014
0.0249081
-0.027681
-1.58137
1.58414
0.0300458
-0.0320027
-1.57514
1.5771
0.0333029
-0.0342173
-1.31294
1.31386
0.0346968
-0.0350457
-1.09889
1.09924
0.0353059
-0.0355601
-0.923888
0.924143
0.0357699
-0.0357705
-0.781318
0.781319
0.0350658
-0.0330942
-0.651459
0.649487
0.0296061
-0.0240011
-0.494223
0.488618
0.01799
-0.0115622
-0.301219
0.294791
0.00669576
-0.00283899
-0.132477
0.12862
0.000771372
-0.020863
0.0200916
-0.029346
0.0295835
-0.000237505
0.000899941
-0.000891157
-0.226815
0.226806
0.000432248
0.000113391
-0.398682
0.398136
-0.000385927
-7.01181e-05
-0.555003
0.555459
0.00144842
-0.0033328
-0.678181
0.680066
0.00590399
-0.00853965
-0.800163
0.802799
0.0116427
-0.0146112
-0.945947
0.948916
0.0179813
-0.0211262
-1.12187
1.12502
0.0246007
-0.0277341
-1.33308
1.33621
0.0310365
-0.0338354
-1.58683
1.58963
0.0361449
-0.0379754
-1.57883
1.58066
0.0391227
-0.0398239
-1.31477
1.31547
0.0400774
-0.0401687
-1.09968
1.09977
0.040199
-0.0402165
-0.924214
0.924232
0.0402353
-0.0397885
-0.781006
0.78056
0.0386496
-0.0359973
-0.647308
0.644655
0.03181
-0.0255
-0.48274
0.47643
0.0190036
-0.0121971
-0.288217
0.281411
0.00707253
-0.00300699
-0.124681
0.120616
0.000819718
-0.0193022
0.0184825
-0.0298917
0.0302757
-0.000384046
0.00199749
-0.00261747
-0.227114
0.227734
0.00303137
-0.00325456
-0.397989
0.398212
0.00363673
-0.0044793
-0.556397
0.55724
0.00610989
-0.0082411
-0.682271
0.684402
0.0111059
-0.0140369
-0.805426
0.808357
0.0174753
-0.0207503
-0.951803
0.955078
0.0244496
-0.0278781
-1.12812
1.13155
0.0316305
-0.034971
-1.33932
1.34266
0.0384274
-0.0412767
-1.59235
1.5952
0.0435361
-0.0452278
-1.58223
1.58392
0.0462041
-0.0466987
-1.31613
1.31662
0.0467223
-0.046538
-1.09994
1.09976
0.0463218
-0.0460903
-0.924024
0.923793
0.0458734
-0.044914
-0.779819
0.77886
0.0432369
-0.0397651
-0.64179
0.638318
0.0347402
-0.0275665
-0.469786
0.462612
0.0204307
-0.0130838
-0.274382
0.267035
0.00758413
-0.00322546
-0.116426
0.112067
0.000879555
-0.0176388
0.0167592
-0.0307383
0.031301
-0.000562729
0.00328706
-0.00470921
-0.228791
0.230214
0.006046
-0.00708179
-0.398826
0.399862
0.00821775
-0.00956961
-0.558715
0.560067
0.0115882
-0.0140493
-0.686913
0.689374
0.0172963
-0.0206003
-0.811274
0.814578
0.0244579
-0.0281156
-0.958283
0.961941
0.032224
-0.0360035
-1.13495
1.13873
0.0400982
-0.0436929
-1.34598
1.34958
0.0473392
-0.0502557
-1.59798
1.60089
0.0524662
-0.0540064
-1.58532
1.58686
0.0548002
-0.0550691
-1.31701
1.31728
0.0548452
-0.054366
-1.09963
1.09915
0.0538912
-0.0533818
-0.923286
0.922777
0.0527741
-0.0513319
-0.777696
0.776254
0.0489525
-0.0444926
-0.634619
0.630159
0.0384525
-0.0302128
-0.455025
0.446785
0.0222567
-0.0141966
-0.259385
0.251325
0.00820782
-0.0034815
-0.107546
0.10282
0.000946491
-0.0158517
0.0149052
-0.0319548
0.0327486
-0.000793737
0.0048475
-0.00718897
-0.23209
0.234432
0.00960106
-0.0115692
-0.401395
0.403363
0.0135889
-0.0155765
-0.562199
0.564186
0.0181208
-0.0210098
-0.692281
0.69517
0.0247555
-0.0285223
-0.81787
0.821636
0.0328971
-0.0370239
-0.965543
0.96967
0.0416302
-0.0458323
-1.1425
1.1467
0.0503335
-0.0542234
-1.35316
1.35705
0.0580826
-0.0610659
-1.60372
1.60671
0.0632098
-0.0645726
-1.58807
1.58943
0.065152
-0.0651638
-1.31731
1.31732
0.0646748
-0.063873
-1.09872
1.09792
0.0631224
-0.062343
-0.921945
0.921165
0.0612347
-0.0592015
-0.774654
0.772621
0.0559641
-0.0502782
-0.625421
0.619735
0.0429833
-0.0334212
-0.438027
0.428465
0.0244367
-0.015486
-0.242876
0.233925
0.00890479
-0.00375457
-0.0979008
0.0927506
0.00101387
-0.0139296
0.0129157
-0.0336334
0.0347305
-0.00109716
0.0068151
-0.0102557
-0.237246
0.240687
0.0139411
-0.0169954
-0.405993
0.409047
0.0200285
-0.0227768
-0.567142
0.569891
0.0259998
-0.02945
-0.698594
0.702045
0.0338358
-0.038185
-0.825399
0.829749
0.0431968
-0.0478918
-0.973759
0.978454
0.0530904
-0.0577833
-1.1509
1.15559
0.0627412
-0.0669471
-1.36092
1.36512
0.0710125
-0.074031
-1.60958
1.61259
0.0760643
-0.0772031
-1.59041
1.59155
0.0775286
-0.0772391
-1.31695
1.31666
0.0764652
-0.0753062
-1.09713
1.09597
0.0742717
-0.0731959
-0.920014
0.918938
0.0715222
-0.0687374
-0.770481
0.767696
0.0643999
-0.0571563
-0.613703
0.60646
0.0482955
-0.0371032
-0.418263
0.40707
0.0268667
-0.0168599
-0.224505
0.214498
0.00961033
-0.00401299
-0.087392
0.0817947
0.00107205
-0.0118759
0.0108038
-0.035909
0.0374231
-0.00151404
0.0093997
-0.0142075
-0.244605
0.249413
0.0194041
-0.0237116
-0.412977
0.417285
0.0279162
-0.0315803
-0.573873
0.577537
0.0356652
-0.0398588
-0.706135
0.710329
0.0450574
-0.0501358
-0.834101
0.839179
0.0559247
-0.0612942
-0.983135
0.988504
0.0671733
-0.0724056
-1.16029
1.16552
0.0778348
-0.0823331
-1.36928
1.37378
0.086541
-0.0895079
-1.61545
1.61842
0.0913369
-0.0921599
-1.59224
1.59306
0.0921755
-0.0915812
-1.31583
1.31524
0.0904436
-0.088911
-1.09481
1.09328
0.0875857
-0.0860331
-0.917357
0.915805
0.0838477
-0.080029
-0.764781
0.760962
0.074283
-0.0650576
-0.598779
0.589554
0.0542421
-0.041066
-0.395102
0.381926
0.0293567
-0.0181697
-0.203961
0.192774
0.0102277
-0.00421271
-0.0759971
0.0699821
0.00110848
-0.00971475
0.00860627
-0.0389887
0.0411055
-0.00211671
0.0129601
-0.0195179
-0.25467
0.261228
0.0265332
-0.0323008
-0.422837
0.428604
0.0378761
-0.0426583
-0.582779
0.587561
0.0478105
-0.0529536
-0.715284
0.720427
0.0592129
-0.0651946
-0.844263
0.850245
0.0718983
-0.0780233
-0.993876
1
0.0846229
-0.0903834
-1.17073
1.17649
0.0962196
-0.100911
-1.37817
1.38286
0.105117
-0.107879
-1.62113
1.62389
0.109353
-0.109718
-1.59332
1.59369
0.109331
-0.108327
-1.31391
1.31291
0.106808
-0.104896
-1.09176
1.08985
0.103269
-0.101165
-0.913612
0.911507
0.0983555
-0.093145
-0.75697
0.75176
0.0855242
-0.073743
-0.579757
0.567976
0.0604964
-0.0449606
-0.367843
0.352307
0.0316016
-0.0191993
-0.181035
0.168633
0.010627
-0.00429913
-0.0638101
0.0574823
0.00110877
-0.00749607
0.00638731
-0.0432096
0.0462558
-0.00304618
0.018134
-0.0269869
-0.268189
0.277042
0.0362303
-0.0437519
-0.436255
0.443776
0.050958
-0.0570812
-0.594368
0.600491
0.063652
-0.0701122
-0.726472
0.732932
0.0776219
-0.0846112
-0.856201
0.86319
0.0922896
-0.0991636
-1.00612
1.01299
0.106403
-0.112555
-1.18216
1.18831
0.118592
-0.123253
-1.38732
1.39198
0.127189
-0.129498
-1.62627
1.62858
0.130397
-0.130118
-1.59338
1.5931
0.129189
-0.127656
-1.311
1.30947
0.12576
-0.123433
-1.08789
1.08557
0.12137
-0.118738
-0.908592
0.90596
0.114953
-0.107852
-0.746259
0.739159
0.0977422
-0.0826923
-0.555455
0.540405
0.0664761
-0.048243
-0.335778
0.317545
0.0331703
-0.0196752
-0.155739
0.142244
0.0106585
-0.00421501
-0.0510862
0.0446427
0.00105918
-0.0052977
0.00423852
-0.0491624
0.0537768
-0.00461441
0.0261393
-0.0380874
-0.286346
0.298294
0.0502062
-0.0600824
-0.454323
0.464199
0.069338
-0.0770801
-0.609213
0.616955
0.0853725
-0.0933661
-0.740194
0.748187
0.102226
-0.110197
-0.870123
0.878095
0.118708
-0.126108
-1.01975
1.02715
0.133658
-0.139853
-1.19419
1.20038
0.145676
-0.149921
-1.3962
1.40045
0.153172
-0.154677
-1.63032
1.63182
0.154706
-0.15354
-1.59201
1.59084
0.151903
-0.149753
-1.30686
1.30471
0.147418
-0.144606
-1.08308
1.08027
0.142084
-0.138747
-0.90217
0.898833
0.133505
-0.123668
-0.731494
0.721657
0.110191
-0.091013
-0.524388
0.50521
0.0712945
-0.0501885
-0.298361
0.277255
0.0335544
-0.0193189
-0.128451
0.114215
0.0101887
-0.00391596
-0.03827
0.0319973
0.000949109
-0.00322036
0.00227125
-0.057968
0.0658403
-0.00787233
0.0401584
-0.0566725
-0.311335
0.327849
0.0728405
-0.0858526
-0.47865
0.491662
0.0972487
-0.106551
-0.627836
0.637138
0.116544
-0.125951
-0.756687
0.766093
0.135885
-0.144374
-0.885778
0.894268
0.15308
-0.160371
-1.03416
1.04145
0.167548
-0.173159
-1.20599
1.2116
0.178131
-0.181381
-1.40395
1.4072
0.183396
-0.183628
-1.63251
1.63274
0.182403
-0.180066
-1.58871
1.58637
0.177524
-0.174626
-1.30124
1.29834
0.171771
-0.168399
-1.07716
1.07378
0.165272
-0.160789
-0.893738
0.889255
0.153327
-0.139512
-0.710831
0.697016
0.121455
-0.0972835
-0.484734
0.460562
0.0738281
-0.0500939
-0.255512
0.231777
0.0323828
-0.0180053
-0.100085
0.0857071
0.00918302
-0.00339578
-0.0259779
0.0201906
0.000773149
-0.00137359
0.000600442
-0.0731484
0.0775897
-0.00444123
0.0308023
-0.0452871
-0.347187
0.361671
0.0598123
-0.0718105
-0.510542
0.522541
0.0827703
-0.0932138
-0.650059
0.660502
0.105147
-0.11615
-0.774825
0.785828
0.128449
-0.139463
-0.901752
0.912765
0.151331
-0.162035
-1.04786
1.05857
0.173461
-0.183508
-1.21619
1.22624
0.193877
-0.202571
-1.40937
1.41807
0.210964
-0.217274
-1.63188
1.63819
0.221527
-0.224414
-1.58287
1.58575
0.225993
-0.227158
-1.29383
1.295
0.227915
-0.227395
-1.06967
1.06915
0.225874
-0.220657
-0.881892
0.876675
0.208918
-0.186379
-0.681586
0.659048
0.157215
-0.120476
-0.434943
0.398205
0.0874973
-0.0563613
-0.208091
0.176955
0.0348279
-0.0184948
-0.0721736
0.0558406
0.00897987
-0.00310204
-0.0148902
0.00901239
0.00062717
0.000186004
-0.000813174
-0.0853624
0.0834691
0.00189329
0.00863382
-0.0181908
-0.379069
0.388626
0.0293509
-0.0381492
-0.539449
0.548247
0.0471399
-0.0559472
-0.673712
0.68252
0.066849
-0.0771203
-0.796259
0.806531
0.088215
-0.0984074
-0.923198
0.93339
0.109382
-0.118947
-1.06903
1.07859
0.129375
-0.138206
-1.23615
1.24498
0.147349
-0.154835
-1.42656
1.43404
0.161756
-0.166902
-1.64399
1.64913
0.17018
-0.172186
-1.58814
1.59015
0.172816
-0.173101
-1.29455
1.29483
0.17316
-0.17232
-1.06673
1.06589
0.169608
-0.162147
-0.866018
0.858557
0.148594
-0.126252
-0.632181
0.609839
0.100871
-0.0723215
-0.359235
0.330685
0.0495685
-0.0303038
-0.147017
0.127752
0.0179317
-0.00913844
-0.0408272
0.0320339
0.00423804
-0.00138422
-0.00344434
0.000590523
0.000238457
0.00162608
-0.00186453
-0.0870759
0.0841009
0.00297502
-0.000648404
-0.00498002
-0.40097
0.406598
0.0124951
-0.0191008
-0.561177
0.567783
0.0259072
-0.0335081
-0.693922
0.701523
0.0430243
-0.0519741
-0.815723
0.824672
0.0618607
-0.0707958
-0.942765
0.9517
0.080194
-0.0888025
-1.08802
1.09663
0.0980082
-0.105943
-1.25344
1.26138
0.113764
-0.120082
-1.441
1.44732
0.126086
-0.130282
-1.65386
1.65806
0.132704
-0.133955
-1.59172
1.59297
0.13402
-0.133848
-1.29396
1.29379
0.133165
-0.131818
-1.06204
1.0607
0.128352
-0.119765
-0.846867
0.83828
0.106185
-0.0858969
-0.584318
0.56403
0.0652361
-0.0443182
-0.300422
0.279504
0.0294308
-0.0177353
-0.108834
0.0971389
0.0104674
-0.00538635
-0.0234582
0.0183772
0.00253566
-0.000845575
0.00243614
-0.00412623
0.000154111
0.00230286
-0.00245698
-0.0858681
0.0829826
0.00288547
-0.00476936
0.00185212
-0.415788
0.418705
0.00311152
-0.00817829
-0.577616
0.582682
0.0139644
-0.0203621
-0.710598
0.716995
0.0285461
-0.0362458
-0.832826
0.840526
0.0447198
-0.0524136
-0.960057
0.96775
0.0609131
-0.0682868
-1.1048
1.11217
0.0763796
-0.082918
-1.26891
1.27545
0.0897406
-0.0952032
-1.45347
1.45893
0.100148
-0.10328
-1.662
1.66513
0.105167
-0.106011
-1.59382
1.59467
0.105751
-0.104792
-1.2927
1.29174
0.103631
-0.10171
-1.0561
1.05418
0.0977455
-0.0893518
-0.825823
0.81743
0.0767322
-0.0597773
-0.541231
0.524276
0.0440038
-0.0294872
-0.257606
0.24309
0.0196869
-0.0121797
-0.0848414
0.0773342
0.00743632
-0.00400299
-0.0128339
0.00940053
0.00198368
-0.000705589
0.00613268
-0.00741076
0.000144021
0.00274671
-0.00289073
-0.0843177
0.0817023
0.00261536
-0.00634612
0.00514592
-0.425822
0.427022
-0.00139505
-0.00243074
-0.590848
0.594674
0.0070806
-0.0128274
-0.72463
0.730377
0.0196925
-0.0264347
-0.847397
0.854139
0.0337648
-0.0404431
-0.97495
0.981628
0.0477405
-0.0542656
-1.11938
1.12591
0.0611435
-0.0670415
-1.28183
1.28773
0.0728899
-0.0775059
-1.46402
1.46863
0.0815689
-0.083964
-1.66818
1.67058
0.0852439
-0.0853902
-1.5949
1.59505
0.0847788
-0.0835929
-1.29027
1.28909
0.0820286
-0.0794591
-1.04937
1.0468
0.0754736
-0.0676595
-0.805225
0.797411
0.0568835
-0.043254
-0.505239
0.491609
0.0315831
-0.0214694
-0.22729
0.217176
0.0147342
-0.00956719
-0.0689659
0.0637989
0.00616301
-0.0035104
-0.00536577
0.00271316
0.00184523
-0.000696922
0.00900321
-0.0101515
0.000160528
0.00312867
-0.0032892
-0.0827609
0.0804626
0.00229824
-0.00661968
0.00605407
-0.432719
0.433285
-0.00378473
0.000678593
-0.601081
0.604187
0.00376794
-0.00865153
-0.736487
0.74137
0.0145073
-0.020311
-0.859967
0.86577
0.0267556
-0.0326574
-0.987902
0.993803
0.0392312
-0.0448826
-1.1321
1.13776
0.0509453
-0.0561152
-1.29327
1.29844
0.0611218
-0.0649828
-1.47292
1.47678
0.0682172
-0.0702859
-1.67288
1.67495
0.0709305
-0.0707297
-1.59477
1.59457
0.0697392
-0.0681771
-1.28739
1.28583
0.0664977
-0.0634372
-1.04206
1.039
0.0593795
-0.0524814
-0.786055
0.779157
0.0434731
-0.0327892
-0.476081
0.465397
0.0242086
-0.0170291
-0.205715
0.198535
0.0123229
-0.00852081
-0.0576649
0.0538629
0.00580209
-0.00350493
0.000544871
-0.00284203
0.00193813
-0.000780741
0.0115608
-0.0127182
0.000194512
0.00349934
-0.00369385
-0.0814364
0.079577
0.00185944
-0.00606115
0.00597916
-0.437718
0.4378
-0.00416417
0.0018492
-0.609905
0.61222
0.00220655
-0.00657023
-0.746667
0.751031
0.0120183
-0.0169521
-0.871085
0.876018
0.0225247
-0.0276637
-0.999614
1.00475
0.0337297
-0.0387141
-1.14337
1.14836
0.0439398
-0.0485771
-1.30335
1.30798
0.0533078
-0.0565482
-1.48056
1.4838
0.0592532
-0.0606269
-1.67654
1.67792
0.0610393
-0.0601024
-1.59409
1.59315
0.0589253
-0.057183
-1.28382
1.28208
0.0550752
-0.0519652
-1.0344
1.03129
0.0478997
-0.0416061
-0.768717
0.762423
0.0343835
-0.0260287
-0.452739
0.444384
0.0196948
-0.0146502
-0.190077
0.185032
0.0111939
-0.00822656
-0.0491155
0.0461482
0.00592444
-0.00377885
0.00571514
-0.00786074
0.00219258
-0.000932393
0.0141134
-0.0153736
0.000251537
0.00390914
-0.00416067
-0.0805346
0.079024
0.00151061
-0.00522736
0.00542535
-0.441461
0.441263
-0.00385758
0.00174823
-0.617424
0.619534
0.00197676
-0.00583258
-0.755652
0.759508
0.010423
-0.0150521
-0.88083
0.88546
0.0200689
-0.0251803
-1.00962
1.01473
0.0302652
-0.0348142
-1.15337
1.15792
0.0398583
-0.0439121
-1.31239
1.31644
0.0477034
-0.0508819
-1.48682
1.49
0.0531365
-0.0541278
-1.67923
1.68022
0.0539681
-0.0528413
-1.59228
1.59115
0.0513122
-0.0491783
-1.27972
1.27758
0.04683
-0.0434306
-1.02679
1.02339
0.0393915
-0.033907
-0.753111
0.747626
0.0277214
-0.0213143
-0.434143
0.427736
0.0167182
-0.0130419
-0.178711
0.175035
0.0104657
-0.00812617
-0.0422934
0.0399539
0.00612011
-0.00409234
0.0105119
-0.0125396
0.00248261
-0.0011073
0.016828
-0.0182033
0.000320018
0.0044104
-0.00473042
-0.0801203
0.0788101
0.0013102
-0.00411279
0.0041792
-0.444554
0.444488
-0.00292416
0.000930231
-0.624126
0.62612
0.00242228
-0.00606315
-0.763826
0.767467
0.010348
-0.0144339
-0.889817
0.893903
0.0194152
-0.0235367
-1.01917
1.02329
0.028375
-0.0325139
-1.16254
1.16668
0.0371343
-0.04105
-1.32035
1.32427
0.0447057
-0.0471757
-1.49277
1.49524
0.0491378
-0.0498184
-1.68094
1.68162
0.0495379
-0.0478674
-1.58969
1.58802
0.0460159
-0.0434737
-1.27525
1.27271
0.040813
-0.0370409
-1.01875
1.01498
0.0330338
-0.0278557
-0.739125
0.733946
0.0226624
-0.0175981
-0.419453
0.414389
0.0141292
-0.011525
-0.170198
0.167593
0.00957952
-0.00770882
-0.036746
0.0348753
0.00601543
-0.00418963
0.0149658
-0.0167916
0.00263592
-0.00124133
0.0196722
-0.0210668
0.000376166
0.00501087
-0.00538704
-0.0799484
0.0789717
0.000976639
-0.00307287
0.00273741
-0.447501
0.447837
-0.00173682
-0.000236251
-0.629888
0.631861
0.00317402
-0.00660103
-0.771259
0.774686
0.0105984
-0.0147033
-0.897796
0.901901
0.0189036
-0.0230439
-1.02756
1.0317
0.0276478
-0.0313567
-1.17117
1.17488
0.0357988
-0.0393648
-1.32785
1.33142
0.0426651
-0.0452248
-1.49797
1.50053
0.047068
-0.0473334
-1.68212
1.68239
0.0464941
-0.0446892
-1.58627
1.58447
0.0426065
-0.0395848
-1.26969
1.26667
0.0364331
-0.0325094
-1.01028
1.00636
0.0279492
-0.0231249
-0.726016
0.721192
0.018577
-0.0143811
-0.407608
0.403412
0.0117297
-0.00968941
-0.16372
0.161679
0.00820503
-0.00675474
-0.032258
0.0308077
0.00542045
-0.00390698
0.0189086
-0.020422
0.00255404
-0.00126038
0.0224672
-0.0237608
0.000406423
0.005676
-0.00608243
-0.0801655
0.0793665
0.000799056
-0.0021725
0.00193048
-0.450486
0.450728
-0.000472772
-0.00127739
-0.635556
0.637306
0.00432632
-0.00755385
-0.778001
0.781229
0.0113
-0.0148945
-0.905618
0.909212
0.0191045
-0.022791
-1.03578
1.03946
0.0271717
-0.0311522
-1.17897
1.18295
0.0349766
-0.0386115
-1.33491
1.33855
0.041987
-0.0442207
-1.5028
1.50504
0.0458682
-0.0462649
-1.68263
1.68303
0.0451262
-0.0431012
-1.58221
1.58019
0.0404392
-0.0370466
-1.26333
1.25994
0.0336027
-0.0291316
-1.00129
0.996821
0.0244395
-0.0195217
-0.713658
0.70874
0.0152926
-0.0115686
-0.397405
0.393681
0.00926799
-0.00760265
-0.158535
0.15687
0.00641049
-0.00535069
-0.0286854
0.0276256
0.00438874
-0.00327371
0.0221164
-0.0232314
0.00221029
-0.00114252
0.0249552
-0.026023
0.000390559
0.00634676
-0.00673732
-0.0806767
0.080054
0.000622767
-0.00113421
0.000749865
-0.453502
0.453886
0.000509035
-0.00251909
-0.640686
0.642696
0.00545408
-0.0084695
-0.784349
0.787365
0.0122255
-0.0155896
-0.912741
0.916105
0.0195378
-0.0232423
-1.04358
1.04729
0.0273883
-0.0311769
-1.18669
1.19048
0.0350244
-0.0384587
-1.34198
1.34541
0.0417087
-0.0443534
-1.5074
1.51004
0.0459402
-0.0460298
-1.6831
1.68319
0.0448801
-0.0423606
-1.57771
1.57519
0.0395111
-0.0358648
-1.25612
1.25247
0.0317723
-0.0268613
-0.991457
0.986546
0.0218469
-0.0166409
-0.701538
0.696332
0.0125806
-0.00904516
-0.388357
0.384822
0.00696392
-0.00544348
-0.154118
0.152597
0.00449449
-0.00374794
-0.0258877
0.0251411
0.00312936
-0.00242351
0.0244773
-0.0251832
0.00170149
-0.000933983
0.0269063
-0.0276738
0.000352083
0.00693959
-0.00729167
-0.0814266
0.0809289
0.000497766
-0.000279576
-0.000196163
-0.456601
0.457076
0.0014975
-0.00352023
-0.645791
0.647814