/*--------------------------------*- C++ -*----------------------------------*\
  =========                 |
  \\      /  F ield         | OpenFOAM: The Open Source CFD Toolbox
   \\    /   O peration     | Website:  https://openfoam.org
    \\  /    A nd           | Version:  6
     \\/     M anipulation  |
\*---------------------------------------------------------------------------*/
FoamFile
{
    version     2.0;
    format      ascii;
    class       volScalarField;
    location    "5.5";
    object      T;
}
// * * * * * * * * * * * * * * * * * * * * * * * * * * * * * * * * * * * * * //

dimensions      [0 0 0 1 0 0 0];

internalField   nonuniform List<scalar> 
5250
(
1.00001
1.00001
1.00005
1.00008
1.00027
1.00049
1.00155
1.00287
1.00853
1.01762
1.04568
1.11742
1.2716
1.73772
2.70154
2.77863
2.75216
2.74821
2.73683
2.74541
2.75876
2.77529
2.78313
2.78813
2.78947
1.00001
1.00001
1.00005
1.00008
1.00027
1.00049
1.00155
1.00286
1.00849
1.01753
1.04545
1.11682
1.27006
1.73486
2.69791
2.77659
2.75024
2.74673
2.73579
2.74502
2.75759
2.7737
2.78131
2.78557
2.7873
1.00001
1.00001
1.00005
1.00008
1.00027
1.00049
1.00153
1.00282
1.0084
1.01732
1.04496
1.11546
1.26665
1.72795
2.68821
2.77263
2.74613
2.74323
2.73349
2.74328
2.75581
2.7699
2.77789
2.7826
2.78247
1.00001
1.00001
1.00004
1.00008
1.00026
1.00048
1.0015
1.00277
1.00825
1.01697
1.04417
1.11319
1.26112
1.71602
2.67164
2.76597
2.74348
2.73915
2.72944
2.73975
2.75176
2.76618
2.77044
2.77555
2.77723
1.00001
1.00001
1.00004
1.00008
1.00026
1.00046
1.00146
1.00269
1.00805
1.01648
1.04304
1.10992
1.25333
1.69847
2.64909
2.75437
2.74414
2.73199
2.72094
2.73172
2.7415
2.75781
2.76406
2.76653
2.76541
1.00001
1.00001
1.00004
1.00008
1.00025
1.00045
1.00141
1.00259
1.00777
1.01582
1.04154
1.10555
1.24293
1.67504
2.61392
2.74176
2.73934
2.72817
2.71601
2.72447
2.73225
2.74377
2.74808
2.7545
2.75484
1.00001
1.00001
1.00004
1.00007
1.00023
1.00042
1.00134
1.00246
1.00741
1.01497
1.0396
1.09991
1.22973
1.64452
2.56384
2.72649
2.73061
2.72157
2.7084
2.71637
2.72149
2.73274
2.73643
2.73503
2.73113
1.00001
1.00001
1.00004
1.00007
1.00022
1.00039
1.00125
1.00229
1.00695
1.01391
1.03712
1.09299
1.21312
1.60604
2.49877
2.70279
2.72575
2.71519
2.70021
2.70173
2.70788
2.71035
2.71162
2.71468
2.70722
1
1.00001
1.00003
1.00006
1.0002
1.00036
1.00113
1.00207
1.00622
1.01267
1.03332
1.08596
1.19113
1.56238
2.41207
2.66894
2.7222
2.7117
2.69121
2.69009
2.69341
2.69502
2.6883
2.67409
2.64366
1
1.00001
1.00003
1.00005
1.00017
1.00031
1.00096
1.00182
1.00521
1.0113
1.02842
1.07655
1.16679
1.5066
2.31825
2.62407
2.71276
2.70258
2.68056
2.67088
2.66954
2.66447
2.65347
2.63267
2.56984
1
1.00001
1.00002
1.00006
1.00011
1.00034
1.00064
1.00183
1.00389
1.00986
1.02563
1.05787
1.16769
1.37892
2.08035
2.58833
2.70422
2.68967
2.66641
2.65485
2.65039
2.63658
2.60673
2.54918
2.422
1
1.00001
1.00002
1.00005
1.0001
1.0003
1.00055
1.00171
1.00326
1.0092
1.0204
1.04996
1.13511
1.30966
1.79077
2.5458
2.68007
2.66091
2.63156
2.61982
2.61803
2.60605
2.57047
2.49243
2.35444
1
1.00001
1.00002
1.00003
1.00011
1.0002
1.00063
1.00117
1.00354
1.00699
1.01914
1.0447
1.10639
1.28618
1.77335
2.50924
2.68098
2.64427
2.62666
2.59165
2.58036
2.56372
2.52927
2.46819
2.33828
1
1
1.00002
1.00003
1.0001
1.00018
1.00056
1.00102
1.00316
1.00606
1.01697
1.03879
1.09181
1.2547
1.63877
2.44283
2.65602
2.60803
2.60758
2.58834
2.56178
2.5352
2.4838
2.43943
2.33801
1
1
1.00001
1.00003
1.00008
1.00015
1.00048
1.00087
1.00264
1.00518
1.01396
1.03366
1.07795
1.2253
1.52283
2.30187
2.60504
2.60429
2.57969
2.57124
2.54991
2.52357
2.46403
2.41382
2.33571
1
1
1.00001
1.00002
1.00007
1.00013
1.0004
1.00073
1.00225
1.0043
1.01201
1.02735
1.06547
1.18447
1.42448
2.12073
2.5268
2.59593
2.56926
2.55593
2.52839
2.50632
2.45557
2.4038
2.33637
1
1
1.00001
1.00002
1.00006
1.0001
1.00032
1.00059
1.00182
1.00343
1.00974
1.02144
1.05246
1.1432
1.32446
1.92459
2.40077
2.56482
2.55247
2.53882
2.50937
2.48666
2.44329
2.38811
2.33327
1
1
1.00001
1.00001
1.00005
1.00008
1.00026
1.00046
1.00145
1.00266
1.00797
1.01607
1.04201
1.1038
1.24453
1.62752
2.33368
2.50856
2.5111
2.50475
2.48342
2.46756
2.43524
2.38257
2.32701
1
1
1.00001
1.00001
1.00004
1.00006
1.0002
1.00036
1.00113
1.00207
1.00627
1.01238
1.0331
1.08187
1.18444
1.52761
2.24431
2.46696
2.48691
2.47158
2.45766
2.42841
2.41318
2.37724
2.32633
1
1
1
1.00001
1.00003
1.00005
1.00015
1.00028
1.00086
1.00158
1.00468
1.00953
1.02478
1.0633
1.14016
1.40936
2.04881
2.38048
2.4704
2.45881
2.44251
2.41255
2.38013
2.3608
2.32204
1
1
1
1.00001
1.00002
1.00004
1.00012
1.00021
1.00065
1.00119
1.00363
1.0069
1.01958
1.0424
1.10585
1.26462
1.74549
2.24782
2.42913
2.42729
2.41558
2.39739
2.3652
2.33355
2.31013
1
1
1
1
1.00002
1.00003
1.00009
1.00015
1.00048
1.00088
1.0027
1.00508
1.01455
1.03135
1.07685
1.19956
1.49998
2.13449
2.3953
2.41101
2.3919
2.37838
2.35091
2.31695
2.28505
1
1
1
1
1.00001
1.00002
1.00006
1.00011
1.00035
1.00064
1.00196
1.0037
1.01039
1.02293
1.05571
1.15213
1.34408
1.92378
2.29036
2.38528
2.37952
2.36193
2.34045
2.31017
2.27507
1
1
1
1
1.00001
1.00001
1.00004
1.00008
1.00025
1.00045
1.00139
1.00258
1.00758
1.01533
1.04011
1.09507
1.23345
1.56141
2.16654
2.32556
2.34269
2.33494
2.31733
2.29419
2.26702
1
1
1
1
1
1.00001
1.00002
1.00007
1.00013
1.00041
1.00076
1.00226
1.00438
1.01216
1.02691
1.06524
1.17116
1.41366
1.9893
2.27767
2.32085
2.3156
2.29986
2.2765
2.25117
1
1
1
1
1
1.00001
1.00002
1.00005
1.00009
1.00029
1.00053
1.00161
1.00301
1.00864
1.01824
1.04581
1.11816
1.2711
1.69333
2.14604
2.28481
2.28741
2.27894
2.26151
2.234
1
1
1
1
1
1
1.00001
1.00003
1.00008
1.00015
1.00046
1.00086
1.00253
1.00496
1.01369
1.02944
1.07614
1.17565
1.5109
1.97652
2.22741
2.25913
2.25701
2.24376
2.22215
1
1
1
1
1
1
1.00001
1.00002
1.00006
1.0001
1.00031
1.00057
1.00174
1.00326
1.00944
1.01954
1.04947
1.12277
1.29448
1.71895
2.10602
2.22869
2.22959
2.22171
2.2051
1
1
1
1
1
1
1.00001
1.00002
1.00003
1.00008
1.00016
1.00047
1.0009
1.00259
1.00516
1.01412
1.0301
1.07961
1.17659
1.54605
1.91429
2.15618
2.20292
2.20554
2.19426
1
1
1
1
1
1
1
1.00001
1.00002
1.00004
1.00013
1.00024
1.00072
1.00136
1.00395
1.00797
1.02075
1.05016
1.1138
1.30915
1.78866
2.04584
2.14148
2.16782
2.16765
1
1
1
1
1
1
1
1.00001
1.00001
1.00004
1.00007
1.0002
1.00036
1.00109
1.00204
1.00589
1.01197
1.03088
1.07437
1.17198
1.44548
1.948
2.10224
2.12575
2.1351
1
1
1
1
1
1
1
1
1.00001
1.00002
1.00004
1.00013
1.00023
1.00071
1.00129
1.00388
1.0074
1.02029
1.04573
1.10564
1.28441
1.71605
2.02178
2.11124
2.11103
1
1
1
1
1
1
1
1
1
1.00001
1.00003
1.00008
1.00015
1.00044
1.00081
1.00241
1.0046
1.01301
1.02656
1.07083
1.15548
1.46811
1.82826
2.06143
2.09567
1
1
1
1
1
1
1
1
1
1.00001
1.00002
1.00004
1.00011
1.00021
1.00062
1.00117
1.00337
1.00667
1.01779
1.04041
1.09518
1.24392
1.64121
1.93328
2.06072
1
1
1
1
1
1
1
1
1
1.00001
1.00001
1.00003
1.00005
1.00016
1.00029
1.00086
1.00163
1.00455
1.00956
1.02384
1.06018
1.13098
1.36322
1.80287
1.99588
1
1
1
1
1
1
1
1
1
1
1.00001
1.00001
1.00004
1.00007
1.00022
1.00041
1.0012
1.00228
1.00637
1.01327
1.03319
1.08248
1.18243
1.49214
1.84562
1
1
1
1
1
1
1
1
1
1
1
1.00001
1.00002
1.00004
1.00014
1.00024
1.00074
1.00135
1.0039
1.00781
1.0198
1.04924
1.10471
1.30559
1.6979
1
1
1
1
1
1
1
1
1
1
1
1
1.00001
1.00003
1.00008
1.00015
1.00044
1.00081
1.0024
1.00454
1.0128
1.02597
1.06882
1.15021
1.4528
1
1
1
1
1
1
1
1
1
1
1
1
1.00001
1.00002
1.00004
1.00011
1.0002
1.00058
1.0011
1.00316
1.00624
1.01657
1.03724
1.08744
1.22171
1
1
1
1
1
1
1
1
1
1
1
1
1
1.00001
1.00003
1.00005
1.00014
1.00027
1.00078
1.00147
1.00409
1.0085
1.0212
1.05276
1.11485
1
1
1
1
1
1
1
1
1
1
1
1
1
1.00001
1.00001
1.00003
1.00006
1.00019
1.00036
1.00103
1.00197
1.00546
1.01119
1.02861
1.06516
1
1
1
1
1
1
1
1
1
1
1
1
1
1
1.00001
1.00002
1.00005
1.00009
1.00025
1.00048
1.00137
1.00265
1.00727
1.0151
1.03826
1
1
1
1
1
1
1
1
1
1
1
1
1
1
1
1.00001
1.00002
1.00007
1.00012
1.00036
1.00068
1.00197
1.0038
1.01051
1.02149
1
1
1
1
1
1
1
1
1
1
1
1
1
1
1
1.00001
1.00002
1.00005
1.00009
1.00027
1.00048
1.00149
1.00274
1.00817
1.01614
1
1
1
1
1
1
1
1
1
1
1
1
1
1
1
1.00001
1.00001
1.00004
1.00007
1.00022
1.0004
1.00125
1.0023
1.00699
1.01411
1
1
1
1
1
1
1
1
1
1
1
1
1
1
1
1.00001
1.00001
1.00003
1.00006
1.00019
1.00034
1.00106
1.00207
1.00581
1.01332
1
1
1
1
1
1
1
1
1
1
1
1
1
1
1
1
1.00001
1.00002
1.00007
1.00013
1.0004
1.00078
1.00215
1.00502
1.01222
1
1
1
1
1
1
1
1
1
1
1
1
1
1
1
1
1.00001
1.00002
1.00007
1.00013
1.00042
1.00076
1.0024
1.00473
1.01323
1
1
1
1
1
1
1
1
1
1
1
1
1
1
1
1
1.00001
1.00002
1.00006
1.00012
1.00037
1.00072
1.00198
1.00465
1.01125
1
1
1
1
1
1
1
1
1
1
1
1
1
1
1
1
1.00001
1.00003
1.00005
1.00016
1.00029
1.00091
1.00177
1.00505
1.01154
2.35421
2.33945
2.52318
2.92157
2.91181
2.93511
2.92635
2.89602
2.87836
2.85649
2.83264
2.8142
2.79164
2.77797
2.75665
2.74281
2.72078
2.70867
2.68909
2.67887
2.65954
2.64999
2.64048
2.63675
2.63534
2.64077
2.65377
2.67648
2.70477
2.73495
2.76622
2.7914
2.81619
2.83863
2.85419
2.87023
2.87942
2.88979
2.89553
2.90118
2.90352
2.9056
2.90168
2.90266
2.90194
2.90138
2.899
2.89751
2.89379
2.8919
2.8878
2.88499
2.8808
2.87688
2.87379
2.8701
2.86649
2.86305
2.859
2.85489
2.85038
2.84607
2.84066
2.8362
2.82963
2.82504
2.81719
2.8123
2.80344
2.79775
2.78843
2.78169
2.77223
2.76466
2.75494
2.74687
2.73705
2.72841
2.71854
2.7097
2.69967
2.69061
2.68052
2.67135
2.66117
2.65191
2.64157
2.63237
2.6218
2.61279
2.60203
2.59329
2.58262
2.5741
2.56423
2.55588
2.54804
2.54039
2.53583
2.53062
2.28192
2.27218
2.46846
2.602
2.85915
2.91511
2.96898
3.00383
2.97617
2.9323
2.91447
2.90921
2.90147
2.89403
2.88482
2.87424
2.85902
2.85084
2.83604
2.82765
2.81289
2.79939
2.79249
2.78987
2.78992
2.795
2.80742
2.8262
2.84983
2.8692
2.88756
2.90092
2.90725
2.91001
2.90987
2.909
2.90492
2.89904
2.88945
2.88269
2.8709
2.86359
2.85367
2.84709
2.8376
2.82967
2.82098
2.81262
2.80405
2.79567
2.78827
2.78102
2.77308
2.76543
2.7576
2.75076
2.74375
2.73782
2.73082
2.7246
2.71723
2.71096
2.70334
2.69659
2.68857
2.68131
2.67255
2.66503
2.65551
2.64772
2.63775
2.62961
2.61935
2.61097
2.60049
2.59188
2.58136
2.57263
2.56205
2.5533
2.54279
2.53402
2.52359
2.51483
2.50448
2.49575
2.48539
2.4768
2.46636
2.45804
2.44751
2.43952
2.4292
2.42139
2.41195
2.40428
2.39666
2.38983
2.38531
2.38112
2.28436
2.24884
2.29378
2.40893
2.52781
2.66798
2.7375
2.8592
2.91944
2.929
2.9617
2.98858
3.00689
2.98478
2.97113
2.95594
2.95148
2.95139
2.94682
2.94218
2.93939
2.93168
2.92709
2.927
2.92843
2.93653
2.94517
2.9567
2.96612
2.96946
2.96388
2.95628
2.94358
2.93042
2.91479
2.89742
2.88262
2.8622
2.84733
2.82859
2.81377
2.79793
2.78417
2.77023
2.75726
2.74598
2.73271
2.72248
2.71171
2.70282
2.69197
2.68367
2.67527
2.66903
2.6609
2.65433
2.64634
2.64127
2.63408
2.62952
2.62178
2.61742
2.60919
2.60472
2.59581
2.5909
2.58141
2.57577
2.566
2.55953
2.54953
2.54241
2.53208
2.52441
2.51383
2.50561
2.49496
2.4863
2.4756
2.46678
2.45609
2.44723
2.4366
2.42778
2.41716
2.40852
2.39781
2.38945
2.37868
2.37066
2.35992
2.35222
2.34183
2.33427
2.32487
2.31748
2.30999
2.3035
2.29897
2.29514
2.27193
2.23004
2.21378
2.26936
2.34012
2.42087
2.50228
2.56411
2.66888
2.75976
2.83523
2.88692
2.93311
2.9497
2.95808
2.9701
2.99078
3.00169
3.00469
3.00504
2.9988
2.99481
2.99468
3.00181
3.00514
3.0073
3.00929
3.00473
2.99119
2.97923
2.96706
2.94422
2.92071
2.89564
2.86668
2.84428
2.81611
2.79461
2.77025
2.75107
2.72953
2.7124
2.6934
2.67859
2.66206
2.64828
2.63396
2.62256
2.60901
2.59912
2.58838
2.57994
2.56951
2.56215
2.55414
2.54802
2.54047
2.53454
2.52814
2.52298
2.51701
2.51201
2.50624
2.50141
2.49562
2.49056
2.48475
2.47904
2.4733
2.46682
2.46096
2.45392
2.44762
2.44028
2.43339
2.4258
2.41841
2.41054
2.40275
2.39471
2.38649
2.37834
2.36974
2.36152
2.35251
2.34431
2.33494
2.32682
2.31718
2.30905
2.29941
2.29118
2.28196
2.27345
2.26518
2.25649
2.24982
2.24173
2.23758
2.23211
2.25767
2.21596
2.18139
2.18931
2.23169
2.27694
2.33464
2.38053
2.43534
2.50167
2.56806
2.64804
2.71913
2.8017
2.85582
2.88714
2.91121
2.93238
2.94205
2.95598
2.96788
2.97588
2.98459
2.98954
2.9923
2.98758
2.97684
2.95614
2.93754
2.91375
2.88226
2.84757
2.8142
2.78013
2.75126
2.72276
2.69782
2.67449
2.65327
2.63424
2.61694
2.60165
2.58772
2.57523
2.56341
2.55344
2.54271
2.53394
2.52498
2.51767
2.50921
2.50317
2.49605
2.48961
2.48275
2.47696
2.47107
2.46478
2.45882
2.45238
2.44691
2.44004
2.43467
2.42766
2.42226
2.41533
2.40978
2.40295
2.39706
2.39028
2.38394
2.37708
2.37027
2.36334
2.35599
2.34909
2.34122
2.33436
2.32609
2.31927
2.31071
2.30391
2.29518
2.2884
2.27958
2.27284
2.26398
2.25729
2.24847
2.24195
2.23336
2.22694
2.21886
2.2124
2.20517
2.19876
2.19275
2.18721
2.18324
2.18057
2.25971
2.2035
2.17093
2.15119
2.16345
2.1922
2.22369
2.25795
2.28904
2.32868
2.37067
2.41806
2.47614
2.5306
2.59773
2.66592
2.72639
2.78199
2.82932
2.85917
2.88279
2.90068
2.91244
2.91969
2.92468
2.91728
2.89473
2.85944
2.81844
2.76971
2.72317
2.67873
2.64293
2.61054
2.58433
2.56039
2.54171
2.52506
2.51118
2.49865
2.48764
2.47828
2.46936
2.46219
2.45475
2.44856
2.44173
2.43627
2.42949
2.42508
2.41935
2.41549
2.41104
2.40821
2.40392
2.40097
2.3974
2.39533
2.39108
2.38823
2.38312
2.37998
2.37429
2.37073
2.36441
2.36025
2.35345
2.34871
2.34167
2.33655
2.32927
2.32396
2.31636
2.31091
2.30293
2.2973
2.28904
2.28311
2.2747
2.2683
2.25975
2.25284
2.24405
2.23673
2.22756
2.22007
2.21065
2.20315
2.19368
2.18618
2.1769
2.16924
2.16042
2.1525
2.1445
2.13656
2.12986
2.12274
2.11824
2.11392
2.26693
2.20576
2.1626
2.13985
2.12918
2.13993
2.15739
2.17457
2.19638
2.21543
2.2449
2.26895
2.30469
2.34036
2.38234
2.42674
2.47797
2.52687
2.58273
2.63676
2.6856
2.72553
2.75578
2.77944
2.78379
2.77678
2.74397
2.69118
2.63574
2.57343
2.52253
2.47645
2.44793
2.4287
2.4173
2.40842
2.40214
2.39705
2.39306
2.39033
2.38759
2.38574
2.38291
2.38111
2.3779
2.37616
2.37257
2.37014
2.36597
2.36236
2.35773
2.35364
2.34848
2.34438
2.33991
2.33589
2.33133
2.32825
2.32474
2.32139
2.31729
2.31339
2.30929
2.30516
2.30093
2.2964
2.29169
2.28672
2.28138
2.27609
2.27023
2.26465
2.25844
2.25248
2.24602
2.23971
2.23305
2.22655
2.21973
2.21321
2.20619
2.19975
2.19248
2.18617
2.17883
2.17269
2.1653
2.15917
2.15177
2.14546
2.13817
2.13155
2.12459
2.11761
2.11124
2.10407
2.09856
2.09196
2.08796
2.084
2.26892
2.21338
2.16444
2.13213
2.11496
2.10837
2.11379
2.12067
2.13223
2.14273
2.15611
2.17464
2.18982
2.21531
2.23709
2.2684
2.2975
2.33536
2.37221
2.41774
2.46144
2.50917
2.54357
2.58024
2.59707
2.59419
2.55805
2.51023
2.44862
2.39376
2.3485
2.31575
2.29821
2.29002
2.29491
2.30039
2.30758
2.31163
2.31508
2.31685
2.31785
2.31824
2.31818
2.31784
2.31691
2.3159
2.31396
2.31246
2.31041
2.30881
2.30622
2.30457
2.30166
2.29937
2.29567
2.2935
2.2893
2.28684
2.28285
2.28024
2.27594
2.27274
2.26833
2.26495
2.26034
2.25679
2.25161
2.2478
2.24192
2.23773
2.23144
2.22692
2.2205
2.21561
2.20918
2.20388
2.19735
2.19169
2.18488
2.17891
2.17166
2.16537
2.1578
2.15131
2.14344
2.13676
2.12867
2.12188
2.11372
2.1069
2.09895
2.09211
2.08462
2.07775
2.07095
2.06426
2.05833
2.0525
2.04808
2.04509
2.27093
2.21942
2.17162
2.13317
2.10821
2.09262
2.08774
2.08602
2.0887
2.09423
2.09855
2.10855
2.11565
2.12988
2.14285
2.16013
2.18044
2.2032
2.23304
2.26538
2.30301
2.34095
2.38277
2.42581
2.45579
2.45481
2.42531
2.38078
2.33085
2.28694
2.2514
2.22896
2.21306
2.20708
2.20945
2.21957
2.23103
2.24135
2.24885
2.25367
2.25712
2.2582
2.26001
2.26033
2.26032
2.26011
2.25953
2.25877
2.25741
2.25642
2.25489
2.25385
2.25216
2.25115
2.24913
2.24783
2.24549
2.24425
2.24181
2.23988
2.23675
2.2342
2.23067
2.22777
2.22377
2.2205
2.216
2.21235
2.20737
2.20319
2.1979
2.19308
2.18762
2.18233
2.17669
2.17115
2.16522
2.15957
2.15319
2.14742
2.14061
2.13488
2.12783
2.1221
2.11489
2.10912
2.10177
2.09587
2.08846
2.08232
2.075
2.06853
2.06152
2.05471
2.04819
2.04134
2.03547
2.0293
2.02473
2.02132
2.27351
2.22299
2.1788
2.13693
2.10813
2.08576
2.07307
2.06517
2.06129
2.06004
2.06023
2.06253
2.06565
2.07132
2.07887
2.08828
2.10076
2.11767
2.14042
2.16896
2.19878
2.23551
2.28274
2.33715
2.36836
2.36567
2.33883
2.30029
2.25765
2.21353
2.17819
2.15419
2.13833
2.12814
2.12514
2.12911
2.14077
2.15643
2.17137
2.18421
2.19316
2.20062
2.20529
2.20898
2.21215
2.21386
2.2165
2.21761
2.21865
2.2192
2.21913
2.2188
2.21788
2.2169
2.21492
2.21334
2.21107
2.20971
2.20743
2.20578
2.20265
2.20059
2.19692
2.19466
2.19042
2.18789
2.18322
2.18025
2.17537
2.17187
2.16686
2.16277
2.15757
2.15302
2.14748
2.14258
2.13659
2.13138
2.12486
2.11932
2.11248
2.10662
2.09959
2.09351
2.08639
2.08019
2.07301
2.06676
2.05959
2.05328
2.04629
2.03986
2.03322
2.02664
2.02042
2.01387
2.00813
2.0022
1.99755
1.99428
2.27087
2.22742
2.18454
2.14565
2.11053
2.08511
2.06631
2.05319
2.04401
2.03814
2.03378
2.0318
2.03049
2.03146
2.03444
2.03974
2.04837
2.06263
2.08255
2.10812
2.13685
2.17929
2.23975
2.29926
2.32506
2.31626
2.29071
2.25651
2.21404
2.17137
2.13455
2.10979
2.09311
2.08493
2.07997
2.08021
2.08438
2.09642
2.11207
2.12939
2.14474
2.15628
2.16537
2.17084
2.17566
2.17891
2.18184
2.18479
2.18652
2.18892
2.18982
2.19062
2.19055
2.19016
2.18894
2.18778
2.18536
2.18394
2.18099
2.17891
2.17487
2.17234
2.16791
2.16525
2.16071
2.15805
2.15357
2.15048
2.14584
2.14197
2.13715
2.13276
2.12777
2.12323
2.11802
2.11346
2.10794
2.10327
2.09739
2.09248
2.08633
2.08103
2.07462
2.06899
2.06229
2.05648
2.04948
2.04356
2.03639
2.03032
2.0233
2.01703
2.01047
2.00404
1.99802
1.99171
1.98616
1.98057
1.97595
1.97308
2.25876
2.2237
2.18604
2.14911
2.11733
2.08736
2.06555
2.048
2.03481
2.02465
2.0165
2.01076
2.00589
2.00385
2.0024
2.00503
2.0125
2.02741
2.04523
2.07071
2.10576
2.16188
2.23836
2.29094
2.30465
2.29009
2.2638
2.2296
2.18515
2.1432
2.10969
2.08416
2.06543
2.05316
2.04622
2.04105
2.04092
2.04401
2.05387
2.06808
2.08614
2.10336
2.11756
2.12863
2.13659
2.14199
2.1462
2.1492
2.1517
2.15403
2.15529
2.15712
2.15762
2.15799
2.15776
2.15719
2.15595
2.15513
2.1533
2.15181
2.14859
2.14647
2.14251
2.14
2.1358
2.13302
2.12873
2.1256
2.12116
2.11751
2.11276
2.10866
2.10359
2.09934
2.09392
2.08956
2.08377
2.07908
2.07309
2.06806
2.06201
2.05667
2.05052
2.04503
2.03875
2.03323
2.02677
2.02111
2.01456
2.00853
2.00212
1.99564
1.98958
1.98286
1.97716
1.97058
1.96515
1.95935
1.95468
1.9516
2.24264
2.21123
2.18164
2.14881
2.11801
2.09052
2.06648
2.04719
2.0312
2.01845
2.0074
1.99882
1.99107
1.98635
1.98269
1.98388
1.9915
2.00654
2.02509
2.05265
2.10169
2.1768
2.25968
2.29408
2.2931
2.27523
2.24775
2.21001
2.16714
2.13033
2.09939
2.07313
2.05169
2.03559
2.02366
2.01668
2.01256
2.01268
2.01485
2.02216
2.03436
2.05158
2.07
2.08677
2.10079
2.11131
2.11939
2.12511
2.12937
2.13214
2.13417
2.13522
2.13577
2.13536
2.13414
2.13292
2.13034
2.12891
2.12601
2.12408
2.12022
2.11757
2.11344
2.11057
2.10643
2.10353
2.09937
2.09622
2.09182
2.08833
2.08363
2.07992
2.07495
2.07115
2.066
2.06202
2.0567
2.05227
2.04677
2.04186
2.03616
2.03093
2.02499
2.01967
2.01352
2.00824
2.00196
1.99658
1.99032
1.98458
1.97852
1.97237
1.96666
1.96035
1.95495
1.949
1.94376
1.93877
1.93415
1.93197
2.23557
2.20252
2.17107
2.1419
2.11552
2.08954
2.06622
2.04545
2.02889
2.01429
2.00194
1.99177
1.98227
1.97647
1.97177
1.97469
1.98529
1.99774
2.02306
2.05838
2.12996
2.22102
2.28323
2.29751
2.28835
2.26685
2.23836
2.19738
2.16025
2.12663
2.09651
2.06993
2.04765
2.02832
2.01367
2.00375
1.99742
1.99353
1.99334
1.99368
1.9982
2.00856
2.02302
2.04123
2.05836
2.07341
2.08452
2.09286
2.09762
2.10095
2.10267
2.10383
2.10446
2.10482
2.1044
2.10382
2.10249
2.10167
2.09992
2.09847
2.09535
2.09305
2.08903
2.08628
2.08195
2.07911
2.07468
2.0717
2.06711
2.06388
2.05906
2.05551
2.05046
2.04658
2.04145
2.03728
2.03214
2.02767
2.02235
2.01762
2.01194
2.0071
2.00108
1.99628
1.99007
1.98529
1.97911
1.97411
1.96815
1.9627
1.95704
1.95109
1.94566
1.93953
1.93415
1.9284
1.923
1.91828
1.91349
1.91158
2.22668
2.19787
2.16733
2.13865
2.11011
2.08639
2.06429
2.04442
2.02585
2.01212
1.99755
1.98778
1.97687
1.9714
1.96853
1.97455
1.98663
2.0022
2.03296
2.09476
2.18714
2.27142
2.30237
2.30084
2.28701
2.26472
2.23013
2.19342
2.15895
2.12802
2.10034
2.0758
2.05351
2.03377
2.01686
2.00132
1.98964
1.98148
1.97609
1.97354
1.97282
1.97455
1.981
1.99189
2.00746
2.02435
2.04053
2.05345
2.0635
2.07061
2.07482
2.07767
2.07878
2.07936
2.07897
2.07821
2.0766
2.07568
2.07377
2.07231
2.0692
2.06696
2.06289
2.06006
2.05551
2.05241
2.04766
2.04442
2.03968
2.03636
2.03176
2.02822
2.02361
2.01974
2.0151
2.01107
2.0063
2.00213
1.99705
1.99276
1.98724
1.98283
1.97695
1.97242
1.96638
1.96163
1.95566
1.95053
1.94487
1.93934
1.93405
1.92826
1.92316
1.91743
1.91222
1.90698
1.90159
1.89732
1.8925
1.89086
2.20948
2.18591
2.15936
2.13182
2.10594
2.07971
2.05832
2.0396
2.02253
2.00783
1.99482
1.98388
1.97529
1.97046
1.97217
1.97979
1.9945
2.02033
2.07069
2.15726
2.25623
2.30634
2.31376
2.30591
2.28772
2.26085
2.22641
2.19313
2.16284
2.1352
2.10924
2.0853
2.06211
2.04152
2.02153
2.00458
1.98904
1.97555
1.96507
1.95887
1.95433
1.95336
1.95201
1.95515
1.96315
1.97629
1.99247
2.00937
2.02469
2.03629
2.04512
2.05012
2.05363
2.05465
2.05569
2.05508
2.05385
2.05311
2.05149
2.05015
2.04717
2.04498
2.041
2.0382
2.03377
2.03053
2.0258
2.02226
2.01744
2.01369
2.00895
2.00508
2.00044
1.99649
1.99185
1.98794
1.98316
1.97927
1.97425
1.97029
1.96495
1.96084
1.9553
1.95103
1.94548
1.94096
1.93555
1.93063
1.92542
1.92009
1.91509
1.90954
1.9046
1.89916
1.89411
1.88914
1.88397
1.87991
1.87531
1.8737
2.19855
2.17714
2.15374
2.12835
2.10274
2.07865
2.05387
2.03513
2.01562
2.00237
1.98828
1.9799
1.97263
1.97283
1.98197
1.9932
2.01573
2.05861
2.13829
2.24065
2.30925
2.32704
2.32232
2.30831
2.28929
2.25651
2.22547
2.19582
2.16931
2.14314
2.11847
2.09404
2.071
2.04908
2.02819
2.00914
1.99076
1.97484
1.9607
1.94834
1.94062
1.93425
1.93092
1.9298
1.9305
1.93569
1.94625
1.96163
1.97791
1.99394
2.00672
2.01704
2.02318
2.0276
2.02882
2.02947
2.02821
2.0274
2.02572
2.02443
2.02156
2.01955
2.01572
2.01299
2.00854
2.00526
2.00041
1.99683
1.9918
1.988
1.98298
1.9791
1.97412
1.97022
1.96525
1.96138
1.95636
1.95259
1.94755
1.94384
1.93877
1.93499
1.9299
1.92595
1.92095
1.91674
1.91195
1.90735
1.90275
1.89777
1.89328
1.88809
1.88359
1.87851
1.87385
1.8692
1.86438
1.86054
1.85624
1.85467
2.17952
2.15737
2.13898
2.11989
2.09788
2.07641
2.05281
2.03262
2.01377
1.99702
1.9853
1.97408
1.97395
1.97908
1.99026
2.01107
2.04725
2.12019
2.22251
2.30423
2.33466
2.33435
2.32509
2.30735
2.2812
2.25176
2.22436
2.19792
2.17323
2.14795
2.12432
2.10008
2.07745
2.05466
2.0335
2.01226
1.9932
1.97477
1.95903
1.94455
1.93268
1.92221
1.91638
1.91219
1.91054
1.9106
1.91278
1.92011
1.93179
1.94617
1.96179
1.97537
1.98702
1.9948
2.00023
2.00227
2.0033
2.00253
2.0011
2.00004
1.9976
1.99567
1.99191
1.98919
1.98484
1.98162
1.97682
1.97321
1.968
1.96404
1.95867
1.9546
1.94936
1.94536
1.94026
1.93631
1.93131
1.92748
1.9226
1.9189
1.91407
1.91038
1.90554
1.9017
1.89695
1.89291
1.8884
1.88412
1.87987
1.87532
1.87125
1.86651
1.86249
1.85782
1.85364
1.84942
1.84504
1.84164
1.83772
1.83645
2.17369
2.14887
2.12443
2.10586
2.08464
2.06897
2.04964
2.03038
2.01313
1.99609
1.98453
1.97735
1.97946
1.98929
2.00678
2.03805
2.10332
2.20143
2.29524
2.33544
2.33983
2.33277
2.31724
2.2952
2.26838
2.2432
2.21964
2.19634
2.17383
2.14993
2.12751
2.10387
2.08169
2.05916
2.03777
2.01662
1.99719
1.97821
1.96102
1.94455
1.9301
1.9173
1.90759
1.89864
1.89507
1.89059
1.88967
1.88867
1.89183
1.89996
1.91188
1.9263
1.94046
1.9534
1.96304
1.97022
1.97372
1.97581
1.97527
1.97459
1.97305
1.97153
1.96828
1.96564
1.96147
1.95817
1.95343
1.94976
1.94463
1.94078
1.9355
1.93153
1.92622
1.92221
1.91693
1.91295
1.90781
1.90409
1.89918
1.89573
1.89103
1.88769
1.88311
1.87966
1.8752
1.8715
1.86724
1.86325
1.85927
1.85499
1.85124
1.84679
1.84311
1.8388
1.835
1.83118
1.8272
1.82418
1.82068
1.81949
2.1608
2.1432
2.11934
2.09757
2.0767
2.05536
2.03998
2.02257
2.00941
1.99579
1.98607
1.98501
1.99327
2.00722
2.03371
2.09046
2.18062
2.28282
2.33274
2.34292
2.33787
2.32507
2.30657
2.28143
2.25835
2.23694
2.21667
2.19569
2.17503
2.15259
2.13164
2.10801
2.08744
2.06399
2.04407
2.02189
2.00292
1.98261
1.96469
1.9468
1.93056
1.91602
1.90254
1.89172
1.8825
1.87538
1.87122
1.86696
1.86566
1.86571
1.87056
1.87986
1.89262
1.90704
1.92058
1.93224
1.94062
1.94632
1.94859
1.94951
1.94832
1.94738
1.94524
1.94305
1.93918
1.93591
1.93143
1.92784
1.92293
1.91908
1.91375
1.90969
1.90418
1.90015
1.89468
1.89083
1.8855
1.88195
1.87693
1.8736
1.86894
1.8657
1.86139
1.85808
1.85412
1.85061
1.84698
1.84321
1.83985
1.83579
1.83264
1.82841
1.82528
1.8213
1.81798
1.81463
1.81124
1.8087
1.80589
1.80496
2.12954
2.12485
2.11135
2.09242
2.07314
2.0526
2.03298
2.01644
2.00152
1.99189
1.99012
1.9976
2.01186
2.03577
2.0846
2.16953
2.27307
2.333
2.34827
2.34443
2.33297
2.31742
2.29379
2.27166
2.25185
2.23329
2.21456
2.19546
2.17524
2.15452
2.1333
2.11175
2.09065
2.06854
2.04796
2.02609
2.00661
1.98563
1.96759
1.94843
1.93195
1.91541
1.90069
1.88721
1.87457
1.86505
1.85646
1.85076
1.84599
1.84275
1.84171
1.84304
1.84944
1.85995
1.873
1.88658
1.89883
1.90861
1.91541
1.91912
1.92056
1.92005
1.91887
1.91751
1.91474
1.91153
1.90738
1.9037
1.89912
1.89518
1.89024
1.88604
1.88089
1.8765
1.87128
1.8669
1.86185
1.85782
1.85293
1.8494
1.84469
1.84161
1.8372
1.83429
1.83041
1.82737
1.82416
1.82077
1.81816
1.81454
1.8122
1.80866
1.80634
1.80312
1.8007
1.79817
1.79563
1.79413
1.79212
1.79193
2.10611
2.09567
2.0853
2.07724
2.06522
2.04858
2.03164
2.01351
2.00167
1.99424
1.99907
2.01109
2.03525
2.07837
2.15919
2.26234
2.3312
2.35317
2.35043
2.34078
2.32567
2.30243
2.28087
2.26212
2.24473
2.22819
2.21066
2.19312
2.17368
2.15426
2.13331
2.11251
2.091
2.06957
2.0487
2.02779
2.00797
1.98781
1.9692
1.95008
1.93302
1.91551
1.90019
1.88481
1.87141
1.85863
1.84741
1.83837
1.83045
1.82506
1.81967
1.81774
1.81665
1.81921
1.82652
1.83713
1.85003
1.86214
1.87306
1.88101
1.886
1.88837
1.88854
1.88774
1.88621
1.88424
1.88083
1.87724
1.87295
1.86883
1.86433
1.85982
1.85513
1.85025
1.84533
1.84059
1.83563
1.83128
1.82655
1.8226
1.81835
1.81471
1.8109
1.80753
1.80411
1.80104
1.79807
1.7953
1.79274
1.79023
1.78797
1.78576
1.78368
1.78192
1.78003
1.77888
1.77737
1.77692
1.77642
1.77688
2.09371
2.08209
2.07107
2.05256
2.04357
2.0344
2.02543
2.01348
2.00326
2.00565
2.01594
2.0364
2.07362
2.14875
2.24948
2.32678
2.35286
2.35195
2.34256
2.32782
2.30457
2.28399
2.26617
2.2505
2.23512
2.21952
2.20299
2.18588
2.16733
2.14889
2.12872
2.10927
2.08836
2.06889
2.04812
2.02897
2.00855
1.99007
1.97027
1.95278
1.93423
1.91734
1.90073
1.88426
1.86995
1.85418
1.84214
1.8283
1.81882
1.80866
1.80219
1.7951
1.79094
1.78871
1.78863
1.79232
1.79987
1.81064
1.823
1.8338
1.84351
1.84978
1.85382
1.85509
1.85488
1.85415
1.85251
1.85002
1.84635
1.84234
1.83817
1.83388
1.82925
1.82467
1.81966
1.81507
1.81009
1.80564
1.80098
1.79684
1.79263
1.78895
1.7852
1.78196
1.77865
1.77578
1.77295
1.77047
1.7681
1.76599
1.76408
1.7624
1.76092
1.75996
1.759
1.75872
1.7588
1.75917
1.76008
1.76111
2.07528
2.07359
2.06174
2.04638
2.02809
2.01711
2.00803
2.00715
2.00961
2.02154
2.04217
2.07617
2.14621
2.2456
2.32848
2.35893
2.35955
2.35034
2.33437
2.31036
2.28856
2.27098
2.25581
2.24186
2.2278
2.21286
2.19749
2.18083
2.16366
2.14552
2.12658
2.10776
2.08808
2.06921
2.04933
2.03029
2.01036
1.99165
1.97179
1.95412
1.9345
1.91807
1.89892
1.88349
1.86527
1.85049
1.83414
1.81999
1.80641
1.79409
1.78415
1.77486
1.76817
1.76148
1.7587
1.75685
1.75818
1.76366
1.77191
1.78349
1.79527
1.80582
1.81456
1.81985
1.82316
1.82391
1.8236
1.82274
1.82059
1.81741
1.81329
1.80904
1.80441
1.79968
1.79513
1.79017
1.78575
1.78084
1.77661
1.77212
1.76814
1.76422
1.76054
1.75718
1.75386
1.75106
1.74817
1.74586
1.74356
1.7417
1.73996
1.73884
1.73771
1.73744
1.73759
1.73805
1.73926
1.74054
1.74336
1.74481
2.04628
2.05206
2.0488
2.03903
2.02346
2.00807
2.00004
2.00123
2.01571
2.03919
2.07213
2.14028
2.24064
2.33178
2.36684
2.36825
2.3588
2.34152
2.31573
2.29334
2.27526
2.26093
2.24784
2.23524
2.22193
2.20766
2.19273
2.17647
2.15988
2.14201
2.12398
2.10529
2.08629
2.06717
2.0478
2.02818
2.00909
1.98907
1.9705
1.95058
1.93247
1.91305
1.89542
1.87678
1.85954
1.84231
1.82551
1.81016
1.79472
1.78154
1.76856
1.75829
1.74885
1.74136
1.73469
1.7304
1.72898
1.72912
1.73195
1.73895
1.74881
1.76103
1.77202
1.78232
1.7896
1.7943
1.79652
1.79649
1.79612
1.79472
1.79199
1.7876
1.78335
1.7784
1.77389
1.76895
1.76438
1.75955
1.75509
1.75055
1.74641
1.74239
1.73872
1.73527
1.73219
1.72916
1.72679
1.7242
1.72246
1.72063
1.71958
1.71867
1.71869
1.71903
1.71993
1.72117
1.72274
1.72588
1.72947
1.73214
2.01151
2.03002
2.03096
2.02562
2.01718
2.00653
1.99994
2.00991
2.02942
2.06276
2.13071
2.23313
2.33043
2.37029
2.37305
2.3636
2.34488
2.31718
2.2933
2.27458
2.25988
2.24739
2.23536
2.22344
2.20987
2.19654
2.18087
2.16585
2.14865
2.13165
2.11353
2.09503
2.07652
2.05744
2.03856
2.01933
2.00009
1.98061
1.96152
1.94201
1.92353
1.90439
1.8867
1.86805
1.85125
1.83335
1.81728
1.80081
1.78577
1.77116
1.75795
1.7458
1.73522
1.72626
1.71852
1.71198
1.70701
1.7045
1.70458
1.70604
1.71112
1.71861
1.72989
1.74175
1.75256
1.76205
1.76781
1.77188
1.77258
1.7723
1.77142
1.7689
1.76477
1.76036
1.75529
1.75068
1.74561
1.7412
1.7363
1.73208
1.72761
1.72358
1.71977
1.71623
1.71295
1.71023
1.70737
1.70542
1.70329
1.7021
1.70106
1.70115
1.70164
1.7026
1.70429
1.70655
1.7098
1.71503
1.72031
1.7243
1.93818
2.01519
2.01518
2.01403
2.00517
2.00092
2.00577
2.02625
2.05702
2.1187
2.22142
2.32794
2.37343
2.37653
2.36656
2.34612
2.31605
2.29035
2.27035
2.25543
2.24298
2.23191
2.22042
2.20848
2.19536
2.1816
2.16667
2.15147
2.13483
2.11848
2.10058
2.08323
2.06488
2.04663
2.02807
2.00939
1.99047
1.97189
1.95291
1.93477
1.91607
1.89854
1.88016
1.86324
1.84506
1.82876
1.81129
1.79601
1.7798
1.76602
1.75153
1.7394
1.72706
1.71712
1.70753
1.70013
1.69269
1.68738
1.6836
1.68316
1.68401
1.68687
1.69358
1.70228
1.71448
1.72549
1.73622
1.74352
1.74861
1.75056
1.75023
1.74953
1.74768
1.74371
1.73916
1.73385
1.72908
1.7239
1.71932
1.71468
1.71026
1.70624
1.70218
1.69864
1.69536
1.69226
1.6899
1.68747
1.68612
1.68479
1.68486
1.68529
1.68659
1.68789
1.69055
1.69452
1.69991
1.70666
1.71425
1.71984
1.74928
1.96108
2.00063
2.00301