/*--------------------------------*- C++ -*----------------------------------*\
  =========                 |
  \\      /  F ield         | OpenFOAM: The Open Source CFD Toolbox
   \\    /   O peration     | Website:  https://openfoam.org
    \\  /    A nd           | Version:  6
     \\/     M anipulation  |
\*---------------------------------------------------------------------------*/
FoamFile
{
    version     2.0;
    format      ascii;
    class       surfaceScalarField;
    location    "46.4";
    object      phi;
}
// * * * * * * * * * * * * * * * * * * * * * * * * * * * * * * * * * * * * * //

dimensions      [0 3 -1 0 0 0 0];

internalField   nonuniform List<scalar> 
17370
(
-0.0900016
0.0898512
0.289161
-0.0714655
0.0537562
0.364485
-0.0381236
0.0276947
0.426597
-0.0196422
0.0146081
0.504286
-0.0107646
0.00827311
0.601894
-0.00627339
0.00489873
0.720432
-0.00373881
0.00290229
0.863743
-0.00216446
0.00160773
1.03601
-0.00109315
0.000682414
1.24291
-0.000276172
-0.000112566
1.49158
0.000489964
-0.000895666
1.4916
0.00128974
-0.00177776
1.24318
0.00230843
-0.00302107
1.03635
0.00384166
-0.00499215
0.864057
0.00636236
-0.00835748
0.721053
0.0108428
-0.0146783
0.60305
0.0197053
-0.0277506
0.507485
0.0381738
-0.0537989
0.431793
0.0715004
-0.0898743
0.365149
0.0900149
0.198996
-0.128131
0.0882169
0.0399145
-0.364594
0.353367
-0.0746848
0.085911
-0.446474
0.454313
-0.0844133
0.0765742
-0.521187
0.529895
-0.0684802
0.0597725
-0.612784
0.621561
-0.0515862
0.0428086
-0.72689
0.734154
-0.0353502
0.0280858
-0.867472
0.872576
-0.0224929
0.017389
-1.03847
1.04191
-0.0135884
0.0101452
-1.24459
1.24702
-0.00753756
0.00510794
-1.49263
1.4946
-0.00316495
0.00119476
-1.4925
1.49422
0.00048363
-0.00220312
-1.24398
1.24586
0.00410394
-0.00598687
-1.03751
1.04005
0.00834535
-0.0108824
-0.866103
0.869843
0.0142492
-0.0179891
-0.724395
0.729946
0.0230391
-0.0285903
-0.608703
0.616121
0.035812
-0.0432302
-0.514902
0.523049
0.0519631
-0.0601099
-0.43986
0.447921
0.0687765
-0.0768381
-0.3753
0.376748
0.0846425
-0.0860906
-0.257336
0.222491
0.0748074
-0.0399625
-0.0685043
0.0586731
0.00983123
-0.0518437
0.058437
-0.374112
0.367519
-0.0575293
0.0537832
-0.453584
0.45733
-0.0486982
0.0447511
-0.527934
0.531881
-0.0409171
0.0372843
-0.621548
0.625181
-0.0331908
0.0291251
-0.735332
0.739398
-0.0245678
0.02042
-0.874322
0.87847
-0.0160867
0.0124029
-1.04347
1.04716
-0.00867636
0.00551057
-1.24855
1.25171
-0.00218715
-0.000886645
-1.49665
1.49973
0.00393511
-0.00719586
-1.49721
1.50047
0.0102729
-0.0138813
-1.25008
1.25369
0.0174503
-0.0216579
-1.04594
1.05015
0.0256986
-0.030151
-0.877779
0.882231
0.0341324
-0.0381419
-0.739917
0.743927
0.0417007
-0.0454554
-0.626791
0.630546
0.0493341
-0.0543537
-0.534825
0.539845
0.0580313
-0.0588526
-0.457489
0.45831
0.05216
-0.0319731
-0.335776
0.315589
0.00988296
-0.0683634
0.0584804
-0.0529173
0.048916
0.00400132
-0.0332009
0.0437632
-0.358072
0.34751
-0.0474757
0.0468582
-0.459261
0.459878
-0.0438113
0.0404659
-0.535776
0.539121
-0.0367021
0.0334077
-0.628498
0.631792
-0.0299834
0.0269667
-0.742615
0.745631
-0.0237258
0.0206331
-0.881978
0.88507
-0.0171152
0.0137451
-1.05073
1.0541
-0.00996234
0.00643385
-1.25514
1.25867
-0.00247888
-0.00130518
-1.50323
1.50702
0.00505961
-0.00892582
-1.50415
1.50801
0.0123351
-0.0159581
-1.25744
1.26107
0.0191676
-0.0225044
-1.05395
1.05729
0.0254395
-0.0285242
-0.885733
0.888818
0.0314145
-0.0347139
-0.747198
0.750498
0.0379008
-0.0415528
-0.634344
0.637996
0.0448024
-0.0477409
-0.544166
0.547104
0.0482456
-0.0443743
-0.456611
0.45274
0.0336232
-0.0161978
-0.296246
0.27882
0.00406472
-0.0526674
0.0486027
-0.0458326
0.0433301
0.00250251
-0.0228548
0.033258
-0.3368
0.326397
-0.0391024
0.0401358
-0.45955
0.458516
-0.0389619
0.0366886
-0.541829
0.544103
-0.034037
0.0314564
-0.634828
0.637409
-0.0284115
0.0255294
-0.748662
0.751544
-0.022284
0.0193069
-0.88801
0.890987
-0.0160203
0.0129381
-1.05722
1.0603
-0.00943084
0.00603708
-1.26211
1.2655
-0.00208681
-0.00178969
-1.51089
1.51476
0.00562712
-0.00946046
-1.51191
1.51575
0.012696
-0.0159921
-1.26452
1.26782
0.018862
-0.0219082
-1.0604
1.06345
0.024674
-0.0277072
-0.891883
0.894916
0.0304158
-0.0332894
-0.753716
0.756589
0.0357244
-0.0382271
-0.641076
0.643579
0.0403723
-0.0413778
-0.548923
0.549929
0.040171
-0.0340737
-0.447482
0.441384
0.023395
-0.010208
-0.26363
0.250443
0.00258055
-0.0454484
0.0428679
-0.0412486
0.0394736
0.00177506
-0.0168036
0.0260863
-0.316519
0.307236
-0.0327243
0.0348877
-0.4569
0.454737
-0.0344866
0.032831
-0.546068
0.547723
-0.0306654
0.028585
-0.639698
0.641779
-0.0261728
0.0237964
-0.754171
0.756548
-0.0209647
0.0182009
-0.893856
0.89662
-0.0149933
0.0119497
-1.06332
1.06636
-0.00848598
0.00518261
-1.2688
1.27211
-0.00136913
-0.0023499
-1.51854
1.52226
0.00602009
-0.00968679
-1.51949
1.52316
0.012793
-0.0159936
-1.27107
1.27427
0.018771
-0.0216726
-1.06648
1.06938
0.0241599
-0.0267077
-0.89775
0.900298
0.0288527
-0.031042
-0.759058
0.761248
0.0329393
-0.0349178
-0.645751
0.64773
0.0363897
-0.0365643
-0.55047
0.550644
0.0341353
-0.0271287
-0.434754
0.427748
0.0174763
-0.00737188
-0.238949
0.228845
0.00187039
-0.0407001
0.0388297
-0.0379437
0.0366057
0.00133804
-0.0128496
0.0208319
-0.298611
0.290629
-0.027623
0.0305789
-0.452153
0.449197
-0.0308142
0.0297213
-0.549137
0.55023
-0.0277539
0.0258635
-0.643793
0.645683
-0.0236944
0.0215852
-0.758758
0.760868
-0.0190989
0.0166387
-0.899164
0.901624
-0.013721
0.0108661
-1.06927
1.07212
-0.0075323
0.00431739
-1.27533
1.27855
-0.000593056
-0.00302162
-1.5259
1.52951
0.00657555
-0.0101171
-1.52676
1.5303
0.0130861
-0.0160896
-1.27742
1.28043
0.0186118
-0.0211479
-1.07212
1.07466
0.0232633
-0.0253931
-0.902613
0.904742
0.027208
-0.0290901
-0.763252
0.765134
0.0307448
-0.0324827
-0.649569
0.651307
0.033308
-0.0327573
-0.550464
0.549913
0.0294236
-0.0221302
-0.420543
0.41325
0.0136752
-0.00569759
-0.219907
0.21193
0.00145377
-0.0371949
0.0357411
-0.0354361
0.0344021
0.00103394
-0.0100601
0.0168163
-0.283288
0.276532
-0.0233469
0.0267581
-0.446
0.442588
-0.0275728
0.0268974
-0.551108
0.551783
-0.0251622
0.0233995
-0.64755
0.649312
-0.0213565
0.0193692
-0.762909
0.764896
-0.0170361
0.0147498
-0.903924
0.90621
-0.0120602
0.00942055
-1.07479
1.07743
-0.0063076
0.00325575
-1.28164
1.28469
0.000329593
-0.0038294
-1.53305
1.53655
0.00725305
-0.0106104
-1.53376
1.53712
0.0133574
-0.0160652
-1.2833
1.28601
0.0182961
-0.0205149
-1.07704
1.07926
0.0223742
-0.0242629
-0.906754
0.908643
0.025881
-0.0275647
-0.76691
0.768594
0.0290377
-0.0304597
-0.652904
0.654326
0.0307997
-0.0295413
-0.54902
0.547761
0.0256083
-0.0184184
-0.405987
0.398797
0.0110702
-0.00458283
-0.204769
0.198281
0.00117485
-0.0344443
0.0332695
-0.0334931
0.0326847
0.000808398
-0.00799324
0.0136812
-0.270342
0.264654
-0.0197345
0.0233536
-0.43907
0.435451
-0.0246591
0.0242429
-0.552372
0.552788
-0.022786
0.0211434
-0.651069
0.652712
-0.0192069
0.0173138
-0.766825
0.768718
-0.0150759
0.0128731
-0.908378
0.910581
-0.0102789
0.00774363
-1.07995
1.08248
-0.00477475
0.00187977
-1.28762
1.29051
0.00150526
-0.00479773
-1.53992
1.54321
0.00799962
-0.0111124
-1.54035
1.54346
0.0136404
-0.0161185
-1.28862
1.29109
0.0181584
-0.0201816
-1.08139
1.08342
0.0218604
-0.023548
-0.910446
0.912134
0.024982
-0.0264702
-0.770182
0.771671
0.0277475
-0.0287966
-0.655543
0.656592
0.0287693
-0.026856
-0.546183
0.54427
0.0225457
-0.0156499
-0.391751
0.384855
0.00922792
-0.00380559
-0.192378
0.186956
0.000979882
-0.0322061
0.0312262
-0.0319738
0.0313403
0.000633528
-0.00639883
0.0111746
-0.259454
0.254678
-0.0166428
0.0202676
-0.431834
0.428209
-0.0219047
0.0217249
-0.553125
0.553305
-0.0205151
0.018941
-0.654361
0.655935
-0.0170694
0.0152328
-0.770567
0.772403
-0.0130651
0.010937
-0.91267
0.914798
-0.00843513
0.00599416
-1.08489
1.08733
-0.00313914
0.00036177
-1.29329
1.29607
0.00287164
-0.00599593
-1.54639
1.54951
0.00900807
-0.0119037
-1.54646
1.54936
0.0142275
-0.0164768
-1.29349
1.29574
0.0183055
-0.0201011
-1.08536
1.08716
0.0215846
-0.0230766
-0.913747
0.915239
0.0243486
-0.0256659
-0.77307
0.774387
0.0268023
-0.0274549
-0.657418
0.658071
0.027072
-0.024628
-0.542103
0.539659
0.0201067
-0.0135803
-0.378155
0.371628
0.00790188
-0.00325273
-0.18196
0.177311
0.000841437
-0.0303276
0.0294861
-0.0307863
0.0302946
0.000491696
-0.00511486
0.00910452
-0.250325
0.246336
-0.0139452
0.0174306
-0.424672
0.421186
-0.0192594
0.0192728
-0.553445
0.553431
-0.0182537
0.0167107
-0.657564
0.659107
-0.0148641
0.0130541
-0.774206
0.776016
-0.0109255
0.00884231
-0.916801
0.918884
-0.00639818
0.00401855
-1.08965
1.09203
-0.0012469
-0.00142741
-1.29873
1.30141
0.00450698
-0.0074454
-1.5525
1.55544
0.0102503
-0.0129257
-1.55213
1.55481
0.0150565
-0.0171003
-1.2979
1.29995
0.0187431
-0.0203373
-1.08887
1.09047
0.0216401
-0.022947
-0.916659
0.917966
0.024066
-0.0252271
-0.775653
0.776814
0.0261809
-0.0264888
-0.658531
0.658839
0.0257364
-0.022851
-0.537012
0.534126
0.0182175
-0.0120549
-0.365305
0.359143
0.00695408
-0.00286476
-0.172976
0.168887
0.000746142
-0.0287044
0.0279582
-0.0298693
0.0294973
0.000372026
-0.00403773
0.00733388
-0.242719
0.239423
-0.0115302
0.0147645
-0.417845
0.414611
-0.0166703
0.0168693
-0.553385
0.553186
-0.0159677
0.0145358
-0.660673
0.662105
-0.0127143
0.0109016
-0.777804
0.779617
-0.00875664
0.00666004
-0.920869
0.922966
-0.00421648
0.00186174
-1.0943
1.09665
0.000853357
-0.00344938
-1.30397
1.30656
0.00641639
-0.00922124
-1.55826
1.56107
0.0118599
-0.0143294
-1.55736
1.55983
0.0162597
-0.0180824
-1.30192
1.30374
0.0195323
-0.0209283
-1.09201
1.09341
0.022066
-0.0232096
-0.919222
0.920366
0.0241868
-0.0251742
-0.777908
0.778895
0.025869
-0.0258826
-0.658997
0.659011
0.0247362
-0.0214712
-0.53106
0.527795
0.0167849
-0.0109471
-0.353171
0.347334
0.00628551
-0.00259747
-0.165031
0.161343
0.000682356
-0.0272566
0.0265743
-0.0291846
0.0289187
0.000265915
-0.00309469
0.00576524
-0.236461
0.23379
-0.00931897
0.0122164
-0.41157
0.408672
-0.0140687
0.0143487
-0.553019
0.552739
-0.013489
0.0120991
-0.663601
0.664991
-0.0102591
0.00842262
-0.781411
0.783248
-0.00626505
0.00417206
-0.92494
0.927033
-0.00174344
-0.000591372
-1.09888
1.10121
0.00327589
-0.00582778
-1.30906
1.31161
0.008714
-0.0114021
-1.56377
1.56646
0.0138907
-0.0161775
-1.5622
1.56448
0.0179261
-0.0195362
-1.30548
1.30709
0.0207828
-0.0219529
-1.09475
1.09592
0.022883
-0.0238162
-0.92145
0.922384
0.0246298
-0.0254529
-0.779813
0.780636
0.0259004
-0.0256576
-0.658877
0.658634
0.0240987
-0.020489
-0.524382
0.520772
0.0157661
-0.0101836
-0.341665
0.336082
0.00583847
-0.00242529
-0.157827
0.154414
0.000643458
-0.0259255
0.025282
-0.0287096
0.0285444
0.000165249
-0.00221986
0.00430201
-0.231433
0.22935
-0.00720955
0.00970865
-0.406004
0.403505
-0.0114222
0.0117321
-0.55254
0.552231
-0.0109087
0.00954284
-0.666484
0.66785
-0.00766383
0.00576579
-0.785072
0.78697
-0.00353081
0.00136944
-0.929013
0.931175
0.00112261
-0.00349555
-1.10344
1.10581
0.00618853
-0.00870798
-1.31405
1.31657
0.0115024
-0.0140473
-1.56902
1.57156
0.0163503
-0.018417
-1.56664
1.5687
0.01996
-0.0213448
-1.30862
1.31
0.022393
-0.0233543
-1.09704
1.098
0.0241065
-0.0248594
-0.923278
0.92403
0.0255209
-0.02619
-0.781388
0.782057
0.0263405
-0.0257727
-0.658176
0.657608
0.0238188
-0.0198806
-0.517046
0.513108
0.0151078
-0.00970289
-0.330639
0.325234
0.0055703
-0.00233089
-0.151125
0.147885
0.000625918
-0.0246631
0.0240372
-0.0284362
0.0283737
6.25074e-05
-0.00136258
0.00286814
-0.227573
0.226068
-0.00510948
0.00713669
-0.401277
0.39925
-0.00859566
0.00884983
-0.552056
0.551801
-0.0080257
0.00666498
-0.669332
0.670693
-0.00473034
0.00275252
-0.788852
0.790829
-0.00041394
-0.00184014
-0.933229
0.935483
0.00441777
-0.00684546
-1.10807
1.1105
0.00956947
-0.0120897
-1.31899
1.32151
0.0148481
-0.0173128
-1.57399
1.57646
0.0194788
-0.0213507
-1.57064
1.57251
0.02269
-0.0238386
-1.3113
1.31245
0.0246661
-0.0253777
-1.09893
1.09964
0.0258949
-0.0264074
-0.924743
0.925256
0.0268777
-0.0273392
-0.782566
0.783027
0.0272031
-0.0262466
-0.656768
0.655812
0.0238781
-0.0196095
-0.509075
0.504807
0.0147622
-0.00945584
-0.319946
0.314639
0.0054453
-0.00229679
-0.144735
0.141587
0.000623823
-0.0234312
0.0228074
-0.0283687
0.0284162
-4.7496e-05
-0.00047597
0.00139666
-0.224872
0.223951
-0.00294168
0.00443138
-0.397533
0.396043
-0.00552884
0.00562547
-0.551764
0.551668
-0.00471093
0.00326563
-0.672233
0.673679
-0.00122036
-0.000871903
-0.792786
0.794878
0.00333009
-0.00568108
-0.937604
0.939955
0.00835506
-0.0108613
-1.11281
1.11532
0.0136514
-0.0161959
-1.32393
1.32647
0.0189203
-0.0212775
-1.5788
1.58116
0.0232785
-0.0249302
-1.57424
1.57589
0.0260444
-0.0269256
-1.31349
1.31437
0.0274998
-0.0279311
-1.1003
1.10074
0.0281972
-0.0284583
-0.925744
0.926005
0.0287394
-0.0289442
-0.783226
0.783431
0.0285613
-0.0271446
-0.65456
0.653144
0.0243397
-0.0197166
-0.500478
0.495855
0.0147403
-0.00943892
-0.309419
0.304118
0.00546058
-0.00232365
-0.138494
0.135357
0.000638595
-0.0221973
0.0215587
-0.0285199
0.0286836
-0.00016376
0.000458967
-0.000164054
-0.223353
0.223058
-0.000633691
0.00151162
-0.394895
0.394017
-0.00215406
0.00202631
-0.551857
0.551985
-0.000986063
-0.000576016
-0.675349
0.676912
0.002759
-0.00500929
-0.796953
0.799203
0.00765505
-0.0101771
-0.942181
0.944703
0.0130283
-0.0156729
-1.11772
1.12037
0.0185737
-0.0211638
-1.32891
1.3315
0.0238669
-0.026132
-1.58338
1.58564
0.027961
-0.0293676
-1.57737
1.57878
0.0302309
-0.0308233
-1.31513
1.31572
0.0311297
-0.0312709
-1.10113
1.10127
0.0312725
-0.0312637
-0.926229
0.926221
0.0313143
-0.0311826
-0.783287
0.783155
0.0304749
-0.0285219
-0.651469
0.649516
0.025229
-0.0201971
-0.491179
0.486147
0.0150262
-0.00963601
-0.298869
0.293479
0.00560457
-0.00240572
-0.132245
0.129046
0.000668328
-0.0209286
0.0202603
-0.0289273
0.0292358
-0.000308475
0.00148741
-0.00184465
-0.223119
0.223476
0.00189909
-0.00174207
-0.393507
0.39335
0.00169453
-0.00215676
-0.552491
0.552954
0.00337824
-0.00509117
-0.67873
0.680443
0.00746256
-0.00992034
-0.801429
0.803887
0.0128188
-0.0155703
-0.947111
0.949863
0.018649
-0.0214649
-1.12291
1.12573
0.0245045
-0.0271735
-1.33399
1.33666
0.0298879
-0.0320689
-1.58778
1.58996
0.0337201
-0.0348464
-1.58
1.58112
0.0354311
-0.0356736
-1.31615
1.3164
0.0356677
-0.0354857
-1.10133
1.10114
0.0352011
-0.0348885
-0.926136
0.925824
0.0346921
-0.0341167
-0.782571
0.781996
0.0329775
-0.0303969
-0.647357
0.644777
0.0265675
-0.0210734
-0.48108
0.475586
0.0156305
-0.0100468
-0.288109
0.282525
0.00587414
-0.00254051
-0.125844
0.122511
0.000711908
-0.0195963
0.0188844
-0.0296154
0.0300946
-0.000479141
0.00275309
-0.00386447
-0.224225
0.225336
0.0048213
-0.00548573
-0.393584
0.394249
0.00616784
-0.00708652
-0.553951
0.55487
0.00862134
-0.0105987
-0.682497
0.684474
0.0132725
-0.0160069
-0.806319
0.809053
0.0191932
-0.0221867
-0.952476
0.95547
0.0255111
-0.0285311
-1.12843
1.13145
0.0317531
-0.0345214
-1.33923
1.342
0.0372405
-0.0392959
-1.59198
1.59404
0.0407087
-0.0415032
-1.58203
1.58282
0.0417496
-0.0416148
-1.31645
1.31631
0.041248
-0.0406815
-1.1008
1.10024
0.0400508
-0.0393794
-0.925371
0.9247
0.0388658
-0.0378278
-0.78092
0.779882
0.0361806
-0.0329148
-0.642067
0.638802
0.0284655
-0.0224008
-0.470055
0.46399
0.0165769
-0.0106815
-0.276924
0.271028
0.00627462
-0.00273058
-0.119146
0.115602
0.000770342
-0.0181728
0.0174025
-0.0306536
0.0313475
-0.000693942
0.00424095
-0.00625033
-0.22689
0.228899
0.00825973
-0.00981177
-0.395337
0.396889
0.0113245
-0.0128174
-0.556498
0.557991
0.0147948
-0.0171218
-0.686867
0.689194
0.0201826
-0.0232668
-0.811752
0.814836
0.0268319
-0.0301647
-0.958338
0.961671
0.033844
-0.0371475
-1.13438
1.13769
0.0406079
-0.0434957
-1.34465
1.34754
0.046207
-0.0481095
-1.5959
1.5978
0.0492384
-0.0496496
-1.58337
1.58378
0.0494701
-0.0488983
-1.31593
1.31536
0.0481211
-0.0471172
-1.09942
1.09841
0.0461022
-0.0450163
-0.923813
0.922727
0.0440433
-0.0425014
-0.778312
0.77677
0.0402202
-0.0361506
-0.635445
0.631375
0.0309664
-0.0242085
-0.457882
0.451124
0.0178854
-0.011548
-0.265077
0.25874
0.00680586
-0.00297266
-0.111998
0.108164
0.000841403
-0.0166294
0.0157879
-0.0321254
0.0331087
-0.000983295
0.00613952
-0.00922538
-0.23137
0.234456
0.012476
-0.0150852
-0.399032
0.401642
0.0175649
-0.0197377
-0.560345
0.562518
0.0222558
-0.0250022
-0.691978
0.694724
0.0285391
-0.0320792
-0.817886
0.821426
0.0361544
-0.0399336
-0.964914
0.968693
0.0440508
-0.0476808
-1.1409
1.14453
0.0513972
-0.0544122
-1.3503
1.35332
0.057121
-0.0588574
-1.5995
1.60124
0.0596613
-0.0595932
-1.58389
1.58383
0.0589319
-0.0578022
-1.31443
1.3133
0.056532
-0.0550161
-1.09705
1.09553
0.0535609
-0.0519936
-0.921318
0.919751
0.0504727
-0.0482919
-0.774658
0.772477
0.0452352
-0.0402166
-0.627231
0.622213
0.0341677
-0.0265604
-0.444323
0.436716
0.0195863
-0.0126531
-0.252304
0.245371
0.00746544
-0.0032628
-0.104243
0.100041
0.000923229
-0.0149419
0.0140186
-0.0341667
0.0355456
-0.00137884
0.00861709
-0.013027
-0.238002
0.242412
0.0177545
-0.0215939
-0.405037
0.408877
0.0252169
-0.0282641
-0.565821
0.568868
0.0315679
-0.034951
-0.69805
0.701433
0.0391612
-0.0432863
-0.82494
0.829065
0.0479615
-0.0522369
-0.972382
0.976658
0.0568272
-0.0607999
-1.14806
1.15204
0.06476
-0.0678409
-1.35616
1.35924
0.0704166
-0.0718218
-1.60267
1.60408
0.0721387
-0.0714653
-1.58337
1.5827
0.0702333
-0.0684509
-1.31173
1.30995
0.0666113
-0.0644904
-1.09355
1.09143
0.0625157
-0.0604294
-0.917759
0.915673
0.0582779
-0.0553731
-0.769691
0.766786
0.0514116
-0.0452664
-0.617137
0.610992
0.0381663
-0.0294963
-0.429052
0.420382
0.0216867
-0.0139842
-0.238297
0.230594
0.00823503
-0.00358714
-0.0957273
0.0910794
0.00101022
-0.0130914
0.0120811
-0.0369709
0.0389189
-0.00194806
0.0120188
-0.0181237
-0.247252
0.253357
0.0246249
-0.0298817
-0.413824
0.419081
0.0348232
-0.0389179
-0.57338
0.577474
0.0432249
-0.0474629
-0.705528
0.709766
0.0525616
-0.0574135
-0.833163
0.838015
0.0628001
-0.0676384
-0.980838
0.985676
0.0727324
-0.0770316
-1.15588
1.16018
0.0811665
-0.0842097
-1.36207
1.36511
0.0865079
-0.0874265
-1.60507
1.60599
0.0870971
-0.0856432
-1.58153
1.58007
0.0836747
-0.0811026
-1.30763
1.30506
0.0785969
-0.0758307
-1.08873
1.08596
0.0733044
-0.0706026
-0.913037
0.910335
0.0677701
-0.0639811
-0.763199
0.75941
0.0589385
-0.0514301
-0.604779
0.59727
0.0430494
-0.0330641
-0.411648
0.401663
0.0241975
-0.0155225
-0.222714
0.214039
0.00908601
-0.00392372
-0.0863064
0.0811441
0.00109298
-0.0110727
0.00997972
-0.0408561
0.043681
-0.00282498
0.0169584
-0.0252874
-0.259833
0.268162
0.0339599
-0.0409019
-0.426023
0.432965
0.0473993
-0.0527479
-0.583447
0.588796
0.0582855
-0.0636093
-0.714822
0.720146
0.069822
-0.0755566
-0.842837
0.848571
0.0817677
-0.0872066
-0.990429
0.995868
0.0927621
-0.0972692
-1.16428
1.16879
0.101381
-0.104164
-1.36779
1.37058
0.105903
-0.106066
-1.60638
1.60654
0.104827
-0.102357
-1.57802
1.57555
0.0994903
-0.0959992
-1.30185
1.29836
0.0927383
-0.08924
-1.08241
1.07891
0.086125
-0.0826975
-0.906854
0.903426
0.0791682
-0.0743118
-0.754805
0.749948
0.067974
-0.0588312
-0.589667
0.580524
0.0489005
-0.0372918
-0.391619
0.38001
0.0270999
-0.0172203
-0.205169
0.195289
0.00997015
-0.00424301
-0.0758609
0.0701337
0.00116048
-0.00890013
0.00773965
-0.0463829
0.0506847
-0.00430177
0.0246034
-0.0359403
-0.276887
0.288223
0.0474126
-0.0566186
-0.442636
0.451842
0.0650904
-0.0719434
-0.596571
0.603424
0.0790093
-0.0857602
-0.726315
0.733066
0.0931426
-0.0996988
-0.854209
0.860765
0.106572
-0.112378
-1.00112
1.00693
0.118059
-0.122427
-1.17292
1.17728
0.126107
-0.128256
-1.37279
1.37494
0.129032
-0.128081
-1.60597
1.60502
0.125635
-0.121907
-1.57235
1.56862
0.11797
-0.113413
-1.29417
1.28961
0.109291
-0.104986
-1.07445
1.07014
0.101227
-0.0969953
-0.898946
0.894715
0.0926456
-0.086465
-0.744085
0.737904
0.0785816
-0.0674842
-0.571215
0.560117
0.055682
-0.0420935
-0.368354
0.354766
0.0302781
-0.0189606
-0.185257
0.173939
0.0107975
-0.00449998
-0.0643338
0.0580362
0.00119819
-0.00660909
0.0054109
-0.054608
0.0619501
-0.00734205
0.0379406
-0.0537051
-0.300511
0.316275
0.0691293
-0.0814414
-0.465293
0.477605
0.0919998
-0.100251
-0.613245
0.621496
0.108897
-0.116955
-0.740363
0.74842
0.125286
-0.13224
-0.86702
0.873974
0.139167
-0.144729
-1.01227
1.01784
0.149875
-0.153495
-1.18097
1.18459
0.156112
-0.157033
-1.3762
1.37712
0.156267
-0.153716
-1.60305
1.6005
0.149677
-0.1444
-1.56398
1.5587
0.139191
-0.133394
-1.28424
1.27844
0.128258
-0.123003
-1.06476
1.05951
0.118529
-0.113547
-0.8892
0.884218
0.108197
-0.100409
-0.730513
0.722724
0.0905969
-0.07707
-0.548609
0.535082
0.0629973
-0.0471195
-0.341118
0.32524
0.0334571
-0.020578
-0.162654
0.149775
0.0114719
-0.00465313
-0.0518221
0.0450034
0.00118577
-0.00426161
0.00307584
-0.0688082
0.0728921
-0.00408385
0.0288423
-0.0425891
-0.334616
0.348363
0.0563452
-0.0676404
-0.495351
0.506646
0.0776992
-0.0870888
-0.63321
0.6426
0.097578
-0.10715
-0.755886
0.765458
0.117685
-0.126922
-0.879936
0.889172
0.136626
-0.145117
-1.02246
1.03095
0.153813
-0.161032
-1.18709
1.19431
0.167857
-0.172832
-1.37679
1.38176
0.176519
-0.177852
-1.59662
1.59795
0.176774
-0.173808
-1.55225
1.54928
0.169855
-0.164712
-1.27171
1.26657
0.159914
-0.154293
-1.05306
1.04744
0.14947
-0.143852
-0.877393
0.871776
0.137259
-0.126403
-0.713257
0.702402
0.112278
-0.0934255
-0.520907
0.502055
0.0744897
-0.0536471
-0.309116
0.288274
0.0365949
-0.0214532
-0.13735
0.122209
0.0113541
-0.00432967
-0.0387291
0.0317047
0.000986827
-0.00193848
0.000951655
-0.0802095
0.078269
0.00194052
0.00748934
-0.0162979
-0.36484
0.373649
0.0266939
-0.034826
-0.522524
0.530656
0.0429271
-0.0507437
-0.654534
0.66235
0.0603088
-0.069187
-0.774518
0.783396
0.0785964
-0.0870884
-0.897817
0.906309
0.0959916
-0.10344
-1.03914
1.04659
0.111233
-0.117322
-1.20129
1.20738
0.122998
-0.126801
-1.38636
1.39016
0.128974
-0.128957
-1.59837
1.59835
0.126544
-0.122197
-1.54547
1.54112
0.116806
-0.11015
-1.26078
1.25413
0.103879
-0.096879
-1.04052
1.03352
0.0904049
-0.0831152
-0.86221
0.854921
0.0759141
-0.0665411
-0.687639
0.678266
0.0560033
-0.0433085
-0.481596
0.468901
0.0317834
-0.0208068
-0.267379
0.256403
0.0129633
-0.00695686
-0.1077
0.101694
0.00338754
-0.00117152
-0.0249294
0.0227134
0.000206937
0.000315164
-0.000522101
-0.0815835
0.0787437
0.00283986
-0.00124431
-0.00374785
-0.385278
0.39027
0.0105815
-0.0165414
-0.542605
0.548565
0.0225836
-0.0292952
-0.672562
0.679274
0.0375821
-0.0452717
-0.791324
0.799014
0.0536383
-0.0610419
-0.914014
0.921418
0.0685671
-0.0752301
-1.05387
1.06053
0.0819934
-0.0873504
-1.21303
1.21838
0.0918672
-0.0945996
-1.39326
1.396
0.095862
-0.0947713
-1.59749
1.5964
0.0912888
-0.0858937
-1.53591
1.53052
0.079715
-0.072482
-1.24708
1.23984
0.0653809
-0.0577783
-1.02557
1.01797
0.0507662
-0.0429845
-0.845439
0.837658
0.0359472
-0.0278195
-0.665148
0.65702
0.01991
-0.0117092
-0.454369
0.446168
0.00596622
-0.00202299
-0.244637
0.240693
0.000112392
0.000645186
-0.0951465
0.0943889
-0.000689726
0.000412717
-0.0200354
0.0203124
-0.000175764
0.00110981
-0.000934043
-0.0803991
0.0776726
0.0027265
-0.00485913
0.00236771
-0.398836
0.401327
0.00203769
-0.00652814
-0.55761
0.5621
0.0116446
-0.0172833
-0.68737
0.693008
0.0244232
-0.0310496
-0.806029
0.812656
0.0382289
-0.0446133
-0.928292
0.934676
0.0514921
-0.0571806
-1.06678
1.07247
0.0631228
-0.0673648
-1.22333
1.22758
0.0711752
-0.073317
-1.39846
1.4006
0.0738287
-0.0719923
-1.59482
1.59299
0.0683204
-0.0628932
-1.52458
1.51915
0.0567314
-0.0491489
-1.23236
1.22478
0.0419609
-0.034032
-1.00959
1.00167
0.0263873
-0.0182619
-0.827948
0.819823
0.0109512
-0.00400846
-0.645656
0.638713
-0.00176079
0.0061962
-0.43634
0.431905
-0.00799881
0.00789129
-0.234352
0.23446
-0.00679047
0.00482502
-0.092627
0.0945925
-0.00311664
0.00145067
-0.019973
0.021639
-0.000451458
0.00117489
-0.000723435
-0.0789929
0.076613
0.00237987
-0.00594921
0.00497168
-0.407991
0.408968
-0.00164383
-0.00173269
-0.569675
0.573052
0.00588607
-0.0110345
-0.699837
0.704986
0.0170745
-0.0229469
-0.818568
0.824441
0.0292282
-0.0348439
-0.940638
0.946254
0.040821
-0.0459494
-1.07804
1.08317
0.0510275
-0.0549626
-1.23169
1.23562
0.0582234
-0.0599713
-1.40239
1.40414
0.0602008
-0.0582828
-1.59106
1.58914
0.0546534
-0.0491407
-1.51316
1.50764
0.0430916
-0.0357133
-1.21717
1.20979
0.0284931
-0.0202717
-0.993032
0.984811
0.0126901
-0.00470494
-0.810169
0.802184
-0.00193077
0.00787094
-0.628729
0.622789
-0.0120611
0.0145871
-0.424748
0.422222
-0.01471
0.0127463
-0.231504
0.233468
-0.0102467
0.00717274
-0.0954695
0.0985435
-0.00449653
0.00203189
-0.022807
0.0252716
-0.000605074
0.000562873
4.22009e-05
-0.0777383
0.0757264
0.00201191
-0.00580097
0.00526394
-0.414395
0.414932
-0.00323394
0.000431079
-0.579093
0.581896
0.0036888
-0.00815501
-0.71049
0.714957
0.0134094
-0.01856
-0.829523
0.834674
0.0242039
-0.0292876
-0.951546
0.95663
0.0348289
-0.0393843
-1.08805
1.0926
0.0440142
-0.0476148
-1.23929
1.24289
0.0505501
-0.0520983
-1.40566
1.4072
0.0522049
-0.0506289
-1.58719
1.58561
0.0469657
-0.041594
-1.50167
1.4963
0.0355383
-0.0282207
-1.20215
1.19483
0.0214378
-0.0135702
-0.976354
0.968487
0.00659623
0.000452287
-0.793532
0.786483
-0.00636472
0.0116361
-0.614247
0.608976
-0.0150847
0.0170831
-0.416691
0.414693
-0.0165365
0.0140104
-0.232201
0.234727
-0.0111925
0.00777395
-0.100549
0.103967
-0.00482915
0.0021957
-0.0270838
0.0297173
-0.000652033
-0.00041627
0.0010683
-0.0768467
0.0752997
0.00154697
-0.00489423
0.00465207
-0.419286
0.419528
-0.00292185
0.000757025
-0.587436
0.589601
0.00314379
-0.00725812
-0.71984
0.723954
0.0123014
-0.0167909
-0.839442
0.843932
0.021804
-0.0263625
-0.961698
0.966256
0.0316732
-0.0358618
-1.0972
1.10139
0.0400488
-0.043541
-1.24634
1.24983
0.0467412
-0.0482618
-1.40881
1.41033
0.0485488
-0.0469564
-1.58365
1.58206
0.0436965
-0.0383008
-1.49068
1.48528
0.0327308
-0.0261032
-1.18742
1.18079
0.0198821
-0.0131254
-0.960839
0.954082
0.00693136
-0.000343313
-0.778788
0.7722
-0.00505733
0.0103396
-0.601325
0.596042
-0.013665
0.0153659
-0.409932
0.408231
-0.0151264
0.0131195
-0.23406
0.236067
-0.0105339
0.00732651
-0.106092
0.1093
-0.00458095
0.00212087
-0.0315447
0.0340048
-0.000649355
-0.0014661
0.00211546
-0.0764713
0.0752801
0.00119118
-0.00379079
0.00365338
-0.42328
0.423418
-0.00200075
-6.68958e-05
-0.594788
0.596856
0.00377906
-0.00752585
-0.728341
0.732088
0.0119007
-0.0162588
-0.848387
0.852745
0.0209329
-0.025665
-0.970631
0.975363
0.0302881
-0.0343392
-1.10569
1.10974
0.0387279
-0.0420794
-1.25324
1.25659
0.0449255
-0.0469624
-1.4118
1.41384
0.0475289
-0.0463291
-1.58054
1.57934
0.0434041
-0.0388947
-1.48018
1.47567
0.0340887
-0.0283861
-1.17414
1.16843
0.023102
-0.0171702
-0.947421
0.94149
0.0115448
-0.00539471
-0.765221
0.759071
-0.000293931
0.00565357
-0.58875
0.58339
-0.0090889
0.0109974
-0.403867
0.401958
-0.011188
0.00977473
-0.235437
0.23685
-0.00792871
0.00556428
-0.110764
0.113128
-0.0035266
0.0016629
-0.0354416
0.0373053
-0.000529898
-0.00245221
0.00298211
-0.076643
0.0756499
0.000993082
-0.00249851
0.00210591
-0.426931
0.427324
-0.000620612
-0.00149339
-0.601602
0.603716
0.00490635
-0.00854927
-0.736321
0.739964
0.0127703
-0.0167508
-0.856919
0.860899
0.0215686
-0.0255384
-0.979526
0.983495
0.0301737
-0.0341118
-1.11397
1.11791
0.0384701
-0.0420993
-1.25996
1.26359
0.0453436
-0.0472751
-1.41569
1.41762
0.0483087
-0.0477003
-1.57814
1.57753
0.0457429
-0.0420375
-1.47129
1.46758
0.0381721
-0.0333936
-1.16315
1.15837
0.0288253
-0.0233007
-0.935421
0.929897
0.0179448
-0.0116626
-0.752187
0.745905
0.00593978
-0.00045252
-0.576435
0.570948
-0.00321266
0.00520755
-0.397468
0.395473
-0.00592345
0.00544225
-0.235624
0.236105
-0.00456067
0.00323533
-0.113737
0.115062
-0.002083
0.00102802
-0.0380536
0.0391086
-0.000342849
-0.00316869
0.00351154
-0.077109
0.0764213
0.000687679
-0.00135391
0.000495336
-0.430692
0.431551
0.000795703
-0.00305185
-0.607684
0.60994
0.0061744
-0.00971014
-0.743801
0.747337
0.0137658
-0.0178862
-0.864762
0.868882
0.0221121
-0.0262746
-0.987687
0.991849
0.0309213
-0.0347133
-1.1223
1.12609
0.0392515
-0.0429254
-1.26706
1.27073
0.0463213
-0.0488758
-1.42
1.42256
0.0505475
-0.050479
-1.57708
1.57701
0.0491182
-0.046548
-1.4643
1.46173
0.0435551
-0.039353
-1.15366
1.14946
0.0350224
-0.0297958
-0.924179
0.918952
0.0240297
-0.0178056
-0.738879
0.732655
0.0120925
-0.00653113
-0.564413
0.558852
0.00283907
-0.000321929
-0.390752
0.388235
-0.000859469
0.00132434
-0.234329
0.233864
-0.00129484
0.00101105
-0.114703
0.114987
-0.000746773
0.000431168
-0.0391557
0.0394713
-0.000174412
-0.00353589
0.0037103
-0.0779757
0.0774507
0.000524986
-0.000389444
-0.000409214
-0.434704
0.435502
0.00226296
-0.00437423
-0.613857
0.615968
0.007691
-0.0111092
-0.7508
0.754218
0.0150136
-0.018748
-0.872694
0.876429
0.0231238
-0.0270087
-0.996027
0.999912
0.031656
-0.0359443
-1.13036
1.13465
0.0402001
-0.0442664
-1.27449
1.27855
0.0481602
-0.0508949
-1.42505
1.42778
0.0530916
-0.0540122
-1.57728
1.57821
0.0533632
-0.0516299
-1.4592
1.45747
0.0489202
-0.0450869
-1.14532
1.14148
0.0409512
-0.0355811
-0.913121
0.907751
0.0299595
-0.0237455
-0.725582
0.719368
0.018211
-0.0127469
-0.552421
0.546957
0.00887064
-0.00595033
-0.383588
0.380668
0.00397423
-0.00261335
-0.231346
0.229985
0.00166462
-0.000881206
-0.113678
0.112895
0.000332469
1.42133e-05
-0.0388635
0.0385168
-8.26719e-05
-0.00354967
0.00363234
-0.0791191
0.0787705
0.000348648
0.000659759
-0.00165196
-0.43886
0.439853
0.00338065
-0.00579276
-0.619644
0.622056
0.0090587
-0.0123275
-0.757564
0.760832
0.0163171
-0.019917
-0.880158
0.883758
0.0241608
-0.0281988
-1.00429
1.00833
0.0328032
-0.0371055
-1.13882
1.14312
0.0416328
-0.0457732
-1.28257
1.28671
0.0499032
-0.0534483
-1.43084
1.43438
0.056205
-0.0575665
-1.57916
1.58052
0.0577041
-0.0562934
-1.45568
1.45427
0.0540117
-0.0504639
-1.1375
1.13396
0.0461446
-0.0407962
-0.901931
0.896582
0.0353218
-0.0292239
-0.712599
0.706501
0.0240371
-0.018697
-0.541056
0.535716
0.0147272
-0.011158
-0.375871
0.372302
0.0085483
-0.00622858
-0.226601
0.224282
0.00426264
-0.00251299
-0.110684
0.108935
0.00127502
-0.000399165
-0.0372836
0.0364078
2.64019e-05
-0.00331582
0.00328942
-0.0804848
0.0802566