/*--------------------------------*- C++ -*----------------------------------*\
  =========                 |
  \\      /  F ield         | OpenFOAM: The Open Source CFD Toolbox
   \\    /   O peration     | Website:  https://openfoam.org
    \\  /    A nd           | Version:  6
     \\/     M anipulation  |
\*---------------------------------------------------------------------------*/
FoamFile
{
    version     2.0;
    format      ascii;
    class       surfaceScalarField;
    location    "98.9";
    object      phi;
}
// * * * * * * * * * * * * * * * * * * * * * * * * * * * * * * * * * * * * * //

dimensions      [0 3 -1 0 0 0 0];

internalField   nonuniform List<scalar> 
17370
(
-0.0899999
0.0898488
0.289162
-0.0714621
0.053752
0.364486
-0.0381187
0.0276894
0.426597
-0.0196375
0.0146045
0.504285
-0.0107626
0.00827235
0.601892
-0.00627281
0.00489634
0.720434
-0.00373231
0.00289154
0.863747
-0.00214976
0.00159038
1.03601
-0.00107355
0.000660946
1.24292
-0.000253644
-0.000144328
1.49159
0.00052413
-0.000933979
1.4916
0.00133105
-0.00181594
1.24318
0.00233832
-0.00304135
1.03634
0.00385559
-0.00500097
0.864052
0.00636773
-0.0083611
0.721051
0.0108467
-0.014683
0.603051
0.0197099
-0.0277541
0.507483
0.0381755
-0.0537998
0.431792
0.0715014
-0.0898754
0.365149
0.0900163
0.198995
-0.128138
0.0882301
0.0399081
-0.364601
0.353383
-0.0746681
0.0858862
-0.446477
0.454323
-0.0843815
0.0765359
-0.521192
0.529904
-0.0684376
0.059725
-0.61279
0.621571
-0.0515349
0.042754
-0.726896
0.734167
-0.0352919
0.0280207
-0.867477
0.872595
-0.0224178
0.0172996
-1.03848
1.04193
-0.0134871
0.0100345
-1.2446
1.24704
-0.00742131
0.00498576
-1.49262
1.49461
-0.00303444
0.0010494
-1.49251
1.49423
0.000622407
-0.00234524
-1.24397
1.24586
0.00425384
-0.00613904
-1.03751
1.04003
0.008488
-0.0110053
-0.866098
0.869825
0.0143509
-0.0180784
-0.724389
0.729931
0.0231189
-0.0286615
-0.608696
0.616109
0.0358746
-0.0432871
-0.514895
0.523038
0.0520159
-0.0601588
-0.439855
0.447912
0.0688201
-0.0768774
-0.375294
0.376737
0.0846715
-0.0861146
-0.257328
0.222473
0.0748227
-0.0399675
-0.0685254
0.0587019
0.0098235
-0.0517965
0.0583747
-0.374134
0.367556
-0.0574548
0.0536993
-0.4536
0.457355
-0.0486065
0.0446511
-0.527953
0.531909
-0.0408078
0.0371655
-0.621571
0.625213
-0.0330596
0.0289794
-0.735357
0.739437
-0.0244035
0.0202386
-0.874349
0.878513
-0.0158865
0.012187
-1.0435
1.0472
-0.00844362
0.00526621
-1.24857
1.25175
-0.00193429
-0.00114205
-1.49666
1.49974
0.00419193
-0.00745992
-1.4972
1.50047
0.0105388
-0.0141346
-1.25006
1.25366
0.0176774
-0.0218556
-1.04592
1.05009
0.025877
-0.0303138
-0.877751
0.882188
0.0342811
-0.0382746
-0.739892
0.743885
0.0418212
-0.0455659
-0.626765
0.63051
0.0494366
-0.0544488
-0.534803
0.539816
0.0581142
-0.0589216
-0.457468
0.458275
0.0522095
-0.0319987
-0.335739
0.315529
0.00989055
-0.0683365
0.058446
-0.0529544
0.0489625
0.00399184
-0.0331368
0.0436708
-0.358131
0.347597
-0.0473599
0.0467261
-0.459299
0.459933
-0.0436643
0.0403064
-0.535817
0.539174
-0.036528
0.0332184
-0.628545
0.631855
-0.0297737
0.026735
-0.742667
0.745705
-0.0234677
0.0203527
-0.882038
0.885153
-0.0168132
0.0134256
-1.05079
1.05418
-0.00962392
0.00607859
-1.25518
1.25873
-0.00210316
-0.00169856
-1.50325
1.50705
0.00546737
-0.00934285
-1.50413
1.508
0.0127478
-0.0163455
-1.2574
1.261
0.0195166
-0.0228137
-1.0539
1.0572
0.0257241
-0.0287885
-0.885667
0.888732
0.0316603
-0.0349381
-0.747137
0.750415
0.0381066
-0.0417419
-0.634287
0.637923
0.0449774
-0.0478991
-0.544118
0.54704
0.0483844
-0.0444859
-0.456552
0.452653
0.0337011
-0.0162351
-0.296149
0.278683
0.0040757
-0.0526222
0.0485465
-0.0458893
0.0433987
0.00249057
-0.0227717
0.0331327
-0.336922
0.326562
-0.0389383
0.0399446
-0.459626
0.45862
-0.038745
0.0364512
-0.541901
0.544195
-0.0337759
0.031172
-0.634915
0.637518
-0.0280994
0.0251903
-0.74876
0.751669
-0.0219138
0.0189087
-0.888115
0.89112
-0.015591
0.0124805
-1.05732
1.06043
-0.00894314
0.00552526
-1.26219
1.26561
-0.00155407
-0.00233572
-1.51093
1.51482
0.0061811
-0.0100182
-1.51189
1.51572
0.0132496
-0.0165193
-1.26444
1.26771
0.0193467
-0.0223466
-1.0603
1.0633
0.0250798
-0.0280834
-0.891769
0.894772
0.0307648
-0.0336084
-0.75361
0.756454
0.0360184
-0.0384999
-0.640978
0.64346
0.0406284
-0.0416093
-0.548832
0.549813
0.0403728
-0.0342297
-0.447355
0.441212
0.0234984
-0.0102562
-0.263442
0.2502
0.00259441
-0.0453776
0.0427832
-0.0413295
0.0395686
0.00176084
-0.0167009
0.0259266
-0.316731
0.307505
-0.0325077
0.0346307
-0.457035
0.454912
-0.034196
0.0325151
-0.546183
0.547864
-0.0303237
0.0282183
-0.639835
0.641941
-0.0257743
0.0233638
-0.754325
0.756736
-0.0204894
0.0176847
-0.894027
0.896832
-0.0144313
0.0113468
-1.06349
1.06657
-0.007841
0.00450273
-1.26894
1.27228
-0.000659006
-0.00308163
-1.51862
1.52236
0.00676554
-0.0104379
-1.51945
1.52312
0.013538
-0.016703
-1.27095
1.27412
0.0194274
-0.0222752
-1.06632
1.06916
0.0247301
-0.0272508
-0.897566
0.900086
0.029366
-0.0315136
-0.758889
0.761036
0.0333705
-0.0353115
-0.6456
0.647541
0.036752
-0.0368892
-0.550313
0.55045
0.0344123
-0.0273357
-0.434518
0.427441
0.0176096
-0.00743312
-0.238638
0.228462
0.00188784
-0.0405966
0.0387088
-0.0380538
0.0367324
0.00132138
-0.0127273
0.0206381
-0.298943
0.291033
-0.0273523
0.0302488
-0.452375
0.449479
-0.0304326
0.0292963
-0.549309
0.550446
-0.0272893
0.0253585
-0.643991
0.645922
-0.0231411
0.0209858
-0.75899
0.761145
-0.0184487
0.0159439
-0.899421
0.901926
-0.0129774
0.0100762
-1.06953
1.07243
-0.00669145
0.00343164
-1.27555
1.27881
0.000331699
-0.00397117
-1.52601
1.52965
0.00753939
-0.0110866
-1.5267
1.53025
0.0140471
-0.0170051
-1.27724
1.2802
0.0194566
-0.0219167
-1.07189
1.07435
0.0239834
-0.0260751
-0.902347
0.904439
0.0278569
-0.0296982
-0.763001
0.764842
0.0313147
-0.0330167
-0.649345
0.651047
0.0338024
-0.0332014
-0.550216
0.549615
0.0297973
-0.0224028
-0.420145
0.41275
0.0138476
-0.00577607
-0.219436
0.211365
0.00147603
-0.037051
0.035575
-0.0355806
0.034566
0.00101458
-0.00991541
0.0165845
-0.28377
0.277101
-0.0230177
0.0263532
-0.446346
0.443011
-0.0271038
0.0263817
-0.551373
0.552095
-0.0246028
0.0227996
-0.647837
0.64964
-0.020706
0.018665
-0.763238
0.765279
-0.0162632
0.0139067
-0.904284
0.906641
-0.0111351
0.00842021
-1.07516
1.07788
-0.00523141
0.00212084
-1.28196
1.28507
0.00151248
-0.00504083
-1.53321
1.53674
0.00848076
-0.0118457
-1.53368
1.53705
0.0145861
-0.0172484
-1.28306
1.28572
0.0194095
-0.0215575
-1.07671
1.07886
0.0233726
-0.0252219
-0.906384
0.908233
0.0267991
-0.0284258
-0.766566
0.768193
0.0298387
-0.0311935
-0.652606
0.653961
0.0314806
-0.0301372
-0.548648
0.547305
0.0261008
-0.01877
-0.405357
0.398026
0.0112898
-0.00468201
-0.204091
0.197484
0.00120279
-0.0342496
0.0330468
-0.0336783
0.0328925
0.000785774
-0.0078242
0.0134083
-0.271006
0.265422
-0.01934
0.0228575
-0.439579
0.436061
-0.0240721
0.0235901
-0.552737
0.553219
-0.022071
0.0203718
-0.651448
0.653147
-0.0183662
0.0164035
-0.767274
0.769237
-0.0140852
0.0118083
-0.908887
0.911164
-0.00913154
0.00651962
-1.08046
1.08308
-0.00346474
0.000491489
-1.28806
1.29103
0.00297598
-0.00633463
-1.54016
1.54351
0.0095848
-0.0127233
-1.54026
1.5434
0.0152435
-0.0176545
-1.28831
1.29072
0.0195898
-0.0215043
-1.08098
1.08289
0.0231169
-0.0247556
-0.909957
0.911596
0.026148
-0.0275788
-0.76971
0.771141
0.0287895
-0.029754
-0.65512
0.656085
0.0296624
-0.0276386
-0.545609
0.543585
0.0231834
-0.0160986
-0.390807
0.383722
0.0095056
-0.00392993
-0.191438
0.185863
0.00101462
-0.0319481
0.0309335
-0.0322062
0.0315988
0.000607423
-0.00620338
0.0108577
-0.260333
0.255679
-0.0161811
0.0196818
-0.432557
0.429056
-0.0212043
0.020939
-0.553638
0.553903
-0.0196427
0.0179973
-0.654876
0.656521
-0.0160397
0.0141181
-0.771167
0.773088
-0.0118488
0.00962114
-0.913334
0.915562
-0.00700276
0.00445221
-1.08558
1.08813
-0.0014787
-0.0013971
-1.2939
1.29678
0.0047215
-0.00790975
-1.54675
1.54993
0.0109656
-0.0138887
-1.54638
1.5493
0.0162126
-0.0184027
-1.29309
1.29528
0.0201306
-0.0218224
-1.0848
1.08649
0.0232397
-0.0246767
-0.913106
0.914543
0.025898
-0.0271493
-0.772469
0.77372
0.0282162
-0.0287579
-0.656846
0.657388
0.0282682
-0.025663
-0.541261
0.538656
0.0209379
-0.0141573
-0.376792
0.370011
0.00825636
-0.00341063
-0.180686
0.17584
0.000885447
-0.0299913
0.0291059
-0.0310734
0.0306114
0.000461938
-0.00489129
0.00874048
-0.251457
0.247608
-0.0134099
0.0167435
-0.425654
0.422321
-0.0184318
0.0183457
-0.554133
0.554219
-0.0172319
0.0156145
-0.658228
0.659845
-0.0136694
0.0117525
-0.774989
0.776906
-0.00949
0.00727546
-0.917688
0.919902
-0.00468229
0.00216638
-1.09057
1.09309
0.000753368
-0.00355936
-1.29956
1.30236
0.0067754
-0.00982578
-1.55301
1.55606
0.0127152
-0.0154439
-1.55206
1.55479
0.0175809
-0.0195513
-1.29744
1.29941
0.021071
-0.0225424
-1.08819
1.08966
0.0237739
-0.0250255
-0.915853
0.917105
0.0260935
-0.0271823
-0.774873
0.775961
0.028038
-0.0282092
-0.65773
0.657901
0.0272905
-0.0241787
-0.535791
0.53268
0.0192728
-0.0127803
-0.363387
0.356895
0.0073963
-0.00305983
-0.171278
0.166942
0.000799817
-0.0282703
0.0274705
-0.0302201
0.0298823
0.000337845
-0.00378439
0.00692241
-0.244143
0.241005
-0.0109242
0.013979
-0.419151
0.416096
-0.0157041
0.015758
-0.554302
0.554248
-0.0147142
0.0131582
-0.661517
0.663073
-0.0111954
0.00924855
-0.778812
0.780759
-0.00695208
0.00471298
-0.92202
0.924259
-0.00210465
-0.000410967
-1.09551
1.09802
0.00331086
-0.00607624
-1.30508
1.30785
0.0092159
-0.0121575
-1.559
1.56194
0.0149039
-0.0174534
-1.55736
1.55991
0.0194103
-0.0211634
-1.30136
1.30311
0.022477
-0.0237328
-1.09116
1.09242
0.0247845
-0.0258573
-0.918226
0.919299
0.0267791
-0.0277074
-0.776939
0.777867
0.0283005
-0.0281684
-0.65792
0.657788
0.026771
-0.0231835
-0.529332
0.525744
0.0181309
-0.0118629
-0.350534
0.344266
0.00683936
-0.00283974
-0.162798
0.158799
0.000748379
-0.0267028
0.0259544
-0.0296082
0.0293821
0.000226061
-0.00280615
0.00529825
-0.238216
0.235724
-0.00863049
0.0113216
-0.413254
0.410563
-0.0129671
0.0130853
-0.554242
0.554124
-0.0120713
0.0105436
-0.66471
0.666238
-0.00853735
0.00652899
-0.7827
0.784708
-0.00416025
0.00185953
-0.926405
0.928705
0.000806644
-0.00336158
-1.10045
1.103
0.00628413
-0.00904482
-1.31053
1.31329
0.0121423
-0.0150011
-1.56478
1.56764
0.0176242
-0.0200094
-1.56229
1.56468
0.0217956
-0.0233361
-1.30487
1.30641
0.0244418
-0.0254784
-1.09373
1.09477
0.0263447
-0.0272287
-0.920234
0.921118
0.0279904
-0.0287509
-0.778626
0.779387
0.0290586
-0.0285793
-0.657523
0.657044
0.026714
-0.0226701
-0.52195
0.517906
0.0174644
-0.0113287
-0.338089
0.331954
0.00652569
-0.00272327
-0.15492
0.151118
0.000723942
-0.0252243
0.0245004
-0.0292169
0.029098
0.000118882
-0.00189233
0.00377412
-0.233563
0.231682
-0.00642934
0.00868456
-0.408128
0.405873
-0.0101409
0.010243
-0.554113
0.554011
-0.00922217
0.00768138
-0.667885
0.669425
-0.00560041
0.00349738
-0.786712
0.788815
-0.00101694
-0.00138295
-0.930913
0.933313
0.0041496
-0.00678345
-1.10547
1.10811
0.00977157
-0.0125645
-1.31599
1.31878
0.0156554
-0.0184578
-1.5704
1.57321
0.0209762
-0.0232093
-1.56689
1.56912
0.0248295
-0.0261571
-1.30797
1.3093
0.0270558
-0.0278693
-1.09588
1.0967
0.0285413
-0.0292269
-0.921858
0.922543
0.0298316
-0.0304436
-0.779966
0.780578
0.0303871
-0.0294917
-0.656389
0.655493
0.0271346
-0.0226245
-0.513666
0.509156
0.0172282
-0.0111191
-0.325861
0.319752
0.00641195
-0.00269115
-0.147378
0.143657
0.000721482
-0.0237837
0.0230622
-0.0290405
0.0290303
1.01985e-05
-0.000993735
0.00227649
-0.230123
0.22884
-0.00423762
0.00599107
-0.403912
0.402159
-0.00715406
0.00715699
-0.554083
0.55408
-0.00608012
0.00448413
-0.671125
0.672721
-0.00228551
5.07494e-05
-0.790914
0.793149
0.00258537
-0.00512635
-0.935621
0.938162
0.00804045
-0.0107962
-1.11067
1.11342
0.0138958
-0.0167604
-1.32151
1.32438
0.019883
-0.0226575
-1.57592
1.57869
0.0250908
-0.0271823
-1.57116
1.57325
0.0286396
-0.0297585
-1.31066
1.31178
0.0304496
-0.0310378
-1.0976
1.09819
0.0315088
-0.0319822
-0.923078
0.923551
0.0323998
-0.0327401
-0.780919
0.781259
0.0323801
-0.0309862
-0.654414
0.65302
0.0280953
-0.0230731
-0.504438
0.499416
0.0174145
-0.0112091
-0.313629
0.307424
0.00647743
-0.00273388
-0.139946
0.136203
0.000738505
-0.0223383
0.0215998
-0.0290808
0.0291839
-0.000103147
-5.84234e-05
0.000734229
-0.227881
0.227205
-0.00197133
0.00315664
-0.400737
0.399552
-0.00392446
0.00374257
-0.55433
0.554512
-0.00254942
0.000838167
-0.674527
0.676238
0.00151858
-0.00392973
-0.795379
0.79779
0.0067722
-0.00950156
-0.940612
0.943341
0.0126158
-0.0155413
-1.11611
1.11904
0.0188028
-0.0217812
-1.32719
1.33017
0.0249758
-0.0277523
-1.58138
1.58416
0.0301207
-0.0320799
-1.57514
1.5771
0.0333769
-0.0342862
-1.31293
1.31384
0.0347649
-0.0351155
-1.09887
1.09922
0.0353757
-0.0356282
-0.923864
0.924117
0.0358361
-0.0358334
-0.781294
0.781292
0.0351246
-0.0331477
-0.651424
0.649448
0.0296531
-0.0240389
-0.494162
0.488548
0.0180185
-0.0115807
-0.301142
0.294704
0.00670654
-0.00284353
-0.132422
0.128559
0.00077257
-0.0208505
0.0200779
-0.0293579
0.0295967
-0.000238776
0.000908776
-0.000905298
-0.226869
0.226866
0.000453015
8.74581e-05
-0.398737
0.398197
-0.000355649
-0.000103809
-0.555042
0.555502
0.00148466
-0.0033722
-0.678211
0.680098
0.00594747
-0.00858704
-0.800195
0.802834
0.0116946
-0.0146672
-0.945983
0.948956
0.0180423
-0.0211917
-1.12191
1.12506
0.0246713
-0.0278095
-1.33311
1.33625
0.0311172
-0.0339208
-1.58686
1.58966
0.0362347
-0.0380691
-1.57883
1.58067
0.0392154
-0.0399116
-1.31475
1.31545
0.0401635
-0.0402568
-1.09965
1.09975
0.0402872
-0.0403027
-0.924186
0.924202
0.0403194
-0.0398675
-0.780977
0.780525
0.0387235
-0.0360642
-0.647262
0.644603
0.0318683
-0.0255463
-0.482658
0.476336
0.0190379
-0.012219
-0.288119
0.2813
0.00708514
-0.0030122
-0.124613
0.12054
0.000821063
-0.0192871
0.0184661
-0.029906
0.0302914
-0.000385367
0.00200868
-0.00263408
-0.227179
0.227804
0.00305563
-0.00328495
-0.398057
0.398287
0.00367213
-0.00451813
-0.556447
0.557293
0.00615224
-0.0082876
-0.682307
0.684443
0.0111576
-0.0140938
-0.805464
0.808401
0.0175381
-0.0208186
-0.951848
0.955128
0.0245239
-0.0279581
-1.12817
1.1316
0.0317167
-0.0350627
-1.33936
1.34271
0.0385248
-0.0413795
-1.59239
1.59524
0.0436444
-0.0453409
-1.58223
1.58393
0.0463165
-0.0468057
-1.31612
1.31661
0.0468277
-0.0466461
-1.09991
1.09973
0.0464308
-0.0461977
-0.923992
0.923759
0.0459779
-0.0450131
-0.779783
0.778818
0.0433291
-0.039848
-0.641729
0.638248
0.0348116
-0.0276223
-0.469678
0.462488
0.0204715
-0.0131093
-0.274258
0.266896
0.00759849
-0.00323124
-0.116341
0.111974
0.000881001
-0.0176208
0.0167398
-0.0307559
0.0313195
-0.000563623
0.00329643
-0.00472736
-0.228868
0.230299
0.00607197
-0.00711539
-0.398909
0.399952
0.00825709
-0.0096135
-0.558777
0.560133
0.0116373
-0.0141039
-0.686958
0.689425
0.0173575
-0.0206674
-0.811322
0.814632
0.0245314
-0.0281951
-0.958338
0.962002
0.0323108
-0.0360974
-1.13501
1.1388
0.0402002
-0.0438023
-1.34604
1.34964
0.0474567
-0.0503807
-1.59802
1.60094
0.0525983
-0.0541447
-1.58533
1.58687
0.0549391
-0.0552029
-1.31699
1.31726
0.054976
-0.0544994
-1.0996
1.09912
0.0540253
-0.0535132
-0.923251
0.922739
0.0529014
-0.0514532
-0.777652
0.776204
0.049066
-0.044594
-0.634538
0.630066
0.0385387
-0.030279
-0.454882
0.446622
0.022304
-0.0142255
-0.259228
0.251149
0.00822357
-0.00348761
-0.107444
0.102708
0.000947943
-0.0158307
0.0148828
-0.0319756
0.0327711
-0.000795553
0.00486046
-0.00720889
-0.232184
0.234532
0.00962902
-0.0116048
-0.401493
0.403469
0.0136326
-0.0156265
-0.562273
0.564267
0.0181773
-0.0210728
-0.692336
0.695232
0.0248258
-0.0285996
-0.817928
0.821702
0.0329825
-0.0371172
-0.96561
0.969745
0.0417324
-0.0459428
-1.14257
1.14678
0.0504534
-0.0543521
-1.35323
1.35713
0.058221
-0.061213
-1.60378
1.60677
0.0633655
-0.064737
-1.58808
1.58945
0.0653202
-0.0653259
-1.3173
1.31731
0.0648351
-0.0640375
-1.09868
1.09789
0.0632891
-0.0625077
-0.921906
0.921125
0.0613927
-0.0593508
-0.774601
0.772559
0.0561031
-0.0504007
-0.625312
0.61961
0.0430855
-0.0334976
-0.43784
0.428252
0.0244899
-0.0155172
-0.242679
0.233707
0.00892114
-0.00376058
-0.0977786
0.0926181
0.00101519
-0.0139056
0.0128904
-0.0336586
0.0347577
-0.00109903
0.00682872
-0.0102771
-0.237356
0.240805
0.0139716
-0.0170347
-0.40611
0.409173
0.0200775
-0.0228339
-0.567231
0.569988
0.0260658
-0.0295235
-0.698663
0.702121
0.0339192
-0.0382774
-0.825472
0.82983
0.0432991
-0.0480037
-0.973843
0.978548
0.0532133
-0.0579166
-1.15099
1.15569
0.062886
-0.067102
-1.36101
1.36522
0.0711784
-0.0742073
-1.60965
1.61267
0.0762513
-0.0774008
-1.59044
1.59159
0.0777323
-0.0774367
-1.31694
1.31664
0.0766601
-0.0755059
-1.09709
1.09594
0.0744748
-0.0733964
-0.919974
0.918896
0.0717164
-0.068921
-0.770415
0.76762
0.0645687
-0.0573019
-0.613557
0.60629
0.0484137
-0.0371884
-0.418019
0.406793
0.0269236
-0.0168915
-0.224263
0.21423
0.00962589
-0.00401823
-0.0872487
0.081641
0.00107304
-0.0118493
0.0107763
-0.0359392
0.0374556
-0.0015164
0.00941589
-0.0142326
-0.244734
0.249551
0.0194391
-0.0237556
-0.413115
0.417432
0.0279709
-0.0316443
-0.573979
0.577653
0.0357396
-0.0399432
-0.706219
0.710422
0.0451528
-0.0502414
-0.83419
0.839279
0.0560418
-0.0614226
-0.983238
0.988619
0.0673148
-0.0725598
-1.1604
1.16565
0.0780036
-0.0825156
-1.36939
1.3739
0.0867385
-0.0897192
-1.61554
1.61852
0.0915611
-0.0923966
-1.59227
1.59311
0.0924199
-0.0918205
-1.31583
1.31523
0.0906775
-0.0891514
-1.09478
1.09325
0.0878312
-0.0862746
-0.917315
0.915758
0.084082
-0.0802472
-0.7647
0.760866
0.0744811
-0.0652236
-0.59858
0.589322
0.0543721
-0.0411548
-0.394786
0.381568
0.0294124
-0.0181978
-0.203665
0.19245
0.0102399
-0.00421604
-0.0758332
0.0698093
0.00110882
-0.0096863
0.00857748
-0.0390251
0.0411451
-0.00211995
0.0129805
-0.0195486
-0.254821
0.261389
0.0265748
-0.0323519
-0.422998
0.428775
0.0379381
-0.0427312
-0.582904
0.587697
0.0478961
-0.0530508
-0.715386
0.720541
0.0593233
-0.0653178
-0.844373
0.850367
0.0720364
-0.0781757
-0.994003
1.00014
0.0847916
-0.0905672
-1.17087
1.17665
0.0964201
-0.101126
-1.37831
1.38301
0.105348
-0.108124
-1.62125
1.62402
0.109613
-0.109995
-1.59337
1.59376
0.109621
-0.108618
-1.31392
1.31291
0.107092
-0.105185
-1.09173
1.08983
0.103566
-0.101458
-0.913564
0.911456
0.0986366
-0.0934023
-0.756863
0.751629
0.0857512
-0.0739245
-0.579485
0.567658
0.0606306
-0.0450447
-0.367436
0.35185
0.0316487
-0.0192188
-0.180683
0.168253
0.0106329
-0.00429931
-0.0636292
0.0572956
0.00110815
-0.00746722
0.00635906
-0.0432539
0.0463045
-0.00305054
0.0181592
-0.0270233
-0.268365
0.277229
0.0362784
-0.0438124
-0.436442
0.443976
0.0510322
-0.0571679
-0.594514
0.600649
0.0637534
-0.0702302
-0.726596
0.733073
0.0777556
-0.0847596
-0.856336
0.86334
0.0924551
-0.0993456
-1.00627
1.01316
0.106604
-0.112774
-1.18233
1.1885
0.11883
-0.123508
-1.38749
1.39217
0.127464
-0.129791
-1.62642
1.62874
0.130707
-0.130446
-1.59345
1.59319
0.12953
-0.128003
-1.31102
1.30949
0.126098
-0.123776
-1.08787
1.08555
0.12172
-0.119089
-0.908539
0.905907
0.115283
-0.108146
-0.74611
0.738973
0.0979901
-0.0828763
-0.55508
0.539967
0.0665992
-0.0483081
-0.335263
0.316972
0.0331978
-0.0196793
-0.155331
0.141813
0.0106546
-0.00421082
-0.0508956
0.0444518
0.00105737
-0.00527044
0.00421307
-0.0492169
0.0538383
-0.00462139
0.0261743
-0.0381352
-0.28655
0.298511
0.0502653
-0.0601535
-0.454541
0.464429
0.069422
-0.0771784
-0.609382
0.617139
0.0854901
-0.0935011
-0.740347
0.748358
0.10238
-0.110369
-0.87029
0.878279
0.1189
-0.12632
-1.01994
1.02736
0.133893
-0.140109
-1.19439
1.20061
0.145957
-0.150224
-1.39641
1.40068
0.153498
-0.155022
-1.6305
1.63202
0.15507
-0.153924
-1.5921
1.59096
0.152304
-0.15016
-1.30689
1.30474
0.147817
-0.145006
-1.08308
1.08026
0.142494
-0.139152
-0.902111
0.89877
0.133881
-0.123986
-0.731278
0.721384
0.110442
-0.0911761
-0.523874
0.504608
0.0713825
-0.0502148
-0.297722
0.276554
0.0335488
-0.0193008
-0.127998
0.11375
0.010172
-0.00390662
-0.0380815
0.0318161
0.000945999
-0.00319716
0.00225116
-0.0580366
0.0659216
-0.00788494
0.0402105
-0.0567398
-0.311574
0.328103
0.0729191
-0.0859403
-0.478901
0.491922
0.0973478
-0.10667
-0.628031
0.637353
0.116689
-0.126115
-0.756872
0.766299
0.136071
-0.144582
-0.885981
0.894492
0.153312
-0.160627
-1.03439
1.04171
0.16783
-0.173464
-1.20624
1.21187
0.178461
-0.181733
-1.4042
1.40747
0.183772
-0.184027
-1.63272
1.63298
0.182825
-0.180511
-1.58883
1.58652
0.17799
-0.175105
-1.30128
1.2984
0.17224
-0.168864
-1.07716
1.07378
0.165746
-0.161251
-0.893658
0.889163
0.153739
-0.139831
-0.710504
0.696597
0.121675
-0.0973907
-0.484033
0.459749
0.0738502
-0.0500604
-0.254744
0.230955
0.0323324
-0.0179605
-0.0996115
0.0852396
0.00915243
-0.00338138
-0.025807
0.0200359
0.000768995
-0.00135695
0.000587953
-0.0732413
0.0776923
-0.00445098
0.0308529
-0.0453533
-0.347466
0.361967
0.0598918
-0.0718986
-0.510826
0.522833
0.0828747
-0.0933406
-0.650288
0.660754
0.105306
-0.116332
-0.775048
0.786074
0.128658
-0.139698
-0.902
0.91304
0.1516
-0.162335
-1.04814
1.05888
0.1738
-0.183885
-1.21649
1.22658
0.1943
-0.203039
-1.40967
1.41841
0.211483
-0.217841
-1.63214
1.6385
0.222141
-0.22508
-1.58302
1.58596
0.22671
-0.227923
-1.29389
1.2951
0.228687
-0.228167
-1.06969
1.06917
0.226652
-0.221393
-0.881763
0.876504
0.209546
-0.186832
-0.681079
0.658366
0.157482
-0.120558
-0.434006
0.397081
0.0874665
-0.0562724
-0.207216
0.176022
0.0347353
-0.0184252
-0.0717175
0.0554074
0.00893678
-0.00308336
-0.0147527
0.00889927
0.000622232
0.000194187
-0.00081642
-0.0854766
0.0835872
0.0018894
0.00867062
-0.0182465
-0.379389
0.388965
0.0294219
-0.0382311
-0.539761
0.548571
0.0472384
-0.0560713
-0.673984
0.682817
0.0670031
-0.0773
-0.79653
0.806827
0.0884231
-0.0986439
-0.923503
0.933723
0.109653
-0.119252
-1.06938
1.07897
0.129722
-0.138595
-1.23653
1.2454
0.147788
-0.155324
-1.42695
1.43448
0.162304
-0.167509
-1.64435
1.64956
0.170847
-0.172915
-1.58839
1.59046
0.173602
-0.173945
-1.29467
1.29502
0.174035
-0.173198
-1.06678
1.06594
0.170469
-0.162924
-0.865777
0.858232
0.149221
-0.126669
-0.631296
0.608745
0.101091
-0.0723677
-0.357911
0.329188
0.0495208
-0.0302203
-0.14605
0.126749
0.0178509
-0.00907828
-0.0404275
0.0316549
0.00420012
-0.00136705
-0.00336036
0.000527285
0.000233518
0.00162304
-0.00185656
-0.0872039
0.0842289
0.00297502
-0.000618096
-0.00502989
-0.401328
0.406976
0.0125599
-0.01918
-0.561523
0.568143
0.0260088
-0.033633
-0.694239
0.701863
0.0431761
-0.0521498
-0.816042
0.825016
0.0620644
-0.0710286
-0.943129
0.952094
0.080463
-0.0891084
-1.08844
1.09709
0.0983593
-0.10634
-1.25391
1.26189
0.114216
-0.120591
-1.44149
1.44787
0.126664
-0.130927
-1.65435
1.65861
0.133417
-0.134736
-1.59208
1.5934
0.134862
-0.134756
-1.29417
1.29406
0.134114
-0.132768
-1.06212
1.06077
0.129253
-0.120558
-0.84644
0.837745
0.106794
-0.0862713
-0.58299
0.562467
0.0654136
-0.0443503
-0.298744
0.277681
0.0293957
-0.0176731
-0.107816
0.0960932
0.010406
-0.00533959
-0.0231032
0.0180368
0.0025062
-0.000832375
0.00247875
-0.00415257
0.000150529
0.00229014
-0.00244066
-0.0860025
0.0831184
0.00288408
-0.00474388
0.00180874
-0.416188
0.419123
0.00317046
-0.00825282
-0.577999
0.583081
0.014063
-0.0204823
-0.710956
0.717375
0.0286909
-0.0364143
-0.833194
0.840918
0.0449171
-0.0526406
-0.960482
0.968205
0.0611767
-0.0685881
-1.10529
1.1127
0.0767275
-0.0833139
-1.26947
1.27606
0.0901963
-0.0957205
-1.45408
1.45961
0.100741
-0.10395
-1.66263
1.66584
0.105916
-0.106844
-1.59432
1.59525
0.106655
-0.105771
-1.293
1.29212
0.104665
-0.102759
-1.05618
1.05427
0.0987368
-0.0901854
-0.825153
0.816601
0.0773488
-0.0601409
-0.539418
0.52221
0.0441725
-0.0295138
-0.255632
0.240973
0.0196417
-0.0121022
-0.0837737
0.0762341
0.0073562
-0.00393913
-0.0125187
0.00910162
0.00194263
-0.00068692
0.00613529
-0.007391
0.000138836
0.00272512
-0.00286395
-0.0844585
0.0818431
0.00261537
-0.00632749
0.00511043
-0.42626
0.427477
-0.00134449
-0.00249728
-0.591269
0.59511
0.00717114
-0.0129387
-0.725028
0.730795
0.0198267
-0.0265917
-0.847813
0.854578
0.0339496
-0.0406563
-0.975436
0.982142
0.0479892
-0.054551
-1.11995
1.12651
0.0614751
-0.067422
-1.28249
1.28843
0.073332
-0.0780127
-1.46476
1.46944
0.0821588
-0.0846433
-1.66898
1.67146
0.0860153
-0.086256
-1.59557
1.59581
0.085725
-0.0846175
-1.29071
1.2896
0.0831089
-0.0805601
-1.04944
1.04689
0.0765144
-0.0685168
-0.804256
0.796258
0.0575088
-0.0436175
-0.502913
0.489022
0.0317514
-0.0214899
-0.225026
0.214765
0.0146728
-0.00946234
-0.0678359
0.0626255
0.0060528
-0.00342017
-0.00509318
0.00246055
0.00178438
-0.000668367
0.00895227
-0.0100683
0.000152343
0.00309438
-0.00324672
-0.0829056
0.0806061
0.00229953
-0.00660814
0.00602786
-0.433192
0.433772
-0.00374458
0.000623223
-0.601537
0.604659
0.00384572
-0.0087482
-0.736923
0.741825
0.0146251
-0.0204497
-0.860429
0.866253
0.0269197
-0.0328479
-0.988445
0.994373
0.0394551
-0.0451417
-1.13275
1.13844
0.0512496
-0.056468
-1.29403
1.29925
0.0615377
-0.0654675
-1.4738
1.47773
0.0687917
-0.0709579
-1.67386
1.67603
0.071707
-0.0716166
-1.59563
1.59554
0.0707235
-0.0692612
-1.28797
1.28651
0.0676511
-0.0646154
-1.04213
1.03909
0.0604985
-0.0534116
-0.784735
0.777648
0.0441596
-0.0332024
-0.473223
0.462266
0.0244145
-0.0170678
-0.203145
0.195798
0.0122586
-0.00839589
-0.0564476
0.0525848
0.00566367
-0.00338537
0.000768333
-0.00304663
0.00185375
-0.000738835
0.0114358
-0.0125507
0.000181724
0.0034457
-0.00362742
-0.0815824
0.0797206
0.00186183
-0.00605716
0.00596381
-0.438221
0.438314
-0.00413655
0.00180811
-0.610393
0.612722
0.00226729
-0.00664782
-0.747138
0.751519
0.0121147
-0.017067
-0.871589
0.876541
0.0226624
-0.0278253
-1.00021
1.00537
0.0339223
-0.0389401
-1.14409
1.14911
0.0442093
-0.0488941
-1.3042
1.30889
0.0536877
-0.0569978
-1.48158
1.48489
0.0597958
-0.0612735
-1.67773
1.67921
0.0618028
-0.0609961
-1.59519
1.59438
0.0599356
-0.0583109
-1.2846
1.28297
0.0562843
-0.0532131
-1.03448
1.03141
0.0491065
-0.0426362
-0.767038
0.760568
0.0351712
-0.0265417
-0.44933
0.4407
0.0199925
-0.0147606
-0.187161
0.181929
0.0111808
-0.00812951
-0.0477727
0.0447214
0.00579457
-0.00365238
0.00589666
-0.00803886
0.00209611
-0.000880404
0.0138962
-0.0151119
0.000234236
0.00382693
-0.00406117
-0.0806791
0.0791652
0.00151392
-0.00523088
0.00542109
-0.441987
0.441796
-0.00384303
0.00172245
-0.61794
0.620061
0.00201902
-0.00588913
-0.756154
0.760025
0.0104951
-0.0151404
-0.881371
0.886017
0.0201774
-0.0253105
-1.01027
1.0154
0.0304234
-0.0350029
-1.15415
1.15873
0.0400874
-0.0441856
-1.31334
1.31744
0.0480363
-0.051282
-1.48798
1.49122
0.0536285
-0.0547279
-1.68063
1.68173
0.0546953
-0.0537152
-1.59365
1.59267
0.0523208
-0.0503276
-1.28074
1.27874
0.0480878
-0.0447605
-1.02692
1.0236
0.0407065
-0.0350664
-0.751092
0.745452
0.0286551
-0.0219883
-0.430186
0.42352
0.0171804
-0.0133094
-0.175411
0.17154
0.0105915
-0.00813862
-0.0407745
0.0383217
0.00606509
-0.0040072
0.0106904
-0.0127483
0.00240418
-0.00105825
0.0165217
-0.0178676
0.000301469
0.00429243
-0.0045939
-0.0802611
0.0789466
0.00131447
-0.00412317
0.0041852
-0.445095
0.445033
-0.00292245
0.000919116
-0.624665
0.626668
0.00244604
-0.00609869
-0.764354
0.768007
0.0103962
-0.0144956
-0.89039
0.894489
0.0194945
-0.0236346
-1.01986
1.024
0.0284973
-0.0326626
-1.16339
1.16755
0.037318
-0.041273
-1.3214
1.32535
0.0449822
-0.0475137
-1.49407
1.4966
0.0495634
-0.0503511
-1.68257
1.68335
0.0502011
-0.0486869
-1.59137
1.58986
0.0469855
-0.0446071
-1.27656
1.27418
0.0420799
-0.0384067
-1.019
1.01533
0.0344147
-0.0291281
-0.736819
0.731532
0.0237495
-0.0184658
-0.414991
0.409707
0.0148097
-0.0120177
-0.166502
0.16371
0.00991988
-0.00790901
-0.0349903
0.0329794
0.00610518
-0.00419898
0.0152136
-0.0171198
0.00261231
-0.00121336
0.0193167
-0.0207157
0.000362092
0.00485847
-0.00522056
-0.0800831
0.0791017
0.000981366
-0.0030893
0.0027526
-0.448051
0.448388
-0.00174753
-0.000232501
-0.630443
0.632423
0.00318005
-0.00661675
-0.771808
0.775244
0.0106239
-0.0147399
-0.898396
0.902512
0.0189544
-0.0231101
-1.02829
1.03244
0.0277339
-0.0314642
-1.17207
1.1758
0.0359349
-0.0395332
-1.32897
1.33257
0.0428785
-0.0454927
-1.49939
1.502
0.0474159
-0.0477808
-1.68396
1.68433
0.0470662
-0.045418
-1.58827
1.58662
0.0434934
-0.0406487
-1.27134
1.26849
0.0376454
-0.0338446
-1.01072
1.00692
0.0293372
-0.0244559
-0.723513
0.718632
0.0197761
-0.0154147
-0.402728
0.398367
0.0126148
-0.010414
-0.15965
0.157449
0.00877914
-0.00716181
-0.0302041
0.0285867
0.00568147
-0.0040407
0.019325
-0.0209657
0.00260832
-0.0012675
0.0221358
-0.0234766
0.00040172
0.00550228
-0.005904
-0.0802924
0.0794883
0.000804074
-0.00219398
0.00195395
-0.451038
0.451278
-0.00049346
-0.00126115
-0.636123
0.637878
0.00431764
-0.00755239
-0.778566
0.781801
0.0113052
-0.0149079
-0.906239
0.909842
0.0191289
-0.0228268
-1.03653
1.04023
0.0272224
-0.0312191
-1.17991
1.18391
0.035065
-0.0387251
-1.33609
1.33975
0.0421363
-0.0444144
-1.50433
1.50661
0.0461297
-0.0466129
-1.68467
1.68516
0.0455849
-0.0437058
-1.58452
1.58265
0.0411968
-0.0379811
-1.26534
1.26212
0.0346886
-0.0303537
-1.00196
0.997625
0.0257462
-0.0208136
-0.711049
0.706117
0.0165088
-0.0126715
-0.392228
0.388391
0.0102675
-0.00847791
-0.15414
0.152351
0.00714505
-0.00591287
-0.0263018
0.0250697
0.00479155
-0.00351814
0.0227901
-0.0240635
0.00234086
-0.00118858
0.0247339
-0.0258862
0.000397707
0.00617366
-0.00657136
-0.0807945
0.0801664
0.000628074
-0.00115944
0.000779394
-0.454051
0.454431
0.0004796
-0.00249232
-0.64126
0.643272
0.00543263
-0.00845282
-0.784926
0.787946
0.0122129
-0.0155826
-0.913379
0.916748
0.0195383
-0.0232505
-1.04436
1.04807
0.0274062
-0.0312055
-1.18766
1.19146
0.0350679
-0.0385201
-1.34321
1.34666
0.041796
-0.0444739
-1.50901
1.51169
0.0461117
-0.0462688
-1.68531
1.68546
0.0452105
-0.0428146
-1.58031
1.57791
0.0400994
-0.0366148
-1.25848
1.25499
0.0326668
-0.0278905
-0.992384
0.987608
0.0229665
-0.0178
-0.698902
0.693736
0.0137088
-0.0101169
-0.383
0.379408
0.00797042
-0.00635503
-0.149467
0.147852
0.00528788
-0.00438558
-0.0231808
0.0222785
0.00361337
-0.00274007
0.025462
-0.0263353
0.00188613
-0.00100896
0.0268674
-0.0277446
0.000369798
0.00679131
-0.00716111
-0.0815344
0.081031
0.000503397
-0.000307494
-0.000161864
-0.457142
0.457611