/*--------------------------------*- C++ -*----------------------------------*\
  =========                 |
  \\      /  F ield         | OpenFOAM: The Open Source CFD Toolbox
   \\    /   O peration     | Website:  https://openfoam.org
    \\  /    A nd           | Version:  6
     \\/     M anipulation  |
\*---------------------------------------------------------------------------*/
FoamFile
{
    version     2.0;
    format      ascii;
    class       volVectorField;
    location    "98.9";
    object      U;
}
// * * * * * * * * * * * * * * * * * * * * * * * * * * * * * * * * * * * * * //

dimensions      [0 1 -1 0 0 0 0];

internalField   nonuniform List<vector> 
8800
(
(0.987184 -0.0766652 0)
(1.00189 -0.0551899 0)
(0.999722 -0.0285477 0)
(1.00003 -0.0151426 0)
(1.0001 -0.00854374 0)
(1.00012 -0.00504571 0)
(1.00008 -0.00299983 0)
(1.00002 -0.00169877 0)
(0.999991 -0.000792096 0)
(1.00006 -7.56401e-05 0)
(0.999959 0.000657193 0)
(1.00001 0.00142505 0)
(1.00006 0.0024295 0)
(1.00007 0.00399875 0)
(1.00006 0.00663267 0)
(1.00005 0.0113721 0)
(0.999956 0.0208158 0)
(0.999174 0.0386705 0)
(1.0071 0.0724575 0)
(0.771215 0.0366617 0)
(0.363081 -0.0160163 0)
(1.04332 -0.0768108 0)
(1.0846 -0.0704387 0)
(1.0452 -0.0535319 0)
(1.02329 -0.0388819 0)
(1.01203 -0.0262025 0)
(1.00644 -0.0168384 0)
(1.0036 -0.0103024 0)
(1.00215 -0.00563763 0)
(1.00143 -0.00197428 0)
(1.00128 0.00134852 0)
(1.00166 0.00473751 0)
(1.00269 0.00865847 0)
(1.00468 0.013976 0)
(1.00861 0.0216841 0)
(1.01657 0.0326505 0)
(1.03252 0.0465619 0)
(1.06269 0.061678 0)
(1.09187 0.0761056 0)
(0.838664 0.0565644 0)
(0.216874 -0.00242856 0)
(1.07592 -0.0501215 0)
(1.09989 -0.0482896 0)
(1.06466 -0.0404375 0)
(1.04005 -0.0335741 0)
(1.02393 -0.026046 0)
(1.01413 -0.0184539 0)
(1.00856 -0.0116234 0)
(1.00558 -0.00574506 0)
(1.0043 -0.000319973 0)
(1.00463 0.00493067 0)
(1.00661 0.0103224 0)
(1.01063 0.0163809 0)
(1.01794 0.0233976 0)
(1.03053 0.0308593 0)
(1.05062 0.0378822 0)
(1.08037 0.044562 0)
(1.10627 0.0513702 0)
(0.942495 0.0416305 0)
(0.216114 0.00246302 0)
(0.175222 -0.000814979 0)
(1.01776 -0.0354624 0)
(1.10523 -0.0413443 0)
(1.07829 -0.03602 0)
(1.0535 -0.0300767 0)
(1.03624 -0.0244901 0)
(1.02403 -0.018747 0)
(1.0159 -0.0126504 0)
(1.01102 -0.00644713 0)
(1.00879 -0.00010035 0)
(1.00934 0.0061618 0)
(1.01266 0.0121588 0)
(1.01889 0.0179497 0)
(1.02875 0.0235129 0)
(1.04318 0.0288063 0)
(1.0637 0.0342776 0)
(1.09356 0.0402546 0)
(1.09339 0.0420042 0)
(0.827035 0.0229333 0)
(0.173939 0.000855017 0)
(0.154048 -0.000608629 0)
(0.956329 -0.0254272 0)
(1.10353 -0.0350745 0)
(1.08773 -0.0325841 0)
(1.06178 -0.0279188 0)
(1.04417 -0.0228791 0)
(1.03169 -0.0176112 0)
(1.02282 -0.0120564 0)
(1.01698 -0.00609903 0)
(1.0141 0.000387071 0)
(1.01475 0.00685846 0)
(1.01878 0.0127382 0)
(1.0258 0.0179765 0)
(1.03606 0.0228784 0)
(1.0506 0.027626 0)
(1.07184 0.0321395 0)
(1.10005 0.0360608 0)
(1.06799 0.0340972 0)
(0.739303 0.0143418 0)
(0.152111 0.000654128 0)
(0.139712 -0.000464535 0)
(0.899545 -0.0190342 0)
(1.09592 -0.0300021 0)
(1.09583 -0.0290896 0)
(1.06935 -0.0253404 0)
(1.05091 -0.0211792 0)
(1.03796 -0.016378 0)
(1.02882 -0.0110602 0)
(1.02267 -0.00528806 0)
(1.01949 0.00106123 0)
(1.02007 0.00738561 0)
(1.02422 0.0130146 0)
(1.03135 0.0179105 0)
(1.04181 0.0223568 0)
(1.05692 0.0263069 0)
(1.07911 0.0297454 0)
(1.1022 0.0323518 0)
(1.03577 0.0282129 0)
(0.672566 0.0102494 0)
(0.136972 0.000517039 0)
(0.129218 -0.000358708 0)
(0.850118 -0.0146588 0)
(1.08363 -0.025842 0)
(1.10157 -0.0261018 0)
(1.07625 -0.0227918 0)
(1.05728 -0.0191193 0)
(1.04387 -0.0148362 0)
(1.03437 -0.00987191 0)
(1.02796 -0.00430176 0)
(1.02457 0.00187541 0)
(1.02499 0.00799084 0)
(1.02909 0.0133412 0)
(1.03632 0.0178112 0)
(1.04704 0.0216494 0)
(1.06254 0.0249298 0)
(1.08517 0.0278418 0)
(1.10122 0.0295685 0)
(1.00066 0.023731 0)
(0.620501 0.00789728 0)
(0.125498 0.000420497 0)
(0.121233 -0.000277492 0)
(0.808194 -0.0114855 0)
(1.06851 -0.0221991 0)
(1.10518 -0.0234184 0)
(1.08257 -0.0205136 0)
(1.06318 -0.0170476 0)
(1.04949 -0.0130615 0)
(1.0397 -0.00842409 0)
(1.03299 -0.00311534 0)
(1.02933 0.00285171 0)
(1.02955 0.0087244 0)
(1.03359 0.0137258 0)
(1.04086 0.017708 0)
(1.05166 0.0210352 0)
(1.06737 0.0238986 0)
(1.09034 0.0265032 0)
(1.09731 0.0273217 0)
(0.965106 0.0202324 0)
(0.578544 0.00637759 0)
(0.116322 0.000351007 0)
(0.115073 -0.00021362 0)
(0.773002 -0.00910495 0)
(1.05195 -0.018982 0)
(1.10767 -0.0209218 0)
(1.08852 -0.0183782 0)
(1.06874 -0.0150468 0)
(1.0548 -0.0112107 0)
(1.0448 -0.00677042 0)
(1.03783 -0.00168973 0)
(1.03387 0.00403433 0)
(1.03384 0.00961368 0)
(1.03774 0.0142379 0)
(1.04492 0.0177826 0)
(1.05569 0.0207192 0)
(1.07159 0.0232505 0)
(1.0942 0.0255 0)
(1.09051 0.0254873 0)
(0.930398 0.0175531 0)
(0.543667 0.00534837 0)
(0.108713 0.000301545 0)
(0.110305 -0.000161948 0)
(0.743612 -0.00724957 0)
(1.03503 -0.0161186 0)
(1.10925 -0.0185546 0)
(1.0942 -0.0163053 0)
(1.07413 -0.0130537 0)
(1.05992 -0.00929213 0)
(1.04972 -0.0049574 0)
(1.0425 -3.45679e-05 0)
(1.03822 0.00546078 0)
(1.03786 0.010734 0)
(1.04152 0.0149977 0)
(1.04852 0.0181504 0)
(1.05922 0.0207394 0)
(1.0753 0.0229718 0)
(1.09674 0.0248301 0)
(1.08119 0.0240238 0)
(0.897072 0.0155446 0)
(0.513798 0.00464077 0)
(0.102186 0.000267443 0)
(0.106648 -0.000118681 0)
(0.719213 -0.00574481 0)
(1.0186 -0.0135365 0)
(1.11005 -0.0162522 0)
(1.0998 -0.0142602 0)
(1.07947 -0.0110054 0)
(1.06496 -0.00725616 0)
(1.05452 -0.00296452 0)
(1.04702 0.00186264 0)
(1.04237 0.00717439 0)
(1.0416 0.0121683 0)
(1.04494 0.0160958 0)
(1.0517 0.0188714 0)
(1.06231 0.0211236 0)
(1.07856 0.0230793 0)
(1.09788 0.024507 0)
(1.06971 0.0229318 0)
(0.865212 0.0140917 0)
(0.487466 0.00416491 0)
(0.0963943 0.000245688 0)
(0.103918 -8.08147e-05 0)
(0.699177 -0.00447388 0)
(1.00328 -0.0111666 0)
(1.11023 -0.0139774 0)
(1.10529 -0.0121564 0)
(1.08485 -0.00884682 0)
(1.07001 -0.00504767 0)
(1.05928 -0.000735354 0)
(1.05145 0.00405649 0)
(1.04634 0.00923772 0)
(1.04507 0.013988 0)
(1.04802 0.0175983 0)
(1.05449 0.0200009 0)
(1.06498 0.0219232 0)
(1.08134 0.0236041 0)
(1.09792 0.024683 0)
(1.05629 0.0222305 0)
(0.834613 0.0131125 0)
(0.463549 0.00386704 0)
(0.0910715 0.000233942 0)
(0.101999 -4.56214e-05 0)
(0.683046 -0.00334885 0)
(0.989525 -0.00893698 0)
(1.11003 -0.0116412 0)
(1.11064 -0.00990917 0)
(1.09033 -0.0065138 0)
(1.07514 -0.00260059 0)
(1.06408 0.00180159 0)
(1.05582 0.00662372 0)
(1.05017 0.0117292 0)
(1.0483 0.0162702 0)
(1.05077 0.0195779 0)
(1.0569 0.0216046 0)
(1.06723 0.0231944 0)
(1.08359 0.0245812 0)
(1.09705 0.0252004 0)
(1.04104 0.0219278 0)
(0.804893 0.0125308 0)
(0.441157 0.00370851 0)
(0.0860075 0.000230044 0)
(0.100834 -1.0801e-05 0)
(0.670533 -0.00229933 0)
(0.977718 -0.00677148 0)
(1.10977 -0.0091857 0)
(1.116 -0.00745682 0)
(1.09602 -0.00392885 0)
(1.08044 0.000166367 0)
(1.06897 0.00473094 0)
(1.06022 0.0096536 0)
(1.0539 0.0147413 0)
(1.0513 0.0191067 0)
(1.0532 0.0221209 0)
(1.05892 0.023771 0)
(1.06904 0.025021 0)
(1.08539 0.0261109 0)
(1.09482 0.0262052 0)
(1.02399 0.0220312 0)
(0.775573 0.0123017 0)
(0.419561 0.00366532 0)
(0.0810352 0.000232728 0)
(0.100418 2.62722e-05 0)
(0.661499 -0.00126839 0)
(0.968183 -0.00459633 0)
(1.10979 -0.00654931 0)
(1.12152 -0.0047252 0)
(1.10201 -0.00100247 0)
(1.086 0.00334936 0)
(1.07406 0.00815373 0)
(1.06468 0.0132526 0)
(1.05756 0.0183839 0)
(1.05408 0.0226075 0)
(1.05529 0.0253354 0)
(1.06054 0.0266129 0)
(1.07041 0.0275001 0)
(1.08662 0.0282541 0)
(1.09117 0.0277269 0)
(1.00502 0.0225863 0)
(0.746103 0.0124012 0)
(0.398133 0.00372426 0)
(0.0760122 0.000241294 0)
(0.10076 5.97289e-05 0)
(0.655938 -0.000197012 0)
(0.961229 -0.00233528 0)
(1.11045 -0.00366321 0)
(1.12736 -0.00162817 0)
(1.1084 0.00236758 0)
(1.09192 0.0070592 0)
(1.07941 0.0121894 0)
(1.06929 0.017547 0)
(1.0612 0.0227886 0)
(1.05667 0.026904 0)
(1.05706 0.029354 0)
(1.06174 0.0302525 0)
(1.0713 0.0307536 0)
(1.087 0.0311275 0)
(1.08575 0.0298558 0)
(0.983882 0.0236302 0)
(0.715863 0.0128139 0)
(0.376297 0.00387534 0)
(0.0708122 0.000254831 0)
(0.101953 0.000115435 0)
(0.654012 0.000958797 0)
(0.957186 8.96804e-05 0)
(1.11213 -0.000447154 0)
(1.13374 0.00193481 0)
(1.11532 0.00630078 0)
(1.09832 0.0114293 0)
(1.08512 0.0169839 0)
(1.07411 0.0226915 0)
(1.06485 0.0281119 0)
(1.05906 0.0321502 0)
(1.05846 0.0343305 0)
(1.06248 0.0348252 0)
(1.07164 0.034919 0)
(1.08637 0.0348702 0)
(1.07832 0.0326762 0)
(0.960188 0.0252015 0)
(0.684165 0.0135291 0)
(0.35351 0.00410883 0)
(0.0653254 0.000272321 0)
(0.104143 0.000167538 0)
(0.655889 0.00208789 0)
(0.956421 0.00277365 0)
(1.1153 0.00320406 0)
(1.14087 0.00607737 0)
(1.12292 0.0109428 0)
(1.10533 0.0166237 0)
(1.09132 0.0227162 0)
(1.07922 0.0288728 0)
(1.06854 0.0345396 0)
(1.06125 0.0385203 0)
(1.05951 0.0403889 0)
(1.06271 0.0404872 0)
(1.0714 0.0401464 0)
(1.0845 0.0395791 0)
(1.06851 0.0362911 0)
(0.9334 0.0273447 0)
(0.650267 0.0145371 0)
(0.329269 0.00441401 0)
(0.059462 0.000292534 0)
(0.107435 0.000231594 0)
(0.662216 0.00358038 0)
(0.959276 0.00573052 0)
(1.12043 0.00742961 0)
(1.14903 0.0109432 0)
(1.13141 0.0164764 0)
(1.11312 0.0228452 0)
(1.09811 0.0296056 0)
(1.08468 0.0363182 0)
(1.0723 0.0422942 0)
(1.06323 0.0462189 0)
(1.06017 0.0477625 0)
(1.0624 0.0474285 0)
(1.07051 0.0466104 0)
(1.08139 0.0454205 0)
(1.05583 0.0408212 0)
(0.902801 0.0300938 0)
(0.613363 0.0158167 0)
(0.303113 0.00477452 0)
(0.0531568 0.000313634 0)
(0.112118 0.000319196 0)
(0.673322 0.00533674 0)
(0.966333 0.00924382 0)
(1.12803 0.0123935 0)
(1.15852 0.0167491 0)
(1.14101 0.0231452 0)
(1.12187 0.0303631 0)
(1.10564 0.0379353 0)
(1.09057 0.0453076 0)
(1.07614 0.0516351 0)
(1.06497 0.0554773 0)
(1.06032 0.0566647 0)
(1.06149 0.0558508 0)
(1.06891 0.0545098 0)
(1.07695 0.0525826 0)
(1.03963 0.046374 0)
(0.867486 0.0334531 0)
(0.572607 0.0173215 0)
(0.274658 0.00516309 0)
(0.0463819 0.00033294 0)
(0.118552 0.000436036 0)
(0.690031 0.00752342 0)
(0.978441 0.0135338 0)
(1.13867 0.0183296 0)
(1.16974 0.0237614 0)
(1.15201 0.0312746 0)
(1.1318 0.0395312 0)
(1.11402 0.0480682 0)
(1.09693 0.0561869 0)
(1.08003 0.0628692 0)
(1.06641 0.0665563 0)
(1.05985 0.0672902 0)
(1.05994 0.0659581 0)
(1.06666 0.0640416 0)
(1.07082 0.0612517 0)
(1.01903 0.0530144 0)
(0.826348 0.0373715 0)
(0.527172 0.0189596 0)
(0.24367 0.00553685 0)
(0.0391664 0.000346851 0)
(0.127266 0.0005992 0)
(0.713366 0.010383 0)
(0.996343 0.0188632 0)
(1.15302 0.0255821 0)
(1.18317 0.0323603 0)
(1.16475 0.0413225 0)
(1.14313 0.050834 0)
(1.12337 0.0604801 0)
(1.10376 0.0693828 0)
(1.0839 0.076341 0)
(1.06745 0.079724 0)
(1.05877 0.0798771 0)
(1.05768 0.0779544 0)
(1.06346 0.0753643 0)
(1.06242 0.0714448 0)
(0.992839 0.0607514 0)
(0.778101 0.0416974 0)
(0.476357 0.0205734 0)
(0.21016 0.00583496 0)
(0.0316164 0.00035103 0)
(0.139071 0.00083852 0)
(0.744707 0.0142975 0)
(1.02121 0.02571 0)
(1.17187 0.0347019 0)
(1.19947 0.0431577 0)
(1.17964 0.0539782 0)
(1.15607 0.0649678 0)
(1.1337 0.0758067 0)
(1.11095 0.0854118 0)
(1.08759 0.0924241 0)
(1.06794 0.0952423 0)
(1.05697 0.0946341 0)
(1.05475 0.0920868 0)
(1.05898 0.0887076 0)
(1.05087 0.0833533 0)
(0.959507 0.0694446 0)
(0.721356 0.0461276 0)
(0.419787 0.021923 0)
(0.174518 0.00598052 0)
(0.0239327 0.000341069 0)
(0.155273 0.00121266 0)
(0.786056 0.0199165 0)
(1.05471 0.0348657 0)
(1.1962 0.0466492 0)
(1.21955 0.0575735 0)
(1.19705 0.0703156 0)
(1.1707 0.0829232 0)
(1.14489 0.0948594 0)
(1.11826 0.104867 0)
(1.09085 0.111508 0)
(1.06769 0.113348 0)
(1.05432 0.11173 0)
(1.05105 0.108466 0)
(1.05307 0.104341 0)
(1.03498 0.0969124 0)
(0.917024 0.0787147 0)
(0.654841 0.0501519 0)
(0.357725 0.0226871 0)
(0.137645 0.00589155 0)
(0.0164155 0.000313471 0)
(0.178125 0.00186142 0)
(0.840647 0.028396 0)
(1.09975 0.0479278 0)
(1.2271 0.0632907 0)
(1.24382 0.0772013 0)
(1.21707 0.0920096 0)
(1.18675 0.106064 0)
(1.1565 0.118617 0)
(1.12523 0.128368 0)
(1.09328 0.133928 0)
(1.06641 0.134215 0)
(1.05062 0.131251 0)
(1.04637 0.127132 0)
(1.04556 0.121998 0)
(1.01294 0.111826 0)
(0.86293 0.0878506 0)
(0.577898 0.0530365 0)
(0.291543 0.0225144 0)
(0.101053 0.00550458 0)
(0.00945118 0.000266147 0)
(0.211122 0.003297 0)
(0.914355 0.0425072 0)
(1.15934 0.0688023 0)
(1.26489 0.0881435 0)
(1.27216 0.105181 0)
(1.23909 0.121512 0)
(1.2034 0.136058 0)
(1.1677 0.148083 0)
(1.13119 0.156447 0)
(1.09442 0.159924 0)
(1.06383 0.15793 0)
(1.04569 0.153211 0)
(1.04057 0.148104 0)
(1.03556 0.141713 0)
(0.982109 0.127437 0)
(0.79447 0.0956695 0)
(0.49155 0.0539228 0)
(0.224444 0.0212068 0)
(0.0669713 0.0048181 0)
(0.00352113 0.000198434 0)
(0.256148 0.00976144 9.38607e-21)
(1.01096 0.0704561 8.05983e-21)
(1.23103 0.104327 -2.81877e-21)
(1.30674 0.125213 0)
(1.30157 0.145285 -7.2186e-35)
(1.26085 0.161235 1.05626e-21)
(1.21903 0.174439 -1.90867e-21)
(1.17743 0.184481 0)
(1.13538 0.190389 3.95343e-35)
(1.09357 0.191035 -2.39103e-21)
(1.05909 0.186373 0)
(1.03875 0.179941 -2.86639e-21)
(1.03354 0.17468 -8.47866e-21)
(1.02082 0.167013 -4.02191e-21)
(0.936354 0.14562 -1.21255e-21)
(0.703546 0.102256 -7.20288e-22)
(0.391085 0.0525295 0)
(0.15606 0.0190436 5.03744e-22)
(0.0355422 0.00396065 5.96552e-22)
(-0.00146615 7.94515e-05 1.09107e-20)
(0.287687 0.0255475 6.57239e-21)
(1.09135 0.114696 1.18981e-22)
(1.29016 0.15492 7.37068e-22)
(1.34492 0.175829 0)
(1.32767 0.195927 -3.59605e-21)
(1.27991 0.209848 -4.10031e-21)
(1.2321 0.220911 -1.90806e-21)
(1.18467 0.22872 -6.81616e-21)
(1.13706 0.232261 0)
(1.09004 0.230365 1.00956e-20)
(1.05146 0.223404 1.00505e-20)
(1.02841 0.215393 2.98835e-21)
(1.02023 0.209022 1.09724e-20)
(0.992207 0.197485 1.55113e-20)
(0.860099 0.164584 0)
(0.576492 0.106347 2.18518e-20)
(0.276021 0.0492232 3.13274e-20)
(0.0881449 0.0156651 3.48538e-20)
(0.00634043 0.00196139 -3.9976e-20)
(-0.00586498 -0.000472874 -7.62839e-22)
(0.28977 0.0434837 0)
(1.14341 0.171792 1.05948e-21)
(1.33111 0.216761 0)
(1.37509 0.237481 -4.4982e-21)
(1.34861 0.254441 0)
(1.29494 0.264475 -7.92117e-21)
(1.24157 0.271875 3.85313e-21)
(1.18867 0.276262 -1.35728e-20)
(1.13586 0.276518 -3.31889e-22)
(1.08408 0.271401 5.16824e-21)
(1.0419 0.261757 2.19766e-20)
(1.0165 0.252002 -2.44411e-23)
(1.00451 0.243916 -7.94096e-21)
(0.959288 0.227134 -1.44799e-20)
(0.785958 0.180736 1.71621e-20)
(0.477963 0.107587 -3.03608e-20)
(0.204475 0.0454619 -3.99462e-21)
(0.0503718 0.012243 0)
(-0.00884363 -0.000401477 -3.32377e-24)
(-0.00799138 -0.00112237 0)
(0.283358 0.058479 1.19241e-20)
(1.17261 0.232703 -6.07322e-21)
(1.35733 0.283358 -5.00206e-21)
(1.39555 0.304387 2.05963e-21)
(1.36282 0.317234 -3.45572e-21)
(1.30479 0.322686 1.63972e-20)
(1.24693 0.32566 7.93817e-21)
(1.18941 0.32588 0)
(1.1321 0.322183 -2.55632e-20)
(1.07618 0.313292 0)
(1.0309 0.300623 -1.14117e-20)
(1.00347 0.288939 -1.42103e-20)
(0.987243 0.27843 -8.58398e-21)
(0.925144 0.255241 -1.04558e-20)
(0.720564 0.194706 0)
(0.406523 0.108963 0)
(0.158194 0.0430209 -2.58253e-20)
(0.0263096 0.00905961 5.09483e-21)
(-0.0187123 -0.00297146 -3.00499e-21)
(-0.00939691 -0.00182806 -3.55951e-21)
(0.275351 0.0715531 -3.08895e-21)
(1.1863 0.2935 0)
(1.37246 0.350919 9.25056e-21)
(1.40736 0.372474 5.51712e-21)
(1.37037 0.381302 8.03195e-21)
(1.30923 0.382139 0)
(1.24796 0.380526 7.61294e-21)
(1.18676 0.376309 1.47543e-20)
(1.12575 0.368313 1.2951e-20)
(1.06636 0.355309 2.39662e-20)
(1.01846 0.339337 0)
(0.989264 0.325503 -3.03646e-20)
(0.968648 0.312156 -1.83471e-20)
(0.891442 0.281641 -1.08619e-20)
(0.664938 0.20746 6.65649e-20)
(0.354922 0.111023 7.88238e-21)
(0.126902 0.0413113 3.71252e-20)
(0.00913753 0.00576794 -1.75462e-19)
(-0.0263735 -0.00583091 1.03919e-19)
(-0.0105768 -0.00259458 -1.26853e-19)
(0.267322 0.0832213 6.4366e-22)
(1.18985 0.35215 4.84432e-22)
(1.37939 0.417452 -7.73149e-22)
(1.41222 0.439846 -4.90432e-21)
(1.37222 0.444883 -6.35445e-21)
(1.3088 0.441243 3.55812e-22)
(1.24491 0.435135 -8.2107e-21)
(1.18081 0.42648 1.5039e-20)
(1.11681 0.414094 -2.76567e-20)
(1.05453 0.396811 0)
(1.00447 0.377367 -1.36919e-20)
(0.973764 0.361217 -3.0205e-22)
(0.948937 0.344732 -1.99781e-20)
(0.858941 0.306396 0)
(0.618331 0.219392 -1.43286e-20)
(0.316952 0.113779 -3.3879e-20)
(0.10402 0.0400163 9.0013e-20)
(-0.00451014 0.00227751 -8.86249e-20)
(-0.0330496 -0.00899196 1.25976e-19)
(-0.0116681 -0.00342442 -1.32557e-19)
(0.260162 0.0938441 -1.16336e-22)
(1.1868 0.407877 4.78994e-22)
(1.38027 0.481873 -9.94877e-22)
(1.4116 0.505373 1.63219e-21)
(1.36943 0.506952 -3.09597e-21)
(1.30432 0.499062 0)
(1.23839 0.488647 -7.44651e-21)
(1.17194 0.475671 -1.56165e-20)
(1.10545 0.458923 -1.42636e-20)
(1.04077 0.4373 0)
(0.988948 0.414267 -1.39734e-20)
(0.95702 0.395626 -1.73995e-20)
(0.928427 0.375772 2.15036e-20)
(0.828098 0.329477 -1.30917e-20)
(0.579499 0.230645 -6.18073e-20)
(0.288283 0.117075 3.65252e-20)
(0.0862085 0.0388811 1.0781e-20)
(-0.0164295 -0.00156069 0)
(-0.0396009 -0.0125618 -1.20554e-19)
(-0.0128518 -0.00435701 -4.46751e-21)
(0.25408 0.10377 8.32576e-22)
(1.17947 0.460467 -1.13373e-21)
(1.37661 0.543617 2.15315e-22)
(1.40671 0.568391 6.14896e-21)
(1.36295 0.566871 -1.07252e-20)
(1.29658 0.55504 1.42252e-20)
(1.22903 0.540564 1.59417e-20)
(1.16064 0.523447 -2.48316e-20)
(1.09203 0.50243 8.85546e-21)
(1.02529 0.476458 -5.79444e-20)
(0.972015 0.449723 -1.58031e-20)
(0.939144 0.428386 0)
(0.907344 0.404965 2.31765e-20)
(0.799019 0.350751 2.77399e-20)
(0.54711 0.241208 3.31253e-20)
(0.266109 0.120574 -3.92957e-20)
(0.0717157 0.0375735 -1.1595e-20)
(-0.0273697 -0.00591746 1.36654e-20)
(-0.0464397 -0.0166876 0)
(-0.014283 -0.00545777 -9.60407e-21)
(0.249012 0.113067 -1.40009e-20)
(1.16962 0.50996 7.40341e-21)
(1.36973 0.602638 1.76246e-22)
(1.39857 0.628563 3.21097e-21)
(1.35358 0.624266 -4.41251e-21)
(1.2863 0.608818 -8.53635e-22)
(1.21744 0.590588 -1.74206e-20)
(1.1474 0.569564 -8.97373e-21)
(1.07693 0.54442 -2.46318e-20)
(1.00835 0.514117 3.97786e-23)
(0.953837 0.483557 -4.9053e-20)
(0.920232 0.459299 4.16573e-20)
(0.885773 0.432061 -2.52845e-20)
(0.771628 0.370077 3.03e-20)
(0.519884 0.250891 0)
(0.248648 0.123864 -2.11482e-20)
(0.0598007 0.0358096 2.58475e-23)
(-0.0372597 -0.0108718 -5.8914e-20)
(-0.0534357 -0.0214225 -8.70755e-21)
(-0.0159805 -0.00676914 0)
(0.244935 0.122012 0)
(1.15832 0.556593 8.67618e-21)
(1.36049 0.658969 2.84046e-21)
(1.388 0.685733 -2.40945e-21)
(1.34205 0.678942 -6.07808e-21)
(1.27407 0.66021 0)
(1.20415 0.638544 -7.67465e-21)
(1.13267 0.613883 -2.33773e-22)
(1.06052 0.584807 5.26526e-20)
(0.990227 0.550227 -7.89257e-21)
(0.934563 0.515711 -3.53858e-20)
(0.900351 0.488289 2.15758e-20)
(0.86371 0.456949 -3.99836e-22)
(0.745621 0.387353 3.21553e-20)
(0.496609 0.259504 1.94331e-20)
(0.234624 0.126542 -4.53992e-20)
(0.0502374 0.0334433 5.3588e-20)
(-0.0456498 -0.0162953 1.58529e-20)
(-0.0600441 -0.0266126 6.56624e-20)
(-0.0178348 -0.0082743 -1.77672e-19)
(0.241776 0.130767 -4.92126e-21)
(1.14639 0.600541 6.37197e-21)
(1.34955 0.712258 -4.1235e-21)
(1.37567 0.739868 8.51907e-22)
(1.32893 0.73082 0)
(1.26043 0.709123 -5.93826e-21)
(1.18961 0.684347 2.60262e-20)
(1.11686 0.656344 1.95434e-20)
(1.04313 0.623565 0)
(0.971152 0.584805 -1.13858e-19)
(0.914323 0.546216 9.55771e-20)
(0.879527 0.515367 0)
(0.841086 0.479648 2.93224e-20)
(0.720603 0.402582 -3.37551e-22)
(0.476159 0.26692 -6.23097e-20)
(0.22307 0.128432 2.43702e-20)
(0.0429176 0.0306457 0)
(-0.0520112 -0.0218313 8.5233e-20)
(-0.0655739 -0.0319083 0)
(-0.0196359 -0.00989468 -8.36548e-20)
(0.23946 0.139345 5.95485e-21)
(1.13435 0.642049 8.50913e-21)
(1.33742 0.762584 -4.02242e-21)
(1.36212 0.790996 0)
(1.31472 0.779911 -4.3791e-21)
(1.24582 0.755548 0)
(1.17424 0.727969 -2.53149e-20)
(1.10032 0.696934 -8.91871e-21)
(1.02507 0.660719 9.22868e-21)
(0.951347 0.617921 -5.63675e-20)
(0.893227 0.575167 9.8648e-21)
(0.857782 0.54062 0)
(0.817822 0.500247 -6.25991e-20)
(0.696182 0.415809 2.80417e-22)
(0.457515 0.273136 0)
(0.213195 0.129605 5.15539e-23)
(0.0374247 0.0276346 7.75967e-20)
(-0.0561797 -0.0270554 -7.33841e-20)
(-0.0695308 -0.0368744 2.17319e-20)
(-0.0211681 -0.0114932 0)
(0.237653 0.147726 0)
(1.12245 0.68132 1.03845e-20)
(1.32455 0.810072 6.25024e-21)
(1.34778 0.839196 -5.3339e-22)
(1.29982 0.826262 -8.46013e-22)
(1.23061 0.799515 -1.34135e-20)
(1.15836 0.769434 9.63065e-21)
(1.08335 0.735671 -1.07029e-20)
(1.00659 0.696315 4.14463e-20)
(0.931015 0.649678 -9.03894e-20)
(0.871392 0.602708 -8.59692e-22)
(0.835156 0.564164 -2.7466e-20)
(0.793857 0.518871 1.01595e-19)
(0.671748 0.427227 -3.98511e-22)
(0.440017 0.278114 -4.82212e-20)
(0.204405 0.130144 -8.50387e-20)
(0.0335006 0.0247155 0)
(-0.0582369 -0.0316172 0)
(-0.0717187 -0.0411438 2.34136e-20)
(-0.0222732 -0.0129468 -1.38929e-20)
(0.236519 0.156095 8.49e-21)
(1.1109 0.718388 -2.36562e-20)
(1.31128 0.854837 -6.69674e-21)
(1.333 0.88456 0)
(1.28454 0.869949 -3.09203e-22)
(1.2151 0.84108 -1.16359e-20)
(1.14226 0.808783 2.2875e-20)
(1.06623 0.772592 4.18286e-20)
(0.987947 0.730417 5.39373e-20)
(0.910372 0.6802 -7.40955e-20)
(0.848949 0.629011 -8.27706e-20)
(0.81168 0.586168 7.36585e-20)
(0.769178 0.535619 0)
(0.647301 0.436893 -2.21496e-20)
(0.423089 0.281926 -5.1964e-20)
(0.196276 0.130177 -6.11306e-20)
(0.0307428 0.0220928 -7.20574e-20)
(-0.0585696 -0.0352935 2.13394e-20)
(-0.0722618 -0.0445581 -1.2593e-20)
(-0.0228858 -0.0141661 5.44975e-23)
(0.235645 0.164278 0)
(1.10008 0.753324 0)
(1.29786 0.896996 5.08389e-22)
(1.31802 0.927194 0)
(1.26915 0.911075 1.10652e-22)
(1.19953 0.880322 7.37127e-21)
(1.12618 0.846073 0)
(1.04917 0.807748 4.91281e-21)
(0.969368 0.763082 9.0342e-20)
(0.889632 0.709611 -1.71042e-19)
(0.826046 0.654281 0)
(0.787401 0.606818 -4.77471e-20)
(0.743717 0.550526 -5.09594e-22)
(0.622712 0.444688 -2.95022e-22)
(0.406458 0.284471 5.5996e-20)
(0.188637 0.129741 4.72972e-23)
(0.0288673 0.0199577 -1.5529e-19)
(-0.0577003 -0.0379477 4.59189e-20)
(-0.0715085 -0.0470435 1.36271e-20)
(-0.0230331 -0.0150939 0)
(0.235025 0.172233 -3.43556e-20)
(1.08974 0.786545 -1.61498e-20)
(1.2844 0.936635 -2.03206e-20)
(1.30308 0.967212 1.80956e-20)
(1.25386 0.949723 -2.81656e-21)
(1.18412 0.917321 0)
(1.11031 0.881369 1.37257e-20)
(1.03239 0.841197 -1.10942e-20)
(0.951048 0.794376 8.01725e-22)
(0.868998 0.738022 1.26955e-20)
(0.802838 0.678729 1.084e-19)
(0.762334 0.626338 -1.68241e-20)
(0.717383 0.563643 -6.32184e-20)
(0.59788 0.450412 -2.59157e-20)
(0.390259 0.285397 3.02301e-20)
(0.181743 0.128781 6.30615e-23)
(0.0279237 0.0186087 4.18665e-20)
(-0.0563151 -0.0392577 -9.88982e-20)
(-0.0703149 -0.04858 1.17391e-19)
(-0.0229105 -0.0157845 1.733e-20)
(0.234458 0.17995 1.30856e-20)
(1.07991 0.818107 -9.10762e-21)
(1.2711 0.973893 1.3232e-21)
(1.28833 1.00475 1.20129e-20)
(1.23882 0.986014 1.98287e-21)
(1.169 0.952161 -1.25626e-20)
(1.09482 0.914738 3.78828e-21)
(1.01602 0.872981 -4.63667e-20)
(0.933166 0.824338 -1.0053e-19)
(0.848658 0.765509 -1.02959e-19)
(0.779497 0.702553 0)
(0.736519 0.645006 -7.45277e-20)
(0.689998 0.575057 9.15966e-20)
(0.572575 0.453648 0)
(0.374612 0.284001 -6.50596e-20)
(0.176616 0.126561 3.8348e-20)
(0.0291957 0.018178 -4.51226e-20)
(-0.0542279 -0.038854 -5.33387e-20)
(-0.0702473 -0.0495683 -9.47165e-20)
(-0.0232765 -0.0166192 -7.4808e-20)
(0.234228 0.18752 -1.48659e-20)
(1.07045 0.848029 9.75971e-21)
(1.25804 1.00885 2.18069e-20)
(1.27389 1.03989 1.78559e-20)
(1.22415 1.02005 -3.28279e-21)
(1.15431 0.984937 -6.19529e-21)
(1.07981 0.946241 1.29215e-20)
(1.00021 0.903159 -4.77615e-20)
(0.915854 0.853015 -5.99965e-20)
(0.828792 0.792144 1.08779e-19)
(0.756199 0.725928 2.41325e-19)
(0.710009 0.663139 0)
(0.661311 0.584977 0)
(0.546199 0.453993 -2.99473e-20)
(0.359298 0.278887 0)
(0.17475 0.121341 8.24447e-20)
(0.0358931 0.016509 9.71025e-20)
(-0.0477897 -0.0385882 0)
(-0.0707155 -0.0514078 0)
(-0.025362 -0.0185034 8.06289e-20)
(0.233868 0.19467 1.69543e-20)
(1.06141 0.876333 1.33757e-20)
(1.24532 1.04163 1.58748e-20)
(1.25986 1.07279 -1.7478e-20)
(1.20996 1.05194 -4.92503e-21)
(1.14013 1.01573 5.39699e-21)
(1.06539 0.975943 -1.77923e-20)
(0.985054 0.931771 -2.73065e-22)
(0.899242 0.88043 -1.06239e-21)
(0.809558 0.817962 -6.13025e-22)
(0.733147 0.748997 1.25098e-19)
(0.682899 0.68105 0)
(0.631067 0.593785 9.42414e-20)
(0.51785 0.451362 6.47371e-20)
(0.342934 0.268617 1.53022e-19)
(0.175258 0.108852 4.46802e-20)
(0.0517556 0.00476009 -5.23626e-20)
(-0.0250231 -0.0492346 -3.09356e-20)
(-0.0558158 -0.0569265 0)
(-0.0260824 -0.0208447 8.71735e-20)
(0.233859 0.201852 -3.84825e-20)
(1.05275 0.903125 0)
(1.23295 1.07229 1.88385e-20)
(1.24627 1.10354 -1.49143e-20)
(1.1963 1.0818 7.4547e-21)
(1.12652 1.04463 -3.98389e-21)
(1.05162 1.0039 3.40955e-20)
(0.970622 0.958855 -3.84602e-21)
(0.883414 0.906604 0)
(0.791096 0.842962 -1.2173e-19)
(0.710548 0.771856 -2.74834e-19)
(0.655344 0.69906 1.12877e-20)
(0.599131 0.602003 1.32094e-19)
(0.486601 0.446282 0)
(0.322989 0.252916 1.04228e-19)
(0.173393 0.0845535 0)
(0.0708712 -0.0303016 0)
(0.0203154 -0.0934987 -3.34798e-20)
(0.0151823 -0.0779922 0)
(0.0157502 -0.00601355 2.35008e-20)
(0.23358 0.208496 -4.30646e-20)
(1.04445 0.928735 0)
(1.22093 1.10104 3.1597e-20)
(1.23308 1.13238 0)
(1.18315 1.10988 -4.7819e-21)
(1.11343 1.07192 0)
(1.03844 1.03043 1.5385e-21)
(0.956828 0.984741 6.72669e-21)
(0.868261 0.931887 7.69572e-21)
(0.77325 0.867507 -1.34579e-19)
(0.688225 0.79496 8.30366e-21)
(0.627037 0.71792 9.17331e-20)
(0.564868 0.610576 1.29882e-19)
(0.450981 0.439584 1.73294e-20)
(0.296199 0.233112 8.25909e-20)
(0.160407 0.0498031 0)
(0.0741811 -0.0894062 1.10764e-19)
(0.0436929 -0.119508 -6.49515e-20)
(0.0208169 0.0288865 7.62323e-20)
(-0.0390719 0.463166 -9.05468e-20)
(0.233344 0.214984 3.57311e-20)
(1.03629 0.952985 5.36823e-20)
(1.20918 1.12821 0)
(1.22015 1.15976 9.88568e-22)
(1.17031 1.13677 1.46684e-20)
(1.10059 1.09829 -2.77361e-22)
(1.02554 1.05631 1.1525e-20)
(0.943248 1.01035 0)
(0.853235 0.957347 5.08512e-20)
(0.755317 0.892857 -7.01592e-21)
(0.665206 0.819723 0)
(0.596505 0.739173 0)
(0.525752 0.620486 1.17838e-19)
(0.407693 0.431451 -5.38371e-20)
(0.258742 0.210985 -8.49126e-20)
(0.130544 0.00809967 0)
(0.0467596 -0.0530435 5.6631e-20)
(0.00174621 0.447047 -6.54846e-20)
(0.0271808 1.9492 -3.67096e-20)
(0.0530539 2.83559 -4.51682e-20)
(0.232846 0.22098 -2.69528e-20)
(1.02832 0.97606 -6.9118e-20)
(1.19772 1.15381 1.88621e-20)
(1.20751 1.18555 1.49932e-20)
(1.15786 1.16228 0)
(1.08809 1.12346 -2.31987e-21)
(1.01314 1.08124 1.51255e-20)
(0.930098 1.03527 -3.26902e-21)
(0.838648 0.98249 7.69065e-21)
(0.73774 0.918459 1.29571e-19)
(0.6422 0.845627 1.42348e-19)
(0.564832 0.762999 1.05594e-19)
(0.482491 0.632659 1.20259e-19)
(0.357164 0.421885 -1.28939e-19)
(0.214931 0.191762 -1.30164e-19)
(0.0875039 0.0703213 0)
(0.0326621 0.923569 0)
(0.0775924 2.60025 3.15947e-20)
(0.0809179 3.22124 0)
(0.0832012 3.39227 8.228e-20)
(0.235202 0.22667 0)
(1.02093 0.998373 0)
(1.18625 1.17769 0)
(1.19496 1.20961 4.60971e-21)
(1.14544 1.18616 1.34951e-20)
(1.07576 1.14728 -4.2032e-21)
(1.00117 1.10511 9.54421e-21)
(0.917314 1.05936 -3.19542e-21)
(0.824442 1.00714 6.41068e-20)
(0.720525 0.94415 -1.47412e-21)
(0.619342 0.872495 2.84292e-19)
(0.532448 0.789614 -1.2325e-20)
(0.435079 0.64862 1.4847e-20)
(0.300429 0.409892 1.89126e-20)
(0.158322 0.206664 -8.92834e-22)
(0.0762601 1.04059 3.41038e-22)
(0.111086 2.78412 -1.71483e-19)
(0.115465 3.30343 -6.43046e-20)
(0.108543 3.42263 3.38139e-20)
(0.100057 3.44188 -3.82977e-20)
(0.157981 0.171941 1.652e-20)
(1.00909 1.02264 0)
(1.17453 1.20008 -3.88977e-20)
(1.18293 1.23239 -4.12485e-20)
(1.13352 1.20889 3.28884e-20)
(1.06428 1.17026 5.40112e-21)
(0.989419 1.12796 -9.61699e-21)
(0.904928 1.08268 3.49322e-20)
(0.810706 1.03138 -5.28882e-20)
(0.703925 0.970051 0)
(0.597003 0.900428 1.41536e-19)
(0.499968 0.818931 -8.76607e-20)
(0.388207 0.678826 0)
(0.235691 0.402098 1.87175e-20)
(0.110862 0.697365 4.35708e-20)
(0.125721 2.59806 -4.85762e-20)
(0.17088 3.32612 5.48565e-20)
(0.156238 3.42915 2.94564e-20)
(0.130821 3.4481 3.31308e-20)
(0.113142 3.45714 5.28524e-20)
(0.26944 0.263634 -3.18018e-20)
(0.990094 1.0317 0)
(1.15504 1.22549 4.20742e-20)
(1.16742 1.26353 4.568e-20)
(1.11523 1.24239 -3.74574e-20)
(1.0454 1.20406 -1.01434e-20)
(0.969305 1.16328 7.26035e-21)
(0.884077 1.11918 2.78919e-21)
(0.788041 1.06999 5.06795e-20)
(0.677463 1.01261 1.14456e-19)
(0.562894 0.948919 7.99679e-21)
(0.449393 0.866759 7.9389e-20)
(0.299131 0.698909 1.44127e-20)
(0.193079 0.841833 -1.82216e-20)
(0.199537 2.48644 -4.02462e-20)
(0.250467 3.32618 3.93815e-20)
(0.233234 3.4499 -4.30499e-20)
(0.200293 3.46976 -2.46022e-20)
(0.16818 3.49488 -2.23477e-20)
(0.123864 3.49128 -3.2126e-21)
(0.259255 0.262279 0)
(0.986427 1.05411 1.23779e-20)
(1.14561 1.24889 -8.70256e-21)
(1.15571 1.28705 -5.49205e-21)
(1.10351 1.26565 -2.60689e-20)
(1.03365 1.22747 1.08469e-20)
(0.957148 1.18686 -3.12139e-21)
(0.871504 1.14356 2.49401e-21)
(0.774514 1.09584 -5.30023e-20)
(0.661773 1.04139 -2.56642e-21)
(0.542602 0.982492 -2.59687e-19)
(0.4198 0.902028 1.14496e-20)
(0.2744 0.772589 -1.37503e-20)
(0.229511 1.52307 -1.68457e-20)
(0.294167 3.1454 3.64488e-21)
(0.305129 3.44934 4.42875e-23)
(0.265002 3.49637 6.48296e-20)
(0.232086 3.5219 3.28851e-20)
(0.18703 3.54289 -1.08181e-20)
(0.137994 3.54072 -1.62817e-20)
(0.245033 0.259987 3.17694e-20)
(0.981801 1.07902 8.3898e-20)
(1.1358 1.27437 -2.4765e-20)
(1.1436 1.3122 -2.05748e-20)
(1.09131 1.29039 0)
(1.02149 1.25222 2.14321e-20)
(0.944872 1.21184 -1.49895e-21)
(0.859074 1.16932 2.17207e-21)
(0.761454 1.12323 -5.97398e-21)
(0.647136 1.07212 -1.04898e-19)
(0.524406 1.01877 -1.20693e-19)
(0.393489 0.938802 -9.40685e-20)
(0.27462 0.930138 -1.04168e-19)
(0.297451 2.33201 1.06885e-19)
(0.376943 3.37786 8.98059e-20)
(0.345885 3.50255 0)
(0.299351 3.54214 0)
(0.263357 3.57712 -8.72955e-21)
(0.221336 3.62204 0)
(0.152407 3.60905 -1.35563e-20)
(0.235013 0.261627 -4.73989e-20)
(0.975225 1.10472 -7.11089e-20)
(1.12456 1.30107 0)
(1.13021 1.33817 1.20038e-21)
(1.07783 1.31579 -2.87306e-20)
(1.00822 1.27755 3.58236e-20)
(0.931815 1.23746 7.61115e-22)
(0.846098 1.19568 1.10588e-21)
(0.748117 1.15122 -3.75103e-20)
(0.632703 1.10357 5.21396e-21)
(0.507459 1.05593 0)
(0.36825 0.978783 0)
(0.296302 1.24298 -9.51027e-20)
(0.379867 2.98478 3.85987e-20)