/*--------------------------------*- C++ -*----------------------------------*\
  =========                 |
  \\      /  F ield         | OpenFOAM: The Open Source CFD Toolbox
   \\    /   O peration     | Website:  https://openfoam.org
    \\  /    A nd           | Version:  6
     \\/     M anipulation  |
\*---------------------------------------------------------------------------*/
FoamFile
{
    version     2.0;
    format      ascii;
    class       volVectorField;
    location    "70";
    object      U;
}
// * * * * * * * * * * * * * * * * * * * * * * * * * * * * * * * * * * * * * //

dimensions      [0 1 -1 0 0 0 0];

internalField   nonuniform List<vector> 
918
(
(0.985049 -0.000714843 0)
(0.00535872 2.96623 0)
(-0.00250231 0.880655 0)
(0.979575 0.0019618 0)
(-0.0137516 2.0656 3.26188e-20)
(-0.00710237 2.94856 -2.59098e-18)
(0.81762 1.12021 4.41099e-19)
(0.122261 0.0722167 -1.42296e-20)
(0.999922 -0.000244729 0)
(0.0910329 0.660808 0)
(0.0100369 0.392025 0)
(0.735097 -0.00420863 0)
(0.010186 2.93164 0)
(0.00342709 2.79459 0)
(-0.00214481 3.18061 8.21476e-19)
(-0.0138165 1.92679 1.97105e-20)
(0.294701 0.0373674 9.89153e-19)
(0.232422 1.10789 3.51653e-19)
(0.964352 0.00674304 0)
(-0.000687689 0.398746 0)
(0.0160791 0.0536401 -6.65135e-19)
(1.00183 -0.00456016 0)
(0.999851 -0.00892707 0)
(0.975167 -0.00605206 0)
(0.591688 0.00705583 0)
(0.0210611 2.64431 0)
(-0.0123236 2.91191 9.49122e-19)
(-0.005786 0.933569 0)
(-0.0309304 1.16882 0)
(-0.00391178 0.903518 0)
(-0.0224229 2.59341 0)
(-0.00467824 2.11615 -2.60539e-20)
(-0.00982793 1.89965 0)
(-0.0221163 2.98761 -9.34435e-23)
(-0.0164845 3.00549 2.013e-18)
(0.00230087 3.00058 0)
(0.871931 -0.00975511 0)
(0.375656 0.915222 1.68072e-19)
(0.816514 1.13846 -5.49189e-19)
(0.949168 1.00421 5.61009e-19)
(0.679454 1.22126 -1.0112e-19)
(0.69287 1.18232 5.77329e-19)
(0.152557 0.130985 1.38812e-20)
(0.148938 0.0740064 0)
(1.16391 0.531438 0)
(0.125453 0.111966 6.29371e-20)
(0.0997986 0.0605227 -6.53108e-20)
(0.92055 -0.00704751 0)
(1.00027 5.82868e-05 0)
(0.999908 0.00032031 0)
(1.0037 -0.00728117 0)
(1.00088 -0.000947409 0)
(1.00011 -6.35132e-06 0)
(0.0921208 1.84564 -7.37433e-19)
(0.0315767 0.855539 0)
(0.125296 0.751065 0)
(0.0180842 0.798401 0)
(0.0528221 0.578524 0)
(0.00442303 2.03055 0)
(-0.00835734 0.720974 0)
(0.00572507 0.412026 0)
(-0.00542998 0.717994 0)
(0.0121251 0.393512 0)
(0.84354 -0.0156402 0)
(0.839669 0.0303605 0)
(0.760043 -0.00180953 0)
(0.797855 0.0383549 0)
(0.703196 0.00140052 0)
(0.0139154 3.00023 9.61764e-19)
(0.0111237 3.00602 0)
(0.00620005 3.00384 0)
(0.0118966 2.99716 1.09209e-23)
(0.00822613 2.95878 -1.42942e-18)
(0.0122424 2.98297 0)
(0.00907226 2.90473 0)
(0.0208705 2.93185 2.22342e-24)
(0.00413495 2.82401 0)
(0.0252136 2.91892 0)
(-0.00107715 2.74454 0)
(0.306069 3.57595 0)
(-0.122288 3.65883 0)
(0.14956 3.27133 -7.64532e-19)
(0.0036328 3.00828 0)
(-0.0297892 1.99001 0)
(-0.00732148 2.17902 -1.944e-20)
(-0.00965955 1.93888 1.9288e-20)
(0.351844 0.139413 -3.43695e-19)
(0.317695 0.0084896 -3.34129e-19)
(0.304799 0.15709 -1.02674e-18)
(0.258483 0.0567753 -6.67924e-19)
(0.262779 1.02237 0)
(0.331485 1.23877 -3.63199e-19)
(0.413071 1.15015 5.99353e-19)
(0.987732 0.00815342 0)
(0.943253 0.0057857 0)
(1.00028 0.000671602 0)
(1.00254 0.00906613 0)
(1.00311 0.00898911 -2.64754e-18)
(0.992136 0.00942175 2.00061e-18)
(-0.0208993 0.738122 0)
(0.00204215 0.407707 0)
(-0.051305 1.01846 0)
(-0.0299878 0.79179 0)
(-0.0090261 0.400174 0)
(-0.0346524 0.111427 2.06296e-19)
(0.0548503 0.0643906 0)
(0.993624 -0.00769348 0)
(0.954048 -0.00648421 0)
(0.744624 0.0313988 0)
(0.670172 0.0236321 0)
(0.659555 0.0224564 0)
(0.979768 -0.00269963 0)
(0.591338 0.0740578 0)
(0.451373 -0.0218021 1.50003e-18)
(-0.0410355 2.85997 7.48013e-19)
(0.0337851 2.91399 0)
(0.0426384 2.89258 0)
(0.00316896 2.70181 0)
(-0.00876249 2.98666 9.07873e-19)
(-0.0141717 2.89474 0)
(-0.0109207 2.99189 -2.79612e-18)
(-0.0116512 2.92972 9.51449e-19)
(-0.0438952 1.34434 0)
(-0.0148878 1.37253 0)
(-0.0077812 2.14066 7.38922e-22)
(-0.00768426 2.09999 0)
(-0.0172777 1.91053 0)
(0.938875 -0.00520387 0)
(0.85728 -0.0111461 0)
(0.863417 0.00464032 0)
(0.949666 -0.00614344 0)
(0.883672 -0.00808758 0)
(0.499238 1.11527 -2.13207e-19)
(0.546531 1.18514 0)
(0.337543 0.849815 3.24254e-20)
(0.28196 0.714271 0)
(0.917239 1.03444 -1.58243e-19)
(1.03972 0.844744 3.1805e-19)
(0.391183 1.31722 0)
(0.54219 1.27274 0)
(0.595741 1.2 0)
(0.103554 0.18137 -3.01028e-19)
(0.176134 0.145405 0)
(0.169944 0.0878849 1.85612e-19)
(1.00292 0.898814 0)
(1.07882 0.747063 0)
(1.10833 0.682328 -2.54067e-19)
(1.14522 0.593519 0)
(1.20113 0.391305 4.70798e-20)
(0.957501 -0.0070999 0)
(0.962725 -0.00811008 0)
(0.900913 -0.00736992 0)
(0.983928 -0.00812384 0)
(0.974425 -0.00803203 0)
(0.936544 -0.00656971 0)
(1.0002 0.00250426 0)
(1.00077 0.00123891 0)
(1 0.000761331 0)
(0.0444357 2.08835 4.10953e-19)
(0.145047 1.78884 0)
(0.0191775 2.20346 6.22628e-19)
(0.0524965 1.89425 -5.20888e-19)
(0.166385 1.08411 -2.88598e-19)
(0.0500671 0.939141 0)
(0.120854 0.938517 0)
(0.004423 0.761158 0)
(0.0260305 0.509059 0)
(-0.00322057 2.25811 -4.38204e-22)
(0.0190963 2.03584 0)
(-0.00480622 2.25924 -1.0262e-20)
(0.00285033 2.04263 7.75711e-21)
(-0.00550193 0.735417 0)
(-0.00956867 0.721842 0)
(0.00898016 0.450372 0)
(-0.0168785 0.718519 0)
(0.00763162 0.397798 0)
(0.939441 0.0138379 0)
(0.856302 -0.0115856 0)
(0.928626 0.00485535 0)
(0.846197 -0.0127796 0)
(0.811725 -0.0032153 0)
(0.897915 0.0231331 0)
(0.87393 0.0260625 0)
(0.785546 -0.00403332 0)
(0.0103217 3.06778 -8.95038e-21)
(0.0148975 3.05904 0)
(0.0124529 2.97025 0)
(0.00766218 2.87667 0)
(0.895803 3.97009 0)
(1.18996 3.36612 9.36482e-19)
(0.0812126 3.09064 0)
(-0.0172307 2.91797 0)
(-0.0154826 1.39877 0)
(-0.0350349 1.69615 0)
(-0.0238092 1.53128 0)
(-0.0329275 2.55356 -1.40259e-20)
(-0.0176012 2.24758 0)
(-0.0223792 2.39289 0)
(-0.000936336 1.96829 3.15691e-22)
(-0.00536955 2.25348 -2.44386e-20)
(-0.00632909 2.21686 -1.98035e-20)
(-0.00600991 1.95261 0)
(0.391075 0.118686 5.27361e-19)
(0.352543 0.00105524 -5.1734e-19)
(0.233487 1.59092 0)
(0.288291 0.765909 -3.25416e-19)
(0.183031 1.68968 -1.0694e-18)
(0.246057 1.22403 1.07065e-18)
(0.901692 0.00589593 0)
(0.967055 0.0106642 0)
(0.974906 0.00985074 0)
(0.922998 0.00587891 0)
(-0.0189876 0.727869 0)
(-0.0184798 0.730884 0)
(0.00139548 0.399765 0)
(0.100462 0.102554 5.79623e-19)
(0.0840898 0.0851927 -6.85689e-19)
(0.0630129 0.054995 0)
(1.10692 0.0904116 2.42599e-20)
(1.09056 0.0425498 0)
(1.01862 0.0436946 0)
(0.913725 -0.00155146 0)
(0.439686 0.0945737 0)
(0.50041 0.0779054 -2.40008e-18)
(0.393987 -0.000973118 8.99958e-19)
(0.0107932 2.97724 7.9201e-19)
(-0.032474 2.86151 4.65471e-20)
(0.00860565 3.05304 -1.8899e-20)
(0.0158117 3.04345 7.08857e-19)
(-0.0118129 2.99995 3.13103e-20)
(-0.0123332 2.95228 -1.26426e-22)
(-0.0150517 3.01326 -5.85166e-19)
(0.0143712 3.02661 4.11204e-19)
(0.00762344 3.03477 -6.67408e-19)
(0.934718 0.00213268 0)
(0.939509 -0.00111641 0)
(0.848141 -0.011175 0)
(0.956326 0.0118198 0)
(0.942338 0.0134383 0)
(0.881695 0.00533746 0)
(0.915061 0.019314 0)
(0.92497 0.0156562 0)
(0.837935 0.000532907 0)
(0.671992 1.41369 1.27686e-20)
(0.689984 1.52415 0)
(0.11874 0.292433 6.84087e-20)
(0.212986 0.653847 5.40724e-19)
(0.240255 0.693317 -3.17277e-19)
(0.214967 0.496538 6.29799e-19)
(0.340023 0.831886 1.59238e-18)
(0.135003 0.236713 3.81895e-19)
(0.259676 0.170638 7.0844e-19)
(0.214248 0.164299 1.82683e-19)
(0.218716 0.0786478 3.47948e-19)
(1.19261 0.446322 9.16111e-20)
(1.21792 0.245756 8.9177e-20)
(0.00884698 2.24676 2.42172e-19)
(0.0395148 1.95739 0)
(0.972843 0.0330281 0)
(0.946774 0.0192278 0)
(0.871089 -0.0152257 0)
(0.0125021 3.07398 0)
(0.0167032 2.94399 1.25203e-18)
(0.0139322 2.95664 0)
(0.00588371 2.84994 -1.24233e-18)
(0.00956095 3.0903 3.05707e-19)
(0.0113366 3.08387 0)
(0.709832 1.82023 -1.70019e-19)
(1.23433 2.62499 5.74987e-19)
(0.694521 1.99825 -1.39288e-18)
(0.0221421 2.97577 -6.90041e-19)
(0.0404624 2.99797 0)
(-0.038433 2.87818 0)
(-0.00617092 2.23823 -1.2729e-20)
(-0.00497 2.2587 4.6715e-20)
(-0.000452571 2.00402 -7.00818e-21)
(0.268358 1.40236 1.03422e-18)
(0.28696 0.569243 -7.0976e-19)
(0.0705364 2.00694 7.49393e-19)
(0.124694 1.87868 -9.00326e-19)
(0.206246 1.54156 1.01622e-19)
(0.00583872 3.1194 -1.84067e-18)
(0.018356 3.11925 1.97952e-18)
(-0.00499392 2.98039 8.49767e-19)
(-0.000350636 2.97505 -8.16677e-19)
(-0.0177975 2.87817 -8.65507e-19)
(0.0127166 3.09915 -2.27119e-18)
(0.00518653 3.10761 2.23016e-18)
(0.266968 0.698648 0)
(0.218328 0.659541 -1.15307e-18)
(0.074206 0.21252 5.07362e-19)
(0.346574 0.951823 1.12991e-18)
(0.199452 0.281106 -1.74028e-18)
(1.19728 0.175896 4.90718e-20)
(1.21463 0.304996 0)
(1.19276 0.121126 7.88397e-21)
(-0.00101757 2.26585 -1.2233e-21)
(0.00347408 2.25097 0)
(0.0311622 1.99333 0)
(0.312983 1.31824 -3.71334e-19)
(0.353887 1.17785 -8.04746e-19)
(0.232923 0.39219 1.43982e-18)
(1.00644 -0.00968338 0)
(1.00774 -0.00778511 4.8665e-19)
(-0.038551 1.32667 0)
(-0.0468376 1.3309 0)
(1.00244 0.00327246 1.34157e-21)
(1.0032 0.00781312 9.9902e-19)
(-0.0240771 2.53983 1.7771e-20)
(-0.0272665 2.58246 0)
(0.0409131 3.17274 4.9074e-19)
(0.374255 3.54134 0)
(1.15782 0.692529 -5.19203e-20)
(1.01181 0.0106537 -2.83808e-21)
(1.02086 -0.00900918 0)
(1.00158 0.000280418 1.56328e-22)
(0.118639 1.37438 0)
(0.134773 2.58596 0)
(0.0183822 1.32507 0)
(-0.000632175 2.63414 -1.25984e-21)
(-0.0213267 2.58277 -8.16489e-21)
(0.997616 0.029766 2.67612e-21)
(1.063 0.00586917 0)
(1.10013 0.0285174 0)
(-0.0334538 1.74342 0)
(-0.0193492 2.58328 0)
(-0.0125501 1.3183 0)
(0.309069 1.48921 -1.712e-19)
(1.01152 -0.00905809 0)
(1.00971 -0.0129863 0)
(1.00227 0.000938106 6.23335e-19)
(1.00548 -0.00491297 -7.34705e-19)
(1.00113 -0.000863812 0)
(-0.0216163 1.46461 0)
(-0.0102446 1.38606 0)
(-0.016618 1.42628 0)
(-0.0151574 1.30529 0)
(-0.0280941 1.29484 0)
(-0.0211789 1.27444 0)
(1.03565 -0.00430527 0)
(1.0188 0.0151076 -9.30027e-22)
(0.811323 1.31066 2.77594e-19)
(1.00243 0.000383975 -6.22816e-19)
(1.00339 0.00445034 7.43446e-19)
(1.00126 0.00209456 0)
(1.0111 0.00963015 6.20426e-19)
(1.00685 0.00745431 -7.55094e-19)
(1.00714 0.0111234 0)
(-0.0242685 2.61093 0)
(-0.0274389 2.59039 -2.99935e-20)
(-0.0243707 2.60434 2.11164e-20)
(1.24182 0.27304 5.28184e-19)
(1.16342 0.089104 0)
(0.0444446 3.09143 -9.74035e-19)
(0.0518134 2.87393 -6.89933e-20)
(0.103871 3.20197 1.30296e-18)
(0.122274 3.21378 -2.79667e-19)
(0.142041 3.25753 0)
(0.0226935 3.13771 2.68061e-19)
(0.0613233 3.16226 9.70348e-19)
(0.0618842 3.17891 -5.01376e-19)
(0.0268023 3.1297 0)
(0.569516 0.291023 0)
(0.513962 0.307552 0)
(1.13958 0.723841 1.17543e-19)
(1.10468 0.859955 -1.01848e-19)
(1.19743 0.609413 0)
(1.2243 0.544107 0)
(1.01571 0.0120238 -1.15258e-18)
(1.01469 0.0127588 1.44919e-18)
(1.02574 -0.0087312 0)
(1.02407 -0.010297 0)
(1.00677 0.00320223 0)
(1.01089 0.00420817 0)
(1.00423 0.00221059 0)
(1.00938 0.00635338 0)
(1.00685 0.00504165 0)
(1.0044 0.00526472 0)
(0.107871 1.37441 0)
(0.0958893 1.33415 0)
(0.141945 1.4197 0)
(0.147629 1.40263 0)
(0.142953 2.61333 0)
(0.186578 2.68462 -4.17847e-19)
(0.105598 2.67094 0)
(0.082426 2.67056 1.68365e-19)
(0.0272187 2.67683 -1.60985e-19)
(0.0116664 1.32518 0)
(0.019299 1.25557 0)
(0.0220097 1.3372 0)
(0.0364172 1.27533 0)
(-0.000953049 1.9957 3.38541e-20)
(-0.0211538 2.6109 -3.63396e-20)
(-0.00690392 2.67639 -2.5756e-20)
(-0.0188395 2.68929 0)
(-0.0234332 2.61727 2.69911e-20)
(-0.0220979 2.61275 3.61294e-20)
(0.00624657 1.99252 -2.58592e-20)
(-0.00939271 2.40217 4.87538e-20)
(-0.0144193 2.4262 2.91975e-20)
(1.01027 0.0403122 1.16978e-18)
(1.00448 0.0200481 -1.45566e-18)
(1.00391 0.0462555 -1.19649e-18)
(0.973962 0.0379711 1.50605e-18)
(1.06465 0.00918968 0)
(1.04989 -0.00645571 0)
(1.09261 0.037634 0)
(1.07577 0.0149833 0)
(1.07454 0.000587592 0)
(1.14127 0.0793965 0)
(1.11566 0.0461715 0)
(1.11887 0.0374477 0)
(-0.0294144 2.43461 3.34754e-21)
(-0.0199597 2.02211 0)
(-0.0204051 2.22122 0)
(-0.0214351 2.6041 -1.81503e-20)
(-0.0182705 2.61488 5.70232e-22)
(-0.00150747 1.58559 -5.33158e-20)
(-0.0106052 1.50824 5.44599e-20)
(-0.020852 1.39903 0)
(-0.0248709 1.40493 0)
(-0.0317294 1.39619 0)
(-0.00915766 1.31994 0)
(0.00168131 1.24488 0)
(0.385584 1.51366 2.84465e-19)
(0.434267 1.5176 1.51813e-19)
(0.591304 2.46652 -2.49708e-19)
(0.374599 2.56311 6.54084e-19)
(0.350267 2.05377 6.94907e-20)
(1.0207 -0.00800861 0)
(1.01579 -0.00936209 0)
(1.01484 -0.0132178 0)
(1.00772 -0.000564522 0)
(1.00486 -0.000676908 0)
(1.00799 -0.00447946 0)
(1.00954 -0.00344444 0)
(1.01465 -0.0042896 0)
(1.01954 0.0162317 1.13155e-18)
(1.01718 0.0147162 -1.43091e-18)
(1.0199 0.0185983 -1.14075e-18)
(1.01733 0.0165299 1.42967e-18)
(0.767747 1.35764 0)
(0.706667 1.39288 2.41993e-19)
(0.874813 1.23855 9.82227e-20)
(0.912242 1.19783 -1.3036e-19)
(1.16483 2.61301 2.84706e-19)
(0.746884 0.130723 5.85485e-19)
(1.17166 0.107518 0)
(1.21415 0.201652 -4.28619e-19)
(1.19531 0.154094 -1.78349e-20)
(1.01259 0.166054 0)
(0.0774608 3.01828 3.52316e-19)
(0.0831112 2.90274 -1.14803e-18)
(0.0252339 2.35844 7.26706e-19)
(0.146525 -0.247368 -3.32272e-19)
(0.342454 3.44523 -2.47223e-19)
(0.193421 3.33995 0)
(0.22389 3.39662 3.22037e-19)
(0.222433 3.07642 -1.21913e-18)
(0.255027 3.19511 0)
(0.00586021 3.12285 5.04808e-20)
(0.0163758 3.13145 -5.82032e-19)
(0.0153096 3.12721 8.56635e-19)
(0.0329057 3.14038 0)
(0.0311271 3.14968 0)
(1.25823 2.57704 0)
(0.534827 0.789382 -5.27192e-19)
(1.02499 1.03343 -1.07098e-20)
(0.990411 1.08641 0)
(0.859184 0.96956 -1.07624e-19)
(1.08298 0.908841 2.66013e-20)
(0.334081 0.307893 -8.20992e-19)
(0.652363 0.322628 -2.19954e-20)
(0.539184 0.220191 3.92657e-19)
(0.546316 0.32293 2.85458e-20)
(0.43149 0.274908 -1.14266e-18)
(0.610166 0.322046 0)
(0.694935 0.426516 6.57703e-19)
(0.697953 0.432974 0)
(0.581271 0.32905 0)
(0.493386 0.254423 0)
(0.798988 0.653667 3.9587e-19)
(1.25312 0.306795 -4.29603e-19)
(1.24584 0.43844 0)
(1.24617 0.394202 0)
(0.688206 0.187499 5.98936e-19)
(0.847732 0.557001 -3.71519e-19)
(0.768717 0.520117 6.64079e-19)
(0.966317 0.451926 -6.70243e-19)
(1.01837 0.0146585 7.66896e-19)
(1.01706 0.0136339 -7.73974e-19)
(1.01598 0.0141436 0)
(1.03705 -0.00452762 0)
(1.03045 -0.00769959 -7.2634e-19)
(1.02866 -0.0105795 7.18798e-19)
(1.02474 0.0109896 0)
(1.02268 0.0151033 0)
(1.0127 0.00470572 0)
(1.01456 0.00910163 0)
(1.01638 0.00422839 0)
(1.01555 0.00291998 0)
(0.0777295 1.36216 0)
(0.0807838 1.30499 0)
(0.154912 1.42296 6.0925e-20)
(0.276814 1.48539 8.35766e-20)
(0.176362 1.45691 1.88986e-19)
(0.212594 1.45459 -3.04946e-19)
(0.161962 1.43383 0)
(0.143032 1.58514 -8.63925e-20)
(0.139446 1.58182 0)
(0.351723 2.00449 -1.01172e-19)
(0.325518 2.34084 6.25847e-19)
(0.193999 1.4683 7.52704e-20)
(0.275539 1.39919 2.49089e-20)
(0.204336 1.39942 -2.02854e-20)
(0.288998 1.33771 -8.87074e-20)
(0.253388 1.57754 0)
(0.268653 1.62194 9.77599e-20)
(0.0219861 2.2531 -1.46223e-20)
(0.0380862 2.66971 0)
(0.0628497 2.40422 9.62258e-20)
(0.0581026 2.42837 0)
(0.0682604 2.68739 -1.86889e-19)
(0.0425621 2.70383 0)
(0.0233112 1.4553 5.6904e-20)
(0.0320576 1.51267 0)
(0.0287496 1.41662 0)
(0.0180896 1.42623 -6.50194e-20)
(0.0025998 2.66145 2.92206e-22)
(0.0270886 2.69298 1.84459e-19)
(0.0105032 2.73337 9.75236e-22)
(0.00195803 1.84563 -2.02335e-20)
(-0.00453161 1.69856 -1.53028e-20)
(0.00925148 1.30462 0)
(0.016901 1.22565 0)
(0.0402669 1.59571 -1.00168e-20)
(0.040071 1.4739 -5.23075e-20)
(0.0269935 1.55158 5.50794e-20)
(0.0509866 1.62015 0)
(-0.0304754 2.2719 1.15862e-19)
(-0.0338114 2.55158 -4.90345e-20)
(-0.0200037 2.45098 8.10777e-21)
(-0.00515837 1.86171 2.45205e-20)
(-0.0273834 2.5059 1.12216e-20)
(-0.0225003 2.44715 -2.52486e-20)
(1.01799 0.0220799 -7.75118e-19)
(1.01461 0.0284287 7.7842e-19)
(1.01179 0.0174483 0)
(1.0113 0.0704326 1.06344e-18)
(0.990938 0.0590233 -1.21976e-18)
(0.951546 0.0560233 1.36348e-18)
(1.01301 0.11685 -1.45176e-19)
(1.04398 -0.00467036 0)
(1.05219 -0.000410517 6.96121e-19)
(1.04027 -0.00818559 -6.95713e-19)
(1.07234 0.0436925 -4.12785e-20)
(1.06499 0.0289036 3.56533e-19)
(1.0641 0.0655247 0)
(1.05436 0.0549328 -1.28381e-19)
(1.0326 0.0443067 0)
(1.02611 0.0395699 0)
(1.0276 0.0136848 0)
(1.02401 0.0162029 0)
(1.04012 0.0337705 2.63873e-19)
(1.03929 0.0284982 -5.84093e-19)
(1.05324 0.0387643 -2.7927e-19)
(1.04813 0.0386911 -3.08001e-19)
(1.07795 0.0703515 5.89427e-19)
(1.10182 0.0563347 0)
(1.10863 0.095273 0)
(-0.0282444 2.27849 6.93412e-20)
(-0.0300961 2.02804 3.45999e-21)
(-0.0252795 2.03787 0)
(-0.0298765 2.44732 -6.90379e-20)
(-0.027405 2.40584 -6.66794e-21)
(-0.0341298 2.47486 8.84442e-21)
(-0.0214567 2.62515 -3.06652e-20)
(-0.0263841 2.56762 1.6056e-21)
(-0.0248574 2.52091 -1.05035e-20)
(-0.0172892 2.61851 2.04547e-20)
(-0.0213243 2.6206 -2.35324e-20)
(-0.0105189 1.50446 -4.31777e-22)
(-0.00507525 1.63348 -5.24435e-20)
(0.37696 1.44923 -1.21164e-19)
(0.371698 1.38049 1.8608e-20)
(0.648488 1.44092 -2.34144e-19)
(0.524702 1.51072 -1.4764e-19)
(0.578433 1.46937 0)
(0.606583 2.42375 2.19788e-19)
(0.667078 2.43288 3.40735e-19)
(0.417543 2.51545 9.15452e-20)
(0.399602 2.54202 -6.26319e-19)
(0.501937 2.48064 5.74513e-19)
(0.553444 2.47672 0)
(0.48632 2.52622 -5.58917e-19)
(0.258995 2.59729 1.14361e-18)
(0.358203 2.56488 -6.41128e-20)
(0.283332 2.65444 -1.58478e-18)
(0.970744 2.39124 7.21236e-19)
(0.848747 2.39187 0)
(1.01144 0.00138707 2.52771e-20)
(1.01538 -0.00517919 -2.06458e-20)
(1.01775 -0.00392584 -3.77423e-19)
(1.01562 -0.00104532 3.76107e-19)
(1.01312 0.00184152 0)
(0.63666 1.30289 0)
(0.679008 1.18803 0)
(0.793729 1.11864 0)
(0.666632 1.1455 0)
(1.19572 2.62847 5.12846e-20)
(1.08855 2.3805 0)
(0.818251 2.16952 3.60262e-21)
(0.821635 2.43294 0)
(0.916453 2.52325 -4.38644e-19)
(0.947972 2.47271 2.92838e-19)
(0.784119 0.161507 0)
(0.729977 0.143483 1.58895e-19)
(0.911097 0.16445 9.25981e-19)
(0.817694 0.145377 -3.47018e-19)
(0.760432 0.0935556 -1.06986e-18)
(1.08816 0.245833 -8.4687e-19)
(0.986309 0.316471 -9.85535e-21)
(0.929726 0.352529 8.17906e-19)
(1.01484 0.25993 6.96379e-19)
(0.933536 0.207098 -1.22366e-18)
(0.890413 0.219177 1.53671e-19)
(0.930822 0.318821 -3.19744e-19)
(0.90602 0.223407 0)
(1.00122 0.207441 5.9877e-19)
(1.05625 0.217392 0)
(1.05285 0.228855 0)
(1.12571 0.124833 2.69661e-19)
(1.06593 0.194576 -1.08695e-20)
(1.07998 0.24764 -1.54115e-19)
(1.11388 0.211547 0)
(1.02337 0.0491551 5.97305e-19)
(1.037 0.0629223 7.43461e-19)
(1.03246 0.046553 -5.92193e-19)
(1.0417 0.06912 -4.98573e-19)
(1.01489 0.0752504 -7.5393e-19)
(0.984517 0.168965 0)
(0.987708 0.109096 0)
(0.962465 0.0751779 -4.85691e-19)
(0.899124 0.0998016 1.95547e-19)
(1.03924 0.117001 6.90317e-19)
(1.07602 0.136771 -7.89516e-19)
(1.07088 0.181212 7.09689e-19)
(1.03572 0.158541 0)
(1.08608 0.122108 0)
(1.05727 0.112653 -3.23622e-19)
(1.04264 0.108531 -5.60892e-19)
(0.587669 1.08507 1.19745e-19)
(0.612558 1.40222 -2.29693e-20)
(1.14514 2.71908 -2.48988e-19)
(1.19794 3.10339 3.42031e-21)
(1.25366 2.72906 -1.32336e-19)
(1.29349 2.69988 2.28611e-20)
(1.26903 2.32342 -3.79909e-20)
(1.1856 3.00893 -7.64787e-20)
(1.20502 2.96595 2.27492e-19)
(1.17976 3.2569 -1.2094e-19)
(1.39738 2.97151 1.51018e-19)
(1.40888 2.90756 0)
(0.573328 0.815855 -4.81108e-20)
(0.209661 1.21153 4.75526e-19)
(0.518369 0.347721 5.2907e-19)
(0.404354 0.111112 6.00828e-19)
(0.481407 0.301674 6.4705e-19)
(0.548781 0.417053 -1.05348e-18)
(0.555918 0.402783 8.67565e-19)
(0.472617 0.303483 -3.25829e-19)
(0.343469 0.244138 7.37057e-19)
(0.723472 0.253168 -3.45504e-19)
(0.673442 0.285316 0)
(0.605858 0.195774 7.86982e-21)
(0.739734 0.507262 3.59047e-19)
(0.709448 0.479063 -1.30142e-18)
(0.635831 0.434676 1.49066e-20)
(0.623011 0.413368 0)
(0.719049 0.715457 3.74658e-19)
(0.835553 0.798687 4.1349e-19)
(0.772995 0.848601 -4.81837e-19)
(0.903575 0.82072 -1.53244e-19)
(0.938317 0.863917 -3.58393e-20)
(0.945882 0.871298 3.67586e-20)
(0.882371 0.677451 -6.72028e-19)
(0.954715 0.724301 1.42469e-19)
(1.00891 0.728061 0)
(1.00786 0.703923 -1.82441e-19)
(1.03156 0.340712 2.11747e-19)
(1.15869 0.340572 2.57836e-19)
(1.07446 0.28364 3.46291e-19)
(0.999516 0.387595 -4.23109e-19)
(1.05697 0.487947 0)
(1.13881 0.428669 0)
(0.903807 0.425516 -4.74723e-22)
(0.848025 0.323149 0)
(0.892181 0.313626 3.91016e-19)
(0.913705 0.351335 3.03959e-21)
(0.987507 0.496471 1.87243e-18)
(0.920233 0.555231 4.82861e-19)
(0.942597 0.513131 -5.10425e-19)
(0.861031 0.490859 5.44299e-19)
(0.827355 0.465742 3.46223e-19)
(0.803526 0.442394 -3.39472e-19)
(1.02818 -0.000382345 6.23768e-19)
(1.02042 0.000574481 0)
(1.01907 0.00139259 4.07057e-19)
(1.02264 -0.000704696 -9.21495e-19)
(1.02254 0.0045841 4.48894e-19)
(1.02002 0.0116288 -9.39571e-19)
(1.02074 0.0114325 0)
(1.01967 0.0121873 -1.95625e-19)
(1.01656 0.00779867 4.90333e-19)
(1.01668 0.0109096 -2.46045e-19)
(1.01727 0.0106099 1.80018e-19)
(0.0331105 1.33478 0)
(0.037495 1.39394 0)
(0.053723 1.33954 0)
(0.0579077 1.27781 0)
(0.0878663 1.40201 -6.80215e-20)
(0.0930896 1.37501 1.30732e-20)
(0.0851907 1.57652 3.57735e-21)
(0.103708 1.40965 -4.43133e-20)
(0.0434679 1.48678 4.92979e-20)
(0.0482371 1.48284 -3.89047e-20)
(0.0749029 1.39773 -2.62393e-20)
(0.0629077 1.40076 7.61185e-20)
(0.0566963 1.38008 1.23361e-20)
(0.0439815 1.39797 8.03788e-21)
(0.100819 2.37416 -1.05359e-19)
(0.0916278 2.41734 0)
(0.146078 2.01093 8.79251e-20)
(0.131851 1.70015 2.99154e-20)
(0.217044 2.00897 -8.27195e-20)
(0.223627 2.41811 0)
(0.25038 2.37969 -6.09962e-19)
(0.292907 2.37434 4.45667e-19)
(0.255557 1.98049 -1.95691e-19)
(0.147321 2.15343 1.42965e-19)
(0.107801 2.25907 0)
(0.0150799 1.85706 -2.84225e-20)
(-0.00447818 2.37694 -1.08497e-20)
(0.00394739 2.13508 0)
(0.00578199 2.43935 -1.6999e-20)
(0.0230032 2.27541 2.53314e-20)
(0.00856907 1.43133 -1.14338e-20)
(0.00655674 1.41027 1.89334e-19)
(0.00562226 1.41907 -6.15155e-20)
(0.0177493 1.4279 -5.37812e-20)
(0.0207793 1.45846 0)
(0.00410363 1.40113 0)
(-0.00311634 1.30475 -7.03131e-20)
(-0.000563063 1.38679 2.00551e-20)
(0.00462225 1.38796 0)
(0.00458574 1.29637 -5.37858e-20)
(0.0123166 1.21772 1.0781e-19)
(1.04244 0.0150832 0)
(1.04897 0.0105588 -6.50901e-20)
(1.03914 0.0247005 -4.70474e-19)
(1.04968 0.0234947 0)
(1.05462 0.0226219 0)
(1.03625 0.0130689 -6.76106e-21)
(1.03 0.0135622 7.59212e-19)
(1.03178 0.0175144 9.1891e-19)
(1.02565 0.0211171 0)
(1.02228 0.0215961 0)
(1.03546 0.025921 4.69636e-19)
(1.02576 0.0283368 0)
(1.02345 0.0283441 0)
(-0.0203412 2.03015 0)
(-0.00959893 1.66144 -2.28707e-21)
(-0.00861238 1.76671 -3.20461e-20)
(-0.0052854 1.3947 0)
(-0.00927571 1.5639 -2.95242e-20)
(-0.0153857 1.47247 1.81654e-20)
(-0.0105748 1.4075 0)
(0.403509 1.62659 0)
(0.365552 1.31833 -3.06782e-20)
(0.275685 1.34579 0)
(0.434922 1.31662 -3.38317e-20)
(0.472947 1.47618 0)
(0.45735 1.41708 3.87603e-20)
(1.04057 2.6722 -1.53298e-20)
(0.985186 2.41043 -9.06078e-19)
(0.947867 2.21085 1.01748e-18)
(0.865492 2.38399 2.44463e-19)
(0.852838 2.48876 0)
(0.921833 2.48357 0)
(0.95453 2.3843 0)
(0.930569 2.37495 -9.44364e-19)
(0.691466 2.45306 -3.82174e-19)
(0.80049 2.43677 -9.8563e-20)
(0.807786 2.41488 7.42775e-20)
(0.704267 2.40427 0)
(0.80954 2.39816 0)
(0.77021 2.41453 -3.69452e-19)
(0.765777 2.46735 0)
(0.629764 1.06676 0)
(0.515543 0.859839 -5.58761e-19)
(0.521856 0.93177 -3.24051e-20)
(0.501712 1.07144 0)
(0.488709 0.97981 8.55599e-19)
(0.801323 0.886207 -1.33471e-19)
(0.805119 1.02122 0)
(0.786013 1.00397 1.83649e-19)
(0.674803 1.02087 0)
(0.666623 0.924363 0)
(1.16351 2.75568 -2.21474e-19)
(1.13864 2.81385 -9.08295e-20)
(0.923134 2.33625 7.71732e-20)
(0.89984 2.31722 -7.67117e-20)
(1.13319 2.7336 0)
(1.08519 2.7014 9.21495e-20)
(1.10135 2.49696 -2.98888e-19)
(1.00308 2.25659 -2.84159e-20)
(0.497278 1.33075 0)
(0.517071 1.07788 -1.05484e-19)
(0.593969 1.18203 0)
(0.851403 0.23104 0)
(0.756343 0.178373 0)
(0.662039 0.143467 0)
(0.853767 0.231799 -6.1647e-19)
(0.744741 0.224638 3.61508e-19)
(0.915463 0.0880759 -4.03372e-19)
(0.922819 0.138019 0)
(0.905058 0.152871 1.74331e-19)
(0.835169 0.11121 6.97747e-19)
(0.787481 0.0761532 -4.38364e-19)
(1.09681 3.34835 -6.69858e-19)
(1.16464 3.2717 0)
(1.11495 3.43322 -1.56492e-18)
(0.656506 3.57913 1.30253e-18)
(1.02543 3.07678 1.16787e-19)
(0.532695 0.782064 5.70539e-19)
(0.512332 0.750275 0)
(0.350982 0.363628 -1.44579e-19)
(0.486926 0.629047 8.57903e-19)
(0.54985 0.348939 -1.89886e-19)
(0.51877 0.454475 2.25564e-19)
(0.69036 0.524215 4.63263e-19)
(0.736082 0.560452 0)
(0.664916 0.564417 0)
(0.648775 0.530822 0)
(1.0167 0.612179 9.04589e-20)
(0.971677 0.594576 -4.67779e-19)
(0.981515 0.606553 3.5809e-19)
(1.04602 0.549309 -3.45406e-19)
(1.09087 0.51909 0)
(1.09259 0.601056 -9.1109e-20)
(0.887396 0.420772 -7.71816e-19)
(0.87616 0.407847 -9.91662e-19)
(0.799628 0.40648 6.08641e-19)
(0.814562 0.375043 -6.29856e-19)
(0.856582 0.334423 -4.95393e-19)
(0.80101 0.33822 6.06821e-19)
(1.02656 0.00670045 -4.69778e-19)
(1.02618 0.00681948 9.46425e-19)
(1.02995 0.000957296 6.04506e-19)
(1.03417 0.00158185 -7.25797e-19)
(1.03398 0.0120088 0)
(1.02966 0.0120693 -1.18895e-18)
(0.0810489 1.64601 1.16773e-20)
(0.0680719 1.60723 0)
(0.108835 1.70364 3.97479e-20)
(0.113485 1.67932 -3.34062e-20)
(0.0723304 1.57293 -6.57927e-21)
(0.0672425 1.57559 0)
(0.00726982 1.69971 0)
(-0.00862062 1.5141 1.57487e-20)
(-0.00755291 1.45414 -1.41533e-20)
(-0.012233 1.56133 2.93681e-21)
(-0.00177947 1.8936 2.3301e-20)
(-0.0140152 1.94833 -9.0783e-21)
(0.493521 1.36149 -2.65669e-19)
(0.496009 1.35655 2.90455e-19)
(0.448935 1.30905 -1.40955e-20)
(0.428215 1.29193 7.86022e-21)
(0.628143 1.31106 0)
(0.555815 1.4046 1.13759e-19)
(0.556884 1.40774 -1.10767e-19)
(0.484502 1.29628 1.35957e-20)
(0.525557 1.2501 0)
(0.590071 1.21596 0)
(0.665198 2.41654 5.62703e-19)
(0.660852 2.44619 1.28633e-18)
(0.715991 2.46146 -8.84465e-19)
(0.614013 2.43331 -2.01767e-19)
(0.556612 2.52743 2.76665e-19)
(0.496727 2.49315 -7.16355e-19)
(0.993092 2.38922 -5.73238e-19)
(1.02523 2.4069 0)
(0.951968 2.19465 -6.27074e-19)
(1.05603 2.68248 0)
(1.05495 2.66363 0)
(0.602154 2.28958 5.90887e-21)
(1.11914 3.06943 7.41691e-20)
(0.996872 2.96687 -1.22524e-19)
(0.322168 0.797146 0)
(0.321108 0.677692 -3.04266e-19)
(0.526952 0.612694 -3.0866e-19)
(0.364767 2.13187 0)
(0.403584 2.74413 -8.22091e-20)
(0.413202 2.47853 0)
(0.727571 0.681901 -7.98355e-19)
(0.794163 0.68961 1.11239e-18)
(0.79977 0.65709 -1.05871e-18)
(0.700418 0.640278 -1.01212e-19)
(0.759567 0.59901 -4.17446e-19)
(0.971184 2.75286 -5.61745e-20)
(1.01424 2.75941 -2.11987e-19)
(0.552838 2.20672 4.39757e-19)
(0.604961 1.73456 -3.48266e-19)
(0.703952 1.8533 -4.96854e-19)
(0.977538 2.39327 -1.37594e-19)
(0.977499 2.34652 3.66535e-19)
(0.646987 1.76372 3.35102e-20)
(0.453292 1.29663 1.75621e-19)
)
;

boundaryField
{
    wall-4
    {
        type            noSlip;
    }
    velocity-inlet-5
    {
        type            fixedValue;
        value           uniform (1 0 0);
    }
    velocity-inlet-6
    {
        type            fixedValue;
        value           uniform (0 3 0);
    }
    pressure-outlet-7
    {
        type            zeroGradient;
    }
    wall-8
    {
        type            noSlip;
    }
    frontAndBackPlanes
    {
        type            empty;
    }
}


// ************************************************************************* //
