/*--------------------------------*- C++ -*----------------------------------*\
  =========                 |
  \\      /  F ield         | OpenFOAM: The Open Source CFD Toolbox
   \\    /   O peration     | Website:  https://openfoam.org
    \\  /    A nd           | Version:  6
     \\/     M anipulation  |
\*---------------------------------------------------------------------------*/
FoamFile
{
    version     2.0;
    format      ascii;
    class       volVectorField;
    location    "7.5";
    object      U;
}
// * * * * * * * * * * * * * * * * * * * * * * * * * * * * * * * * * * * * * //

dimensions      [0 1 -1 0 0 0 0];

internalField   nonuniform List<vector> 
8800
(
(0.98715 -0.0765684 0)
(1.00152 -0.0550015 0)
(0.999185 -0.0281302 0)
(0.999885 -0.0147408 0)
(1.00043 -0.00825058 0)
(1.00018 -0.00468834 0)
(0.999881 -0.00254005 0)
(0.99987 -0.00133977 0)
(0.999922 -0.000657946 0)
(1.00003 -0.000124344 0)
(0.999947 0.000440055 0)
(0.999888 0.00101712 0)
(0.999835 0.00186469 0)
(0.999968 0.00350686 0)
(1.00042 0.00629978 0)
(1.0002 0.0109611 0)
(0.999549 0.0203351 0)
(0.99872 0.0383691 0)
(1.00688 0.0723699 0)
(0.771231 0.0366181 0)
(0.364226 -0.0158674 0)
(1.04425 -0.0761184 0)
(1.08475 -0.0697963 0)
(1.04602 -0.0536045 0)
(1.024 -0.0391117 0)
(1.01149 -0.0256765 0)
(1.00539 -0.0160765 0)
(1.00266 -0.00977732 0)
(1.00136 -0.00533017 0)
(1.00103 -0.00191422 0)
(1.00099 0.000835277 0)
(1.00107 0.00391219 0)
(1.00187 0.00770308 0)
(1.00374 0.0128255 0)
(1.00777 0.0205207 0)
(1.01694 0.0322262 0)
(1.03347 0.0465623 0)
(1.06325 0.0611979 0)
(1.09182 0.0750554 0)
(0.840216 0.0561901 0)
(0.221111 -0.00191186 0)
(1.07851 -0.0470003 0)
(1.09968 -0.0433899 0)
(1.0629 -0.0354589 0)
(1.03731 -0.0292963 0)
(1.021 -0.0233037 0)
(1.01131 -0.0169356 0)
(1.00649 -0.0110763 0)
(1.00435 -0.00598298 0)
(1.00379 -0.000938675 0)
(1.00383 0.00423797 0)
(1.00503 0.00907537 0)
(1.00826 0.0144432 0)
(1.01528 0.0205298 0)
(1.02792 0.0267313 0)
(1.04866 0.0324836 0)
(1.07927 0.0388824 0)
(1.10777 0.0470133 0)
(0.947959 0.0393404 0)
(0.220875 0.00192201 0)
(0.184711 -0.000289624 0)
(1.0269 -0.0288302 0)
(1.10746 -0.034017 0)
(1.07836 -0.0294519 0)
(1.05279 -0.0242229 0)
(1.03555 -0.0197612 0)
(1.02437 -0.0155112 0)
(1.01689 -0.0110002 0)
(1.0123 -0.0060963 0)
(1.01033 -0.00082599 0)
(1.01091 0.00444742 0)
(1.0141 0.00943786 0)
(1.01999 0.0140136 0)
(1.02897 0.018148 0)
(1.04289 0.0224626 0)
(1.06377 0.0272006 0)
(1.09492 0.0324821 0)
(1.09853 0.033888 0)
(0.845627 0.0179855 0)
(0.184328 0.000299473 0)
(0.173945 0.000109439 0)
(0.981566 -0.0113333 0)
(1.09977 -0.0192387 0)
(1.07958 -0.0213674 0)
(1.05385 -0.0211556 0)
(1.03719 -0.0193433 0)
(1.02598 -0.0158143 0)
(1.01879 -0.0113848 0)
(1.01444 -0.00630281 0)
(1.0125 -0.000717049 0)
(1.01294 0.00484273 0)
(1.01589 0.0100777 0)
(1.0215 0.0147117 0)
(1.03045 0.0185851 0)
(1.04417 0.021031 0)
(1.06481 0.0221127 0)
(1.0941 0.0210163 0)
(1.07555 0.0167639 0)
(0.789211 0.00501463 0)
(0.173389 -9.75665e-05 0)
(0.172907 2.96341e-05 0)
(0.952992 -0.00504032 0)
(1.08447 -0.0131869 0)
(1.07651 -0.0181276 0)
(1.05565 -0.0193721 0)
(1.04153 -0.0187745 0)
(1.03141 -0.0161609 0)
(1.02433 -0.0120946 0)
(1.01968 -0.00680675 0)
(1.01733 -0.000566194 0)
(1.01795 0.00578708 0)
(1.02124 0.0113894 0)
(1.02685 0.0158581 0)
(1.03519 0.0189609 0)
(1.04714 0.020487 0)
(1.06402 0.0199187 0)
(1.08495 0.0167082 0)
(1.05136 0.00967048 0)
(0.765765 0.001763 0)
(0.172097 -1.35425e-05 0)
(0.172178 2.59148e-05 0)
(0.933312 -0.00261493 0)
(1.06434 -0.00932901 0)
(1.06676 -0.0154688 0)
(1.05422 -0.0184803 0)
(1.04325 -0.0180442 0)
(1.03536 -0.0157564 0)
(1.02944 -0.011832 0)
(1.0252 -0.00665408 0)
(1.02296 -0.000259702 0)
(1.0234 0.00639475 0)
(1.02629 0.0119084 0)
(1.03108 0.0160896 0)
(1.03771 0.0187889 0)
(1.04685 0.0198463 0)
(1.05898 0.0184433 0)
(1.06907 0.0135506 0)
(1.02801 0.00614657 0)
(0.752975 0.000882326 0)
(0.171086 -8.11562e-06 0)
(0.172238 2.34266e-05 0)
(0.922394 -0.00100956 0)
(1.04865 -0.00483528 0)
(1.05691 -0.00929063 0)
(1.05091 -0.0122551 0)
(1.04445 -0.0131339 0)
(1.03853 -0.0120847 0)
(1.03344 -0.00937132 0)
(1.02955 -0.00514911 0)
(1.02739 0.000373175 0)
(1.02765 0.00610475 0)
(1.03014 0.0106448 0)
(1.03424 0.0136623 0)
(1.03949 0.0150536 0)
(1.04552 0.0146956 0)
(1.05187 0.0123048 0)
(1.05497 0.00809111 0)
(1.01198 0.00316723 0)
(0.746693 0.000401417 0)
(0.1708 6.28365e-07 0)
(0.172376 1.91334e-05 0)
(0.917407 -0.00036713 0)
(1.03985 -0.00218374 0)
(1.05004 -0.00466979 0)
(1.04758 -0.00666631 0)
(1.04412 -0.00764967 0)
(1.04039 -0.0073896 0)
(1.03674 -0.00578674 0)
(1.03363 -0.00286135 0)
(1.0317 0.00120966 0)
(1.03169 0.00534624 0)
(1.03343 0.00843647 0)
(1.03624 0.01012 0)
(1.03955 0.0104112 0)
(1.0429 0.00942084 0)
(1.04586 0.00733852 0)
(1.04569 0.00451755 0)
(1.00323 0.00175686 0)
(0.743413 0.00029811 0)
(0.170497 9.5224e-06 0)
(0.172631 2.20524e-05 0)
(0.915397 -1.4243e-07 0)
(1.03567 -0.000742816 0)
(1.0463 -0.00190433 0)
(1.04533 -0.00295858 0)
(1.04345 -0.00358918 0)
(1.04109 -0.00354242 0)
(1.0385 -0.00260928 0)
(1.03606 -0.00070431 0)
(1.03428 0.00205323 0)
(1.03396 0.00481254 0)
(1.03498 0.00665316 0)
(1.0367 0.00732007 0)
(1.03862 0.00701258 0)
(1.04036 0.00594666 0)
(1.04168 0.00439559 0)
(1.04028 0.00264617 0)
(0.998523 0.00109506 0)
(0.741399 0.000240216 0)
(0.170206 1.34669e-05 0)
(0.172991 2.84505e-05 0)
(0.914919 0.000227699 0)
(1.034 1.23082e-05 0)
(1.04465 -0.000415161 0)
(1.04427 -0.000817202 0)
(1.04316 -0.0010279 0)
(1.04163 -0.000878029 0)
(1.03977 -0.000199385 0)
(1.03781 0.00110087 0)
(1.03616 0.00294583 0)
(1.03547 0.00468464 0)
(1.03582 0.00559239 0)
(1.03662 0.00569471 0)
(1.03755 0.00514734 0)
(1.03835 0.00417889 0)
(1.03888 0.00302457 0)
(1.03702 0.00186222 0)
(0.995689 0.00086907 0)
(0.739878 0.00025042 0)
(0.16987 2.01667e-05 0)
(0.173445 3.18503e-05 0)
(0.915225 0.000369538 0)
(1.03363 0.000476227 0)
(1.04423 0.000481487 0)
(1.04407 0.00051468 0)
(1.0433 0.000660458 0)
(1.04218 0.00101289 0)
(1.04071 0.00167116 0)
(1.03901 0.00268416 0)
(1.03734 0.00396147 0)
(1.03628 0.00500788 0)
(1.03595 0.00542115 0)
(1.03613 0.00506952 0)
(1.0364 0.00436166 0)
(1.03666 0.00345702 0)
(1.0368 0.0025022 0)
(1.03474 0.00160289 0)
(0.993607 0.000835231 0)
(0.738453 0.000286947 0)
(0.169447 2.70999e-05 0)
(0.174014 4.00523e-05 0)
(0.91618 0.00053807 0)
(1.03409 0.000868509 0)
(1.04461 0.00116143 0)
(1.04452 0.00150931 0)
(1.04388 0.00195436 0)
(1.04292 0.00253822 0)
(1.0416 0.00329625 0)
(1.03995 0.0042164 0)
(1.03812 0.00516565 0)
(1.03664 0.00573109 0)
(1.0358 0.00564839 0)
(1.03537 0.00511008 0)
(1.03519 0.00427565 0)
(1.0351 0.00335011 0)
(1.03501 0.00244565 0)
(1.03284 0.00162391 0)
(0.991752 0.000913394 0)
(0.736922 0.000346739 0)
(0.168913 3.53001e-05 0)
(0.174745 5.06767e-05 0)
(0.917671 0.000722194 0)
(1.03517 0.0012536 0)
(1.04559 0.00179017 0)
(1.04551 0.00241007 0)
(1.04488 0.00313453 0)
(1.04392 0.00397087 0)
(1.04256 0.0049034 0)
(1.04078 0.0058583 0)
(1.03864 0.006644 0)
(1.03666 0.00688302 0)
(1.03529 0.00646655 0)
(1.0344 0.00566843 0)
(1.03384 0.00467449 0)
(1.0335 0.00364812 0)
(1.03324 0.0026845 0)
(1.03097 0.00182546 0)
(0.989834 0.00107314 0)
(0.735138 0.000428776 0)
(0.168238 4.518e-05 0)
(0.175679 6.4499e-05 0)
(0.919737 0.000941869 0)
(1.03683 0.00168485 0)
(1.04714 0.00246509 0)
(1.047 0.00335989 0)
(1.04631 0.00437819 0)
(1.04524 0.00550247 0)
(1.0437 0.00667418 0)
(1.04162 0.00775828 0)
(1.03901 0.00849286 0)
(1.03644 0.00849841 0)
(1.0345 0.00779636 0)
(1.03315 0.00670859 0)
(1.03226 0.00548163 0)
(1.03168 0.00427036 0)
(1.03128 0.00315795 0)
(1.02892 0.0021762 0)
(0.987654 0.00130927 0)
(0.732971 0.0005363 0)
(0.167385 5.73514e-05 0)
(0.176875 8.27898e-05 0)
(0.922472 0.00121959 0)
(1.03913 0.00220812 0)
(1.04929 0.00326134 0)
(1.04906 0.00446551 0)
(1.04822 0.00582109 0)
(1.04695 0.00728912 0)
(1.04509 0.00877027 0)
(1.04255 0.010065 0)
(1.03929 0.0108276 0)
(1.03598 0.0106424 0)
(1.03339 0.00963588 0)
(1.03157 0.00821422 0)
(1.03033 0.00667893 0)
(1.02952 0.00519763 0)
(1.02897 0.00385323 0)
(1.0265 0.00267308 0)
(0.985041 0.00162635 0)
(0.730284 0.000673676 0)
(0.16631 7.23981e-05 0)
(0.178416 0.000106889 0)
(0.926033 0.00157675 0)
(1.04215 0.00286806 0)
(1.05214 0.00425083 0)
(1.05177 0.00582721 0)
(1.05072 0.00759133 0)
(1.04913 0.00948224 0)
(1.04682 0.0113566 0)
(1.04363 0.0129417 0)
(1.03952 0.0137895 0)
(1.03529 0.0134187 0)
(1.03194 0.0120567 0)
(1.02955 0.0102279 0)
(1.02793 0.00829384 0)
(1.02686 0.00644971 0)
(1.02614 0.00478651 0)
(1.02355 0.00333052 0)
(0.981821 0.00203628 0)
(0.726921 0.000847062 0)
(0.164957 9.10498e-05 0)
(0.180412 0.000138834 0)
(0.930634 0.00204189 0)
(1.04608 0.00371995 0)
(1.05583 0.00551752 0)
(1.05527 0.0075574 0)
(1.05393 0.00983015 0)
(1.0519 0.0122497 0)
(1.04896 0.0146198 0)
(1.04492 0.016579 0)
(1.03971 0.0175537 0)
(1.03432 0.0169723 0)
(1.03004 0.015175 0)
(1.02699 0.012834 0)
(1.0249 0.0103896 0)
(1.02353 0.008075 0)
(1.02263 0.00599497 0)
(1.01989 0.00417647 0)
(0.977803 0.00255787 0)
(0.722696 0.00106479 0)
(0.163257 0.00011417 0)
(0.183012 0.000181947 0)
(0.936567 0.00265692 0)
(1.05112 0.00484228 0)
(1.06057 0.00717294 0)
(1.05975 0.00979632 0)
(1.05801 0.012709 0)
(1.05539 0.0157941 0)
(1.05162 0.018786 0)
(1.04646 0.0212102 0)
(1.03983 0.0223385 0)
(1.033 0.0214893 0)
(1.02759 0.0191429 0)
(1.02373 0.0161537 0)
(1.02109 0.0130622 0)
(1.01936 0.0101493 0)
(1.01823 0.00753694 0)
(1.0153 0.0052526 0)
(0.972761 0.00321645 0)
(0.717382 0.00133732 0)
(0.161126 0.000142885 0)
(0.186436 0.000242506 0)
(0.94424 0.00349137 0)
(1.05757 0.00635476 0)
(1.06663 0.009365 0)
(1.06546 0.0127161 0)
(1.06318 0.0164369 0)
(1.05975 0.0203668 0)
(1.05486 0.0241368 0)
(1.04825 0.027124 0)
(1.03982 0.0284137 0)
(1.03122 0.0272018 0)
(1.02441 0.0241531 0)
(1.01957 0.0203459 0)
(1.01626 0.0164417 0)
(1.0141 0.012779 0)
(1.0127 0.00949817 0)
(1.00954 0.00662264 0)
(0.966418 0.00405047 0)
(0.71069 0.00168045 0)
(0.158458 0.000179065 0)
(0.191014 0.000331793 0)
(0.954252 0.004665 0)
(1.06592 0.00842643 0)
(1.07451 0.0122605 0)
(1.07282 0.0165049 0)
(1.06973 0.0212651 0)
(1.06518 0.0262854 0)
(1.0588 0.0310278 0)
(1.05029 0.0346773 0)
(1.0396 0.0361055 0)
(1.0288 0.0343895 0)
(1.02031 0.0304421 0)
(1.01428 0.0256115 0)
(1.01016 0.0206988 0)
(1.00747 0.0161112 0)
(1.00574 0.0120063 0)
(1.00231 0.0083902 0)
(0.958423 0.00512611 0)
(0.702234 0.00212148 0)
(0.155113 0.000226345 0)
(0.197256 0.000465954 0)
(0.967522 0.00635655 0)
(1.07703 0.0112527 0)
(1.08498 0.0160398 0)
(1.08245 0.021423 0)
(1.07816 0.0275832 0)
(1.07202 0.0340233 0)
(1.0636 0.0399524 0)
(1.05261 0.0443314 0)
(1.03908 0.0458121 0)
(1.0256 0.0433876 0)
(1.01508 0.0382994 0)
(1.0076 0.0322062 0)
(1.00249 0.0260588 0)
(0.999125 0.0203489 0)
(0.996985 0.015252 0)
(0.993217 0.0107328 0)
(0.948319 0.00657391 0)
(0.69149 0.00271344 0)
(0.150904 0.000291307 0)
(0.20598 0.000669062 0)
(0.985374 0.00885402 0)
(1.09203 0.0151651 0)
(1.09904 0.021161 0)
(1.09521 0.0281644 0)
(1.08918 0.0362324 0)
(1.08078 0.0444186 0)
(1.06957 0.0516573 0)
(1.05533 0.0567037 0)
(1.03824 0.0580149 0)
(1.02152 0.0545852 0)
(1.00856 0.0480706 0)
(0.999324 0.0404497 0)
(0.992941 0.0328135 0)
(0.988698 0.025753 0)
(0.985968 0.0194804 0)
(0.981727 0.0138996 0)
(0.935569 0.00860827 0)
(0.677837 0.00354571 0)
(0.145592 0.000381841 0)
(0.218568 0.00100776 0)
(1.00944 0.0128763 0)
(1.11196 0.0209936 0)
(1.11761 0.0287932 0)
(1.11188 0.0381485 0)
(1.10337 0.0485922 0)
(1.09179 0.0586501 0)
(1.07682 0.0670745 0)
(1.05842 0.072483 0)
(1.03699 0.0732046 0)
(1.01645 0.0683552 0)
(1.0006 0.0600897 0)
(0.989232 0.0506713 0)
(0.981243 0.0412817 0)
(0.975788 0.032598 0)
(0.972161 0.0249048 0)
(0.967223 0.0180681 0)
(0.91964 0.0114151 0)
(0.66077 0.00471512 0)
(0.138918 0.000502354 0)
(0.237339 0.00168787 0)
(1.04228 0.0199441 0)
(1.13854 0.0302728 0)
(1.14182 0.0408832 0)
(1.13294 0.0532646 0)
(1.12055 0.0662151 0)
(1.10446 0.0779172 0)
(1.08463 0.0870795 0)
(1.06123 0.0922572 0)
(1.03483 0.0917593 0)
(1.00999 0.0849743 0)
(0.990904 0.0746206 0)
(0.977042 0.063179 0)
(0.967079 0.0518279 0)
(0.960019 0.0412571 0)
(0.955094 0.0318312 0)
(0.949086 0.023391 0)
(0.899784 0.0151235 0)
(0.639761 0.00630299 0)
(0.130586 0.000665664 0)
(0.265556 0.00329063 0)
(1.08974 0.0333126 0)
(1.17469 0.0468987 0)
(1.17284 0.0614601 0)
(1.15821 0.0769257 0)
(1.13971 0.0916431 0)
(1.11749 0.103985 0)
(1.0917 0.112776 0)
(1.06265 0.116654 0)
(1.03091 0.114019 0)
(1.00159 0.104709 0)
(0.979065 0.0919932 0)
(0.962473 0.0784369 0)
(0.950206 0.0651157 0)
(0.941132 0.0526325 0)
(0.93442 0.0413825 0)
(0.926686 0.0311578 0)
(0.874432 0.0207994 0)
(0.613267 0.00856341 0)
(0.120678 0.000885928 0)
(0.306687 0.0110563 -2.89589e-21)
(1.1522 0.0609253 -2.13319e-21)
(1.21986 0.0790843 5.80277e-22)
(1.20832 0.0965315 0)
(1.18552 0.113039 1.01998e-36)
(1.15935 0.127465 1.77572e-23)
(1.12991 0.138655 -2.27305e-22)
(1.09736 0.145565 0)
(1.06206 0.14701 9.07965e-36)
(1.02453 0.14152 -6.97919e-22)
(0.990293 0.129384 0)
(0.963873 0.114352 -1.01618e-21)
(0.943978 0.0989178 -3.11998e-21)
(0.928692 0.0840059 -1.51493e-21)
(0.916704 0.0701843 -4.79499e-22)
(0.907018 0.0578401 -2.91644e-22)
(0.896151 0.0468674 0)
(0.841176 0.0350317 2.12832e-22)
(0.578375 0.0191784 2.54455e-22)
(0.110604 0.00386228 4.56558e-21)
(0.32794 0.0295188 -5.26631e-21)
(1.20366 0.10842 1.05949e-22)
(1.26099 0.12985 -2.85493e-22)
(1.2405 0.145675 0)
(1.21003 0.160123 4.7338e-22)
(1.17649 0.172529 2.82604e-22)
(1.14009 0.181578 -1.29264e-22)
(1.10087 0.186307 -1.11484e-21)
(1.05906 0.185422 0)
(1.01502 0.177436 2.93022e-21)
(0.974797 0.163045 3.27277e-21)
(0.943236 0.146446 1.05774e-21)
(0.918765 0.130107 4.2187e-21)
(0.899176 0.11477 6.26571e-21)
(0.883033 0.100909 0)
(0.869183 0.0888628 9.41625e-21)
(0.853752 0.0792249 1.38976e-20)
(0.797986 0.0663328 1.56846e-20)
(0.553794 0.0451399 -1.84064e-20)
(0.109453 0.00986692 -3.3717e-22)
(0.317399 0.0480647 0)
(1.23387 0.170155 -1.55798e-21)
(1.29161 0.193211 0)
(1.26526 0.204823 2.45122e-21)
(1.22842 0.2153 0)
(1.18872 0.223803 1.3213e-21)
(1.14628 0.229392 9.08587e-23)
(1.1012 0.230806 -1.5325e-21)
(1.05362 0.226813 -3.07896e-22)
(1.00377 0.215994 1.39503e-21)
(0.958225 0.199482 7.61945e-21)
(0.922362 0.18177 -4.84529e-23)
(0.894372 0.165199 -3.16691e-21)
(0.871754 0.150383 -6.18046e-21)
(0.852975 0.137639 7.53952e-21)
(0.83692 0.127188 -1.35794e-20)
(0.820468 0.11895 -1.87273e-21)
(0.770834 0.107174 0)
(0.548627 0.0771578 1.01765e-22)
(0.11553 0.0171492 0)
(0.303385 0.063325 -3.96415e-20)
(1.24686 0.235123 1.59816e-20)
(1.30998 0.26065 8.3556e-21)
(1.28055 0.268509 -1.60144e-21)
(1.23974 0.274555 2.45084e-21)
(1.19572 0.278655 -3.22202e-21)
(1.14864 0.280079 -2.85276e-23)
(1.09877 0.277642 0)
(1.04638 0.270154 -5.22474e-21)
(0.991744 0.256191 0)
(0.942052 0.237361 -3.83668e-21)
(0.903069 0.218417 -5.49133e-21)
(0.872812 0.201505 -3.53361e-21)
(0.848685 0.18695 -4.58695e-21)
(0.829022 0.174811 0)
(0.812593 0.165124 0)
(0.796612 0.157704 -1.25103e-20)
(0.751283 0.145577 2.51795e-21)
(0.541489 0.105654 -1.48887e-21)
(0.115983 0.023519 -1.76063e-21)
(0.291377 0.076854 2.90095e-20)
(1.24823 0.299329 0)
(1.3185 0.328357 -2.32068e-20)
(1.28724 0.33286 -5.99008e-21)
(1.24396 0.334445 -4.63671e-21)
(1.19696 0.334331 0)
(1.14673 0.331582 -7.79195e-22)
(1.09341 0.325258 1.17711e-21)
(1.03729 0.314125 2.17855e-21)
(0.978717 0.296866 6.94808e-21)
(0.925548 0.275498 0)
(0.884154 0.255012 -1.18993e-20)
(0.852414 0.237311 -7.66784e-21)
(0.827459 0.222473 -4.63468e-21)
(0.807451 0.210337 3.05905e-20)
(0.791058 0.200771 3.76601e-21)
(0.77561 0.193336 1.80722e-20)
(0.732797 0.18016 -8.81645e-20)
(0.531172 0.130917 5.31068e-20)
(0.11466 0.0291495 -6.49443e-20)
(0.282064 0.0890761 3.04052e-20)
(1.24265 0.360933 -5.5117e-21)
(1.31969 0.394305 4.05116e-21)
(1.28757 0.395732 1.10287e-20)
(1.24266 0.393248 6.84297e-21)
(1.1937 0.389105 3.13528e-22)
(1.14111 0.382502 7.54563e-22)
(1.08513 0.372458 6.44061e-22)
(1.02605 0.357783 -4.70705e-21)
(0.964321 0.337201 0)
(0.908449 0.313124 -5.06987e-21)
(0.865255 0.29079 -3.03071e-22)
(0.832493 0.271905 -8.59426e-21)
(0.80709 0.256315 0)
(0.787037 0.243663 -6.67657e-21)
(0.770873 0.23367 -1.62882e-20)
(0.755929 0.225737 4.53001e-20)
(0.714856 0.211143 -4.55936e-20)
(0.519742 0.153618 6.54973e-20)
(0.112412 0.0341077 -6.91012e-20)
(0.275156 0.100535 -1.3483e-22)
(1.23301 0.419118 6.67722e-21)
(1.31537 0.457122 1.92957e-20)
(1.28288 0.455995 -6.71525e-21)
(1.237 0.449937 3.90652e-21)
(1.18677 0.442154 0)
(1.13258 0.432007 1.9928e-21)
(1.07467 0.418519 -2.59179e-22)
(1.01336 0.400529 -2.03389e-21)
(0.9491 0.37672 0)
(0.890924 0.349853 -4.86835e-21)
(0.846206 0.32542 -6.98567e-21)
(0.812657 0.30497 9.41009e-21)
(0.786981 0.288212 -6.06086e-21)
(0.766986 0.274677 -2.95041e-20)
(0.751076 0.263933 1.82091e-20)
(0.736579 0.255272 5.8175e-21)
(0.696895 0.239172 0)
(0.507546 0.173949 -6.37769e-20)
(0.109551 0.0384264 -2.37541e-21)
(0.269929 0.11146 4.92131e-21)
(1.22106 0.473656 -7.63336e-21)
(1.307 0.516341 -1.05046e-20)
(1.2745 0.513021 -2.07001e-20)
(1.22818 0.503932 1.8852e-20)
(1.17723 0.493004 -1.03749e-20)
(1.12199 0.479634 -4.31473e-21)
(1.06263 0.462989 -1.54168e-22)
(0.999528 0.441954 2.24115e-21)
(0.933113 0.415122 -1.66009e-20)
(0.872911 0.38546 -6.0682e-21)
(0.826798 0.358704 0)
(0.792553 0.336395 1.03307e-20)
(0.766675 0.318153 1.28571e-20)
(0.746791 0.303401 1.58875e-20)
(0.731189 0.291668 -1.9976e-20)
(0.717142 0.282058 -6.04739e-21)
(0.678718 0.264306 7.21632e-21)
(0.494577 0.191993 0)
(0.106215 0.0421072 -5.2273e-21)
(0.265855 0.121917 -5.66428e-20)
(1.20806 0.524593 3.49239e-20)
(1.2958 0.571759 1.14922e-20)
(1.26343 0.566601 -1.57479e-20)
(1.21696 0.554903 1.12109e-20)
(1.16564 0.54121 -7.44004e-22)
(1.10975 0.525036 4.39803e-21)
(1.04939 0.505556 -1.31733e-22)
(0.984878 0.481781 -3.53826e-21)
(0.916626 0.452217 9.13138e-24)
(0.854494 0.419838 -1.79006e-20)
(0.806982 0.39064 1.80168e-20)
(0.771997 0.366218 -1.16788e-20)
(0.745897 0.34617 1.46277e-20)
(0.726142 0.329938 0)
(0.710885 0.316981 -1.09447e-20)
(0.697322 0.306268 -2.65195e-22)
(0.660062 0.286714 -3.18161e-20)
(0.480821 0.207889 -4.74505e-21)
(0.102393 0.0451295 0)
(0.262586 0.13193 0)
(1.1946 0.572108 3.75276e-20)
(1.28278 0.623418 2.66882e-20)
(1.25057 0.616711 1.77266e-20)
(1.20416 0.602784 1.09155e-20)
(1.15266 0.586663 0)
(1.09642 0.567978 3.83515e-21)
(1.03543 0.546063 -2.83453e-22)
(0.969816 0.519871 7.25129e-21)
(0.899913 0.487916 -1.94512e-21)
(0.835817 0.453047 -1.31684e-20)
(0.786745 0.421365 8.96332e-21)
(0.750858 0.39459 -4.41091e-22)
(0.724435 0.372434 1.54912e-20)
(0.70479 0.354426 1.02096e-20)
(0.689889 0.33998 -2.39582e-20)
(0.676868 0.327976 2.91976e-20)
(0.640751 0.306405 8.81418e-21)
(0.466132 0.221533 3.68272e-20)
(0.0980281 0.0473131 -9.9655e-20)
(0.259872 0.141643 -1.43504e-20)
(1.18103 0.616273 2.15832e-20)
(1.26859 0.671524 -1.64966e-20)
(1.23651 0.663446 -2.04742e-20)
(1.19028 0.647544 0)
(1.13883 0.629306 8.91271e-21)
(1.08241 0.608428 -1.14717e-20)
(1.02106 0.584374 -9.88674e-22)
(0.954689 0.556189 0)
(0.883244 0.522223 -3.04913e-20)
(0.817067 0.485181 3.60153e-20)
(0.766145 0.451035 0)
(0.729043 0.421704 1.40572e-20)
(0.70212 0.397121 -4.6887e-22)
(0.682496 0.377028 -3.26675e-20)
(0.667942 0.360797 1.28255e-20)
(0.655483 0.347272 0)
(0.620505 0.323594 4.81084e-20)
(0.450352 0.232982 0)
(0.0931252 0.0487693 -4.79875e-20)
(0.257596 0.150958 1.58872e-20)
(1.16769 0.657738 2.46051e-20)
(1.25365 0.716289 -1.72843e-20)
(1.22168 0.706925 0)
(1.17572 0.689276 1.49003e-20)
(1.12447 0.669134 0)
(1.06811 0.646353 1.46941e-20)
(1.00657 0.620455 1.98183e-21)
(0.939704 0.59069 4.33836e-22)
(0.866944 0.555182 -1.49681e-20)
(0.798488 0.516359 3.43453e-21)
(0.74527 0.479909 0)
(0.706536 0.44784 -3.01886e-20)
(0.678802 0.420503 4.94137e-22)
(0.659012 0.397948 0)
(0.644769 0.379642 5.27111e-22)
(0.632898 0.364283 4.39431e-20)
(0.599005 0.338235 -4.27226e-20)
(0.433214 0.242094 1.27345e-20)
(0.0874974 0.0493915 0)
(0.255404 0.159793 0)
(1.15455 0.696453 2.73783e-20)
(1.23836 0.75788 2.01542e-20)
(1.20646 0.747325 -3.95866e-22)
(1.1608 0.728092 9.19805e-21)
(1.10984 0.706259 2.12509e-20)
(1.05377 0.681771 -4.91305e-21)
(0.992294 0.654336 1.2394e-21)
(0.9251 0.62329 3.3132e-21)
(0.851249 0.586854 -2.28139e-20)
(0.780326 0.546771 -7.20042e-22)
(0.724312 0.508253 -1.2151e-20)
(0.683361 0.473365 5.00615e-20)
(0.654328 0.442956 -6.15896e-22)
(0.634159 0.417451 -2.64846e-20)
(0.62015 0.396625 -4.84206e-20)
(0.608765 0.379155 0)
(0.575903 0.350368 0)
(0.414468 0.248793 1.42709e-20)
(0.0810859 0.0490388 -8.42941e-21)
(0.253545 0.168338 1.95616e-20)
(1.14159 0.732649 -5.95163e-20)
(1.2229 0.796546 -2.15309e-20)
(1.19106 0.784818 0)
(1.14575 0.764143 -2.7879e-22)
(1.09518 0.740766 2.52781e-20)
(1.03951 0.714763 -1.59445e-20)
(0.978378 0.685987 -9.36493e-21)
(0.911097 0.654046 2.26683e-21)
(0.836314 0.617223 -1.69104e-20)
(0.76288 0.576559 -3.04977e-20)
(0.70345 0.5364 3.25515e-20)
(0.659583 0.498737 0)
(0.628642 0.464945 -1.20691e-20)
(0.607767 0.436117 -2.94459e-20)
(0.593684 0.411944 -3.56637e-20)
(0.582635 0.391968 -4.35395e-20)
(0.550874 0.359997 1.31652e-20)
(0.393687 0.252744 -7.73725e-21)
(0.0737178 0.0475672 1.63645e-22)
(0.251647 0.176444 0)
(1.12895 0.767128 0)
(1.20741 0.832472 4.1883e-22)
(1.17565 0.819597 0)
(1.13073 0.797582 -3.43817e-20)
(1.08063 0.77278 -2.21566e-20)
(1.02549 0.745394 0)
(0.964884 0.715469 -1.95192e-21)
(0.897905 0.682931 2.81839e-22)
(0.822315 0.646274 -3.84631e-20)
(0.746308 0.605902 0)
(0.682942 0.564683 -2.10811e-20)
(0.635353 0.524466 -7.26708e-22)
(0.601697 0.486968 -5.93775e-22)
(0.579223 0.454213 3.19765e-20)
(0.564988 0.425955 -2.97402e-23)
(0.554745 0.402627 -9.60515e-20)
(0.524225 0.366936 2.91779e-20)
(0.370646 0.25348 8.75272e-21)
(0.0652806 0.044823 0)
(0.249811 0.184093 -7.14535e-20)
(1.11641 0.79942 -3.61588e-20)
(1.19204 0.865812 -5.34061e-20)
(1.16035 0.85184 7.50184e-20)
(1.11587 0.828568 -6.41895e-20)
(1.06629 0.802432 0)
(1.01181 0.773761 -1.34409e-20)
(0.951903 0.742799 3.91638e-21)
(0.885544 0.709903 7.37284e-22)
(0.809495 0.674051 3.12684e-21)
(0.730742 0.634847 3.79912e-20)
(0.663177 0.593395 -7.17844e-21)
(0.61095 0.550969 -3.17602e-20)
(0.573155 0.509796 -1.48613e-20)
(0.548203 0.471667 1.80846e-20)
(0.533856 0.439515 -4.3576e-24)
(0.524506 0.411736 2.68934e-20)
(0.494274 0.371377 -6.41325e-20)
(0.343871 0.250679 7.74927e-20)
(0.0556184 0.0407133 1.13181e-20)
(0.247908 0.19134 2.61267e-20)
(1.1041 0.829642 -1.96305e-20)
(1.17689 0.896754 1.04141e-21)
(1.1453 0.88173 4.20877e-20)
(1.10123 0.857272 1.48512e-20)
(1.05223 0.829852 4.42646e-20)
(0.998488 0.799968 -5.72849e-21)
(0.939512 0.768006 1.8542e-20)
(0.874043 0.734912 6.08041e-21)
(0.798009 0.700439 -1.93839e-20)
(0.716716 0.663231 0)
(0.644577 0.622794 -3.31163e-20)
(0.586633 0.578743 4.68445e-20)
(0.543057 0.533463 0)
(0.51479 0.489762 -3.91112e-20)
(0.498933 0.452041 2.46299e-20)
(0.489849 0.419501 -2.95297e-20)
(0.459871 0.372982 -3.60199e-20)
(0.312929 0.243907 -6.41323e-20)
(0.0446177 0.0349936 -5.08459e-20)
(0.246266 0.198302 -2.85768e-20)
(1.092 0.857919 2.10177e-20)
(1.16203 0.925476 4.92956e-20)
(1.13054 0.909431 5.76883e-20)
(1.0869 0.883843 -3.11996e-20)
(1.03848 0.855197 3.03574e-20)
(0.985579 0.824114 -1.808e-20)
(0.927671 0.791148 2.24923e-20)
(0.863483 0.757985 5.63051e-21)
(0.787922 0.725328 1.66258e-20)
(0.704577 0.691244 8.02863e-20)
(0.627333 0.652815 0)
(0.562504 0.607714 0)
(0.51202 0.558961 -1.73555e-20)
(0.479217 0.512024 0)
(0.461206 0.465098 5.42649e-20)
(0.451449 0.42417 6.56702e-20)
(0.421383 0.369528 0)
(0.276797 0.231336 0)
(0.0323106 0.0274241 5.65712e-20)
(0.244509 0.204737 3.13804e-20)
(1.08015 0.884443 2.4865e-20)
(1.14751 0.952151 3.53604e-20)
(1.11613 0.935123 -5.11292e-20)
(1.07292 0.908444 -3.46081e-20)
(1.02508 0.878596 -3.99669e-20)
(0.973074 0.84631 2.68917e-20)
(0.916408 0.812327 4.31293e-22)
(0.853822 0.779097 -9.26077e-22)
(0.779438 0.748551 -1.67129e-21)
(0.694459 0.71869 4.05893e-20)
(0.611425 0.683317 0)
(0.539071 0.638069 4.85734e-20)
(0.482592 0.588794 3.70189e-20)
(0.442689 0.533959 9.6035e-20)
(0.419508 0.481364 2.95928e-20)
(0.405401 0.429883 -3.72032e-20)
(0.376339 0.36079 -2.21609e-20)
(0.236509 0.211744 0)
(0.0206271 0.0185474 6.28432e-20)
(0.243154 0.211148 -6.86877e-20)
(1.06857 0.909297 0)
(1.13335 0.976934 3.91862e-20)
(1.10211 0.958949 -4.17009e-20)
(1.05931 0.931221 3.88346e-20)
(1.01205 0.900188 5.79003e-20)
(0.960969 0.8667 -6.19311e-20)
(0.905674 0.831628 7.87277e-22)
(0.845046 0.79824 0)
(0.772657 0.770043 -1.16059e-20)
(0.686312 0.745714 -8.28618e-20)
(0.597198 0.714569 4.54315e-21)
(0.518399 0.670726 6.73699e-20)
(0.455791 0.618898 0)
(0.40501 0.56342 6.53968e-20)
(0.370886 0.499085 0)
(0.349903 0.432497 0)
(0.320692 0.338736 -2.53277e-20)
(0.1991 0.17542 0)
(0.0267375 0.0120185 1.72231e-20)
(0.241649 0.217066 -7.46722e-20)
(1.05728 0.932682 0)
(1.11954 0.999996 6.33416e-20)
(1.08845 0.981146 0)
(1.04603 0.952445 -2.09338e-20)
(0.999305 0.92028 0)
(0.949169 0.885632 -4.49502e-21)
(0.895336 0.849389 -4.03536e-21)
(0.83702 0.815754 -1.1976e-21)
(0.767316 0.790051 -8.36726e-21)
(0.680279 0.772458 1.97813e-21)
(0.584961 0.746961 3.88522e-20)
(0.499035 0.705106 6.58444e-20)
(0.425156 0.657103 9.54621e-21)
(0.363268 0.594267 5.15886e-20)
(0.312779 0.529395 0)
(0.273537 0.445083 8.25559e-20)
(0.236114 0.300258 -5.02416e-20)
(0.104461 0.145222 5.94246e-20)
(-0.0171371 0.395004 -7.12418e-20)
(0.240348 0.222872 6.07092e-20)
(1.0462 0.954753 9.33012e-20)
(1.10599 1.02163 0)
(1.07502 1.0021 6.81925e-22)
(1.03287 0.972602 5.65381e-20)
(0.986527 0.93942 -1.11021e-19)
(0.937331 0.903625 -2.70893e-20)
(0.885003 0.86618 0)
(0.829411 0.832172 -1.36327e-20)
(0.763322 0.809402 2.73736e-22)
(0.676968 0.800144 0)
(0.575941 0.780857 0)
(0.478476 0.746692 5.86773e-20)
(0.393614 0.69555 -3.02301e-20)
(0.315116 0.641507 -5.16213e-20)
(0.251005 0.570509 0)
(0.168219 0.469617 4.23376e-20)
(0.0685943 0.543304 -5.1703e-20)
(0.0589889 1.72384 -2.9136e-20)
(0.0914927 2.72344 -3.49106e-20)
(0.23895 0.228167 -4.41952e-20)
(1.03526 0.975683 -1.17157e-19)
(1.09269 1.04183 3.6187e-20)
(1.06193 1.02178 3.48813e-20)
(1.01991 0.991605 0)
(0.973801 0.957481 -7.91873e-20)
(0.925542 0.920478 -4.4926e-20)
(0.874719 0.881795 2.61977e-21)
(0.822234 0.847098 -2.09922e-21)
(0.760803 0.827203 2.21871e-22)
(0.677152 0.828157 3.49765e-20)
(0.569767 0.82013 4.17574e-20)
(0.460038 0.789926 5.88924e-20)
(0.359662 0.745577 -6.99584e-20)
(0.271104 0.690438 -7.63636e-20)
(0.192054 0.638553 0)
(0.102481 0.895961 0)
(0.149104 2.42809 2.21348e-20)
(0.158048 3.14259 0)
(0.155013 3.35246 5.62553e-20)
(0.240919 0.232762 0)
(1.02405 0.995503 0)
(1.0796 1.0604 0)
(1.04897 1.0401 9.63066e-21)
(1.00697 1.00936 5.03278e-20)
(0.960971 0.974439 -5.99856e-20)
(0.913471 0.936257 -3.21098e-20)
(0.864181 0.896272 2.95107e-21)
(0.814828 0.860506 -2.67182e-20)
(0.759608 0.843073 -3.3262e-21)
(0.681481 0.856003 5.94602e-20)
(0.566114 0.862611 -5.17227e-21)
(0.441956 0.841832 6.85797e-21)
(0.334089 0.789304 1.0064e-20)
(0.241264 0.754826 3.84264e-22)
(0.163305 0.997192 4.06633e-22)
(0.200172 2.54489 -1.05188e-19)
(0.225912 3.25186 -4.01903e-20)
(0.206281 3.40911 1.97271e-20)
(0.186308 3.43661 -2.06431e-20)
(0.153758 0.17148 2.58221e-20)
(1.00695 1.01642 0)
(1.06725 1.07768 -7.00784e-20)
(1.03635 1.05742 -8.9503e-20)
(0.994419 1.02634 1.03257e-19)
(0.948484 0.990665 6.339e-20)
(0.901036 0.950893 3.77367e-20)
(0.853043 0.908923 -4.76981e-20)
(0.807083 0.870907 2.71541e-20)
(0.760441 0.85631 0)
(0.687931 0.882491 2.27573e-20)
(0.56513 0.907214 -3.2493e-20)
(0.427283 0.89263 0)
(0.310339 0.844429 9.37926e-21)
(0.230316 0.94365 2.20566e-20)
(0.205634 2.17953 -2.55697e-20)
(0.29626 3.2804 2.89492e-20)
(0.27536 3.42861 1.39746e-20)
(0.232934 3.45835 1.62831e-20)
(0.204466 3.472 2.05875e-20)
(0.279141 0.272806 -4.94641e-20)
(0.982953 1.02066 0)
(1.04887 1.10044 7.15147e-20)
(1.01724 1.08233 9.19256e-20)
(0.974564 1.05051 -1.0591e-19)
(0.927977 1.01327 -6.66551e-20)
(0.880516 0.971146 -5.66149e-20)
(0.834279 0.924988 -3.69188e-21)
(0.795083 0.883835 -3.67894e-20)
(0.765185 0.870978 -2.4915e-20)
(0.706729 0.919319 2.27012e-22)
(0.572346 0.991989 2.80884e-20)
(0.403823 0.996273 6.56503e-21)
(0.293456 1.08752 -8.76913e-21)
(0.309532 2.1033 -1.83799e-20)
(0.381819 3.26551 1.33334e-20)
(0.375495 3.46424 -1.15127e-20)
(0.330275 3.49827 -6.5216e-21)
(0.284515 3.53301 1.4441e-21)
(0.218462 3.52511 -1.75683e-22)
(0.268965 0.27133 0)
(0.977988 1.04012 1.88428e-20)
(1.0372 1.11881 -1.40457e-20)
(1.00447 1.10011 -1.01238e-20)
(0.961258 1.06782 -6.8659e-20)
(0.914414 1.02964 6.46717e-20)
(0.866798 0.985574 3.7738e-20)
(0.822199 0.936893 -3.84966e-21)
(0.788708 0.891968 4.53216e-20)
(0.77299 0.880771 -5.5393e-21)
(0.734171 0.951285 -1.21881e-20)
(0.587432 1.05434 4.52445e-21)
(0.404471 1.08534 -6.27351e-21)
(0.337864 1.41939 -7.38784e-21)
(0.426675 2.90151 3.81754e-21)
(0.479558 3.44128 1.46165e-22)
(0.420809 3.53645 -7.84895e-21)
(0.380703 3.5712 -1.22166e-20)
(0.306994 3.60548 1.8775e-20)
(0.237173 3.59431 8.70642e-21)
(0.253204 0.267489 4.66983e-20)
(0.971843 1.06265 1.25021e-19)
(1.02491 1.13899 -3.94802e-20)
(0.99089 1.11929 -3.80942e-20)
(0.947 1.08632 0)
(0.899604 1.04679 9.25901e-20)
(0.85178 1.00049 5.66832e-20)
(0.808309 0.948127 -4.01184e-21)
(0.780445 0.897732 5.14234e-21)
(0.782479 0.885426 5.32199e-20)
(0.772145 0.975657 7.23272e-21)
(0.624091 1.12868 -3.04845e-20)
(0.429467 1.21044 -4.93831e-20)
(0.417193 1.893 4.47294e-20)
(0.547459 3.2753 2.05082e-20)
(0.559165 3.52495 0)
(0.487003 3.59177 0)
(0.428164 3.66044 1.83946e-20)
(0.343812 3.72461 0)
(0.252542 3.69168 3.86302e-20)
(0.241454 0.267715 -6.72866e-20)
(0.96338 1.0864 -1.02869e-19)
(1.01101 1.1604 0)
(0.975729 1.13938 5.63295e-22)
(0.931125 1.10551 -6.51354e-20)
(0.882959 1.06444 1.35678e-19)
(0.834689 1.01545 3.75827e-20)
(0.791905 0.958284 -4.3998e-21)
(0.769296 0.899883 4.86668e-20)
(0.789405 0.88017 -3.96197e-21)
(0.804401 0.98487 0)
(0.67507 1.19445 0)
(0.495129 1.36437 -4.47257e-20)
(0.52116 2.39688 1.30737e-20)
(0.671565 3.42711 1.38065e-21)
(0.63219 3.57754 0)
(0.578623 3.66543 4.52308e-20)