/*--------------------------------*- C++ -*----------------------------------*\
  =========                 |
  \\      /  F ield         | OpenFOAM: The Open Source CFD Toolbox
   \\    /   O peration     | Website:  https://openfoam.org
    \\  /    A nd           | Version:  6
     \\/     M anipulation  |
\*---------------------------------------------------------------------------*/
FoamFile
{
    version     2.0;
    format      ascii;
    class       volVectorField;
    location    "8";
    object      U;
}
// * * * * * * * * * * * * * * * * * * * * * * * * * * * * * * * * * * * * * //

dimensions      [0 1 -1 0 0 0 0];

internalField   nonuniform List<vector> 
8800
(
(0.987141 -0.0765852 0)
(1.0015 -0.055036 0)
(0.999282 -0.0283001 0)
(1.00021 -0.0150133 0)
(1.00062 -0.0084486 0)
(1.00017 -0.00474746 0)
(0.999895 -0.00256468 0)
(0.999904 -0.00136163 0)
(0.999935 -0.000653521 0)
(1.00003 -0.000130156 0)
(0.999951 0.000435823 0)
(0.999915 0.00102769 0)
(0.999871 0.00189112 0)
(0.999965 0.00352721 0)
(1.00047 0.0064113 0)
(1.00051 0.0112156 0)
(0.999784 0.020572 0)
(0.998711 0.0384491 0)
(1.00687 0.0723806 0)
(0.77122 0.036626 0)
(0.36411 -0.0159072 0)
(1.04415 -0.076242 0)
(1.08525 -0.0699628 0)
(1.04634 -0.0535458 0)
(1.02366 -0.0388217 0)
(1.01129 -0.0255573 0)
(1.00549 -0.0162865 0)
(1.00272 -0.010067 0)
(1.00141 -0.00555933 0)
(1.00106 -0.00201184 0)
(1.00102 0.000868602 0)
(1.00112 0.00410965 0)
(1.00191 0.00799883 0)
(1.00384 0.0131518 0)
(1.0078 0.0206063 0)
(1.01657 0.0320076 0)
(1.03336 0.0463585 0)
(1.06398 0.0613231 0)
(1.09209 0.0752568 0)
(0.840059 0.0562504 0)
(0.220328 -0.0019922 0)
(1.07768 -0.047347 0)
(1.09884 -0.0440285 0)
(1.0629 -0.0363461 0)
(1.03768 -0.0302913 0)
(1.02126 -0.0240166 0)
(1.01157 -0.017082 0)
(1.00677 -0.0109219 0)
(1.00454 -0.00574553 0)
(1.0039 -0.00087367 0)
(1.004 0.00402023 0)
(1.00525 0.00883368 0)
(1.00855 0.0143979 0)
(1.0155 0.0209301 0)
(1.02827 0.0276874 0)
(1.04891 0.0335297 0)
(1.07884 0.0396311 0)
(1.10668 0.0474252 0)
(0.947171 0.0396256 0)
(0.220086 0.00200188 0)
(0.182898 -0.000389576 0)
(1.02612 -0.0305639 0)
(1.10771 -0.0353845 0)
(1.07838 -0.0300954 0)
(1.05304 -0.0243773 0)
(1.0361 -0.0196904 0)
(1.02469 -0.0156181 0)
(1.01685 -0.0112363 0)
(1.01207 -0.00634015 0)
(1.01003 -0.000866092 0)
(1.01061 0.00475736 0)
(1.01395 0.0097951 0)
(1.0201 0.0142814 0)
(1.02946 0.0182225 0)
(1.04334 0.0224275 0)
(1.06383 0.0276487 0)
(1.09503 0.0334834 0)
(1.09873 0.0356476 0)
(0.842674 0.0192049 0)
(0.182497 0.000400453 0)
(0.169698 2.23702e-05 0)
(0.97769 -0.0134748 0)
(1.10245 -0.0212474 0)
(1.08238 -0.0221354 0)
(1.05553 -0.0209879 0)
(1.03813 -0.018808 0)
(1.02661 -0.015168 0)
(1.01924 -0.0108331 0)
(1.01476 -0.00594843 0)
(1.0128 -0.000650466 0)
(1.01326 0.0045743 0)
(1.01629 0.0095917 0)
(1.02203 0.0140737 0)
(1.03116 0.0179166 0)
(1.04538 0.0206241 0)
(1.06706 0.0222269 0)
(1.09712 0.0224418 0)
(1.07621 0.0191623 0)
(0.780144 0.00629781 0)
(0.169129 -9.65364e-06 0)
(0.167719 4.46248e-05 0)
(0.9472 -0.00544732 0)
(1.08927 -0.0133029 0)
(1.0806 -0.0173727 0)
(1.05758 -0.0185405 0)
(1.04201 -0.0178059 0)
(1.03108 -0.015318 0)
(1.02369 -0.0114824 0)
(1.01896 -0.00646172 0)
(1.01665 -0.00053144 0)
(1.01723 0.00551618 0)
(1.02052 0.0108299 0)
(1.02632 0.0150683 0)
(1.0352 0.0179995 0)
(1.04836 0.0195369 0)
(1.06683 0.0190355 0)
(1.0902 0.0163512 0)
(1.05262 0.0101401 0)
(0.753589 0.0019153 0)
(0.166891 -2.80738e-05 0)
(0.166957 2.18078e-05 0)
(0.926344 -0.00306467 0)
(1.0703 -0.010268 0)
(1.0726 -0.016291 0)
(1.05658 -0.0185563 0)
(1.04435 -0.0180102 0)
(1.03575 -0.0157573 0)
(1.02952 -0.0117677 0)
(1.02517 -0.00656646 0)
(1.02287 -0.000233684 0)
(1.02333 0.00626862 0)
(1.0263 0.01179 0)
(1.03129 0.0160232 0)
(1.03844 0.0188014 0)
(1.04836 0.0198055 0)
(1.06297 0.0190644 0)
(1.076 0.0145203 0)
(1.02922 0.00691439 0)
(0.739543 0.0010562 0)
(0.165839 -3.32582e-06 0)
(0.16691 2.55734e-05 0)
(0.913471 -0.00124687 0)
(1.05256 -0.00590364 0)
(1.06206 -0.0111422 0)
(1.05394 -0.014386 0)
(1.04566 -0.015055 0)
(1.03882 -0.0134583 0)
(1.03327 -0.0102616 0)
(1.02913 -0.00563348 0)
(1.02686 0.000266687 0)
(1.02716 0.00642584 0)
(1.02984 0.0113485 0)
(1.03425 0.0148321 0)
(1.04011 0.0167755 0)
(1.04766 0.0168624 0)
(1.05598 0.0144132 0)
(1.06054 0.00966718 0)
(1.01082 0.00378325 0)
(0.732108 0.000455875 0)
(0.165442 -1.26966e-06 0)
(0.167045 1.96923e-05 0)
(0.907223 -0.000475844 0)
(1.04151 -0.00283011 0)
(1.05386 -0.00602043 0)
(1.05043 -0.00842286 0)
(1.04597 -0.00943064 0)
(1.04149 -0.00891678 0)
(1.03732 -0.00691916 0)
(1.0339 -0.00351597 0)
(1.03186 0.00110201 0)
(1.03189 0.00580919 0)
(1.03384 0.00941239 0)
(1.03707 0.0115255 0)
(1.04101 0.0121446 0)
(1.04524 0.0112809 0)
(1.04927 0.00897509 0)
(1.04932 0.00556334 0)
(1.00004 0.00209483 0)
(0.728266 0.000326854 0)
(0.165124 1.0018e-05 0)
(0.167303 2.32826e-05 0)
(0.904614 -3.01445e-05 0)
(1.03596 -0.00102912 0)
(1.04897 -0.00260582 0)
(1.04767 -0.0039878 0)
(1.04526 -0.00475938 0)
(1.04241 -0.00465723 0)
(1.0394 -0.00349612 0)
(1.03666 -0.00122741 0)
(1.03475 0.0019924 0)
(1.03447 0.00521533 0)
(1.03572 0.00745395 0)
(1.0378 0.00842052 0)
(1.04018 0.00824733 0)
(1.04245 0.00712843 0)
(1.04426 0.00532612 0)
(1.04251 0.00317247 0)
(0.994211 0.0012415 0)
(0.725994 0.00024739 0)
(0.164824 1.2695e-05 0)
(0.16768 2.99237e-05 0)
(0.90389 0.000228374 0)
(1.03362 -0.000103261 0)
(1.04668 -0.000734679 0)
(1.04625 -0.00133158 0)
(1.04489 -0.00166539 0)
(1.04307 -0.00153475 0)
(1.04093 -0.000755188 0)
(1.03874 0.000763012 0)
(1.03696 0.00292394 0)
(1.03633 0.00499523 0)
(1.03684 0.00617619 0)
(1.0379 0.00641862 0)
(1.03911 0.00589215 0)
(1.04019 0.00483387 0)
(1.04092 0.00350187 0)
(1.03851 0.00211565 0)
(0.990856 0.000937685 0)
(0.724367 0.000254343 0)
(0.164493 1.98044e-05 0)
(0.168155 3.30084e-05 0)
(0.904122 0.000376242 0)
(1.03296 0.000440932 0)
(1.04592 0.000346981 0)
(1.04581 0.000272943 0)
(1.04492 0.000336462 0)
(1.04363 0.000656484 0)
(1.04198 0.00135454 0)
(1.04011 0.00249075 0)
(1.03835 0.0039703 0)
(1.03732 0.00523422 0)
(1.03713 0.00578935 0)
(1.03746 0.00550867 0)
(1.0379 0.00479871 0)
(1.0383 0.00382135 0)
(1.03852 0.00275622 0)
(1.03586 0.00173684 0)
(0.98852 0.00087551 0)
(0.722881 0.000291599 0)
(0.16407 2.70481e-05 0)
(0.16874 4.08662e-05 0)
(0.90507 0.000550757 0)
(1.03328 0.000864743 0)
(1.04613 0.00111034 0)
(1.04613 0.00140264 0)
(1.04542 0.00180013 0)
(1.04437 0.00235991 0)
(1.04293 0.00313457 0)
(1.04117 0.00412543 0)
(1.03927 0.00520149 0)
(1.03781 0.0059096 0)
(1.03703 0.00594028 0)
(1.03672 0.00541218 0)
(1.03663 0.00454959 0)
(1.03661 0.00357091 0)
(1.03655 0.00259882 0)
(1.03376 0.00170909 0)
(0.986523 0.000945048 0)
(0.721301 0.000353356 0)
(0.163532 3.55497e-05 0)
(0.169489 5.16658e-05 0)
(0.906583 0.000740738 0)
(1.0343 0.0012714 0)
(1.04703 0.00178585 0)
(1.04704 0.00237752 0)
(1.04637 0.00307676 0)
(1.04536 0.00389956 0)
(1.04393 0.00484131 0)
(1.04207 0.00583842 0)
(1.03988 0.00670256 0)
(1.0379 0.00702778 0)
(1.03657 0.00666205 0)
(1.03574 0.00587586 0)
(1.03524 0.00486182 0)
(1.03492 0.00379833 0)
(1.03467 0.00279204 0)
(1.03177 0.00189138 0)
(0.984509 0.00110382 0)
(0.719467 0.000437665 0)
(0.162848 4.56701e-05 0)
(0.170442 6.55591e-05 0)
(0.908698 0.000965559 0)
(1.03595 0.00171809 0)
(1.04854 0.00249081 0)
(1.0485 0.00337331 0)
(1.04778 0.00438047 0)
(1.04668 0.00549973 0)
(1.04509 0.00667895 0)
(1.04295 0.00778974 0)
(1.0403 0.00857244 0)
(1.03772 0.00862829 0)
(1.0358 0.00795005 0)
(1.03448 0.00686736 0)
(1.03362 0.00562448 0)
(1.03305 0.0043872 0)
(1.03264 0.00324617 0)
(1.02964 0.00223656 0)
(0.98225 0.00134275 0)
(0.717244 0.000547728 0)
(0.161983 5.8057e-05 0)
(0.171662 8.39805e-05 0)
(0.911504 0.00124909 0)
(1.03825 0.00225541 0)
(1.05068 0.00331048 0)
(1.05055 0.00451231 0)
(1.04969 0.00586566 0)
(1.04838 0.0073347 0)
(1.04649 0.00882359 0)
(1.04391 0.0101364 0)
(1.04062 0.0109286 0)
(1.03729 0.0107723 0)
(1.0347 0.00977774 0)
(1.03288 0.00835288 0)
(1.03166 0.00680327 0)
(1.03085 0.00530217 0)
(1.03028 0.00393683 0)
(1.02717 0.00273583 0)
(0.979563 0.00166529 0)
(0.71449 0.00068806 0)
(0.16089 7.33185e-05 0)
(0.17323 0.000108251 0)
(0.915156 0.00161355 0)
(1.0413 0.0029308 0)
(1.05352 0.00432229 0)
(1.05325 0.00590302 0)
(1.05219 0.00767046 0)
(1.05057 0.00956652 0)
(1.04823 0.0114494 0)
(1.04501 0.0130479 0)
(1.04086 0.0139137 0)
(1.0366 0.0135585 0)
(1.03324 0.0122005 0)
(1.03085 0.010364 0)
(1.02923 0.00841607 0)
(1.02816 0.00655522 0)
(1.02742 0.00487497 0)
(1.02417 0.00340131 0)
(0.976264 0.00208306 0)
(0.711045 0.00086495 0)
(0.159515 9.21981e-05 0)
(0.175259 0.000140449 0)
(0.919873 0.00208821 0)
(1.04526 0.00380205 0)
(1.05721 0.00561424 0)
(1.05675 0.00766257 0)
(1.0554 0.00994135 0)
(1.05334 0.0123688 0)
(1.05037 0.0147487 0)
(1.0463 0.0167188 0)
(1.04105 0.0177043 0)
(1.03564 0.0171297 0)
(1.03134 0.0153303 0)
(1.02827 0.0129792 0)
(1.02618 0.0105209 0)
(1.0248 0.00819118 0)
(1.02387 0.00609588 0)
(1.02046 0.00426027 0)
(0.972156 0.00261488 0)
(0.706719 0.00108691 0)
(0.157788 0.000115586 0)
(0.177901 0.000184153 0)
(0.925953 0.00271708 0)
(1.05034 0.00495131 0)
(1.06194 0.0072999 0)
(1.06122 0.00993039 0)
(1.05947 0.0128486 0)
(1.05682 0.0159445 0)
(1.05302 0.0189491 0)
(1.04782 0.0213841 0)
(1.04116 0.0225193 0)
(1.0343 0.0216709 0)
(1.02886 0.0193179 0)
(1.02499 0.0163168 0)
(1.02234 0.0132117 0)
(1.0206 0.0102851 0)
(1.01944 0.00765853 0)
(1.01583 0.00535567 0)
(0.967006 0.00328701 0)
(0.701279 0.00136492 0)
(0.155624 0.0001447 0)
(0.181382 0.000246054 0)
(0.933824 0.0035736 0)
(1.05685 0.0064996 0)
(1.06802 0.0095196 0)
(1.06694 0.0128637 0)
(1.06463 0.0165886 0)
(1.06116 0.0205379 0)
(1.05624 0.0243294 0)
(1.04959 0.0273316 0)
(1.04113 0.0286279 0)
(1.03249 0.0274135 0)
(1.02566 0.024355 0)
(1.0208 0.0205347 0)
(1.01748 0.0166181 0)
(1.01531 0.0129449 0)
(1.01388 0.0096522 0)
(1.01002 0.00675533 0)
(0.960528 0.0041408 0)
(0.694425 0.00171623 0)
(0.152914 0.00018167 0)
(0.186033 0.0003369 0)
(0.944123 0.00477454 0)
(1.06533 0.00859877 0)
(1.07598 0.0124106 0)
(1.07435 0.0166271 0)
(1.0712 0.0214033 0)
(1.06659 0.0264657 0)
(1.06016 0.0312469 0)
(1.05161 0.0349204 0)
(1.04088 0.0363585 0)
(1.03004 0.0346386 0)
(1.02153 0.0306788 0)
(1.01548 0.0258345 0)
(1.01135 0.0209122 0)
(1.00865 0.0163209 0)
(1.00689 0.0122108 0)
(1.00274 0.00857181 0)
(0.952352 0.00524953 0)
(0.685752 0.00217075 0)
(0.149517 0.000230485 0)
(0.192367 0.000470504 0)
(0.957804 0.00648062 0)
(1.07669 0.011428 0)
(1.08662 0.0161634 0)
(1.08411 0.0215286 0)
(1.07975 0.0277454 0)
(1.07352 0.0342473 0)
(1.06504 0.0402252 0)
(1.05397 0.0446308 0)
(1.04038 0.0461192 0)
(1.02685 0.0436872 0)
(1.01629 0.038583 0)
(1.00879 0.0324746 0)
(1.00365 0.0263202 0)
(1.00028 0.0206156 0)
(0.998101 0.0155267 0)
(0.993557 0.0109897 0)
(0.942014 0.0067517 0)
(0.674725 0.0027828 0)
(0.145243 0.000297404 0)
(0.201203 0.000671285 0)
(0.976146 0.00899577 0)
(1.0919 0.0153901 0)
(1.10081 0.0213564 0)
(1.097 0.0283837 0)
(1.09092 0.0365269 0)
(1.08245 0.0447691 0)
(1.07116 0.0520343 0)
(1.05681 0.0570903 0)
(1.03962 0.0583945 0)
(1.02282 0.054945 0)
(1.0098 0.0484057 0)
(1.00052 0.0407637 0)
(0.99411 0.0331178 0)
(0.989833 0.0260656 0)
(0.987042 0.0198129 0)
(0.981975 0.0142247 0)
(0.929011 0.00883878 0)
(0.660769 0.00362984 0)
(0.139869 0.000387692 0)
(0.213918 0.00101187 0)
(1.0007 0.0131057 0)
(1.11188 0.0213567 0)
(1.11938 0.029136 0)
(1.11371 0.0385128 0)
(1.10518 0.0490053 0)
(1.09354 0.0590889 0)
(1.07848 0.0675261 0)
(1.05997 0.0729376 0)
(1.03842 0.0736433 0)
(1.01777 0.0687576 0)
(1.00186 0.0604505 0)
(0.990438 0.0509981 0)
(0.982415 0.0415875 0)
(0.97692 0.0328998 0)
(0.973221 0.0252195 0)
(0.967417 0.0183699 0)
(0.912849 0.0116259 0)
(0.643449 0.00478178 0)
(0.133155 0.000503017 0)
(0.232793 0.00169216 0)
(1.03425 0.020254 0)
(1.13861 0.0307773 0)
(1.14358 0.0413661 0)
(1.1347 0.0537326 0)
(1.12221 0.0666854 0)
(1.10606 0.0783958 0)
(1.08615 0.0875783 0)
(1.06267 0.0927654 0)
(1.03616 0.0922452 0)
(1.01124 0.0854116 0)
(0.992088 0.0750007 0)
(0.978195 0.0635113 0)
(0.968217 0.0521278 0)
(0.961146 0.0415386 0)
(0.956183 0.0321149 0)
(0.949289 0.0236466 0)
(0.892697 0.0152714 0)
(0.622157 0.00633242 0)
(0.124804 0.000659643 0)
(0.26113 0.00327655 0)
(1.08273 0.033632 0)
(1.17478 0.0476136 0)
(1.17462 0.0621308 0)
(1.15995 0.0775766 0)
(1.14135 0.0922913 0)
(1.11904 0.104636 0)
(1.09314 0.113418 0)
(1.06397 0.11727 0)
(1.03212 0.114585 0)
(1.00271 0.105201 0)
(0.980148 0.092414 0)
(0.963546 0.0787993 0)
(0.951288 0.0654399 0)
(0.942234 0.0529448 0)
(0.93551 0.0416994 0)
(0.926871 0.0314939 0)
(0.866961 0.0209479 0)
(0.595298 0.00857761 0)
(0.114902 0.000868762 0)
(0.302284 0.0109405 -2.79475e-21)
(1.14651 0.0612561 -2.05421e-21)
(1.22002 0.0795185 5.5493e-22)
(1.2101 0.0971957 0)
(1.18733 0.113732 4.71868e-37)
(1.16112 0.128191 2.55077e-23)
(1.13158 0.139408 -2.40521e-22)
(1.09889 0.14633 0)
(1.06342 0.147753 9.32592e-36)
(1.02571 0.142193 -7.12011e-22)
(0.991365 0.129943 0)
(0.96489 0.114798 -1.0314e-21)
(0.944988 0.0992733 -3.16378e-21)
(0.929722 0.0842972 -1.53512e-21)
(0.917777 0.0704439 -4.85388e-22)
(0.908103 0.0580739 -2.95061e-22)
(0.896328 0.0470846 0)
(0.833226 0.0348601 2.15082e-22)
(0.560163 0.0187792 2.5701e-22)
(0.104865 0.00366866 4.61128e-21)
(0.324125 0.0291926 -5.15935e-21)
(1.19866 0.108539 1.05961e-22)
(1.26127 0.13033 -2.77612e-22)
(1.24224 0.14647 0)
(1.21179 0.160968 4.41356e-22)
(1.17822 0.173405 2.47856e-22)
(1.14172 0.182479 -1.43818e-22)
(1.10236 0.187217 -1.16329e-21)
(1.06037 0.186312 0)
(1.01611 0.178249 2.99329e-21)
(0.975721 0.163708 3.33256e-21)
(0.944078 0.146931 1.07506e-21)
(0.919586 0.13042 4.27771e-21)
(0.900021 0.114934 6.3438e-21)
(0.883921 0.100948 0)
(0.870084 0.0888059 9.52082e-21)
(0.853659 0.079015 1.40453e-20)
(0.790739 0.0652061 1.5846e-20)
(0.535957 0.0437954 -1.85769e-20)
(0.103631 0.00930788 -3.4092e-22)
(0.314223 0.047556 0)
(1.22921 0.169873 -1.53747e-21)
(1.29214 0.193474 0)
(1.2671 0.205626 2.39821e-21)
(1.23032 0.216189 0)
(1.19053 0.224829 1.24759e-21)
(1.14797 0.230489 1.22222e-22)
(1.10269 0.23194 -1.63743e-21)
(1.05486 0.227919 -3.08814e-22)
(1.00474 0.216974 1.43034e-21)
(0.958967 0.200246 7.75388e-21)
(0.922968 0.182307 -4.94969e-23)
(0.894907 0.165526 -3.21034e-21)
(0.872263 0.150515 -6.25676e-21)
(0.853476 0.137593 7.62745e-21)
(0.837378 0.126972 -1.3735e-20)
(0.820043 0.118528 -1.89327e-21)
(0.764 0.105695 0)
(0.532271 0.0748272 9.50093e-23)
(0.110074 0.0163017 0)
(0.300528 0.0626421 -3.92033e-20)
(1.24233 0.234479 1.58132e-20)
(1.31082 0.260861 8.25987e-21)
(1.2826 0.269274 -1.57435e-21)
(1.24175 0.275525 2.40759e-21)
(1.19765 0.279784 -3.06304e-21)
(1.15041 0.281375 4.10957e-23)
(1.10028 0.279024 0)
(1.04754 0.271504 -5.42242e-21)
(0.992522 0.257394 0)
(0.942528 0.238312 -3.91308e-21)
(0.903365 0.219101 -5.57682e-21)
(0.873003 0.201945 -3.5823e-21)
(0.848808 0.18717 -4.64293e-21)
(0.829096 0.174841 0)
(0.812584 0.164987 0)
(0.79586 0.157328 -1.26455e-20)
(0.74498 0.143984 2.54411e-21)
(0.526354 0.102845 -1.50345e-21)
(0.110932 0.022476 -1.77855e-21)
(0.288621 0.0760111 2.87725e-20)
(1.24382 0.298222 0)
(1.3197 0.328505 -2.30091e-20)
(1.28967 0.333647 -5.9137e-21)
(1.24628 0.335564 -4.54429e-21)
(1.19911 0.335708 0)
(1.1486 0.33318 -7.06118e-22)
(1.09492 0.326963 1.30551e-21)
(1.03839 0.315802 2.28688e-21)
(0.979366 0.298354 7.1306e-21)
(0.925826 0.276679 0)
(0.884195 0.255871 -1.20889e-20)
(0.852317 0.237879 -7.77518e-21)
(0.827275 0.222799 -4.6965e-21)
(0.807198 0.210464 3.0941e-20)
(0.79072 0.200751 3.80666e-21)
(0.774633 0.193077 1.82642e-20)
(0.726798 0.17854 -8.90534e-20)
(0.516684 0.127493 5.35975e-20)
(0.109737 0.0278883 -6.55381e-20)
(0.2792 0.0880512 3.0226e-20)
(1.23817 0.359386 -5.47967e-21)
(1.32133 0.394433 4.02974e-21)
(1.29043 0.396758 1.09429e-20)
(1.24538 0.394664 6.76022e-21)
(1.19611 0.390825 3.15625e-22)
(1.14314 0.384441 6.74285e-22)
(1.08668 0.374531 7.86554e-22)
(1.02708 0.359841 -4.95269e-21)
(0.96477 0.339022 0)
(0.908434 0.314559 -5.15982e-21)
(0.864963 0.291822 -3.02618e-22)
(0.832045 0.272596 -8.70947e-21)
(0.806556 0.256729 0)
(0.786452 0.243863 -6.75087e-21)
(0.770234 0.233707 -1.64597e-20)
(0.754736 0.225506 4.57464e-20)
(0.708904 0.209352 -4.60207e-20)
(0.505499 0.149578 6.60698e-20)
(0.107536 0.0326247 -6.96949e-20)
(0.272143 0.0993179 -1.31785e-22)
(1.22844 0.417212 6.66093e-21)
(1.31755 0.457485 1.92339e-20)
(1.28624 0.457395 -6.68121e-21)
(1.2401 0.451746 3.86846e-21)
(1.18947 0.444291 0)
(1.13475 0.434374 1.91451e-21)
(1.07624 0.421017 -4.16879e-22)
(1.01427 0.403005 -2.16968e-21)
(0.949317 0.378915 0)
(0.890589 0.351563 -4.97514e-21)
(0.845548 0.326644 -7.10118e-21)
(0.811839 0.305787 9.53367e-21)
(0.786083 0.288706 -6.12883e-21)
(0.766055 0.274919 -2.98096e-20)
(0.750118 0.263984 1.83827e-20)
(0.735116 0.25501 5.86519e-21)
(0.690861 0.237152 0)
(0.493378 0.169279 -6.42868e-20)
(0.10468 0.0367188 -2.3937e-21)
(0.266816 0.110061 4.91048e-21)
(1.21639 0.471494 -7.63031e-21)
(1.30974 0.517023 -1.04855e-20)
(1.27837 0.514901 -2.06122e-20)
(1.23166 0.506194 1.87249e-20)
(1.18019 0.495588 -1.02167e-20)
(1.12435 0.482493 -4.14144e-21)
(1.06427 0.46599 -4.18288e-22)
(1.00033 0.444914 2.3257e-21)
(0.933063 0.417738 -1.71251e-20)
(0.872198 0.387472 -6.18225e-21)
(0.825724 0.360123 0)
(0.79131 0.337325 1.04611e-20)
(0.76537 0.318699 1.29992e-20)
(0.745475 0.303655 1.60463e-20)
(0.72987 0.291692 -2.01478e-20)
(0.715362 0.281725 -6.09553e-21)
(0.672491 0.262026 7.27434e-21)
(0.480347 0.186685 0)
(0.10133 0.0401789 -5.26002e-21)
(0.262724 0.12036 -5.66541e-20)
(1.20326 0.522263 3.49521e-20)
(1.29906 0.572842 1.14978e-20)
(1.26783 0.568967 -1.57161e-20)
(1.22086 0.55767 1.11661e-20)
(1.1689 0.544314 -7.54961e-22)
(1.11229 0.52844 4.20201e-21)
(1.05109 0.509149 -2.32268e-22)
(0.985565 0.485288 -3.80102e-21)
(0.916258 0.455296 1.7271e-23)
(0.853337 0.422186 -1.83058e-20)
(0.805427 0.392258 1.82746e-20)
(0.770274 0.367245 -1.18097e-20)
(0.744135 0.346744 1.47642e-20)
(0.724397 0.330165 0)
(0.709163 0.316942 -1.1024e-20)
(0.695167 0.305821 -2.65083e-22)
(0.653557 0.284154 -3.2025e-20)
(0.466432 0.201917 -4.77507e-21)
(0.0974883 0.0429776 0)
(0.259526 0.13028 0)
(1.18969 0.569729 3.76355e-20)
(1.28643 0.624978 2.675e-20)
(1.25539 0.619611 1.77183e-20)
(1.20845 0.606068 1.08567e-20)
(1.15626 0.590349 0)
(1.09916 0.572009 3.74941e-21)
(1.03716 0.550305 -2.78977e-22)
(0.970378 0.524042 7.8653e-21)
(0.899186 0.491534 -2.03152e-21)
(0.83416 0.455752 -1.34647e-20)
(0.784635 0.423172 9.11421e-21)
(0.748597 0.395681 -4.32421e-22)
(0.722168 0.37299 1.56327e-20)
(0.702577 0.354585 1.02733e-20)
(0.68773 0.339837 -2.4111e-20)
(0.674307 0.327375 2.93575e-20)
(0.633878 0.303499 8.85566e-21)
(0.451473 0.214869 3.69874e-20)
(0.0930967 0.0448985 -1.00094e-19)
(0.256961 0.139913 -1.44058e-20)
(1.17613 0.613962 2.16796e-20)
(1.27258 0.673489 -1.65892e-20)
(1.24173 0.666874 -2.05194e-20)
(1.19496 0.651398 0)
(1.14277 0.63359 8.86588e-21)
(1.08542 0.613142 -1.11646e-20)
(1.02285 0.58934 -7.27974e-22)
(0.955091 0.561103 0)
(0.882141 0.526448 -3.18238e-20)
(0.81482 0.488267 3.68709e-20)
(0.763406 0.453019 0)
(0.726187 0.422813 1.41867e-20)
(0.699299 0.397609 -4.54849e-22)
(0.679775 0.377071 -3.28359e-20)
(0.665318 0.36051 1.28953e-20)
(0.65248 0.346471 0)
(0.613213 0.320287 4.82709e-20)
(0.435359 0.225581 0)
(0.0881523 0.0461665 -4.81145e-20)
(0.254815 0.149182 1.59789e-20)
(1.16269 0.655147 2.47535e-20)
(1.25802 0.718637 -1.73883e-20)
(1.22732 0.710875 0)
(1.18078 0.693693 1.49089e-20)
(1.12876 0.674064 0)
(1.07141 0.651771 1.44041e-20)
(1.0085 0.626237 1.86085e-21)
(0.939932 0.596405 5.67197e-22)
(0.865391 0.560142 -1.56686e-20)
(0.795574 0.519868 3.5373e-21)
(0.741808 0.482041 0)
(0.703016 0.448932 -3.0449e-20)
(0.6754 0.420871 4.77345e-22)
(0.65577 0.397824 0)
(0.641683 0.379167 5.15394e-22)
(0.62943 0.363259 4.4025e-20)
(0.591236 0.33448 -4.2774e-20)
(0.417832 0.233928 1.27441e-20)
(0.082514 0.0465891 0)
(0.252796 0.157995 0)
(1.14955 0.69384 2.75912e-20)
(1.24299 0.760623 2.0326e-20)
(1.21246 0.751769 -3.9866e-22)
(1.16628 0.733059 9.23461e-21)
(1.11453 0.711798 2.11892e-20)
(1.05736 0.687933 -4.79057e-21)
(0.994394 0.660977 1.0731e-21)
(0.925174 0.629957 3.96324e-21)
(0.84913 0.592624 -2.4129e-20)
(0.776641 0.550726 -7.39576e-22)
(0.720022 0.51051 -1.23287e-20)
(0.679116 0.474385 5.04078e-20)
(0.650334 0.443172 -5.9011e-22)
(0.630446 0.417145 -2.65092e-20)
(0.616599 0.395891 -4.8436e-20)
(0.604826 0.37787 0)
(0.56765 0.346136 0)
(0.398658 0.239816 1.4235e-20)
(0.0761292 0.0460571 -8.41005e-21)
(0.25108 0.166506 1.97404e-20)
(1.13668 0.729899 -6.00973e-20)
(1.22782 0.799595 -2.1746e-20)
(1.19743 0.789711 0)
(1.15164 0.769613 -2.91333e-22)
(1.1003 0.746905 2.52975e-20)
(1.04348 0.721663 -1.56747e-20)
(0.980676 0.69356 -8.69046e-21)
(0.911078 0.661766 3.2188e-21)
(0.833536 0.6239 -1.8159e-20)
(0.758207 0.581057 -3.14314e-20)
(0.698234 0.53876 3.30385e-20)
(0.654581 0.49962 0)
(0.624044 0.464881 -1.20631e-20)
(0.603512 0.435562 -2.94068e-20)
(0.58967 0.410956 -3.5583e-20)
(0.578398 0.390362 -4.34063e-20)
(0.54233 0.355228 1.31112e-20)
(0.377465 0.242907 -7.71164e-21)
(0.0688824 0.0444642 1.50926e-22)
(0.249282 0.174546 0)
(1.12415 0.763634 0)
(1.21268 0.835787 4.49528e-22)
(1.18242 0.824874 0)
(1.13706 0.803503 -3.46844e-20)
(1.08622 0.779478 -2.22507e-20)
(1.02992 0.753038 0)
(0.967458 0.723999 -1.87037e-21)
(0.897783 0.6918 2.12906e-21)
(0.818828 0.654024 -4.15829e-20)
(0.740414 0.610989 0)
(0.676675 0.567105 -2.13976e-20)
(0.629515 0.52508 -6.94136e-22)
(0.596378 0.486572 -5.69071e-22)
(0.574402 0.453053 3.18543e-20)
(0.560784 0.424686 -3.70325e-23)
(0.550504 0.400612 -9.55151e-20)
(0.515305 0.361523 2.8987e-20)
(0.353953 0.242731 8.6878e-21)
(0.0606349 0.0416612 0)
(0.24746 0.182091 -7.23512e-20)
(1.11178 0.795698 -3.66495e-20)
(1.19759 0.869381 -5.41956e-20)
(1.16751 0.857423 7.60422e-20)
(1.12267 0.834853 -6.4936e-20)
(1.07241 0.809626 0)
(1.01676 0.782125 -1.32969e-20)
(0.954871 0.752329 3.70158e-21)
(0.885344 0.720024 7.57916e-22)
(0.805239 0.683016 3.36969e-21)
(0.723639 0.640444 3.94894e-20)
(0.655717 0.595817 -7.30876e-21)
(0.604144 0.551156 -3.18676e-20)
(0.567059 0.508664 -1.47539e-20)
(0.543047 0.469866 1.79592e-20)
(0.52929 0.43786 -1.67499e-23)
(0.519578 0.409634 2.66585e-20)
(0.484438 0.365411 -6.35737e-20)
(0.326869 0.239179 7.67203e-20)
(0.0513331 0.0376209 1.12152e-20)
(0.245516 0.189205 2.65006e-20)
(1.0996 0.825716 -1.99523e-20)
(1.1827 0.900482 1.07761e-21)
(1.15282 0.887529 4.28035e-20)
(1.10852 0.863829 1.50714e-20)
(1.05894 0.837472 4.4574e-20)
(1.00408 0.809003 -5.71673e-21)
(0.942962 0.778566 1.75788e-20)
(0.873895 0.74643 3.4396e-21)
(0.792938 0.710721 -2.17687e-20)
(0.708303 0.669516 0)
(0.635643 0.625007 -3.35447e-20)
(0.578575 0.578142 4.68518e-20)
(0.536308 0.531538 0)
(0.509615 0.488036 -3.87669e-20)
(0.494592 0.449292 2.43429e-20)
(0.485128 0.416114 -2.91926e-20)
(0.450076 0.365689 -3.55811e-20)
(0.295858 0.231304 -6.33429e-20)
(0.0408844 0.0320572 -5.01985e-20)
(0.243817 0.195981 -2.90434e-20)
(1.08761 0.853689 2.13623e-20)
(1.16807 0.929275 5.02602e-20)
(1.13843 0.915344 5.87515e-20)
(1.0947 0.890579 -3.17016e-20)
(1.04586 0.863146 3.06909e-20)
(0.991908 0.833767 -1.80175e-20)
(0.931767 0.802791 2.1416e-20)
(0.863475 0.771028 3.7867e-21)
(0.782124 0.737065 1.97378e-20)
(0.694508 0.698281 8.43063e-20)
(0.616387 0.654564 0)
(0.553153 0.606172 0)
(0.505651 0.556413 -1.71882e-20)
(0.474307 0.508258 0)
(0.457341 0.462485 5.35239e-20)
(0.446568 0.420874 6.47438e-20)
(0.411334 0.361576 0)
(0.26003 0.218 0)
(0.0293713 0.0248726 5.56807e-20)
(0.241947 0.202203 3.19499e-20)
(1.07584 0.879806 2.53828e-20)
(1.15378 0.955909 3.61017e-20)
(1.12438 0.94104 -5.22552e-20)
(1.08125 0.915249 -3.5259e-20)
(1.03318 0.886783 -4.05297e-20)
(0.980247 0.856529 2.68248e-20)
(0.921297 0.825061 3.40208e-22)
(0.854113 0.793779 -9.74089e-22)
(0.772916 0.762054 -1.42809e-21)
(0.682275 0.726632 4.28462e-20)
(0.59832 0.684717 0)
(0.529431 0.635271 4.82711e-20)
(0.476638 0.584332 3.6547e-20)
(0.437963 0.529412 9.44641e-20)
(0.4152 0.475895 2.91019e-20)
(0.40148 0.424958 -3.65563e-20)
(0.36693 0.351908 -2.17722e-20)
(0.220963 0.198005 0)
(0.018736 0.0166826 6.16812e-20)
(0.240415 0.208326 -7.0083e-20)
(1.06433 0.904177 0)
(1.13987 0.980541 4.01404e-20)
(1.11071 0.964761 -4.27333e-20)
(1.06819 0.937984 3.97253e-20)
(1.02092 0.908512 5.8902e-20)
(0.969108 0.877381 -6.19858e-20)
(0.911525 0.845431 7.43279e-22)
(0.845834 0.814707 0)
(0.765223 0.785636 -1.6261e-20)
(0.671791 0.754528 -8.87992e-20)
(0.582112 0.715224 4.63767e-21)
(0.507229 0.666928 6.65543e-20)
(0.446993 0.613781 0)
(0.398962 0.556883 6.40758e-20)
(0.365814 0.494383 0)
(0.346149 0.426111 0)
(0.312108 0.328091 -2.47964e-20)
(0.186338 0.161783 0)
(0.0257922 0.0111041 1.68725e-20)
(0.238678 0.213914 -7.63331e-20)
(1.05308 0.927041 0)
(1.12627 1.0034 6.49622e-20)
(1.09738 0.986754 0)
(1.05547 0.959053 -2.14908e-20)
(1.00898 0.928619 0)
(0.958364 0.89662 -4.53498e-21)
(0.902313 0.864243 -3.8118e-21)
(0.83845 0.834124 -8.54939e-22)
(0.758863 0.808133 -1.43058e-20)
(0.66332 0.782124 2.22488e-21)
(0.568135 0.745767 3.92278e-20)
(0.484962 0.70015 6.48722e-20)
(0.415136 0.648244 9.34028e-21)
(0.356641 0.586636 5.03241e-20)
(0.309667 0.519398 0)
(0.271766 0.435846 8.08276e-20)
(0.229778 0.287315 -4.91581e-20)
(0.0974728 0.135673 5.8063e-20)
(-0.0204201 0.39062 -6.95139e-20)
(0.2371 0.219341 6.21374e-20)
(1.04194 0.948549 9.57458e-20)
(1.11288 1.02475 0)
(1.08425 1.0074 7.83492e-22)
(1.04288 0.97893 5.81551e-20)
(0.997087 0.947639 -1.13539e-19)
(0.947605 0.9148 -2.72454e-20)
(0.893212 0.882074 0)
(0.831541 0.852693 -1.11826e-20)
(0.753806 0.830387 -8.58803e-23)
(0.657209 0.811183 0)
(0.555417 0.780019 0)
(0.463151 0.738334 5.74751e-20)
(0.381589 0.684493 -2.93635e-20)
(0.308202 0.629987 -5.0118e-20)
(0.247181 0.561981 0)
(0.165867 0.457505 4.14319e-20)
(0.0655797 0.527828 -5.06031e-20)
(0.0575178 1.70787 -2.83946e-20)
(0.0916689 2.71635 -3.40998e-20)
(0.2354 0.224236 -4.53538e-20)
(1.03093 0.968883 -1.20477e-19)
(1.09971 1.04457 3.72756e-20)
(1.07142 1.02666 3.59797e-20)
(1.03048 0.997517 0)
(0.985297 0.965426 -8.11681e-20)
(0.936916 0.931706 -4.53664e-20)
(0.884177 0.89846 2.4909e-21)
(0.824933 0.869811 -1.64791e-21)
(0.750179 0.851678 7.54469e-21)
(0.653544 0.840922 3.96444e-20)
(0.544206 0.818152 4.20229e-20)
(0.442721 0.779101 5.71748e-20)
(0.34876 0.729436 -6.73766e-20)
(0.26543 0.681811 -7.38282e-20)
(0.188182 0.625418 0)
(0.100802 0.878122 0)
(0.148298 2.41534 2.1683e-20)
(0.158316 3.14145 0)
(0.155362 3.35544 5.50083e-20)
(0.236977 0.228567 0)
(1.01976 0.988119 0)
(1.08671 1.06274 0)
(1.05866 1.04443 9.95647e-21)
(1.01808 1.01471 5.19802e-20)
(0.973441 0.981934 -6.1765e-20)
(0.92629 0.947232 -3.25054e-20)
(0.87518 0.912955 2.81412e-21)
(0.818767 0.884838 -2.26835e-20)
(0.748535 0.871564 -2.6968e-21)
(0.651755 0.872035 7.13023e-20)
(0.533848 0.85776 -5.09389e-21)
(0.422074 0.824709 6.60796e-21)
(0.322006 0.772683 9.62143e-21)
(0.238581 0.73884 4.77546e-22)
(0.161447 0.978455 3.65739e-22)
(0.199282 2.53142 -1.02507e-19)
(0.226337 3.25503 -3.92409e-20)
(0.205972 3.41449 1.92143e-20)
(0.185558 3.44221 -2.006e-20)
(0.152116 0.168919 2.65737e-20)
(1.00226 1.00882 0)
(1.07432 1.07953 -7.25036e-20)
(1.04622 1.06108 -9.27357e-20)
(1.00606 1.03097 1.07053e-19)
(0.961965 0.997537 6.53657e-20)
(0.91546 0.9615 3.83037e-20)
(0.866137 0.926029 -4.64949e-20)
(0.812931 0.899191 2.3319e-20)
(0.748879 0.890499 0)
(0.653771 0.902588 3.03313e-20)
(0.527992 0.900205 -3.27806e-20)
(0.404442 0.872132 0)
(0.301023 0.820259 8.82468e-21)
(0.227762 0.921475 2.10048e-20)
(0.20535 2.15803 -2.46134e-20)
(0.29632 3.28575 2.79255e-20)
(0.275153 3.4365 1.34597e-20)
(0.23184 3.4657 1.57572e-20)
(0.20275 3.47876 1.9698e-20)
(0.272885 0.266062 -5.1258e-20)
(0.977786 1.01143 0)
(1.05479 1.1005 7.42914e-20)
(1.02756 1.08487 9.57054e-20)
(0.987307 1.05398 -1.10298e-19)
(0.943442 1.01922 -6.92363e-20)
(0.898343 0.982046 -5.79832e-20)
(0.85251 0.945247 -3.55567e-21)
(0.806698 0.91699 -3.21279e-20)
(0.751856 0.915607 -1.31769e-20)
(0.658572 0.952567 9.12604e-22)
(0.518456 0.9809 2.80986e-20)
(0.377278 0.95841 6.01073e-21)
(0.28875 1.05323 -7.94115e-21)
(0.308965 2.09532 -1.72046e-20)
(0.380129 3.27583 1.22172e-20)
(0.373274 3.4746 -1.03867e-20)
(0.327489 3.50602 -5.96652e-21)
(0.28142 3.54032 1.90739e-21)
(0.216067 3.53171 -1.16527e-22)
(0.261927 0.264067 0)
(0.972264 1.02988 1.95359e-20)
(1.04297 1.11801 -1.4603e-20)
(1.01493 1.10165 -1.05544e-20)
(0.974643 1.07022 -7.17805e-20)
(0.931168 1.03457 6.72933e-20)
(0.886763 0.99588 3.88414e-20)
(0.843086 0.95726 -3.7192e-21)
(0.802695 0.928625 3.96138e-20)
(0.759684 0.931578 -4.29422e-21)
(0.674751 0.983589 -3.80595e-20)
(0.516795 1.03844 4.29807e-21)
(0.368766 1.03217 -5.59874e-21)
(0.333711 1.40144 -6.53559e-21)
(0.421711 2.91608 3.98393e-21)
(0.472747 3.45582 2.89775e-22)
(0.416058 3.54738 -9.6853e-21)
(0.375824 3.57941 -1.29861e-20)
(0.303021 3.61138 1.90295e-20)
(0.233551 3.60089 9.04658e-21)
(0.246039 0.259806 4.83472e-20)
(0.965408 1.05115 1.29893e-19)
(1.03047 1.13708 -4.12109e-20)
(1.00143 1.11957 -3.98461e-20)
(0.961007 1.08733 0)
(0.917803 1.05042 9.69984e-20)
(0.874236 1.00989 5.8656e-20)
(0.833359 0.969097 -3.89879e-21)
(0.799514 0.938746 4.34601e-21)
(0.770035 0.947316 3.42742e-20)
(0.699497 1.0261 -9.10092e-21)
(0.531426 1.10166 -3.11423e-20)
(0.379849 1.14168 -4.13156e-20)
(0.415038 1.90327 3.70891e-20)
(0.534327 3.29637 1.53254e-20)
(0.545304 3.54166 0)
(0.477257 3.6023 0)
(0.4205 3.66804 1.84153e-20)
(0.336919 3.73267 0)
(0.248511 3.69941 3.94589e-20)
(0.234164 0.25952 -6.97764e-20)
(0.956247 1.07341 -1.07047e-19)
(1.01629 1.15714 0)
(0.986294 1.13812 7.0806e-22)
(0.945743 1.10479 -6.84886e-20)
(0.902682 1.06628 1.42739e-19)
(0.860018 1.0235 3.91614e-20)
(0.821804 0.979316 -4.4464e-21)
(0.795407 0.945453 4.34707e-20)
(0.782993 0.957126 -2.93168e-21)
(0.725433 1.05414 0)
(0.551565 1.17118 0)
(0.415832 1.30262 -3.61145e-20)
(0.514984 2.45909 9.4861e-21)
(0.648446 3.44983 -2.31972e-21)
(0.614513 3.59234 0)
(0.563081 3.67347 4.53264e-20)
(0.477322 3.77169 -6.95972e-20)