/*--------------------------------*- C++ -*----------------------------------*\
| =========                 |                                                 |
| \\      /  F ield         | OpenFOAM: The Open Source CFD Toolbox           |
|  \\    /   O peration     | Version:  2106                                  |
|   \\  /    A nd           | Website:  www.openfoam.com                      |
|    \\/     M anipulation  |                                                 |
\*---------------------------------------------------------------------------*/
FoamFile
{
    version     2.0;
    format      ascii;
    arch        "LSB;label=32;scalar=64";
    class       volScalarField;
    location    "10";
    object      T;
}
// * * * * * * * * * * * * * * * * * * * * * * * * * * * * * * * * * * * * * //

dimensions      [0 0 0 1 0 0 0];

internalField   nonuniform List<scalar> 
10000
(
3.45311e-39
4.27648e-39
-1.83164e-38
-7.76564e-38
-7.48045e-38
3.35093e-37
1.37222e-36
1.36787e-36
-5.2843e-36
-2.23867e-35
-2.54462e-35
7.00065e-35
3.33984e-34
4.59392e-34
-7.21503e-34
-4.46581e-33
-7.65166e-33
4.23657e-33
5.16745e-32
1.12759e-31
3.05684e-32
-4.84334e-31
-1.41491e-30
-1.36864e-30
3.08815e-30
1.43879e-29
2.36416e-29
-1.93828e-30
-1.07618e-28
-2.72905e-28
-2.65154e-28
4.1855e-28
2.14714e-27
3.96387e-27
2.13915e-27
-9.19466e-27
-3.16381e-26
-4.92838e-26
-1.76578e-26
1.21292e-25
3.70319e-25
5.59289e-25
2.67675e-25
-1.02846e-24
-3.40803e-24
-5.63271e-24
-4.5553e-24
4.0649e-24
2.23098e-23
4.47321e-23
5.37781e-23
2.14631e-23
-7.71952e-23
-2.383e-22
-3.99795e-22
-4.28435e-22
-1.46708e-22
5.86574e-22
1.75394e-21
3.06032e-21
3.88618e-21
3.37665e-21
6.87696e-22
-4.66112e-21
-1.24486e-20
-2.15831e-20
-3.02237e-20
-3.62127e-20
-3.77094e-20
-3.3813e-20
-2.49383e-20
-1.27857e-20
1.08134e-22
1.10963e-20
1.81815e-20
2.05538e-20
1.87246e-20
1.42166e-20
8.93408e-21
4.47194e-21
1.65193e-21
4.59319e-22
3.41407e-22
6.43976e-22
9.29851e-22
1.05585e-21
1.06492e-21
1.03997e-21
1.02507e-21
1.02365e-21
1.0261e-21
1.02721e-21
1.02709e-21
1.02687e-21
1.02685e-21
1.02688e-21
1.02688e-21
1.02688e-21
1.02688e-21
1.02688e-21
4.31358e-39
3.55176e-38
4.60408e-38
-1.31684e-37
-6.63842e-37
-8.29344e-37
2.29167e-36
1.14233e-35
1.49478e-35
-3.34257e-35
-1.79894e-34
-2.64747e-34
3.85859e-34
2.55773e-33
4.44705e-33
-2.83163e-33
-3.1983e-32
-6.80973e-32
-7.67599e-33
3.35019e-31
9.14502e-31
7.11377e-31
-2.63173e-30
-1.03067e-29
-1.45457e-29
9.58356e-30
9.09366e-29
1.95404e-28
1.16149e-28
-5.27299e-28
-1.86192e-27
-2.71586e-27
3.32216e-28
1.14558e-26
2.85794e-26
3.16708e-26
-2.17851e-26
-1.69133e-25
-3.62094e-25
-3.61866e-25
2.64981e-25
1.84706e-24
3.8964e-24
4.28708e-24
-7.19529e-25
-1.4263e-23
-3.39041e-23
-4.5809e-23
-2.36029e-23
6.06488e-23
2.0944e-22
3.64265e-22
3.85032e-22
7.86726e-23
-6.97344e-22
-1.86676e-21
-2.96761e-21
-3.10102e-21
-1.11287e-21
3.94551e-21
1.21686e-20
2.22031e-20
3.10369e-20
3.44396e-20
2.81038e-20
9.21964e-21
-2.20622e-20
-6.19111e-20
-1.03283e-19
-1.37593e-19
-1.5712e-19
-1.57344e-19
-1.3837e-19
-1.04941e-19
-6.49845e-20
-2.72006e-20
1.50044e-21
1.78143e-20
2.24751e-20
1.92066e-20
1.27364e-20
6.84163e-21
3.30255e-21
2.05091e-21
2.09403e-21
2.46855e-21
2.7004e-21
2.74474e-21
2.71507e-21
2.69213e-21
2.68909e-21
2.69246e-21
2.69398e-21
2.69377e-21
2.69349e-21
2.69348e-21
2.69351e-21
2.69352e-21
2.69351e-21
2.69351e-21
-1.82192e-38
4.62434e-38
2.5435e-37
3.32858e-37
-9.04955e-37
-4.63417e-36
-5.9994e-36
1.48831e-35
7.75078e-35
1.07536e-34
-2.01741e-34
-1.18121e-33
-1.87071e-33
2.05472e-33
1.612e-32
3.04419e-32
-9.78612e-33
-1.90717e-31
-4.45865e-31
-1.69778e-31
1.83626e-30
5.65074e-30
5.75405e-30
-1.21574e-29
-5.89535e-29
-9.80514e-29
1.04118e-29
4.62182e-28
1.16398e-27
1.07876e-27
-2.02557e-27
-9.68853e-27
-1.72252e-26
-7.16555e-27
4.69928e-26
1.49016e-25
2.1619e-25
3.09754e-26
-6.70379e-25
-1.83685e-24
-2.5177e-24
-5.49861e-25
6.49947e-24
1.82728e-23
2.70967e-23
1.56106e-23
-3.71319e-23
-1.35987e-22
-2.40059e-22
-2.42157e-22
9.85704e-24
6.20785e-22
1.49082e-21
2.16266e-21
1.80481e-21
-5.27214e-22
-5.2984e-21
-1.17054e-20
-1.70465e-20
-1.67275e-20
-5.28292e-21
2.15813e-20
6.4454e-20
1.18196e-19
1.71553e-19
2.09132e-19
2.15568e-19
1.80734e-19
1.04104e-19
-3.55107e-21
-1.22122e-19
-2.27396e-19
-2.97922e-19
-3.21192e-19
-2.97026e-19
-2.37014e-19
-1.60218e-19
-8.66789e-20
-3.11364e-20
6.26697e-22
1.15385e-20
9.65653e-21
3.43302e-21
-1.68066e-21
-4.0062e-21
-4.30488e-21
-3.90935e-21
-3.60974e-21
-3.5452e-21
-3.57997e-21
-3.60674e-21
-3.60918e-21
-3.60502e-21
-3.60361e-21
-3.604e-21
-3.60427e-21
-3.60425e-21
-3.60421e-21
-3.60421e-21
-3.60422e-21
-7.7548e-38
-1.31096e-37
3.33812e-37
1.79414e-36
2.34939e-36
-6.15388e-36
-3.18067e-35
-4.2319e-35
9.53275e-35
5.16619e-34
7.52844e-34
-1.19061e-33
-7.6079e-33
-1.28412e-32
1.03162e-32
9.94009e-32
2.02235e-31
-1.17284e-32
-1.10698e-30
-2.83045e-30
-1.73409e-30
9.65872e-30
3.37798e-29
4.18434e-29
-4.99373e-29
-3.24153e-28
-6.22133e-28
-1.90043e-28
2.2056e-27
6.57843e-27
8.02002e-27
-5.84228e-27
-4.72309e-26
-1.00482e-25
-8.19017e-26
1.61154e-25
7.17158e-25
1.28833e-24
8.47679e-25
-2.17356e-24
-8.40479e-24
-1.46041e-23
-1.10352e-23
1.64883e-23
7.48084e-23
1.41695e-22
1.46266e-22
-2.17946e-23
-4.44615e-22
-1.04639e-21
-1.45774e-21
-1.00057e-21
1.05626e-21
4.90674e-21
9.43722e-21
1.17076e-20
7.28366e-21
-8.11649e-21
-3.57391e-20
-7.05579e-20
-9.92802e-20
-1.01329e-19
-5.37638e-20
6.04838e-20
2.4355e-19
4.76445e-19
7.19184e-19
9.18769e-19
1.02346e-18
9.98929e-19
8.40455e-19
5.76452e-19
2.615e-19
-3.90532e-20
-2.6787e-19
-3.91471e-19
-4.07822e-19
-3.43141e-19
-2.39362e-19
-1.37545e-19
-6.43051e-20
-2.67431e-20
-1.67147e-20
-2.02935e-20
-2.62676e-20
-2.96432e-20
-3.03138e-20
-2.98938e-20
-2.9526e-20
-2.94492e-20
-2.94934e-20
-2.95232e-20
-2.95238e-20
-2.95189e-20
-2.95178e-20
-2.95184e-20
-2.95186e-20
-2.95185e-20
-2.95185e-20
-2.95185e-20
-7.49318e-38
-6.63082e-37
-9.02228e-37
2.35376e-36
1.24307e-35
1.62856e-35
-4.10664e-35
-2.14341e-34
-2.92878e-34
5.96724e-34
3.37746e-33
5.1584e-33
-6.77898e-33
-4.79671e-32
-8.60404e-32
4.6489e-32
5.97866e-31
1.30825e-30
2.33106e-31
-6.2202e-30
-1.74496e-29
-1.44223e-29
4.80618e-29
1.95216e-28
2.83952e-28
-1.59697e-28
-1.70445e-27
-3.75268e-27
-2.4153e-27
9.64464e-27
3.52849e-26
5.2947e-26
-2.33374e-27
-2.12535e-25
-5.45356e-25
-6.28545e-25
3.50586e-25
3.14508e-24
6.93347e-24
7.27514e-24
-4.14294e-24
-3.40902e-23
-7.43994e-23
-8.58515e-23
2.98313e-24
2.56263e-22
6.37894e-22
8.98193e-22
5.41209e-22
-9.85132e-22
-3.79297e-21
-6.87552e-21
-7.67159e-21
-2.51818e-21
1.14901e-20
3.33564e-20
5.49153e-20
5.95591e-20
2.52261e-20
-6.72862e-20
-2.22124e-19
-4.16645e-19
-5.96283e-19
-6.81385e-19
-5.87535e-19
-2.55045e-19
3.22222e-19
1.08066e-18
1.89251e-18
2.59472e-18
3.03357e-18
3.11016e-18
2.81115e-18
2.21335e-18
1.46029e-18
7.18491e-19
1.28023e-19
-2.35162e-19
-3.72055e-19
-3.44745e-19
-2.40651e-19
-1.34589e-19
-6.60682e-20
-3.89941e-20
-3.74188e-20
-4.36446e-20
-4.80608e-20
-4.91172e-20
-4.86601e-20
-4.82275e-20
-4.81496e-20
-4.82064e-20
-4.8237e-20
-4.82346e-20
-4.82292e-20
-4.82288e-20
-4.82295e-20
-4.82296e-20
-4.82295e-20
-4.82295e-20
3.34285e-37
-8.29746e-37
-4.63069e-36
-6.1417e-36
1.63047e-35
8.45751e-35
1.10852e-34
-2.68866e-34
-1.4179e-33
-1.98831e-33
3.64738e-33
2.16515e-32
3.45917e-32
-3.70263e-32
-2.95916e-31
-5.62822e-31
1.70853e-31
3.50412e-30
8.24235e-30
3.23695e-30
-3.37335e-29
-1.0445e-28
-1.07323e-28
2.22552e-28
1.08922e-27
1.82159e-27
-1.67226e-28
-8.52241e-27
-2.15822e-26
-2.02225e-26
3.69737e-26
1.79101e-25
3.20648e-25
1.38942e-25
-8.59945e-25
-2.75833e-24
-4.04627e-24
-7.03725e-25
1.22193e-23
3.39938e-23
4.7356e-23
1.2384e-23
-1.16842e-22
-3.36509e-22
-5.09134e-22
-3.16427e-22
6.35359e-22
2.46087e-21
4.44977e-21
4.6692e-21
3.1109e-22
-1.0671e-20
-2.6706e-20
-3.97486e-20
-3.48021e-20
5.55035e-21
9.04937e-20
2.06467e-19
3.0509e-19
3.02283e-19
9.57688e-20
-3.98248e-19
-1.19826e-18
-2.21837e-18
-3.25777e-18
-4.03301e-18
-4.25199e-18
-3.70972e-18
-2.37238e-18
-4.15343e-19
1.80501e-18
3.842e-18
5.28369e-18
5.87085e-18
5.56755e-18
4.56073e-18
3.18865e-18
1.82413e-18
7.5574e-19
1.12777e-19
-1.39022e-19
-1.37533e-19
-3.79601e-20
5.3327e-20
9.82334e-20
1.06037e-19
9.97331e-20
9.42409e-20
9.28475e-20
9.33906e-20
9.3887e-20
9.39514e-20
9.38797e-20
9.38515e-20
9.38576e-20
9.38627e-20
9.38624e-20
9.38618e-20
9.38618e-20
9.38618e-20
1.37056e-36
2.28754e-36
-6.00104e-36
-3.17915e-35
-4.10145e-35
1.10931e-34
5.65025e-34
7.4089e-34
-1.72676e-33
-9.20655e-33
-1.32405e-32
2.1748e-32
1.36079e-31
2.27043e-31
-1.92301e-31
-1.78557e-30
-3.59499e-30
3.18508e-31
1.99917e-29
5.05815e-29
2.98505e-29
-1.75839e-28
-6.06869e-28
-7.40432e-28
9.28425e-28
5.857e-27
1.11272e-26
3.13465e-27
-4.01616e-26
-1.18472e-25
-1.42745e-25
1.09491e-25
8.55388e-25
1.80737e-24
1.45528e-24
-2.94128e-24
-1.29535e-23
-2.32047e-23
-1.52309e-23
3.91627e-23
1.51414e-22
2.63724e-22
2.01802e-22
-2.8967e-22
-1.33802e-21
-2.55522e-21
-2.68402e-21
2.5146e-22
7.76274e-21
1.86035e-20
2.63405e-20
1.90096e-20
-1.64772e-20
-8.39891e-20
-1.64533e-19
-2.0685e-19
-1.32874e-19
1.33592e-19
6.15916e-19
1.2266e-18
1.73019e-18
1.75811e-18
8.93766e-19
-1.18187e-18
-4.52647e-18
-8.81975e-18
-1.33569e-17
-1.71824e-17
-1.93404e-17
-1.91667e-17
-1.65185e-17
-1.18545e-17
-6.12649e-18
-5.14455e-19
3.91083e-18
6.48374e-18
7.09945e-18
6.17688e-18
4.4475e-18
2.65927e-18
1.32281e-18
6.03675e-19
3.83964e-19
4.25551e-19
5.25461e-19
5.8661e-19
6.0078e-19
5.94326e-19
5.87806e-19
5.86237e-19
5.86941e-19
5.87484e-19
5.87513e-19
5.87426e-19
5.87405e-19
5.87415e-19
5.87419e-19
5.87418e-19
5.87417e-19
5.87417e-19
1.36656e-36
1.14141e-35
1.48658e-35
-4.23254e-35
-2.14278e-34
-2.68658e-34
7.41197e-34
3.70631e-33
4.86203e-33
-1.08768e-32
-5.86703e-32
-8.64809e-32
1.26347e-31
8.3833e-31
1.45861e-30
-9.35435e-31
-1.05336e-29
-2.24251e-29
-2.4269e-30
1.10875e-28
3.02351e-28
2.34064e-28
-8.75575e-28
-3.42049e-27
-4.81768e-27
3.21822e-27
3.02718e-26
6.49893e-26
3.85728e-26
-1.75628e-25
-6.20408e-25
-9.07307e-25
1.01556e-25
3.80377e-24
9.54234e-24
1.07074e-23
-6.85732e-24
-5.58937e-23
-1.21241e-22
-1.24669e-22
7.83748e-23
6.03219e-22
1.30308e-21
1.49174e-21
-7.18982e-23
-4.49608e-21
-1.11493e-20
-1.57099e-20
-9.6107e-21
1.66905e-20
6.52027e-20
1.18781e-19
1.33696e-19
4.74208e-20
-1.8951e-19
-5.59628e-19
-9.22517e-19
-9.92831e-19
-3.91298e-19
1.21271e-18
3.8911e-18
7.25346e-18
1.03552e-17
1.18107e-17
1.01403e-17
4.27993e-18
-5.91368e-18
-1.93691e-17
-3.38789e-17
-4.65855e-17
-5.47503e-17
-5.65559e-17
-5.16644e-17
-4.13313e-17
-2.80263e-17
-1.46839e-17
-3.83512e-18
3.07799e-18
5.96334e-18
5.83543e-18
4.20644e-18
2.41586e-18
1.20922e-18
7.05127e-19
6.53877e-19
7.53168e-19
8.29898e-19
8.50287e-19
8.43383e-19
8.35906e-19
8.34364e-19
8.35281e-19
8.35828e-19
8.35801e-19
8.35708e-19
8.35698e-19
8.35709e-19
8.35711e-19
8.3571e-19
8.3571e-19
-5.28209e-36
1.49387e-35
7.747e-35
9.52586e-35
-2.929e-34
-1.41765e-33
-1.72598e-33
4.86313e-33
2.38691e-32
3.13263e-32
-6.71857e-32
-3.66916e-31
-5.53995e-31
7.14084e-31
5.06152e-30
9.1723e-30
-4.13811e-30
-6.0723e-29
-1.36617e-28
-3.9601e-29
5.96742e-28
1.76016e-27
1.66836e-27
-4.12441e-27
-1.86859e-26
-2.98405e-26
6.58742e-27
1.49798e-25
3.63727e-25
3.14828e-25
-6.91301e-25
-3.09285e-24
-5.33272e-24
-1.87509e-24
1.54379e-23
4.72568e-23
6.68995e-23
5.98893e-24
-2.16618e-22
-5.8145e-22
-7.8735e-22
-1.57615e-22
2.06398e-21
5.76494e-21
8.56642e-21
5.08414e-21
-1.12255e-20
-4.20741e-20
-7.52689e-20
-7.83056e-20
-4.52699e-21
1.79313e-19
4.45665e-19
6.59654e-19
5.73073e-19
-9.78312e-20
-1.49327e-18
-3.36825e-18
-4.89394e-18
-4.64744e-18
-9.09261e-19
7.71997e-18
2.15338e-17
3.90641e-17
5.69018e-17
7.02352e-17
7.40901e-17
6.49428e-17
4.21507e-17
8.61864e-18
-2.96451e-17
-6.50348e-17
-9.04572e-17
-1.0135e-16
-9.69238e-17
-8.02144e-17
-5.69128e-17
-3.34004e-17
-1.47119e-17
-3.20911e-18
1.55055e-18
1.83825e-18
2.94667e-19
-1.21999e-18
-1.99583e-18
-2.14747e-18
-2.0496e-18
-1.9572e-18
-1.93197e-18
-1.94031e-18
-1.94871e-18
-1.94997e-18
-1.9488e-18
-1.9483e-18
-1.94839e-18
-1.94848e-18
-1.94848e-18
-1.94847e-18
-1.94847e-18
-1.94847e-18
-2.23779e-35
-3.342e-35
1.07499e-34
5.16475e-34
5.96474e-34
-1.98838e-33
-9.20566e-33
-1.08742e-32
3.13298e-32
1.50911e-31
1.98155e-31
-4.06894e-31
-2.25164e-30
-3.48041e-30
3.91831e-30
2.99432e-29
5.64573e-29
-1.55024e-29
-3.41868e-28
-8.12834e-28
-3.72939e-28
3.10974e-27
9.97702e-27
1.11144e-26
-1.80694e-26
-9.88185e-26
-1.76915e-25
-2.44721e-26
7.05513e-25
1.95239e-24
2.17277e-24
-2.27376e-24
-1.46167e-23
-2.93477e-23
-2.09229e-23
5.47793e-23
2.18936e-22
3.74921e-22
2.14e-22
-7.14778e-22
-2.55476e-21
-4.28722e-21
-3.01078e-21
5.3743e-21
2.26524e-20
4.20054e-20
4.25466e-20
-7.65391e-21
-1.31788e-19
-3.07155e-19
-4.27146e-19
-2.98479e-19
2.8428e-19
1.37038e-18
2.63651e-18
3.24639e-18
1.95651e-18
-2.40267e-18
-1.00942e-17
-1.95449e-17
-2.67756e-17
-2.5687e-17
-9.48618e-18
2.69175e-17
8.42472e-17
1.56985e-16
2.33307e-16
2.97312e-16
3.33153e-16
3.29839e-16
2.85018e-16
2.06308e-16
1.09539e-16
1.43825e-17
-6.12156e-17
-1.05973e-16
-1.17908e-16
-1.03794e-16
-7.57121e-17
-4.61515e-17
-2.37621e-17
-1.1496e-17
-7.55691e-18
-8.06764e-18
-9.65488e-18
-1.06622e-17
-1.0909e-17
-1.08102e-17
-1.07038e-17
-1.06768e-17
-1.06878e-17
-1.06968e-17
-1.06974e-17
-1.0696e-17
-1.06956e-17
-1.06958e-17
-1.06958e-17
-1.06958e-17
-1.06958e-17
-1.06958e-17
-2.54324e-35
-1.79861e-34
-2.01731e-34
7.52701e-34
3.37697e-33
3.64659e-33
-1.32406e-32
-5.86675e-32
-6.71782e-32
1.98164e-31
9.36617e-31
1.23047e-30
-2.41569e-30
-1.35572e-29
-2.1442e-29
2.08177e-29
1.73528e-28
3.40136e-28
-3.74125e-29
-1.87845e-27
-4.7228e-27
-2.91465e-27
1.56428e-26
5.50411e-26
7.01858e-26
-7.11644e-26
-5.0504e-25
-1.00726e-24
-4.41948e-25
3.13263e-24
1.0049e-23
1.35374e-23
-4.66236e-24
-6.50138e-23
-1.52118e-22
-1.54775e-22
1.50369e-22
9.41766e-22
1.92541e-21
1.8043e-21
-1.68933e-21
-1.01644e-20
-2.08465e-20
-2.24079e-20
4.69573e-21
7.66184e-20
1.80511e-19
2.44955e-19
1.34312e-19
-2.95725e-19
-1.06245e-18
-1.87825e-18
-2.04819e-18
-6.13758e-19
3.12913e-18
8.78748e-18
1.40312e-17
1.4327e-17
3.83758e-18
-2.22617e-17
-6.44751e-17
-1.15882e-16
-1.60891e-16
-1.77264e-16
-1.41794e-16
-3.8433e-17
1.33817e-16
3.56484e-16
5.93185e-16
7.97623e-16
9.25964e-16
9.49629e-16
8.64081e-16
6.90449e-16
4.6928e-16
2.48379e-16
6.88128e-17
-4.61138e-17
-9.50004e-17
-9.43726e-17
-6.88237e-17
-4.01805e-17
-2.06829e-17
-1.24226e-17
-1.14829e-17
-1.30268e-17
-1.42512e-17
-1.45851e-17
-1.44792e-17
-1.43601e-17
-1.43347e-17
-1.43491e-17
-1.43579e-17
-1.43576e-17
-1.43561e-17
-1.43559e-17
-1.43561e-17
-1.43561e-17
-1.43561e-17
-1.43561e-17
7.00213e-35
-2.64693e-34
-1.18113e-33
-1.19064e-33
5.1579e-33
2.16501e-32
2.17461e-32
-8.64806e-32
-3.66909e-31
-4.0688e-31
1.23048e-30
5.70599e-30
7.50035e-30
-1.40563e-29
-8.00821e-29
-1.2953e-28
1.06683e-28
9.84901e-28
2.00565e-27
8.83061e-29
-1.00653e-26
-2.67942e-26
-2.05423e-26
7.56256e-26
2.95375e-25
4.23516e-25
-2.31022e-25
-2.48861e-24
-5.51785e-24
-3.85847e-24
1.28987e-23
4.95313e-23
7.82077e-23
1.13351e-23
-2.68722e-22
-7.44053e-22
-9.62145e-22
1.39956e-22
3.70319e-21
9.13428e-21
1.1417e-20
8.14502e-23
-3.55704e-20
-9.14576e-20
-1.28006e-19
-6.15421e-20
2.03174e-19
6.78344e-19
1.15781e-18
1.13307e-18
-9.01259e-20
-2.95257e-18
-6.9269e-18
-9.86476e-18
-8.01392e-18
2.66855e-18
2.37118e-17
5.05114e-17
6.9558e-17
5.87041e-17
-7.84094e-18
-1.4981e-16
-3.68956e-16
-6.39562e-16
-9.06583e-16
-1.09486e-15
-1.12882e-15
-9.57331e-16
-5.75134e-16
-3.20505e-17
5.75081e-16
1.12658e-15
1.51294e-15
1.66584e-15
1.57668e-15
1.29642e-15
9.16523e-16
5.37858e-16
2.38931e-16
5.56212e-17
-2.02799e-17
-2.53206e-17
-1.38932e-18
2.21928e-17
3.4273e-17
3.66318e-17
3.51096e-17
3.36743e-17
3.32835e-17
3.34139e-17
3.35446e-17
3.3564e-17
3.35457e-17
3.35379e-17
3.35394e-17
3.35408e-17
3.35407e-17
3.35406e-17
3.35406e-17
3.35406e-17
3.34016e-34
3.85944e-34
-1.87061e-33
-7.60792e-33
-6.77948e-33
3.45903e-32
1.36076e-31
1.26346e-31
-5.5399e-31
-2.25163e-30
-2.4157e-30
7.50028e-30
3.41187e-29
4.48745e-29
-8.01468e-29
-4.64029e-28
-7.67215e-28
5.24361e-28
5.47332e-27
1.15743e-26
2.18404e-27
-5.25433e-26
-1.48404e-25
-1.34897e-25
3.49115e-25
1.54081e-24
2.45397e-24
-4.18824e-25
-1.17843e-23
-2.91109e-23
-2.71515e-23
4.76584e-23
2.3321e-22
4.24392e-22
2.20081e-22
-1.0074e-21
-3.43043e-21
-5.35599e-21
-2.02498e-21
1.28791e-20
4.00407e-20
6.19835e-20
3.41322e-20
-1.0147e-19
-3.60551e-19
-6.24492e-19
-5.70223e-19
2.63742e-19
2.1633e-18
4.69094e-18
6.17461e-18
3.77267e-18
-5.30391e-18
-2.12634e-17
-3.86962e-17
-4.49317e-17
-2.22417e-17
4.44428e-17
1.55035e-16
2.81125e-16
3.59012e-16
2.95999e-16
-6.52191e-18
-6.16582e-16
-1.53278e-15
-2.65899e-15
-3.80704e-15
-4.73359e-15
-5.20401e-15
-5.06407e-15
-4.29418e-15
-3.0254e-15
-1.50888e-15
-4.72423e-17
1.0903e-15
1.74111e-15
1.88612e-15
1.6381e-15
1.18675e-15
7.23379e-16
3.77385e-16
1.90033e-16
1.30865e-16
1.39228e-16
1.63451e-16
1.78598e-16
1.82201e-16
1.80651e-16
1.79043e-16
1.7865e-16
1.78822e-16
1.78957e-16
1.78965e-16
1.78943e-16
1.78938e-16
1.7894e-16
1.78941e-16
1.78941e-16
1.78941e-16
1.78941e-16
4.59488e-34
2.55803e-33
2.05505e-33
-1.28414e-32
-4.79689e-32
-3.70301e-32
2.2704e-31
8.38338e-31
7.14112e-31
-3.48038e-30
-1.35573e-29
-1.40567e-29
4.48737e-29
2.00222e-28
2.63505e-28
-4.47702e-28
-2.63724e-27
-4.45514e-27
2.45013e-27
2.97728e-26
6.53624e-26
2.12483e-26
-2.66902e-25
-8.02245e-25
-8.38784e-25
1.52298e-24
7.80563e-24
1.36957e-23
1.91818e-24
-5.33674e-23
-1.47939e-22
-1.69922e-22
1.45511e-22
1.04446e-21
2.17741e-21
1.79618e-21
-3.24272e-21
-1.48426e-20
-2.7372e-20
-2.08333e-20
3.63863e-20
1.61064e-19
3.00965e-19
2.81532e-19
-1.72732e-19
-1.25111e-18
-2.68389e-18
-3.3552e-18
-1.31475e-18
5.30835e-18
1.63112e-17
2.70157e-17
2.72275e-17
3.91178e-18
-5.09078e-17
-1.28252e-16
-1.91438e-16
-1.74703e-16
9.58449e-19
3.92463e-16
9.87496e-16
1.66374e-15
2.17798e-15
2.20364e-15
1.4191e-15
-3.73488e-16
-3.13934e-15
-6.5583e-15
-1.00613e-14
-1.2958e-14
-1.46227e-14
-1.46774e-14
-1.31096e-14
-1.02827e-14
-6.83072e-15
-3.47166e-15
-8.01279e-16
8.62697e-16
1.53073e-15
1.47201e-15
1.06265e-15
6.25847e-16
3.36017e-16
2.16606e-16
2.05103e-16
2.28756e-16
2.46724e-16
2.5137e-16
2.49686e-16
2.47935e-16
2.4759e-16
2.47811e-16
2.47939e-16
2.47931e-16
2.47909e-16
2.47907e-16
2.47909e-16
2.4791e-16
2.4791e-16
2.4791e-16
-7.21409e-34
4.44799e-33
1.61218e-32
1.03174e-32
-8.60448e-32
-2.95932e-31
-1.92324e-31
1.45862e-30
5.06163e-30
3.91856e-30
-2.14418e-29
-8.00828e-29
-8.01495e-29
2.635e-28
1.15307e-27
1.5185e-27
-2.44949e-27
-1.46992e-26
-2.53608e-26
1.07189e-26
1.58475e-25
3.61168e-25
1.64018e-25
-1.31727e-24
-4.23148e-24
-4.98346e-24
6.16409e-24
3.83554e-23
7.37662e-23
2.99126e-23
-2.29453e-22
-7.23826e-22
-9.80698e-22
2.57967e-22
4.41912e-21
1.05938e-20
1.1569e-20
-7.51234e-21
-5.97281e-20
-1.29781e-19
-1.39295e-19
5.73215e-20
5.84168e-19
1.32591e-18
1.66036e-18
4.08335e-19
-3.61023e-18
-1.01973e-17
-1.5996e-17
-1.36853e-17
5.83963e-18
4.69358e-17
9.95488e-17
1.31622e-16
9.20279e-17
-6.8214e-17
-3.55582e-16
-6.86119e-16
-8.54235e-16
-5.47693e-16
5.71468e-16
2.72596e-15
5.86207e-15
9.53494e-15
1.291e-14
1.49195e-14
1.45563e-14
1.12209e-14
4.99879e-15
-3.24914e-15
-1.20426e-14
-1.96542e-14
-2.45858e-14
-2.59913e-14
-2.39055e-14
-1.91983e-14
-1.32681e-14
-7.58029e-15
-3.21997e-15
-6.28058e-16
3.86755e-16
3.97797e-16
2.33086e-17
-3.21742e-16
-4.90943e-16
-5.20011e-16
-4.96199e-16
-4.75642e-16
-4.70506e-16
-4.72585e-16
-4.74448e-16
-4.74681e-16
-4.74407e-16
-4.74301e-16
-4.74325e-16
-4.74345e-16
-4.74343e-16
-4.74341e-16
-4.74341e-16
-4.74341e-16
-4.46636e-33
-2.83039e-33
3.04477e-32
9.94114e-32
4.64928e-32
-5.62856e-31
-1.78567e-30
-9.35561e-31
9.17239e-30
2.99439e-29
2.08193e-29
-1.2953e-28
-4.64033e-28
-4.47717e-28
1.51847e-27
6.516e-27
8.58688e-27
-1.31228e-26
-8.03388e-26
-1.41507e-25
4.2615e-26
8.25115e-25
1.95244e-24
1.12594e-24
-6.30435e-24
-2.17688e-23
-2.84478e-23
2.22903e-23
1.82525e-22
3.83875e-22
2.45057e-22
-9.25388e-22
-3.40555e-21
-5.30925e-21
-8.9842e-22
1.74598e-20
4.8901e-20
6.54883e-20
8.13406e-22
-2.19701e-19
-5.72687e-19
-7.75051e-19
-2.05348e-19
1.83469e-18
5.3058e-18
8.2371e-18
6.0452e-18
-7.10703e-18
-3.36632e-17
-6.54459e-17
-7.80202e-17
-3.39395e-17
9.83214e-17
3.09911e-16
5.14884e-16
5.38091e-16
1.58749e-16
-7.73778e-16
-2.17042e-15
-3.54184e-15
-3.94074e-15
-2.09433e-15
3.24284e-15
1.27816e-14
2.62009e-14
4.18758e-14
5.70107e-14
6.82271e-14
7.24794e-14
6.80126e-14
5.50222e-14
3.5752e-14
1.39582e-14
-6.11035e-15
-2.08908e-14
-2.84584e-14
-2.89321e-14
-2.4198e-14
-1.70654e-14
-1.02004e-14
-5.2868e-15
-2.73976e-15
-2.00707e-15
-2.1811e-15
-2.53565e-15
-2.74255e-15
-2.78559e-15
-2.76088e-15
-2.73851e-15
-2.73373e-15
-2.73641e-15
-2.73825e-15
-2.73829e-15
-2.73798e-15
-2.73792e-15
-2.73795e-15
-2.73797e-15
-2.73796e-15
-2.73796e-15
-2.73796e-15
-7.65449e-33
-3.19857e-32
-9.77835e-33
2.02267e-31
5.97921e-31
1.70861e-31
-3.59519e-30
-1.05341e-29
-4.13873e-30
5.64579e-29
1.73532e-28
1.06691e-28
-7.67211e-28
-2.63726e-27
-2.44956e-27
8.58677e-27
3.61287e-26
4.76443e-26
-6.88208e-26
-4.3051e-25
-7.73851e-25
1.43215e-25
4.20058e-24
1.03243e-23
7.16001e-24
-2.91823e-23
-1.09178e-22
-1.56582e-22
6.51337e-23
8.39437e-22
1.93124e-21
1.6372e-21
-3.42462e-21
-1.53764e-20
-2.72016e-20
-1.38086e-20
6.30593e-20
2.13797e-19
3.38316e-19
1.55979e-19
-7.12353e-19
-2.34637e-18
-3.82543e-18
-2.6887e-18
4.44796e-18
1.90826e-17
3.59706e-17
3.89609e-17
3.07619e-18
-9.13746e-17
-2.3228e-16
-3.48051e-16
-3.02998e-16
5.59722e-17
7.88907e-16
1.7149e-15
2.30187e-15
1.70016e-15
-9.93668e-16
-6.24154e-15
-1.3469e-14
-2.06267e-14
-2.42046e-14
-1.98978e-14
-3.88832e-15
2.5591e-14
6.69688e-14
1.14911e-13
1.61117e-13
1.96262e-13
2.12541e-13
2.06001e-13
1.77831e-13
1.34133e-13
8.4205e-14
3.7869e-14
2.71945e-15
-1.77647e-14
-2.45916e-14
-2.20388e-14
-1.54581e-14
-9.14616e-15
-5.2076e-15
-3.70404e-15
-3.63975e-15
-3.99294e-15
-4.23348e-15
-4.28681e-15
-4.25975e-15
-4.23619e-15
-4.23245e-15
-4.23574e-15
-4.23738e-15
-4.23721e-15
-4.2369e-15
-4.23689e-15
-4.23693e-15
-4.23693e-15
-4.23693e-15
-4.23693e-15
4.23051e-33
-6.81146e-32
-1.90729e-31
-1.16848e-32
1.30842e-30
3.50439e-30
3.18512e-31
-2.24262e-29
-6.07259e-29
-1.55053e-29
3.4014e-28
9.84922e-28
5.24398e-28
-4.45512e-27
-1.46993e-26
-1.31232e-26
4.76439e-26
1.96529e-25
2.59357e-25
-3.53187e-25
-2.26154e-24
-4.14716e-24
3.07118e-25
2.09e-23
5.33925e-23
4.29969e-23
-1.30183e-22
-5.33511e-22
-8.32969e-22
9.11649e-23
3.72046e-21
9.39379e-21
9.77418e-21
-1.10891e-20
-6.64128e-20
-1.32513e-19
-1.04463e-19
1.98849e-19
8.81566e-19
1.62133e-18
1.29995e-18
-1.84895e-18
-8.84857e-18
-1.71424e-17
-1.77321e-17
4.08257e-18
5.98746e-17
1.39941e-16
1.93372e-16
1.25108e-16
-1.66506e-16
-7.01169e-16
-1.3027e-15
-1.53348e-15
-7.80934e-16
1.42635e-15
4.89837e-15
8.24273e-15
8.62528e-15
2.17446e-15
-1.48008e-14
-4.39634e-14
-8.30661e-14
-1.249e-13
-1.57873e-13
-1.68528e-13
-1.4556e-13
-8.41041e-14
1.13064e-14
1.26455e-13
2.40327e-13
3.30486e-13
3.79286e-13
3.78877e-13
3.33307e-13
2.56963e-13
1.69826e-13
9.11617e-14
3.39396e-14
2.04991e-15
-8.76337e-15
-7.08584e-15
-1.30256e-15
3.39953e-15
5.50284e-15
5.75465e-15
5.38964e-15
5.12103e-15
5.06618e-15
5.09889e-15
5.12293e-15
5.12479e-15
5.12092e-15
5.11966e-15
5.12005e-15
5.12029e-15
5.12027e-15
5.12024e-15
5.12024e-15
5.12024e-15
5.16715e-32
-7.71619e-33
-4.4595e-31
-1.10704e-30
2.33334e-31
8.2432e-30
1.9993e-29
-2.42702e-30
-1.36622e-28
-3.41882e-28
-3.74254e-29
2.00566e-27
5.47342e-27
2.4503e-27
-2.53607e-26
-8.03392e-26
-6.88221e-26
2.59356e-25
1.04873e-24
1.38501e-24
-1.77305e-24
-1.16446e-23
-2.17773e-23
-7.01457e-25
1.01577e-22
2.69987e-22
2.46417e-22
-5.56787e-22
-2.53844e-21
-4.28925e-21
-6.53291e-22
1.58277e-20
4.41639e-20
5.39803e-20
-2.72715e-20
-2.73056e-19
-6.15175e-19
-6.35628e-19
4.78769e-19
3.40141e-18
7.26e-18
7.87727e-18
-2.3815e-18
-3.01414e-17
-7.0278e-17
-9.27578e-17
-3.94471e-17
1.51324e-16
4.82345e-16
8.14849e-16
8.2423e-16
8.06645e-17
-1.6832e-15
-4.15797e-15
-6.09815e-15
-5.35688e-15
3.53326e-16
1.18852e-14
2.66383e-14
3.69741e-14
3.01984e-14
-9.00285e-15
-9.36314e-14
-2.28112e-13
-4.02933e-13
-5.92764e-13
-7.59874e-13
-8.6286e-13
-8.68493e-13
-7.6286e-13
-5.57677e-13
-2.89071e-13
-8.6913e-15
2.30262e-13
3.87642e-13
4.46811e-13
4.17427e-13
3.29627e-13
2.21855e-13
1.27228e-13
6.40284e-14
3.38586e-14
2.69531e-14
3.05594e-14
3.54553e-14
3.7981e-14
3.83619e-14
3.79777e-14
3.76955e-14
3.76507e-14
3.76908e-14
3.77131e-14
3.77123e-14
3.77082e-14
3.77075e-14
3.7708e-14
3.77082e-14
3.77081e-14
3.77081e-14
3.77081e-14
1.12782e-31
3.34989e-31
-1.69974e-31
-2.83085e-30
-6.22044e-30
3.23807e-30
5.05855e-29
1.10881e-28
-3.9602e-29
-8.1286e-28
-1.87851e-27
8.82513e-29
1.15743e-26
2.97732e-26
1.07196e-26
-1.41507e-25
-4.30511e-25
-3.53193e-25
1.385e-24
5.48921e-24
7.25477e-24
-8.70323e-24
-5.87585e-23
-1.12037e-22
-1.50163e-23
4.81941e-22
1.33458e-21
1.35636e-21
-2.26494e-21
-1.17501e-20
-2.14011e-20
-8.14299e-21
6.4257e-20
2.00538e-19
2.80373e-19
-1.43091e-20
-1.06054e-18
-2.72274e-18
-3.42388e-18
3.04992e-19
1.2107e-17
3.04318e-17
4.07923e-17
1.24165e-17
-8.89501e-17
-2.63049e-16
-4.20463e-16
-3.50863e-16
2.20422e-16
1.43514e-15
2.99291e-15
3.89845e-15
2.55836e-15
-2.4947e-15
-1.12317e-14
-2.05821e-14
-2.37005e-14
-1.1223e-14
2.47745e-14
8.45956e-14
1.54558e-13
2.03667e-13
1.86525e-13
5.3979e-14
-2.30094e-13
-6.70804e-13
-1.23006e-12
-1.82656e-12
-2.35065e-12
-2.69137e-12
-2.76775e-12
-2.55391e-12
-2.08905e-12
-1.46811e-12
-8.15642e-13
-2.50867e-13
1.44483e-13
3.44732e-13
3.78853e-13
3.10516e-13
2.08987e-13
1.24181e-13
7.61136e-14
6.02221e-14
6.13526e-14
6.63445e-14
6.92252e-14
6.96809e-14
6.92638e-14
6.89792e-14
6.89526e-14
6.89988e-14
6.90171e-14
6.90134e-14
6.90097e-14
6.90097e-14
6.90102e-14
6.90103e-14
6.90102e-14
6.90102e-14
3.0649e-32
9.14614e-31
1.83611e-30
-1.73501e-30
-1.74514e-29
-3.37346e-29
2.98557e-29
3.02369e-28
5.96767e-28
-3.72946e-28
-4.72291e-27
-1.00656e-26
2.18382e-27
6.53628e-26
1.58476e-25
4.26178e-26
-7.7385e-25
-2.26155e-24
-1.77307e-24
7.25474e-24
2.81789e-23
3.72703e-23
-4.17513e-23
-2.90516e-22
-5.6462e-22
-1.3081e-22
2.23065e-21
6.44714e-21
7.19976e-21
-8.64722e-21
-5.28602e-20
-1.03525e-19
-6.03684e-20
2.46678e-19
8.78389e-19
1.38167e-18
4.13606e-19
-3.84125e-18
-1.14754e-17
-1.69067e-17
-6.07877e-18
3.8647e-17
1.19102e-16
1.89495e-16
1.34174e-16
-2.01726e-16
-8.8728e-16
-1.69746e-15
-1.93888e-15
-5.34631e-16
3.40688e-15
9.53305e-15
1.51377e-14
1.49246e-14
2.71761e-15
-2.43724e-14
-6.01795e-14
-8.46977e-14
-6.40051e-14
4.18803e-14
2.62677e-13
5.96828e-13
9.93777e-13
1.3493e-12
1.52119e-12
1.36574e-12
7.86469e-13
-2.21117e-13
-1.54684e-12
-2.97775e-12
-4.2456e-12
-5.0971e-12
-5.36508e-12
-5.01675e-12
-4.16234e-12
-3.0203e-12
-1.84976e-12
-8.73251e-13
-2.1717e-13
1.08141e-13
1.8374e-13
1.28319e-13
4.38098e-14
-1.46418e-14
-3.71191e-14
-3.76569e-14
-3.24011e-14
-2.92726e-14
-2.88609e-14
-2.93439e-14
-2.96179e-14
-2.96177e-14
-2.95673e-14
-2.95551e-14
-2.9561e-14
-2.95637e-14
-2.95632e-14
-2.95628e-14
-2.95628e-14
-2.95629e-14
-4.84216e-31
7.11834e-31
5.65126e-30
9.65805e-30
-1.44265e-29
-1.04459e-28
-1.75843e-28
2.34088e-28
1.76024e-27
3.10984e-27
-2.91468e-27
-2.67946e-26
-5.25444e-26
2.12474e-26
3.61169e-25
8.25122e-25
1.43225e-25
-4.14716e-24
-1.16446e-23
-8.7033e-24
3.72702e-23
1.41857e-22
1.87767e-22
-1.95631e-22
-1.40715e-21
-2.78691e-21
-9.06926e-22
1.00633e-20
3.04279e-20
3.69558e-20
-3.02198e-20
-2.30814e-19
-4.85648e-19
-3.72128e-19
8.81528e-19
3.70456e-18
6.49224e-18
3.79304e-18
-1.26645e-17
-4.59223e-17
-7.77465e-17
-5.414e-17
1.03399e-16
4.32008e-16
8.04823e-16
8.18287e-16
-1.60056e-16
-2.61324e-15
-6.14125e-15
-8.69082e-15
-6.47234e-15
4.58121e-15
2.5489e-14
5.0032e-14
6.2378e-14
4.01888e-14
-3.40883e-14
-1.54554e-13
-2.71897e-13
-2.82851e-13
-4.06311e-14
6.07307e-13
1.75878e-12
3.39127e-12
5.31799e-12
7.19145e-12
8.56754e-12
9.02053e-12
8.27651e-12
6.31926e-12
3.4269e-12
1.18958e-13
-2.975e-12
-5.28579e-12
-6.45951e-12
-6.4458e-12
-5.48933e-12
-4.02715e-12
-2.52998e-12
-1.34994e-12
-6.35064e-13
-3.38976e-13
-3.05241e-13
-3.70683e-13
-4.32656e-13
-4.59285e-13
-4.607e-13
-4.55166e-13
-4.52024e-13
-4.51796e-13
-4.52349e-13
-4.52582e-13
-4.52548e-13
-4.52499e-13
-4.52495e-13
-4.52502e-13
-4.52503e-13
-4.52502e-13
-4.52502e-13
-4.52502e-13
-1.41496e-30
-2.63099e-30
5.75613e-30
3.37821e-29
4.80587e-29
-1.07341e-28
-6.06905e-28
-8.75592e-28
1.66846e-27
9.97736e-27
1.56432e-26
-2.05424e-26
-1.48406e-25
-2.66907e-25
1.64015e-25
1.95244e-24
4.20061e-24
3.07157e-25
-2.17773e-23
-5.87586e-23
-4.17515e-23
1.87766e-22
7.00231e-22
9.27544e-22
-8.94717e-22
-6.67568e-21
-1.34708e-20
-5.5973e-21
4.4205e-20
1.40253e-19
1.83773e-19
-9.13522e-20
-9.76671e-19
-2.20938e-18
-2.06477e-18
2.84447e-18
1.50044e-17
2.91668e-17
2.40991e-17
-3.60296e-17
-1.73622e-16
-3.35441e-16
-3.25522e-16
1.81388e-16
1.4312e-15
3.14593e-15
4.02854e-15
1.71208e-15
-6.20631e-15
-1.97657e-14
-3.36419e-14
-3.57233e-14
-1.02398e-14
5.26357e-14
1.42405e-13
2.1605e-13
1.9917e-13
1.09253e-14
-3.84765e-13
-9.1372e-13
-1.3389e-12
-1.25548e-12
-1.60573e-13
2.40006e-12
6.64161e-12
1.23704e-11
1.89097e-11
2.51762e-11
2.99114e-11
3.20129e-11
3.08631e-11
2.65406e-11
1.98358e-11
1.20533e-11
4.65773e-12
-1.12506e-12
-4.62256e-12
-5.8384e-12
-5.34374e-12
-3.98787e-12
-2.55687e-12
-1.5296e-12
-1.02069e-12
-8.93076e-13
-9.36747e-13
-1.00099e-12
-1.03071e-12
-1.03237e-12
-1.02652e-12
-1.02355e-12
-1.02357e-12
-1.02416e-12
-1.02433e-12
-1.02426e-12
-1.02423e-12
-1.02423e-12
-1.02423e-12
-1.02423e-12
-1.02423e-12
-1.02423e-12
-1.36927e-30
-1.03067e-29
-1.21541e-29
4.18527e-29
1.95226e-28
2.22539e-28
-7.40512e-28
-3.42065e-27
-4.12448e-27
1.11148e-26
5.50425e-26
7.56273e-26
-1.34898e-25
-8.02253e-25
-1.31729e-24
1.12593e-24
1.03243e-23
2.09001e-23
-7.01313e-25
-1.12037e-22
-2.90516e-22
-1.95632e-22
9.27543e-22
3.38872e-21
4.49213e-21
-3.99089e-21
-3.10132e-20
-6.37514e-20
-3.20135e-20
1.88836e-19
6.31117e-19
8.86463e-19
-1.98377e-19
-3.99648e-18
-9.74475e-18
-1.06388e-17
7.69787e-18
5.814e-17
1.25413e-16
1.30421e-16
-7.47302e-17
-6.14755e-16
-1.36107e-15
-1.64589e-15
-2.08349e-16
4.19787e-15
1.12884e-14