/*--------------------------------*- C++ -*----------------------------------*\
  =========                 |
  \\      /  F ield         | OpenFOAM: The Open Source CFD Toolbox
   \\    /   O peration     | Website:  https://openfoam.org
    \\  /    A nd           | Version:  6
     \\/     M anipulation  |
\*---------------------------------------------------------------------------*/
FoamFile
{
    version     2.0;
    format      ascii;
    class       volVectorField;
    location    "38.3";
    object      U;
}
// * * * * * * * * * * * * * * * * * * * * * * * * * * * * * * * * * * * * * //

dimensions      [0 1 -1 0 0 0 0];

internalField   nonuniform List<vector> 
8800
(
(0.987188 -0.0766667 0)
(1.0019 -0.0551917 0)
(0.999748 -0.0285506 0)
(1.00004 -0.0151431 0)
(1.00006 -0.00853836 0)
(1.00005 -0.00503652 0)
(1.00003 -0.00300461 0)
(1 -0.00172343 0)
(0.999985 -0.000826186 0)
(1.00005 -0.000112133 0)
(0.999988 0.000611147 0)
(1 0.00137139 0)
(1.00001 0.00239898 0)
(1.00002 0.00398225 0)
(1.00002 0.0066211 0)
(1.00001 0.0113619 0)
(0.999906 0.0208087 0)
(0.999153 0.0386674 0)
(1.00709 0.0724553 0)
(0.771213 0.0366605 0)
(0.363046 -0.0160198 0)
(1.04329 -0.0768291 0)
(1.0846 -0.0704705 0)
(1.04521 -0.0535733 0)
(1.02327 -0.0389295 0)
(1.01195 -0.0262577 0)
(1.00635 -0.0169182 0)
(1.00355 -0.010414 0)
(1.00213 -0.00576377 0)
(1.00144 -0.00211712 0)
(1.00131 0.00118435 0)
(1.00169 0.00454931 0)
(1.00267 0.00849583 0)
(1.00464 0.0138634 0)
(1.00858 0.0215983 0)
(1.01655 0.0325789 0)
(1.03247 0.0464975 0)
(1.06265 0.0616223 0)
(1.09188 0.0760714 0)
(0.838714 0.0565499 0)
(0.216776 -0.00243234 0)
(1.07585 -0.05017 0)
(1.09987 -0.0483614 0)
(1.06461 -0.0405205 0)
(1.03994 -0.0336647 0)
(1.02379 -0.0261548 0)
(1.01403 -0.0186182 0)
(1.0085 -0.0118461 0)
(1.00555 -0.00600616 0)
(1.00432 -0.0006031 0)
(1.00467 0.00463772 0)
(1.00661 0.0100189 0)
(1.0106 0.0161241 0)
(1.01792 0.02318 0)
(1.03054 0.03068 0)
(1.05062 0.0377352 0)
(1.08035 0.0444373 0)
(1.1063 0.0512743 0)
(0.94265 0.0415824 0)
(0.216249 0.00245726 0)
(0.175058 -0.000819621 0)
(1.01755 -0.0355358 0)
(1.10515 -0.0414634 0)
(1.0782 -0.0361648 0)
(1.05333 -0.0302443 0)
(1.03604 -0.0247009 0)
(1.02387 -0.0190308 0)
(1.01579 -0.0129841 0)
(1.01097 -0.0068236 0)
(1.00881 -0.000532758 0)
(1.00941 0.00568811 0)
(1.01268 0.011692 0)
(1.01888 0.0175693 0)
(1.02878 0.0231997 0)
(1.04326 0.028543 0)
(1.06379 0.0340545 0)
(1.09362 0.0400613 0)
(1.09354 0.0418565 0)
(0.827451 0.0228663 0)
(0.17417 0.000847489 0)
(0.153804 -0.000613703 0)
(0.955896 -0.0255202 0)
(1.10332 -0.0352335 0)
(1.08753 -0.0327799 0)
(1.0615 -0.0281428 0)
(1.04387 -0.0231514 0)
(1.03146 -0.0179777 0)
(1.02266 -0.0125253 0)
(1.0169 -0.00665075 0)
(1.01411 -0.000218104 0)
(1.01484 0.00623754 0)
(1.01885 0.0121176 0)
(1.02586 0.0174232 0)
(1.03616 0.0223844 0)
(1.05076 0.0272065 0)
(1.07201 0.0317885 0)
(1.1002 0.0357602 0)
(1.06836 0.0338771 0)
(0.740104 0.0142494 0)
(0.152471 0.000645104 0)
(0.139371 -0.000470448 0)
(0.898799 -0.0191513 0)
(1.09554 -0.0302196 0)
(1.09555 -0.0293619 0)
(1.06896 -0.0256491 0)
(1.05049 -0.0215564 0)
(1.0376 -0.0168702 0)
(1.02855 -0.0116627 0)
(1.02251 -0.00599351 0)
(1.01947 0.000264872 0)
(1.02017 0.0065344 0)
(1.0243 0.0121595 0)
(1.03143 0.0171573 0)
(1.04199 0.0216842 0)
(1.0572 0.0257178 0)
(1.07943 0.0292516 0)
(1.10254 0.0319309 0)
(1.03652 0.0279138 0)
(0.673884 0.0101282 0)
(0.137496 0.000506521 0)
(0.128765 -0.000365215 0)
(0.848982 -0.0147956 0)
(1.08297 -0.0261046 0)
(1.10109 -0.0264567 0)
(1.07569 -0.0232344 0)
(1.05671 -0.0196694 0)
(1.04341 -0.0155119 0)
(1.03401 -0.0106788 0)
(1.02773 -0.00523555 0)
(1.02451 0.000839594 0)
(1.02511 0.00690267 0)
(1.02924 0.012249 0)
(1.03653 0.0168341 0)
(1.04736 0.0207854 0)
(1.06295 0.0241737 0)
(1.08561 0.0271709 0)
(1.10178 0.0289791 0)
(1.00197 0.0233257 0)
(0.62251 0.00774003 0)
(0.126231 0.000407665 0)
(0.120653 -0.000284869 0)
(0.806594 -0.0116421 0)
(1.0675 -0.0225131 0)
(1.10448 -0.0238318 0)
(1.08181 -0.0209925 0)
(1.06239 -0.0176494 0)
(1.04879 -0.0138609 0)
(1.03913 -0.00942691 0)
(1.03259 -0.00429441 0)
(1.02915 0.00153805 0)
(1.02961 0.00732754 0)
(1.03374 0.0123122 0)
(1.0411 0.0164094 0)
(1.05207 0.0198161 0)
(1.06795 0.0227786 0)
(1.091 0.0255418 0)
(1.09823 0.0265148 0)
(0.967253 0.0197002 0)
(0.581454 0.00617583 0)
(0.117319 0.000335431 0)
(0.114348 -0.000221829 0)
(0.770866 -0.00927596 0)
(1.05047 -0.0193426 0)
(1.10668 -0.0214589 0)
(1.08752 -0.0190622 0)
(1.0677 -0.0159048 0)
(1.05386 -0.0122431 0)
(1.04402 -0.00798255 0)
(1.03725 -0.0031181 0)
(1.03358 0.0023828 0)
(1.03387 0.00780043 0)
(1.03792 0.0123829 0)
(1.04526 0.0161196 0)
(1.05627 0.0192286 0)
(1.07237 0.0218708 0)
(1.09511 0.0242601 0)
(1.09196 0.024412 0)
(0.933681 0.0168483 0)
(0.547749 0.00508755 0)
(0.110043 0.000282089 0)
(0.109423 -0.000170885 0)
(0.740902 -0.00742982 0)
(1.033 -0.0165048 0)
(1.10783 -0.0191229 0)
(1.09282 -0.0170189 0)
(1.07278 -0.0139731 0)
(1.0587 -0.0104924 0)
(1.04864 -0.00646198 0)
(1.04167 -0.0018388 0)
(1.03774 0.00339881 0)
(1.03781 0.00850502 0)
(1.0417 0.0126853 0)
(1.04895 0.0159774 0)
(1.06 0.0186646 0)
(1.07628 0.021004 0)
(1.09799 0.0230913 0)
(1.08339 0.0225457 0)
(0.901924 0.0146091 0)
(0.519415 0.00430403 0)
(0.103938 0.000243106 0)
(0.105594 -0.000129109 0)
(0.71589 -0.00593475 0)
(1.01594 -0.0139632 0)
(1.10823 -0.016931 0)
(1.0981 -0.0151286 0)
(1.0777 -0.0121129 0)
(1.06331 -0.0086786 0)
(1.0531 -0.00474837 0)
(1.04595 -0.000305327 0)
(1.04178 0.00462745 0)
(1.04154 0.0093308 0)
(1.04515 0.0131308 0)
(1.05222 0.016089 0)
(1.06323 0.0184757 0)
(1.0798 0.020546 0)
(1.09968 0.0222546 0)
(1.07303 0.0210321 0)
(0.87215 0.012896 0)
(0.495045 0.00374598 0)
(0.0986728 0.000217251 0)
(0.102675 -9.22593e-05 0)
(0.695244 -0.00466444 0)
(0.999878 -0.0115952 0)
(1.10775 -0.014714 0)
(1.10304 -0.0132043 0)
(1.08261 -0.0102384 0)
(1.06794 -0.00679393 0)
(1.05746 -0.00288841 0)
(1.05001 0.00141108 0)
(1.04549 0.00610844 0)
(1.04489 0.0104854 0)
(1.04824 0.0138751 0)
(1.05515 0.0164554 0)
(1.06617 0.0185244 0)
(1.08285 0.0203116 0)
(1.10034 0.0216059 0)
(1.0611 0.0197168 0)
(0.844323 0.01156 0)
(0.473645 0.00333697 0)
(0.094 0.000198869 0)
(0.100554 -5.83019e-05 0)
(0.67852 -0.00353546 0)
(0.985386 -0.00936592 0)
(1.10683 -0.0123904 0)
(1.1077 -0.0109665 0)
(1.08744 -0.00797743 0)
(1.07242 -0.00459123 0)
(1.06162 -0.00079062 0)
(1.05383 0.00339369 0)
(1.04891 0.00789782 0)
(1.04785 0.0119664 0)
(1.05083 0.0149976 0)
(1.05756 0.0171732 0)
(1.06856 0.0188155 0)
(1.0853 0.0202435 0)
(1.10003 0.0211702 0)
(1.048 0.0186662 0)
(0.818265 0.0105591 0)
(0.454451 0.00305306 0)
(0.0897384 0.000188525 0)
(0.0991731 -2.41391e-05 0)
(0.665474 -0.00246885 0)
(0.972791 -0.00716961 0)
(1.10575 -0.0099711 0)
(1.11229 -0.00865547 0)
(1.09232 -0.00562427 0)
(1.0769 -0.00215267 0)
(1.06575 0.00168677 0)
(1.05756 0.00583051 0)
(1.05208 0.0100902 0)
(1.05051 0.0137557 0)
(1.05307 0.0163532 0)
(1.05949 0.0181099 0)
(1.07046 0.019412 0)
(1.08738 0.02055 0)
(1.09874 0.0210353 0)
(1.0339 0.0178954 0)
(0.793694 0.00982821 0)
(0.436871 0.00286508 0)
(0.0857391 0.000184539 0)
(0.098523 1.09904e-05 0)
(0.656017 -0.00141022 0)
(0.962456 -0.00492614 0)
(1.10468 -0.00730841 0)
(1.11673 -0.00605654 0)
(1.09731 -0.00302299 0)
(1.08155 0.000588907 0)
(1.07 0.00453838 0)
(1.06125 0.0086396 0)
(1.05514 0.0127588 0)
(1.0529 0.016133 0)
(1.05496 0.0182843 0)
(1.06108 0.0195976 0)
(1.07191 0.0204747 0)
(1.08869 0.0211834 0)
(1.09624 0.0211111 0)
(1.01882 0.017292 0)
(0.770366 0.00929864 0)
(0.420455 0.00274945 0)
(0.0818782 0.000185025 0)
(0.0986265 4.14987e-05 0)
(0.650139 -0.000306806 0)
(0.954779 -0.00259806 0)
(1.1041 -0.00434767 0)
(1.12121 -0.00294255 0)
(1.10249 0.000238246 0)
(1.08632 0.00394776 0)
(1.07424 0.0079404 0)
(1.06492 0.0120574 0)
(1.05808 0.0160218 0)
(1.05499 0.0190211 0)
(1.05631 0.0206685 0)
(1.062 0.0214331 0)
(1.07273 0.0217249 0)
(1.08929 0.0220155 0)
(1.09239 0.0214378 0)
(1.00302 0.0169843 0)
(0.748016 0.00900963 0)
(0.404797 0.00271529 0)
(0.078061 0.000191006 0)
(0.0995512 0.000101357 0)
(0.648015 0.000877494 0)
(0.950053 -9.94784e-05 0)
(1.10447 -0.00109783 0)
(1.12608 0.000539264 0)
(1.10782 0.00390428 0)
(1.09112 0.00780732 0)
(1.07846 0.0119818 0)
(1.06832 0.0161838 0)
(1.06046 0.0200277 0)
(1.05638 0.0226549 0)
(1.05696 0.0237775 0)
(1.06215 0.0239223 0)
(1.07273 0.0236573 0)
(1.08887 0.0233928 0)
(1.08726 0.0221626 0)
(0.986332 0.0169899 0)
(0.726216 0.00893346 0)
(0.389465 0.00275736 0)
(0.0741631 0.00020266 0)
(0.101442 0.000144126 0)
(0.649633 0.00202622 0)
(0.948584 0.00263417 0)
(1.10597 0.0025668 0)
(1.13129 0.00443926 0)
(1.11358 0.00801013 0)
(1.09641 0.0123015 0)
(1.0831 0.0168408 0)
(1.0721 0.0212156 0)
(1.06305 0.0249424 0)
(1.05775 0.0271375 0)
(1.05728 0.0276689 0)
(1.06173 0.0271936 0)
(1.07198 0.0263553 0)
(1.08733 0.0253746 0)
(1.08058 0.0232848 0)
(0.968611 0.0172824 0)
(0.704639 0.00908235 0)
(0.37409 0.00287087 0)
(0.0700899 0.000218372 0)
(0.10443 0.000209549 0)
(0.655921 0.00349312 0)
(0.95087 0.00562227 0)
(1.10911 0.00678888 0)
(1.13703 0.00918677 0)
(1.11986 0.0131572 0)
(1.10213 0.0178438 0)
(1.08789 0.0226954 0)
(1.07569 0.0272734 0)
(1.0652 0.0309727 0)
(1.05833 0.0327708 0)
(1.05669 0.0325927 0)
(1.06038 0.0313253 0)
(1.07019 0.0297442 0)
(1.08436 0.0280048 0)
(1.07204 0.024897 0)
(0.949765 0.0180629 0)
(0.682754 0.00952055 0)
(0.358224 0.00307127 0)
(0.0657528 0.000237896 0)
(0.108818 0.000295043 0)
(0.66706 0.00518689 0)
(0.957154 0.00899476 0)
(1.11456 0.0115789 0)
(1.14382 0.0147132 0)
(1.1268 0.0193193 0)
(1.10834 0.0245564 0)
(1.09301 0.0298976 0)
(1.07937 0.0347909 0)
(1.06703 0.0383615 0)
(1.05835 0.0395528 0)
(1.05531 0.038605 0)
(1.05795 0.0364759 0)
(1.06722 0.0340493 0)
(1.07988 0.0315291 0)
(1.06159 0.0273423 0)
(0.929319 0.0194881 0)
(0.659857 0.0103406 0)
(0.341275 0.0033843 0)
(0.0610481 0.000261683 0)
(0.11489 0.000405702 0)
(0.683599 0.00720693 0)
(0.968271 0.0129945 0)
(1.12274 0.0170869 0)
(1.15204 0.0210578 0)
(1.13484 0.0264802 0)
(1.11545 0.0325042 0)
(1.09882 0.0385381 0)
(1.08339 0.0438641 0)
(1.06885 0.047436 0)
(1.05793 0.0480684 0)
(1.05311 0.046202 0)
(1.0545 0.0430797 0)
(1.06304 0.0397545 0)
(1.07385 0.036347 0)
(1.04886 0.0308239 0)
(0.906767 0.0217457 0)
(0.635024 0.0116686 0)
(0.322444 0.00383794 0)
(0.0558417 0.000291825 0)
(0.123065 0.000555645 0)
(0.706188 0.00977181 0)
(0.98471 0.017829 0)
(1.13408 0.023658 0)
(1.16198 0.0287291 0)
(1.14419 0.0353114 0)
(1.12356 0.0423916 0)
(1.1051 0.0492975 0)
(1.08731 0.0550879 0)
(1.06999 0.0585501 0)
(1.05648 0.0584049 0)
(1.04968 0.0554158 0)
(1.04969 0.0512104 0)
(1.05738 0.0469088 0)
(1.06608 0.0424593 0)
(1.0335 0.03548 0)
(0.881496 0.0249956 0)
(0.607028 0.0135123 0)
(0.300848 0.00442267 0)
(0.0499656 0.000328324 0)
(0.134042 0.000773975 0)
(0.735847 0.0132943 0)
(1.00744 0.0239861 0)
(1.14954 0.0319043 0)
(1.17446 0.0385403 0)
(1.15543 0.0467947 0)
(1.13308 0.0551505 0)
(1.11221 0.0629621 0)
(1.0915 0.0690777 0)
(1.07088 0.0720822 0)
(1.05427 0.0707889 0)
(1.04514 0.0664195 0)
(1.04363 0.0609232 0)
(1.05032 0.0554951 0)
(1.05628 0.0500505 0)
(1.01526 0.041508 0)
(0.852569 0.0292547 0)
(0.574583 0.0157901 0)
(0.275761 0.00509661 0)
(0.0432984 0.000368088 0)
(0.149001 0.00111663 0)
(0.774312 0.0184014 0)
(1.03792 0.0322377 0)
(1.17019 0.0427264 0)
(1.19055 0.0516861 0)
(1.16894 0.0618692 0)
(1.14392 0.0716306 0)
(1.11974 0.0802485 0)
(1.09526 0.0863765 0)
(1.07069 0.0884495 0)
(1.05064 0.0854943 0)
(1.03908 0.0793914 0)
(1.03597 0.0724469 0)
(1.04172 0.0657813 0)
(1.04433 0.0592233 0)
(0.993489 0.0489777 0)
(0.818693 0.0343538 0)
(0.536577 0.0183413 0)
(0.246776 0.00578709 0)
(0.0358121 0.000404088 0)
(0.170055 0.00171944 0)
(0.824761 0.0262649 0)
(1.07889 0.0442935 0)
(1.19696 0.0579538 0)
(1.21071 0.0697151 0)
(1.18486 0.0817655 0)
(1.15592 0.092816 0)
(1.12741 0.101828 0)
(1.09841 0.107468 0)
(1.06932 0.108119 0)
(1.04554 0.103147 0)
(1.03136 0.0950075 0)
(1.02665 0.0862875 0)
(1.03123 0.078218 0)
(1.02978 0.0701708 0)
(0.967044 0.0577143 0)
(0.778648 0.0400887 0)
(0.49235 0.0210074 0)
(0.213995 0.00641645 0)
(0.0276505 0.000427145 0)
(0.200541 0.00305897 0)
(0.892972 0.0396549 0)
(1.13298 0.0639712 0)
(1.22986 0.081091 0)
(1.23451 0.0955977 0)
(1.20258 0.108931 0)
(1.16838 0.120353 0)
(1.13458 0.128797 0)
(1.10041 0.132984 0)
(1.06643 0.131411 0)
(1.03873 0.123809 0)
(1.02182 0.113312 0)
(1.0153 0.102616 0)
(1.01832 0.0928196 0)
(1.01145 0.0827586 0)
(0.93471 0.0674496 0)
(0.731429 0.0462615 0)
(0.442153 0.0236612 0)
(0.178517 0.00695553 0)
(0.0192551 0.000428969 0)
(0.242314 0.00923353 1.10264e-20)
(0.982938 0.0664767 9.4216e-21)
(1.19787 0.097925 -3.26722e-21)
(1.26618 0.116254 0)
(1.25908 0.133558 -8.08594e-35)
(1.21991 0.146338 1.17621e-21)
(1.17983 0.156386 -2.09041e-21)
(1.14019 0.162891 0)
(1.1004 0.164491 4.22804e-35)
(1.0611 0.159662 -2.52846e-21)
(1.02903 0.148582 0)
(1.0091 0.135253 -2.97521e-21)
(1.00036 0.122492 -8.75934e-21)
(1.00081 0.111078 -4.13433e-21)
(0.988022 0.0994406 -1.24352e-21)
(0.892995 0.0812821 -7.38853e-22)
(0.671786 0.0544998 0)
(0.383375 0.0272942 5.19158e-22)
(0.141221 0.00830402 6.1517e-22)
(0.0113429 0.00061511 1.12024e-20)
(0.270759 0.0244592 8.44811e-21)
(1.05713 0.108843 1.0552e-22)
(1.25073 0.146488 8.89796e-22)
(1.29951 0.165048 0)
(1.2807 0.182272 -4.16967e-21)
(1.23483 0.193179 -4.69586e-21)
(1.18889 0.201181 -2.12544e-21)
(1.14316 0.205392 -7.47808e-21)
(1.09721 0.204238 0)
(1.05166 0.195991 1.0789e-20)
(1.01402 0.181344 1.06533e-20)
(0.989989 0.165067 3.1605e-21)
(0.978503 0.150208 1.14677e-20)
(0.975491 0.137446 1.60599e-20)
(0.952462 0.123377 0)
(0.836188 0.0999833 2.27029e-20)
(0.601791 0.065866 3.2676e-20)
(0.324258 0.0331945 3.64046e-20)
(0.108452 0.0103367 -4.17989e-20)
(0.00492266 0.000499974 -7.9384e-22)
(0.271587 0.0407501 0)
(1.10381 0.163799 1.55092e-21)
(1.28689 0.205978 0)
(1.32572 0.224937 -5.68565e-21)
(1.29787 0.239059 0)
(1.24626 0.24648 -9.3407e-21)
(1.19462 0.250995 4.373e-21)
(1.143 0.251741 -1.51698e-20)
(1.09112 0.247111 -3.15717e-22)
(1.03967 0.235452 5.61591e-21)
(0.996884 0.218103 2.34722e-20)
(0.968915 0.200137 -6.08432e-23)
(0.954648 0.184204 -8.3491e-21)
(0.947639 0.169532 -1.52033e-20)
(0.914916 0.15067 1.80286e-20)
(0.791855 0.121008 -3.20058e-20)
(0.563887 0.0806029 -4.25227e-21)
(0.303494 0.041829 0)
(0.103269 0.0137878 6.09731e-25)
(0.00454882 0.000603372 0)
(0.264858 0.0545863 2.2588e-20)
(1.1285 0.222345 -1.06115e-20)
(1.30976 0.270275 -7.69325e-21)
(1.34327 0.289731 2.74191e-21)
(1.3092 0.300103 -4.57498e-21)
(1.25308 0.303349 1.96582e-20)
(1.19656 0.303651 9.17269e-21)
(1.13988 0.300325 0)
(1.08286 0.29199 -2.84068e-20)
(1.02637 0.277071 0)
(0.979088 0.257372 -1.23722e-20)
(0.947357 0.237831 -1.51972e-20)
(0.929121 0.220099 -9.11904e-21)
(0.916082 0.202264 -1.10687e-20)
(0.877068 0.17879 0)
(0.758784 0.144795 0)
(0.547271 0.0997663 -2.78785e-20)
(0.30519 0.0551104 5.52476e-21)
(0.111143 0.0198268 -3.2387e-21)
(0.0071293 0.00130896 -3.83523e-21)
(0.257225 0.0668525 -1.04654e-20)
(1.13882 0.280681 0)
(1.32255 0.335564 1.64469e-20)
(1.35315 0.355712 7.89337e-21)
(1.31471 0.362351 1.04654e-20)
(1.25505 0.361261 0)
(1.19468 0.357224 9.06878e-21)
(1.13396 0.349838 1.6898e-20)
(1.07276 0.3378 1.46205e-20)
(1.01198 0.31956 2.65193e-20)
(0.960736 0.296896 0)
(0.925191 0.274739 -3.28386e-20)
(0.902311 0.254282 -1.9744e-20)
(0.883129 0.233332 -1.16627e-20)
(0.841283 0.207442 7.16411e-20)
(0.732939 0.171416 8.57409e-21)
(0.539592 0.122558 4.05112e-20)
(0.313527 0.07132 -1.92263e-19)
(0.123519 0.028194 1.14087e-19)
(0.0111491 0.00266532 -1.39262e-19)
(0.25008 0.0778991 -6.76059e-21)
(1.13997 0.336973 1.93164e-21)
(1.32784 0.399961 -1.94292e-21)
(1.35676 0.421052 -8.54815e-21)
(1.31519 0.424065 -9.16316e-21)
(1.25274 0.41869 3.53544e-22)
(1.18941 0.410528 -9.81777e-21)
(1.12551 0.399352 1.75431e-20)
(1.06089 0.383714 -3.14756e-20)
(0.996418 0.361848 0)
(0.941432 0.335524 -1.49121e-20)
(0.902181 0.309937 -3.24297e-22)
(0.874891 0.286495 -2.15943e-20)
(0.851085 0.263288 0)
(0.809062 0.236391 -1.55182e-20)
(0.710656 0.199187 -3.70457e-20)
(0.534016 0.146721 9.96191e-20)
(0.322346 0.0891187 -9.82688e-20)
(0.135501 0.0378208 1.39915e-19)
(0.0150113 0.00436149 -1.47248e-19)
(0.2442 0.0881696 -1.04102e-22)
(1.13544 0.390635 -1.163e-21)
(1.32751 0.462475 -6.18927e-21)
(1.35528 0.484701 3.66472e-21)
(1.31149 0.484322 -4.6505e-21)
(1.24697 0.474898 0)
(1.18138 0.46298 -9.27156e-21)
(1.11492 0.448302 -1.84029e-20)
(1.04738 0.429149 -1.63978e-20)
(0.979499 0.403392 0)
(0.921017 0.372994 -1.54997e-20)
(0.878334 0.343866 -1.9118e-20)
(0.847442 0.3177 2.34075e-20)
(0.820575 0.293003 -1.42e-20)
(0.779304 0.265379 -6.76399e-20)
(0.689913 0.227052 4.05156e-20)
(0.527403 0.171205 1.22004e-20)
(0.32816 0.107124 0)
(0.144488 0.0476927 -1.35167e-19)
(0.0181461 0.00617247 -5.01878e-21)
(0.239692 0.0979864 -2.92117e-22)
(1.12757 0.441563 6.6802e-22)
(1.323 0.522721 3.02859e-21)
(1.34973 0.546038 1.26967e-20)
(1.30444 0.542597 -1.75606e-20)
(1.23851 0.529542 1.94312e-20)
(1.17122 0.51428 1.9929e-20)
(1.10261 0.496359 -2.94032e-20)
(1.0324 0.47376 1.00191e-20)
(0.961339 0.443978 -6.52285e-20)
(0.899549 0.409424 -1.74794e-20)
(0.853919 0.376918 0)
(0.82035 0.348365 2.53522e-20)
(0.791665 0.322491 3.03285e-20)
(0.751471 0.294316 3.6334e-20)
(0.668174 0.254593 -4.38994e-20)
(0.517854 0.195283 -1.30465e-20)
(0.328654 0.124465 1.53877e-20)
(0.148792 0.0567963 0)
(0.0200518 0.00780508 -1.08702e-20)
(0.236422 0.107472 -1.67671e-21)
(1.11806 0.489853 -4.65446e-22)
(1.31555 0.580785 -2.86092e-21)
(1.34102 0.60475 7.95106e-21)
(1.29475 0.598614 -8.14193e-21)
(1.22798 0.5824 -8.20039e-22)
(1.15941 0.564208 -2.17005e-20)
(1.08893 0.543293 -1.06202e-20)
(1.01625 0.517318 -2.84538e-20)
(0.94213 0.483538 5.16416e-23)
(0.877263 0.444914 -5.47563e-20)
(0.829096 0.409151 4.59451e-20)
(0.793592 0.378351 -2.77716e-20)
(0.763886 0.351128 3.33265e-20)
(0.724726 0.321843 0)
(0.646193 0.280073 -2.37249e-20)
(0.505134 0.217156 -1.20835e-22)
(0.32414 0.139577 -6.68404e-20)
(0.148273 0.0640529 -9.87239e-21)
(0.0206149 0.00897423 0)
(0.234287 0.116845 0)
(1.10794 0.535772 2.83208e-22)
(1.30588 0.635957 -3.7616e-21)
(1.32998 0.660652 -7.51574e-21)
(1.2831 0.65223 -9.99671e-21)
(1.21592 0.633341 0)
(1.14636 0.612577 -1.00158e-20)
(1.07421 0.588891 -2.34671e-22)
(0.999196 0.559687 6.09206e-20)
(0.922146 0.522032 -8.97151e-21)
(0.854376 0.47948 -3.95028e-20)
(0.804 0.440521 2.39271e-20)
(0.767041 0.407417 -4.18017e-22)
(0.736676 0.378553 3.54163e-20)
(0.698257 0.34776 2.18458e-20)
(0.623267 0.303436 -5.12001e-20)
(0.48944 0.236335 6.0934e-20)
(0.314713 0.151778 1.80829e-20)
(0.143917 0.0689909 7.49094e-20)
(0.0200205 0.0095859 -2.02718e-19)
(0.233193 0.126239 -2.06437e-21)
(1.09789 0.579517 1.83161e-21)
(1.29483 0.688353 -5.08703e-22)
(1.3173 0.713707 6.33021e-21)
(1.27004 0.703355 0)
(1.20274 0.682237 -9.21447e-21)
(1.13241 0.659222 3.33978e-20)
(1.05876 0.632988 2.32941e-20)
(0.981537 0.600753 0)
(0.901658 0.559437 -1.28833e-19)
(0.831102 0.5131 1.06658e-19)
(0.778723 0.470944 0)
(0.740562 0.435356 3.23396e-20)
(0.709762 0.404586 -4.12028e-22)
(0.671848 0.371879 -6.96643e-20)
(0.599289 0.324468 2.73387e-20)
(0.470508 0.252344 0)
(0.301016 0.16068 9.74224e-20)
(0.135869 0.0715117 0)
(0.0183868 0.00961458 -9.57444e-20)
(0.232925 0.135682 2.91258e-21)
(1.0883 0.621233 3.62153e-21)
(1.2829 0.737979 -1.9638e-22)
(1.30358 0.763925 0)
(1.25607 0.751966 -8.83104e-21)
(1.18884 0.729 0)
(1.11787 0.704004 -3.31883e-20)
(1.04285 0.675451 -1.09305e-20)
(0.963543 0.640438 1.07773e-20)
(0.88092 0.595733 -6.37002e-20)
(0.807609 0.545767 1.10283e-20)
(0.753259 0.500351 0)
(0.714034 0.462071 -6.90325e-20)
(0.68287 0.429056 4.17389e-22)
(0.645254 0.393933 0)
(0.574198 0.34281 4.17223e-22)
(0.448688 0.264807 8.85105e-20)
(0.283477 0.165879 -8.41196e-20)
(0.124937 0.0717557 2.49087e-20)
(0.0161055 0.00912406 0)
(0.2331 0.145025 0)
(1.07937 0.660928 5.18221e-21)
(1.27058 0.784935 2.14077e-21)
(1.28928 0.811351 -4.84628e-22)
(1.24159 0.798059 -3.27485e-21)
(1.17452 0.773565 -2.0548e-20)
(1.10303 0.746833 1.23415e-20)
(1.02673 0.716194 -1.27775e-20)
(0.94546 0.678681 4.79265e-20)
(0.860145 0.63091 -1.0167e-19)
(0.784021 0.577493 -7.1806e-22)
(0.727642 0.528752 -3.03433e-20)
(0.687335 0.487523 1.11873e-19)
(0.655823 0.451931 -4.88635e-22)
(0.618264 0.413907 -5.39319e-20)
(0.547829 0.358381 -9.65899e-20)
(0.424324 0.273759 0)
(0.262801 0.16751 0)
(0.111814 0.0696524 2.68714e-20)
(0.0134059 0.00817204 -1.59434e-20)
(0.233924 0.154384 5.06793e-21)
(1.07115 0.698676 -1.26987e-20)
(1.25817 0.829319 -2.37696e-21)
(1.27478 0.856059 0)
(1.2269 0.84165 -3.25755e-22)
(1.16005 0.815893 -1.91495e-20)
(1.08811 0.787648 3.00366e-20)
(1.01066 0.755163 5.05641e-20)
(0.927511 0.715457 6.23139e-20)
(0.839531 0.664968 -8.30425e-20)
(0.760489 0.608326 -9.14182e-20)
(0.701895 0.556218 8.11312e-20)
(0.660401 0.511768 0)
(0.628479 0.473221 -2.44677e-20)
(0.590763 0.431767 -5.83537e-20)
(0.520235 0.371065 -6.93423e-20)
(0.397618 0.278965 -8.25529e-20)
(0.239703 0.165598 2.44857e-20)
(0.0970966 0.0652629 -1.4456e-20)
(0.0103756 0.00679342 5.96077e-23)
(0.23495 0.163583 0)
(1.06365 0.734829 0)
(1.24586 0.871225 5.39371e-22)
(1.26033 0.898139 0)
(1.21228 0.882795 8.05654e-21)
(1.14565 0.855988 1.3258e-20)
(1.07331 0.826425 0)
(0.994807 0.792337 6.0435e-21)
(0.909892 0.75075 1.03963e-19)
(0.819274 0.697919 -1.90779e-19)
(0.737168 0.63834 0)
(0.676098 0.582875 -5.21424e-20)
(0.633174 0.534926 -5.91294e-22)
(0.6007 0.492952 -4.77604e-22)
(0.562647 0.447431 6.23285e-20)
(0.491445 0.380695 -7.33551e-23)
(0.36867 0.280326 -1.77694e-19)
(0.214542 0.160096 5.26837e-20)
(0.0818257 0.059115 1.56284e-20)
(0.00735496 0.00516961 0)
(0.235972 0.172666 -2.29064e-20)
(1.05659 0.769372 -1.00094e-20)
(1.23374 0.910719 -1.07278e-20)
(1.24615 0.937697 3.43863e-21)
(1.1979 0.921542 1.0947e-20)
(1.13148 0.893868 0)
(1.05881 0.863174 1.82414e-20)
(0.979351 0.827717 -1.33923e-20)
(0.892769 0.784565 7.87314e-22)
(0.799554 0.729788 1.4017e-20)
(0.714223 0.667612 1.18215e-19)
(0.650341 0.608885 -1.82996e-20)
(0.605591 0.557178 -6.88682e-20)
(0.572295 0.511175 -2.84894e-20)
(0.533744 0.460726 3.39181e-20)
(0.461545 0.386937 -3.73437e-23)
(0.338431 0.277686 4.79194e-20)
(0.188713 0.151474 -1.13348e-19)
(0.0667225 0.0516873 1.34522e-19)
(0.00450308 0.00343456 1.98596e-20)
(0.236761 0.18151 9.07719e-21)
(1.04995 0.802374 -5.91372e-21)
(1.22194 0.947926 1.27897e-21)
(1.23236 0.974859 4.39662e-21)
(1.1839 0.957983 -9.32936e-22)
(1.11767 0.929575 -2.32221e-20)
(1.04474 0.897917 5.39475e-21)
(0.964419 0.861312 -5.58529e-20)
(0.87629 0.816894 -1.14507e-19)
(0.780522 0.760575 -1.13642e-19)
(0.691818 0.696209 0)
(0.624717 0.634415 -8.01275e-20)
(0.577628 0.578776 9.9126e-20)
(0.543024 0.528017 0)
(0.50375 0.471396 -7.26069e-20)
(0.430556 0.389243 4.35136e-20)
(0.307561 0.270749 -5.14935e-20)
(0.163428 0.140098 -6.10425e-20)
(0.0527013 0.0435517 -1.08398e-19)
(0.00199468 0.00173239 -8.55832e-20)
(0.237861 0.190195 -1.06612e-20)
(1.04355 0.833794 6.34216e-21)
(1.21051 0.982909 1.38698e-20)
(1.21903 1.00971 7.76493e-21)
(1.17038 0.992199 2.70433e-21)
(1.10433 0.963177 -1.2677e-20)
(1.03118 0.930693 1.78803e-20)
(0.950113 0.893156 -5.74265e-20)
(0.860549 0.847756 -6.77486e-20)
(0.762311 0.790292 1.1882e-19)
(0.670097 0.724182 2.59324e-19)
(0.599368 0.659624 0)
(0.549319 0.600028 0)
(0.512589 0.543773 -3.28116e-20)
(0.472083 0.479214 0)
(0.398227 0.38668 9.37051e-20)
(0.277009 0.258706 1.10903e-19)
(0.140544 0.126066 0)
(0.0410368 0.0353004 0)
(-1.18896e-05 0.000215102 9.20279e-20)
(0.238568 0.198385 1.25569e-20)
(1.03739 0.86361 9.85092e-21)
(1.19947 1.01578 1.0308e-20)
(1.20622 1.04239 -9.16418e-21)
(1.15739 1.02429 1.30454e-21)
(1.09152 0.994736 1.32526e-20)
(1.01822 0.961554 -2.45204e-20)
(0.936508 0.923273 2.97326e-23)
(0.845635 0.877152 -1.02521e-21)
(0.745024 0.818926 -1.11694e-21)
(0.64923 0.751569 1.33514e-19)
(0.57447 0.684633 0)
(0.520769 0.621244 1.00105e-19)
(0.480745 0.558924 6.99493e-20)
(0.437843 0.484301 1.69612e-19)
(0.363576 0.378053 5.04424e-20)
(0.247564 0.239312 -5.98452e-20)
(0.12375 0.107395 -3.52261e-20)
(0.0362612 0.0261758 0)
(-0.000508008 -0.000901431 9.89394e-20)
(0.239574 0.206567 -2.93066e-20)
(1.03142 0.891989 0)
(1.18882 1.04659 1.30716e-20)
(1.19394 1.07297 -8.46629e-21)
(1.14499 1.05433 1.07112e-21)
(1.07928 1.02433 -1.45016e-20)
(1.00591 0.990554 4.77476e-20)
(0.923649 0.9517 -4.73885e-21)
(0.831597 0.905091 0)
(0.728749 0.846444 -1.31038e-19)
(0.629377 0.778378 -2.89988e-19)
(0.55022 0.709542 1.18035e-20)
(0.492193 0.64267 1.37687e-19)
(0.447425 0.574087 0)
(0.399986 0.487497 1.14388e-19)
(0.324195 0.362831 0)
(0.217132 0.208281 0)
(0.117029 0.0721321 -3.82035e-20)
(0.0611523 0.00253857 0)
(0.0253783 0.00604688 2.65327e-20)
(0.240103 0.214134 -3.35092e-20)
(1.02561 0.919072 0)
(1.17852 1.07553 2.25526e-20)
(1.18213 1.10168 0)
(1.13312 1.0826 -1.58281e-21)
(1.06756 1.05225 0)
(0.994185 1.018 2.39873e-21)
(0.911452 0.978781 7.87634e-21)
(0.818328 0.931948 8.47873e-21)
(0.713338 0.873238 -1.43826e-19)
(0.610398 0.805063 8.72154e-21)
(0.526424 0.734954 9.48538e-20)
(0.463293 0.664945 1.3429e-19)
(0.412 0.590121 1.80945e-20)
(0.356922 0.490758 8.95801e-20)
(0.275665 0.342796 0)
(0.17522 0.1646 1.26576e-19)
(0.0922271 0.0172739 -7.45306e-20)
(0.0328579 0.0570863 8.69365e-20)
(-0.0382328 0.449208 -1.0323e-19)
(0.240542 0.221509 2.82155e-20)
(1.01974 0.944776 4.16665e-20)
(1.16848 1.10293 0)
(1.17064 1.12897 1.1034e-21)
(1.1216 1.10966 6.37964e-21)
(1.05611 1.07919 1.74881e-20)
(0.982747 1.04472 1.66025e-20)
(0.899527 1.00548 0)
(0.805317 0.958839 5.63142e-20)
(0.69813 0.900626 -7.51815e-21)
(0.591396 0.833116 0)
(0.501916 0.762647 0)
(0.432509 0.689838 1.19834e-19)
(0.372641 0.608319 -5.57793e-20)
(0.306005 0.496834 -9.03887e-20)
(0.213985 0.322956 0)
(0.0985755 0.157966 6.43391e-20)
(0.00915451 0.463072 -7.50937e-20)
(0.0335955 1.91246 -4.23327e-20)
(0.0607847 2.81698 -5.16803e-20)
(0.240565 0.228275 -2.17972e-20)
(1.01386 0.969275 -5.45808e-20)
(1.15871 1.12877 1.40376e-20)
(1.15948 1.15469 1.02623e-20)
(1.11048 1.13531 0)
(1.045 1.10486 9.67708e-21)
(0.971803 1.07039 2.26806e-20)
(0.888062 1.03135 -3.80912e-21)
(0.792836 0.985242 8.37217e-21)
(0.683507 0.927992 1.36769e-19)
(0.572992 0.861848 1.46088e-19)
(0.477694 0.792294 1.05577e-19)
(0.400866 0.717111 1.20106e-19)
(0.331245 0.627366 -1.30225e-19)
(0.254231 0.508459 -1.35947e-19)
(0.137627 0.357761 0)
(0.0469311 0.86776 0)
(0.0942313 2.57135 3.57943e-20)
(0.0964439 3.20465 0)
(0.0970958 3.38665 9.3971e-20)
(0.24335 0.234523 0)
(1.00819 0.992906 0)
(1.14893 1.15292 0)
(1.14841 1.17866 3.36638e-21)
(1.09948 1.15934 6.67451e-21)
(1.03403 1.12913 4.0437e-21)
(0.961279 1.09491 1.45397e-20)
(0.87699 1.05628 -3.71615e-21)
(0.780824 1.01098 7.02311e-20)
(0.669463 0.955172 -2.02154e-21)
(0.555282 0.89105 2.88028e-19)
(0.454195 0.823938 -1.21246e-20)
(0.368589 0.747264 1.45316e-20)
(0.290266 0.644976 1.87887e-20)
(0.193582 0.52923 -2.06853e-22)
(0.103812 1.00866 3.31904e-22)
(0.134412 2.74352 -1.85413e-19)
(0.140027 3.29787 -7.08221e-20)
(0.128682 3.42456 3.80374e-20)
(0.116292 3.44485 -4.30485e-20)
(0.165467 0.179319 1.37469e-20)
(0.998502 1.01836 0)
(1.13905 1.17565 -3.04502e-20)
(1.13775 1.20115 -2.98708e-20)
(1.08905 1.18222 1.98688e-20)
(1.02385 1.15244 -3.0704e-21)
(0.950964 1.1183 -1.49629e-20)
(0.866357 1.08029 4.17228e-20)
(0.769408 1.03608 -5.7709e-20)
(0.65627 0.982197 0)
(0.538593 0.920716 1.41689e-19)
(0.431999 0.857382 -8.58991e-20)
(0.336219 0.783084 0)
(0.244101 0.666869 1.79803e-20)
(0.147505 0.837894 4.34299e-20)
(0.148879 2.53695 -5.0188e-20)
(0.199892 3.33056 5.75948e-20)
(0.180317 3.43877 3.14165e-20)
(0.148883 3.45726 3.63502e-20)
(0.128355 3.46563 5.84944e-20)
(0.279074 0.27399 -2.63157e-20)
(0.982668 1.02987 0)
(1.12161 1.20179 3.39516e-20)
(1.12327 1.23445 3.5068e-20)
(1.07272 1.21637 -2.50673e-20)
(1.00706 1.18724 -2.32451e-21)
(0.933139 1.15453 1.40139e-20)
(0.847848 1.11771 3.23901e-21)
(0.749469 1.07556 5.48038e-20)
(0.633446 1.02545 1.17843e-19)
(0.510531 0.96969 7.98235e-21)
(0.39542 0.91407 7.59212e-20)
(0.280371 0.845055 1.35978e-20)
(0.211888 1.01294 -1.71852e-20)
(0.218404 2.40461 -3.96144e-20)
(0.269584 3.33859 4.00557e-20)
(0.253166 3.46894 -4.44682e-20)
(0.218006 3.48647 -2.59722e-20)
(0.183218 3.50996 -2.41464e-20)
(0.1375 3.5034 -3.54421e-21)
(0.269616 0.273106 0)
(0.980485 1.05325 1.0409e-20)
(1.11363 1.22556 -7.17277e-21)
(1.11311 1.25797 -4.36564e-21)
(1.06228 1.23985 -1.85035e-20)
(0.996734 1.21107 3.48076e-21)
(0.922511 1.17863 -7.19544e-21)
(0.837033 1.14263 2.89637e-21)
(0.73817 1.10191 -5.69752e-20)
(0.620941 1.05454 -2.97253e-21)
(0.495474 1.00327 -2.54784e-19)
(0.376064 0.95283 1.07879e-20)
(0.269842 0.920826 -1.28574e-20)
(0.247329 1.57126 -1.58454e-20)
(0.307467 3.13956 3.60919e-21)
(0.322929 3.47322 4.24904e-22)
(0.280965 3.52045 6.7256e-20)
(0.246226 3.54101 3.47773e-20)
(0.199928 3.56003 -1.23522e-20)
(0.149258 3.55514 -1.81501e-20)
(0.255528 0.271231 2.72344e-20)
(0.977429 1.07929 7.12993e-20)
(1.10529 1.25144 -2.06699e-20)
(1.10256 1.28307 -1.65308e-20)
(1.05148 1.26483 0)
(0.986078 1.23618 1.18974e-20)
(0.911791 1.20404 -7.14697e-21)
(0.826382 1.16879 2.5314e-21)
(0.727345 1.12958 -6.31267e-21)
(0.609429 1.08517 -1.06122e-19)
(0.482266 1.03886 -1.17328e-19)
(0.359767 0.99476 -8.88499e-20)
(0.273872 1.06306 -9.61876e-20)
(0.309779 2.29571 9.93581e-20)
(0.386087 3.39923 8.62245e-20)
(0.36125 3.53237 0)
(0.312015 3.56666 0)
(0.275032 3.59897 -9.66771e-21)
(0.22923 3.64411 0)
(0.159432 3.62608 -1.64731e-20)
(0.245511 0.273247 -4.13557e-20)
(0.972407 1.10625 -6.1271e-20)
(1.09562 1.27862 0)
(1.09085 1.3091 1.33638e-21)
(1.03956 1.29051 -2.216e-20)
(0.974399 1.26186 2.26039e-20)
(0.900354 1.23002 -2.6192e-21)
(0.815237 1.19545 1.47894e-21)
(0.716277 1.15768 -4.01309e-20)
(0.598087 1.11621 5.31805e-21)
(0.470039 1.07501 0)
(0.349223 1.0416 0)
(0.301371 1.34009 -8.74461e-20)
(0.385298 2.96069 3.59461e-20)
(0.450913 3.50274 4.67992e-20)
(0.399193 3.56781 0)
(0.356731 3.62175 -6.61454e-21)
(0.314544 3.66669 -1.615e-21)
(0.264656 3.63124 -1.49917e-20)