/*--------------------------------*- C++ -*----------------------------------*\
  =========                 |
  \\      /  F ield         | OpenFOAM: The Open Source CFD Toolbox
   \\    /   O peration     | Website:  https://openfoam.org
    \\  /    A nd           | Version:  6
     \\/     M anipulation  |
\*---------------------------------------------------------------------------*/
FoamFile
{
    version     2.0;
    format      ascii;
    class       volVectorField;
    location    "70.5";
    object      U;
}
// * * * * * * * * * * * * * * * * * * * * * * * * * * * * * * * * * * * * * //

dimensions      [0 1 -1 0 0 0 0];

internalField   nonuniform List<vector> 
8800
(
(0.987184 -0.0766661 0)
(1.00189 -0.0551917 0)
(0.999722 -0.0285503 0)
(1.00003 -0.0151459 0)
(1.00009 -0.0085479 0)
(1.00011 -0.00505067 0)
(1.00007 -0.00300555 0)
(1.00003 -0.00170492 0)
(0.999998 -0.00079814 0)
(1.00006 -8.12785e-05 0)
(0.999975 0.000649235 0)
(0.999985 0.00141696 0)
(1.00003 0.00243625 0)
(1.00005 0.0040039 0)
(1.00004 0.00663494 0)
(1.00002 0.0113731 0)
(0.999911 0.0208158 0)
(0.999155 0.0386716 0)
(1.0071 0.0724575 0)
(0.771213 0.0366613 0)
(0.363066 -0.0160176 0)
(1.04331 -0.0768184 0)
(1.08459 -0.070451 0)
(1.04519 -0.0535481 0)
(1.02328 -0.0389019 0)
(1.01202 -0.0262265 0)
(1.00643 -0.016867 0)
(1.00359 -0.0103361 0)
(1.00215 -0.00567568 0)
(1.00145 -0.00201641 0)
(1.0013 0.00130806 0)
(1.00166 0.00469343 0)
(1.00265 0.00862703 0)
(1.00466 0.0139575 0)
(1.00859 0.0216633 0)
(1.01655 0.0326328 0)
(1.03247 0.0465466 0)
(1.06264 0.0616635 0)
(1.09187 0.0761004 0)
(0.838671 0.0565617 0)
(0.216839 -0.00243016 0)
(1.07589 -0.0501406 0)
(1.09987 -0.0483174 0)
(1.06463 -0.040472 0)
(1.04003 -0.0336158 0)
(1.02391 -0.0260958 0)
(1.01411 -0.0185136 0)
(1.00855 -0.0116927 0)
(1.00558 -0.00582203 0)
(1.00432 -0.000400988 0)
(1.00465 0.00484872 0)
(1.00658 0.0102431 0)
(1.0106 0.0163325 0)
(1.01794 0.0233505 0)
(1.03052 0.0308156 0)
(1.05061 0.0378467 0)
(1.08033 0.0445303 0)
(1.10625 0.0513456 0)
(0.942524 0.0416174 0)
(0.21615 0.00246172 0)
(0.175162 -0.000816849 0)
(1.01768 -0.0354902 0)
(1.10519 -0.0413886 0)
(1.07825 -0.0360745 0)
(1.05345 -0.0301415 0)
(1.03619 -0.0245668 0)
(1.02399 -0.0188383 0)
(1.01588 -0.0127565 0)
(1.01101 -0.00656539 0)
(1.0088 -0.000226073 0)
(1.00937 0.00603318 0)
(1.01263 0.0120351 0)
(1.01887 0.0178651 0)
(1.02877 0.023432 0)
(1.04319 0.0287337 0)
(1.06371 0.0342185 0)
(1.09354 0.0402028 0)
(1.0934 0.0419648 0)
(0.827135 0.0229154 0)
(0.174 0.000853143 0)
(0.153958 -0.000610732 0)
(0.95616 -0.0254641 0)
(1.10344 -0.0351379 0)
(1.08766 -0.0326628 0)
(1.06171 -0.0280104 0)
(1.0441 -0.0229867 0)
(1.03163 -0.0177395 0)
(1.02278 -0.0122057 0)
(1.01696 -0.00626513 0)
(1.01411 0.000209287 0)
(1.01478 0.00667463 0)
(1.01875 0.012563 0)
(1.02579 0.0178539 0)
(1.03609 0.0227601 0)
(1.05064 0.0275188 0)
(1.07188 0.0320516 0)
(1.10005 0.035985 0)
(1.06806 0.0340412 0)
(0.739504 0.0143183 0)
(0.152206 0.000651936 0)
(0.139585 -0.000466927 0)
(0.899256 -0.0190814 0)
(1.09577 -0.0300871 0)
(1.09573 -0.0291967 0)
(1.06923 -0.0254645 0)
(1.0508 -0.021324 0)
(1.03787 -0.0165493 0)
(1.02876 -0.0112595 0)
(1.02264 -0.00551109 0)
(1.0195 0.000822611 0)
(1.0201 0.00713939 0)
(1.02419 0.0127778 0)
(1.03136 0.0177375 0)
(1.04188 0.0221905 0)
(1.05699 0.0261572 0)
(1.07919 0.0296215 0)
(1.10225 0.0322442 0)
(1.03594 0.0281371 0)
(0.6729 0.0102191 0)
(0.137109 0.000514446 0)
(0.129045 -0.000361483 0)
(0.849671 -0.0147176 0)
(1.08338 -0.0259519 0)
(1.10141 -0.0262429 0)
(1.07609 -0.0229548 0)
(1.05713 -0.0193078 0)
(1.04374 -0.0150594 0)
(1.03427 -0.0101317 0)
(1.02791 -0.00459146 0)
(1.02457 0.00156474 0)
(1.02503 0.00766953 0)
(1.02907 0.0130321 0)
(1.03635 0.0175785 0)
(1.04714 0.0214219 0)
(1.06265 0.0247246 0)
(1.08529 0.0276699 0)
(1.10133 0.0294208 0)
(1.00098 0.0236314 0)
(0.62101 0.00785891 0)
(0.125689 0.000417383 0)
(0.121005 -0.000280737 0)
(0.807545 -0.0115576 0)
(1.06812 -0.0223378 0)
(1.10495 -0.0236005 0)
(1.08235 -0.0207244 0)
(1.06297 -0.0172909 0)
(1.04931 -0.0133481 0)
(1.03956 -0.00875644 0)
(1.03291 -0.00348776 0)
(1.02932 0.00245251 0)
(1.0296 0.00831312 0)
(1.03358 0.0133294 0)
(1.04092 0.017405 0)
(1.05182 0.0207377 0)
(1.06754 0.0236283 0)
(1.09051 0.0262725 0)
(1.09752 0.0271249 0)
(0.965635 0.0201036 0)
(0.579275 0.0063294 0)
(0.116579 0.000347238 0)
(0.114778 -0.000217432 0)
(0.772103 -0.00919242 0)
(1.05138 -0.0191541 0)
(1.10734 -0.0211523 0)
(1.08822 -0.0186439 0)
(1.06846 -0.015352 0)
(1.05456 -0.0115695 0)
(1.04461 -0.00718802 0)
(1.03771 -0.00215893 0)
(1.03384 0.00352758 0)
(1.03389 0.00908457 0)
(1.03774 0.0137248 0)
(1.04502 0.0173803 0)
(1.05591 0.0203228 0)
(1.07182 0.0228923 0)
(1.09445 0.0251922 0)
(1.09086 0.0252288 0)
(0.931211 0.017388 0)
(0.544678 0.00528804 0)
(0.109052 0.000296956 0)
(0.109931 -0.000166437 0)
(0.742405 -0.00735484 0)
(1.03422 -0.0163295 0)
(1.1088 -0.0188427 0)
(1.09382 -0.0166381 0)
(1.07377 -0.0134368 0)
(1.0596 -0.00974345 0)
(1.04946 -0.00548014 0)
(1.04234 -0.000621572 0)
(1.03817 0.00482563 0)
(1.03791 0.01007 0)
(1.04153 0.014351 0)
(1.04867 0.0176416 0)
(1.05951 0.0202329 0)
(1.07562 0.0225096 0)
(1.09709 0.024427 0)
(1.08174 0.0236878 0)
(0.898256 0.0153347 0)
(0.515161 0.00456583 0)
(0.102625 0.000261892 0)
(0.10618 -0.000123981 0)
(0.717635 -0.00587071 0)
(1.01748 -0.0137918 0)
(1.10944 -0.0166068 0)
(1.09932 -0.0146725 0)
(1.07901 -0.0114788 0)
(1.06455 -0.00781121 0)
(1.05418 -0.00360845 0)
(1.0468 0.00113618 0)
(1.0423 0.00638611 0)
(1.04166 0.0113406 0)
(1.04496 0.0152773 0)
(1.05191 0.0182117 0)
(1.06269 0.0204652 0)
(1.07896 0.0224789 0)
(1.09838 0.0239868 0)
(1.07052 0.0225 0)
(0.866878 0.0138286 0)
(0.489264 0.00407281 0)
(0.0969542 0.000238994 0)
(0.103338 -8.71008e-05 0)
(0.697152 -0.00462397 0)
(1.00177 -0.011474 0)
(1.10941 -0.0144087 0)
(1.10467 -0.0126583 0)
(1.08426 -0.00942449 0)
(1.06948 -0.00572821 0)
(1.05884 -0.00152477 0)
(1.05114 0.00316538 0)
(1.04623 0.00826243 0)
(1.04513 0.0129571 0)
(1.04806 0.0165764 0)
(1.05476 0.0191672 0)
(1.06546 0.0210827 0)
(1.08185 0.0228351 0)
(1.09865 0.0239484 0)
(1.05749 0.02168 0)
(0.836901 0.0127812 0)
(0.465892 0.00375368 0)
(0.0917802 0.000225869 0)
(0.101286 -5.30908e-05 0)
(0.680489 -0.00352696 0)
(0.987549 -0.00930373 0)
(1.10894 -0.0121612 0)
(1.10985 -0.0105205 0)
(1.0896 -0.00722464 0)
(1.07447 -0.00343593 0)
(1.06351 0.000834163 0)
(1.05543 0.00552663 0)
(1.05001 0.0105256 0)
(1.04835 0.0149939 0)
(1.05082 0.0183021 0)
(1.05725 0.0205483 0)
(1.06781 0.0221256 0)
(1.08424 0.0236041 0)
(1.0979 0.0242964 0)
(1.04277 0.0212356 0)
(0.80798 0.0121203 0)
(0.444177 0.00357042 0)
(0.0868976 0.000220509 0)
(0.099964 -1.97443e-05 0)
(0.667346 -0.00251042 0)
(0.975171 -0.00720767 0)
(1.10835 -0.0098048 0)
(1.11501 -0.00818535 0)
(1.09511 -0.0047779 0)
(1.0796 -0.000834379 0)
(1.06826 0.00356482 0)
(1.0597 0.00832554 0)
(1.05367 0.0132695 0)
(1.05133 0.0175276 0)
(1.05325 0.0205348 0)
(1.05934 0.0224278 0)
(1.06975 0.0236451 0)
(1.08618 0.0248518 0)
(1.09591 0.0250832 0)
(1.02641 0.0211599 0)
(0.779672 0.0117937 0)
(0.423416 0.00349825 0)
(0.0821417 0.00022152 0)
(0.0993563 1.50793e-05 0)
(0.657568 -0.00152019 0)
(0.964954 -0.00511504 0)
(1.10796 -0.00728313 0)
(1.12027 -0.00559577 0)
(1.10087 -0.00202846 0)
(1.08494 0.0021365 0)
(1.07314 0.00674198 0)
(1.06401 0.0116406 0)
(1.05723 0.0165934 0)
(1.05409 0.0206808 0)
(1.05535 0.0233798 0)
(1.06102 0.0249024 0)
(1.07125 0.0257585 0)
(1.08756 0.0266385 0)
(1.09265 0.0263192 0)
(1.00837 0.0214956 0)
(0.751483 0.0117753 0)
(0.403011 0.00352345 0)
(0.0773768 0.000228278 0)
(0.0994818 4.71447e-05 0)
(0.651133 -0.000511188 0)
(0.957203 -0.00295217 0)
(1.10811 -0.00451831 0)
(1.1258 -0.00265248 0)
(1.10699 0.00114735 0)
(1.0906 0.0056146 0)
(1.07826 0.0104973 0)
(1.06842 0.0156007 0)
(1.06074 0.0206126 0)
(1.05662 0.0245467 0)
(1.0571 0.0269418 0)
(1.06228 0.0280815 0)
(1.07228 0.028544 0)
(1.08816 0.0290517 0)
(1.08776 0.0280735 0)
(0.988449 0.0222649 0)
(0.722857 0.0120486 0)
(0.382421 0.00363645 0)
(0.0724797 0.000240028 0)
(0.10041 9.26953e-05 0)
(0.648162 0.000533855 0)
(0.952241 -0.00063728 0)
(1.10918 -0.00143513 0)
(1.13181 0.000740447 0)
(1.11358 0.004869 0)
(1.09668 0.00972339 0)
(1.08367 0.0149756 0)
(1.07299 0.0203664 0)
(1.06421 0.0254802 0)
(1.05893 0.0292625 0)
(1.05846 0.0313373 0)
(1.06307 0.0320944 0)
(1.07278 0.0321368 0)
(1.08785 0.0322161 0)
(1.08105 0.0304352 0)
(0.966354 0.0235134 0)
(0.693181 0.0126057 0)
(0.361134 0.00383078 0)
(0.0673413 0.0002561 0)
(0.102307 0.000150514 0)
(0.648992 0.00170975 0)
(0.950427 0.00190217 0)
(1.1116 0.00207339 0)
(1.13848 0.00468259 0)
(1.12079 0.00924671 0)
(1.1033 0.014596 0)
(1.08951 0.0203227 0)
(1.07778 0.0260899 0)
(1.06769 0.0313824 0)
(1.061 0.0350468 0)
(1.05943 0.0367487 0)
(1.06334 0.0370819 0)
(1.07269 0.0366722 0)
(1.08635 0.036251 0)
(1.07221 0.0334913 0)
(0.941652 0.0252725 0)
(0.661794 0.0134399 0)
(0.338669 0.00409837 0)
(0.0618662 0.000275605 0)
(0.105246 0.000213763 0)
(0.654069 0.00315667 0)
(0.952213 0.00483296 0)
(1.11585 0.00615638 0)
(1.14607 0.00935549 0)
(1.12878 0.0145124 0)
(1.11061 0.0204795 0)
(1.09585 0.0267856 0)
(1.08286 0.0330109 0)
(1.07116 0.0385057 0)
(1.06281 0.0420206 0)
(1.05995 0.0433147 0)
(1.06303 0.0432047 0)
(1.07195 0.0422872 0)
(1.08355 0.0413406 0)
(1.06085 0.0373489 0)
(0.913767 0.027587 0)
(0.627982 0.0145433 0)
(0.314571 0.00442986 0)
(0.0559762 0.000297349 0)
(0.109518 0.00029745 0)
(0.663785 0.00484513 0)
(0.958067 0.0082817 0)
(1.12245 0.0109539 0)
(1.15489 0.0149353 0)
(1.13779 0.0208692 0)
(1.11877 0.0276018 0)
(1.10282 0.0346233 0)
(1.08826 0.0413942 0)
(1.07462 0.047112 0)
(1.06432 0.0504277 0)
(1.05998 0.0512465 0)
(1.06206 0.0506486 0)
(1.07046 0.0491519 0)
(1.0795 0.0475947 0)
(1.04644 0.042115 0)
(0.881963 0.0304768 0)
(0.590975 0.0158905 0)
(0.288423 0.00480765 0)
(0.0496176 0.000319347 0)
(0.115463 0.000410757 0)
(0.678993 0.00696459 0)
(0.968675 0.0124563 0)
(1.13194 0.0167114 0)
(1.16525 0.0216886 0)
(1.14806 0.0286332 0)
(1.12798 0.0363056 0)
(1.11052 0.0441746 0)
(1.09402 0.0515618 0)
(1.07804 0.0575034 0)
(1.06544 0.0605362 0)
(1.0593 0.0607466 0)
(1.06037 0.059603 0)
(1.06823 0.0574762 0)
(1.07391 0.0552124 0)
(1.0283 0.0478686 0)
(0.845349 0.0339321 0)
(0.549994 0.0174314 0)
(0.259901 0.00520379 0)
(0.0427773 0.00033891 0)
(0.123603 0.000568102 0)
(0.700602 0.00973416 0)
(0.9849 0.0176635 0)
(1.14501 0.023771 0)
(1.17768 0.0300328 0)
(1.15992 0.0383057 0)
(1.13844 0.0471089 0)
(1.11904 0.0559392 0)
(1.10012 0.0639493 0)
(1.08132 0.0699835 0)
(1.06607 0.0725464 0)
(1.05792 0.0720192 0)
(1.05785 0.0702144 0)
(1.06511 0.0673698 0)
(1.06639 0.0640991 0)
(1.00551 0.0546619 0)
(0.802868 0.0378863 0)
(0.504303 0.0190699 0)
(0.22883 0.00557598 0)
(0.0354984 0.000352488 0)
(0.134676 0.00079657 0)
(0.729906 0.0135419 0)
(1.00789 0.0243702 0)
(1.16245 0.0326736 0)
(1.1928 0.0405438 0)
(1.17372 0.0505211 0)
(1.15031 0.0606535 0)
(1.12839 0.0705127 0)
(1.10643 0.0790435 0)
(1.0843 0.0849422 0)
(1.06605 0.0867535 0)
(1.05573 0.0852793 0)
(1.05444 0.0827103 0)
(1.06077 0.0789797 0)
(1.05619 0.0745414 0)
(0.976901 0.0624635 0)
(0.753365 0.042175 0)
(0.453336 0.0206505 0)
(0.195293 0.00586491 0)
(0.0279017 0.000355782 0)
(0.149935 0.00115416 0)
(0.768893 0.0190133 0)
(1.03932 0.0333617 0)
(1.18519 0.0443578 0)
(1.2114 0.0543911 0)
(1.18981 0.0663234 0)
(1.16367 0.0778981 0)
(1.13839 0.0886691 0)
(1.11268 0.0974073 0)
(1.08668 0.102728 0)
(1.06513 0.103368 0)
(1.05255 0.100673 0)
(1.05003 0.0972026 0)
(1.05494 0.0926979 0)
(1.04246 0.0865595 0)
(0.940965 0.0710801 0)
(0.695699 0.0464921 0)
(0.396912 0.0219424 0)
(0.159756 0.00599717 0)
(0.0202016 0.000344313 0)
(0.171573 0.00177463 0)
(0.820809 0.027279 0)
(1.0818 0.0461852 0)
(1.21439 0.0607086 0)
(1.23404 0.0735853 0)
(1.20826 0.0873957 0)
(1.17823 0.100221 0)
(1.14861 0.111404 0)
(1.11841 0.119667 0)
(1.08807 0.123665 0)
(1.06305 0.122542 0)
(1.04819 0.118284 0)
(1.04449 0.113726 0)
(1.04759 0.108298 0)
(1.02397 0.100017 0)
(0.895843 0.0800795 0)
(0.629071 0.050367 0)
(0.33561 0.0226598 0)
(0.123226 0.00589645 0)
(0.0127196 0.000313751 0)
(0.202961 0.00313598 0)
(0.891409 0.0409517 0)
(1.13893 0.0666355 0)
(1.25045 0.0853056 0)
(1.26048 0.100933 0)
(1.22843 0.116085 0)
(1.19313 0.129219 0)
(1.15821 0.139678 0)
(1.12292 0.146326 0)
(1.08796 0.147989 0)
(1.05948 0.144343 0)
(1.04248 0.138102 0)
(1.03769 0.132247 0)
(1.03815 0.125775 0)
(0.998971 0.114502 0)
(0.839366 0.0887024 0)
(0.553737 0.0531677 0)
(0.271511 0.0225819 0)
(0.0875524 0.00552745 0)
(0.00594185 0.00025872 0)
(0.245791 0.00935336 1.02595e-20)
(0.984657 0.0680042 8.77949e-21)
(1.2083 0.10129 -3.05388e-21)
(1.2902 0.121801 0)
(1.2878 0.140061 -7.67378e-35)
(1.24811 0.154729 1.11941e-21)
(1.20679 0.166378 -2.00518e-21)
(1.1661 0.174666 0)
(1.12543 0.178631 4.10012e-35)
(1.0856 0.177167 -2.46298e-21)
(1.05345 0.170527 0)
(1.03425 0.162166 -2.92236e-21)
(1.0287 0.155231 -8.62329e-21)
(1.02522 0.148336 -4.08061e-21)
(0.963067 0.132469 -1.22813e-21)
(0.765173 0.0980598 -7.29582e-22)
(0.464736 0.0550807 0)
(0.203395 0.0220799 5.10892e-22)
(0.0528674 0.0051357 6.05071e-22)
(-0.000146403 0.000175263 1.10557e-20)
(0.27547 0.0245997 7.58153e-21)
(1.06187 0.110756 1.11479e-22)
(1.26552 0.150675 8.16999e-22)
(1.32591 0.17115 0)
(1.31178 0.189592 -3.89631e-21)
(1.26502 0.202136 -4.41289e-21)
(1.21776 0.211492 -2.02234e-21)
(1.17125 0.217327 -7.16402e-21)
(1.12501 0.218589 0)
(1.07998 0.214081 1.04488e-20)
(1.04382 0.204537 1.03502e-20)
(1.02224 0.194122 3.07006e-21)
(1.0144 0.185497 1.1197e-20)
(1.00159 0.176208 1.57516e-20)
(0.905977 0.152858 0)
(0.663912 0.107493 2.22009e-20)
(0.359597 0.0566069 3.18599e-20)
(0.132754 0.0208906 3.54559e-20)
(0.0183008 0.00358604 -4.0673e-20)
(-0.0061963 -0.000445908 -7.75784e-22)
(0.276904 0.0414829 0)
(1.11107 0.166058 1.32293e-21)
(1.30435 0.211075 0)
(1.35377 0.231247 -5.11937e-21)
(1.33064 0.246929 0)
(1.27792 0.255572 -8.6703e-21)
(1.2251 0.261171 4.12804e-21)
(1.17308 0.263408 -1.44153e-20)
(1.12156 0.261076 -3.20494e-22)
(1.07166 0.252846 5.39655e-21)
(1.03181 0.23991 2.26936e-20)
(1.00804 0.227072 -3.96628e-23)
(0.997762 0.216398 -8.11638e-21)
(0.975801 0.203436 -1.47631e-20)
(0.853818 0.172285 1.74857e-20)
(0.589844 0.11578 -3.09675e-20)
(0.296426 0.0576944 -4.0859e-21)
(0.0940286 0.0193339 0)
(-0.000574141 0.00131707 -3.18952e-24)
(-0.00976102 -0.00130869 0)
(0.27031 0.0556699 1.77514e-20)
(1.13775 0.225019 -8.53036e-21)
(1.32843 0.276011 -6.43503e-21)
(1.37226 0.296644 2.41862e-21)
(1.34292 0.308586 -4.04894e-21)
(1.28575 0.312662 1.81413e-20)
(1.22837 0.313793 8.59959e-21)
(1.1716 0.311743 0)
(1.11539 0.305201 -2.70621e-20)
(1.06107 0.292703 0)
(1.01781 0.275993 -1.18856e-20)
(0.991941 0.260404 -1.46594e-20)
(0.979248 0.24736 -8.81038e-21)
(0.949026 0.230096 -1.06894e-20)
(0.811171 0.190792 0)
(0.541244 0.124594 0)
(0.261725 0.0602884 -2.65344e-20)
(0.0728487 0.0180786 5.24512e-21)
(-0.0126785 -0.00146092 -3.08438e-21)
(-0.0126864 -0.00240742 -3.65392e-21)
(0.262423 0.0681287 -7.15914e-21)
(1.14946 0.283867 0)
(1.3417 0.341914 1.31165e-20)
(1.38239 0.363459 6.79026e-21)
(1.34873 0.371639 9.34443e-21)
(1.28833 0.371149 0)
(1.22739 0.367693 8.41101e-21)
(1.16674 0.361141 1.59157e-20)
(1.1065 0.350113 1.38529e-20)
(1.04823 0.333068 2.53167e-20)
(1.00182 0.312271 0)
(0.973915 0.293656 -3.15405e-20)
(0.958858 0.277834 -1.89782e-20)
(0.922279 0.256136 -1.12226e-20)
(0.77689 0.209523 6.86193e-20)
(0.510691 0.135031 8.15701e-21)
(0.243806 0.064388 3.83837e-20)
(0.0622339 0.0174236 -1.81583e-19)
(-0.0199307 -0.00426957 1.07594e-19)
(-0.0149692 -0.00361997 -1.3134e-19)
(0.254799 0.0792899 -3.49017e-21)
(1.15163 0.340688 1.28053e-21)
(1.34714 0.406923 -1.41184e-21)
(1.38583 0.429762 -6.88047e-21)
(1.34905 0.434376 -7.88733e-21)
(1.28622 0.429493 3.63314e-22)
(1.22249 0.421589 -9.10612e-21)
(1.15865 0.410601 1.64439e-20)
(1.09498 0.395073 -2.97808e-20)
(1.03321 0.373403 0)
(0.98384 0.348387 -1.42917e-20)
(0.953861 0.326585 -3.17479e-22)
(0.936517 0.307922 -2.0739e-20)
(0.895453 0.2819 0)
(0.748608 0.228795 -1.48478e-20)
(0.491657 0.147012 -3.52504e-20)
(0.23644 0.0704367 9.39172e-20)
(0.0596841 0.0179032 -9.25248e-20)
(-0.0227149 -0.00654901 1.31563e-19)
(-0.0163919 -0.00479245 -1.38452e-19)
(0.248284 0.089558 -1.07052e-22)
(1.1478 0.394806 -4.42731e-22)
(1.34692 0.470015 -3.87075e-21)
(1.38403 0.494403 2.74676e-21)
(1.34495 0.495789 -3.96549e-21)
(1.28028 0.486776 0)
(1.21428 0.474658 -8.48292e-21)
(1.14778 0.459416 -1.7219e-20)
(1.08115 0.439507 -1.54815e-20)
(1.01621 0.413285 0)
(0.964056 0.384115 -1.48199e-20)
(0.931989 0.359063 -1.83287e-20)
(0.912478 0.337538 2.24786e-20)
(0.868422 0.307404 -1.36146e-20)
(0.723941 0.248711 -6.4759e-20)
(0.478691 0.160623 3.84337e-20)
(0.235151 0.077906 1.14051e-20)
(0.0620476 0.019793 0)
(-0.0216676 -0.00780521 -1.2716e-19)
(-0.0167651 -0.00572054 -4.72454e-21)
(0.243032 0.0992712 1.90491e-22)
(1.14032 0.446057 -1.08305e-22)
(1.34254 0.530637 1.78618e-21)
(1.37821 0.556693 9.81803e-21)
(1.33738 0.555234 -1.46009e-20)
(1.27131 0.542424 1.72054e-20)
(1.20349 0.526384 1.82723e-20)
(1.1347 0.507135 -2.75207e-20)
(1.06541 0.483051 9.53747e-21)
(0.997545 0.45242 -6.22004e-20)
(0.94278 0.419214 -1.67485e-20)
(0.908675 0.390929 0)
(0.887099 0.366583 2.43941e-20)
(0.840978 0.332623 2.92274e-20)
(0.700735 0.268964 3.49119e-20)
(0.46801 0.175264 -4.17794e-20)
(0.235675 0.0866925 -1.23686e-20)
(0.0668925 0.0231687 1.45257e-20)
(-0.0179753 -0.00781018 0)
(-0.0162242 -0.00629464 -1.02656e-20)
(0.238942 0.10853 -6.85056e-21)
(1.13089 0.49452 2.86928e-21)
(1.33529 0.588637 -1.55361e-21)
(1.3694 0.616277 5.91479e-21)
(1.32717 0.612311 -6.55429e-21)
(1.26003 0.59605 -8.31776e-22)
(1.19069 0.576436 -1.99815e-20)
(1.11991 0.553493 -9.96265e-21)
(1.04822 0.525477 -2.6917e-20)
(0.977664 0.490651 6.5943e-23)
(0.920368 0.453499 -5.25255e-20)
(0.88429 0.422101 4.42348e-20)
(0.860747 0.395002 -2.68276e-20)
(0.813126 0.357498 3.22192e-20)
(0.677996 0.288939 0)
(0.457294 0.190355 -2.27429e-20)
(0.236333 0.0961546 6.3322e-23)
(0.0724669 0.0276575 -6.34752e-20)
(-0.0129519 -0.00679661 -9.34877e-21)
(-0.0150954 -0.00654144 0)
(0.235931 0.117579 0)
(1.12049 0.540419 3.80823e-21)
(1.32605 0.644305 -9.5999e-22)
(1.35842 0.672985 -5.35545e-21)
(1.31502 0.666797 -8.36493e-21)
(1.24704 0.64744 0)
(1.17644 0.624608 -9.08672e-21)
(1.10393 0.598298 -2.1221e-22)
(1.03005 0.56666 5.77437e-20)
(0.956905 0.527862 -8.56317e-21)
(0.897146 0.486899 -3.79512e-20)
(0.859161 0.452469 2.30338e-20)
(0.83379 0.422712 -4.50707e-22)
(0.784851 0.381702 3.43566e-20)
(0.654518 0.308345 2.10335e-20)
(0.445027 0.20526 -4.90934e-20)
(0.235121 0.105694 5.81465e-20)
(0.0771631 0.0327141 1.72432e-20)
(-0.00762013 -0.0050055 7.12959e-20)
(-0.0135845 -0.00648115 -1.92847e-19)
(0.233909 0.12655 -3.22413e-21)
(1.10985 0.583935 3.70287e-21)
(1.31541 0.697114 -2.00093e-21)
(1.34591 0.726763 4.06788e-21)
(1.3015 0.718588 0)
(1.23287 0.696468 -7.91501e-21)
(1.16121 0.670776 3.05884e-20)
(1.08715 0.641437 2.19062e-20)
(1.01122 0.606501 0)
(0.935558 0.563983 -1.23453e-19)
(0.873387 0.519362 1.02834e-19)
(0.83354 0.481969 0)
(0.806426 0.449514 3.14349e-20)
(0.756275 0.404976 -4.46253e-22)
(0.629976 0.326794 -6.76456e-20)
(0.430914 0.219126 2.64647e-20)
(0.231378 0.114774 0)
(0.0799978 0.0377963 9.32114e-20)
(-0.00299383 -0.00289849 0)
(-0.0120031 -0.0062311 -9.14306e-20)
(0.232731 0.135484 4.13219e-21)
(1.09938 0.625276 5.6012e-21)
(1.3038 0.747117 -1.7734e-21)
(1.3324 0.777626 0)
(1.28709 0.76767 -7.07811e-21)
(1.21794 0.743097 0)
(1.14538 0.714873 -3.02311e-20)
(1.06991 0.682849 -1.01951e-20)
(0.992051 0.644941 1.02251e-20)
(0.913939 0.598999 -6.1135e-20)
(0.849319 0.550875 1.06388e-20)
(0.807622 0.510506 0)
(0.778832 0.475257 -6.72727e-20)
(0.727383 0.427036 4.27266e-22)
(0.604038 0.343894 0)
(0.414718 0.231445 1.90581e-22)
(0.224905 0.12272 8.52384e-20)
(0.0802766 0.0422303 -8.06098e-20)
(0.00021243 -0.000984999 2.38658e-20)
(-0.0106086 -0.00591438 0)
(0.232051 0.144304 0)
(1.08926 0.664615 7.26176e-21)
(1.29166 0.794419 3.8022e-21)
(1.31828 0.825642 -5.17132e-22)
(1.27216 0.814073 -2.31497e-21)
(1.2026 0.787332 -1.79011e-20)
(1.12926 0.756886 1.13648e-20)
(1.05251 0.722502 -1.20517e-20)
(0.972826 0.68196 4.56901e-20)
(0.89225 0.632901 -9.79783e-20)
(0.82511 0.581443 -8.52965e-22)
(0.781526 0.538022 -2.95132e-20)
(0.751121 0.499823 1.09304e-19)
(0.698344 0.447633 -5.16612e-22)
(0.577348 0.359238 -5.26756e-20)
(0.396516 0.241781 -9.35372e-20)
(0.216013 0.128992 0)
(0.0783105 0.0454155 0)
(0.00188884 0.000342783 2.5779e-20)
(-0.00951813 -0.0056569 -1.53105e-20)
(0.231993 0.153164 6.40534e-21)
(1.07973 0.701723 -1.704e-20)
(1.27926 0.839111 -4.10804e-21)
(1.30388 0.870895 0)
(1.25702 0.857857 -3.10961e-22)
(1.18714 0.829207 -1.64174e-20)
(1.11312 0.796827 2.74989e-20)
(1.03521 0.760389 4.75586e-20)
(0.953758 0.717556 5.95225e-20)
(0.870702 0.665716 -8.02326e-20)
(0.800925 0.611087 -8.88805e-20)
(0.755348 0.564562 7.90639e-20)
(0.723311 0.523125 0)
(0.669094 0.466454 -2.40146e-20)
(0.549939 0.372319 -5.69423e-20)
(0.376727 0.2497 -6.73056e-20)
(0.204946 0.13317 -7.95306e-20)
(0.0743685 0.0471137 2.35452e-20)
(0.00223667 0.000933914 -1.38879e-20)
(-0.00873359 -0.00550545 6.45982e-23)
(0.232161 0.161848 0)
(1.07089 0.737169 0)
(1.26682 0.881295 5.16159e-22)
(1.28941 0.913488 0)
(1.24189 0.899111 5.07408e-21)
(1.17176 0.868784 1.11666e-20)
(1.09718 0.834725 0)
(1.0182 0.79652 5.6657e-21)
(0.935046 0.751729 9.96093e-20)
(0.8495 0.697479 -1.84782e-19)
(0.7769 0.63988 0)
(0.729127 0.590205 -5.1033e-20)
(0.695338 0.545093 -6.05394e-22)
(0.639588 0.483238 -4.51087e-22)
(0.522009 0.382808 6.10719e-20)
(0.355488 0.254937 -8.50074e-25)
(0.19222 0.135028 -1.71392e-19)
(0.0688473 0.0472739 5.06578e-20)
(0.00155083 0.000843745 1.50279e-20)
(-0.00818796 -0.00543925 0)
(0.232563 0.170354 -2.72762e-20)
(1.0625 0.770963 -1.23919e-20)
(1.25441 0.921035 -1.4464e-20)
(1.27505 0.953531 9.04405e-21)
(1.22696 0.93791 5.90605e-21)
(1.15666 0.906125 0)
(1.08159 0.870623 1.67528e-20)
(1.00163 0.830923 -1.26548e-20)
(0.91686 0.784502 7.97686e-22)
(0.828802 0.72822 1.36397e-20)
(0.753171 0.667924 1.15631e-19)
(0.702899 0.615068 -1.79384e-20)
(0.667098 0.565714 -6.76749e-20)
(0.609686 0.497758 -2.80262e-20)
(0.493609 0.390365 3.31105e-20)
(0.333389 0.257173 3.09745e-23)
(0.178407 0.134469 4.61718e-20)
(0.062313 0.0459484 -1.09057e-19)
(0.000229305 0.000187168 1.29366e-19)
(-0.00779565 -0.00543256 1.9102e-20)
(0.232821 0.178628 1.05904e-20)
(1.05457 0.803189 -7.13851e-21)
(1.2422 0.958453 1.29579e-21)
(1.26095 0.991146 7.2496e-21)
(1.21237 0.974365 1.25196e-22)
(1.14196 0.941303 -1.95867e-20)
(1.0665 0.904573 4.86712e-21)
(0.98565 0.86362 -5.28849e-20)
(0.899335 0.815876 -1.1037e-19)
(0.808749 0.757952 -1.10651e-19)
(0.729883 0.69532 0)
(0.676699 0.639288 -7.89569e-20)
(0.638455 0.585082 9.77134e-20)
(0.579132 0.509827 0)
(0.46478 0.39451 -7.1028e-20)
(0.311264 0.255951 4.21686e-20)
(0.164664 0.131315 -4.96803e-20)
(0.0559107 0.0434019 -5.86966e-20)
(-0.00122975 -0.000792411 -1.04229e-19)
(-0.00753264 -0.00547396 -8.23015e-20)
(0.233456 0.186778 -1.22286e-20)
(1.04694 0.833839 7.65213e-21)
(1.23024 0.993613 1.68811e-20)
(1.2472 1.02641 1.15198e-20)
(1.19821 1.00857 5.92419e-22)
(1.12775 0.974405 -1.05543e-20)
(1.05198 0.936625 1.62963e-20)
(0.970343 0.894654 -5.45043e-20)
(0.882564 0.845874 -6.55803e-20)
(0.789478 0.786696 1.16247e-19)
(0.707165 0.722152 2.5523e-19)
(0.650586 0.663016 0)
(0.60928 0.603408 0)
(0.547539 0.519402 -3.23145e-20)
(0.435195 0.394681 0)
(0.289495 0.250263 9.06377e-20)
(0.152683 0.124727 1.06812e-19)
(0.0517492 0.0394738 0)
(-0.00166078 -0.00187239 0)
(-0.00738188 -0.00557198 8.84806e-20)
(0.233768 0.194477 1.41747e-20)
(1.03964 0.862904 1.11572e-20)
(1.21862 1.02663 1.24049e-20)
(1.23387 1.05946 -1.21862e-20)
(1.18457 1.04063 -8.49554e-22)
(1.1141 1.00551 1.07338e-20)
(1.03811 0.966839 -2.24468e-20)
(0.955783 0.924053 -1.20309e-22)
(0.86664 0.874501 -1.04438e-21)
(0.771097 0.814455 -8.99622e-22)
(0.685165 0.74848 1.31771e-19)
(0.624656 0.686411 0)
(0.579497 0.620995 9.93921e-20)
(0.514433 0.526666 6.91804e-20)
(0.404046 0.390555 1.65947e-19)
(0.267682 0.238498 4.88887e-20)
(0.144193 0.111623 -5.74779e-20)
(0.0548749 0.0305224 -3.38534e-20)
(0.00525324 -0.00451345 0)
(-0.00585575 -0.00541061 9.51201e-20)
(0.234457 0.202205 -3.26248e-20)
(1.03263 0.890523 0)
(1.20732 1.05755 1.52059e-20)
(1.22099 1.09036 -1.07646e-20)
(1.17149 1.07065 3.21453e-21)
(1.10106 1.03469 -1.11943e-20)
(1.02494 0.995268 4.37002e-20)
(0.942016 0.95185 -4.43313e-21)
(0.851612 0.901768 0)
(0.753696 0.841203 -1.29031e-19)
(0.664032 0.77433 -2.87522e-19)
(0.599039 0.709639 1.17525e-20)
(0.549122 0.638166 1.37677e-19)
(0.47945 0.532126 0)
(0.370045 0.382545 1.12204e-19)
(0.243315 0.219205 0)
(0.137292 0.0849852 0)
(0.0716461 -0.000221508 -3.6583e-20)
(0.046583 -0.022197 0)
(0.0254084 0.00475183 2.55093e-20)
(0.234722 0.209374 -3.69261e-20)
(1.02588 0.916915 0)
(1.19635 1.08657 2.58783e-20)
(1.20853 1.11936 0)
(1.15894 1.09889 -2.62898e-21)
(1.08857 1.06225 0)
(1.0124 1.02222 2.1475e-21)
(0.928946 0.978382 7.57645e-21)
(0.837358 0.928034 8.29705e-21)
(0.737101 0.867317 -1.42076e-19)
(0.643575 0.80015 8.66493e-21)
(0.573438 0.733376 9.48918e-20)
(0.517651 0.655709 1.34694e-19)
(0.441604 0.536517 1.81075e-20)
(0.331199 0.37214 8.81309e-20)
(0.211039 0.193204 0)
(0.119096 0.0404045 1.21031e-19)
(0.0678725 -0.0370554 -7.11051e-20)
(0.0308159 0.053354 8.31598e-20)
(-0.0383704 0.456477 -9.88045e-20)
(0.234947 0.216386 3.08789e-20)
(1.01916 0.941952 4.59973e-20)
(1.18561 1.11403 0)
(1.19633 1.14691 1.0409e-21)
(1.14672 1.12593 9.06905e-21)
(1.07635 1.08886 1.21671e-20)
(1.00017 1.0485 1.51807e-20)
(0.916155 1.00459 0)
(0.823336 0.954398 5.50798e-20)
(0.720621 0.894108 -7.42691e-21)
(0.622857 0.827438 0)
(0.54652 0.759333 0)
(0.482981 0.674948 1.20967e-19)
(0.398284 0.54026 -5.59641e-20)
(0.284262 0.361069 -8.94926e-20)
(0.16647 0.163461 0)
(0.06849 0.0592626 6.15017e-20)
(0.00573278 0.462612 -7.15324e-20)
(0.0308048 1.92818 -4.03341e-20)
(0.0573919 2.82545 -4.9357e-20)
(0.234825 0.222849 -2.35921e-20)
(1.01252 0.965809 -5.97598e-20)
(1.17513 1.13991 1.57721e-20)
(1.18441 1.17287 1.18905e-20)
(1.13489 1.15159 0)
(1.0645 1.11426 6.16834e-21)
(0.988481 1.0738 2.06443e-20)
(0.90384 1.03004 -3.68349e-21)
(0.809834 0.980345 8.24388e-21)
(0.704655 0.920976 1.35845e-19)
(0.602515 0.855548 1.46484e-19)
(0.519262 0.787333 1.0705e-19)
(0.445893 0.696036 1.22129e-19)
(0.350774 0.542538 -1.32025e-19)
(0.235298 0.353021 -1.3553e-19)
(0.110645 0.217795 0)
(0.0390072 0.886268 0)
(0.0865926 2.58236 3.4289e-20)
(0.0894756 3.2124 0)
(0.0908644 3.38959 8.97556e-20)
(0.237493 0.228888 0)
(1.00626 0.988867 0)
(1.16462 1.16408 0)
(1.17255 1.19712 3.79562e-21)
(1.12311 1.1756 8.77738e-21)
(1.05283 1.1383 1.74704e-21)
(0.977243 1.09802 1.32442e-20)
(0.891936 1.05461 -3.60343e-21)
(0.796788 1.0057 6.91232e-20)
(0.689192 0.947758 -1.79557e-21)
(0.582639 0.884275 2.90372e-19)
(0.492032 0.817429 -1.2385e-20)
(0.406272 0.719796 1.48931e-20)
(0.301041 0.541525 1.91673e-20)
(0.175844 0.3708 -5.41993e-22)
(0.0901227 1.01494 3.49622e-22)
(0.123683 2.76373 -1.81422e-19)
(0.12844 3.30144 -6.87147e-20)
(0.11908 3.42386 3.66126e-20)
(0.108715 3.44368 -4.1465e-20)
(0.160847 0.174619 1.46842e-20)
(0.995903 1.01386 0)
(1.15387 1.18674 -3.33541e-20)
(1.16117 1.22008 -3.37803e-20)
(1.11184 1.19846 2.37821e-20)
(1.04202 1.16146 -7.41309e-22)
(0.966283 1.12113 -1.36511e-20)
(0.88047 1.07835 4.0341e-20)
(0.784273 1.03054 -5.69572e-20)
(0.674449 0.974572 0)
(0.563516 0.913695 1.43566e-19)
(0.465375 0.849371 -8.78279e-20)
(0.366558 0.749344 0)
(0.242914 0.541257 1.85997e-20)
(0.129151 0.758504 4.41935e-20)
(0.138275 2.56712 -5.02267e-20)
(0.186224 3.32877 5.72018e-20)
(0.168943 3.43443 3.10062e-20)
(0.140401 3.45318 3.54107e-20)
(0.12125 3.46186 5.68587e-20)
(0.272374 0.26704 -2.81923e-20)
(0.978918 1.02445 0)
(1.13598 1.2129 3.67153e-20)
(1.14668 1.25135 3.84882e-20)
(1.09443 1.23221 -2.86663e-20)
(1.02402 1.19558 -4.33248e-21)
(0.947102 1.1568 1.24929e-20)
(0.860724 1.11534 3.16232e-21)
(0.763078 1.06981 5.4427e-20)
(0.650232 1.01803 1.1845e-19)
(0.533453 0.96354 8.10729e-21)
(0.423524 0.903588 7.84468e-20)
(0.292804 0.784567 1.41371e-20)
(0.204 0.927945 -1.79381e-20)
(0.209746 2.44271 -4.05761e-20)
(0.260877 3.33328 4.04723e-20)
(0.243867 3.46018 -4.46477e-20)
(0.209714 3.47881 -2.58196e-20)
(0.176153 3.50313 -2.38604e-20)
(0.13112 3.49795 -3.46576e-21)
(0.262717 0.266023 0)
(0.976263 1.04752 1.1072e-20)
(1.12738 1.23668 -7.68971e-21)
(1.13569 1.27507 -4.7318e-21)
(1.08338 1.25563 -2.06453e-20)
(1.01295 1.21919 5.34082e-21)
(0.93571 1.18064 -6.34681e-21)
(0.849073 1.14005 2.83735e-21)
(0.750776 1.09605 -5.67997e-20)
(0.636399 1.04727 -2.80608e-21)
(0.516308 0.997752 -2.606e-19)
(0.400058 0.940593 1.12249e-20)
(0.275787 0.858017 -1.34206e-20)
(0.239108 1.54611 -1.65699e-20)
(0.301813 3.14372 3.67185e-21)
(0.314922 3.46234 2.55303e-22)
(0.273479 3.50935 6.77192e-20)
(0.239582 3.53234 3.482e-20)
(0.193906 3.5522 -1.21673e-20)
(0.143994 3.54864 -1.77874e-20)
(0.24882 0.264173 2.87154e-20)
(0.972709 1.07318 7.54837e-20)
(1.11844 1.26255 -2.20157e-20)
(1.12433 1.30042 -1.77958e-20)
(1.07186 1.2805 0)
(1.0015 1.2441 1.41713e-20)
(0.924224 1.20584 -6.03589e-21)
(0.837583 1.16606 2.48803e-21)
(0.738948 1.12371 -6.33175e-21)
(0.623577 1.07821 -1.0766e-19)
(0.501098 1.03426 -1.20555e-19)
(0.379512 0.979201 -9.23228e-20)
(0.278099 1.00251 -1.01178e-19)
(0.304383 2.31161 1.04435e-19)
(0.382291 3.39015 8.95471e-20)
(0.354096 3.51916 0)
(0.306104 3.55557 0)
(0.269509 3.58896 -9.67793e-21)
(0.225497 3.63399 0)
(0.156067 3.61839 -1.60346e-20)
(0.239063 0.26622 -4.32637e-20)
(0.967238 1.09974 -6.44701e-20)
(1.10813 1.28967 0)
(1.11174 1.32661 1.26506e-21)
(1.05911 1.30606 -2.39583e-20)
(0.988993 1.2696 2.56334e-20)
(0.911995 1.23165 -2.02189e-21)
(0.825576 1.19262 1.42834e-21)
(0.726862 1.15188 -4.03044e-20)
(0.610939 1.10968 5.39354e-21)
(0.487013 1.0714 0)
(0.360955 1.02204 0)
(0.300775 1.29413 -9.22087e-20)
(0.383163 2.97386 3.77844e-20)