/*--------------------------------*- C++ -*----------------------------------*\
  =========                 |
  \\      /  F ield         | OpenFOAM: The Open Source CFD Toolbox
   \\    /   O peration     | Website:  https://openfoam.org
    \\  /    A nd           | Version:  6
     \\/     M anipulation  |
\*---------------------------------------------------------------------------*/
FoamFile
{
    version     2.0;
    format      ascii;
    class       volScalarField;
    location    "105";
    object      p;
}
// * * * * * * * * * * * * * * * * * * * * * * * * * * * * * * * * * * * * * //

dimensions      [0 2 -2 0 0 0 0];

internalField   nonuniform List<scalar> 
8800
(
0.954642
0.905328
0.867365
0.8393
0.819144
0.804566
0.79398
0.786456
0.781593
0.779554
0.780957
0.785327
0.792143
0.801584
0.814333
0.831662
0.855545
0.888647
0.931587
0.984102
0.789128
0.795474
0.804627
0.808179
0.805575
0.799494
0.792563
0.786336
0.781555
0.778713
0.778516
0.781176
0.785845
0.791993
0.799108
0.806153
0.81104
0.810921
0.804251
0.795357
0.762629
0.768866
0.77337
0.777247
0.780202
0.781161
0.780086
0.777984
0.77603
0.775224
0.776295
0.778782
0.781695
0.783985
0.784521
0.782745
0.779388
0.775382
0.770605
0.76689
0.758305
0.761072
0.763683
0.765847
0.767594
0.769174
0.770293
0.770668
0.770585
0.770723
0.771572
0.772754
0.773527
0.773402
0.772446
0.771106
0.769448
0.767155
0.76475
0.763184
0.753217
0.754643
0.756488
0.758578
0.760301
0.761609
0.762727
0.763733
0.764578
0.765362
0.766126
0.766633
0.766696
0.766363
0.765719
0.764623
0.762983
0.7611
0.759753
0.75895
0.748185
0.74909
0.750342
0.751979
0.753687
0.755237
0.756546
0.7577
0.758809
0.759884
0.760734
0.761182
0.76124
0.760911
0.760138
0.758974
0.757633
0.756382
0.755568
0.755043
0.743225
0.743882
0.74485
0.74618
0.747645
0.749184
0.750699
0.752103
0.753419
0.754695
0.755725
0.756292
0.75637
0.755982
0.755241
0.75433
0.753365
0.752478
0.751906
0.751521
0.738331
0.738836
0.73963
0.740786
0.742107
0.743553
0.745098
0.746689
0.748266
0.749809
0.751063
0.751762
0.751918
0.751659
0.751146
0.750498
0.749794
0.749154
0.748736
0.748435
0.733446
0.733848
0.734517
0.735557
0.736813
0.738212
0.739762
0.741463
0.743275
0.745127
0.746665
0.747584
0.747957
0.747947
0.747692
0.747278
0.746791
0.74635
0.746044
0.7458
0.728487
0.728814
0.729398
0.730363
0.731581
0.732979
0.734578
0.736397
0.73843
0.740613
0.742521
0.743782
0.744473
0.744755
0.74476
0.744593
0.744316
0.744043
0.743823
0.743617
0.723361
0.723633
0.724158
0.725082
0.726293
0.72773
0.729423
0.731407
0.733703
0.736275
0.738646
0.740346
0.741421
0.742035
0.742327
0.742412
0.742349
0.742229
0.742078
0.741899
0.717975
0.718203
0.718691
0.719606
0.72085
0.722371
0.724202
0.726412
0.729046
0.732099
0.735033
0.737257
0.738783
0.739781
0.740397
0.74074
0.740907
0.740931
0.740838
0.740676
0.712228
0.712422
0.712893
0.713828
0.715147
0.716798
0.718825
0.721331
0.724395
0.728043
0.73166
0.734509
0.736564
0.738004
0.738991
0.739645
0.740041
0.740198
0.740152
0.740003
0.706009
0.706176
0.706647
0.70763
0.709066
0.7109
0.713193
0.716081
0.719681
0.72406
0.728502
0.732101
0.734784
0.73674
0.738155
0.739153
0.739799
0.740092
0.740088
0.739945
0.699189
0.699332
0.699819
0.70088
0.702478
0.704555
0.707195
0.710566
0.714831
0.720099
0.725538
0.730033
0.733462
0.736027
0.737932
0.739326
0.740258
0.740691
0.740725
0.740584
0.691614
0.691735
0.692251
0.693419
0.69523
0.697623
0.700702
0.704677
0.709761
0.716112
0.722751
0.728314
0.732623
0.73591
0.738401
0.740255
0.741506
0.742084
0.742153
0.74201
0.683086
0.683189
0.683739
0.68505
0.687137
0.689929
0.693559
0.698285
0.704377
0.712043
0.720119
0.726953
0.732303
0.736438
0.739633
0.742027
0.743636
0.744367
0.744467
0.744316
0.673315
0.673418
0.674037
0.675524
0.677967
0.681263
0.685582
0.691243
0.698574
0.707835
0.717629
0.725965
0.732542
0.737677
0.741697
0.744725
0.746739
0.747628
0.747753
0.747592
0.662004
0.662084
0.662792
0.664535
0.667424
0.671358
0.676546
0.683374
0.692233
0.703429
0.715269
0.725367
0.733381
0.739689
0.744661
0.748433
0.750893
0.751939
0.752082
0.751906
0.648725
0.648792
0.649611
0.651669
0.655124
0.659879
0.666176
0.674474
0.685225
0.698766
0.713033
0.725182
0.73485
0.742518
0.748601
0.753211
0.756146
0.757338
0.757486
0.757293
0.632866
0.632924
0.633897
0.636378
0.640582
0.646408
0.65414
0.664314
0.677426
0.693806
0.710927
0.725438
0.736988
0.746206
0.75354
0.75908
0.762497
0.763805
0.763943
0.76373
0.61358
0.613635
0.614833
0.617913
0.623136
0.630408
0.640047
0.652656
0.668733
0.688543
0.708977
0.726162
0.739823
0.750766
0.759471
0.76601
0.769868
0.771238
0.771344
0.771112
0.589617
0.589677
0.591232
0.595213
0.601907
0.611209
0.623465
0.639293
0.659105
0.683023
0.707247
0.727395
0.743363
0.756187
0.76636
0.773889
0.778082
0.779429
0.779481
0.779233
0.559019
0.559111
0.561286
0.566733
0.575737
0.58804
0.604006
0.624123
0.64861
0.677373
0.705842
0.729194
0.747623
0.762406
0.774113
0.78251
0.786843
0.788061
0.788038
0.787782
0.518471
0.518704
0.522166
0.530327
0.543248
0.560231
0.581504
0.607274
0.637479
0.671807
0.704917
0.731646
0.752596
0.769382
0.782558
0.791562
0.795752
0.796722
0.796616
0.796363
0.461645
0.46284
0.46978
0.483623
0.503407
0.527651
0.556295
0.589209
0.626129
0.66662
0.704641
0.734838
0.758296
0.776996
0.791441
0.800634
0.80433
0.804973
0.804798
0.80456
0.37937
0.387462
0.403487
0.427776
0.457838
0.491808
0.529416
0.570488
0.61479
0.661923
0.705175
0.739091
0.765269
0.78599
0.801344
0.810255
0.81324
0.813562
0.813352
0.81316
0.291512
0.309319
0.335369
0.370884
0.411791
0.455594
0.502126
0.551399
0.603291
0.657507
0.706636
0.744892
0.774335
0.797243
0.813229
0.821095
0.823066
0.823115
0.822944
0.822828
0.215983
0.237782
0.272198
0.317314
0.36781
0.420875
0.476083
0.533382
0.592628
0.653539
0.70806
0.750173
0.782425
0.80703
0.822945
0.829506
0.830745
0.830707
0.83058
0.830499
0.153773
0.178009
0.21817
0.270171
0.328142
0.388909
0.45173
0.516339
0.582395
0.649512
0.708963
0.754552
0.789205
0.815012
0.83064
0.836294
0.837176
0.837113
0.83701
0.836944
0.101957
0.127681
0.172002
0.229338
0.29326
0.360316
0.429563
0.500554
0.572719
0.645493
0.70945
0.758182
0.794991
0.821846
0.837136
0.842092
0.842759
0.842679
0.842589
0.842527
0.0579498
0.0845496
0.131946
0.193586
0.262482
0.334872
0.409636
0.48621
0.563831
0.641731
0.709797
0.76138
0.800113
0.827818
0.842728
0.847164
0.847694
0.847599
0.847511
0.847449
0.0196692
0.0468361
0.0966223
0.161824
0.234961
0.31199
0.391635
0.473215
0.555793
0.638384
0.710191
0.764312
0.804676
0.832992
0.847539
0.851598
0.852041
0.851931
0.851839
0.851771
-0.0143996
0.0131924
0.0649331
0.133168
0.209986
0.291097
0.375134
0.461301
0.548483
0.635457
0.710704
0.767061
0.80877
0.837479
0.851637
0.855417
0.855813
0.855699
0.855605
0.855528
-0.0453194
-0.0173595
0.0360284
0.106915
0.186983
0.271735
0.359758
0.450171
0.541709
0.63287
0.711366
0.769732
0.812515
0.841389
0.855114
0.858674
0.859057
0.858967
0.858884
0.858799
-0.0739411
-0.0456103
0.00924705
0.0825303
0.165496
0.253527
0.345195
0.439576
0.535279
0.630534
0.71221
0.772452
0.816095
0.844918
0.858146
0.861509
0.861913
0.861883
0.861832
0.861744
-0.100701
-0.0720439
-0.0158496
0.0595846
0.145165
0.236174
0.331201
0.429309
0.529034
0.628381
0.713286
0.77537
0.819729
0.848327
0.860996
0.864167
0.864612
0.86467
0.864673
0.864588
-0.12613
-0.0970706
-0.0396434
0.0377588
0.125711
0.219437
0.317578
0.419203
0.52283
0.626325
0.714638
0.778645
0.823652
0.851897
0.863959
0.866927
0.867411
0.867569
0.867638
0.867565
-0.150408
-0.120948
-0.0623672
0.0168272
0.10693
0.203144
0.304169
0.409117
0.516538
0.624267
0.71628
0.782423
0.828085
0.855874
0.867283
0.870018
0.870526
0.870771
0.870906
0.870849
-0.17373
-0.143858
-0.0842029
-0.00336493
0.0886913
0.187173
0.290861
0.398929
0.510031
0.622079
0.718163
0.78682
0.833222
0.860452
0.871109
0.873565
0.87407
0.874378
0.874562
0.874523
-0.196244
-0.165915
-0.105257
-0.0229133
0.0708945
0.171441
0.277575
0.388561
0.503199
0.619614
0.720175
0.791904
0.839285
0.865808
0.875474
0.877557
0.878049
0.878392
0.878594
0.878564
-0.218064
-0.187239
-0.125584
-0.0418761
0.0535002
0.155898
0.264266
0.377949
0.495949
0.616715
0.722148
0.79766
0.846505
0.872176
0.880416
0.881838
0.882304
0.882722
0.882929
0.882887
-0.239104
-0.207811
-0.145211
-0.0602995
0.0364773
0.140537
0.250909
0.367069
0.488219
0.613254
0.723867
0.803973
0.855094
0.880031
0.8862
0.886267
0.886514
0.887212
0.887643
0.887592
-0.259386
-0.227654
-0.164174
-0.0781924
0.0198259
0.125358
0.237522
0.355906
0.479977
0.609108
0.725104
0.810622
0.865147
0.889994
0.893677
0.891338
0.890649
0.8919
0.893272
0.893515
-0.279001
-0.246768
-0.182495
-0.0955625
0.0035645
0.110391
0.224134
0.344486
0.471206
0.604192
0.725607
0.817285
0.876538
0.902583
0.904276
0.898847
0.896132
0.897833
0.901166
0.902802
-0.297837
-0.265158
-0.20015
-0.112378
-0.0122868
0.0956802
0.210792
0.332854
0.461933
0.598464
0.725147
0.823543
0.888875
0.917826
0.919071
0.911184
0.90563
0.905515
0.909212
0.911441
-0.315998
-0.282862
-0.217166
-0.128692
-0.0277841
0.0811655
0.197425
0.320932
0.452058
0.591809
0.72349
0.829025
0.901779
0.935357
0.938145
0.929445
0.920679
0.913474
0.905966
0.9098
-0.333439
-0.299948
-0.233693
-0.144707
-0.0432236
0.066527
0.183635
0.308266
0.44109
0.583681
0.720103
0.833147
0.915136
0.955194
0.96101
0.953073
0.939881
0.924342
0.901098
0.904985
-0.350054
-0.316421
-0.249591
-0.160247
-0.0583627
0.0520414
0.169589
0.295123
0.429232
0.574155
0.714695
0.834639
0.927236
0.97535
0.983357
0.974645
0.957142
0.92428
0.869042
0.84657
-0.365754
-0.333325
-0.264461
-0.174886
-0.0723983
0.0381953
0.155562
0.281771
0.416742
0.563347
0.70714
0.832535
0.935949
0.99343
0.998437
0.983556
0.953012
0.893025
0.830735
0.793347
-0.407511
-0.350041
-0.278014
-0.189601
-0.0861094
0.0239734
0.1417
0.268063
0.403368
0.550809
0.696772
0.825691
0.937267
1.00291
1.00259
0.965765
0.898892
0.823184
0.751307
0.711569
-0.380573
-0.361563
-0.298551
-0.209507
-0.107433
0.00256598
0.119826
0.245967
0.381116
0.528562
0.675315
0.80578
0.912571
0.985623
0.949571
0.817659
0.713208
0.640714
0.571468
0.591057
-0.410232
-0.378083
-0.314181
-0.225539
-0.123808
-0.013871
0.10375
0.229493
0.364044
0.510488
0.655715
0.783494
0.878909
0.919775
0.84565
0.686584
0.564339
0.481833
0.394639
0.431969
-0.432818
-0.398384
-0.332782
-0.244075
-0.142369
-0.0323629
0.0852819
0.210436
0.34394
0.488488
0.63045
0.752283
0.835453
0.837996
0.709034
0.538341
0.397955
0.296586
0.196745
0.220275
-0.454577
-0.419193
-0.352301
-0.26297
-0.161175
-0.051233
0.0659825
0.190316
0.322441
0.464447
0.601677
0.713723
0.778831
0.747067
0.568455
0.379253
0.210762
0.0705814
-0.0582077
-0.0541656
-0.475915
-0.440243
-0.372529
-0.282656
-0.180737
-0.0709945
0.0456017
0.168897
0.299239
0.438061
0.569171
0.670728
0.713974
0.629925
0.429217
0.222413
0.0297823
-0.12825
-0.334351
-0.415142
-0.497524
-0.462015
-0.39387
-0.30365
-0.201614
-0.0920671
0.0239276
0.146073
0.274381
0.409515
0.533535
0.625327
0.638893
0.503953
0.30119
0.0845948
-0.111896
-0.274979
-0.397855
-0.510358
-0.520461
-0.484985
-0.416676
-0.326336
-0.224341
-0.115125
0.000125976
0.120873
0.246679
0.377334
0.493487
0.571197
0.555101
0.383969
0.180824
-0.0291496
-0.208768
-0.307388
-0.333202
-0.346187
-0.544875
-0.509446
-0.441074
-0.350797
-0.249065
-0.140394
-0.0261892
0.0927653
0.215487
0.340696
0.44807
0.506292
0.468314
0.268482
0.0678677
-0.121541
-0.257453
-0.295922
-0.304271
-0.304625
-0.571057
-0.535532
-0.467106
-0.377024
-0.275737
-0.167894
-0.0550595
0.0616684
0.180703
0.299586
0.397372
0.437415
0.362709
0.162248
-0.0313706
-0.195971
-0.272182
-0.286246
-0.287234
-0.287109
-0.599012
-0.563276
-0.4948
-0.405025
-0.304386
-0.19763
-0.0865139
0.0275419
0.142324
0.254113
0.341193
0.363777
0.250108
0.0653376
-0.117068
-0.247412
-0.276588
-0.27718
-0.277701
-0.277297
-0.628495
-0.592528
-0.52407
-0.434731
-0.334943
-0.229568
-0.120548
-0.0096116
0.100403
0.204391
0.280634
0.282565
0.150921
-0.0228454
-0.183887
-0.259256
-0.273958
-0.271882
-0.271558
-0.271158
-0.658959
-0.622945
-0.554662
-0.465924
-0.367233
-0.263566
-0.157028
-0.0496836
0.0551684
0.15096
0.215972
0.201106
0.0605435
-0.0997392
-0.228604
-0.267763
-0.267103
-0.267427
-0.267154
-0.266829
-0.689963
-0.654
-0.586097
-0.498198
-0.400916
-0.299309
-0.195677
-0.0923967
0.00692799
0.0948264
0.146262
0.124585
-0.0199962
-0.160087
-0.254504
-0.262937
-0.264391
-0.264712
-0.264595
-0.264385
-0.720527
-0.684837
-0.617662
-0.530928
-0.435445
-0.336324
-0.236026
-0.137251
-0.0438759
0.0368767
0.0769373
0.0479082
-0.0880475
-0.20226
-0.259282
-0.269378
-0.264009
-0.26298
-0.262605
-0.262425
-0.749033
-0.714194
-0.64833
-0.56324
-0.470049
-0.373903
-0.277398
-0.183494
-0.0964313
-0.0224159
0.0128194
-0.0302476
-0.142775
-0.234589
-0.257474
-0.260751
-0.261417
-0.260917
-0.260701
-0.260575
-0.774225
-0.74058
-0.67672
-0.59394
-0.503669
-0.411102
-0.318906
-0.230178
-0.149466
-0.0824715
-0.0494795
-0.0972914
-0.183858
-0.253265
-0.274475
-0.264251
-0.260609
-0.259475
-0.25916
-0.259008
-0.793513
-0.761916
-0.701094
-0.621523
-0.535002
-0.446736
-0.359434
-0.276216
-0.201663
-0.141464
-0.111254
-0.149552
-0.210782
-0.255186
-0.261056
-0.260789
-0.259299
-0.258761
-0.258574
-0.258404
-0.804907
-0.776143
-0.719411
-0.644266
-0.56253
-0.479423
-0.397657
-0.320346
-0.251896
-0.196773
-0.167713
-0.192957
-0.226915
-0.251934
-0.252711
-0.257111
-0.259031
-0.259286
-0.259263
-0.259178
-0.805756
-0.780925
-0.729609
-0.660349
-0.584634
-0.507709
-0.432149
-0.361085
-0.298917
-0.24775
-0.214967
-0.23229
-0.24248
-0.255653
-0.258807
-0.259697
-0.260491
-0.260721
-0.260774
-0.260781
-0.793687
-0.773616
-0.729573
-0.668055
-0.599865
-0.530226
-0.46159
-0.396916
-0.34095
-0.295622
-0.250469
-0.27054
-0.258656
-0.269259
-0.268536
-0.26483
-0.263335
-0.263212
-0.263344
-0.263354
-0.766678
-0.752046
-0.717525
-0.666197
-0.6072
-0.545988
-0.48497
-0.42674
-0.376241
-0.338437
-0.290475
-0.286178
-0.276566
-0.281979
-0.27384
-0.270534
-0.268564
-0.26849
-0.268735
-0.268737
-0.728206
-0.718892
-0.694741
-0.6551
-0.60669
-0.554768
-0.501722
-0.449987
-0.404247
-0.371896
-0.340248
-0.31069
-0.279709
-0.281355
-0.289833
-0.284351
-0.28015
-0.279546
-0.280181
-0.28026
-0.685291
-0.679976
-0.666126
-0.637874
-0.600441
-0.557446
-0.511947
-0.466343
-0.424398
-0.393178
-0.365068
-0.336118
-0.299478
-0.272258
-0.257476
-0.266717
-0.289946
-0.303925
-0.307989
-0.308317
-0.647632
-0.644378
-0.63775
-0.619789
-0.591307
-0.555814
-0.516731
-0.475736
-0.435791
-0.403194
-0.376954
-0.360386
-0.352898
-0.361974
-0.383137
-0.417191
-0.42129
-0.392542
-0.37689
-0.379154
-0.620508
-0.618579
-0.615222
-0.604602
-0.582904
-0.552988
-0.517925
-0.479223
-0.439141
-0.402695
-0.374331
-0.368088
-0.412267
-0.491062
-0.571672
-0.609489
-0.612216
-0.573422
-0.522161
-0.504313
-0.600633
-0.599953
-0.598826
-0.593575
-0.577713
-0.551421
-0.51759
-0.478604
-0.435644
-0.392509
-0.362099
-0.335625
-0.328353
-0.355473
-0.412301
-0.431892
-0.406077
-0.374763
-0.33945
-0.322604
-0.589018
-0.588796
-0.588186
-0.585781
-0.575026
-0.550879
-0.516728
-0.475573
-0.428127
-0.375692
-0.331328
-0.271817
-0.191569
-0.115375
-0.059817
-0.010223
0.0187054
0.0420249
0.0603172
0.070208
-0.580992
-0.580846
-0.58044
-0.579757
-0.573215
-0.551507
-0.51629
-0.471761
-0.418646
-0.354366
-0.28897
-0.206301
-0.0648729
0.110936
0.271859
0.390964
0.468011
0.512833
0.538403
0.549709
-0.575777
-0.575732
-0.575607
-0.575436
-0.571561
-0.553339
-0.517141
-0.468386
-0.409015
-0.334648
-0.250419
-0.154107
0.0244542
0.268074
0.516612
0.725659
0.872195
0.960172
1.00889
1.02756
-0.571584
-0.571575
-0.571493
-0.571373
-0.569973
-0.555713
-0.519437
-0.466758
-0.402131
-0.319746
-0.223741
-0.121181
0.0754117
0.361747
0.676328
0.963408
1.18248
1.30831
1.36271
1.37924
-0.568106
-0.568114
-0.568009
-0.567766
-0.56757
-0.557684
-0.523061
-0.468409
-0.399398
-0.312888
-0.21162
-0.106208
0.0775095
0.361326
0.677157
0.972574
1.21039
1.34946
1.40218
1.4141
-0.565489
-0.565531
-0.565578
-0.565655
-0.566158
-0.559186
-0.527847
-0.472648
-0.401777
-0.31476
-0.215395
-0.1163
0.0328172
0.284628
0.555842
0.802773
1.00239
1.1179
1.16077
1.16987
-0.562717
-0.56287
-0.563209
-0.563816
-0.564286
-0.560468
-0.532732
-0.479067
-0.409466
-0.325108
-0.231642
-0.143653
-0.0271421
0.176486
0.391691
0.572097
0.71392
0.795679
0.826201
0.832936
-0.560034
-0.560198
-0.560327
-0.560345
-0.56029
-0.558675
-0.535853
-0.48707
-0.42156
-0.341314
-0.256865
-0.180853
-0.0960291
0.0584592
0.222491
0.351225
0.446189
0.501215
0.522628
0.527737
-0.559202
-0.559197
-0.558716
-0.557292
-0.555324
-0.553806
-0.53781
-0.496756
-0.436271
-0.361584
-0.28642
-0.222869
-0.160276
-0.0475512
0.0767187
0.171857
0.239791
0.278596
0.293786
0.297457
-0.561879
-0.561697
-0.560833
-0.558497
-0.554706
-0.55233
-0.543681
-0.509088
-0.451924
-0.382453
-0.317512
-0.26392
-0.216734
-0.12965
-0.0352477
0.0358572
0.0885279
0.119849
0.131902
0.133564
-0.568189
-0.568263
-0.568504
-0.56912
-0.569647
-0.569458
-0.56188
-0.525597
-0.466788
-0.403598
-0.348418
-0.301599
-0.266838
-0.200191
-0.124028
-0.0668774
-0.0255603
-0.000475532
0.00771183
0.00846804
-0.573925
-0.574801
-0.577979
-0.586695
-0.599741
-0.60556
-0.591344
-0.542645
-0.480419
-0.42507
-0.374793
-0.333526
-0.305287
-0.253192
-0.193876
-0.149155
-0.115182
-0.0956686
-0.089033
-0.0886349
-0.574568
-0.575846
-0.58077
-0.595086
-0.618505
-0.631171
-0.606094
-0.548301
-0.492245
-0.444248
-0.39573
-0.358025
-0.336629
-0.292207
-0.243706
-0.209417
-0.184437
-0.170658
-0.166338
-0.16661
-0.575439
-0.576238
-0.578796
-0.582792
-0.584881
-0.588163
-0.572467
-0.5346
-0.498762
-0.456675
-0.408776
-0.375418
-0.355605
-0.320935
-0.283345
-0.256646
-0.237737
-0.227648
-0.224483
-0.224894
-0.583362
-0.583552
-0.582756
-0.565699
-0.522695
-0.489006
-0.494224
-0.505104
-0.498327
-0.460998
-0.416127
-0.386489
-0.366476
-0.335056
-0.305458
-0.28647
-0.273379
-0.266846
-0.264737
-0.265016
-0.598579
-0.597515
-0.593025
-0.565747
-0.506823
-0.458921
-0.473106
-0.511047
-0.507399
-0.465018
-0.420737
-0.392516
-0.371976
-0.343208
-0.317117
-0.300783
-0.290423
-0.285618
-0.28368
-0.283913
-0.634067
-0.631261
-0.634481
-0.635562
-0.626686
-0.595364
-0.582774
-0.575691
-0.537699
-0.472939
-0.424321
-0.394882
-0.369782
-0.342387
-0.31773
-0.301159
-0.290226
-0.284356
-0.28212
-0.282346
-0.727521
-0.733449
-0.763778
-0.803723
-0.820193
-0.799729
-0.754207
-0.677935
-0.574669
-0.480277
-0.4276
-0.389549
-0.362098
-0.333884
-0.307388
-0.287543
-0.273909
-0.266374
-0.263727
-0.264084
-0.840443
-0.854417
-0.890342
-0.926153
-0.941808
-0.922861
-0.85964
-0.739834
-0.592097
-0.48189
-0.418951
-0.373538
-0.34801
-0.318228
-0.287213
-0.262985
-0.246212
-0.236701
-0.233706
-0.23426
-0.882567
-0.895414
-0.92015
-0.944942
-0.957555
-0.939848
-0.870041
-0.719983
-0.565355
-0.460348
-0.387825
-0.346383
-0.324649
-0.292593
-0.258542
-0.231669
-0.212045
-0.201177
-0.198196
-0.199067
-0.817134
-0.827246
-0.845477
-0.865477
-0.877849
-0.863655
-0.794513
-0.642087
-0.505747
-0.40509
-0.335613
-0.306924
-0.289236
-0.255607
-0.221451
-0.195395
-0.176478
-0.166739
-0.164323
-0.165233
-0.661547
-0.670786
-0.688734
-0.710834
-0.727423
-0.715917
-0.643254
-0.522541
-0.415737
-0.323068
-0.271579
-0.25346
-0.237485
-0.207879
-0.178822
-0.156438
-0.140651
-0.133047
-0.131476
-0.13236
-0.445724
-0.456354
-0.4763
-0.502106
-0.521634
-0.510105
-0.447859
-0.364654
-0.286774
-0.225774
-0.198162
-0.184103
-0.173592
-0.151195
-0.128966
-0.112915
-0.102569
-0.0982424
-0.0975227
-0.098213
-0.190902
-0.203084
-0.229511
-0.26125
-0.282011
-0.27346
-0.23599
-0.191212
-0.149951
-0.124947
-0.110632
-0.104359
-0.103085
-0.0869408
-0.0731738
-0.0648002
-0.0590748
-0.0571477
-0.0573286
-0.0579828
0.0121879
-0.0019361
-0.0247706
-0.0423139
-0.051423
-0.053549
-0.0513973
-0.0437673
-0.0344122
-0.0284409
-0.0240145
-0.0208727
-0.0217207
-0.0193249
-0.0164208
-0.0177606
-0.0178156
-0.0171452
-0.0147595
-0.0137856
0.0690319
0.25152
0.417924
0.557711
0.667468
0.751944
0.820946
0.876798
0.889945
0.887305
0.344454
0.460559
0.568947
0.6618
0.738941
0.801838
0.851086
0.884335
0.902216
0.919303
0.530515
0.607355
0.683184
0.749331
0.805307
0.851563
0.88809
0.916211
0.937428
0.956745
0.668382
0.723139
0.778068
0.827238
0.869609
0.905707
0.936137
0.961754
0.981538
1.00045
0.780554
0.821881
0.86277
0.901116
0.935447
0.965888
0.992584
1.01533
1.03305
1.05116
0.874435
0.908906
0.942788
0.97532
1.00539
1.03269
1.0569
1.07733
1.09286
1.11036
0.960699
0.99191
1.02335
1.05381
1.08219
1.10804
1.13076
1.14941
1.16314
1.18014
1.04634
1.07847
1.1104
1.14118
1.16959
1.19505
1.21692
1.23425
1.24648
1.26298
1.13995
1.17621
1.21071
1.2429
1.27182
1.29695
1.31788
1.33402
1.34552
1.36163
1.25266
1.29338
1.33018
1.36284
1.39111
1.41494
1.43443
1.44961
1.46142
1.47746
1.39406
1.43488
1.47
1.4994
1.52447
1.54599
1.56441
1.57984
1.5929
1.60883
1.56529
1.5972
1.62414
1.64647
1.66651
1.68518
1.70288
1.71961
1.7345
1.7502
1.7513
1.76847
1.78554
1.80221
1.81829
1.83301
1.84689
1.86135
1.87656
1.89386
1.93466
1.94456
1.95771
1.96869
1.97809
1.98774
1.99833
2.00849
2.01777
2.04344
2.15243
2.14673
2.13378
2.11952
2.11321
2.1189
2.13704
2.16556
2.19932
2.23565
2.45526
2.31932
2.23979
2.19723
2.17989
2.18389
2.21131
2.26916
2.37681
2.55522
0.858333
0.852031
0.844305
0.833196
0.819632
0.806995
0.796616
0.788629
0.782948
0.779668
0.779384
0.78228
0.787565
0.794961
0.804538
0.816387
0.829963
0.842902
0.851898
0.859442
0.767384
0.773305
0.781382
0.787521
0.790599
0.7901
0.787033
0.783066
0.779516
0.777287
0.777224
0.779547
0.783358
0.787845
0.791978
0.794245
0.793188
0.788563
0.781515
0.773685
0.760604
0.762977
0.76625
0.769031
0.771493
0.773698
0.7749
0.774785
0.773892
0.773146
0.773441
0.774935
0.776781
0.778058
0.77802
0.77658
0.774442
0.772094
0.769123
0.766109
0.755773
0.756862
0.758784
0.761133
0.763019
0.764437
0.765681
0.766711
0.767362
0.767812
0.768459
0.769295
0.769837
0.769776
0.769192
0.768302
0.766996
0.765045
0.76295
0.761477
0.750694
0.751328
0.752463
0.754233
0.756095
0.757712
0.758995
0.760102
0.761145
0.762128
0.763024
0.763655
0.763882
0.763744
0.763261
0.762328
0.760931
0.759344
0.758022
0.757224
0.745699
0.746137
0.746932
0.748252
0.749796
0.751388
0.752904
0.754253
0.75548
0.756668
0.757752
0.758486
0.758773
0.758622
0.758024
0.757076
0.755961
0.754847
0.753961
0.753431
0.740775
0.741102
0.741721
0.742809
0.744132
0.745566
0.747091
0.748628
0.750107
0.751529
0.752833
0.753738
0.754097
0.753957
0.753442
0.752722
0.751926
0.751108
0.750467
0.750079
0.735896
0.736149
0.73665
0.737583
0.738788
0.740138
0.741616
0.743219
0.744901
0.746607
0.748192
0.749305
0.749809
0.74984
0.74956
0.749095
0.748524
0.747942
0.747485
0.74719
0.730986
0.731186
0.731605
0.732431
0.733564
0.734876
0.736352
0.738015
0.73986
0.741841
0.743759
0.745177
0.745956
0.746263
0.74625
0.746032
0.745683
0.745305
0.744992
0.74476
0.725955
0.726116
0.726477
0.727234
0.728328
0.729632
0.731151
0.732918
0.734947
0.737222
0.739536
0.741369
0.742521
0.743159
0.743436
0.743475
0.743362
0.743172
0.742979
0.742794
0.720711
0.72084
0.721161
0.721877
0.722963
0.724304
0.725908
0.727826
0.730098
0.732734
0.735532
0.737876
0.739477
0.7405
0.741106
0.741427
0.741549
0.741547
0.741459
0.74131
0.715158
0.715261
0.715555
0.716256
0.71737
0.718793
0.720528
0.722655
0.725244
0.728336
0.731726
0.734684
0.736815
0.738286
0.739268
0.739898
0.740286
0.740469
0.740471
0.740349
0.70919
0.709271
0.709549
0.710261
0.711439
0.712986
0.71491
0.717316
0.720309
0.723968
0.728082
0.731779
0.734538
0.736533
0.73795
0.738952
0.73962
0.739987
0.740073
0.739971
0.702688
0.702749
0.703022
0.703767
0.705045
0.706765
0.708943
0.711712
0.715215
0.719571
0.724564
0.729148
0.732659
0.735274
0.737193
0.738608
0.739599
0.74017
0.740337
0.740251
0.695512
0.69555
0.695826
0.696628
0.698045
0.699994
0.702503
0.705733
0.709869
0.71508
0.721138
0.726787
0.731191
0.734539
0.737054
0.738947
0.74031
0.741102
0.741348
0.741273
0.68749
0.687508
0.687788
0.688668
0.690269
0.692511
0.695439
0.699246
0.704168
0.710425
0.717768
0.72469
0.730152
0.734365
0.737589
0.740057
0.741843
0.742874
0.743199
0.743131
0.678363
0.67837
0.678678
0.679664
0.681502
0.684117
0.687571
0.692099
0.697992
0.705527
0.714419
0.722857
0.729572
0.734803
0.738861
0.742016
0.744289
0.745581
0.745983
0.745918
0.667869
0.66785
0.668198
0.669334
0.671473
0.674561
0.678679
0.684108
0.691203
0.7003
0.711056
0.721288
0.729476
0.735907
0.740949
0.744896
0.747733
0.749307
0.749781
0.749713
0.655622
0.655583
0.655983
0.657309
0.659829
0.663525
0.668486
0.675051
0.683644
0.694653
0.707648
0.71999
0.729896
0.73772
0.743916
0.748774
0.752247
0.754111
0.754648
0.754571
0.641113
0.641052
0.641532
0.643112
0.646124
0.650604
0.656653
0.664668
0.675142
0.6885
0.704171
0.718984
0.730857
0.740278
0.74781
0.753703
0.757866
0.760013
0.760593
0.760499
0.62362
0.623537
0.624147
0.626084
0.629752
0.635278
0.642759
0.65266
0.665523
0.681773
0.700624
0.718288
0.732397
0.743621
0.75263
0.759682
0.76457
0.766963
0.767553
0.767435
0.60211
0.602009
0.60283
0.605291
0.609884
0.616857
0.626293
0.638705
0.65464
0.674452
0.697045
0.717942
0.734541
0.747751
0.758377
0.766679
0.772261
0.774817
0.775373
0.775224
0.575011
0.574912
0.576089
0.57936
0.58537
0.594458
0.606679
0.622517
0.642426
0.666593
0.693525
0.718013
0.737316
0.752664
0.765012
0.774583
0.780734
0.783319
0.783787
0.783603
0.53978
0.539738
0.541559
0.54624
0.554632
0.56707
0.583403
0.603964
0.628971
0.658367
0.690219
0.718605
0.740757
0.758331
0.772446
0.783196
0.789671
0.792097
0.792425
0.792209
0.491894
0.49209
0.495346
0.503005
0.515853
0.533821
0.55629
0.583244
0.614598
0.650073
0.687338
0.719848
0.744916
0.764707
0.780547
0.792238
0.798639
0.800686
0.800842
0.800608
0.42288
0.42439
0.432348
0.446905
0.468008
0.494812
0.525951
0.561045
0.599881
0.642115
0.685115
0.721838
0.749823
0.771717
0.78903
0.801207
0.807062
0.80855
0.808548
0.808327
0.340405
0.343321
0.358854
0.384078
0.416526
0.45373
0.494214
0.53784
0.584521
0.634006
0.68342
0.72512
0.756739
0.781311
0.800096
0.812153
0.817169
0.818168
0.818115
0.817985
0.255752
0.263341
0.286724
0.322592
0.365974
0.413364
0.463183
0.51536
0.569884
0.626564
0.682317
0.728893
0.764008
0.7912
0.811311
0.822714
0.826373
0.826819
0.826732
0.826657
0.186255
0.19604
0.22438
0.267776
0.319703
0.375683
0.433882
0.494039
0.555992
0.619458
0.681076
0.732066
0.770262
0.799499
0.820213
0.83075
0.833603
0.833869
0.833795
0.833748
0.129122
0.139675
0.171796
0.220755
0.27912
0.341924
0.407112
0.474221
0.542851
0.612532
0.679532
0.734536
0.775486
0.806465
0.827577
0.837387
0.839702
0.839868
0.839807
0.839775
0.0811248
0.0920533
0.126782
0.180059
0.243648
0.312082
0.383125
0.456202
0.53072
0.605995
0.677905
0.736562
0.780008
0.812553
0.833903
0.843081
0.845031
0.845136
0.845078
0.845053
0.0398416
0.0509336
0.0875972
0.144325
0.212257
0.285499
0.361623
0.439938
0.51971
0.600048
0.676431
0.738402
0.78407
0.817923
0.839371
0.848025
0.849731
0.849791
0.849727
0.849701
0.0035537
0.0146983
0.0528683
0.112445
0.184068
0.261478
0.342098
0.425133
0.509709
0.594717
0.67522
0.740172
0.787751
0.822635
0.84407
0.852285
0.853829
0.85386
0.853791
0.85376
-0.0290025
-0.0178461
0.0215122
0.0835382
0.158369
0.239447
0.324088
0.411436
0.500476
0.589895
0.674273
0.741944
0.791155
0.826802
0.848084
0.855907
0.857349
0.857377
0.857315
0.857281
-0.0588621
-0.0476775
-0.00727337
0.0569211
0.134603
0.218947
0.307216
0.398533
0.491776
0.585431
0.673559
0.743796
0.794424
0.830582
0.851557
0.859002
0.860376
0.860435
0.860409
0.860382
-0.0866121
-0.0753896
-0.0340571
0.0320876
0.11232
0.199602
0.29118
0.386175
0.483402
0.581191
0.67306
0.745824
0.797731
0.834192
0.854724
0.861779
0.863102
0.863227
0.863265
0.86326
-0.112749
-0.101479
-0.0592816
0.00863846
0.091174
0.181122
0.275736
0.374159
0.475189
0.577055
0.672761
0.748135
0.801275
0.837892
0.857869
0.864514
0.865791
0.865999
0.866123
0.866153
-0.137678
-0.126272
-0.0832697
-0.0137105
0.0709167
0.163284
0.260694
0.362324
0.466988
0.572906
0.672627
0.750826
0.805256
0.841936
0.861276
0.867487
0.868701
0.868987
0.869197
0.86927
-0.161548
-0.149987
-0.10622
-0.0351637
0.0513641
0.145939
0.245916
0.350536
0.458671
0.568607
0.672577
0.753964
0.80985
0.846543
0.865149
0.870881
0.872005
0.87235
0.872631
0.872744
-0.184573
-0.172806
-0.128307
-0.0558477
0.0323998
0.128973
0.2313
0.338697
0.45013
0.564037
0.672482
0.757553
0.815223
0.851918
0.869631
0.874765
0.875768
0.876146
0.876467
0.876605
-0.206768
-0.194814
-0.149616
-0.075842
0.0139529
0.112323
0.216791
0.326745
0.441282
0.559062
0.67218
0.761515
0.82153
0.858289
0.874808
0.879091
0.879905
0.880327
0.88066
0.880794
-0.22826
-0.216073
-0.170163
-0.0951885
-0.00402309
0.0959534
0.202353
0.314647
0.43207
0.553574
0.671492
0.765695
0.828842
0.866001
0.880948
0.88379
0.884155
0.88468
0.885127
0.885275
-0.248926
-0.236591
-0.18998
-0.113926
-0.0215407
0.0798749
0.187982
0.302386
0.422464
0.547499
0.67023
0.769872
0.837134
0.875441
0.888658
0.889173
0.888365
0.888957
0.889976
0.890432
-0.268935
-0.256375
-0.209085
-0.132078
-0.0386149
0.0640743
0.173709
0.289973
0.412456
0.540794
0.668227
0.773759
0.84622
0.886885
0.8989
0.89652
0.893379
0.893532
0.895806
0.897425
-0.288177
-0.275391
-0.227503
-0.149632
-0.0552029
0.0485941
0.15957
0.277467
0.402071
0.533408
0.665345
0.77703
0.855743
0.900303
0.912504
0.907747
0.90161
0.900299
0.903762
0.90784
-0.30674
-0.293733
-0.245205
-0.16656
-0.0713004
0.0334673
0.145613
0.264902
0.391353
0.525377
0.661482
0.779325
0.865198
0.915195
0.929426
0.92397
0.915361
0.910585
0.908561
0.904069
-0.324551
-0.311386
-0.262288
-0.183039
-0.0871335
0.0184177
0.131518
0.251901
0.379905
0.516283
0.656259
0.780294
0.874489
0.931755
0.949877
0.945682
0.935648
0.924202
0.911644
0.912097
-0.341609
-0.328448
-0.27878
-0.199027
-0.102707
0.00346385
0.117293
0.238417
0.367648
0.505927
0.649337
0.779157
0.882427
0.948924
0.971847
0.969737
0.957258
0.942953
0.905997
0.869009
-0.357737
-0.344791
-0.294672
-0.214406
-0.118041
-0.0114177
0.102913
0.224552
0.354599
0.494255
0.640451
0.775197
0.887136
0.964784
0.992611
0.988547
0.9719
0.938324
0.883716