/*--------------------------------*- C++ -*----------------------------------*\
  =========                 |
  \\      /  F ield         | OpenFOAM: The Open Source CFD Toolbox
   \\    /   O peration     | Website:  https://openfoam.org
    \\  /    A nd           | Version:  6
     \\/     M anipulation  |
\*---------------------------------------------------------------------------*/
FoamFile
{
    version     2.0;
    format      ascii;
    class       volScalarField;
    location    "55.3";
    object      p;
}
// * * * * * * * * * * * * * * * * * * * * * * * * * * * * * * * * * * * * * //

dimensions      [0 2 -2 0 0 0 0];

internalField   nonuniform List<scalar> 
8800
(
0.79322
0.743903
0.705933
0.677857
0.657685
0.643083
0.632463
0.624892
0.619964
0.617838
0.619147
0.623439
0.630194
0.639589
0.652306
0.669613
0.693482
0.726574
0.769508
0.82202
0.627724
0.634067
0.643214
0.646756
0.644138
0.638036
0.631076
0.624806
0.619966
0.617045
0.616751
0.61932
0.623916
0.630011
0.637087
0.644105
0.648973
0.648841
0.642161
0.633259
0.60126
0.607492
0.611986
0.615848
0.618783
0.619714
0.618601
0.616443
0.614415
0.613513
0.614478
0.616875
0.619719
0.621958
0.622458
0.620654
0.617277
0.613256
0.60847
0.604754
0.596989
0.599752
0.60235
0.604497
0.606219
0.607767
0.608841
0.609155
0.608988
0.609018
0.609748
0.610829
0.611523
0.611338
0.610338
0.608965
0.607282
0.604971
0.602555
0.600988
0.591973
0.593396
0.595227
0.597294
0.598989
0.600258
0.601323
0.602258
0.603006
0.603664
0.604291
0.604681
0.604651
0.604247
0.60355
0.602413
0.600741
0.598835
0.597476
0.596673
0.587035
0.587936
0.589173
0.590784
0.592457
0.593961
0.595207
0.596277
0.597271
0.598197
0.598886
0.599195
0.599142
0.598726
0.597888
0.596674
0.595292
0.594012
0.593185
0.592661
0.582192
0.582846
0.583797
0.585096
0.586519
0.588003
0.589444
0.590747
0.591928
0.593026
0.593864
0.594263
0.594206
0.593712
0.592888
0.591914
0.590896
0.589975
0.589389
0.589006
0.577443
0.577947
0.578721
0.579841
0.581113
0.582492
0.58395
0.585421
0.586839
0.58817
0.58919
0.589684
0.589673
0.589281
0.588665
0.587937
0.587169
0.586485
0.586052
0.585753
0.572737
0.573138
0.573786
0.574783
0.575981
0.577302
0.578748
0.580308
0.581931
0.583532
0.584786
0.585452
0.585617
0.585442
0.585056
0.584541
0.583971
0.583478
0.583155
0.582914
0.567994
0.568321
0.568881
0.569798
0.570946
0.572252
0.573728
0.575381
0.577188
0.57907
0.580635
0.581586
0.58202
0.582095
0.581936
0.581637
0.581257
0.580922
0.580683
0.580481
0.56313
0.563401
0.563901
0.564771
0.5659
0.56723
0.568777
0.570565
0.572592
0.574801
0.576756
0.578078
0.578836
0.579193
0.579278
0.579197
0.579005
0.578808
0.578636
0.578462
0.558058
0.558287
0.558748
0.5596
0.56075
0.562145
0.563805
0.565779
0.56809
0.570706
0.57314
0.574906
0.576045
0.576725
0.577083
0.577228
0.577221
0.577151
0.577034
0.57688
0.552689
0.552885
0.553327
0.554191
0.555403
0.556907
0.558734
0.560963
0.563645
0.56677
0.569785
0.572078
0.573658
0.574705
0.575366
0.575749
0.575945
0.575991
0.57592
0.57578
0.546926
0.547095
0.547535
0.54844
0.549754
0.551418
0.553481
0.556047
0.5592
0.562961
0.566679
0.569599
0.571697
0.573163
0.57417
0.574837
0.57523
0.575388
0.575357
0.575226
0.540652
0.540799
0.541251
0.542227
0.543688
0.545575
0.547952
0.550954
0.554698
0.559236
0.56381
0.567484
0.570193
0.572149
0.573547
0.574519
0.575137
0.575413
0.575418
0.575293
0.533733
0.533856
0.534338
0.535415
0.537075
0.539255
0.542034
0.545584
0.550063
0.555559
0.561168
0.56574
0.569176
0.571712
0.573568
0.574896
0.575762
0.576159
0.576197
0.576074
0.525994
0.526094
0.52662
0.527833
0.52975
0.532304
0.535594
0.539829
0.545215
0.551875
0.558739
0.564396
0.568695
0.571917
0.574324
0.576062
0.577206
0.577729
0.5778
0.577674
0.517198
0.517303
0.517877
0.519262
0.521514
0.524546
0.528483
0.533586
0.540105
0.548198
0.556568
0.563507
0.568822
0.572843
0.575903
0.578121
0.579578
0.580237
0.580338
0.580208
0.507051
0.50714
0.507806
0.509423
0.512112
0.515758
0.520519
0.526716
0.534648
0.544493
0.554671
0.563125
0.569633
0.574598
0.5784
0.581184
0.582998
0.583801
0.58393
0.583791
0.495188
0.495263
0.496031
0.497962
0.501208
0.505644
0.511463
0.519048
0.528745
0.54074
0.553079
0.563303
0.571199
0.577267
0.581935
0.585376
0.587581
0.588532
0.588685
0.588534
0.481063
0.48113
0.482043
0.484386
0.488362
0.493838
0.501035
0.510393
0.522291
0.5369
0.551817
0.564113
0.573608
0.580946
0.586623
0.590801
0.59343
0.594528
0.594698
0.594531
0.463921
0.46398
0.465106
0.468028
0.473006
0.479887
0.488921
0.500603
0.515295
0.533087
0.551018
0.565678
0.576977
0.58574
0.592541
0.59754
0.600612
0.601843
0.602018
0.601833
0.44262
0.442684
0.444151
0.447942
0.45436
0.463216
0.474767
0.489517
0.507749
0.529383
0.550781
0.568084
0.581384
0.591733
0.599743
0.605638
0.609138
0.610471
0.610636
0.610429
0.415412
0.415503
0.417557
0.422748
0.431382
0.443151
0.458259
0.477101
0.499754
0.525925
0.551241
0.57144
0.586904
0.598947
0.608287
0.615069
0.618938
0.620316
0.62045
0.62022
0.379267
0.379478
0.38273
0.390505
0.402882
0.419123
0.439303
0.46353
0.491602
0.523004
0.552627
0.575894
0.593609
0.607428
0.618125
0.625726
0.629834
0.631172
0.631248
0.630998
0.328435
0.329496
0.335955
0.34906
0.36797
0.391127
0.418331
0.449365
0.483826
0.521037
0.555202
0.581612
0.60159
0.617134
0.629129
0.637394
0.641527
0.642719
0.642717
0.642451
0.25453
0.261809
0.276625
0.299491
0.328172
0.360579
0.396318
0.435126
0.476625
0.520169
0.559293
0.589157
0.611649
0.629141
0.64245
0.651227
0.655297
0.656327
0.65627
0.656035
0.175823
0.19176
0.215837
0.24925
0.288204
0.330037
0.374408
0.421235
0.470245
0.520862
0.565871
0.600055
0.625745
0.645621
0.660508
0.66973
0.673526
0.674319
0.674276
0.674137
0.108423
0.127908
0.159737
0.202248
0.250377
0.301095
0.353861
0.40855
0.46488
0.522318
0.572938
0.611161
0.639806
0.661836
0.677905
0.687239
0.69075
0.691429
0.691425
0.691344
0.0532632
0.0749601
0.112137
0.161172
0.21648
0.274654
0.334858
0.396805
0.460062
0.523993
0.579929
0.621923
0.653233
0.677125
0.694294
0.703997
0.707608
0.708334
0.708355
0.70831
0.00750937
0.0305364
0.0715948
0.12574
0.186805
0.251145
0.317721
0.386105
0.455684
0.525672
0.586626
0.632228
0.666065
0.691766
0.710107
0.720507
0.724412
0.725142
0.725202
0.725187
-0.0314471
-0.00760391
0.0363351
0.0946429
0.160563
0.230161
0.302248
0.376323
0.451654
0.5273
0.593007
0.64204
0.678347
0.705823
0.725355
0.736524
0.740778
0.741599
0.74169
0.741694
-0.0656195
-0.0412111
0.00499534
0.0667546
0.136821
0.211003
0.287994
0.367224
0.447849
0.528775
0.598967
0.651224
0.689864
0.718993
0.739682
0.751511
0.756146
0.757138
0.757273
0.757285
-0.0964786
-0.0715943
-0.0235061
0.0411959
0.114859
0.193072
0.274472
0.358423
0.443961
0.529869
0.604333
0.659663
0.700434
0.731086
0.752743
0.765198
0.770203
0.771397
0.771542
0.771551
-0.125014
-0.0996836
-0.0499858
0.0172949
0.0941124
0.175895
0.261269
0.34956
0.439729
0.530394
0.60899
0.667253
0.710025
0.74205
0.764564
0.777503
0.782785
0.784112
0.784262
0.784255
-0.152008
-0.126182
-0.0750193
-0.00544111
0.0741582
0.159127
0.248103
0.340402
0.434937
0.530196
0.612834
0.673977
0.718666
0.751929
0.775129
0.788404
0.793855
0.795268
0.795412
0.795385
-0.177819
-0.151524
-0.0990071
-0.027375
0.0547049
0.142535
0.234783
0.330778
0.429423
0.52916
0.615818
0.679848
0.726439
0.760828
0.784594
0.798047
0.803576
0.80503
0.805149
0.805094
-0.202864
-0.176011
-0.122242
-0.0487531
0.0355509
0.12595
0.221177
0.320582
0.423102
0.527186
0.6179
0.68491
0.733435
0.768927
0.793155
0.806687
0.812208
0.813645
0.81375
0.813671
-0.227261
-0.199839
-0.144885
-0.0697188
0.0165744
0.109287
0.207216
0.309762
0.415919
0.524217
0.619052
0.689201
0.739776
0.776402
0.801035
0.814526
0.819945
0.82131
0.821386
0.821287
-0.25112
-0.223119
-0.167045
-0.0903424
-0.00226841
0.0925143
0.192881
0.298292
0.407844
0.520209
0.619236
0.692745
0.745568
0.783406
0.808353
0.821675
0.826914
0.828169
0.828184
0.828055
-0.27453
-0.245915
-0.188752
-0.110647
-0.0209969
0.075637
0.178191
0.286199
0.398881
0.515132
0.618401
0.69553
0.750906
0.790096
0.815258
0.828261
0.833171
0.834245
0.834193
0.834044
-0.297529
-0.268222
-0.210005
-0.130631
-0.0395765
0.0586878
0.163193
0.273525
0.38906
0.508968
0.61648
0.697498
0.755844
0.796641
0.821944
0.834397
0.838793
0.839609
0.839492
0.839332
-0.319958
-0.29
-0.230777
-0.150269
-0.0579698
0.0417365
0.147951
0.260347
0.378439
0.501735
0.613403
0.698557
0.760358
0.803197
0.828718
0.840351
0.843901
0.844323
0.844132
0.843975
-0.34178
-0.3112
-0.251042
-0.169514
-0.0761171
0.0248465
0.132555
0.246741
0.367095
0.493454
0.609114
0.698586
0.764333
0.809834
0.835993
0.846649
0.848815
0.848479
0.848161
0.84805
-0.363048
-0.331787
-0.270767
-0.188328
-0.0939515
0.00810355
0.117098
0.232813
0.35512
0.484182
0.603558
0.697456
0.767554
0.816418
0.844128
0.854214
0.854462
0.852492
0.851664
0.851769
-0.383598
-0.351731
-0.289894
-0.206638
-0.111411
-0.0084056
0.101678
0.218671
0.342629
0.474016
0.59671
0.695014
0.769739
0.822534
0.853051
0.864047
0.862932
0.858352
0.855083
0.853527
-0.403523
-0.371029
-0.308424
-0.224472
-0.128528
-0.024721
0.0862427
0.204259
0.32955
0.462887
0.588416
0.690997
0.770607
0.827626
0.862021
0.876263
0.876356
0.869906
0.85981
0.859609
-0.422733
-0.389751
-0.326493
-0.242026
-0.145601
-0.0411806
0.070373
0.189082
0.315327
0.450151
0.577998
0.684608
0.769621
0.830949
0.869237
0.8883
0.890664
0.880583
0.862574
0.859535
-0.441086
-0.407856
-0.343925
-0.259101
-0.162366
-0.057479
0.0542819
0.173467
0.30026
0.436059
0.565531
0.675229
0.766043
0.831344
0.870475
0.889664
0.895104
0.871479
0.813208
0.787758
-0.458456
-0.426166
-0.360311
-0.275215
-0.178088
-0.0731316
0.0382464
0.157688
0.284631
0.420785
0.5511
0.662303
0.758929
0.828061
0.86106
0.874892
0.865239
0.815707
0.754017
0.716287
-0.502321
-0.44389
-0.375471
-0.291111
-0.193535
-0.0890738
0.0224007
0.141625
0.26824
0.403993
0.534332
0.645273
0.744575
0.818819
0.839263
0.830599
0.787085
0.724248
0.656155
0.618758
-0.477245
-0.458936
-0.398538
-0.313825
-0.217215
-0.11299
-0.00225314
0.116262
0.241855
0.376
0.504608
0.613106
0.70335
0.784426
0.771584
0.667681
0.580141
0.519235
0.456401
0.484549
-0.508832
-0.476967
-0.415717
-0.331507
-0.235143
-0.131156
-0.020281
0.0975456
0.222052
0.354323
0.480189
0.584999
0.664846
0.710321
0.662567
0.52708
0.420943
0.349387
0.268424
0.315252
-0.533432
-0.499063
-0.435963
-0.351619
-0.255328
-0.151385
-0.0406324
0.0763782
0.199484
0.329297
0.451307
0.550008
0.618689
0.626625
0.524143
0.372249
0.245742
0.15526
0.0609122
0.093525
-0.557443
-0.521932
-0.457371
-0.372326
-0.27592
-0.172088
-0.0618354
0.0542014
0.175689
0.302653
0.419831
0.510459
0.562892
0.538415
0.38426
0.210087
0.0523661
-0.0796626
-0.20266
-0.188795
-0.581205
-0.545231
-0.479694
-0.394016
-0.297416
-0.193774
-0.0841595
0.0307599
0.150351
0.27407
0.385598
0.46857
0.500498
0.43229
0.246862
0.0523318
-0.132887
-0.285192
-0.489582
-0.567922
-0.6054
-0.569422
-0.503279
-0.417124
-0.320309
-0.216809
-0.107764
0.0060106
0.12359
0.24382
0.349324
0.423288
0.430363
0.310823
0.12177
-0.0849876
-0.275315
-0.436142
-0.559456
-0.677905
-0.631117
-0.594997
-0.528491
-0.442046
-0.345148
-0.241883
-0.133503
-0.0210446
0.0941842
0.210393
0.309469
0.371141
0.351345
0.195549
0.00492738
-0.195998
-0.369735
-0.466232
-0.492371
-0.505855
-0.658488
-0.622248
-0.555466
-0.468886
-0.372088
-0.269227
-0.161756
-0.0509231
0.0615112
0.172987
0.265192
0.309749
0.271312
0.0850211
-0.103699
-0.284374
-0.415578
-0.453249
-0.46211
-0.462409
-0.687799
-0.651299
-0.584244
-0.497631
-0.401077
-0.298851
-0.19255
-0.0836858
0.0254995
0.131562
0.215905
0.244662
0.175578
-0.0158702
-0.198539
-0.355403
-0.428804
-0.442893
-0.443939
-0.443752
-0.719064
-0.68219
-0.614837
-0.528276
-0.432132
-0.330748
-0.2259
-0.119358
-0.0138415
0.0861914
0.161453
0.17603
0.0691673
-0.10715
-0.279999
-0.403842
-0.432193
-0.432998
-0.433611
-0.433203
-0.752021
-0.714743
-0.64714
-0.560736
-0.465163
-0.364866
-0.261781
-0.157925
-0.0564705
0.0369805
0.103009
0.0988998
-0.0254302
-0.191576
-0.344326
-0.414074
-0.428965
-0.426961
-0.426653
-0.426269
-0.786095
-0.748604
-0.680881
-0.59477
-0.499975
-0.401042
-0.300048
-0.199275
-0.102195
-0.0156312
0.0408365
0.0212676
-0.112976
-0.266193
-0.386454
-0.423036
-0.422249
-0.422298
-0.421846
-0.421421
-0.820834
-0.783228
-0.715562
-0.629946
-0.536198
-0.438944
-0.340415
-0.243138
-0.150762
-0.0707703
-0.0266761
-0.0514863
-0.192342
-0.32408
-0.410168
-0.41781
-0.41979
-0.420365
-0.420026
-0.419618
-0.855251
-0.817696
-0.750407
-0.665595
-0.573254
-0.478072
-0.382417
-0.289035
-0.201806
-0.1277
-0.0939535
-0.125562
-0.26018
-0.368872
-0.415499
-0.42537
-0.420673
-0.418874
-0.417995
-0.417653
-0.887419
-0.850678
-0.784352
-0.700788
-0.610326
-0.517686
-0.425376
-0.336255
-0.254597
-0.18608
-0.156763
-0.202679
-0.316642
-0.410463
-0.432594
-0.428378
-0.420861
-0.414975
-0.413378
-0.412939
-0.916255
-0.880613
-0.815938
-0.734272
-0.646305
-0.556795
-0.468379
-0.383922
-0.307979
-0.245353
-0.219383
-0.270108
-0.358274
-0.435146
-0.46143
-0.442053
-0.424014
-0.414536
-0.412317
-0.411442
-0.938946
-0.905315
-0.843335
-0.76445
-0.679803
-0.594151
-0.510233
-0.43102
-0.360748
-0.303905
-0.282741
-0.327635
-0.379263
-0.431945
-0.440172
-0.451133
-0.454521
-0.452684
-0.448755
-0.44623
-0.953308
-0.922546
-0.864368
-0.789477
-0.709191
-0.628289
-0.549488
-0.476234
-0.41179
-0.36037
-0.339672
-0.385289
-0.394726
-0.402422
-0.431952
-0.485751
-0.523426
-0.527405
-0.520852
-0.519088
-0.956506
-0.929773
-0.876809
-0.807383
-0.732693
-0.657615
-0.584621
-0.517677
-0.46
-0.415208
-0.388134
-0.454779
-0.475798
-0.406663
-0.461491
-0.524459
-0.550113
-0.551592
-0.549016
-0.54975
-0.946237
-0.924442
-0.878413
-0.816265
-0.748675
-0.68051
-0.614207
-0.553259
-0.503661
-0.467494
-0.435278
-0.530552
-0.689751
-0.717094
-0.68406
-0.614102
-0.569932
-0.560331
-0.560378
-0.560713
-0.919666
-0.903606
-0.86714
-0.814762
-0.755924
-0.69568
-0.636823
-0.581691
-0.53903
-0.51131
-0.49653
-0.592716
-0.810066
-1.03535
-0.902305
-0.693432
-0.597598
-0.567028
-0.557145
-0.553658
-0.880143
-0.869865
-0.843874
-0.80301
-0.754187
-0.702758
-0.650976
-0.602455
-0.562403
-0.544494
-0.533462
-0.556299
-0.515681
-0.533796
-0.436486
-0.429916
-0.477262
-0.481463
-0.473224
-0.468415
-0.83468
-0.828888
-0.813554
-0.783932
-0.745511
-0.70218
-0.657087
-0.613129
-0.574317
-0.552366
-0.529503
-0.440695
-0.189114
0.0479374
0.0363785
-0.152151
-0.283311
-0.332743
-0.333627
-0.339623
-0.793424
-0.789985
-0.782556
-0.762999
-0.732956
-0.696174
-0.656205
-0.614323
-0.575824
-0.54321
-0.537699
-0.452339
-0.408251
-0.406456
-0.545907
-0.705976
-0.764251
-0.692044
-0.610393
-0.602323
-0.762864
-0.760798
-0.756952
-0.744838
-0.721111
-0.688577
-0.650447
-0.608795
-0.564233
-0.531949
-0.516062
-0.512575
-0.624948
-0.88058
-1.07942
-1.2668
-1.36021
-1.34987
-1.28546
-1.23265
-0.739803
-0.739008
-0.737714
-0.731489
-0.712865
-0.682475
-0.643597
-0.597347
-0.548685
-0.497295
-0.451555
-0.480237
-0.685747
-1.06553
-1.42632
-1.48275
-1.36125
-1.13636
-0.951567
-0.868171
-0.726196
-0.72587
-0.725295
-0.722498
-0.708715
-0.678505
-0.635294
-0.585217
-0.524853
-0.446754
-0.364065
-0.263152
-0.305342
-0.346274
-0.316997
-0.248617
-0.00537419
0.269315
0.441623
0.507202
-0.71724
-0.717068
-0.716724
-0.716145
-0.706834
-0.676255
-0.62952
-0.570892
-0.496175
-0.406107
-0.284668
-0.113097
0.0924453
0.346539
0.709814
1.0909
1.44457
1.67961
1.79113
1.82549
-0.710441
-0.710938
-0.711872
-0.712731
-0.70512
-0.675442
-0.626494
-0.562284
-0.479835
-0.36751
-0.243034
-0.0951727
0.142609
0.530832
1.05754
1.52425
1.8774
2.07774
2.15609
2.1722
-0.702667
-0.703073
-0.702463
-0.700602
-0.694887
-0.673754
-0.63137
-0.564342
-0.47111
-0.352061
-0.227827
-0.0940203
0.112285
0.48504
0.934039
1.33933
1.62851
1.77714
1.82759
1.8369
-0.712813
-0.710058
-0.698291
-0.680163
-0.675069
-0.678775
-0.650075
-0.574196
-0.473088
-0.355024
-0.230863
-0.119433
0.0237273
0.324125
0.667405
0.961612
1.16718
1.26339
1.29567
1.30128
-0.765875
-0.760704
-0.749562
-0.737106
-0.733983
-0.73605
-0.693806
-0.592267
-0.475623
-0.360462
-0.243596
-0.149869
-0.0433144
0.15794
0.394067
0.585395
0.706135
0.762309
0.78413
0.789818
-0.86954
-0.87521
-0.896578
-0.917499
-0.913333
-0.876245
-0.763378
-0.613458
-0.477236
-0.358916
-0.259305
-0.185866
-0.109692
0.0496923
0.19987
0.302455
0.366617
0.398752
0.415252
0.421055
-0.969591
-0.988701
-1.02603
-1.0502
-1.04239
-0.972789
-0.799702
-0.616319
-0.472613
-0.355726
-0.272331
-0.217202
-0.177634
-0.0645436
0.0534607
0.139916
0.188194
0.211081
0.223885
0.227655
-0.938495
-0.957593
-0.99004
-1.0141
-1.00409
-0.916175
-0.734445
-0.57579
-0.443383
-0.339294
-0.272074
-0.235923
-0.20238
-0.118683
-0.0368107
0.0349246
0.0801583
0.109906
0.122003
0.124481
-0.705779
-0.724991
-0.756678
-0.785577
-0.779511
-0.703363
-0.587409
-0.478152
-0.376983
-0.305295
-0.258837
-0.230082
-0.224768
-0.130954
-0.0470658
0.00298014
0.0359348
0.0537093
0.0596207
0.0600761
-0.365022
-0.376946
-0.399665
-0.425582
-0.438147
-0.421563
-0.388009
-0.341979
-0.2965
-0.251868
-0.219632
-0.199714
-0.181166
-0.132695
-0.0746113
-0.0392058
-0.0117055
0.00485433
0.0107451
0.011065
-0.0853202
-0.0904672
-0.10458
-0.130627
-0.162829
-0.192637
-0.211663
-0.220641
-0.215431
-0.191968
-0.172614
-0.147981
-0.122149
-0.0810875
-0.050617
-0.0354774
-0.0216337
-0.0137069
-0.0102838
-0.0104906
0.0551588
0.0526163
0.0424933
0.0184457
-0.0203586
-0.065748
-0.105529
-0.133647
-0.147462
-0.1432
-0.126645
-0.0967271
-0.0711686
-0.0536103
-0.0382314
-0.0305703
-0.0241598
-0.019864
-0.0189241
-0.0196998
0.094289
0.0925399
0.0850337
0.0660666
0.034052
-0.00553484
-0.0457873
-0.0786864
-0.100495
-0.104788
-0.0901476
-0.0612961
-0.0344271
-0.0300339
-0.0290009
-0.0280447
-0.0221747
-0.017757
-0.0169858
-0.018239
0.0879274
0.0867276
0.0815694
0.068382
0.0453699
0.0151815
-0.0175733
-0.047867
-0.0705707
-0.0789158
-0.0689716
-0.0425063
-0.0200353
-0.0242127
-0.0291607
-0.029761
-0.026958
-0.0249945
-0.025386
-0.0270097
0.0667714
0.0659944
0.0625675
0.0537346
0.0378472
0.0159673
-0.00951832
-0.0351237
-0.057045
-0.0691053
-0.0660773
-0.0484901
-0.0338378
-0.0467472
-0.055091
-0.0544896
-0.0504623
-0.0482972
-0.0489011
-0.0505516
0.0434442
0.0429512
0.0406723
0.0347596
0.0238658
0.00816326
-0.0114449
-0.032857
-0.0541572
-0.0717286
-0.0810401
-0.0805565
-0.0800768
-0.0936875
-0.10134
-0.0975655
-0.0926183
-0.0910164
-0.0915147
-0.092756
0.0226951
0.0223485
0.020829
0.0168259
0.00922534
-0.00222705
-0.0175762
-0.0360514
-0.0575479
-0.0820747
-0.108976
-0.135314
-0.162146
-0.171181
-0.16233
-0.15082
-0.144326
-0.143745
-0.144458
-0.145204
0.00648657
0.00619277
0.00508572
0.00226746
-0.00315916
-0.0117844
-0.0240791
-0.0404724
-0.0622783
-0.0927204
-0.137309
-0.197988
-0.242854
-0.243183
-0.219605
-0.202578
-0.196102
-0.195311
-0.195712
-0.195792
-0.00492227
-0.00515213
-0.00599
-0.00796133
-0.0118759
-0.0183863
-0.0282785
-0.0425021
-0.063652
-0.0966131
-0.149447
-0.22147
-0.267493
-0.255906
-0.232818
-0.223558
-0.223429
-0.226752
-0.226814
-0.226173
-0.0115279
-0.0117119
-0.0123231
-0.0137268
-0.0164972
-0.0213466
-0.0290771
-0.041013
-0.0590419
-0.0897654
-0.138154
-0.198489
-0.226288
-0.215284
-0.206478
-0.209114
-0.216596
-0.221359
-0.221553
-0.22086
-0.0138528
-0.0140065
-0.014439
-0.0153383
-0.0171757
-0.0205398
-0.0262521
-0.0353165
-0.0496937
-0.0731953
-0.107948
-0.146186
-0.156796
-0.152822
-0.155898
-0.168372
-0.179809
-0.184789
-0.184899
-0.184198
-0.0124741
-0.0125877
-0.01286
-0.0133595
-0.0144163
-0.0164841
-0.0202183
-0.026264
-0.0358493
-0.0509453
-0.0689678
-0.0850145
-0.0889416
-0.0852304
-0.0957408
-0.111601
-0.122334
-0.126247
-0.126365
-0.126185
-0.00818968
-0.00826521
-0.00841956
-0.00861729
-0.00905517
-0.0100218
-0.0119664
-0.0151525
-0.0200515
-0.0273103
-0.0317259
-0.0286974
-0.0112426
-0.0262099
-0.0429403
-0.0545711
-0.0618984
-0.0626567
-0.0627352
-0.0629067
-0.00187066
-0.00188052
-0.00191138
-0.00188785
-0.00178589
-0.00180374
-0.00201409
-0.00256051
-0.00335388
-0.0043152
-0.00526637
-0.00140401
0.00120243
-0.000194423
-0.00638665
-0.00920763
-0.0102282
-0.00858419
-0.00917241
-0.0101457
-0.0548803
0.135095
0.309903
0.458436
0.578324
0.673895
0.753884
0.818915
0.835686
0.831885
0.238676
0.361166
0.476155
0.576426
0.661182
0.731423
0.786864
0.824347
0.844361
0.86087
0.438074
0.51999
0.601138
0.672485
0.733427
0.784004
0.823812
0.85408
0.87677
0.89599
0.58581
0.643815
0.702439
0.755033
0.800464
0.839098
0.871475
0.898589
0.91898
0.937869
0.703857
0.747365
0.790706
0.831316
0.867568
0.89959
0.927568
0.951245
0.969257
0.987292
0.801455
0.837454
0.872867
0.906838
0.93813
0.96643
0.991398
1.01233
1.02815
1.04562
0.890209
0.922362
0.954791
0.986102
1.01521
1.04166
1.06484
1.08382
1.09777
1.11479
0.977412
1.01008
1.04259
1.07386
1.1027
1.12854
1.15071
1.16827
1.18068
1.19721
1.07195
1.1084
1.14321
1.17572
1.20493
1.23032
1.25147
1.26778
1.27942
1.29556
1.18509
1.22568
1.26274
1.29574
1.32426
1.34828
1.36792
1.38321
1.39512
1.4112
1.32649
1.3676
1.40288
1.43249
1.45771
1.47934
1.49786
1.51335
1.52647
1.54243
1.49808
1.53052
1.5574
1.57972
1.59982
1.61855
1.63629
1.65307
1.66798
1.68371
1.68444
1.70172
1.71885
1.73553
1.75163
1.76637
1.78028
1.79476
1.81
1.8273
1.86783
1.87781
1.89102
1.902
1.91141
1.92107
1.93168
1.94187
1.95116
1.97682
2.08574
2.08004
2.0671
2.05284
2.04654
2.05226
2.0704
2.09893
2.13269
2.16902
2.38856
2.2526
2.1731
2.13059
2.11327
2.11724
2.14468
2.20254
2.31021
2.48861
0.696918
0.690614
0.682882
0.671764
0.658187
0.64553
0.635121
0.627093
0.621355
0.617998
0.617618
0.620427
0.62564
0.632984
0.642524
0.654347
0.667905
0.680832
0.68982
0.69736
0.605995
0.611914
0.619983
0.626111
0.629174
0.628654
0.625555
0.621544
0.617933
0.615622
0.61546
0.617688
0.621422
0.625854
0.629947
0.632185
0.631107
0.626467
0.619411
0.611577
0.599259
0.601631
0.604895
0.607663
0.610106
0.612285
0.613452
0.613287
0.612327
0.611492
0.611677
0.613065
0.614826
0.616041
0.615955
0.614481
0.612317
0.609951
0.606966
0.603947
0.59449
0.595578
0.597492
0.599824
0.601687
0.603075
0.604278
0.60525
0.605825
0.606172
0.606693
0.607408
0.607853
0.607719
0.607079
0.606147
0.604809
0.602834
0.600723
0.599244
0.589493
0.590127
0.591252
0.593003
0.594838
0.596418
0.597652
0.598693
0.599645
0.600508
0.601257
0.601746
0.601859
0.601633
0.601082
0.600096
0.59866
0.597044
0.595702
0.594899
0.584603
0.585042
0.585828
0.587124
0.588635
0.590183
0.591641
0.592911
0.594031
0.595075
0.595985
0.59655
0.5967
0.596442
0.59576
0.594747
0.593583
0.59243
0.591522
0.590987
0.579811
0.580139
0.580748
0.581809
0.583092
0.584474
0.58593
0.587373
0.588724
0.589978
0.591074
0.591774
0.591965
0.591692
0.591073
0.590271
0.589411
0.588546
0.587878
0.587486
0.575093
0.575348
0.575838
0.57674
0.577898
0.579187
0.580582
0.582074
0.583606
0.585111
0.586445
0.587308
0.587605
0.587472
0.587062
0.586493
0.585842
0.585201
0.584712
0.584412
0.570379
0.570582
0.57099
0.571781
0.57286
0.574099
0.575477
0.577008
0.578676
0.580418
0.582035
0.583148
0.583671
0.583772
0.583594
0.583244
0.582795
0.582343
0.581992
0.581756
0.565587
0.56575
0.566099
0.566817
0.567848
0.569066
0.570471
0.572081
0.573899
0.575889
0.577841
0.579302
0.58014
0.580523
0.580593
0.580466
0.580223
0.57994
0.579703
0.579515
0.56063
0.560763
0.56107
0.561743
0.562755
0.563997
0.565466
0.567199
0.569218
0.57151
0.57387
0.575766
0.576984
0.577693
0.578041
0.57815
0.578116
0.577995
0.577854
0.577701
0.555421
0.555529
0.555809
0.556462
0.557492
0.558799
0.560376
0.562285
0.564574
0.567256
0.570121
0.572536
0.574198
0.575282
0.575945
0.576315
0.576483
0.576528
0.576472
0.576347
0.549868
0.549955
0.550219
0.550877
0.55196
0.553374
0.555115
0.557267
0.559907
0.563078
0.566563
0.569603
0.571792
0.573311
0.574327
0.574995
0.575399
0.575595
0.575612
0.575509
0.543865
0.543933
0.54419
0.544877
0.546048
0.547618
0.549588
0.552066
0.555161
0.558947
0.563193
0.566982
0.569792
0.571814
0.573235
0.574234
0.574891
0.575251
0.575339
0.575253
0.537285
0.537334
0.537594
0.538331
0.539632
0.541413
0.543685
0.546581
0.550245
0.554789
0.559961
0.564658
0.568212
0.570831
0.572722
0.574093
0.575045
0.57558
0.575737
0.575665
0.529978
0.530008
0.530276
0.531087
0.532561
0.534619
0.53728
0.540705
0.54508
0.550556
0.556855
0.562643
0.567084
0.570411
0.572862
0.574672
0.575954
0.57668
0.576906
0.576845
0.52175
0.521769
0.522039
0.522949
0.524649
0.52706
0.530214
0.534306
0.539566
0.546193
0.553861
0.560959
0.566454
0.570614
0.573726
0.576068
0.577726
0.578657
0.578955
0.578902
0.512293
0.512287
0.512612
0.513664
0.515661
0.518526
0.52231
0.52725
0.533626
0.541675
0.551004
0.559664
0.566397
0.571532
0.575421
0.578379
0.580467
0.58163
0.582
0.581952
0.501333
0.501305
0.501678
0.502921
0.50529
0.508741
0.513333
0.519346
0.527124
0.536939
0.548284
0.558787
0.56697
0.573251
0.578048
0.581715
0.584303
0.585715
0.586156
0.586109
0.488389
0.488339
0.488788
0.490279
0.493131
0.497347
0.502984
0.510377
0.519919
0.531906
0.54568
0.558369
0.568246
0.575855
0.581711
0.586199
0.589344
0.59102
0.591529
0.591478
0.472819
0.472746
0.473316
0.475155
0.478654
0.483884
0.490907
0.500103
0.5119
0.526582
0.543273
0.558509
0.570319
0.579437
0.586512
0.591924
0.595684
0.597629
0.598195
0.598135
0.453694
0.453603
0.454371
0.456717
0.461124
0.467769
0.476685
0.488287
0.503003
0.521028
0.541172
0.559325
0.573308
0.584106
0.592522
0.59896
0.603374
0.605572
0.606177
0.6061
0.429605
0.429511
0.43061
0.433737
0.43951
0.448217
0.459817
0.474697
0.493193
0.51533
0.539501
0.56091
0.577286
0.589932
0.599781
0.607346
0.612402
0.614809
0.615422
0.61532
0.398239
0.398189
0.399886
0.404362
0.412414
0.424329
0.439879
0.459272
0.482606
0.509656
0.538418
0.563418
0.582351
0.596957
0.608349
0.617047
0.622669
0.625195
0.625772
0.625637
0.355484
0.35563
0.358624
0.365898
0.378202
0.395394
0.416794
0.442286
0.471672
0.504492
0.538313
0.56708
0.588635
0.605231
0.618175
0.627951
0.633962
0.63645
0.636934
0.636764
0.293663
0.294959
0.302229
0.315933
0.336017
0.361584
0.39123
0.424457
0.460938
0.500143
0.539337
0.571996
0.596189
0.614714
0.62908
0.639738
0.645891
0.648116
0.648437
0.648247
0.219711
0.222255
0.23638
0.259972
0.290701
0.326211
0.364816
0.406266
0.450366
0.496665
0.54215
0.579647
0.607323
0.628444
0.644662
0.656226
0.662486
0.664607
0.664903
0.664811
0.143934
0.150741
0.171953
0.205462
0.246578
0.291803
0.339391
0.389163
0.44099
0.49448
0.546388
0.58887
0.620116
0.643938
0.662101
0.674517
0.680551
0.68228
0.682501
0.682477
0.0821743
0.090815
0.116634
0.157182
0.206475
0.259956
0.315641
0.373204
0.43241
0.49281
0.550872
0.598053
0.632594
0.658814
0.678521
0.691507
0.69753
0.699144
0.699433
0.699472
0.0315797
0.0409301
0.0702548
0.11605
0.171503
0.231602
0.294131
0.358593
0.424572
0.491442
0.555297
0.606927
0.644526
0.672933
0.694169
0.707887
0.714086
0.715976
0.716369
0.716448
-0.0108335
-0.00116971
0.0305622
0.08047
0.140984
0.206593
0.274917
0.345367
0.417391
0.490215
0.559525
0.615384
0.655957
0.686498
0.709207
0.723893
0.73063
0.732791
0.73323
0.733323
-0.0475141
-0.0377017
-0.00415149
0.049058
0.113801
0.184132
0.257505
0.333259
0.410759
0.489096
0.563537
0.623384
0.666783
0.699357
0.723548
0.739175
0.746535
0.748908
0.749397
0.749482
-0.0801178
-0.0702366
-0.0352422
0.0207071
0.089049
0.163475
0.241326
0.321882
0.404411
0.487869
0.567145
0.630785
0.676809
0.711306
0.736824
0.75333
0.76127
0.763882
0.764404
0.764473
-0.10987
-0.0999336
-0.0637632
-0.00543973
0.0660255
0.14404
0.22588
0.310799
0.397989
0.486278
0.570183
0.63745
0.685955
0.722168
0.748865
0.766117
0.774581
0.777399
0.777941
0.777989
-0.137692
-0.127684
-0.0904448
-0.0300153
0.0441993
0.12538
0.210791
0.299692
0.39123
0.484129
0.572503
0.643302
0.694187
0.732008
0.759741
0.777553
0.786362
0.789329
0.789891
0.789914
-0.164132
-0.154026
-0.115794
-0.053471
0.0231731
0.107175
0.195808
0.288355
0.383937
0.481244
0.574003
0.648302
0.701534
0.740868
0.769495
0.787756
0.796694
0.799759
0.800339
0.800336
-0.189619
-0.179348
-0.140183
-0.0761359
0.00267667
0.0892059
0.180752
0.276633
0.375986
0.477505
0.574609
0.652448
0.708062
0.748882
0.778284
0.796848
0.805852
0.808903
0.809472
0.809457
-0.214424
-0.20391
-0.16385
-0.0982197
-0.0174613
0.0713276
0.165508
0.264443
0.367304
0.472848
0.574253
0.655736
0.713846
0.756187
0.786343
0.805104
0.814072
0.817059
0.817581
0.817522
-0.238632
-0.227854
-0.186934
-0.119847
-0.0373378
0.0534802
0.150032
0.251745
0.357853
0.467214
0.572884
0.658176
0.71896
0.762933
0.793831
0.812671
0.82149
0.824361
0.824817
0.824735
-0.262339
-0.25129
-0.209533
-0.141066
-0.056987
0.035637
0.134315
0.23854
0.347629
0.460588
0.570459
0.659737
0.723461
0.769258
0.800891
0.819673
0.828239
0.830909
0.831264
0.831142
-0.285564
-0.274234
-0.23164
-0.161894
-0.0764109
0.0178171
0.118392
0.224867
0.336661
0.452964
0.566935
0.660356
0.727365
0.775295
0.807698
0.826249
0.834361
0.836724
0.836949
0.836795
-0.308358
-0.29668
-0.253231
-0.182315
-0.0955848
5.86412e-05
0.102311
0.21079
0.325005
0.444365
0.562273
0.659952
0.73063
0.781139
0.814472
0.832626
0.840003
0.841876
0.841942
0.841767
-0.330487
-0.318571
-0.274283
-0.202302
-0.114458
-0.0175612
0.0861448
0.19638
0.312735
0.43485
0.556448
0.658434
0.733157
0.786799
0.821476
0.839216
0.845455
0.846489
0.846294
0.846111
-0.352106
-0.339847
-0.294757
-0.221825
-0.132995
-0.0349979
0.0699878
0.181724
0.299941
0.424498
0.549458
0.655704
0.734789
0.792142
0.828894
0.846634
0.851401
0.850915
0.850085
0.84991
-0.373026
-0.360467
-0.314632
-0.240826
-0.151108
-0.0521625
0.0539267
0.166945
0.286731
0.413378
0.54133
0.651668
0.735332
0.796872
0.836623
0.855504
0.859213
0.856462
0.853877
0.853275
-0.393344
-0.380451
-0.333846
-0.259246
-0.168755
-0.0689834
0.0380518
0.152127
0.273216
0.401629
0.532132
0.646221
0.734579
0.800572
0.844069
0.86579
0.870401
0.866225
0.860016
0.850836
-0.412941
-0.399789
-0.352491
-0.277247
-0.18616
-0.0857479
0.0220207
0.136859
0.258939
0.388734
0.521334
0.638769
0.732073
0.80289
0.850476
0.876587
0.884987
0.881045
0.870485
0.868572
-0.431771
-0.418558
-0.370556
-0.294768
-0.203302
-0.102423
0.00586699
0.121124
0.243868
0.374576
0.508767
0.628839
0.727096