/*--------------------------------*- C++ -*----------------------------------*\
  =========                 |
  \\      /  F ield         | OpenFOAM: The Open Source CFD Toolbox
   \\    /   O peration     | Website:  https://openfoam.org
    \\  /    A nd           | Version:  6
     \\/     M anipulation  |
\*---------------------------------------------------------------------------*/
FoamFile
{
    version     2.0;
    format      ascii;
    class       surfaceScalarField;
    location    "45";
    object      phi;
}
// * * * * * * * * * * * * * * * * * * * * * * * * * * * * * * * * * * * * * //

dimensions      [0 3 -1 0 0 0 0];

internalField   nonuniform List<scalar> 
17370
(
-0.0900003
0.0898537
0.289157
-0.0714612
0.0537565
0.36448
-0.0381242
0.0276981
0.426594
-0.0196481
0.0146147
0.504285
-0.0107702
0.00827675
0.601896
-0.00627478
0.00489859
0.720434
-0.00373806
0.00290173
0.863743
-0.00216466
0.00160878
1.03601
-0.00109528
0.00068543
1.24291
-0.000279941
-0.000108377
1.49158
0.000485072
-0.000891195
1.4916
0.00128595
-0.00177453
1.24318
0.00230583
-0.00301943
1.03635
0.00384122
-0.0049934
0.864059
0.00636575
-0.00836346
0.721055
0.0108508
-0.014687
0.603051
0.0197129
-0.0277555
0.507482
0.0381756
-0.0538
0.431792
0.0714965
-0.089877
0.365156
0.0900136
0.198997
-0.128129
0.0882067
0.0399223
-0.364588
0.353398
-0.0746954
0.0858854
-0.446476
0.454314
-0.0843943
0.0765558
-0.521184
0.529892
-0.0684673
0.0597592
-0.612781
0.621558
-0.0515727
0.0427954
-0.726889
0.734151
-0.035338
0.0280752
-0.867473
0.872574
-0.0224843
0.0173828
-1.03847
1.04191
-0.0135849
0.0101451
-1.2446
1.24702
-0.00754066
0.0051138
-1.49263
1.4946
-0.00317243
0.00120346
-1.4925
1.49422
0.000478747
-0.00219874
-1.24398
1.24586
0.00410075
-0.0059834
-1.03751
1.04005
0.00834026
-0.0108747
-0.866104
0.869843
0.0142387
-0.0179771
-0.724395
0.729946
0.0230265
-0.0285771
-0.608703
0.616119
0.0357975
-0.0432138
-0.514901
0.523047
0.0519455
-0.060092
-0.439859
0.447915
0.0687592
-0.0768157
-0.375305
0.376747
0.0846204
-0.0860623
-0.257335
0.222488
0.0748163
-0.0399696
-0.0685003
0.0586722
0.00982811
-0.0518502
0.0584459
-0.374113
0.367518
-0.0575396
0.0537932
-0.453587
0.457333
-0.0487067
0.044756
-0.527934
0.531884
-0.0409175
0.0372817
-0.621547
0.625182
-0.0331864
0.0291214
-0.73533
0.739395
-0.0245662
0.0204205
-0.874318
0.878464
-0.0160882
0.0124043
-1.04347
1.04715
-0.00867842
0.00551494
-1.24855
1.25171
-0.00219681
-0.000870795
-1.49665
1.49972
0.00391438
-0.0071726
-1.49721
1.50047
0.0102497
-0.0138582
-1.25008
1.25369
0.0174274
-0.0216354
-1.04594
1.05014
0.0256769
-0.0301323
-0.877777
0.882232
0.0341168
-0.0381298
-0.739916
0.743929
0.0416915
-0.0454504
-0.626792
0.630551
0.0493329
-0.0543544
-0.534827
0.539849
0.0580334
-0.0588548
-0.457495
0.458316
0.0521619
-0.0319669
-0.335787
0.315592
0.00987922
-0.0683617
0.0584825
-0.0529165
0.0489148
0.00400174
-0.0332023
0.0437653
-0.358069
0.347506
-0.0474791
0.0468627
-0.459261
0.459877
-0.043817
0.040473
-0.535777
0.539121
-0.0367108
0.0334172
-0.628497
0.631791
-0.0299931
0.026976
-0.742611
0.745628
-0.0237343
0.0206416
-0.881974
0.885067
-0.0171254
0.0137587
-1.05073
1.05409
-0.00998076
0.00645491
-1.25513
1.25866
-0.00249926
-0.00128779
-1.50322
1.50701
0.00504518
-0.0089123
-1.50414
1.50801
0.0123193
-0.0159385
-1.25745
1.26107
0.0191469
-0.0224859
-1.05395
1.05729
0.0254249
-0.028514
-0.885733
0.888822
0.0314075
-0.0347095
-0.747201
0.750503
0.0378974
-0.0415489
-0.63435
0.638001
0.0447971
-0.0477346
-0.544172
0.547109
0.0482389
-0.0443679
-0.456615
0.452744
0.0336187
-0.0161958
-0.296251
0.278828
0.00406437
-0.0526707
0.0486063
-0.0458307
0.0433281
0.00250263
-0.0228562
0.03326
-0.336796
0.326392
-0.0391045
0.0401371
-0.459548
0.458516
-0.0389616
0.0366858
-0.541828
0.544104
-0.0340314
0.0314494
-0.634827
0.637409
-0.0284052
0.0255261
-0.748661
0.75154
-0.022286
0.0193141
-0.888004
0.890976
-0.016032
0.0129517
-1.05721
1.06029
-0.00944552
0.00605413
-1.2621
1.26549
-0.00210911
-0.00176036
-1.51088
1.51475
0.00559182
-0.00942235
-1.51191
1.51574
0.0126591
-0.0159589
-1.26451
1.26781
0.0188313
-0.0218782
-1.0604
1.06345
0.0246427
-0.0276742
-0.891891
0.894922
0.0303827
-0.0332586
-0.753724
0.7566
0.0356968
-0.0382035
-0.641084
0.643591
0.0403525
-0.0413618
-0.548931
0.54994
0.0401577
-0.0340634
-0.44749
0.441396
0.0233882
-0.0102047
-0.263641
0.250458
0.00257948
-0.0454527
0.0428732
-0.0412461
0.0394705
0.00177552
-0.0168058
0.0260896
-0.316511
0.307228
-0.0327286
0.0348936
-0.456897
0.454732
-0.034495
0.0328428
-0.546067
0.547719
-0.0306818
0.0286066
-0.639695
0.641771
-0.0262005
0.0238284
-0.754164
0.756536
-0.0209992
0.018235
-0.893847
0.896611
-0.0150258
0.0119817
-1.06331
1.06635
-0.00851882
0.00521737
-1.26879
1.27209
-0.00140472
-0.00231559
-1.51853
1.52225
0.00598687
-0.00965262
-1.51948
1.52315
0.0127579
-0.0159583
-1.27108
1.27428
0.0187379
-0.0216449
-1.06648
1.06939
0.0241399
-0.026696
-0.897754
0.90031
0.0288447
-0.0310323
-0.759068
0.761256
0.032925
-0.0348984
-0.645766
0.647739
0.0363681
-0.0365426
-0.550481
0.550656
0.0341158
-0.027114
-0.434768
0.427767
0.0174669
-0.00736766
-0.238968
0.228869
0.00186921
-0.0407062
0.038837
-0.0379405
0.0366019
0.0013386
-0.012853
0.020837
-0.298602
0.290618
-0.0276293
0.0305848
-0.452146
0.44919
-0.030818
0.0297225
-0.54913
0.550225
-0.0277512
0.0258572
-0.643783
0.645677
-0.0236852
0.0215763
-0.758748
0.760857
-0.0190951
0.0166444
-0.899151
0.901602
-0.0137398
0.0108961
-1.06925
1.07209
-0.00757111
0.00436001
-1.27532
1.27853
-0.000637286
-0.00297716
-1.52589
1.5295
0.00653068
-0.0100711
-1.52676
1.5303
0.0130372
-0.0160357
-1.27742
1.28042
0.0185505
-0.0210772
-1.07213
1.07466
0.0231866
-0.0253157
-0.902624
0.904754
0.0271356
-0.0290276
-0.763263
0.765155
0.0306929
-0.0324415
-0.649578
0.651327
0.0332738
-0.032728
-0.55048
0.549934
0.0293999
-0.0221133
-0.420569
0.413282
0.0136646
-0.00569286
-0.219937
0.211965
0.00145249
-0.0372039
0.0357514
-0.035432
0.0343974
0.00103463
-0.0100632
0.0168212
-0.283275
0.276517
-0.0233552
0.0267712
-0.445991
0.442575
-0.0275924
0.0269232
-0.551105
0.551774
-0.0251946
0.0234387
-0.647546
0.649302
-0.0214036
0.0194218
-0.762894
0.764876
-0.0170895
0.0147977
-0.903896
0.906188
-0.0120983
0.00945058
-1.07476
1.07741
-0.00633506
0.00328831
-1.28162
1.28466
0.00028412
-0.00376788
-1.53303
1.53652
0.00717737
-0.0105274
-1.53375
1.5371
0.0132745
-0.0159894
-1.2833
1.28601
0.0182326
-0.0204672
-1.07704
1.07928
0.0223371
-0.024231
-0.906767
0.908661
0.0258503
-0.027534
-0.766933
0.768617
0.0290041
-0.0304212
-0.652931
0.654348
0.030759
-0.0295042
-0.549046
0.547791
0.0255763
-0.0183949
-0.406027
0.398845
0.0110554
-0.00457625
-0.204812
0.198333
0.00117305
-0.0344564
0.0332833
-0.0334883
0.0326796
0.000808693
-0.00799499
0.0136841
-0.270327
0.264637
-0.0197386
0.0233585
-0.439054
0.435434
-0.0246653
0.0242517
-0.552354
0.552768
-0.0227991
0.0211606
-0.651047
0.652686
-0.0192272
0.0173373
-0.766802
0.768691
-0.0151059
0.0129132
-0.908358
0.910551
-0.0103336
0.00781266
-1.07992
1.08244
-0.00485558
0.00196424
-1.28758
1.29047
0.00142642
-0.00472905
-1.53988
1.54319
0.00794155
-0.0110594
-1.54033
1.54345
0.0135846
-0.0160531
-1.28863
1.2911
0.0180806
-0.0200916
-1.08142
1.08343
0.0217655
-0.023454
-0.910469
0.912157
0.0248925
-0.0263866
-0.770197
0.771691
0.0276689
-0.0287241
-0.65556
0.656615
0.0287023
-0.0267969
-0.546216
0.54431
0.0224981
-0.0156168
-0.391811
0.38493
0.00920747
-0.00379641
-0.192439
0.187028
0.000977307
-0.0322222
0.0312449
-0.0319684
0.0313346
0.000633794
-0.00639925
0.0111755
-0.259436
0.25466
-0.0166458
0.0202737
-0.431818
0.42819
-0.0219131
0.0217324
-0.553111
0.553292
-0.020519
0.0189408
-0.654342
0.65592
-0.0170691
0.0152368
-0.770537
0.772369
-0.0130773
0.0109573
-0.912622
0.914742
-0.00846297
0.00602695
-1.08484
1.08727
-0.00317796
0.000411267
-1.29324
1.29601
0.00280133
-0.00590083
-1.54635
1.54945
0.00889088
-0.0117731
-1.54645
1.54933
0.0140945
-0.0163476
-1.29348
1.29573
0.0181833
-0.0199866
-1.08536
1.08716
0.021473
-0.0229657
-0.913767
0.915259
0.02424
-0.0255659
-0.773105
0.774431
0.0267129
-0.0273742
-0.657455
0.658117
0.026997
-0.0245615
-0.542159
0.539723
0.0200514
-0.013541
-0.378246
0.371735
0.00787776
-0.00324234
-0.182046
0.17741
0.000838772
-0.0303495
0.0295107
-0.0307806
0.0302884
0.000492157
-0.00511419
0.00910281
-0.250308
0.246319
-0.0139434
0.0174315
-0.424648
0.421159
-0.0192695
0.0192973
-0.553421
0.553393
-0.0182972
0.0167721
-0.657538
0.659063
-0.0149388
0.0131333
-0.774165
0.775971
-0.0110026
0.00891545
-0.916751
0.918838
-0.00647107
0.00409806
-1.08959
1.09196
-0.00133945
-0.00132283
-1.29866
1.30132
0.00439447
-0.00733247
-1.55243
1.55537
0.0101352
-0.0128027
-1.55209
1.55476
0.014923
-0.0169581
-1.29791
1.29994
0.0186003
-0.0202017
-1.0889
1.0905
0.0215164
-0.0228326
-0.916689
0.918005
0.0239545
-0.0251128
-0.775682
0.77684
0.026063
-0.0263698
-0.658572
0.658879
0.025621
-0.0227477
-0.537085
0.534211
0.0181342
-0.0119976
-0.365433
0.359296
0.00691933
-0.00284956
-0.173093
0.169023
0.000742006
-0.0287326
0.0279906
-0.0298638
0.0294919
0.000371943
-0.0040348
0.00732945
-0.242706
0.239411
-0.0115258
0.0147603
-0.417823
0.414588
-0.0166632
0.0168551
-0.553345
0.553154
-0.0159427
0.0145012
-0.660617
0.662058
-0.0126764
0.0108723
-0.777747
0.779551
-0.00875037
0.0066828
-0.920807
0.922875
-0.00427194
0.00194182
-1.09421
1.09654
0.000754254
-0.00333859
-1.30388
1.30646
0.00629385
-0.00908607
-1.55819
1.56098
0.0117147
-0.0141788
-1.55732
1.55978
0.0161044
-0.0179219
-1.3019
1.30371
0.0193644
-0.0207503
-1.09203
1.09341
0.0218767
-0.0230077
-0.919259
0.92039
0.023979
-0.024973
-0.777945
0.778939
0.0256827
-0.0257116
-0.659047
0.659076
0.024577
-0.0213373
-0.531168
0.527929
0.0166794
-0.0108749
-0.353356
0.347551
0.00624185
-0.00257854
-0.165189
0.161526
0.000677244
-0.0272938
0.0266165
-0.0291791
0.0289139
0.000265167
-0.00308676
0.00575238
-0.236454
0.233788
-0.00930289
0.012203
-0.411548
0.408648
-0.0140665
0.0143609
-0.552988
0.552693
-0.0135171
0.0121392
-0.663557
0.664935
-0.0103093
0.00847876
-0.781334
0.783165
-0.00632297
0.00422917
-0.924829
0.926923
-0.00180128
-0.000526869
-1.09876
1.10109
0.00319423
-0.00572126
-1.30894
1.31147
0.00857272
-0.0112254
-1.56365
1.56631
0.0136808
-0.0159375
-1.56213
1.56438
0.0176666
-0.019266
-1.30546
1.30705
0.0205134
-0.0216939
-1.09474
1.09592
0.0226395
-0.0235904
-0.921467
0.922418
0.0244129
-0.0252357
-0.779863
0.780686
0.0256863
-0.0254521
-0.658952
0.658718
0.0239114
-0.0203249
-0.524543
0.520956
0.0156345
-0.0100942
-0.34192
0.336379
0.00578549
-0.00240319
-0.158038
0.154656
0.000637952
-0.0259733
0.0253354
-0.0287047
0.0285408
0.000163909
-0.00220547
0.00427795
-0.231438
0.229365
-0.00717505
0.00966698
-0.405982
0.40349
-0.0113787
0.0116956
-0.552478
0.552161
-0.0108889
0.00954344
-0.6664
0.667745
-0.0076873
0.00580725
-0.784977
0.786857
-0.00359002
0.00144528
-0.928905
0.93105
0.00102528
-0.00337558
-1.1033
1.10565
0.00604243
-0.00854041
-1.31389
1.31639
0.0113177
-0.0138531
-1.56884
1.57138
0.0161477
-0.0182025
-1.56652
1.56857
0.0197331
-0.021106
-1.30857
1.30994
0.0221474
-0.023105
-1.09705
1.09801
0.0238506
-0.0245874
-0.923321
0.924058
0.02523
-0.0258831
-0.781423
0.782076
0.0260338
-0.0254734
-0.658261
0.6577
0.0235413
-0.0196481
-0.517263
0.513369
0.014928
-0.00958305
-0.330988
0.325643
0.00549927
-0.00230064
-0.151403
0.148204
0.00061784
-0.0247235
0.0241056
-0.0284335
0.028372
6.15133e-05
-0.00134338
0.00283449
-0.227598
0.226107
-0.00506142
0.00708019
-0.401271
0.399252
-0.00853535
0.00878717
-0.551991
0.55174
-0.00796057
0.00659901
-0.669222
0.670583
-0.00467196
0.00271358
-0.788717
0.790676
-0.000410053
-0.00180542
-0.933069
0.935285
0.00434109
-0.00673592
-1.10788
1.11027
0.00942872
-0.0119201
-1.31878
1.32127
0.0146404
-0.0170629
-1.5738
1.57622
0.019192
-0.0210339
-1.5705
1.57234
0.0223516
-0.0234747
-1.31123
1.31235
0.0242799
-0.0249756
-1.0989
1.0996
0.0254854
-0.0259909
-0.924755
0.92526
0.0264603
-0.0269315
-0.782599
0.78307
0.0268031
-0.025873
-0.656873
0.655942
0.0235426
-0.0193315
-0.50939
0.505179
0.0145474
-0.009314
-0.320421
0.315187
0.00536299
-0.00226314
-0.145099
0.141999
0.000615534
-0.0235081
0.0228926
-0.028369
0.028417
-4.79959e-05
-0.000455949
0.00135662
-0.224924
0.224023
-0.00288017
0.00435909
-0.397542
0.396063
-0.00546149
0.00557578
-0.551697
0.551583
-0.00468949
0.00327103
-0.672117
0.673535
-0.00125217
-0.000819835
-0.792615
0.794687
0.00325986
-0.00559649
-0.937377
0.939714
0.00825301
-0.0107364
-1.11256
1.11504
0.0134926
-0.0159968
-1.32365
1.32616
0.0186734
-0.0209894
-1.57851
1.58083
0.0229475
-0.0245557
-1.57402
1.57563
0.025637
-0.026495
-1.31337
1.31423
0.027058
-0.0274873
-1.10025
1.10068
0.0277518
-0.0280035
-0.925739
0.92599
0.0282662
-0.0284559
-0.783272
0.783462
0.0280765
-0.0266875
-0.654712
0.653323
0.0239202
-0.019365
-0.50091
0.496355
0.0144709
-0.0092639
-0.310051
0.304844
0.00536041
-0.00228331
-0.138961
0.135884
0.000628848
-0.0222924
0.0216635
-0.0285229
0.0286901
-0.000167229
0.000494537
-0.000227503
-0.223443
0.223176
-0.000541517
0.00140017
-0.39493
0.394071
-0.00203652
0.00191953
-0.551758
0.551875
-0.00090818
-0.000618659
-0.675168
0.676695
0.00276054
-0.00497928
-0.796733
0.798952
0.00759615
-0.0100913
-0.941927
0.944422
0.012906
-0.0155091
-1.11741
1.12002
0.0183594
-0.0209077
-1.32856
1.33111
0.023568
-0.0257944
-1.58302
1.58524
0.0275849
-0.0289486
-1.57708
1.57844
0.0297698
-0.030316
-1.31496
1.31551
0.0305908
-0.0307133
-1.10104
1.10117
0.0307092
-0.0306849
-0.926202
0.926178
0.0307118
-0.030562
-0.783292
0.783142
0.0298513
-0.0279223
-0.651667
0.649738
0.0246911
-0.0197608
-0.491769
0.486838
0.0146985
-0.00942603
-0.299706
0.294434
0.00548587
-0.0023585
-0.13284
0.129713
0.000657001
-0.0210452
0.0203882
-0.0289371
0.0292492
-0.000312082
0.00152897
-0.00191067
-0.223259
0.22364
0.00199605
-0.00186264
-0.393584
0.393451
0.00183161
-0.00230064
-0.55239
0.552859
0.0035222
-0.00522821
-0.678494
0.6802
0.00757902
-0.0100012
-0.801146
0.803569
0.0128419
-0.0155301
-0.946782
0.949471
0.0185396
-0.0213004
-1.12251
1.12527
0.0242855
-0.0269026
-1.33355
1.33617
0.029553
-0.0316619
-1.58731
1.58942
0.0332456
-0.0343156
-1.57961
1.58068
0.0348554
-0.0350492
-1.3159
1.3161
0.0349982
-0.0347731
-1.10119
1.10096
0.0344566
-0.0341115
-0.926067
0.925722
0.0338894
-0.0333201
-0.782551
0.781982
0.0322043
-0.0296788
-0.64761
0.645085
0.0259297
-0.0205561
-0.481889
0.476515
0.0152434
-0.00980228
-0.289197
0.283756
0.00573849
-0.00248802
-0.126591
0.12334
0.00069988
-0.0197375
0.0190376
-0.0296309
0.030112
-0.000481147
0.00279262
-0.00393819
-0.224419
0.225565
0.0049345
-0.0056209
-0.393709
0.394395
0.00630585
-0.0072067
-0.553858
0.554758
0.00870681
-0.0106465
-0.682244
0.684184
0.0132735
-0.0159628
-0.805962
0.808651
0.0191041
-0.0220628
-0.952027
0.954986
0.0253515
-0.0283331
-1.12793
1.13091
0.0315032
-0.0342119
-1.33867
1.34138
0.0368539
-0.0388367
-1.59137
1.59335
0.0401768
-0.040904
-1.58152
1.58225
0.0410898
-0.0408947
-1.3161
1.31591
0.0404802
-0.0398679
-1.10057
1.09996
0.0392015
-0.0384857
-0.925223
0.924508
0.0379305
-0.0368666
-0.780911
0.779847
0.0352366
-0.0320303
-0.642423
0.639216
0.0276811
-0.0217749
-0.471125
0.465218
0.0161183
-0.010398
-0.278319
0.272599
0.0061199
-0.00267162
-0.120068
0.11662
0.000757002
-0.01834
0.017583
-0.0306751
0.0313754
-0.000700231
0.00429997
-0.00635508
-0.227159
0.229214
0.00841014
-0.00999533
-0.39551
0.397095
0.0115211
-0.0129898
-0.556359
0.557828
0.014905
-0.0171624
-0.686517
0.688775
0.0201521
-0.0231879
-0.811304
0.81434
0.0267151
-0.0300123
-0.957825
0.961123
0.0336407
-0.0368851
-1.1338
1.13704
0.040273
-0.0430971
-1.34397
1.3468
0.0457451
-0.0475913
-1.59515
1.59699
0.0486612
-0.0489963
-1.58271
1.58305
0.0487498
-0.0481038
-1.31546
1.31482
0.0472632
-0.0462005
-1.09909
1.09802
0.0451415
-0.0440003
-0.923557
0.922415
0.0429672
-0.0413754
-0.77825
0.776658
0.0390936
-0.0351017
-0.635916
0.631924
0.0300563
-0.0234994
-0.459298
0.452742
0.0173744
-0.011238
-0.266843
0.260706
0.00664023
-0.00291139
-0.11312
0.109391
0.000828222
-0.0168252
0.015997
-0.0321615
0.0331504
-0.000988888
0.0061947
-0.00931765
-0.231723
0.234846
0.0126122
-0.0152542
-0.399273
0.401915
0.0177552
-0.0199322
-0.560182
0.562359
0.0224369
-0.0251601
-0.691515
0.694238
0.0286569
-0.0321444
-0.817338
0.820825
0.0361454
-0.0398473
-0.964301
0.968003
0.0438778
-0.0474325
-1.14018
1.14374
0.0510673
-0.0540029
-1.34949
1.35243
0.0566127
-0.0582456
-1.59862
1.60026
0.0589472
-0.0587846
-1.58308
1.58291
0.0580461
-0.0568356
-1.31381
1.3126
0.0554926
-0.0538944
-1.09659
1.09499
0.0523789
-0.0507459
-0.920936
0.919303
0.0491791
-0.0469684
-0.7745
0.772289
0.0439456
-0.039037
-0.627866
0.622958
0.0331544
-0.0257797
-0.446162
0.438788
0.019032
-0.0123233
-0.254492
0.247783
0.00729228
-0.00320001
-0.105583
0.101491
0.000910245
-0.0151661
0.0142558
-0.0342153
0.0355993
-0.00138396
0.00866991
-0.0131143
-0.238427
0.242872
0.0178763
-0.0217349
-0.405339
0.409198
0.025361
-0.0283902
-0.565667
0.568696
0.0316612
-0.0350107
-0.69755
0.700899
0.0391753
-0.0432436
-0.824278
0.828347
0.0478452
-0.052052
-0.971609
0.975815
0.056569
-0.0604761
-1.14719
1.1511
0.0643609
-0.0673645
-1.35518
1.35819
0.0698463
-0.0711524
-1.60158
1.60289
0.0713667
-0.0705791
-1.58237
1.58158
0.0692415
-0.0673498
-1.31093
1.30904
0.0654202
-0.0632174
-1.0929
1.0907
0.0611745
-0.059007
-0.917225
0.915057
0.0568106
-0.053886
-0.769475
0.766551
0.0499806
-0.0439743
-0.617995
0.611989
0.0370769
-0.0286817
-0.431386
0.422991
0.0211248
-0.0136591
-0.240954
0.233488
0.008067
-0.00352588
-0.0972946
0.0927535
0.000997002
-0.0133444
0.0123474
-0.0370321
0.0389862
-0.00195411
0.0120633
-0.0181932
-0.247747
0.253877
0.0247183
-0.0299859
-0.414161
0.419428
0.0349147
-0.0389633
-0.573169
0.577218
0.0431921
-0.0473561
-0.704945
0.709109
0.0523902
-0.0571965
-0.832386
0.837192
0.0625437
-0.0673468
-0.979943
0.984746
0.0723955
-0.0766406
-1.15488
1.15913
0.0807075
-0.0836822
-1.36095
1.36392
0.0858984
-0.0867351
-1.6038
1.60464
0.0863062
-0.084739
-1.58031
1.57874
0.0826671
-0.0799861
-1.30661
1.30393
0.077379
-0.0745013
-1.08788
1.085
0.0718936
-0.0690918
-0.912298
0.909496
0.0661894
-0.0623809
-0.762966
0.759157
0.057418
-0.0501103
-0.605926
0.598618
0.041987
-0.0323137
-0.414564
0.40489
0.0237079
-0.0152563
-0.225855
0.217403
0.00895501
-0.00387711
-0.0880862
0.0830083
0.00108263
-0.0113544
0.0102718
-0.0409305
0.0437599
-0.00282944
0.0169802
-0.0253207
-0.26038
0.268721
0.0340061
-0.0409585
-0.426378
0.433331
0.0474445
-0.0527624
-0.583143
0.588461
0.0582475
-0.0635189
-0.714108
0.719379
0.069675
-0.0753664
-0.841967
0.847658
0.0815335
-0.0869273
-0.989461
0.994855
0.0924219
-0.096865
-1.16317
1.16761
0.100897
-0.103602
-1.36652
1.36923
0.105244
-0.105304
-1.60491
1.60497
0.103961
-0.101386
-1.57656
1.57398
0.0984228
-0.0948257
-1.30062
1.29703
0.0914631
-0.0878431
-1.08136
1.07774
0.0846233
-0.0811143
-0.905897
0.902388
0.077508
-0.0726693
-0.754558
0.749719
0.0664762
-0.0576093
-0.591224
0.582357
0.0479878
-0.0367139
-0.395179
0.383906
0.0267685
-0.0170702
-0.208755
0.199057
0.00991143
-0.0042282
-0.0778
0.0721168
0.00115873
-0.00920216
0.00804343
-0.0464657
0.0507666
-0.00430091
0.0245857
-0.0359088
-0.277452
0.288775
0.0473641
-0.0565607
-0.443009
0.452206
0.0650142
-0.0718556
-0.596209
0.603051
0.0789143
-0.0856441
-0.725521
0.732251
0.0929954
-0.0995136
-0.853251
0.85977
0.106332
-0.11208
-1.00005
1.0058
0.117695
-0.122
-1.17167
1.17598
0.125603
-0.127665
-1.37135
1.37342
0.128328
-0.12726
-1.60428
1.60321
0.124702
-0.120856
-1.57066
1.56681
0.116809
-0.112117
-1.29271
1.28802
0.107863
-0.103426
-1.0732
1.06876
0.0995897
-0.0953229
-0.897847
0.893581
0.0909682
-0.0848879
-0.743896
0.737816
0.0772162
-0.0664538
-0.573316
0.562554
0.0550017
-0.0417578
-0.37259
0.359346
0.0301544
-0.0189586
-0.189199
0.178003
0.0108322
-0.00452866
-0.0663493
0.0600457
0.00120968
-0.0069128
0.00570313
-0.05469
0.0620309
-0.00734096
0.0379003
-0.0536293
-0.301048
0.316777
0.0689993
-0.081254
-0.465638
0.477893
0.0917575
-0.0999914
-0.612844
0.621078
0.108627
-0.116663
-0.739537
0.747574
0.124962
-0.13188
-0.865985
0.872903
0.138764
-0.144286
-1.01109
1.01661
0.14939
-0.152968
-1.1796
1.18318
0.155532
-0.156394
-1.3746
1.37546
0.155549
-0.152906
-1.60114
1.59849
0.148753
-0.143334
-1.56205
1.55663
0.137991
-0.132049
-1.28253
1.27659
0.126779
-0.121378
-1.06324
1.05784
0.116803
-0.111791
-0.887986
0.882975
0.106495
-0.0988518
-0.730534
0.722891
0.0893425
-0.0762449
-0.551396
0.538299
0.0625594
-0.047011
-0.346031
0.330482
0.033527
-0.0207182
-0.16684
0.154032
0.011598
-0.00472468
-0.053823
0.0469497
0.00121061
-0.00454249
0.00333188
-0.0688852
0.0729559
-0.00407066
0.0287738
-0.0424807
-0.335089
0.348796
0.0561903
-0.0674102
-0.495574
0.506794
0.07741
-0.0867476
-0.632739
0.642076
0.0972067
-0.106726
-0.755007
0.764526
0.117211
-0.126414
-0.878837
0.888041
0.136091
-0.144559
-1.0212
1.02967
0.153224
-0.160414
-1.18565
1.19284
0.167205
-0.172149
-1.37509
1.38004
0.175795
-0.177059
-1.59456
1.59583
0.175867
-0.172741
-1.55007
1.54694
0.168614
-0.163248
-1.26972
1.26435
0.158196
-0.152236
-1.05125
1.04529
0.147089
-0.141199
-0.876064
0.870174
0.134597
-0.124053
-0.713597
0.703053
0.110414
-0.0921775
-0.524534
0.506298
0.073753
-0.0533246
-0.314671
0.294243
0.0364993
-0.0214697
-0.141658
0.126629
0.0113943
-0.00435819
-0.0406326
0.0335965
0.000996643
-0.00217615
0.00117951
-0.0802757
0.0783186
0.00195712
0.00741786
-0.0161903
-0.365243
0.374016
0.0265507
-0.0346323
-0.522591
0.530672
0.0426771
-0.0504757
-0.653954
0.661753
0.0600236
-0.068878
-0.773549
0.782403
0.0782706
-0.0867588
-0.896672
0.90516
0.095664
-0.103112
-1.03785
1.0453
0.110896
-0.116965
-1.1998
1.20587
0.122592
-0.126314
-1.38458
1.3883
0.128337
-0.128123
-1.59608
1.59587
0.125479
-0.120869
-1.54284
1.53823
0.11525
-0.10837
-1.25829
1.25141
0.101941
-0.0948264
-1.03823
1.03112
0.088282
-0.0808975
-0.860699
0.853315
0.0736864
-0.0644719
-0.688515
0.6793
0.0542012
-0.0418071
-0.486356
0.473962
0.0305403
-0.0198267
-0.273703
0.262989
0.012232
-0.00648351
-0.112223
0.106475
0.00310256
-0.00104479
-0.0268313
0.0247735
0.000167888
9.74736e-05
-0.000265361
-0.0816244
0.0787785
0.00284591
-0.00129863
-0.00366888
-0.385628
0.390596
0.0104815
-0.0164374
-0.542576
0.548532
0.0224826
-0.0292074
-0.67194
0.678664
0.0375125
-0.0452082
-0.790317
0.798012
0.0535825
-0.0609977
-0.912878
0.920293
0.0685352
-0.0752007
-1.05258
1.05925
0.0819529
-0.0872803
-1.21149
1.21681
0.0917447
-0.0944158
-1.39131
1.39398
0.0956097
-0.0944862
-1.59485
1.59372
0.0910118
-0.085646
-1.53288
1.52751
0.0794725
-0.0721845
-1.24423
1.23694
0.0649351
-0.0570357
-1.02302
1.01512
0.0496377
-0.0414099
-0.84374
0.835512
0.0341345
-0.0261488
-0.666277
0.658292
0.0183609
-0.0102781
-0.459742
0.451659
0.00464264
-0.000879561
-0.251479
0.247716
-0.000815433
0.00131647
-0.100057
0.0995562
-0.00112712
0.000627281
-0.0222177
0.0227175
-0.000245729
0.000840228
-0.000594499
-0.0804296
0.0776988
0.00273076
-0.00490581
0.00243709
-0.39915
0.401619
0.00195387
-0.00646072
-0.557578
0.562084
0.0116262
-0.0173094
-0.68677
0.692453
0.0244889
-0.0311411
-0.80505
0.811702
0.0383397
-0.0447351
-0.927184
0.93358
0.0516143
-0.0572939
-1.06549
1.07117
0.0632154
-0.067439
-1.22173
1.22596
0.0712425
-0.073404
-1.39642
1.39858
0.0739798
-0.072227
-1.59219
1.59044
0.0686091
-0.063171
-1.52164
1.5162
0.056929
-0.0491725
-1.22936
1.22161
0.0417478
-0.0335146
-1.0064
0.998169
0.0256445
-0.017394
-0.825559
0.817309
0.0100462
-0.00304112
-0.646867
0.639861
-0.00274493
0.0072688
-0.441906
0.437382
-0.00908822
0.00887102
-0.241464
0.241681
-0.0076185
0.00544467
-0.0980151
0.100189
-0.00353359
0.00165618
-0.0225684
0.0244458
-0.0005179
0.000789684
-0.000271784
-0.079017
0.0766337
0.00238331
-0.00599714
0.00504436
-0.40827
0.409223
-0.00173571
-0.00165983
-0.56967
0.573065
0.00586877
-0.0110618
-0.699308
0.704501
0.0171397
-0.0230367
-0.817651
0.823548
0.0293316
-0.0349467
-0.939551
0.945166
0.0409116
-0.0460262
-1.07673
1.08184
0.0510966
-0.0550462
-1.23006
1.23401
0.0583525
-0.0601582
-1.40042
1.40222
0.0604492
-0.0585201
-1.58855
1.58662
0.0547686
-0.0490258
-1.51004
1.5043
0.0427293
-0.0351083
-1.21371
1.20609
0.0277709
-0.0196004
-0.98939
0.981219
0.0122153
-0.00448336
-0.807888
0.800156
-0.00206445
0.0081024
-0.629875
0.623837
-0.0124218
0.015168
-0.430108
0.427362
-0.0154072
0.0133864
-0.238687
0.240708
-0.0107959
0.00759976
-0.1012
0.104396
-0.00479574
0.00218469
-0.0257743
0.0283854
-0.000657186
5.81741e-05
0.000599012
-0.0777568
0.0757424
0.00201442
-0.00584425
0.00533761
-0.414632
0.415139
-0.00333708
0.000530215
-0.579107
0.581913
0.00362275
-0.0081162
-0.710028
0.714521
0.0133917
-0.0185552
-0.828654
0.833818
0.0242027
-0.0292813
-0.950455
0.955534
0.0348176
-0.039381
-1.08671
1.09127
0.0440458
-0.0477058
-1.23772
1.24138
0.0507239
-0.0523415
-1.4038
1.40542
0.0524811
-0.0508534
-1.58461
1.58298
0.0470953
-0.0416484
-1.4981
1.49266
0.0355948
-0.0283963
-1.19834
1.19114
0.0218409
-0.0142931
-0.973014
0.965466
0.00754658
-0.000516445
-0.791783
0.784753
-0.00564017
0.0113076
-0.615207
0.609539
-0.0150063
0.0172383
-0.421647
0.419415
-0.0168479
0.0143806
-0.239335
0.241802
-0.0115154
0.0080358
-0.106434
0.109914
-0.0050199
0.00230259
-0.0302645
0.0329818
-0.000692154
-0.000996657
0.00168881
-0.0768615
0.0753148
0.00154677
-0.0049217
0.00470919
-0.419472
0.419685
-0.00301428
0.000863175
-0.587436
0.589587
0.003043
-0.0071589
-0.719406
0.723522
0.0122006
-0.0166914
-0.838596
0.843087
0.0217066
-0.0262724
-0.960601
0.965167
0.0316087
-0.0358469
-1.0959
1.10014
0.0401202
-0.0437097
-1.24491
1.2485
0.047017
-0.0486239
-1.4071
1.40871
0.0489773
-0.0474633
-1.58101
1.5795
0.0443748
-0.0392965
-1.48714
1.48207
0.0341222
-0.027969
-1.18406
1.17791
0.0221094
-0.015564
-0.958147
0.951602
0.00929211
-0.00232292
-0.776894
0.769924
-0.00356911
0.00940334
-0.601505
0.595671
-0.0131274
0.014996
-0.414515
0.412647
-0.0148822
0.0129837
-0.241056
0.242955
-0.0104402
0.00728496
-0.111959
0.115115
-0.0045723
0.00213222
-0.0348012
0.0372413
-0.000661592
-0.00209423
0.00275583
-0.0764874
0.0752985
0.00118894
-0.00379957
0.00368425
-0.423419
0.423534
-0.0020651
1.99291e-05
-0.594745
0.59679
0.00367852
-0.00740961
-0.72789
0.731621
0.0117679
-0.0161226
-0.847542
0.851896
0.0208077
-0.0255696
-0.969562
0.974324
0.0302574
-0.0343975
-1.10452
1.10866
0.0389077
-0.0423748
-1.25201
1.25548
0.0453407
-0.0474854
-1.41028
1.41243
0.0481994
-0.0472538
-1.57815
1.57721
0.044736
-0.0407798
-1.47745
1.47349
0.0364828
-0.0312177
-1.17178
1.16651
0.0261056
-0.0200385
-0.944994
0.938927
0.0140273
-0.00732368
-0.762444
0.755741
0.00120212
0.00445706
-0.588025
0.582366
-0.00804373
0.0100857
-0.408105
0.406063
-0.0104231
0.00918192
-0.242169
0.24341
-0.00746864
0.00525982
-0.116423
0.118632
-0.00334284
0.00157864
-0.0385749
0.0403391
-0.000505081
-0.00306377
0.00356886
-0.0766647
0.0756751
0.00098965
-0.00249284
0.00211014
-0.427036
0.427419
-0.000644627
-0.00145352
-0.601507
0.603605
0.00484328
-0.00846299
-0.735826
0.739445
0.012663
-0.0166434
-0.85607
0.86005
0.021487
-0.0255103
-0.978532
0.982555
0.0302389
-0.0342858
-1.11299
1.11704
0.0387723
-0.0425121
-1.25897
1.26271
0.045873
-0.0479276
-1.41439
1.41645
0.0491748
-0.0489109
-1.57633
1.57607
0.0474082
-0.044184
-1.46968
1.46645
0.0406349
-0.0359805
-1.16153
1.15687
0.0312733
-0.0253436
-0.932542
0.926613
0.0195022
-0.012751
-0.748312
0.74156
0.0067762
-0.00117887
-0.5753
0.569702
-0.00252205
0.00453296
-0.401519
0.399508
-0.00530938
0.00493621
-0.241989
0.242362
-0.00415729
0.00293652
-0.119053
0.120274
-0.00188314
0.000935178
-0.0409483
0.0418963
-0.000316
-0.00371299
0.00402899
-0.077139
0.0764549
0.000684087
-0.00134435
0.000486925
-0.430783
0.431641
0.00079918
-0.00304844
-0.607547
0.609796
0.00615509
-0.00967394
-0.74326
0.746779
0.0137174
-0.0178478
-0.86392
0.86805
0.0221153
-0.0263465
-0.986812
0.991043
0.0310962
-0.0349928
-1.12154
1.12543
0.0396395
-0.0434018
-1.26629
1.27005
0.0468973
-0.0495766
-1.41896
1.42164
0.0514789
-0.0517266
-1.57597
1.57622
0.0506972
-0.0483604
-1.46355
1.46121
0.0453987
-0.0410215
-1.15211
1.14774
0.0363796
-0.0307444
-0.920429
0.914794
0.0246754
-0.0182976
-0.734208
0.72783
0.0126275
-0.00721658
-0.563259
0.557848
0.00362709
-0.00109624
-0.394827
0.392296
-0.000150325
0.000715924
-0.240458
0.239892
-0.000808934
0.000677846
-0.119727
0.119858
-0.000553232
0.000353617
-0.0418165
0.0420161
-0.000158632
-0.00401573
0.00417436
-0.0780137
0.0774904
0.000523251
-0.00038834
-0.000414406
-0.434796
0.435598
0.00227567
-0.00439245
-0.613701
0.615818
0.00770802
-0.0111226
-0.750232
0.753646
0.0150306
-0.0187878
-0.871882
0.875639
0.0232163
-0.0271743
-0.995297
0.999255
0.0319155
-0.0362859
-1.1298
1.13417
0.0406157
-0.04474
-1.27388
1.27801
0.0487103
-0.0515578
-1.42425
1.4271
0.053952
-0.0550865
-1.57677
1.5779
0.0545789
-0.052826
-1.45878
1.45703
0.0499371
-0.0457927
-1.1433
1.13916
0.0413581
-0.0357528
-0.908609
0.903004
0.0300861
-0.0240191
-0.720788
0.714721
0.0187327
-0.0135386
-0.551708
0.546514
0.00980037
-0.0068816
-0.387733
0.384814
0.00481587
-0.00331078
-0.237216
0.235711
0.00220108
-0.00123435
-0.118359
0.117392
0.0005374
-6.63574e-05
-0.0412438
0.0407728
-6.86194e-05
-0.00394618
0.0040148
-0.07916
0.0788107
0.000349254
0.000645611
-0.00164166
-0.438959
0.439955
0.00338404
-0.00581065
-0.619497
0.621924
0.0090921
-0.0123751
-0.757
0.760283
0.0163867
-0.0200206
-0.879401
0.883035
0.0243221
-0.0284266
-1.00371
1.00781
0.0331027
-0.0374558
-1.13841
1.14276
0.0420199
-0.0461902
-1.28206
1.28623
0.0503753
-0.0540095
-1.43026
1.4339
0.056903
-0.0583594
-1.57902
1.58047
0.0584716
-0.0568769
-1.45511
1.45352
0.0543348
-0.0504887
-1.13484
1.13099
0.0459781
-0.0405849
-0.897036
0.891643
0.0352462
-0.0294382
-0.708215
0.702407
0.0245432
-0.0194449
-0.540928
0.53583
0.015572
-0.0119934
-0.380061
0.376482
0.00932326
-0.00688745
-0.232172
0.229737
0.00478434
-0.00287378
-0.114985
0.113075
0.00149508
-0.000497977
-0.0393884
0.0383913
5.38079e-05
-0.00364882
0.00359501
-0.0805228
0.0802925