/*--------------------------------*- C++ -*----------------------------------*\
  =========                 |
  \\      /  F ield         | OpenFOAM: The Open Source CFD Toolbox
   \\    /   O peration     | Website:  https://openfoam.org
    \\  /    A nd           | Version:  6
     \\/     M anipulation  |
\*---------------------------------------------------------------------------*/
FoamFile
{
    version     2.0;
    format      ascii;
    class       volVectorField;
    location    "82.7";
    object      U;
}
// * * * * * * * * * * * * * * * * * * * * * * * * * * * * * * * * * * * * * //

dimensions      [0 1 -1 0 0 0 0];

internalField   nonuniform List<vector> 
8800
(
(0.987184 -0.0766655 0)
(1.00189 -0.0551904 0)
(0.999724 -0.0285483 0)
(1.00003 -0.015143 0)
(1.0001 -0.0085435 0)
(1.00012 -0.00504478 0)
(1.00008 -0.0029991 0)
(1.00003 -0.00169897 0)
(0.999994 -0.000793076 0)
(1.00006 -7.78936e-05 0)
(0.999962 0.00065363 0)
(0.999985 0.00142277 0)
(1.00004 0.00243739 0)
(1.00006 0.00400338 0)
(1.00005 0.00663552 0)
(1.00004 0.0113739 0)
(0.999933 0.0208166 0)
(0.999164 0.0386714 0)
(1.0071 0.0724576 0)
(0.771214 0.0366615 0)
(0.363074 -0.0160169 0)
(1.04332 -0.0768142 0)
(1.0846 -0.0704443 0)
(1.04519 -0.0535389 0)
(1.02329 -0.0388897 0)
(1.01203 -0.0262108 0)
(1.00643 -0.0168482 0)
(1.00359 -0.0103153 0)
(1.00215 -0.0056536 0)
(1.00144 -0.0019928 0)
(1.00129 0.0013301 0)
(1.00165 0.00471648 0)
(1.00266 0.00864765 0)
(1.00467 0.0139702 0)
(1.0086 0.0216765 0)
(1.01656 0.0326438 0)
(1.03249 0.0465557 0)
(1.06266 0.0616714 0)
(1.09187 0.0761034 0)
(0.838667 0.0565632 0)
(0.216857 -0.00242928 0)
(1.07591 -0.0501303 0)
(1.09988 -0.0483025 0)
(1.06465 -0.0404527 0)
(1.04004 -0.0335912 0)
(1.02392 -0.0260658 0)
(1.01412 -0.0184785 0)
(1.00856 -0.0116538 0)
(1.00558 -0.00578027 0)
(1.00431 -0.000357681 0)
(1.00464 0.00489138 0)
(1.00658 0.0102855 0)
(1.01062 0.0163637 0)
(1.01794 0.0233775 0)
(1.03052 0.0308406 0)
(1.05061 0.0378666 0)
(1.08035 0.0445475 0)
(1.10626 0.0513586 0)
(0.942508 0.0416241 0)
(0.216131 0.00246241 0)
(0.175193 -0.000815859 0)
(1.01772 -0.0354757 0)
(1.10521 -0.041365 0)
(1.07827 -0.0360446 0)
(1.05348 -0.0301046 0)
(1.03622 -0.0245225 0)
(1.02401 -0.018787 0)
(1.01589 -0.0126988 0)
(1.01101 -0.0065025 0)
(1.00879 -0.00016081 0)
(1.00935 0.00609837 0)
(1.01263 0.0120993 0)
(1.01888 0.0179149 0)
(1.02876 0.0234761 0)
(1.04318 0.0287736 0)
(1.0637 0.0342506 0)
(1.09355 0.0402305 0)
(1.09339 0.0419855 0)
(0.827082 0.0229247 0)
(0.173968 0.000854126 0)
(0.154004 -0.000609624 0)
(0.956249 -0.0254449 0)
(1.10349 -0.0351044 0)
(1.0877 -0.0326202 0)
(1.06174 -0.0279594 0)
(1.04413 -0.0229262 0)
(1.03166 -0.0176687 0)
(1.0228 -0.0121254 0)
(1.01697 -0.00617729 0)
(1.0141 0.000301565 0)
(1.01475 0.0067681 0)
(1.01874 0.0126537 0)
(1.0258 0.0179232 0)
(1.03608 0.0228231 0)
(1.05062 0.0275768 0)
(1.07186 0.0320985 0)
(1.10005 0.0360251 0)
(1.06802 0.0340703 0)
(0.739401 0.0143304 0)
(0.152157 0.000653069 0)
(0.13965 -0.000465676 0)
(0.899406 -0.019057 0)
(1.09585 -0.0300426 0)
(1.09578 -0.0291393 0)
(1.06929 -0.0253964 0)
(1.05085 -0.0212441 0)
(1.03792 -0.0164567 0)
(1.02879 -0.0111538 0)
(1.02265 -0.00539358 0)
(1.01949 0.000947094 0)
(1.02008 0.00726566 0)
(1.02418 0.0129001 0)
(1.03136 0.0178322 0)
(1.04184 0.0222771 0)
(1.05695 0.0262364 0)
(1.07915 0.0296864 0)
(1.10223 0.0323006 0)
(1.03585 0.0281763 0)
(0.672729 0.0102347 0)
(0.137039 0.000515774 0)
(0.129133 -0.000360037 0)
(0.849901 -0.0146872 0)
(1.08351 -0.0258945 0)
(1.10149 -0.0261678 0)
(1.07617 -0.0228664 0)
(1.0572 -0.0192055 0)
(1.0438 -0.0149401 0)
(1.03432 -0.00999487 0)
(1.02793 -0.00444071 0)
(1.02457 0.00172459 0)
(1.025 0.00783223 0)
(1.02906 0.0131912 0)
(1.03634 0.0177043 0)
(1.04709 0.0215407 0)
(1.0626 0.0248331 0)
(1.08523 0.0277593 0)
(1.10128 0.0294973 0)
(1.00082 0.0236826 0)
(0.62075 0.00787854 0)
(0.125591 0.00041896 0)
(0.121121 -0.000279061 0)
(0.807876 -0.0115205 0)
(1.06832 -0.0222657 0)
(1.10507 -0.0235041 0)
(1.08246 -0.0206108 0)
(1.06307 -0.0171597 0)
(1.0494 -0.0131963 0)
(1.03963 -0.00858261 0)
(1.03295 -0.00329402 0)
(1.02932 0.00265728 0)
(1.02956 0.00851875 0)
(1.03356 0.0135303 0)
(1.0409 0.0175632 0)
(1.05174 0.0208887 0)
(1.06746 0.0237681 0)
(1.09042 0.0263909 0)
(1.09742 0.0272257 0)
(0.96537 0.0201693 0)
(0.578903 0.00635393 0)
(0.116448 0.000349132 0)
(0.114928 -0.000215483 0)
(0.772559 -0.00914757 0)
(1.05167 -0.019065 0)
(1.10751 -0.0210317 0)
(1.08837 -0.0185027 0)
(1.0686 -0.0151902 0)
(1.05468 -0.0113818 0)
(1.04471 -0.00697084 0)
(1.03777 -0.00191571 0)
(1.03385 0.00378914 0)
(1.03385 0.00935414 0)
(1.03772 0.0139893 0)
(1.04498 0.0175925 0)
(1.0558 0.0205275 0)
(1.07171 0.0230784 0)
(1.09432 0.0253502 0)
(1.09069 0.0253611 0)
(0.930801 0.0174722 0)
(0.544162 0.0053188 0)
(0.108879 0.000299279 0)
(0.11012 -0.000164163 0)
(0.743013 -0.00730108 0)
(1.03463 -0.0162211 0)
(1.10903 -0.0186931 0)
(1.09401 -0.0164624 0)
(1.07395 -0.0132345 0)
(1.05976 -0.00950741 0)
(1.04959 -0.00520864 0)
(1.04242 -0.000317755 0)
(1.03819 0.00515262 0)
(1.03787 0.0104072 0)
(1.0415 0.0146823 0)
(1.0486 0.0179018 0)
(1.05936 0.0204883 0)
(1.07547 0.0227454 0)
(1.09691 0.0246329 0)
(1.08147 0.023859 0)
(0.897658 0.0154422 0)
(0.514465 0.00460418 0)
(0.1024 0.000264699 0)
(0.106416 -0.000121312 0)
(0.718426 -0.00580664 0)
(1.01804 -0.0136615 0)
(1.10975 -0.0164242 0)
(1.09956 -0.0144563 0)
(1.07925 -0.0112314 0)
(1.06476 -0.00752451 0)
(1.05435 -0.00327671 0)
(1.04691 0.00150964 0)
(1.04233 0.00678856 0)
(1.04161 0.011758 0)
(1.04492 0.0156992 0)
(1.05182 0.0185541 0)
(1.0625 0.0208032 0)
(1.07877 0.0227864 0)
(1.09813 0.0242542 0)
(1.07012 0.0227218 0)
(0.866033 0.0139638 0)
(0.488345 0.00412014 0)
(0.0966672 0.000242404 0)
(0.103629 -8.39473e-05 0)
(0.698162 -0.0045479 0)
(1.00253 -0.0113183 0)
(1.10983 -0.0141875 0)
(1.10498 -0.0123967 0)
(1.08456 -0.00912522 0)
(1.06975 -0.00537746 0)
(1.05907 -0.00111886 0)
(1.0513 0.0036231 0)
(1.04629 0.00876199 0)
(1.04508 0.0134779 0)
(1.048 0.0170996 0)
(1.05465 0.0195925 0)
(1.06522 0.0215105 0)
(1.0816 0.0232277 0)
(1.09828 0.0243261 0)
(1.05689 0.0219624 0)
(0.835738 0.0129513 0)
(0.464692 0.00381187 0)
(0.0914166 0.000229986 0)
(0.101643 -4.93632e-05 0)
(0.68176 -0.00343748 0)
(0.988541 -0.00911986 0)
(1.1095 -0.011895 0)
(1.11025 -0.0102014 0)
(1.08997 -0.00685553 0)
(1.07481 -0.00300577 0)
(1.0638 0.00133085 0)
(1.05563 0.00609049 0)
(1.05009 0.0111435 0)
(1.0483 0.0156426 0)
(1.05076 0.0189603 0)
(1.05709 0.0210917 0)
(1.06752 0.0226734 0)
(1.08393 0.0241032 0)
(1.09746 0.024769 0)
(1.04191 0.0215914 0)
(0.806407 0.0123322 0)
(0.442628 0.00364177 0)
(0.0864402 0.00022541 0)
(0.100398 -1.52939e-05 0)
(0.668929 -0.00240571 0)
(0.976451 -0.00699049 0)
(1.10907 -0.00948905 0)
(1.11551 -0.00780981 0)
(1.09557 -0.00434461 0)
(1.08003 -0.000324774 0)
(1.06862 0.00415984 0)
(1.05996 0.00900343 0)
(1.05378 0.0140214 0)
(1.05129 0.0183294 0)
(1.05319 0.0213522 0)
(1.05914 0.0231119 0)
(1.06939 0.0243523 0)
(1.08578 0.025494 0)
(1.09538 0.0256618 0)
(1.02519 0.0216105 0)
(0.777576 0.0120567 0)
(0.421434 0.00358475 0)
(0.0815722 0.000227304 0)
(0.0998852 2.10412e-05 0)
(0.659523 -0.00139681 0)
(0.966579 -0.00485736 0)
(1.10888 -0.00690826 0)
(1.12091 -0.00514635 0)
(1.10145 -0.00150213 0)
(1.08548 0.00275746 0)
(1.07361 0.00746368 0)
(1.06436 0.0124654 0)
(1.0574 0.0175076 0)
(1.05407 0.0216553 0)
(1.05528 0.0243899 0)
(1.0608 0.0257764 0)
(1.07083 0.0266531 0)
(1.0871 0.0274638 0)
(1.09192 0.0270448 0)
(1.00667 0.0220589 0)
(0.748726 0.0120992 0)
(0.4005 0.00362747 0)
(0.0766734 0.000234974 0)
(0.100119 5.30312e-05 0)
(0.653527 -0.0003551 0)
(0.95923 -0.00264534 0)
(1.10929 -0.0040838 0)
(1.1266 -0.00212872 0)
(1.10771 0.00176666 0)
(1.09128 0.00634692 0)
(1.07885 0.0113577 0)
(1.06887 0.016594 0)
(1.06098 0.0217252 0)
(1.05663 0.0257435 0)
(1.05703 0.0281864 0)
(1.06203 0.0291969 0)
(1.07178 0.029686 0)
(1.08758 0.0301197 0)
(1.08677 0.0289982 0)
(0.986131 0.0229716 0)
(0.719265 0.0124463 0)
(0.379262 0.00376077 0)
(0.0716186 0.000247712 0)
(0.101184 0.000105429 0)
(0.651072 0.000764358 0)
(0.954726 -0.000275934 0)
(1.11066 -0.000933943 0)
(1.13279 0.0013478 0)
(1.11447 0.00559071 0)
(1.09752 0.0105857 0)
(1.08442 0.0159937 0)
(1.07357 0.0215494 0)
(1.06455 0.0268249 0)
(1.05898 0.0307355 0)
(1.05842 0.0328781 0)
(1.0628 0.0335012 0)
(1.0722 0.0335764 0)
(1.08712 0.0335873 0)
(1.07969 0.031596 0)
(0.963213 0.0243883 0)
(0.688541 0.0130864 0)
(0.357193 0.00397584 0)
(0.0662979 0.00026454 0)
(0.103226 0.00015877 0)
(0.652428 0.00188957 0)
(0.953425 0.00233358 0)
(1.11346 0.00264165 0)
(1.1397 0.00538664 0)
(1.12188 0.0101038 0)
(1.10434 0.015621 0)
(1.09044 0.0215347 0)
(1.07853 0.0275044 0)
(1.06814 0.0329907 0)
(1.06111 0.0368122 0)
(1.05943 0.0386133 0)
(1.06306 0.0388413 0)
(1.07204 0.0384699 0)
(1.08543 0.0379748 0)
(1.07035 0.0349459 0)
(0.937436 0.0263491 0)
(0.655848 0.0140135 0)
(0.333798 0.00426407 0)
(0.0606186 0.000284489 0)
(0.106338 0.000222968 0)
(0.658135 0.00336302 0)
(0.955736 0.00526184 0)
(1.11815 0.00679257 0)
(1.14758 0.0101474 0)
(1.13012 0.0154909 0)
(1.1119 0.0216639 0)
(1.09702 0.028206 0)
(1.08381 0.0346868 0)
(1.07177 0.0404365 0)
(1.06302 0.0441595 0)
(1.06002 0.0455955 0)
(1.06275 0.0453934 0)
(1.07123 0.0445326 0)
(1.08248 0.0434766 0)
(1.05833 0.0391578 0)
(0.90815 0.0288972 0)
(0.620422 0.0152135 0)
(0.308616 0.00461246 0)
(0.0545086 0.000306021 0)
(0.11081 0.000309197 0)
(0.668565 0.00508776 0)
(0.962233 0.00876469 0)
(1.12524 0.0116741 0)
(1.15674 0.0158398 0)
(1.13943 0.022002 0)
(1.12036 0.028983 0)
(1.10427 0.0362876 0)
(1.08947 0.0433732 0)
(1.07543 0.049414 0)
(1.06466 0.0529995 0)
(1.0601 0.0540247 0)
(1.06183 0.0533501 0)
(1.06969 0.0519371 0)
(1.07823 0.050203 0)
(1.04301 0.0443367 0)
(0.874528 0.0320389 0)
(0.581448 0.0166491 0)
(0.281244 0.00499808 0)
(0.0479262 0.000326759 0)
(0.116994 0.000423198 0)
(0.684512 0.00723973 0)
(0.973564 0.0129944 0)
(1.1353 0.0175114 0)
(1.16753 0.0227095 0)
(1.15008 0.0299417 0)
(1.12994 0.0379114 0)
(1.11233 0.0461236 0)
(1.09554 0.0538922 0)
(1.07911 0.0602264 0)
(1.06596 0.0635998 0)
(1.05953 0.0640935 0)
(1.06022 0.0629122 0)
(1.06746 0.0608887 0)
(1.07239 0.0583506 0)
(1.02362 0.0505637 0)
(0.835566 0.0357504 0)
(0.538119 0.0182504 0)
(0.251398 0.0053857 0)
(0.0408802 0.000343517 0)
(0.125417 0.000584773 0)
(0.706938 0.0100526 0)
(0.990584 0.0182571 0)
(1.149 0.0246555 0)
(1.18046 0.0311637 0)
(1.16239 0.0397819 0)
(1.14085 0.0489472 0)
(1.12128 0.0581984 0)
(1.10203 0.0666767 0)
(1.08271 0.0732059 0)
(1.06682 0.0762008 0)
(1.05831 0.0760297 0)
(1.05786 0.0742691 0)
(1.06434 0.0715331 0)
(1.06443 0.0679438 0)
(0.999092 0.0578756 0)
(0.790082 0.0399188 0)
(0.489701 0.0198908 0)
(0.218996 0.00572317 0)
(0.0334455 0.000352348 0)
(0.136825 0.00081569 0)
(0.73717 0.0139105 0)
(1.01446 0.0250221 0)
(1.16713 0.0336529 0)
(1.19616 0.0418031 0)
(1.17674 0.0522035 0)
(1.15327 0.0627693 0)
(1.13113 0.073129 0)
(1.1088 0.0822215 0)
(1.08608 0.0887185 0)
(1.0671 0.0910696 0)
(1.05635 0.0900536 0)
(1.05473 0.0876669 0)
(1.05996 0.0840694 0)
(1.05356 0.079192 0)
(0.968076 0.066171 0)
(0.736793 0.0443162 0)
(0.435716 0.0213686 0)
(0.184273 0.00594067 0)
(0.0257853 0.000348682 0)
(0.152516 0.00118237 0)
(0.777237 0.0194427 0)
(1.04685 0.0340836 0)
(1.19064 0.0454459 0)
(1.21551 0.0559034 0)
(1.19349 0.068248 0)
(1.16726 0.0803409 0)
(1.14175 0.0917069 0)
(1.11561 0.10111 0)
(1.08894 0.107145 0)
(1.06657 0.108439 0)
(1.05347 0.10631 0)
(1.05073 0.103202 0)
(1.05411 0.0988112 0)
(1.03878 0.0920554 0)
(0.928797 0.075179 0)
(0.674469 0.0485306 0)
(0.376185 0.0224053 0)
(0.14792 0.00595897 0)
(0.0181614 0.000328507 0)
(0.174708 0.00181475 0)
(0.830365 0.0277958 0)
(1.09053 0.0470033 0)
(1.22065 0.0619179 0)
(1.23895 0.0752784 0)
(1.21272 0.0895879 0)
(1.18257 0.103026 0)
(1.15268 0.114905 0)
(1.12201 0.123947 0)
(1.09092 0.128797 0)
(1.06497 0.128458 0)
(1.04951 0.124894 0)
(1.04567 0.120888 0)
(1.04676 0.115487 0)
(1.01858 0.106339 0)
(0.879065 0.084343 0)
(0.602348 0.0519553 0)
(0.312077 0.0226729 0)
(0.111216 0.00570573 0)
(0.010934 0.000288537 0)
(0.20682 0.00320861 0)
(0.902362 0.0416537 0)
(1.14879 0.0676305 0)
(1.25754 0.0866294 0)
(1.26631 0.102896 0)
(1.2338 0.118629 0)
(1.19835 0.132462 0)
(1.1631 0.143711 0)
(1.12728 0.151255 0)
(1.09151 0.153915 0)
(1.06199 0.151213 0)
(1.04429 0.145808 0)
(1.03943 0.140712 0)
(1.03717 0.134162 0)
(0.990727 0.121521 0)
(0.816368 0.0926722 0)
(0.521014 0.0538265 0)
(0.246052 0.0219466 0)
(0.0762359 0.00515982 0)
(0.00459416 0.000225869 0)
(0.250629 0.00954149 8.96829e-21)
(0.997108 0.0690975 7.7033e-21)
(1.21924 0.102666 -2.69603e-21)
(1.29827 0.123359 0)
(1.29464 0.142436 -6.93372e-35)
(1.2545 0.157732 1.01543e-21)
(1.21299 0.170142 -1.84105e-21)
(1.17193 0.179312 0)
(1.13068 0.184287 3.82024e-35)
(1.09 0.183984 -2.31294e-21)
(1.05675 0.178498 0)
(1.03683 0.171206 -2.77224e-21)
(1.0315 0.165421 -8.20033e-21)
(1.02359 0.158215 -3.88875e-21)
(0.949978 0.139799 -1.17302e-21)
(0.733431 0.100778 -6.97223e-22)
(0.425547 0.0540341 0)
(0.177359 0.0205188 4.8801e-22)
(0.0431676 0.00449399 5.77935e-22)
(-0.000903711 0.000120634 1.05639e-20)
(0.281078 0.0250558 6.25185e-21)
(1.0757 0.1125 1.14927e-22)
(1.27732 0.152583 7.03843e-22)
(1.33511 0.173214 0)
(1.31962 0.19243 -3.45789e-21)
(1.27243 0.205632 -3.94775e-21)
(1.22499 0.215813 -1.84142e-21)
(1.17814 0.222625 -6.59612e-21)
(1.13137 0.22505 0)
(1.08556 0.221959 9.78273e-21)
(1.04836 0.213933 9.73924e-21)
(1.02601 0.204944 2.89731e-21)
(1.01798 0.197744 1.06298e-20)
(0.997933 0.187718 1.50201e-20)
(0.883419 0.159864 0)
(0.618373 0.107727 2.11927e-20)
(0.314015 0.0530896 3.03997e-20)
(0.107308 0.0181036 3.38258e-20)
(0.0112458 0.00266608 -3.87991e-20)
(-0.00603959 -0.000464958 -7.40202e-22)
(0.282705 0.0423773 0)
(1.12608 0.168587 1.00141e-21)
(1.31706 0.213614 0)
(1.36402 0.233927 -4.30332e-21)
(1.33944 0.250241 0)
(1.28635 0.259536 -7.63769e-21)
(1.23336 0.265988 3.72664e-21)
(1.18105 0.269264 -1.31541e-20)
(1.1291 0.268224 -3.25031e-22)
(1.07856 0.261643 5.02074e-21)
(1.03784 0.250602 2.13417e-20)
(1.01341 0.239668 -3.06736e-23)
(1.00232 0.230676 -7.70168e-21)
(0.969216 0.216795 -1.40515e-20)
(0.820609 0.178193 1.66654e-20)
(0.530807 0.112864 -2.95038e-20)
(0.244563 0.0517122 -3.88775e-21)
(0.0679543 0.015527 0)
(-0.00601149 0.000303477 -3.72076e-24)
(-0.00875397 -0.00120627 0)
(0.276068 0.0568932 1.11194e-20)
(1.15374 0.228381 -5.68909e-21)
(1.34202 0.279253 -4.72882e-21)
(1.38339 0.299923 1.97001e-21)
(1.35261 0.312342 -3.31887e-21)
(1.29512 0.317049 1.58677e-20)
(1.23761 0.319028 7.70679e-21)
(1.18065 0.318035 0)
(1.12416 0.31287 -2.48921e-20)
(1.06944 0.302214 0)
(1.02565 0.287733 -1.11167e-20)
(0.999393 0.274513 -1.38215e-20)
(0.985263 0.263312 -8.34201e-21)
(0.940345 0.24445 -1.0161e-20)
(0.76734 0.195195 0)
(0.469513 0.118442 0)
(0.201671 0.0519137 -2.51827e-20)
(0.0428534 0.0132222 4.97182e-21)
(-0.0183534 -0.00247951 -2.92877e-21)
(-0.011002 -0.002103 -3.4696e-21)
(0.268 0.0695901 -2.76267e-21)
(1.16613 0.288033 0)
(1.35601 0.345836 8.73351e-21)
(1.39425 0.367279 5.29805e-21)
(1.35919 0.375779 7.76395e-21)
(1.29852 0.375877 0)
(1.23754 0.373237 7.41681e-21)
(1.17682 0.367726 1.43816e-20)
(1.11652 0.358101 1.26478e-20)
(1.05818 0.343009 2.34454e-20)
(1.01171 0.32474 0)
(0.983873 0.308893 -2.96295e-20)
(0.966915 0.295034 -1.78893e-20)
(0.912362 0.270655 -1.05868e-20)
(0.724128 0.211415 6.49306e-20)
(0.428071 0.124866 7.70603e-21)
(0.175011 0.0529075 3.6291e-20)
(0.0256891 0.0106669 -1.71596e-19)
(-0.0285262 -0.00586826 1.01634e-19)
(-0.0132813 -0.00320486 -1.2406e-19)
(0.260069 0.0809285 7.99864e-22)
(1.16867 0.345583 4.28318e-22)
(1.36199 0.411453 -7.21939e-22)
(1.39827 0.434015 -4.68408e-21)
(1.36015 0.438819 -6.1423e-21)
(1.29713 0.434462 3.60668e-22)
(1.23345 0.427315 -8.02498e-21)
(1.16969 0.417318 1.47345e-20)
(1.10619 0.403155 -2.71188e-20)
(1.04474 0.383473 0)
(0.995866 0.361153 -1.3373e-20)
(0.966568 0.342373 -3.06506e-22)
(0.947034 0.325469 -1.9521e-20)
(0.885428 0.295398 0)
(0.689702 0.226964 -1.40079e-20)
(0.400699 0.132002 -3.31947e-20)
(0.158475 0.0543252 8.83272e-20)
(0.0137009 0.00792148 -8.69833e-20)
(-0.037157 -0.00976711 1.2366e-19)
(-0.0156168 -0.00451732 -1.30116e-19)
(0.25315 0.0912998 -1.10855e-22)
(1.16493 0.400311 4.97053e-22)
(1.36211 0.47506 -8.5965e-22)
(1.39692 0.49901 1.54813e-21)
(1.35657 0.500453 -3.01295e-21)
(1.29177 0.491887 0)
(1.22593 0.480442 -7.29569e-21)
(1.15966 0.466107 -1.53529e-20)
(1.09341 0.447483 -1.40266e-20)
(1.02918 0.42317 0)
(0.978123 0.396689 -1.37563e-20)
(0.947424 0.374695 -1.71151e-20)
(0.925727 0.354544 2.10923e-20)
(0.859374 0.318686 -1.28122e-20)
(0.661807 0.242108 -6.07574e-20)
(0.382645 0.139645 3.59736e-20)
(0.148692 0.0561469 1.06521e-20)
(0.00612294 0.0051359 0)
(-0.0437816 -0.0139118 -1.18919e-19)
(-0.0178277 -0.00599118 -4.4135e-21)
(0.247427 0.101049 8.24028e-22)
(1.15726 0.452034 -1.12865e-21)
(1.35789 0.536102 1.64177e-22)
(1.39142 0.561589 5.94235e-21)
(1.3494 0.560045 -1.04672e-20)
(1.28327 0.547594 1.39438e-20)
(1.21568 0.53213 1.5694e-20)
(1.14725 0.51367 -2.44869e-20)
(1.07858 0.490739 8.74678e-21)
(1.0118 0.461866 -5.72492e-20)
(0.958678 0.431166 -1.55898e-20)
(0.926581 0.405798 0)
(0.902914 0.382206 2.28427e-20)
(0.833448 0.340729 2.73757e-20)
(0.638325 0.256872 3.26795e-20)
(0.370226 0.14781 -3.89413e-20)
(0.143837 0.0584616 -1.15169e-20)
(0.00274249 0.00283902 1.35403e-20)
(-0.0477568 -0.0177674 0)
(-0.0195876 -0.0074776 -9.55141e-21)
(0.242817 0.110265 -1.37256e-20)
(1.14738 0.500823 7.29075e-21)
(1.35063 0.594462 1.96158e-22)
(1.38281 0.621395 3.12137e-21)
(1.33948 0.617212 -4.31888e-21)
(1.27233 0.601215 -8.39871e-22)
(1.20329 0.582069 -1.72054e-20)
(1.133 0.559765 -8.87212e-21)
(1.06214 0.532728 -2.43556e-20)
(0.992973 0.499443 6.15947e-23)
(0.9378 0.464534 -4.86951e-20)
(0.904262 0.435725 4.12899e-20)
(0.878764 0.408562 -2.50879e-20)
(0.807224 0.361723 3.01173e-20)
(0.617052 0.271464 0)
(0.360559 0.156403 -2.1149e-20)
(0.141885 0.0614446 6.28114e-23)
(0.00258808 0.00147161 -5.89523e-20)
(-0.0489488 -0.0207933 -8.69017e-21)
(-0.0205871 -0.00877942 0)
(0.239268 0.119211 0)
(1.13634 0.546918 8.53402e-21)
(1.34122 0.650352 2.8207e-21)
(1.3719 0.67827 -2.35065e-21)
(1.32749 0.671746 -5.98042e-21)
(1.25956 0.652553 0)
(1.18933 0.630065 -7.58776e-21)
(1.1174 0.604238 -2.15201e-22)
(1.0445 0.573363 5.22201e-20)
(0.973022 0.535842 -7.841e-21)
(0.915789 0.496809 -3.52009e-20)
(0.880725 0.464525 2.14532e-20)
(0.853419 0.433804 -4.3747e-22)
(0.78053 0.38182 3.2122e-20)
(0.596594 0.285606 1.95423e-20)
(0.351644 0.165261 -4.56032e-20)
(0.141008 0.0650808 5.39411e-20)
(0.00449671 0.0011656 1.59988e-20)
(-0.0478707 -0.0228233 6.61553e-20)
(-0.0208073 -0.00977403 -1.78945e-19)
(0.236691 0.128036 -4.81427e-21)
(1.12491 0.590497 6.25162e-21)
(1.33029 0.703304 -4.05445e-21)
(1.35937 0.732171 8.36558e-22)
(1.31405 0.723552 0)
(1.24551 0.701494 -5.87373e-21)
(1.17426 0.676016 2.5791e-20)
(1.10085 0.647 1.93991e-20)
(1.02604 0.612595 0)
(0.952269 0.571056 -1.13398e-19)
(0.892923 0.528007 9.54599e-20)
(0.856244 0.492269 0)
(0.827175 0.458039 2.94034e-20)
(0.753337 0.401042 -4.19698e-22)
(0.575823 0.299223 -6.30417e-20)
(0.342117 0.174061 2.46287e-20)
(0.140036 0.0691189 0)
(0.00737871 0.00178145 8.64973e-20)
(-0.0451267 -0.0238371 0)
(-0.0203522 -0.0104291 -8.48487e-20)
(0.23498 0.136767 5.83204e-21)
(1.11355 0.631792 8.3428e-21)
(1.3183 0.753386 -3.95939e-21)
(1.34573 0.783122 0)
(1.29962 0.772626 -4.33526e-21)
(1.2306 0.748014 0)
(1.15848 0.719873 -2.50955e-20)
(1.08373 0.688004 -8.85185e-21)
(1.00708 0.650404 9.17492e-21)
(0.931013 0.605111 -5.61861e-20)
(0.869453 0.558172 9.85817e-21)
(0.831094 0.518998 0)
(0.800268 0.481244 -6.29981e-20)
(0.725525 0.419302 3.87045e-22)
(0.55423 0.311929 0)
(0.331411 0.182306 1.07556e-22)
(0.138051 0.07316 7.92029e-20)
(0.0101731 0.0030438 -7.48779e-20)
(-0.0415785 -0.0239742 2.21675e-20)
(-0.0194117 -0.0107319 0)
(0.233788 0.145356 0)
(1.10249 0.670991 1.01924e-20)
(1.3057 0.800714 6.15138e-21)
(1.33141 0.831197 -5.26078e-22)
(1.2846 0.819005 -8.37536e-22)
(1.2152 0.792126 -1.32821e-20)
(1.14233 0.761637 9.5514e-21)
(1.06634 0.72724 -1.0631e-20)
(0.987924 0.686783 4.12301e-20)
(0.909511 0.638052 -9.01653e-20)
(0.845591 0.587362 -8.95797e-22)
(0.805462 0.544738 -2.75899e-20)
(0.772909 0.503353 1.02503e-19)
(0.697355 0.436417 -4.92365e-22)
(0.531721 0.323469 -4.92604e-20)
(0.319053 0.189566 -8.71146e-20)
(0.134574 0.0768714 0)
(0.0122036 0.00454865 0)
(-0.0379968 -0.0235819 2.39792e-20)
(-0.0182259 -0.0107849 -1.42458e-20)
(0.233256 0.153979 8.34003e-21)
(1.09194 0.707991 -2.32688e-20)
(1.2928 0.84539 -6.60329e-21)
(1.31674 0.876483 0)
(1.2693 0.862752 -3.08375e-22)
(1.19961 0.83387 -1.14964e-20)
(1.12608 0.801326 2.26642e-20)
(1.04895 0.764717 4.15085e-20)
(0.968806 0.721749 5.36265e-20)
(0.887986 0.669921 -7.38445e-20)
(0.821539 0.615657 -8.28247e-20)
(0.779495 0.569518 7.40011e-20)
(0.745211 0.524248 0)
(0.668826 0.452057 -2.25592e-20)
(0.508095 0.333487 -5.32606e-20)
(0.305287 0.195345 -6.28056e-20)
(0.129604 0.0797411 -7.40849e-20)
(0.0131715 0.00583983 2.19395e-20)
(-0.0348071 -0.0229936 -1.29307e-20)
(-0.0169936 -0.0106905 7.13637e-23)
(0.232963 0.162445 0)
(1.08213 0.743124 0)
(1.27983 0.88752 5.1012e-22)
(1.30196 0.919088 0)
(1.25397 0.903961 6.70674e-23)
(1.18405 0.873314 7.24486e-21)
(1.10996 0.838977 0)
(1.03177 0.800456 4.86473e-21)
(0.949944 0.755324 8.96875e-20)
(0.866653 0.700767 -1.70336e-19)
(0.797467 0.643153 0)
(0.753281 0.593394 -4.79036e-20)
(0.717197 0.54382 -5.80314e-22)
(0.640016 0.465892 -3.99597e-22)
(0.483778 0.341521 5.73212e-20)
(0.290391 0.199373 3.41003e-23)
(0.123397 0.0814704 -1.59897e-19)
(0.0131686 0.00666798 4.72475e-20)
(-0.0321376 -0.0224039 1.40225e-20)
(-0.0158034 -0.0105029 0)
(0.232885 0.170703 -3.38627e-20)
(1.07282 0.776591 -1.59319e-20)
(1.26688 0.927183 -2.01196e-20)
(1.28727 0.95912 1.8013e-20)
(1.2388 0.942707 -2.94698e-21)
(1.16873 0.910525 0)
(1.09415 0.874642 1.35175e-20)
(1.01498 0.834488 -1.09687e-20)
(0.931521 0.787534 8.02171e-22)
(0.845714 0.730646 1.26318e-20)
(0.773529 0.669948 1.08102e-19)
(0.726884 0.616468 -1.68468e-20)
(0.688811 0.562017 -6.37488e-20)
(0.610865 0.477574 -2.64131e-20)
(0.459075 0.347012 3.10476e-20)
(0.274889 0.201179 5.66806e-23)
(0.116561 0.0818508 4.31305e-20)
(0.0125159 0.0069565 -1.01837e-19)
(-0.0299919 -0.0219103 1.20852e-19)
(-0.0147368 -0.0102935 1.78381e-20)
(0.23283 0.178712 1.29206e-20)
(1.064 0.808464 -9.01044e-21)
(1.25412 0.964503 1.30668e-21)
(1.27281 0.996704 1.20029e-20)
(1.22394 0.979104 2.013e-21)
(1.15376 0.945578 -1.22217e-20)
(1.07879 0.908373 3.71359e-21)
(0.99872 0.866843 -4.57483e-20)
(0.913697 0.818389 -9.9397e-20)
(0.825326 0.759581 -1.02171e-19)
(0.749886 0.696147 0)
(0.70034 0.638888 -7.44634e-20)
(0.659902 0.578872 9.22593e-20)
(0.581135 0.48677 0)
(0.434158 0.34936 -6.67236e-20)
(0.259332 0.200168 3.95026e-20)
(0.110107 0.0806451 -4.6478e-20)
(0.0119543 0.0068768 -5.48898e-20)
(-0.0282702 -0.0214202 -9.74746e-20)
(-0.0138898 -0.0101131 -7.69799e-20)
(0.233114 0.186602 -1.47032e-20)
(1.05553 0.83874 9.65468e-21)
(1.24163 0.999551 2.16726e-20)
(1.25869 1.03192 1.78558e-20)
(1.2095 1.01325 -3.39526e-21)
(1.13928 0.978561 -5.90192e-21)
(1.06398 0.940223 1.26379e-20)
(0.983104 0.897565 -4.69792e-20)
(0.896577 0.847914 -5.91321e-20)
(0.805637 0.787597 1.07508e-19)
(0.726683 0.72184 2.39449e-19)
(0.673704 0.660851 0)
(0.630304 0.594544 0)
(0.550423 0.493274 -3.04907e-20)
(0.408793 0.347781 0)
(0.24469 0.195137 8.49308e-20)
(0.105965 0.0767054 9.99859e-20)
(0.0137781 0.00607911 0)
(-0.0261544 -0.0209995 0)
(-0.0135419 -0.010164 8.2869e-20)
(0.233142 0.194046 1.68009e-20)
(1.04745 0.867426 1.32739e-20)
(1.22948 1.03244 1.58001e-20)
(1.245 1.0649 -1.75418e-20)
(1.19556 1.04525 -5.08102e-21)
(1.12534 1.00955 4.97806e-21)
(1.04981 0.970251 -1.7305e-20)
(0.968213 0.926683 -1.90704e-22)
(0.880266 0.876118 -1.05505e-21)
(0.786775 0.814704 -7.82106e-22)
(0.704083 0.747105 1.23815e-19)
(0.647059 0.682545 0)
(0.599871 0.609317 9.43242e-20)
(0.518147 0.497148 6.54992e-20)
(0.382135 0.341615 1.56388e-19)
(0.230776 0.183816 4.59055e-20)
(0.106763 0.0660913 -5.38494e-20)
(0.0244647 -0.000831561 -3.17363e-20)
(-0.0156487 -0.0229029 0)
(-0.0120874 -0.010253 8.92354e-20)
(0.233591 0.201528 -3.81808e-20)
(1.03971 0.894643 0)
(1.21768 1.06323 1.87972e-20)
(1.23177 1.09574 -1.50139e-20)
(1.18218 1.07521 7.68336e-21)
(1.11201 1.03864 -3.33877e-21)
(1.03633 0.998514 3.28627e-20)
(0.954099 0.954229 -3.8491e-21)
(0.864826 0.903009 0)
(0.768844 0.840877 -1.19536e-19)
(0.682247 0.771991 -2.70718e-19)
(0.62053 0.704165 1.11435e-20)
(0.568556 0.62355 1.31242e-19)
(0.483773 0.498889 0)
(0.352567 0.33099 1.06034e-19)
(0.214609 0.163841 0)
(0.110138 0.0389163 0)
(0.0519321 -0.0338477 -3.43125e-20)
(0.0356589 -0.0404106 0)
(0.0222599 0.0014111 2.39677e-20)
(0.233644 0.20847 -4.28073e-20)
(1.03228 0.920659 0)
(1.20622 1.09213 3.15438e-20)
(1.21895 1.12467 0)
(1.16933 1.1034 -4.93033e-21)
(1.09921 1.0661 0)
(1.02347 1.02532 1.45537e-21)
(0.940669 0.980538 6.54114e-21)
(0.850136 0.928943 7.5209e-21)
(0.75167 0.866482 -1.31701e-19)
(0.660978 0.796949 8.14393e-21)
(0.593794 0.726389 9.03094e-20)
(0.535784 0.638079 1.28636e-19)
(0.446151 0.499247 1.7279e-20)
(0.317691 0.317272 8.35507e-20)
(0.189689 0.135662 0)
(0.100509 -0.00907858 1.13574e-19)
(0.0589746 -0.0662834 -6.66937e-20)
(0.0275386 0.0451373 7.80135e-20)
(-0.0386728 0.458997 -9.2687e-20)
(0.233682 0.215262 3.5564e-20)
(1.02493 0.945324 5.34926e-20)
(1.19502 1.11945 0)
(1.2064 1.15214 1.01593e-21)
(1.15681 1.13039 1.50888e-20)
(1.08669 1.09263 -1.74138e-21)
(1.01092 1.05146 1.09258e-20)
(0.927501 1.00654 0)
(0.835647 0.955006 4.9522e-20)
(0.734549 0.892812 -6.84164e-21)
(0.639319 0.823451 0)
(0.565452 0.750859 0)
(0.499274 0.654082 1.15939e-19)
(0.40238 0.498503 -5.35298e-20)
(0.274 0.30214 -8.5223e-20)
(0.150678 0.102136 0)
(0.0598379 0.0173057 5.78552e-20)
(0.00429609 0.457751 -6.71058e-20)
(0.0294244 1.93608 -3.77023e-20)
(0.0557627 2.82927 -4.62671e-20)
(0.233422 0.221529 -2.6881e-20)
(1.01773 0.968814 -6.89721e-20)
(1.18409 1.1452 1.88962e-20)
(1.19414 1.17803 1.51377e-20)
(1.14468 1.15599 0)
(1.07453 1.11795 -3.43869e-21)
(0.998894 1.07663 1.40895e-20)
(0.914797 1.03182 -3.14659e-21)
(0.821657 0.98069 7.45636e-21)
(0.717896 0.91928 1.26047e-19)
(0.617925 0.850889 1.38581e-19)
(0.536512 0.777499 1.02541e-19)
(0.459769 0.671971 1.17499e-19)
(0.353452 0.496129 -1.26974e-19)
(0.226902 0.289691 -1.29629e-19)
(0.101339 0.16124 0)
(0.0365819 0.900366 0)
(0.083211 2.58895 3.22007e-20)
(0.0862921 3.21557 0)
(0.0880052 3.39057 8.39846e-20)
(0.235974 0.22742 0)
(1.01099 0.991523 0)
(1.17315 1.16924 0)
(1.18195 1.2022 4.64896e-21)
(1.1326 1.17996 1.3982e-20)
(1.06255 1.14192 -5.15958e-21)
(0.987319 1.10072 8.76122e-21)
(0.902492 1.05623 -3.05731e-21)
(0.808103 1.00582 6.18745e-20)
(0.701705 0.945722 -1.67352e-21)
(0.596897 0.87906 2.75171e-19)
(0.507346 0.806411 -1.19168e-20)
(0.417154 0.692788 1.43718e-20)
(0.301046 0.490571 1.85048e-20)
(0.168694 0.307575 -6.71598e-22)
(0.0848128 1.02264 3.49517e-22)
(0.119067 2.77125 -1.72275e-19)
(0.123622 3.30218 -6.49254e-20)
(0.115124 3.42336 3.43017e-20)
(0.105445 3.44295 -3.87848e-20)
(0.159284 0.173109 1.65131e-20)
(1.00003 1.0162 0)
(1.16196 1.19177 -3.90581e-20)
(1.17027 1.22509 -4.17571e-20)
(1.12102 1.20277 3.39408e-20)
(1.05142 1.16502 6.43766e-21)
(0.975988 1.12376 -8.63997e-21)
(0.890616 1.07983 3.29566e-20)
(0.795063 1.03047 -5.07912e-20)
(0.686203 0.972255 0)
(0.576544 0.908038 1.36179e-19)
(0.478494 0.837399 -8.43854e-20)
(0.374941 0.722361 0)
(0.24036 0.486756 1.8069e-20)
(0.122189 0.732488 4.2642e-20)
(0.133729 2.57853 -4.80719e-20)
(0.180598 3.32768 5.45214e-20)
(0.164269 3.43239 2.93584e-20)
(0.136844 3.45124 3.32946e-20)
(0.118223 3.46007 5.30973e-20)
(0.270523 0.264999 -3.18254e-20)
(0.982202 1.02612 0)
(1.1434 1.2176 4.23472e-20)
(1.15525 1.25627 4.63318e-20)
(1.10321 1.23643 -3.86693e-20)
(1.03302 1.19902 -1.13579e-20)
(0.956375 1.15932 5.74484e-21)
(0.870371 1.11667 2.61885e-21)
(0.77323 1.06955 4.81469e-20)
(0.661076 1.01547 1.09671e-19)
(0.544918 0.957492 7.654e-21)
(0.433729 0.889267 7.56057e-20)
(0.294941 0.750668 1.37258e-20)
(0.200011 0.893088 -1.74609e-20)
(0.206117 2.45854 -3.91223e-20)
(0.257205 3.3307 3.85153e-20)
(0.240057 3.45632 -4.22233e-20)
(0.206308 3.4754 -2.42861e-20)
(0.173249 3.50007 -2.20225e-20)
(0.128419 3.49548 -3.1952e-21)
(0.260649 0.263851 0)
(0.979133 1.04892 1.24152e-20)
(1.13444 1.24121 -8.753e-21)
(1.14394 1.27991 -5.5594e-21)
(1.09185 1.25979 -2.69338e-20)
(1.02164 1.22256 1.20483e-20)
(0.944642 1.18307 -2.06773e-21)
(0.858318 1.14127 2.31778e-21)
(0.760414 1.09567 -5.00338e-20)
(0.646506 1.04459 -2.71622e-21)
(0.52659 0.991523 -2.47277e-19)
(0.408044 0.925536 1.08567e-20)
(0.274997 0.824131 -1.30313e-20)
(0.235664 1.53561 -1.60916e-20)
(0.299261 3.14428 3.66965e-21)
(0.311524 3.45751 1.77114e-22)
(0.270496 3.50452 6.29564e-20)
(0.236941 3.52849 3.19247e-20)
(0.191438 3.54879 -1.0381e-20)
(0.141794 3.54576 -1.59854e-20)
(0.246672 0.261849 3.18647e-20)
(0.975139 1.07424 8.42496e-20)
(1.12512 1.26692 -2.49773e-20)
(1.13226 1.30518 -2.08915e-20)
(1.08003 1.28461 0)
(1.00987 1.24742 2.32346e-20)
(0.932807 1.2082 9.77352e-23)
(0.846422 1.16721 1.99145e-21)
(0.748072 1.12327 -5.6209e-21)
(0.632966 1.07551 -9.91918e-20)
(0.510266 1.02799 -1.14204e-19)
(0.38532 0.963143 -8.89498e-20)
(0.277421 0.973259 -9.82082e-20)
(0.301953 2.31857 1.01283e-19)
(0.380591 3.3856 8.56383e-20)
(0.351305 3.51302 0)
(0.303805 3.5506 0)
(0.267403 3.58463 -8.23361e-21)
(0.224104 3.62966 0)
(0.15477 3.61506 -1.28489e-20)
(0.236856 0.263754 -4.76126e-20)
(0.969221 1.10043 -7.14691e-20)
(1.11442 1.29386 0)
(1.11931 1.33128 1.23606e-21)
(1.06695 1.31011 -2.96015e-20)
(0.99702 1.27286 3.85447e-20)
(0.920215 1.23395 1.85921e-21)
(0.834 1.19371 9.40351e-22)
(0.735465 1.15141 -3.47603e-20)
(0.619616 1.10702 4.89707e-21)
(0.495124 1.06517 0)
(0.364832 1.00461 0)
(0.299496 1.27278 -8.92329e-20)
(0.382127 2.9778 3.6354e-20)
(0.445843 3.48346 4.6376e-20)